G5.5ncore-PETIM in water
145070
    1aaa     N1    1   4.550   7.981   7.332  0.3061  0.4332 -0.3198
    1aaa     C1    2   4.578   8.129   7.352  0.4251 -0.0886  0.2064
    1aaa     H1    3   4.685   8.138   7.371  0.2836 -0.1446  1.0622
    1aaa     H2    4   4.563   8.185   7.260  0.2016  0.2113  0.4220
    1aaa     C2    5   4.595   7.899   7.446  0.1748 -0.1656  0.0122
    1aaa     H3    6   4.697   7.919   7.481  0.2670 -0.7306  0.0760
    1aaa     H4    7   4.528   7.921   7.530 -0.4333 -0.3846 -0.4140
    1aaa     C3    8   4.421   7.937   7.268  0.1710 -0.0259 -0.4207
    1aaa     H5    9   4.427   7.831   7.238  0.0011 -0.1051 -0.1742
    1aaa     H6   10   4.342   7.922   7.342  0.4783 -0.5222 -0.1836
    1aaa     C4   11   4.375   8.022   7.149  0.0207 -0.1205  0.7873
    1aaa     H7   12   4.400   8.128   7.161  1.9424 -0.5906  1.1244
    1aaa     H8   13   4.438   8.009   7.060  0.1203 -0.7637  0.9515
    1aaa     C5   14   4.492   8.191   7.467  0.6340 -0.3912 -0.7477
    1aaa     H9   15   4.388   8.157   7.462 -0.8131  3.5204  0.5465
    1aaa    H10   16   4.536   8.165   7.565  1.9530 -1.2069 -1.5453
    1aaa     C6   17   4.595   7.750   7.409  0.0115  0.9079 -0.0434
    1aaa    H11   18   4.497   7.702   7.420  0.6506 -0.5658 -0.7012
    1aaa    H12   19   4.609   7.736   7.301  1.2759 -1.9164  0.4428
    1aaa     C7   20   4.714   7.673   7.472  0.6926  0.2094 -0.0133
    1aaa    H13   21   4.691   7.659   7.578 -0.3653 -1.2518 -0.4021
    1aaa    H14   22   4.721   7.574   7.424  1.7097 -1.8162  4.0524
    1aaa     C8   23   4.224   8.006   7.116 -0.5194 -0.2945  0.1123
    1aaa    H15   24   4.193   8.079   7.040 -0.4814 -0.6245 -0.2229
    1aaa    H16   25   4.207   7.905   7.076 -0.3915 -1.3427  2.6429
    1aaa     C9   26   4.492   8.341   7.457 -0.1141 -0.3049 -0.2627
    1aaa    H17   27   4.435   8.368   7.367  1.3275 -0.3891 -1.2036
    1aaa    H18   28   4.451   8.401   7.540  0.7692 -0.6352  0.4182
    2bbb     N1   29   5.114   8.075   7.397  0.0915 -0.3865 -0.5972
    2bbb     C1   30   5.074   8.221   7.390  0.2329  0.3894 -0.4964
    2bbb     H1   31   5.028   8.254   7.484 -0.3995  1.3242 -1.1110
    2bbb     H2   32   4.986   8.233   7.324 -0.7121 -1.5025  0.3722
    2bbb     C2   33   5.222   8.038   7.495  0.6614  0.1126  0.2044
    2bbb     H3   34   5.314   8.089   7.464 -0.5433  2.8217  0.8616
    2bbb     H4   35   5.230   7.930   7.484 -0.3998 -0.0776  1.1914
    2bbb     C3   36   4.997   7.982   7.400  0.2949  0.1272  0.5721
    2bbb     H5   37   4.917   8.025   7.339  1.2224  1.1008  0.0136
    2bbb     H6   38   4.953   7.973   7.500 -0.0798 -2.0765  0.2292
    2bbb     C4   39   5.023   7.839   7.340  0.1008  0.1737 -0.2819
    2bbb     H7   40   5.099   7.784   7.397 -0.8211 -2.2873 -1.3285
    2bbb     H8   41   5.064   7.837   7.238 -1.5147  0.7085 -0.9639
    2bbb     C5   42   5.190   8.326   7.379  0.5177 -0.3530 -0.4742
    2bbb     H9   43   5.250   8.314   7.469  1.5092  1.8371 -0.8087
    2bbb    H10   44   5.146   8.427   7.386  2.0861  0.1592  2.9268
    2bbb     C6   45   5.186   8.069   7.642  0.4645  0.0069  0.1845
    2bbb    H11   46   5.085   8.037   7.673  1.3901 -3.6904 -0.3704
    2bbb    H12   47   5.180   8.178   7.651 -3.7125 -0.2181  1.7268
    2bbb     C7   48   4.902   7.744   7.333  0.0124  0.1666 -0.0627
    2bbb    H13   49   4.935   7.641   7.317  2.1845  0.5578  1.6378
    2bbb    H14   50   4.831   7.778   7.257 -0.7481  1.0599  1.0358
    2bbb     C8   51   5.291   8.028   7.749 -0.4166  0.8172 -0.5765
    2bbb    H15   52   5.249   8.034   7.850  2.9328  1.3499  0.8590
    2bbb    H16   53   5.365   8.109   7.752  1.5260 -0.8880 -0.7448
    2bbb     C9   54   5.277   8.310   7.250 -0.7835 -0.2153  0.0004
    2bbb    H17   55   5.205   8.302   7.167 -1.5706 -1.4776  0.7859
    2bbb    H18   56   5.336   8.218   7.255  0.0559  0.2399 -1.2425
    2bbb     O1   57   4.833   7.748   7.459 -0.5906 -0.3893 -0.5808
    3bbb     N1   58   3.723   8.166   7.229  0.0973 -0.0672  0.2710
    3bbb     C1   59   3.692   8.056   7.126  0.0827 -0.3169  0.3979
    3bbb     H1   60   3.758   8.056   7.038  0.4909  0.1744  0.7002
    3bbb     H2   61   3.595   8.081   7.080 -0.2484 -0.0618  1.2323
    3bbb     C2   62   3.681   8.298   7.183 -0.5151  0.2489 -0.0725
    3bbb     H3   63   3.572   8.297   7.167 -0.5861 -1.0124  0.4471
    3bbb     H4   64   3.720   8.317   7.082 -0.5139  0.5327 -0.0162
    3bbb     C3   65   3.846   8.150   7.311  0.0192 -0.0524 -0.2847
    3bbb     H5   66   3.844   8.046   7.345 -1.5105 -0.3438 -1.2270
    3bbb     H6   67   3.836   8.217   7.397  2.9639 -1.4874  1.2418
    3bbb     C4   68   3.969   8.183   7.222  0.6514  0.0678 -1.3765
    3bbb     H7   69   3.975   8.290   7.201  0.7217  0.2809 -0.3296
    3bbb     H8   70   3.965   8.139   7.122 -1.5759 -3.9099  0.3023
    3bbb     C5   71   3.680   7.910   7.181  0.7310  0.1448  0.6751
    3bbb     H9   72   3.605   7.866   7.115 -0.2394  2.1148  0.4163
    3bbb    H10   73   3.631   7.910   7.279 -0.1928 -1.8084  0.2264
    3bbb     C6   74   3.722   8.419   7.281  0.1186  1.1531  0.0534
    3bbb    H11   75   3.827   8.448   7.269  0.2191  1.1190  0.7970
    3bbb    H12   76   3.705   8.388   7.385 -3.1097  0.7072 -0.5426
    3bbb     C7   77   4.106   8.151   7.280  0.8283 -0.6909  0.0392
    3bbb    H13   78   4.098   8.136   7.388 -1.4210  0.4785  0.0696
    3bbb    H14   79   4.174   8.235   7.265  0.1650 -0.0769  0.4366
    3bbb     C8   80   3.633   8.540   7.250 -0.4708  0.0226  1.0691
    3bbb    H15   81   3.675   8.630   7.298 -1.3084  1.8293 -1.4829
    3bbb    H16   82   3.540   8.528   7.306  0.0868 -0.8361  1.8117
    3bbb     C9   83   3.808   7.822   7.190  0.3029  0.2093  0.5494
    3bbb    H17   84   3.877   7.862   7.266 -1.0563 -0.7385  2.3177
    3bbb    H18   85   3.859   7.818   7.093 -2.1451 -0.0506 -0.7582
    3bbb     O1   86   4.152   8.019   7.240  0.2504  0.2026 -0.0291
    4bbb     N1   87   5.017   8.646   7.321 -0.2723  0.3667 -0.0458
    4bbb     C1   88   5.038   8.605   7.179 -0.6888  0.2559  0.2141
    4bbb     H1   89   4.981   8.515   7.154  0.3512 -0.3743  0.1079
    4bbb     H2   90   5.141   8.582   7.150 -1.1251  1.0076 -2.0947
    4bbb     C2   91   5.105   8.756   7.375  1.0698  0.0523 -0.1776
    4bbb     H3   92   5.090   8.760   7.484  1.3045  0.4946 -0.1641
    4bbb     H4   93   5.083   8.852   7.328 -0.5380 -0.1640  0.0750
    4bbb     C3   94   4.877   8.637   7.376  0.0382  0.5517 -0.0010
    4bbb     H5   95   4.816   8.720   7.338  0.4155  0.4315 -0.8794
    4bbb     H6   96   4.887   8.656   7.483  0.1394 -1.9140  0.4476
    4bbb     C4   97   4.803   8.507   7.359  0.5580  0.1155  0.3997
    4bbb     H7   98   4.867   8.429   7.403 -1.0800 -1.8367 -0.6164
    4bbb     H8   99   4.784   8.483   7.254 -1.1794 -1.3141  1.0159
    4bbb     C5  100   4.993   8.716   7.075  0.5935 -0.1099 -0.1801
    4bbb     H9  101   5.063   8.797   7.099  0.0817  0.3128 -0.1016
    4bbb    H10  102   4.893   8.753   7.103  1.1852  2.7869 -1.8168
    4bbb     C6  103   5.256   8.735   7.337  0.4152  0.4683  0.0899
    4bbb    H11  104   5.278   8.735   7.229  0.8754 -2.5510  0.1631
    4bbb    H12  105   5.275   8.631   7.366 -0.0216  0.2720 -0.3011
    4bbb     C7  106   4.669   8.505   7.438  0.0094  0.1816 -0.1062
    4bbb    H13  107   4.594   8.570   7.391  1.0759  1.1982 -0.4343
    4bbb    H14  108   4.694   8.540   7.539  1.0351  0.3692 -0.4122
    4bbb     C8  109   5.348   8.832   7.416 -0.0411 -0.4239  0.2741
    4bbb    H15  110   5.448   8.788   7.418  0.2015 -0.0310 -1.6410
    4bbb    H16  111   5.313   8.854   7.517 -1.2707  0.1544 -0.2680
    4bbb     C9  112   4.996   8.676   6.928  0.1821  0.3663  0.3806
    4bbb    H17  113   4.916   8.603   6.914 -0.0783  0.7432 -0.1297
    4bbb    H18  114   5.083   8.611   6.910 -0.3536 -0.4136  0.5675
    4bbb     O1  115   4.632   8.372   7.443  0.2862 -0.2207 -0.1122
    5bbb     N1  116   5.330   7.495   7.647 -0.1966 -0.4647  0.6558
    5bbb     C1  117   5.443   7.395   7.661  0.3095 -0.0535 -0.0918
    5bbb     H1  118   5.542   7.441   7.655 -0.2865  1.6629  2.3529
    5bbb     H2  119   5.432   7.322   7.580 -0.1390  0.5013 -0.5375
    5bbb     C2  120   5.310   7.553   7.504  0.7030 -0.5808  0.1795
    5bbb     H3  121   5.407   7.592   7.470  0.7647 -1.2297 -0.3923
    5bbb     H4  122   5.246   7.643   7.509  1.9451  0.3129  0.3203
    5bbb     C3  123   5.330   7.606   7.746  0.6961  0.5320  0.6720
    5bbb     H5  124   5.324   7.563   7.847 -3.4452  0.7215  0.5961
    5bbb     H6  125   5.242   7.670   7.736  0.2146 -0.4822 -1.8174
    5bbb     C4  126   5.455   7.693   7.740  0.2162  0.2164  0.5403
    5bbb     H7  127   5.483   7.712   7.635  4.1566  1.9922  1.8385
    5bbb     H8  128   5.539   7.643   7.789  0.5627 -1.0489 -1.2686
    5bbb     C5  129   5.428   7.322   7.800 -0.0473 -0.2212 -0.2103
    5bbb     H9  130   5.321   7.306   7.820 -0.0138  0.2703  0.4134
    5bbb    H10  131   5.462   7.390   7.880  1.1767  0.4285 -1.2662
    5bbb     C6  132   5.261   7.458   7.395 -0.1454  1.2196 -0.8809
    5bbb    H11  133   5.155   7.441   7.420  0.2838  0.9756  0.8007
    5bbb    H12  134   5.321   7.367   7.386 -0.0875  1.0703  0.8213
    5bbb     C7  135   5.426   7.835   7.796 -0.8222  0.3645 -0.0616
    5bbb    H13  136   5.519   7.892   7.793  2.5244 -4.6736  2.2792
    5bbb    H14  137   5.387   7.839   7.898  0.0568 -0.2037  0.2975
    5bbb     C8  138   5.256   7.537   7.258 -0.6725  0.1250 -0.4845
    5bbb    H15  139   5.360   7.570   7.248 -0.7586  0.6074  0.1883
    5bbb    H16  140   5.196   7.629   7.261 -1.2486 -0.2876  1.2626
    5bbb     C9  141   5.506   7.190   7.814  1.0946  0.0531 -0.0920
    5bbb    H17  142   5.492   7.123   7.728 -1.4054 -0.4367  0.6570
    5bbb    H18  143   5.490   7.140   7.910  2.4903  2.2906  1.3331
    5bbb     O1  144   5.336   7.897   7.708  0.1307 -0.4145 -0.1396
    6bbb     N1  145   5.731   8.668   7.240  0.0840  0.5001  0.6765
    6bbb     C1  146   5.807   8.679   7.369 -0.4305 -0.7707 -0.1636
    6bbb     H1  147   5.741   8.683   7.457 -0.2235 -0.2469 -0.0275
    6bbb     H2  148   5.870   8.768   7.378 -1.8368  0.1040  1.4770
    6bbb     C2  149   5.807   8.706   7.118 -0.0141 -0.6753 -0.5491
    6bbb     H3  150   5.743   8.693   7.029 -0.6511  0.7343 -0.3133
    6bbb     H4  151   5.897   8.648   7.095  0.2142 -0.2772 -0.6563
    6bbb     C3  152   5.647   8.545   7.232  0.0595 -0.3025 -0.6112
    6bbb     H5  153   5.589   8.527   7.323 -1.6679  0.2535 -1.5830
    6bbb     H6  154   5.712   8.457   7.220 -0.7986 -0.9348 -0.6199
    6bbb     C4  155   5.548   8.540   7.112 -1.0866 -0.0462  0.3759
    6bbb     H7  156   5.602   8.540   7.017  0.9968 -2.0657  1.5101
    6bbb     H8  157   5.486   8.631   7.109 -0.9172  0.0328 -1.2762
    6bbb     C5  158   5.915   8.566   7.387  1.3428  0.3999  0.0211
    6bbb     H9  159   5.953   8.529   7.292 -1.5296 -4.5641  0.6586
    6bbb    H10  160   5.861   8.482   7.433 -1.7076  2.1751 -0.1628
    6bbb     C6  161   5.839   8.858   7.108  0.3871  0.3072 -0.1954
    6bbb    H11  162   5.883   8.906   7.196 -0.9252 -1.0568  1.2499
    6bbb    H12  163   5.750   8.920   7.097  2.7095  3.5939 -1.1779
    6bbb     C7  164   5.460   8.417   7.120 -0.1312  0.0774 -0.2097
    6bbb    H13  165   5.521   8.328   7.136  0.5148  0.2276 -1.7806
    6bbb    H14  166   5.410   8.395   7.025  0.7147 -0.2273 -0.5884
    6bbb     C8  167   5.922   8.896   6.983  0.2938  0.2475 -0.1025
    6bbb    H15  168   6.020   8.847   6.988  1.4105  2.4903  0.8627
    6bbb    H16  169   5.941   9.004   6.989  2.0541  0.1234 -2.5464
    6bbb     C9  170   6.035   8.600   7.480  0.0078 -0.1483  0.0857
    6bbb    H17  171   6.077   8.698   7.456  0.4127 -0.6109 -1.1045
    6bbb    H18  172   6.102   8.514   7.470 -1.4545 -1.1752 -1.1724
    6bbb     O1  173   5.353   8.435   7.219  0.5059  0.0356  0.2927
    7bbb     N1  174   3.746   8.706   6.652 -0.1041 -0.3338  0.0036
    7bbb     C1  175   3.687   8.843   6.645  0.1033  0.3247 -0.0459
    7bbb     H1  176   3.603   8.851   6.716  0.4170  1.6345  0.1826
    7bbb     H2  177   3.639   8.858   6.548  0.6122 -1.7724 -0.6523
    7bbb     C2  178   3.857   8.682   6.557  0.4172  0.3917 -0.2185
    7bbb     H3  179   3.882   8.575   6.558 -2.4906 -0.3427 -0.9292
    7bbb     H4  180   3.948   8.737   6.586  0.9697  1.1538 -3.2872
    7bbb     C3  181   3.794   8.659   6.784 -0.2041  0.4051 -0.3063
    7bbb     H5  182   3.861   8.735   6.827 -2.1847  1.7984  0.4455
    7bbb     H6  183   3.852   8.567   6.772 -0.4955  0.1050  0.4898
    7bbb     C4  184   3.675   8.634   6.881 -0.3847  0.4618 -0.2328
    7bbb     H7  185   3.619   8.545   6.848  0.9442 -1.1636  1.7232
    7bbb     H8  186   3.600   8.713   6.880 -0.1903  0.6554 -2.2951
    7bbb     C5  187   3.800   8.949   6.669 -0.1485 -0.3263 -0.1611
    7bbb     H9  188   3.889   8.948   6.605  0.0729  2.4669  0.0378
    7bbb    H10  189   3.846   8.922   6.766 -1.7467  1.7987  1.2401
    7bbb     C6  190   3.826   8.714   6.410 -0.7318  0.2176  0.4622
    7bbb    H11  191   3.917   8.693   6.353 -0.2871  2.3788  0.3172
    7bbb    H12  192   3.804   8.821   6.396 -0.6242  0.0888 -0.7919
    7bbb     C7  193   3.712   8.607   7.029 -0.2068 -0.2417  0.3637
    7bbb    H13  194   3.734   8.704   7.075 -3.3783  0.5413  0.3102
    7bbb    H14  195   3.790   8.531   7.041 -1.1728 -1.0063  1.9934
    7bbb     C8  196   3.708   8.632   6.350 -0.4088 -0.1839  0.7339
    7bbb    H15  197   3.617   8.644   6.410 -0.4775  1.0876  0.3998
    7bbb    H16  198   3.747   8.530   6.356 -0.9065 -0.2814  2.3661
    7bbb     C9  199   3.755   9.097   6.672  0.8057 -0.6106 -0.8458
    7bbb    H17  200   3.743   9.133   6.569  0.1478  1.2788 -0.1393
    7bbb    H18  201   3.831   9.164   6.716  0.0404  0.5875 -1.3181
    7bbb     O1  202   3.604   8.556   7.110 -0.2577  0.1788  0.5028
    8bbb     N1  203   4.094   7.391   7.274 -0.5169  0.3348  0.1016
    8bbb     C1  204   4.190   7.508   7.271  0.1713  0.2788  0.0206
    8bbb     H1  205   4.172   7.574   7.356  0.7248  0.5972 -0.1036
    8bbb     H2  206   4.176   7.570   7.182 -0.4011  2.4299  1.5752
    8bbb     C2  207   4.100   7.288   7.169  0.2276  0.8310  0.0886
    8bbb     H3  208   4.173   7.310   7.090  0.3907 -1.0852 -0.3227
    8bbb     H4  209   4.005   7.274   7.117 -0.0499 -1.0349  1.0238
    8bbb     C3  210   3.965   7.397   7.349 -0.1908 -0.6188  0.1121
    8bbb     H5  211   3.987   7.443   7.445 -1.9654  0.3585  0.0828
    8bbb     H6  212   3.923   7.299   7.376 -1.4696  0.2767  1.4515
    8bbb     C4  213   3.853   7.468   7.278  0.3467 -0.1833 -0.0002
    8bbb     H7  214   3.767   7.457   7.345 -2.3465  3.8141 -2.5813
    8bbb     H8  215   3.831   7.418   7.183  0.1064 -0.3013  0.1158
    8bbb     C5  216   4.338   7.455   7.287 -0.6139 -0.3606  0.2070
    8bbb     H9  217   4.406   7.540   7.274 -1.5212  0.2424 -0.7262
    8bbb    H10  218   4.354   7.384   7.204 -2.5360 -1.1570  0.4985
    8bbb     C6  219   4.129   7.152   7.223  0.2345 -0.4775  0.2688
    8bbb    H11  220   4.048   7.111   7.284 -0.1998 -1.7754 -1.1438
    8bbb    H12  221   4.214   7.167   7.289 -1.3670  2.6838  1.6888
    8bbb     C7  222   3.896   7.611   7.253 -0.3396 -0.1790  0.1172
    8bbb    H13  223   3.962   7.614   7.166 -0.0258  0.2632  0.3713
    8bbb    H14  224   3.948   7.649   7.342  0.8736 -1.9427  0.1916
    8bbb     C8  225   4.164   7.051   7.105 -1.1490 -0.1009 -0.3296
    8bbb    H15  226   4.076   7.023   7.045 -1.1999 -0.5620 -0.0427
    8bbb    H16  227   4.198   6.955   7.146 -1.4534 -0.2144 -0.3375
    8bbb     C9  228   4.360   7.387   7.423 -0.5384 -0.1800  0.0013
    8bbb    H17  229   4.455   7.333   7.417 -0.1794  0.4303  0.1166
    8bbb    H18  230   4.281   7.313   7.443 -0.0930 -0.5232  0.5082
    8bbb     O1  231   3.775   7.692   7.230 -0.3794  0.1638 -0.0852
    9bbb     N1  232   5.520   9.139   7.065 -0.0289 -0.6249 -0.8341
    9bbb     C1  233   5.609   9.256   7.035  0.5970 -0.0151 -0.2087
    9bbb     H1  234   5.647   9.299   7.128  2.2776 -1.1588 -0.3254
    9bbb     H2  235   5.549   9.329   6.981 -1.9960 -0.6501  1.7488
    9bbb     C2  236   5.473   9.059   6.947 -0.1534 -0.5157  0.4086
    9bbb     H3  237   5.552   9.052   6.871 -0.4195 -0.4281  0.1256
    9bbb     H4  238   5.383   9.104   6.905  0.0731 -0.9230 -0.5211
    9bbb     C3  239   5.411   9.179   7.160 -0.2789 -0.3607  0.3490
    9bbb     H5  240   5.320   9.119   7.147 -0.0454 -1.1582  2.1497
    9bbb     H6  241   5.380   9.283   7.147  0.2408 -0.3628 -0.9581
    9bbb     C4  242   5.454   9.166   7.308 -0.1091 -0.2391  0.0777
    9bbb     H7  243   5.381   9.224   7.367  1.0213  2.4429 -1.1318
    9bbb     H8  244   5.545   9.221   7.334 -0.5823  0.4464  0.3151
    9bbb     C5  245   5.734   9.220   6.956 -0.5238 -0.3296  0.3105
    9bbb     H9  246   5.701   9.196   6.854 -0.0236  0.0564  0.0535
    9bbb    H10  247   5.779   9.124   6.984 -0.5363 -0.4746 -0.1640
    9bbb     C6  248   5.441   8.916   6.989 -0.3197 -0.0070  0.4611
    9bbb    H11  249   5.382   8.907   7.081  0.2222  1.4842  0.9628
    9bbb    H12  250   5.528   8.851   7.001 -1.2255 -1.3336 -0.1028
    9bbb     C7  251   5.469   9.021   7.356  0.5377  0.6251  0.2025
    9bbb    H13  252   5.514   9.018   7.456 -0.2609  0.2508  0.5484
    9bbb    H14  253   5.536   8.975   7.282  1.2096 -2.3886  2.6158
    9bbb     C8  254   5.355   8.850   6.883 -0.4787  0.1112 -1.3723
    9bbb    H15  255   5.259   8.904   6.881 -0.1740  0.8045  1.1281
    9bbb    H16  256   5.332   8.747   6.910  0.9511  0.2459  0.4756
    9bbb     C9  257   5.847   9.331   6.949 -0.1857  0.3790  0.0364
    9bbb    H17  258   5.901   9.341   7.044  1.0433 -0.9209 -0.5244
    9bbb    H18  259   5.807   9.431   6.926 -0.8477 -0.0947 -0.9228
    9bbb     O1  260   5.347   8.951   7.342  0.6695  0.0716  0.2499
   10bbb     N1  261   4.912   8.956   6.382 -0.0213  0.2626 -0.5154
   10bbb     C1  262   5.011   9.062   6.377 -0.0902  0.1035 -0.7609
   10bbb     H1  263   5.065   9.074   6.283  0.4598  1.3031 -0.3037
   10bbb     H2  264   5.087   9.029   6.449 -0.8418 -1.5610 -0.7079
   10bbb     C2  265   4.880   8.923   6.242  0.1582 -0.5108  0.4084
   10bbb     H3  266   4.957   8.862   6.194  0.1812 -1.6977  1.8998
   10bbb     H4  267   4.862   9.007   6.174 -1.4973 -1.0329  0.1902
   10bbb     C3  268   4.950   8.836   6.461 -0.0328 -0.1441  0.3241
   10bbb     H5  269   5.049   8.800   6.432  0.6365  1.7355  0.1913
   10bbb     H6  270   4.871   8.761   6.452  0.4099 -0.5355 -0.3250
   10bbb     C4  271   4.951   8.877   6.612 -0.3446 -0.5830  0.3119
   10bbb     H7  272   4.853   8.917   6.640  0.3059  1.9069 -0.7910
   10bbb     H8  273   5.023   8.957   6.636 -0.7086 -0.3438  0.6031
   10bbb     C5  274   4.950   9.197   6.427 -0.1944 -0.6763  0.3050
   10bbb     H9  275   5.033   9.268   6.440 -0.3152  0.0466 -2.4449
   10bbb    H10  276   4.906   9.186   6.527  1.0378 -1.1737  0.8033
   10bbb     C6  277   4.754   8.832   6.235 -0.0691 -0.0508  0.2233
   10bbb    H11  278   4.675   8.871   6.300  0.1607 -0.2598  0.6259
   10bbb    H12  279   4.775   8.730   6.270  1.1670  0.2855  0.4718
   10bbb     C7  280   4.984   8.758   6.702 -0.0204 -0.6177 -0.2316
   10bbb    H13  281   5.082   8.723   6.670 -0.1854 -0.3264 -1.0586
   10bbb    H14  282   4.921   8.672   6.678 -0.0667 -0.6258 -0.0834
   10bbb     C8  283   4.710   8.825   6.078 -0.3421 -0.1937 -0.4058
   10bbb    H15  284   4.799   8.797   6.021  0.1504  0.7228 -0.1142
   10bbb    H16  285   4.682   8.926   6.044 -0.5769 -0.7195 -1.7802
   10bbb     C9  286   4.837   9.252   6.334 -0.3885  0.2884  0.3408
   10bbb    H17  287   4.743   9.196   6.339 -1.0318  1.3733  0.3803
   10bbb    H18  288   4.864   9.254   6.228 -2.3684  0.5961 -0.1784
   10bbb     O1  289   4.981   8.794   6.839  0.0015  0.0957  0.2294
   11bbb     N1  290   5.147   7.355   6.674 -0.5659 -0.1722  0.2484
   11bbb     C1  291   4.994   7.332   6.659  0.8335  0.0057 -0.3466
   11bbb     H1  292   4.967   7.270   6.745  0.4240 -0.4901 -0.8409
   11bbb     H2  293   4.975   7.279   6.565 -0.8538  2.2108 -1.2921
   11bbb     C2  294   5.220   7.224   6.682 -0.0764 -0.1945 -0.6564
   11bbb     H3  295   5.182   7.173   6.771 -0.1352  3.7484  1.7274
   11bbb     H4  296   5.326   7.248   6.698  0.1549 -0.4345 -1.7708
   11bbb     C3  297   5.192   7.453   6.775  0.0533 -0.7926  0.0173
   11bbb     H5  298   5.154   7.551   6.743 -0.2087 -1.1044 -0.6526
   11bbb     H6  299   5.301   7.458   6.769  0.1168 -2.1660 -0.1276
   11bbb     C4  300   5.152   7.411   6.921  0.4985  0.2878  0.6103
   11bbb     H7  301   5.174   7.306   6.945  3.6980  1.0699  1.3221
   11bbb     H8  302   5.045   7.424   6.942  0.1510 -2.3154  0.6214
   11bbb     C5  303   4.918   7.466   6.669 -0.3217 -0.1946  0.0688
   11bbb     H9  304   4.972   7.539   6.609 -2.4033  1.2246 -0.1384
   11bbb    H10  305   4.934   7.500   6.772 -2.1833  1.2566 -0.0930
   11bbb     C6  306   5.216   7.130   6.565  0.9652 -0.2416 -0.3416
   11bbb    H11  307   5.124   7.070   6.564 -0.1226  1.3847 -0.4966
   11bbb    H12  308   5.291   7.056   6.595  1.9220  1.0626  0.5821
   11bbb     C7  309   5.229   7.505   7.018  0.4408 -0.7689 -0.6663
   11bbb    H13  310   5.183   7.605   7.014  1.3158 -0.3539 -0.5144
   11bbb    H14  311   5.336   7.499   6.993  0.4453 -0.9351 -0.6027
   11bbb     C8  312   5.249   7.201   6.433 -0.8220  0.1260  0.1754
   11bbb    H15  313   5.339   7.262   6.452  0.7992 -2.0095 -0.4802
   11bbb    H16  314   5.165   7.255   6.388  0.0763 -0.6374 -2.4814
   11bbb     C9  315   4.760   7.458   6.636  0.2953 -0.0830 -0.4013
   11bbb    H17  316   4.703   7.421   6.722 -1.8006  2.2488 -0.7153
   11bbb    H18  317   4.749   7.388   6.551 -0.8003 -1.3066  0.7225
   11bbb     O1  318   5.217   7.446   7.149  0.5093  0.6425 -0.3657
   12bbb     N1  319   5.936   6.862   7.960 -0.8299  0.1321  0.4673
   12bbb     C1  320   5.845   6.759   8.015  0.2648  0.1518 -0.4478
   12bbb     H1  321   5.748   6.805   8.033 -0.3423 -0.6690 -1.5755
   12bbb     H2  322   5.879   6.734   8.117 -1.3731  0.9971  0.3231
   12bbb     C2  323   6.001   6.945   8.065 -0.2956  0.0782  0.1784
   12bbb     H3  324   6.050   6.879   8.138  0.7026 -1.0265 -1.4613
   12bbb     H4  325   5.931   7.010   8.119  0.1069  1.6876 -1.2130
   12bbb     C3  326   5.872   6.932   7.846  1.1876 -0.8588  0.2029
   12bbb     H5  327   5.839   6.867   7.764 -0.5453 -0.2367  0.3803
   12bbb     H6  328   5.950   6.988   7.793 -1.7808 -0.0723 -3.5526
   12bbb     C4  329   5.762   7.037   7.879 -0.2167  0.5294 -0.1566
   12bbb     H7  330   5.784   7.099   7.967  1.2590  1.8911 -1.4578
   12bbb     H8  331   5.673   6.978   7.907  1.3483 -2.3328 -1.0325
   12bbb     C5  332   5.833   6.629   7.928  0.2855 -0.2429  0.1574
   12bbb     H9  333   5.934   6.604   7.894  0.3012  0.1978 -0.1381
   12bbb    H10  334   5.778   6.660   7.837  1.2221  0.1745 -0.2757
   12bbb     C6  335   6.105   7.046   8.013  0.0154  0.4790  0.3964
   12bbb    H11  336   6.073   7.116   7.935  2.7600 -0.5427 -1.7343
   12bbb    H12  337   6.180   6.997   7.951  1.2373 -0.2951  2.4151
   12bbb     C7  338   5.725   7.123   7.756  0.5666  0.0137  0.5572
   12bbb    H13  339   5.681   7.060   7.678  0.3111  1.5878 -0.5891
   12bbb    H14  340   5.824   7.154   7.720  1.5322 -2.8071  0.6366
   12bbb     C8  341   6.174   7.116   8.132  0.2031  0.6275  0.4176
   12bbb    H15  342   6.268   7.164   8.104 -0.1382  1.6152  0.9600
   12bbb    H16  343   6.192   7.035   8.204 -0.7605 -1.3353 -1.5008
   12bbb     C9  344   5.758   6.518   8.002 -0.3770 -0.6691 -0.1029
   12bbb    H17  345   5.666   6.569   8.036  0.8561  0.6916  1.2739
   12bbb    H18  346   5.822   6.485   8.085  0.1201  1.0609  0.2277
   12bbb     O1  347   5.638   7.226   7.798 -0.0542  0.2395 -0.2733
   13bbb     N1  348   5.949   9.033   6.476  0.0393 -0.4522  0.7406
   13bbb     C1  349   6.010   8.916   6.407  0.0794  0.3301  0.3102
   13bbb     H1  350   5.960   8.893   6.312  0.2876  0.0797  0.2602
   13bbb     H2  351   5.983   8.831   6.471 -1.0078  0.7704  0.4501
   13bbb     C2  352   5.977   9.166   6.400 -0.1574 -0.2833  0.0518
   13bbb     H3  353   6.086   9.176   6.402 -0.2328  0.5077  0.5110
   13bbb     H4  354   5.939   9.254   6.453  0.1809  0.1103 -0.3567
   13bbb     C3  355   5.808   9.013   6.521  0.2059  0.2765 -0.1315
   13bbb     H5  356   5.738   8.984   6.442 -0.2504  0.7023  0.1098
   13bbb     H6  357   5.765   9.108   6.558 -0.6235  0.1735 -0.8042
   13bbb     C4  358   5.794   8.920   6.636 -0.0285  0.3671 -0.0167
   13bbb     H7  359   5.815   8.822   6.592 -0.4848  0.6579 -0.8852
   13bbb     H8  360   5.692   8.926   6.674  0.9683  1.2882  2.6659
   13bbb     C5  361   6.166   8.925   6.399 -0.5604 -0.4339  0.1904
   13bbb     H9  362   6.177   9.004   6.323 -0.8746 -0.8896 -0.3382
   13bbb    H10  363   6.206   8.831   6.360  0.0139  0.5177 -1.5444
   13bbb     C6  364   5.918   9.175   6.261 -0.3179 -0.4253 -0.4711
   13bbb    H11  365   5.822   9.122   6.265  0.8659 -2.6768 -0.5072
   13bbb    H12  366   5.982   9.118   6.193 -0.7564  0.1984 -1.4158
   13bbb     C7  367   5.887   8.952   6.754 -0.8583  0.2949 -0.2310
   13bbb    H13  368   5.880   9.059   6.780  0.0327  0.1062  0.8303
   13bbb    H14  369   5.991   8.931   6.727 -0.3753  1.8335  0.3853
   13bbb     C8  370   5.898   9.317   6.218 -0.0348 -0.0343  0.5296
   13bbb    H15  371   5.821   9.362   6.281  0.4145 -0.6910  1.5760
   13bbb    H16  372   5.862   9.315   6.114  0.6004 -1.9943  0.3176
   13bbb     C9  373   6.228   8.952   6.532  0.2023  0.5733  0.7145
   13bbb    H17  374   6.186   8.893   6.614 -0.1683  1.1442  0.9438
   13bbb    H18  375   6.192   9.054   6.554 -1.7512 -0.3602  1.9229
   13bbb     O1  376   5.848   8.866   6.860  0.2734 -0.6844  0.2390
   14bbb     N1  377   5.924   8.552   8.059 -0.0225  0.4415  0.5115
   14bbb     C1  378   5.844   8.679   8.064 -0.5645  0.3021  0.1424
   14bbb     H1  379   5.767   8.671   7.986 -0.7230 -1.6132  0.4656
   14bbb     H2  380   5.906   8.769   8.058 -0.6079  0.4058  1.0698
   14bbb     C2  381   5.865   8.432   8.124  0.2650  0.5020  0.3523
   14bbb     H3  382   5.770   8.394   8.086 -1.1022  3.1798  0.9621
   14bbb     H4  383   5.843   8.460   8.228 -0.9374 -0.5859  0.4053
   14bbb     C3  384   5.954   8.527   7.920  0.0760  1.1713  0.4493
   14bbb     H5  385   5.861   8.504   7.866  1.7294  1.2115 -2.5040
   14bbb     H6  386   6.017   8.438   7.910 -1.1902  0.2538  0.4786
   14bbb     C4  387   6.035   8.639   7.855  0.0812 -0.5510  0.1892
   14bbb     H7  388   6.119   8.647   7.926 -0.8188 -3.5290  1.7087
   14bbb     H8  389   5.986   8.736   7.870  1.5823  0.1264  0.7651
   14bbb     C5  390   5.767   8.703   8.192 -0.5271  0.6486  0.7128
   14bbb     H9  391   5.702   8.617   8.212 -1.4984  1.6215  1.8330
   14bbb    H10  392   5.696   8.786   8.177  1.1825  1.9880 -0.1275
   14bbb     C6  393   5.951   8.297   8.125 -0.2424 -0.8764 -0.0130
   14bbb    H11  394   5.984   8.266   8.025 -0.9287 -3.1472  0.4365
   14bbb    H12  395   5.907   8.209   8.175  0.1782 -1.7756 -1.2163
   14bbb     C7  396   6.084   8.607   7.711 -0.1167  0.8853 -0.1923
   14bbb    H13  397   6.146   8.517   7.699 -1.2788  0.3608 -2.4115
   14bbb    H14  398   6.142   8.692   7.674 -1.1679  1.5574 -0.3156
   14bbb     C8  399   6.078   8.309   8.202 -0.1748  0.2030  0.0602
   14bbb    H15  400   6.139   8.392   8.165  0.7137 -0.7901 -0.6881
   14bbb    H16  401   6.131   8.213   8.210  0.7562  0.7701  0.9242
   14bbb     C9  402   5.863   8.721   8.312  0.4047  0.1551  0.0781
   14bbb    H17  403   5.919   8.813   8.289 -0.1615  1.0993  2.3322
   14bbb    H18  404   5.933   8.637   8.322 -1.4451 -1.5912 -1.2509
   14bbb     O1  405   5.976   8.599   7.612 -0.1222 -0.1802  0.1883
   15bbb     N1  406   3.665   8.702   5.784 -0.3252  0.4868 -0.2772
   15bbb     C1  407   3.793   8.665   5.721 -0.1572 -0.7184  0.7086
   15bbb     H1  408   3.801   8.557   5.732  2.0463 -0.8255 -1.5417
   15bbb     H2  409   3.875   8.718   5.770  0.7361 -0.1358 -1.3448
   15bbb     C2  410   3.601   8.829   5.739  0.2553 -0.4421  0.4572
   15bbb     H3  411   3.496   8.826   5.772 -0.1342  0.3728 -0.6602
   15bbb     H4  412   3.590   8.827   5.629  0.4948  1.2422  0.3893
   15bbb     C3  413   3.684   8.696   5.929  0.9464  0.7347  0.1696
   15bbb     H5  414   3.745   8.775   5.973  0.0706  0.1054  2.5487
   15bbb     H6  415   3.740   8.604   5.954  0.6914 -0.4679 -3.2639
   15bbb     C4  416   3.548   8.693   6.006  0.2892 -0.0586  0.6498
   15bbb     H7  417   3.466   8.637   5.958 -0.4213  1.3833  0.1639
   15bbb     H8  418   3.502   8.792   6.019 -0.9525 -0.3678 -1.1687
   15bbb     C5  419   3.804   8.701   5.569 -0.1420  0.3954  0.6424
   15bbb     H9  420   3.830   8.807   5.553  0.0319  0.2415 -0.1236
   15bbb    H10  421   3.709   8.694   5.514  0.1114  0.5707  0.1755
   15bbb     C6  422   3.669   8.954   5.788  0.4646 -0.2173 -0.7707
   15bbb    H11  423   3.777   8.951   5.768  0.7291 -1.6596  0.8029
   15bbb    H12  424   3.657   8.956   5.897  0.1882 -1.4805 -0.7723
   15bbb     C7  425   3.558   8.632   6.148  0.3555 -0.0901 -0.4012
   15bbb    H13  426   3.568   8.523   6.146 -1.0290 -0.2377  0.4168
   15bbb    H14  427   3.472   8.668   6.206 -0.3165  0.7896 -1.8998
   15bbb     C8  428   3.621   9.086   5.725 -0.1961  0.6098 -0.3778
   15bbb    H15  429   3.638   9.073   5.617 -0.6981  3.5745 -0.8678
   15bbb    H16  430   3.682   9.170   5.759 -0.1266  0.8133 -1.0017
   15bbb     C9  431   3.913   8.622   5.493  0.1699  0.5643 -0.0299
   15bbb    H17  432   3.895   8.632   5.385 -0.3937 -1.1385 -0.1104
   15bbb    H18  433   3.899   8.517   5.521  1.1078  0.5129  0.2754
   15bbb     O1  434   3.682   8.686   6.215  0.0009  0.2530 -0.1867
   16bbb     N1  435   3.190   9.287   6.774 -0.2412  0.2733  0.2689
   16bbb     C1  436   3.096   9.397   6.822 -0.4193 -0.1531 -0.0144
   16bbb     H1  437   3.124   9.430   6.923 -0.0070  0.9769 -0.4929
   16bbb     H2  438   2.992   9.363   6.829  0.3648 -2.0817  3.3024
   16bbb     C2  439   3.151   9.227   6.644  0.1490  0.6452  0.1727
   16bbb     H3  440   3.207   9.140   6.609 -0.0384  1.3946 -2.1223
   16bbb     H4  441   3.166   9.307   6.570 -3.2060  0.9268 -0.2992
   16bbb     C3  442   3.331   9.329   6.777  0.0511  0.1679 -0.1373
   16bbb     H5  443   3.354   9.379   6.872 -2.8772 -0.6723  1.0932
   16bbb     H6  444   3.364   9.393   6.695 -1.2192 -0.1680 -0.9129
   16bbb     C4  445   3.426   9.202   6.773 -0.4762  0.4073 -0.3241
   16bbb     H7  446   3.408   9.133   6.690  1.0199 -0.6443  0.2043
   16bbb     H8  447   3.422   9.146   6.867 -0.7965  1.1765  0.1299
   16bbb     C5  448   3.104   9.527   6.738 -0.4476 -0.0929 -0.4669
   16bbb     H9  449   3.058   9.510   6.640 -0.3341  1.6419 -0.8351
   16bbb    H10  450   3.204   9.566   6.717 -0.1529  0.1769  1.3353
   16bbb     C6  451   3.000   9.186   6.639 -0.0152  0.2746 -0.3699
   16bbb    H11  452   2.926   9.266   6.624  1.0827  1.3468 -0.1299
   16bbb    H12  453   2.984   9.157   6.744  0.1969  1.9594  0.1488
   16bbb     C7  454   3.572   9.239   6.757  0.7341  0.1153 -0.2911
   16bbb    H13  455   3.607   9.304   6.838  0.0232 -0.5312  0.5514
   16bbb    H14  456   3.603   9.283   6.662  2.1717 -0.7851 -0.2627
   16bbb     C8  457   2.976   9.080   6.530  1.0442  0.0872  0.2000
   16bbb    H15  458   3.049   8.998   6.543  1.1530 -0.1471 -1.8095
   16bbb    H16  459   2.995   9.125   6.433 -1.8097  0.0833 -0.4014
   16bbb     C9  460   3.037   9.649   6.807 -0.2489  0.5805 -0.5590
   16bbb    H17  461   3.089   9.671   6.900  1.8717 -0.7223 -1.3946
   16bbb    H18  462   2.933   9.615   6.819  0.2629 -0.4664  1.0279
   16bbb     O1  463   3.635   9.109   6.752  0.2003  0.2675 -0.5174
   17bbb     N1  464   4.623   7.042   6.692  0.5025 -0.1294 -0.2920
   17bbb     C1  465   4.608   7.070   6.549  0.0277 -0.2919 -0.6138
   17bbb     H1  466   4.564   6.988   6.490 -0.1697 -0.5782 -0.0837
   17bbb     H2  467   4.701   7.107   6.505  0.0669 -0.2534 -0.4976
   17bbb     C2  468   4.763   6.991   6.715  0.4739  0.1445 -0.7974
   17bbb     H3  469   4.838   7.048   6.659  1.0683  0.9261  0.7766
   17bbb     H4  470   4.778   6.886   6.685 -0.6429  0.4774 -2.6204
   17bbb     C3  471   4.512   6.976   6.764  0.7816 -0.2550 -0.4589
   17bbb     H5  472   4.542   6.889   6.825  0.0605  0.3964  0.8658
   17bbb     H6  473   4.432   6.947   6.695  0.2303  1.7071 -0.6822
   17bbb     C4  474   4.445   7.068   6.872  0.1512  0.0359  0.3389
   17bbb     H7  475   4.424   7.171   6.840 -0.3211 -0.3093 -0.4750
   17bbb     H8  476   4.523   7.089   6.946  0.7217  3.9298 -1.2597
   17bbb     C5  477   4.501   7.183   6.533  0.5020  0.7446  0.2159
   17bbb     H9  478   4.540   7.272   6.585  2.3703 -0.5417  1.1102
   17bbb    H10  479   4.408   7.162   6.588  1.9976 -0.4541  2.3892
   17bbb     C6  480   4.811   7.007   6.861 -0.0887 -0.0478 -0.2431
   17bbb    H11  481   4.736   6.965   6.930  0.1208 -1.8470 -1.0907
   17bbb    H12  482   4.819   7.114   6.883  1.0666 -0.3540  0.8984
   17bbb     C7  483   4.315   7.010   6.923  0.2808  0.3022 -0.0737
   17bbb    H13  484   4.330   6.909   6.963 -0.6958  0.5655  0.9790
   17bbb    H14  485   4.235   7.011   6.848 -1.8122  0.7253  2.1086
   17bbb     C8  486   4.944   6.938   6.886  0.1084 -0.4325  0.1285
   17bbb    H15  487   5.014   6.966   6.806  0.0144  0.9524  0.5298
   17bbb    H16  488   4.935   6.831   6.863  1.4249 -0.3816 -0.6957
   17bbb     C9  489   4.470   7.221   6.381 -0.0521  0.5745  0.3168
   17bbb    H17  490   4.545   7.283   6.331 -1.1606  0.0482 -2.0775
   17bbb    H18  491   4.382   7.285   6.365 -0.2605  0.1356 -0.3251
   17bbb     O1  492   4.273   7.096   7.032 -0.0541  0.5577  0.5526
   18bbb     N1  493   4.471   7.536   8.008 -0.9532 -1.2773 -0.2562
   18bbb     C1  494   4.375   7.641   8.058 -0.6738  0.6717  0.7201
   18bbb     H1  495   4.357   7.716   7.980 -1.9488 -1.8851 -1.5741
   18bbb     H2  496   4.423   7.679   8.148 -1.4022  0.2561  1.2930
   18bbb     C2  497   4.607   7.596   8.008  0.2312  0.2717  0.0855
   18bbb     H3  498   4.631   7.638   8.106 -0.3233 -1.4908  1.0114
   18bbb     H4  499   4.614   7.670   7.927 -2.2751 -0.2585 -0.6802
   18bbb     C3  500   4.432   7.445   7.900  0.0130 -0.4364 -0.2712
   18bbb     H5  501   4.338   7.391   7.921 -0.6809  1.0525  0.5303
   18bbb     H6  502   4.497   7.357   7.905  0.8680  0.2739  1.6582
   18bbb     C4  503   4.421   7.504   7.760 -0.0642  0.0961  0.0366
   18bbb     H7  504   4.512   7.562   7.740  0.1414 -0.2438 -0.0111
   18bbb     H8  505   4.338   7.575   7.751  0.2678  0.4478 -0.2490
   18bbb     C5  506   4.244   7.579   8.106  0.0223  0.0798 -0.0367
   18bbb     H9  507   4.254   7.509   8.190  0.1881  0.1192 -0.0246
   18bbb    H10  508   4.212   7.508   8.028 -0.4340  1.5735 -1.2418
   18bbb     C6  509   4.725   7.507   7.962  0.2750  0.8922  0.3702
   18bbb    H11  510   4.705   7.454   7.868  3.0363 -0.6654  0.5983
   18bbb    H12  511   4.751   7.424   8.029 -0.0013  0.1135 -0.4675
   18bbb     C7  512   4.398   7.391   7.658 -0.1216 -0.1902 -0.5392
   18bbb    H13  513   4.311   7.327   7.675  0.5810 -1.3926 -1.3314
   18bbb    H14  514   4.496   7.341   7.655  0.2454  0.4767  0.2681
   18bbb     C8  515   4.859   7.579   7.939 -0.0774  0.6848  0.4543
   18bbb    H15  516   4.932   7.498   7.924 -0.2164  0.7404 -0.4999
   18bbb    H16  517   4.880   7.644   8.025 -1.6906  0.5592  0.9603
   18bbb     C9  518   4.123   7.671   8.133 -0.4520 -0.8082  0.0699
   18bbb    H17  519   4.149   7.745   8.210 -3.2460 -1.4295  1.6748
   18bbb    H18  520   4.048   7.605   8.179 -0.4284 -1.7682 -1.2425
   18bbb     O1  521   4.378   7.471   7.538  0.4746 -0.1433  0.1442
   19bbb     N1  522   5.433   8.734   6.282  0.3336  0.0780 -0.3713
   19bbb     C1  523   5.510   8.608   6.271 -0.4048 -0.4518  0.0985
   19bbb     H1  524   5.442   8.522   6.261  1.3582 -1.7522 -1.0138
   19bbb     H2  525   5.562   8.592   6.366  0.7885  1.4939 -0.2081
   19bbb     C2  526   5.345   8.764   6.157 -0.4936  0.1537 -0.6955
   19bbb     H3  527   5.402   8.805   6.072  0.0785  1.6434  0.3939
   19bbb     H4  528   5.277   8.847   6.182  0.6818  0.6111  1.0275
   19bbb     C3  529   5.350   8.741   6.399  0.0115 -0.0475  0.3117
   19bbb     H5  530   5.310   8.639   6.409  1.8203 -0.7859  0.1927
   19bbb     H6  531   5.268   8.812   6.386 -0.1721 -0.2393  0.4133
   19bbb     C4  532   5.439   8.770   6.523  0.3177 -0.3834  0.7449
   19bbb     H7  533   5.492   8.864   6.501 -1.1316  0.4346  0.7084
   19bbb     H8  534   5.513   8.692   6.542  1.2968  0.8152  1.9480
   19bbb     C5  535   5.611   8.597   6.156 -0.0734  0.0782  0.1787
   19bbb     H9  536   5.664   8.693   6.147  0.6704 -0.5662 -3.5209
   19bbb    H10  537   5.559   8.590   6.059  1.4023  0.6272 -0.6791
   19bbb     C6  538   5.262   8.643   6.103  0.2569  0.1232  0.0788
   19bbb    H11  539   5.236   8.573   6.183 -0.6728 -0.0674 -0.3806
   19bbb    H12  540   5.317   8.579   6.033  0.2597 -0.3965  0.5575
   19bbb     C7  541   5.349   8.788   6.647  0.3000  0.6071 -0.0943
   19bbb    H13  542   5.324   8.686   6.679 -1.4055  0.5870 -1.4179
   19bbb    H14  543   5.257   8.844   6.628  0.0548 -0.2742 -1.5259
   19bbb     C8  544   5.134   8.696   6.033 -0.2617 -0.5512  0.0935
   19bbb    H15  545   5.144   8.792   5.982  0.7197 -0.6176  0.1514
   19bbb    H16  546   5.058   8.700   6.111  0.4059  1.1020  0.6704
   19bbb     C9  547   5.713   8.475   6.177 -0.7149  0.2472  0.6732
   19bbb    H17  548   5.784   8.481   6.094 -0.8141 -0.1550  0.5558
   19bbb    H18  549   5.671   8.375   6.157  0.5446 -0.0812 -0.4121
   19bbb     O1  550   5.418   8.852   6.756  0.0317  0.1893 -0.2970
   20bbb     N1  551   6.387   9.327   6.815 -0.3881  0.5662  0.7158
   20bbb     C1  552   6.456   9.203   6.867 -0.3739 -0.5152  0.2985
   20bbb     H1  553   6.543   9.193   6.802 -0.3226  0.2878  0.2461
   20bbb     H2  554   6.390   9.115   6.861  0.3160 -1.0447  0.4588
   20bbb     C2  555   6.488   9.435   6.788  0.2076 -0.4784  0.2148
   20bbb     H3  556   6.546   9.420   6.696  0.4788  2.4002 -0.1249
   20bbb     H4  557   6.559   9.429   6.873  1.3844  2.4873 -0.4958
   20bbb     C3  558   6.301   9.298   6.699  0.1301  0.0296  0.1386
   20bbb     H5  559   6.348   9.235   6.623  0.9394  0.4935  0.2536
   20bbb     H6  560   6.287   9.388   6.638  2.2130  0.5069  0.3438
   20bbb     C4  561   6.161   9.246   6.741  0.1113  0.8757 -0.2653
   20bbb     H7  562   6.166   9.140   6.766  1.9512  0.6549 -1.4697
   20bbb     H8  563   6.102   9.242   6.649  0.2596 -3.8331 -0.2348
   20bbb     C5  564   6.496   9.224   7.021 -0.0556 -0.4969 -0.5759
   20bbb     H9  565   6.581   9.294   7.025 -1.1391  0.7445  2.0993
   20bbb    H10  566   6.530   9.129   7.064  2.3976  0.0697 -1.1765
   20bbb     C6  567   6.437   9.584   6.784 -0.3199  0.3430  0.6365
   20bbb    H11  568   6.382   9.602   6.692  1.3943  0.8360 -0.3233
   20bbb    H12  569   6.524   9.650   6.773  1.1084 -1.2188  2.1750
   20bbb     C7  570   6.085   9.322   6.855  0.0815  0.3545 -0.8905
   20bbb    H13  571   6.084   9.427   6.825 -1.4960  0.7883  0.5941
   20bbb    H14  572   6.129   9.328   6.955 -2.0442  1.6370 -0.0152
   20bbb     C8  573   6.365   9.635   6.912 -0.4969  0.5024 -0.7149
   20bbb    H15  574   6.411   9.581   6.996 -1.1975  0.9783 -0.0296
   20bbb    H16  575   6.262   9.600   6.900 -0.2965  0.4337 -2.4550
   20bbb     C9  576   6.381   9.281   7.111 -0.3323  0.1703  0.2428
   20bbb    H17  577   6.299   9.208   7.122  0.0327 -0.4297 -0.9620
   20bbb    H18  578   6.341   9.373   7.068 -0.0670  0.7479  1.2122
   20bbb     O1  579   5.945   9.283   6.849 -0.3655 -0.5495  0.4822
   21bbb     N1  580   4.219   8.839   5.878 -0.0546 -0.2858  0.0870
   21bbb     C1  581   4.244   8.957   5.798 -0.3241 -0.4481  0.7888
   21bbb     H1  582   4.323   8.947   5.724  1.0584  0.0984  2.1638
   21bbb     H2  583   4.272   9.040   5.864  3.9894  0.4380 -1.9893
   21bbb     C2  584   4.091   8.834   5.957  0.0685 -0.1546  1.1345
   21bbb     H3  585   4.082   8.736   6.005  0.2403  0.5436  2.6156
   21bbb     H4  586   4.003   8.849   5.893 -0.4927  0.1415  1.9736
   21bbb     C3  587   4.334   8.784   5.959  0.1303 -0.1369  0.4667
   21bbb     H5  588   4.314   8.682   5.995  1.9697 -1.2508 -1.5893
   21bbb     H6  589   4.352   8.849   6.046 -1.5573  0.7400  0.1886
   21bbb     C4  590   4.466   8.775   5.881 -0.1117 -0.2103 -0.2235
   21bbb     H7  591   4.504   8.878   5.886 -1.3538  0.3158 -1.4273
   21bbb     H8  592   4.456   8.749   5.775  1.3134 -1.2554 -0.1227
   21bbb     C5  593   4.120   8.992   5.713  0.6074  0.1258 -0.5519
   21bbb     H9  594   4.033   9.025   5.771  0.3159 -2.9077  0.7890
   21bbb    H10  595   4.081   8.903   5.664 -2.1081  0.7826  0.3254
   21bbb     C6  596   4.096   8.935   6.074  0.5234 -0.3016  0.6933
   21bbb    H11  597   4.141   9.031   6.045 -1.1245  0.3704  0.3151
   21bbb    H12  598   4.165   8.892   6.149  0.1943  1.7486  2.2073
   21bbb     C7  599   4.575   8.680   5.949 -0.4439 -0.2461 -0.0038
   21bbb    H13  600   4.666   8.666   5.890 -1.1573  0.4860 -1.2938
   21bbb    H14  601   4.535   8.579   5.960 -2.1900  0.4655  0.3796
   21bbb     C8  602   3.953   8.965   6.139  0.4884  0.2090  0.6618
   21bbb    H15  603   3.976   8.995   6.242  0.4455 -0.0062  0.7353
   21bbb    H16  604   3.889   8.877   6.150  0.8957  0.1278  2.6378
   21bbb     C9  605   4.142   9.113   5.619 -0.4596  0.9321  0.1872
   21bbb    H17  606   4.199   9.079   5.532  1.1029  1.3032  1.0412
   21bbb    H18  607   4.212   9.182   5.666  0.9297  0.3116 -0.9280
   21bbb     O1  608   4.607   8.725   6.081  0.2306  0.1271 -0.5487
   22bbb     N1  609   4.606   9.776   6.449  0.5889  0.8876 -0.0989
   22bbb     C1  610   4.715   9.862   6.497  0.0624  0.3217  0.3818
   22bbb     H1  611   4.809   9.839   6.445 -0.5862 -0.9148 -0.2662
   22bbb     H2  612   4.735   9.852   6.604 -0.4332 -0.5973  0.3904
   22bbb     C2  613   4.480   9.789   6.530  0.3215 -0.0567  1.2391
   22bbb     H3  614   4.404   9.723   6.488 -1.1655  0.2849  3.3153
   22bbb     H4  615   4.442   9.890   6.512  1.4583  0.3700  1.1566
   22bbb     C3  616   4.644   9.630   6.455 -0.3355  0.6219 -0.6958
   22bbb     H5  617   4.551   9.571   6.454  0.3995 -0.5663  0.1247
   22bbb     H6  618   4.702   9.596   6.541  0.5379 -0.7186 -1.7888
   22bbb     C4  619   4.709   9.598   6.316  0.2565  0.2582  0.3565
   22bbb     H7  620   4.807   9.646   6.306  0.1287  0.3515 -0.4798
   22bbb     H8  621   4.655   9.647   6.234  1.0899  1.2286  0.3883
   22bbb     C5  622   4.684  10.009   6.472  0.7882 -0.5087  0.4247
   22bbb     H9  623   4.602  10.042   6.536 -0.2152 -2.1797  0.0113
   22bbb    H10  624   4.663  10.023   6.365 -0.9708  2.1100  1.0625
   22bbb     C6  625   4.499   9.764   6.678  0.4757 -0.2733 -0.0033
   22bbb    H11  626   4.549   9.850   6.725 -1.9276  1.3745 -0.3588
   22bbb    H12  627   4.554   9.669   6.687  0.7871 -0.0477  0.5041
   22bbb     C7  628   4.715   9.443   6.298 -0.3576  0.7307 -0.2828
   22bbb    H13  629   4.730   9.432   6.190  0.3349  0.5999 -0.1742
   22bbb    H14  630   4.619   9.394   6.318 -0.3348  1.1242  0.8013
   22bbb     C8  631   4.363   9.732   6.750  0.0594 -0.4744 -0.2247
   22bbb    H15  632   4.304   9.825   6.743  0.3702 -0.2495  0.1530
   22bbb    H16  633   4.391   9.714   6.854  1.1538  0.1279 -0.4109
   22bbb     C9  634   4.795  10.107   6.507  0.1468  0.6503  0.0977
   22bbb    H17  635   4.831  10.091   6.610  0.5099  0.8382  0.0019
   22bbb    H18  636   4.764  10.212   6.505 -0.0841  0.5655 -1.4585
   22bbb     O1  637   4.824   9.387   6.375  0.1153  0.6598 -0.8135
   23bbb     N1  638   5.486   6.776   6.136  0.1695 -0.1623 -0.3893
   23bbb     C1  639   5.589   6.685   6.203  0.3474  0.2610 -0.1284
   23bbb     H1  640   5.681   6.741   6.223  0.5813  0.2235 -1.0847
   23bbb     H2  641   5.624   6.602   6.141 -2.2358 -0.2940 -0.8938
   23bbb     C2  642   5.371   6.706   6.080 -0.0051  0.0643 -0.5207
   23bbb     H3  643   5.310   6.778   6.023 -1.8030 -1.1858 -0.2405
   23bbb     H4  644   5.314   6.663   6.163  1.3181 -0.5503  0.0816
   23bbb     C3  645   5.451   6.893   6.222 -0.8440  0.2788 -0.2794
   23bbb     H5  646   5.542   6.944   6.255 -0.2457 -0.4984 -0.6931
   23bbb     H6  647   5.385   6.867   6.306 -0.9349 -1.1362 -0.7765
   23bbb     C4  648   5.372   7.004   6.147  0.2629  0.1844 -0.6578
   23bbb     H7  649   5.273   6.976   6.107  0.5967 -1.7690 -0.1606
   23bbb     H8  650   5.412   7.033   6.049  1.4391  1.7220  0.2662
   23bbb     C5  651   5.544   6.634   6.342  0.8969 -0.8971  0.2448
   23bbb     H9  652   5.439   6.603   6.338  0.4387  0.8613 -2.7117
   23bbb    H10  653   5.554   6.718   6.412  0.7360 -0.2375 -0.5134
   23bbb     C6  654   5.408   6.585   5.996 -0.2402  0.3567 -0.0900
   23bbb    H11  655   5.452   6.501   6.050 -2.1509 -0.3027  0.4709
   23bbb    H12  656   5.474   6.615   5.914  1.0963 -2.6502 -0.1834
   23bbb     C7  657   5.370   7.130   6.235 -0.1369  0.5093  0.2112
   23bbb    H13  658   5.328   7.213   6.177 -1.9033 -0.2524  0.3779
   23bbb    H14  659   5.476   7.136   6.262 -0.5841  2.9750  1.5931
   23bbb     C8  660   5.281   6.538   5.919 -0.1831 -0.0017  0.5546
   23bbb    H15  661   5.196   6.517   5.985 -2.0654  0.6937 -1.6012
   23bbb    H16  662   5.291   6.445   5.862 -0.2828 -0.6498  1.5845
   23bbb     C9  663   5.643   6.514   6.382  0.0445  0.7817  0.0114
   23bbb    H17  664   5.749   6.542   6.382  0.1905  0.3085  1.4811
   23bbb    H18  665   5.635   6.433   6.309 -1.4148 -0.3875  1.4579
   23bbb     O1  666   5.286   7.091   6.341  0.1396  0.1010  0.2863
   24bbb     N1  667   4.234   7.634   6.701  0.2566  0.0635  0.5600
   24bbb     C1  668   4.114   7.704   6.645 -0.0374  0.0954 -0.0344
   24bbb     H1  669   4.060   7.651   6.566  0.4027 -1.5847  0.7660
   24bbb     H2  670   4.147   7.789   6.584  0.3651 -1.8630 -2.5913
   24bbb     C2  671   4.205   7.509   6.777  0.1863  0.7007  0.5419
   24bbb     H3  672   4.142   7.531   6.864 -1.3492  0.6846 -0.5523
   24bbb     H4  673   4.304   7.471   6.804 -0.2307 -1.2816 -0.6009
   24bbb     C3  674   4.334   7.610   6.592 -0.4865  0.5945 -0.0416
   24bbb     H5  675   4.336   7.694   6.522 -0.6772  2.0375  1.6489
   24bbb     H6  676   4.319   7.519   6.533 -1.0563  1.1386 -0.7409
   24bbb     C4  677   4.483   7.625   6.649  0.6762 -0.2007  0.2540
   24bbb     H7  678   4.494   7.548   6.725 -0.2875 -0.2127  0.3845
   24bbb     H8  679   4.492   7.723   6.698  2.1134 -0.5674  0.7471
   24bbb     C5  680   4.017   7.753   6.757  0.1681  0.3840  0.7108
   24bbb     H9  681   4.075   7.805   6.834  0.2467  2.1403 -0.5200
   24bbb    H10  682   3.974   7.664   6.805  1.9399 -0.5895  0.5400
   24bbb     C6  683   4.128   7.399   6.698 -0.0843 -0.2725  0.4193
   24bbb    H11  684   4.183   7.378   6.605 -1.3346 -0.2186 -0.3453
   24bbb    H12  685   4.033   7.436   6.658 -0.8538 -0.0731  2.3487
   24bbb     C7  686   4.587   7.616   6.537 -0.0947 -0.5926  0.0163
   24bbb    H13  687   4.592   7.703   6.471  0.2572  0.4175  1.3584
   24bbb    H14  688   4.562   7.530   6.473  0.6063 -0.7365 -0.0632
   24bbb     C8  689   4.110   7.264   6.770 -0.1946 -0.3866 -0.3741
   24bbb    H15  690   4.201   7.225   6.817 -0.4043 -0.7672 -0.2775
   24bbb    H16  691   4.075   7.193   6.694 -1.4143 -0.8948  0.6185
   24bbb     C9  692   3.910   7.855   6.707  0.1762  0.3848 -0.3391
   24bbb    H17  693   3.966   7.946   6.681  2.7110 -0.1723  2.7691
   24bbb    H18  694   3.837   7.865   6.788 -0.2531 -1.1874 -0.5160
   24bbb     O1  695   4.721   7.593   6.598  0.4816  0.3113  0.2473
   25bbb     N1  696   5.809   7.140   8.385 -0.0281  0.3964  0.7555
   25bbb     C1  697   5.870   7.121   8.519  0.2460  0.7410  0.1262
   25bbb     H1  698   5.796   7.164   8.588 -0.3062  0.6862 -0.4295
   25bbb     H2  699   5.955   7.186   8.543 -0.3336  1.9570 -1.0397
   25bbb     C2  700   5.672   7.093   8.368 -0.0759  0.3486 -0.6617
   25bbb     H3  701   5.597   7.167   8.395 -0.7703 -1.1438  1.6513
   25bbb     H4  702   5.658   7.010   8.439  0.5328  1.9519  1.3699
   25bbb     C3  703   5.828   7.269   8.313  0.3365  0.0867 -0.2980
   25bbb     H5  704   5.742   7.337   8.323 -0.8448 -1.1948 -1.3833
   25bbb     H6  705   5.837   7.248   8.205 -0.0320  1.6344 -0.6421
   25bbb     C4  706   5.964   7.345   8.339 -0.6278  0.0416  0.1270
   25bbb     H7  707   5.974   7.368   8.446 -1.0892 -0.1881  0.2190
   25bbb     H8  708   5.969   7.437   8.279 -2.1555  0.4045  0.5335
   25bbb     C5  709   5.903   6.971   8.548 -0.1045  0.3528  0.1821
   25bbb     H9  710   5.812   6.914   8.524  0.0257  1.4920 -3.2937
   25bbb    H10  711   5.931   6.961   8.654  1.9075 -0.5925 -0.4275
   25bbb     C6  712   5.642   7.053   8.225  0.2707  0.8333  0.2035
   25bbb    H11  713   5.722   6.989   8.185  0.1295  1.9088 -1.8650
   25bbb    H12  714   5.622   7.138   8.159 -2.4267 -0.7714 -1.1431
   25bbb     C7  715   6.090   7.260   8.317  0.4702 -0.5005  0.4026
   25bbb    H13  716   6.089   7.182   8.394 -1.7226 -0.4215  0.4998
   25bbb    H14  717   6.175   7.326   8.341  0.0795 -0.4313  1.6823
   25bbb     C8  718   5.495   6.991   8.229  0.5385  0.1219  0.4529
   25bbb    H15  719   5.462   6.945   8.136  0.3155  0.3989  0.3950
   25bbb    H16  720   5.435   7.081   8.245  0.8271  0.1973  1.1502
   25bbb     C9  721   6.013   6.916   8.459  0.3427  0.4644 -0.0526
   25bbb    H17  722   5.986   6.951   8.359 -0.5729  2.0680  0.7294
   25bbb    H18  723   6.011   6.807   8.445  0.6696  0.3885  0.4872
   25bbb     O1  724   6.087   7.226   8.174  0.0908  0.0895 -0.0740
   26bbb     N1  725   5.307   6.511   7.819 -0.3653  0.6794 -0.5388
   26bbb     C1  726   5.280   6.433   7.696 -0.2147  0.0938 -0.2201
   26bbb     H1  727   5.260   6.330   7.729 -0.7944 -0.3790 -2.0174
   26bbb     H2  728   5.369   6.434   7.633 -0.5684 -0.9109 -0.7496
   26bbb     C2  729   5.283   6.658   7.806  0.0143 -0.0403 -0.0117
   26bbb     H3  730   5.178   6.676   7.780  0.7506  1.9591 -1.7763
   26bbb     H4  731   5.344   6.703   7.726  1.4157 -1.2230  0.3650
   26bbb     C3  732   5.442   6.482   7.884 -0.2503 -0.3150  0.1553
   26bbb     H5  733   5.432   6.515   7.988  0.4522 -1.7523  0.6966
   26bbb     H6  734   5.517   6.545   7.834 -0.9899  1.5890  1.3665
   26bbb     C4  735   5.482   6.335   7.882 -0.2039 -0.0080  0.0037
   26bbb     H7  736   5.491   6.308   7.776  2.1791  0.0652  0.1631
   26bbb     H8  737   5.408   6.274   7.936 -0.7835 -1.0640 -1.9493
   26bbb     C5  738   5.149   6.466   7.622 -0.0533 -0.4379 -0.1076
   26bbb     H9  739   5.076   6.498   7.697 -0.9225  1.1923 -1.6213
   26bbb    H10  740   5.104   6.379   7.572 -0.8410  0.4479 -0.9771
   26bbb     C6  741   5.313   6.746   7.933 -0.3172 -0.0040 -0.2249
   26bbb    H11  742   5.421   6.746   7.952 -0.0733 -0.4558 -1.5367
   26bbb    H12  743   5.261   6.706   8.021 -0.9853 -1.0747 -1.0893
   26bbb     C7  744   5.615   6.316   7.951 -0.0685  0.0377  0.3244
   26bbb    H13  745   5.657   6.218   7.925 -2.4133 -1.1630  0.9534
   26bbb    H14  746   5.588   6.324   8.057 -2.5772  2.7568 -0.4612
   26bbb     C8  747   5.260   6.887   7.899 -0.0354  0.2792  0.0290
   26bbb    H15  748   5.154   6.881   7.871 -0.6377 -0.4447  2.3809
   26bbb    H16  749   5.310   6.942   7.818  1.5280 -1.6793 -0.3853
   26bbb     C9  750   5.170   6.567   7.509  0.4673 -0.7485 -0.5328
   26bbb    H17  751   5.227   6.649   7.555 -1.4445 -0.0001  0.5405
   26bbb    H18  752   5.067   6.592   7.482  1.7851  2.2771 -2.9964
   26bbb     O1  753   5.713   6.415   7.908 -0.2215 -0.0356  0.1196
   27bbb     N1  754   6.095   9.694   6.473  0.0540 -0.1847  0.1578
   27bbb     C1  755   6.036   9.672   6.610  0.4712 -0.6156 -0.3737
   27bbb     H1  756   6.001   9.770   6.644  0.9020 -0.1651 -1.2221
   27bbb     H2  757   6.117   9.639   6.676  0.9547 -0.8236 -1.0698
   27bbb     C2  758   6.153   9.832   6.457 -0.2615  0.2272  0.0607
   27bbb     H3  759   6.203   9.849   6.360 -0.4609  2.1014  0.2728
   27bbb     H4  760   6.224   9.846   6.540  0.2073  0.5721 -0.3886
   27bbb     C3  761   6.181   9.582   6.430  1.1619  0.2655  0.0242
   27bbb     H5  762   6.147   9.484   6.466 -0.8913  0.8009 -0.4023
   27bbb     H6  763   6.285   9.586   6.466  1.3889  0.4006 -0.6400
   27bbb     C4  764   6.179   9.564   6.277  0.7429  0.0794  0.6426
   27bbb     H7  765   6.262   9.498   6.249 -0.9686 -1.7990 -0.1097
   27bbb     H8  766   6.199   9.663   6.234  0.1120  1.0257  2.4391
   27bbb     C5  767   5.921   9.574   6.637 -0.2813  0.0107  0.2887
   27bbb     H9  768   5.901   9.576   6.745 -1.7425  0.7251  0.0233
   27bbb    H10  769   5.963   9.478   6.607 -1.5167  0.4296 -2.9727
   27bbb     C6  770   6.042   9.938   6.463 -0.3414  0.3310 -0.5946
   27bbb    H11  771   6.015   9.959   6.567  0.2397  1.5819 -0.6796
   27bbb    H12  772   5.949   9.902   6.417  0.2218  0.7269 -2.0671
   27bbb     C7  773   6.051   9.513   6.209  0.2261 -0.3303  0.7929
   27bbb    H13  774   6.062   9.543   6.104  0.4077 -0.2210  0.8418
   27bbb    H14  775   5.973   9.574   6.256 -0.2104  0.9311 -1.5151
   27bbb     C8  776   6.074  10.072   6.389 -0.7886 -0.4487  0.6250
   27bbb    H15  777   5.988  10.138   6.399  0.8945  1.4795  3.1375
   27bbb    H16  778   6.085  10.044   6.284 -1.0814  0.2410  0.4060
   27bbb     C9  779   5.794   9.613   6.563  0.4503 -0.4848 -0.0810
   27bbb    H17  780   5.808   9.591   6.457 -0.1745 -1.8333  0.1123
   27bbb    H18  781   5.781   9.721   6.578 -0.9868 -0.5608 -0.7060
   27bbb     O1  782   6.035   9.372   6.232 -0.4589  0.6332 -0.5490
   28bbb     N1  783   6.650   8.781   6.816 -0.0406 -0.2837 -0.0818
   28bbb     C1  784   6.673   8.674   6.712  0.6686 -0.5176 -0.8096
   28bbb     H1  785   6.779   8.655   6.689  0.3360 -2.6493 -0.6608
   28bbb     H2  786   6.622   8.705   6.620 -0.2459 -1.1492 -0.5124
   28bbb     C2  787   6.721   8.760   6.950  0.3955 -0.3985  0.2217
   28bbb     H3  788   6.829   8.773   6.939  0.6197 -2.2181  0.1143
   28bbb     H4  789   6.711   8.659   6.990 -0.1817 -0.7699 -0.8426
   28bbb     C3  790   6.680   8.914   6.752 -0.2445  0.4557 -0.1148
   28bbb     H5  791   6.788   8.926   6.735 -0.0684 -0.2957  0.4557
   28bbb     H6  792   6.643   8.991   6.820 -0.8359  0.8778 -0.9035
   28bbb     C4  793   6.601   8.951   6.625  0.5861  0.4984 -0.7929
   28bbb     H7  794   6.637   8.903   6.533  0.3829  1.3015 -1.2928
   28bbb     H8  795   6.625   9.056   6.605  2.2289 -0.0606 -1.9097
   28bbb     C5  796   6.618   8.542   6.766  0.2465  0.5595 -0.3404
   28bbb     H9  797   6.516   8.564   6.801 -0.3700 -0.1022 -1.6652
   28bbb    H10  798   6.665   8.511   6.859  1.1739 -0.3737 -1.1088
   28bbb     C6  799   6.672   8.850   7.068  0.5760 -0.1282  0.8626
   28bbb    H11  800   6.711   8.951   7.051 -1.0432  0.6182  1.4899
   28bbb    H12  801   6.718   8.808   7.157  1.1275  0.2291  0.7456
   28bbb     C7  802   6.450   8.924   6.644 -0.2526  0.4744 -0.3152
   28bbb    H13  803   6.404   8.979   6.727  1.8836  1.9547 -0.0558
   28bbb    H14  804   6.444   8.815   6.661 -2.7427  0.2330 -2.3955
   28bbb     C8  805   6.523   8.835   7.090 -0.0737  0.2371  0.3550
   28bbb    H15  806   6.492   8.730   7.100  0.3584  0.2283  1.8107
   28bbb    H16  807   6.476   8.881   7.003  0.8198 -0.1016 -0.3202
   28bbb     C9  808   6.634   8.421   6.669  0.0560  0.2872  0.6287
   28bbb    H17  809   6.733   8.376   6.683 -0.9308 -3.3011 -2.9158
   28bbb    H18  810   6.555   8.352   6.702 -0.5075  0.1244 -1.0112
   28bbb     O1  811   6.370   8.947   6.522 -0.1246 -0.4584 -0.2920
   29bbb     N1  812   6.176   8.508   8.778  0.2605  0.1472  0.2250
   29bbb     C1  813   6.261   8.465   8.895  0.0298 -0.0347 -0.0646
   29bbb     H1  814   6.361   8.437   8.859  0.6835  0.1109  1.5702
   29bbb     H2  815   6.227   8.375   8.947 -1.0662  1.2093  1.4187
   29bbb     C2  816   6.048   8.563   8.818  0.0540  0.5963  0.1706
   29bbb     H3  817   5.986   8.590   8.732  1.4993  1.0748 -0.7330
   29bbb     H4  818   6.069   8.663   8.859  0.8838  0.0245  1.1617
   29bbb     C3  819   6.179   8.404   8.666  0.6975 -0.3997  0.1643
   29bbb     H5  820   6.144   8.304   8.693  0.7301 -0.6035 -0.5433
   29bbb     H6  821   6.286   8.399   8.645  1.0024  0.4161  1.5014
   29bbb     C4  822   6.104   8.442   8.539  0.0859  0.5531  0.6658
   29bbb     H7  823   6.124   8.546   8.513  0.7559  0.4486  0.7643
   29bbb     H8  824   5.995   8.441   8.553 -0.3645  0.1867 -2.4818
   29bbb     C5  825   6.286   8.574   9.003  0.3144  0.4806  0.1981
   29bbb     H9  826   6.348   8.524   9.078  0.9342 -1.2455 -1.4303
   29bbb    H10  827   6.189   8.596   9.051  1.0086  1.4421  1.1873
   29bbb     C6  828   5.961   8.468   8.906 -1.4857 -0.1845 -0.1456
   29bbb    H11  829   6.028   8.437   8.987 -1.9978 -1.3561 -0.1638
   29bbb    H12  830   5.928   8.383   8.845 -1.6748 -0.6332  0.5655
   29bbb     C7  831   6.141   8.350   8.427  0.9138 -0.0917  0.3572
   29bbb    H13  832   6.144   8.248   8.467  0.8639  0.1717  1.0487
   29bbb    H14  833   6.241   8.373   8.389  0.0473  1.1730 -1.2346
   29bbb     C8  834   5.828   8.524   8.957  0.3599 -0.1916 -0.0703
   29bbb    H15  835   5.848   8.593   9.039  1.5733 -1.3959  0.6722
   29bbb    H16  836   5.767   8.445   9.003  1.1984 -0.9062 -0.1591
   29bbb     C9  837   6.344   8.711   8.944  0.0670 -0.6714  0.4800
   29bbb    H17  838   6.269   8.749   8.873 -0.0250 -1.2748  0.2502
   29bbb    H18  839   6.441   8.701   8.893  0.0767  0.6688  0.2175
   29bbb     O1  840   6.038   8.353   8.331 -0.2797 -0.2590 -0.1064
   30bbb     N1  841   6.073   8.996   8.735  0.7703  0.4744  0.1369
   30bbb     C1  842   6.060   9.049   8.876 -0.2164 -0.0106 -0.4391
   30bbb     H1  843   6.092   9.154   8.876 -0.6957  0.1449  0.8445
   30bbb     H2  844   6.113   8.997   8.957 -1.2249  0.2456  0.3950
   30bbb     C2  845   6.220   8.990   8.708  0.1636  0.3782  0.7258
   30bbb     H3  846   6.266   8.897   8.743  0.6550  0.3595  0.0309
   30bbb     H4  847   6.275   9.077   8.746  0.0497  0.2859  1.0964
   30bbb     C3  848   5.999   8.874   8.709 -0.6733  0.0928  0.5586
   30bbb     H5  849   5.935   8.849   8.795  0.9554 -2.3189  1.1204
   30bbb     H6  850   6.074   8.794   8.700 -1.1657 -0.2348 -0.8352
   30bbb     C4  851   5.906   8.881   8.585  0.1330  0.8705 -0.2012
   30bbb     H7  852   5.961   8.919   8.498 -1.5210  0.6108 -1.3927
   30bbb     H8  853   5.823   8.950   8.606 -1.9250 -0.7526 -2.6280
   30bbb     C5  854   5.914   9.059   8.935 -0.2038 -0.0985 -0.2014
   30bbb     H9  855   5.866   8.962   8.951 -1.2135  0.3472 -0.5373
   30bbb    H10  856   5.853   9.110   8.860 -0.5133  0.3438  0.3561
   30bbb     C6  857   6.250   8.973   8.557 -0.2295  0.2362  0.4340
   30bbb    H11  858   6.216   9.050   8.488  1.7706 -1.1987 -2.2392
   30bbb    H12  859   6.189   8.887   8.525 -2.0613  0.9245  1.9625
   30bbb     C7  860   5.856   8.742   8.553  0.1450  1.0296 -0.5693
   30bbb    H13  861   5.776   8.716   8.623  0.9601  1.6080  0.5985
   30bbb    H14  862   5.938   8.669   8.552 -2.1483 -1.6809  0.8608
   30bbb     C8  863   6.398   8.953   8.513 -0.2256 -0.1469 -0.8920
   30bbb    H15  864   6.411   8.940   8.405  0.8245 -0.0420 -0.7868
   30bbb    H16  865   6.440   8.864   8.562 -1.9700  0.3079  1.4956
   30bbb     C9  866   5.910   9.118   9.079 -0.1009 -0.0015  0.4103
   30bbb    H17  867   5.820   9.086   9.134  1.6351  0.3869  3.5715
   30bbb    H18  868   5.903   9.227   9.085 -0.6056 -0.1683  3.7574
   30bbb     O1  869   5.787   8.746   8.433 -0.1370  0.4756  0.1634
   31bbb     N1  870   3.140   9.376   5.886 -0.2289 -0.2994 -0.6045
   31bbb     C1  871   3.024   9.306   5.822 -0.6022  0.1625 -0.1815
   31bbb     H1  872   2.933   9.331   5.877 -0.9546  0.4163 -0.8823
   31bbb     H2  873   3.036   9.198   5.836 -1.9628  0.0284  0.0201
   31bbb     C2  874   3.135   9.524   5.869 -0.0305 -0.2770  0.1236
   31bbb     H3  875   3.139   9.551   5.763  1.3499 -0.0588  0.2261
   31bbb     H4  876   3.223   9.567   5.918 -0.2329 -0.7511  0.9243
   31bbb     C3  877   3.267   9.315   5.850 -0.1847  0.1397  0.4954
   31bbb     H5  878   3.346   9.373   5.899 -1.3771  3.3120 -1.1628
   31bbb     H6  879   3.287   9.320   5.742 -0.9991  0.4853  0.3546
   31bbb     C4  880   3.285   9.163   5.891 -0.6161  0.1561  0.0675
   31bbb     H7  881   3.215   9.108   5.827 -0.5159  0.7527 -0.5647
   31bbb     H8  882   3.248   9.151   5.993  0.9156  1.8207  0.8574
   31bbb     C5  883   3.006   9.346   5.674  0.0622  0.3445  0.1984
   31bbb     H9  884   3.091   9.310   5.615 -1.2558 -0.4409 -1.2454
   31bbb    H10  885   2.983   9.453   5.666  3.5807  1.0027 -1.8289
   31bbb     C6  886   3.003   9.600   5.920  0.8739 -0.4429  0.2757
   31bbb    H11  887   3.006   9.611   6.029  1.6568  2.3530  0.0124
   31bbb    H12  888   2.913   9.542   5.896  0.9330 -0.7898  0.8804
   31bbb     C7  889   3.434   9.116   5.887  0.2360 -0.0396  0.1656
   31bbb    H13  890   3.449   9.022   5.941  0.0031 -0.6004 -0.7265
   31bbb    H14  891   3.486   9.191   5.947  0.2189  1.6297 -1.8371
   31bbb     C8  892   2.998   9.738   5.845  0.6227 -0.2935 -0.4811
   31bbb    H15  893   2.922   9.795   5.899 -0.1374 -0.3764 -1.4382
   31bbb    H16  894   2.957   9.717   5.745 -0.9319  1.9050 -0.3401
   31bbb     C9  895   2.895   9.254   5.612  0.0587 -0.2268 -0.3234
   31bbb    H17  896   2.801   9.272   5.665  1.2360 -0.6247  2.0311
   31bbb    H18  897   2.927   9.149   5.606 -1.8294 -0.6968 -2.9128
   31bbb     O1  898   3.480   9.108   5.751 -0.4150 -0.0329  0.8330
   32bbb     N1  899   4.404   8.470   5.465  0.4837  0.0687  1.0603
   32bbb     C1  900   4.488   8.344   5.446  0.1182  0.4123  0.2625
   32bbb     H1  901   4.448   8.269   5.515 -0.1244 -1.0055 -1.3909
   32bbb     H2  902   4.595   8.358   5.461  0.8729 -2.1675 -2.1963
   32bbb     C2  903   4.460   8.586   5.385  0.1394  0.9632  0.3723
   32bbb     H3  904   4.388   8.669   5.379  1.4954  2.3116  2.0362
   32bbb     H4  905   4.482   8.548   5.285  2.0016  0.8559  0.8085
   32bbb     C3  906   4.372   8.501   5.606 -0.3744  0.9274  0.4607
   32bbb     H5  907   4.463   8.535   5.658 -1.0618  0.4207  2.0325
   32bbb     H6  908   4.326   8.414   5.655  1.6523  0.5017  1.6692
   32bbb     C4  909   4.264   8.611   5.604 -0.3901 -0.1489 -0.1196
   32bbb     H7  910   4.308   8.703   5.564 -0.2648 -0.9690 -1.8904
   32bbb     H8  911   4.238   8.640   5.707 -0.4891  0.6843 -0.3837
   32bbb     C5  912   4.468   8.275   5.312 -0.2177  0.3397  0.3802
   32bbb     H9  913   4.504   8.337   5.229  0.9748 -0.6542  0.1396
   32bbb    H10  914   4.360   8.266   5.298  0.0860 -0.7835 -1.3268
   32bbb     C6  915   4.602   8.638   5.440  0.1085 -0.3958  0.0537
   32bbb    H11  916   4.662   8.548   5.450 -0.9078 -0.9846  0.9346
   32bbb    H12  917   4.593   8.691   5.536 -1.3390 -0.5390  0.0186
   32bbb     C7  918   4.148   8.572   5.518 -0.4363  0.1645 -0.3886
   32bbb    H13  919   4.124   8.466   5.532  1.9454 -0.4499 -0.6491
   32bbb    H14  920   4.185   8.582   5.415  0.4863  0.9294  0.0034
   32bbb     C8  921   4.655   8.736   5.336 -0.3685 -0.0138  0.2476
   32bbb    H15  922   4.754   8.771   5.368 -0.1296  0.0234 -0.5147
   32bbb    H16  923   4.591   8.825   5.335  0.0384  0.2917 -2.3355
   32bbb     C9  924   4.544   8.139   5.298  0.5883 -0.1754 -0.3584
   32bbb    H17  925   4.651   8.158   5.307  0.4063  1.0392 -0.6160
   32bbb    H18  926   4.538   8.097   5.197  0.2460  0.2891 -0.5343
   32bbb     O1  927   4.039   8.665   5.542  0.4460  0.3499  0.0857
   33bbb     N1  928   2.484   8.813   6.661  0.1747 -0.0862 -0.0297
   33bbb     C1  929   2.469   8.757   6.796 -0.2055  0.4036  0.1687
   33bbb     H1  930   2.553   8.796   6.854  0.4449  0.4353 -0.7815
   33bbb     H2  931   2.472   8.648   6.802 -1.5983  0.3197 -0.5206
   33bbb     C2  932   2.392   8.747   6.567  0.2963  0.3657 -0.4757
   33bbb     H3  933   2.398   8.784   6.464 -1.0490  0.0146 -0.6798
   33bbb     H4  934   2.286   8.757   6.593  0.4767  0.7430  0.1315
   33bbb     C3  935   2.623   8.829   6.617  0.4282  0.0115  0.5540
   33bbb     H5  936   2.665   8.728   6.604  0.6578  0.1311  0.3410
   33bbb     H6  937   2.680   8.876   6.698  0.3754 -1.5814  1.5368
   33bbb     C4  938   2.651   8.901   6.482  0.5231 -0.5693  0.3584
   33bbb     H7  939   2.614   9.004   6.493 -0.9525 -1.1336  0.8842
   33bbb     H8  940   2.603   8.853   6.395  0.5570  0.2602 -0.1196
   33bbb     C5  941   2.336   8.794   6.862 -0.4506  0.0699  0.1111
   33bbb     H9  942   2.249   8.763   6.801 -1.6437  1.4484  1.0716
   33bbb    H10  943   2.323   8.903   6.855  0.7734  0.3290  1.7453
   33bbb     C6  944   2.418   8.596   6.547 -0.7312  0.1382 -0.4270
   33bbb    H11  945   2.366   8.552   6.633  0.4799  1.5890  1.0857
   33bbb    H12  946   2.522   8.569   6.568 -0.7150  0.7546  0.3504
   33bbb     C7  947   2.802   8.915   6.462 -0.0030 -0.1579  0.3159
   33bbb    H13  948   2.820   8.935   6.355  0.3617  0.2056  0.4424
   33bbb    H14  949   2.857   8.823   6.485  0.3795  0.6864  2.9479
   33bbb     C8  950   2.363   8.542   6.411  0.2472 -0.5723  0.3061
   33bbb    H15  951   2.408   8.604   6.333 -2.0403  0.4653 -0.2470
   33bbb    H16  952   2.255   8.546   6.394  0.3128  0.6636  0.1053
   33bbb     C9  953   2.321   8.758   7.015 -0.2228  0.6532  0.2818
   33bbb    H17  954   2.318   8.648   7.016 -0.5675  0.6368 -1.1349
   33bbb    H18  955   2.230   8.797   7.060 -0.4605  0.4177  0.0084
   33bbb     O1  956   2.849   9.028   6.547  0.2532  0.2492  0.4249
   34bbb     N1  957   3.338   9.987   6.532  0.0554  0.1510 -0.0894
   34bbb     C1  958   3.292   9.956   6.395 -1.0264 -0.3177 -0.4687
   34bbb     H1  959   3.211  10.024   6.364 -2.4186 -1.7717 -0.0405
   34bbb     H2  960   3.246   9.857   6.391  0.2392 -1.0301  1.6161
   34bbb     C2  961   3.381  10.128   6.551 -0.0006 -0.0650  0.4480
   34bbb     H3  962   3.288  10.185   6.556  0.0557  0.0566  0.1182
   34bbb     H4  963   3.434  10.174   6.466  1.7277  1.3684  2.2534
   34bbb     C3  964   3.248   9.934   6.640  0.1444 -0.0600  0.4794
   34bbb     H5  965   3.291   9.952   6.740  1.1907  0.1627 -0.0104
   34bbb     H6  966   3.251   9.824   6.634  1.1032 -0.0173 -0.0133
   34bbb     C4  967   3.102   9.974   6.639 -0.0852  0.0350  0.0870
   34bbb     H7  968   3.057   9.954   6.541  2.3448  0.1283 -1.0852
   34bbb     H8  969   3.098  10.081   6.660  1.0801  0.5090 -2.0488
   34bbb     C5  970   3.404   9.961   6.288  0.4172 -0.1075  0.2850
   34bbb     H9  971   3.430  10.066   6.273 -0.9183  0.0950 -0.7305
   34bbb    H10  972   3.361   9.935   6.190 -0.3047  0.3755  0.4685
   34bbb     C6  973   3.462  10.147   6.688 -0.0201 -0.1973  1.2653
   34bbb    H11  974   3.397  10.131   6.775 -0.5783  1.1292  1.1045
   34bbb    H12  975   3.492  10.252   6.696 -0.8015  0.2553 -1.2921
   34bbb     C7  976   3.022   9.897   6.743 -0.2833  0.0304  0.0602
   34bbb    H13  977   2.913   9.907   6.741 -0.3787 -0.7015  0.8937
   34bbb    H14  978   3.053   9.914   6.847 -2.2928  0.2006  0.6585
   34bbb     C8  979   3.592  10.058   6.703 -0.2048 -0.2636 -0.3596
   34bbb    H15  980   3.673  10.090   6.635 -1.2366  0.1015 -1.4485
   34bbb    H16  981   3.559   9.957   6.677 -1.5323  0.2889 -0.8695
   34bbb     C9  982   3.533   9.877   6.329  0.0527  0.3477  0.5084
   34bbb    H17  983   3.504   9.775   6.357  1.3910  0.4049  2.1615
   34bbb    H18  984   3.588   9.930   6.408 -0.0643 -0.3358  1.0510
   34bbb     O1  985   3.047   9.755   6.714 -0.3029 -0.0784 -0.2619
   35bbb     N1  986   5.491   6.988   7.039  0.3378 -0.3767 -0.4839
   35bbb     C1  987   5.507   7.136   7.048  0.5213  0.4189 -0.8681
   35bbb     H1  988   5.433   7.175   6.977  1.5793 -0.4707 -2.4660
   35bbb     H2  989   5.595   7.168   6.992  1.0068 -2.1842 -1.6345
   35bbb     C2  990   5.594   6.915   7.105  0.1650 -0.1054  0.1631
   35bbb     H3  991   5.575   6.807   7.098 -2.5652  0.2811  0.8802
   35bbb     H4  992   5.585   6.931   7.213  1.3100  0.5521  0.1575
   35bbb     C3  993   5.360   6.932   7.097 -0.0894 -0.0733  0.5548
   35bbb     H5  994   5.356   6.942   7.207 -0.4919 -0.0933  0.5434
   35bbb     H6  995   5.349   6.826   7.072 -1.2868 -0.0270  0.8618
   35bbb     C4  996   5.230   6.999   7.034 -0.2650  0.1350 -0.3989
   35bbb     H7  997   5.247   7.010   6.926 -0.5040 -0.8428 -0.5403
   35bbb     H8  998   5.213   7.096   7.082 -1.4081 -0.0952 -0.3216
   35bbb     C5  999   5.497   7.202   7.188 -0.4622  0.7851 -0.6112
   35bbb     H9 1000   5.558   7.147   7.261 -0.4101  2.3356  0.5310
   35bbb    H10 1001   5.395   7.193   7.226 -0.6934 -0.1643 -1.4207
   35bbb     C6 1002   5.735   6.936   7.053  0.4257 -0.5385 -0.1886
   35bbb    H11 1003   5.773   7.030   7.095 -1.3702  0.9454 -1.7864
   35bbb    H12 1004   5.734   6.943   6.943  1.5973 -0.6579 -0.2081
   35bbb     C7 1005   5.111   6.906   7.067 -0.0761  0.2469  0.0380
   35bbb    H13 1006   5.104   6.890   7.175 -0.9094 -1.6399 -0.2644
   35bbb    H14 1007   5.134   6.805   7.031 -3.0022 -0.9019  1.2116
   35bbb     C8 1008   5.833   6.827   7.100  0.1685  0.9268  0.5516
   35bbb    H15 1009   5.933   6.861   7.073 -0.5098  1.6173 -1.1412
   35bbb    H16 1010   5.823   6.728   7.055  4.1138  0.6127  0.2002
   35bbb     C9 1011   5.550   7.346   7.191 -0.8335  0.5896  0.2837
   35bbb    H17 1012   5.534   7.385   7.292  0.6229 -0.3610  0.8870
   35bbb    H18 1013   5.496   7.400   7.112  0.7347  0.7522 -0.6945
   35bbb     O1 1014   4.988   6.969   7.026 -1.5483  0.4043  0.1315
   36bbb     N1 1015   4.090   7.175   6.288  0.3142  0.6832  0.2492
   36bbb     C1 1016   4.053   7.319   6.274 -0.2311 -0.1937  0.2388
   36bbb     H1 1017   4.137   7.389   6.288 -0.2718  0.5314 -2.7728
   36bbb     H2 1018   3.971   7.344   6.342 -1.1089 -0.7488 -0.6151
   36bbb     C2 1019   4.120   7.132   6.427  0.4084  0.2603  0.2893
   36bbb     H3 1020   4.028   7.162   6.480 -0.1037  2.2142 -1.5983
   36bbb     H4 1021   4.204   7.191   6.466  0.1779 -0.0229  1.2188
   36bbb     C3 1022   4.167   7.116   6.177  0.2147 -0.7173  0.2621
   36bbb     H5 1023   4.099   7.112   6.091  0.9963 -0.9407 -0.3470
   36bbb     H6 1024   4.190   7.009   6.189 -0.8310 -1.1224 -1.2484
   36bbb     C4 1025   4.294   7.192   6.128  0.1009 -0.5040  0.1019
   36bbb     H7 1026   4.290   7.297   6.157 -0.9212 -0.6207  0.4253
   36bbb     H8 1027   4.296   7.195   6.018 -1.0347 -0.1330  0.0880
   36bbb     C5 1028   3.990   7.364   6.139  0.1125  0.5172 -0.1055
   36bbb     H9 1029   3.938   7.276   6.099  2.5978 -0.9599 -0.1509
   36bbb    H10 1030   4.067   7.390   6.066 -0.0752 -0.7509 -0.7705
   36bbb     C6 1031   4.152   6.976   6.448  0.0870  0.4616  0.3055
   36bbb    H11 1032   4.256   6.957   6.417  0.0056 -0.5090  0.6202
   36bbb    H12 1033   4.090   6.912   6.383  1.9641 -1.2312  0.1053
   36bbb     C7 1034   4.430   7.126   6.159  0.0062 -0.1083  0.6810
   36bbb    H13 1035   4.514   7.189   6.128 -0.5039  1.0687  1.6170
   36bbb    H14 1036   4.442   7.034   6.102 -0.9789  1.0207 -1.3881
   36bbb     C8 1037   4.138   6.934   6.594  0.0906  0.0061 -0.8365
   36bbb    H15 1038   4.190   7.007   6.657 -1.9875 -0.8464  1.9609
   36bbb    H16 1039   4.179   6.832   6.598  0.9537  0.3581 -0.5428
   36bbb     C9 1040   3.898   7.492   6.158 -0.4587  0.5649 -0.5584
   36bbb    H17 1041   3.855   7.523   6.062 -0.4549  0.8517 -0.4672
   36bbb    H18 1042   3.821   7.456   6.227  0.8431  1.1770  1.2550
   36bbb     O1 1043   4.447   7.098   6.301  0.1344 -0.7010  0.2011
   37bbb     N1 1044   4.800   8.040   8.007  0.2807  0.0218  0.7686
   37bbb     C1 1045   4.864   8.038   8.140 -0.2119 -0.0252 -0.0723
   37bbb     H1 1046   4.817   8.123   8.191  1.4135  1.1552 -0.4875
   37bbb     H2 1047   4.972   8.053   8.127  0.1006 -1.5351  0.7466
   37bbb     C2 1048   4.829   8.167   7.930 -0.0251 -0.2534 -0.1186
   37bbb     H3 1049   4.938   8.178   7.925 -0.0670  0.1705 -0.0904
   37bbb     H4 1050   4.783   8.250   7.985 -0.6739 -1.0697  0.6025
   37bbb     C3 1051   4.808   7.910   7.931 -0.7285 -0.7728 -0.0315
   37bbb     H5 1052   4.740   7.911   7.845  0.1710  1.1669 -0.7343
   37bbb     H6 1053   4.756   7.836   7.994 -3.3055 -0.1124 -1.3255
   37bbb     C4 1054   4.949   7.864   7.905  0.1994 -0.1121 -0.4335
   37bbb     H7 1055   4.997   7.828   7.997  0.1898  0.2819 -0.2739
   37bbb     H8 1056   5.011   7.945   7.864 -1.5126  1.0111 -0.8165
   37bbb     C5 1057   4.846   7.912   8.225  0.2359  0.4139 -0.1655
   37bbb     H9 1058   4.865   7.815   8.178  1.6782  1.0427 -0.9146
   37bbb    H10 1059   4.738   7.913   8.245  0.5813 -1.8784  1.9974
   37bbb     C6 1060   4.770   8.172   7.793  0.0447 -0.2423 -0.6059
   37bbb    H11 1061   4.661   8.161   7.792 -0.2730  1.7095  3.8138
   37bbb    H12 1062   4.796   8.079   7.740  0.5751  1.1543 -2.8448
   37bbb     C7 1063   4.957   7.751   7.795  0.0960 -0.9457  0.6005
   37bbb    H13 1064   5.058   7.706   7.802  0.9438  0.9971  1.0146
   37bbb    H14 1065   4.937   7.798   7.698  0.0532 -0.6337  0.7593
   37bbb     C8 1066   4.809   8.303   7.716 -0.0276  0.3879 -0.0657
   37bbb    H15 1067   4.758   8.385   7.767 -3.0615 -1.3510 -0.1775
   37bbb    H16 1068   4.777   8.292   7.611 -0.8778  0.1567  0.2157
   37bbb     C9 1069   4.932   7.923   8.351  0.4166 -0.0646  0.5676
   37bbb    H17 1070   4.907   8.014   8.406  0.7340  2.8812 -3.8856
   37bbb    H18 1071   5.037   7.928   8.319  0.1933 -0.1927 -0.1900
   37bbb     O1 1072   4.850   7.659   7.819 -0.5610  0.6019  0.1093
   38bbb     N1 1073   3.839   7.846   7.677  0.2247 -0.4092 -0.0993
   38bbb     C1 1074   3.747   7.767   7.583 -0.2435 -0.7428 -0.5539
   38bbb     H1 1075   3.777   7.661   7.578  0.8357 -0.6029  1.7727
   38bbb     H2 1076   3.748   7.810   7.483 -0.6860 -0.1156 -0.2900
   38bbb     C2 1077   3.978   7.864   7.627  0.1105 -0.2302 -0.0413
   38bbb     H3 1078   4.030   7.942   7.684 -0.7587  0.6621 -0.4486
   38bbb     H4 1079   3.967   7.899   7.523  1.2291 -0.9647 -0.4174
   38bbb     C3 1080   3.851   7.793   7.819 -0.3293  0.4956  0.0645
   38bbb     H5 1081   3.905   7.698   7.828 -0.4510  0.4155 -0.0478
   38bbb     H6 1082   3.750   7.769   7.853 -0.9038  1.6913 -0.7880
   38bbb     C4 1083   3.921   7.894   7.916 -0.4258 -0.0200 -0.5660
   38bbb     H7 1084   3.847   7.965   7.953 -0.3212  0.5092 -1.3793
   38bbb     H8 1085   3.997   7.954   7.865 -1.1733 -0.7605 -2.5858
   38bbb     C5 1086   3.600   7.760   7.625 -0.0145 -0.1598 -0.3380
   38bbb     H9 1087   3.552   7.857   7.644 -0.5413 -0.4887  0.0087
   38bbb    H10 1088   3.595   7.702   7.717 -0.5904  0.4391  0.0146
   38bbb     C6 1089   4.066   7.742   7.617 -0.2782 -0.7276  0.3972
   38bbb    H11 1090   4.012   7.660   7.567  1.1807 -0.9530 -0.8370
   38bbb    H12 1091   4.090   7.704   7.717 -1.8162 -0.5843  0.8311
   38bbb     C7 1092   3.982   7.826   8.045 -0.0480  0.7581 -0.2884
   38bbb    H13 1093   3.897   7.781   8.097  2.1103 -0.5733  2.1841
   38bbb    H14 1094   4.023   7.897   8.118 -1.1731 -0.1911  1.2954
   38bbb     C8 1095   4.198   7.775   7.542  0.1366 -0.4703 -0.2191
   38bbb    H15 1096   4.187   7.795   7.435  1.4808 -1.5800 -0.5800
   38bbb    H16 1097   4.258   7.683   7.544 -0.6273 -0.9544  0.8332
   38bbb     C9 1098   3.508   7.697   7.511 -0.7300 -0.3853 -0.1886
   38bbb    H17 1099   3.560   7.624   7.447 -1.7957  0.9538 -2.6677
   38bbb    H18 1100   3.453   7.774   7.455  1.5168  2.4176  1.3474
   38bbb     O1 1101   4.082   7.724   8.009 -0.3139 -0.8864 -0.1281
   39bbb     N1 1102   4.986   8.280   5.649  0.3774  0.1700 -1.3163
   39bbb     C1 1103   5.127   8.253   5.629 -0.4626 -0.3731 -0.2438
   39bbb     H1 1104   5.177   8.234   5.724  2.8129  1.1210 -1.5750
   39bbb     H2 1105   5.162   8.348   5.586 -0.8930 -0.0998  0.0044
   39bbb     C2 1106   4.900   8.283   5.520 -0.3689  0.2570 -0.0805
   39bbb     H3 1107   4.794   8.283   5.548 -0.8285 -1.2745 -1.7035
   39bbb     H4 1108   4.914   8.195   5.455 -2.9459 -0.4314  0.2155
   39bbb     C3 1109   4.960   8.392   5.748  0.1128 -0.7311 -0.0979
   39bbb     H5 1110   4.852   8.410   5.753 -0.0780 -0.8276 -2.9740
   39bbb     H6 1111   5.016   8.477   5.708 -0.0756  0.1432  1.4785
   39bbb     C4 1112   5.014   8.372   5.892  0.1589  0.0035  0.1115
   39bbb     H7 1113   5.115   8.328   5.892  0.4882  0.7580 -0.3726
   39bbb     H8 1114   4.946   8.304   5.945 -0.5528 -0.0226 -0.8429
   39bbb     C5 1115   5.163   8.136   5.544  0.2475  0.3059  0.2585
   39bbb     H9 1116   5.272   8.125   5.548  0.3504  0.1015 -2.1094
   39bbb    H10 1117   5.135   8.166   5.442 -0.3082  0.6089  0.4926
   39bbb     C6 1118   4.928   8.409   5.431 -0.2254 -0.3158 -0.3455
   39bbb    H11 1119   5.035   8.417   5.410 -0.2514  1.4302  0.1122
   39bbb    H12 1120   4.905   8.506   5.478 -0.4638 -0.7345  0.4090
   39bbb     C7 1121   5.012   8.505   5.975 -1.2434 -0.9107 -0.3243
   39bbb    H13 1122   5.039   8.485   6.080 -0.3601  1.0229 -0.1528
   39bbb    H14 1123   4.909   8.542   5.971 -0.6384  0.9160  0.3070
   39bbb     C8 1124   4.848   8.403   5.297 -0.6369 -0.3915 -0.7464
   39bbb    H15 1125   4.840   8.496   5.241  1.2157  0.2991  0.0989
   39bbb    H16 1126   4.748   8.364   5.322  0.1077 -2.5869 -1.0460
   39bbb     C9 1127   5.103   8.001   5.591  0.5420  0.3283 -0.3941
   39bbb    H17 1128   5.118   7.928   5.510 -1.2215  1.9266 -2.2008
   39bbb    H18 1129   4.995   8.013   5.603  0.3087 -1.8038 -0.1800
   39bbb     O1 1130   5.104   8.605   5.925  0.1637 -0.3917 -0.3287
   40bbb     N1 1131   6.043   8.492   6.662  0.3004 -0.1060  0.1457
   40bbb     C1 1132   6.163   8.418   6.611 -0.1291  0.6000 -0.2594
   40bbb     H1 1133   6.240   8.424   6.689  1.2177  1.7920 -1.6406
   40bbb     H2 1134   6.215   8.464   6.526  1.6913  0.0717  0.5402
   40bbb     C2 1135   6.074   8.624   6.720  0.2508 -0.3113 -0.5189
   40bbb     H3 1136   5.990   8.660   6.781  0.4169  0.1911 -0.5845
   40bbb     H4 1137   6.095   8.704   6.649  1.2771 -0.3213 -0.2467
   40bbb     C3 1138   5.933   8.496   6.553  0.5273  0.1367  0.1978
   40bbb     H5 1139   5.845   8.556   6.579 -0.9321 -0.2308 -3.4931
   40bbb     H6 1140   5.897   8.394   6.539  1.4023 -0.2678  0.7966
   40bbb     C4 1141   5.992   8.548   6.414  0.1555 -0.7750  0.1997
   40bbb     H7 1142   6.052   8.471   6.363  0.3460 -1.9296  2.1546
   40bbb     H8 1143   6.062   8.632   6.428 -0.2365 -0.0241 -2.0329
   40bbb     C5 1144   6.132   8.269   6.583 -0.3584  0.5748  0.2241
   40bbb     H9 1145   6.086   8.264   6.484  0.0538  0.7089  0.0273
   40bbb    H10 1146   6.053   8.237   6.651 -1.9630  0.3499 -1.7224
   40bbb     C6 1147   6.189   8.628   6.820  0.2120 -0.3673 -0.4614
   40bbb    H11 1148   6.190   8.730   6.858  1.9202 -0.8949  0.9844
   40bbb    H12 1149   6.289   8.624   6.776  0.1184 -1.1349 -0.6194
   40bbb     C7 1150   5.871   8.594   6.326 -0.0225  0.0504  0.1196
   40bbb    H13 1151   5.919   8.626   6.233  1.6618 -1.8137  0.3141
   40bbb    H14 1152   5.822   8.681   6.372  2.0920  0.6444  1.2954
   40bbb     C8 1153   6.166   8.519   6.936 -0.1631 -1.3142  0.5391
   40bbb    H15 1154   6.193   8.417   6.906  0.2702 -1.1668  0.4252
   40bbb    H16 1155   6.058   8.524   6.956 -0.4099 -2.1384 -0.5574
   40bbb     C9 1156   6.250   8.163   6.586  0.0147  0.2283  0.0492
   40bbb    H17 1157   6.200   8.067   6.602  0.5945 -0.3570 -1.5807
   40bbb    H18 1158   6.310   8.200   6.670  1.3934  1.1604 -1.3291
   40bbb     O1 1159   5.783   8.482   6.304  0.1028 -0.4324  0.2979
   41bbb     N1 1160   6.112  10.013   6.995  0.3671 -0.4342  0.4353
   41bbb     C1 1161   6.040  10.135   6.928  0.5562  0.2262  0.4873
   41bbb     H1 1162   6.087  10.150   6.830 -0.3924 -0.0711 -0.0236
   41bbb     H2 1163   6.055  10.221   6.994  0.2329  0.9787 -0.4104
   41bbb     C2 1164   6.054   9.963   7.123 -0.3143 -0.6605  0.0639
   41bbb     H3 1165   5.950   9.997   7.131  0.0699  0.8199 -1.1465
   41bbb     H4 1166   6.118   9.993   7.207 -0.1732 -0.6719 -0.0408
   41bbb     C3 1167   6.253  10.032   7.012 -0.3329  0.0017  0.5206
   41bbb     H5 1168   6.302   9.968   7.087 -0.5395 -0.0468  0.6135
   41bbb     H6 1169   6.266  10.132   7.056  3.6805 -0.2825  0.1866
   41bbb     C4 1170   6.326  10.009   6.882 -0.0135  0.0123 -0.3039
   41bbb     H7 1171   6.432  10.024   6.908 -0.0581 -0.6397  0.2480
   41bbb     H8 1172   6.295  10.080   6.805  1.6397  0.0733 -0.9327
   41bbb     C5 1173   5.890  10.116   6.901  0.3778 -0.2102 -0.0484
   41bbb     H9 1174   5.828  10.116   6.992  2.1477 -1.8113  1.2020
   41bbb    H10 1175   5.880  10.016   6.858 -0.2499 -0.4205  0.5802
   41bbb     C6 1176   6.044   9.811   7.120 -0.4842 -0.4756  0.8211
   41bbb    H11 1177   6.006   9.768   7.213 -2.0012  2.4547  1.6060
   41bbb    H12 1178   6.144   9.765   7.118 -0.3974 -0.2450 -1.0775
   41bbb     C7 1179   6.308   9.866   6.830  0.6215 -0.3049  0.2766
   41bbb    H13 1180   6.353   9.865   6.730 -0.7131 -2.0389 -0.3283
   41bbb    H14 1181   6.202   9.842   6.819  0.5085  0.3292 -0.0750
   41bbb     C8 1182   5.960   9.755   6.999  0.3246 -1.0471 -0.1972
   41bbb    H15 1183   5.971   9.646   6.996  1.0159 -1.0137  0.8063
   41bbb    H16 1184   5.999   9.789   6.902  1.8582  2.6045  1.5987
   41bbb     C9 1185   5.838  10.212   6.792 -0.2281 -0.1298  0.0520
   41bbb    H17 1186   5.739  10.177   6.762 -0.0598  1.1200 -2.0503
   41bbb    H18 1187   5.900  10.197   6.703 -1.0697  1.5330 -0.8471
   41bbb     O1 1188   6.380   9.781   6.921  0.0827  0.2266  0.1376
   42bbb     N1 1189   6.122   9.471   7.455 -0.2070  0.1997  0.2832
   42bbb     C1 1190   6.077   9.493   7.599  0.1032  0.4483  0.5097
   42bbb     H1 1191   5.994   9.425   7.623  0.2670 -0.7468 -2.1568
   42bbb     H2 1192   6.047   9.596   7.625 -1.4740  0.2735 -0.5573
   42bbb     C2 1193   6.013   9.457   7.359  0.5672 -0.1047  0.7591
   42bbb     H3 1194   6.051   9.448   7.257 -0.7769 -2.5657  0.4490
   42bbb     H4 1195   5.939   9.538   7.362  1.1056  0.3941  0.6200
   42bbb     C3 1196   6.222   9.573   7.419 -0.1137 -0.2571 -0.1825
   42bbb     H5 1197   6.275   9.607   7.509  2.6174 -2.7066 -0.7487
   42bbb     H6 1198   6.179   9.663   7.376  0.0367 -0.7853 -1.4499
   42bbb     C4 1199   6.324   9.513   7.320 -0.8156 -0.0805 -0.2410
   42bbb     H7 1200   6.409   9.581   7.334 -1.7865  0.9704  0.5740
   42bbb     H8 1201   6.287   9.536   7.219 -1.7074  1.3168  0.3876
   42bbb     C5 1202   6.186   9.459   7.709  0.0960 -0.2171 -0.2653
   42bbb     H9 1203   6.248   9.548   7.724  0.8570 -0.9479  1.0412
   42bbb    H10 1204   6.259   9.380   7.685  0.4317  0.0964 -0.2861
   42bbb     C6 1205   5.941   9.326   7.380 -0.0237  0.1077 -0.2466
   42bbb    H11 1206   5.870   9.313   7.297  0.2989  0.5510 -0.5944
   42bbb    H12 1207   5.887   9.330   7.475 -1.5430  1.2860 -1.1342
   42bbb     C7 1208   6.368   9.364   7.336  0.8458  0.0288  0.1746
   42bbb    H13 1209   6.276   9.310   7.359 -0.5574  2.0094 -0.6100
   42bbb    H14 1210   6.423   9.343   7.429  2.1784  0.0645 -0.5963
   42bbb     C8 1211   6.030   9.201   7.378 -0.5471 -0.3757 -0.1046
   42bbb    H15 1212   6.085   9.203   7.473 -1.5467  0.6699  0.4637
   42bbb    H16 1213   6.104   9.202   7.297 -0.1445  1.5909  0.2638
   42bbb     C9 1214   6.116   9.427   7.846  0.8348  0.2391  0.3508
   42bbb    H17 1215   6.198   9.413   7.917  0.7179  3.3919  1.1561
   42bbb    H18 1216   6.067   9.329   7.839 -1.7400  1.5037  0.1452
   42bbb     O1 1217   6.447   9.311   7.233 -0.2472  0.6625 -0.0682
   43bbb     N1 1218   3.522   9.226   6.273 -0.4651 -0.0537 -0.1603
   43bbb     C1 1219   3.497   9.141   6.398  0.3112 -0.4228 -0.1418
   43bbb     H1 1220   3.502   9.201   6.489  0.1861 -0.5048 -0.0806
   43bbb     H2 1221   3.583   9.072   6.400 -0.3405 -1.2380  0.0145
   43bbb     C2 1222   3.412   9.322   6.238 -0.2643 -0.0455 -0.2105
   43bbb     H3 1223   3.315   9.272   6.231 -1.2267  1.4743  1.7172
   43bbb     H4 1224   3.443   9.359   6.139  2.0865 -2.4580 -0.4410
   43bbb     C3 1225   3.658   9.284   6.282 -0.4525  0.6220  0.0149
   43bbb     H5 1226   3.670   9.334   6.378 -1.3752  0.8861 -0.0052
   43bbb     H6 1227   3.684   9.362   6.209  1.7749  2.7648  3.0141
   43bbb     C4 1228   3.768   9.180   6.254  0.4031 -0.0248  0.4120
   43bbb     H7 1229   3.781   9.112   6.339  1.3510 -0.7769 -0.3192
   43bbb     H8 1230   3.850   9.249   6.230 -0.5742  0.8712 -0.3648
   43bbb     C5 1231   3.374   9.047   6.386 -0.1193  0.8927 -0.2383
   43bbb     H9 1232   3.284   9.108   6.373 -0.9202  0.1484  1.6235
   43bbb    H10 1233   3.350   8.995   6.480 -1.2321  0.7336 -0.6088
   43bbb     C6 1234   3.397   9.447   6.326  0.2634 -0.0489 -0.4780
   43bbb    H11 1235   3.490   9.503   6.339  0.3855  0.1371 -2.0738
   43bbb    H12 1236   3.369   9.399   6.421  2.7076  0.0610  0.3232
   43bbb     C7 1237   3.755   9.100   6.119 -0.1956 -0.2853  0.6616
   43bbb    H13 1238   3.698   9.166   6.053  0.8863  2.9701  2.8493
   43bbb    H14 1239   3.695   9.010   6.135 -0.7551  0.1789  1.2177
   43bbb     C8 1240   3.295   9.545   6.275  0.1332 -0.3938  0.4348
   43bbb    H15 1241   3.307   9.572   6.169  0.5221 -0.3254  0.4990
   43bbb    H16 1242   3.319   9.640   6.324  1.0772  0.3588 -1.4262
   43bbb     C9 1243   3.387   8.952   6.266 -0.3929 -0.1084 -0.2102
   43bbb    H17 1244   3.483   8.899   6.271 -0.4613 -0.2948 -0.8542
   43bbb    H18 1245   3.399   9.022   6.183 -2.8810 -0.5104 -0.9661
   43bbb     O1 1246   3.888   9.069   6.066  0.4643 -0.0753 -0.3617
   44bbb     N1 1247   3.699   9.175   5.307  0.1300 -0.1695 -0.0780
   44bbb     C1 1248   3.660   9.053   5.240 -0.3944 -0.6139 -0.4249
   44bbb     H1 1249   3.682   9.063   5.134 -0.4029 -0.2913 -0.3950
   44bbb     H2 1250   3.551   9.064   5.248 -0.1051  1.6129  0.7988
   44bbb     C2 1251   3.651   9.308   5.256  0.5528  0.3623 -0.1802
   44bbb     H3 1252   3.715   9.341   5.173  1.0504  1.4548  0.6295
   44bbb     H4 1253   3.661   9.383   5.336  0.0931 -0.0370  0.2524
   44bbb     C3 1254   3.837   9.168   5.360 -0.2608  0.0335  0.1201
   44bbb     H5 1255   3.906   9.146   5.277 -1.7089  0.7591 -1.2948
   44bbb     H6 1256   3.841   9.085   5.432  1.9428  0.1600  0.1796
   44bbb     C4 1257   3.886   9.298   5.429 -0.0216 -0.1049  0.2971
   44bbb     H7 1258   3.803   9.331   5.492 -0.2440  0.1103 -0.1042
   44bbb     H8 1259   3.909   9.377   5.356 -1.4448  0.5351  0.5211
   44bbb     C5 1260   3.708   8.913   5.268  0.6877 -0.4748  0.2326
   44bbb     H9 1261   3.686   8.889   5.372 -1.2714  0.3116  0.0172
   44bbb    H10 1262   3.816   8.895   5.262  1.0379  1.2833  0.8929
   44bbb     C6 1263   3.508   9.308   5.209 -0.5006  0.4951  0.3041
   44bbb    H11 1264   3.434   9.282   5.285 -1.1436 -0.6986 -0.7033
   44bbb    H12 1265   3.497   9.228   5.135  0.5242  0.8985 -0.2893
   44bbb     C7 1266   4.016   9.282   5.511 -0.0252 -0.6460 -0.0405
   44bbb    H13 1267   4.012   9.362   5.586  0.7688 -1.2520  0.6621
   44bbb    H14 1268   4.098   9.283   5.439  0.2079 -0.0433  0.2257
   44bbb     C8 1269   3.469   9.440   5.147 -0.5288  0.8890 -0.4005
   44bbb    H15 1270   3.535   9.474   5.067  0.7371  1.1899  0.7374
   44bbb    H16 1271   3.477   9.516   5.227  0.3268  0.1812  0.2103
   44bbb     C9 1272   3.635   8.815   5.180  0.0382 -0.3191 -0.3205
   44bbb    H17 1273   3.526   8.811   5.183 -0.0119  0.6463 -0.7138
   44bbb    H18 1274   3.657   8.835   5.074 -3.6448 -0.5143 -1.1987
   44bbb     O1 1275   4.015   9.161   5.589 -0.1902 -0.3120  0.4938
   45bbb     N1 1276   3.909   9.747   6.566 -0.3351  0.1207  0.0071
   45bbb     C1 1277   3.959   9.886   6.569  0.2219  0.5373 -0.5850
   45bbb     H1 1278   3.971   9.934   6.667  1.5876 -0.7974 -0.0803
   45bbb     H2 1279   3.881   9.946   6.519  1.4717  0.6087 -2.4817
   45bbb     C2 1280   3.778   9.734   6.631  0.0075 -0.2463  0.2908
   45bbb     H3 1281   3.720   9.827   6.624 -0.5658 -0.5461  1.0530
   45bbb     H4 1282   3.797   9.721   6.738 -0.2312 -1.0600  0.2319
   45bbb     C3 1283   3.999   9.634   6.608 -0.3259  0.5551  0.2691
   45bbb     H5 1284   4.082   9.626   6.537 -0.6002  0.5401 -0.0517
   45bbb     H6 1285   3.946   9.539   6.594  0.8751  0.0063 -0.7351
   45bbb     C4 1286   4.064   9.640   6.742 -0.1014  0.9232 -0.3139
   45bbb     H7 1287   3.998   9.599   6.819  0.7207 -1.8574 -1.0094
   45bbb     H8 1288   4.067   9.742   6.781  0.0722  1.1201 -0.8415
   45bbb     C5 1289   4.092   9.884   6.492 -0.0372  0.3822  0.5576
   45bbb     H9 1290   4.082   9.814   6.407 -2.1031 -0.7996  1.7397
   45bbb    H10 1291   4.165   9.839   6.560 -0.1581 -0.4911  0.1174
   45bbb     C6 1292   3.689   9.620   6.573 -0.6345 -0.1582 -0.4257
   45bbb    H11 1293   3.712   9.520   6.612 -2.8523 -0.8811 -0.8872
   45bbb    H12 1294   3.698   9.618   6.464  0.4464 -3.5904 -0.3422
   45bbb     C7 1295   4.192   9.547   6.747 -0.3068  0.2082  0.3630
   45bbb    H13 1296   4.176   9.455   6.689  2.8419 -0.7000  0.8716
   45bbb    H14 1297   4.212   9.515   6.850  0.3304 -0.7648 -0.0615
   45bbb     C8 1298   3.536   9.644   6.602 -0.2019  0.5758 -0.0414
   45bbb    H15 1299   3.469   9.587   6.536  0.7871 -0.6078 -0.0412
   45bbb    H16 1300   3.515   9.748   6.572 -2.4189 -0.7698 -3.4881
   45bbb     C9 1301   4.147  10.020   6.453  0.2990  0.3036  0.0899
   45bbb    H17 1302   4.070  10.067   6.392 -1.3469  0.5202  2.2658
   45bbb    H18 1303   4.236  10.013   6.389  0.7425 -2.1027  0.9152
   45bbb     O1 1304   4.303   9.611   6.692  0.6765  0.3464  0.2648
   46bbb     N1 1305   5.203  10.213   6.096  0.6125 -0.3133  0.1785
   46bbb     C1 1306   5.269  10.086   6.060 -0.8255 -0.0502 -0.2637
   46bbb     H1 1307   5.305  10.028   6.145 -0.5115  0.3205 -0.1423
   46bbb     H2 1308   5.359  10.120   6.006 -0.8007  0.6385  0.2059
   46bbb     C2 1309   5.172  10.313   5.989  0.5216  0.4269  0.5663
   46bbb     H3 1310   5.117  10.398   6.032  0.2418  0.2964  0.4727
   46bbb     H4 1311   5.094  10.269   5.926  0.8459  0.3457  0.2238
   46bbb     C3 1312   5.090  10.192   6.186 -0.3092  0.5487  0.4012
   46bbb     H5 1313   5.003  10.140   6.145  0.3672 -0.6413  0.4540
   46bbb     H6 1314   5.053  10.292   6.211  1.0083  1.1664 -0.0359
   46bbb     C4 1315   5.131  10.125   6.318 -0.0493  0.0246  0.2498
   46bbb     H7 1316   5.221  10.167   6.365  1.0758  0.4786 -2.2430
   46bbb     H8 1317   5.142  10.017   6.303 -0.7565  0.1722 -1.4203
   46bbb     C5 1318   5.196   9.997   5.961  0.2181  0.0087  0.1714
   46bbb     H9 1319   5.198  10.048   5.864 -1.4378  0.1317  0.1726
   46bbb    H10 1320   5.089  10.001   5.987  0.4443  1.0424  0.9913
   46bbb     C6 1321   5.288  10.364   5.904 -0.3710 -0.1122 -0.2060
   46bbb    H11 1322   5.246  10.420   5.819 -1.5995  1.4019  1.3473
   46bbb    H12 1323   5.336  10.276   5.859 -2.4792 -1.8377  0.7962
   46bbb     C7 1324   5.026  10.150   6.430 -0.1591  0.1949  0.4587
   46bbb    H13 1325   5.003  10.257   6.430 -0.6492  0.0894  0.1782
   46bbb    H14 1326   5.064  10.126   6.530  0.1390 -2.3061 -0.2269
   46bbb     C8 1327   5.383  10.448   5.994  0.0380  0.0146  0.5670
   46bbb    H15 1328   5.404  10.382   6.078  1.5117 -3.0659 -2.1051
   46bbb    H16 1329   5.335  10.540   6.029 -0.1109  0.0262  0.3348
   46bbb     C9 1330   5.252   9.856   5.950 -0.0529 -0.2983  0.0431
   46bbb    H17 1331   5.262   9.794   6.040 -0.2945 -0.5126 -0.0761
   46bbb    H18 1332   5.354   9.864   5.910 -0.1421  0.7644  0.0269
   46bbb     O1 1333   4.904  10.081   6.407  0.2526  0.4518  0.3609
   47bbb     N1 1334   5.119   7.029   5.691 -0.7360  0.3589  0.1857
   47bbb     C1 1335   5.216   7.047   5.579  0.2755 -0.4431 -0.2146
   47bbb     H1 1336   5.221   7.153   5.554  1.9478 -0.1313  1.3165
   47bbb     H2 1337   5.177   6.999   5.488 -0.0868  1.0289 -0.8389
   47bbb     C2 1338   4.976   7.059   5.663  0.0573 -0.0787 -0.2902
   47bbb     H3 1339   4.913   7.047   5.752  0.4403 -1.2193 -0.1545
   47bbb     H4 1340   4.939   6.978   5.599 -0.0708 -0.7015  0.5499
   47bbb     C3 1341   5.130   6.900   5.757  0.8279  0.2683 -0.1446
   47bbb     H5 1342   5.056   6.904   5.838 -0.9180 -0.4445 -1.6659
   47bbb     H6 1343   5.222   6.885   5.814 -0.9470  1.1606  3.0717
   47bbb     C4 1344   5.113   6.765   5.674 -0.3303 -0.1725  0.6344
   47bbb     H7 1345   5.196   6.753   5.603  1.6328 -0.3317  2.8841
   47bbb     H8 1346   5.021   6.768   5.615  1.4093 -1.6874 -2.2352
   47bbb     C5 1347   5.362   6.992   5.609  0.7016  0.3882  0.0913
   47bbb     H9 1348   5.427   7.007   5.522  1.0737  0.7827  0.4347
   47bbb    H10 1349   5.357   6.886   5.632 -0.5965  0.3470 -0.3359
   47bbb     C6 1350   4.947   7.194   5.597  0.3359 -0.0661 -0.0795
   47bbb    H11 1351   4.996   7.202   5.499 -1.0028  3.8411 -0.5463
   47bbb    H12 1352   4.994   7.269   5.662 -2.0252  1.9823 -0.6505
   47bbb     C7 1353   5.114   6.646   5.767 -0.1026 -0.6052 -0.2039
   47bbb    H13 1354   5.110   6.548   5.716  0.9462 -0.4915 -0.5247
   47bbb    H14 1355   5.032   6.649   5.839 -0.3719 -0.9512 -0.4941
   47bbb     C8 1356   4.790   7.209   5.579 -0.1634 -0.7128 -0.6946
   47bbb    H15 1357   4.762   7.315   5.578 -1.5130 -0.9843  2.5164
   47bbb    H16 1358   4.738   7.173   5.669  0.3029 -1.2273 -0.6337
   47bbb     C9 1359   5.433   7.075   5.724 -0.1018 -0.0672  0.5196
   47bbb    H17 1360   5.382   7.048   5.818  1.6386 -3.1476  0.6125
   47bbb    H18 1361   5.425   7.184   5.716 -3.7610 -0.3388 -0.4322
   47bbb     O1 1362   5.246   6.649   5.832 -0.5521 -0.0702  0.1517
   48bbb     N1 1363   5.803   6.524   6.828 -0.2618  0.8615 -0.1998
   48bbb     C1 1364   5.904   6.440   6.902  0.0467 -0.1834  0.2358
   48bbb     H1 1365   5.892   6.335   6.872 -0.2980  0.3675 -1.6379
   48bbb     H2 1366   5.882   6.454   7.009  3.4320  0.0352  0.9802
   48bbb     C2 1367   5.666   6.489   6.872 -0.3579  0.4034 -0.6364
   48bbb     H3 1368   5.660   6.470   6.979  0.3529 -0.5867 -0.7720
   48bbb     H4 1369   5.654   6.393   6.820  0.8243  0.1321 -0.4260
   48bbb     C3 1370   5.825   6.553   6.685  0.7609  0.5131  0.2840
   48bbb     H5 1371   5.914   6.617   6.695 -0.2741  1.6489  2.6169
   48bbb     H6 1372   5.746   6.619   6.647  0.7898  0.1490 -0.4091
   48bbb     C4 1373   5.839   6.417   6.595 -0.0257 -0.4554  0.5877
   48bbb     H7 1374   5.899   6.337   6.641 -0.3533 -0.5167  0.9044
   48bbb     H8 1375   5.894   6.451   6.506 -1.6651 -2.7680 -1.3896
   48bbb     C5 1376   6.057   6.477   6.871  0.1685  0.5891 -0.5628
   48bbb     H9 1377   6.075   6.449   6.766 -0.0191  0.5670 -0.5900
   48bbb    H10 1378   6.126   6.419   6.933 -2.0328  0.9169  2.2670
   48bbb     C6 1379   5.569   6.603   6.828 -0.4541  0.2615 -0.0934
   48bbb    H11 1380   5.565   6.600   6.719 -1.3834 -0.5105 -0.0482
   48bbb    H12 1381   5.599   6.707   6.848  0.7813 -0.3371  1.2663
   48bbb     C7 1382   5.703   6.355   6.553 -0.6539 -0.7240 -0.0946
   48bbb    H13 1383   5.672   6.292   6.637 -0.2996 -0.8081 -0.0244
   48bbb    H14 1384   5.724   6.299   6.461  0.7844  0.2531 -0.3863
   48bbb     C8 1385   5.426   6.587   6.879  0.7616  0.0301 -0.0798
   48bbb    H15 1386   5.359   6.664   6.840 -0.6611 -1.3892 -0.4487
   48bbb    H16 1387   5.437   6.614   6.985 -0.1596  0.9275 -0.2137
   48bbb     C9 1388   6.091   6.628   6.884 -0.2000  0.6128 -0.6534
   48bbb    H17 1389   6.120   6.642   6.989  1.4858 -4.4444 -0.3361
   48bbb    H18 1390   6.000   6.687   6.866 -1.1985 -0.7215 -0.0186
   48bbb     O1 1391   5.604   6.458   6.508  0.6973 -0.0353  0.5622
   49bbb     N1 1392   3.549   7.336   6.977 -0.3527 -0.3199 -0.4770
   49bbb     C1 1393   3.424   7.394   6.926 -0.0738 -0.8579 -0.3785
   49bbb     H1 1394   3.445   7.452   6.836 -0.9071  1.6568  0.9955
   49bbb     H2 1395   3.381   7.462   7.001  0.7779  0.1836 -0.8260
   49bbb     C2 1396   3.535   7.262   7.099  0.9513 -0.3531  0.1260
   49bbb     H3 1397   3.627   7.233   7.150 -0.0161 -0.9583  1.5761
   49bbb     H4 1398   3.480   7.169   7.076  2.2514 -1.2506  0.5965
   49bbb     C3 1399   3.632   7.269   6.872  0.3010  0.2329 -0.8337
   49bbb     H5 1400   3.626   7.322   6.776 -2.2872  2.3780  0.4531
   49bbb     H6 1401   3.597   7.166   6.857 -0.1385  0.4300 -1.1842
   49bbb     C4 1402   3.771   7.273   6.931 -0.3164  0.1735 -0.1901
   49bbb     H7 1403   3.792   7.191   7.000 -2.8564 -0.3848 -0.0152
   49bbb     H8 1404   3.788   7.357   6.999  1.7914 -1.2698  1.1210
   49bbb     C5 1405   3.322   7.285   6.878 -0.2192 -0.1480  0.0860
   49bbb     H9 1406   3.292   7.240   6.973  1.9674  0.2308  0.9867
   49bbb    H10 1407   3.383   7.214   6.822 -1.4662 -0.3075 -1.0880
   49bbb     C6 1408   3.476   7.341   7.219 -0.2322 -0.1750  0.4690
   49bbb    H11 1409   3.367   7.349   7.203 -0.0521 -0.9830 -1.3481
   49bbb    H12 1410   3.525   7.439   7.226  0.0921  0.2200 -5.0199
   49bbb     C7 1411   3.875   7.275   6.818  0.3126  0.3426  0.0610
   49bbb    H13 1412   3.863   7.363   6.754  0.2359 -0.6702 -1.3523
   49bbb    H14 1413   3.849   7.185   6.761 -1.9771 -0.2487  1.9119
   49bbb     C8 1414   3.508   7.261   7.348  0.2490  0.7141  0.0555
   49bbb    H15 1415   3.499   7.329   7.434  0.4260 -1.1229  1.5573
   49bbb    H16 1416   3.612   7.227   7.342  0.1731  0.4963 -0.0377
   49bbb     C9 1417   3.207   7.344   6.791  0.3042  0.0691 -0.3730
   49bbb    H17 1418   3.139   7.266   6.755 -0.8522  0.5105  0.8164
   49bbb    H18 1419   3.252   7.384   6.699 -0.1869  1.7546  0.0955
   49bbb     O1 1420   4.008   7.273   6.871 -0.1415  0.0655  0.4315
   50bbb     N1 1421   3.594   7.412   6.386 -0.1348 -1.2398  0.1006
   50bbb     C1 1422   3.491   7.488   6.312 -0.3052  0.4756  0.3664
   50bbb     H1 1423   3.513   7.594   6.298  0.9623 -0.0067 -1.4686
   50bbb     H2 1424   3.402   7.480   6.376  0.7862 -0.3771  1.8317
   50bbb     C2 1425   3.583   7.264   6.386 -0.1123  0.4683 -0.0309
   50bbb     H3 1426   3.555   7.232   6.285  0.1343  0.8664 -0.2247
   50bbb     H4 1427   3.493   7.249   6.448  1.9572 -1.4013  2.6551
   50bbb     C3 1428   3.626   7.487   6.514  0.1558  0.0625 -0.3795
   50bbb     H5 1429   3.683   7.425   6.584  0.0920  1.2573  0.7609
   50bbb     H6 1430   3.535   7.509   6.572 -1.0772 -2.2859 -1.3786
   50bbb     C4 1431   3.704   7.620   6.491  0.5107  0.2148  0.1753
   50bbb     H7 1432   3.641   7.698   6.448  1.0866 -0.3459 -1.7109
   50bbb     H8 1433   3.788   7.594   6.427  0.0490 -2.8850  0.7055
   50bbb     C5 1434   3.447   7.432   6.175  0.0438 -0.1196  0.7875
   50bbb     H9 1435   3.347   7.471   6.150 -0.2967 -1.4090  0.1108
   50bbb    H10 1436   3.435   7.323   6.175  0.5996 -0.1839  1.4218
   50bbb     C6 1437   3.710   7.187   6.430 -0.1706  0.4272  0.1980
   50bbb    H11 1438   3.744   7.225   6.527 -0.1231  2.8434 -0.7441
   50bbb    H12 1439   3.792   7.198   6.359 -2.2821  1.5033 -2.1623
   50bbb     C7 1440   3.760   7.680   6.621  0.2777  0.0398 -0.9026
   50bbb    H13 1441   3.817   7.605   6.676  0.8764  1.6127  0.6772
   50bbb    H14 1442   3.672   7.710   6.679 -1.1450 -2.5472 -1.6449
   50bbb     C8 1443   3.675   7.030   6.456 -0.2255  0.1525  0.5391
   50bbb    H15 1444   3.597   7.017   6.533 -1.3951  1.5417 -0.3838
   50bbb    H16 1445   3.769   6.983   6.486 -1.0706 -2.0099 -0.0568
   50bbb     C9 1446   3.549   7.475   6.071  0.0785 -0.0526 -0.1483
   50bbb    H17 1447   3.645   7.434   6.104  0.1565 -0.4620 -0.8653
   50bbb    H18 1448   3.564   7.584   6.079  0.6367 -0.1399  0.0234
   50bbb     O1 1449   3.844   7.800   6.594  0.2671  0.4042  0.0419
   51bbb     N1 1450   5.671   6.462   8.509  0.7037  0.6007  0.0176
   51bbb     C1 1451   5.544   6.413   8.584 -0.1295  0.6491 -0.1434
   51bbb     H1 1452   5.518   6.494   8.654  0.5858  0.3309  0.4914
   51bbb     H2 1453   5.556   6.320   8.640 -0.1647  0.2042 -0.8686
   51bbb     C2 1454   5.778   6.513   8.605  0.0297  0.1806  0.3363
   51bbb     H3 1455   5.738   6.584   8.678 -0.8209  0.7510 -0.6782
   51bbb     H4 1456   5.853   6.570   8.549 -0.4523 -1.6334 -2.2041
   51bbb     C3 1457   5.639   6.553   8.397 -0.0027  0.2102 -0.0705
   51bbb     H5 1458   5.582   6.492   8.326  0.0263 -0.0921  0.1649
   51bbb     H6 1459   5.734   6.581   8.350  0.4991  0.2465  0.9606
   51bbb     C4 1460   5.549   6.678   8.428  0.3384  0.7051 -0.1450
   51bbb     H7 1461   5.592   6.746   8.502  0.3667  0.0054  0.4885
   51bbb     H8 1462   5.457   6.657   8.484 -0.0800  0.1847 -1.0037
   51bbb     C5 1463   5.424   6.366   8.489  0.2575 -0.3739 -0.1949
   51bbb     H9 1464   5.466   6.293   8.419 -0.6760 -1.8556  0.7361
   51bbb    H10 1465   5.388   6.453   8.433  1.7571  1.9724  2.3609
   51bbb     C6 1466   5.852   6.397   8.678  0.7876  0.5345 -0.1419
   51bbb    H11 1467   5.932   6.362   8.611  0.4433  1.6058 -1.1252
   51bbb    H12 1468   5.785   6.314   8.702  0.9753  0.8113  1.3629
   51bbb     C7 1469   5.518   6.763   8.307 -0.4081  0.0446 -0.4464
   51bbb    H13 1470   5.428   6.718   8.263  0.1829 -0.2224 -1.3997
   51bbb    H14 1471   5.595   6.762   8.229 -1.3487 -1.5931 -1.3744
   51bbb     C8 1472   5.918   6.446   8.809  0.3021  0.2488  0.0570
   51bbb    H15 1473   5.970   6.541   8.790 -0.9812  1.0857  0.6008
   51bbb    H16 1474   5.988   6.369   8.840  0.5627  0.8986  1.0880
   51bbb     C9 1475   5.312   6.299   8.580  0.0294  0.3779  0.0167
   51bbb    H17 1476   5.297   6.355   8.674  0.5777 -1.1341  1.0292
   51bbb    H18 1477   5.354   6.205   8.618  0.1640  0.6458  0.5505
   51bbb     O1 1478   5.479   6.897   8.339  0.8343 -0.1746 -0.0581
   52bbb     N1 1479   6.518   6.866   8.332  0.5174 -0.0033  0.2093
   52bbb     C1 1480   6.650   6.821   8.282  0.6284 -0.0446  0.7229
   52bbb     H1 1481   6.731   6.866   8.341  0.3958  0.8126  0.3968
   52bbb     H2 1482   6.658   6.855   8.178 -0.0507 -2.4255 -0.1513
   52bbb     C2 1483   6.496   7.018   8.298  0.4891  0.0068 -0.2960
   52bbb     H3 1484   6.415   7.060   8.359  1.7194  0.5155  0.9910
   52bbb     H4 1485   6.457   7.033   8.196 -1.3244 -1.3200  0.1705
   52bbb     C3 1486   6.501   6.832   8.476 -0.9904  0.4098 -0.8218
   52bbb     H5 1487   6.586   6.870   8.534 -0.6236 -0.7644 -0.5872
   52bbb     H6 1488   6.502   6.723   8.484  2.7796  0.3907 -0.4220
   52bbb     C4 1489   6.377   6.898   8.537 -0.1965  1.7333 -0.1873
   52bbb     H7 1490   6.380   7.007   8.535  1.3607  1.6860 -1.4980
   52bbb     H8 1491   6.376   6.870   8.643  1.1773  3.2782  0.2428
   52bbb     C5 1492   6.676   6.669   8.297 -0.8251 -0.7049 -0.4383
   52bbb     H9 1493   6.683   6.651   8.405  0.1879  0.6988 -0.2555
   52bbb    H10 1494   6.778   6.645   8.267 -0.5937 -1.0378  0.6233
   52bbb     C6 1495   6.629   7.101   8.319 -0.6341  0.9798 -0.0470
   52bbb    H11 1496   6.703   7.068   8.246  1.5312 -0.2474  2.6116
   52bbb    H12 1497   6.662   7.085   8.422 -2.3810  0.1126  0.4034
   52bbb     C7 1498   6.245   6.853   8.478  0.0640  0.0581  0.9591
   52bbb    H13 1499   6.206   6.762   8.525 -0.6484 -0.2128 -0.1491
   52bbb    H14 1500   6.241   6.822   8.373 -1.9234  3.3623 -0.0268
   52bbb     C8 1501   6.605   7.246   8.286 -0.1622 -0.1679  0.2931
   52bbb    H15 1502   6.697   7.299   8.314  2.0752 -2.7727 -1.8408
   52bbb    H16 1503   6.525   7.272   8.357  0.7873 -1.1347  1.7284
   52bbb     C9 1504   6.578   6.574   8.227 -0.1908  0.4925 -0.2090
   52bbb    H17 1505   6.473   6.605   8.230 -0.3245  0.0741 -0.5941
   52bbb    H18 1506   6.589   6.481   8.284  0.7087  0.9037  0.3152
   52bbb     O1 1507   6.145   6.956   8.501 -0.4702 -0.0419  0.3014
   53bbb     N1 1508   5.175   7.426   8.206 -0.3837 -0.0576  0.0941
   53bbb     C1 1509   5.062   7.497   8.267  0.3498 -0.1028  0.5249
   53bbb     H1 1510   4.991   7.527   8.190  0.2324 -0.3515  0.5342
   53bbb     H2 1511   5.093   7.593   8.311  1.7607 -0.7665  1.0129
   53bbb     C2 1512   5.268   7.523   8.137  0.0410  0.1622 -0.1007
   53bbb     H3 1513   5.213   7.589   8.069 -1.9519 -1.2724  0.0717
   53bbb     H4 1514   5.329   7.459   8.072  1.4225  1.0451  0.2890
   53bbb     C3 1515   5.128   7.314   8.118  0.1055 -0.0406 -0.2878
   53bbb     H5 1516   5.095   7.351   8.020 -0.5681  1.2764  0.4130
   53bbb     H6 1517   5.039   7.274   8.167 -1.0839  2.8213  0.0249
   53bbb     C4 1518   5.230   7.201   8.109  0.1953 -0.2535  0.1034
   53bbb     H7 1519   5.247   7.150   8.205  1.7385 -0.8963 -0.4934
   53bbb     H8 1520   5.331   7.237   8.086  1.2683 -1.9975  1.9247
   53bbb     C5 1521   4.980   7.421   8.376 -0.2850 -0.8245 -0.1355
   53bbb     H9 1522   5.040   7.410   8.467  0.0628  1.0748 -0.1064
   53bbb    H10 1523   4.957   7.318   8.348 -0.9982 -0.5179 -0.6930
   53bbb     C6 1524   5.359   7.606   8.229  0.4519 -0.2861 -0.2163
   53bbb    H11 1525   5.316   7.625   8.328 -1.4561 -0.4623 -0.9908
   53bbb    H12 1526   5.390   7.705   8.195 -0.5312  0.4925  1.0772
   53bbb     C7 1527   5.181   7.083   8.012 -0.3273  1.1907  0.1977
   53bbb    H13 1528   5.178   7.120   7.908  0.8764 -0.7688 -0.5555
   53bbb    H14 1529   5.077   7.054   8.030  0.2128 -1.2208 -0.3767
   53bbb     C8 1530   5.489   7.529   8.244 -0.2260  0.0366 -0.9605
   53bbb    H15 1531   5.459   7.424   8.256 -1.2140 -0.0128 -3.5297
   53bbb    H16 1532   5.542   7.561   8.334 -3.8912  1.4080  0.8438
   53bbb     C9 1533   4.839   7.489   8.393 -0.8042 -0.2132 -0.4172
   53bbb    H17 1534   4.810   7.530   8.296 -1.8931 -0.2658 -0.1249
   53bbb    H18 1535   4.848   7.571   8.465  1.6687 -1.2710  0.5594
   53bbb     O1 1536   5.262   6.971   8.018  0.3932  0.3396 -0.0124
   54bbb     N1 1537   4.943   6.532   7.066 -0.6401  0.2727 -0.1162
   54bbb     C1 1538   4.925   6.398   7.012  0.2987  0.1852  0.2257
   54bbb     H1 1539   4.876   6.342   7.093  0.8123 -2.4156 -1.2113
   54bbb     H2 1540   5.025   6.356   6.995 -0.3706 -0.3739 -2.4477
   54bbb     C2 1541   4.827   6.625   7.074  0.3021 -0.0318  0.0624
   54bbb     H3 1542   4.782   6.636   6.975  0.7606 -0.5623 -0.2106
   54bbb     H4 1543   4.853   6.730   7.097 -1.0476  0.1255  0.9515
   54bbb     C3 1544   5.026   6.542   7.187  0.6652  0.2116  0.0831
   54bbb     H5 1545   4.997   6.460   7.255  2.7028 -1.6314 -1.1944
   54bbb     H6 1546   5.020   6.643   7.229 -0.3181  1.0284 -1.9925
   54bbb     C4 1547   5.177   6.508   7.175 -1.2013  0.1425  0.2921
   54bbb     H7 1548   5.222   6.531   7.077 -0.6427 -1.2470  0.2113
   54bbb     H8 1549   5.201   6.404   7.198 -3.2040 -0.0409  1.5869
   54bbb     C5 1550   4.853   6.393   6.877 -0.0924 -0.1341  0.3714
   54bbb     H9 1551   4.746   6.416   6.890 -0.4304 -1.2509 -0.3365
   54bbb    H10 1552   4.840   6.291   6.838 -3.4237 -0.3903  1.9323
   54bbb     C6 1553   4.716   6.575   7.161 -0.1102  0.0171 -0.3242
   54bbb    H11 1554   4.750   6.544   7.261  0.0272 -1.8635 -0.9328
   54bbb    H12 1555   4.666   6.484   7.124 -0.2365  0.3515 -0.9731
   54bbb     C7 1556   5.266   6.578   7.281 -0.4481 -0.0279 -0.2716
   54bbb    H13 1557   5.241   6.683   7.300 -0.8672  0.0947 -1.4174
   54bbb    H14 1558   5.370   6.560   7.251 -0.0738  1.5766  0.0256
   54bbb     C8 1559   4.606   6.688   7.182  0.0038 -0.1082  0.5756
   54bbb    H15 1560   4.554   6.706   7.087 -0.8317 -0.4934  0.9644
   54bbb    H16 1561   4.658   6.781   7.210 -2.0686  0.9718  0.9211
   54bbb     C9 1562   4.900   6.487   6.759 -0.1405 -0.6481  0.1377
   54bbb    H17 1563   4.994   6.441   6.724 -1.3767 -1.0024 -2.8581
   54bbb    H18 1564   4.932   6.584   6.799 -2.6760  0.4245 -0.3216
   54bbb     O1 1565   5.237   6.501   7.402 -0.0559 -0.1320  0.6179
   55bbb     N1 1566   6.371  10.424   6.747  0.7709 -0.2232  0.0155
   55bbb     C1 1567   6.320  10.453   6.887  0.1627 -0.2100  0.3533
   55bbb     H1 1568   6.395  10.520   6.932 -1.1073  0.6359  1.2520
   55bbb     H2 1569   6.319  10.373   6.962 -0.7424  1.1084  1.7802
   55bbb     C2 1570   6.518  10.396   6.749  0.0788  0.2660  0.0735
   55bbb     H3 1571   6.563  10.479   6.804  0.9908  0.8641 -1.5394
   55bbb     H4 1572   6.549  10.412   6.645 -0.1884 -0.8756 -0.1862
   55bbb     C3 1573   6.283  10.354   6.658  0.9399 -0.0499  0.4812
   55bbb     H5 1574   6.185  10.403   6.652  0.4101 -0.9229  1.6866
   55bbb     H6 1575   6.253  10.261   6.709 -1.6573 -0.0872 -1.0174
   55bbb     C4 1576   6.321  10.323   6.512  0.0362  0.6808  0.2812
   55bbb     H7 1577   6.411  10.262   6.501 -0.8506 -0.8764  1.4006
   55bbb     H8 1578   6.354  10.419   6.472 -1.0531  0.9812  0.0901
   55bbb     C5 1579   6.185  10.530   6.892 -0.1359 -0.1209 -0.2161
   55bbb     H9 1580   6.097  10.468   6.871 -0.0054 -0.3678 -0.0298
   55bbb    H10 1581   6.187  10.606   6.813  1.5215 -0.6142 -0.6607
   55bbb     C6 1582   6.571  10.255   6.803 -0.3466  0.3012 -0.4852
   55bbb    H11 1583   6.519  10.177   6.747  0.0426  1.9837 -3.2835
   55bbb    H12 1584   6.554  10.239   6.910 -1.8107  1.0070 -0.6147
   55bbb     C7 1585   6.209  10.270   6.424  0.1414 -0.3378 -0.0710
   55bbb    H13 1586   6.229  10.293   6.318  2.8389 -0.9703  0.2704
   55bbb    H14 1587   6.117  10.315   6.463  1.5296 -0.6927  3.7723
   55bbb     C8 1588   6.723  10.223   6.774  0.1955 -0.1149 -0.4631
   55bbb    H15 1589   6.793  10.272   6.843 -0.2112 -1.7841  1.2071
   55bbb    H16 1590   6.751  10.259   6.675  1.8550  1.5779  0.6025
   55bbb     C9 1591   6.167  10.607   7.027 -0.5034  0.0028  0.2242
   55bbb    H17 1592   6.090  10.683   7.012 -0.3928  0.4346  1.7383
   55bbb    H18 1593   6.256  10.670   7.042 -2.0384  2.4681 -0.8174
   55bbb     O1 1594   6.196  10.131   6.448 -0.3849  0.3714  0.3305
   56bbb     N1 1595   5.353   9.242   6.540  0.3656 -0.5713 -0.1420
   56bbb     C1 1596   5.277   9.178   6.646 -0.7428 -0.5535 -0.2236
   56bbb     H1 1597   5.348   9.132   6.717  1.6925 -1.3513 -3.0934
   56bbb     H2 1598   5.221   9.093   6.604  0.2306 -0.1461 -2.3934
   56bbb     C2 1599   5.433   9.138   6.465 -0.0533 -0.3197  0.1534
   56bbb     H3 1600   5.371   9.052   6.440 -0.1441 -0.1757 -0.1236
   56bbb     H4 1601   5.520   9.099   6.519 -0.9860 -1.4890  0.8314
   56bbb     C3 1602   5.423   9.378   6.567 -0.4627  0.0209 -0.3707
   56bbb     H5 1603   5.359   9.462   6.597  0.4921  0.5817  0.1136
   56bbb     H6 1604   5.463   9.415   6.471  0.8525  0.5674  0.3807
   56bbb     C4 1605   5.531   9.364   6.678 -0.3376 -0.3209  0.4517
   56bbb     H7 1606   5.530   9.262   6.717 -0.2915 -0.4205  0.1920
   56bbb     H8 1607   5.515   9.431   6.763  0.3697  2.6731 -1.6595
   56bbb     C5 1608   5.187   9.267   6.721  0.2335  0.3098  0.2399
   56bbb     H9 1609   5.112   9.307   6.652  1.0678  2.0356  0.3034
   56bbb    H10 1610   5.254   9.347   6.755  0.9313 -0.6735  1.2297
   56bbb     C6 1611   5.484   9.192   6.324  0.4318 -0.1026  0.7909
   56bbb    H11 1612   5.565   9.266   6.322  0.9107 -0.4726  4.0470
   56bbb    H12 1613   5.408   9.242   6.264  0.4077 -1.2972 -0.1977
   56bbb     C7 1614   5.667   9.407   6.622  0.0108 -0.5319 -0.5338
   56bbb    H13 1615   5.683   9.381   6.517 -0.3085  3.4811 -1.6414
   56bbb    H14 1616   5.753   9.370   6.678 -0.0541  0.8183  0.4884
   56bbb     C8 1617   5.536   9.073   6.235 -0.0862 -0.2596  0.8808
   56bbb    H15 1618   5.451   9.005   6.219 -0.9124  1.5858 -3.1381
   56bbb    H16 1619   5.615   9.015   6.284  0.9242 -0.0296 -0.4682
   56bbb     C9 1620   5.129   9.199   6.839 -0.1194 -0.3252 -0.5151
   56bbb    H17 1621   5.214   9.172   6.904  0.7903  1.2986 -0.9864
   56bbb    H18 1622   5.080   9.106   6.809 -0.3198 -0.3933  0.0141
   56bbb     O1 1623   5.676   9.554   6.621  0.3503  0.0940  0.1897
   57bbb     N1 1624   6.417   8.888   7.617  0.7858  0.5001  0.0384
   57bbb     C1 1625   6.322   8.986   7.671 -0.1222  0.1181 -0.1120
   57bbb     H1 1626   6.224   8.976   7.622 -0.2041  0.7004 -0.0822
   57bbb     H2 1627   6.352   9.086   7.636  0.5342  0.4023  1.2501
   57bbb     C2 1628   6.439   8.769   7.703 -0.1221 -0.5419 -0.4815
   57bbb     H3 1629   6.342   8.721   7.720  0.1683 -0.9294  0.0886
   57bbb     H4 1630   6.477   8.803   7.800 -1.2700  0.6894 -0.4474
   57bbb     C3 1631   6.380   8.849   7.477  0.6767  0.2142 -0.2541
   57bbb     H5 1632   6.297   8.778   7.483 -0.3276  1.5098  2.0578
   57bbb     H6 1633   6.467   8.799   7.434  0.8605  2.2655 -2.3812
   57bbb     C4 1634   6.334   8.955   7.379 -0.1838  0.4048  0.6368
   57bbb     H7 1635   6.402   9.040   7.395  0.0750  0.7558 -2.1326
   57bbb     H8 1636   6.230   8.987   7.395 -0.0229  1.1438  0.2331
   57bbb     C5 1637   6.300   8.990   7.822  0.6531  0.0715  0.5854
   57bbb     H9 1638   6.400   8.988   7.868  1.0337 -0.7778 -0.2466
   57bbb    H10 1639   6.256   8.891   7.841  0.5574 -0.1119 -0.5152
   57bbb     C6 1640   6.539   8.660   7.651 -0.5619 -0.0184  0.3055
   57bbb    H11 1641   6.633   8.715   7.646  0.4902 -1.8230 -0.3251
   57bbb    H12 1642   6.511   8.625   7.551 -1.9579  1.1052  0.2938
   57bbb     C7 1643   6.352   8.914   7.234  0.0299  0.0571 -0.3843
   57bbb    H13 1644   6.304   8.985   7.165  0.3987 -0.1172 -0.8203
   57bbb    H14 1645   6.303   8.816   7.226 -0.1603 -0.0631  1.8856
   57bbb     C8 1646   6.546   8.542   7.752  0.3481 -0.1753  0.9447
   57bbb    H15 1647   6.456   8.546   7.815 -0.3091 -0.3607  0.0268
   57bbb    H16 1648   6.636   8.555   7.813  1.4911 -1.2734 -0.4752
   57bbb     C9 1649   6.227   9.112   7.881 -0.1083  0.1101 -0.8369
   57bbb    H17 1650   6.153   9.147   7.808 -1.8292  1.8997  1.6473
   57bbb    H18 1651   6.301   9.191   7.895  1.9827 -1.7861 -1.0500
   57bbb     O1 1652   6.492   8.892   7.210  0.6734  0.3195  0.1404
   58bbb     N1 1653   6.377   8.615   6.140 -0.0146 -0.2160 -0.7705
   58bbb     C1 1654   6.458   8.545   6.034 -0.5091 -0.5033 -0.3073
   58bbb     H1 1655   6.564   8.553   6.061 -0.1096 -2.6358 -1.1239
   58bbb     H2 1656   6.457   8.606   5.942  0.0160 -0.1472 -0.0819
   58bbb     C2 1657   6.355   8.763   6.108 -0.2329  0.4990  0.4186
   58bbb     H3 1658   6.258   8.786   6.154 -1.3504 -2.1529 -0.4966
   58bbb     H4 1659   6.347   8.780   6.000  2.2831 -0.6125  0.0186
   58bbb     C3 1660   6.352   8.562   6.274  0.6569 -0.0721  0.0663
   58bbb     H5 1661   6.288   8.473   6.270 -3.6226  2.8223  0.2513
   58bbb     H6 1662   6.308   8.643   6.334  0.6853 -0.7335  0.9829
   58bbb     C4 1663   6.484   8.506   6.326  0.1516  0.1055 -0.9024
   58bbb     H7 1664   6.566   8.579   6.314  0.6224 -0.3183 -0.2691
   58bbb     H8 1665   6.527   8.423   6.268  0.4954 -0.2302 -0.1698
   58bbb     C5 1666   6.420   8.401   5.992  0.0895  0.0735 -0.8085
   58bbb     H9 1667   6.321   8.406   5.944 -0.6991 -0.0128  0.7813
   58bbb    H10 1668   6.391   8.343   6.080 -1.3939 -0.5624 -1.6796
   58bbb     C6 1669   6.457   8.863   6.178 -0.4120 -0.3078 -0.4476
   58bbb    H11 1670   6.470   8.832   6.283  2.8022  1.6616 -0.2044
   58bbb    H12 1671   6.410   8.962   6.176  1.6775  0.7385  0.7474
   58bbb     C7 1672   6.481   8.475   6.477  0.0794 -0.8041 -0.0977
   58bbb    H13 1673   6.421   8.383   6.485  1.5389 -1.8608 -1.0690
   58bbb    H14 1674   6.423   8.554   6.525 -1.8375 -1.2233 -1.6406
   58bbb     C8 1675   6.597   8.865   6.111 -0.2609  0.0868  0.2075
   58bbb    H15 1676   6.577   8.857   6.003 -0.7760  1.3670  0.1954
   58bbb    H16 1677   6.660   8.783   6.146 -1.3998 -0.6850  0.4659
   58bbb     C9 1678   6.517   8.325   5.900  0.5578  0.3976  0.2798
   58bbb    H17 1679   6.616   8.319   5.947  0.5853  1.3693  0.3562
   58bbb    H18 1680   6.527   8.386   5.810 -0.9189 -0.8086 -0.7352
   58bbb     O1 1681   6.617   8.460   6.530  0.3108  0.4724  0.4971
   59bbb     N1 1682   5.360   8.895   8.778  0.4931  0.4906 -0.4601
   59bbb     C1 1683   5.282   9.008   8.850 -0.4348  0.0366 -0.7176
   59bbb     H1 1684   5.201   8.962   8.909  0.8225  1.3293  2.0981
   59bbb     H2 1685   5.239   9.079   8.780  0.0907  1.1556  0.0799
   59bbb     C2 1686   5.273   8.822   8.682 -0.5274  0.1376 -0.1755
   59bbb     H3 1687   5.193   8.774   8.739 -1.4467  2.3067  0.4061
   59bbb     H4 1688   5.322   8.741   8.627  3.3230  1.3695  1.2484
   59bbb     C3 1689   5.429   8.803   8.871 -0.4026  0.3182  0.1232
   59bbb     H5 1690   5.362   8.737   8.927  0.8628 -0.4467  0.7363
   59bbb     H6 1691   5.480   8.865   8.946  1.3668  2.0230 -2.3938
   59bbb     C4 1692   5.545   8.716   8.814 -0.4457  0.3599  0.0364
   59bbb     H7 1693   5.606   8.777   8.746 -1.1954  1.4724  0.3639
   59bbb     H8 1694   5.502   8.635   8.754 -1.7553  1.8225 -1.0131
   59bbb     C5 1695   5.368   9.086   8.951 -0.0940 -0.6213  0.1461
   59bbb     H9 1696   5.396   9.026   9.039  1.4415  0.5484  0.4784
   59bbb    H10 1697   5.298   9.156   8.998 -0.1653 -0.6592  0.0936
   59bbb     C6 1698   5.211   8.908   8.572 -0.3626  0.2861 -0.7327
   59bbb    H11 1699   5.286   8.969   8.520  1.7804 -0.3237  1.5868
   59bbb    H12 1700   5.143   8.979   8.622  1.4070  2.4054 -1.2649
   59bbb     C7 1701   5.633   8.658   8.921  0.2568  0.3651  0.3708
   59bbb    H13 1702   5.574   8.586   8.979 -0.2140  1.0694  0.7669
   59bbb    H14 1703   5.648   8.747   8.983 -3.8009  0.3437  1.5579
   59bbb     C8 1704   5.126   8.834   8.467  0.3489 -0.4403 -0.4262
   59bbb    H15 1705   5.054   8.766   8.512  0.3231  2.6324  4.5637
   59bbb    H16 1706   5.203   8.776   8.415 -0.2469 -0.8363 -0.8626
   59bbb     C9 1707   5.486   9.163   8.887 -0.1968 -0.0907 -0.5067
   59bbb    H17 1708   5.461   9.191   8.784 -2.3103  1.8715  0.4774
   59bbb    H18 1709   5.564   9.087   8.879 -0.1465 -0.1867  0.6934
   59bbb     O1 1710   5.746   8.593   8.857  0.5098  0.4027  0.0580
   60bbb     N1 1711   6.742   8.941   9.163 -0.8867 -0.5530 -0.6794
   60bbb     C1 1712   6.800   8.890   9.293 -0.5473  0.3382  0.2486
   60bbb     H1 1713   6.817   8.782   9.283  0.0527  0.5156 -0.6689
   60bbb     H2 1714   6.728   8.911   9.373  1.0509 -0.8133  2.0361
   60bbb     C2 1715   6.817   8.901   9.037  0.1790 -0.0121  0.1903
   60bbb     H3 1716   6.919   8.939   9.052  1.1653 -2.6627  0.3365
   60bbb     H4 1717   6.777   8.950   8.947 -0.6501  0.4397  0.7958
   60bbb     C3 1718   6.597   8.917   9.152  0.3929  0.3264  0.5623
   60bbb     H5 1719   6.538   8.967   9.230 -0.0898 -2.1093  1.8128
   60bbb     H6 1720   6.579   8.810   9.169  1.8918  0.0200  0.2957
   60bbb     C4 1721   6.529   8.965   9.017 -0.0360 -0.0721  0.9588
   60bbb     H7 1722   6.567   8.912   8.928  0.2449 -0.5953  1.3887
   60bbb     H8 1723   6.540   9.073   9.006  0.2843 -0.3303 -1.7374
   60bbb     C5 1724   6.934   8.956   9.322  0.2918 -0.5900  0.0924
   60bbb     H9 1725   6.930   9.060   9.286 -1.9426 -0.5995  0.2532
   60bbb    H10 1726   7.013   8.899   9.271 -1.2685 -1.1294 -1.7858
   60bbb     C6 1727   6.829   8.750   9.005 -0.4761  0.3799  0.1975
   60bbb    H11 1728   6.731   8.701   9.019 -0.9182  1.3150  0.3755
   60bbb    H12 1729   6.907   8.709   9.070 -0.2849  0.1573 -0.1671
   60bbb     C7 1730   6.375   8.943   9.020  0.1250  0.5009 -0.2571
   60bbb    H13 1731   6.330   8.967   8.923  1.2731 -1.5442 -1.3380
   60bbb    H14 1732   6.326   9.011   9.090  0.7035 -0.3190  0.9662
   60bbb     C8 1733   6.871   8.703   8.861 -0.4091 -0.5877  0.2431
   60bbb    H15 1734   6.800   8.742   8.787 -0.0065 -2.0105 -0.9120
   60bbb    H16 1735   6.855   8.595   8.860  0.0936 -0.6616  0.1192
   60bbb     C9 1736   6.963   8.963   9.469  0.4512 -0.3204 -0.3665
   60bbb    H17 1737   7.052   9.021   9.495 -1.0758  1.6162  0.6417
   60bbb    H18 1738   6.997   8.864   9.501 -1.1321 -1.0839 -0.9809
   60bbb     O1 1739   6.352   8.803   9.057 -0.7698  0.4635 -0.1891
   61bbb     N1 1740   6.758   9.303   8.784  0.0061 -0.1876 -0.3689
   61bbb     C1 1741   6.700   9.420   8.861  0.0356  0.8960  0.1661
   61bbb     H1 1742   6.771   9.487   8.911  0.8830 -0.0633  0.2497
   61bbb     H2 1743   6.643   9.375   8.944  0.5235 -0.4391 -0.2106
   61bbb     C2 1744   6.859   9.225   8.854 -0.2873  0.7781  0.4886
   61bbb     H3 1745   6.899   9.155   8.780 -1.1315  0.4659  0.3152
   61bbb     H4 1746   6.798   9.166   8.925 -2.6881  0.2900 -1.9158
   61bbb     C3 1747   6.659   9.213   8.724 -1.1830 -0.7276 -0.4701
   61bbb     H5 1748   6.577   9.270   8.679 -0.8482 -0.9497 -1.3887
   61bbb     H6 1749   6.612   9.143   8.794 -0.5694  0.2204  0.9032
   61bbb     C4 1750   6.713   9.127   8.601  0.1896 -0.0357 -0.1091
   61bbb     H7 1751   6.808   9.080   8.630  0.0061 -0.3095  0.0442
   61bbb     H8 1752   6.742   9.194   8.518  0.0879  1.4968  1.0666
   61bbb     C5 1753   6.605   9.513   8.775 -0.2525  0.2265  0.6006
   61bbb     H9 1754   6.520   9.450   8.746  0.3823 -0.4743  0.2358
   61bbb    H10 1755   6.656   9.541   8.682  2.3662  2.4959  2.6364
   61bbb     C6 1756   6.966   9.299   8.940  0.8325  0.0884  0.7101
   61bbb    H11 1757   6.912   9.357   9.016 -0.9523 -0.5667 -0.0205
   61bbb    H12 1758   7.009   9.377   8.876 -0.1602 -0.7657 -1.0511
   61bbb     C7 1759   6.620   9.014   8.558 -0.0297  0.3729 -0.2302
   61bbb    H13 1760   6.625   8.940   8.638  0.5852  2.3993  1.6590
   61bbb    H14 1761   6.657   8.964   8.468  2.3629  0.9493  0.4081
   61bbb     C8 1762   7.061   9.208   9.016 -0.0741 -0.2719 -0.3823
   61bbb    H15 1763   7.139   9.163   8.953 -1.4627  0.1880 -2.4687
   61bbb    H16 1764   7.004   9.133   9.071 -0.2755  0.6564  0.6897
   61bbb     C9 1765   6.560   9.644   8.848 -0.3547  0.2377  1.0258
   61bbb    H17 1766   6.506   9.622   8.941 -2.6606  1.5470  0.0390
   61bbb    H18 1767   6.492   9.699   8.781  2.9214  2.2472 -0.8090
   61bbb     O1 1768   6.488   9.059   8.551  0.3144 -0.3195 -0.0001
   62bbb     N1 1769   6.346   9.400   9.169 -0.3132 -0.0431 -0.2314
   62bbb     C1 1770   6.360   9.502   9.279  0.2046 -0.5027 -0.1672
   62bbb     H1 1771   6.386   9.449   9.372  1.6286  1.1063  0.3814
   62bbb     H2 1772   6.265   9.553   9.298  0.2998 -1.4037  3.1536
   62bbb     C2 1773   6.301   9.446   9.039  0.1497 -0.3752  0.2338
   62bbb     H3 1774   6.359   9.534   9.012 -0.7224  0.2861  0.4933
   62bbb     H4 1775   6.196   9.478   9.047  0.2839  0.4571 -1.3509
   62bbb     C3 1776   6.276   9.276   9.224 -0.4860 -0.5630  0.5104
   62bbb     H5 1777   6.318   9.253   9.323  0.8971 -1.3219 -0.2353
   62bbb     H6 1778   6.292   9.195   9.151 -0.3906 -0.5959  0.5687
   62bbb     C4 1779   6.124   9.292   9.245  0.1518  0.7342 -0.2529
   62bbb     H7 1780   6.081   9.340   9.156 -1.7721 -1.0085 -0.2757
   62bbb     H8 1781   6.118   9.368   9.323 -0.4863  0.3578  0.0646
   62bbb     C5 1782   6.477   9.602   9.262 -0.1030 -0.0171 -0.2005
   62bbb     H9 1783   6.470   9.654   9.358 -0.2857 -0.0757 -0.1845
   62bbb    H10 1784   6.459   9.667   9.176  0.1446 -2.7529 -2.3974
   62bbb     C6 1785   6.315   9.346   8.924  0.1222 -0.0803 -0.1766
   62bbb    H11 1786   6.283   9.245   8.953 -0.3012  0.1363  0.1255
   62bbb    H12 1787   6.421   9.327   8.906  0.8869  1.5464  2.3992
   62bbb     C7 1788   6.045   9.166   9.280  0.3453  0.5792 -0.9414
   62bbb    H13 1789   5.947   9.195   9.321  0.9749  0.3077  0.8141
   62bbb    H14 1790   6.106   9.108   9.351  0.7440 -0.3408 -2.0313
   62bbb     C8 1791   6.245   9.404   8.802 -0.0012  0.2714  0.2368
   62bbb    H15 1792   6.275   9.509   8.802 -0.3612  0.3777  0.4555
   62bbb    H16 1793   6.136   9.397   8.814 -0.0346  0.3322 -0.0406
   62bbb     C9 1794   6.618   9.538   9.252  0.0122  0.0254  0.3873
   62bbb    H17 1795   6.620   9.492   9.152 -0.1056  0.8133  0.0191
   62bbb    H18 1796   6.630   9.464   9.332 -0.7797  1.3973  1.7703
   62bbb     O1 1797   6.028   9.093   9.163 -0.1291 -0.5531  0.1662
   63bbb     N1 1798   3.466  10.079   5.810 -0.0704 -0.7018  0.2735
   63bbb     C1 1799   3.531  10.166   5.909  0.0532 -0.7020 -0.2419
   63bbb     H1 1800   3.625  10.210   5.872 -0.1359 -1.2398 -1.4086
   63bbb     H2 1801   3.549  10.126   6.009 -1.3361  1.3842  0.8853
   63bbb     C2 1802   3.551   9.967   5.749 -0.4699 -0.1209  0.4528
   63bbb     H3 1803   3.502   9.928   5.659  0.6334 -1.9042  0.5883
   63bbb     H4 1804   3.561   9.883   5.819  0.7020 -0.0885  0.3308
   63bbb     C3 1805   3.339  10.013   5.842 -0.0242 -0.0295 -0.6403
   63bbb     H5 1806   3.281  10.077   5.909  0.6297  0.1821 -0.2706
   63bbb     H6 1807   3.351   9.917   5.895  2.2168  0.5319 -0.0900
   63bbb     C4 1808   3.254   9.967   5.716 -0.4160  0.0528  0.3081
   63bbb     H7 1809   3.292   9.885   5.655 -0.7750 -0.4768  0.7944
   63bbb     H8 1810   3.242  10.052   5.648 -0.4101  0.3392  0.6615
   63bbb     C5 1811   3.456  10.294   5.942  0.0900  0.1482  0.5028
   63bbb     H9 1812   3.521  10.364   5.996  1.0010  0.1885 -0.6144
   63bbb    H10 1813   3.368  10.272   6.003 -0.8585 -2.3290 -1.6715
   63bbb     C6 1814   3.692  10.011   5.701  0.1574  0.0061  0.2055
   63bbb    H11 1815   3.753  10.045   5.785 -0.1170 -1.5937  1.0789
   63bbb    H12 1816   3.684  10.093   5.628  1.3462  0.4204  0.5368
   63bbb     C7 1817   3.114   9.919   5.758 -0.1178  0.2678  0.0587
   63bbb    H13 1818   3.059   9.895   5.667  0.2626  1.0800 -0.3937
   63bbb    H14 1819   3.055   9.992   5.815 -1.1837  0.3496 -1.1567
   63bbb     C8 1820   3.767   9.887   5.645  0.9228 -0.0787  0.7909
   63bbb    H15 1821   3.712   9.840   5.563  2.6393 -0.7394 -0.0032
   63bbb    H16 1822   3.769   9.808   5.721  0.0163 -0.4707  0.4122
   63bbb     C9 1823   3.427  10.377   5.816  0.4504 -0.2030 -0.3348
   63bbb    H17 1824   3.379  10.305   5.748 -1.3656  0.0292  0.6811
   63bbb    H18 1825   3.517  10.389   5.754  1.0128 -0.1193  0.4946
   63bbb     O1 1826   3.125   9.804   5.834  0.3503  0.1443 -0.0229
   64bbb     N1 1827   2.935   9.132   5.154 -0.3285  0.2310 -0.3632
   64bbb     C1 1828   2.881   9.093   5.022  0.1381 -0.3978 -0.3263
   64bbb     H1 1829   2.896   8.988   4.996  0.7680 -0.5328  0.5480
   64bbb     H2 1830   2.915   9.162   4.943  1.4850 -0.2301  0.3935
   64bbb     C2 1831   3.083   9.103   5.153 -0.1535 -1.1327  0.0816
   64bbb     H3 1832   3.133   9.147   5.066  2.1688 -1.5419  1.1845
   64bbb     H4 1833   3.088   8.996   5.130  1.0434 -0.9607 -0.4633
   64bbb     C3 1834   2.899   9.267   5.197  0.6272  0.1565 -0.5376
   64bbb     H5 1835   2.896   9.326   5.105  0.5046 -0.7637 -1.1330
   64bbb     H6 1836   2.976   9.310   5.263 -0.3720 -0.4473  1.0435
   64bbb     C4 1837   2.767   9.288   5.273 -0.3332  0.4110  0.0032
   64bbb     H7 1838   2.690   9.236   5.215  0.5769 -0.5650 -0.3641
   64bbb     H8 1839   2.753   9.396   5.283  1.8212  0.8250 -1.2416
   64bbb     C5 1840   2.727   9.104   5.003 -0.2297  0.7139  0.1717
   64bbb     H9 1841   2.706   9.071   4.900  1.3687 -1.9884  0.6708
   64bbb    H10 1842   2.699   9.210   4.999  2.3464  1.4354  0.3630
   64bbb     C6 1843   3.165   9.132   5.279 -0.1248  0.7872 -0.6566
   64bbb    H11 1844   3.177   9.239   5.300 -2.4128  1.0399 -0.4845
   64bbb    H12 1845   3.268   9.098   5.259 -0.8406 -0.9309 -1.4975
   64bbb     C7 1846   2.772   9.229   5.412 -0.5760  0.5336 -0.3946
   64bbb    H13 1847   2.789   9.121   5.410 -0.5658  0.4724  1.6737
   64bbb    H14 1848   2.676   9.249   5.461 -1.1695 -0.3820 -1.1739
   64bbb     C8 1849   3.115   9.069   5.411 -0.6761  1.0464  0.3320
   64bbb    H15 1850   3.006   9.077   5.420 -0.7965 -0.4266  0.3226
   64bbb    H16 1851   3.152   9.129   5.495  0.3373  1.7194 -0.5813
   64bbb     C9 1852   2.645   9.002   5.094  0.2196 -0.4729  0.0448
   64bbb    H17 1853   2.687   9.013   5.194  0.4370 -1.9540  0.1379
   64bbb    H18 1854   2.674   8.901   5.060  1.5662 -0.1247  0.1197
   64bbb     O1 1855   2.883   9.297   5.482  0.2216 -1.1421  0.1688
   65bbb     N1 1856   4.805   8.584   4.775  0.6875  0.3687  0.7440
   65bbb     C1 1857   4.737   8.654   4.669 -0.2195  0.2184  0.7422
   65bbb     H1 1858   4.788   8.628   4.575 -2.0271 -0.3544 -0.1025
   65bbb     H2 1859   4.740   8.762   4.688 -1.4098  0.1276  1.5135
   65bbb     C2 1860   4.939   8.524   4.736  0.4241  0.0094  0.2108
   65bbb     H3 1861   4.922   8.480   4.637 -1.4974 -1.0078  0.9616
   65bbb     H4 1862   4.966   8.450   4.813  0.6569 -1.9431 -1.7026
   65bbb     C3 1863   4.812   8.661   4.908  1.1989  0.3692  0.9889
   65bbb     H5 1864   4.878   8.747   4.896  0.7362  0.4590 -1.2414
   65bbb     H6 1865   4.864   8.596   4.979  3.1594  0.9810  0.1529
   65bbb     C4 1866   4.668   8.700   4.963 -0.1837  0.3543  0.6222
   65bbb     H7 1867   4.613   8.607   4.981  1.6710 -0.7413  0.7986
   65bbb     H8 1868   4.620   8.759   4.884  1.0479 -0.3414 -0.6920
   65bbb     C5 1869   4.589   8.608   4.648 -0.0973  0.0577  0.0401
   65bbb     H9 1870   4.533   8.632   4.739 -1.1062 -0.7198 -0.3640
   65bbb    H10 1871   4.589   8.499   4.631 -2.5114  0.0553 -0.2096
   65bbb     C6 1872   5.042   8.640   4.713  0.2075  0.1575  0.0154
   65bbb    H11 1873   5.098   8.650   4.807  1.1597  0.8817 -0.6124
   65bbb    H12 1874   5.004   8.738   4.684  0.7840  0.5939  0.7029
   65bbb     C7 1875   4.665   8.780   5.096  0.3067 -0.3050  0.5016
   65bbb    H13 1876   4.579   8.847   5.104 -0.8290 -1.6789  0.1099
   65bbb    H14 1877   4.764   8.826   5.108  0.3929 -0.1196 -0.9041
   65bbb     C8 1878   5.155   8.599   4.615 -0.0312  0.0294 -0.7628
   65bbb    H15 1879   5.157   8.490   4.630 -1.7011  0.1390  0.3385
   65bbb    H16 1880   5.257   8.637   4.631 -0.2526  0.7940 -1.2075
   65bbb     C9 1881   4.524   8.700   4.540 -0.0982  0.1121 -0.2296
   65bbb    H17 1882   4.553   8.801   4.569  0.1731  0.2712 -1.0415
   65bbb    H18 1883   4.414   8.705   4.539 -0.1289 -0.5385 -1.0407
   65bbb     O1 1884   4.645   8.677   5.201  0.3370 -0.7881 -0.3725
   66bbb     N1 1885   4.184   7.999   5.683  0.2256  0.4491  0.0101
   66bbb     C1 1886   4.070   7.903   5.668 -0.1006  0.0300 -0.1711
   66bbb     H1 1887   4.110   7.810   5.626  1.1500 -0.0734  1.1795
   66bbb     H2 1888   3.989   7.939   5.604 -0.0462 -1.2874 -0.9978
   66bbb     C2 1889   4.162   8.119   5.772  0.2938  0.3681  0.1513
   66bbb     H3 1890   4.252   8.182   5.773 -0.2315  1.1457 -0.3551
   66bbb     H4 1891   4.149   8.082   5.874  0.5780 -0.8149 -0.2402
   66bbb     C3 1892   4.254   8.039   5.559 -0.4054  0.7572  0.5140
   66bbb     H5 1893   4.331   8.112   5.587  0.8542  0.1453 -1.2230
   66bbb     H6 1894   4.187   8.095   5.492 -1.1233 -0.7405 -0.0472
   66bbb     C4 1895   4.330   7.919   5.491  0.8223  0.5374 -0.1061
   66bbb     H7 1896   4.256   7.842   5.465  0.3119  0.1779  2.2439
   66bbb     H8 1897   4.395   7.865   5.561  0.5654  1.4484  0.8500
   66bbb     C5 1898   4.008   7.851   5.797 -0.3674 -0.0046  0.5167
   66bbb     H9 1899   3.947   7.937   5.829  0.9717  0.2689  2.3995
   66bbb    H10 1900   4.083   7.822   5.871  0.5957 -1.2906 -0.9395
   66bbb     C6 1901   4.045   8.206   5.731 -0.1468  0.9838  0.6133
   66bbb    H11 1902   3.950   8.152   5.739  0.7004 -0.4970  1.0060
   66bbb    H12 1903   4.049   8.217   5.622  0.0820 -0.1723  0.5014
   66bbb     C7 1904   4.409   7.962   5.367  0.5914  0.3658 -0.3551
   66bbb    H13 1905   4.332   8.008   5.303 -0.1597  0.4401  0.5775
   66bbb    H14 1906   4.455   7.874   5.322 -0.8789  0.3228 -1.8217
   66bbb     C8 1907   4.036   8.347   5.792  0.2361 -0.4329 -1.0333
   66bbb    H15 1908   3.952   8.393   5.739 -0.5503 -2.8913 -1.9465
   66bbb    H16 1909   4.129   8.401   5.765  1.1768 -0.4349  2.0559
   66bbb     C9 1910   3.897   7.735   5.778  0.1133  0.1981  0.1402
   66bbb    H17 1911   3.807   7.776   5.730  0.4673  1.0846  0.2157
   66bbb    H18 1912   3.842   7.724   5.872 -0.6386  1.8423 -0.0916
   66bbb     O1 1913   4.514   8.051   5.405 -0.1382  0.0606  0.0549
   67bbb     N1 1914   2.647   8.126   6.127 -0.1170 -0.1222  0.0437
   67bbb     C1 1915   2.674   8.041   6.246 -0.2272  0.1662 -0.4443
   67bbb     H1 1916   2.731   7.953   6.214  0.1380  0.2956 -0.1561
   67bbb     H2 1917   2.582   8.008   6.295  0.1114  1.8685  1.3717
   67bbb     C2 1918   2.776   8.157   6.051  0.2261 -0.1351  0.1508
   67bbb     H3 1919   2.822   8.062   6.022 -0.7359 -0.4142 -0.5004
   67bbb     H4 1920   2.845   8.199   6.126 -0.8099 -0.3616  1.2601
   67bbb     C3 1921   2.573   8.251   6.167  0.6173 -0.7925  0.0930
   67bbb     H5 1922   2.544   8.306   6.077  1.0796  0.2422  0.5620
   67bbb     H6 1923   2.633   8.323   6.225 -1.0429  1.1325 -0.5247
   67bbb     C4 1924   2.439   8.227   6.227 -0.0003  0.2490  0.1369
   67bbb     H7 1925   2.448   8.173   6.322  0.2028  0.3321  0.1654
   67bbb     H8 1926   2.384   8.161   6.158  1.2333  0.2035 -0.8200
   67bbb     C5 1927   2.761   8.106   6.352  0.0987  0.1740  0.0991
   67bbb     H9 1928   2.719   8.206   6.369 -0.5666 -0.3515  1.6598
   67bbb    H10 1929   2.865   8.115   6.320 -0.1338 -0.8337 -0.9576
   67bbb     C6 1930   2.749   8.235   5.924 -0.8481  0.3277 -0.8625
   67bbb    H11 1931   2.847   8.268   5.887 -0.9142 -0.4195 -1.7077
   67bbb    H12 1932   2.705   8.329   5.960  0.7870 -0.4191  3.3863
   67bbb     C7 1933   2.362   8.357   6.260  0.3023  0.4467 -0.2711
   67bbb    H13 1934   2.255   8.334   6.261  0.4373 -0.1647 -0.1859
   67bbb    H14 1935   2.377   8.429   6.178  2.5613  2.7477  2.0591
   67bbb     C8 1936   2.657   8.162   5.818 -0.2792 -0.3966 -0.0160
   67bbb    H15 1937   2.623   8.240   5.749 -0.7431  0.9217  1.6629
   67bbb    H16 1938   2.573   8.133   5.881 -1.0420 -2.6788 -2.0137
   67bbb     C9 1939   2.745   8.035   6.483 -0.1252  0.1910  0.8317
   67bbb    H17 1940   2.775   7.931   6.463 -1.5996  0.2126 -1.6102
   67bbb    H18 1941   2.640   8.033   6.512  0.3008  0.8214  2.4921
   67bbb     O1 1942   2.409   8.411   6.388  0.1986 -0.4130 -0.0743
   68bbb     N1 1943   2.590   8.497   7.447 -0.3738 -0.5295  0.4014
   68bbb     C1 1944   2.718   8.463   7.389 -0.5301  0.2156  0.0003
   68bbb     H1 1945   2.772   8.559   7.390 -0.8695  0.4086  0.9154
   68bbb     H2 1946   2.709   8.426   7.286  0.1227 -1.1866  0.4382
   68bbb     C2 1947   2.484   8.391   7.430  0.6473 -0.3200  0.3768
   68bbb     H3 1948   2.525   8.310   7.491  0.3925  0.0058  0.9851
   68bbb     H4 1949   2.492   8.360   7.325 -0.6060  0.4735  0.0336
   68bbb     C3 1950   2.538   8.632   7.397  0.4189 -0.0418  0.7441
   68bbb     H5 1951   2.608   8.715   7.412  1.7084 -0.8752 -0.5678
   68bbb     H6 1952   2.450   8.661   7.456 -0.8269 -0.5260 -0.8485
   68bbb     C4 1953   2.513   8.642   7.245  0.1934 -0.0910 -0.5303
   68bbb     H7 1954   2.441   8.573   7.198 -0.0302 -0.9881  1.0859
   68bbb     H8 1955   2.608   8.629   7.192  0.3429 -0.1112 -0.2591
   68bbb     C5 1956   2.794   8.347   7.459  0.5935 -0.3882 -0.1525
   68bbb     H9 1957   2.736   8.254   7.462  1.1070 -0.6566  2.2132
   68bbb    H10 1958   2.802   8.390   7.560 -1.2281  2.3235 -1.0938
   68bbb     C6 1959   2.338   8.425   7.489  0.3314  0.4791  0.8241
   68bbb    H11 1960   2.280   8.334   7.474 -1.2989  1.3683  1.5526
   68bbb    H12 1961   2.284   8.508   7.441 -0.4683 -1.0572 -1.0237
   68bbb     C7 1962   2.441   8.776   7.220  0.2727  0.0520  0.0112
   68bbb    H13 1963   2.491   8.857   7.273  0.2211 -0.3087  0.6142
   68bbb    H14 1964   2.339   8.770   7.261  0.6067  0.8355  0.9544
   68bbb     C8 1965   2.341   8.452   7.649  0.2982 -0.3809 -0.1631
   68bbb    H15 1966   2.417   8.526   7.677 -0.8490  0.3115  1.1728
   68bbb    H16 1967   2.377   8.360   7.695 -1.3035  0.2670  2.5163
   68bbb     C9 1968   2.937   8.322   7.409 -0.4013 -0.2361  0.6871
   68bbb    H17 1969   2.935   8.266   7.315  0.0541 -2.8827  2.2161
   68bbb    H18 1970   2.982   8.247   7.475  0.4842  1.0589  1.5888
   68bbb     O1 1971   2.435   8.807   7.080 -0.0947 -0.3566 -0.0815
   69bbb     N1 1972   4.007  10.104   7.091 -0.2840 -0.7150  0.0675
   69bbb     C1 1973   4.068  10.097   6.960  0.5647 -0.5015 -0.1368
   69bbb     H1 1974   4.029  10.175   6.893  0.5634  0.7864  1.3276
   69bbb     H2 1975   4.034  10.003   6.915 -0.0012  1.4448 -3.9481
   69bbb     C2 1976   4.003  10.231   7.163  0.3272 -0.6030 -0.1999
   69bbb     H3 1977   3.928  10.292   7.112 -1.3367 -2.0916  0.3938
   69bbb     H4 1978   4.096  10.288   7.166 -0.2561  0.4246 -1.0445
   69bbb     C3 1979   3.892  10.002   7.108 -0.7270 -0.0723  0.2600
   69bbb     H5 1980   3.863   9.987   7.212 -1.0387 -0.2424  0.1499
   69bbb     H6 1981   3.930   9.907   7.067 -2.6046 -0.2000 -1.3061
   69bbb     C4 1982   3.761  10.046   7.033 -0.2568  0.1014 -0.5097
   69bbb     H7 1983   3.741  10.148   7.068  2.3941  0.9573 -1.4354
   69bbb     H8 1984   3.678   9.988   7.076  0.0615  1.5779  2.1906
   69bbb     C5 1985   4.224  10.114   6.964  0.3869  0.2542 -0.3045
   69bbb     H9 1986   4.256  10.068   6.870  0.7992 -1.7599  0.8054
   69bbb    H10 1987   4.270  10.051   7.041 -1.4953  0.3461  0.9381
   69bbb     C6 1988   3.961  10.221   7.310 -0.3457 -0.6173  0.3232
   69bbb    H11 1989   4.020  10.161   7.380 -0.2037 -1.8821 -0.8754
   69bbb    H12 1990   3.866  10.168   7.321  0.0573 -1.1519  1.3569
   69bbb     C7 1991   3.759  10.028   6.882  0.7282  0.5829  0.1362
   69bbb    H13 1992   3.783   9.924   6.856  1.5410  0.8892 -0.3612
   69bbb    H14 1993   3.829  10.094   6.829 -0.5453  0.8347 -1.2581
   69bbb     C8 1994   3.944  10.363   7.365 -0.1096 -0.6146 -0.0300
   69bbb    H15 1995   3.897  10.348   7.462 -3.3254  2.4557 -1.0118
   69bbb    H16 1996   3.873  10.418   7.302  0.3431 -0.0158 -0.0235
   69bbb     C9 1997   4.288  10.258   6.977  0.2143  0.8887 -0.7664
   69bbb    H17 1998   4.320  10.264   7.081  0.5607 -2.0129 -0.6569
   69bbb    H18 1999   4.210  10.332   6.953  0.1562  1.7442  1.9365
   69bbb     O1 2000   3.626  10.051   6.845 -0.1162 -0.1159 -0.2960
   70bbb     N1 2001   3.720   9.601   5.873  0.3081  0.2034  0.5515
   70bbb     C1 2002   3.610   9.521   5.814 -0.4115 -0.1666  0.3143
   70bbb     H1 2003   3.521   9.586   5.816 -1.5866 -1.6522 -1.6248
   70bbb     H2 2004   3.580   9.427   5.862 -2.6305  0.7229  0.7727
   70bbb     C2 2005   3.855   9.552   5.857  0.0708  0.0115 -0.3775
   70bbb     H3 2006   3.926   9.630   5.889 -0.7756  0.4051  0.5601
   70bbb     H4 2007   3.882   9.542   5.751  0.1169  0.6833 -0.4326
   70bbb     C3 2008   3.688   9.640   6.017 -1.0200  0.0826 -0.0412
   70bbb     H5 2009   3.670   9.555   6.083  0.3452 -0.7994 -0.7872
   70bbb     H6 2010   3.591   9.691   6.023 -0.9270  0.1943  0.5504
   70bbb     C4 2011   3.789   9.750   6.075 -0.4472 -0.3185  0.0663
   70bbb     H7 2012   3.786   9.838   6.009 -0.5128  0.1929  0.7488
   70bbb     H8 2013   3.895   9.721   6.080  0.1557  1.7181 -0.3547
   70bbb     C5 2014   3.634   9.471   5.668  0.5188 -0.5048 -0.0774
   70bbb     H9 2015   3.702   9.385   5.668 -1.0620 -1.7947 -1.6202
   70bbb    H10 2016   3.692   9.553   5.624  1.6494  0.4853  3.0953
   70bbb     C6 2017   3.873   9.414   5.929  0.4389  0.3864 -0.6970
   70bbb    H11 2018   3.793   9.341   5.906 -1.7258  1.9612  1.5444
   70bbb    H12 2019   3.861   9.428   6.037  0.1390 -0.3298 -0.6298
   70bbb     C7 2020   3.736   9.796   6.212  0.3366 -0.4679  0.1090
   70bbb    H13 2021   3.810   9.857   6.265  0.9201 -0.9199 -0.1799
   70bbb    H14 2022   3.731   9.703   6.269  0.9015  0.1836  1.2474
   70bbb     C8 2023   4.006   9.345   5.903  0.2295 -0.6390  0.4396
   70bbb    H15 2024   4.013   9.331   5.794  0.3156 -1.9314  0.5942
   70bbb    H16 2025   4.002   9.247   5.953 -1.5384 -0.6607  0.3038
   70bbb     C9 2026   3.505   9.430   5.586  0.4178  0.7241  0.0285
   70bbb    H17 2027   3.458   9.338   5.623  0.1581  0.2649 -1.4034
   70bbb    H18 2028   3.539   9.392   5.489  1.4563  0.1174  0.6166
   70bbb     O1 2029   3.607   9.863   6.203  0.1445  0.3307  0.5490
   71bbb     N1 2030   5.728   6.625   7.507 -0.4889 -0.8276 -0.6920
   71bbb     C1 2031   5.668   6.513   7.581  0.2356  0.3594 -0.7588
   71bbb     H1 2032   5.565   6.539   7.611  0.6461 -0.9439  1.9282
   71bbb     H2 2033   5.725   6.498   7.673 -0.3788  0.9474 -0.2724
   71bbb     C2 2034   5.670   6.750   7.545  0.4062 -0.1114  0.4378
   71bbb     H3 2035   5.734   6.832   7.509  0.5176 -0.8275 -1.0356
   71bbb     H4 2036   5.659   6.757   7.654  1.7370  0.2523  0.5635
   71bbb     C3 2037   5.873   6.608   7.517  0.0451  0.5412  0.3648
   71bbb     H5 2038   5.902   6.506   7.489  0.2300  0.1287  2.0512
   71bbb     H6 2039   5.912   6.618   7.619  0.4270 -1.4243  0.4219
   71bbb     C4 2040   5.956   6.711   7.427  0.8256  0.3760 -1.1095
   71bbb     H7 2041   6.063   6.689   7.439  0.7149 -0.0356 -0.8516
   71bbb     H8 2042   5.956   6.815   7.463 -1.3887 -0.2576  0.8169
   71bbb     C5 2043   5.668   6.369   7.512  0.0265  0.3611 -0.1955
   71bbb     H9 2044   5.627   6.298   7.584  0.9010 -0.1836 -0.2260
   71bbb    H10 2045   5.771   6.340   7.486 -0.4694 -1.5568 -0.0601
   71bbb     C6 2046   5.532   6.778   7.482  0.0072 -0.1684 -0.2712
   71bbb    H11 2047   5.464   6.695   7.505 -1.1340  0.4162 -1.5089
   71bbb    H12 2048   5.539   6.777   7.373  1.8455  1.7306 -0.1950
   71bbb     C7 2049   5.919   6.705   7.276  0.3895  0.1623  0.6203
   71bbb    H13 2050   5.888   6.608   7.237 -1.4314  0.8906  0.2030
   71bbb    H14 2051   6.015   6.728   7.228  0.4597 -0.1280  0.6214
   71bbb     C8 2052   5.471   6.912   7.525  0.9923 -0.2693  0.3319
   71bbb    H15 2053   5.519   6.983   7.456 -1.2136 -1.1168 -2.1620
   71bbb    H16 2054   5.496   6.938   7.628 -0.9406 -0.8454  0.9626
   71bbb     C9 2055   5.592   6.370   7.375  0.3714 -0.1282  0.0864
   71bbb    H17 2056   5.660   6.428   7.311 -0.6948 -0.0872 -1.0213
   71bbb    H18 2057   5.495   6.418   7.392  0.6811  0.0246  1.5049
   71bbb     O1 2058   5.831   6.814   7.246 -0.6497  0.2362 -0.3330
   72bbb     N1 2059   6.055   7.403   6.903 -0.0918  0.0861 -0.0525
   72bbb     C1 2060   6.094   7.547   6.890 -0.0273  0.3181  0.0035
   72bbb     H1 2061   6.166   7.552   6.807 -1.2342  2.3844 -0.9470
   72bbb     H2 2062   6.145   7.595   6.975 -0.4988  2.1976 -0.7481
   72bbb     C2 2063   6.166   7.324   6.959 -0.7189  0.1691 -0.1445
   72bbb     H3 2064   6.156   7.217   6.933  0.5402 -0.4621  1.8582
   72bbb     H4 2065   6.146   7.323   7.067 -2.1270 -1.6403 -0.3834
   72bbb     C3 2066   5.922   7.378   6.968  0.4346 -0.3029 -0.2495
   72bbb     H5 2067   5.900   7.270   6.967  0.6339 -0.3445 -0.0463
   72bbb     H6 2068   5.842   7.423   6.907 -0.6085  0.2659  1.5201
   72bbb     C4 2069   5.907   7.435   7.113  0.0136 -0.3416  0.2495
   72bbb     H7 2070   5.977   7.514   7.141 -0.3664 -0.2202  0.8595
   72bbb     H8 2071   5.931   7.349   7.176 -0.0522  1.4442  2.7563
   72bbb     C5 2072   5.983   7.647   6.852  0.6246 -0.1795 -0.5176
   72bbb     H9 2073   5.909   7.633   6.932 -0.7678  2.4435 -1.2894
   72bbb    H10 2074   5.946   7.619   6.752 -0.6093  1.6114 -0.5835
   72bbb     C6 2075   6.314   7.351   6.912  0.0781  0.5453  0.7446
   72bbb    H11 2076   6.348   7.452   6.937 -3.6279  1.5198  2.1487
   72bbb    H12 2077   6.323   7.341   6.803 -0.4645  2.3098  0.5245
   72bbb     C7 2078   5.763   7.474   7.133 -0.0699  0.1018 -0.2147
   72bbb    H13 2079   5.733   7.548   7.058  1.2883  1.4884  0.5738
   72bbb    H14 2080   5.748   7.518   7.232  0.9537 -1.1945  0.5291
   72bbb     C8 2081   6.422   7.271   6.991 -0.2672 -0.1645  0.2988
   72bbb    H15 2082   6.393   7.167   7.009  1.3810 -0.5878  0.5828
   72bbb    H16 2083   6.424   7.314   7.092 -2.2353 -0.8781  0.6700
   72bbb     C9 2084   6.027   7.793   6.857  0.5680  0.5613 -0.0920
   72bbb    H17 2085   6.126   7.802   6.810  0.1175  2.4670 -0.7212
   72bbb    H18 2086   6.038   7.816   6.964  0.2631  0.7281 -0.0952
   72bbb     O1 2087   5.688   7.346   7.137  0.2192 -0.0383  0.4455
   73bbb     N1 2088   3.692   6.798   6.982  0.0716  0.0028 -0.1077
   73bbb     C1 2089   3.681   6.769   7.129 -0.6437 -0.0191 -0.1683
   73bbb     H1 2090   3.729   6.676   7.162 -2.0729  0.1202  2.4793
   73bbb     H2 2091   3.577   6.755   7.161 -1.2983  2.2757 -1.1834
   73bbb     C2 2092   3.592   6.723   6.912  0.2520  0.9492  0.3892
   73bbb     H3 2093   3.606   6.614   6.908  0.3040  0.8409  2.8206
   73bbb     H4 2094   3.597   6.755   6.807 -1.8654 -1.7551 -0.5921
   73bbb     C3 2095   3.826   6.778   6.929  0.1551 -0.4449  0.3463
   73bbb     H5 2096   3.852   6.671   6.929  0.1930 -0.4527  2.6993
   73bbb     H6 2097   3.894   6.822   7.003 -0.2074  1.0564 -0.2077
   73bbb     C4 2098   3.844   6.863   6.801  0.3274  0.5680 -0.6809
   73bbb     H7 2099   3.790   6.957   6.822  1.0012  0.4546  1.7122
   73bbb     H8 2100   3.787   6.807   6.725 -0.3584  2.9524 -1.9641
   73bbb     C5 2101   3.730   6.893   7.214 -0.6561 -0.2227  0.6118
   73bbb     H9 2102   3.649   6.967   7.202  2.2184  2.8686 -0.7984
   73bbb    H10 2103   3.813   6.936   7.157 -1.7594 -0.6568 -1.3651
   73bbb     C6 2104   3.440   6.750   6.953  0.1876 -0.2049  0.6633
   73bbb    H11 2105   3.422   6.695   7.046  0.0909  0.1320  0.8453
   73bbb    H12 2106   3.381   6.703   6.873 -1.7701 -0.1681  2.0590
   73bbb     C7 2107   3.990   6.880   6.768  0.9031  0.3737 -0.4258
   73bbb    H13 2108   4.051   6.789   6.774 -0.1013 -0.3620 -1.1575
   73bbb    H14 2109   4.023   6.951   6.846 -1.0820  0.9275 -0.0556
   73bbb     C8 2110   3.395   6.904   6.969 -0.0974  0.3988 -0.1003
   73bbb    H15 2111   3.451   6.959   6.892 -1.1790 -0.2969 -1.3981
   73bbb    H16 2112   3.444   6.941   7.060  1.9913 -1.5881 -0.3668
   73bbb     C9 2113   3.771   6.861   7.363 -0.0080 -0.2118 -0.1921
   73bbb    H17 2114   3.838   6.774   7.368 -0.8158 -0.8155  0.2306
   73bbb    H18 2115   3.687   6.824   7.423 -1.2212  0.2213 -1.5775
   73bbb     O1 2116   4.001   6.924   6.629 -0.2035 -0.3305 -0.4625
   74bbb     N1 2117   4.293   7.974   6.236  0.0733  0.2816 -0.1197
   74bbb     C1 2118   4.320   8.118   6.196  0.1416 -0.5605 -0.3176
   74bbb     H1 2119   4.377   8.167   6.277 -0.7214  0.1194 -0.1060
   74bbb     H2 2120   4.225   8.173   6.186  0.1644 -0.9082 -2.6127
   74bbb     C2 2121   4.410   7.891   6.254 -0.2388 -1.0014 -0.3614
   74bbb     H3 2122   4.456   7.876   6.155  0.5623  1.8740 -0.4871
   74bbb     H4 2123   4.379   7.793   6.291 -2.0928 -0.6991 -1.0663
   74bbb     C3 2124   4.178   7.906   6.169  0.1552 -0.5960  0.5660
   74bbb     H5 2125   4.215   7.873   6.071  0.3936 -1.9832  1.1047
   74bbb     H6 2126   4.104   7.981   6.141 -1.6743 -2.1017  1.2310
   74bbb     C4 2127   4.113   7.778   6.242  0.0974 -0.6649  0.2268
   74bbb     H7 2128   4.039   7.810   6.316  0.9068 -0.7883  1.1009
   74bbb     H8 2129   4.185   7.721   6.302 -0.6240 -0.3978  1.3517
   74bbb     C5 2130   4.395   8.136   6.060 -0.0075  0.1991 -0.3924
   74bbb     H9 2131   4.340   8.084   5.980 -1.6908 -0.1860  0.9830
   74bbb    H10 2132   4.495   8.091   6.070  0.5126  1.4507  0.0659
   74bbb     C6 2133   4.531   7.940   6.337  0.6533 -0.4939  0.2865
   74bbb    H11 2134   4.575   8.029   6.291 -1.4498  0.2641 -0.3584
   74bbb    H12 2135   4.605   7.860   6.335  0.3644 -0.7800  0.8948
   74bbb     C7 2136   4.038   7.691   6.139  0.3786  0.4509  0.2364
   74bbb    H13 2137   4.110   7.644   6.071 -0.7801 -0.4913 -0.3699
   74bbb    H14 2138   3.962   7.753   6.089 -0.2669 -1.4596 -1.2083
   74bbb     C8 2139   4.482   7.971   6.476  0.2758  0.2018  0.1497
   74bbb    H15 2140   4.405   7.899   6.504  0.0875  0.5958  0.6485
   74bbb    H16 2141   4.439   8.072   6.479 -0.9132 -0.2546 -0.9722
   74bbb     C9 2142   4.399   8.278   6.010 -0.1140 -0.8174  0.2125
   74bbb    H17 2143   4.302   8.328   6.001  0.4828  1.1489  3.7644
   74bbb    H18 2144   4.441   8.267   5.909 -1.2307 -2.2770 -0.0994
   74bbb     O1 2145   3.976   7.595   6.225  0.3255 -0.2516  0.7635
   75bbb     N1 2146   5.139   8.437   7.988  0.3477 -0.2429  0.5208
   75bbb     C1 2147   5.210   8.359   8.092  0.2431  0.1011 -0.0368
   75bbb     H1 2148   5.160   8.363   8.189 -2.3060  1.3022 -1.3711
   75bbb     H2 2149   5.310   8.401   8.111  0.4805 -0.5226  0.1358
   75bbb     C2 2150   5.115   8.574   8.031 -0.5014 -0.2512 -0.3989
   75bbb     H3 2151   5.082   8.632   7.944  0.3212  1.7566  0.5801
   75bbb     H4 2152   5.207   8.618   8.072 -0.8046  0.7027 -0.7267
   75bbb     C3 2153   5.200   8.412   7.856  0.0803  1.2111 -0.2454
   75bbb     H5 2154   5.189   8.305   7.832 -1.3483  1.4565 -0.7836
   75bbb     H6 2155   5.307   8.429   7.866  0.3652 -2.1926  3.9528
   75bbb     C4 2156   5.137   8.492   7.737 -0.3497  0.2908 -0.2857
   75bbb     H7 2157   5.188   8.468   7.643 -0.2214  0.1730 -0.1874
   75bbb     H8 2158   5.160   8.598   7.752  0.4957 -0.4208  4.1116
   75bbb     C5 2159   5.220   8.213   8.062 -0.5300 -0.8479  0.6095
   75bbb     H9 2160   5.299   8.203   7.986  0.3367 -0.7029  1.4796
   75bbb    H10 2161   5.125   8.177   8.020  0.0892 -0.7302 -0.9252
   75bbb     C6 2162   4.999   8.574   8.135 -0.3581 -0.3177 -0.0008
   75bbb    H11 2163   5.012   8.662   8.201  0.2601  1.0647 -1.9155
   75bbb    H12 2164   5.010   8.487   8.201 -0.3047 -0.6725 -0.4760
   75bbb     C7 2165   4.983   8.473   7.720 -0.1142 -0.9140  0.1637
   75bbb    H13 2166   4.949   8.513   7.624 -0.6385  1.0865  1.1527
   75bbb    H14 2167   4.940   8.519   7.810  0.8529 -1.7296  1.0584
   75bbb     C8 2168   4.858   8.566   8.068 -0.3229 -0.1666  0.0381
   75bbb    H15 2169   4.854   8.475   8.006 -1.6323 -1.5942  2.1629
   75bbb    H16 2170   4.847   8.646   7.993 -1.5935 -0.0341  0.3569
   75bbb     C9 2171   5.265   8.126   8.182  0.2003 -0.1351 -0.1529
   75bbb    H17 2172   5.247   8.021   8.158  1.1261 -0.4882  0.6670
   75bbb    H18 2173   5.198   8.157   8.263 -0.4540 -1.5615 -0.1441
   75bbb     O1 2174   4.950   8.335   7.730  0.1707 -0.5233 -0.3985
   76bbb     N1 2175   5.315   7.768   8.717  0.4355  0.6442  0.3810
   76bbb     C1 2176   5.342   7.673   8.829  0.3960  1.1471 -0.5365
   76bbb     H1 2177   5.289   7.704   8.919  0.3483 -0.5864  0.0416
   76bbb     H2 2178   5.445   7.673   8.867 -0.3208 -1.8575  1.6152
   76bbb     C2 2179   5.407   7.879   8.697 -0.8683 -0.0048 -0.1015
   76bbb     H3 2180   5.424   7.938   8.788 -0.4634  2.1411 -1.5114
   76bbb     H4 2181   5.356   7.944   8.625  0.0552 -0.1310 -0.8754
   76bbb     C3 2182   5.171   7.795   8.702 -0.4608 -0.0599 -0.4917
   76bbb     H5 2183   5.134   7.876   8.766  0.5477 -0.3741  0.4997
   76bbb     H6 2184   5.120   7.710   8.749  0.1067  0.3671  0.9126
   76bbb     C4 2185   5.121   7.822   8.557  0.1711  0.1336  0.0247
   76bbb     H7 2186   5.164   7.754   8.482  0.6856 -0.5965  0.9819
   76bbb     H8 2187   5.140   7.926   8.527 -0.2974 -0.0157 -0.8040
   76bbb     C5 2188   5.322   7.520   8.809 -0.9209 -0.4884  0.4538
   76bbb     H9 2189   5.214   7.504   8.809 -1.0258 -0.0181  3.6859
   76bbb    H10 2190   5.362   7.464   8.894  1.5206  0.5180  0.0046
   76bbb     C6 2191   5.552   7.851   8.647 -0.7255  0.2296  0.8073
   76bbb    H11 2192   5.601   7.799   8.731 -1.6173 -1.1526  0.4905
   76bbb    H12 2193   5.599   7.943   8.610  0.5014 -1.2948 -1.5163
   76bbb     C7 2194   4.972   7.805   8.562  0.3223 -0.3632 -0.4366
   76bbb    H13 2195   4.932   7.889   8.621  0.8666 -0.9293  0.7447
   76bbb    H14 2196   4.932   7.714   8.609  0.6668  0.0356  0.6488
   76bbb     C8 2197   5.556   7.754   8.525  0.0999  0.6452 -0.2230
   76bbb    H15 2198   5.459   7.755   8.472  0.1730 -0.3039 -0.3903
   76bbb    H16 2199   5.563   7.652   8.565  2.4912  0.6527 -0.6053
   76bbb     C9 2200   5.371   7.468   8.665 -0.3978 -0.4456 -1.2363
   76bbb    H17 2201   5.479   7.474   8.647 -0.3697  0.3337 -0.8483
   76bbb    H18 2202   5.312   7.527   8.593 -3.6084 -0.3240  1.3413
   76bbb     O1 2203   4.909   7.810   8.436 -0.2260 -0.1078 -0.3834
   77bbb     N1 2204   4.287   8.203   7.899 -0.0161 -0.8102 -0.0818
   77bbb     C1 2205   4.380   8.187   8.013  0.0717 -0.0669  0.1565
   77bbb     H1 2206   4.400   8.284   8.061  1.0386 -0.9280  1.5421
   77bbb     H2 2207   4.479   8.154   7.978 -0.2839 -0.3156 -0.6099
   77bbb     C2 2208   4.161   8.278   7.934  0.1187  0.0374 -0.7957
   77bbb     H3 2209   4.175   8.375   7.984  0.1822  1.3848 -3.3576
   77bbb     H4 2210   4.103   8.213   8.001  0.1894 -0.5361 -1.2799
   77bbb     C3 2211   4.251   8.074   7.832 -0.0815 -0.1117 -0.1143
   77bbb     H5 2212   4.201   8.099   7.737 -0.4135  0.1140  0.1176
   77bbb     H6 2213   4.188   8.013   7.898  0.5816 -0.8366 -0.1554
   77bbb     C4 2214   4.375   7.992   7.791 -0.0780 -0.1405  0.1193
   77bbb     H7 2215   4.442   7.976   7.876 -0.2936 -0.7872  0.1707
   77bbb     H8 2216   4.434   8.047   7.717 -0.4770 -0.4434 -0.4297
   77bbb     C5 2217   4.341   8.092   8.136  0.3508 -0.1709  0.2578
   77bbb     H9 2218   4.274   8.008   8.109 -0.9477  1.3331 -1.3170
   77bbb    H10 2219   4.283   8.160   8.199 -2.1326 -1.2244 -0.7961
   77bbb     C6 2220   4.074   8.315   7.808 -0.7096 -0.0930  0.1184
   77bbb    H11 2221   3.995   8.381   7.848 -0.8518  1.3196 -2.4351
   77bbb    H12 2222   4.023   8.233   7.756 -0.4155 -0.1345 -0.0998
   77bbb     C7 2223   4.329   7.861   7.729 -0.1796  0.3277  0.5873
   77bbb    H13 2224   4.257   7.815   7.798  0.2979  0.7145  1.3494
   77bbb    H14 2225   4.409   7.790   7.706 -0.8034  0.0324 -0.7382
   77bbb     C8 2226   4.156   8.399   7.709 -0.5845 -0.1266  0.8815
   77bbb    H15 2227   4.233   8.333   7.668  0.0502  1.7200 -0.9454
   77bbb    H16 2228   4.218   8.472   7.763  1.0394 -1.6975  1.1701
   77bbb     C9 2229   4.460   8.040   8.220  0.3348 -0.0971  0.1241
   77bbb    H17 2230   4.532   8.110   8.265  0.0719 -0.2220  0.7424
   77bbb    H18 2231   4.522   7.975   8.158  2.4498  0.6093  1.4465
   77bbb     O1 2232   4.268   7.888   7.603 -0.0344 -0.2178  0.3097
   78bbb     N1 2233   3.106   7.308   7.717  0.3297  0.2195  0.2876
   78bbb     C1 2234   3.076   7.312   7.866 -0.0198  0.1423  0.0843
   78bbb     H1 2235   2.978   7.359   7.883  0.0967  0.5089 -0.2461
   78bbb     H2 2236   3.151   7.365   7.925 -0.4738  0.8460  0.0250
   78bbb     C2 2237   3.012   7.235   7.634 -0.8205  0.1949 -0.4900
   78bbb     H3 2238   3.008   7.135   7.680  1.5535  1.2728  2.1965
   78bbb     H4 2239   3.061   7.233   7.536  0.5548 -0.6045  0.1968
   78bbb     C3 2240   3.153   7.441   7.663 -0.1505  0.8301  0.7987
   78bbb     H5 2241   3.210   7.495   7.740 -0.9657  1.0213  1.2782
   78bbb     H6 2242   3.066   7.504   7.642  1.0282  1.6625 -1.7140
   78bbb     C4 2243   3.243   7.426   7.538 -0.6249 -0.5829  0.0863
   78bbb     H7 2244   3.177   7.382   7.463 -0.7851  2.8652 -1.8898
   78bbb     H8 2245   3.325   7.360   7.568  0.7410  0.5373 -1.1051
   78bbb     C5 2246   3.078   7.172   7.919  0.3411  0.1302 -0.2488
   78bbb     H9 2247   3.173   7.140   7.875 -0.6422 -2.0465 -0.9052
   78bbb    H10 2248   2.993   7.114   7.880  1.5167 -1.0927 -1.0393
   78bbb     C6 2249   2.872   7.306   7.625 -0.0886 -0.0045 -0.1694
   78bbb    H11 2250   2.886   7.410   7.595  0.7985  0.1182  0.6778
   78bbb    H12 2251   2.841   7.309   7.730 -0.8574 -1.6750 -0.3345
   78bbb     C7 2252   3.303   7.559   7.479  0.3795 -0.0661  0.0702
   78bbb    H13 2253   3.228   7.637   7.460 -0.6506 -0.7239  1.4118
   78bbb    H14 2254   3.339   7.538   7.377 -0.2661 -1.4366  0.1200
   78bbb     C8 2255   2.766   7.232   7.537 -0.8022 -0.1156 -0.0579
   78bbb    H15 2256   2.789   7.249   7.431  1.0437 -0.8365  0.2043
   78bbb    H16 2257   2.669   7.279   7.554 -0.5558  0.8867 -1.3459
   78bbb     C9 2258   3.077   7.155   8.076 -0.1304 -0.2526  0.4543
   78bbb    H17 2259   2.998   7.209   8.129  1.2967  2.4531 -0.0906
   78bbb    H18 2260   3.169   7.200   8.114 -0.6800 -0.1056  1.6277
   78bbb     O1 2261   3.410   7.609   7.567  0.2072  0.0850  0.0280
   79bbb     N1 2262   5.109   8.001   4.996 -0.8586  0.6282 -0.2007
   79bbb     C1 2263   5.093   7.900   5.107  0.6475  0.0146  0.2915
   79bbb     H1 2264   5.051   7.805   5.072 -0.4221  0.6856 -0.2877
   79bbb     H2 2265   5.037   7.947   5.190 -1.8822 -1.0224 -0.7650
   79bbb     C2 2266   5.094   7.937   4.865  0.9197 -0.2848 -0.3127
   79bbb     H3 2267   4.990   7.911   4.842 -0.1854  1.8406  1.9925
   79bbb     H4 2268   5.150   7.843   4.874  3.5420  1.2464 -0.1446
   79bbb     C3 2269   5.050   8.137   5.015  0.2030 -0.4790 -0.3461
   79bbb     H5 2270   5.088   8.203   4.936  2.2065 -1.1943  0.0061
   79bbb     H6 2271   5.100   8.182   5.101 -0.3822 -1.4706  0.5242
   79bbb     C4 2272   4.901   8.151   5.031 -0.2771  0.2275  0.4420
   79bbb     H7 2273   4.867   8.068   5.095  0.2435 -0.9685 -0.8173
   79bbb     H8 2274   4.843   8.140   4.939 -0.1429  2.1082  0.1204
   79bbb     C5 2275   5.234   7.852   5.148  0.4596 -0.1284  0.0946
   79bbb     H9 2276   5.292   7.820   5.061 -2.1636  1.2220 -2.2293
   79bbb    H10 2277   5.222   7.769   5.219  0.9226 -1.3557 -1.2431
   79bbb     C6 2278   5.167   8.006   4.750  0.7085 -0.2370  1.1733
   79bbb    H11 2279   5.119   8.101   4.726  0.1683 -0.6546  0.5694
   79bbb    H12 2280   5.163   7.945   4.659  1.4685  0.9725  0.3096
   79bbb     C7 2281   4.846   8.287   5.086 -0.6530 -0.0564 -0.9150
   79bbb    H13 2282   4.740   8.269   5.109 -0.3260 -1.3481 -0.3633
   79bbb    H14 2283   4.857   8.374   5.019 -0.6729 -0.4167 -1.3884
   79bbb     C8 2284   5.313   8.025   4.795 -0.6308  0.0648 -0.5675
   79bbb    H15 2285   5.343   7.950   4.869 -1.2175  0.5928  0.2142
   79bbb    H16 2286   5.318   8.116   4.856  0.4982 -0.1908 -0.2693
   79bbb     C9 2287   5.326   7.962   5.219 -0.1453  0.0777  0.1838
   79bbb    H17 2288   5.270   8.001   5.305 -0.2314 -1.0168  0.6359
   79bbb    H18 2289   5.339   8.038   5.142  1.4935  1.1941  1.5185
   79bbb     O1 2290   4.914   8.313   5.215  0.0326 -0.1566 -0.1499
   80bbb     N1 2291   5.224   7.534   5.820 -0.3636  0.3420  0.4055
   80bbb     C1 2292   5.212   7.387   5.884 -0.2458 -0.1614  0.2150
   80bbb     H1 2293   5.298   7.365   5.948  0.6724 -1.9584 -1.5581
   80bbb     H2 2294   5.215   7.323   5.795  1.4193 -0.7880  0.7160
   80bbb     C2 2295   5.345   7.547   5.733  0.0318  0.0692 -0.1946
   80bbb     H3 2296   5.431   7.509   5.790  0.7468 -0.8243 -1.8431
   80bbb     H4 2297   5.367   7.648   5.697  0.8933  0.2831  0.9040
   80bbb     C3 2298   5.205   7.639   5.921 -0.1701  0.4307  0.8191
   80bbb     H5 2299   5.270   7.618   6.007 -1.5438 -0.0129  1.7802
   80bbb     H6 2300   5.107   7.634   5.971 -1.4486  1.4558 -1.5079
   80bbb     C4 2301   5.228   7.786   5.866  0.0641  0.1603 -0.2293
   80bbb     H7 2302   5.331   7.793   5.829  0.2275  1.3812  0.4455
   80bbb     H8 2303   5.220   7.859   5.947 -2.7320 -0.7993  0.4288
   80bbb     C5 2304   5.076   7.361   5.959  0.5509  0.0965  0.2270
   80bbb     H9 2305   5.001   7.400   5.890  1.6477  1.2828 -0.3151
   80bbb    H10 2306   5.057   7.423   6.048 -0.3070 -3.3578  2.5644
   80bbb     C6 2307   5.341   7.460   5.605  0.2776 -0.6583  0.0042
   80bbb    H11 2308   5.331   7.353   5.626  0.0834 -1.0080 -1.7604
   80bbb    H12 2309   5.436   7.463   5.549 -1.2444  0.5241 -2.6434
   80bbb     C7 2310   5.134   7.830   5.757  0.3184 -0.2858 -0.3154
   80bbb    H13 2311   5.036   7.839   5.804  0.8559 -1.0990  0.9942
   80bbb    H14 2312   5.132   7.766   5.669 -0.8989 -0.7532  0.0495
   80bbb     C8 2313   5.228   7.510   5.511 -0.0664 -0.6302 -0.3125
   80bbb    H15 2314   5.239   7.616   5.486  0.5402 -0.3808  0.9933
   80bbb    H16 2315   5.141   7.514   5.577  0.1172  0.0608 -0.1101
   80bbb     C9 2316   5.043   7.213   6.001 -0.8282  0.1577  0.2800
   80bbb    H17 2317   5.127   7.161   6.048  0.4350  0.6043 -1.4293
   80bbb    H18 2318   5.025   7.159   5.907 -1.4072 -0.4801  0.7552
   80bbb     O1 2319   5.175   7.961   5.712  0.1919 -0.1139 -0.3470
   81bbb     N1 2320   6.583   8.326   7.203  0.3262  0.1320 -0.4341
   81bbb     C1 2321   6.574   8.196   7.124  0.4010 -0.0719  0.3723
   81bbb     H1 2322   6.473   8.161   7.147  0.4482  0.6379  1.7343
   81bbb     H2 2323   6.651   8.126   7.159  1.4771  0.3024 -1.1584
   81bbb     C2 2324   6.717   8.376   7.213  0.0770  0.2652 -0.3425
   81bbb     H3 2325   6.748   8.412   7.114  0.6017  0.3587 -0.1483
   81bbb     H4 2326   6.788   8.295   7.233 -1.5608 -1.1403 -0.0962
   81bbb     C3 2327   6.478   8.428   7.169  0.0702 -0.7423 -0.3702
   81bbb     H5 2328   6.503   8.479   7.075 -1.1031  1.9814  0.7303
   81bbb     H6 2329   6.482   8.503   7.249  2.2684  0.6550 -1.7146
   81bbb     C4 2330   6.328   8.378   7.169 -0.6177 -0.0379  0.3768
   81bbb     H7 2331   6.311   8.325   7.263 -0.7983 -0.2487  0.2248
   81bbb     H8 2332   6.310   8.308   7.086 -0.2310  0.2787  0.0229
   81bbb     C5 2333   6.575   8.215   6.977 -0.1660  0.3694  0.8565
   81bbb     H9 2334   6.676   8.252   6.955  0.8601 -1.3176  2.5256
   81bbb    H10 2335   6.507   8.294   6.945  0.6025  0.6857 -0.0332
   81bbb     C6 2336   6.734   8.489   7.319 -0.2684  0.5976 -1.2663
   81bbb    H11 2337   6.673   8.476   7.409  1.1192  0.0030 -0.3902
   81bbb    H12 2338   6.703   8.583   7.270 -0.4174  1.3360  0.2299
   81bbb     C7 2339   6.226   8.495   7.170 -0.2222 -0.2959  1.0277
   81bbb    H13 2340   6.243   8.556   7.260 -0.8089 -0.3136  1.1492
   81bbb    H14 2341   6.127   8.447   7.170 -0.8109  0.7980 -2.0474
   81bbb     C8 2342   6.887   8.509   7.354 -0.5342 -0.5626 -0.0103
   81bbb    H15 2343   6.943   8.523   7.261  1.2395 -2.5916  0.7114
   81bbb    H16 2344   6.931   8.419   7.399  1.6525  0.5215  0.0851
   81bbb     C9 2345   6.548   8.092   6.897  0.0722 -0.1168  0.2111
   81bbb    H17 2346   6.626   8.020   6.922  0.2308 -0.7368 -1.9100
   81bbb    H18 2347   6.557   8.108   6.789 -0.3075 -1.8758 -0.1097
   81bbb     O1 2348   6.252   8.566   7.045 -0.5194  0.3385 -0.0695
   82bbb     N1 2349   6.775   8.051   6.407 -0.6328  0.3218 -0.6966
   82bbb     C1 2350   6.843   8.179   6.363  0.3125 -0.4249 -0.4196
   82bbb     H1 2351   6.851   8.248   6.448 -2.9014  1.2734 -1.4107
   82bbb     H2 2352   6.781   8.228   6.286  0.2239 -1.4245 -0.9847
   82bbb     C2 2353   6.756   8.056   6.555  0.5756  0.4676 -0.2159
   82bbb     H3 2354   6.692   7.970   6.578 -2.8608  2.6114 -1.4269
   82bbb     H4 2355   6.708   8.149   6.586  1.0086  1.3844 -2.1705
   82bbb     C3 2356   6.657   8.010   6.330 -0.3597 -0.2484 -0.0939
   82bbb     H5 2357   6.633   7.908   6.364  0.1178 -0.9889 -1.9309
   82bbb     H6 2358   6.691   8.012   6.226  0.9332  2.3131  0.3462
   82bbb     C4 2359   6.538   8.103   6.342 -0.5372  0.4007  0.3876
   82bbb     H7 2360   6.491   8.094   6.243  0.5639 -0.4111 -0.0687
   82bbb     H8 2361   6.562   8.209   6.352 -0.7900  0.4240  0.7862
   82bbb     C5 2362   6.981   8.152   6.303 -0.1678 -0.1387  0.3884
   82bbb     H9 2363   6.972   8.076   6.224  1.7142  1.0313 -0.9863
   82bbb    H10 2364   7.051   8.101   6.370  0.9355  0.7250 -0.0899
   82bbb     C6 2365   6.888   8.049   6.638 -0.6855 -0.0765 -0.5341
   82bbb    H11 2366   6.848   8.062   6.739 -1.0536  1.1825 -0.8319
   82bbb    H12 2367   6.949   8.138   6.623  1.9793 -1.6974  0.3038
   82bbb     C7 2368   6.440   8.075   6.461 -0.0045  0.2966 -0.3686
   82bbb    H13 2369   6.497   8.075   6.555 -0.3996 -0.1794 -0.1283
   82bbb    H14 2370   6.406   7.971   6.459 -0.5168  0.4495  0.3216
   82bbb     C8 2371   6.978   7.925   6.615  0.0176 -0.1977 -0.1618
   82bbb    H15 2372   7.043   7.951   6.531 -1.5008  1.8908 -0.7199
   82bbb    H16 2373   6.918   7.838   6.588  1.8227 -1.5264 -0.0251
   82bbb     C9 2374   7.059   8.280   6.262 -0.0716  0.3189  0.6305
   82bbb    H17 2375   7.005   8.329   6.180  0.8793  0.1646 -0.0935
   82bbb    H18 2376   7.152   8.250   6.213 -0.6308 -1.0177  0.3578
   82bbb     O1 2377   6.325   8.163   6.462  0.0174 -0.1786 -0.3296
   83bbb     N1 2378   5.364   9.812   6.814  0.0358  0.6677  0.1201
   83bbb     C1 2379   5.351   9.961   6.818 -0.4190  0.0132 -0.0907
   83bbb     H1 2380   5.396  10.012   6.905 -1.3770  2.6975 -1.1309
   83bbb     H2 2381   5.245   9.986   6.827 -0.5144 -0.4347  0.0112
   83bbb     C2 2382   5.299   9.756   6.927  0.9482  0.3210  0.0385
   83bbb     H3 2383   5.196   9.793   6.926  0.6967 -0.4005 -1.1602
   83bbb     H4 2384   5.345   9.791   7.021  2.9653 -0.0495 -0.7830
   83bbb     C3 2385   5.504   9.769   6.812  0.7393  0.6751 -0.0781
   83bbb     H5 2386   5.551   9.798   6.717 -0.0346 -0.6524 -0.8947
   83bbb     H6 2387   5.491   9.660   6.816 -1.6725  0.9263 -0.2380
   83bbb     C4 2388   5.596   9.809   6.932 -0.0868 -0.3202 -0.0675
   83bbb     H7 2389   5.549   9.772   7.024 -0.7101 -0.5110 -0.4594
   83bbb     H8 2390   5.605   9.917   6.949  0.7746 -0.4230  0.1378
   83bbb     C5 2391   5.404  10.024   6.684  0.1034  0.0016 -0.9328
   83bbb     H9 2392   5.356   9.968   6.603 -1.1254 -0.3053 -0.0049
   83bbb    H10 2393   5.512  10.004   6.676  0.3466  0.5898  0.7298
   83bbb     C6 2394   5.292   9.603   6.934 -0.0355 -0.3485  0.1610
   83bbb    H11 2395   5.388   9.575   6.978 -0.1131 -2.0563 -0.7177
   83bbb    H12 2396   5.274   9.569   6.831  0.3244 -0.9136  0.2876
   83bbb     C7 2397   5.734   9.741   6.932  0.3006  0.5199  0.0899
   83bbb    H13 2398   5.771   9.761   6.831  1.8009  2.8004  1.0564
   83bbb    H14 2399   5.715   9.635   6.948 -0.2216  0.5203 -0.5015
   83bbb     C8 2400   5.192   9.552   7.040  0.2246  0.5487 -0.1550
   83bbb    H15 2401   5.184   9.442   7.048  1.7164  0.3660 -1.1284
   83bbb    H16 2402   5.085   9.576   7.028  0.6098  1.7331 -1.2435
   83bbb     C9 2403   5.378  10.174   6.673 -0.2170  0.4401  0.1655
   83bbb    H17 2404   5.446  10.227   6.741 -0.8859  0.3523  0.9004
   83bbb    H18 2405   5.274  10.198   6.697 -0.3332 -1.6441  1.8905
   83bbb     O1 2406   5.824   9.798   7.025 -0.2278 -0.1662 -0.0914
   84bbb     N1 2407   5.891  10.701   6.543  0.2292  0.1369  0.2540
   84bbb     C1 2408   5.882  10.758   6.677 -0.2411  0.4223 -0.3540
   84bbb     H1 2409   5.933  10.681   6.736 -2.9507 -0.8509  0.3812
   84bbb     H2 2410   5.777  10.768   6.706 -0.1838 -0.1529  0.0454
   84bbb     C2 2411   5.881  10.804   6.437  0.0313 -0.2009  0.6206
   84bbb     H3 2412   5.969  10.868   6.456  0.1342 -0.4472  0.9626
   84bbb     H4 2413   5.799  10.873   6.459 -0.2783  0.2931 -1.9303
   84bbb     C3 2414   5.811  10.574   6.523 -0.9220 -0.2594  0.2496
   84bbb     H5 2415   5.826  10.540   6.420 -2.2614  2.8803 -1.0616
   84bbb     H6 2416   5.704  10.596   6.538 -1.1871  0.1296 -2.1253
   84bbb     C4 2417   5.851  10.453   6.608 -0.5846 -0.7052 -0.3397
   84bbb     H7 2418   5.958  10.444   6.628 -0.0842 -1.0453 -2.9483
   84bbb     H8 2419   5.828  10.372   6.537 -0.5446 -0.3059 -0.8127
   84bbb     C5 2420   5.939  10.904   6.697 -0.0785 -0.3795  0.2404
   84bbb     H9 2421   5.890  10.984   6.641 -0.4232  0.8085  2.1820
   84bbb    H10 2422   6.042  10.910   6.658 -0.0982  0.1091  0.2545
   84bbb     C6 2423   5.873  10.766   6.288 -0.3226  0.2518 -0.4731
   84bbb    H11 2424   5.872  10.860   6.231 -0.0146 -0.1218 -1.0898
   84bbb    H12 2425   5.775  10.722   6.265 -0.8896 -0.3485  2.7740
   84bbb     C7 2426   5.772  10.436   6.740 -0.1341  0.2117  0.7485
   84bbb    H13 2427   5.677  10.386   6.717 -0.3947  0.8575  0.3924
   84bbb    H14 2428   5.730  10.528   6.783  0.5767  0.1775  1.5285
   84bbb     C8 2429   5.983  10.670   6.233  0.4335  0.1104 -0.1633
   84bbb    H15 2430   5.972  10.667   6.124 -2.0504  1.6251  0.0120
   84bbb    H16 2431   5.955  10.573   6.275 -0.1550  1.3034  2.2752
   84bbb     C9 2432   5.944  10.946   6.843  0.5600  0.0300  0.3134
   84bbb    H17 2433   5.943  11.055   6.840 -1.4858  0.0279  0.1233
   84bbb    H18 2434   6.040  10.905   6.878  0.0636  0.2296  1.9512
   84bbb     O1 2435   5.844  10.349   6.830 -0.1008  0.1333  0.0185
   85bbb     N1 2436   5.765   8.996   7.743  0.2622  0.4750 -0.3395
   85bbb     C1 2437   5.781   9.126   7.816 -0.3653  0.2949  0.4922
   85bbb     H1 2438   5.847   9.196   7.762 -0.2852 -1.1003 -1.2935
   85bbb     H2 2439   5.827   9.105   7.913 -0.6063  1.4972  0.8679
   85bbb     C2 2440   5.660   8.912   7.807  0.4808  0.1201 -0.2953
   85bbb     H3 2441   5.564   8.964   7.800  0.8944  1.2461  2.0587
   85bbb     H4 2442   5.673   8.900   7.915 -0.2494  0.1404 -0.2046
   85bbb     C3 2443   5.891   8.920   7.705  0.0079 -0.3201 -0.0745
   85bbb     H5 2444   5.863   8.819   7.671 -0.9242  0.7363 -2.5377
   85bbb     H6 2445   5.960   8.913   7.791 -0.0743 -0.3625 -0.0121
   85bbb     C4 2446   5.963   8.992   7.587 -0.1254 -0.1107  0.3875
   85bbb     H7 2447   6.029   8.925   7.531 -3.1503 -1.6192 -1.5313
   85bbb     H8 2448   6.029   9.070   7.627  1.1438 -0.7120 -0.4787
   85bbb     C5 2449   5.643   9.202   7.817 -0.1243  0.0243 -0.0545
   85bbb     H9 2450   5.672   9.300   7.858 -0.5487  0.9005 -1.7925
   85bbb    H10 2451   5.575   9.154   7.889 -0.3460 -0.5527 -0.6487
   85bbb     C6 2452   5.626   8.775   7.739 -0.3099 -0.4532  0.2145
   85bbb    H11 2453   5.703   8.702   7.767  0.3322  0.4041  0.7152
   85bbb    H12 2454   5.646   8.781   7.631  2.6548  0.1145  0.7423
   85bbb     C7 2455   5.873   9.042   7.473 -0.1053 -0.1169 -0.0276
   85bbb    H13 2456   5.816   9.125   7.515  0.2342  0.1711 -0.1395
   85bbb    H14 2457   5.790   8.976   7.443 -0.7859  0.3915  0.7140
   85bbb     C8 2458   5.481   8.722   7.782 -0.0672  1.0971  0.5966
   85bbb    H15 2459   5.411   8.778   7.718  1.2949  0.5686 -1.3998
   85bbb    H16 2460   5.459   8.746   7.887  1.2897  0.1493  1.1152
   85bbb     C9 2461   5.568   9.221   7.682  0.3186 -0.2920  0.1087
   85bbb    H17 2462   5.552   9.131   7.621  1.5283 -0.9012  0.6771
   85bbb    H18 2463   5.630   9.287   7.621  0.9655 -0.6922  0.3311
   85bbb     O1 2464   5.951   9.084   7.359 -0.0497 -0.5961  0.2524
   86bbb     N1 2465   5.565   9.648   8.043  1.0591 -0.4122 -0.1418
   86bbb     C1 2466   5.581   9.765   8.135 -0.1128  0.3075  0.3759
   86bbb     H1 2467   5.505   9.843   8.116  0.1425  0.4195 -0.1836
   86bbb     H2 2468   5.662   9.831   8.101 -2.8954  3.5512 -0.2493
   86bbb     C2 2469   5.432   9.584   8.049  0.4335 -0.3609 -0.0829
   86bbb     H3 2470   5.425   9.530   8.145 -0.5275  0.5761  0.3817
   86bbb     H4 2471   5.439   9.503   7.975 -2.2252 -0.9394  0.2484
   86bbb     C3 2472   5.680   9.555   8.033 -0.4499  0.1181  0.4248
   86bbb     H5 2473   5.652   9.470   7.970 -1.7199 -1.0578  2.5033
   86bbb     H6 2474   5.699   9.515   8.134 -0.2160  0.2187  0.4220
   86bbb     C4 2475   5.815   9.615   7.968 -0.3550 -0.1347  0.3493
   86bbb     H7 2476   5.840   9.697   8.037 -2.3008  0.3482  0.5105
   86bbb     H8 2477   5.813   9.653   7.865  0.6699  1.7424  0.9881
   86bbb     C5 2478   5.588   9.721   8.285 -0.2135 -0.1524  0.8245
   86bbb     H9 2479   5.667   9.648   8.306 -0.2697 -0.4010  0.1635
   86bbb    H10 2480   5.489   9.681   8.309 -0.2879 -0.2410  0.3611
   86bbb     C6 2481   5.309   9.675   8.016 -0.2418 -0.2402 -0.7433
   86bbb    H11 2482   5.297   9.747   8.098  1.7619  0.5999 -1.1514
   86bbb    H12 2483   5.221   9.610   8.010  0.2739 -0.8179 -2.2281
   86bbb     C7 2484   5.930   9.505   7.974  0.7081 -0.8350 -0.2461
   86bbb    H13 2485   5.879   9.417   7.933  0.5595 -1.3178  0.9854
   86bbb    H14 2486   5.970   9.482   8.073 -0.4118 -0.0454  0.4043
   86bbb     C8 2487   5.317   9.765   7.891 -0.7928  0.5806 -0.1532
   86bbb    H15 2488   5.339   9.700   7.805 -0.5211  0.1293  0.2542
   86bbb    H16 2489   5.404   9.828   7.909 -0.2379  0.1092 -1.1263
   86bbb     C9 2490   5.615   9.849   8.368  0.3349  1.1934 -0.0670
   86bbb    H17 2491   5.567   9.933   8.317 -0.4373  0.3275 -0.7842
   86bbb    H18 2492   5.722   9.872   8.370  0.5858  0.0301  1.5571
   86bbb     O1 2493   6.039   9.540   7.890 -0.4676  0.5299  0.1402
   87bbb     N1 2494   2.691   9.554   6.414  0.8061 -0.0849 -0.0762
   87bbb     C1 2495   2.679   9.414   6.467 -0.0658  0.3990  0.1330
   87bbb     H1 2496   2.767   9.358   6.431  0.5449  2.2247 -1.3283
   87bbb     H2 2497   2.594   9.358   6.427  0.8469 -0.6924 -0.3282
   87bbb     C2 2498   2.574   9.644   6.447  0.1525 -0.7011 -0.1387
   87bbb     H3 2499   2.610   9.715   6.523 -0.5872  2.1163 -2.3438
   87bbb     H4 2500   2.486   9.588   6.480 -0.8987  0.9406 -0.0934
   87bbb     C3 2501   2.817   9.626   6.441  0.4154  0.4084 -0.1783
   87bbb     H5 2502   2.840   9.639   6.548  0.6408  0.2271 -0.2021
   87bbb     H6 2503   2.816   9.724   6.392  1.0795  0.5155  0.0054
   87bbb     C4 2504   2.935   9.538   6.382  0.1575 -0.2422  0.2235
   87bbb     H7 2505   2.916   9.504   6.280  1.1834 -0.2701  0.0428
   87bbb     H8 2506   2.947   9.448   6.444  0.4116 -1.0565 -0.9997
   87bbb     C5 2507   2.670   9.406   6.623 -0.3036 -0.5353 -0.0930
   87bbb     H9 2508   2.594   9.476   6.660 -0.2243 -1.8995  2.7813
   87bbb    H10 2509   2.770   9.437   6.657  1.5227 -3.1460 -2.7785
   87bbb     C6 2510   2.530   9.730   6.324 -0.4624 -0.5414 -0.1891
   87bbb    H11 2511   2.513   9.674   6.232 -2.7946 -1.2906  0.6699
   87bbb    H12 2512   2.609   9.804   6.304 -1.5128  0.1208 -1.9736
   87bbb     C7 2513   3.070   9.607   6.370  0.0080  0.3371  0.0176
   87bbb    H13 2514   3.114   9.635   6.467 -1.6961 -1.6467  1.4010
   87bbb    H14 2515   3.062   9.696   6.307 -0.6187 -0.0901 -0.5190
   87bbb     C8 2516   2.410   9.820   6.361 -0.8949  0.2422  0.3472
   87bbb    H15 2517   2.446   9.899   6.427  3.2488 -1.0266 -0.2428
   87bbb    H16 2518   2.342   9.751   6.413  0.6439 -2.0543 -0.5756
   87bbb     C9 2519   2.631   9.264   6.665 -0.2673 -0.3591  0.2787
   87bbb    H17 2520   2.714   9.197   6.638  0.7843  0.0432  2.3524
   87bbb    H18 2521   2.547   9.232   6.602 -0.5907  1.6066 -0.3100
   87bbb     O1 2522   3.161   9.513   6.307 -0.1602 -0.4212 -0.0829
   88bbb     N1 2523   2.929   8.611   6.152  0.0602  0.1438 -0.1576
   88bbb     C1 2524   2.933   8.466   6.189  0.2429  0.0291 -1.2208
   88bbb     H1 2525   3.019   8.417   6.142 -0.2038 -2.3584  0.3500
   88bbb     H2 2526   2.839   8.411   6.173  0.9876 -1.1881 -1.4554
   88bbb     C2 2527   2.838   8.639   6.039  0.0806 -0.0876 -0.0951
   88bbb     H3 2528   2.809   8.548   5.985 -0.0708 -0.1472  0.0907
   88bbb     H4 2529   2.884   8.703   5.962  2.2036 -1.6966 -0.1892
   88bbb     C3 2530   3.062   8.677   6.151  0.5149 -0.0449 -0.3048
   88bbb     H5 2531   3.100   8.653   6.051  0.3421  0.5029 -0.5058
   88bbb     H6 2532   3.134   8.647   6.228  1.8095  0.0432 -1.4504
   88bbb     C4 2533   3.049   8.832   6.161  0.0866 -0.1721  0.4015
   88bbb     H7 2534   3.006   8.862   6.258 -0.9985  0.8970 -0.3960
   88bbb     H8 2535   2.980   8.876   6.088  0.6836 -0.9437 -0.6306
   88bbb     C5 2536   2.958   8.448   6.340 -0.3670 -0.4066 -0.3389
   88bbb     H9 2537   3.060   8.472   6.371  0.0350  0.0895 -1.9959
   88bbb    H10 2538   2.954   8.339   6.356  1.0363 -0.5517 -0.8457
   88bbb     C6 2539   2.714   8.699   6.100 -0.5400  0.1194  0.8215
   88bbb    H11 2540   2.738   8.795   6.147  1.2624 -0.9301  2.1407
   88bbb    H12 2541   2.677   8.637   6.183 -2.0087  0.4112  0.3914
   88bbb     C7 2542   3.180   8.911   6.140  0.1263 -0.4394 -0.5374
   88bbb    H13 2543   3.159   9.019   6.149  1.9575 -0.0664 -0.4979
   88bbb    H14 2544   3.221   8.887   6.041 -0.4049 -1.4093 -0.5296
   88bbb     C8 2545   2.601   8.714   6.001 -0.4491  1.0226  0.7478
   88bbb    H15 2546   2.546   8.620   5.987  0.4086  0.7233 -0.6100
   88bbb    H16 2547   2.642   8.739   5.903  0.3483  1.2300  1.1244
   88bbb     C9 2548   2.851   8.516   6.433 -0.2805 -0.3438  0.4334
   88bbb    H17 2549   2.749   8.497   6.397  0.0861 -0.4971 -0.5523
   88bbb    H18 2550   2.865   8.623   6.414  1.9522 -0.4683  1.2840
   88bbb     O1 2551   3.266   8.873   6.251  0.0390 -0.0732 -0.5899
   89bbb     N1 2552   3.050   9.502   4.712 -0.4896  0.6996  0.0483
   89bbb     C1 2553   3.063   9.612   4.611 -0.5768  0.1512  0.1499
   89bbb     H1 2554   3.129   9.576   4.531  2.0395  0.0506  2.2814
   89bbb     H2 2555   3.112   9.698   4.657  0.0906  0.3972 -0.9833
   89bbb     C2 2556   2.976   9.378   4.668  0.5694 -0.0651 -0.0407
   89bbb     H3 2557   2.883   9.401   4.616  1.8336 -1.8438 -3.2794
   89bbb     H4 2558   2.950   9.318   4.756  0.6322 -1.0503 -0.6763
   89bbb     C3 2559   3.182   9.473   4.775 -0.1780 -0.2909  0.7257
   89bbb     H5 2560   3.230   9.571   4.786 -2.6718  1.3657 -2.3433
   89bbb     H6 2561   3.247   9.408   4.716 -0.7480  0.8304 -1.1825
   89bbb     C4 2562   3.171   9.424   4.923 -0.2789 -0.1944 -0.4167
   89bbb     H7 2563   3.098   9.343   4.923 -2.2978  1.5785  0.5950
   89bbb     H8 2564   3.118   9.495   4.988  2.3572  1.6008 -0.1472
   89bbb     C5 2565   2.940   9.656   4.530 -0.3436 -0.3058  0.0343
   89bbb     H9 2566   2.897   9.578   4.466 -0.4437 -0.4458  0.2733
   89bbb    H10 2567   2.970   9.729   4.454 -0.3417  1.1353  1.3690
   89bbb     C6 2568   3.040   9.287   4.567 -0.3156  0.5662 -0.2062
   89bbb    H11 2569   3.139   9.251   4.598  0.2806  1.0259 -1.5509
   89bbb    H12 2570   3.073   9.353   4.485  0.8013  2.5117  1.7595
   89bbb     C7 2571   3.311   9.391   4.982  0.0829 -0.2345 -0.4056
   89bbb    H13 2572   3.383   9.448   4.922  0.3313 -0.1111  0.0072
   89bbb    H14 2573   3.345   9.288   4.967  1.8539  0.1595  0.6993
   89bbb     C8 2574   2.943   9.172   4.515 -0.4902 -0.4368  0.0483
   89bbb    H15 2575   2.875   9.214   4.440  0.1580  0.4756 -0.0405
   89bbb    H16 2576   2.878   9.136   4.595  0.9594 -0.2713  1.3264
   89bbb     C9 2577   2.829   9.715   4.620  0.2968  0.4877  0.2073
   89bbb    H17 2578   2.780   9.639   4.681  2.3718 -0.7198  0.4122
   89bbb    H18 2579   2.756   9.752   4.548  0.1947 -1.5306 -0.7674
   89bbb     O1 2580   3.330   9.442   5.113  0.4262 -0.3922  0.4994
   90bbb     N1 2581   3.972   8.375   5.155 -0.2409  0.7686  0.7704
   90bbb     C1 2582   4.104   8.403   5.097 -0.1142 -0.0675 -0.4431
   90bbb     H1 2583   4.116   8.364   4.995 -1.1968  0.0143 -0.6046
   90bbb     H2 2584   4.176   8.348   5.159 -0.7937  0.7292  1.0763
   90bbb     C2 2585   3.952   8.225   5.142 -0.2457 -0.4265  0.0823
   90bbb     H3 2586   4.001   8.188   5.051 -1.5259 -0.2327 -0.7081
   90bbb     H4 2587   3.847   8.195   5.136 -0.9306  1.7797  0.5733
   90bbb     C3 2588   3.866   8.453   5.093 -0.3637 -0.1623  0.2739
   90bbb     H5 2589   3.865   8.413   4.991  1.1497  0.5187 -0.0213
   90bbb     H6 2590   3.895   8.559   5.100 -0.4525 -0.2009  1.3772
   90bbb     C4 2591   3.729   8.445   5.157 -0.6337  0.6527 -0.2079
   90bbb     H7 2592   3.747   8.430   5.264  0.0048  1.5095 -0.1832
   90bbb     H8 2593   3.676   8.357   5.119  0.7658 -0.5910  0.6850
   90bbb     C5 2594   4.158   8.553   5.104  0.6523  0.3726  0.2674
   90bbb     H9 2595   4.158   8.593   5.206  0.6485  2.2737 -0.4543
   90bbb    H10 2596   4.087   8.617   5.050  0.3836 -0.5117 -0.4513
   90bbb     C6 2597   4.023   8.151   5.254 -0.0939 -0.4737 -0.1186
   90bbb    H11 2598   3.964   8.172   5.344  2.3131  2.1238  0.9354
   90bbb    H12 2599   4.124   8.192   5.272 -0.1754 -0.8460  1.2668
   90bbb     C7 2600   3.645   8.578   5.123 -0.3924  0.4441  0.2925
   90bbb    H13 2601   3.538   8.557   5.136 -0.2786  0.0085  0.5470
   90bbb    H14 2602   3.664   8.605   5.019  0.6423 -1.5960 -0.0813
   90bbb     C8 2603   4.032   7.997   5.229  0.8754  1.2447  0.5951
   90bbb    H15 2604   4.080   7.933   5.304 -1.2200 -0.3750  0.6161
   90bbb    H16 2605   4.092   7.983   5.138 -0.4619  0.2176 -0.1478
   90bbb     C9 2606   4.304   8.559   5.038 -0.1521  0.1367 -0.4018
   90bbb    H17 2607   4.372   8.504   5.104  1.5049  1.3271 -1.0782
   90bbb    H18 2608   4.347   8.660   5.051 -0.2599 -0.1575  2.6218
   90bbb     O1 2609   3.689   8.687   5.214  0.5028  0.1458  0.1758
   91bbb     N1 2610   3.673   9.586   7.155 -0.0161 -0.5059  0.4932
   91bbb     C1 2611   3.822   9.563   7.177 -0.2975  0.7682  0.1672
   91bbb     H1 2612   3.852   9.548   7.282 -0.4536  1.3679  0.3035
   91bbb     H2 2613   3.880   9.652   7.150  0.0711  0.8834  1.3012
   91bbb     C2 2614   3.571   9.502   7.234 -0.3945 -0.3243  1.2733
   91bbb     H3 2615   3.483   9.567   7.235 -0.3373  0.1079 -4.4264
   91bbb     H4 2616   3.601   9.482   7.338  0.5008  2.0991  1.5010
   91bbb     C3 2617   3.646   9.622   7.016  0.4083 -0.2460  0.3792
   91bbb     H5 2618   3.662   9.533   6.954  0.3264  0.1675 -0.2367
   91bbb     H6 2619   3.724   9.688   6.975  1.5830 -1.8447 -0.0246
   91bbb     C4 2620   3.509   9.684   6.990  0.7801 -0.4531  0.1542
   91bbb     H7 2621   3.501   9.775   7.051  1.2817  0.3718 -0.9824
   91bbb     H8 2622   3.422   9.622   7.015  0.2466 -0.6084 -1.9547
   91bbb     C5 2623   3.877   9.442   7.095 -0.8569  1.3054  0.1655
   91bbb     H9 2624   3.843   9.434   6.991 -0.3802  0.2128  0.0929
   91bbb    H10 2625   3.852   9.347   7.144  1.2515  1.1005  0.8835
   91bbb     C6 2626   3.535   9.367   7.165  0.2283  0.6520 -0.1687
   91bbb    H11 2627   3.628   9.313   7.142 -0.7409 -0.5338 -1.3830
   91bbb    H12 2628   3.495   9.385   7.065  0.7396 -0.6059 -0.6085
   91bbb     C7 2629   3.489   9.710   6.836  0.0940  0.0672  0.6041
   91bbb    H13 2630   3.552   9.792   6.802  1.9983 -0.5617  2.5382
   91bbb    H14 2631   3.384   9.740   6.821  0.6422  0.7571 -2.2743
   91bbb     C8 2632   3.437   9.288   7.255 -0.0907  0.4619  0.0149
   91bbb    H15 2633   3.492   9.273   7.349  0.4806  1.4772 -0.1510
   91bbb    H16 2634   3.414   9.189   7.215  0.0435  1.3922 -2.4598
   91bbb     C9 2635   4.035   9.448   7.087 -0.5566 -0.1068 -0.2702
   91bbb    H17 2636   4.067   9.545   7.048  0.5295  0.0874  1.0641
   91bbb    H18 2637   4.075   9.378   7.012 -0.1272  0.6765 -0.7746
   91bbb     O1 2638   3.514   9.597   6.740 -0.1277  0.1810  0.5361
   92bbb     N1 2639   3.881  10.383   6.570  0.0889  0.4655  1.0595
   92bbb     C1 2640   3.837  10.391   6.425 -0.1277  0.1603  0.1638
   92bbb     H1 2641   3.921  10.434   6.369 -1.0535 -0.5750 -1.7931
   92bbb     H2 2642   3.755  10.463   6.426  0.9662  1.4265 -0.2893
   92bbb     C2 2643   3.770  10.377   6.673  0.0384 -0.1289 -0.3735
   92bbb     H3 2644   3.719  10.280   6.664  1.3422 -0.8219 -0.4469
   92bbb     H4 2645   3.695  10.449   6.637 -0.8494 -0.9786 -0.2438
   92bbb     C3 2646   4.001  10.304   6.593 -0.8029 -0.3175 -0.7655
   92bbb     H5 2647   3.972  10.198   6.596 -0.9413 -0.3192 -1.9600
   92bbb     H6 2648   4.040  10.330   6.692  2.8224 -1.1662 -1.9159
   92bbb     C4 2649   4.120  10.321   6.491  0.5014  0.1856 -0.2242
   92bbb     H7 2650   4.155  10.425   6.501 -2.7929  1.1777  1.4846
   92bbb     H8 2651   4.096  10.298   6.386  0.5593  0.3711 -0.2786
   92bbb     C5 2652   3.795  10.253   6.367 -0.0192  0.5233 -0.1965
   92bbb     H9 2653   3.716  10.214   6.432  0.4846 -2.1857 -1.1514
   92bbb    H10 2654   3.875  10.179   6.372 -0.3976  0.1442  0.2711
   92bbb     C6 2655   3.809  10.400   6.816 -0.6754  0.3068  0.1675
   92bbb    H11 2656   3.866  10.312   6.849 -0.1734  1.5802  2.8007
   92bbb    H12 2657   3.720  10.388   6.879  0.4273 -0.4339  1.6071
   92bbb     C7 2658   4.240  10.234   6.539  0.3306 -0.1038  0.2578
   92bbb    H13 2659   4.281  10.279   6.630  0.0670 -1.8579  1.2444
   92bbb    H14 2660   4.322  10.238   6.465  1.4837  0.4965  1.5439
   92bbb     C8 2661   3.892  10.531   6.849 -0.3009 -0.2737  0.0183
   92bbb    H15 2662   3.983  10.527   6.787 -1.3499 -1.8779 -1.4526
   92bbb    H16 2663   3.927  10.529   6.953 -0.4198 -0.8474  0.0479
   92bbb     C9 2664   3.735  10.256   6.229  0.2911  0.0070  0.3181
   92bbb    H17 2665   3.645  10.319   6.240 -0.4550 -0.9180 -0.4405
   92bbb    H18 2666   3.712  10.151   6.207  1.2421 -0.1639  0.1288
   92bbb     O1 2667   4.185  10.101   6.565  0.4962  0.6403  0.1958
   93bbb     N1 2668   5.872  10.262   6.060 -0.3467  0.5367 -0.1640
   93bbb     C1 2669   5.806  10.166   6.149  0.5665 -0.3924  0.1112
   93bbb     H1 2670   5.746  10.227   6.218 -1.3794 -2.3090  0.1574
   93bbb     H2 2671   5.881  10.102   6.198 -0.8002 -0.2364  2.4960
   93bbb     C2 2672   5.995  10.323   6.115  0.1042 -0.6464 -0.0141
   93bbb     H3 2673   6.057  10.244   6.160 -1.8140 -0.5918  2.8683
   93bbb     H4 2674   5.960  10.390   6.195  0.4985 -0.7288  0.2295
   93bbb     C3 2675   5.779  10.348   5.984  0.0842 -0.6120 -0.3888
   93bbb     H5 2676   5.706  10.297   5.920 -0.2364 -1.1772  0.4232
   93bbb     H6 2677   5.832  10.404   5.906 -1.0137 -0.8350 -1.3185
   93bbb     C4 2678   5.700  10.453   6.067 -0.3635  0.4527 -0.0255
   93bbb     H7 2679   5.775  10.523   6.104  0.8730 -0.8183 -0.0808
   93bbb     H8 2680   5.647  10.400   6.147 -0.4306 -3.4240 -2.4659
   93bbb     C5 2681   5.710  10.070   6.084  0.1407 -0.2735  0.0628
   93bbb     H9 2682   5.753  10.051   5.984  4.1777  0.5658  1.5411
   93bbb    H10 2683   5.617  10.124   6.062  0.1560 -0.5314 -0.6528
   93bbb     C6 2684   6.081  10.402   6.010 -0.6049  0.3010 -0.8298
   93bbb    H11 2685   6.022  10.488   5.978 -0.7090  0.9945  1.1490
   93bbb    H12 2686   6.097  10.338   5.922  0.8125 -0.1927 -0.2359
   93bbb     C7 2687   5.604  10.541   5.991  0.3621 -0.2151 -0.5346
   93bbb    H13 2688   5.658  10.594   5.912  0.5224  1.7984  0.8800
   93bbb    H14 2689   5.560  10.612   6.061 -0.2270  0.6889 -1.8084
   93bbb     C8 2690   6.210  10.447   6.071 -0.9977 -0.2388 -0.8794
   93bbb    H15 2691   6.189  10.506   6.162  1.4560 -1.5025  0.5388
   93bbb    H16 2692   6.270  10.505   6.001 -1.9967  1.4349 -0.3882
   93bbb     C9 2693   5.680   9.931   6.150  0.0678 -0.1683 -0.5613
   93bbb    H17 2694   5.766   9.863   6.154 -0.1147 -0.3003  2.7913
   93bbb    H18 2695   5.606   9.877   6.090  0.0269  0.7580 -1.3640
   93bbb     O1 2696   5.501  10.474   5.921  0.1681 -0.3566  0.3653
   94bbb     N1 2697   4.879   9.549   5.681 -0.4810 -0.2406  1.0410
   94bbb     C1 2698   4.735   9.546   5.739 -0.1860 -0.4058  0.2145
   94bbb     H1 2699   4.730   9.452   5.796 -1.1481  0.1732  1.1037
   94bbb     H2 2700   4.667   9.540   5.654 -0.4329 -0.1893  0.3968
   94bbb     C2 2701   4.886   9.455   5.578  0.2920  0.5992 -0.4851
   94bbb     H3 2702   4.978   9.463   5.519 -0.3794 -0.2126 -1.6671
   94bbb     H4 2703   4.811   9.474   5.501  0.6549  0.9505 -0.7566
   94bbb     C3 2704   4.982   9.572   5.780 -0.4725  0.6688 -0.5074
   94bbb     H5 2705   4.985   9.493   5.856 -1.8518  0.8080 -0.2975
   94bbb     H6 2706   4.956   9.666   5.830 -0.9429  0.9055 -1.1991
   94bbb     C4 2707   5.124   9.587   5.723 -0.0978 -0.3479  0.4345
   94bbb     H7 2708   5.109   9.640   5.628 -0.3546 -1.5522 -0.2124
   94bbb     H8 2709   5.154   9.483   5.704  1.8176 -0.2080  2.5806
   94bbb     C5 2710   4.700   9.658   5.835 -0.1299 -0.1485  0.4705
   94bbb     H9 2711   4.768   9.646   5.919  1.5572 -0.7862 -0.9603
   94bbb    H10 2712   4.599   9.640   5.873  0.3033 -2.9806  0.3750
   94bbb     C6 2713   4.870   9.307   5.615  0.2165 -0.8224 -0.1597
   94bbb    H11 2714   4.782   9.292   5.678 -1.0081 -0.4045 -1.7246
   94bbb    H12 2715   4.956   9.265   5.668  0.1610  0.1363  0.7014
   94bbb     C7 2716   5.230   9.663   5.807  0.4074 -0.0555  0.2425
   94bbb    H13 2717   5.316   9.682   5.741 -0.1501 -0.2984 -0.5610
   94bbb    H14 2718   5.262   9.608   5.896  2.7149  2.8942  1.2933
   94bbb     C8 2719   4.865   9.225   5.491 -0.8606  0.4322  0.1245
   94bbb    H15 2720   4.904   9.124   5.510  0.6151  0.2144 -3.6512
   94bbb    H16 2721   4.939   9.264   5.420 -0.1823  1.8305  1.5702
   94bbb     C9 2722   4.705   9.801   5.773  0.0488 -0.5459 -0.0338
   94bbb    H17 2723   4.802   9.810   5.723  0.0498 -2.1593 -0.3550
   94bbb    H18 2724   4.709   9.877   5.852 -0.3911 -1.6317  1.0515
   94bbb     O1 2725   5.174   9.787   5.852 -1.0185  0.1834 -0.3996
   95ccc     C1 2726   4.606   7.125   5.444  0.1353  0.1101  0.0022
   95ccc     H1 2727   4.566   7.089   5.539  0.8465 -2.4313 -0.6066
   95ccc     H2 2728   4.560   7.223   5.428 -1.2690 -0.6442 -0.6958
   95ccc     C2 2729   4.568   7.020   5.334  0.0393 -0.2371  0.4872
   95ccc     H3 2730   4.464   7.032   5.300 -0.0319  2.6317  1.5801
   95ccc     H4 2731   4.625   7.043   5.244  1.5989 -2.8389  0.7557
   95ccc     C3 2732   4.588   6.873   5.375  0.1856 -0.6393  0.0404
   95ccc     H5 2733   4.528   6.851   5.464  2.1154  0.1633  1.5877
   95ccc     H6 2734   4.548   6.808   5.296 -0.6441  1.6470 -1.4760
   95ccc     N1 2735   4.728   6.841   5.400 -1.0392  0.4707 -0.4150
   95ccc     C4 2736   4.813   6.847   5.280  0.6786 -0.4292 -0.4502
   95ccc     H7 2737   4.769   6.906   5.199  0.4094 -1.0532 -0.7645
   95ccc     H8 2738   4.814   6.743   5.244  0.0388 -0.0138 -1.6705
   95ccc     C5 2739   4.956   6.899   5.305 -1.0015 -0.0139  0.1609
   95ccc     H9 2740   4.950   7.003   5.340  2.7035 -0.0064  0.9908
   95ccc    H10 2741   5.001   6.842   5.388  0.5420 -0.4745 -0.9744
   95ccc     C6 2742   5.041   6.904   5.177 -0.1599  0.4817 -0.0544
   95ccc     O1 2743   5.100   6.804   5.141  0.4284  0.2066 -0.2891
   95ccc     O2 2744   5.030   7.008   5.090 -0.3681  0.2851  0.0016
   95ccc    H11 2745   4.977   7.064   5.149 -1.1063 -0.1396 -0.2468
   95ccc     C7 2746   4.744   6.715   5.482  0.1264 -0.3349  0.0822
   95ccc    H12 2747   4.674   6.639   5.445  0.4186 -0.4212 -0.2970
   95ccc    H13 2748   4.849   6.689   5.467  0.1483 -0.0318 -0.3092
   95ccc     C8 2749   4.727   6.745   5.628  0.7805  0.0754  0.5667
   95ccc    H14 2750   4.623   6.772   5.652  1.1757 -0.0630  2.5467
   95ccc    H15 2751   4.775   6.839   5.657 -0.2859  0.4475  1.1963
   95ccc     C9 2752   4.777   6.629   5.718 -0.9533  1.1936  0.3187
   95ccc     O3 2753   4.834   6.528   5.683  0.7139 -0.1701 -0.8637
   95ccc     O4 2754   4.773   6.659   5.850 -0.1419  0.0550 -0.5279
   95ccc    H16 2755   4.726   6.744   5.850 -0.8578 -0.3206 -1.7721
   95ccc     O5 2756   4.749   7.140   5.463  0.3982 -0.1247  0.3432
   96ccc     C1 2757   5.613   6.932   5.828  0.2612 -0.2278  0.4765
   96ccc     H1 2758   5.576   6.945   5.931 -1.0437 -2.4613  0.3198
   96ccc     H2 2759   5.565   6.839   5.796 -2.8876  1.8736 -1.1729
   96ccc     C2 2760   5.764   6.912   5.825  0.5913 -0.0321 -0.8396
   96ccc     H3 2761   5.792   6.905   5.719  0.8871  3.3210 -1.0404
   96ccc     H4 2762   5.792   6.815   5.868  2.5935  0.8662 -0.0821
   96ccc     C3 2763   5.852   7.036   5.886 -0.1533  0.2820 -0.4102
   96ccc     H5 2764   5.801   7.073   5.976 -1.1731  0.2317 -0.9584
   96ccc     H6 2765   5.861   7.116   5.812  2.5952  2.3588  2.0786
   96ccc     N1 2766   5.998   6.994   5.914 -0.4620 -0.0860 -0.0983
   96ccc     C4 2767   6.084   6.976   5.798 -0.1004  0.0273 -0.4174
   96ccc     H7 2768   6.035   6.918   5.719 -2.4051  1.1144  0.1867
   96ccc     H8 2769   6.177   6.928   5.829  0.3783  1.1432 -0.0945
   96ccc     C5 2770   6.123   7.123   5.746  0.6546  0.5283  0.0226
   96ccc     H9 2771   6.196   7.118   5.664 -0.6222  3.9341 -1.4230
   96ccc    H10 2772   6.032   7.167   5.703  0.3134 -1.4591 -1.3539
   96ccc     C6 2773   6.185   7.220   5.849  0.2786 -0.6189 -0.0129
   96ccc     O1 2774   6.251   7.181   5.942 -0.1894  0.2392 -0.1330
   96ccc     O2 2775   6.151   7.351   5.837  0.0072 -0.1108 -0.4982
   96ccc    H11 2776   6.099   7.344   5.755 -0.6420  1.3842 -0.2363
   96ccc     C7 2777   6.010   6.902   6.029  0.9252 -0.3260  1.2619
   96ccc    H12 2778   5.960   6.808   6.001  0.2521  0.8138 -1.5907
   96ccc    H13 2779   6.115   6.879   6.051  0.5294 -0.3720  3.1277
   96ccc     C8 2780   5.924   6.948   6.155  0.3169  0.3152 -0.2697
   96ccc    H14 2781   5.951   7.051   6.180 -0.4516  0.3637  0.3978
   96ccc    H15 2782   5.815   6.939   6.148  0.4725 -0.3685 -2.1700
   96ccc     C9 2783   5.960   6.851   6.272  0.0394 -0.1527  0.0187
   96ccc     O3 2784   5.904   6.746   6.300 -0.6256  0.0478  0.6566
   96ccc     O4 2785   6.088   6.847   6.308  0.1103 -0.1975  0.1940
   96ccc    H16 2786   6.114   6.934   6.273  0.7319 -0.4743 -0.0489
   96ccc     O5 2787   5.571   7.043   5.745 -0.0916 -0.0763 -0.4964
   97ccc     C1 2788   5.356   6.415   6.721  0.0256 -0.0938 -0.2875
   97ccc     H1 2789   5.288   6.488   6.676 -1.6697 -0.9820  0.7580
   97ccc     H2 2790   5.454   6.397   6.674  0.7969 -1.5015  1.8087
   97ccc     C2 2791   5.283   6.276   6.725 -0.7617  0.0436 -0.7331
   97ccc     H3 2792   5.178   6.293   6.750  0.0951 -0.8758  3.7951
   97ccc     H4 2793   5.331   6.218   6.805  0.2937  0.3875 -1.1045
   97ccc     C3 2794   5.290   6.184   6.600 -0.2173  0.9450  0.2513
   97ccc     H5 2795   5.276   6.082   6.637  1.1813  1.2100  1.5546
   97ccc     H6 2796   5.386   6.183   6.547  0.3190  0.8089  1.2283
   97ccc     N1 2797   5.185   6.223   6.501  0.3070  0.9226  0.0340
   97ccc     C4 2798   5.042   6.182   6.534  0.1602 -0.4312  0.4767
   97ccc     H7 2799   5.021   6.209   6.639  1.1204  0.7071  0.3949
   97ccc     H8 2800   5.034   6.074   6.519 -0.8142 -0.2297 -0.4186
   97ccc     C5 2801   4.927   6.244   6.452 -0.6941  0.2940 -0.0348
   97ccc     H9 2802   4.948   6.350   6.436  0.7387  0.1551  0.8477
   97ccc    H10 2803   4.944   6.202   6.352  1.0973  2.0076 -0.4806
   97ccc     C6 2804   4.786   6.219   6.502  0.2027  0.2576 -0.7762
   97ccc     O1 2805   4.760   6.116   6.563 -0.8439 -0.1746  0.1207
   97ccc     O2 2806   4.688   6.274   6.432  0.2422  0.6779  0.1255
   97ccc    H11 2807   4.741   6.327   6.371  0.2510  1.8125  1.1061
   97ccc     C7 2808   5.230   6.190   6.361  0.4395 -0.5161 -0.0511
   97ccc    H12 2809   5.311   6.117   6.360  0.5256 -0.4320  0.6985
   97ccc    H13 2810   5.145   6.148   6.306  0.6193 -0.7063 -0.1834
   97ccc     C8 2811   5.283   6.317   6.295 -0.2476  0.2827 -0.3120
   97ccc    H14 2812   5.365   6.357   6.356  0.8441 -2.3572 -0.0004
   97ccc    H15 2813   5.316   6.304   6.191 -2.0800  0.7939 -0.9795
   97ccc     C9 2814   5.191   6.436   6.296 -0.2026  0.8086  0.2363
   97ccc     O3 2815   5.183   6.521   6.378 -0.0575  0.3857 -0.1245
   97ccc     O4 2816   5.104   6.439   6.190 -0.1437  0.4514  0.5129
   97ccc    H16 2817   5.111   6.354   6.144  0.1119  0.2680  0.8971
   97ccc     O5 2818   5.377   6.450   6.858 -0.3859  0.3547 -0.3831
   98ccc     C1 2819   6.253   6.793   6.814  0.1257  0.3701 -0.0856
   98ccc     H1 2820   6.302   6.792   6.913  0.5240 -0.7038 -0.2788
   98ccc     H2 2821   6.331   6.799   6.737 -0.1739  1.6206 -0.2969
   98ccc     C2 2822   6.155   6.910   6.795 -0.0728  0.2972 -0.2411
   98ccc     H3 2823   6.219   6.995   6.819  1.2532 -1.1498  1.5826
   98ccc     H4 2824   6.082   6.906   6.877  1.1701 -3.1808  0.7960
   98ccc     C3 2825   6.096   6.923   6.650 -0.7351 -0.0186 -0.2077
   98ccc     H5 2826   6.037   6.832   6.637 -1.0325  0.1094  0.2304
   98ccc     H6 2827   6.172   6.943   6.573 -0.8885 -1.1687 -0.6617
   98ccc     N1 2828   6.011   7.037   6.635 -0.5901 -0.4865 -0.8211
   98ccc     C4 2829   6.083   7.171   6.629 -0.6031 -0.2406  0.0063
   98ccc     H7 2830   6.164   7.149   6.558 -2.3609  0.1504 -2.1842
   98ccc     H8 2831   6.120   7.183   6.731 -0.3840 -1.8036  0.1314
   98ccc     C5 2832   6.007   7.295   6.573  0.0297 -0.2878  0.3350
   98ccc     H9 2833   5.944   7.266   6.488 -0.0347  1.5976 -0.2737
   98ccc    H10 2834   5.928   7.329   6.641 -1.1728  0.2886 -1.3322
   98ccc     C6 2835   6.105   7.410   6.542 -0.3477  0.1444  0.4858
   98ccc     O1 2836   6.223   7.425   6.575  0.2199 -0.1040  0.1146
   98ccc     O2 2837   6.051   7.510   6.474 -0.1395  0.0076  0.3126
   98ccc    H11 2838   5.961   7.476   6.462 -0.9009  2.1538 -0.2470
   98ccc     C7 2839   5.867   7.024   6.692 -0.7131 -0.5076  0.1496
   98ccc    H12 2840   5.878   7.000   6.798 -0.4419 -2.1227 -0.2299
   98ccc    H13 2841   5.811   7.118   6.700  0.2224  0.0837 -0.1537
   98ccc     C8 2842   5.775   6.925   6.621  0.6430  0.6302  0.6154
   98ccc    H14 2843   5.831   6.836   6.587  1.5035  1.2316  0.4262
   98ccc    H15 2844   5.712   6.883   6.700  1.0252  0.5162  0.8641
   98ccc     C9 2845   5.709   6.993   6.501 -0.2078  0.3425  0.2046
   98ccc     O3 2846   5.783   7.036   6.412 -0.1361 -0.1540  0.0495
   98ccc     O4 2847   5.593   7.057   6.528 -0.1011 -0.2767 -0.3067
   98ccc    H16 2848   5.561   7.007   6.605 -0.9438  1.6899  0.6530
   98ccc     O5 2849   6.198   6.660   6.791 -0.2370 -0.1198  0.0348
   99ccc     C1 2850   3.426   7.067   7.480 -0.2077 -0.7005 -0.4832
   99ccc     H1 2851   3.529   7.029   7.493 -0.5291 -1.6109 -0.5529
   99ccc     H2 2852   3.389   7.120   7.569 -0.2134 -2.4831  0.6136
   99ccc     C2 2853   3.336   6.954   7.444 -0.0804 -0.1953  0.5693
   99ccc     H3 2854   3.399   6.897   7.374 -1.6537 -1.1731 -0.0838
   99ccc     H4 2855   3.239   6.985   7.402  0.3538  0.9388  0.3918
   99ccc     C3 2856   3.295   6.863   7.560 -0.3688  0.1310 -0.5243
   99ccc     H5 2857   3.228   6.781   7.533  0.0742 -0.5039  0.2776
   99ccc     H6 2858   3.227   6.915   7.628 -1.1084 -3.4689  1.6438
   99ccc     N1 2859   3.413   6.796   7.639 -0.5860 -0.5334 -0.5162
   99ccc     C4 2860   3.404   6.648   7.652  0.0650  0.1357  0.7360
   99ccc     H7 2861   3.377   6.610   7.552 -0.2288 -0.1060  0.9060
   99ccc     H8 2862   3.310   6.625   7.702 -1.3207  2.0239 -0.9319
   99ccc     C5 2863   3.523   6.573   7.713  0.3228 -0.5383 -0.2030
   99ccc     H9 2864   3.615   6.588   7.656  0.7019 -0.0424  0.5259
   99ccc    H10 2865   3.537   6.610   7.815  1.5406 -0.2915 -0.4629
   99ccc     C6 2866   3.502   6.425   7.721 -0.1820 -0.0285  0.0289
   99ccc     O1 2867   3.391   6.378   7.736  0.1619 -0.4224  1.0021
   99ccc     O2 2868   3.601   6.336   7.690 -0.4032 -0.0303  0.0509
   99ccc    H11 2869   3.675   6.400   7.690  0.5462 -1.1079  0.8458
   99ccc     C7 2870   3.459   6.870   7.761 -0.5242  0.5726 -0.1846
   99ccc    H12 2871   3.561   6.843   7.792 -1.7738 -1.5855  2.2267
   99ccc    H13 2872   3.474   6.973   7.725 -0.6574  0.4789 -0.5010
   99ccc     C8 2873   3.353   6.866   7.879  0.1939  0.2744  0.0441
   99ccc    H14 2874   3.258   6.907   7.841 -0.0145 -1.3496 -1.2325
   99ccc    H15 2875   3.337   6.769   7.926  1.1962  0.5596  0.9743
   99ccc     C9 2876   3.388   6.970   7.985 -0.0551 -0.1238 -0.5834
   99ccc     O3 2877   3.421   7.085   7.952  0.2189  0.2725  0.3728
   99ccc     O4 2878   3.431   6.919   8.112  0.1124 -0.3670 -0.0829
   99ccc    H16 2879   3.409   6.825   8.103  2.1898 -0.8038 -0.9995
   99ccc     O5 2880   3.417   7.149   7.364 -0.3660  0.0219 -0.4272
  100ccc     C1 2881   3.031   7.520   6.788 -0.0869 -0.1384  0.7267
  100ccc     H1 2882   2.944   7.453   6.775  0.0050  0.1831 -1.8148
  100ccc     H2 2883   3.000   7.611   6.841 -1.8176 -0.8810  1.0513
  100ccc     C2 2884   3.069   7.555   6.643 -0.4856 -0.3235  0.3559
  100ccc     H3 2885   3.083   7.457   6.597 -0.4402 -0.5671  0.8876
  100ccc     H4 2886   3.162   7.611   6.653 -0.8185  0.0092  1.6196
  100ccc     C3 2887   2.956   7.630   6.566  0.2247 -0.0273  0.0711
  100ccc     H5 2888   2.861   7.585   6.598 -0.3398  0.9284 -0.2292
  100ccc     H6 2889   2.962   7.735   6.597 -0.9243 -0.0337  0.3415
  100ccc     N1 2890   2.963   7.622   6.416  0.5049  0.8284 -0.1649
  100ccc     C4 2891   2.905   7.493   6.367 -0.3689  0.3527  0.6339
  100ccc     H7 2892   2.963   7.407   6.401  0.2178  1.2297  1.9080
  100ccc     H8 2893   2.910   7.506   6.258  0.8486  0.8479  0.7370
  100ccc     C5 2894   2.758   7.465   6.402 -0.0859 -0.6649  0.4936
  100ccc     H9 2895   2.698   7.550   6.369  0.9661 -0.1300 -0.0575
  100ccc    H10 2896   2.738   7.454   6.509  2.6201 -0.8107  1.0281
  100ccc     C6 2897   2.701   7.351   6.331  0.0627  0.4825 -0.0662
  100ccc     O1 2898   2.712   7.326   6.212 -0.2872 -0.2006 -0.0326
  100ccc     O2 2899   2.599   7.294   6.389  0.3022  0.4055 -0.0827
  100ccc    H11 2900   2.586   7.339   6.474  2.3597  1.2562 -0.1899
  100ccc     C7 2901   3.095   7.662   6.362  0.4913  0.3422  0.3411
  100ccc    H12 2902   3.162   7.579   6.387 -1.2187 -1.1954 -0.1259
  100ccc    H13 2903   3.120   7.754   6.416  1.3496  1.5647 -2.0585
  100ccc     C8 2904   3.094   7.691   6.203 -0.0054  0.1033 -0.0974
  100ccc    H14 2905   3.191   7.720   6.160 -0.1259 -1.3832 -1.4145
  100ccc    H15 2906   3.065   7.604   6.143  1.4262 -1.1839  1.0170
  100ccc     C9 2907   3.014   7.811   6.167  0.7064 -0.4316 -0.7669
  100ccc     O3 2908   3.032   7.926   6.208 -0.2671 -0.0442  0.0406
  100ccc     O4 2909   2.904   7.787   6.092 -0.0854  0.0430  0.4586
  100ccc    H16 2910   2.916   7.697   6.057  2.7107  0.5835 -0.1298
  100ccc     O5 2911   3.138   7.448   6.863 -0.1627  0.1508  0.3149
  101ccc     C1 2912   3.604   6.830   6.333  0.2067  0.6350 -0.5327
  101ccc     H1 2913   3.697   6.777   6.357 -1.3353 -1.6774  0.4652
  101ccc     H2 2914   3.537   6.807   6.417  0.0607  0.1686 -0.7782
  101ccc     C2 2915   3.542   6.783   6.196  0.0032  0.1232  0.0445
  101ccc     H3 2916   3.530   6.674   6.198  0.6760  0.0229 -0.7997
  101ccc     H4 2917   3.608   6.799   6.109 -0.7409 -2.8469 -1.1418
  101ccc     C3 2918   3.412   6.845   6.154  0.6178 -0.1110  0.4010
  101ccc     H5 2919   3.384   6.818   6.051  0.1323  0.9356  0.2546
  101ccc     H6 2920   3.414   6.955   6.152 -1.3475  0.0200  3.1122
  101ccc     N1 2921   3.305   6.815   6.261 -0.1577  0.1024 -0.4323
  101ccc     C4 2922   3.210   6.925   6.295  0.2572  0.2441  0.1055
  101ccc     H7 2923   3.123   6.889   6.351  1.0317 -0.3128  0.9584
  101ccc     H8 2924   3.173   6.967   6.201  1.2161 -2.2539 -1.4633
  101ccc     C5 2925   3.285   7.036   6.374  0.3427  0.2186 -0.0946
  101ccc     H9 2926   3.360   6.992   6.441  0.4421  2.4608  1.3138
  101ccc    H10 2927   3.343   7.092   6.299 -0.8748  0.8955 -0.5517
  101ccc     C6 2928   3.194   7.134   6.441 -0.1918  0.5273  0.2114
  101ccc     O1 2929   3.143   7.230   6.383  0.5320  0.0328 -0.5965
  101ccc     O2 2930   3.162   7.108   6.567  0.0729 -0.2576 -0.6862
  101ccc    H11 2931   3.217   7.029   6.582 -2.1926 -2.4107 -3.2460
  101ccc     C7 2932   3.246   6.678   6.251  0.4247 -0.2794 -0.6936
  101ccc    H12 2933   3.156   6.677   6.187 -0.9412 -0.8773  1.1745
  101ccc    H13 2934   3.317   6.606   6.209  1.2635 -0.1187  0.4308
  101ccc     C8 2935   3.216   6.613   6.392  0.1551 -0.2482 -0.3431
  101ccc    H14 2936   3.161   6.680   6.459  0.4334  1.2089 -1.5442
  101ccc    H15 2937   3.162   6.517   6.386 -0.2385 -0.1370  1.2466
  101ccc     C9 2938   3.349   6.587   6.466 -0.6349  0.3435 -0.3654
  101ccc     O3 2939   3.405   6.663   6.549 -0.0933  0.5444 -0.2042
  101ccc     O4 2940   3.416   6.486   6.414  0.3145  0.5614 -0.3877
  101ccc    H16 2941   3.358   6.472   6.337 -1.5166  0.6191  0.9643
  101ccc     O5 2942   3.627   6.973   6.331  0.1007  0.5877 -0.5084
  102ccc     C1 2943   3.607   7.465   5.832 -0.0596  0.2014 -0.0044
  102ccc     H1 2944   3.685   7.536   5.864  0.9182 -0.6144 -0.5344
  102ccc     H2 2945   3.657   7.374   5.795  1.9566  1.9401 -1.7186
  102ccc     C2 2946   3.521   7.536   5.717 -0.2287  0.4008 -0.1780
  102ccc     H3 2947   3.486   7.631   5.758  0.3117  1.2435 -1.6398
  102ccc     H4 2948   3.427   7.482   5.701 -2.1982  2.4776  3.6995
  102ccc     C3 2949   3.595   7.565   5.590 -0.2983 -0.4243  0.7506
  102ccc     H5 2950   3.680   7.633   5.602  0.4639 -1.3124  0.3780
  102ccc     H6 2951   3.643   7.468   5.573 -0.7483 -0.7228  1.1518
  102ccc     N1 2952   3.500   7.608   5.483 -0.1190  0.6664  0.0372
  102ccc     C4 2953   3.441   7.744   5.504 -0.7569  0.4768 -0.4249
  102ccc     H7 2954   3.387   7.743   5.599 -1.0779  0.4959 -0.6060
  102ccc     H8 2955   3.366   7.756   5.424 -0.7354  3.2756 -0.0973
  102ccc     C5 2956   3.547   7.858   5.489  0.4567 -0.4799  0.0528
  102ccc     H9 2957   3.592   7.859   5.389  0.5106 -0.1559  0.0800
  102ccc    H10 2958   3.625   7.842   5.565  0.1196 -1.2478  0.2447
  102ccc     C6 2959   3.499   8.003   5.517 -0.0590  0.0834 -0.4518
  102ccc     O1 2960   3.405   8.021   5.587  0.3274 -0.3305 -0.0857
  102ccc     O2 2961   3.589   8.098   5.516 -0.1795  0.3902 -0.4812
  102ccc    H11 2962   3.674   8.057   5.492  0.1238  1.2985 -0.9507
  102ccc     C7 2963   3.541   7.588   5.344  0.0684  0.0747 -0.3448
  102ccc    H12 2964   3.477   7.634   5.268  0.0460  1.5708  0.5664
  102ccc    H13 2965   3.640   7.635   5.333 -0.4408  1.0786 -0.7129
  102ccc     C8 2966   3.560   7.437   5.318 -0.7409  0.5641 -0.0415
  102ccc    H14 2967   3.471   7.385   5.354  0.9867 -1.7158  1.0415
  102ccc    H15 2968   3.651   7.389   5.357  0.0775  1.6425 -0.5934
  102ccc     C9 2969   3.575   7.408   5.170  0.3788 -0.4775  0.6547
  102ccc     O3 2970   3.622   7.491   5.096  0.1667  0.0864  0.4398
  102ccc     O4 2971   3.501   7.314   5.109  0.0060 -0.1828 -0.2096
  102ccc    H16 2972   3.457   7.267   5.182  2.6532 -2.2231  0.1652
  102ccc     O5 2973   3.517   7.429   5.941  0.4189 -0.6860  0.2626
  103ccc     C1 2974   5.729   6.358   8.953  0.1516 -0.2666  0.7195
  103ccc     H1 2975   5.644   6.343   8.886  0.8131 -1.8917  0.2272
  103ccc     H2 2976   5.783   6.263   8.962  0.3877 -0.2419 -0.3794
  103ccc     C2 2977   5.674   6.387   9.097  0.1701  0.3114  0.2699
  103ccc     H3 2978   5.613   6.301   9.128  1.4347 -0.7211 -0.1015
  103ccc     H4 2979   5.602   6.470   9.093 -2.5095 -1.8730  1.3400
  103ccc     C3 2980   5.784   6.398   9.205  0.2361 -0.3344 -0.2423
  103ccc     H5 2981   5.875   6.446   9.168  0.1852  0.6538  0.9116
  103ccc     H6 2982   5.823   6.296   9.220  2.8574  0.8087  1.0048
  103ccc     N1 2983   5.748   6.463   9.331  0.0240  0.2414  0.2613
  103ccc     C4 2984   5.716   6.603   9.309 -0.0706  0.3464 -0.3430
  103ccc     H7 2985   5.609   6.616   9.289  0.0108  2.0954  0.3189
  103ccc     H8 2986   5.774   6.640   9.224  3.0947 -1.8869  0.7421
  103ccc     C5 2987   5.744   6.686   9.436  0.0222  0.6517  0.2487
  103ccc     H9 2988   5.851   6.686   9.461  0.1175  0.9189 -0.1663
  103ccc    H10 2989   5.692   6.635   9.518  0.3124 -1.8806 -1.1204
  103ccc     C6 2990   5.693   6.827   9.428 -0.8437  0.1008 -0.4324
  103ccc     O1 2991   5.686   6.899   9.330  0.0409  0.7700 -0.0247
  103ccc     O2 2992   5.658   6.882   9.545 -0.0040 -0.3486  0.1354
  103ccc    H11 2993   5.680   6.819   9.617  1.0406 -1.1104 -0.8340
  103ccc     C7 2994   5.641   6.389   9.410 -0.8178 -0.3477 -0.2106
  103ccc    H12 2995   5.637   6.434   9.511  0.8470 -1.0891  0.2059
  103ccc    H13 2996   5.544   6.410   9.363 -0.7900 -2.0658 -1.0568
  103ccc     C8 2997   5.656   6.234   9.422  0.0914  0.6672 -0.0835
  103ccc    H14 2998   5.577   6.189   9.484  0.9377 -0.9040 -0.1005
  103ccc    H15 2999   5.662   6.184   9.325  1.3312  0.6341  0.0013
  103ccc     C9 3000   5.795   6.199   9.489  0.1233 -0.0263  0.0165
  103ccc     O3 3001   5.890   6.156   9.428  0.0937 -0.0893 -0.6498
  103ccc     O4 3002   5.816   6.253   9.612 -0.4010  0.3308  0.1806
  103ccc    H16 3003   5.724   6.271   9.640  0.3345  1.6512  1.8507
  103ccc     O5 3004   5.810   6.470   8.905 -0.1837 -0.0809 -0.0057
  104ccc     C1 3005   5.101   6.176   8.538 -0.1546  0.0025 -0.1645
  104ccc     H1 3006   5.145   6.075   8.545 -0.3484 -0.0173  0.8015
  104ccc     H2 3007   5.057   6.199   8.636  0.4286  0.1562  0.0608
  104ccc     C2 3008   4.984   6.181   8.430  0.1182 -0.0154 -1.0612
  104ccc     H3 3009   4.915   6.097   8.449 -0.2068  0.3995 -0.3844
  104ccc     H4 3010   5.023   6.164   8.329 -0.6311  0.2872 -1.4010
  104ccc     C3 3011   4.897   6.309   8.444  0.4386 -0.1785 -0.4961
  104ccc     H5 3012   4.968   6.392   8.432  0.3899 -0.0046  0.3349
  104ccc     H6 3013   4.863   6.309   8.548  0.4659 -1.5300 -0.4837
  104ccc     N1 3014   4.786   6.344   8.351  0.3292  0.6640  0.2666
  104ccc     C4 3015   4.792   6.280   8.214  0.0322  0.0316  0.3686
  104ccc     H7 3016   4.687   6.271   8.184 -0.2951  1.8122  0.9250
  104ccc     H8 3017   4.834   6.180   8.235 -0.0487 -0.2222 -0.6699
  104ccc     C5 3018   4.871   6.360   8.112  0.2878  0.1700  0.0643
  104ccc     H9 3019   4.820   6.455   8.091  0.0364 -0.0745 -0.4484
  104ccc    H10 3020   4.969   6.382   8.156  1.5989  2.5887 -3.8369
  104ccc     C6 3021   4.899   6.294   7.975  0.1326  0.2082 -0.1616
  104ccc     O1 3022   4.876   6.179   7.949  0.2590  0.0896 -0.1562
  104ccc     O2 3023   4.976   6.360   7.891  0.5726 -0.1887  0.1914
  104ccc    H11 3024   4.986   6.444   7.939 -1.8758 -0.2484  0.8505
  104ccc     C7 3025   4.741   6.479   8.364 -0.0145 -0.7917 -0.1914
  104ccc    H12 3026   4.750   6.512   8.469 -0.5727 -1.6655  0.1411
  104ccc    H13 3027   4.802   6.551   8.310 -0.2158  0.5745  1.3720
  104ccc     C8 3028   4.601   6.497   8.310 -0.7557  0.7518 -0.3368
  104ccc    H14 3029   4.592   6.462   8.207 -0.3708  0.1356 -0.1694
  104ccc    H15 3030   4.537   6.437   8.375  0.6962  2.5568  2.8977
  104ccc     C9 3031   4.553   6.639   8.322  0.2184 -0.2075 -0.6649
  104ccc     O3 3032   4.621   6.733   8.369  0.2925 -0.0724  0.3382
  104ccc     O4 3033   4.420   6.650   8.341 -0.2096 -0.3692  0.1247
  104ccc    H16 3034   4.386   6.564   8.312 -1.8320 -0.1736  1.3932
  104ccc     O5 3035   5.195   6.274   8.495 -0.2446 -0.3719 -0.1604
  105ccc     C1 3036   6.672   7.233   8.037 -0.6958  0.2170  0.4288
  105ccc     H1 3037   6.749   7.157   8.059  0.7243  0.2671 -3.7719
  105ccc     H2 3038   6.610   7.188   7.958  3.1077 -1.8750 -1.5571
  105ccc     C2 3039   6.732   7.369   7.998 -0.0660  0.4791 -0.2803
  105ccc     H3 3040   6.762   7.414   8.093  0.3778 -1.3026  0.4218
  105ccc     H4 3041   6.644   7.431   7.975 -1.5019  0.0734  3.8335
  105ccc     C3 3042   6.847   7.379   7.889 -0.3552  0.0933  0.5454
  105ccc     H5 3043   6.838   7.287   7.830  1.0678  0.4735 -0.2768
  105ccc     H6 3044   6.949   7.370   7.930  1.0879  3.2191 -2.1165
  105ccc     N1 3045   6.848   7.507   7.806 -0.2226 -0.6753  0.2565
  105ccc     C4 3046   6.906   7.623   7.867  0.0317  0.1607  0.5427
  105ccc     H7 3047   6.847   7.650   7.955  2.3229  3.1606  1.2657
  105ccc     H8 3048   6.892   7.700   7.790 -1.0742 -0.8822 -0.3120
  105ccc     C5 3049   7.057   7.604   7.901 -0.0363  0.3054 -0.9554
  105ccc     H9 3050   7.110   7.696   7.929  0.5496 -1.0618  2.5778
  105ccc    H10 3051   7.063   7.544   7.992  2.6748 -0.0587 -1.3105
  105ccc     C6 3052   7.140   7.539   7.797  0.4070 -0.0996  0.2299
  105ccc     O1 3053   7.178   7.426   7.811 -0.7324  0.2750 -0.1831
  105ccc     O2 3054   7.193   7.604   7.690  0.1073 -0.0758 -0.5156
  105ccc    H11 3055   7.154   7.690   7.711 -1.6788 -0.9615 -0.0172
  105ccc     C7 3056   6.725   7.535   7.736 -0.1036 -0.0644 -0.4054
  105ccc    H12 3057   6.642   7.557   7.804  0.9594 -0.0026  0.8974
  105ccc    H13 3058   6.742   7.624   7.676  0.7261  0.3153  0.3830
  105ccc     C8 3059   6.692   7.420   7.644  0.1246  0.8915 -0.0408
  105ccc    H14 3060   6.790   7.372   7.628  0.0178  0.0310  1.7747
  105ccc    H15 3061   6.628   7.345   7.690  1.2500  0.1708  0.3678
  105ccc     C9 3062   6.621   7.473   7.519 -0.0715 -0.5070 -0.5724
  105ccc     O3 3063   6.534   7.560   7.530 -0.0579 -0.0918  0.2979
  105ccc     O4 3064   6.683   7.444   7.404  0.0995 -0.2907  0.1803
  105ccc    H16 3065   6.740   7.368   7.425 -0.6994 -0.9685 -0.1135
  105ccc     O5 3066   6.573   7.258   8.143 -0.4919 -0.1790  0.1086
  106ccc     C1 3067   6.731   6.480   8.063 -0.2155  0.7682 -0.9760
  106ccc     H1 3068   6.820   6.535   8.097 -0.6713 -0.5096  2.3774
  106ccc     H2 3069   6.729   6.384   8.116 -1.1218  1.0601 -0.4806
  106ccc     C2 3070   6.747   6.453   7.911  0.1870 -0.5684 -0.2236
  106ccc     H3 3071   6.676   6.379   7.872  0.5562 -1.4637  0.7956
  106ccc     H4 3072   6.852   6.423   7.900  0.7923  1.2393  0.4386
  106ccc     C3 3073   6.726   6.577   7.818  0.1590  0.1680 -0.5204
  106ccc     H5 3074   6.645   6.642   7.854  0.5007 -0.1336  0.8291
  106ccc     H6 3075   6.821   6.631   7.812  0.5038 -0.4850 -0.9620
  106ccc     N1 3076   6.687   6.529   7.675  0.1595  0.0945  0.0275
  106ccc     C4 3077   6.796   6.452   7.595 -0.0000 -0.2581  0.3686
  106ccc     H7 3078   6.808   6.355   7.645  0.4442 -0.8090 -0.8145
  106ccc     H8 3079   6.756   6.444   7.493  0.2645  0.9342  0.1620
  106ccc     C5 3080   6.931   6.528   7.573 -0.0396 -0.0903  0.6326
  106ccc     H9 3081   6.904   6.629   7.537  1.0708  0.6376  1.7992
  106ccc    H10 3082   6.988   6.543   7.666 -1.3960 -1.2993  1.6726
  106ccc     C6 3083   7.025   6.463   7.473 -0.0482  0.0348 -0.3902
  106ccc     O1 3084   7.018   6.498   7.358 -0.3427  0.0362  0.0083
  106ccc     O2 3085   7.082   6.345   7.509 -0.1581  0.2685  0.5382
  106ccc    H11 3086   7.048   6.331   7.599 -1.4618  1.4212  0.2259
  106ccc     C7 3087   6.625   6.635   7.590  1.0549  0.5679  0.0922
  106ccc    H12 3088   6.626   6.597   7.487 -0.7060  0.8517 -0.0448
  106ccc    H13 3089   6.679   6.728   7.610  1.5140  0.3157  0.0383
  106ccc     C8 3090   6.477   6.650   7.627  0.5942 -0.6385  0.2390
  106ccc    H14 3091   6.467   6.693   7.728  2.2149 -1.6953  0.8525
  106ccc    H15 3092   6.419   6.557   7.623 -0.9108  0.2000  1.7739
  106ccc     C9 3093   6.416   6.751   7.537  0.3875  0.0823 -0.1484
  106ccc     O3 3094   6.448   6.781   7.425  0.6416 -0.0184 -0.1410
  106ccc     O4 3095   6.290   6.791   7.567 -0.1600 -0.4125  0.2527
  106ccc    H16 3096   6.271   6.744   7.650  0.8826 -1.3156 -0.0234
  106ccc     O5 3097   6.611   6.552   8.091  0.8183  0.3327  0.0140
  107ccc     C1 3098   5.699   7.479   8.125 -0.9308  0.2149  0.1866
  107ccc     H1 3099   5.760   7.516   8.208  0.6294  3.0551 -2.1191
  107ccc     H2 3100   5.689   7.370   8.116  2.0688  0.0793 -2.0996
  107ccc     C2 3101   5.758   7.502   7.984  0.2074  0.3293 -0.1178
  107ccc     H3 3102   5.770   7.611   7.973  2.7063  0.0690 -0.3062
  107ccc     H4 3103   5.688   7.460   7.911  1.4727 -2.7579  0.3607
  107ccc     C3 3104   5.905   7.437   7.953  0.9289 -0.1232  0.5312
  107ccc     H5 3105   5.892   7.335   7.915 -3.1332  0.3490  0.4014
  107ccc     H6 3106   5.964   7.446   8.045 -2.0345 -0.7257  2.5665
  107ccc     N1 3107   5.965   7.522   7.846  0.5115  1.1404  0.4391
  107ccc     C4 3108   5.890   7.515   7.719 -0.4698  0.0515  0.1260
  107ccc     H7 3109   5.781   7.521   7.732 -0.5030 -0.2231 -0.0092
  107ccc     H8 3110   5.907   7.416   7.674  0.6325 -0.2363  1.1428
  107ccc     C5 3111   5.926   7.623   7.623 -0.2423 -0.2815 -0.4043
  107ccc     H9 3112   5.911   7.722   7.667 -0.4068  0.6478 -2.4697
  107ccc    H10 3113   6.030   7.626   7.589 -0.9467  2.7481 -2.5695
  107ccc     C6 3114   5.837   7.645   7.502  0.0145  0.0534 -0.2222
  107ccc     O1 3115   5.734   7.706   7.506 -0.2215  0.2644  0.0337
  107ccc     O2 3116   5.892   7.620   7.386  0.1879  0.3003 -0.2568
  107ccc    H11 3117   5.958   7.553   7.411  1.2250  1.1100 -0.7835
  107ccc     C7 3118   6.107   7.497   7.817 -0.4572 -0.1772  0.3202
  107ccc    H12 3119   6.120   7.408   7.753 -2.1397 -1.3510  1.5412
  107ccc    H13 3120   6.146   7.581   7.759 -0.6042  0.5420  1.2418
  107ccc     C8 3121   6.192   7.471   7.940 -0.0274  0.4313  0.4772
  107ccc    H14 3122   6.181   7.539   8.026  0.5925  0.9341  0.1638
  107ccc    H15 3123   6.176   7.374   7.989 -2.3142 -0.1128 -1.2855
  107ccc     C9 3124   6.342   7.478   7.915 -0.5911 -0.1071 -0.7670
  107ccc     O3 3125   6.390   7.396   7.840  0.4503 -0.7106 -0.2159
  107ccc     O4 3126   6.388   7.604   7.908  2.3096 -0.5902 -0.6203
  107ccc    H16 3127   6.376   7.584   8.003-45.1595 11.6946  9.5441
  107ccc     O5 3128   5.568   7.546   8.127 -0.2872 -0.2034 -0.2094
  108ccc     C1 3129   4.698   7.280   8.362 -0.3617 -0.0616  0.2874
  108ccc     H1 3130   4.780   7.248   8.296 -0.2648  0.8370 -0.0357
  108ccc     H2 3131   4.668   7.199   8.429  1.8323 -0.7640  0.4528
  108ccc     C2 3132   4.578   7.329   8.286  0.0289  0.4306 -0.5965
  108ccc     H3 3133   4.623   7.409   8.225 -0.1468  0.0986 -1.1655
  108ccc     H4 3134   4.508   7.383   8.351  0.6869 -1.9343  2.1734
  108ccc     C3 3135   4.522   7.225   8.190  0.5526 -0.7006  0.3646
  108ccc     H5 3136   4.594   7.206   8.110 -0.3657  1.4711 -1.0260
  108ccc     H6 3137   4.445   7.277   8.131  1.6270  0.4776 -0.0276
  108ccc     N1 3138   4.475   7.100   8.244  0.3643  0.4911 -0.3003
  108ccc     C4 3139   4.461   7.000   8.141  0.0965  0.5033 -0.9230
  108ccc     H7 3140   4.399   7.037   8.059  0.2998  2.6093 -0.1473
  108ccc     H8 3141   4.407   6.918   8.189 -0.8766  1.4912 -0.3141
  108ccc     C5 3142   4.593   6.940   8.098  0.2056  0.3197  0.4739
  108ccc     H9 3143   4.659   6.999   8.032 -0.0164 -1.2841 -1.2225
  108ccc    H10 3144   4.646   6.933   8.193  0.4627  0.2508  0.3247
  108ccc     C6 3145   4.570   6.805   8.035  0.7305  0.1459 -0.6108
  108ccc     O1 3146   4.467   6.739   8.033  0.2659 -0.2758 -0.4338
  108ccc     O2 3147   4.679   6.728   8.025  0.6817  0.4130  0.1439
  108ccc    H11 3148   4.747   6.797   8.011 -0.2684  1.2479 -0.4532
  108ccc     C7 3149   4.356   7.122   8.326  0.3913 -0.8916  0.3455
  108ccc    H12 3150   4.384   7.194   8.404  0.6497 -0.2102 -0.3787
  108ccc    H13 3151   4.277   7.154   8.258  1.4665 -0.0796 -0.5455
  108ccc     C8 3152   4.313   7.000   8.409 -0.4960 -0.1264  0.1130
  108ccc    H14 3153   4.272   6.918   8.349  0.1557  0.4918 -1.2151
  108ccc    H15 3154   4.404   6.963   8.456  1.4258  1.8738 -1.8866
  108ccc     C9 3155   4.215   7.035   8.521 -0.2309 -0.4111 -0.5290
  108ccc     O3 3156   4.136   7.127   8.514 -0.2411 -0.1732 -0.3670
  108ccc     O4 3157   4.192   6.939   8.613 -0.1588  0.4630 -0.2103
  108ccc    H16 3158   4.268   6.880   8.600 -0.3572  0.2390 -0.3564
  108ccc     O5 3159   4.737   7.392   8.441  0.3336  0.1195  0.4035
  109ccc     C1 3160   4.405   6.723   7.315  0.5440 -0.4698 -0.2168
  109ccc     H1 3161   4.444   6.822   7.342 -0.5961 -0.5724  1.9124
  109ccc     H2 3162   4.347   6.727   7.223  0.2327  1.0141  0.0461
  109ccc     C2 3163   4.315   6.670   7.428 -0.0028  0.5908 -0.2554
  109ccc     H3 3164   4.376   6.654   7.518 -0.9078  1.8516  0.6158
  109ccc     H4 3165   4.274   6.578   7.385 -2.5376  0.1888  2.8311
  109ccc     C3 3166   4.200   6.762   7.466  0.2754  0.1568 -0.1503
  109ccc     H5 3167   4.124   6.764   7.387  1.7596  1.4650 -1.5989
  109ccc     H6 3168   4.243   6.863   7.457 -0.4489  0.4241 -0.6563
  109ccc     N1 3169   4.144   6.745   7.599 -0.7015 -0.2372 -0.3131
  109ccc     C4 3170   4.071   6.617   7.619 -0.9495  0.2880 -0.4261
  109ccc     H7 3171   4.147   6.538   7.613 -0.2003  1.0753 -1.3863
  109ccc     H8 3172   4.003   6.586   7.538  0.6344 -1.8613 -0.9949
  109ccc     C5 3173   4.003   6.614   7.754  0.5038  0.2219 -0.1619
  109ccc     H9 3174   3.949   6.708   7.769  0.3544  0.1824 -0.4318
  109ccc    H10 3175   4.071   6.590   7.836 -0.9809  1.9854  1.6340
  109ccc     C6 3176   3.907   6.493   7.766 -0.3800 -0.1910  0.4440
  109ccc     O1 3177   3.912   6.386   7.707 -0.2573 -0.5865  0.3299
  109ccc     O2 3178   3.785   6.527   7.815  0.0518 -0.4862  0.0581
  109ccc    H11 3179   3.808   6.587   7.888  2.2965 -1.2661  0.0278
  109ccc     C7 3180   4.238   6.796   7.708  0.3425  0.3777  0.3548
  109ccc    H12 3181   4.203   6.767   7.807 -1.2266  0.6188 -0.1189
  109ccc    H13 3182   4.332   6.740   7.710 -0.7980 -1.5013  2.2732
  109ccc     C8 3183   4.258   6.951   7.707  0.0698 -0.3851  0.7138
  109ccc    H14 3184   4.255   6.993   7.605 -0.2084  0.2504  0.9796
  109ccc    H15 3185   4.180   6.993   7.772 -0.7250 -1.2058  0.2988
  109ccc     C9 3186   4.395   6.991   7.769  0.1852 -0.4432  0.1757
  109ccc     O3 3187   4.492   6.920   7.761 -0.2478 -0.6341  0.0899
  109ccc     O4 3188   4.396   7.110   7.825  0.0569 -0.5299  0.1879
  109ccc    H16 3189   4.301   7.130   7.824  0.0376 -0.6373 -1.0095
  109ccc     O5 3190   4.524   6.639   7.295  0.9452 -0.5728 -0.0442
  110ccc     C1 3191   4.693   6.601   6.668 -0.1886  0.3443 -0.2329
  110ccc     H1 3192   4.659   6.597   6.772  0.0270 -0.2073 -0.1835
  110ccc     H2 3193   4.750   6.694   6.659 -0.6493  0.5412 -1.1309
  110ccc     C2 3194   4.584   6.587   6.566 -0.0594  0.0661 -0.6904
  110ccc     H3 3195   4.536   6.489   6.576 -1.4629  0.7590 -0.5497
  110ccc     H4 3196   4.634   6.580   6.468  1.3997  0.5079  0.0051
  110ccc     C3 3197   4.473   6.693   6.582  0.2167  0.2914  0.0042
  110ccc     H5 3198   4.509   6.794   6.563  2.0791 -0.5284 -0.8944
  110ccc     H6 3199   4.435   6.671   6.683  1.8216 -1.8777  0.1759
  110ccc     N1 3200   4.358   6.685   6.485 -0.3292 -0.2517  0.8187
  110ccc     C4 3201   4.274   6.559   6.492 -1.4098  0.3193 -0.0420
  110ccc     H7 3202   4.344   6.477   6.475 -0.2696  1.2269  0.1858
  110ccc     H8 3203   4.198   6.558   6.414 -1.3244  1.3283 -0.1479
  110ccc     C5 3204   4.206   6.535   6.625  0.1213  0.0482 -0.1239
  110ccc     H9 3205   4.286   6.506   6.695  0.2188 -1.8722 -0.9856
  110ccc    H10 3206   4.151   6.623   6.660  0.4827  0.8423 -1.5242
  110ccc     C6 3207   4.095   6.426   6.617 -0.6986 -0.3213 -0.1158
  110ccc     O1 3208   4.066   6.375   6.508  0.2216 -0.1774 -0.5800
  110ccc     O2 3209   4.081   6.342   6.720  0.0343 -0.2586  0.1355
  110ccc    H11 3210   4.130   6.392   6.787  1.6183  0.0592 -1.2299
  110ccc     C7 3211   4.412   6.709   6.348  0.2443  0.4858  0.0185
  110ccc    H12 3212   4.472   6.801   6.341  0.5309  0.4446  1.7814
  110ccc    H13 3213   4.486   6.631   6.327  1.0898  1.1269  0.5968
  110ccc     C8 3214   4.308   6.713   6.230 -0.2333 -0.3312  0.2082
  110ccc    H14 3215   4.221   6.769   6.268 -0.1022 -0.6289  0.9481
  110ccc    H15 3216   4.262   6.615   6.211 -2.0065  0.6310 -0.5882
  110ccc     C9 3217   4.367   6.766   6.103  0.4055 -1.0506  0.3202
  110ccc     O3 3218   4.485   6.767   6.073 -0.1774 -0.1877  0.1375
  110ccc     O4 3219   4.286   6.834   6.022  0.0599 -0.5845  0.2388
  110ccc    H16 3220   4.194   6.828   6.054 -0.5697  2.3402 -0.8217
  110ccc     O5 3221   4.797   6.500   6.658 -0.7383 -0.3915 -0.1766
  111ccc     C1 3222   6.855  10.019   6.845 -0.6793 -0.2072 -0.1388
  111ccc     H1 3223   6.953  10.031   6.798 -1.0209  1.7229 -0.4093
  111ccc     H2 3224   6.863  10.064   6.945  1.3016  0.1813 -0.4571
  111ccc     C2 3225   6.822   9.866   6.856  0.0468  0.6879 -0.0288
  111ccc     H3 3226   6.903   9.808   6.902  0.7570  1.1329 -0.7133
  111ccc     H4 3227   6.813   9.828   6.754 -2.7462 -0.7430  0.7128
  111ccc     C3 3228   6.682   9.851   6.932 -0.1723  0.2994 -0.4752
  111ccc     H5 3229   6.637   9.753   6.913 -1.3460  0.9634 -1.1802
  111ccc     H6 3230   6.608   9.921   6.894 -1.3632 -1.4804 -1.4953
  111ccc     N1 3231   6.702   9.851   7.079  0.0173 -0.1283 -0.2583
  111ccc     C4 3232   6.767   9.740   7.147  0.5279 -0.9124 -0.3532
  111ccc     H7 3233   6.818   9.679   7.072  1.3821  0.5893 -1.0076
  111ccc     H8 3234   6.688   9.670   7.179 -1.2520  0.8765 -0.7300
  111ccc     C5 3235   6.858   9.768   7.267 -0.2205 -0.5244 -0.2099
  111ccc     H9 3236   6.940   9.835   7.240  0.1534 -0.5540  0.8016
  111ccc    H10 3237   6.800   9.822   7.343  0.9650 -1.0343  1.0949
  111ccc     C6 3238   6.906   9.646   7.336 -0.0699 -0.6107 -0.4616
  111ccc     O1 3239   6.903   9.536   7.279  0.3005  0.1099 -0.5317
  111ccc     O2 3240   7.001   9.666   7.432  0.0641 -0.9683 -0.5668
  111ccc    H11 3241   7.006   9.763   7.427  2.9605 -1.1263 -2.4325
  111ccc     C7 3242   6.595   9.915   7.153  0.1388  0.7029  0.8869
  111ccc    H12 3243   6.581   9.860   7.247 -0.6755 -1.6543 -0.5899
  111ccc    H13 3244   6.508   9.885   7.095  1.5337 -0.6538 -0.5620
  111ccc     C8 3245   6.633  10.062   7.174  0.3919 -0.3820 -0.0270
  111ccc    H14 3246   6.728  10.079   7.225 -0.2701  1.3520  0.6491
  111ccc    H15 3247   6.652  10.106   7.075  1.8723  0.4504  0.6223
  111ccc     C9 3248   6.528  10.152   7.234  0.2563 -0.8529  0.1298
  111ccc     O3 3249   6.472  10.237   7.168  0.8962 -0.0928 -0.1958
  111ccc     O4 3250   6.483  10.122   7.354  0.2092  0.4270  0.4517
  111ccc    H16 3251   6.543  10.050   7.382 -2.2777 -1.6599  0.5706
  111ccc     O5 3252   6.737  10.077   6.774 -0.6905  0.2842 -0.0394
  112ccc     C1 3253   5.996  10.465   7.149  0.1120  0.5671 -0.9586
  112ccc     H1 3254   5.930  10.552   7.158 -1.3326 -0.6094  0.0238
  112ccc     H2 3255   5.976  10.405   7.060 -1.6585  0.5329 -0.5543
  112ccc     C2 3256   5.995  10.373   7.273  0.2741 -0.3609  0.2983
  112ccc     H3 3257   6.090  10.318   7.270 -0.4408 -1.5287 -2.9260
  112ccc     H4 3258   5.914  10.306   7.243  0.3071  0.3486 -1.4691
  112ccc     C3 3259   5.964  10.450   7.405  0.2515  0.3418 -0.0036
  112ccc     H5 3260   5.863  10.488   7.386  0.5841  0.8220 -0.8469
  112ccc     H6 3261   6.040  10.528   7.412 -0.8882  1.5562 -0.8793
  112ccc     N1 3262   5.971  10.371   7.526  0.3615 -0.2803 -0.2393
  112ccc     C4 3263   5.973  10.453   7.649 -0.2950  0.0220  0.0111
  112ccc     H7 3264   5.871  10.485   7.675  0.0180 -0.2684  1.6700
  112ccc     H8 3265   6.034  10.543   7.637 -2.1426  1.4445  0.9227
  112ccc     C5 3266   6.032  10.374   7.769  0.6426  0.2480  0.1322
  112ccc     H9 3267   5.949  10.305   7.789  0.8109  0.2960  0.9939
  112ccc    H10 3268   6.124  10.324   7.738  0.0064 -1.5784  1.0777
  112ccc     C6 3269   6.059  10.463   7.890 -0.5762  0.0907  0.2789
  112ccc     O1 3270   5.971  10.489   7.975 -0.9446  0.1498  0.3600
  112ccc     O2 3271   6.181  10.522   7.903 -0.6166 -0.3772 -0.0175
  112ccc    H11 3272   6.216  10.502   7.814 -1.2247  0.4479 -0.4467
  112ccc     C7 3273   5.877  10.253   7.525  0.7280  0.6154  1.0451
  112ccc    H12 3274   5.825  10.239   7.620 -0.8801 -0.3916  0.0363
  112ccc    H13 3275   5.807  10.269   7.443  1.5517 -0.9757 -0.0014
  112ccc     C8 3276   5.957  10.118   7.502 -0.1160  0.6437 -0.0868
  112ccc    H14 3277   6.040  10.139   7.434 -0.9989 -0.5557 -1.5398
  112ccc    H15 3278   6.011  10.086   7.592  0.0878 -0.5424 -0.6219
  112ccc     C9 3279   5.877  10.012   7.438 -0.2130  0.0873 -0.5310
  112ccc     O3 3280   5.770  10.025   7.382  0.2816  0.1115  0.1829
  112ccc     O4 3281   5.946   9.897   7.425 -0.5178 -0.1670  0.0076
  112ccc    H16 3282   6.036   9.923   7.451  0.0777 -1.2334 -0.9719
  112ccc     O5 3283   6.132  10.512   7.136 -0.1246 -0.2588  0.3478
  113ccc     C1 3284   5.673   9.064   6.014 -0.4669 -0.4426 -0.7377
  113ccc     H1 3285   5.682   9.127   5.925 -1.4641  1.3449  0.3837
  113ccc     H2 3286   5.773   9.047   6.057 -0.8119 -0.0175  0.2432
  113ccc     C2 3287   5.607   8.933   5.953  0.7458  0.4820 -0.3951
  113ccc     H3 3288   5.512   8.970   5.913  1.1882 -1.2322 -3.1868
  113ccc     H4 3289   5.584   8.853   6.025 -0.9341  1.3495  0.0410
  113ccc     C3 3290   5.695   8.864   5.846 -0.2097 -0.1828 -1.1649
  113ccc     H5 3291   5.784   8.840   5.904 -0.6774 -0.4117 -0.5372
  113ccc     H6 3292   5.708   8.934   5.762 -1.7923 -0.0202 -1.3043
  113ccc     N1 3293   5.628   8.740   5.800  0.3065 -0.1249 -0.6594
  113ccc     C4 3294   5.517   8.770   5.700 -0.0603  0.0046  0.4885
  113ccc     H7 3295   5.541   8.757   5.594  0.0075  1.6309  0.3041
  113ccc     H8 3296   5.490   8.875   5.712  0.2364  0.0892  0.4116
  113ccc     C5 3297   5.389   8.695   5.737  0.2212 -0.2807 -0.3496
  113ccc     H9 3298   5.397   8.586   5.728 -1.3111 -0.6304  1.9867
  113ccc    H10 3299   5.371   8.723   5.842  0.5105  1.2347 -0.6792
  113ccc     C6 3300   5.273   8.734   5.655  0.4482  0.6185 -0.0884
  113ccc     O1 3301   5.194   8.815   5.690 -0.0890  0.4723  0.2789
  113ccc     O2 3302   5.256   8.669   5.549  0.0229  0.1537  0.6059
  113ccc    H11 3303   5.334   8.611   5.538  0.6760  1.3960 -1.6539
  113ccc     C7 3304   5.719   8.629   5.766  1.4389 -0.0709 -0.1446
  113ccc    H12 3305   5.782   8.608   5.853 -0.2185 -0.5950  0.9458
  113ccc    H13 3306   5.659   8.540   5.746  1.7006 -0.8716  2.3802
  113ccc     C8 3307   5.816   8.650   5.646 -0.2030  0.0200 -0.0399
  113ccc    H14 3308   5.873   8.557   5.639 -0.9733 -0.4847  0.3876
  113ccc    H15 3309   5.769   8.667   5.548  2.4959  1.2279 -1.1878
  113ccc     C9 3310   5.924   8.759   5.673 -0.3473  0.3155 -0.1601
  113ccc     O3 3311   6.019   8.732   5.746  0.0943 -0.8224  0.2282
  113ccc     O4 3312   5.948   8.858   5.590  0.1330  0.2115  0.5645
  113ccc    H16 3313   5.874   8.853   5.527  1.2543  1.5748 -0.9033
  113ccc     O5 3314   5.591   9.137   6.117 -0.2531  0.5417 -0.0262
  114ccc     C1 3315   4.996   9.263   7.033  0.1043 -0.4283 -0.3778
  114ccc     H1 3316   5.084   9.236   7.093 -0.0546 -1.7504 -0.7149
  114ccc     H2 3317   4.942   9.349   7.074 -0.5727 -0.9438 -0.1761
  114ccc     C2 3318   4.903   9.139   7.017  0.3798 -0.8342 -0.0773
  114ccc     H3 3319   4.871   9.110   7.117 -0.8221  0.5967 -0.0421
  114ccc     H4 3320   4.956   9.054   6.971  2.3966 -0.0116  0.6633
  114ccc     C3 3321   4.772   9.179   6.937  0.0302 -0.1710  0.5203
  114ccc     H5 3322   4.804   9.248   6.858  1.4965 -0.6072  0.7138
  114ccc     H6 3323   4.710   9.242   7.001 -2.5861 -1.5840 -0.5364
  114ccc     N1 3324   4.695   9.066   6.888  0.6468 -0.2767 -0.3625
  114ccc     C4 3325   4.588   9.099   6.791 -0.2992  0.2215  0.0936
  114ccc     H7 3326   4.535   9.179   6.845 -2.0300 -0.1748 -0.9844
  114ccc     H8 3327   4.517   9.019   6.765  0.5485  0.4251 -2.9485
  114ccc     C5 3328   4.651   9.135   6.658 -0.0810  0.4308 -0.3639
  114ccc     H9 3329   4.704   9.231   6.658  0.2379  0.2968 -3.7226
  114ccc    H10 3330   4.723   9.056   6.632 -0.6197 -0.4144  0.6694
  114ccc     C6 3331   4.551   9.132   6.541  0.1255  0.0801  0.0644
  114ccc     O1 3332   4.529   9.036   6.471  0.5210 -0.6054 -0.7032
  114ccc     O2 3333   4.448   9.216   6.567 -0.2521 -0.0035 -0.6700
  114ccc    H11 3334   4.487   9.282   6.627  2.0561 -2.3805  0.5269
  114ccc     C7 3335   4.652   8.978   6.992 -0.3222  0.3126  1.7700
  114ccc    H12 3336   4.711   8.985   7.084  0.7730  1.5762  0.9868
  114ccc    H13 3337   4.547   9.003   7.014 -0.2640  0.7122  1.6048
  114ccc     C8 3338   4.657   8.837   6.936  0.4623 -0.1385 -0.0660
  114ccc    H14 3339   4.604   8.827   6.841 -0.3268  0.2121  0.3327
  114ccc    H15 3340   4.761   8.813   6.910  0.3014 -0.8347 -0.0549
  114ccc     C9 3341   4.623   8.735   7.038 -0.4643 -0.5735 -0.1837
  114ccc     O3 3342   4.655   8.744   7.154 -1.1422  0.3017 -0.1439
  114ccc     O4 3343   4.551   8.628   7.000  0.1932 -0.0566 -0.0865
  114ccc    H16 3344   4.526   8.643   6.907  1.3940 -0.2163 -0.4452
  114ccc     O5 3345   5.052   9.296   6.905 -0.3005  0.6153 -0.2280
  115ccc     C1 3346   6.415   8.371   7.634  0.8410  0.2773  0.0317
  115ccc     H1 3347   6.372   8.333   7.727 -0.3434  1.0585 -0.1966
  115ccc     H2 3348   6.344   8.441   7.589  1.9684  1.9260  0.7826
  115ccc     C2 3349   6.428   8.234   7.559 -0.0556  0.2766  0.1451
  115ccc     H3 3350   6.471   8.254   7.459 -1.8725  1.0083 -0.5021
  115ccc     H4 3351   6.330   8.192   7.535 -0.1416 -0.0561  1.0618
  115ccc     C3 3352   6.515   8.126   7.638 -0.5146  0.4513  0.0625
  115ccc     H5 3353   6.464   8.096   7.730 -1.7935 -0.3710 -0.8981
  115ccc     H6 3354   6.603   8.184   7.669  1.6312 -1.8661 -1.4455
  115ccc     N1 3355   6.537   8.007   7.556 -0.4033  0.1977 -0.6510
  115ccc     C4 3356   6.645   7.917   7.605  0.4656 -0.2558  0.4572
  115ccc     H7 3357   6.630   7.818   7.561  0.4854  0.7359 -1.8449
  115ccc     H8 3358   6.640   7.909   7.714 -0.0024 -0.3644  0.4286
  115ccc     C5 3359   6.788   7.970   7.561  0.0824  0.2926 -0.1443
  115ccc     H9 3360   6.872   7.905   7.590 -1.0589 -1.4187 -0.5696
  115ccc    H10 3361   6.800   8.070   7.604  0.2385  0.1278  0.2012
  115ccc     C6 3362   6.790   8.009   7.413 -0.3746  0.6503 -0.3598
  115ccc     O1 3363   6.745   7.922   7.338  0.0363 -0.4850  0.1024
  115ccc     O2 3364   6.897   8.078   7.364  0.3056  0.1682  0.0387
  115ccc    H11 3365   6.919   8.139   7.436 -2.0791  1.9908 -0.7088
  115ccc     C7 3366   6.433   7.958   7.465  0.2853  0.7182 -0.0113
  115ccc    H12 3367   6.459   7.869   7.407 -2.9687  0.4886 -1.2039
  115ccc    H13 3368   6.409   8.036   7.392 -1.9520  0.7807  0.7289
  115ccc     C8 3369   6.309   7.907   7.545  0.5545  0.3474  0.9100
  115ccc    H14 3370   6.320   7.805   7.584  0.8750 -0.3080 -0.8858
  115ccc    H15 3371   6.293   7.982   7.624  0.7495 -0.2471  1.5121
  115ccc     C9 3372   6.187   7.895   7.461 -0.0349  0.2116  0.0815
  115ccc     O3 3373   6.175   7.914   7.343 -0.4616 -0.5049  0.0654
  115ccc     O4 3374   6.074   7.883   7.531  0.0113  0.2581 -0.0155
  115ccc    H16 3375   6.098   7.899   7.624 -2.5916  0.8248  0.6007
  115ccc     O5 3376   6.542   8.423   7.662  0.1227  0.1001 -0.1131
  116ccc     C1 3377   6.104   9.171   8.093 -0.5088 -1.2375  0.6508
  116ccc     H1 3378   6.172   9.252   8.118  1.3436 -1.9319 -1.8952
  116ccc     H2 3379   6.026   9.231   8.046 -0.8779 -1.7262  0.6267
  116ccc     C2 3380   6.039   9.095   8.210  0.4862 -0.3622  0.0599
  116ccc     H3 3381   6.115   9.031   8.256 -0.6527 -2.4983 -0.9558
  116ccc     H4 3382   5.967   9.026   8.163  1.1171 -0.9101 -0.1107
  116ccc     C3 3383   5.969   9.184   8.313 -0.5591 -0.2404 -0.4609
  116ccc     H5 3384   6.047   9.250   8.354 -3.0913  2.7907 -0.4158
  116ccc     H6 3385   5.936   9.119   8.395  1.6163  0.3033  0.9034
  116ccc     N1 3386   5.857   9.263   8.267  0.4265 -0.3626  0.4923
  116ccc     C4 3387   5.739   9.189   8.222  0.1670  0.1879  0.3246
  116ccc     H7 3388   5.764   9.133   8.131  0.7292  0.1706  0.4876
  116ccc     H8 3389   5.667   9.269   8.200  2.3262  2.7586  2.3398
  116ccc     C5 3390   5.670   9.095   8.325 -0.0103 -0.2002 -0.0978
  116ccc     H9 3391   5.740   9.016   8.356 -0.1947 -0.7989 -1.1631
  116ccc    H10 3392   5.630   9.153   8.409 -0.4519 -1.0266  0.2757
  116ccc     C6 3393   5.548   9.028   8.267 -0.8183 -0.7039 -0.1237
  116ccc     O1 3394   5.546   8.992   8.154  0.3407  0.2546  0.5706
  116ccc     O2 3395   5.496   8.946   8.347  0.4273 -0.0264 -0.3912
  116ccc    H11 3396   5.510   8.981   8.436 -2.2393 -0.7235  0.3532
  116ccc     C7 3397   5.833   9.363   8.382 -0.5917  0.1131  0.2686
  116ccc    H12 3398   5.732   9.406   8.371  0.1413  2.0155  0.7452
  116ccc    H13 3399   5.834   9.301   8.472 -1.5034 -0.9407 -0.4297
  116ccc     C8 3400   5.931   9.484   8.388 -0.0470  0.2794  0.6438
  116ccc    H14 3401   5.922   9.528   8.288 -0.8578 -1.3358 -0.0134
  116ccc    H15 3402   6.033   9.448   8.411 -0.5199 -1.4578  0.0911
  116ccc     C9 3403   5.894   9.589   8.480 -0.3327 -0.4332 -0.1714
  116ccc     O3 3404   5.820   9.564   8.572 -0.6144  0.4546 -0.4149
  116ccc     O4 3405   5.983   9.686   8.496  0.0883  0.1176  0.3484
  116ccc    H16 3406   6.027   9.688   8.409  1.3373  1.1939  0.9945
  116ccc     O5 3407   6.158   9.072   8.005  0.1179  0.1903 -0.3426
  117ccc     C1 3408   6.625   9.114   6.085 -0.5428  0.2600  0.3959
  117ccc     H1 3409   6.654   9.116   5.979 -1.0316  0.3666  0.2571
  117ccc     H2 3410   6.515   9.125   6.087 -0.7301 -1.7217  2.2128
  117ccc     C2 3411   6.677   9.230   6.161  0.6495  0.6336 -0.3209
  117ccc     H3 3412   6.650   9.195   6.261 -0.2653 -0.6334 -0.9934
  117ccc     H4 3413   6.613   9.318   6.147 -1.0385 -0.4595  0.4321
  117ccc     C3 3414   6.831   9.259   6.149 -0.2209  0.1667 -0.1980
  117ccc     H5 3415   6.856   9.314   6.057  1.3524  0.9810  0.6976
  117ccc     H6 3416   6.883   9.163   6.144 -1.4108 -0.4243 -1.8732
  117ccc     N1 3417   6.875   9.335   6.271  0.9199 -0.2183  0.2314
  117ccc     C4 3418   6.840   9.477   6.268  0.1002  0.2890 -0.3117
  117ccc     H7 3419   6.868   9.514   6.367 -2.1423 -1.8292  1.1736
  117ccc     H8 3420   6.732   9.493   6.266 -0.2202 -1.5304  1.0428
  117ccc     C5 3421   6.908   9.552   6.149 -0.3758 -0.0976  0.1888
  117ccc     H9 3422   6.851   9.538   6.056  1.3853  0.5960 -1.0267
  117ccc    H10 3423   7.010   9.518   6.128  0.3776  1.6268  0.9186
  117ccc     C6 3424   6.912   9.705   6.169 -0.3332 -0.4264  0.3606
  117ccc     O1 3425   6.819   9.775   6.145  0.1415 -0.3782 -0.3791
  117ccc     O2 3426   6.987   9.736   6.278 -0.1466  0.4251  0.6657
  117ccc    H11 3427   7.070   9.687   6.264  0.3795  1.4911  0.0109
  117ccc     C7 3428   7.009   9.285   6.318 -0.4282  0.3870  0.4593
  117ccc    H12 3429   7.086   9.308   6.243 -2.9133  3.1972 -1.3588
  117ccc    H13 3430   7.005   9.176   6.313 -0.6453  0.4723 -1.6952
  117ccc     C8 3431   7.059   9.342   6.453  0.3917  0.0969 -0.5012
  117ccc    H14 3432   7.057   9.452   6.454  0.8231  0.1016  2.4492
  117ccc    H15 3433   6.992   9.311   6.534  0.1630 -0.0206 -0.7359
  117ccc     C9 3434   7.199   9.291   6.488 -0.3331  0.1276  0.3066
  117ccc     O3 3435   7.255   9.207   6.416  0.0035  0.2260  0.2787
  117ccc     O4 3436   7.274   9.371   6.567  0.2726 -0.0790  0.0852
  117ccc    H16 3437   7.208   9.422   6.618  0.6394  0.2249  0.2551
  117ccc     O5 3438   6.663   8.989   6.143 -0.3682 -0.1103  0.7565
  118ccc     C1 3439   6.333   8.198   5.785 -0.1477  0.2999  0.0121
  118ccc     H1 3440   6.236   8.206   5.836 -1.3454 -3.0869 -1.6278
  118ccc     H2 3441   6.334   8.289   5.723  1.0585  0.9467  0.9422
  118ccc     C2 3442   6.333   8.063   5.707  0.5621  0.3502  0.1072
  118ccc     H3 3443   6.416   8.066   5.634  0.2963 -0.6587 -0.2403
  118ccc     H4 3444   6.245   8.056   5.641 -0.2648 -0.5620  1.2955
  118ccc     C3 3445   6.352   7.937   5.796  0.2990 -0.0525 -0.5878
  118ccc     H5 3446   6.284   7.944   5.881 -0.7055  0.1856 -1.4093
  118ccc     H6 3447   6.448   7.956   5.846 -1.0811  1.0688  1.7063
  118ccc     N1 3448   6.336   7.808   5.724 -0.0236 -0.2524 -0.2921
  118ccc     C4 3449   6.206   7.769   5.674  0.2011 -0.2987 -1.0534
  118ccc     H7 3450   6.205   7.664   5.643  0.3014 -0.5369 -0.2822
  118ccc     H8 3451   6.187   7.828   5.584 -1.9071  0.3271 -0.2562
  118ccc     C5 3452   6.096   7.808   5.771 -0.0691  0.3200 -0.3629
  118ccc     H9 3453   6.121   7.772   5.871 -0.0969  0.9173 -0.1395
  118ccc    H10 3454   6.081   7.916   5.774 -1.0405  0.1866 -0.2632
  118ccc     C6 3455   5.959   7.742   5.736  0.1344  0.2407 -0.8060
  118ccc     O1 3456   5.934   7.686   5.633 -0.6056  0.0091 -0.0827
  118ccc     O2 3457   5.889   7.708   5.845  0.0941  0.4443 -0.3084
  118ccc    H11 3458   5.917   7.772   5.913 -1.0233 -1.1863  1.7757
  118ccc     C7 3459   6.438   7.772   5.617 -0.1028  0.2072 -0.7526
  118ccc    H12 3460   6.421   7.667   5.590  1.7146 -0.1252 -0.6889
  118ccc    H13 3461   6.420   7.831   5.526 -0.3938  0.8054 -0.3074
  118ccc     C8 3462   6.580   7.782   5.668 -0.0730 -0.4066  0.0219
  118ccc    H14 3463   6.614   7.886   5.678 -0.7670 -0.0631 -1.1643
  118ccc    H15 3464   6.576   7.732   5.766 -0.1353  1.4339  0.9856
  118ccc     C9 3465   6.683   7.712   5.586  0.3528  0.0115  0.1994
  118ccc     O3 3466   6.668   7.667   5.474 -0.3434  0.3550  0.0823
  118ccc     O4 3467   6.792   7.672   5.653  0.2919 -0.5315 -0.9167
  118ccc    H16 3468   6.788   7.724   5.735  3.3481 -3.7077  1.4209
  118ccc     O5 3469   6.462   8.196   5.866  0.4784 -0.1963 -0.1826
  119ccc     C1 3470   5.139   9.003   8.278 -0.5788 -0.5013 -0.1778
  119ccc     H1 3471   5.213   9.063   8.332 -0.6202 -1.8657  1.4344
  119ccc     H2 3472   5.182   8.927   8.212  1.6411  0.3135  0.3045
  119ccc     C2 3473   5.054   9.105   8.198  0.1387  0.3715  0.9075
  119ccc     H3 3474   4.992   9.062   8.119  3.0889  1.3765 -2.1121
  119ccc     H4 3475   5.114   9.167   8.130 -1.3319 -0.2578 -0.9884
  119ccc     C3 3476   4.962   9.194   8.290  0.2173  0.0786  0.5640
  119ccc     H5 3477   4.888   9.135   8.345 -1.1477  1.3385  0.1235
  119ccc     H6 3478   4.901   9.263   8.230 -1.1935 -1.7621 -0.1641
  119ccc     N1 3479   5.045   9.273   8.381  0.2906  0.7449 -0.3671
  119ccc     C4 3480   5.124   9.385   8.324 -0.0144  0.5618  0.5175
  119ccc     H7 3481   5.173   9.353   8.231 -1.5803  2.3744 -0.9563
  119ccc     H8 3482   5.056   9.467   8.298 -3.0494 -2.1424 -0.4032
  119ccc     C5 3483   5.235   9.430   8.420 -0.0753 -0.4410 -0.2806
  119ccc     H9 3484   5.206   9.448   8.524 -0.9815 -0.0436 -0.5986
  119ccc    H10 3485   5.278   9.524   8.384 -0.1074  0.8188  2.7928
  119ccc     C6 3486   5.359   9.338   8.421 -0.3846 -0.2054  0.4253
  119ccc     O1 3487   5.403   9.279   8.324 -1.2651 -0.3772 -0.2430
  119ccc     O2 3488   5.375   9.262   8.535  0.1046 -0.7780  0.0652
  119ccc    H11 3489   5.330   9.309   8.608  2.0350 -0.4576  1.0922
  119ccc     C7 3490   4.976   9.309   8.506 -0.1290  0.6685  0.3488
  119ccc    H12 3491   4.929   9.214   8.534 -0.2500  0.8974  0.9340
  119ccc    H13 3492   5.051   9.351   8.574  1.0208  2.0972 -1.7402
  119ccc     C8 3493   4.865   9.415   8.488  0.1704  0.3730  0.4563
  119ccc    H14 3494   4.906   9.510   8.453  0.0352  0.9257  1.7542
  119ccc    H15 3495   4.791   9.388   8.412  0.4471  0.5650  0.1159
  119ccc     C9 3496   4.789   9.446   8.614  0.5819  0.1815 -0.0716
  119ccc     O3 3497   4.791   9.376   8.711 -0.0108  0.2256 -0.0596
  119ccc     O4 3498   4.679   9.524   8.590  0.4423  0.4334 -0.2248
  119ccc    H16 3499   4.692   9.561   8.501 -0.7993  1.9922  0.2161
  119ccc     O5 3500   5.057   8.930   8.379  0.2397 -0.0043  0.2202
  120ccc     C1 3501   5.644   9.341   8.897 -0.3237 -0.0595 -0.1397
  120ccc     H1 3502   5.721   9.285   8.841 -0.0148  0.4671 -0.2459
  120ccc     H2 3503   5.598   9.408   8.824 -1.9895 -0.4785  0.5097
  120ccc     C2 3504   5.716   9.423   9.002  0.6618 -0.0876 -0.0597
  120ccc     H3 3505   5.747   9.351   9.078 -0.0512 -0.9789 -0.6035
  120ccc     H4 3506   5.643   9.486   9.054  0.3219  1.4698 -2.3486
  120ccc     C3 3507   5.843   9.501   8.939 -0.5374  0.5086  0.0596
  120ccc     H5 3508   5.833   9.526   8.833  1.3551 -2.9550 -0.9992
  120ccc     H6 3509   5.930   9.434   8.950 -0.0064  1.3519  1.2229
  120ccc     N1 3510   5.885   9.626   9.012 -0.1408 -0.2296 -0.5641
  120ccc     C4 3511   6.008   9.685   8.957  0.1078 -0.7061  0.4621
  120ccc     H7 3512   6.093   9.625   8.993  0.3234 -0.0682  1.0205
  120ccc     H8 3513   6.034   9.779   9.008  1.4983 -0.8139 -0.0322
  120ccc     C5 3514   6.018   9.719   8.806 -0.3074 -0.2634  0.2304
  120ccc     H9 3515   6.022   9.624   8.752  2.2307  0.4941 -1.0059
  120ccc    H10 3516   5.944   9.785   8.759 -2.2732 -2.0866  0.6997
  120ccc     C6 3517   6.151   9.779   8.768  0.3153 -0.1546 -0.0681
  120ccc     O1 3518   6.217   9.833   8.854 -0.2970  0.2011  0.8668
  120ccc     O2 3519   6.193   9.744   8.650  0.3537 -0.2891  0.2242
  120ccc    H11 3520   6.109   9.713   8.610  0.5130  0.9258 -1.1153
  120ccc     C7 3521   5.888   9.597   9.162 -0.5550  0.0656 -0.9293
  120ccc    H12 3522   5.789   9.590   9.208 -0.1351 -0.5053 -0.0975
  120ccc    H13 3523   5.923   9.495   9.179  1.2279  0.7733 -0.1884
  120ccc     C8 3524   5.972   9.690   9.253  0.3821 -0.4153 -0.1064
  120ccc    H14 3525   6.079   9.666   9.246  0.5139  0.6834 -1.9712
  120ccc    H15 3526   5.954   9.795   9.227 -1.8897 -0.7428  0.0606
  120ccc     C9 3527   5.945   9.657   9.398  0.0895 -0.4268  0.6071
  120ccc     O3 3528   5.919   9.544   9.437 -0.6787 -0.1731 -0.2258
  120ccc     O4 3529   5.990   9.741   9.493  0.3597 -0.4799  0.5682
  120ccc    H16 3530   5.989   9.827   9.448 -0.0566 -0.2385  1.0257
  120ccc     O5 3531   5.545   9.270   8.968  0.4581 -0.0565  0.5867
  121ccc     C1 3532   7.041   8.873   8.811  0.4425 -0.1862  0.2971
  121ccc     H1 3533   6.955   8.919   8.759  0.5878 -0.3256 -0.0734
  121ccc     H2 3534   7.066   8.913   8.910  1.0347 -1.8535  0.8328
  121ccc     C2 3535   7.171   8.883   8.729 -0.2493 -0.1277  0.3072
  121ccc     H3 3536   7.164   8.824   8.637  2.2914 -2.4491  1.5268
  121ccc     H4 3537   7.249   8.831   8.787  0.1371  0.3479  0.2233
  121ccc     C3 3538   7.208   9.027   8.687  0.4406 -0.6568 -0.6118
  121ccc     H5 3539   7.313   9.037   8.654  0.4233  2.5403  0.1586
  121ccc     H6 3540   7.206   9.090   8.776 -1.5674  0.3972 -1.3650
  121ccc     N1 3541   7.111   9.095   8.594  0.5374  0.1836 -1.2203
  121ccc     C4 3542   7.078   9.034   8.462 -0.3376 -0.3247  0.4356
  121ccc     H7 3543   6.991   9.086   8.419  0.7657 -0.0999 -1.6001
  121ccc     H8 3544   7.046   8.932   8.489 -1.3400 -0.4283 -1.0536
  121ccc     C5 3545   7.192   9.037   8.359 -0.4299  0.0490  0.2305
  121ccc     H9 3546   7.226   9.141   8.352 -2.0632  0.4666 -1.7183
  121ccc    H10 3547   7.269   8.968   8.396 -1.1725 -0.7617  0.2646
  121ccc     C6 3548   7.148   8.978   8.228  0.7236  0.0663  0.3954
  121ccc     O1 3549   7.052   8.905   8.206  0.1505  0.2972 -0.3411
  121ccc     O2 3550   7.220   9.014   8.124 -0.0606 -0.2355 -0.0732
  121ccc    H11 3551   7.278   9.076   8.171  0.7499 -0.8186 -0.3013
  121ccc     C7 3552   7.136   9.236   8.605 -0.4248 -0.1738  0.2338
  121ccc    H12 3553   7.135   9.258   8.712 -0.0087 -1.6813  0.5713
  121ccc    H13 3554   7.236   9.264   8.567  0.1942 -2.1900  0.3062
  121ccc     C8 3555   7.033   9.326   8.537  0.8270 -0.6985 -0.1389
  121ccc    H14 3556   7.067   9.342   8.434  0.9783 -0.5434 -0.0642
  121ccc    H15 3557   6.930   9.287   8.532  0.1904  0.8633  0.3300
  121ccc     C9 3558   7.020   9.467   8.594 -0.4020  0.2962 -0.4120
  121ccc     O3 3559   7.107   9.516   8.663 -0.5957  0.6755  0.0976
  121ccc     O4 3560   6.934   9.544   8.533 -0.5891 -0.0448 -0.4500
  121ccc    H16 3561   6.895   9.492   8.461  1.8351 -0.9855 -1.1229
  121ccc     O5 3562   7.006   8.736   8.831 -0.4332  0.0146 -0.2494
  122ccc     C1 3563   6.862   8.993   9.693  0.0796 -0.4675 -0.0114
  122ccc     H1 3564   6.846   8.884   9.701  1.6413 -0.6257  1.2481
  122ccc     H2 3565   6.956   9.023   9.740 -1.3618  0.1061  2.6245
  122ccc     C2 3566   6.753   9.067   9.767  0.3887  0.4473  0.1223
  122ccc     H3 3567   6.753   9.175   9.749  0.3530  1.0612  3.6302
  122ccc     H4 3568   6.758   9.048   9.875 -0.6994 -1.4337 -0.1276
  122ccc     C3 3569   6.620   9.011   9.725  0.2863 -0.1509 -0.8571
  122ccc     H5 3570   6.627   8.901   9.731  0.5180 -0.1347 -0.8242
  122ccc     H6 3571   6.604   9.039   9.620 -0.7051 -0.7621 -0.8746
  122ccc     N1 3572   6.507   9.065   9.799  0.0797 -0.4977  0.4500
  122ccc     C4 3573   6.481   9.209   9.791 -0.0110 -0.7471  0.3857
  122ccc     H7 3574   6.574   9.265   9.809 -0.2243 -0.0630 -0.6035
  122ccc     H8 3575   6.407   9.247   9.862  2.0944  2.2529  1.0681
  122ccc     C5 3576   6.420   9.244   9.651  0.4144 -0.0854  0.6366
  122ccc     H9 3577   6.494   9.229   9.572  0.1215 -2.2217  0.7373
  122ccc    H10 3578   6.331   9.185   9.629 -0.5706  1.7532 -0.4446
  122ccc     C6 3579   6.360   9.385   9.649  0.0649  0.4543  0.2076
  122ccc     O1 3580   6.244   9.407   9.660 -0.0949 -0.2773  0.8380
  122ccc     O2 3581   6.443   9.487   9.640 -0.3264  0.6415 -0.4498
  122ccc    H11 3582   6.533   9.452   9.626 -0.1366  0.5834  0.8748
  122ccc     C7 3583   6.444   8.990   9.907 -0.1835 -0.3019 -0.5305
  122ccc    H12 3584   6.488   8.889   9.899  1.7034  0.5489 -1.3447
  122ccc    H13 3585   6.479   9.033  10.002  1.9727  0.2977 -1.5562
  122ccc     C8 3586   6.292   8.979   9.890  0.2332  0.1751 -0.3861
  122ccc    H14 3587   6.260   9.084   9.880  1.1113  0.3572 -1.2518
  122ccc    H15 3588   6.266   8.923   9.799  1.6642  1.1758 -1.4162
  122ccc     C9 3589   6.234   8.940  10.025 -0.0427 -0.2533 -0.8616
  122ccc     O3 3590   6.294   8.877  10.113 -0.1812  0.2739  0.0655
  122ccc     O4 3591   6.105   8.913  10.013  0.8346 -0.4828 -0.0670
  122ccc    H16 3592   6.083   8.976   9.942  0.1159  0.2035  0.7568
  122ccc     O5 3593   6.862   9.023   9.552 -0.0625  0.2399 -0.7587
  123ccc     C1 3594   7.205   9.220   9.213  0.2323  0.2204  0.3506
  123ccc     H1 3595   7.154   9.140   9.268  0.9806 -0.7241 -0.3128
  123ccc     H2 3596   7.295   9.171   9.173 -0.4664  0.2192 -1.2361
  123ccc     C2 3597   7.239   9.334   9.311 -0.2504  0.0422  0.5542
  123ccc     H3 3598   7.142   9.379   9.336 -0.7398 -0.7753  0.1496
  123ccc     H4 3599   7.290   9.408   9.249 -1.1370 -1.8622 -2.5648
  123ccc     C3 3600   7.307   9.291   9.444  0.5661  1.2197 -0.1086
  123ccc     H5 3601   7.362   9.197   9.429 -0.7697  0.7403 -2.2534
  123ccc     H6 3602   7.229   9.268   9.518  0.8784 -0.4142 -0.2594
  123ccc     N1 3603   7.398   9.393   9.507 -0.0458  0.6463 -0.1650
  123ccc     C4 3604   7.470   9.341   9.627  0.0398  0.7475  0.2610
  123ccc     H7 3605   7.391   9.313   9.698 -1.2069  0.7998 -1.0671
  123ccc     H8 3606   7.526   9.424   9.671  1.8665  0.3347 -1.1795
  123ccc     C5 3607   7.570   9.218   9.603  0.1603  0.4451  0.3174
  123ccc     H9 3608   7.643   9.253   9.529 -0.8583  0.4627 -0.6937
  123ccc    H10 3609   7.516   9.129   9.569 -0.0430  0.2591  1.1090
  123ccc     C6 3610   7.646   9.169   9.727 -0.1350  0.1491  0.0886
  123ccc     O1 3611   7.615   9.073   9.793 -0.2946 -0.9454  0.1086
  123ccc     O2 3612   7.731   9.263   9.776 -0.2777 -0.0769  0.3280
  123ccc    H11 3613   7.730   9.334   9.709  0.3914 -0.8622 -0.5287
  123ccc     C7 3614   7.339   9.524   9.537 -0.1409 -0.1187 -0.3912
  123ccc    H12 3615   7.311   9.531   9.643  0.4510  0.7275 -0.2847
  123ccc    H13 3616   7.246   9.536   9.480  1.0140 -1.6023 -2.6650
  123ccc     C8 3617   7.449   9.635   9.506  0.2748 -0.3064  0.7543
  123ccc    H14 3618   7.478   9.632   9.400 -1.4054  3.4093  0.0836
  123ccc    H15 3619   7.545   9.632   9.557  0.1369 -0.9603  0.9743
  123ccc     C9 3620   7.380   9.766   9.528  0.1163  0.1213 -0.7415
  123ccc     O3 3621   7.313   9.820   9.444 -0.5588 -1.0264 -0.1323
  123ccc     O4 3622   7.354   9.790   9.666  0.1993 -0.1858  0.4913
  123ccc    H16 3623   7.428   9.741   9.705  0.6999 -1.0367 -1.4749
  123ccc     O5 3624   7.128   9.286   9.113 -0.0683 -0.2697 -0.4927
  124ccc     C1 3625   6.650   9.861   8.962  0.1579 -0.0701  0.1851
  124ccc     H1 3626   6.610   9.825   9.057 -3.2190  0.6072 -0.9034
  124ccc     H2 3627   6.744   9.909   8.991  0.9321  0.1603 -2.5049
  124ccc     C2 3628   6.560   9.971   8.901 -0.0557 -0.3266  0.9664
  124ccc     H3 3629   6.466   9.919   8.881 -1.2208  1.9676  0.3240
  124ccc     H4 3630   6.548  10.046   8.980 -3.5141  1.9046 -1.5090
  124ccc     C3 3631   6.627  10.036   8.779  0.0605 -0.9337  0.0255
  124ccc     H5 3632   6.675   9.964   8.712 -0.0904 -0.8954 -0.1234
  124ccc     H6 3633   6.713  10.089   8.822 -0.3125  0.5103 -0.9583
  124ccc     N1 3634   6.542  10.128   8.699  0.6268  0.6310  0.3972
  124ccc     C4 3635   6.416  10.063   8.641  0.5118 -0.2305 -0.3199
  124ccc     H7 3636   6.349  10.024   8.719 -0.3287 -0.5346 -1.1963
  124ccc     H8 3637   6.359  10.131   8.578 -0.5610  1.1545  2.0643
  124ccc     C5 3638   6.445   9.939   8.560  0.6658  0.4573  0.0101
  124ccc     H9 3639   6.463   9.860   8.633  1.5120  0.4594 -0.1876
  124ccc    H10 3640   6.535   9.956   8.499 -0.3108  3.1969 -0.7245
  124ccc     C6 3641   6.338   9.892   8.466  0.0772 -0.2044 -0.4710
  124ccc     O1 3642   6.245   9.961   8.426 -0.4460  0.5766  0.4016
  124ccc     O2 3643   6.366   9.785   8.388  0.3738  0.2752 -0.0993
  124ccc    H11 3644   6.452   9.762   8.427  1.3894  0.7906 -1.9615
  124ccc     C7 3645   6.613  10.232   8.618  0.1180  0.4802  0.3895
  124ccc    H12 3646   6.665  10.174   8.541 -0.0338 -0.7533  1.1907
  124ccc    H13 3647   6.687  10.279   8.684 -0.9738  0.5695  1.5872
  124ccc     C8 3648   6.520  10.336   8.554 -0.0732 -0.2416 -0.1808
  124ccc    H14 3649   6.460  10.376   8.636  2.4406 -0.1777  1.6714
  124ccc    H15 3650   6.457  10.295   8.474  0.5012  0.7633 -1.1681
  124ccc     C9 3651   6.598  10.458   8.504 -0.1915  0.0912  0.6920
  124ccc     O3 3652   6.576  10.500   8.392  0.0437 -0.2735 -0.0796
  124ccc     O4 3653   6.665  10.545   8.585 -0.2074  0.3916 -0.0682
  124ccc    H16 3654   6.649  10.507   8.674 -0.2158 -0.5000 -0.4439
  124ccc     O5 3655   6.668   9.739   8.876 -0.5005 -0.0622 -0.8125
  125ccc     C1 3656   6.303   9.441   8.569 -0.1457 -0.6917 -0.3045
  125ccc     H1 3657   6.207   9.493   8.554 -1.3279 -1.9213  2.7340
  125ccc     H2 3658   6.383   9.515   8.582  0.0670 -1.0927  0.6627
  125ccc     C2 3659   6.340   9.369   8.440  0.2642  0.4807 -0.2104
  125ccc     H3 3660   6.257   9.312   8.396  1.5173 -0.3790 -1.4984
  125ccc     H4 3661   6.420   9.301   8.474 -0.1477 -0.6316 -1.3971
  125ccc     C3 3662   6.398   9.461   8.337  0.0105 -0.2225  0.4290
  125ccc     H5 3663   6.491   9.511   8.366  0.2213  1.1387 -2.4480
  125ccc     H6 3664   6.324   9.541   8.329  0.4631  0.1921  0.3725
  125ccc     N1 3665   6.424   9.395   8.207  0.2616  0.0822 -0.3823
  125ccc     C4 3666   6.436   9.504   8.108 -0.2379 -0.1834  0.1083
  125ccc     H7 3667   6.336   9.543   8.089 -0.6979 -0.2457  2.2690
  125ccc     H8 3668   6.486   9.592   8.152 -0.1032  0.1312 -0.6756
  125ccc     C5 3669   6.494   9.461   7.968 -0.8083 -0.4273  0.1886
  125ccc     H9 3670   6.454   9.362   7.940 -1.4892 -0.4487  1.2409
  125ccc    H10 3671   6.604   9.457   7.974 -0.7276 -0.5298 -1.0472
  125ccc     C6 3672   6.472   9.570   7.858 -0.2722 -0.4092  0.2368
  125ccc     O1 3673   6.402   9.672   7.874 -0.9341  0.1416 -0.2381
  125ccc     O2 3674   6.497   9.528   7.731  0.2475  0.4375 -0.4115
  125ccc    H11 3675   6.524   9.436   7.747 -0.4874  0.1162 -0.9823
  125ccc     C7 3676   6.538   9.305   8.215  0.2548  0.7557 -0.0771
  125ccc    H12 3677   6.618   9.335   8.146 -1.1240 -1.1251 -2.5899
  125ccc    H13 3678   6.589   9.310   8.312 -0.2776 -0.2444  0.2616
  125ccc     C8 3679   6.495   9.156   8.175 -1.1048  0.0106  0.0777
  125ccc    H14 3680   6.422   9.120   8.248  0.3819  0.2120  1.6921
  125ccc    H15 3681   6.453   9.147   8.074 -0.1102  1.3524 -0.4660
  125ccc     C9 3682   6.621   9.058   8.178 -0.3477  0.0176 -0.3791
  125ccc     O3 3683   6.735   9.093   8.205  0.1035  0.1348 -0.1695
  125ccc     O4 3684   6.593   8.929   8.208  0.3274  0.7101 -0.5949
  125ccc    H16 3685   6.504   8.911   8.172  0.0402 -0.8746  0.8441
  125ccc     O5 3686   6.300   9.349   8.679 -0.5339  0.0546  0.7115
  126ccc     C1 3687   6.858   9.594   9.255  0.4934 -0.2967 -0.2429
  126ccc     H1 3688   6.872   9.549   9.354 -0.9165 -1.0006 -0.3497
  126ccc     H2 3689   6.872   9.524   9.172  3.3664 -1.2348  0.9648
  126ccc     C2 3690   6.957   9.715   9.238  0.7260 -0.2383  0.6037
  126ccc     H3 3691   7.040   9.699   9.308 -0.5722  0.4068  2.3252
  126ccc     H4 3692   6.910   9.808   9.273 -1.2367 -0.4065 -1.4724
  126ccc     C3 3693   7.009   9.726   9.094  0.1086 -0.1652  0.3792
  126ccc     H5 3694   6.930   9.746   9.021  0.8334 -2.8779 -1.2752
  126ccc     H6 3695   7.052   9.632   9.057  1.4939  0.6873 -0.2155
  126ccc     N1 3696   7.116   9.824   9.066  0.3264 -0.4098 -0.4603
  126ccc     C4 3697   7.127   9.866   8.920  0.3583  0.3893  0.4786
  126ccc     H7 3698   7.212   9.936   8.919  1.2382 -0.6602  0.5195
  126ccc     H8 3699   7.034   9.919   8.894  0.3887  0.3826  0.3507
  126ccc     C5 3700   7.154   9.762   8.815 -0.5048 -0.3046 -0.4360
  126ccc     H9 3701   7.127   9.665   8.858  2.4372 -1.4160 -0.9433
  126ccc    H10 3702   7.090   9.781   8.728 -0.2389  2.6141 -0.0440
  126ccc     C6 3703   7.294   9.765   8.759  0.5754  0.3729 -0.7079
  126ccc     O1 3704   7.358   9.867   8.759  0.1417 -0.0605  0.6343
  126ccc     O2 3705   7.317   9.676   8.656 -0.1656 -0.0638 -0.1876
  126ccc    H11 3706   7.238   9.620   8.669 -0.7814  0.2098 -2.4799
  126ccc     C7 3707   7.243   9.801   9.134 -0.0056  0.1184  0.1844
  126ccc    H12 3708   7.235   9.746   9.229  0.2689 -0.7812 -0.3098
  126ccc    H13 3709   7.313   9.745   9.071 -0.6013 -0.2414 -0.1617
  126ccc     C8 3710   7.296   9.942   9.170  0.5409  0.1989 -0.7881
  126ccc    H14 3711   7.388   9.937   9.230  0.0414  0.9054  0.0411
  126ccc    H15 3712   7.333   9.993   9.080  1.8588 -0.6346 -0.7401
  126ccc     C9 3713   7.191  10.030   9.238  0.0987  1.0451  0.6785
  126ccc     O3 3714   7.154  10.130   9.175 -0.0620  0.3496 -0.2319
  126ccc     O4 3715   7.159  10.016   9.362  0.6112 -0.1829 -0.3054
  126ccc    H16 3716   7.208   9.936   9.389  1.0491  0.8892  2.1672
  126ccc     O5 3717   6.720   9.643   9.251  0.0983  0.4164  0.3364
  127ccc     C1 3718   4.013   9.964   5.701 -0.5909 -0.0685  0.1988
  127ccc     H1 3719   3.997  10.054   5.762 -1.8362  0.6537 -1.1650
  127ccc     H2 3720   4.035   9.880   5.768 -0.9720  0.3535  0.8572
  127ccc     C2 3721   4.143   9.990   5.611 -0.4403  0.1561  0.2943
  127ccc     H3 3722   4.151   9.905   5.543 -0.2787 -0.2265  0.7907
  127ccc     H4 3723   4.234   9.992   5.673 -0.4514  3.6176  0.3084
  127ccc     C3 3724   4.135  10.116   5.522  0.3438  0.7482  0.5894
  127ccc     H5 3725   4.039  10.116   5.469  0.4195 -1.9439  0.4023
  127ccc     H6 3726   4.211  10.132   5.445  0.5064  0.0543  0.6048
  127ccc     N1 3727   4.134  10.240   5.605 -0.1027  0.4899 -0.0210
  127ccc     C4 3728   4.259  10.275   5.677  0.5753  0.1894 -0.2861
  127ccc     H7 3729   4.288  10.197   5.749  2.2083 -0.0430 -1.1911
  127ccc     H8 3730   4.239  10.364   5.739 -0.0976 -0.1655  0.0186
  127ccc     C5 3731   4.384  10.281   5.589 -0.5611 -0.2454 -0.3452
  127ccc     H9 3732   4.405  10.185   5.541 -0.0451 -0.4045  0.1867
  127ccc    H10 3733   4.360  10.351   5.508 -2.1707 -2.8959 -2.2383
  127ccc     C6 3734   4.504  10.344   5.660  0.4898 -0.5866  0.3963
  127ccc     O1 3735   4.512  10.408   5.762 -0.0392 -0.5870  0.4950
  127ccc     O2 3736   4.609  10.327   5.581  0.3208  0.1447 -0.3534
  127ccc    H11 3737   4.563  10.297   5.500  1.2785 -2.5524  0.0423
  127ccc     C7 3738   4.082  10.359   5.532  0.0876  0.4959  0.1104
  127ccc    H12 3739   4.115  10.454   5.576  0.1594 -0.3558  1.9529
  127ccc    H13 3740   4.109  10.362   5.426 -0.3229  3.7883  0.0401
  127ccc     C8 3741   3.930  10.365   5.548  0.1669  0.1677  0.0485
  127ccc    H14 3742   3.882  10.276   5.505  1.6085 -1.1431  1.0650
  127ccc    H15 3743   3.898  10.381   5.651 -0.8175 -0.1367 -0.2086
  127ccc     C9 3744   3.865  10.471   5.457  0.8808  0.3081 -0.5971
  127ccc     O3 3745   3.849  10.463   5.340  0.6206 -0.5440  0.0316
  127ccc     O4 3746   3.795  10.554   5.523 -0.0806 -0.2438  0.4569
  127ccc    H16 3747   3.830  10.561   5.613  1.4737 -0.8617 -0.0891
  127ccc     O5 3748   3.905   9.931   5.604  1.1415 -0.4933  0.0418
  128ccc     C1 3749   3.411  10.603   5.918 -0.3286  0.0016 -0.1076
  128ccc     H1 3750   3.467  10.576   6.008  0.0423 -0.4624 -0.4756
  128ccc     H2 3751   3.495  10.644   5.860  0.0190  0.3869  0.6578
  128ccc     C2 3752   3.308  10.715   5.946  0.3662  0.3476 -0.3290
  128ccc     H3 3753   3.253  10.732   5.853 -0.0746  1.3599  0.1185
  128ccc     H4 3754   3.357  10.811   5.966  0.6890  0.1480 -0.1593
  128ccc     C3 3755   3.209  10.687   6.060  0.6981 -0.3490  0.5405
  128ccc     H5 3756   3.133  10.620   6.017  1.0437  0.2083 -0.9569
  128ccc     H6 3757   3.168  10.786   6.083  2.1564  0.3867 -0.0104
  128ccc     N1 3758   3.284  10.626   6.175 -0.0006 -0.0969  0.4236
  128ccc     C4 3759   3.191  10.570   6.283 -0.6958 -0.1036 -0.1013
  128ccc     H7 3760   3.111  10.645   6.291  0.6921  1.4328 -0.3392
  128ccc     H8 3761   3.242  10.552   6.378 -1.7435 -1.1069  0.2741
  128ccc     C5 3762   3.128  10.432   6.243 -0.2894 -0.6023  0.0827
  128ccc     H9 3763   3.202  10.367   6.196  0.5890 -0.0466  0.6743
  128ccc    H10 3764   3.051  10.445   6.166  0.5403 -1.9939 -0.9898
  128ccc     C6 3765   3.065  10.359   6.364 -0.2266  0.3010 -0.3319
  128ccc     O1 3766   3.071  10.394   6.475 -0.1815  0.0507 -0.2958
  128ccc     O2 3767   3.042  10.230   6.330 -0.4069 -0.1936 -0.3492
  128ccc    H11 3768   3.060  10.217   6.236 -1.0991 -0.6718 -0.4218
  128ccc     C7 3769   3.376  10.732   6.233  0.0667  0.0529  0.3574
  128ccc    H12 3770   3.438  10.776   6.155 -2.7007 -0.0744 -2.0108
  128ccc    H13 3771   3.315  10.811   6.277  1.6152  1.2760  0.3329
  128ccc     C8 3772   3.476  10.675   6.345  0.0802 -0.1052 -0.0640
  128ccc    H14 3773   3.431  10.634   6.436  2.0649 -2.7156 -0.2174
  128ccc    H15 3774   3.540  10.595   6.307  2.3448  1.6356 -0.0398
  128ccc     C9 3775   3.566  10.786   6.386  0.3760 -0.2470  0.5391
  128ccc     O3 3776   3.679  10.811   6.338  0.1091 -0.4296 -0.3423
  128ccc     O4 3777   3.519  10.854   6.486 -0.3838  0.5895 -0.5871
  128ccc    H16 3778   3.430  10.815   6.493 -0.2105  0.1772 -0.6376
  128ccc     O5 3779   3.350  10.492   5.839 -0.3165  0.6461  0.2234
  129ccc     C1 3780   3.313   8.931   5.472 -0.0799 -0.1617  0.9437
  129ccc     H1 3781   3.374   9.003   5.416  3.1376 -1.7476  2.2896
  129ccc     H2 3782   3.329   8.951   5.578  2.9699  1.2189  0.2915
  129ccc     C2 3783   3.369   8.790   5.441 -0.1567 -0.3197  0.3816
  129ccc     H3 3784   3.478   8.786   5.433 -0.3154 -1.7957 -1.5159
  129ccc     H4 3785   3.331   8.770   5.340 -0.2047  0.2472  0.2845
  129ccc     C3 3786   3.319   8.679   5.540 -0.1656 -0.6620  0.4658
  129ccc     H5 3787   3.214   8.658   5.520 -0.7405  1.9808  0.6030
  129ccc     H6 3788   3.325   8.727   5.639 -0.9191 -1.5571  0.9608
  129ccc     N1 3789   3.409   8.567   5.539 -0.0494  0.5892 -0.1254
  129ccc     C4 3790   3.396   8.477   5.657  0.3000  0.3284 -0.2989
  129ccc     H7 3791   3.315   8.403   5.647  0.3647  0.3376 -0.9080
  129ccc     H8 3792   3.389   8.540   5.746  1.2163 -1.3544  0.9968
  129ccc     C5 3793   3.525   8.394   5.675 -0.2889  0.0659  0.8309
  129ccc     H9 3794   3.550   8.330   5.590 -3.0456 -2.3594  1.7626
  129ccc    H10 3795   3.603   8.471   5.679  0.6338 -0.7286 -1.1977
  129ccc     C6 3796   3.525   8.309   5.796  0.3656  0.7244  0.2381
  129ccc     O1 3797   3.473   8.344   5.902 -0.1271 -0.1833 -0.2186
  129ccc     O2 3798   3.611   8.209   5.799 -0.2892  0.1364 -0.0270
  129ccc    H11 3799   3.606   8.169   5.710  0.6822  2.5600 -1.1981
  129ccc     C7 3800   3.418   8.501   5.410 -0.4061  0.3539 -0.0494
  129ccc    H12 3801   3.424   8.572   5.327 -0.1974 -1.9954 -2.1121
  129ccc    H13 3802   3.507   8.436   5.405 -0.2077  0.6504 -0.4077
  129ccc     C8 3803   3.295   8.405   5.384 -0.5796  0.2422 -0.8797
  129ccc    H14 3804   3.202   8.444   5.429 -0.0886 -1.3267  1.5855
  129ccc    H15 3805   3.323   8.309   5.427  1.2548  1.9701  1.9958
  129ccc     C9 3806   3.262   8.371   5.237  0.5852  0.7395 -0.5594
  129ccc     O3 3807   3.335   8.398   5.145  0.0182  0.4347 -0.1408
  129ccc     O4 3808   3.166   8.278   5.225  0.0761 -0.3222 -0.4221
  129ccc    H16 3809   3.165   8.238   5.313 -1.3784 -1.4822 -0.9467
  129ccc     O5 3810   3.167   8.939   5.437 -0.6639 -0.4039  0.4117
  130ccc     C1 3811   2.444   9.153   5.146 -0.4597 -0.0190  0.3604
  130ccc     H1 3812   2.462   9.143   5.254  3.7579  0.5053 -0.2180
  130ccc     H2 3813   2.496   9.245   5.119  1.3722 -1.2792 -0.4862
  130ccc     C2 3814   2.293   9.153   5.105  0.6935  1.0143 -0.5413
  130ccc     H3 3815   2.293   9.143   4.996  0.5727 -0.0272 -0.4552
  130ccc     H4 3816   2.246   9.245   5.141  1.8471  1.2339  0.4627
  130ccc     C3 3817   2.210   9.034   5.158  0.4304 -0.2455  0.4107
  130ccc     H5 3818   2.220   9.030   5.268  1.1857 -2.3552  0.2841
  130ccc     H6 3819   2.265   8.945   5.128 -1.9154 -1.6882  0.2943
  130ccc     N1 3820   2.067   9.030   5.117 -0.0672 -0.1081 -0.6571
  130ccc     C4 3821   2.046   9.056   4.973  0.0522  0.3505  0.6394
  130ccc     H7 3822   1.938   9.073   4.969 -0.3868 -2.3034 -0.1760
  130ccc     H8 3823   2.094   9.148   4.939  0.9665  0.0633  1.1567
  130ccc     C5 3824   2.100   8.940   4.885  0.3280  0.0387 -0.1465
  130ccc     H9 3825   2.201   8.918   4.920 -0.0373  0.7830  1.3986
  130ccc    H10 3826   2.038   8.852   4.905 -0.2601  0.4770 -0.0177
  130ccc     C6 3827   2.105   8.984   4.738 -0.9498  0.6872 -0.1697
  130ccc     O1 3828   2.045   9.082   4.695 -0.0478 -0.8946  0.7052
  130ccc     O2 3829   2.149   8.893   4.654 -0.4164 -0.3510 -0.4914
  130ccc    H11 3830   2.145   8.803   4.692  0.8101 -0.3523 -0.3485
  130ccc     C7 3831   2.002   8.912   5.168  0.0180  0.3803 -0.7884
  130ccc    H12 3832   1.906   8.900   5.116  0.2093 -2.1143 -0.6279
  130ccc    H13 3833   2.067   8.828   5.140  0.3038  0.3983 -0.1901
  130ccc     C8 3834   1.984   8.919   5.327 -0.5078 -0.0523 -0.0539
  130ccc    H14 3835   1.880   8.899   5.356 -0.8759  0.1091 -1.2226
  130ccc    H15 3836   2.012   9.017   5.366 -0.9744  0.2145 -0.3862
  130ccc     C9 3837   2.072   8.827   5.399 -0.1102  0.4717 -0.5173
  130ccc     O3 3838   2.169   8.768   5.354  0.4321  0.3735 -0.2550
  130ccc     O4 3839   2.041   8.808   5.526 -0.1419 -0.2841  0.4169
  130ccc    H16 3840   1.964   8.867   5.534  0.2737  0.1938  0.9357
  130ccc     O5 3841   2.506   9.037   5.074 -0.1548 -0.2826  0.5597
  131ccc     C1 3842   5.124   8.757   4.426 -0.0273 -0.0367 -0.1633
  131ccc     H1 3843   5.058   8.829   4.476  1.3785 -0.1225  1.8844
  131ccc     H2 3844   5.224   8.802   4.427 -0.8695  1.9381  1.4457
  131ccc     C2 3845   5.083   8.757   4.270 -0.6035 -0.1392 -0.3690
  131ccc     H3 3846   5.091   8.657   4.227  0.0921  0.1335 -0.8740
  131ccc     H4 3847   5.160   8.818   4.222  0.1923 -0.0733  0.9377
  131ccc     C3 3848   4.939   8.811   4.252  0.1622  0.7410  0.0078
  131ccc     H5 3849   4.885   8.749   4.324 -1.3870 -0.0169 -1.7898
  131ccc     H6 3850   4.902   8.777   4.155 -2.1741  0.8694  0.8288
  131ccc     N1 3851   4.931   8.954   4.271  1.2618  1.6605  0.0765
  131ccc     C4 3852   4.803   8.990   4.336 -0.1561 -0.1507 -0.2652
  131ccc     H7 3853   4.785   9.092   4.299  2.3196  0.0858 -0.8797
  131ccc     H8 3854   4.721   8.925   4.303  0.5596 -1.8236  1.2322
  131ccc     C5 3855   4.805   9.013   4.489  0.2440 -0.5331 -0.3090
  131ccc     H9 3856   4.814   8.919   4.545 -0.4136 -0.5229 -0.1812
  131ccc    H10 3857   4.886   9.081   4.519  1.2818 -1.0948 -1.7777
  131ccc     C6 3858   4.671   9.073   4.529 -0.1547 -0.0698 -0.4027
  131ccc     O1 3859   4.580   9.066   4.451  0.1373  0.3490 -0.0480
  131ccc     O2 3860   4.643   9.060   4.660  0.3113  0.2110  0.0717
  131ccc    H11 3861   4.730   9.034   4.696  0.8571 -2.3804 -2.8747
  131ccc     C7 3862   4.972   9.042   4.157  0.0216  0.5169 -0.5662
  131ccc    H12 3863   5.060   8.996   4.112 -0.1392  0.0995 -0.4603
  131ccc    H13 3864   4.891   9.038   4.082  0.7560 -1.2701 -1.2911
  131ccc     C8 3865   5.010   9.187   4.207 -0.3429 -0.5799 -0.0886
  131ccc    H14 3866   5.061   9.236   4.123 -1.5250 -0.8211 -0.9578
  131ccc    H15 3867   4.922   9.247   4.231  1.9190  2.7355  0.3824
  131ccc     C9 3868   5.099   9.194   4.332 -0.6976 -0.0937  0.3840
  131ccc     O3 3869   5.174   9.105   4.368  0.2856  0.2616 -0.4818
  131ccc     O4 3870   5.069   9.294   4.414 -0.5299  0.1926 -0.2494
  131ccc    H16 3871   5.033   9.356   4.348  0.2310 -0.7213 -1.5693
  131ccc     O5 3872   5.106   8.626   4.481 -0.4518  0.6144  0.6512
  132ccc     C1 3873   4.552   8.528   4.344  0.6505 -0.1717  0.4510
  132ccc     H1 3874   4.599   8.451   4.407 -0.9016  0.1994  2.1006
  132ccc     H2 3875   4.447   8.496   4.337  0.7963 -0.9962  1.9140
  132ccc     C2 3876   4.606   8.544   4.201 -0.2017 -0.5446 -0.1812
  132ccc     H3 3877   4.680   8.625   4.199 -2.4186  1.5423 -0.0882
  132ccc     H4 3878   4.529   8.593   4.139  1.1519  2.5126  0.4917
  132ccc     C3 3879   4.660   8.411   4.142 -0.6462  0.3625 -0.2629
  132ccc     H5 3880   4.584   8.333   4.157 -2.0457  1.6978 -0.3485
  132ccc     H6 3881   4.749   8.382   4.199 -0.1352  0.9924 -0.7378
  132ccc     N1 3882   4.675   8.409   3.991  0.3722  0.7102  0.0062
  132ccc     C4 3883   4.762   8.520   3.941 -0.2820  0.1308  0.1958
  132ccc     H7 3884   4.714   8.617   3.958 -0.9415 -0.1810  0.1155
  132ccc     H8 3885   4.760   8.498   3.833  0.1897 -1.4061  0.4897
  132ccc     C5 3886   4.913   8.516   3.983  0.0815  0.3125  0.2688
  132ccc     H9 3887   4.937   8.557   4.082 -0.2174  1.2562 -0.0416
  132ccc    H10 3888   4.939   8.410   3.986 -0.8713  0.0822  0.6465
  132ccc     C6 3889   4.996   8.602   3.888 -0.0913 -0.1712 -0.1664
  132ccc     O1 3890   4.954   8.707   3.846  0.0348 -0.2520 -0.1470
  132ccc     O2 3891   5.124   8.584   3.883 -0.4174 -0.5851  0.3347
  132ccc    H11 3892   5.144   8.529   3.961  0.1302  0.3738  0.8767
  132ccc     C7 3893   4.711   8.272   3.937 -0.0809 -0.5460 -0.2010
  132ccc    H12 3894   4.721   8.285   3.828 -2.2344  3.6833 -0.0067
  132ccc    H13 3895   4.812   8.243   3.968  0.3458  0.2767 -0.8074
  132ccc     C8 3896   4.614   8.155   3.977 -0.0520  0.0902 -0.3585
  132ccc    H14 3897   4.620   8.137   4.085 -0.2616 -0.6835 -0.4707
  132ccc    H15 3898   4.509   8.178   3.954 -0.4163 -0.2283  0.9882
  132ccc     C9 3899   4.655   8.024   3.907 -0.0065  0.0797 -0.1071
  132ccc     O3 3900   4.769   8.007   3.867 -0.0201 -0.1103 -0.4138
  132ccc     O4 3901   4.570   7.924   3.899  0.1107  0.1434 -0.2999
  132ccc    H16 3902   4.498   7.971   3.944  0.2513  0.7222 -0.6732
  132ccc     O5 3903   4.567   8.662   4.402 -0.4951 -0.2407  0.1161
  133ccc     C1 3904   4.033   8.468   6.003  0.4148  0.0611  0.1626
  133ccc     H1 3905   4.111   8.533   5.962 -0.7438  0.2397 -1.8174
  133ccc     H2 3906   3.935   8.513   5.981  2.3357  3.0837 -2.5639
  133ccc     C2 3907   4.037   8.454   6.158  0.1281 -0.1568  0.2461
  133ccc     H3 3908   4.020   8.549   6.212  0.5448 -0.1632  0.3942
  133ccc     H4 3909   4.141   8.423   6.173  0.8813  1.3436 -1.6397
  133ccc     C3 3910   3.933   8.348   6.205 -0.6555 -0.1038 -0.1816
  133ccc     H5 3911   3.960   8.246   6.175  1.6733  1.0471 -2.1378
  133ccc     H6 3912   3.835   8.372   6.160 -0.5687  0.1534 -0.2309
  133ccc     N1 3913   3.924   8.331   6.349 -0.5706  0.3021  0.0479
  133ccc     C4 3914   4.047   8.284   6.412 -0.1350  0.1870 -0.0417
  133ccc     H7 3915   4.135   8.336   6.373 -0.2995  0.5371  0.0559
  133ccc     H8 3916   4.062   8.175   6.402 -1.2263  0.0495 -0.2481
  133ccc     C5 3917   4.048   8.319   6.565 -0.6711 -0.5656 -0.5155
  133ccc     H9 3918   4.044   8.429   6.571 -2.0471 -0.5520 -1.3980
  133ccc    H10 3919   3.969   8.275   6.628 -1.7614  0.5169 -1.0948
  133ccc     C6 3920   4.184   8.292   6.628 -0.2342  0.3266  0.0884
  133ccc     O1 3921   4.219   8.177   6.661 -0.0725 -0.0652 -0.1086
  133ccc     O2 3922   4.283   8.381   6.613 -0.1676 -0.0647 -0.4710
  133ccc    H11 3923   4.233   8.447   6.561  1.0744  1.7113  0.5375
  133ccc     C7 3924   3.793   8.269   6.397  0.3484  0.7090  0.4127
  133ccc    H12 3925   3.782   8.289   6.504  0.2199  0.5353  0.4324
  133ccc    H13 3926   3.711   8.323   6.347 -0.9937 -1.4650  0.2268
  133ccc     C8 3927   3.780   8.117   6.351 -0.0899 -0.1873 -0.6027
  133ccc    H14 3928   3.874   8.069   6.382 -0.2710 -0.4531 -0.4763
  133ccc    H15 3929   3.782   8.122   6.241 -0.7663  1.3941 -0.5550
  133ccc     C9 3930   3.669   8.027   6.407  0.4148 -0.3694 -0.2409
  133ccc     O3 3931   3.607   8.048   6.515 -0.3971 -0.4565  0.1662
  133ccc     O4 3932   3.607   7.944   6.321 -0.2292 -0.4271 -0.4363
  133ccc    H16 3933   3.666   7.950   6.243  0.1266 -0.1013 -0.1443
  133ccc     O5 3934   4.033   8.341   5.934  0.1964  0.4451  0.0209
  134ccc     C1 3935   4.073   7.563   5.737  0.2443  0.7348  0.2662
  134ccc     H1 3936   4.145   7.630   5.688  0.0234  0.6229 -0.2089
  134ccc     H2 3937   4.095   7.556   5.845 -0.9186 -2.0937  0.3737
  134ccc     C2 3938   4.084   7.419   5.680 -0.5071  0.1546 -0.3293
  134ccc     H3 3939   4.179   7.376   5.712 -1.5873 -0.4688  2.1647
  134ccc     H4 3940   4.080   7.440   5.573 -0.0679  0.5257 -0.2761
  134ccc     C3 3941   3.977   7.318   5.731 -0.2671  0.2678 -0.0374
  134ccc     H5 3942   3.879   7.351   5.693  0.4394  0.7892 -1.4233
  134ccc     H6 3943   3.975   7.330   5.840 -2.9014  0.0914 -0.0202
  134ccc     N1 3944   4.005   7.177   5.694  0.1921 -0.1934 -0.2900
  134ccc     C4 3945   4.102   7.117   5.795  1.0128 -0.3239 -0.2175
  134ccc     H7 3946   4.058   7.083   5.889  1.0863  1.0710  0.3383
  134ccc     H8 3947   4.179   7.193   5.810 -0.3766  1.1032 -0.1694
  134ccc     C5 3948   4.185   6.995   5.742 -0.1543  0.6069 -0.4453
  134ccc     H9 3949   4.143   6.894   5.751  0.6350  0.3492  0.4481
  134ccc    H10 3950   4.273   6.987   5.806 -1.4305 -0.2195  1.2527
  134ccc     C6 3951   4.236   7.002   5.601 -0.1287 -0.1857  0.3276
  134ccc     O1 3952   4.170   6.945   5.511  0.2100  0.4480 -0.3689
  134ccc     O2 3953   4.292   7.121   5.572  0.0766 -0.0396 -0.5368
  134ccc    H11 3954   4.340   7.148   5.652  0.5133  1.1918 -1.2069
  134ccc     C7 3955   3.881   7.094   5.685  0.3974  0.6314 -0.0502
  134ccc    H12 3956   3.901   6.990   5.657  0.9281  0.7328 -0.0436
  134ccc    H13 3957   3.828   7.096   5.781  1.0240  0.7000  0.2949
  134ccc     C8 3958   3.780   7.131   5.571  0.1491 -0.9786  0.5512
  134ccc    H14 3959   3.730   7.227   5.589  0.1898 -1.3285  2.7590
  134ccc    H15 3960   3.696   7.060   5.575  0.6152 -1.7078 -1.7276
  134ccc     C9 3961   3.817   7.123   5.427 -0.0754 -0.3890  0.0280
  134ccc     O3 3962   3.881   7.215   5.376  0.5806 -0.6646 -0.1007
  134ccc     O4 3963   3.844   7.000   5.369  0.1895  0.3248  0.2402
  134ccc    H16 3964   3.815   6.936   5.437 -1.0994  0.9981  0.3303
  134ccc     O5 3965   3.943   7.617   5.716  0.1251  0.2369  0.7014
  135ccc     C1 3966   2.628   7.976   5.672 -0.3706  0.2859  0.2007
  135ccc     H1 3967   2.559   7.919   5.736 -0.6708 -0.7348 -1.0106
  135ccc     H2 3968   2.566   8.038   5.606  0.4779  0.2928 -0.5826
  135ccc     C2 3969   2.714   7.889   5.580  0.0022 -0.5648 -0.2575
  135ccc     H3 3970   2.763   7.962   5.515  1.0722 -0.6554  0.4350
  135ccc     H4 3971   2.655   7.827   5.511 -0.3780  2.8535 -3.1595
  135ccc     C3 3972   2.830   7.803   5.650 -0.5706 -0.5402 -0.6717
  135ccc     H5 3973   2.788   7.731   5.720 -2.0584  0.3602 -0.6306
  135ccc     H6 3974   2.892   7.868   5.713 -1.6017  0.4340 -0.6435
  135ccc     N1 3975   2.918   7.732   5.556  0.1866 -0.0366  0.4540
  135ccc     C4 3976   3.004   7.633   5.625  0.2305 -0.1200 -0.2931
  135ccc     H7 3977   2.942   7.565   5.686  0.1669  1.6078  1.6123
  135ccc     H8 3978   3.065   7.679   5.704  0.0443 -0.5144  0.0864
  135ccc     C5 3979   3.085   7.546   5.526  0.0522 -0.0448 -0.0299
  135ccc     H9 3980   3.019   7.496   5.455  0.4215  0.1257 -0.4978
  135ccc    H10 3981   3.161   7.604   5.473 -0.0194  0.0845  0.0092
  135ccc     C6 3982   3.162   7.427   5.590 -0.0103 -0.6175  0.1156
  135ccc     O1 3983   3.169   7.417   5.710  0.4630 -0.1849  0.9630
  135ccc     O2 3984   3.258   7.371   5.513  0.2549  0.2687  0.1161
  135ccc    H11 3985   3.225   7.385   5.423 -1.2195  1.2973  0.8101
  135ccc     C7 3986   2.980   7.819   5.449  1.1131 -0.0147 -0.2107
  135ccc    H12 3987   3.031   7.758   5.374  0.1349 -0.2116 -0.7319
  135ccc    H13 3988   2.904   7.876   5.393 -0.7248 -0.1286  2.0896
  135ccc     C8 3989   3.086   7.915   5.515 -0.3185 -0.2328 -0.2248
  135ccc    H14 3990   3.050   7.965   5.606 -1.6341 -0.5318 -0.5796
  135ccc    H15 3991   3.172   7.855   5.549 -0.6212  0.9789  2.7957
  135ccc     C9 3992   3.135   8.016   5.413 -0.9132 -0.3312 -0.0341
  135ccc     O3 3993   3.218   8.000   5.328 -0.5506  0.3055 -0.9860
  135ccc     O4 3994   3.112   8.145   5.450  0.0906 -0.6426 -0.6770
  135ccc    H16 3995   3.057   8.144   5.529  0.3753 -1.4446 -0.4773
  135ccc     O5 3996   2.713   8.053   5.751  0.4435 -0.7588  0.2157
  136ccc     C1 3997   2.969   8.105   6.575  0.0029  0.1636 -0.6747
  136ccc     H1 3998   3.014   8.009   6.546 -0.2094 -0.7492  1.9317
  136ccc     H2 3999   2.996   8.182   6.501 -0.7757  1.0399 -0.0525
  136ccc     C2 4000   3.031   8.148   6.710  0.6528  0.6667 -0.0257
  136ccc     H3 4001   3.120   8.212   6.704  0.5439  0.7983 -0.2509
  136ccc     H4 4002   2.958   8.210   6.763 -1.4176 -0.2448 -1.6901
  136ccc     C3 4003   3.075   8.030   6.805  0.7194 -0.8159 -0.3082
  136ccc     H5 4004   2.981   7.988   6.842 -0.3845 -0.6529 -2.8324
  136ccc     H6 4005   3.127   7.946   6.757 -0.9781 -1.1823 -1.5541
  136ccc     N1 4006   3.154   8.083   6.920  0.4388 -0.6866 -0.2624
  136ccc     C4 4007   3.295   8.099   6.891  0.1185  0.1713 -0.1211
  136ccc     H7 4008   3.345   8.007   6.923 -0.7969  0.0037  0.8263
  136ccc     H8 4009   3.314   8.102   6.783  0.4222  1.0728 -0.0525
  136ccc     C5 4010   3.367   8.213   6.964 -0.1337 -0.2392 -0.4388
  136ccc     H9 4011   3.472   8.221   6.935  0.5952  0.5999  2.2644
  136ccc    H10 4012   3.358   8.201   7.073  0.1915 -0.0757 -0.3918
  136ccc     C6 4013   3.322   8.352   6.920  0.3132 -0.2539  0.1122
  136ccc     O1 4014   3.294   8.385   6.807 -0.4319  0.3868  0.2742
  136ccc     O2 4015   3.273   8.433   7.016 -0.1452  0.0691 -0.2468
  136ccc    H11 4016   3.283   8.377   7.096 -1.1077  0.8357  0.4316
  136ccc     C7 4017   3.121   8.027   7.056 -0.1060 -0.2801  0.4366
  136ccc    H12 4018   3.200   8.063   7.124 -1.5873 -0.2104  2.1417
  136ccc    H13 4019   3.127   7.918   7.047  0.5478 -0.2041 -0.0749
  136ccc     C8 4020   2.980   8.080   7.099 -0.5409 -0.2375 -0.0761
  136ccc    H14 4021   2.911   8.063   7.016 -0.1988 -1.5470 -0.0997
  136ccc    H15 4022   2.988   8.190   7.099 -0.5625 -0.2068 -2.2927
  136ccc     C9 4023   2.915   8.026   7.218 -0.8773 -0.0872 -0.5382
  136ccc     O3 4024   2.971   7.954   7.298 -0.1168  0.0680  0.1999
  136ccc     O4 4025   2.788   8.058   7.230 -0.1133  0.4498  0.3254
  136ccc    H16 4026   2.775   8.125   7.161  2.3915  1.2454  0.5911
  136ccc     O5 4027   2.825   8.088   6.597 -0.2114 -0.4386  0.6377
  137ccc     C1 4028   2.200   8.484   7.843 -0.1113  0.1353 -0.5780
  137ccc     H1 4029   2.221   8.388   7.892 -3.2322 -0.1154  0.3749
  137ccc     H2 4030   2.260   8.567   7.884 -0.5748  0.1413  0.0907
  137ccc     C2 4031   2.053   8.505   7.882 -0.6965 -0.2788  0.1194
  137ccc     H3 4032   1.991   8.423   7.846 -2.6296  0.2538  2.0901
  137ccc     H4 4033   2.023   8.602   7.841  2.3617 -0.7990 -3.6497
  137ccc     C3 4034   2.040   8.511   8.034 -0.1278 -0.1420  0.3622
  137ccc     H5 4035   1.933   8.519   8.058  0.3762  1.4416  2.2670
  137ccc     H6 4036   2.088   8.603   8.071  0.1367 -0.3108  0.4390
  137ccc     N1 4037   2.092   8.398   8.111  0.0187  0.8403  0.0279
  137ccc     C4 4038   2.041   8.264   8.072  0.4458  0.1621 -0.5358
  137ccc     H7 4039   2.057   8.241   7.966  0.4279  1.3628 -0.8062
  137ccc     H8 4040   1.932   8.276   8.081  0.4658 -1.0344  1.6495
  137ccc     C5 4041   2.087   8.141   8.157 -0.4620  0.2016  0.5041
  137ccc     H9 4042   2.067   8.169   8.261  2.5467  0.1670  1.1208
  137ccc    H10 4043   2.194   8.125   8.141 -0.4365  2.2781 -1.8001
  137ccc     C6 4044   2.015   8.004   8.136  0.1238  0.7655 -1.5092
  137ccc     O1 4045   1.917   7.972   8.203 -0.1420  0.3674 -0.4682
  137ccc     O2 4046   2.038   7.916   8.035 -0.5810  0.1536  0.0903
  137ccc    H11 4047   2.118   7.956   7.997  0.0619  0.3695  1.6392
  137ccc     C7 4048   2.095   8.429   8.253 -0.3230  0.2149  0.1994
  137ccc    H12 4049   2.151   8.352   8.307  0.2918  0.9588  0.6252
  137ccc    H13 4050   2.143   8.527   8.266  0.5999 -0.3876  1.3695
  137ccc     C8 4051   1.953   8.437   8.305  0.3987  0.2846  0.0505
  137ccc    H14 4052   1.900   8.516   8.251 -0.2260  1.8399  2.9110
  137ccc    H15 4053   1.901   8.341   8.290 -1.5113  1.3428 -0.1940
  137ccc     C9 4054   1.952   8.482   8.447  0.2082 -0.2601  0.3329
  137ccc     O3 4055   2.047   8.537   8.492  0.0520 -0.5820  0.2950
  137ccc     O4 4056   1.834   8.520   8.485  0.0342 -0.3613 -0.6183
  137ccc    H16 4057   1.780   8.460   8.430  0.0603  0.1314 -1.1880
  137ccc     O5 4058   2.211   8.488   7.699  0.1177 -0.0922  0.2404
  138ccc     C1 4059   3.042   8.510   7.520 -0.0178  0.1099 -0.0020
  138ccc     H1 4060   2.950   8.551   7.561  0.7901 -0.3265  2.3179
  138ccc     H2 4061   3.090   8.436   7.585  0.9396  0.5746 -0.1679
  138ccc     C2 4062   3.123   8.638   7.488 -0.1371 -0.2027 -0.0044
  138ccc     H3 4063   3.219   8.609   7.443  0.1745 -0.5521  0.8699
  138ccc     H4 4064   3.142   8.687   7.585  0.2977  0.6549 -0.5120
  138ccc     C3 4065   3.049   8.730   7.381  0.2590  0.0332  0.5522
  138ccc     H5 4066   3.045   8.679   7.284 -2.1214 -1.1717  1.2482
  138ccc     H6 4067   2.949   8.743   7.423  0.7299 -0.8337  1.9935
  138ccc     N1 4068   3.101   8.868   7.368 -0.6413 -0.5419 -0.5567
  138ccc     C4 4069   3.241   8.873   7.338 -0.1708 -0.1261  0.3073
  138ccc     H7 4070   3.304   8.821   7.411 -0.7366  0.1811  1.0244
  138ccc     H8 4071   3.274   8.977   7.326 -0.2443 -0.1979 -0.5484
  138ccc     C5 4072   3.287   8.792   7.214  0.5712 -0.7984  0.1776
  138ccc     H9 4073   3.256   8.687   7.213  2.0194 -1.2313  0.4510
  138ccc    H10 4074   3.242   8.840   7.126  2.8964  1.3672  0.1014
  138ccc     C6 4075   3.436   8.802   7.181  0.5684 -0.0864 -0.3256
  138ccc     O1 4076   3.513   8.845   7.265  0.2214  0.7250 -0.0894
  138ccc     O2 4077   3.459   8.869   7.069  0.4865 -0.0004 -0.8290
  138ccc    H11 4078   3.414   8.813   7.004  0.4033 -0.2916 -0.5210
  138ccc     C7 4079   3.061   8.951   7.488  0.0102  0.7020 -0.7069
  138ccc    H12 4080   3.099   8.901   7.579 -2.1272 -1.3348 -0.8699
  138ccc    H13 4081   2.953   8.937   7.499  0.5167 -1.6442  1.8256
  138ccc     C8 4082   3.099   9.104   7.473 -0.0824 -0.3200 -0.1323
  138ccc    H14 4083   3.066   9.133   7.373  0.2640 -2.9478 -1.0674
  138ccc    H15 4084   3.208   9.119   7.466  0.1589 -1.1742  1.5821
  138ccc     C9 4085   3.035   9.200   7.574 -0.2182  0.0272  0.3102
  138ccc     O3 4086   2.924   9.257   7.561 -0.5267 -0.3236 -0.4339
  138ccc     O4 4087   3.093   9.207   7.695  0.2840 -0.5535 -0.4413
  138ccc    H16 4088   3.165   9.142   7.686  1.0162  0.3064 -0.8924
  138ccc     O5 4089   3.012   8.442   7.394  0.1637  0.0139 -0.1519
  139ccc     C1 4090   4.154  10.409   7.493  0.2152 -0.3428  0.2777
  139ccc     H1 4091   4.118  10.445   7.590  1.0006  1.3395 -0.0352
  139ccc     H2 4092   4.156  10.299   7.496  0.9659 -0.3195  0.8454
  139ccc     C2 4093   4.300  10.457   7.463  0.1311 -0.1465 -0.0099
  139ccc     H3 4094   4.365  10.415   7.540 -0.1685 -1.2263 -0.3337
  139ccc     H4 4095   4.312  10.566   7.466 -1.5556 -0.0057  3.2782
  139ccc     C3 4096   4.359  10.396   7.330  0.3542 -0.1009 -0.1514
  139ccc     H5 4097   4.324  10.444   7.239 -0.8055 -0.7351 -0.0514
  139ccc     H6 4098   4.336  10.289   7.318 -2.6717  0.3721  0.9755
  139ccc     N1 4099   4.508  10.394   7.325 -0.3186  0.2116  0.1257
  139ccc     C4 4100   4.576  10.273   7.369 -0.3378  0.5505  0.2716
  139ccc     H7 4101   4.679  10.282   7.404 -0.4082  0.3403  0.5369
  139ccc     H8 4102   4.522  10.223   7.451  0.0104 -0.1343  0.0857
  139ccc     C5 4103   4.578  10.166   7.257 -0.8063 -0.3655  0.1795
  139ccc     H9 4104   4.479  10.130   7.226 -0.9332  1.1016 -1.1497
  139ccc    H10 4105   4.630  10.215   7.173  0.7976 -1.3877  0.5371
  139ccc     C6 4106   4.666  10.047   7.285 -0.0462  0.6678 -0.2016
  139ccc     O1 4107   4.754  10.054   7.372 -0.2052  0.2889 -0.3533
  139ccc     O2 4108   4.673   9.949   7.191 -0.4503  0.5876  0.0438
  139ccc    H11 4109   4.612   9.981   7.122 -0.2181  2.2682  0.5845
  139ccc     C7 4110   4.572  10.525   7.353 -0.0875 -0.5365  0.3160
  139ccc    H12 4111   4.681  10.518   7.341  0.0230 -1.3646  1.6618
  139ccc    H13 4112   4.548  10.557   7.455 -0.6108  2.1492 -0.5870
  139ccc     C8 4113   4.536  10.644   7.254  0.4244  0.5156 -0.6716
  139ccc    H14 4114   4.430  10.670   7.255  0.4115  0.4519  0.1439
  139ccc    H15 4115   4.550  10.607   7.152  0.0452  1.7415 -1.1763
  139ccc     C9 4116   4.618  10.773   7.268 -0.1768  0.2634  0.1464
  139ccc     O3 4117   4.738  10.780   7.285 -0.2001 -0.7551 -0.1639
  139ccc     O4 4118   4.547  10.881   7.274  0.1109 -0.0601 -0.0138
  139ccc    H16 4119   4.455  10.862   7.251 -0.5206  1.8397  0.8149
  139ccc     O5 4120   4.065  10.444   7.385 -0.1495  0.3997 -0.9932
  140ccc     C1 4121   4.465  10.371   6.836  0.5663 -0.1068 -0.0042
  140ccc     H1 4122   4.402  10.413   6.757  1.3607  2.9142  0.8982
  140ccc     H2 4123   4.476  10.438   6.923  2.9616  1.3614 -1.3719
  140ccc     C2 4124   4.608  10.339   6.784  0.0553  0.1518  0.1151
  140ccc     H3 4125   4.592  10.296   6.684 -0.2576 -0.4886  0.4379
  140ccc     H4 4126   4.659  10.268   6.851 -0.2654  0.8519  1.1095
  140ccc     C3 4127   4.687  10.469   6.768 -0.1376  0.4896 -0.2215
  140ccc     H5 4128   4.640  10.526   6.687  0.4766  0.3636 -0.6674
  140ccc     H6 4129   4.788  10.447   6.730 -0.8768 -0.0301 -1.9101
  140ccc     N1 4130   4.702  10.551   6.890 -0.2851  0.0863 -0.5013
  140ccc     C4 4131   4.749  10.471   7.010  0.0827 -0.0391  0.0864
  140ccc     H7 4132   4.689  10.381   7.030  0.2246 -0.2302 -0.3553
  140ccc     H8 4133   4.747  10.530   7.103  0.0684  0.8484 -0.4761
  140ccc     C5 4134   4.894  10.414   7.003  0.2247  0.0306 -0.9643
  140ccc     H9 4135   4.959  10.489   6.958 -1.1073  1.3630 -0.6901
  140ccc    H10 4136   4.894  10.322   6.942 -0.2326 -1.2622  0.9356
  140ccc     C6 4137   4.957  10.382   7.136  0.5164  0.6542  0.4764
  140ccc     O1 4138   4.893  10.363   7.235  0.0939 -0.4154  0.0824
  140ccc     O2 4139   5.092  10.403   7.148  0.3234  0.2106 -0.4253
  140ccc    H11 4140   5.125  10.428   7.060 -2.6870  0.5746 -1.5140
  140ccc     C7 4141   4.770  10.680   6.874 -0.1621  0.0204  0.3053
  140ccc    H12 4142   4.854  10.667   6.805  0.3408 -3.2832  1.4529
  140ccc    H13 4143   4.807  10.717   6.970  0.4948 -0.2616  0.1583
  140ccc     C8 4144   4.667  10.781   6.815  0.2589 -0.2643 -0.0696
  140ccc    H14 4145   4.610  10.746   6.728 -2.3723 -0.4817  1.6723
  140ccc    H15 4146   4.588  10.796   6.889  2.5796  3.0278  1.8869
  140ccc     C9 4147   4.730  10.915   6.784  0.5903 -0.1085  0.4141
  140ccc     O3 4148   4.837  10.951   6.824  0.3688 -0.3080  0.0696
  140ccc     O4 4149   4.645  11.012   6.746 -0.0608  0.0092  0.9740
  140ccc    H16 4150   4.566  10.955   6.741 -1.3039  1.8316 -0.9242
  140ccc     O5 4151   4.402  10.251   6.884 -0.3396  0.5828  0.6496
  141ccc     C1 4152   4.239   9.364   5.927 -0.4263  0.1178  0.2628
  141ccc     H1 4153   4.238   9.269   5.982  0.2438 -1.1408 -1.8535
  141ccc     H2 4154   4.249   9.354   5.819  1.1188  2.1543  0.1754
  141ccc     C2 4155   4.336   9.475   5.985 -0.1779 -0.0328 -0.0133
  141ccc     H3 4156   4.296   9.572   5.954 -2.1457 -0.7359  0.2088
  141ccc     H4 4157   4.430   9.452   5.933  0.3837  1.6017  0.2570
  141ccc     C3 4158   4.369   9.485   6.137 -0.0030 -0.0581  0.2360
  141ccc     H5 4159   4.450   9.557   6.153  2.5351 -2.3711 -1.6281
  141ccc     H6 4160   4.401   9.388   6.179 -0.3920  0.0702  0.8403
  141ccc     N1 4161   4.245   9.525   6.212 -0.1702 -0.7236  0.5648
  141ccc     C4 4162   4.174   9.652   6.171  0.0198  0.0883 -0.4868
  141ccc     H7 4163   4.099   9.677   6.247  0.7597 -2.7585  1.2527
  141ccc     H8 4164   4.124   9.642   6.074  0.6038 -1.2149 -0.6681
  141ccc     C5 4165   4.276   9.768   6.152  0.0210  0.3740  0.0343
  141ccc     H9 4166   4.324   9.780   6.250 -0.0834  0.6000  0.0576
  141ccc    H10 4167   4.354   9.751   6.077 -0.2941  0.5262 -0.3298
  141ccc     C6 4168   4.212   9.901   6.123 -0.7185  0.4063 -0.2182
  141ccc     O1 4169   4.096   9.923   6.140 -0.2915  0.4716 -0.4148
  141ccc     O2 4170   4.313   9.994   6.122 -0.3484  0.0224  0.0906
  141ccc    H11 4171   4.390   9.951   6.162  0.2368 -0.5000 -1.5521
  141ccc     C7 4172   4.153   9.421   6.265  0.0430 -0.3953  0.0706
  141ccc    H12 4173   4.065   9.471   6.307 -1.5150 -0.7834 -2.5927
  141ccc    H13 4174   4.110   9.349   6.193 -1.4266  0.8180 -0.2854
  141ccc     C8 4175   4.223   9.346   6.383 -0.4913 -0.0713 -0.0367
  141ccc    H14 4176   4.264   9.418   6.455 -2.4985  0.6500  0.4272
  141ccc    H15 4177   4.303   9.284   6.341  0.0131  1.2120 -1.0162
  141ccc     C9 4178   4.130   9.260   6.460 -0.1468  0.1883  0.0195
  141ccc     O3 4179   4.016   9.232   6.428  0.2662  1.1351 -0.2370
  141ccc     O4 4180   4.191   9.174   6.540  0.0913 -0.0659 -0.1519
  141ccc    H16 4181   4.282   9.207   6.547  0.3151  0.0666 -2.9808
  141ccc     O5 4182   4.109   9.424   5.952  0.2713 -0.1154  0.1397
  142ccc     C1 4183   3.292   9.523   5.512 -0.3300 -0.6524  0.5209
  142ccc     H1 4184   3.305   9.468   5.418  1.8134 -1.8223  1.4476
  142ccc     H2 4185   3.243   9.459   5.587 -0.4756  0.8795  1.7454
  142ccc     C2 4186   3.204   9.650   5.485  1.1760  0.1896 -0.8849
  142ccc     H3 4187   3.194   9.715   5.573 -0.3288 -1.4089  0.1677
  142ccc     H4 4188   3.266   9.698   5.409  0.8542  2.0347 -0.0323
  142ccc     C3 4189   3.062   9.618   5.425  0.5407 -0.0926  0.0307
  142ccc     H5 4190   3.067   9.559   5.333  0.8526 -0.6946  0.4332
  142ccc     H6 4191   3.012   9.560   5.503 -0.1318  1.3936  0.7324
  142ccc     N1 4192   2.975   9.737   5.381 -1.0139  0.2127 -0.2578
  142ccc     C4 4193   3.051   9.828   5.281  0.1784  0.0770 -0.4666
  142ccc     H7 4194   3.082   9.776   5.190 -0.5484 -0.7196 -0.2703
  142ccc     H8 4195   3.145   9.850   5.332 -0.1477  0.8751 -0.1970
  142ccc     C5 4196   2.970   9.954   5.251 -0.4359 -0.4942  0.0336
  142ccc     H9 4197   2.881   9.931   5.191  0.3113  0.2736 -1.3915
  142ccc    H10 4198   2.944  10.003   5.345  0.5068 -0.0939  0.0860
  142ccc     C6 4199   3.051  10.047   5.169 -0.5993  0.0770 -0.6350
  142ccc     O1 4200   3.132  10.122   5.220 -0.4255  0.0844 -0.4136
  142ccc     O2 4201   3.056  10.030   5.036  0.3412  0.2289  0.2976
  142ccc    H11 4202   3.010   9.946   5.016 -0.9211  1.1399 -0.7192
  142ccc     C7 4203   2.844   9.697   5.331  0.5845 -0.1286  0.6455
  142ccc    H12 4204   2.783   9.778   5.289  0.7236 -1.2208 -1.7298
  142ccc    H13 4205   2.847   9.625   5.248 -1.1661  0.3818  0.1078
  142ccc     C8 4206   2.755   9.636   5.442 -1.3194  0.0150  0.9630
  142ccc    H14 4207   2.655   9.616   5.399 -0.6880  0.8071 -0.9485
  142ccc    H15 4208   2.806   9.550   5.486  0.0193 -0.9430 -2.3052
  142ccc     C9 4209   2.735   9.728   5.560  0.7728  0.7336  0.4397
  142ccc     O3 4210   2.738   9.848   5.547  0.0014  0.1575  0.3038
  142ccc     O4 4211   2.730   9.664   5.679  0.6816  0.2857  0.6384
  142ccc    H16 4212   2.683   9.588   5.642  0.2861  1.0815 -0.5176
  142ccc     O5 4213   3.416   9.545   5.583 -0.1217 -0.5664  0.0809
  143ccc     C1 4214   5.268   7.046   7.519 -0.4938  0.2790 -0.1818
  143ccc     H1 4215   5.301   7.094   7.612 -0.5233  3.5132 -1.7630
  143ccc     H2 4216   5.276   7.115   7.434 -0.8239 -1.6804 -1.8305
  143ccc     C2 4217   5.121   7.017   7.548  0.4656  0.5655  0.1602
  143ccc     H3 4218   5.071   7.109   7.580  2.3269  0.7143  2.8356
  143ccc     H4 4219   5.112   6.955   7.638  2.4659 -0.4646 -0.3255
  143ccc     C3 4220   5.045   6.965   7.418  0.8215  0.3039 -0.3639
  143ccc     H5 4221   5.094   6.877   7.374  1.0649  0.4693 -0.4236
  143ccc     H6 4222   5.066   7.038   7.339  0.2415 -1.3980 -2.1315
  143ccc     N1 4223   4.898   6.956   7.437 -0.2435 -0.6905  0.1287
  143ccc     C4 4224   4.870   6.833   7.509 -0.5043 -0.6151 -0.3600
  143ccc     H7 4225   4.946   6.810   7.585 -1.2809 -0.4763  0.4761
  143ccc     H8 4226   4.875   6.751   7.436  0.6495 -0.1932 -0.7664
  143ccc     C5 4227   4.741   6.831   7.583  0.2632  1.0498  0.0609
  143ccc     H9 4228   4.746   6.909   7.661 -2.1672  1.9993 -0.7179
  143ccc    H10 4229   4.660   6.865   7.519  0.1006  0.6752  0.0698
  143ccc     C6 4230   4.708   6.700   7.648  0.6900 -0.1892 -0.1991
  143ccc     O1 4231   4.771   6.602   7.625  0.5176  0.7102  0.2355
  143ccc     O2 4232   4.588   6.686   7.693  0.2137  0.4737  0.2579
  143ccc    H11 4233   4.560   6.779   7.695  1.9442  1.0118  1.1913
  143ccc     C7 4234   4.815   6.982   7.322  0.3859  0.1159 -0.3520
  143ccc    H12 4235   4.859   6.933   7.234 -0.3818 -0.0230 -0.6579
  143ccc    H13 4236   4.712   6.948   7.339  0.9462 -0.4240  2.2458
  143ccc     C8 4237   4.809   7.130   7.299  0.2408  0.8294 -0.0033
  143ccc    H14 4238   4.914   7.156   7.286  1.0072  0.0451  3.9523
  143ccc    H15 4239   4.755   7.149   7.206  1.2644  0.5790 -0.6499
  143ccc     C9 4240   4.745   7.210   7.413 -0.8092  0.1931 -0.9345
  143ccc     O3 4241   4.682   7.163   7.507 -0.0220  0.1186 -0.0685
  143ccc     O4 4242   4.767   7.338   7.403 -0.1575 -0.3952 -0.3611
  143ccc    H16 4243   4.815   7.349   7.319  0.5760  2.9196  0.4087
  143ccc     O5 4244   5.330   6.914   7.493 -0.2515  0.2422 -0.1928
  144ccc     C1 4245   5.500   6.135   7.396  0.4739 -0.1313  0.3593
  144ccc     H1 4246   5.498   6.053   7.323  1.4859  0.8401 -0.7918
  144ccc     H2 4247   5.535   6.106   7.496 -1.0996  2.1140  1.6129
  144ccc     C2 4248   5.345   6.177   7.403 -0.8701 -0.5726 -0.3577
  144ccc     H3 4249   5.327   6.206   7.298  1.5315 -2.4895 -1.3587
  144ccc     H4 4250   5.335   6.267   7.464  1.2479 -0.9462  0.5726
  144ccc     C3 4251   5.251   6.063   7.455 -0.2758 -0.4485  0.1177
  144ccc     H5 4252   5.233   6.086   7.561 -1.3025 -1.8047  0.2486
  144ccc     H6 4253   5.304   5.967   7.456  0.8914  0.1636 -1.2290
  144ccc     N1 4254   5.124   6.054   7.392 -0.3940 -0.5680 -0.3229
  144ccc     C4 4255   5.021   5.975   7.468 -0.2949  0.3056  0.1586
  144ccc     H7 4256   4.937   5.934   7.413  0.3321 -0.5072 -0.2040
  144ccc     H8 4257   5.080   5.893   7.511 -0.6000  0.1870  0.3449
  144ccc     C5 4258   4.963   6.063   7.574  0.0490 -0.0961  0.1494
  144ccc     H9 4259   4.923   6.148   7.518  2.0765  0.7516 -0.0393
  144ccc    H10 4260   5.036   6.099   7.647 -0.1446 -0.6230  0.6125
  144ccc     C6 4261   4.828   6.009   7.634  0.2564  0.4211  0.9337
  144ccc     O1 4262   4.805   5.895   7.668 -0.1519  0.0818 -0.2383
  144ccc     O2 4263   4.731   6.097   7.654  0.0611  0.6157  0.1271
  144ccc    H11 4264   4.782   6.178   7.638 -0.2297  0.8555  0.4211
  144ccc     C7 4265   5.133   6.024   7.249  0.0677  0.2037  0.2032
  144ccc    H12 4266   5.208   6.090   7.205 -0.4124  0.8414  0.3356
  144ccc    H13 4267   5.158   5.921   7.223  0.8251 -0.1895  2.3449
  144ccc     C8 4268   5.006   6.073   7.170 -0.2195 -0.0900  0.0099
  144ccc    H14 4269   4.969   6.175   7.185 -1.5206 -0.4849 -0.4061
  144ccc    H15 4270   4.926   6.004   7.200  0.7143 -0.8550  0.7431
  144ccc     C9 4271   5.034   6.061   7.025 -0.5456  0.2105 -0.2550
  144ccc     O3 4272   5.139   6.048   6.965 -0.0569  0.1545 -0.4128
  144ccc     O4 4273   4.932   6.074   6.944  0.4133 -0.4732 -0.3678
  144ccc    H16 4274   4.856   6.082   7.004  1.4546 -1.8946  1.1784
  144ccc     O5 4275   5.582   6.237   7.332  0.0651 -0.0374  0.2765
  145ccc     C1 4276   6.650   7.188   6.998 -0.5313  0.5738 -0.3689
  145ccc     H1 4277   6.670   7.233   7.096  2.0316 -1.8749  0.2830
  145ccc     H2 4278   6.627   7.082   7.011  1.6716  0.0607 -0.3451
  145ccc     C2 4279   6.781   7.206   6.917 -0.5774 -0.2749  0.8664
  145ccc     H3 4280   6.815   7.310   6.916 -0.9937 -0.1381  0.6459
  145ccc     H4 4281   6.855   7.135   6.955 -0.5607 -0.8220 -0.1803
  145ccc     C3 4282   6.763   7.161   6.770  0.4353  0.2855 -0.6157
  145ccc     H5 4283   6.713   7.243   6.719 -1.2749  0.2125  0.9063
  145ccc     H6 4284   6.701   7.070   6.762  0.2532  0.4869 -1.5051
  145ccc     N1 4285   6.889   7.127   6.696 -0.2421  0.7117  0.4998
  145ccc     C4 4286   6.868   7.106   6.551  0.2028  0.5497  0.8198
  145ccc     H7 4287   6.956   7.136   6.493  1.3291 -0.6917  1.8677
  145ccc     H8 4288   6.786   7.172   6.522  1.8258  3.4571  2.5647
  145ccc     C5 4289   6.818   6.956   6.523 -0.3435 -0.3736 -0.3212
  145ccc     H9 4290   6.719   6.955   6.570  0.1553  0.8998  0.8176
  145ccc    H10 4291   6.809   6.942   6.415  1.0153 -1.7218 -0.2780
  145ccc     C6 4292   6.911   6.860   6.593 -0.2000 -0.0129 -0.4756
  145ccc     O1 4293   7.030   6.870   6.597  0.0175 -0.4764 -0.0036
  145ccc     O2 4294   6.854   6.758   6.657 -0.1957 -0.3584 -0.4043
  145ccc    H11 4295   6.765   6.772   6.621  0.8188  0.7486 -2.6053
  145ccc     C7 4296   7.010   7.201   6.738  0.3263  0.5103 -0.3631
  145ccc    H12 4297   7.024   7.205   6.846 -1.0060  0.9687 -0.2031
  145ccc    H13 4298   7.099   7.152   6.697  1.5122  0.1985  2.5133
  145ccc     C8 4299   7.009   7.345   6.676  0.0373 -0.2584 -0.3345
  145ccc    H14 4300   6.988   7.333   6.569  2.2830 -2.7793 -0.5624
  145ccc    H15 4301   6.922   7.399   6.714 -0.3071 -0.0628 -1.3837
  145ccc     C9 4302   7.139   7.418   6.695  0.2308  0.0027 -0.6664
  145ccc     O3 4303   7.245   7.364   6.734  0.4912 -0.6434  0.3707
  145ccc     O4 4304   7.154   7.518   6.605  0.0772 -0.3523 -0.1434
  145ccc    H16 4305   7.061   7.532   6.581 -0.2845 -0.6147  1.0968
  145ccc     O5 4306   6.551   7.265   6.926 -0.0042  0.0080 -0.0038
  146ccc     C1 4307   5.938   7.899   6.645  0.1336  0.4962 -0.7983
  146ccc     H1 4308   6.035   7.946   6.625 -0.0848  1.1136 -0.3831
  146ccc     H2 4309   5.929   7.807   6.585 -2.2380  0.0578  0.1709
  146ccc     C2 4310   5.836   8.004   6.618  0.3292 -0.7788 -0.7160
  146ccc     H3 4311   5.856   8.044   6.518  0.5299 -1.6760 -1.0461
  146ccc     H4 4312   5.856   8.094   6.678 -1.5083 -0.0910 -1.1250
  146ccc     C3 4313   5.691   7.962   6.631  0.0402  0.3966 -0.2163
  146ccc     H5 4314   5.623   8.039   6.591  0.6796  0.5870 -0.9635
  146ccc     H6 4315   5.666   7.944   6.736  0.0741 -0.0224 -0.2803
  146ccc     N1 4316   5.647   7.837   6.563 -0.4519 -0.0190  0.6979
  146ccc     C4 4317   5.508   7.791   6.592 -0.3213  0.1896 -0.4798
  146ccc     H7 4318   5.485   7.707   6.526  0.9036 -0.9190  0.4664
  146ccc     H8 4319   5.439   7.873   6.569 -2.4812 -0.8864  1.9004
  146ccc     C5 4320   5.493   7.738   6.733 -0.5918  0.7066 -0.8822
  146ccc     H9 4321   5.394   7.691   6.739  0.5959 -1.7730 -0.0987
  146ccc    H10 4322   5.496   7.824   6.802 -1.5216 -1.0597  1.4617
  146ccc     C6 4323   5.590   7.631   6.785  0.6755  0.6489  0.3646
  146ccc     O1 4324   5.668   7.571   6.710  0.4053 -0.2357  0.0287
  146ccc     O2 4325   5.549   7.567   6.895 -0.0623  0.3503 -0.2685
  146ccc    H11 4326   5.504   7.640   6.940  0.4715  1.2123 -1.1036
  146ccc     C7 4327   5.670   7.852   6.417 -0.1468  0.2051 -0.1987
  146ccc    H12 4328   5.773   7.883   6.395  0.1862  0.5311  1.7256
  146ccc    H13 4329   5.657   7.754   6.369  0.8791 -0.0014 -0.0612
  146ccc     C8 4330   5.586   7.955   6.346  0.1187 -0.2463 -0.1563
  146ccc    H14 4331   5.607   8.050   6.397 -0.7372 -0.5784  0.8331
  146ccc    H15 4332   5.478   7.937   6.351  0.3114 -1.3220  0.3475
  146ccc     C9 4333   5.624   7.979   6.195  0.5714 -0.3962  0.4381
  146ccc     O3 4334   5.685   7.898   6.121 -0.0722  0.0050 -0.0528
  146ccc     O4 4335   5.582   8.085   6.140  0.2042 -0.5790 -0.0949
  146ccc    H16 4336   5.528   8.120   6.213  1.0269  0.0358  0.2269
  146ccc     O5 4337   5.924   7.874   6.790  0.8844 -0.6293  0.1221
  147ccc     C1 4338   3.179   6.878   7.075  0.4344 -0.7811 -0.3576
  147ccc     H1 4339   3.197   6.771   7.090  3.5956 -0.3105 -0.4775
  147ccc     H2 4340   3.211   6.923   7.170  0.5888  1.3742 -1.3876
  147ccc     C2 4341   3.028   6.913   7.051  0.4407 -1.1441 -0.4007
  147ccc     H3 4342   3.011   7.019   7.029 -0.6765 -1.0667  0.7952
  147ccc     H4 4343   2.960   6.881   7.131 -0.6520 -2.1720 -1.7313
  147ccc     C3 4344   2.987   6.823   6.935  0.2207  0.0244  0.2830
  147ccc     H5 4345   3.008   6.719   6.963  1.8934  0.5103  0.8807
  147ccc     H6 4346   3.060   6.831   6.854 -0.5808  1.0951 -0.3571
  147ccc     N1 4347   2.849   6.840   6.884  0.1059 -0.3648 -0.9957
  147ccc     C4 4348   2.751   6.792   6.981 -0.1767 -0.2395 -0.3843
  147ccc     H7 4349   2.743   6.848   7.074  0.5394 -1.6096  0.5170
  147ccc     H8 4350   2.775   6.688   7.006  0.0730  0.1077  0.8180
  147ccc     C5 4351   2.608   6.784   6.937 -0.0160 -0.4497 -0.2276
  147ccc     H9 4352   2.560   6.880   6.913 -3.2780 -1.5671  1.5258
  147ccc    H10 4353   2.602   6.734   6.840 -1.2353  1.4628 -1.1922
  147ccc     C6 4354   2.527   6.713   7.041 -0.2292 -0.0956 -0.6642
  147ccc     O1 4355   2.538   6.588   7.043 -0.2577  0.3350  0.0599
  147ccc     O2 4356   2.405   6.759   7.073  0.0244 -0.2807 -0.1360
  147ccc    H11 4357   2.427   6.854   7.083  0.1011 -0.3656  0.5288
  147ccc     C7 4358   2.813   6.968   6.823  0.1274  0.6309 -0.2218
  147ccc    H12 4359   2.713   6.956   6.779  0.4753 -1.0984 -0.5780
  147ccc    H13 4360   2.810   7.033   6.911  0.6034 -4.4441  3.7767
  147ccc     C8 4361   2.901   7.026   6.713 -0.3635 -0.2667 -0.0931
  147ccc    H14 4362   2.902   6.965   6.621 -1.9296  0.1498 -0.3994
  147ccc    H15 4363   3.006   7.046   6.740 -0.8938  0.7503  1.2210
  147ccc     C9 4364   2.836   7.164   6.674 -0.8736  0.5218 -0.3721
  147ccc     O3 4365   2.736   7.217   6.725  0.2399  0.1572  0.6769
  147ccc     O4 4366   2.930   7.239   6.609  0.2915 -0.6718  0.4484
  147ccc    H16 4367   3.002   7.182   6.577  0.2582 -0.9262  0.8368
  147ccc     O5 4368   3.253   6.920   6.959  0.1478  0.1496  0.1423
  148ccc     C1 4369   3.853   6.982   7.558 -0.3683 -0.6195 -0.1532
  148ccc     H1 4370   3.762   6.949   7.610 -0.0153 -0.7871  0.3551
  148ccc     H2 4371   3.936   6.913   7.578  0.5277  0.4218 -0.2695
  148ccc     C2 4372   3.893   7.121   7.609  0.3302  0.0989  0.1455
  148ccc     H3 4373   3.974   7.165   7.550 -1.5872  3.9993  0.2553
  148ccc     H4 4374   3.928   7.096   7.710 -0.9592  1.4398  0.9429
  148ccc     C3 4375   3.784   7.225   7.629  0.3710  0.0758  0.4499
  148ccc     H5 4376   3.696   7.169   7.664  0.0901  0.4608  0.3636
  148ccc     H6 4377   3.753   7.273   7.535  1.2848 -0.5410 -0.1615
  148ccc     N1 4378   3.814   7.331   7.731  0.1979  0.1878  0.2085
  148ccc     C4 4379   3.934   7.407   7.709 -0.1257  1.1094 -0.2913
  148ccc     H7 4380   3.903   7.501   7.662 -0.5678 -0.0414 -2.3690
  148ccc     H8 4381   4.001   7.369   7.631  0.5478  0.4126  0.6134
  148ccc     C5 4382   4.013   7.411   7.841  0.1560  0.0025  0.6201
  148ccc     H9 4383   4.095   7.481   7.819  0.6413 -1.0027 -0.8937
  148ccc    H10 4384   3.944   7.447   7.918 -1.8059 -0.3241 -0.9412
  148ccc     C6 4385   4.068   7.272   7.890 -0.3018 -0.0447  0.0923
  148ccc     O1 4386   4.159   7.202   7.848 -0.1733 -0.4745 -0.1020
  148ccc     O2 4387   3.964   7.204   7.952 -0.0240  0.3152  0.0493
  148ccc    H11 4388   3.904   7.275   7.980  1.2990  1.5742 -0.2530
  148ccc     C7 4389   3.697   7.418   7.761  0.5324  0.0291  0.9958
  148ccc    H12 4390   3.721   7.497   7.833  2.5337 -0.8708  1.3589
  148ccc    H13 4391   3.667   7.465   7.667 -1.6324 -4.7124 -0.8360
  148ccc     C8 4392   3.573   7.340   7.818 -0.1479 -0.0443  0.2182
  148ccc    H14 4393   3.505   7.312   7.738  2.1497 -1.2778 -1.3627
  148ccc    H15 4394   3.611   7.247   7.862 -0.6380 -1.4758 -2.3174
  148ccc     C9 4395   3.478   7.417   7.917  0.7410  0.0623 -0.0197
  148ccc     O3 4396   3.499   7.526   7.965 -0.1222  0.4311 -0.6826
  148ccc     O4 4397   3.420   7.330   7.999 -0.0381 -0.2566  0.7394
  148ccc    H16 4398   3.433   7.242   7.961  1.6654  0.0393  0.6015
  148ccc     O5 4399   3.831   6.983   7.413 -0.1274  0.2764 -0.1479
  149ccc     C1 4400   4.708   8.053   6.555  0.3395  0.1512  0.5933
  149ccc     H1 4401   4.753   8.053   6.455 -1.3426  4.3042 -0.2674
  149ccc     H2 4402   4.673   8.154   6.576 -0.2606  0.0443  0.1108
  149ccc     C2 4403   4.807   8.011   6.665  0.0075  0.2508 -0.6414
  149ccc     H3 4404   4.903   8.061   6.646  0.5805 -0.2267  0.9039
  149ccc     H4 4405   4.818   7.902   6.662  2.1022  0.4021  0.1045
  149ccc     C3 4406   4.755   8.047   6.809  0.2748 -0.3605  0.0720
  149ccc     H5 4407   4.651   8.014   6.815  0.2274 -0.7007 -2.1252
  149ccc     H6 4408   4.743   8.156   6.817 -1.5078 -0.5177 -0.3396
  149ccc     N1 4409   4.830   7.994   6.924  0.7167 -0.3067 -0.2691
  149ccc     C4 4410   4.809   8.067   7.049 -0.2691 -0.0194  0.4322
  149ccc     H7 4411   4.881   8.026   7.121 -0.1819 -1.0974 -0.2584
  149ccc     H8 4412   4.705   8.048   7.080 -0.2451 -0.3347  0.3260
  149ccc     C5 4413   4.851   8.219   7.053 -0.1492  0.6392 -0.1261
  149ccc     H9 4414   4.777   8.288   7.012 -0.7240 -0.7739 -1.5301
  149ccc    H10 4415   4.862   8.249   7.158 -0.0032  1.0423 -0.2585
  149ccc     C6 4416   4.975   8.250   6.981  0.2324 -0.1192  0.3741
  149ccc     O1 4417   5.084   8.194   7.000  0.5010 -0.8843 -0.3594
  149ccc     O2 4418   4.958   8.340   6.882 -0.6544  0.0591 -0.4825
  149ccc    H11 4419   4.861   8.349   6.880 -0.7523 -0.3943  1.3388
  149ccc     C7 4420   4.830   7.845   6.941  0.2826 -0.2068  0.4041
  149ccc    H12 4421   4.903   7.828   7.022  1.7764  0.8758 -0.6747
  149ccc    H13 4422   4.877   7.806   6.849  0.0428 -0.9539  0.5935
  149ccc     C8 4423   4.690   7.784   6.975  0.0249  0.0537 -0.5625
  149ccc    H14 4424   4.610   7.808   6.905 -0.1369 -0.4428 -0.5486
  149ccc    H15 4425   4.666   7.831   7.071 -0.3734 -1.3707  0.0484
  149ccc     C9 4426   4.687   7.636   6.999  0.2305 -0.4982  0.2124
  149ccc     O3 4427   4.785   7.568   7.020  0.2893  0.5206  0.2050
  149ccc     O4 4428   4.568   7.593   7.054 -0.3349  0.1934  0.5721
  149ccc    H16 4429   4.513   7.671   7.035  1.9774  1.6626 -0.3205
  149ccc     O5 4430   4.596   7.964   6.561 -0.0425  0.2848  0.1805
  150ccc     C1 4431   4.636   8.335   6.061  0.1579  0.5727  0.0079
  150ccc     H1 4432   4.661   8.229   6.057 -1.3697  0.2165 -0.2346
  150ccc     H2 4433   4.652   8.381   5.963  1.5602  1.7673  0.7593
  150ccc     C2 4434   4.730   8.402   6.166 -0.1103 -0.3157 -0.0780
  150ccc     H3 4435   4.700   8.507   6.153 -0.0588 -0.2823  0.0707
  150ccc     H4 4436   4.827   8.378   6.120  0.4520  0.9183  0.4130
  150ccc     C3 4437   4.716   8.360   6.318  0.4646  0.4787  0.0502
  150ccc     H5 4438   4.753   8.258   6.330  0.9307  0.4981 -1.1281
  150ccc     H6 4439   4.608   8.352   6.334  0.1461 -0.6158 -2.3431
  150ccc     N1 4440   4.779   8.455   6.415 -0.3680 -0.4605  0.1600
  150ccc     C4 4441   4.927   8.476   6.388  0.0015 -0.3073  0.6675
  150ccc     H7 4442   4.970   8.549   6.458 -1.6308  1.0739  0.2774
  150ccc     H8 4443   4.933   8.509   6.284 -0.1260 -1.4209  0.3085
  150ccc     C5 4444   5.002   8.339   6.401  0.5425  0.6576  0.2604
  150ccc     H9 4445   4.997   8.300   6.504  0.5708 -0.4564 -0.1473
  150ccc    H10 4446   4.965   8.261   6.333  1.6779  0.1765  0.1875
  150ccc     C6 4447   5.142   8.341   6.354  0.6081  0.0826 -0.1012
  150ccc     O1 4448   5.185   8.301   6.246 -0.0431  0.0692 -0.8405
  150ccc     O2 4449   5.237   8.379   6.440 -0.0148 -0.3434 -0.1632
  150ccc    H11 4450   5.192   8.404   6.523  2.4422 -0.5631  1.2826
  150ccc     C7 4451   4.753   8.437   6.559  0.0247  0.1118  0.0468
  150ccc    H12 4452   4.801   8.346   6.599 -0.8613  0.4856  2.0100
  150ccc    H13 4453   4.795   8.525   6.609 -0.2421  0.2959 -0.0549
  150ccc     C8 4454   4.602   8.425   6.602  0.2853  1.0608 -0.3007
  150ccc    H14 4455   4.546   8.517   6.579 -0.3811  0.4043 -1.3842
  150ccc    H15 4456   4.551   8.347   6.544  0.8149  0.0184  0.6315
  150ccc     C9 4457   4.592   8.391   6.750 -0.2770  0.4537 -0.4768
  150ccc     O3 4458   4.690   8.395   6.821  0.2120  0.0022 -0.3008
  150ccc     O4 4459   4.478   8.343   6.795 -0.4344  0.2181 -0.0257
  150ccc    H16 4460   4.428   8.348   6.712 -0.9832 -1.9472  0.1468
  150ccc     O5 4461   4.494   8.356   6.094 -0.2287 -0.2727 -0.3248
  151ccc     C1 4462   4.618   8.547   8.120  0.0427  0.3527  0.4703
  151ccc     H1 4463   4.597   8.631   8.052  0.1194 -0.4547 -0.5543
  151ccc     H2 4464   4.623   8.455   8.061 -1.7154  1.4579 -1.4548
  151ccc     C2 4465   4.527   8.536   8.242 -0.1298  0.5679 -0.0931
  151ccc     H3 4466   4.574   8.478   8.322 -2.8111  1.1290  1.9734
  151ccc     H4 4467   4.428   8.493   8.220 -0.8955  2.0421  0.4203
  151ccc     C3 4468   4.503   8.677   8.308  0.5584 -0.1170  0.3221
  151ccc     H5 4469   4.581   8.753   8.292 -0.4530  0.7856 -0.4119
  151ccc     H6 4470   4.493   8.666   8.416 -0.9860  0.8808  0.3020
  151ccc     N1 4471   4.381   8.739   8.257  1.0311 -0.1029  0.2940
  151ccc     C4 4472   4.272   8.727   8.349  0.7034 -0.2994 -0.0169
  151ccc     H7 4473   4.184   8.783   8.312 -0.6980 -0.7846  2.4921
  151ccc     H8 4474   4.306   8.771   8.443  0.9339 -0.5630  0.0188
  151ccc     C5 4475   4.219   8.584   8.377 -0.4853  0.7240  0.1002
  151ccc     H9 4476   4.297   8.517   8.415 -0.6518  0.1839 -0.5298
  151ccc    H10 4477   4.150   8.603   8.460 -1.7971 -2.4783 -0.2211
  151ccc     C6 4478   4.152   8.516   8.261  0.3411  0.1148 -0.3690
  151ccc     O1 4479   4.141   8.574   8.148 -0.5820  0.2557 -0.3010
  151ccc     O2 4480   4.147   8.384   8.273  0.2579 -0.3654  0.6414
  151ccc    H11 4481   4.156   8.367   8.369 -2.2063 -0.3918  0.9064
  151ccc     C7 4482   4.393   8.873   8.209 -0.6241 -0.4245  0.5105
  151ccc    H12 4483   4.389   8.938   8.298  0.1190  1.2127 -0.6271
  151ccc    H13 4484   4.487   8.885   8.154 -0.4648  0.4826  0.9556
  151ccc     C8 4485   4.272   8.921   8.120  0.8036 -0.0356  0.7091
  151ccc    H14 4486   4.247   8.858   8.034  0.9449  0.7135  0.1095
  151ccc    H15 4487   4.177   8.936   8.173  0.1533  1.4660 -0.8506
  151ccc     C9 4488   4.291   9.065   8.074  0.3452 -0.4264  0.0287
  151ccc     O3 4489   4.390   9.138   8.094  0.3839  0.2493  0.3462
  151ccc     O4 4490   4.179   9.130   8.067 -0.3030  0.2086  0.4092
  151ccc    H16 4491   4.122   9.060   8.031 -1.8395  1.5063  0.2912
  151ccc     O5 4492   4.751   8.565   8.164  0.0687  0.8796 -0.6456
  152ccc     C1 4493   5.455   8.106   8.338 -0.4939 -0.7399 -0.8227
  152ccc     H1 4494   5.403   8.163   8.416 -2.9240 -2.3608 -1.2046
  152ccc     H2 4495   5.431   7.999   8.344 -2.5779 -0.2877 -0.8021
  152ccc     C2 4496   5.618   8.118   8.344 -0.0035  0.4343  0.3530
  152ccc     H3 4497   5.656   8.082   8.247 -1.6522 -1.0739  0.2353
  152ccc     H4 4498   5.659   8.046   8.416  1.3544 -1.2645 -2.0516
  152ccc     C3 4499   5.673   8.261   8.365 -0.3158 -0.1672 -0.0721
  152ccc     H5 4500   5.639   8.328   8.286  0.7444  0.8811  0.3371
  152ccc     H6 4501   5.782   8.254   8.353 -0.4270 -0.0348 -1.1672
  152ccc     N1 4502   5.646   8.317   8.502  0.5254 -0.4023  0.1331
  152ccc     C4 4503   5.658   8.457   8.503  0.2950 -0.6522 -0.2129
  152ccc     H7 4504   5.758   8.482   8.465  0.8031 -0.9094  0.9284
  152ccc     H8 4505   5.661   8.499   8.604  1.0425 -0.5393 -0.2770
  152ccc     C5 4506   5.544   8.528   8.423  0.9626  0.3346  0.0328
  152ccc     H9 4507   5.539   8.635   8.445  0.8770  0.5373 -0.9270
  152ccc    H10 4508   5.548   8.521   8.313 -0.4577  1.6091 -0.1147
  152ccc     C6 4509   5.407   8.483   8.468 -0.6232  1.1109  0.5607
  152ccc     O1 4510   5.381   8.448   8.582  0.0434  0.6033 -0.1717
  152ccc     O2 4511   5.303   8.533   8.401 -0.4930 -0.2804  0.2540
  152ccc    H11 4512   5.342   8.600   8.343  0.1042  0.5353  1.5746
  152ccc     C7 4513   5.731   8.252   8.602  0.3946 -0.0313 -0.6165
  152ccc    H12 4514   5.771   8.153   8.579  1.3602  0.2717 -0.2517
  152ccc    H13 4515   5.818   8.311   8.634  0.6665 -0.2942 -0.8680
  152ccc     C8 4516   5.641   8.239   8.732 -1.1246 -0.2305  0.6647
  152ccc    H14 4517   5.542   8.210   8.694 -0.2968  0.6795 -2.3587
  152ccc    H15 4518   5.630   8.333   8.786  0.7697  0.7853 -0.6474
  152ccc     C9 4519   5.691   8.130   8.831  0.8860  0.2062 -0.0233
  152ccc     O3 4520   5.794   8.068   8.811 -0.0216 -0.1773  0.1402
  152ccc     O4 4521   5.642   8.120   8.951  0.9897  0.1650  0.2159
  152ccc    H16 4522   5.551   8.153   8.939  1.0753  0.0334 -0.7770
  152ccc     O5 4523   5.403   8.149   8.212  0.0876 -0.6364  0.2624
  153ccc     C1 4524   5.797   7.748   8.491  0.0653  0.3807 -0.2914
  153ccc     H1 4525   5.824   7.808   8.579 -0.8165  1.6972 -0.8955
  153ccc     H2 4526   5.789   7.643   8.521 -2.5294  0.3857 -0.8809
  153ccc     C2 4527   5.913   7.765   8.389 -0.1660 -0.0709  0.3776
  153ccc     H3 4528   6.002   7.711   8.422 -0.0737  0.0290  0.2917
  153ccc     H4 4529   5.879   7.716   8.296  0.6959 -0.2028  0.1272
  153ccc     C3 4530   5.954   7.916   8.354 -0.3574  0.1761  0.0772
  153ccc     H5 4531   5.871   7.954   8.293  0.1325  0.3853 -0.4609
  153ccc     H6 4532   5.945   7.974   8.447 -0.4102 -1.1529  0.9109
  153ccc     N1 4533   6.085   7.943   8.277  0.1770  0.3712  0.0080
  153ccc     C4 4534   6.093   7.859   8.150 -0.7867 -0.5252 -0.0207
  153ccc     H7 4535   6.185   7.799   8.149  0.2211  0.9618  1.0456
  153ccc     H8 4536   6.012   7.785   8.146 -0.7773 -0.6474  1.5663
  153ccc     C5 4537   6.076   7.951   8.038  0.0755  0.9766  0.0769
  153ccc     H9 4538   6.000   8.027   8.062 -0.8545  0.6509 -1.7365
  153ccc    H10 4539   6.167   8.010   8.028  1.1295 -0.3574  1.5815
  153ccc     C6 4540   6.054   7.891   7.901  0.3110  0.1028  0.3646
  153ccc     O1 4541   5.941   7.880   7.861  0.4032 -0.1292 -0.1931
  153ccc     O2 4542   6.152   7.901   7.810 -0.5327 -0.7814 -0.1576
  153ccc    H11 4543   6.225   7.905   7.874 -0.3292 -0.8577 -0.3883
  153ccc     C7 4544   6.202   7.932   8.368  0.3597  0.5107 -0.6149
  153ccc    H12 4545   6.224   7.826   8.386 -1.4657  0.0362 -1.0291
  153ccc    H13 4546   6.183   7.988   8.460 -2.5782 -1.0835 -0.1731
  153ccc     C8 4547   6.330   7.992   8.308 -0.2008  0.0223 -0.3710
  153ccc    H14 4548   6.374   7.929   8.230  1.5076  0.8981 -0.1265
  153ccc    H15 4549   6.307   8.089   8.263  0.2178  0.2762 -0.0373
  153ccc     C9 4550   6.442   8.013   8.405 -0.5191  0.2561 -0.1697
  153ccc     O3 4551   6.436   8.010   8.531  0.4729 -1.3253  0.1280
  153ccc     O4 4552   6.569   8.005   8.347 -0.4295 -0.4225  1.0983
  153ccc    H16 4553   6.561   8.020   8.251  3.1517  0.3551  0.8819
  153ccc     O5 4554   5.670   7.781   8.438  0.2368 -0.5164  0.0936
  154ccc     C1 4555   5.349   7.268   8.513  0.0742 -0.9107 -0.2538
  154ccc     H1 4556   5.290   7.319   8.436  2.5006 -0.2320 -1.7273
  154ccc     H2 4557   5.455   7.265   8.486  0.4526  0.4273  1.0657
  154ccc     C2 4558   5.294   7.126   8.533  0.1437 -0.0440  0.2097
  154ccc     H3 4559   5.350   7.087   8.619  0.7010 -1.1586 -0.6461
  154ccc     H4 4560   5.324   7.077   8.440 -1.6516 -0.9998  0.1182
  154ccc     C3 4561   5.138   7.122   8.547 -0.4030 -0.8445  0.2322
  154ccc     H5 4562   5.095   7.177   8.462 -1.0645 -2.4261 -0.4931
  154ccc     H6 4563   5.105   7.165   8.642  0.3004  1.1412 -0.4097
  154ccc     N1 4564   5.079   6.984   8.541  0.0052  0.2425  0.3464
  154ccc     C4 4565   4.931   7.003   8.527  0.3639 -0.1800  0.5003
  154ccc     H7 4566   4.894   7.089   8.583 -0.5175  0.1486 -0.5573
  154ccc     H8 4567   4.896   7.019   8.424 -0.2658  0.0889  0.7575
  154ccc     C5 4568   4.853   6.880   8.576 -0.0475  0.6928 -0.0607
  154ccc     H9 4569   4.862   6.790   8.513  0.5268  0.6984  0.0195
  154ccc    H10 4570   4.895   6.855   8.673  0.1456  0.4137 -0.2161
  154ccc     C6 4571   4.704   6.904   8.597  0.2377  0.3259 -0.2600
  154ccc     O1 4572   4.657   7.016   8.590 -0.0014 -0.1799  0.2877
  154ccc     O2 4573   4.651   6.830   8.693  0.1120 -0.0467  0.8780
  154ccc    H11 4574   4.725   6.766   8.694 -1.3584 -1.7627  0.8296
  154ccc     C7 4575   5.142   6.878   8.455 -0.4785  0.3011 -0.7817
  154ccc    H12 4576   5.248   6.889   8.481 -0.6915  2.9184 -0.8985
  154ccc    H13 4577   5.103   6.782   8.489  0.1762  0.8351  1.6143
  154ccc     C8 4578   5.106   6.898   8.305  0.1094 -0.6551 -0.6398
  154ccc    H14 4579   5.197   6.868   8.252  1.0190  1.6623 -0.4618
  154ccc    H15 4580   5.089   7.004   8.284  0.2869 -0.9571 -2.3847
  154ccc     C9 4581   4.978   6.835   8.247 -0.2105  0.4898 -0.7212
  154ccc     O3 4582   4.911   6.902   8.172  0.5659  0.7128 -0.1691
  154ccc     O4 4583   4.998   6.706   8.215  0.1808  0.4441 -0.4519
  154ccc    H16 4584   5.062   6.669   8.278 -0.2966 -1.0175 -0.8112
  154ccc     O5 4585   5.324   7.332   8.645  0.2729  0.1448 -0.0082
  155ccc     C1 4586   4.165   8.556   7.526 -0.2822 -0.8169  0.0292
  155ccc     H1 4587   4.224   8.626   7.587 -0.9248 -0.5646  0.3650
  155ccc     H2 4588   4.236   8.499   7.465 -0.3599 -0.3781 -0.4717
  155ccc     C2 4589   4.082   8.642   7.430 -0.0356  0.9003 -0.4812
  155ccc     H3 4590   4.019   8.713   7.486 -2.7616 -0.6307 -1.5117
  155ccc     H4 4591   4.014   8.570   7.384 -2.3001  1.7234  1.4765
  155ccc     C3 4592   4.162   8.715   7.317 -0.0280  0.0945 -0.6789
  155ccc     H5 4593   4.230   8.648   7.263  1.7046  1.5985 -0.3917
  155ccc     H6 4594   4.223   8.789   7.369  0.8024 -1.6632  0.8967
  155ccc     N1 4595   4.061   8.776   7.227 -0.0204 -0.1510  0.6693
  155ccc     C4 4596   4.005   8.896   7.292 -0.7822  0.4888  0.0859
  155ccc     H7 4597   4.077   8.976   7.267 -0.4223  0.0583 -0.2686
  155ccc     H8 4598   3.999   8.889   7.401 -0.1074  1.7245  0.2118
  155ccc     C5 4599   3.862   8.921   7.245  0.3134 -0.3830  0.5513
  155ccc     H9 4600   3.863   8.953   7.141 -2.5560  0.5760  0.7704
  155ccc    H10 4601   3.803   8.829   7.256  0.1541 -0.5702 -1.7305
  155ccc     C6 4602   3.788   9.021   7.331  0.0157  0.0418 -0.1887
  155ccc     O1 4603   3.767   9.015   7.450  0.4005  0.1010  0.4047
  155ccc     O2 4604   3.756   9.136   7.272  0.0537 -0.6222  0.1735
  155ccc    H11 4605   3.736   9.091   7.188  4.6277 -0.1629 -1.2912
  155ccc     C7 4606   4.107   8.799   7.088 -0.4679 -0.4612 -0.0467
  155ccc    H12 4607   4.048   8.880   7.043  0.4388  0.8358  1.0369
  155ccc    H13 4608   4.212   8.831   7.093 -0.6342 -0.0002  0.5890
  155ccc     C8 4609   4.100   8.672   6.999 -0.2238 -0.3581 -0.2510
  155ccc    H14 4610   3.999   8.630   7.002 -0.4211  0.0055 -1.5013
  155ccc    H15 4611   4.182   8.605   7.028  1.1949  0.2071 -2.7835
  155ccc     C9 4612   4.126   8.708   6.858  0.1907 -0.0513  0.3645
  155ccc     O3 4613   4.160   8.819   6.823  0.1114 -0.5980 -0.1739
  155ccc     O4 4614   4.164   8.603   6.785 -0.4843  0.3092 -0.3353
  155ccc    H16 4615   4.117   8.528   6.828  0.0544 -0.0213 -0.3216
  155ccc     O5 4616   4.083   8.470   7.611 -0.3954  0.3104  0.2917
  156ccc     C1 4617   4.473   7.934   8.454  0.0881  0.1573  0.1997
  156ccc     H1 4618   4.577   7.903   8.437 -0.1244 -0.0957 -0.6206
  156ccc     H2 4619   4.478   8.015   8.528 -0.5066  1.2571 -0.9493
  156ccc     C2 4620   4.399   7.821   8.530 -0.4291  0.2578 -0.8268
  156ccc     H3 4621   4.299   7.848   8.564 -0.3086  1.3800 -1.3496
  156ccc     H4 4622   4.461   7.795   8.617 -2.1163  1.1210  0.6480
  156ccc     C3 4623   4.380   7.687   8.455  0.1382 -0.2730 -0.5770
  156ccc     H5 4624   4.478   7.647   8.425  1.3610  1.7152  0.6802
  156ccc     H6 4625   4.329   7.721   8.364  1.6295  1.5323 -0.7653
  156ccc     N1 4626   4.317   7.569   8.517  0.3639  0.1008  0.3015
  156ccc     C4 4627   4.380   7.529   8.646 -0.6060  0.3004  0.5560
  156ccc     H7 4628   4.363   7.602   8.726  2.9789 -0.1858  1.8307
  156ccc     H8 4629   4.337   7.434   8.681 -0.7577 -0.0238 -0.5105
  156ccc     C5 4630   4.535   7.503   8.633 -0.2453 -0.6553  0.0597
  156ccc     H9 4631   4.587   7.591   8.594  1.3335 -1.9307 -0.7371
  156ccc    H10 4632   4.545   7.413   8.571  0.0587 -0.1763 -0.5877
  156ccc     C6 4633   4.601   7.467   8.769  0.6727  0.1056 -0.5427
  156ccc     O1 4634   4.540   7.434   8.869  0.3622 -0.0594  0.3044
  156ccc     O2 4635   4.709   7.402   8.734  0.3402  0.4716  0.0682
  156ccc    H11 4636   4.709   7.410   8.637 -1.2869  1.8295  0.1657
  156ccc     C7 4637   4.173   7.563   8.503 -0.0035  0.5049 -0.4195
  156ccc    H12 4638   4.115   7.619   8.577  1.0724 -0.7711  1.4411
  156ccc    H13 4639   4.143   7.582   8.399  0.3097 -0.6065 -0.7262
  156ccc     C8 4640   4.124   7.416   8.519 -0.0197  0.2446 -0.3161
  156ccc    H14 4641   4.192   7.354   8.460 -0.6993 -1.6954  0.9100
  156ccc    H15 4642   4.119   7.380   8.623  2.1695 -0.6527 -0.4922
  156ccc     C9 4643   3.988   7.403   8.449 -0.1031  0.4135  0.5863
  156ccc     O3 4644   3.922   7.490   8.396  0.3213  0.1884 -0.5025
  156ccc     O4 4645   3.954   7.284   8.411 -0.0643  0.6164 -0.0300
  156ccc    H16 4646   4.015   7.229   8.462 -1.7045 -1.1881  0.0355
  156ccc     O5 4647   4.397   7.965   8.333  0.0553 -0.6600 -0.0697
  157ccc     C1 4648   2.696   7.064   7.706  0.1058  0.4090  0.9997
  157ccc     H1 4649   2.586   7.073   7.707 -0.0128 -1.0537  1.4287
  157ccc     H2 4650   2.739   7.123   7.788 -0.6110  0.0955  1.6136
  157ccc     C2 4651   2.728   6.912   7.725  0.4521 -0.2903  0.0950
  157ccc     H3 4652   2.679   6.854   7.646  0.1774  0.5356 -0.3508
  157ccc     H4 4653   2.679   6.880   7.818 -0.9578  0.6176 -0.3200
  157ccc     C3 4654   2.880   6.875   7.720  0.5143  0.7191 -0.4275
  157ccc     H5 4655   2.919   6.925   7.810  1.5702  1.9505 -1.5575
  157ccc     H6 4656   2.926   6.913   7.628 -0.5440 -0.4814 -1.4807
  157ccc     N1 4657   2.911   6.732   7.732  0.7030 -0.4773 -0.1481
  157ccc     C4 4658   2.869   6.664   7.856  0.0023 -0.9963 -0.1957
  157ccc     H7 4659   2.886   6.556   7.848  1.3084 -0.7521 -0.6799
  157ccc     H8 4660   2.762   6.681   7.876 -0.0092  0.4180 -1.3833
  157ccc     C5 4661   2.963   6.709   7.975  0.4503  0.2113  0.8938
  157ccc     H9 4662   2.962   6.815   8.002  1.5570  0.8505 -1.4695
  157ccc    H10 4663   3.068   6.694   7.947  0.8135  0.5550  2.0542
  157ccc     C6 4664   2.932   6.622   8.098 -0.4401  0.8549  0.2177
  157ccc     O1 4665   2.971   6.506   8.114  0.0893 -0.2700  0.1129
  157ccc     O2 4666   2.839   6.665   8.184 -0.0103 -0.1176  0.5795
  157ccc    H11 4667   2.808   6.743   8.136 -0.0757  1.1067  2.5666
  157ccc     C7 4668   2.866   6.657   7.610  0.3161  0.0389  0.0315
  157ccc    H12 4669   2.758   6.636   7.608  0.1439  1.0043 -1.0397
  157ccc    H13 4670   2.911   6.557   7.604 -0.5966 -0.2966 -1.6267
  157ccc     C8 4671   2.903   6.729   7.472  0.3890  0.2961 -0.4777
  157ccc    H14 4672   2.833   6.809   7.447  0.6612 -0.1386 -2.6866
  157ccc    H15 4673   3.003   6.775   7.473  1.4449 -1.9021 -1.2519
  157ccc     C9 4674   2.912   6.634   7.352  0.3050  0.2135 -0.5266
  157ccc     O3 4675   3.014   6.575   7.329  0.5834 -0.5985 -0.9401
  157ccc     O4 4676   2.824   6.646   7.252  0.3111  0.2107 -0.0681
  157ccc    H16 4677   2.754   6.706   7.286  0.0351  0.3616 -0.8808
  157ccc     O5 4678   2.751   7.094   7.581 -0.7002 -1.1507  0.1999
  158ccc     C1 4679   3.051   6.964   8.238  0.7430 -0.5200 -0.4802
  158ccc     H1 4680   2.949   6.990   8.270  1.0864  2.8607 -1.8853
  158ccc     H2 4681   3.042   6.855   8.243  0.5519 -0.4897 -0.1061
  158ccc     C2 4682   3.154   7.018   8.341 -0.5518 -0.0671 -0.6038
  158ccc     H3 4683   3.143   7.126   8.358  0.3656  0.3288 -2.4641
  158ccc     H4 4684   3.250   6.986   8.299  0.7343  1.4800  1.0835
  158ccc     C3 4685   3.137   6.954   8.481  0.5197  0.6578  0.9529
  158ccc     H5 4686   3.226   6.946   8.544  0.5680 -1.6276  0.6338
  158ccc     H6 4687   3.126   6.847   8.458  1.7961  0.9635 -1.2612
  158ccc     N1 4688   3.030   7.014   8.560 -0.1631  0.9729  0.1498
  158ccc     C4 4689   3.078   7.134   8.628 -0.1696 -0.1768 -0.3876
  158ccc     H7 4690   3.124   7.201   8.555 -0.6219 -1.7542 -2.1681
  158ccc     H8 4691   3.154   7.099   8.699 -0.6981 -0.9080 -0.1761
  158ccc     C5 4692   2.973   7.211   8.707 -0.5959 -0.0625 -0.3659
  158ccc     H9 4693   2.947   7.157   8.799  1.1417  0.1288  0.2664
  158ccc    H10 4694   2.887   7.233   8.643 -0.8457 -1.0603 -0.3833
  158ccc     C6 4695   3.023   7.352   8.755 -0.9224 -0.2235  0.3233
  158ccc     O1 4696   3.107   7.353   8.845  0.4372  0.3575 -0.9179
  158ccc     O2 4697   3.016   7.454   8.672 -0.6711 -0.2231  0.1211
  158ccc    H11 4698   2.975   7.421   8.590  0.6805  1.4773 -1.2772
  158ccc     C7 4699   2.939   6.929   8.638  0.3379 -0.3722  0.7557
  158ccc    H12 4700   2.864   6.985   8.695  0.1753 -0.1464  0.3274
  158ccc    H13 4701   3.002   6.885   8.715  2.4947  1.8308  0.3142
  158ccc     C8 4702   2.869   6.818   8.554 -0.5601  0.4737 -0.8369
  158ccc    H14 4703   2.939   6.769   8.485  1.0023  0.8580  0.4588
  158ccc    H15 4704   2.834   6.746   8.629 -1.3661  0.7298 -0.9625
  158ccc     C9 4705   2.746   6.866   8.473  0.5562  0.0751 -0.0970
  158ccc     O3 4706   2.757   6.920   8.364 -0.2480  0.1495  0.6142
  158ccc     O4 4707   2.646   6.910   8.553 -0.0022 -0.1119  0.0164
  158ccc    H16 4708   2.654   6.846   8.626 -0.4197  0.8678  0.9354
  158ccc     O5 4709   3.091   7.007   8.104 -0.3741 -0.3782 -0.0021
  159ccc     C1 4710   5.543   8.035   4.723 -0.6372  0.3674 -0.3768
  159ccc     H1 4711   5.560   8.099   4.811 -1.4069  0.4271 -0.2704
  159ccc     H2 4712   5.570   7.935   4.760  0.5711  0.2659 -1.4728
  159ccc     C2 4713   5.634   8.077   4.608 -0.4915  0.2277  0.1813
  159ccc     H3 4714   5.736   8.083   4.648 -0.1721  0.8031 -0.7172
  159ccc     H4 4715   5.608   8.178   4.573 -0.1284  0.3393  0.2298
  159ccc     C3 4716   5.652   7.967   4.497 -0.0586  0.4231 -0.1386
  159ccc     H5 4717   5.548   7.941   4.473 -0.1560 -0.2729  1.0278
  159ccc     H6 4718   5.673   7.876   4.553  0.5638  0.5384 -0.1796
  159ccc     N1 4719   5.734   8.009   4.382  0.5451  0.4894  0.0154
  159ccc     C4 4720   5.884   8.019   4.400 -0.1020 -0.5582 -0.2076
  159ccc     H7 4721   5.896   8.110   4.460 -3.3181 -0.3803  0.2693
  159ccc     H8 4722   5.930   8.033   4.302 -0.2670  1.3503 -0.0346
  159ccc     C5 4723   5.948   7.893   4.473 -0.1075  0.1264 -0.4291
  159ccc     H9 4724   5.926   7.888   4.580  2.3893  0.6245  0.1304
  159ccc    H10 4725   6.057   7.885   4.459 -0.5140 -2.9146 -2.3309
  159ccc     C6 4726   5.902   7.769   4.402 -0.3627 -0.6000  0.4519
  159ccc     O1 4727   5.939   7.740   4.289 -0.2080  0.3821 -0.4148
  159ccc     O2 4728   5.887   7.665   4.487  0.7756  0.0446  0.0720
  159ccc    H11 4729   5.900   7.700   4.577 -1.6989 -1.5409  1.0961
  159ccc     C7 4730   5.691   8.105   4.287 -0.2459 -0.1473  0.3147
  159ccc    H12 4731   5.704   8.202   4.337 -0.1029  0.5073 -0.9433
  159ccc    H13 4732   5.740   8.106   4.189 -0.2927  0.3593  0.2921
  159ccc     C8 4733   5.542   8.094   4.243 -0.3132  0.3092 -0.1578
  159ccc    H14 4734   5.525   7.993   4.204  1.0821 -0.3069  0.7772
  159ccc    H15 4735   5.478   8.096   4.333  0.1198 -0.7450  0.1870
  159ccc     C9 4736   5.489   8.185   4.131 -0.1675  0.2432 -0.8814
  159ccc     O3 4737   5.564   8.230   4.045 -0.4811  0.0883 -0.3032
  159ccc     O4 4738   5.355   8.209   4.131  0.2028 -0.1161  0.3841
  159ccc    H16 4739   5.317   8.156   4.203 -1.0163  0.5089  0.2069
  159ccc     O5 4740   5.403   8.035   4.686 -0.6342  0.7458  0.2716
  160ccc     C1 4741   5.443   7.822   5.388  0.7075  0.3765  0.1320
  160ccc     H1 4742   5.420   7.890   5.471 -0.3101  0.2267 -0.0190
  160ccc     H2 4743   5.357   7.754   5.380  1.2293 -0.3156  0.2908
  160ccc     C2 4744   5.561   7.728   5.407  0.1188 -0.4301 -0.9280
  160ccc     H3 4745   5.540   7.668   5.497 -1.0563 -0.5969 -1.3091
  160ccc     H4 4746   5.645   7.799   5.412  0.0044 -0.3743  0.8486
  160ccc     C3 4747   5.582   7.630   5.291 -0.5718 -0.1288  0.2955
  160ccc     H5 4748   5.549   7.670   5.194 -0.3501 -0.7200 -0.0257
  160ccc     H6 4749   5.513   7.547   5.315 -0.9687  0.0175 -0.3310
  160ccc     N1 4750   5.719   7.578   5.286  0.1371 -0.3780  0.2255
  160ccc     C4 4751   5.755   7.498   5.403 -0.3217 -0.3541 -0.4955
  160ccc     H7 4752   5.716   7.396   5.399  0.7058 -0.7584 -0.2880
  160ccc     H8 4753   5.715   7.545   5.493  0.7522 -0.2242 -0.0819
  160ccc     C5 4754   5.905   7.475   5.426 -0.5481  0.9394 -0.3277
  160ccc     H9 4755   5.952   7.425   5.340  3.4002 -1.6116  3.1157
  160ccc    H10 4756   5.959   7.570   5.442 -0.3624  0.7351  0.2781
  160ccc     C6 4757   5.928   7.394   5.554 -0.3074  0.2289 -0.1530
  160ccc     O1 4758   5.837   7.358   5.625 -0.0934  0.0235  0.0366
  160ccc     O2 4759   6.061   7.395   5.598 -0.0144  0.2092 -0.4089
  160ccc    H11 4760   6.114   7.442   5.531  1.4309 -0.5748  0.1742
  160ccc     C7 4761   5.765   7.528   5.158 -0.0598 -0.1253 -0.2702
  160ccc    H12 4762   5.864   7.480   5.164  0.5497  1.1936  0.3260
  160ccc    H13 4763   5.684   7.459   5.131 -1.7440  1.1740  1.3609
  160ccc     C8 4764   5.784   7.632   5.041 -0.5523 -0.1991 -0.0219
  160ccc    H14 4765   5.698   7.694   5.015 -0.3728 -0.1486 -0.5156
  160ccc    H15 4766   5.859   7.701   5.084  0.7660 -0.8355 -1.2322
  160ccc     C9 4767   5.842   7.578   4.913  0.5923 -0.1003 -0.1915
  160ccc     O3 4768   5.828   7.463   4.874  0.3499 -0.0282  0.6419
  160ccc     O4 4769   5.848   7.671   4.816 -0.5770  0.3362  0.0693
  160ccc    H16 4770   5.849   7.754   4.866  2.6677  0.8552 -0.7097
  160ccc     O5 4771   5.449   7.896   5.265  0.2572  0.8118 -0.2433
  161ccc     C1 4772   5.126   7.453   5.289  0.6478  0.4857  0.1292
  161ccc     H1 4773   5.158   7.544   5.237  1.9851 -0.2792 -0.4406
  161ccc     H2 4774   5.144   7.374   5.215 -0.2854 -0.0844  0.5083
  161ccc     C2 4775   4.982   7.463   5.329  0.1829  0.2915  0.7270
  161ccc     H3 4776   4.956   7.395   5.411  1.9271 -0.4652  0.6792
  161ccc     H4 4777   4.932   7.430   5.237  0.7375 -1.7465  1.1319
  161ccc     C3 4778   4.936   7.605   5.371  0.3915 -0.0881  0.3216
  161ccc     H5 4779   4.976   7.676   5.298  1.1387 -0.8009  0.0315
  161ccc     H6 4780   4.978   7.641   5.466  1.3985  0.9901 -0.5161
  161ccc     N1 4781   4.785   7.604   5.370 -0.0648 -0.5050  0.5385
  161ccc     C4 4782   4.725   7.609   5.502  0.7216  0.7172 -0.4776
  161ccc     H7 4783   4.773   7.528   5.558 -1.9944 -0.1902  0.6356
  161ccc     H8 4784   4.742   7.705   5.552  0.7682  0.8393 -0.7219
  161ccc     C5 4785   4.574   7.583   5.497  0.2893  1.2731 -0.0505
  161ccc     H9 4786   4.556   7.522   5.408  1.4484  1.1576 -0.2106
  161ccc    H10 4787   4.521   7.678   5.487 -0.1902  1.0360  0.1994
  161ccc     C6 4788   4.505   7.526   5.621 -0.0001 -0.1472  0.0784
  161ccc     O1 4789   4.562   7.461   5.710 -0.3335 -0.0463 -0.5748
  161ccc     O2 4790   4.368   7.515   5.616  0.0582  0.0756 -0.3643
  161ccc    H11 4791   4.346   7.553   5.529 -1.1510 -0.0409 -0.1187
  161ccc     C7 4792   4.725   7.705   5.274  0.8308 -0.3354  0.6187
  161ccc    H12 4793   4.755   7.810   5.289 -1.3841  0.2822  0.9362
  161ccc    H13 4794   4.616   7.695   5.284  0.6141 -0.7922 -1.8764
  161ccc     C8 4795   4.754   7.668   5.127  0.3153  0.3791 -0.5902
  161ccc    H14 4796   4.693   7.578   5.111  0.4485 -0.3083  2.4480
  161ccc    H15 4797   4.858   7.639   5.111 -0.0063  0.3280 -2.7786
  161ccc     C9 4798   4.720   7.783   5.035 -0.4887  0.2711  0.3928
  161ccc     O3 4799   4.653   7.881   5.071  0.0546  0.4156 -0.4443
  161ccc     O4 4800   4.718   7.752   4.906  0.2356  0.3645  0.4206
  161ccc    H16 4801   4.784   7.683   4.888  1.1032  1.6852 -1.6955
  161ccc     O5 4802   5.213   7.413   5.400 -0.2073  0.3944 -0.5119
  162ccc     C1 4803   4.904   7.220   6.219 -0.1528 -0.5212 -0.6520
  162ccc     H1 4804   4.975   7.296   6.256 -0.9102 -0.0505 -0.1456
  162ccc     H2 4805   4.803   7.252   6.249  0.3069  0.9437 -0.5958
  162ccc     C2 4806   4.945   7.084   6.283 -0.1935  0.0755 -0.0857
  162ccc     H3 4807   4.947   7.101   6.391  1.9398  0.3595 -0.1487
  162ccc     H4 4808   5.050   7.065   6.258 -1.1261 -1.8134 -2.7860
  162ccc     C3 4809   4.864   6.959   6.240 -0.1989  0.0331 -0.3107
  162ccc     H5 4810   4.897   6.931   6.139  0.1274  0.1538 -0.2388
  162ccc     H6 4811   4.760   6.993   6.230 -0.2065  0.2302  0.3762
  162ccc     N1 4812   4.882   6.847   6.342  0.0583  0.1555 -0.1529
  162ccc     C4 4813   4.807   6.721   6.316 -0.0859  0.2727  0.3708
  162ccc     H7 4814   4.699   6.738   6.318 -0.9514 -4.5057  1.0997
  162ccc     H8 4815   4.836   6.644   6.388  1.2618  1.5093  1.1695
  162ccc     C5 4816   4.841   6.660   6.174 -0.4050 -0.0250  0.3282
  162ccc     H9 4817   4.793   6.720   6.095  1.3455  1.6295  0.5103
  162ccc    H10 4818   4.948   6.669   6.153 -0.4956  1.4689  0.4379
  162ccc     C6 4819   4.824   6.507   6.164  0.0356  0.1575 -0.5342
  162ccc     O1 4820   4.800   6.431   6.256 -0.4245 -0.2161 -0.1027
  162ccc     O2 4821   4.806   6.457   6.042  0.0826 -0.3576 -0.5695
  162ccc    H11 4822   4.798   6.540   5.991 -2.8127 -0.1326  0.1819
  162ccc     C7 4823   5.026   6.826   6.390 -0.6244  0.0591  0.2288
  162ccc    H12 4824   5.086   6.782   6.310  0.6831 -0.0465  1.2447
  162ccc    H13 4825   5.082   6.918   6.411 -0.4649  0.5796 -2.2967
  162ccc     C8 4826   5.033   6.742   6.519 -0.0198 -0.3189  0.2523
  162ccc    H14 4827   4.957   6.781   6.587  0.1584  1.0845 -0.3334
  162ccc    H15 4828   5.005   6.638   6.495  0.7287 -0.5937  0.5462
  162ccc     C9 4829   5.164   6.738   6.593  0.0803 -0.4839  0.5101
  162ccc     O3 4830   5.188   6.812   6.686  0.5656  0.6748 -0.1138
  162ccc     O4 4831   5.269   6.703   6.517 -0.4251 -0.1691  0.1689
  162ccc    H16 4832   5.241   6.637   6.451 -0.0187  0.6014 -0.7696
  162ccc     O5 4833   4.914   7.213   6.073  0.1838 -0.1420 -0.2983
  163ccc     C1 4834   6.868   8.760   7.405 -0.2358 -0.1456 -0.5374
  163ccc     H1 4835   6.907   8.782   7.305 -1.0016 -2.0977 -1.2934
  163ccc     H2 4836   6.759   8.761   7.394 -0.2037  2.5569 -0.8169
  163ccc     C2 4837   6.909   8.863   7.507 -0.5023 -0.0602 -0.1726
  163ccc     H3 4838   7.009   8.828   7.536 -0.5697  0.3633  0.6019
  163ccc     H4 4839   6.843   8.846   7.593 -1.0344  0.6952 -0.4221
  163ccc     C3 4840   6.907   9.015   7.473 -0.9306  0.2141  0.4163
  163ccc     H5 4841   6.977   9.021   7.389  1.5461 -0.1159  2.4211
  163ccc     H6 4842   6.946   9.076   7.555 -1.3329  1.2077 -0.1190
  163ccc     N1 4843   6.765   9.051   7.429  0.4745 -0.3200 -0.1741
  163ccc     C4 4844   6.752   9.104   7.289  0.6547 -0.1734 -0.1770
  163ccc     H7 4845   6.645   9.098   7.264  0.8867  2.5812 -2.1121
  163ccc     H8 4846   6.797   9.018   7.239  0.5815 -0.9346  1.0638
  163ccc     C5 4847   6.814   9.242   7.257 -0.2462  0.1337  0.3848
  163ccc     H9 4848   6.910   9.246   7.309 -1.0662 -2.1087  2.1665
  163ccc    H10 4849   6.750   9.327   7.284 -0.3978  0.8269 -2.0531
  163ccc     C6 4850   6.858   9.250   7.106 -0.5710 -0.1804 -0.4223
  163ccc     O1 4851   6.884   9.157   7.037  0.2165 -0.4739  0.0807
  163ccc     O2 4852   6.858   9.377   7.059  0.0822  0.1057  0.2466
  163ccc    H11 4853   6.886   9.418   7.143 -0.6347 -1.5955  1.3467
  163ccc     C7 4854   6.691   9.140   7.520 -0.0094  0.3443 -0.5485
  163ccc    H12 4855   6.731   9.242   7.522 -1.1006  0.7503  0.4395
  163ccc    H13 4856   6.583   9.139   7.502 -0.1998 -0.1258  0.5832
  163ccc     C8 4857   6.704   9.078   7.664  0.1770  0.0156 -0.5477
  163ccc    H14 4858   6.652   8.982   7.663  1.0008 -0.4288 -1.4783
  163ccc    H15 4859   6.807   9.061   7.697 -0.0193  0.1844  0.1684
  163ccc     C9 4860   6.647   9.159   7.773  0.5855 -0.5621 -0.9786
  163ccc     O3 4861   6.598   9.271   7.755 -0.3915  0.5011  0.2036
  163ccc     O4 4862   6.644   9.106   7.896 -0.6110  0.0612 -0.1377
  163ccc    H16 4863   6.695   9.026   7.877 -0.0191 -0.1050  1.9795
  163ccc     O5 4864   6.907   8.627   7.449 -0.1231  0.1184  0.5807
  164ccc     C1 4865   6.372   7.937   6.834  0.1909  0.3705 -0.6617
  164ccc     H1 4866   6.263   7.941   6.843  0.3710  1.6858  1.2080
  164ccc     H2 4867   6.405   7.948   6.730 -1.1876  0.3623 -1.1145
  164ccc     C2 4868   6.414   7.804   6.900 -1.1085  0.7392  0.6829
  164ccc     H3 4869   6.523   7.801   6.892 -1.2478 -0.5758 -1.0753
  164ccc     H4 4870   6.372   7.718   6.846  2.0211 -0.3932 -0.0779
  164ccc     C3 4871   6.370   7.784   7.048  0.4103  0.7120  0.3504
  164ccc     H5 4872   6.262   7.803   7.045  0.3954  0.3855 -2.0826
  164ccc     H6 4873   6.412   7.865   7.109  0.3432 -0.9707  2.6727
  164ccc     N1 4874   6.397   7.654   7.111 -0.3868 -0.2176  0.4676
  164ccc     C4 4875   6.322   7.647   7.247 -0.7193 -0.5401 -0.2562
  164ccc     H7 4876   6.369   7.720   7.315  0.5037 -0.4932 -1.1427
  164ccc     H8 4877   6.219   7.681   7.229 -1.1048 -1.3693  0.3574
  164ccc     C5 4878   6.324   7.500   7.302  0.1716 -0.1193  0.5243
  164ccc     H9 4879   6.425   7.470   7.333  0.0467  0.5768  1.6653
  164ccc    H10 4880   6.280   7.441   7.221  0.0683  1.2226 -0.4087
  164ccc     C6 4881   6.237   7.482   7.430 -0.1537 -0.1487 -0.1951
  164ccc     O1 4882   6.115   7.478   7.419  0.3711 -0.6189 -0.1936
  164ccc     O2 4883   6.281   7.557   7.531 -0.3412  0.2078 -0.0873
  164ccc    H11 4884   6.378   7.565   7.527 -0.3329 -1.0758 -3.4897
  164ccc     C7 4885   6.527   7.597   7.107 -0.4641 -0.5439 -0.1698
  164ccc    H12 4886   6.557   7.583   7.002  0.8371 -0.8403  0.2311
  164ccc    H13 4887   6.530   7.497   7.152 -1.0005 -0.6023 -0.2638
  164ccc     C8 4888   6.630   7.683   7.184 -0.5537 -0.7311 -0.0198
  164ccc    H14 4889   6.599   7.706   7.287 -1.1715  2.3777 -0.8668
  164ccc    H15 4890   6.650   7.781   7.140  0.5414 -0.7548  0.4230
  164ccc     C9 4891   6.764   7.617   7.201  0.2774  0.2139 -0.3239
  164ccc     O3 4892   6.802   7.526   7.132 -0.0244 -0.6418  0.6771
  164ccc     O4 4893   6.851   7.701   7.266  0.3186 -0.0749  0.3439
  164ccc    H16 4894   6.787   7.769   7.294 -0.3565 -1.3188  1.9471
  164ccc     O5 4895   6.415   8.046   6.920 -0.2712 -0.3205  0.2371
  165ccc     C1 4896   7.120   7.773   6.761  0.1190 -0.3376 -0.7587
  165ccc     H1 4897   7.044   7.694   6.759  0.5068 -0.7092 -2.0981
  165ccc     H2 4898   7.183   7.745   6.675  0.2708  0.1530 -0.8091
  165ccc     C2 4899   7.207   7.777   6.892 -0.1096  0.3301  0.0071
  165ccc     H3 4900   7.154   7.847   6.958 -2.3878 -1.5857  0.2394
  165ccc     H4 4901   7.304   7.822   6.865  0.9287 -1.5128  0.5728
  165ccc     C3 4902   7.237   7.646   6.961 -0.1341 -0.1888  0.6943
  165ccc     H5 4903   7.286   7.585   6.884  1.0786 -0.2226  1.4881
  165ccc     H6 4904   7.145   7.594   6.989  1.0138 -1.6297  1.8774
  165ccc     N1 4905   7.329   7.661   7.073 -0.1411 -0.6026 -0.1071
  165ccc     C4 4906   7.288   7.765   7.165  0.0447  0.0134 -0.3307
  165ccc     H7 4907   7.283   7.865   7.120  0.8772 -0.7385 -2.1454
  165ccc     H8 4908   7.368   7.779   7.240 -1.0548 -1.3511  1.1417
  165ccc     C5 4909   7.151   7.731   7.231 -0.2838  0.4970 -0.2649
  165ccc     H9 4910   7.142   7.626   7.264 -0.1474  0.1222 -1.4102
  165ccc    H10 4911   7.072   7.760   7.161 -1.0252  1.3379  0.8983
  165ccc     C6 4912   7.130   7.809   7.359  0.1823  0.1954  0.3564
  165ccc     O1 4913   7.203   7.898   7.398 -0.1013 -0.0070 -0.5520
  165ccc     O2 4914   7.039   7.753   7.439  0.2007 -0.2082  0.0501
  165ccc    H11 4915   7.013   7.680   7.379  1.9218 -0.8505  0.0575
  165ccc     C7 4916   7.379   7.529   7.130  0.3208  0.1720 -0.5477
  165ccc    H12 4917   7.300   7.470   7.178  0.6501 -1.9788 -2.5281
  165ccc    H13 4918   7.415   7.476   7.041 -0.7694  0.6995 -1.3092
  165ccc     C8 4919   7.497   7.540   7.225  0.1149  0.1757 -1.0098
  165ccc    H14 4920   7.463   7.581   7.321  3.0001  1.6610 -0.5521
  165ccc    H15 4921   7.579   7.603   7.188  1.5943 -1.9655 -1.4362
  165ccc     C9 4922   7.553   7.400   7.252  0.1445  0.4310 -1.0903
  165ccc     O3 4923   7.514   7.328   7.348  0.0763  0.3584  0.6585
  165ccc     O4 4924   7.674   7.369   7.199  0.4322 -0.6477 -0.1996
  165ccc    H16 4925   7.702   7.439   7.138  1.9767  0.8121  2.0850
  165ccc     O5 4926   7.054   7.907   6.741 -0.3235 -0.4896 -0.4569
  166ccc     C1 4927   7.188   8.328   6.466 -0.0081 -0.2467  0.3450
  166ccc     H1 4928   7.192   8.220   6.485  0.5243 -0.0807  1.2074
  166ccc     H2 4929   7.289   8.346   6.426  0.2393  0.5464  1.3282
  166ccc     C2 4930   7.157   8.406   6.593  0.5416  0.2252  0.3856
  166ccc     H3 4931   7.208   8.356   6.677 -2.0785 -2.8323  0.2404
  166ccc     H4 4932   7.051   8.393   6.619  0.1219 -0.1406 -1.4443
  166ccc     C3 4933   7.190   8.551   6.580 -0.3691  0.0564 -0.1269
  166ccc     H5 4934   7.120   8.587   6.503  1.1213 -1.6542 -2.3778
  166ccc     H6 4935   7.290   8.568   6.538 -0.9875 -2.2335 -2.7047
  166ccc     N1 4936   7.170   8.619   6.711  0.5446 -0.4168  0.5051
  166ccc     C4 4937   7.268   8.588   6.818  0.2702 -0.0847  0.3234
  166ccc     H7 4938   7.365   8.635   6.798 -1.3404  2.2955 -2.1496
  166ccc     H8 4939   7.289   8.480   6.818  0.5180 -0.0379 -0.5107
  166ccc     C5 4940   7.220   8.611   6.963 -0.1629  0.3843  0.1381
  166ccc     H9 4941   7.301   8.614   7.037 -1.0493 -0.2921  1.1603
  166ccc    H10 4942   7.166   8.707   6.961 -1.8883 -0.5275  1.4523
  166ccc     C6 4943   7.142   8.495   7.012  0.7907  0.3668  0.1148
  166ccc     O1 4944   7.022   8.503   7.026 -0.4332 -0.1280  0.1457
  166ccc     O2 4945   7.204   8.375   7.031 -0.2723  0.4710  0.2894
  166ccc    H11 4946   7.300   8.395   7.028  0.0499 -1.1332 -1.5534
  166ccc     C7 4947   7.155   8.768   6.695 -0.0098  0.6676  0.0378
  166ccc    H12 4948   7.157   8.829   6.787 -1.4913  0.5186  0.1908
  166ccc    H13 4949   7.249   8.793   6.646  1.1107 -1.3281  1.1088
  166ccc     C8 4950   7.037   8.821   6.606  0.8567 -0.4071 -0.1674
  166ccc    H14 4951   6.945   8.789   6.656  1.0174 -0.5734  0.0256
  166ccc    H15 4952   7.044   8.783   6.503  1.3667  1.7075 -0.9382
  166ccc     C9 4953   7.036   8.971   6.591  0.2833 -0.2176  0.8323
  166ccc     O3 4954   7.089   9.045   6.669 -0.5422  0.4691 -0.3560
  166ccc     O4 4955   6.922   9.021   6.536 -0.0357  0.5857 -0.7270
  166ccc    H16 4956   6.889   8.954   6.474  2.7514 -2.0430  0.4859
  166ccc     O5 4957   7.078   8.358   6.373  0.3735 -0.3758  0.3069
  167ccc     C1 4958   5.135   9.633   7.265  0.0793  0.1853 -0.0493
  167ccc     H1 4959   5.183   9.696   7.340  0.5230  0.4660 -0.5694
  167ccc     H2 4960   5.045   9.682   7.225  0.5260  1.7718  0.8400
  167ccc     C2 4961   5.109   9.501   7.337 -0.4421  0.1847 -0.3348
  167ccc     H3 4962   5.206   9.466   7.374 -0.6839 -0.5324 -0.3627
  167ccc     H4 4963   5.068   9.429   7.265 -0.3505  0.1509 -0.3535
  167ccc     C3 4964   5.021   9.521   7.463 -0.8547  0.0161 -0.4314
  167ccc     H5 4965   5.085   9.566   7.540 -2.8634  1.2715  0.5475
  167ccc     H6 4966   4.994   9.417   7.484  1.5250 -0.0512  2.7875
  167ccc     N1 4967   4.896   9.597   7.437  0.3433 -0.3232 -0.0364
  167ccc     C4 4968   4.807   9.546   7.328  0.1991 -0.1711 -0.5629
  167ccc     H7 4969   4.873   9.538   7.241  1.0334  0.3648  0.0087
  167ccc     H8 4970   4.730   9.615   7.291  0.4526 -0.1766 -1.0953
  167ccc     C5 4971   4.743   9.410   7.371 -0.5220  0.4188 -0.0791
  167ccc     H9 4972   4.697   9.427   7.470  1.8193 -0.5562  1.2276
  167ccc    H10 4973   4.820   9.332   7.376  0.6779  1.4384 -2.1021
  167ccc     C6 4974   4.634   9.359   7.284  0.2576 -0.6883 -0.1918
  167ccc     O1 4975   4.612   9.391   7.169  0.3137 -0.2445 -0.3310
  167ccc     O2 4976   4.584   9.236   7.321  0.0546 -0.1531  0.0028
  167ccc    H11 4977   4.602   9.235   7.417  1.4341  0.9953 -0.2206
  167ccc     C7 4978   4.849   9.653   7.561 -0.0731  0.4198 -0.5645
  167ccc    H12 4979   4.763   9.599   7.600  1.5007 -1.2892  0.6059
  167ccc    H13 4980   4.928   9.652   7.637  0.3023 -0.4500 -0.9603
  167ccc     C8 4981   4.805   9.803   7.538 -0.3748 -0.0038  1.2956
  167ccc    H14 4982   4.885   9.857   7.486  1.5432 -2.4402  1.6376
  167ccc    H15 4983   4.719   9.800   7.470 -1.5013 -0.2459  2.6789
  167ccc     C9 4984   4.764   9.878   7.671  1.0760 -0.1265  0.2360
  167ccc     O3 4985   4.791   9.841   7.785 -0.2719  0.0097 -0.1715
  167ccc     O4 4986   4.719   9.999   7.644  0.6057  0.1414 -0.0890
  167ccc    H16 4987   4.704  10.006   7.548  0.6591 -3.3847 -0.4168
  167ccc     O5 4988   5.233   9.614   7.162 -0.0096 -0.0080  0.0505
  168ccc     C1 4989   5.399  10.362   6.530  0.8957  0.0450 -0.7722
  168ccc     H1 4990   5.297  10.387   6.559  0.4902 -1.9084 -0.4527
  168ccc     H2 4991   5.471  10.408   6.599  0.3789  0.9381 -0.8253
  168ccc     C2 4992   5.414  10.402   6.385 -0.5786  0.0658  0.1285
  168ccc     H3 4993   5.338  10.346   6.330  1.1646  0.5155 -2.8712
  168ccc     H4 4994   5.510  10.374   6.340 -0.6490  0.2202 -0.1191
  168ccc     C3 4995   5.406  10.558   6.360 -0.3960 -0.0708 -0.8629
  168ccc     H5 4996   5.397  10.577   6.252 -0.2810 -0.6180 -0.9689
  168ccc     H6 4997   5.503  10.605   6.379 -2.2332  2.6037  2.5103
  168ccc     N1 4998   5.293  10.632   6.410  0.4643  0.2407  0.0957
  168ccc     C4 4999   5.163  10.565   6.375 -0.4445 -0.7493 -0.9435
  168ccc     H7 5000   5.164  10.462   6.413 -1.6177 -0.6459 -0.5977
  168ccc     H8 5001   5.149  10.560   6.266 -0.8915  0.1160 -0.9323
  168ccc     C5 5002   5.038  10.645   6.433 -0.1343  0.1083 -1.3143
  168ccc     H9 5003   5.049  10.665   6.540 -0.3010 -0.3256 -1.2127
  168ccc    H10 5004   5.031  10.749   6.400 -0.5291  0.1012 -1.2561
  168ccc     C6 5005   4.902  10.587   6.409 -0.8330 -0.3398  0.3985
  168ccc     O1 5006   4.858  10.578   6.295  0.3109 -0.2004 -0.1300
  168ccc     O2 5007   4.857  10.491   6.493  0.0703 -0.3203 -0.0278
  168ccc    H11 5008   4.929  10.497   6.558 -1.4236 -2.1749  1.8731
  168ccc     C7 5009   5.311  10.773   6.377 -0.2754 -0.7421  0.1159
  168ccc    H12 5010   5.221  10.803   6.322  0.1220 -0.2001 -0.2462
  168ccc    H13 5011   5.388  10.780   6.300 -0.1489  0.6287  0.3636
  168ccc     C8 5012   5.334  10.860   6.500 -0.5703 -0.0794 -0.4773
  168ccc    H14 5013   5.250  10.866   6.570 -0.2866 -1.7301  0.0093
  168ccc    H15 5014   5.352  10.964   6.467 -0.8053 -0.1744 -0.9184
  168ccc     C9 5015   5.445  10.822   6.592 -0.3877  0.5529 -0.4816
  168ccc     O3 5016   5.435  10.758   6.692  0.3449  0.3712 -0.0752
  168ccc     O4 5017   5.553  10.902   6.563  0.0371  0.8762  0.3612
  168ccc    H16 5018   5.542  10.924   6.469  0.1277  1.1693  0.4174
  168ccc     O5 5019   5.413  10.217   6.539 -0.1042 -0.2254  0.4413
  169ccc     C1 5020   6.167  10.821   6.193  0.8112  0.0033 -0.0543
  169ccc     H1 5021   6.187  10.787   6.091 -0.6938 -1.1619  0.0217
  169ccc     H2 5022   6.099  10.907   6.182  0.8602  0.0273 -0.1789
  169ccc     C2 5023   6.299  10.855   6.253 -0.3437  0.4597  0.1712
  169ccc     H3 5024   6.277  10.901   6.350 -1.2588 -0.0272  0.2047
  169ccc     H4 5025   6.340  10.934   6.188  2.4802 -0.4383  0.8013
  169ccc     C3 5026   6.399  10.740   6.260 -0.0750  0.6676  0.5796
  169ccc     H5 5027   6.413  10.712   6.155 -1.4167  0.2346  0.5040
  169ccc     H6 5028   6.350  10.654   6.308 -1.8203  1.5749  0.4761
  169ccc     N1 5029   6.530  10.770   6.318  0.5321  0.1621  0.4705
  169ccc     C4 5030   6.628  10.830   6.226  0.6839 -0.1184 -0.1438
  169ccc     H7 5031   6.603  10.936   6.213  0.7884 -0.2947 -1.9987
  169ccc     H8 5032   6.623  10.789   6.124 -1.9073 -1.2436  0.3809
  169ccc     C5 5033   6.774  10.785   6.268  0.1299 -0.2042 -0.4486
  169ccc     H9 5034   6.842  10.826   6.193  1.5152 -1.1767  0.2606
  169ccc    H10 5035   6.798  10.836   6.362 -0.1165 -0.0872 -0.4481
  169ccc     C6 5036   6.776  10.639   6.290 -0.4408  0.3080  0.2260
  169ccc     O1 5037   6.778  10.575   6.393 -0.5173 -0.6056 -0.0905
  169ccc     O2 5038   6.771  10.564   6.178 -0.6649  0.4576  0.0324
  169ccc    H11 5039   6.779  10.637   6.114 -2.9808  0.9087  0.2336
  169ccc     C7 5040   6.532  10.813   6.459 -0.4310  0.3510  0.1074
  169ccc    H12 5041   6.636  10.834   6.487  0.6255 -2.1058 -1.8098
  169ccc    H13 5042   6.478  10.908   6.461  0.8847  1.1002  0.7852
  169ccc     C8 5043   6.475  10.697   6.551  0.1587 -0.5961  0.2263
  169ccc    H14 5044   6.557  10.627   6.569  0.5582  0.0511  0.9567
  169ccc    H15 5045   6.394  10.642   6.501  1.7154 -0.9426 -2.0145
  169ccc     C9 5046   6.435  10.747   6.695 -0.3222 -0.1762  0.4609
  169ccc     O3 5047   6.520  10.797   6.767 -0.0650  0.0162  0.0314
  169ccc     O4 5048   6.308  10.791   6.706 -0.1343  0.1788  0.4937
  169ccc    H16 5049   6.266  10.748   6.630 -1.1074  0.0317  1.1116
  169ccc     O5 5050   6.112  10.712   6.271  0.0939  0.4874  0.0041
  170ccc     C1 5051   5.792  10.970   7.032  0.9284  0.3812 -0.0517
  170ccc     H1 5052   5.882  10.980   7.092  1.6630  0.9524 -1.2266
  170ccc     H2 5053   5.756  11.072   7.009  1.8813  1.1172  1.6572
  170ccc     C2 5054   5.689  10.887   7.120 -0.0868  0.0485 -0.0303
  170ccc     H3 5055   5.670  10.953   7.206 -1.6233  1.0181 -1.0919
  170ccc     H4 5056   5.736  10.793   7.152  0.4865  0.1089 -0.6795
  170ccc     C3 5057   5.559  10.857   7.039 -0.0902  0.3378  0.3972
  170ccc     H5 5058   5.595  10.792   6.958  1.5528  1.7410 -0.0384
  170ccc     H6 5059   5.521  10.951   6.998  0.4768  0.9350  1.2171
  170ccc     N1 5060   5.459  10.777   7.113 -0.1783 -0.3438  0.1745
  170ccc     C4 5061   5.367  10.711   7.021  0.3836  0.0531  0.0189
  170ccc     H7 5062   5.269  10.684   7.061 -0.0983  1.1253 -0.4301
  170ccc     H8 5063   5.350  10.778   6.936 -0.7284 -0.6265 -0.3119
  170ccc     C5 5064   5.426  10.583   6.957 -0.6564 -0.1126 -1.0400
  170ccc     H9 5065   5.448  10.510   7.037  0.9175  0.7575 -0.6524
  170ccc    H10 5066   5.513  10.601   6.893 -0.7823  0.4853 -1.0426
  170ccc     C6 5067   5.317  10.521   6.874  0.0790 -0.2971  0.0658
  170ccc     O1 5068   5.223  10.461   6.924 -0.8539  0.5030  0.7220
  170ccc     O2 5069   5.295  10.573   6.755  0.2894  0.5117 -0.5368
  170ccc    H11 5070   5.362  10.642   6.741  2.6961 -1.3485  1.3414
  170ccc     C7 5071   5.398  10.853   7.221 -0.4872  0.2420 -0.8780
  170ccc    H12 5072   5.477  10.876   7.293  0.0153 -0.8709 -1.0569
  170ccc    H13 5073   5.357  10.946   7.179 -2.2648  0.7036  1.7561
  170ccc     C8 5074   5.282  10.787   7.305 -0.7870  0.1702  0.2519
  170ccc    H14 5075   5.201  10.764   7.236 -1.8355  1.2712  1.1010
  170ccc    H15 5076   5.325  10.695   7.346  0.4528  2.0579  3.3988
  170ccc     C9 5077   5.241  10.874   7.419  0.5667  0.6290  0.2264
  170ccc     O3 5078   5.320  10.955   7.462  0.8155 -0.5639 -0.0416
  170ccc     O4 5079   5.108  10.905   7.421  0.1626 -0.2208  0.5955
  170ccc    H16 5080   5.059  10.831   7.379 -0.9329  0.4038  0.7444
  170ccc     O5 5081   5.838  10.893   6.920  0.3049  0.3182 -0.2417
  171ccc     C1 5082   5.505   8.509   7.625 -1.0675  0.1993 -0.4543
  171ccc     H1 5083   5.423   8.488   7.556 -2.1179 -0.9474  1.1051
  171ccc     H2 5084   5.578   8.569   7.569  0.4398 -0.7488  0.4512
  171ccc     C2 5085   5.563   8.379   7.685 -0.3908 -0.3231 -0.8887
  171ccc     H3 5086   5.487   8.342   7.754  1.2753  0.5698  1.4827
  171ccc     H4 5087   5.655   8.413   7.733 -1.1392 -0.4554  0.6537
  171ccc     C3 5088   5.611   8.278   7.581 -0.5157  0.5218 -0.8216
  171ccc     H5 5089   5.677   8.314   7.502 -0.3121  1.5728 -0.1917
  171ccc     H6 5090   5.517   8.243   7.535 -1.2543  0.1228  0.9427
  171ccc     N1 5091   5.682   8.171   7.652  0.3231  0.1480  0.8368
  171ccc     C4 5092   5.818   8.186   7.714  0.1805  0.1127 -0.0497
  171ccc     H7 5093   5.825   8.275   7.777 -0.4868 -0.1820  0.4530
  171ccc     H8 5094   5.847   8.095   7.767 -0.8814 -0.5696 -0.6129
  171ccc     C5 5095   5.914   8.192   7.593  0.0014  0.3028  0.1411
  171ccc     H9 5096   5.869   8.250   7.511 -0.9233  2.0368  1.8314
  171ccc    H10 5097   5.923   8.092   7.548  2.7164  0.7601 -0.4653
  171ccc     C6 5098   6.040   8.264   7.622 -0.4102  0.2023 -0.4823
  171ccc     O1 5099   6.092   8.268   7.738  0.4014  0.6180 -0.5751
  171ccc     O2 5100   6.123   8.269   7.517 -0.2393  0.1553 -0.1240
  171ccc    H11 5101   6.052   8.261   7.452 -1.4537 -0.1536  1.2297
  171ccc     C7 5102   5.653   8.037   7.585 -0.3270  0.2394 -0.1683
  171ccc    H12 5103   5.689   7.955   7.649 -1.9343 -0.7323 -0.4945
  171ccc    H13 5104   5.546   8.017   7.597  0.0823 -0.8790  1.9828
  171ccc     C8 5105   5.702   8.006   7.440  0.3656 -0.4232  0.2727
  171ccc    H14 5106   5.726   8.104   7.396 -0.0968  0.0365  1.0297
  171ccc    H15 5107   5.794   7.948   7.430  0.5083  0.0620 -1.2630
  171ccc     C9 5108   5.588   7.955   7.350  0.0991 -0.9501  0.2707
  171ccc     O3 5109   5.516   8.032   7.280  0.0874  0.1686  0.4307
  171ccc     O4 5110   5.565   7.825   7.352  1.0691 -0.4039  0.3128
  171ccc    H16 5111   5.636   7.785   7.405  1.7141 -2.1084 -1.7316
  171ccc     O5 5112   5.463   8.579   7.750 -0.0058 -0.2076  0.1560
  172ccc     C1 5113   5.330   9.220   7.765 -0.0066 -0.4271  0.4227
  172ccc     H1 5114   5.319   9.115   7.738 -2.0454 -0.0112 -0.4901
  172ccc     H2 5115   5.350   9.230   7.872  1.6022  1.2313 -0.0044
  172ccc     C2 5116   5.209   9.313   7.732 -0.6761  0.0727  0.0158
  172ccc     H3 5117   5.170   9.292   7.632 -0.1455  2.1328 -0.6612
  172ccc     H4 5118   5.253   9.413   7.739  0.4751 -0.4171 -0.1445
  172ccc     C3 5119   5.099   9.299   7.849  0.5272 -0.4863 -0.2950
  172ccc     H5 5120   5.155   9.326   7.939 -1.3077 -0.4213  0.8411
  172ccc     H6 5121   5.057   9.199   7.864  0.9415 -0.6899 -0.4741
  172ccc     N1 5122   4.986   9.390   7.833 -0.3997  0.0890 -0.0981
  172ccc     C4 5123   4.944   9.458   7.959 -0.0952  0.3187 -0.6829
  172ccc     H7 5124   5.025   9.462   8.033 -0.1852  0.0364 -0.5714
  172ccc     H8 5125   4.868   9.401   8.012  1.0698 -0.1116  0.5747
  172ccc     C5 5126   4.894   9.599   7.934 -0.7698 -0.0098  0.0796
  172ccc     H9 5127   4.951   9.654   7.858  1.9713  0.9344  2.7064
  172ccc    H10 5128   4.791   9.591   7.899 -1.0753 -0.5492  1.0840
  172ccc     C6 5129   4.875   9.677   8.063  0.4115  0.6543 -0.1801
  172ccc     O1 5130   4.891   9.631   8.175 -0.0769  0.3657 -0.2969
  172ccc     O2 5131   4.864   9.805   8.037  0.1747  0.2550  0.1244
  172ccc    H11 5132   4.844   9.806   7.942 -2.1541 -0.3845  0.5815
  172ccc     C7 5133   4.873   9.343   7.747  0.1888  0.0013 -0.4182
  172ccc    H12 5134   4.918   9.303   7.656 -0.4114 -1.3324 -0.1450
  172ccc    H13 5135   4.818   9.431   7.711 -0.6472 -0.5025 -0.3744
  172ccc     C8 5136   4.781   9.227   7.803  0.0120 -0.3211 -0.2632
  172ccc    H14 5137   4.722   9.281   7.878  0.5919  0.3804 -0.3106
  172ccc    H15 5138   4.847   9.153   7.850  1.1678  1.7042  1.3710
  172ccc     C9 5139   4.696   9.161   7.696 -0.7994  0.5588  0.2797
  172ccc     O3 5140   4.679   9.200   7.580 -1.0325  0.1249 -0.1114
  172ccc     O4 5141   4.649   9.047   7.734  0.6398 -0.0405 -0.2864
  172ccc    H16 5142   4.662   9.052   7.830 -0.9499  1.2764 -0.1226
  172ccc     O5 5143   5.441   9.285   7.691  0.3243 -0.1159 -0.3975
  173ccc     C1 5144   5.190   9.891   7.732 -0.5494  0.1626 -0.7142
  173ccc     H1 5145   5.204   9.816   7.653 -2.5502 -2.0326  0.9404
  173ccc     H2 5146   5.092   9.936   7.710 -1.3775 -0.9478  0.5751
  173ccc     C2 5147   5.301   9.991   7.698 -0.1713  0.4872  0.0198
  173ccc     H3 5148   5.398   9.939   7.694  0.0056  0.8544 -0.4995
  173ccc     H4 5149   5.314  10.054   7.787  1.3697  0.2945 -0.0612
  173ccc     C3 5150   5.278  10.076   7.577  0.4435 -0.2756 -0.0038
  173ccc     H5 5151   5.365  10.138   7.553 -1.1342  2.8707  2.0549
  173ccc     H6 5152   5.202  10.149   7.606  1.7127  0.2894  1.9790
  173ccc     N1 5153   5.243  10.001   7.454  0.7920  0.4444  0.2652
  173ccc     C4 5154   5.347   9.910   7.404  0.3954 -0.4744  0.3058
  173ccc     H7 5155   5.305   9.861   7.316  0.8114  0.3697 -0.3741
  173ccc     H8 5156   5.365   9.826   7.473  1.2896  0.6387  1.4612
  173ccc     C5 5157   5.477   9.980   7.357 -0.0385 -0.0062  0.3028
  173ccc     H9 5158   5.556   9.905   7.344  0.3902  0.4272  0.4000
  173ccc    H10 5159   5.514  10.056   7.427 -1.6272 -0.3187  1.5177
  173ccc     C6 5160   5.472  10.040   7.214 -0.0542  0.3571 -0.0387
  173ccc     O1 5161   5.373  10.047   7.141  0.0135  0.4899  0.4072
  173ccc     O2 5162   5.588  10.083   7.171 -0.6109 -0.4141  0.3202
  173ccc    H11 5163   5.652  10.075   7.244 -0.6814 -0.8625  0.3374
  173ccc     C7 5164   5.152  10.068   7.357 -0.1294  0.1754  0.1005
  173ccc    H12 5165   5.204  10.152   7.309  1.0832 -0.3383  0.4949
  173ccc    H13 5166   5.072  10.123   7.408 -0.7168 -1.5901  1.1328
  173ccc     C8 5167   5.087   9.981   7.246 -0.2855  0.2945  1.1512
  173ccc    H14 5168   5.160   9.912   7.203  1.0787  2.6529 -0.4065
  173ccc    H15 5169   5.011   9.919   7.297 -0.3708  0.7642  1.6025
  173ccc     C9 5170   5.031  10.066   7.131  0.7668 -0.1604  0.3035
  173ccc     O3 5171   4.915  10.081   7.099  0.4526 -0.0308 -0.4063
  173ccc     O4 5172   5.121  10.099   7.039  0.2344  0.3168 -0.2591
  173ccc    H16 5173   5.209  10.096   7.080 -0.1194  3.1157  0.7979
  173ccc     O5 5174   5.192   9.832   7.863 -0.2654  0.4216 -0.4776
  174ccc     C1 5175   5.619   9.915   8.611  0.3040  0.3272  0.3586
  174ccc     H1 5176   5.725   9.902   8.637  0.4077  0.9335  0.2410
  174ccc     H2 5177   5.606  10.022   8.595 -1.6949  0.0759  0.1073
  174ccc     C2 5178   5.535   9.876   8.738 -0.9217 -0.2524 -0.1790
  174ccc     H3 5179   5.435   9.844   8.707 -0.9046  0.7530 -1.2992
  174ccc     H4 5180   5.529   9.964   8.804 -0.1257  1.4867 -2.3642
  174ccc     C3 5181   5.600   9.758   8.824 -0.5537 -0.3954  0.0640
  174ccc     H5 5182   5.683   9.794   8.885  0.3261  1.6260 -2.2080
  174ccc     H6 5183   5.637   9.675   8.762 -1.0120 -0.0332 -0.7053
  174ccc     N1 5184   5.507   9.695   8.916  0.1654  0.4122 -0.5765
  174ccc     C4 5185   5.410   9.615   8.837 -0.0673 -0.2532  0.8455
  174ccc     H7 5186   5.470   9.555   8.767 -1.3785 -0.4632 -0.1174
  174ccc     H8 5187   5.336   9.670   8.777 -1.2221 -1.2927  1.3020
  174ccc     C5 5188   5.334   9.515   8.932  0.7632 -0.5303  0.4636
  174ccc     H9 5189   5.265   9.567   9.000  1.6128  1.1336  0.0915
  174ccc    H10 5190   5.411   9.469   8.996  0.3448 -0.2913  1.1455
  174ccc     C6 5191   5.271   9.400   8.856  0.0557 -0.6688 -0.8276
  174ccc     O1 5192   5.279   9.388   8.736 -0.0277 -0.0617  0.4904
  174ccc     O2 5193   5.171   9.339   8.920  0.2827 -0.4351  0.8684
  174ccc    H11 5194   5.194   9.364   9.011 -0.6588  1.0130  0.7133
  174ccc     C7 5195   5.443   9.781   9.019  0.2292 -0.3133  0.7698
  174ccc    H12 5196   5.363   9.848   8.986  1.4237  0.4918 -0.5709
  174ccc    H13 5197   5.402   9.712   9.094 -0.9593  0.5087  0.8977
  174ccc     C8 5198   5.551   9.865   9.098 -0.3248  0.6664 -0.1528
  174ccc    H14 5199   5.587   9.950   9.039 -0.4977  0.1366 -1.0387
  174ccc    H15 5200   5.641   9.805   9.116 -0.4052  0.0718 -1.6591
  174ccc     C9 5201   5.506   9.929   9.221 -0.3325  0.5377  0.4297
  174ccc     O3 5202   5.392   9.930   9.265 -0.2445  0.1300  0.5558
  174ccc     O4 5203   5.600   9.968   9.303  0.2713 -0.1184 -0.4954
  174ccc    H16 5204   5.679   9.973   9.247  2.0738  1.0138  2.0346
  174ccc     O5 5205   5.573   9.828   8.506  0.1798 -0.3579 -0.1919
  175ccc     C1 5206   2.411   9.966   6.157 -0.2439  0.0920 -0.8864
  175ccc     H1 5207   2.447  10.046   6.223  0.3991 -0.7744 -0.1740
  175ccc     H2 5208   2.495   9.924   6.101 -0.2354 -1.1002  0.0054
  175ccc     C2 5209   2.295  10.029   6.071 -0.5360  0.4298  0.1244
  175ccc     H3 5210   2.327  10.131   6.049 -1.5323  1.0810  1.6086
  175ccc     H4 5211   2.207  10.040   6.136  0.4015  1.1668  1.2764
  175ccc     C3 5212   2.263   9.958   5.935  0.0672  0.1530  0.2832
  175ccc     H5 5213   2.200  10.029   5.880  0.1576 -0.5269 -0.7190
  175ccc     H6 5214   2.204   9.870   5.963  0.4815  0.6522  2.8143
  175ccc     N1 5215   2.368   9.921   5.845 -0.2381 -0.6690  0.4666
  175ccc     C4 5216   2.459  10.032   5.823 -0.6254 -0.0942 -0.8265
  175ccc     H7 5217   2.495  10.068   5.920 -3.2951 -0.1857  0.2546
  175ccc     H8 5218   2.409  10.115   5.772  1.3288 -0.8779 -4.1961
  175ccc     C5 5219   2.579   9.998   5.731 -1.7562 -0.5414 -0.0822
  175ccc     H9 5220   2.627   9.912   5.778  0.8791  1.4650  1.0221
  175ccc    H10 5221   2.548   9.969   5.630 -0.7001  1.1732 -0.9187
  175ccc     C6 5222   2.687  10.108   5.719  0.4387 -0.2509 -0.2804
  175ccc     O1 5223   2.686  10.224   5.757  0.1164  0.3037  0.0013
  175ccc     O2 5224   2.764  10.087   5.614  0.0572  0.1141 -0.3745
  175ccc    H11 5225   2.755   9.994   5.587  0.3857 -0.7611  2.4306
  175ccc     C7 5226   2.316   9.859   5.719  0.4778  0.0278 -0.5230
  175ccc    H12 5227   2.374   9.890   5.631 -1.1820 -3.3849 -2.9399
  175ccc    H13 5228   2.210   9.882   5.701  0.1309 -0.8672  0.3133
  175ccc     C8 5229   2.331   9.704   5.730 -0.5670  0.0935 -0.1883
  175ccc    H14 5230   2.250   9.665   5.793  0.5268  0.3148  1.3936
  175ccc    H15 5231   2.429   9.680   5.773 -0.2670  0.6765 -0.5570
  175ccc     C9 5232   2.313   9.621   5.606  0.5784 -0.0510  0.0628
  175ccc     O3 5233   2.296   9.660   5.492 -0.3645 -0.2152 -0.2595
  175ccc     O4 5234   2.263   9.500   5.634  0.3576 -0.6171  0.1850
  175ccc    H16 5235   2.307   9.479   5.718  1.1693 -0.4545 -0.1831
  175ccc     O5 5236   2.343   9.867   6.236 -0.2607 -1.1630 -0.4565
  176ccc     C1 5237   2.591   9.121   6.861  1.0530 -0.5011  0.3531
  176ccc     H1 5238   2.517   9.065   6.802  0.5104 -3.2509  3.4864
  176ccc     H2 5239   2.683   9.062   6.861  1.2937 -0.1330  1.5188
  176ccc     C2 5240   2.531   9.144   6.999  0.2538  0.7941  0.6478
  176ccc     H3 5241   2.608   9.205   7.049 -0.9611  3.2799 -0.4351
  176ccc     H4 5242   2.515   9.046   7.045  1.7474  0.2539  0.0618
  176ccc     C3 5243   2.402   9.221   7.010  0.0288 -0.1821  0.4280
  176ccc     H5 5244   2.331   9.187   6.935 -1.3398  1.7032  0.8323
  176ccc     H6 5245   2.426   9.321   6.970  0.3788 -0.2339  0.5023
  176ccc     N1 5246   2.335   9.234   7.137  0.0387  0.1389 -0.1544
  176ccc     C4 5247   2.291   9.103   7.183 -0.0301  0.5097 -0.0702
  176ccc     H7 5248   2.384   9.053   7.210 -0.1447  0.6560  0.5995
  176ccc     H8 5249   2.239   9.059   7.097  2.0728  0.9012 -1.5743
  176ccc     C5 5250   2.198   9.108   7.310 -0.1962  0.0698  0.4898
  176ccc     H9 5251   2.243   9.155   7.398 -0.1985 -0.1485  0.6057
  176ccc    H10 5252   2.107   9.165   7.288 -0.3159  0.0913  1.0485
  176ccc     C6 5253   2.156   8.975   7.350  0.5529 -0.0461  0.4624
  176ccc     O1 5254   2.204   8.916   7.441  0.5070 -0.2317 -0.6909
  176ccc     O2 5255   2.060   8.913   7.280  0.2043  0.1769 -0.3781
  176ccc    H11 5256   2.039   8.977   7.210 -0.0687  1.3214  0.7269
  176ccc     C7 5257   2.423   9.311   7.235  0.3648  0.2088 -0.2433
  176ccc    H12 5258   2.384   9.298   7.337  0.2842  1.1514 -0.1489
  176ccc    H13 5259   2.525   9.271   7.231  0.4662  0.4108  0.2255
  176ccc     C8 5260   2.409   9.462   7.198 -0.0968  0.0374 -0.3376
  176ccc    H14 5261   2.300   9.478   7.196 -0.1050  0.1505  0.7688
  176ccc    H15 5262   2.438   9.489   7.096  0.5351  0.8365  0.0581
  176ccc     C9 5263   2.478   9.550   7.290  0.4324 -0.4570  0.0160
  176ccc     O3 5264   2.587   9.532   7.347  0.1415 -0.1103 -0.2299
  176ccc     O4 5265   2.408   9.663   7.322 -0.2469  1.2788 -0.1633
  176ccc    H16 5266   2.319   9.658   7.284 -0.9417  1.7626  1.3343
  176ccc     O5 5267   2.603   9.254   6.804 -0.2165  0.2426 -0.1365
  177ccc     C1 5268   2.412   8.797   6.128 -0.3260  0.3062  0.0863
  177ccc     H1 5269   2.355   8.709   6.096 -1.9333  1.4345 -0.1894
  177ccc     H2 5270   2.449   8.774   6.229 -0.9273 -0.4545  0.1322
  177ccc     C2 5271   2.324   8.924   6.148 -0.3271 -0.0648 -0.4645
  177ccc     H3 5272   2.292   8.953   6.047  1.1195  1.2377 -0.5707
  177ccc     H4 5273   2.241   8.885   6.207 -1.5532  1.1731 -1.3242
  177ccc     C3 5274   2.390   9.039   6.218 -0.1959  0.2011 -0.5308
  177ccc     H5 5275   2.480   9.083   6.173 -2.0372  2.8965 -1.6797
  177ccc     H6 5276   2.421   9.000   6.316 -0.4470  0.4076 -0.3688
  177ccc     N1 5277   2.296   9.147   6.238 -0.0748 -0.1253  0.1027
  177ccc     C4 5278   2.317   9.208   6.372 -0.0433  0.1379  0.0500
  177ccc     H7 5279   2.275   9.309   6.373 -1.8430 -0.5088 -2.8470
  177ccc     H8 5280   2.424   9.214   6.397  0.0845  1.1227 -0.6809
  177ccc     C5 5281   2.243   9.124   6.485  0.0873  0.2194  0.0459
  177ccc     H9 5282   2.141   9.115   6.445  0.7374  0.6640 -1.7785
  177ccc    H10 5283   2.286   9.024   6.499 -2.8470 -0.8790  1.6060
  177ccc     C6 5284   2.233   9.187   6.619 -0.5746  0.1967 -0.3606
  177ccc     O1 5285   2.295   9.290   6.648 -0.1771 -0.2078 -0.2754
  177ccc     O2 5286   2.141   9.133   6.700 -0.2448  0.1370  0.3242
  177ccc    H11 5287   2.091   9.063   6.654  0.3148  0.5120 -0.8737
  177ccc     C7 5288   2.281   9.240   6.123 -0.2760  0.4981 -0.4951
  177ccc    H12 5289   2.259   9.184   6.032  4.1734 -1.4231 -0.5404
  177ccc    H13 5290   2.193   9.299   6.152 -0.3700 -0.8897  2.2615
  177ccc     C8 5291   2.402   9.335   6.105 -0.5159  0.0795 -0.1224
  177ccc    H14 5292   2.494   9.277   6.119  0.2247  1.3825  0.6099
  177ccc    H15 5293   2.400   9.405   6.190 -3.7774 -0.0555 -0.0425
  177ccc     C9 5294   2.407   9.415   5.976 -0.1085  0.0223  0.7405
  177ccc     O3 5295   2.324   9.395   5.890 -0.8988 -0.1048  0.0030
  177ccc     O4 5296   2.460   9.534   5.980  0.3777 -0.4976  0.0551
  177ccc    H16 5297   2.522   9.510   6.050 -0.6927  0.0832  1.2127
  177ccc     O5 5298   2.521   8.830   6.043  0.4321  0.3734 -0.4624
  178ccc     C1 5299   3.004   8.539   6.629 -0.4298  0.2298 -0.3665
  178ccc     H1 5300   3.084   8.469   6.601 -1.1593 -0.2073 -1.4144
  178ccc     H2 5301   3.029   8.636   6.586  1.8004 -0.9086 -1.7217
  178ccc     C2 5302   2.991   8.541   6.779 -0.4161 -0.3198 -0.0205
  178ccc     H3 5303   3.094   8.550   6.816 -0.6084 -0.0643  0.4556
  178ccc     H4 5304   2.949   8.443   6.804 -1.5067  0.1649  0.0770
  178ccc     C3 5305   2.904   8.656   6.840 -0.3154  0.4707  0.0510
  178ccc     H5 5306   2.806   8.651   6.791  1.0544  1.9520 -2.9950
  178ccc     H6 5307   2.951   8.749   6.805  2.6644 -0.8489  0.4826
  178ccc     N1 5308   2.897   8.651   6.986 -0.8741  1.2158 -0.0935
  178ccc     C4 5309   2.831   8.759   7.053  0.0808 -0.8360 -0.0367
  178ccc     H7 5310   2.732   8.780   7.012  0.5800 -0.1436 -0.9018
  178ccc     H8 5311   2.810   8.729   7.156 -1.7579 -0.4915 -0.2912
  178ccc     C5 5312   2.926   8.882   7.051 -0.7558 -0.4875  0.0879
  178ccc     H9 5313   3.027   8.847   7.076  0.1480  1.1234 -1.2144
  178ccc    H10 5314   2.929   8.922   6.949  1.8582  1.0480  0.7142
  178ccc     C6 5315   2.888   8.987   7.148 -0.0195  0.0614 -0.1842
  178ccc     O1 5316   2.779   8.993   7.204  0.3908  0.1032 -0.1620
  178ccc     O2 5317   2.958   9.097   7.139  0.1467 -0.0173  0.3650
  178ccc    H11 5318   3.014   9.076   7.063 -0.1186  0.3917  0.0585
  178ccc     C7 5319   2.836   8.516   7.029 -0.3637  0.1923 -0.1084
  178ccc    H12 5320   2.908   8.435   7.017 -2.3191 -1.9662  2.1845
  178ccc    H13 5321   2.831   8.526   7.138  1.1144  0.1905 -0.0386
  178ccc     C8 5322   2.701   8.476   6.961  0.1348 -0.5309 -0.7278
  178ccc    H14 5323   2.699   8.469   6.851  1.6180 -2.0642 -0.6688
  178ccc    H15 5324   2.623   8.550   6.980  1.1367  0.6982 -1.3001
  178ccc     C9 5325   2.662   8.331   7.012  0.0604  1.3250 -0.3605
  178ccc     O3 5326   2.733   8.253   7.075  0.0868  0.2425  0.0032
  178ccc     O4 5327   2.539   8.330   7.050  0.4067  0.2131 -0.2017
  178ccc    H16 5328   2.554   8.247   7.099  0.1945  0.6178  0.5582
  178ccc     O5 5329   2.881   8.489   6.572  0.0655  0.6498 -0.1301
  179ccc     C1 5330   3.072   8.979   4.566  0.4003  0.1277 -0.6616
  179ccc     H1 5331   3.116   9.034   4.650 -0.7886 -0.0750  0.1069
  179ccc     H2 5332   2.990   8.920   4.609  1.9828 -2.5302 -1.2272
  179ccc     C2 5333   3.167   8.876   4.505 -0.0081  0.4895  0.4593
  179ccc     H3 5334   3.208   8.814   4.586  0.2816  0.0316 -0.0278
  179ccc     H4 5335   3.250   8.926   4.452 -1.5567  0.7499 -1.8049
  179ccc     C3 5336   3.101   8.781   4.398  0.3821 -0.0964  0.0380
  179ccc     H5 5337   3.060   8.848   4.321 -1.3826 -1.4194 -0.1801
  179ccc     H6 5338   3.019   8.717   4.432 -1.1105  1.6825 -0.1350
  179ccc     N1 5339   3.203   8.686   4.342 -0.0320 -0.1743  0.4873
  179ccc     C4 5340   3.285   8.607   4.438 -0.3311 -0.2539 -0.4496
  179ccc     H7 5341   3.238   8.597   4.537  0.0326  0.6104 -0.1876
  179ccc     H8 5342   3.387   8.643   4.456 -0.8739  1.0229  0.1226
  179ccc     C5 5343   3.288   8.468   4.374  0.1194 -0.7632 -0.0538
  179ccc     H9 5344   3.196   8.450   4.317 -0.3355 -1.2154  0.8187
  179ccc    H10 5345   3.376   8.469   4.307 -0.1406  0.5745 -0.4055
  179ccc     C6 5346   3.306   8.354   4.471  0.4153  0.9309 -0.0799
  179ccc     O1 5347   3.306   8.360   4.599  0.0361 -0.4980 -0.3493
  179ccc     O2 5348   3.347   8.239   4.412  0.2113  0.4128  0.1673
  179ccc    H11 5349   3.335   8.254   4.316  0.2936 -1.5052 -0.1643
  179ccc     C7 5350   3.262   8.742   4.212  0.0419  0.5531  0.3103
  179ccc    H12 5351   3.237   8.848   4.198 -3.2687 -0.6877 -4.2162
  179ccc    H13 5352   3.371   8.752   4.219  0.1300  2.2924 -2.7268
  179ccc     C8 5353   3.215   8.672   4.084  0.1377 -0.2279 -0.9786
  179ccc    H14 5354   3.263   8.573   4.082  0.5960  0.0151 -3.0252
  179ccc    H15 5355   3.107   8.656   4.086  0.2521 -1.0787 -1.0784
  179ccc     C9 5356   3.252   8.742   3.949  1.1820 -0.8865 -0.3999
  179ccc     O3 5357   3.362   8.732   3.894 -0.3373  0.1607  0.1256
  179ccc     O4 5358   3.175   8.841   3.912 -0.1706 -0.4561 -0.7509
  179ccc    H16 5359   3.093   8.846   3.963  1.1032  1.6173  1.1940
  179ccc     O5 5360   3.029   9.071   4.456  0.1032  0.0470 -0.0033
  180ccc     C1 5361   2.884   9.961   4.618  0.3134 -0.5798 -0.2072
  180ccc     H1 5362   2.948   9.947   4.529  1.8938  1.8963  0.5017
  180ccc     H2 5363   2.786  10.000   4.588 -0.5286 -3.0046 -0.7590
  180ccc     C2 5364   2.970  10.045   4.710 -0.4090  0.1108 -0.6874
  180ccc     H3 5365   3.059   9.992   4.744 -0.8491 -0.4589 -0.4089
  180ccc     H4 5366   2.925  10.057   4.809 -0.8591  0.0028 -0.8745
  180ccc     C3 5367   2.989  10.191   4.663  0.4551 -0.0873  0.1992
  180ccc     H5 5368   2.939  10.251   4.740 -1.6424 -1.4021 -0.0966
  180ccc     H6 5369   2.933  10.203   4.570 -0.7585 -0.0387  0.9266
  180ccc     N1 5370   3.128  10.228   4.647 -0.5103  0.5316 -0.7467
  180ccc     C4 5371   3.204  10.228   4.774  0.5435  0.9620  0.9298
  180ccc     H7 5372   3.272  10.142   4.774 -0.6603 -0.0558  4.2309
  180ccc     H8 5373   3.141  10.223   4.864 -0.9460 -0.4658 -0.1448
  180ccc     C5 5374   3.296  10.350   4.778  0.1026  0.3335  0.6780
  180ccc     H9 5375   3.374  10.344   4.700  0.6807  1.8972  1.1044
  180ccc    H10 5376   3.248  10.444   4.748  1.4189  0.3317 -1.5864
  180ccc     C6 5377   3.352  10.363   4.916 -0.2768  0.3159 -0.1811
  180ccc     O1 5378   3.467  10.334   4.938 -0.0448  0.7816 -0.0908
  180ccc     O2 5379   3.271  10.388   5.019 -0.4592  0.1615 -0.0874
  180ccc    H11 5380   3.188  10.407   4.971  0.5014  0.2383 -1.7422
  180ccc     C7 5381   3.202  10.172   4.537 -0.8927 -0.2346  0.1032
  180ccc    H12 5382   3.298  10.224   4.530 -0.7613 -0.4152  0.5291
  180ccc    H13 5383   3.226  10.068   4.561  1.4432  0.0213 -1.0432
  180ccc     C8 5384   3.140  10.193   4.397 -0.3001  0.1082 -0.2144
  180ccc    H14 5385   3.210  10.169   4.315  0.6212 -0.3035  0.6814
  180ccc    H15 5386   3.053  10.126   4.389 -1.6531  1.6347  1.4630
  180ccc     C9 5387   3.109  10.344   4.381 -0.5225 -0.0144 -0.8989
  180ccc     O3 5388   3.005  10.388   4.362  0.4378 -0.1840  0.1704
  180ccc     O4 5389   3.208  10.426   4.355 -0.4207 -0.1841 -0.0490
  180ccc    H16 5390   3.287  10.380   4.387 -0.9128 -1.2550 -0.3535
  180ccc     O5 5391   2.871   9.836   4.686  0.8216  0.1262 -0.0507
  181ccc     C1 5392   3.871   7.812   5.170  0.6589  0.6956  0.4614
  181ccc     H1 5393   3.960   7.752   5.192 -0.0169 -0.3485  0.3411
  181ccc     H2 5394   3.788   7.771   5.229 -0.5938  0.8572 -1.1617
  181ccc     C2 5395   3.825   7.803   5.026 -0.1083  0.2974  0.0322
  181ccc     H3 5396   3.823   7.694   5.011  1.6679 -0.0852  2.2399
  181ccc     H4 5397   3.906   7.844   4.965  1.8009 -0.3279  2.0579
  181ccc     C3 5398   3.692   7.881   4.994 -0.6840  0.3639  0.1692
  181ccc     H5 5399   3.712   7.987   5.016 -1.0923  0.3190  0.7759
  181ccc     H6 5400   3.624   7.849   5.074 -2.3458 -0.4894 -1.5698
  181ccc     N1 5401   3.641   7.863   4.855 -0.6912 -0.5746 -0.5157
  181ccc     C4 5402   3.571   7.738   4.827 -0.2563 -0.1146 -0.0301
  181ccc     H7 5403   3.648   7.661   4.840  1.4880  1.1547 -2.4811
  181ccc     H8 5404   3.539   7.723   4.724  0.5514 -0.2197 -0.2681
  181ccc     C5 5405   3.456   7.712   4.924 -0.0433 -0.1815  0.2370
  181ccc     H9 5406   3.477   7.724   5.031 -2.8884 -2.2683  1.0781
  181ccc    H10 5407   3.388   7.793   4.894  0.6364 -0.5553 -2.4339
  181ccc     C6 5408   3.388   7.580   4.891 -0.0681 -0.3525 -0.0614
  181ccc     O1 5409   3.386   7.527   4.780 -0.5139  0.0785 -0.2754
  181ccc     O2 5410   3.286   7.550   4.970  0.0502  0.1642  0.5028
  181ccc    H11 5411   3.293   7.634   5.020  0.1564 -0.1407  1.0020
  181ccc     C7 5412   3.741   7.897   4.752 -0.2013 -0.0626 -0.4901
  181ccc    H12 5413   3.826   7.829   4.765 -0.1054  0.1029 -0.2501
  181ccc    H13 5414   3.699   7.878   4.653  0.3480 -1.9577 -0.3762
  181ccc     C8 5415   3.790   8.044   4.768  0.4590 -0.7324  0.5637
  181ccc    H14 5416   3.846   8.061   4.861  1.4160 -0.4706 -0.0582
  181ccc    H15 5417   3.859   8.069   4.687  0.0627  1.2252  0.8066
  181ccc     C9 5418   3.683   8.151   4.761  0.6323 -0.0870  0.7615
  181ccc     O3 5419   3.664   8.230   4.851 -0.0911  0.3332 -0.1468
  181ccc     O4 5420   3.638   8.189   4.638 -0.3625  0.3278  0.2396
  181ccc    H16 5421   3.670   8.116   4.583 -1.8079 -0.3219  0.2372
  181ccc     O5 5422   3.898   7.951   5.204 -0.7105 -0.4861 -0.0041
  182ccc     C1 5423   4.235   8.589   4.807 -0.4233 -0.3415 -0.1347
  182ccc     H1 5424   4.149   8.636   4.855  0.5409  0.3440  0.9336
  182ccc     H2 5425   4.314   8.655   4.767  1.4509 -3.1028 -1.1672
  182ccc     C2 5426   4.188   8.493   4.696  0.0507  0.2775 -0.3982
  182ccc     H3 5427   4.142   8.555   4.618 -1.3021 -0.5279 -0.2760
  182ccc     H4 5428   4.114   8.423   4.737 -0.3830 -0.3018 -2.1300
  182ccc     C3 5429   4.293   8.397   4.638  0.4619  0.6665 -0.2010
  182ccc     H5 5430   4.385   8.436   4.594  1.0814 -0.2105  0.2891
  182ccc     H6 5431   4.329   8.338   4.723 -1.3325 -0.8211 -0.4220
  182ccc     N1 5432   4.234   8.296   4.542 -0.6109 -0.0457 -0.4810
  182ccc     C4 5433   4.158   8.361   4.435 -0.5856  0.1693 -0.2482
  182ccc     H7 5434   4.065   8.395   4.483  0.2586  0.1887  1.4090
  182ccc     H8 5435   4.198   8.461   4.418  1.4409 -0.8001 -1.2786
  182ccc     C5 5436   4.136   8.280   4.308  0.1754  0.2557  0.0342
  182ccc     H9 5437   4.068   8.332   4.238  0.4747 -0.4847 -0.8214
  182ccc    H10 5438   4.087   8.184   4.326 -0.5242  0.4713 -0.6637
  182ccc     C6 5439   4.267   8.263   4.241 -0.0034 -0.2918 -1.0203
  182ccc     O1 5440   4.328   8.155   4.250 -0.9704 -0.3341 -0.1776
  182ccc     O2 5441   4.312   8.369   4.169 -0.0113  0.5987  0.1238
  182ccc    H11 5442   4.245   8.439   4.177 -2.4279 -1.7158  0.4664
  182ccc     C7 5443   4.170   8.183   4.600 -0.2917  0.1075 -0.6261
  182ccc    H12 5444   4.133   8.130   4.512 -0.2534  0.3086 -0.7632
  182ccc    H13 5445   4.083   8.221   4.656 -0.8169  1.5084 -2.3443
  182ccc     C8 5446   4.250   8.083   4.690  0.8221  0.6140  0.7193
  182ccc    H14 5447   4.340   8.044   4.640 -0.9381 -3.2160  0.3493
  182ccc    H15 5448   4.288   8.140   4.775 -0.5052  1.5458  0.7022
  182ccc     C9 5449   4.174   7.968   4.744 -0.4170  0.2797 -0.0718
  182ccc     O3 5450   4.063   7.936   4.702 -0.6330 -0.4336 -0.5181
  182ccc     O4 5451   4.218   7.905   4.849  0.4709 -0.2517  0.1923
  182ccc    H16 5452   4.302   7.951   4.867  0.8932 -0.6144 -0.8160
  182ccc     O5 5453   4.299   8.506   4.906 -0.2499  0.0009  0.0735
  183ccc     C1 5454   3.225   9.377   7.165 -0.5998  0.4772 -0.1001
  183ccc     H1 5455   3.272   9.419   7.076  1.8075  1.2857  1.4981
  183ccc     H2 5456   3.191   9.274   7.144 -0.3088  0.6509 -1.4611
  183ccc     C2 5457   3.110   9.463   7.221  0.7903 -0.1036  0.1779
  183ccc     H3 5458   3.068   9.410   7.307 -0.0526  2.4087  1.3859
  183ccc     H4 5459   3.038   9.460   7.137 -0.7832  0.0140  1.4909
  183ccc     C3 5460   3.141   9.610   7.263  0.1308  0.4502 -0.7598
  183ccc     H5 5461   3.198   9.667   7.189 -0.3147  1.8207 -0.0641
  183ccc     H6 5462   3.212   9.611   7.346 -2.1380  1.1632  1.2313
  183ccc     N1 5463   3.016   9.682   7.305  0.2117  0.1975  0.0558
  183ccc     C4 5464   2.949   9.744   7.184 -0.5630 -0.0102 -0.0179
  183ccc     H7 5465   2.899   9.665   7.128  0.6562 -0.1373 -0.9544
  183ccc     H8 5466   3.027   9.781   7.116  0.6016  0.6717  1.6533
  183ccc     C5 5467   2.861   9.862   7.225 -0.5111  0.3671 -0.4015
  183ccc     H9 5468   2.774   9.839   7.288 -0.5694  1.0289 -0.2359
  183ccc    H10 5469   2.921   9.932   7.284  0.5278 -0.6968 -0.1823
  183ccc     C6 5470   2.810   9.928   7.105 -0.3787 -0.2721  0.0261
  183ccc     O1 5471   2.722   9.890   7.038  0.1771 -0.0490  0.6455
  183ccc     O2 5472   2.888  10.020   7.050  1.1292 -0.2674  0.0798
  183ccc    H11 5473   2.970  10.023   7.104  1.5099  2.8831 -0.5728
  183ccc     C7 5474   2.925   9.617   7.405 -0.6638  0.1467 -0.3024
  183ccc    H12 5475   2.835   9.676   7.425  1.2687  2.5742  1.5861
  183ccc    H13 5476   2.895   9.519   7.367  0.3664  0.0447 -0.8940
  183ccc     C8 5477   2.989   9.590   7.543 -0.2401 -0.0164 -0.2248
  183ccc    H14 5478   2.913   9.539   7.603 -0.0788 -1.2423 -1.0515
  183ccc    H15 5479   3.066   9.513   7.541 -0.3471 -0.1183 -0.5844
  183ccc     C9 5480   3.017   9.709   7.622  0.2260 -0.1296 -0.4959
  183ccc     O3 5481   3.001   9.824   7.587  0.2995 -0.1513 -1.0316
  183ccc     O4 5482   3.093   9.688   7.729 -0.0479  0.0175 -0.9258
  183ccc    H16 5483   3.094   9.591   7.742 -1.8206  0.0481 -0.5195
  183ccc     O5 5484   3.318   9.365   7.273 -0.0511 -0.5613  0.5808
  184ccc     C1 5485   4.101   9.295   7.277 -0.1268  0.3343  0.3715
  184ccc     H1 5486   3.996   9.273   7.303 -0.3629 -0.3683 -1.0979
  184ccc     H2 5487   4.129   9.213   7.209  1.1549 -0.3066  1.6453
  184ccc     C2 5488   4.191   9.308   7.402 -0.8199 -0.1520 -0.6270
  184ccc     H3 5489   4.145   9.396   7.451 -0.6002 -0.3094 -0.1381
  184ccc     H4 5490   4.293   9.340   7.381 -0.3954 -0.6548  0.6153
  184ccc     C3 5491   4.174   9.185   7.501  0.4586 -0.3209  0.0903
  184ccc     H5 5492   4.220   9.105   7.442  1.6278 -0.0235  0.5854
  184ccc     H6 5493   4.069   9.162   7.522  0.6697 -1.7639 -0.4323
  184ccc     N1 5494   4.255   9.210   7.629  0.9153  0.2428  0.1445
  184ccc     C4 5495   4.287   9.085   7.712 -0.3542  0.1748  0.4117
  184ccc     H7 5496   4.203   9.052   7.774  2.5436  0.1906  4.5668
  184ccc     H8 5497   4.369   9.107   7.782  0.8046 -1.3524 -0.4264
  184ccc     C5 5498   4.339   8.976   7.626 -0.1497 -0.0876  0.2591
  184ccc     H9 5499   4.262   8.921   7.572 -1.7825  2.4975 -0.1517
  184ccc    H10 5500   4.411   9.025   7.560  0.7560  1.0584  2.0659
  184ccc     C6 5501   4.413   8.875   7.716  0.0020  0.0098 -0.0050
  184ccc     O1 5502   4.383   8.845   7.829 -0.1353  0.3889  0.7797
  184ccc     O2 5503   4.497   8.790   7.652  0.3881  0.4127 -0.7006
  184ccc    H11 5504   4.498   8.833   7.565 -2.3456  1.1981 -0.4048
  184ccc     C7 5505   4.211   9.323   7.720  0.1000  0.8561  0.2808
  184ccc    H12 5506   4.184   9.410   7.658 -0.8209 -0.8749 -1.7906
  184ccc    H13 5507   4.132   9.291   7.787  0.6852 -1.1040  0.0520
  184ccc     C8 5508   4.318   9.385   7.803 -0.4301  0.4680 -0.4386
  184ccc    H14 5509   4.278   9.460   7.873  0.2679  0.2255  0.2259
  184ccc    H15 5510   4.367   9.303   7.855 -1.5146  0.4001  0.4938
  184ccc     C9 5511   4.434   9.451   7.721  0.5519  0.0783  0.0832
  184ccc     O3 5512   4.421   9.489   7.603  0.1237 -0.6503 -0.1111
  184ccc     O4 5513   4.551   9.455   7.776 -0.1482  0.9594  0.5153
  184ccc    H16 5514   4.520   9.431   7.865  2.7895 -1.2600  1.0243
  184ccc     O5 5515   4.107   9.429   7.215 -0.0020 -0.6203 -0.2088
  185ccc     C1 5516   3.683  10.654   6.882  0.3379 -0.1483  0.1273
  185ccc     H1 5517   3.619  10.576   6.837  2.5398 -3.3667  2.3433
  185ccc     H2 5518   3.690  10.646   6.991  0.5221  0.1277  0.1356
  185ccc     C2 5519   3.626  10.791   6.843  0.5144 -0.2936  0.5060
  185ccc     H3 5520   3.531  10.805   6.895  0.7798  1.9243  0.4616
  185ccc     H4 5521   3.618  10.793   6.733  2.0470 -0.3764  0.3784
  185ccc     C3 5522   3.716  10.915   6.876 -0.7339  0.0204 -0.8028
  185ccc     H5 5523   3.807  10.915   6.816  0.0324 -3.5252  0.2073
  185ccc     H6 5524   3.753  10.897   6.978  0.9824  1.9203 -1.0796
  185ccc     N1 5525   3.649  11.046   6.873  0.6548 -0.4941 -0.3490
  185ccc     C4 5526   3.714  11.164   6.937 -0.5421 -0.2478 -0.4975
  185ccc     H7 5527   3.637  11.243   6.946  0.4445  0.5144  1.3653
  185ccc     H8 5528   3.790  11.205   6.869  0.7359  0.6449  1.4178
  185ccc     C5 5529   3.773  11.142   7.078 -0.2598  0.2264  0.1472
  185ccc     H9 5530   3.696  11.086   7.134  0.4697  0.0887  1.0271
  185ccc    H10 5531   3.861  11.077   7.070  0.2785  0.8680  0.8265
  185ccc     C6 5532   3.809  11.276   7.153  0.5751 -0.0995 -0.1390
  185ccc     O1 5533   3.919  11.328   7.159 -0.2017 -0.4811 -0.6492
  185ccc     O2 5534   3.700  11.354   7.182  0.0046  0.1564  0.1435
  185ccc    H11 5535   3.626  11.291   7.174  0.2241  0.3460 -4.3180
  185ccc     C7 5536   3.594  11.083   6.743  0.2716 -0.4439  0.7202
  185ccc    H12 5537   3.529  11.005   6.701  0.3254  1.1223 -2.3706
  185ccc    H13 5538   3.521  11.165   6.753  1.2342  0.2432  2.4113
  185ccc     C8 5539   3.699  11.113   6.630 -0.0818  0.0793  0.7221
  185ccc    H14 5540   3.667  11.087   6.528 -0.9541  0.3095  0.9310
  185ccc    H15 5541   3.793  11.060   6.644 -0.0613 -0.4249 -1.1465
  185ccc     C9 5542   3.742  11.259   6.621 -0.1616 -0.0876 -0.1610
  185ccc     O3 5543   3.857  11.288   6.637  0.0665  0.2597 -0.2044
  185ccc     O4 5544   3.644  11.352   6.642 -0.5049 -0.0946 -0.2425
  185ccc    H16 5545   3.571  11.306   6.597 -0.9482 -0.4300  0.8231
  185ccc     O5 5546   3.814  10.644   6.827  0.5582  0.0823 -0.0631
  186ccc     C1 5547   3.942  10.225   6.092  0.3475 -0.1558  0.0301
  186ccc     H1 5548   4.003  10.211   6.182  0.5164 -2.2769 -0.3808
  186ccc     H2 5549   3.910  10.123   6.067  1.3924 -0.4328 -0.2100
  186ccc     C2 5550   4.036  10.279   5.978  0.0826 -0.4628 -0.0507
  186ccc     H3 5551   3.975  10.290   5.887  1.4153 -2.5309 -1.2339
  186ccc     H4 5552   4.106  10.198   5.959  1.1548  0.1214  1.3000
  186ccc     C3 5553   4.109  10.417   6.005 -0.1258 -0.4234 -0.3544
  186ccc     H5 5554   4.039  10.493   6.041 -0.1393 -0.5861 -0.0406
  186ccc     H6 5555   4.152  10.458   5.912  0.0023  0.4468  0.0821
  186ccc     N1 5556   4.221  10.400   6.103  0.3418 -0.1134 -0.1977
  186ccc     C4 5557   4.349  10.328   6.054  0.2149 -0.3073 -0.2949
  186ccc     H7 5558   4.386  10.384   5.966 -0.2966 -0.8627 -0.8696
  186ccc     H8 5559   4.325  10.225   6.026  1.0316 -0.0652 -2.0090
  186ccc     C5 5560   4.461  10.311   6.163 -0.0368  0.1179 -0.3132
  186ccc     H9 5561   4.487  10.412   6.197  0.8847 -1.2092  3.0799
  186ccc    H10 5562   4.416  10.251   6.242  1.3725 -0.7225 -0.1382
  186ccc     C6 5563   4.579  10.226   6.114 -0.4100 -0.3161 -0.0892
  186ccc     O1 5564   4.586  10.172   6.005  0.2225 -0.5009 -0.0078
  186ccc     O2 5565   4.677  10.202   6.200 -0.2155 -0.3339 -0.3427
  186ccc    H11 5566   4.659  10.251   6.282 -2.3426 -0.0769 -0.9156
  186ccc     C7 5567   4.244  10.526   6.176 -0.1312 -0.4435 -0.3746
  186ccc    H12 5568   4.155  10.571   6.220  1.1060  0.8039  0.9121
  186ccc    H13 5569   4.312  10.504   6.260 -0.1999  1.5965  0.2363
  186ccc     C8 5570   4.311  10.636   6.098 -0.2947  0.7812  0.1114
  186ccc    H14 5571   4.402  10.592   6.055 -1.4845 -0.7177 -0.9184
  186ccc    H15 5572   4.258  10.674   6.010  3.1992  1.0008 -2.0048
  186ccc     C9 5573   4.364  10.755   6.181  0.6453  0.2428 -0.2379
  186ccc     O3 5574   4.475  10.755   6.233 -0.1374 -0.0627 -0.2187
  186ccc     O4 5575   4.278  10.840   6.221 -0.2460 -0.2350  0.1054
  186ccc    H16 5576   4.210  10.829   6.152  1.1733 -1.1844 -1.1950
  186ccc     O5 5577   3.826  10.312   6.124 -0.0911 -0.2368 -0.1244
  187ccc     C1 5578   6.424  10.341   6.137  1.0662 -0.2025 -0.0243
  187ccc     H1 5579   6.485  10.386   6.058  0.1296  1.6790  0.2864
  187ccc     H2 5580   6.429  10.396   6.232 -0.6391 -0.0370 -0.0164
  187ccc     C2 5581   6.487  10.202   6.160 -0.1254  0.0876  0.0564
  187ccc     H3 5582   6.498  10.162   6.059  0.7787 -0.3195  0.3094
  187ccc     H4 5583   6.416  10.135   6.209  1.9949 -0.8345  1.9888
  187ccc     C3 5584   6.625  10.212   6.240  0.7695  0.7285  0.4363
  187ccc     H5 5585   6.619  10.300   6.305 -0.2535  1.7579 -1.0131
  187ccc     H6 5586   6.699  10.247   6.166  0.4291  0.6328  0.0528
  187ccc     N1 5587   6.656  10.087   6.299  0.2290  0.1460 -0.0255
  187ccc     C4 5588   6.805  10.076   6.304  0.3743  0.0766 -0.9677
  187ccc     H7 5589   6.850   9.976   6.308 -0.0012 -0.0604 -0.0848
  187ccc     H8 5590   6.844  10.117   6.210  0.8763 -0.1471 -0.8548
  187ccc     C5 5591   6.870  10.171   6.408  0.4703 -0.5683 -0.5066
  187ccc     H9 5592   6.852  10.147   6.514  0.9751  1.1628 -0.0158
  187ccc    H10 5593   6.847  10.277   6.391  0.9569 -0.2541  0.7563
  187ccc     C6 5594   7.027  10.155   6.401  0.3409 -0.3437 -0.2817
  187ccc     O1 5595   7.089  10.064   6.358 -0.6080 -0.2347 -0.4295
  187ccc     O2 5596   7.099  10.245   6.464 -0.7045 -0.2759 -0.1541
  187ccc    H11 5597   7.029  10.308   6.488  0.6774  0.3724  2.4241
  187ccc     C7 5598   6.582  10.055   6.422  0.9780  0.6454 -0.3901
  187ccc    H12 5599   6.625  10.112   6.506  0.2541  0.2543  0.2568
  187ccc    H13 5600   6.475  10.075   6.416  0.8564  0.6588  1.3488
  187ccc     C8 5601   6.593   9.903   6.454  0.1864  0.1052  0.3561
  187ccc    H14 5602   6.536   9.899   6.548 -0.4464  0.8682  0.0153
  187ccc    H15 5603   6.697   9.873   6.474 -0.2244 -1.2253  0.5424
  187ccc     C9 5604   6.539   9.803   6.347  0.4523  0.2163 -0.1738
  187ccc     O3 5605   6.446   9.827   6.273 -0.1832 -0.2682  0.4444
  187ccc     O4 5606   6.553   9.675   6.385  0.0576 -0.0820  0.1679
  187ccc    H16 5607   6.607   9.684   6.465  0.6032 -1.2690 -0.0475
  187ccc     O5 5608   6.290  10.320   6.096 -0.1338 -0.3637  0.1747
  188ccc     C1 5609   5.593   9.829   6.361  0.8593  0.2718  0.0742
  188ccc     H1 5610   5.647   9.737   6.336 -0.1751 -0.5791  0.9453
  188ccc     H2 5611   5.606   9.852   6.468  1.5768 -0.5011  0.1517
  188ccc     C2 5612   5.438   9.825   6.345 -0.7446 -0.0234  0.9267
  188ccc     H3 5613   5.420   9.820   6.237  0.0613 -1.8313  0.8715
  188ccc     H4 5614   5.403   9.923   6.382  1.9638  1.0677  0.7040
  188ccc     C3 5615   5.360   9.701   6.408 -0.5322  0.1261  0.1377
  188ccc     H5 5616   5.381   9.706   6.516 -0.0334 -1.2174  0.1130
  188ccc     H6 5617   5.403   9.605   6.378  0.7722  0.4058  1.0768
  188ccc     N1 5618   5.212   9.705   6.393 -0.1598 -0.3395  0.1798
  188ccc     C4 5619   5.127   9.799   6.472  0.4359  0.6490  0.7213
  188ccc     H7 5620   5.046   9.839   6.411  0.0296  1.3484  1.7026
  188ccc     H8 5621   5.193   9.880   6.506 -0.9558  1.7922  0.7134
  188ccc     C5 5622   5.091   9.730   6.605 -0.3670  0.4349  0.2421
  188ccc     H9 5623   5.170   9.672   6.655  0.5465 -0.2879 -1.9622
  188ccc    H10 5624   5.013   9.656   6.588 -1.4102  1.7564 -0.8494
  188ccc     C6 5625   5.036   9.829   6.708  0.1585 -0.9765 -0.0389
  188ccc     O1 5626   5.005   9.946   6.699 -0.2631 -0.5167 -0.1558
  188ccc     O2 5627   4.975   9.771   6.816 -0.1657  0.0241 -0.2408
  188ccc    H11 5628   4.963   9.676   6.796 -1.7926 -0.0217  0.8222
  188ccc     C7 5629   5.146   9.579   6.361  0.4620  0.7886  0.6157
  188ccc    H12 5630   5.186   9.501   6.427 -0.8676 -0.6477 -0.2408
  188ccc    H13 5631   5.038   9.594   6.373  0.3546  0.5523 -0.0610
  188ccc     C8 5632   5.166   9.537   6.210 -0.6675 -0.3490  0.1795
  188ccc    H14 5633   5.143   9.620   6.142 -1.6630 -1.7733 -1.2549
  188ccc    H15 5634   5.272   9.516   6.194  0.0420  0.7233  3.0213
  188ccc     C9 5635   5.084   9.421   6.164  0.0939 -0.5441  0.1933
  188ccc     O3 5636   5.126   9.309   6.133  0.5823 -0.1931 -0.7350
  188ccc     O4 5637   4.977   9.463   6.099  1.4961 -0.2278  0.8418
  188ccc    H16 5638   4.976   9.559   6.112  1.0701  0.1058 -1.3771
  188ccc     O5 5639   5.642   9.952   6.295  0.3132  0.9189  0.0839
  189ccc     C1 5640   4.723   9.166   5.289  0.3908 -0.0478  0.5754
  189ccc     H1 5641   4.772   9.068   5.272 -0.2485  0.1088 -2.6445
  189ccc     H2 5642   4.617   9.159   5.264  1.0673  1.5813 -3.0805
  189ccc     C2 5643   4.780   9.270   5.189 -0.0057 -0.0702 -0.1095
  189ccc     H3 5644   4.795   9.218   5.093 -0.1288 -0.3809  0.0390
  189ccc     H4 5645   4.885   9.293   5.210 -0.4028  0.4399  1.3322
  189ccc     C3 5646   4.687   9.395   5.171  0.3196  0.7480 -0.2699
  189ccc     H5 5647   4.686   9.451   5.265 -2.0108  1.2483 -0.5427
  189ccc     H6 5648   4.585   9.368   5.140  0.6666 -0.0955 -0.6869
  189ccc     N1 5649   4.739   9.499   5.085 -0.0099 -0.0168  0.1210
  189ccc     C4 5650   4.872   9.558   5.127  1.0553  0.6025  0.1346
  189ccc     H7 5651   4.953   9.493   5.090  0.7081  0.5463 -0.5297
  189ccc     H8 5652   4.880   9.541   5.235  0.5821  1.6833  0.3432
  189ccc     C5 5653   4.905   9.705   5.090 -0.4856 -0.2884  0.1344
  189ccc     H9 5654   4.922   9.713   4.982 -1.3512 -1.2446 -0.0807
  189ccc    H10 5655   5.001   9.738   5.130 -0.1483 -1.0858 -0.0133
  189ccc     C6 5656   4.796   9.804   5.132 -0.7083 -0.2402 -0.0098
  189ccc     O1 5657   4.720   9.859   5.055  0.0611 -0.0606  0.2702
  189ccc     O2 5658   4.769   9.821   5.265  0.0914  0.4137  0.1789
  189ccc    H11 5659   4.853   9.791   5.304 -0.8504 -2.3454  0.1661
  189ccc     C7 5660   4.732   9.469   4.933  0.0047  0.1705 -0.0342
  189ccc    H12 5661   4.797   9.535   4.875  1.3097 -1.6922 -0.7317
  189ccc    H13 5662   4.781   9.373   4.914 -1.0407 -0.5482  0.7988
  189ccc     C8 5663   4.585   9.468   4.884 -0.0052  0.0418  0.4464
  189ccc    H14 5664   4.527   9.384   4.926 -0.6621  0.3595  0.1767
  189ccc    H15 5665   4.531   9.559   4.914  1.2714  0.6079  1.0895
  189ccc     C9 5666   4.573   9.443   4.733 -0.4554 -0.4405 -1.2865
  189ccc     O3 5667   4.672   9.427   4.665 -0.1396 -0.3309  0.0909
  189ccc     O4 5668   4.453   9.410   4.688 -0.7606 -0.7279 -0.3242
  189ccc    H16 5669   4.392   9.438   4.759 -1.1972 -0.0378 -0.9552
  189ccc     O5 5670   4.734   9.217   5.429  0.3976  0.1283  1.5132
  190ccc     C1 5671   4.615   9.805   5.541 -1.0849 -0.6779  0.0480
  190ccc     H1 5672   4.710   9.856   5.519 -2.1864  2.1219  1.5737
  190ccc     H2 5673   4.628   9.697   5.525 -0.7554 -0.2469 -2.9035
  190ccc     C2 5674   4.493   9.855   5.464 -0.0016  0.1262 -0.0250
  190ccc     H3 5675   4.518   9.955   5.424  1.7186 -0.0815  0.4583
  190ccc     H4 5676   4.407   9.866   5.530 -1.9249 -0.4693 -2.3721
  190ccc     C3 5677   4.441   9.772   5.343  0.6541  0.4370  0.1504
  190ccc     H5 5678   4.522   9.707   5.310 -0.5721 -0.2745 -1.4996
  190ccc     H6 5679   4.408   9.846   5.269 -1.5010 -0.5974  0.0366
  190ccc     N1 5680   4.328   9.684   5.379  0.1122 -0.7329  0.0818
  190ccc     C4 5681   4.252   9.641   5.259 -0.2849  0.3866 -0.5791
  190ccc     H7 5682   4.181   9.565   5.294  0.3874  0.9980  2.2894
  190ccc     H8 5683   4.316   9.600   5.180  1.0186  0.5362  0.3802
  190ccc     C5 5684   4.167   9.757   5.192 -0.3462 -0.1053 -0.0065
  190ccc     H9 5685   4.233   9.838   5.159  0.2181 -0.1274  1.0625
  190ccc    H10 5686   4.099   9.795   5.269 -0.8169  0.0746 -0.5084
  190ccc     C6 5687   4.087   9.708   5.077 -0.1061  0.2626 -0.3164
  190ccc     O1 5688   4.113   9.603   5.023 -0.0350  0.3113 -0.0409
  190ccc     O2 5689   4.037   9.797   4.998 -0.3066 -0.4815  0.3201
  190ccc    H11 5690   4.023   9.877   5.052 -1.2284  0.3204 -1.1095
  190ccc     C7 5691   4.350   9.579   5.483  0.1175  0.2814  0.2455
  190ccc    H12 5692   4.371   9.628   5.578 -0.5713 -2.0388  1.6334
  190ccc    H13 5693   4.256   9.528   5.505  0.4998 -0.3189  0.5111
  190ccc     C8 5694   4.467   9.479   5.440 -0.0590  0.6622  0.4824
  190ccc    H14 5695   4.566   9.522   5.460 -0.7244  1.6348  1.7088
  190ccc    H15 5696   4.451   9.454   5.334 -0.5761  1.0593  0.4662
  190ccc     C9 5697   4.463   9.357   5.522 -0.1708 -0.8925  0.6080
  190ccc     O3 5698   4.493   9.358   5.638 -0.0449  0.0166  0.3149
  190ccc     O4 5699   4.386   9.258   5.484  0.6724 -0.2017 -0.2455
  190ccc    H16 5700   4.355   9.276   5.394 -0.7744  1.1627  0.4955
  190ccc     O5 5701   4.590   9.819   5.688 -0.5236 -0.0960  0.5135
  191SOL     OW 5702   3.334  10.689   8.981  0.2000  0.1384 -0.6975
  191SOL    HW1 5703   3.320  10.783   8.972  0.6354  0.1462 -1.2563
  191SOL    HW2 5704   3.321  10.654   8.893 -2.1770 -0.6070 -0.0937
  192SOL     OW 5705   3.217   1.923   9.474  0.1489 -0.0176  0.3440
  192SOL    HW1 5706   3.149   1.932   9.408 -1.2724  0.8335  1.8868
  192SOL    HW2 5707   3.203   1.997   9.533  3.6901  1.3906 -0.4243
  193SOL     OW 5708   2.379   6.406   6.919  0.3616  0.3968 -0.1206
  193SOL    HW1 5709   2.443   6.367   6.860  0.9159 -0.4611  1.0225
  193SOL    HW2 5710   2.431   6.465   6.974 -0.2643  1.7674 -0.9640
  194SOL     OW 5711   6.526   9.964   1.323 -0.4524  0.0395 -0.1396
  194SOL    HW1 5712   6.467   9.912   1.378 -0.8760  1.3587  0.6705
  194SOL    HW2 5713   6.503   9.939   1.233 -0.3044 -1.5355  0.2395
  195SOL     OW 5714   5.738   0.980   5.276  0.1058 -0.6539 -0.0004
  195SOL    HW1 5715   5.746   0.995   5.371  1.9630 -1.7321  0.0407
  195SOL    HW2 5716   5.713   1.065   5.241  2.7557  0.6472  1.0989
  196SOL     OW 5717   1.312   2.895   4.734  0.3077  0.1302  0.0882
  196SOL    HW1 5718   1.250   2.965   4.754 -1.0176 -0.9974 -0.0141
  196SOL    HW2 5719   1.324   2.849   4.817  2.1950  1.2491  0.4677
  197SOL     OW 5720   6.785   7.952   9.872  0.4780  0.4145  0.6719
  197SOL    HW1 5721   6.748   8.018   9.814 -0.2446  0.7117  1.4608
  197SOL    HW2 5722   6.832   8.003   9.938  0.9660  0.0941  0.5717
  198SOL     OW 5723   3.128   6.229   0.844 -0.5072 -0.0650  0.1643
  198SOL    HW1 5724   3.097   6.295   0.906 -0.6167  0.3531 -0.3275
  198SOL    HW2 5725   3.070   6.238   0.769  1.6333  1.6957 -1.3614
  199SOL     OW 5726  10.966   6.546   1.008 -0.2560 -0.1036 -0.2268
  199SOL    HW1 5727  10.985   6.454   1.024 -2.3871 -0.4683  0.3359
  199SOL    HW2 5728  10.938   6.580   1.093  1.0664  1.2269 -0.2956
  200SOL     OW 5729   6.133   3.506   1.333  0.3166  0.3396 -0.0281
  200SOL    HW1 5730   6.112   3.424   1.377  0.8843  0.1796 -0.0518
  200SOL    HW2 5731   6.126   3.573   1.402 -1.3738  0.4373 -0.2966
  201SOL     OW 5732   3.486   5.262   8.537  0.5489  0.0365 -0.4920
  201SOL    HW1 5733   3.411   5.284   8.591  2.6096 -0.0515  2.5525
  201SOL    HW2 5734   3.478   5.317   8.459 -2.7877 -0.2184 -0.3745
  202SOL     OW 5735   6.667   4.184   3.209  0.4921  0.5980  0.2559
  202SOL    HW1 5736   6.709   4.106   3.172  0.3727  0.6662 -0.0230
  202SOL    HW2 5737   6.577   4.156   3.228  0.1465  0.9728 -0.8270
  203SOL     OW 5738  10.000   3.391   2.698 -0.1470 -0.0973 -0.2833
  203SOL    HW1 5739   9.970   3.302   2.712 -1.2089  0.4255  0.8763
  203SOL    HW2 5740   9.987   3.434   2.783  0.7915  1.0260 -0.7007
  204SOL     OW 5741   4.721  10.765   6.168  0.7754  0.3067  0.0324
  204SOL    HW1 5742   4.771  10.688   6.196  0.3527  0.0135 -0.0024
  204SOL    HW2 5743   4.629  10.741   6.186  0.6299  0.7253 -0.1588
  205SOL     OW 5744   7.200   1.774   8.862 -0.6143  0.7342  0.1536
  205SOL    HW1 5745   7.287   1.734   8.861 -1.1823 -0.5127  0.1686
  205SOL    HW2 5746   7.157   1.738   8.784 -1.2713  1.0219  0.3852
  206SOL     OW 5747   0.319   6.294   5.142  0.5888  0.4555 -0.7181
  206SOL    HW1 5748   0.293   6.289   5.050  1.7124 -0.8390 -0.9794
  206SOL    HW2 5749   0.398   6.348   5.142  1.7939 -1.2962 -0.7796
  207SOL     OW 5750   2.708   8.716   0.772 -0.2160  0.5929  0.7337
  207SOL    HW1 5751   2.740   8.647   0.831 -0.9371  0.2387  0.7202
  207SOL    HW2 5752   2.615   8.697   0.761  0.2903 -0.5610 -2.1431
  208SOL     OW 5753   4.717   7.063   0.572  0.0628 -0.0385  0.1583
  208SOL    HW1 5754   4.712   7.155   0.546  1.5271  0.0080 -0.0198
  208SOL    HW2 5755   4.667   7.016   0.505 -0.4793  0.6061  0.1097
  209SOL     OW 5756   9.792   7.194  10.319  0.0635  0.5980 -0.0483
  209SOL    HW1 5757   9.850   7.270  10.319  0.8717 -0.0051  0.8971
  209SOL    HW2 5758   9.727   7.213  10.387 -0.0019  0.6510 -0.1259
  210SOL     OW 5759   8.156   7.782   9.405 -0.4466 -0.4571  0.9911
  210SOL    HW1 5760   8.183   7.874   9.402 -0.4867 -0.4767 -0.1892
  210SOL    HW2 5761   8.119   7.771   9.492  0.7554  0.3109  1.6069
  211SOL     OW 5762   0.706  11.268  10.533  0.1458  0.3394 -0.5183
  211SOL    HW1 5763   0.773  11.208  10.500  0.0457 -0.0619 -0.0022
  211SOL    HW2 5764   0.732  11.354  10.501  0.3928  0.0474 -1.1077
  212SOL     OW 5765   2.357  10.398   1.860 -0.2817  0.2860  0.1215
  212SOL    HW1 5766   2.346  10.389   1.766 -0.8624 -0.0387  0.2170
  212SOL    HW2 5767   2.275  10.365   1.897 -0.5492  1.5683  0.6818
  213SOL     OW 5768   1.167   0.933   6.444 -0.5431  0.1481  0.0739
  213SOL    HW1 5769   1.213   0.924   6.527 -1.3380  0.5415  0.5641
  213SOL    HW2 5770   1.164   1.027   6.429 -1.1370  0.1178  0.0121
  214SOL     OW 5771   8.518   2.293   9.337  0.3881  0.0982  0.3387
  214SOL    HW1 5772   8.583   2.298   9.407  0.6479  0.3856  0.0791
  214SOL    HW2 5773   8.562   2.330   9.261 -0.0274  0.1517  0.1212
  215SOL     OW 5774  11.318   2.416   6.156 -0.2576  0.5136 -0.7674
  215SOL    HW1 5775  11.277   2.418   6.243 -3.0051  0.8844 -1.9990
  215SOL    HW2 5776  11.325   2.323   6.135 -1.3998  0.4563 -0.9305
  216SOL     OW 5777  10.799   5.005   8.074 -0.8332 -0.0465  0.0881
  216SOL    HW1 5778  10.844   4.970   7.997  1.6660 -1.8480  2.2640
  216SOL    HW2 5779  10.853   5.080   8.101 -2.5680  1.5486 -0.7791
  217SOL     OW 5780   7.731  10.449   7.432 -0.3518 -0.7142  0.1947
  217SOL    HW1 5781   7.754  10.397   7.355 -0.2142 -1.3188  0.6419
  217SOL    HW2 5782   7.796  10.425   7.498  0.1121  0.5345  0.1892
  218SOL     OW 5783   3.252   4.938   5.923 -0.0572 -0.5317 -0.1723
  218SOL    HW1 5784   3.210   4.960   6.007  0.1001 -0.2673 -0.1631
  218SOL    HW2 5785   3.223   4.849   5.905  0.1253 -0.6908  0.3006
  219SOL     OW 5786   4.604   4.300  10.903 -0.1701  0.3863  0.0991
  219SOL    HW1 5787   4.579   4.379  10.856 -0.9905  0.6180  0.8984
  219SOL    HW2 5788   4.627   4.237  10.835  3.6387  2.3102 -0.4756
  220SOL     OW 5789   8.422   5.264   8.393 -0.2114  0.4567 -0.8801
  220SOL    HW1 5790   8.491   5.329   8.380  0.6822 -0.0874  0.8492
  220SOL    HW2 5791   8.463   5.181   8.368 -0.2062  0.1321  0.1564
  221SOL     OW 5792   2.064   7.014  11.313 -0.4817 -0.5014  0.1826
  221SOL    HW1 5793   2.103   6.927  11.312  0.6374 -0.1055  3.0198
  221SOL    HW2 5794   2.107   7.058  11.387 -2.8539  1.5787  0.3829
  222SOL     OW 5795   7.560   1.802   5.822  0.3352  0.3852 -0.3330
  222SOL    HW1 5796   7.547   1.714   5.858  2.0143 -0.6431 -2.1221
  222SOL    HW2 5797   7.608   1.849   5.890  0.1684 -0.3464  0.2953
  223SOL     OW 5798  10.846   2.665   9.133 -0.2986  0.6130  0.2141
  223SOL    HW1 5799  10.889   2.708   9.207  0.2569  1.4146 -0.5793
  223SOL    HW2 5800  10.909   2.599   9.104 -0.2263  0.7755  0.0029
  224SOL     OW 5801   4.655   4.682   7.204  0.1000 -0.1158  0.4046
  224SOL    HW1 5802   4.656   4.603   7.151 -0.9555  1.2614 -1.7506
  224SOL    HW2 5803   4.728   4.734   7.170  0.2241  0.2243  1.1834
  225SOL     OW 5804   9.362   0.802   0.994 -0.6288 -0.0545 -0.0682
  225SOL    HW1 5805   9.298   0.730   0.996 -0.6485 -0.0473 -0.3374
  225SOL    HW2 5806   9.410   0.794   1.076  0.2651 -1.1943 -0.6828
  226SOL     OW 5807   6.947   6.078   2.379  0.7027  0.0692 -0.2694
  226SOL    HW1 5808   6.994   6.022   2.317  0.0731 -0.7562 -0.0132
  226SOL    HW2 5809   6.958   6.033   2.463  1.0697  0.8858  0.1184
  227SOL     OW 5810   1.727  10.375   0.340 -0.2770 -0.2511  0.2304
  227SOL    HW1 5811   1.641  10.366   0.382 -0.5688  0.5505 -0.1775
  227SOL    HW2 5812   1.709  10.427   0.261  0.5592 -0.2095  0.0688
  228SOL     OW 5813   7.847   5.612   6.278 -0.2977  0.4498 -0.3025
  228SOL    HW1 5814   7.780   5.569   6.225 -1.6344  1.6707  0.3702
  228SOL    HW2 5815   7.930   5.588   6.236 -1.1911 -0.4920 -1.5612
  229SOL     OW 5816   2.959   9.014   8.561  0.1973  0.2354 -0.8357
  229SOL    HW1 5817   3.018   9.053   8.497  2.0835 -0.3318  0.5297
  229SOL    HW2 5818   2.933   9.088   8.617  1.8914 -0.0132  0.3028
  230SOL     OW 5819   9.317   4.642   3.968 -0.2629 -0.5081  0.6573
  230SOL    HW1 5820   9.389   4.600   3.922 -0.6421 -1.3038  0.7900
  230SOL    HW2 5821   9.285   4.576   4.029  0.3854  0.6282  2.2357
  231SOL     OW 5822   2.270   6.111  11.211 -0.7656  0.0600  0.3225
  231SOL    HW1 5823   2.330   6.159  11.154 -0.6505 -1.2324 -0.6737
  231SOL    HW2 5824   2.230   6.178  11.266 -0.5999  1.2838 -1.0247
  232SOL     OW 5825   0.588   9.580   8.390 -0.2575 -0.1499 -0.0917
  232SOL    HW1 5826   0.629   9.641   8.328  0.6061 -0.2049  0.4178
  232SOL    HW2 5827   0.637   9.499   8.379 -0.7819 -0.4696 -0.0712
  233SOL     OW 5828   7.562   8.290   1.164 -0.0889  0.4385 -0.0703
  233SOL    HW1 5829   7.542   8.199   1.184 -0.0101  0.5156  0.3812
  233SOL    HW2 5830   7.649   8.288   1.125 -0.1429  0.3066 -0.1823
  234SOL     OW 5831   3.020   2.613   5.108 -0.1502  0.1494 -0.7262
  234SOL    HW1 5832   3.044   2.524   5.084 -0.1984  0.4396 -1.8940
  234SOL    HW2 5833   2.928   2.607   5.136  0.3460 -0.4439  0.8465
  235SOL     OW 5834   2.708   6.493   2.402  0.3835  0.2040 -0.4007
  235SOL    HW1 5835   2.719   6.420   2.463 -1.0293  0.7929  0.6065
  235SOL    HW2 5836   2.698   6.453   2.316 -0.8973 -0.8256  0.2157
  236SOL     OW 5837  11.308   1.598   4.715 -0.1056  0.2685 -0.2263
  236SOL    HW1 5838  11.226   1.581   4.761  0.1353  0.3967  0.2514
  236SOL    HW2 5839  11.282   1.612   4.624 -0.4735 -1.1346 -0.3558
  237SOL     OW 5840   6.359   6.391   4.565  0.3908  0.3622  0.0824
  237SOL    HW1 5841   6.328   6.443   4.639  1.6222  0.9772  0.1837
  237SOL    HW2 5842   6.436   6.439   4.533  0.9168 -0.8318 -0.4810
  238SOL     OW 5843   5.996   8.352   9.275 -0.1454 -0.1793 -0.0360
  238SOL    HW1 5844   6.064   8.294   9.307  0.0789  0.1808  0.1435
  238SOL    HW2 5845   5.921   8.295   9.258  0.5923 -0.7537 -1.4051
  239SOL     OW 5846   3.296   5.493   8.048  0.1065  0.4785 -0.6924
  239SOL    HW1 5847   3.288   5.588   8.055 -1.6833  0.5018 -2.4274
  239SOL    HW2 5848   3.237   5.458   8.114 -0.4519  0.5882 -1.1313
  240SOL     OW 5849   9.220   6.825   2.262 -0.4042  0.3632  1.1264
  240SOL    HW1 5850   9.153   6.879   2.304  0.5155  0.8826  1.9283
  240SOL    HW2 5851   9.268   6.885   2.206 -1.1766 -0.1891 -0.1559
  241SOL     OW 5852   5.462   4.980   8.976 -0.1764 -0.7407  0.9035
  241SOL    HW1 5853   5.369   4.992   8.993 -0.6414 -0.2149 -1.7650
  241SOL    HW2 5854   5.501   5.064   8.996 -0.9620  0.3840 -2.0639
  242SOL     OW 5855   0.583   3.763   2.199 -0.4334  0.1422  0.2141
  242SOL    HW1 5856   0.573   3.848   2.242  0.5449 -0.3933  1.5467
  242SOL    HW2 5857   0.673   3.764   2.165 -1.3446  0.7336 -2.2396
  243SOL     OW 5858   2.004  10.169   8.971 -0.5264 -0.2565 -0.3688
  243SOL    HW1 5859   1.965  10.256   8.982  0.2286 -0.0178  0.4290
  243SOL    HW2 5860   1.929  10.109   8.973 -0.9376  0.2726  0.2628
  244SOL     OW 5861  10.053   5.037   6.417 -0.0959 -0.1386  0.0063
  244SOL    HW1 5862   9.987   4.975   6.450 -0.3286 -0.0206 -0.2320
  244SOL    HW2 5863  10.055   5.021   6.323 -0.0194  0.0851 -0.0296
  245SOL     OW 5864  10.640   8.309   6.937 -0.2715 -0.0151  0.1323
  245SOL    HW1 5865  10.548   8.316   6.965 -0.3950 -0.0307 -0.2638
  245SOL    HW2 5866  10.664   8.219   6.959 -0.7256 -0.3904 -0.8634
  246SOL     OW 5867   4.383   3.416  10.125  0.4625 -0.2444  0.0631
  246SOL    HW1 5868   4.416   3.356  10.059  0.6379  1.5926 -1.5843
  246SOL    HW2 5869   4.461   3.444  10.173  0.6021 -0.0530 -0.2722
  247SOL     OW 5870   7.459   8.425   5.923  0.0905  0.0588  0.3974
  247SOL    HW1 5871   7.535   8.377   5.889  0.1077  0.1963  0.2409
  247SOL    HW2 5872   7.467   8.417   6.018  1.5303  1.9248  0.4619
  248SOL     OW 5873  11.268   4.129   6.917  0.2878 -0.0891 -0.0346
  248SOL    HW1 5874  11.186   4.087   6.940  0.1390 -0.2802 -0.9092
  248SOL    HW2 5875  11.244   4.218   6.892  0.3997 -0.0088  0.1395
  249SOL     OW 5876  10.508   3.081   5.918 -0.0150 -0.1318  1.1338
  249SOL    HW1 5877  10.423   3.052   5.886 -0.2614  1.5382  0.2018
  249SOL    HW2 5878  10.506   3.062   6.012 -0.9882 -1.1013  0.9213
  250SOL     OW 5879   8.931   9.891   1.014 -0.2416  0.6672 -0.4947
  250SOL    HW1 5880   8.942   9.971   1.066 -1.8929  0.9779 -0.5793
  250SOL    HW2 5881   8.963   9.915   0.927 -0.5625  1.1934 -0.4724
  251SOL     OW 5882   9.321   8.140   9.292 -0.0515 -0.0876  1.2035
  251SOL    HW1 5883   9.306   8.069   9.355  0.0801  0.1423  1.4980
  251SOL    HW2 5884   9.415   8.139   9.277 -0.0441  0.0483  1.2385
  252SOL     OW 5885   7.614   5.615   8.385  0.4003  0.4302 -0.3604
  252SOL    HW1 5886   7.575   5.574   8.308 -1.1704  0.6803  0.2830
  252SOL    HW2 5887   7.693   5.564   8.402 -0.4993 -1.1414 -0.7262
  253SOL     OW 5888   0.577   5.599   1.519 -0.1730 -0.2357  0.5477
  253SOL    HW1 5889   0.548   5.573   1.432 -0.7571 -1.1421  0.9939
  253SOL    HW2 5890   0.502   5.581   1.576 -0.3627  1.8824  0.9874
  254SOL     OW 5891   6.795   6.043   9.739 -0.0045 -0.0580 -0.3996
  254SOL    HW1 5892   6.840   6.113   9.786  0.3140  1.1571 -2.4699
  254SOL    HW2 5893   6.748   6.087   9.669 -2.1384 -1.6183 -0.0257
  255SOL     OW 5894   7.385   0.992   6.874 -0.4417  0.1195  0.1729
  255SOL    HW1 5895   7.338   0.939   6.809 -2.1842  5.3998 -3.2456
  255SOL    HW2 5896   7.465   1.019   6.829  0.5259  0.1900  1.9233
  256SOL     OW 5897   8.599   4.818   3.244  0.5968  0.3319  0.4889
  256SOL    HW1 5898   8.506   4.840   3.244  0.1028 -1.6386  1.8075
  256SOL    HW2 5899   8.602   4.723   3.257  2.7734  0.2811 -0.1302
  257SOL     OW 5900  10.410   9.771  10.457  0.2519  0.0350 -0.2573
  257SOL    HW1 5901  10.457   9.710  10.399 -1.7347  0.2755 -2.1581
  257SOL    HW2 5902  10.415   9.730  10.543  1.9096 -1.0974 -0.8599
  258SOL     OW 5903   6.560   5.020   8.999  0.4716  0.1231 -0.6243
  258SOL    HW1 5904   6.595   5.063   8.921 -1.5867 -0.4943 -1.9340
  258SOL    HW2 5905   6.503   5.086   9.039 -0.5987 -0.4593 -1.1645
  259SOL     OW 5906   2.433   3.809   3.559  0.2021 -0.0685 -1.0548
  259SOL    HW1 5907   2.497   3.864   3.515 -0.5406  0.8804 -0.9814
  259SOL    HW2 5908   2.348   3.847   3.535 -0.2199  0.5498  1.2499
  260SOL     OW 5909   6.091   9.190  10.047 -0.1230  0.3081 -0.2677
  260SOL    HW1 5910   6.053   9.262   9.997  1.8596  0.6584 -1.3240
  260SOL    HW2 5911   6.105   9.227  10.134 -0.6661  0.6690 -0.3262
  261SOL     OW 5912   1.944   1.827   9.574  0.2789 -0.3695 -0.1324
  261SOL    HW1 5913   1.926   1.839   9.668  0.5095 -0.3480 -0.0908
  261SOL    HW2 5914   2.005   1.753   9.571 -1.3470 -1.7163 -0.3999
  262SOL     OW 5915   3.747  11.319   4.891  0.3513  0.1382 -0.4678
  262SOL    HW1 5916   3.770  11.343   4.801  1.3820 -0.2536 -0.3160
  262SOL    HW2 5917   3.769  11.226   4.898 -1.1801 -0.2215 -0.2711
  263SOL     OW 5918   6.041   8.839  10.395 -0.7971  0.1788  0.2426
  263SOL    HW1 5919   5.967   8.847  10.334 -0.6525 -3.8794 -0.6389
  263SOL    HW2 5920   6.103   8.781  10.349  1.9807  1.7843  1.8673
  264SOL     OW 5921   5.516   3.105   0.871  0.0198 -0.2135 -0.2834
  264SOL    HW1 5922   5.469   3.092   0.788 -1.0358  0.2988  0.2260
  264SOL    HW2 5923   5.449   3.094   0.938  1.0642 -1.5749  0.5615
  265SOL     OW 5924   7.583   8.557   3.406  0.4393 -0.4778  0.5351
  265SOL    HW1 5925   7.619   8.610   3.335 -0.1505  0.9327  1.2725
  265SOL    HW2 5926   7.539   8.620   3.464 -0.5298 -1.7978  1.2724
  266SOL     OW 5927   1.360   1.538   9.907 -0.4896 -1.0948 -0.3383
  266SOL    HW1 5928   1.328   1.449   9.895 -0.6079 -1.0523 -0.3342
  266SOL    HW2 5929   1.361   1.575   9.818  2.2427 -2.0183 -0.7520
  267SOL     OW 5930   4.848   4.669   0.610 -0.4117  0.0329  0.4360
  267SOL    HW1 5931   4.837   4.731   0.538 -2.6661 -0.8025  0.0195
  267SOL    HW2 5932   4.802   4.590   0.581  2.5213 -1.9330  0.8872
  268SOL     OW 5933   2.389   5.940   6.589 -0.5706  0.0610 -0.0026
  268SOL    HW1 5934   2.366   5.849   6.568 -0.0092 -0.3251  1.0010
  268SOL    HW2 5935   2.393   5.984   6.504 -1.0061 -0.8188 -0.4893
  269SOL     OW 5936   7.361   8.670   4.314  0.7341 -0.4240 -0.8192
  269SOL    HW1 5937   7.416   8.742   4.280  0.3510 -0.5931 -1.8292
  269SOL    HW2 5938   7.395   8.592   4.270 -0.1864 -0.5573 -1.3028
  270SOL     OW 5939   4.665   0.354   8.070 -0.5814 -0.6786  0.3763
  270SOL    HW1 5940   4.607   0.388   8.001  0.0802  1.0130  0.6271
  270SOL    HW2 5941   4.613   0.361   8.150 -1.0727 -1.9276  0.1798
  271SOL     OW 5942  10.649   4.377   4.059  0.3626  0.2432 -0.4018
  271SOL    HW1 5943  10.732   4.338   4.031 -0.1024 -0.4535 -0.8397
  271SOL    HW2 5944  10.635   4.344   4.147 -0.2848 -1.0082 -0.9642
  272SOL     OW 5945   7.426   9.966   0.539 -0.2998  0.1996 -0.2994
  272SOL    HW1 5946   7.436   9.870   0.540 -2.5778 -0.0496  1.3872
  272SOL    HW2 5947   7.351   9.982   0.483 -0.1439  1.0031 -0.2831
  273SOL     OW 5948   5.759   2.571   9.752 -0.1765 -0.1536  0.2815
  273SOL    HW1 5949   5.799   2.610   9.830 -0.2937  0.0157  0.2586
  273SOL    HW2 5950   5.739   2.481   9.777  0.8180 -0.4304  0.0742
  274SOL     OW 5951   9.767   9.207  10.905  0.1742  0.3281  0.2406
  274SOL    HW1 5952   9.698   9.146  10.879 -0.5689  1.6072 -0.8294
  274SOL    HW2 5953   9.807   9.235  10.822 -0.0221  1.8834  0.6466
  275SOL     OW 5954   4.553   3.762   6.099  0.4401 -0.5089  0.3212
  275SOL    HW1 5955   4.464   3.757   6.135 -1.0305  0.9117 -2.8721
  275SOL    HW2 5956   4.561   3.682   6.047 -0.3474  0.9584 -2.1658
  276SOL     OW 5957  11.145   1.003   5.251 -0.1880  0.2794  0.2402
  276SOL    HW1 5958  11.052   0.989   5.236 -0.5108  0.8330  1.6363
  276SOL    HW2 5959  11.152   1.097   5.270  0.9656  0.6988 -2.0555
  277SOL     OW 5960   1.172   1.314   0.696 -0.5608 -0.3701  0.3114
  277SOL    HW1 5961   1.139   1.361   0.773 -0.9480  1.0073 -0.6732
  277SOL    HW2 5962   1.099   1.316   0.634 -0.0962 -1.0886 -0.2593
  278SOL     OW 5963   6.734   1.368   3.182  0.2025 -0.5667  0.4531
  278SOL    HW1 5964   6.774   1.435   3.127 -1.5712 -0.2849 -0.5282
  278SOL    HW2 5965   6.807   1.333   3.234  1.5043  0.6920 -0.4818
  279SOL     OW 5966  10.091   9.240   9.995 -0.2730  0.3979 -0.7145
  279SOL    HW1 5967  10.048   9.215   9.913 -2.0612 -0.0787  0.3536
  279SOL    HW2 5968  10.184   9.249   9.971 -0.5934 -0.8486 -2.5293
  280SOL     OW 5969  10.472   6.295   3.522  0.2356  0.5519  0.7550
  280SOL    HW1 5970  10.526   6.217   3.518 -0.0195  0.3172  1.9450
  280SOL    HW2 5971  10.534   6.368   3.518  0.5085  0.2964  0.3050
  281SOL     OW 5972   8.302   6.552   2.780  0.3224 -0.3767 -0.0497
  281SOL    HW1 5973   8.319   6.622   2.717 -1.8767  0.7462  0.5608
  281SOL    HW2 5974   8.210   6.529   2.767  0.1155 -0.8510  2.0218
  282SOL     OW 5975   9.626   0.990   4.701  0.2700 -0.1093 -0.6348
  282SOL    HW1 5976   9.548   0.952   4.661 -0.3487  0.1852  0.2618
  282SOL    HW2 5977   9.607   0.988   4.795 -0.1025  3.0573 -0.5697
  283SOL     OW 5978   1.487   5.326  11.318  0.1503  0.3756 -0.4089
  283SOL    HW1 5979   1.507   5.415  11.346 -3.4542  0.7433  1.1928
  283SOL    HW2 5980   1.511   5.324  11.225 -0.6360  3.2887 -0.7004
  284SOL     OW 5981   0.929   7.493  10.507 -0.2902 -0.0023 -0.2633
  284SOL    HW1 5982   0.881   7.506  10.589 -1.3594 -0.6976 -0.7696
  284SOL    HW2 5983   0.868   7.522  10.439  0.7846  1.0657 -0.7902
  285SOL     OW 5984   2.672   3.913   4.397  0.6088  0.5509 -0.1220
  285SOL    HW1 5985   2.729   3.921   4.473  0.3683 -1.3483  0.2601
  285SOL    HW2 5986   2.644   3.822   4.397 -2.9677  1.5856  0.0838
  286SOL     OW 5987   1.515   4.382   4.617 -0.4154 -0.1075  0.0474
  286SOL    HW1 5988   1.575   4.456   4.612 -0.0987 -0.3145  0.7499
  286SOL    HW2 5989   1.566   4.313   4.661 -0.7346 -0.7090 -0.5227
  287SOL     OW 5990   1.394   6.365  10.112  0.0128 -0.1230 -0.3796
  287SOL    HW1 5991   1.356   6.297  10.168  1.0292 -0.0855  0.3479
  287SOL    HW2 5992   1.320   6.422  10.091 -0.8355 -1.3961 -0.9238
  288SOL     OW 5993   1.561   6.738   0.558  0.0073  0.0741  0.0908
  288SOL    HW1 5994   1.639   6.780   0.597  0.6276 -0.5012 -0.5209
  288SOL    HW2 5995   1.511   6.707   0.633  0.9590 -0.5969  0.4527
  289SOL     OW 5996   9.033   1.988   0.747  0.6277  0.1392  0.0586
  289SOL    HW1 5997   9.001   1.923   0.810 -0.7121  1.3887  0.6815
  289SOL    HW2 5998   8.983   1.971   0.667  1.7331 -0.8991 -0.4391
  290SOL     OW 5999   7.824   7.478   8.620 -0.2542 -0.0368 -0.4181
  290SOL    HW1 6000   7.912   7.516   8.626 -0.2942  0.1184 -0.8211
  290SOL    HW2 6001   7.832   7.393   8.663 -0.8755  1.6558  3.2580
  291SOL     OW 6002   5.486   2.910   4.397  0.1209  0.1021  0.0128
  291SOL    HW1 6003   5.498   2.825   4.355 -0.3199  0.5715 -1.1133
  291SOL    HW2 6004   5.421   2.894   4.466  0.5214 -0.6021  0.2281
  292SOL     OW 6005   9.582   3.157   7.903 -0.9124  0.0444 -0.2340
  292SOL    HW1 6006   9.571   3.108   7.984 -1.6018  0.1218 -0.2814
  292SOL    HW2 6007   9.614   3.092   7.840  0.5960  0.1903  0.3469
  293SOL     OW 6008   2.940   7.274   6.979  0.0305  0.3431  0.1541
  293SOL    HW1 6009   2.886   7.352   6.969  0.0704  0.5482  1.4374
  293SOL    HW2 6010   3.023   7.296   6.938 -0.0861  0.8377  0.1831
  294SOL     OW 6011  10.136   7.337   6.802  0.4988 -0.0886 -0.3051
  294SOL    HW1 6012  10.140   7.415   6.858 -0.4367 -0.2649  0.0077
  294SOL    HW2 6013  10.226   7.303   6.802  0.4027 -0.3920  1.5318
  295SOL     OW 6014   7.631   8.566  10.580  0.0555 -0.0927 -0.6735
  295SOL    HW1 6015   7.694   8.571  10.651  0.3759 -1.0687 -0.8795
  295SOL    HW2 6016   7.634   8.652  10.538  0.4901  0.1974 -0.0411
  296SOL     OW 6017  10.827   2.320   2.481 -0.2114  0.3504 -0.7078
  296SOL    HW1 6018  10.754   2.285   2.429  1.3077 -0.3489 -2.3928
  296SOL    HW2 6019  10.840   2.408   2.446  0.5690  0.0123 -1.2939
  297SOL     OW 6020   1.428   9.674   5.238 -0.0631 -0.2828 -0.5066
  297SOL    HW1 6021   1.370   9.622   5.295  0.3411  0.5547  0.6773
  297SOL    HW2 6022   1.467   9.609   5.180 -0.6786 -1.1223 -0.0084
  298SOL     OW 6023  11.083   9.756   7.142 -0.3416 -0.4042 -0.0177
  298SOL    HW1 6024  11.036   9.798   7.214  0.6367 -1.5161  1.2927
  298SOL    HW2 6025  11.173   9.785   7.152  0.6234 -3.6726  1.6545
  299SOL     OW 6026   8.295   3.480   0.777  0.4397 -0.3072  0.5797
  299SOL    HW1 6027   8.321   3.571   0.793 -0.4786  0.0714 -0.0279
  299SOL    HW2 6028   8.285   3.442   0.865  0.0093  0.4161  0.8467
  300SOL     OW 6029   1.960   1.939   4.506 -0.0587  0.7044 -0.4293
  300SOL    HW1 6030   1.888   1.959   4.566 -0.8379 -0.0217 -1.1022
  300SOL    HW2 6031   1.997   1.857   4.540  1.1434  1.6244  0.5282
  301SOL     OW 6032   4.368   6.398   6.146  0.2452  0.6319  0.1274
  301SOL    HW1 6033   4.407   6.356   6.222 -0.1866 -0.7551 -0.3974
  301SOL    HW2 6034   4.276   6.374   6.149  0.6014 -1.1544 -1.9253
  302SOL     OW 6035   4.397  10.666   5.708  0.0235 -0.1485 -0.4657
  302SOL    HW1 6036   4.463  10.734   5.718  0.1571 -0.3207 -0.1632
  302SOL    HW2 6037   4.437  10.588   5.748 -0.7257 -0.0191  0.5540
  303SOL     OW 6038   9.708   6.964   4.509 -0.5489  0.4975  0.0411
  303SOL    HW1 6039   9.655   6.926   4.439 -2.4092  0.2289  1.5428
  303SOL    HW2 6040   9.769   6.895   4.534  0.6637  0.8609 -1.8089
  304SOL     OW 6041   7.223   5.424   1.695 -0.1134 -0.0489  0.2697
  304SOL    HW1 6042   7.298   5.472   1.729 -0.9785  0.8535  0.9304
  304SOL    HW2 6043   7.189   5.479   1.625 -0.3425 -0.3040  0.1810
  305SOL     OW 6044   4.087   4.543   8.387  0.0380 -0.2558 -0.6813
  305SOL    HW1 6045   4.106   4.572   8.298  2.9065  0.3674  0.0756
  305SOL    HW2 6046   4.063   4.623   8.434  0.3644 -0.2862 -0.4597
  306SOL     OW 6047   6.702   5.746   7.512 -0.2131 -0.6275 -0.0473
  306SOL    HW1 6048   6.652   5.741   7.593  2.8755  0.7533  2.0416
  306SOL    HW2 6049   6.695   5.837   7.484  0.4563 -0.6221 -0.2030
  307SOL     OW 6050   2.645   2.539   1.299 -0.1390 -0.1829 -0.7799
  307SOL    HW1 6051   2.560   2.497   1.281 -0.6866  0.3210  0.5603
  307SOL    HW2 6052   2.690   2.537   1.215 -1.6512 -0.0836 -1.6209
  308SOL     OW 6053   1.826   2.071   1.879  0.3199 -0.9374  0.3013
  308SOL    HW1 6054   1.894   2.134   1.905  0.7630 -1.9601  1.6804
  308SOL    HW2 6055   1.873   2.004   1.829  0.2010 -1.2473  0.6021
  309SOL     OW 6056  10.180   6.583   9.620  0.0002  0.4677  0.4687
  309SOL    HW1 6057  10.267   6.623   9.624  0.1691  0.0937  0.5782
  309SOL    HW2 6058  10.193   6.503   9.570 -0.5511  1.1124 -0.7242
  310SOL     OW 6059   0.136   4.943   1.630  0.4543 -0.3136  0.5947
  310SOL    HW1 6060   0.194   4.867   1.636  0.9267 -0.1034 -1.0978
  310SOL    HW2 6061   0.048   4.906   1.637  0.6458 -1.1373 -1.1450
  311SOL     OW 6062   5.190   4.768   2.417 -0.4711  0.0755  0.1095
  311SOL    HW1 6063   5.214   4.860   2.425 -0.8070  0.2275 -0.6110
  311SOL    HW2 6064   5.262   4.728   2.368 -0.5818  0.0638 -0.0451
  312SOL     OW 6065   6.521  10.696   4.206  0.7222 -0.2937  0.2382
  312SOL    HW1 6066   6.476  10.735   4.131  0.9848 -0.7721 -0.1811
  312SOL    HW2 6067   6.611  10.682   4.174  0.8439 -0.4575  0.6585
  313SOL     OW 6068  11.001   5.456   1.840 -0.0513 -0.2660  0.4796
  313SOL    HW1 6069  11.052   5.481   1.916  0.0988  0.6484  0.0962
  313SOL    HW2 6070  10.980   5.540   1.797  0.3469 -0.8008 -0.7806
  314SOL     OW 6071   5.344   0.638  11.277  0.0795 -0.3128 -0.2006
  314SOL    HW1 6072   5.333   0.706  11.210 -0.2531  0.3774  0.5457
  314SOL    HW2 6073   5.271   0.578  11.263 -1.5946  1.3314  1.3040
  315SOL     OW 6074   2.442   9.063   3.843  0.0425  0.1395  0.0385
  315SOL    HW1 6075   2.418   9.118   3.769 -0.3628  1.5836  1.2151
  315SOL    HW2 6076   2.497   9.120   3.898  1.4098 -1.3086  0.2090
  316SOL     OW 6077   9.457   7.309   5.083  0.1438  0.8847 -0.7787
  316SOL    HW1 6078   9.493   7.373   5.021  3.5342 -0.0670  0.0679
  316SOL    HW2 6079   9.418   7.362   5.152  0.2233  2.0151 -1.5810
  317SOL     OW 6080   9.671   7.175   4.899 -0.1381 -0.0944 -0.1898
  317SOL    HW1 6081   9.652   7.141   4.986 -1.4442  0.0632 -0.4017
  317SOL    HW2 6082   9.652   7.269   4.906 -0.5944 -0.1433 -0.7338
  318SOL     OW 6083   8.503   8.913   2.901  0.2304 -0.7171  0.2273
  318SOL    HW1 6084   8.545   8.927   2.986 -2.3177  1.3801  1.1815
  318SOL    HW2 6085   8.423   8.866   2.921 -0.6286  0.2080 -0.9456
  319SOL     OW 6086   6.728   4.994   6.885  0.1884 -0.8434  0.0999
  319SOL    HW1 6087   6.683   4.917   6.849 -0.5965 -1.2333  1.8599
  319SOL    HW2 6088   6.665   5.033   6.946  0.5163  1.2984 -0.8678
  320SOL     OW 6089   6.331   5.349   2.611 -0.8201 -0.8967  0.1932
  320SOL    HW1 6090   6.278   5.338   2.690 -1.9517  0.3073 -0.3732
  320SOL    HW2 6091   6.281   5.410   2.557  0.4982 -0.8039 -0.9560
  321SOL     OW 6092   2.684   2.829   8.741 -0.2071 -0.1188  0.4433
  321SOL    HW1 6093   2.766   2.878   8.730  0.4500 -1.5198 -1.0720
  321SOL    HW2 6094   2.637   2.878   8.809  1.6715  0.9732  1.0262
  322SOL     OW 6095  11.215   4.523   2.218 -0.9479 -0.4991 -0.3117
  322SOL    HW1 6096  11.276   4.575   2.270  1.4062 -2.2913 -1.2187
  322SOL    HW2 6097  11.234   4.433   2.243 -2.7427 -1.1345 -1.1565
  323SOL     OW 6098   2.686   0.315   3.740 -0.0723  0.1151  0.1506
  323SOL    HW1 6099   2.665   0.249   3.806 -0.4022 -0.5583 -0.6119
  323SOL    HW2 6100   2.707   0.394   3.790 -0.3486 -0.3767  1.0523
  324SOL     OW 6101   4.057   3.984   1.259  0.2017 -0.4752 -0.1876
  324SOL    HW1 6102   4.103   3.977   1.343  0.8341  0.4729 -0.4381
  324SOL    HW2 6103   4.066   4.077   1.235  0.6765 -0.8906 -1.6586
  325SOL     OW 6104   0.367   8.938   3.704  0.0078 -0.2281  0.1355
  325SOL    HW1 6105   0.298   9.003   3.691  0.1529  0.0882  0.9222
  325SOL    HW2 6106   0.425   8.949   3.629 -0.1682  0.2993  0.0749
  326SOL     OW 6107   2.618   1.463   1.344 -0.0932  0.6644  0.5088
  326SOL    HW1 6108   2.685   1.449   1.277 -1.3965  1.5480 -1.0047
  326SOL    HW2 6109   2.540   1.419   1.310 -0.9502  1.6586  1.1591
  327SOL     OW 6110   1.614   0.693   8.870  0.2526  0.9096 -0.0854
  327SOL    HW1 6111   1.709   0.690   8.882  0.3555  1.0195 -0.8364
  327SOL    HW2 6112   1.601   0.675   8.777 -0.4396  1.3672 -0.0818
  328SOL     OW 6113   6.785   3.850   1.238 -0.2256  0.0123 -0.1232
  328SOL    HW1 6114   6.741   3.933   1.252 -0.5672  0.0068 -1.1165
  328SOL    HW2 6115   6.876   3.874   1.218 -0.3216  0.1493 -0.3997
  329SOL     OW 6116   3.464  10.316   4.397  0.4448 -0.1726  0.0517
  329SOL    HW1 6117   3.535  10.371   4.364 -0.8085  1.2809 -0.2262
  329SOL    HW2 6118   3.509  10.237   4.428  2.2100  0.7908  0.0466
  330SOL     OW 6119   6.792   4.884  11.004 -0.4180  0.1479  0.2476
  330SOL    HW1 6120   6.812   4.794  10.976 -1.6341 -0.8161  2.2895
  330SOL    HW2 6121   6.873   4.932  10.991  0.5427 -1.4926  0.0303
  331SOL     OW 6122   0.244   2.090  10.148  0.3803  0.1860  0.3690
  331SOL    HW1 6123   0.205   2.133  10.224 -1.3991  1.0709 -1.0061
  331SOL    HW2 6124   0.250   1.998  10.173 -1.2179  0.2806  1.1697
  332SOL     OW 6125   4.223   6.045   3.651  1.0969 -0.9304 -0.4399
  332SOL    HW1 6126   4.174   6.048   3.569  1.2304 -2.0167 -0.5618
  332SOL    HW2 6127   4.214   6.134   3.687 -0.0309 -0.8096 -0.9938
  333SOL     OW 6128   3.105   5.528   7.791  0.1866  0.4105  0.0116
  333SOL    HW1 6129   3.182   5.585   7.792 -0.7411  1.7101 -1.3483
  333SOL    HW2 6130   3.130   5.455   7.735 -0.2280  1.8249 -2.0918
  334SOL     OW 6131   5.409   0.549   5.839  0.3743 -0.0573 -0.1962
  334SOL    HW1 6132   5.401   0.455   5.826  0.4528 -0.1364  0.2899
  334SOL    HW2 6133   5.489   0.559   5.891  0.5026  0.2958 -0.4560
  335SOL     OW 6134   3.218   2.135  10.120  0.1676 -0.1515  0.6263
  335SOL    HW1 6135   3.199   2.174  10.205 -0.5674 -0.9277  0.8252
  335SOL    HW2 6136   3.302   2.091  10.131 -0.2612 -0.8469  1.1619
  336SOL     OW 6137   1.299   3.294   8.270  0.1706 -0.4970  0.2384
  336SOL    HW1 6138   1.346   3.340   8.201  0.7217 -0.1786  0.8144
  336SOL    HW2 6139   1.316   3.201   8.253  0.4169 -0.4132  0.0261
  337SOL     OW 6140   9.055  11.061  10.998 -0.3037 -0.2445  0.1473
  337SOL    HW1 6141   9.133  11.018  11.031 -0.8613 -2.8129 -1.6866
  337SOL    HW2 6142   8.984  11.000  11.017 -1.2242  0.1174 -1.9774
  338SOL     OW 6143   0.082   0.005   4.152  0.2593 -0.4345  0.0537
  338SOL    HW1 6144   0.025  -0.065   4.185 -0.4746  0.6072  1.0502
  338SOL    HW2 6145   0.171  -0.024   4.173  0.0247 -1.5706 -0.5209
  339SOL     OW 6146   0.402   1.193   4.877 -0.3677 -0.0876  0.0084
  339SOL    HW1 6147   0.380   1.237   4.796 -1.0736  1.3037  0.9311
  339SOL    HW2 6148   0.413   1.263   4.941  0.3289 -1.1465  1.0804
  340SOL     OW 6149  10.979   4.126   7.728 -0.2980 -0.3237  1.0734
  340SOL    HW1 6150  11.019   4.050   7.769  0.1878  0.1231  1.4284
  340SOL    HW2 6151  10.899   4.141   7.779 -0.3211 -0.5040  1.0943
  341SOL     OW 6152   1.342   6.815  10.988  0.0585  0.3773 -0.4075
  341SOL    HW1 6153   1.416   6.757  11.003 -1.0033 -1.7177 -2.9339
  341SOL    HW2 6154   1.282   6.797  11.061  0.7005 -0.1038  0.0019
  342SOL     OW 6155   6.518   2.155   7.621  0.1426  0.5416 -0.2415
  342SOL    HW1 6156   6.481   2.075   7.659  1.8911  1.2025  2.9699
  342SOL    HW2 6157   6.446   2.218   7.624 -0.0583  0.2680  1.0214
  343SOL     OW 6158   7.880   2.877   2.772 -0.6526  0.3900 -0.0989
  343SOL    HW1 6159   7.975   2.886   2.783 -0.9721  1.4010  2.0718
  343SOL    HW2 6160   7.843   2.939   2.834 -2.7657 -0.3525 -0.5792
  344SOL     OW 6161   3.009   7.442  10.839 -0.1032  0.0374 -0.0929
  344SOL    HW1 6162   3.066   7.372  10.870 -0.5964 -0.0613  0.6083
  344SOL    HW2 6163   3.042   7.463  10.751  0.4323 -0.6407 -0.0590
  345SOL     OW 6164   4.292   5.360   1.648 -0.5432 -0.0313 -0.3882
  345SOL    HW1 6165   4.324   5.300   1.581  0.1914  0.2192 -0.2681
  345SOL    HW2 6166   4.197   5.350   1.646 -0.5130 -0.1829 -1.3157
  346SOL     OW 6167   7.833   9.868   1.393  0.1585  0.1955 -0.3034
  346SOL    HW1 6168   7.862   9.796   1.450  1.6383  0.5085 -0.6259
  346SOL    HW2 6169   7.823   9.828   1.307  0.1802  0.1981 -0.3077
  347SOL     OW 6170  11.000   8.371   5.954  0.1313 -0.0808 -0.3430
  347SOL    HW1 6171  11.028   8.457   5.983 -0.4498 -0.1748  0.5089
  347SOL    HW2 6172  10.904   8.375   5.956  0.1037 -0.9685  0.3944
  348SOL     OW 6173   2.650   4.007   7.342  0.1928  0.3183  0.0045
  348SOL    HW1 6174   2.593   4.080   7.319  0.4641 -0.2603 -2.5559
  348SOL    HW2 6175   2.592   3.943   7.382 -0.9226 -0.1519 -2.3272
  349SOL     OW 6176   7.387  10.141   8.722 -0.0351  0.1770 -0.9047
  349SOL    HW1 6177   7.419  10.053   8.740  1.1035  1.0923  1.7388
  349SOL    HW2 6178   7.466  10.194   8.709 -0.6737  1.0490 -1.3151
  350SOL     OW 6179   8.557   8.386   5.086  0.2192 -0.2455  0.5508
  350SOL    HW1 6180   8.569   8.295   5.113  0.8957 -0.5552 -0.7067
  350SOL    HW2 6181   8.503   8.381   5.007 -1.4578  0.5999  1.6218
  351SOL     OW 6182   3.018  10.966   3.561  0.2405  0.3058 -0.1786
  351SOL    HW1 6183   3.042  10.948   3.652 -0.7079 -0.2893 -0.0380
  351SOL    HW2 6184   2.930  10.928   3.551  1.2220 -1.6396 -1.9458
  352SOL     OW 6185   4.012   1.448   5.290  0.2298  0.1520  0.4176
  352SOL    HW1 6186   3.988   1.367   5.245  1.7098  0.8656 -1.7246
  352SOL    HW2 6187   3.933   1.502   5.285  0.4884  0.3785 -1.7245
  353SOL     OW 6188   6.583   3.960   6.329  0.6481  0.1960 -0.1091
  353SOL    HW1 6189   6.537   3.968   6.412  1.1920 -0.8978  0.3115
  353SOL    HW2 6190   6.577   3.867   6.307  0.9640  0.3860 -1.0276
  354SOL     OW 6191   0.497   4.301   4.280 -0.5383 -0.1826 -0.8528
  354SOL    HW1 6192   0.475   4.390   4.307 -0.8438 -0.8450  1.1907
  354SOL    HW2 6193   0.590   4.304   4.261 -0.5474  0.5711 -0.8050
  355SOL     OW 6194  10.834   5.855   5.763 -0.7477 -0.9278  0.0833
  355SOL    HW1 6195  10.862   5.766   5.743 -1.6385 -1.0263 -0.8034
  355SOL    HW2 6196  10.899   5.911   5.720 -0.2442 -1.1561  0.5536
  356SOL     OW 6197   5.127  11.081   4.365 -0.0181  0.1553 -0.4485
  356SOL    HW1 6198   5.179  11.094   4.286  0.4777 -0.7311 -0.2723
  356SOL    HW2 6199   5.050  11.137   4.352  0.5083  0.7309 -1.1354
  357SOL     OW 6200   5.536   4.636   0.620  0.0571  0.3715 -0.2381
  357SOL    HW1 6201   5.521   4.556   0.568  0.1060  0.0065  0.3088
  357SOL    HW2 6202   5.494   4.618   0.704  0.3406  0.8024 -0.0053
  358SOL     OW 6203   5.873   7.509   3.963  0.5054 -0.1804 -0.2770
  358SOL    HW1 6204   5.794   7.517   4.017  2.3305 -0.1538  2.4948
  358SOL    HW2 6205   5.856   7.434   3.906 -1.4150 -0.3536  0.4851
  359SOL     OW 6206   8.431   4.649  10.277  0.1162 -0.2862 -0.1934
  359SOL    HW1 6207   8.444   4.628  10.185  1.4088  1.3957 -0.4216
  359SOL    HW2 6208   8.434   4.564  10.322  1.5661 -0.9314 -1.4670
  360SOL     OW 6209   1.712   2.955   8.081 -0.2724 -0.5349 -0.2361
  360SOL    HW1 6210   1.689   2.911   8.162 -2.7693  2.0732  0.5749
  360SOL    HW2 6211   1.754   3.037   8.108 -3.8705  1.8301 -1.3422
  361SOL     OW 6212   0.562   6.098   9.527  0.8201 -0.6084 -0.6502
  361SOL    HW1 6213   0.556   6.012   9.486  0.8608 -1.6774  1.4971
  361SOL    HW2 6214   0.627   6.087   9.596  0.0788  0.8781  0.3177
  362SOL     OW 6215   0.167   7.911  10.028  0.3382 -0.0773 -0.6309
  362SOL    HW1 6216   0.120   7.980   9.981  1.4906  0.8979 -0.3801
  362SOL    HW2 6217   0.218   7.958  10.094 -0.1535 -1.3075  0.6703
  363SOL     OW 6218   8.968   6.584   2.794 -0.0674 -0.1083 -0.5561
  363SOL    HW1 6219   8.947   6.614   2.882  0.9950  0.7697 -0.5936
  363SOL    HW2 6220   8.931   6.651   2.737  0.3911 -0.0078 -0.7316
  364SOL     OW 6221   8.269   3.367   3.239 -0.2433 -0.4974 -0.1836
  364SOL    HW1 6222   8.240   3.402   3.323  0.6152 -0.0630 -0.0644
  364SOL    HW2 6223   8.364   3.361   3.247 -0.2413 -1.3667 -0.7754
  365SOL     OW 6224   8.607   7.512   3.854  0.3605  0.1915 -0.9897
  365SOL    HW1 6225   8.557   7.555   3.923  1.4044 -0.4312  0.1895
  365SOL    HW2 6226   8.683   7.568   3.841 -0.5052  1.0115 -2.6026
  366SOL     OW 6227   0.788   3.257  10.117  0.3739 -0.4073  0.1815
  366SOL    HW1 6228   0.693   3.258  10.125  0.3642  1.8993  0.1115
  366SOL    HW2 6229   0.820   3.274  10.206  0.6567  1.3287 -0.2316
  367SOL     OW 6230  10.683  10.599   1.562  0.1474  0.2219 -0.4582
  367SOL    HW1 6231  10.670  10.505   1.551  2.8045 -0.4394  1.5698
  367SOL    HW2 6232  10.644  10.619   1.648  1.8415  0.4428  0.2857
  368SOL     OW 6233   1.459   9.984   3.603 -0.2993 -0.1108 -0.5891
  368SOL    HW1 6234   1.378   9.998   3.653  1.0733 -2.1912  2.4168
  368SOL    HW2 6235   1.496  10.071   3.593 -1.0310  0.4581  1.3917
  369SOL     OW 6236   1.309   7.403  11.190  0.1584  0.3056 -0.5138
  369SOL    HW1 6237   1.265   7.325  11.222 -1.0393  1.3635  0.4856
  369SOL    HW2 6238   1.249   7.441  11.127  1.1557 -0.0843 -1.7180
  370SOL     OW 6239   5.581   9.816   5.093 -0.4256 -0.0895  0.0678
  370SOL    HW1 6240   5.535   9.734   5.074 -0.9252  0.0546  0.6592
  370SOL    HW2 6241   5.616   9.843   5.008  0.2987 -1.2471 -0.0215
  371SOL     OW 6242   8.028   3.996   2.945 -0.3022 -0.0011 -0.4295
  371SOL    HW1 6243   8.114   3.954   2.941 -0.8254 -1.1969  0.5782
  371SOL    HW2 6244   7.991   3.983   2.858  0.3798  0.1965 -0.7539
  372SOL     OW 6245   6.589   6.776   9.258  0.3815 -0.2458  0.2893
  372SOL    HW1 6246   6.593   6.702   9.319 -3.1073 -1.1140 -0.4424
  372SOL    HW2 6247   6.517   6.754   9.199  0.7216  2.7494 -1.3055
  373SOL     OW 6248   7.463   1.039   8.930  0.3011 -0.2325  0.5033
  373SOL    HW1 6249   7.448   1.130   8.954  0.2964 -0.2407  0.5310
  373SOL    HW2 6250   7.457   1.038   8.834  0.7354 -0.1244  0.4761
  374SOL     OW 6251   1.277   5.531   5.402  0.4931  0.3476 -0.5585
  374SOL    HW1 6252   1.198   5.546   5.350  1.2843  0.8653 -1.6157
  374SOL    HW2 6253   1.287   5.612   5.454 -0.4522 -0.2796  0.6340
  375SOL     OW 6254  11.083   6.977   8.895 -1.0518 -0.2958  0.5695
  375SOL    HW1 6255  10.990   6.990   8.912 -1.6927  1.1068 -3.4131
  375SOL    HW2 6256  11.120   7.065   8.896 -0.2392 -0.6278 -0.1901
  376SOL     OW 6257   9.444   0.391  10.342  0.2365  0.1064 -0.6798
  376SOL    HW1 6258   9.400   0.398  10.427 -2.4079 -0.7503 -1.9078
  376SOL    HW2 6259   9.536   0.376  10.363 -0.3157  0.2602  2.0162
  377SOL     OW 6260   9.739  10.906   4.580  0.5129  0.5284  0.0675
  377SOL    HW1 6261   9.703  10.991   4.554  0.2966  0.0209 -1.3463
  377SOL    HW2 6262   9.689  10.842   4.529  0.6141 -0.4642  1.1807
  378SOL     OW 6263   7.375   7.671   2.870  0.5303  0.0533 -0.4434
  378SOL    HW1 6264   7.463   7.694   2.840  1.5792 -1.6606  1.1861
  378SOL    HW2 6265   7.329   7.645   2.791  0.4703  3.9566 -1.7863
  379SOL     OW 6266   9.511   5.393   7.371 -0.0038 -0.2704  0.6686
  379SOL    HW1 6267   9.445   5.331   7.338 -0.2963  0.7781 -0.7735
  379SOL    HW2 6268   9.466   5.440   7.441 -0.7967  0.3947 -0.2634
  380SOL     OW 6269   5.783   0.762   6.772  0.3708 -0.3907 -0.8999
  380SOL    HW1 6270   5.815   0.817   6.844  0.9784 -3.6294  1.3989
  380SOL    HW2 6271   5.862   0.733   6.728  0.1223 -0.6707 -1.1593
  381SOL     OW 6272   5.325   6.206   2.006  0.2365 -0.7010 -0.2017
  381SOL    HW1 6273   5.344   6.295   1.976  1.1411 -0.1728  1.8219
  381SOL    HW2 6274   5.237   6.212   2.043  0.1559 -0.7418 -0.3839
  382SOL     OW 6275   3.653   5.797   2.806  0.2385 -0.4705  0.0838
  382SOL    HW1 6276   3.637   5.834   2.893  1.7578 -0.3696  0.3300
  382SOL    HW2 6277   3.732   5.842   2.775 -0.0139 -0.8548 -1.1479
  383SOL     OW 6278   6.461   8.974   0.114  0.1297  0.9790  0.0690
  383SOL    HW1 6279   6.400   9.036   0.075  2.8541  4.5382  1.2102
  383SOL    HW2 6280   6.426   8.959   0.202 -0.7841  0.4743 -0.3674
  384SOL     OW 6281   2.634   1.800   5.456  0.3341 -0.3932  0.0994
  384SOL    HW1 6282   2.619   1.756   5.373 -0.5540  0.2655 -0.1007
  384SOL    HW2 6283   2.583   1.750   5.520  1.8391 -1.5116  0.4418
  385SOL     OW 6284  10.314   3.361  11.012 -0.5370 -0.6434 -0.4777
  385SOL    HW1 6285  10.272   3.386  11.094  2.3514  0.1832  0.8105
  385SOL    HW2 6286  10.371   3.287  11.036  1.4960  0.5765 -1.3649
  386SOL     OW 6287   7.023   0.096   8.785  0.0749  0.4654  0.1816
  386SOL    HW1 6288   7.014   0.165   8.851 -0.3634  1.2995 -0.7435
  386SOL    HW2 6289   6.979   0.020   8.824  1.7854  0.2640  1.8084
  387SOL     OW 6290   7.328   6.210  10.357 -0.0800  0.4301 -0.0876
  387SOL    HW1 6291   7.323   6.263  10.278 -2.0848  1.1811  0.5282
  387SOL    HW2 6292   7.307   6.121  10.328 -0.6788  0.6826 -0.4243
  388SOL     OW 6293   8.906   5.343   0.648  0.0167  0.1755  0.8369
  388SOL    HW1 6294   8.865   5.351   0.561 -0.1434  1.7459  1.0394
  388SOL    HW2 6295   8.884   5.425   0.692  2.3769  0.5451  1.3810
  389SOL     OW 6296   4.405   6.798   5.093  0.7070  0.8106  0.0711
  389SOL    HW1 6297   4.431   6.867   5.033 -0.4064  0.5146 -0.7697
  389SOL    HW2 6298   4.353   6.843   5.160  0.3967  0.8712 -0.2077
  390SOL     OW 6299   9.016   9.866   5.423  0.5876 -0.4676  0.1416
  390SOL    HW1 6300   9.102   9.869   5.382  0.5301  0.0459  0.0513
  390SOL    HW2 6301   8.998   9.773   5.435  0.2536 -0.6536 -1.7282
  391SOL     OW 6302   5.726   0.959   3.280 -0.6056  0.0151 -0.4602
  391SOL    HW1 6303   5.665   0.992   3.346  0.1501 -0.0712  0.2964
  391SOL    HW2 6304   5.813   0.974   3.318 -0.1868 -1.0185 -0.9782
  392SOL     OW 6305   6.465   9.471   3.876 -0.0559  0.0696  0.1355
  392SOL    HW1 6306   6.506   9.430   3.952 -3.4492  0.7487  2.4437
  392SOL    HW2 6307   6.401   9.407   3.845  0.3805  0.3343 -1.4011
  393SOL     OW 6308   3.896  10.261   9.656 -0.3763 -0.7411 -0.2534
  393SOL    HW1 6309   3.924  10.321   9.587 -0.3492 -0.1625  0.2597
  393SOL    HW2 6310   3.848  10.192   9.610  0.1987 -0.7016 -0.9209
  394SOL     OW 6311  10.365   4.276   4.918 -0.1687  0.0378  0.5416
  394SOL    HW1 6312  10.440   4.242   4.967 -0.9709 -0.1254  1.6748
  394SOL    HW2 6313  10.289   4.245   4.966 -1.0132 -1.4240 -1.6812
  395SOL     OW 6314   7.024   9.231   2.415 -0.2367 -0.4866 -0.4979
  395SOL    HW1 6315   7.011   9.173   2.489  1.3041  0.6067  0.6572
  395SOL    HW2 6316   7.033   9.318   2.454 -0.7448  0.2943 -2.0673
  396SOL     OW 6317   5.276   2.085   5.110 -0.0595 -0.0728 -0.0224
  396SOL    HW1 6318   5.225   2.160   5.142 -0.4939 -0.8686  1.2020
  396SOL    HW2 6319   5.367   2.115   5.113 -0.2998  0.7105 -0.4138
  397SOL     OW 6320   9.494  11.102   2.343  0.0619  0.6361 -0.7828
  397SOL    HW1 6321   9.513  11.164   2.413 -1.9857  1.8314 -1.2503
  397SOL    HW2 6322   9.579  11.079   2.307  0.9680  1.7290  0.6277
  398SOL     OW 6323   0.358   9.071   7.661  0.5318  0.8717 -0.2269
  398SOL    HW1 6324   0.268   9.039   7.675  0.6595  0.4763 -0.3081
  398SOL    HW2 6325   0.362   9.153   7.710  1.6887 -1.6271  4.0920
  399SOL     OW 6326   4.298   2.512   3.760 -0.2405  0.6467 -0.0129
  399SOL    HW1 6327   4.203   2.520   3.769 -0.2233  1.6003 -0.6775
  399SOL    HW2 6328   4.310   2.454   3.686 -0.3056  0.0112  0.4692
  400SOL     OW 6329   4.384   2.529   6.551  0.0220 -0.2259  0.0286
  400SOL    HW1 6330   4.400   2.623   6.540  1.0294 -0.0643  2.5877
  400SOL    HW2 6331   4.289   2.521   6.555 -0.0512  0.7766  0.4218
  401SOL     OW 6332   2.386   3.704   0.979 -0.2133  0.1993 -0.2153
  401SOL    HW1 6333   2.326   3.775   0.956  1.2646  1.4537 -0.2498
  401SOL    HW2 6334   2.404   3.661   0.896 -1.0489 -0.1752 -0.2068
  402SOL     OW 6335   5.826   9.352   1.506  0.1677  0.1479  0.0058
  402SOL    HW1 6336   5.751   9.410   1.514  0.7547  0.7307  1.4982
  402SOL    HW2 6337   5.850   9.331   1.597  0.4962 -1.7357 -0.4880
  403SOL     OW 6338   4.192   4.405   7.315 -0.9146 -0.4558  0.1303
  403SOL    HW1 6339   4.280   4.407   7.277 -1.8106  2.3377 -1.9120
  403SOL    HW2 6340   4.197   4.335   7.381  2.7068 -0.6086 -0.1741
  404SOL     OW 6341  10.059   3.066   1.281 -0.1630 -0.2040  0.3926
  404SOL    HW1 6342  10.042   3.160   1.285  1.0011 -0.0102  0.9135
  404SOL    HW2 6343  10.026   3.040   1.195  1.3572  1.0640 -0.6067
  405SOL     OW 6344   3.110  10.878   8.676  0.1988 -0.3583  0.1179
  405SOL    HW1 6345   3.035  10.877   8.736  0.9181  0.2494  1.0341
  405SOL    HW2 6346   3.126  10.786   8.657  0.0637 -0.5697  0.9827
  406SOL     OW 6347   6.563   1.608   0.167 -0.0081 -0.2239 -0.0598
  406SOL    HW1 6348   6.658   1.616   0.161 -0.1345  0.4028 -1.4570
  406SOL    HW2 6349   6.545   1.609   0.261  1.3408 -0.0529  0.2109
  407SOL     OW 6350   9.624   1.409   2.029 -0.4580  0.6892  0.8256
  407SOL    HW1 6351   9.530   1.389   2.036 -0.9132  2.6552  0.6098
  407SOL    HW2 6352   9.642   1.408   1.935 -0.2505  0.2619  0.8696
  408SOL     OW 6353   0.096  10.554   7.689  0.1625 -0.1409 -0.1961
  408SOL    HW1 6354   0.192  10.555   7.693  0.1545 -0.4372  0.1956
  408SOL    HW2 6355   0.076  10.522   7.601  0.4184  0.4843 -0.4878
  409SOL     OW 6356   2.036   3.352   8.294  0.3341  0.4465  0.2261
  409SOL    HW1 6357   2.106   3.327   8.233  0.4469  0.4254  0.3649
  409SOL    HW2 6358   2.003   3.435   8.259 -0.8610 -0.4969 -0.9366
  410SOL     OW 6359   4.033   4.644   7.248 -0.4944  0.1393 -0.1617
  410SOL    HW1 6360   4.003   4.700   7.320  0.8826  0.3845  0.2570
  410SOL    HW2 6361   4.076   4.571   7.293  0.4072  0.3153 -0.7319
  411SOL     OW 6362   2.000   2.735   9.038  0.2867  0.1945 -0.1009
  411SOL    HW1 6363   1.995   2.809   8.978 -0.5464 -0.0196 -0.3002
  411SOL    HW2 6364   1.936   2.755   9.107  0.6649  0.0598  0.2963
  412SOL     OW 6365   5.549   7.632   4.707  0.0391 -0.6913  0.2044
  412SOL    HW1 6366   5.490   7.592   4.771 -0.9762  0.5129  0.0226
  412SOL    HW2 6367   5.589   7.557   4.662 -1.3174 -1.5204  0.3357
  413SOL     OW 6368   6.292  10.946   5.655 -0.5747 -0.1083  0.7696
  413SOL    HW1 6369   6.262  11.022   5.606 -1.1373 -0.0691  1.1672
  413SOL    HW2 6370   6.214  10.917   5.703  0.1971  0.4290  2.3743
  414SOL     OW 6371   5.263  10.932   5.291  0.0594 -0.0681 -0.3220
  414SOL    HW1 6372   5.282  11.001   5.228 -0.3889  0.0251 -0.3601
  414SOL    HW2 6373   5.343  10.880   5.296  1.2653  1.9091  1.5868
  415SOL     OW 6374  10.373  10.040   3.492  0.4425 -0.0268 -0.8845
  415SOL    HW1 6375  10.372  10.021   3.586 -0.0418 -1.4927 -1.1789
  415SOL    HW2 6376  10.459  10.081   3.477  0.6179 -0.0070  0.1505
  416SOL     OW 6377   6.145   4.466   7.272  0.2767  0.5590  0.1910
  416SOL    HW1 6378   6.132   4.378   7.308 -1.4584  0.7868  0.1753
  416SOL    HW2 6379   6.185   4.451   7.186  0.7288 -0.1663  0.5187
  417SOL     OW 6380   7.870   5.622   0.906  0.3068  0.7241  0.3025
  417SOL    HW1 6381   7.869   5.651   0.997 -0.9376  2.2151 -0.1626
  417SOL    HW2 6382   7.913   5.693   0.858  1.7400 -0.4388 -0.1518
  418SOL     OW 6383  10.290   6.185   7.978 -0.2730  0.1231 -0.1444
  418SOL    HW1 6384  10.328   6.242   7.911 -0.0820 -0.7242 -0.7604
  418SOL    HW2 6385  10.232   6.242   8.028  2.0251  1.5150  0.9948
  419SOL     OW 6386   9.820   1.912   0.313 -0.9340 -0.2427  0.3200
  419SOL    HW1 6387   9.908   1.936   0.340  0.2572 -1.9889 -1.8317
  419SOL    HW2 6388   9.797   1.839   0.371 -0.1463 -1.1101 -0.4497
  420SOL     OW 6389   1.744   0.922   4.306  0.7409 -0.7122 -0.3479
  420SOL    HW1 6390   1.786   0.841   4.276 -0.3097 -1.0983 -0.7905
  420SOL    HW2 6391   1.794   0.992   4.263  1.9466 -1.0882  0.3957
  421SOL     OW 6392   1.254   4.905   0.498  0.1118  0.3238 -0.3330
  421SOL    HW1 6393   1.174   4.858   0.474  0.4760 -0.5417  0.1268
  421SOL    HW2 6394   1.226   4.997   0.507 -1.0626 -0.1257  0.9023
  422SOL     OW 6395   2.978   5.194   0.084 -0.1996 -0.1001 -0.4544
  422SOL    HW1 6396   3.032   5.243   0.146  2.0344 -0.6082 -1.9012
  422SOL    HW2 6397   2.994   5.102   0.106 -1.5065 -0.2428 -0.0776
  423SOL     OW 6398   2.095   3.067   3.178 -0.2134  0.5238  0.2955
  423SOL    HW1 6399   2.018   3.121   3.195  0.4611  1.8636 -0.7793
  423SOL    HW2 6400   2.137   3.057   3.264 -0.0486  2.2033  0.4273
  424SOL     OW 6401   1.886   0.955  10.045 -0.1054 -0.8173  0.6020
  424SOL    HW1 6402   1.792   0.950  10.030  0.1705 -1.1833 -1.1721
  424SOL    HW2 6403   1.912   1.038  10.004  0.3667 -0.7906  0.9548
  425SOL     OW 6404   4.927   4.484   5.293  0.9245  0.5080  0.3054
  425SOL    HW1 6405   4.959   4.492   5.203  1.5394 -0.1493  0.4590
  425SOL    HW2 6406   4.983   4.416   5.332 -2.8059 -3.2354 -0.4254
  426SOL     OW 6407   1.595   4.521   3.658  0.1408  0.3078 -0.0065
  426SOL    HW1 6408   1.561   4.524   3.569  1.4408  0.6948 -0.5015
  426SOL    HW2 6409   1.535   4.462   3.704 -0.0141 -0.6486 -1.3757
  427SOL     OW 6410   3.601   8.690   2.239 -0.1074 -0.1505  0.4204
  427SOL    HW1 6411   3.666   8.743   2.285  1.2566 -0.7950 -0.7202
  427SOL    HW2 6412   3.640   8.602   2.235 -1.0355 -0.5412 -0.2970
  428SOL     OW 6413   0.047   2.169   0.043  0.5790  0.3413  0.2722
  428SOL    HW1 6414   0.040   2.264   0.035  0.8764  0.5436  2.2216
  428SOL    HW2 6415   0.080   2.155   0.132 -0.4027 -1.6242  0.3454
  429SOL     OW 6416   3.605   0.782   4.308 -0.2654  0.4896 -0.2630
  429SOL    HW1 6417   3.574   0.748   4.392 -1.6433  1.4718 -0.3600
  429SOL    HW2 6418   3.629   0.704   4.258 -0.5939 -0.1656  0.5929
  430SOL     OW 6419   8.017   7.896   6.686 -0.7429 -0.1116 -0.0953
  430SOL    HW1 6420   8.038   7.979   6.728 -0.6527 -0.0469 -0.2688
  430SOL    HW2 6421   8.098   7.845   6.694 -1.1105 -0.5631  0.9258
  431SOL     OW 6422   3.556   1.832   4.081 -0.1165  0.3106  0.3684
  431SOL    HW1 6423   3.642   1.829   4.040  0.3656  0.8934  1.3373
  431SOL    HW2 6424   3.501   1.778   4.023  0.5907  0.9559 -0.9377
  432SOL     OW 6425   0.693   0.401   3.542 -0.0266  0.4091 -0.2003
  432SOL    HW1 6426   0.782   0.433   3.553 -0.1304  1.4261 -1.9994
  432SOL    HW2 6427   0.703   0.315   3.502  0.1503  1.5520 -2.7226
  433SOL     OW 6428   7.450  10.546   1.336 -0.0066  0.3464 -0.2326
  433SOL    HW1 6429   7.402  10.495   1.270  1.3962 -2.2892  0.7250
  433SOL    HW2 6430   7.457  10.488   1.412  2.8190  1.4339  0.4210
  434SOL     OW 6431   1.314   2.663  10.250  0.4398  0.2972  0.4683
  434SOL    HW1 6432   1.312   2.734  10.314 -0.3725  0.9074 -0.2101
  434SOL    HW2 6433   1.316   2.583  10.302 -2.4295  0.7109  1.3220
  435SOL     OW 6434   4.559   1.810   2.834 -0.1494  0.3919 -0.7595
  435SOL    HW1 6435   4.474   1.772   2.856 -0.8927  1.7333 -1.2767
  435SOL    HW2 6436   4.621   1.764   2.890 -1.3558  0.1496  0.3863
  436SOL     OW 6437   1.958   3.709   5.575 -0.1994  0.1443 -0.3707
  436SOL    HW1 6438   2.052   3.690   5.581  0.0505  1.7695  1.2190
  436SOL    HW2 6439   1.954   3.788   5.521 -0.5428  0.8156  0.6217
  437SOL     OW 6440   4.364   2.209  10.338  0.2732  0.0889  1.0774
  437SOL    HW1 6441   4.346   2.126  10.381 -0.5711 -0.6488 -0.6434
  437SOL    HW2 6442   4.438   2.191  10.280  1.2626  1.0114  2.0384
  438SOL     OW 6443   6.407   9.489   1.363  0.3325  0.1684 -0.0924
  438SOL    HW1 6444   6.322   9.454   1.390  0.6640 -0.8224 -0.3040
  438SOL    HW2 6445   6.406   9.580   1.393 -0.2070 -0.2575  1.2390
  439SOL     OW 6446   0.168   2.893   1.141 -0.0073 -0.1241 -0.1743
  439SOL    HW1 6447   0.166   2.895   1.237  0.6536  0.8256 -0.1766
  439SOL    HW2 6448   0.193   2.981   1.115  2.1279 -0.9691 -1.1610
  440SOL     OW 6449   1.060   5.192  10.872 -0.1931  0.6874  0.4446
  440SOL    HW1 6450   1.098   5.121  10.819  1.0636  2.0367 -0.5070
  440SOL    HW2 6451   1.135   5.235  10.912 -0.9002  1.8211  0.5678
  441SOL     OW 6452   0.228   9.207   4.757  0.7395  0.0850 -0.4051
  441SOL    HW1 6453   0.200   9.117   4.747  0.5962  0.0829 -0.0220
  441SOL    HW2 6454   0.288   9.205   4.832 -0.7291  0.6130  0.8057
  442SOL     OW 6455   0.624   2.112   7.049 -0.1365 -0.0937 -0.2261
  442SOL    HW1 6456   0.680   2.180   7.011  0.0248 -0.2252 -0.2241
  442SOL    HW2 6457   0.554   2.161   7.094 -0.8584  0.0456 -1.4794
  443SOL     OW 6458   3.389  11.233   1.971  0.2116  0.0664 -0.5130
  443SOL    HW1 6459   3.422  11.188   1.893  1.9485 -0.0349  0.2460
  443SOL    HW2 6460   3.315  11.180   1.999  1.9438 -2.1294  0.0985
  444SOL     OW 6461   6.147  10.743   2.764  0.6186 -0.1248 -0.4243
  444SOL    HW1 6462   6.129  10.650   2.778  3.9433 -1.1971 -2.5575
  444SOL    HW2 6463   6.183  10.773   2.848  1.2140 -1.2422 -0.2709
  445SOL     OW 6464   2.595  10.782   9.754 -0.3180  0.2443 -0.5716
  445SOL    HW1 6465   2.517  10.838   9.757 -1.3882 -1.0786 -2.4297
  445SOL    HW2 6466   2.561  10.693   9.761  1.0712 -0.3185 -0.7961
  446SOL     OW 6467   4.671   7.758   4.315 -0.3999 -0.4564  0.2277
  446SOL    HW1 6468   4.594   7.767   4.372  0.6674  2.6620  1.2709
  446SOL    HW2 6469   4.736   7.715   4.370  0.3706  1.8468  1.1584
  447SOL     OW 6470   2.329   2.470   4.605 -0.0118 -0.3460 -0.1255
  447SOL    HW1 6471   2.237   2.456   4.629  0.1354 -1.6392 -0.2425
  447SOL    HW2 6472   2.327   2.493   4.512 -0.2604  0.2478  0.0249
  448SOL     OW 6473   3.696  10.061   1.686  0.0313 -0.3054  0.4837
  448SOL    HW1 6474   3.638  10.130   1.717 -0.8516 -0.8659  0.0939
  448SOL    HW2 6475   3.702  10.074   1.591  0.0581 -0.6108  0.4413
  449SOL     OW 6476   0.163  10.009   7.306  0.0587 -0.2224  0.0869
  449SOL    HW1 6477   0.195  10.071   7.241  1.8134 -1.4007 -0.1911
  449SOL    HW2 6478   0.188  10.048   7.390 -2.6538  1.5531  0.1527
  450SOL     OW 6479   7.808   1.198   1.973 -0.9159 -0.5064 -0.4890
  450SOL    HW1 6480   7.751   1.150   1.913 -0.8029  0.5121 -1.4116
  450SOL    HW2 6481   7.791   1.290   1.954 -0.7904 -0.1785  0.9607
  451SOL     OW 6482  10.973   0.701   0.802  0.9909  0.0919  0.3739
  451SOL    HW1 6483  10.963   0.677   0.894 -1.0252 -0.2809  0.0756
  451SOL    HW2 6484  10.906   0.650   0.756  0.5797  1.8283 -1.0252
  452SOL     OW 6485  10.503   8.970  10.505  0.4172 -0.3886  0.0411
  452SOL    HW1 6486  10.571   8.903  10.513  0.2476 -0.4284  1.2762
  452SOL    HW2 6487  10.498   9.009  10.593 -0.7530 -0.0060 -0.1925
  453SOL     OW 6488   3.669   1.359   8.352 -0.3538 -0.1084 -0.1569
  453SOL    HW1 6489   3.590   1.310   8.377  0.6630 -0.4344  2.5653
  453SOL    HW2 6490   3.635   1.444   8.322 -1.8018 -0.5738  0.0983
  454SOL     OW 6491   7.730   3.048   1.966 -0.3008 -0.1523  0.2192
  454SOL    HW1 6492   7.715   2.962   2.004  0.9596 -0.7856 -0.6854
  454SOL    HW2 6493   7.782   3.095   2.031  0.1232 -0.5231  0.1454
  455SOL     OW 6494  10.925   7.650   8.001  0.3322  0.1719 -0.1001
  455SOL    HW1 6495  10.934   7.731   8.051 -0.2829  0.9665 -1.2587
  455SOL    HW2 6496  11.013   7.631   7.970  0.3388  0.8656 -0.5280
  456SOL     OW 6497   3.991   4.873   8.708 -0.0676 -0.0289  0.1459
  456SOL    HW1 6498   3.982   4.808   8.639 -0.9696 -0.7086  0.9008
  456SOL    HW2 6499   3.903   4.907   8.721 -0.1014 -0.6745  1.6974
  457SOL     OW 6500  11.257   8.630   2.109  0.2206 -0.3765 -0.2421
  457SOL    HW1 6501  11.305   8.561   2.063  1.6861  1.3932 -1.4291
  457SOL    HW2 6502  11.313   8.707   2.102 -1.9443  1.2583  0.0120
  458SOL     OW 6503   8.961   9.693  11.213 -0.0059 -0.7512 -0.4598
  458SOL    HW1 6504   8.917   9.710  11.130  0.0845 -0.6148 -0.4809
  458SOL    HW2 6505   8.979   9.599  11.213 -0.3264 -0.8116 -0.4353
  459SOL     OW 6506   7.109   5.891   9.396 -0.0392 -0.5270  0.2801
  459SOL    HW1 6507   7.195   5.871   9.358 -0.6316 -1.5792 -0.5408
  459SOL    HW2 6508   7.129   5.926   9.483  1.2417 -0.3045 -0.0873
  460SOL     OW 6509   3.718   2.304   0.363  0.5909 -0.4876  0.2206
  460SOL    HW1 6510   3.702   2.343   0.449 -0.9543 -1.9292  0.6102
  460SOL    HW2 6511   3.807   2.270   0.368  0.9584  0.5497  0.8103
  461SOL     OW 6512  10.387   0.781   6.667 -0.1203  0.3795 -0.0311
  461SOL    HW1 6513  10.404   0.688   6.649 -0.1230  0.5016 -0.6900
  461SOL    HW2 6514  10.469   0.814   6.702 -0.2336  0.0359  0.5620
  462SOL     OW 6515  10.604   3.754   5.948  0.0982  0.1145 -0.2700
  462SOL    HW1 6516  10.513   3.725   5.954  0.7657 -1.6844  2.1200
  462SOL    HW2 6517  10.623   3.793   6.033  1.8886 -0.5930 -0.3125
  463SOL     OW 6518   3.379   1.220   9.729  0.2497 -0.1601  0.2744
  463SOL    HW1 6519   3.451   1.240   9.789  0.4937  1.1189 -0.4429
  463SOL    HW2 6520   3.391   1.280   9.656 -0.9692 -0.6325 -0.3205
  464SOL     OW 6521   1.920   2.885   1.172  0.3136  0.3560  0.6725
  464SOL    HW1 6522   1.874   2.956   1.128  0.0759 -0.3079 -0.1833
  464SOL    HW2 6523   2.011   2.895   1.145  0.3365  0.5197  0.8082
  465SOL     OW 6524   6.005  11.066   1.473  0.2932 -0.5175 -0.6338
  465SOL    HW1 6525   5.993  10.979   1.512  3.5026 -0.6640  0.2298
  465SOL    HW2 6526   6.059  11.049   1.395  1.5104  0.7451 -0.0810
  466SOL     OW 6527   8.678   6.546  10.103 -0.6102  0.6501  0.6245
  466SOL    HW1 6528   8.725   6.585  10.029 -0.0174  1.5981  1.4822
  466SOL    HW2 6529   8.586   6.550  10.078 -0.4153  1.0285 -0.0339
  467SOL     OW 6530   2.586   0.324   0.110  0.0993 -0.0736  0.2090
  467SOL    HW1 6531   2.554   0.344   0.022  0.2947  0.1782  0.1928
  467SOL    HW2 6532   2.531   0.252   0.140 -0.8505  0.7035  0.3901
  468SOL     OW 6533   5.177   4.843   5.356 -0.1597  0.1962 -0.1311
  468SOL    HW1 6534   5.195   4.929   5.317  0.2055 -0.1543 -0.7469
  468SOL    HW2 6535   5.218   4.781   5.296 -1.9237 -0.5253 -0.6174
  469SOL     OW 6536   2.375   7.476   4.468  0.0162 -0.6737  0.2222
  469SOL    HW1 6537   2.403   7.404   4.524 -0.4478 -2.1222 -1.3861
  469SOL    HW2 6538   2.368   7.438   4.381  0.4614  1.4886 -0.7836
  470SOL     OW 6539   5.211   5.873   5.636  0.1041 -0.2768  0.1981
  470SOL    HW1 6540   5.278   5.810   5.662  0.2208 -0.3767 -0.3476
  470SOL    HW2 6541   5.168   5.833   5.561 -1.5132 -0.8495  1.4227
  471SOL     OW 6542   0.082   1.576   3.199 -0.3239 -0.1417 -0.3010
  471SOL    HW1 6543   0.174   1.577   3.223 -0.1531  0.2394 -0.9445
  471SOL    HW2 6544   0.038   1.624   3.269 -0.2759 -1.8215  0.9103
  472SOL     OW 6545  10.956   9.315   8.907  0.2992 -0.6579 -0.1783
  472SOL    HW1 6546  11.046   9.291   8.928 -0.2307 -2.9760 -0.4237
  472SOL    HW2 6547  10.906   9.234   8.917 -1.7440  0.5568 -0.1672
  473SOL     OW 6548  10.028   9.260   4.454 -0.1333  0.0687  0.9498
  473SOL    HW1 6549  10.064   9.172   4.457  0.0747  0.1735  1.6069
  473SOL    HW2 6550   9.983   9.271   4.537 -0.5741  0.4076  0.6702
  474SOL     OW 6551   0.304   3.919   8.452  0.8396 -0.2705 -0.2050
  474SOL    HW1 6552   0.228   3.866   8.475  0.2550  0.1144 -1.2103
  474SOL    HW2 6553   0.272   3.979   8.385  1.3818  1.6056  1.1571
  475SOL     OW 6554  11.235   9.906   2.061  0.2015  0.0334  0.2450
  475SOL    HW1 6555  11.182   9.827   2.055 -0.0386  0.1285  1.0499
  475SOL    HW2 6556  11.171   9.975   2.081  0.5957  0.1871  0.9877
  476SOL     OW 6557   8.457   7.520   5.976 -0.6672 -0.0784  0.3014
  476SOL    HW1 6558   8.509   7.576   6.033 -0.2927 -1.0891  0.9590
  476SOL    HW2 6559   8.372   7.563   5.972 -0.0514  1.1307 -0.0976
  477SOL     OW 6560   1.683   6.392   1.125  0.1596 -0.0987  0.2092
  477SOL    HW1 6561   1.642   6.428   1.204 -1.9923 -0.7651 -0.5768
  477SOL    HW2 6562   1.761   6.346   1.157  0.1690  0.9602  1.7554
  478SOL     OW 6563   3.417   0.368   2.268  0.2832  0.1383  0.0799
  478SOL    HW1 6564   3.327   0.349   2.295  0.1920  0.1417 -0.2167
  478SOL    HW2 6565   3.460   0.283   2.269  0.9591  0.4921  2.6896
  479SOL     OW 6566   9.779   2.393   7.266  0.2778 -0.2480  0.1024
  479SOL    HW1 6567   9.800   2.485   7.275  2.9763 -0.7935 -0.3760
  479SOL    HW2 6568   9.709   2.378   7.329 -0.0031  2.0380  0.3710
  480SOL     OW 6569  10.686   0.103  11.204  0.9907  0.0895  0.4443
  480SOL    HW1 6570  10.721   0.127  11.290 -2.0469  2.9340  0.9521
  480SOL    HW2 6571  10.662   0.186  11.163 -1.3493 -1.4881 -1.5362
  481SOL     OW 6572   8.045  10.031   4.958  0.0484 -0.0093  0.4135
  481SOL    HW1 6573   8.056  10.124   4.941  1.5047 -0.1080  0.7550
  481SOL    HW2 6574   8.061  10.022   5.052 -0.8107 -0.5033  0.5207
  482SOL     OW 6575   3.674   0.039   5.755  0.2324 -0.2551 -0.3778
  482SOL    HW1 6576   3.597   0.073   5.801 -0.1478 -3.1898  1.2994
  482SOL    HW2 6577   3.650   0.041   5.662 -1.3484  0.0727  0.0257
  483SOL     OW 6578   3.706   3.975   1.031 -0.7633 -0.0219  0.2601
  483SOL    HW1 6579   3.642   3.938   0.970  0.2227 -0.6727 -0.3847
  483SOL    HW2 6580   3.785   3.923   1.019  0.3203  1.6002  0.0853
  484SOL     OW 6581   2.403   6.062   9.775  0.4218 -0.3805  0.3011
  484SOL    HW1 6582   2.476   6.017   9.732 -0.3230  0.5359 -1.9872
  484SOL    HW2 6583   2.325   6.032   9.729 -0.3198  1.2837  0.4191
  485SOL     OW 6584   7.735   1.895   0.127 -0.3222  0.4785  0.2969
  485SOL    HW1 6585   7.739   1.937   0.042  0.7734 -1.3346 -0.5857
  485SOL    HW2 6586   7.808   1.832   0.127 -1.5047 -0.9712  1.7710
  486SOL     OW 6587   3.696   6.654   1.052  0.0095 -0.4324 -0.4670
  486SOL    HW1 6588   3.699   6.561   1.076  1.8551 -0.6782 -1.5487
  486SOL    HW2 6589   3.612   6.665   1.008 -0.2942 -1.5497 -0.1815
  487SOL     OW 6590   0.231   8.686   2.063  0.3005 -0.4169 -0.7379
  487SOL    HW1 6591   0.253   8.665   1.973  2.6291 -0.3374 -0.2150
  487SOL    HW2 6592   0.315   8.706   2.105 -0.9434  1.5534  0.9400
  488SOL     OW 6593   6.628   7.934   2.848 -0.0816  0.1454 -0.4980
  488SOL    HW1 6594   6.688   7.942   2.773 -0.0113  1.9360 -0.2615
  488SOL    HW2 6595   6.544   7.967   2.815  0.6589  3.7453  1.0244
  489SOL     OW 6596   8.404   3.423   9.885  0.3137 -0.1076 -0.1291
  489SOL    HW1 6597   8.360   3.468   9.957 -1.3300 -0.0163 -1.1694
  489SOL    HW2 6598   8.438   3.493   9.830 -0.4288 -0.1585 -0.6513
  490SOL     OW 6599   9.775   8.818   0.652  0.3376 -0.4706  0.4804
  490SOL    HW1 6600   9.790   8.837   0.745  1.5091  0.2789  0.1554
  490SOL    HW2 6601   9.814   8.893   0.607 -0.1814 -0.8635 -0.6177
  491SOL     OW 6602   3.103   4.250   0.201  0.3096  0.1232 -0.3416
  491SOL    HW1 6603   3.014   4.243   0.234 -0.4724  0.1440 -2.3741
  491SOL    HW2 6604   3.151   4.180   0.246 -1.3147 -1.4875 -1.0520
  492SOL     OW 6605   3.321   1.981   4.339  0.8871  0.4360  0.4338
  492SOL    HW1 6606   3.374   2.009   4.265 -0.3542 -0.0788 -0.6540
  492SOL    HW2 6607   3.303   1.889   4.322 -0.2624  0.5831  0.8623
  493SOL     OW 6608   1.540   0.401   3.953 -0.2721 -0.0067  0.0362
  493SOL    HW1 6609   1.567   0.488   3.923  1.8707  0.0452  2.0112
  493SOL    HW2 6610   1.604   0.377   4.019  0.1337 -3.8244 -1.5904
  494SOL     OW 6611   2.096  10.562   1.024 -0.3748  0.2341 -0.2970
  494SOL    HW1 6612   2.011  10.552   0.981 -0.8049  0.8840  0.3731
  494SOL    HW2 6613   2.089  10.511   1.104 -0.5952  1.3159  0.3841
  495SOL     OW 6614   2.913   4.424   8.359 -0.3841 -0.0575 -0.3275
  495SOL    HW1 6615   2.957   4.341   8.374  1.9328  0.9286 -1.4916
  495SOL    HW2 6616   2.910   4.433   8.264 -1.6647  0.6495 -0.2284
  496SOL     OW 6617   4.177   8.288   9.374 -0.0948 -0.2315 -0.1448
  496SOL    HW1 6618   4.218   8.280   9.460  1.0372 -1.0649 -0.7457
  496SOL    HW2 6619   4.162   8.382   9.363  0.5666 -0.0327  0.5936
  497SOL     OW 6620   8.154   9.956   6.526  0.3306  0.0165 -0.1152
  497SOL    HW1 6621   8.233   9.985   6.571  0.0108 -0.6437  0.8741
  497SOL    HW2 6622   8.135   9.869   6.563 -1.0511  0.3172 -0.0963
  498SOL     OW 6623   8.588   2.965   1.484  0.8846 -0.4378 -0.0678
  498SOL    HW1 6624   8.641   2.981   1.406  0.9529 -1.1222 -0.1579
  498SOL    HW2 6625   8.574   2.871   1.485 -0.2688 -0.2798 -0.0096
  499SOL     OW 6626   8.862   0.823   1.523 -0.0772  0.2527 -0.4919
  499SOL    HW1 6627   8.898   0.852   1.440 -0.4256  1.5950 -0.1863
  499SOL    HW2 6628   8.819   0.740   1.503 -1.7805  1.4877 -2.0557
  500SOL     OW 6629   1.172   3.844   0.108  0.4979  0.3896 -0.0646
  500SOL    HW1 6630   1.078   3.865   0.116  0.8755  2.5325 -0.8999
  500SOL    HW2 6631   1.180   3.755   0.144 -1.6490  0.6492  1.1485
  501SOL     OW 6632   3.428  10.538   7.512 -0.0685 -0.2890  0.1985
  501SOL    HW1 6633   3.390  10.450   7.515 -0.9320  0.1180  2.7048
  501SOL    HW2 6634   3.399  10.579   7.594 -1.0188  2.8951 -1.6474
  502SOL     OW 6635   4.170   4.939   0.157 -0.1808 -0.2402  0.3563
  502SOL    HW1 6636   4.076   4.953   0.142  0.1243  2.0511  0.3462
  502SOL    HW2 6637   4.183   4.846   0.139 -2.4744 -0.6353  0.4993
  503SOL     OW 6638   8.172   1.291   9.558  0.5607 -0.2829  0.2963
  503SOL    HW1 6639   8.206   1.379   9.575 -1.4972  0.2540  1.8342
  503SOL    HW2 6640   8.116   1.302   9.482  1.0152 -0.4609 -0.0679
  504SOL     OW 6641   3.868   0.072   5.963 -0.5509 -0.0835 -0.0567
  504SOL    HW1 6642   3.803   0.056   5.895  0.7180 -1.8928 -0.8629
  504SOL    HW2 6643   3.880  -0.013   6.006  1.0660  0.2878  0.2604
  505SOL     OW 6644   7.632   3.267   5.188  0.2505  0.1721  0.3614
  505SOL    HW1 6645   7.668   3.277   5.100  2.7467 -0.4072  1.2604
  505SOL    HW2 6646   7.550   3.315   5.186  0.9988  1.4479 -1.8543
  506SOL     OW 6647   2.913   7.008   5.191  0.1653 -0.3046 -0.5865
  506SOL    HW1 6648   2.993   6.987   5.240  0.4610  0.5442 -0.6939
  506SOL    HW2 6649   2.858   7.055   5.254  0.2126  0.0858 -0.8384
  507SOL     OW 6650   6.346   2.050   0.772 -0.3626 -0.0842  0.2847
  507SOL    HW1 6651   6.358   2.141   0.800 -0.2107  0.3085 -1.0456
  507SOL    HW2 6652   6.289   2.012   0.839 -1.2655  1.2760  0.3059
  508SOL     OW 6653   5.078   1.623  10.352  0.3346  0.2925 -0.1921
  508SOL    HW1 6654   4.992   1.585  10.365  0.5255  0.1251  0.5848
  508SOL    HW2 6655   5.063   1.718  10.352  0.0526  0.2489 -0.7692
  509SOL     OW 6656   5.772   4.681   0.345 -0.3201 -0.0419  0.1906
  509SOL    HW1 6657   5.815   4.633   0.274 -0.6632 -1.2428  0.7755
  509SOL    HW2 6658   5.771   4.619   0.419 -0.3954  1.0144  1.0956
  510SOL     OW 6659   4.731   6.223  10.210  0.2044  0.2307 -0.2522
  510SOL    HW1 6660   4.772   6.139  10.228 -0.8907 -0.2306  0.1568
  510SOL    HW2 6661   4.657   6.202  10.153 -1.2301  0.6607  1.4093
  511SOL     OW 6662   6.075   5.103   1.605 -0.3801 -0.1540  0.2816
  511SOL    HW1 6663   6.151   5.149   1.570 -0.1498 -0.5131  0.3063
  511SOL    HW2 6664   6.002   5.163   1.591  0.0579  0.5876  1.1189
  512SOL     OW 6665   5.758   2.770   2.676 -0.1202 -0.4412 -0.1365
  512SOL    HW1 6666   5.716   2.765   2.590 -0.4302 -3.5378  0.1635
  512SOL    HW2 6667   5.694   2.731   2.736  1.2003 -0.7337  1.0977
  513SOL     OW 6668   1.473   2.649   8.152 -0.0622 -0.6192  0.4686
  513SOL    HW1 6669   1.541   2.683   8.209  0.6421  0.0608 -0.7703
  513SOL    HW2 6670   1.392   2.660   8.202  0.5608 -0.1434  1.3800
  514SOL     OW 6671   8.557   1.660   6.993 -0.3146  0.1710  0.2204
  514SOL    HW1 6672   8.585   1.580   7.036  0.1515  0.5006  0.5402
  514SOL    HW2 6673   8.577   1.729   7.056  0.4432  0.6651 -0.5550
  515SOL     OW 6674   2.494   2.738   8.462 -0.2279 -0.3131  0.4449
  515SOL    HW1 6675   2.542   2.818   8.484 -2.4216  1.8628 -2.2999
  515SOL    HW2 6676   2.559   2.668   8.470  1.9103  1.8055  2.3052
  516SOL     OW 6677   1.727   7.810   0.236  0.6334  0.9060 -0.5175
  516SOL    HW1 6678   1.768   7.769   0.312 -1.3523 -1.4279 -0.6296
  516SOL    HW2 6679   1.776   7.776   0.161  1.6468  2.0572 -0.3980
  517SOL     OW 6680   1.992   3.912   2.112  0.1007  0.4095 -0.3245
  517SOL    HW1 6681   2.034   3.877   2.033 -1.0311  1.8502 -1.5967
  517SOL    HW2 6682   1.983   3.836   2.169  1.5920 -0.5262 -1.2910
  518SOL     OW 6683   9.267  11.298   6.650 -0.6480  0.5274  0.3172
  518SOL    HW1 6684   9.269  11.268   6.741 -1.1235 -1.9454 -0.4412
  518SOL    HW2 6685   9.360  11.302   6.625 -0.5548  0.2681  0.6145
  519SOL     OW 6686   4.817   2.317   1.835 -0.0179 -0.2278 -0.2216
  519SOL    HW1 6687   4.771   2.318   1.751 -2.1955 -1.4034  0.9247
  519SOL    HW2 6688   4.883   2.248   1.825 -1.4837 -1.6219 -0.3300
  520SOL     OW 6689  10.195   6.378   9.419 -0.7367 -0.3953  0.7182
  520SOL    HW1 6690  10.111   6.340   9.393 -0.4181 -1.2990  0.9976
  520SOL    HW2 6691  10.241   6.307   9.463  0.3572 -0.0424  0.1752
  521SOL     OW 6692   9.129   5.421   7.531 -0.1596 -0.2754  0.0615
  521SOL    HW1 6693   9.104   5.435   7.439  4.7492 -1.5736 -1.6431
  521SOL    HW2 6694   9.117   5.328   7.546  2.0735 -0.6740 -0.3730
  522SOL     OW 6695   9.472   2.976   8.762 -0.3302 -0.0145 -0.0166
  522SOL    HW1 6696   9.527   3.047   8.729  0.2069 -1.2265 -1.8375
  522SOL    HW2 6697   9.384   2.998   8.732 -0.5749  1.0221  1.3874
  523SOL     OW 6698   3.766   7.435   4.100  0.3893 -0.3619  0.0475
  523SOL    HW1 6699   3.730   7.376   4.033 -0.5855 -0.2852  0.5105
  523SOL    HW2 6700   3.833   7.382   4.144 -0.6140 -1.2071  0.5937
  524SOL     OW 6701   0.032   7.994   7.572 -0.3114 -0.7261  0.5083
  524SOL    HW1 6702  -0.003   7.906   7.564 -0.9928 -0.5702  1.6412
  524SOL    HW2 6703   0.046   8.023   7.481 -2.0477 -1.2254  0.0532
  525SOL     OW 6704   3.667   7.885   2.252  0.3226  0.5344  0.0342
  525SOL    HW1 6705   3.755   7.864   2.284  0.7349  0.2850 -1.2417
  525SOL    HW2 6706   3.612   7.879   2.330  1.3157 -0.0181  0.7150
  526SOL     OW 6707   7.698  10.402   4.671  0.1025  0.7410  0.4299
  526SOL    HW1 6708   7.736  10.383   4.757  1.1704  1.1520  0.0496
  526SOL    HW2 6709   7.770  10.391   4.609 -0.5320  0.9738 -0.3602
  527SOL     OW 6710   8.808   3.449  10.801  0.5225  0.0208  0.4611
  527SOL    HW1 6711   8.771   3.377  10.751  3.2188 -0.6101 -0.7068
  527SOL    HW2 6712   8.758   3.449  10.883 -1.9512 -0.8085 -0.9951
  528SOL     OW 6713   3.821   6.207   2.027  0.2546  0.0510 -0.3012
  528SOL    HW1 6714   3.759   6.184   2.096 -1.0022  0.2591 -1.3287
  528SOL    HW2 6715   3.855   6.292   2.052  0.2002 -0.1124  0.3306
  529SOL     OW 6716   4.224   5.798  10.295  0.7349 -0.5802  0.5163
  529SOL    HW1 6717   4.132   5.819  10.311  0.3642 -1.9324  0.2706
  529SOL    HW2 6718   4.268   5.883  10.287  0.2259  0.1848  4.6149
  530SOL     OW 6719   7.678   0.589   5.534  0.9456  0.2896 -0.5167
  530SOL    HW1 6720   7.722   0.505   5.548 -0.9826 -0.7400 -0.4204
  530SOL    HW2 6721   7.709   0.645   5.605  1.2878 -0.7429  0.1566
  531SOL     OW 6722   5.072   6.998   1.272 -0.2300 -0.1083 -0.5328
  531SOL    HW1 6723   5.024   7.059   1.328 -0.5756 -0.6963 -0.1820
  531SOL    HW2 6724   5.144   6.968   1.326 -0.0559 -0.0033 -0.7073
  532SOL     OW 6725   1.912   6.275   3.136 -0.2691  0.2997 -0.0216
  532SOL    HW1 6726   1.973   6.204   3.117 -0.2287 -0.3113  2.2543
  532SOL    HW2 6727   1.826   6.237   3.121 -0.2327 -0.1059  0.7859
  533SOL     OW 6728   1.893   8.703   1.773 -0.2260  0.2170 -0.3595
  533SOL    HW1 6729   1.889   8.783   1.722  0.3787  0.2382 -0.3717
  533SOL    HW2 6730   1.855   8.726   1.858 -0.3179  0.4381 -0.4618
  534SOL     OW 6731  10.134   6.811   1.610  0.3002 -0.3191 -0.1848
  534SOL    HW1 6732  10.109   6.904   1.613 -0.4385 -0.5087 -0.4394
  534SOL    HW2 6733  10.068   6.770   1.556  1.8838 -0.6215 -1.9381
  535SOL     OW 6734   4.483   8.920   3.502 -0.2677 -0.0910 -0.2280
  535SOL    HW1 6735   4.430   8.999   3.498 -0.3635 -0.0922  0.8030
  535SOL    HW2 6736   4.574   8.952   3.503 -0.2155 -0.1163 -2.6656
  536SOL     OW 6737   4.204   6.744   5.321 -0.4509 -0.4837  1.1419
  536SOL    HW1 6738   4.183   6.801   5.395  1.0718  0.4337  0.8724
  536SOL    HW2 6739   4.145   6.669   5.332 -3.3615  1.6449  0.8287
  537SOL     OW 6740   9.300   4.898   3.203  0.0675 -0.1182 -0.6471
  537SOL    HW1 6741   9.252   4.882   3.284 -0.4846  0.9576 -0.7597
  537SOL    HW2 6742   9.256   4.973   3.163  0.2768 -0.6986 -1.9875
  538SOL     OW 6743   8.706   5.788   4.699 -0.2411 -0.0821 -0.3483
  538SOL    HW1 6744   8.707   5.821   4.789  0.2764 -1.7911  0.2932
  538SOL    HW2 6745   8.796   5.757   4.684 -1.2593 -3.4466 -0.0258
  539SOL     OW 6746   2.418   5.227   8.628  0.2307 -0.0455  0.3817
  539SOL    HW1 6747   2.489   5.172   8.596  0.6641 -0.6367  2.2560
  539SOL    HW2 6748   2.340   5.171   8.626  0.4853 -0.4532  1.3971
  540SOL     OW 6749   7.387   6.921   4.853 -0.2906 -0.5180 -0.1104
  540SOL    HW1 6750   7.344   6.901   4.937  3.5686 -0.5910  1.9332
  540SOL    HW2 6751   7.392   6.837   4.808 -1.2810 -0.7004  0.1080
  541SOL     OW 6752   8.461   7.070   3.360 -0.0078  0.5510  0.4590
  541SOL    HW1 6753   8.438   7.163   3.355 -2.8973 -0.1225  0.5641
  541SOL    HW2 6754   8.396   7.026   3.306  1.3259 -1.4485  0.4237
  542SOL     OW 6755   8.916   7.367   7.433  0.1355 -0.6897 -0.6234
  542SOL    HW1 6756   8.966   7.449   7.426  0.5746 -0.9715 -0.8634
  542SOL    HW2 6757   8.946   7.315   7.358  0.9098 -1.6260  0.3216
  543SOL     OW 6758   4.580   8.723   9.358  0.1714 -0.1997  0.1306
  543SOL    HW1 6759   4.563   8.670   9.436 -1.4388  0.9879  0.6264
  543SOL    HW2 6760   4.509   8.787   9.357  0.7301  0.4274 -1.7780
  544SOL     OW 6761   2.002   2.685   3.409  0.2064  0.3232  0.1205
  544SOL    HW1 6762   2.083   2.660   3.454 -0.2281  0.5371  1.0192
  544SOL    HW2 6763   1.981   2.771   3.444  0.5089  1.0208 -1.3698
  545SOL     OW 6764  11.070   4.714   0.235 -0.4535  0.4572 -0.7655
  545SOL    HW1 6765  11.149   4.717   0.289 -0.5515 -1.1536 -0.5156
  545SOL    HW2 6766  11.104   4.714   0.145 -0.2820  2.7237 -0.7312
  546SOL     OW 6767   2.602  11.260   0.115  0.2179 -0.1661  0.0446
  546SOL    HW1 6768   2.694  11.286   0.103  0.2088 -0.1477  0.0134
  546SOL    HW2 6769   2.588  11.190   0.051  0.3822 -0.5873  0.4697
  547SOL     OW 6770   0.851   2.372   0.338  0.0135 -0.7486 -0.1125
  547SOL    HW1 6771   0.782   2.306   0.334  0.0498 -0.7886 -0.0768
  547SOL    HW2 6772   0.822   2.433   0.405 -0.3747 -0.3274 -0.6563
  548SOL     OW 6773   2.039   6.342   3.402  0.1568 -0.2908 -0.1803
  548SOL    HW1 6774   2.039   6.339   3.307 -0.6880 -0.0622 -0.1890
  548SOL    HW2 6775   2.103   6.275   3.428  0.3087 -0.4288 -0.8958
  549SOL     OW 6776   3.243   7.958   9.242 -0.2390 -0.6651 -0.4196
  549SOL    HW1 6777   3.334   7.939   9.222  0.0985 -0.8825  1.1985
  549SOL    HW2 6778   3.194   7.922   9.169  1.0175  0.0925 -1.6516
  550SOL     OW 6779   9.157  10.464   3.625  0.2097  0.4090 -0.3554
  550SOL    HW1 6780   9.182  10.551   3.594 -1.6270  1.1712  0.2341
  550SOL    HW2 6781   9.092  10.480   3.694  1.7830 -1.3548  1.6114
  551SOL     OW 6782  10.872   7.142   2.853 -0.1262 -0.1879  0.2409
  551SOL    HW1 6783  10.956   7.182   2.831 -0.4591  1.1170  1.3075
  551SOL    HW2 6784  10.807   7.210   2.835 -0.7324 -0.3466  1.7376
  552SOL     OW 6785   1.218  11.170   2.045  0.0199  0.0944  0.4412
  552SOL    HW1 6786   1.283  11.135   1.984  0.3178 -0.4835  1.0881
  552SOL    HW2 6787   1.256  11.253   2.075  0.2451 -0.0126  0.4521
  553SOL     OW 6788   8.029   8.801  10.884 -0.4095 -0.1236  0.0302
  553SOL    HW1 6789   7.974   8.853  10.825  0.5548 -0.0335 -0.8028
  553SOL    HW2 6790   8.063   8.865  10.947 -1.2493 -0.1812  0.5553
  554SOL     OW 6791   8.117   3.502   2.299 -0.1780  0.2742  0.3340
  554SOL    HW1 6792   8.123   3.469   2.389  1.3387  0.8672  0.4563
  554SOL    HW2 6793   8.207   3.522   2.274 -0.2619 -2.4091 -2.3047
  555SOL     OW 6794   1.623   2.979   1.261  0.5510  0.0878  0.1684
  555SOL    HW1 6795   1.584   3.044   1.203 -0.2857 -0.5103  0.0535
  555SOL    HW2 6796   1.716   3.001   1.262  0.2689  1.3401  0.2039
  556SOL     OW 6797   9.646   6.084   9.236  0.0099 -0.3323 -0.0866
  556SOL    HW1 6798   9.663   6.046   9.322 -0.1932 -0.0154  0.0968
  556SOL    HW2 6799   9.562   6.129   9.246 -0.1329 -0.4951 -0.5171
  557SOL     OW 6800   1.097   8.963   4.648 -0.6466 -0.0527  0.7519
  557SOL    HW1 6801   1.123   8.878   4.684 -0.3485 -0.3124 -0.0583
  557SOL    HW2 6802   1.165   8.983   4.583 -0.5161  0.9763  1.1862
  558SOL     OW 6803   8.612   0.263   6.100  0.0006  0.3273 -0.3975
  558SOL    HW1 6804   8.540   0.238   6.158 -0.1317  0.5080 -0.4839
  558SOL    HW2 6805   8.606   0.202   6.027  0.2143  0.0491 -0.1846
  559SOL     OW 6806   2.267   9.791   4.765  0.1739  0.1037 -0.5926
  559SOL    HW1 6807   2.283   9.817   4.674 -0.3859  1.1042 -0.4108
  559SOL    HW2 6808   2.244   9.872   4.810  0.6963 -0.3445  0.5052
  560SOL     OW 6809   4.943   3.398   3.896  0.2788 -0.2157 -0.3762
  560SOL    HW1 6810   4.984   3.367   3.977  0.6564 -0.2133 -0.5670
  560SOL    HW2 6811   4.969   3.335   3.830 -1.0256 -0.8843 -0.2515
  561SOL     OW 6812   1.490  10.777   4.191  0.2671  0.1101  0.0984
  561SOL    HW1 6813   1.479  10.730   4.108  0.3948 -1.7378  1.1219
  561SOL    HW2 6814   1.473  10.869   4.168 -0.5217 -0.4834 -1.8036
  562SOL     OW 6815   2.785   3.004   7.445  0.1877 -0.1417  0.4456
  562SOL    HW1 6816   2.747   3.078   7.492  0.3521 -1.6188  3.0193
  562SOL    HW2 6817   2.762   2.928   7.498 -1.5854 -2.2100 -3.0841
  563SOL     OW 6818   3.505   4.370   4.647 -0.1419 -0.0753 -0.2685
  563SOL    HW1 6819   3.538   4.409   4.728  1.5594 -2.7342  0.3787
  563SOL    HW2 6820   3.413   4.353   4.664 -0.4961  1.9927  0.0446
  564SOL     OW 6821   8.434   8.947   3.785 -0.2911 -0.4315 -0.6721
  564SOL    HW1 6822   8.345   8.919   3.767 -0.1704  0.4735 -2.8559
  564SOL    HW2 6823   8.485   8.915   3.710  1.0768 -0.3093  0.1831
  565SOL     OW 6824   8.749  11.206   7.829  0.2629 -0.4950 -0.3133
  565SOL    HW1 6825   8.743  11.201   7.925 -1.2597  0.3200 -0.3499
  565SOL    HW2 6826   8.828  11.257   7.812 -1.3807  2.4700  0.5989
  566SOL     OW 6827   2.843  10.728   4.914 -0.2160 -0.3370 -0.0900
  566SOL    HW1 6828   2.780  10.660   4.888 -0.7962  0.0583  0.2913
  566SOL    HW2 6829   2.839  10.729   5.009  0.2707 -0.2122 -0.0713
  567SOL     OW 6830   0.662   6.832   8.588 -0.5530 -0.4157  0.1323
  567SOL    HW1 6831   0.591   6.773   8.614 -1.0849  1.0056  2.0536
  567SOL    HW2 6832   0.738   6.802   8.637 -0.8063  0.4012  1.0559
  568SOL     OW 6833   3.461   9.432  11.036 -1.1208 -0.7619  0.5655
  568SOL    HW1 6834   3.420   9.510  11.073  0.7023  0.6002 -0.1910
  568SOL    HW2 6835   3.420   9.421  10.950 -2.3804 -1.4814  1.2455
  569SOL     OW 6836   4.275   7.975   1.815 -0.4353  0.2697  0.0076
  569SOL    HW1 6837   4.358   7.985   1.770 -0.6302  2.2953  0.0572
  569SOL    HW2 6838   4.296   7.924   1.893  0.4874 -0.4911 -0.7297
  570SOL     OW 6839   1.982  10.184   8.286 -0.0873  0.2086  0.0875
  570SOL    HW1 6840   2.033  10.135   8.351 -2.1010  1.2963  2.5526
  570SOL    HW2 6841   1.910  10.125   8.263  1.0687 -0.5134 -1.8815
  571SOL     OW 6842   9.741   4.666   8.331 -0.5115  0.0369  0.1718
  571SOL    HW1 6843   9.685   4.743   8.322 -1.4202 -0.8955 -2.5545
  571SOL    HW2 6844   9.821   4.700   8.371 -0.5306  2.5825 -1.7986
  572SOL     OW 6845   5.101   2.944   8.809  0.1717 -0.2044 -0.4329
  572SOL    HW1 6846   5.091   2.954   8.714 -0.7502 -2.8363 -0.6453
  572SOL    HW2 6847   5.012   2.941   8.843  0.4833 -0.2580  0.4032
  573SOL     OW 6848   5.189   1.453  11.122 -0.4318  0.2484  0.3930
  573SOL    HW1 6849   5.143   1.482  11.201  0.0383  1.3913  0.2566
  573SOL    HW2 6850   5.224   1.367  11.145  0.8564  1.1485  1.9084
  574SOL     OW 6851   3.884   0.343   6.577  0.1549 -0.5837 -0.4456
  574SOL    HW1 6852   3.898   0.309   6.665 -1.8257  1.7110  0.8364
  574SOL    HW2 6853   3.970   0.375   6.549  0.8265 -1.4632  0.6030
  575SOL     OW 6854   4.429   5.625   7.656 -0.5698 -0.4214  0.1873
  575SOL    HW1 6855   4.369   5.663   7.720 -0.3759 -0.7577  0.5751
  575SOL    HW2 6856   4.482   5.563   7.707 -0.3918 -0.6669 -0.2933
  576SOL     OW 6857   9.685   2.929   3.378 -0.5147 -0.0536  0.0590
  576SOL    HW1 6858   9.704   3.011   3.423 -0.2945  0.5706 -1.1653
  576SOL    HW2 6859   9.723   2.862   3.435  0.3273  0.7703  0.4825
  577SOL     OW 6860   5.161   0.196   8.308 -0.3106  0.2231  0.5202
  577SOL    HW1 6861   5.151   0.227   8.398 -0.1078 -0.4901  0.7936
  577SOL    HW2 6862   5.091   0.240   8.260 -1.1588 -0.2737  1.2584
  578SOL     OW 6863   6.061   9.360   2.020  0.1285  0.2298 -0.0451
  578SOL    HW1 6864   6.130   9.402   2.071  0.2239  2.0940 -1.6402
  578SOL    HW2 6865   5.980   9.380   2.067  0.3536  0.7992  0.1003
  579SOL     OW 6866   9.710   8.246   3.258 -0.3279  0.3340 -0.0838
  579SOL    HW1 6867   9.701   8.281   3.169 -1.1118 -0.7369 -0.4203
  579SOL    HW2 6868   9.650   8.299   3.311  0.3891  1.1980 -0.1185
  580SOL     OW 6869   8.641   6.588   1.043 -0.0971 -0.7212  0.2308
  580SOL    HW1 6870   8.581   6.663   1.039 -1.9321 -1.9910  2.3918
  580SOL    HW2 6871   8.719   6.622   1.088 -0.9514 -0.1049  1.2676
  581SOL     OW 6872  10.373  10.314   2.003  0.0698 -0.3660 -0.0722
  581SOL    HW1 6873  10.367  10.369   2.081 -0.7936 -0.3932 -0.1210
  581SOL    HW2 6874  10.300  10.342   1.948  1.3514  0.4909 -1.4061
  582SOL     OW 6875  10.707   7.790   8.302 -0.3386  0.0650 -0.5405
  582SOL    HW1 6876  10.635   7.728   8.301 -1.7860  1.7031  0.3622
  582SOL    HW2 6877  10.680   7.860   8.242 -0.8820  2.1947  2.1157
  583SOL     OW 6878   6.864   3.425   7.167 -0.6354  0.7337  0.0376
  583SOL    HW1 6879   6.928   3.490   7.197  0.9975 -1.2959  1.1149
  583SOL    HW2 6880   6.867   3.356   7.233 -2.8810 -0.1163 -0.6847
  584SOL     OW 6881   4.059   4.831   6.084 -0.5154 -0.3148  0.6460
  584SOL    HW1 6882   4.117   4.772   6.035  1.6726  1.6772  0.7870
  584SOL    HW2 6883   4.017   4.884   6.016 -0.9649 -0.6588  0.6516
  585SOL     OW 6884   7.648   5.258   0.808 -0.3007 -0.2994  0.1962
  585SOL    HW1 6885   7.735   5.296   0.795  0.0727 -0.7162  1.3795
  585SOL    HW2 6886   7.627   5.217   0.724  0.7044 -0.2970 -0.0622
  586SOL     OW 6887   3.044   3.688   5.724 -0.4705 -0.6170  0.2489
  586SOL    HW1 6888   3.137   3.664   5.726 -0.2209  0.3862  1.2601
  586SOL    HW2 6889   3.006   3.645   5.800 -0.8219 -0.9557 -0.1159
  587SOL     OW 6890   0.861   1.305  11.223  0.3146  0.3713  0.5121
  587SOL    HW1 6891   0.771   1.273  11.218 -0.1193  1.5480  0.6498
  587SOL    HW2 6892   0.871   1.360  11.145  0.5174  1.2389  1.1406
  588SOL     OW 6893   0.724   6.045   0.454  0.5919  0.1683  0.2810
  588SOL    HW1 6894   0.806   6.029   0.408  0.6675 -0.6508  0.6945
  588SOL    HW2 6895   0.688   5.958   0.469  0.2233  0.4692  1.1333
  589SOL     OW 6896   8.121   8.179   4.807  0.0752 -0.8314  0.1716
  589SOL    HW1 6897   8.140   8.128   4.728  0.3306 -0.9559  0.3155
  589SOL    HW2 6898   8.035   8.217   4.790  0.8697  0.5268 -0.8839
  590SOL     OW 6899   5.794  11.051   1.137 -0.4194  0.0806 -0.5959
  590SOL    HW1 6900   5.735  11.024   1.067 -1.2619  2.6653 -0.9264
  590SOL    HW2 6901   5.746  11.031   1.218 -1.3681  1.2989 -0.8470
  591SOL     OW 6902   3.200   1.845   5.765 -0.6742  0.6892 -0.0911
  591SOL    HW1 6903   3.184   1.847   5.859 -1.0493  2.2402 -0.1779
  591SOL    HW2 6904   3.136   1.783   5.730  1.4444 -2.2558  1.0181
  592SOL     OW 6905   7.532   7.486   5.984 -0.3174  0.0944  0.1286
  592SOL    HW1 6906   7.572   7.418   6.039  2.1676  1.3609 -0.0187
  592SOL    HW2 6907   7.573   7.474   5.898 -3.6399 -1.4116 -1.3558
  593SOL     OW 6908   0.797   8.256   5.600 -0.0284 -0.8947  0.1670
  593SOL    HW1 6909   0.851   8.239   5.522 -1.3324 -0.8664 -0.7654
  593SOL    HW2 6910   0.857   8.242   5.674  0.7342 -2.8542 -0.7743
  594SOL     OW 6911   9.975   8.797  11.249  0.3427 -0.0243 -0.4364
  594SOL    HW1 6912   9.986   8.891  11.233 -1.2470 -0.3349 -3.7166
  594SOL    HW2 6913  10.048   8.756  11.202  0.4937 -0.4668  0.1886
  595SOL     OW 6914   5.880   0.000   5.833 -0.1309 -0.1948  0.6901
  595SOL    HW1 6915   5.919   0.068   5.779  4.4014 -2.6105  0.7281
  595SOL    HW2 6916   5.889  -0.080   5.782 -1.8484 -1.4655  2.2850
  596SOL     OW 6917   1.297   4.335   8.158 -0.3355  0.1927  0.0329
  596SOL    HW1 6918   1.267   4.288   8.079  1.6459 -0.8764 -0.1069
  596SOL    HW2 6919   1.264   4.282   8.231 -2.3295  1.2814 -0.0398
  597SOL     OW 6920   9.924   4.229  10.827 -0.0465 -0.0740 -0.2500
  597SOL    HW1 6921   9.959   4.293  10.765 -0.4107  0.0502 -0.3271
  597SOL    HW2 6922   9.890   4.282  10.899 -0.7225 -0.1571 -0.5031
  598SOL     OW 6923   9.563  10.003   5.766  0.1060  0.2543 -0.8425
  598SOL    HW1 6924   9.522   9.952   5.836  1.0415  0.6868  0.0496
  598SOL    HW2 6925   9.498  10.069   5.743  0.2539  0.8918  0.5051
  599SOL     OW 6926   1.494   4.908  11.096 -0.6868 -0.4813 -0.1034
  599SOL    HW1 6927   1.574   4.867  11.131 -0.2629  0.0745 -0.4060
  599SOL    HW2 6928   1.503   5.000  11.119  0.2308  0.1397 -2.8095
  600SOL     OW 6929   4.697   4.810  10.152 -0.2720  0.6308 -0.1206
  600SOL    HW1 6930   4.661   4.765  10.076 -0.8056  1.7312 -0.5369
  600SOL    HW2 6931   4.765   4.752  10.184 -1.7535 -1.0285  0.0923
  601SOL     OW 6932   7.089   6.730   2.776  0.1459 -0.1561 -0.0620
  601SOL    HW1 6933   7.021   6.665   2.760 -1.1052  0.4788  2.3287
  601SOL    HW2 6934   7.170   6.680   2.782  0.0300 -0.8550 -3.6119
  602SOL     OW 6935   1.293   5.001   6.305  0.1713 -0.3728  0.7263
  602SOL    HW1 6936   1.236   4.932   6.271 -1.8457  0.8375  1.5651
  602SOL    HW2 6937   1.343   4.959   6.375 -1.1225 -0.9614  1.3007
  603SOL     OW 6938  11.066   5.086   9.843 -0.0573  0.3886  0.3546
  603SOL    HW1 6939  11.001   5.020   9.819 -0.6364  1.9784 -2.7656
  603SOL    HW2 6940  11.022   5.142   9.907 -0.7383 -0.2761  0.4676
  604SOL     OW 6941   0.102   5.727   5.533  0.3444 -0.0068 -0.2569
  604SOL    HW1 6942   0.028   5.751   5.588  0.8826  0.2324  0.3720
  604SOL    HW2 6943   0.140   5.811   5.505 -0.8630 -0.0987 -2.3020
  605SOL     OW 6944   3.146   0.472   0.922 -0.2748 -0.6744  0.3034
  605SOL    HW1 6945   3.055   0.477   0.951  0.1395  2.0044  1.3434
  605SOL    HW2 6946   3.153   0.537   0.852  0.9732 -0.3523  0.7060
  606SOL     OW 6947   5.748   0.955   4.209 -0.3626  0.1747 -0.2738
  606SOL    HW1 6948   5.747   0.944   4.114  0.8752  0.9920 -0.3788
  606SOL    HW2 6949   5.702   1.037   4.224  0.9812  0.9377 -0.2889
  607SOL     OW 6950   4.633   5.061   5.279 -0.1381 -0.6962 -0.9778
  607SOL    HW1 6951   4.585   5.050   5.197 -0.0569 -1.4264 -0.9289
  607SOL    HW2 6952   4.656   4.972   5.306  0.7725 -0.3885 -0.7165
  608SOL     OW 6953  10.504   1.532   5.727  0.0953 -0.3978  0.5345
  608SOL    HW1 6954  10.513   1.488   5.812  0.4986  1.5195  1.4945
  608SOL    HW2 6955  10.589   1.572   5.712 -0.6284  1.0460  0.2360
  609SOL     OW 6956   3.826  10.348   2.189  0.6191  0.1862  0.1427
  609SOL    HW1 6957   3.768  10.400   2.133 -0.2584 -1.0280 -0.0851
  609SOL    HW2 6958   3.909  10.396   2.189  0.0524  1.1775 -0.6840
  610SOL     OW 6959   5.128   3.268   3.757  0.0958 -0.0094 -0.1240
  610SOL    HW1 6960   5.223   3.268   3.744  0.1255 -0.5723  0.0783
  610SOL    HW2 6961   5.092   3.297   3.673  0.4499  0.3139 -0.1652
  611SOL     OW 6962   0.967   4.402   3.600  0.5024 -0.3416 -0.2253
  611SOL    HW1 6963   0.920   4.475   3.641  0.0322 -0.9059  0.2480
  611SOL    HW2 6964   1.008   4.441   3.523 -0.2920  0.2862 -0.3491
  612SOL     OW 6965   7.132   4.948   6.295 -0.4319  0.4712  0.0082
  612SOL    HW1 6966   7.046   4.905   6.295  0.0075 -0.4243 -1.0195
  612SOL    HW2 6967   7.112   5.041   6.289 -1.3075  0.1998 -1.7398
  613SOL     OW 6968   1.753   2.242   4.461  0.0324 -0.4410 -0.5342
  613SOL    HW1 6969   1.769   2.262   4.554 -1.1432 -1.1203 -0.1716
  613SOL    HW2 6970   1.804   2.308   4.414 -2.5613  2.5519  0.6298
  614SOL     OW 6971  11.093   8.640   0.278 -0.0081  0.0447  0.0186
  614SOL    HW1 6972  11.022   8.704   0.268  0.9592  1.1713  0.2443
  614SOL    HW2 6973  11.162   8.671   0.219  0.9832 -0.0623  1.1081
  615SOL     OW 6974   3.630  11.147  10.127  0.2417  0.2006 -0.0892
  615SOL    HW1 6975   3.718  11.169  10.160 -0.3764  2.3276  0.2378
  615SOL    HW2 6976   3.619  11.205  10.052 -0.9827  0.0970  0.0154
  616SOL     OW 6977   7.723   4.965   9.938  0.2066 -0.8916  0.0799
  616SOL    HW1 6978   7.677   4.900   9.885 -1.5680  0.3903  0.0084
  616SOL    HW2 6979   7.689   5.049   9.907  2.1592  0.0610  0.4602
  617SOL     OW 6980   6.180   1.321   6.301 -1.1545  0.3171  0.3572
  617SOL    HW1 6981   6.149   1.407   6.328 -1.7243  0.0760  0.4826
  617SOL    HW2 6982   6.207   1.332   6.209 -1.6785  0.5121  0.2275
  618SOL     OW 6983   2.796  10.541   3.003 -0.4630  0.2383 -0.1264
  618SOL    HW1 6984   2.842  10.600   3.062 -1.0995  1.1786 -0.5624
  618SOL    HW2 6985   2.717  10.588   2.978 -0.9583 -0.7796 -0.5117
  619SOL     OW 6986   1.088   9.096   5.543  0.5173 -0.5372 -0.4548
  619SOL    HW1 6987   1.029   9.151   5.491  1.8955 -0.2249 -1.6941
  619SOL    HW2 6988   1.041   9.013   5.551 -1.0431  0.3832  0.4112
  620SOL     OW 6989  11.093   5.047   1.190 -0.1821  0.3911 -0.3002
  620SOL    HW1 6990  11.047   4.975   1.147 -1.0071  0.5089  0.3709
  620SOL    HW2 6991  11.028   5.085   1.249  0.9395  0.2412  1.0321
  621SOL     OW 6992   5.345   4.094   4.141 -0.4642  0.0167 -0.3549
  621SOL    HW1 6993   5.414   4.048   4.094 -0.9601  0.0470 -1.1254
  621SOL    HW2 6994   5.310   4.157   4.077 -0.5465  0.6795  0.3293
  622SOL     OW 6995   0.796   2.599   0.519 -0.0198  0.2339  0.1438
  622SOL    HW1 6996   0.703   2.597   0.495 -0.3280  1.5646  1.1739
  622SOL    HW2 6997   0.839   2.637   0.443 -0.4340  0.5017  0.0413
  623SOL     OW 6998  11.259   6.084   6.482  0.1839  0.0949  0.0906
  623SOL    HW1 6999  11.324   6.031   6.435 -0.3783  0.2915 -0.9107
  623SOL    HW2 7000  11.247   6.038   6.565  2.1241  0.4445  0.5722
  624SOL     OW 7001   2.555   9.429   9.221 -0.4043  0.0773  0.0726
  624SOL    HW1 7002   2.599   9.484   9.286 -3.5918  3.3862 -0.4900
  624SOL    HW2 7003   2.606   9.442   9.141  0.9250 -0.6097  0.7754
  625SOL     OW 7004   7.330   3.146   7.294  0.2756 -0.3500  0.2087
  625SOL    HW1 7005   7.402   3.195   7.256 -0.0426  0.8479  1.1519
  625SOL    HW2 7006   7.369   3.062   7.320  1.3031  0.2730  0.6766
  626SOL     OW 7007   0.230   9.219   5.209 -0.6993 -0.4093  0.5012
  626SOL    HW1 7008   0.252   9.310   5.189 -1.5115 -0.0982  0.9884
  626SOL    HW2 7009   0.308   9.170   5.186  0.0875  0.5348  1.0933
  627SOL     OW 7010   6.448  11.041   7.339 -0.1235  0.1110 -0.5382
  627SOL    HW1 7011   6.386  11.069   7.406  1.1097 -0.0324  0.6796
  627SOL    HW2 7012   6.491  11.122   7.311 -1.0154  0.2503 -1.5792
  628SOL     OW 7013   8.284   3.451   2.851 -0.1701 -0.3085  0.1264
  628SOL    HW1 7014   8.213   3.445   2.914 -0.0352 -0.1100  0.2978
  628SOL    HW2 7015   8.257   3.520   2.790  0.1177  0.1364  0.5017
  629SOL     OW 7016   7.224   1.732   3.506 -0.2079  0.1052  0.6736
  629SOL    HW1 7017   7.152   1.697   3.455  0.5353 -0.2844 -0.1210
  629SOL    HW2 7018   7.288   1.762   3.441  1.3237 -1.6116  1.3477
  630SOL     OW 7019   3.340   9.134   1.218 -0.3872 -0.3895  0.3099
  630SOL    HW1 7020   3.245   9.137   1.227 -0.1390  2.0146  2.5903
  630SOL    HW2 7021   3.360   9.199   1.152 -0.2869 -0.5544  0.1784
  631SOL     OW 7022   8.252   8.564   0.110  0.1483  0.2084  0.3881
  631SOL    HW1 7023   8.218   8.577   0.199 -0.4385 -1.8280  0.4831
  631SOL    HW2 7024   8.319   8.496   0.120  1.3935  1.2707 -0.4588
  632SOL     OW 7025   8.465   8.587   0.636 -0.6660  0.2405 -0.4117
  632SOL    HW1 7026   8.498   8.665   0.592 -0.9814  0.6888  0.1494
  632SOL    HW2 7027   8.372   8.605   0.650 -0.5179  0.2065  0.6659
  633SOL     OW 7028  10.903   1.046   9.607  0.2071 -0.2434  0.1132
  633SOL    HW1 7029  10.902   0.952   9.589  1.5435 -0.6094  1.7821
  633SOL    HW2 7030  10.835   1.058   9.674  0.7112 -0.1749  0.6122
  634SOL     OW 7031   5.816   5.220   5.874  0.1474 -0.1198  0.3793
  634SOL    HW1 7032   5.876   5.247   5.944  2.0068 -0.9391 -0.8657
  634SOL    HW2 7033   5.784   5.302   5.837  1.7433  0.3586  0.0255
  635SOL     OW 7034   5.914  10.991  10.175 -0.6241 -0.3071  0.6228
  635SOL    HW1 7035   5.921  11.079  10.211 -0.8360 -0.5733  1.3292
  635SOL    HW2 7036   5.904  10.935  10.252  0.6464 -1.0675  0.2483
  636SOL     OW 7037   2.101   2.850   4.658 -0.4056 -0.0583 -0.1948
  636SOL    HW1 7038   2.144   2.918   4.710  0.7219 -2.0379  1.5434
  636SOL    HW2 7039   2.173   2.803   4.616 -1.0339 -1.3336  0.1086
  637SOL     OW 7040   7.584   9.707  10.693 -0.1073  0.7615  0.5885
  637SOL    HW1 7041   7.661   9.762  10.679  0.8982 -0.7051  0.2573
  637SOL    HW2 7042   7.587   9.642  10.623 -1.8741  0.9216  0.3365
  638SOL     OW 7043   4.722   3.926   8.823  0.2526  0.0040  0.2195
  638SOL    HW1 7044   4.658   3.972   8.768  0.0747 -1.1285 -0.5381
  638SOL    HW2 7045   4.775   3.996   8.861 -0.5844  0.8862 -0.1968
  639SOL     OW 7046   2.621   6.904   5.222 -0.7574  0.0342  0.4922
  639SOL    HW1 7047   2.694   6.868   5.273  0.5130  1.2367 -0.4523
  639SOL    HW2 7048   2.558   6.932   5.288  0.3742  0.5095  1.4013
  640SOL     OW 7049   6.178   4.051   7.091  0.1800 -0.5891  0.1310
  640SOL    HW1 7050   6.265   4.018   7.068  0.2265  0.2836 -0.9352
  640SOL    HW2 7051   6.118   4.001   7.036  0.1150 -0.1656 -0.1810
  641SOL     OW 7052   5.565   5.189   1.283  0.7609  0.2397  0.0762
  641SOL    HW1 7053   5.474   5.198   1.255  0.7349  1.4082  0.5242
  641SOL    HW2 7054   5.574   5.251   1.355  2.4153  1.4485 -1.1487
  642SOL     OW 7055   0.392   2.915   8.704  0.2487 -0.0184 -0.4992
  642SOL    HW1 7056   0.341   2.918   8.623  1.8721 -0.1725 -1.5420
  642SOL    HW2 7057   0.436   3.000   8.708 -2.0332  1.1459  1.7248
  643SOL     OW 7058   1.655   8.095  10.999  0.2230 -0.6870 -0.0366
  643SOL    HW1 7059   1.644   8.156  10.926 -0.0455  1.0431  1.4044
  643SOL    HW2 7060   1.746   8.066  10.993 -0.2229 -1.7607 -1.9397
  644SOL     OW 7061   9.076   7.327   6.379 -1.2732  0.1002  0.1140
  644SOL    HW1 7062   9.078   7.357   6.289  0.1373  1.1493  0.4721
  644SOL    HW2 7063   9.152   7.269   6.387  0.5106  2.5579  1.4575
  645SOL     OW 7064  10.387   9.648   2.034 -0.6463  0.1567  0.3874
  645SOL    HW1 7065  10.336   9.614   2.107  1.3256  0.4955  1.9807
  645SOL    HW2 7066  10.442   9.575   2.007  0.4206  0.7635  0.9032
  646SOL     OW 7067   3.149   3.818   5.233  0.0562 -0.4580 -0.1376
  646SOL    HW1 7068   3.218   3.812   5.167  0.1246  1.3982 -0.2363
  646SOL    HW2 7069   3.119   3.908   5.230 -0.0121 -0.3579  2.2951
  647SOL     OW 7070   3.425   7.603   1.437  0.3227  0.0080  0.4826
  647SOL    HW1 7071   3.399   7.511   1.436  1.9504 -0.4588  0.8786
  647SOL    HW2 7072   3.519   7.602   1.419  0.5381  1.5232  1.4344
  648SOL     OW 7073   2.284   6.634   1.849 -0.2908  0.5769 -0.3578
  648SOL    HW1 7074   2.235   6.687   1.786 -0.8786  1.3551  0.7348
  648SOL    HW2 7075   2.373   6.669   1.846 -0.3970  0.8347 -0.5127
  649SOL     OW 7076   4.362   4.305   6.322 -0.1765  0.1057  0.1018
  649SOL    HW1 7077   4.369   4.232   6.260  0.7956 -0.3267  0.7074
  649SOL    HW2 7078   4.449   4.312   6.361 -0.4802  1.0918  0.6125
  650SOL     OW 7079   7.630   1.567   6.127 -0.1353 -0.5324  0.1317
  650SOL    HW1 7080   7.656   1.486   6.171  1.1167 -0.2414 -0.0704
  650SOL    HW2 7081   7.583   1.537   6.049  0.0486 -1.0680  0.2226
  651SOL     OW 7082   6.546   5.119   4.953 -0.0817  0.5271  0.4900
  651SOL    HW1 7083   6.513   5.186   5.013  0.9182 -0.1145  1.7948
  651SOL    HW2 7084   6.473   5.058   4.943 -1.3059  2.2541 -1.4195
  652SOL     OW 7085   1.065   7.565  11.091 -0.5760  0.1087  0.0152
  652SOL    HW1 7086   1.120   7.643  11.105  0.7553 -1.0516  1.3412
  652SOL    HW2 7087   1.025   7.580  11.005  1.2730  1.2975 -0.6726
  653SOL     OW 7088   0.276   1.252   8.414  0.5530 -0.0792 -0.1290
  653SOL    HW1 7089   0.315   1.268   8.500  2.2038 -2.4774 -0.3515
  653SOL    HW2 7090   0.273   1.338   8.372 -0.4431  1.1468  2.3726
  654SOL     OW 7091   8.667   7.218   0.615 -0.1556  0.1808  0.1992
  654SOL    HW1 7092   8.672   7.155   0.542  0.9872  1.0389 -0.4877
  654SOL    HW2 7093   8.756   7.219   0.651  0.0807  2.0613 -0.3806
  655SOL     OW 7094   6.299   9.679   4.796  0.3995 -0.1589 -0.0949
  655SOL    HW1 7095   6.292   9.586   4.816  0.5755 -0.0708  0.3868
  655SOL    HW2 7096   6.391   9.692   4.775  0.3650 -0.1073 -0.2099
  656SOL     OW 7097   5.451   4.118   9.793 -0.5477  0.1638 -0.7136
  656SOL    HW1 7098   5.460   4.192   9.734  0.1808 -0.3834 -1.3035
  656SOL    HW2 7099   5.536   4.112   9.837 -0.8522  0.1358 -0.1303
  657SOL     OW 7100   8.947   8.253   5.431 -0.0894  0.8475  0.4147
  657SOL    HW1 7101   9.018   8.190   5.422  0.3164  1.3041  0.3657
  657SOL    HW2 7102   8.941   8.293   5.344  0.2220  1.4662  0.6752
  658SOL     OW 7103   7.422   3.919   5.218 -0.2493 -0.2263  0.1516
  658SOL    HW1 7104   7.402   3.853   5.152 -0.8692  0.6163 -0.5230
  658SOL    HW2 7105   7.344   3.975   5.220 -0.0064  0.0865  1.1969
  659SOL     OW 7106   2.371   5.647   4.197  0.4666  0.1120  0.1298
  659SOL    HW1 7107   2.376   5.739   4.221  3.1274 -0.3640  1.5444
  659SOL    HW2 7108   2.345   5.602   4.278 -0.2322 -0.4486 -0.3972
  660SOL     OW 7109   1.555   2.537  10.637  0.2902 -0.4361 -0.2525
  660SOL    HW1 7110   1.462   2.521  10.652 -0.2027  0.7299 -1.9791
  660SOL    HW2 7111   1.580   2.473  10.571  0.2924  0.4221 -1.0824
  661SOL     OW 7112  10.996   3.387   2.854 -0.0867  0.2514  0.6031
  661SOL    HW1 7113  10.916   3.346   2.886 -0.2659 -0.1374 -0.3192
  661SOL    HW2 7114  11.006   3.466   2.907 -1.8698  1.0741 -0.2741
  662SOL     OW 7115   1.873   9.255   9.948  0.3622 -0.3135 -0.3447
  662SOL    HW1 7116   1.890   9.301   9.866  0.8752  2.3158  1.1626
  662SOL    HW2 7117   1.798   9.301   9.986  0.5139 -1.0988  0.9462
  663SOL     OW 7118   4.571   0.063  10.092  0.4346  0.2641 -0.2659
  663SOL    HW1 7119   4.662   0.051  10.063 -0.3872 -1.0956 -2.3559
  663SOL    HW2 7120   4.536   0.129  10.032  0.2815  1.4809  1.1277
  664SOL     OW 7121   7.067   0.976   8.682 -0.1602  0.0446  0.2957
  664SOL    HW1 7122   7.139   0.976   8.619 -0.1250  0.3428  0.3360
  664SOL    HW2 7123   7.106   1.005   8.764 -0.4107  0.6080  0.2180
  665SOL     OW 7124   8.207   0.446   8.826  0.1263  0.6053  0.4905
  665SOL    HW1 7125   8.115   0.462   8.846  0.2401  1.1008  0.6172
  665SOL    HW2 7126   8.216   0.351   8.829 -0.9991  0.3583 -2.2414
  666SOL     OW 7127   6.722  10.063   1.709 -0.0477  0.2355  0.3140
  666SOL    HW1 7128   6.664  10.133   1.680  2.4649  1.8018 -1.0822
  666SOL    HW2 7129   6.734  10.008   1.632  0.6613  0.1478  0.4878
  667SOL     OW 7130   8.159  10.934   3.400 -0.1290 -0.2792 -0.2985
  667SOL    HW1 7131   8.172  10.845   3.368  1.2355 -0.0759 -0.3181
  667SOL    HW2 7132   8.171  10.989   3.323  0.2264  0.0064 -0.0399
  668SOL     OW 7133   2.806   5.065   9.342 -1.1779 -0.3038  0.1213
  668SOL    HW1 7134   2.816   4.977   9.307  2.4519 -0.4410  1.3140
  668SOL    HW2 7135   2.781   5.118   9.267  0.8054 -1.6305 -1.5329
  669SOL     OW 7136   0.644   2.610   1.195 -0.2621 -0.0720 -0.2115
  669SOL    HW1 7137   0.553   2.637   1.205 -0.2975 -0.8638  1.8367
  669SOL    HW2 7138   0.641   2.535   1.136 -0.9391 -0.1197 -0.1197
  670SOL     OW 7139   4.954   6.642   1.616  0.0123  0.0497 -0.2399
  670SOL    HW1 7140   5.037   6.667   1.577  0.6653 -2.7877 -0.8278
  670SOL    HW2 7141   4.942   6.550   1.591 -2.1686 -0.2838  1.7486
  671SOL     OW 7142   6.615   5.899   0.300 -0.0528  0.5991 -0.2927
  671SOL    HW1 7143   6.597   5.993   0.292  1.6517  1.0037  0.6180
  671SOL    HW2 7144   6.605   5.880   0.393  2.0043  0.3670 -0.1142
  672SOL     OW 7145  10.088   6.432   2.011  0.0107  0.5295  0.2983
  672SOL    HW1 7146  10.007   6.419   2.060 -0.0117 -0.0334  0.1116
  672SOL    HW2 7147  10.144   6.481   2.071  0.5986 -1.5851  1.5456
  673SOL     OW 7148   3.278   6.850  10.083 -0.2691  0.3929  0.1618
  673SOL    HW1 7149   3.300   6.770  10.037  0.5283  0.8528 -0.2672
  673SOL    HW2 7150   3.361   6.882  10.117 -0.7678  0.3768  1.4061
  674SOL     OW 7151   3.709   7.704   0.756  0.5092 -0.4953 -0.7987
  674SOL    HW1 7152   3.803   7.703   0.738  0.6432 -0.7998 -0.0863
  674SOL    HW2 7153   3.700   7.752   0.838  0.1739 -1.5738 -0.1906
  675SOL     OW 7154  11.163   5.084   8.281  0.9574 -0.0046  0.0691
  675SOL    HW1 7155  11.148   4.990   8.291 -0.3665  0.1247 -0.7021
  675SOL    HW2 7156  11.202   5.111   8.365  2.0458 -1.3667  0.0223
  676SOL     OW 7157   7.125   1.950  10.698  0.1200 -0.2213 -0.4468
  676SOL    HW1 7158   7.055   1.896  10.660 -0.8908  0.6122  0.2375
  676SOL    HW2 7159   7.140   1.912  10.784  1.3471 -1.1405 -1.0485
  677SOL     OW 7160   8.850   4.586   9.772 -0.5005 -0.2246  0.3383
  677SOL    HW1 7161   8.872   4.522   9.840  2.3923  0.2177 -0.1251
  677SOL    HW2 7162   8.817   4.662   9.820  1.2225 -0.0373  1.2400
  678SOL     OW 7163   1.951   1.367   5.217 -0.3495 -0.0148  0.0870
  678SOL    HW1 7164   1.866   1.372   5.175 -0.3658  0.5334  0.1808
  678SOL    HW2 7165   1.939   1.411   5.301  0.6778  2.4078 -0.9878
  679SOL     OW 7166   0.370   6.888   7.320 -0.9174  0.9257 -0.7312
  679SOL    HW1 7167   0.421   6.837   7.383 -1.3124  1.1318 -0.2400
  679SOL    HW2 7168   0.424   6.889   7.241  0.0683  1.5638 -0.0643
  680SOL     OW 7169   9.000   8.057   2.248 -0.2908 -0.1966  0.4310
  680SOL    HW1 7170   8.937   8.043   2.177 -0.4906 -0.3625  0.6422
  680SOL    HW2 7171   9.079   8.086   2.203 -0.2998 -0.6660  0.1048
  681SOL     OW 7172   3.388   9.264   4.494 -0.4757  0.2952 -0.4209
  681SOL    HW1 7173   3.417   9.353   4.518 -1.9271  0.7831 -0.4502
  681SOL    HW2 7174   3.368   9.222   4.577  0.8965 -0.2668 -0.3526
  682SOL     OW 7175   9.538   4.799   5.433 -0.0131  0.3360 -0.5686
  682SOL    HW1 7176   9.524   4.756   5.348 -0.6629 -1.3729  0.3949
  682SOL    HW2 7177   9.621   4.764   5.464 -0.8623 -0.7585  0.5213
  683SOL     OW 7178   0.909   5.290   4.662 -0.1856 -0.0478 -0.0520
  683SOL    HW1 7179   0.833   5.343   4.687 -0.9289 -0.1452 -1.9643
  683SOL    HW2 7180   0.919   5.227   4.733 -0.1023  1.8123  1.6184
  684SOL     OW 7181   4.355   5.722   2.380  0.1392  0.0624  0.4294
  684SOL    HW1 7182   4.413   5.777   2.433  0.3703  0.5459 -0.3080
  684SOL    HW2 7183   4.333   5.648   2.437  1.5165 -0.1524  0.7031
  685SOL     OW 7184   5.921   9.029   0.447  0.2133 -0.0433  0.2128
  685SOL    HW1 7185   5.909   9.001   0.538 -0.4565 -0.4852 -0.0021
  685SOL    HW2 7186   5.904   8.950   0.396 -1.4969  0.6964 -0.3999
  686SOL     OW 7187   9.795   2.503   1.041  0.7847  0.1000  0.2933
  686SOL    HW1 7188   9.824   2.468   1.125 -0.7788 -0.2744  0.6888
  686SOL    HW2 7189   9.713   2.458   1.023  0.4075  1.1805 -0.7791
  687SOL     OW 7190   1.783   4.646   6.243  0.1764  0.5221  0.6464
  687SOL    HW1 7191   1.774   4.736   6.274  1.1260  0.7507  0.2814
  687SOL    HW2 7192   1.800   4.595   6.322  0.9552  0.8613  0.7044
  688SOL     OW 7193   0.580   3.106   2.978 -0.7890  0.1075  0.0069
  688SOL    HW1 7194   0.590   3.163   3.054 -1.9079 -0.7664  0.8201
  688SOL    HW2 7195   0.528   3.158   2.916 -1.1166  0.2761  0.4212
  689SOL     OW 7196   8.444   1.771   4.186 -0.5347 -0.3916  0.4746
  689SOL    HW1 7197   8.379   1.837   4.209  1.2479  1.0876  1.4049
  689SOL    HW2 7198   8.509   1.776   4.256  0.9695 -1.2899 -0.8210
  690SOL     OW 7199   6.183   0.720   7.287  0.0810  1.0878 -0.8426
  690SOL    HW1 7200   6.195   0.811   7.313  1.4799  0.6059  0.2697
  690SOL    HW2 7201   6.219   0.669   7.360 -3.8676 -0.4333  0.2098
  691SOL     OW 7202   1.390   6.188   0.206 -0.8136  0.1642 -0.2831
  691SOL    HW1 7203   1.299   6.157   0.211 -0.7918  0.3748  1.8489
  691SOL    HW2 7204   1.384   6.283   0.212 -0.5630  0.3304 -2.2286
  692SOL     OW 7205   8.140   4.937   3.433 -0.4139 -0.4926 -0.1850
  692SOL    HW1 7206   8.094   5.021   3.431  0.3613 -0.0748 -0.2710
  692SOL    HW2 7207   8.229   4.957   3.405  0.2737 -1.0327  1.5539
  693SOL     OW 7208   1.182   2.421   5.132 -0.1951 -0.3633  0.0714
  693SOL    HW1 7209   1.108   2.429   5.072  0.0986  1.4720 -0.0504
  693SOL    HW2 7210   1.146   2.374   5.207 -0.9496 -1.3353 -0.8770
  694SOL     OW 7211  11.137   1.063   2.251  0.1660  0.0276 -0.2592
  694SOL    HW1 7212  11.193   1.067   2.328  1.7853 -1.4768 -1.3078
  694SOL    HW2 7213  11.114   1.154   2.233 -1.5285  0.3080  2.8637
  695SOL     OW 7214   5.731   1.673  10.333  0.5659 -0.2524  0.1129
  695SOL    HW1 7215   5.788   1.604  10.368  2.3162  0.8644 -0.4593
  695SOL    HW2 7216   5.790   1.747  10.317 -1.1975  1.2054  0.2234
  696SOL     OW 7217   6.795   4.615   0.924 -0.0468 -0.6285 -0.1827
  696SOL    HW1 7218   6.776   4.663   1.004 -1.0175  1.3135 -1.5329
  696SOL    HW2 7219   6.758   4.528   0.939 -3.2007  0.6914  0.2624
  697SOL     OW 7220   8.596   8.929   9.531  0.3878 -0.5728 -0.2005
  697SOL    HW1 7221   8.529   8.908   9.596  0.4274  0.2029  0.0944
  697SOL    HW2 7222   8.551   8.984   9.467  0.7243 -0.0965 -0.0297
  698SOL     OW 7223   0.525  10.765   5.108  0.1566 -0.6732 -0.2238
  698SOL    HW1 7224   0.524  10.845   5.160 -1.1674 -1.8487  1.6389
  698SOL    HW2 7225   0.541  10.794   5.018  0.5640  1.5797  0.5572
  699SOL     OW 7226   2.672  10.972   9.581 -0.6041  0.5165  0.7520
  699SOL    HW1 7227   2.653  10.887   9.621 -1.2129  0.9158  1.3337
  699SOL    HW2 7228   2.586  11.012   9.567 -0.3556  0.7042 -0.2519
  700SOL     OW 7229   5.371   1.724  10.356 -0.1018 -0.1781  0.2820
  700SOL    HW1 7230   5.378   1.807  10.309 -1.8185 -0.7436 -1.0389
  700SOL    HW2 7231   5.315   1.744  10.431 -0.3525 -0.0887  0.0726
  701SOL     OW 7232   9.170   0.924   2.129 -0.5305 -0.0029 -0.4246
  701SOL    HW1 7233   9.224   0.937   2.051  1.0101  1.6847  0.8772
  701SOL    HW2 7234   9.215   0.857   2.180  0.0295  0.9256  0.3396
  702SOL     OW 7235   5.391   6.130   4.314 -0.5077  0.8168  0.1371
  702SOL    HW1 7236   5.339   6.210   4.309  1.9628  2.4737  0.1570
  702SOL    HW2 7237   5.369   6.093   4.400  0.1994  2.8271  1.2264
  703SOL     OW 7238  10.714   7.031   2.276 -0.0801  0.0278  0.3343
  703SOL    HW1 7239  10.786   7.031   2.213 -1.4458 -0.9382 -1.2688
  703SOL    HW2 7240  10.643   7.079   2.232  0.2386  2.8103  2.7098
  704SOL     OW 7241   1.582   8.410   7.065  0.7338  0.0139 -0.4768
  704SOL    HW1 7242   1.527   8.332   7.059 -1.2947  1.2536  1.0924
  704SOL    HW2 7243   1.551   8.467   6.995  0.2506  0.5518  0.1645
  705SOL     OW 7244   1.128   6.268   3.182 -0.0258  0.2614 -0.0083
  705SOL    HW1 7245   1.117   6.264   3.277 -0.0624  2.4099  0.1026
  705SOL    HW2 7246   1.180   6.347   3.167  2.4418 -1.5560 -1.5792
  706SOL     OW 7247   3.877   7.241   9.706 -0.1821 -0.0900  0.2999
  706SOL    HW1 7248   3.931   7.192   9.768  2.4634  3.8060  1.2350
  706SOL    HW2 7249   3.789   7.238   9.744  0.3318 -2.2460  1.4086
  707SOL     OW 7250   8.919   9.034   6.407 -0.3844  0.1382  0.5548
  707SOL    HW1 7251   8.922   8.968   6.338  1.1333 -1.1771  1.8582
  707SOL    HW2 7252   9.009   9.064   6.416 -0.7848  1.2017  1.1062
  708SOL     OW 7253   0.800   9.974   8.232  0.0765  0.1082 -0.7057
  708SOL    HW1 7254   0.762   9.974   8.144  1.1090  0.5155 -1.1554
  708SOL    HW2 7255   0.773  10.057   8.270 -0.1608  0.0409 -0.7272
  709SOL     OW 7256   2.744   7.626   3.788 -0.2516  0.1528  0.4883
  709SOL    HW1 7257   2.819   7.610   3.845  0.5025  1.7254 -0.0307
  709SOL    HW2 7258   2.736   7.547   3.735  0.3754 -0.4445  1.2806
  710SOL     OW 7259   0.903   7.737   7.647 -0.7309 -0.2164  0.7436
  710SOL    HW1 7260   0.895   7.641   7.650  0.5168 -0.4813 -2.2298
  710SOL    HW2 7261   0.997   7.753   7.640 -0.9648  1.2142  0.7159
  711SOL     OW 7262   4.785   0.905   5.005 -0.1255 -0.2424 -0.0769
  711SOL    HW1 7263   4.797   0.895   4.910 -1.6775 -0.7238 -0.2241
  711SOL    HW2 7264   4.854   0.851   5.043  0.2879 -0.3312 -0.9229
  712SOL     OW 7265  10.449  10.304   2.826 -0.0087  0.0410 -0.3653
  712SOL    HW1 7266  10.486  10.217   2.841  1.3812  0.7560  0.4547
  712SOL    HW2 7267  10.439  10.311   2.731  0.3768 -0.8083 -0.4657
  713SOL     OW 7268   1.989   9.980   7.760  0.4245  0.4671 -0.2839
  713SOL    HW1 7269   2.052  10.023   7.702  0.4188  2.1388  0.8940
  713SOL    HW2 7270   1.904  10.012   7.732  0.2475 -0.3112 -0.6505
  714SOL     OW 7271   5.288   7.260   9.429  0.0968 -0.0743 -0.2670
  714SOL    HW1 7272   5.362   7.203   9.448  0.1603  0.2574  0.4932
  714SOL    HW2 7273   5.272   7.248   9.335  1.4892  0.3209 -0.5605
  715SOL     OW 7274   2.017   9.492   7.469 -0.5836  0.6111 -0.1901
  715SOL    HW1 7275   2.009   9.404   7.506  1.8738  0.3848 -0.1376
  715SOL    HW2 7276   1.995   9.550   7.541 -0.2850  0.0789  0.3342
  716SOL     OW 7277   7.613   0.704   1.613 -0.2398 -0.4320 -0.3590
  716SOL    HW1 7278   7.703   0.677   1.633  0.0200 -0.0732 -1.0517
  716SOL    HW2 7279   7.577   0.730   1.698  0.8225  0.9816 -0.3358
  717SOL     OW 7280   2.396   7.285   7.449 -0.7544  0.0224 -0.2793
  717SOL    HW1 7281   2.420   7.336   7.526 -0.5577 -0.1217 -0.2439
  717SOL    HW2 7282   2.301   7.274   7.456 -0.6633 -0.4477  0.2245
  718SOL     OW 7283   1.344   7.191   3.715 -0.0006 -0.0213 -0.1669
  718SOL    HW1 7284   1.424   7.157   3.756 -0.7510 -0.2755  1.0983
  718SOL    HW2 7285   1.334   7.139   3.635  1.2697  0.2208 -0.4960
  719SOL     OW 7286  10.789   6.054  10.654  0.5172  0.1744 -0.1080
  719SOL    HW1 7287  10.784   6.109  10.732  1.9506  0.8208 -0.4627
  719SOL    HW2 7288  10.858   6.093  10.601  1.5162 -1.8828 -0.4094
  720SOL     OW 7289   7.960   0.810   5.236  0.0911  0.0229  0.7589
  720SOL    HW1 7290   7.870   0.780   5.251  0.7715 -1.4979  1.8965
  720SOL    HW2 7291   8.007   0.788   5.316  1.4613  0.9098  0.2188
  721SOL     OW 7292   7.783   5.733   2.267 -0.1677  0.6357  0.2785
  721SOL    HW1 7293   7.766   5.685   2.348  2.5542 -0.1648  0.4348
  721SOL    HW2 7294   7.836   5.809   2.295 -0.4545  1.1494 -0.5667
  722SOL     OW 7295   7.353   0.173   6.683 -0.3689 -0.3090  0.2468
  722SOL    HW1 7296   7.440   0.159   6.648 -0.2418  0.1803  0.3642
  722SOL    HW2 7297   7.303   0.212   6.611  0.4005  2.4578  1.1283
  723SOL     OW 7298   2.367   9.888   5.051  0.0337 -0.4460  0.2192
  723SOL    HW1 7299   2.428   9.844   4.992 -0.0455  0.5390 -0.6039
  723SOL    HW2 7300   2.321   9.951   4.996 -1.1122 -0.5630  1.0245
  724SOL     OW 7301   4.931   4.647  10.707 -0.1001  0.5159  0.5376
  724SOL    HW1 7302   4.849   4.679  10.744 -0.8111 -0.8702  0.2045
  724SOL    HW2 7303   4.922   4.665  10.613 -0.1656  0.0638  0.4579
  725SOL     OW 7304   3.674   7.781   8.717 -0.3276 -0.1041 -0.6253
  725SOL    HW1 7305   3.651   7.708   8.775  1.0862 -0.0546  0.0070
  725SOL    HW2 7306   3.678   7.857   8.776  3.2947 -0.4311 -0.3700
  726SOL     OW 7307   5.622   2.923  11.031  0.3735  0.0151 -0.0458
  726SOL    HW1 7308   5.645   2.938  11.123  1.3701 -0.1430 -0.2678
  726SOL    HW2 7309   5.668   2.842  11.008 -0.4796 -0.3520 -0.4685
  727SOL     OW 7310   9.509   4.854   2.532 -0.2936 -0.5981  0.4627
  727SOL    HW1 7311   9.441   4.800   2.572 -0.9203  0.3465  0.6926
  727SOL    HW2 7312   9.518   4.929   2.590  0.1613 -0.1646 -0.1537
  728SOL     OW 7313   2.407   2.508   1.718 -0.1944  0.4973  0.2725
  728SOL    HW1 7314   2.451   2.428   1.690 -0.1137  1.0845 -1.3380
  728SOL    HW2 7315   2.465   2.545   1.784  0.9018  0.3998 -0.6159
  729SOL     OW 7316   5.426   1.166   0.131  0.0948 -0.4954  0.1702
  729SOL    HW1 7317   5.496   1.151   0.068 -0.5213 -0.8467 -0.4452
  729SOL    HW2 7318   5.358   1.103   0.106  0.2199 -1.2857  1.7543
  730SOL     OW 7319   4.659   8.512   9.189 -0.7228  0.0270 -0.1587
  730SOL    HW1 7320   4.654   8.585   9.250  1.3763  0.5686 -0.5949
  730SOL    HW2 7321   4.654   8.553   9.102 -0.5360 -0.4336 -0.3894
  731SOL     OW 7322   0.504   5.850   4.999 -0.1155 -0.5066  0.2183
  731SOL    HW1 7323   0.437   5.797   4.957  0.4372 -0.6272 -0.5189
  731SOL    HW2 7324   0.528   5.916   4.934 -0.6105  0.5012  1.0274
  732SOL     OW 7325   1.841   3.217   9.914 -0.1011  0.5039 -0.1626
  732SOL    HW1 7326   1.761   3.241   9.962 -1.3316  0.6293 -2.2288
  732SOL    HW2 7327   1.869   3.136   9.955 -0.3479  1.3147  1.6838
  733SOL     OW 7328   8.820   3.498   0.763  0.2467 -0.4269  0.0402
  733SOL    HW1 7329   8.760   3.564   0.797  2.1662  0.3388  2.1324
  733SOL    HW2 7330   8.844   3.529   0.676  0.2817  1.1039  0.5742
  734SOL     OW 7331   8.889   8.281   7.627 -0.4189 -0.6137 -0.1463
  734SOL    HW1 7332   8.951   8.346   7.594 -0.8904  0.1300  0.4201
  734SOL    HW2 7333   8.913   8.200   7.582  0.0465 -0.0031 -1.0145
  735SOL     OW 7334   7.705   1.548   0.717 -0.3182 -0.3100 -0.4412
  735SOL    HW1 7335   7.801   1.558   0.718  0.4173 -5.5604 -3.0787
  735SOL    HW2 7336   7.677   1.592   0.637 -0.0467  0.5101 -0.0931
  736SOL     OW 7337   0.432   6.671   9.434  0.3214 -0.4057 -0.5228
  736SOL    HW1 7338   0.372   6.717   9.493  0.5450 -2.0540  1.0544
  736SOL    HW2 7339   0.376   6.620   9.377  0.1480 -0.1074 -0.6179
  737SOL     OW 7340   8.316   8.183   5.315 -0.5291  0.4049  0.8012
  737SOL    HW1 7341   8.308   8.097   5.273 -0.0235  0.1068  1.3043
  737SOL    HW2 7342   8.251   8.237   5.272  1.5555  0.7651 -2.0088
  738SOL     OW 7343   8.930   3.568   3.006 -0.4354 -0.4403 -0.1074
  738SOL    HW1 7344   8.979   3.487   2.993 -0.5566 -0.8186  1.6807
  738SOL    HW2 7345   8.965   3.606   3.086 -0.8056  0.9764 -0.5887
  739SOL     OW 7346   0.224   9.484   5.134 -0.1950  0.4759  0.0494
  739SOL    HW1 7347   0.164   9.521   5.198 -0.4659 -0.4436  0.3304
  739SOL    HW2 7348   0.275   9.559   5.103 -0.4099  1.0039  0.9628
  740SOL     OW 7349   7.038   3.140   3.425 -0.5530  0.2370 -0.5301
  740SOL    HW1 7350   6.969   3.175   3.480 -0.1916 -2.1365  1.5084
  740SOL    HW2 7351   7.001   3.141   3.337 -2.8663 -0.2126  0.4003
  741SOL     OW 7352   8.713   7.208   0.182  0.0217 -0.6307 -0.2239
  741SOL    HW1 7353   8.677   7.285   0.139  0.1823 -1.5486 -2.0486
  741SOL    HW2 7354   8.636   7.164   0.220 -0.2003 -0.1440 -0.1070
  742SOL     OW 7355   1.348   1.926   3.369  0.6762 -0.1744  0.1931
  742SOL    HW1 7356   1.262   1.968   3.379  0.8141  0.0061  0.6078
  742SOL    HW2 7357   1.410   1.987   3.409  1.1389  0.1755 -1.0091
  743SOL     OW 7358   3.729   1.228   0.683  0.5564 -1.1157 -0.0068
  743SOL    HW1 7359   3.758   1.162   0.621 -0.2153 -0.1518 -1.4078
  743SOL    HW2 7360   3.809   1.275   0.707  0.7790 -1.2029 -0.5875
  744SOL     OW 7361   8.610   6.125  10.491  0.6782 -0.3562 -0.4056
  744SOL    HW1 7362   8.620   6.035  10.522  2.7596  0.1260  0.3506
  744SOL    HW2 7363   8.595   6.176  10.570 -1.9998 -0.2054 -0.9662
  745SOL     OW 7364  11.017   2.592   9.623  0.1321 -0.0918  0.0219
  745SOL    HW1 7365  11.012   2.664   9.684  1.7656 -0.2119  0.3253
  745SOL    HW2 7366  11.043   2.516   9.676  0.7098 -0.3830 -0.6511
  746SOL     OW 7367   6.024   6.119   0.040 -0.0951  0.1660  0.3343
  746SOL    HW1 7368   5.962   6.047   0.039  0.0268  0.0467  1.0871
  746SOL    HW2 7369   6.048   6.129   0.132 -0.2992  1.3279  0.2716
  747SOL     OW 7370  10.310  10.342   4.899  0.0066 -0.5019  0.4279
  747SOL    HW1 7371  10.235  10.304   4.854  0.3099  0.3118 -0.7750
  747SOL    HW2 7372  10.365  10.267   4.921 -0.8080 -1.0328  0.6814
  748SOL     OW 7373   5.500   8.502   1.712  0.2201 -0.2070 -0.4498
  748SOL    HW1 7374   5.465   8.496   1.623  1.8584 -3.3747 -0.9447
  748SOL    HW2 7375   5.433   8.460   1.766  0.1920 -0.1929 -0.4736
  749SOL     OW 7376   4.237   9.757  10.661 -0.1640 -0.1101 -0.2583
  749SOL    HW1 7377   4.292   9.693  10.706 -0.5098  0.0872  0.4628
  749SOL    HW2 7378   4.299   9.814  10.616  0.2508  0.2409  0.7290
  750SOL     OW 7379  10.382   7.504   6.653 -0.2055 -0.2143 -0.6649
  750SOL    HW1 7380  10.399   7.455   6.734  1.3559 -0.7684 -1.3127
  750SOL    HW2 7381  10.350   7.589   6.683  1.7314  0.1124  0.5814
  751SOL     OW 7382   9.396   7.010   3.409  0.3412 -0.4248  0.3886
  751SOL    HW1 7383   9.439   7.069   3.347  0.4640 -0.7174  0.1952
  751SOL    HW2 7384   9.421   6.922   3.380  0.6129 -0.5523  1.0120
  752SOL     OW 7385  10.376   7.134   6.276 -0.7440  0.1836  0.0093
  752SOL    HW1 7386  10.313   7.125   6.348 -0.9958 -1.7161 -0.4291
  752SOL    HW2 7387  10.461   7.115   6.317 -0.7309  0.3687  0.0716
  753SOL     OW 7388   1.060  11.129   2.397  0.2349 -0.0619  0.2660
  753SOL    HW1 7389   1.110  11.062   2.444 -2.2254 -1.7335  0.6093
  753SOL    HW2 7390   1.093  11.212   2.431  1.5396 -1.1431  1.7446
  754SOL     OW 7391   3.349   8.424   0.390  0.8774  0.2345  0.2250
  754SOL    HW1 7392   3.333   8.516   0.413  0.0472  0.6730 -1.9824
  754SOL    HW2 7393   3.333   8.376   0.471 -1.8453  1.7117  0.6200
  755SOL     OW 7394   7.517   0.162   0.211  0.3479  0.0355 -0.1835
  755SOL    HW1 7395   7.591   0.196   0.161 -0.5163  0.8892 -0.9191
  755SOL    HW2 7396   7.503   0.074   0.176  0.9889 -0.1113 -0.0683
  756SOL     OW 7397   0.537   2.855   3.781 -0.6970  0.1960 -0.4106
  756SOL    HW1 7398   0.565   2.765   3.797  3.4198  1.3533 -0.6266
  756SOL    HW2 7399   0.543   2.865   3.686 -0.3446  0.9321 -0.3135
  757SOL     OW 7400   7.797   5.644   3.779  0.2118 -0.6154 -0.1963
  757SOL    HW1 7401   7.760   5.675   3.861 -0.8698  0.0176 -0.9137
  757SOL    HW2 7402   7.892   5.644   3.794  0.1585  1.6995  0.2722
  758SOL     OW 7403   3.170   3.377   1.442  0.7328  0.4121 -0.3758
  758SOL    HW1 7404   3.205   3.411   1.359  1.5687 -1.6537 -0.9126
  758SOL    HW2 7405   3.233   3.311   1.469 -0.8596 -0.7423  0.6006
  759SOL     OW 7406   1.693   3.534   7.060 -0.0227 -0.0066 -0.3348
  759SOL    HW1 7407   1.598   3.522   7.052 -0.2781  1.6184  0.0475
  759SOL    HW2 7408   1.706   3.565   7.150  1.0490 -1.7800  0.1410
  760SOL     OW 7409   0.409   3.092  10.712  0.8076  0.1377  0.3626
  760SOL    HW1 7410   0.317   3.067  10.708  0.5867  0.7516  1.5916
  760SOL    HW2 7411   0.433   3.080  10.804  1.3087  2.3025  0.5306
  761SOL     OW 7412   8.962   3.137   7.576 -0.5344 -0.5635  0.6008
  761SOL    HW1 7413   8.900   3.108   7.643  0.5363 -3.2797  0.4767
  761SOL    HW2 7414   9.033   3.072   7.579  1.5214  1.5726 -0.3675
  762SOL     OW 7415   0.439   5.994   6.870  0.1443  0.1144 -0.8293
  762SOL    HW1 7416   0.383   5.991   6.948 -1.2660 -1.4793 -1.8599
  762SOL    HW2 7417   0.491   5.914   6.875  1.3126  0.8695 -0.6430
  763SOL     OW 7418   4.640   0.459   9.592 -0.5262 -0.6248  0.1766
  763SOL    HW1 7419   4.625   0.460   9.686 -1.4128  0.1467  0.0370
  763SOL    HW2 7420   4.584   0.529   9.558 -2.1881 -2.5483 -1.2214
  764SOL     OW 7421   2.040   0.074   1.387 -0.5653  0.4521  0.5157
  764SOL    HW1 7422   2.014   0.068   1.295  2.3253 -2.6453 -0.1760
  764SOL    HW2 7423   2.131   0.104   1.385  0.4480 -2.3580  2.2107
  765SOL     OW 7424   5.607   8.929   4.873 -0.3760 -0.0664  0.2796
  765SOL    HW1 7425   5.561   8.923   4.789  0.3579  0.4981 -0.1809
  765SOL    HW2 7426   5.700   8.923   4.850 -0.1757 -0.1308  1.0762
  766SOL     OW 7427   6.504   0.469   0.682  0.4663  0.4454 -0.3517
  766SOL    HW1 7428   6.581   0.414   0.670  0.0647 -0.1792 -0.1189
  766SOL    HW2 7429   6.435   0.425   0.631  0.3210  1.1186 -0.7443
  767SOL     OW 7430   6.707   2.846   8.784  0.1531 -0.1338  0.1878
  767SOL    HW1 7431   6.613   2.831   8.797  0.5010  0.1201  3.3254
  767SOL    HW2 7432   6.745   2.758   8.781  0.2617 -0.1935  2.7575
  768SOL     OW 7433   8.587   9.340   0.968 -0.3470  0.0713 -0.9668
  768SOL    HW1 7434   8.492   9.353   0.977 -0.5791 -2.8665  1.6653
  768SOL    HW2 7435   8.595   9.275   0.898 -0.2390  0.5875 -1.4371
  769SOL     OW 7436   9.758   3.555   4.910 -0.3708  0.2249 -0.2479
  769SOL    HW1 7437   9.805   3.543   4.828 -0.0246  0.0111 -0.0181
  769SOL    HW2 7438   9.689   3.488   4.908 -1.5415  1.4443 -1.2143
  770SOL     OW 7439   8.348  10.903   3.994  0.5078 -0.2997  0.0299
  770SOL    HW1 7440   8.278  10.895   3.930  1.4247  1.3200 -1.2090
  770SOL    HW2 7441   8.416  10.954   3.950  1.9167 -0.6984  1.6627
  771SOL     OW 7442   3.867   4.367   7.717  0.0206  0.2412  0.4805
  771SOL    HW1 7443   3.788   4.355   7.664  0.4746  0.2810 -0.2046
  771SOL    HW2 7444   3.890   4.459   7.706  0.1705  0.2289  0.6800
  772SOL     OW 7445   3.047  10.510  11.334 -0.3162  0.5139  0.4272
  772SOL    HW1 7446   3.069  10.537  11.245 -1.5398  1.3689  0.3879
  772SOL    HW2 7447   3.073  10.583  11.389 -0.9579  0.6005  0.6180
  773SOL     OW 7448   6.041   2.567   1.215 -0.1435 -0.5532 -0.5056
  773SOL    HW1 7449   5.948   2.559   1.237 -0.3979  0.9570 -0.9792
  773SOL    HW2 7450   6.066   2.653   1.249  1.2621 -1.2443  0.2312
  774SOL     OW 7451   9.720   5.374  10.735 -0.0231 -0.1641  0.5837
  774SOL    HW1 7452   9.744   5.301  10.677 -1.4497 -0.6977  0.6460
  774SOL    HW2 7453   9.751   5.347  10.821  1.0592  0.1123  0.2878
  775SOL     OW 7454   9.791   7.691   1.872 -0.2502  0.2351 -0.3340
  775SOL    HW1 7455   9.755   7.754   1.810  1.4284  0.1040 -1.4666
  775SOL    HW2 7456   9.836   7.627   1.817  0.1615 -0.5872  0.9558
  776SOL     OW 7457   7.041   1.685   2.804  0.0826  0.4334 -0.1027
  776SOL    HW1 7458   7.050   1.646   2.716  0.9136 -1.4489  0.7870
  776SOL    HW2 7459   7.113   1.647   2.854 -1.8648 -0.4864  2.0844
  777SOL     OW 7460   6.978   0.895   1.756 -0.3777 -0.5950 -0.3972
  777SOL    HW1 7461   6.921   0.923   1.685 -0.5699  1.4275  0.5337
  777SOL    HW2 7462   7.063   0.880   1.715  0.3082  3.4673 -0.5993
  778SOL     OW 7463   8.915  10.963   3.323  0.1688  0.1973  0.5290
  778SOL    HW1 7464   8.884  10.962   3.233  1.7408  1.2522 -0.0423
  778SOL    HW2 7465   8.943  10.873   3.341 -3.4662 -0.8787  1.1825
  779SOL     OW 7466   7.262   9.869  11.010  0.5705 -0.1527 -0.1014
  779SOL    HW1 7467   7.171   9.846  10.992  0.5237  0.2385 -0.3610
  779SOL    HW2 7468   7.305   9.869  10.925  0.8299 -0.4029  0.0279
  780SOL     OW 7469   7.152   1.191  10.002 -0.4979  0.0470 -0.4284
  780SOL    HW1 7470   7.205   1.171   9.925  0.8992 -0.8444  0.7198
  780SOL    HW2 7471   7.182   1.128  10.068 -0.3988  1.9316  1.3788
  781SOL     OW 7472   7.209   2.922   0.956  0.6167  0.5361 -0.1985
  781SOL    HW1 7473   7.234   2.982   0.886  1.6380 -0.2254 -0.4975
  781SOL    HW2 7474   7.292   2.896   0.996  0.2089 -0.8051 -0.1844
  782SOL     OW 7475   5.015   9.306   4.864 -0.0645 -0.2392  0.0685
  782SOL    HW1 7476   5.032   9.230   4.808  1.6912  0.9894 -1.1198
  782SOL    HW2 7477   5.081   9.299   4.933 -0.2336 -0.0919  0.2420
  783SOL     OW 7478   6.278   7.190   5.432 -0.3866 -0.6628  0.3859
  783SOL    HW1 7479   6.188   7.197   5.402 -0.6880  2.8734  1.8524
  783SOL    HW2 7480   6.330   7.185   5.352 -1.5715  2.2045 -0.6109
  784SOL     OW 7481   3.186   2.287  11.141 -0.8808 -0.4486  0.0797
  784SOL    HW1 7482   3.098   2.316  11.115 -1.2122  0.0398  1.7033
  784SOL    HW2 7483   3.225   2.364  11.182  1.0636 -0.0482 -2.3726
  785SOL     OW 7484   8.113   6.859   1.337  0.5655 -0.3325  0.3700
  785SOL    HW1 7485   8.093   6.952   1.326 -0.5886 -0.4885  1.0783
  785SOL    HW2 7486   8.090   6.840   1.428 -0.6946 -1.6743 -0.2115
  786SOL     OW 7487   8.155   2.687   6.510 -0.5619  0.2462  0.4269
  786SOL    HW1 7488   8.142   2.695   6.416 -2.5365 -1.9181  0.4814
  786SOL    HW2 7489   8.092   2.749   6.548 -0.8250  0.0204  0.3588
  787SOL     OW 7490   7.797   6.236   6.551 -0.2480 -0.3826  0.2142
  787SOL    HW1 7491   7.789   6.296   6.624  0.7485 -0.6721  0.5647
  787SOL    HW2 7492   7.710   6.237   6.509 -0.2826  1.1558  0.3120
  788SOL     OW 7493   7.240   1.664   6.597  0.8919  0.7926  0.1746
  788SOL    HW1 7494   7.168   1.682   6.657 -1.2279 -2.6422 -1.1826
  788SOL    HW2 7495   7.212   1.699   6.513  0.9748 -0.2199 -0.2787
  789SOL     OW 7496  10.108   9.746  10.676 -0.5151 -0.1862 -0.3772
  789SOL    HW1 7497  10.048   9.819  10.662 -2.1661 -1.6366 -1.0744
  789SOL    HW2 7498  10.078   9.705  10.757  1.3620  0.7929  0.8567
  790SOL     OW 7499   3.306   3.159   0.135  0.1520 -0.0007  0.9744
  790SOL    HW1 7500   3.254   3.237   0.154 -0.3009  0.1112 -0.6714
  790SOL    HW2 7501   3.378   3.163   0.198 -1.4106  0.2286  2.7991
  791SOL     OW 7502   1.001   1.885   1.244  0.3824  0.0734  0.1095
  791SOL    HW1 7503   0.958   1.800   1.250  2.0174 -0.6558  1.7914
  791SOL    HW2 7504   0.956   1.939   1.309  0.3053  0.0637  0.0641
  792SOL     OW 7505   9.061   5.128   1.874  0.4305 -0.2805  0.4082
  792SOL    HW1 7506   8.987   5.186   1.856  1.9154  1.5925  0.1436
  792SOL    HW2 7507   9.122   5.183   1.924  2.7467 -1.0076 -1.5337
  793SOL     OW 7508   4.977   2.080   6.605  0.0601  0.7588 -0.1158
  793SOL    HW1 7509   4.952   2.004   6.553 -1.3289  1.4760 -0.5177
  793SOL    HW2 7510   4.949   2.156   6.553 -0.4221  1.5010  1.1783
  794SOL     OW 7511   4.069  10.142   9.852 -0.0504  0.2456  0.2308
  794SOL    HW1 7512   4.056  10.047   9.847  0.1316  0.1806  0.9301
  794SOL    HW2 7513   4.012  10.178   9.784 -0.6653 -0.3191  0.4441
  795SOL     OW 7514   1.100   2.886   9.501 -0.0488 -0.2712  0.0215
  795SOL    HW1 7515   1.013   2.892   9.462  0.2514 -0.6421 -0.7056
  795SOL    HW2 7516   1.095   2.812   9.561  0.2846 -1.4120 -1.3493
  796SOL     OW 7517   1.552   4.378   0.410  0.1775 -0.3198  0.1657
  796SOL    HW1 7518   1.567   4.409   0.499 -0.1425 -1.5886  0.6753
  796SOL    HW2 7519   1.488   4.440   0.374 -0.3899 -0.3260  1.1365
  797SOL     OW 7520   9.009  10.566   8.602 -0.9688  0.3505 -0.2816
  797SOL    HW1 7521   9.005  10.496   8.667 -0.9124 -0.2449 -0.9085
  797SOL    HW2 7522   8.998  10.521   8.518 -2.4801  1.2756 -0.5948
  798SOL     OW 7523   8.543   2.111   4.574 -0.3594  0.1915  0.6209
  798SOL    HW1 7524   8.463   2.163   4.588  0.3159  1.3214  0.3147
  798SOL    HW2 7525   8.543   2.093   4.480 -0.7699 -0.6459  0.7846
  799SOL     OW 7526   3.202   2.093   7.791  0.1632  0.0373 -0.1416
  799SOL    HW1 7527   3.118   2.102   7.836  0.5207 -0.2244  0.5838
  799SOL    HW2 7528   3.194   2.149   7.714 -0.6502  0.0724 -0.0344
  800SOL     OW 7529  10.541   1.925  10.694 -0.1399  0.0768 -0.0190
  800SOL    HW1 7530  10.532   1.832  10.717  0.2424 -0.0808 -0.4981
  800SOL    HW2 7531  10.500   1.932  10.607  1.1473  0.0581 -0.6373
  801SOL     OW 7532   3.997   2.041   4.831 -0.4309  0.0551 -0.3721
  801SOL    HW1 7533   3.931   2.006   4.771 -0.8518 -0.3191  0.3035
  801SOL    HW2 7534   3.997   1.980   4.905  1.0524 -0.2498 -0.6033
  802SOL     OW 7535   1.407   5.148  10.026  0.3647 -0.1130 -0.7225
  802SOL    HW1 7536   1.320   5.110  10.036 -0.0708  1.5126  2.3438
  802SOL    HW2 7537   1.466   5.073  10.029 -0.5966 -0.8490  3.1463
  803SOL     OW 7538  11.159   0.469   4.633 -0.3933 -0.2861 -0.4701
  803SOL    HW1 7539  11.088   0.531   4.617 -0.0129 -0.2890 -2.3021
  803SOL    HW2 7540  11.235   0.523   4.654 -0.9088 -0.2819  1.4606
  804SOL     OW 7541   0.577   5.303   0.854  0.0608  0.3413 -0.3882
  804SOL    HW1 7542   0.505   5.243   0.836 -0.4179 -0.0744  2.5492
  804SOL    HW2 7543   0.549   5.351   0.932  2.9339  0.1411  0.8686
  805SOL     OW 7544   8.729   1.243  10.918 -0.0340 -0.4337  0.5186
  805SOL    HW1 7545   8.803   1.298  10.943 -0.6299  0.3608  0.5808
  805SOL    HW2 7546   8.726   1.250  10.822  0.3700 -0.9973  0.4621
  806SOL     OW 7547   7.246   1.883   8.214 -0.0444  0.2322 -0.0136
  806SOL    HW1 7548   7.224   1.825   8.141  1.6505 -1.4836  0.7900
  806SOL    HW2 7549   7.162   1.909   8.251 -0.8216 -3.4703  0.9476
  807SOL     OW 7550   7.836   0.433   7.314 -0.3705  0.3937  0.1253
  807SOL    HW1 7551   7.815   0.350   7.271 -0.2604  0.9474 -1.0048
  807SOL    HW2 7552   7.930   0.443   7.300 -0.2631  0.4013  0.8242
  808SOL     OW 7553   9.306   7.727   4.266  0.5578 -0.1805 -0.0644
  808SOL    HW1 7554   9.304   7.720   4.171 -2.0219 -0.2128 -0.0260
  808SOL    HW2 7555   9.291   7.638   4.297 -0.1468  0.0857  0.3717
  809SOL     OW 7556   2.137   5.223   6.374  0.1428 -0.0384  0.2945
  809SOL    HW1 7557   2.155   5.286   6.444 -1.6962 -0.2379  0.9664
  809SOL    HW2 7558   2.098   5.275   6.304  0.6933 -0.0762 -0.0478
  810SOL     OW 7559   2.876   6.865  10.237 -0.0662  0.4641  0.1365
  810SOL    HW1 7560   2.962   6.862  10.280  0.1283  1.7429 -0.1363
  810SOL    HW2 7561   2.814   6.843  10.307  0.3698  0.9839  0.6996
  811SOL     OW 7562   8.500   8.271  10.163 -0.2253 -0.3133  0.7260
  811SOL    HW1 7563   8.589   8.284  10.130 -0.1387  1.2479  1.5430
  811SOL    HW2 7564   8.458   8.214  10.098  1.0629 -0.2509 -0.1713
  812SOL     OW 7565   0.064   9.449  10.189  0.0655 -0.2487 -0.4022
  812SOL    HW1 7566   0.111   9.368  10.210 -0.4760  0.0288  2.0211
  812SOL    HW2 7567   0.110   9.516  10.240 -2.2111  0.2189  1.0853
  813SOL     OW 7568   2.441   9.575   1.245  0.4129  0.3625 -0.5199
  813SOL    HW1 7569   2.364   9.552   1.298  0.7381  0.5016  0.0124
  813SOL    HW2 7570   2.502   9.615   1.307  2.2489 -2.6813 -0.2574
  814SOL     OW 7571   8.129  10.418   1.615 -0.6264  0.5481 -0.0962
  814SOL    HW1 7572   8.148  10.356   1.544  0.2469  2.1507 -1.2950
  814SOL    HW2 7573   8.152  10.371   1.695  3.4072  0.5085 -1.1786
  815SOL     OW 7574   6.671   8.565   5.705 -0.0879 -0.0561  0.6286
  815SOL    HW1 7575   6.704   8.561   5.794 -0.0537 -0.5727  0.5952
  815SOL    HW2 7576   6.728   8.507   5.655  1.5531  2.2626 -0.2791
  816SOL     OW 7577   2.474   6.406   1.517  0.1744 -0.0488  0.0104
  816SOL    HW1 7578   2.556   6.454   1.510 -0.0720  0.4019  0.2330
  816SOL    HW2 7579   2.496   6.328   1.568  0.9249 -0.9681 -1.6466
  817SOL     OW 7580   2.067   9.371   2.313 -0.0715  0.0825 -1.3095
  817SOL    HW1 7581   2.078   9.302   2.247  1.7019 -1.5396  0.6049
  817SOL    HW2 7582   2.149   9.372   2.361 -1.5044  0.8159  1.2421
  818SOL     OW 7583  11.025   6.128   1.626 -0.6473  0.0958  0.3617
  818SOL    HW1 7584  11.007   6.183   1.550  0.4634 -2.1648 -1.6019
  818SOL    HW2 7585  10.941   6.123   1.673 -0.7323  3.4917  0.6540
  819SOL     OW 7586   8.694   9.404   0.536  0.4251  0.7878  0.1132
  819SOL    HW1 7587   8.689   9.460   0.613  1.3976  1.5968 -0.4026
  819SOL    HW2 7588   8.674   9.463   0.463 -0.1842  0.0960 -0.2885
  820SOL     OW 7589   3.336   9.835   2.148 -0.0476  0.4873  0.1766
  820SOL    HW1 7590   3.399   9.843   2.076 -1.0228  1.1390 -0.6351
  820SOL    HW2 7591   3.325   9.741   2.160 -0.7332  0.3467 -1.3349
  821SOL     OW 7592   6.113   9.494   0.485 -0.2596 -0.2379 -0.4234
  821SOL    HW1 7593   6.139   9.456   0.570 -1.6428 -0.5621 -0.1349
  821SOL    HW2 7594   6.074   9.578   0.508  2.5791  1.3115 -1.0459
  822SOL     OW 7595   1.912   8.771   0.714 -0.1625 -0.1743 -0.1786
  822SOL    HW1 7596   1.969   8.753   0.639 -0.6892 -2.3811 -0.0713
  822SOL    HW2 7597   1.852   8.697   0.717 -0.9768  0.5321  1.6701
  823SOL     OW 7598  11.135   8.878   4.532 -0.1359 -0.1991 -0.1768
  823SOL    HW1 7599  11.120   8.842   4.445  0.7619 -0.4070 -0.2485
  823SOL    HW2 7600  11.219   8.922   4.526 -0.1233 -0.1110  0.5542
  824SOL     OW 7601   3.326   4.007   5.671  0.2742  0.0659  0.4092
  824SOL    HW1 7602   3.328   3.948   5.596  1.5305  1.4808 -0.7221
  824SOL    HW2 7603   3.418   4.031   5.685 -0.1552  1.3317  1.1661
  825SOL     OW 7604   7.026   5.385   6.798 -0.0768  0.1898 -0.0400
  825SOL    HW1 7605   7.068   5.362   6.881  2.1139 -0.3779 -1.2666
  825SOL    HW2 7606   6.948   5.435   6.824  1.1725  0.9995  2.3254
  826SOL     OW 7607  10.866   1.270   5.973  0.0648  0.2479  0.0483
  826SOL    HW1 7608  10.796   1.219   6.014 -0.3403  0.1391 -0.7554
  826SOL    HW2 7609  10.830   1.296   5.888  0.5414  1.2525  0.1426
  827SOL     OW 7610   2.274   5.112  10.328  0.6885  0.3190  0.8139
  827SOL    HW1 7611   2.297   5.071  10.411 -0.3271  1.6592  1.7883
  827SOL    HW2 7612   2.186   5.078  10.308  1.1703 -0.4523 -0.0150
  828SOL     OW 7613   8.169   3.501   4.898 -0.4882 -0.0091  0.5552
  828SOL    HW1 7614   8.239   3.543   4.948  0.6956 -0.9151 -0.3079
  828SOL    HW2 7615   8.178   3.537   4.809 -0.1842 -1.2271  0.0880
  829SOL     OW 7616   1.204  10.639   6.820  0.0923 -0.1965 -0.1371
  829SOL    HW1 7617   1.178  10.552   6.791  1.1655 -0.4139 -0.4754
  829SOL    HW2 7618   1.299  10.634   6.829  0.1833  0.9826 -0.3155
  830SOL     OW 7619   5.031   0.289   6.088 -0.9944  0.3697 -0.2842
  830SOL    HW1 7620   5.095   0.226   6.122 -0.6256  0.3812 -0.9573
  830SOL    HW2 7621   4.949   0.266   6.132 -0.7604 -0.3012 -0.1987
  831SOL     OW 7622   5.864   9.273   1.780 -0.0565 -0.0700 -0.2949
  831SOL    HW1 7623   5.835   9.201   1.723  0.0582 -0.7570  0.5170
  831SOL    HW2 7624   5.873   9.233   1.866  0.1146  0.9015  0.1355
  832SOL     OW 7625   4.193   2.364   6.389 -0.0177  0.0656 -0.5779
  832SOL    HW1 7626   4.148   2.429   6.443  0.6795  0.2506 -0.2063
  832SOL    HW2 7627   4.284   2.367   6.419 -0.2867 -2.1920  0.5160
  833SOL     OW 7628   7.464   8.980  10.802  0.9633  0.0780  0.7502
  833SOL    HW1 7629   7.451   9.026  10.719  0.2258 -0.9381  0.2883
  833SOL    HW2 7630   7.393   9.011  10.858 -0.9320 -2.1206 -0.3041
  834SOL     OW 7631   9.324   5.875   7.034  0.4533  0.3971 -0.3171
  834SOL    HW1 7632   9.282   5.889   6.949  0.2035 -1.0642 -0.4400
  834SOL    HW2 7633   9.404   5.827   7.013 -0.1169 -0.8622  0.3674
  835SOL     OW 7634   4.131   7.734  10.036  0.6167  0.0162  0.5386
  835SOL    HW1 7635   4.074   7.693   9.972  1.5728 -1.6073  0.7109
  835SOL    HW2 7636   4.174   7.805   9.988  0.3645 -0.3738 -0.2601
  836SOL     OW 7637   4.955   7.627   4.840  0.2433 -0.7417 -0.1871
  836SOL    HW1 7638   5.014   7.600   4.910  1.4283  0.3426 -0.7532
  836SOL    HW2 7639   5.012   7.649   4.767 -0.8884 -0.2531 -0.9463
  837SOL     OW 7640   8.097   1.087   6.099  0.1816  0.3542  0.1168
  837SOL    HW1 7641   8.058   1.107   6.013 -0.3605 -2.9446 -0.4777
  837SOL    HW2 7642   8.191   1.081   6.082  0.1808  0.7617 -0.0273
  838SOL     OW 7643   8.912   9.415   6.588 -0.3339 -0.4646  0.3534
  838SOL    HW1 7644   8.989   9.382   6.541 -1.3036 -0.8390 -1.0248
  838SOL    HW2 7645   8.862   9.462   6.521 -0.4738  1.2421  1.6171
  839SOL     OW 7646   2.048   0.666  10.954  0.6436  0.5005 -0.3941
  839SOL    HW1 7647   2.091   0.666  11.039 -1.6814 -1.6935  0.8541
  839SOL    HW2 7648   2.090   0.595  10.906 -0.2746 -0.4567  0.1776
  840SOL     OW 7649   7.297  11.104   4.762 -0.2570 -0.3143 -0.1702
  840SOL    HW1 7650   7.315  11.022   4.716  0.9111  1.0927 -2.2537
  840SOL    HW2 7651   7.259  11.162   4.696 -1.7981  0.6119  1.4599
  841SOL     OW 7652   9.025   8.169   4.103  0.2641  0.4474  0.3917
  841SOL    HW1 7653   9.100   8.110   4.101  0.8261  1.1669 -2.5776
  841SOL    HW2 7654   8.964   8.133   4.039 -0.1373  2.1142 -0.1887
  842SOL     OW 7655   3.332   9.819   7.817  0.2090  0.2443  0.2026
  842SOL    HW1 7656   3.248   9.786   7.786  0.6662 -0.1058 -0.6874
  842SOL    HW2 7657   3.317   9.912   7.835 -0.3631  0.1836  0.0385
  843SOL     OW 7658  10.717   5.345   1.810  0.2685  0.2468  0.6039
  843SOL    HW1 7659  10.649   5.338   1.876  1.5549  0.6767  2.0085
  843SOL    HW2 7660  10.796   5.370   1.859  1.3030  0.3252 -1.0497
  844SOL     OW 7661   6.229   9.017   3.913 -0.1315 -0.7611 -0.8051
  844SOL    HW1 7662   6.256   8.934   3.874  1.2378 -1.6967  1.9972
  844SOL    HW2 7663   6.308   9.072   3.907 -0.1525 -0.6521 -0.0734
  845SOL     OW 7664   0.263   8.150   8.979 -0.4085 -0.5445 -0.3582
  845SOL    HW1 7665   0.217   8.231   9.000  1.3728  0.4186  0.0132
  845SOL    HW2 7666   0.223   8.119   8.898 -1.2792  0.5887 -0.3680
  846SOL     OW 7667   9.739   7.408   9.146 -0.2472  0.1452  0.5220
  846SOL    HW1 7668   9.655   7.450   9.163  0.2796  1.0266  1.0244
  846SOL    HW2 7669   9.783   7.409   9.232 -0.8698 -2.9146  0.9266
  847SOL     OW 7670   3.601   7.818   9.391  0.0699 -0.0003  0.0814
  847SOL    HW1 7671   3.634   7.824   9.302 -0.3448 -1.4751 -0.1796
  847SOL    HW2 7672   3.674   7.846   9.446  0.2813  1.0417 -0.7084
  848SOL     OW 7673   7.356  11.095   6.693  0.4531 -0.6505 -0.5241
  848SOL    HW1 7674   7.375  11.153   6.766 -0.1845 -0.7327 -0.2914
  848SOL    HW2 7675   7.264  11.072   6.703  0.4966 -1.0835 -1.0541
  849SOL     OW 7676   5.281   7.706   1.972 -0.1120 -0.0305  0.1647
  849SOL    HW1 7677   5.278   7.611   1.976 -0.2404 -0.0533 -0.4990
  849SOL    HW2 7678   5.325   7.725   1.889  0.0949  0.4852  0.3904
  850SOL     OW 7679   2.317   7.643   2.729 -0.9558  0.2886  0.0177
  850SOL    HW1 7680   2.351   7.668   2.643  0.5796  1.5767  0.9822
  850SOL    HW2 7681   2.394   7.617   2.780 -2.0149 -1.9316  0.5550
  851SOL     OW 7682   7.381   4.170   3.762 -0.6381  0.3153  0.0672
  851SOL    HW1 7683   7.312   4.131   3.815  1.9242 -0.5451  2.8835
  851SOL    HW2 7684   7.377   4.123   3.678 -2.9126 -0.2433  0.4619
  852SOL     OW 7685   4.908   9.041   9.972 -0.0968 -0.6426  0.2291
  852SOL    HW1 7686   4.918   9.118   9.916  4.2854  0.4141  2.2633
  852SOL    HW2 7687   4.950   8.970   9.924  0.4059 -0.5576  0.5283
  853SOL     OW 7688  11.076   8.056   1.549  0.4460 -0.1920 -0.0410
  853SOL    HW1 7689  11.094   8.068   1.456  2.3848 -0.1953  0.3016
  853SOL    HW2 7690  10.983   8.076   1.559  0.4098  0.5974 -1.8318
  854SOL     OW 7691   0.581   9.995   7.694  0.3269 -0.0745  0.1939
  854SOL    HW1 7692   0.586  10.067   7.632 -0.1359 -0.0035  0.2374
  854SOL    HW2 7693   0.629   9.924   7.651 -0.4835 -0.2129 -0.5172
  855SOL     OW 7694   9.762  10.884   5.326 -0.4112  0.3564  0.2788
  855SOL    HW1 7695   9.785  10.971   5.294  0.7383 -0.6542 -1.7922
  855SOL    HW2 7696   9.840  10.854   5.373 -0.4113  0.0506  0.0871
  856SOL     OW 7697   3.376  11.009   3.914 -0.0088  0.5157 -0.1844
  856SOL    HW1 7698   3.446  10.943   3.912 -0.5587 -0.1202  0.8061
  856SOL    HW2 7699   3.406  11.073   3.979 -0.8800 -0.3756  1.1031
  857SOL     OW 7700   8.799   0.202   4.348 -0.5078 -0.5732  0.0865
  857SOL    HW1 7701   8.708   0.213   4.321 -0.7910 -0.3537  1.0826
  857SOL    HW2 7702   8.794   0.195   4.443  0.6450  0.9489  0.2838
  858SOL     OW 7703   8.320   3.534   7.127  0.3401 -0.5896 -1.0261
  858SOL    HW1 7704   8.235   3.526   7.084 -0.1520  0.7591 -0.3494
  858SOL    HW2 7705   8.299   3.542   7.220  0.8906  3.7749 -1.1740
  859SOL     OW 7706   5.449   4.237   5.732 -0.3948  0.1179  0.3269
  859SOL    HW1 7707   5.532   4.280   5.711  0.4137 -1.3307  0.4933
  859SOL    HW2 7708   5.470   4.179   5.806 -1.6104 -0.0547  0.5438
  860SOL     OW 7709   2.348   4.341   3.638  0.0812  0.0622 -0.5974
  860SOL    HW1 7710   2.271   4.333   3.696 -0.2995  1.3248 -0.9177
  860SOL    HW2 7711   2.405   4.269   3.665 -1.1382 -0.7897 -0.2343
  861SOL     OW 7712   3.121   9.441   7.833  0.4349  0.3212 -0.6320
  861SOL    HW1 7713   3.124   9.354   7.793 -0.6156 -0.3980  0.8161
  861SOL    HW2 7714   3.098   9.424   7.924  3.3461  1.8809  0.4583
  862SOL     OW 7715   1.881   8.184   2.530 -0.1768 -0.2223 -0.5452
  862SOL    HW1 7716   1.865   8.268   2.575  1.1937  0.9764 -2.2439
  862SOL    HW2 7717   1.834   8.193   2.447  2.3780  0.0538 -2.0067
  863SOL     OW 7718   6.262   2.838   5.029 -0.1950  0.2367 -0.2853
  863SOL    HW1 7719   6.220   2.777   5.089  1.2565 -0.1523  0.3669
  863SOL    HW2 7720   6.258   2.923   5.073 -1.3035  0.4215 -0.7363
  864SOL     OW 7721   7.567   9.388   1.687 -0.3216 -0.1119 -0.5716
  864SOL    HW1 7722   7.586   9.452   1.618 -0.6705  1.9411  1.1513
  864SOL    HW2 7723   7.475   9.404   1.710  0.1248  0.0665  1.1568
  865SOL     OW 7724   5.517   2.046   7.553  0.1243  0.2962 -0.0393
  865SOL    HW1 7725   5.434   2.093   7.559 -1.4057 -2.2043 -0.6553
  865SOL    HW2 7726   5.529   2.007   7.640 -0.2140 -0.7061 -0.4320
  866SOL     OW 7727   7.168   8.596   7.349  0.0187  0.6589 -0.4270
  866SOL    HW1 7728   7.075   8.610   7.371 -0.2786  0.5885 -1.5908
  866SOL    HW2 7729   7.182   8.503   7.366  0.0828  0.8295  0.4821
  867SOL     OW 7730   7.955   3.730   5.840 -0.1469 -0.2328  0.1916
  867SOL    HW1 7731   7.952   3.771   5.927 -1.0029 -1.6041  0.8270
  867SOL    HW2 7732   7.872   3.752   5.800 -0.7714 -1.6089  0.6810
  868SOL     OW 7733   3.647   4.635   7.261  0.2500  0.4107 -0.5909
  868SOL    HW1 7734   3.625   4.554   7.214 -2.1644  1.3349 -1.0838
  868SOL    HW2 7735   3.668   4.606   7.350 -1.8403 -0.6512 -0.4124
  869SOL     OW 7736  10.216   5.772   3.129  0.7215  0.1411  0.1903
  869SOL    HW1 7737  10.158   5.729   3.192 -1.1389  0.0260 -1.5323
  869SOL    HW2 7738  10.193   5.865   3.136  1.1829  0.2402  0.3668
  870SOL     OW 7739   7.701   5.118   1.813 -0.1362 -0.7163  0.0069
  870SOL    HW1 7740   7.719   5.116   1.719 -0.9210  0.2022 -0.1746
  870SOL    HW2 7741   7.632   5.184   1.822  1.9570  1.3419  1.5436
  871SOL     OW 7742   8.769   0.835   8.007  0.1957 -0.4496 -0.0196
  871SOL    HW1 7743   8.752   0.867   7.918  0.9473 -1.5163 -0.5608
  871SOL    HW2 7744   8.860   0.808   8.006 -0.0323 -1.2905  0.8196
  872SOL     OW 7745   8.652   6.864   3.993 -0.0621  0.5232 -0.2063
  872SOL    HW1 7746   8.563   6.885   3.964 -0.6646 -1.1392  0.3684
  872SOL    HW2 7747   8.662   6.771   3.976  1.3894  0.5798  0.2243
  873SOL     OW 7748   1.526   9.102  10.827  0.1878  0.1088  0.1280
  873SOL    HW1 7749   1.587   9.166  10.865  0.4396  1.7363 -2.8903
  873SOL    HW2 7750   1.443   9.120  10.872  0.6255  1.5172  0.4272
  874SOL     OW 7751   6.965   5.744  10.535  0.1312  0.3718 -0.0688
  874SOL    HW1 7752   7.048   5.701  10.558  1.3573  2.7460  0.1933
  874SOL    HW2 7753   6.931   5.775  10.619 -0.2584  0.7187 -0.3541
  875SOL     OW 7754   2.710   3.133   3.642 -0.4767 -0.3508 -0.9296
  875SOL    HW1 7755   2.772   3.088   3.585 -0.4766 -1.3857 -0.1201
  875SOL    HW2 7756   2.746   3.222   3.651  0.2972 -0.6180 -1.3643
  876SOL     OW 7757   2.226  11.302  10.850  0.3341 -0.2573  0.1795
  876SOL    HW1 7758   2.271  11.384  10.833 -0.1393  0.0461  0.3943
  876SOL    HW2 7759   2.281  11.257  10.915  0.0862  0.3086  0.7756
  877SOL     OW 7760   7.578   3.713   4.604  0.4575  0.1210  0.3812
  877SOL    HW1 7761   7.646   3.647   4.606  1.2016  0.8376 -0.8788
  877SOL    HW2 7762   7.501   3.667   4.571  0.1511 -0.8244  2.3295
  878SOL     OW 7763   7.797   9.915   7.875 -0.0856 -0.2233 -0.1209
  878SOL    HW1 7764   7.789  10.011   7.878  1.2694 -0.1457  1.4550
  878SOL    HW2 7765   7.774   9.893   7.784 -0.2400  1.6045 -0.5617
  879SOL     OW 7766   2.513  10.694   3.829  1.6337  0.1219 -0.7141
  879SOL    HW1 7767   2.529  10.645   3.910  1.9446 -0.0579 -0.8866
  879SOL    HW2 7768   2.542  10.783   3.850  2.9092 -0.2134 -1.0409
  880SOL     OW 7769   3.455   2.027  10.245 -0.2652 -0.7278  0.3909
  880SOL    HW1 7770   3.461   2.090  10.316  2.0251 -2.0815  1.4727
  880SOL    HW2 7771   3.420   1.948  10.285  0.7205 -1.3978 -0.0221
  881SOL     OW 7772   3.175   2.519   1.369 -0.2563  0.2024  0.5562
  881SOL    HW1 7773   3.268   2.535   1.385 -0.3048  0.3357  0.7083
  881SOL    HW2 7774   3.147   2.467   1.445 -0.1511 -0.4092  0.1841
  882SOL     OW 7775   5.103   5.402   1.841  0.2023 -0.2347  0.0586
  882SOL    HW1 7776   5.116   5.403   1.936  1.2890  0.3358 -0.0940
  882SOL    HW2 7777   5.020   5.448   1.828  0.2941  0.1189  0.7004
  883SOL     OW 7778   9.793  10.569  10.057 -0.3524  0.1259  0.4424
  883SOL    HW1 7779   9.810  10.659  10.029  2.2510  0.7010  3.5308
  883SOL    HW2 7780   9.721  10.577  10.119  1.1805  0.4073  2.2289
  884SOL     OW 7781   2.237   8.203   3.742 -0.0033  0.2038  0.0057
  884SOL    HW1 7782   2.164   8.223   3.684  0.4356 -1.0199 -0.9904
  884SOL    HW2 7783   2.244   8.280   3.799 -2.6050 -0.0260  0.7116
  885SOL     OW 7784   6.502   9.473  11.175 -0.4812 -0.6796  0.4068
  885SOL    HW1 7785   6.525   9.491  11.084  2.9428 -2.3374  0.8440
  885SOL    HW2 7786   6.528   9.552  11.222 -1.3058 -0.2170  0.0925
  886SOL     OW 7787   3.402  11.133   2.990  0.0904  0.0715 -0.5724
  886SOL    HW1 7788   3.341  11.128   2.916 -0.0354 -0.4486 -0.4343
  886SOL    HW2 7789   3.462  11.204   2.967 -0.1304  0.1082 -1.0386
  887SOL     OW 7790   9.403   6.956   9.639 -0.3137  0.3734 -0.8900
  887SOL    HW1 7791   9.325   7.009   9.656  0.4111  0.7445  1.4204
  887SOL    HW2 7792   9.373   6.865   9.648 -0.8076  0.4779 -1.4849
  888SOL     OW 7793   3.727   9.724   1.223 -0.4410 -0.5971 -0.5661
  888SOL    HW1 7794   3.719   9.713   1.318 -0.1893 -0.5016 -0.5328
  888SOL    HW2 7795   3.645   9.689   1.188 -2.4446  3.2764 -0.0342
  889SOL     OW 7796   4.526   6.117   5.292  0.2911  0.7142 -0.4142
  889SOL    HW1 7797   4.552   6.137   5.202 -0.4605  0.5480 -0.6698
  889SOL    HW2 7798   4.558   6.029   5.308  0.0336  0.5752 -0.6725
  890SOL     OW 7799   0.629   2.952   6.404 -0.4120 -0.3403 -0.5262
  890SOL    HW1 7800   0.685   2.989   6.335 -0.1042  2.4925  1.1818
  890SOL    HW2 7801   0.690   2.927   6.473 -1.0283  0.7650  0.4468
  891SOL     OW 7802   9.414   9.243   6.386 -0.0344  0.2983 -0.4805
  891SOL    HW1 7803   9.502   9.278   6.372  0.5829 -1.1525 -0.2452
  891SOL    HW2 7804   9.413   9.215   6.478 -0.5143 -0.3236 -0.6731
  892SOL     OW 7805   2.654   6.430  11.335  0.0929  0.1373 -0.4163
  892SOL    HW1 7806   2.739   6.465  11.307  0.6883  0.9556  2.2357
  892SOL    HW2 7807   2.635   6.476  11.417 -3.3895  0.6515 -1.4337
  893SOL     OW 7808   5.169   8.709   2.458 -0.3034 -0.0732 -0.4328
  893SOL    HW1 7809   5.128   8.718   2.544 -1.5654  1.2735 -1.1458
  893SOL    HW2 7810   5.243   8.769   2.459  1.2451 -1.9279  0.5778
  894SOL     OW 7811   3.618   0.765  10.921 -0.0355 -0.1841  0.3137
  894SOL    HW1 7812   3.620   0.685  10.972 -1.2537 -0.3826  0.0704
  894SOL    HW2 7813   3.558   0.823  10.968  0.5517  0.4593  0.2951
  895SOL     OW 7814   8.302   2.624   3.239 -0.2681  0.1945  0.2596
  895SOL    HW1 7815   8.296   2.660   3.150 -0.9878 -0.9409 -0.1574
  895SOL    HW2 7816   8.285   2.699   3.296  0.7716  1.0597 -0.5378
  896SOL     OW 7817   9.151   3.245   7.375 -0.6393  0.0768  0.2854
  896SOL    HW1 7818   9.081   3.232   7.439 -0.7486 -0.4363  0.0597
  896SOL    HW2 7819   9.119   3.203   7.295 -0.0392 -0.2298  0.2054
  897SOL     OW 7820   8.126   1.567   5.941 -0.1897 -0.0366  0.1854
  897SOL    HW1 7821   8.133   1.588   5.848 -0.3078  0.1960  0.2305
  897SOL    HW2 7822   8.064   1.494   5.944  0.1938 -0.3704  0.0343
  898SOL     OW 7823   4.083   8.788   3.334  0.0782  0.3458  0.0065
  898SOL    HW1 7824   4.087   8.823   3.423  1.4630 -1.0247  0.5106
  898SOL    HW2 7825   4.173   8.761   3.315 -0.2613  0.3590 -1.6993
  899SOL     OW 7826   1.551   3.722  11.184  0.3444 -0.0421  0.4211
  899SOL    HW1 7827   1.635   3.736  11.141  0.8307 -1.8317  0.7476
  899SOL    HW2 7828   1.495   3.685  11.116  0.1389  0.1574  0.4809
  900SOL     OW 7829   7.836   8.286   8.375 -0.1141 -0.7817 -0.0468
  900SOL    HW1 7830   7.894   8.286   8.299  1.4508 -0.6912  1.1390
  900SOL    HW2 7831   7.879   8.342   8.439 -3.2291  2.2327 -0.3951
  901SOL     OW 7832   5.912   6.205   3.156  0.5981 -0.3887  0.2784
  901SOL    HW1 7833   5.955   6.259   3.223 -1.6732 -0.8213  2.1788
  901SOL    HW2 7834   5.881   6.267   3.091  1.2294  0.2331  0.5682
  902SOL     OW 7835   7.784   1.127   8.738  0.3835  0.3391 -0.0910
  902SOL    HW1 7836   7.787   1.184   8.814  0.7437  2.1167 -1.4025
  902SOL    HW2 7837   7.712   1.162   8.685 -0.0554 -1.0598 -0.4423
  903SOL     OW 7838   1.451   6.608   8.488  0.7304 -0.1388 -0.0855
  903SOL    HW1 7839   1.507   6.556   8.545  0.8467  0.6319  0.5057
  903SOL    HW2 7840   1.364   6.568   8.497  0.6798  0.1643  0.8742
  904SOL     OW 7841   9.185   6.741   3.052 -0.7903  0.4527 -0.1125
  904SOL    HW1 7842   9.252   6.751   2.985 -1.2321  2.4879 -0.3032
  904SOL    HW2 7843   9.184   6.826   3.097 -3.1039  0.4122 -0.0149
  905SOL     OW 7844   9.319   0.781   1.316  0.2628 -0.2108 -0.1302
  905SOL    HW1 7845   9.263   0.747   1.386 -1.1265  0.9749 -0.6487
  905SOL    HW2 7846   9.407   0.777   1.353 -0.3373 -0.5844  1.3060
  906SOL     OW 7847   3.869   5.320   6.246  0.3415  0.3174  0.0733
  906SOL    HW1 7848   3.796   5.377   6.270  0.0246 -0.4893  1.0414
  906SOL    HW2 7849   3.868   5.251   6.312  0.9691 -0.5899 -0.8573
  907SOL     OW 7850   0.910   7.339  10.023  0.1933  0.1996  0.3253
  907SOL    HW1 7851   0.973   7.273   9.993 -1.1246 -0.9057 -0.0668
  907SOL    HW2 7852   0.947   7.372  10.105 -0.0871 -2.4549  1.5783
  908SOL     OW 7853   5.259   3.045   5.202 -0.1185  0.2667 -0.4112
  908SOL    HW1 7854   5.311   2.968   5.224  1.0873  1.0258 -0.5669
  908SOL    HW2 7855   5.227   3.028   5.114  0.6153  0.2004 -0.6632
  909SOL     OW 7856   1.924   3.391  10.732 -0.1254 -0.6841  0.2371
  909SOL    HW1 7857   1.883   3.318  10.778 -2.1633  0.5900  0.5242
  909SOL    HW2 7858   1.935   3.359  10.643 -0.7653 -1.4508  0.4192
  910SOL     OW 7859   0.982   5.800   9.092 -0.3683  0.0476 -0.3104
  910SOL    HW1 7860   1.005   5.874   9.037  1.3526 -0.4002 -0.2429
  910SOL    HW2 7861   1.042   5.730   9.064 -1.0009 -0.8717  0.5795
  911SOL     OW 7862   6.829   2.108   3.442  0.4007 -0.0635 -0.0379
  911SOL    HW1 7863   6.815   2.192   3.398 -1.9695 -0.8824 -0.9425
  911SOL    HW2 7864   6.856   2.048   3.372 -0.0010 -0.5618  0.2335
  912SOL     OW 7865   7.923   8.612   2.336 -0.0075 -0.1898  0.1836
  912SOL    HW1 7866   7.859   8.680   2.314  1.1793  0.9260  0.1508
  912SOL    HW2 7867   7.892   8.576   2.419 -1.1328 -0.2385 -0.2392
  913SOL     OW 7868   4.026   1.038   0.210 -0.6161  0.1486 -0.1000
  913SOL    HW1 7869   4.026   1.105   0.142 -1.6129  0.3208  0.0627
  913SOL    HW2 7870   4.109   1.051   0.257  0.1527 -0.0770 -1.3749
  914SOL     OW 7871   5.208  10.272   3.409 -0.4636  0.6403 -0.1472
  914SOL    HW1 7872   5.205  10.365   3.431  3.2525  1.0421 -0.9602
  914SOL    HW2 7873   5.185  10.269   3.316 -0.2484  0.8015 -0.2070
  915SOL     OW 7874   7.214   0.329   4.933 -0.2593  0.3927 -0.1250
  915SOL    HW1 7875   7.158   0.309   5.007 -0.4197  1.0581 -0.0642
  915SOL    HW2 7876   7.197   0.258   4.870 -0.7340  0.2773  0.1317
  916SOL     OW 7877   9.881   7.248  10.736 -0.5902 -0.6301  0.1140
  916SOL    HW1 7878   9.880   7.243  10.832  1.3902 -1.6251  0.1192
  916SOL    HW2 7879   9.952   7.189  10.710  0.8784  1.8860 -1.8232
  917SOL     OW 7880   6.384   0.971   9.220 -0.2573  0.8223 -0.2143
  917SOL    HW1 7881   6.416   1.048   9.174 -1.2135  1.9205  0.9131
  917SOL    HW2 7882   6.292   0.966   9.197 -0.3972  0.5216  0.4074
  918SOL     OW 7883   5.705   7.143   2.705 -0.9282  0.4300 -0.1544
  918SOL    HW1 7884   5.638   7.165   2.640 -0.5333  1.3281 -0.2743
  918SOL    HW2 7885   5.719   7.225   2.752 -1.1136 -0.1836  0.9732
  919SOL     OW 7886   5.789   4.647   7.330 -0.8119 -0.3779  0.3220
  919SOL    HW1 7887   5.694   4.644   7.336 -0.8230 -0.5632  0.0639
  919SOL    HW2 7888   5.809   4.605   7.247 -0.4998 -0.4113  0.4129
  920SOL     OW 7889   2.448  10.675   8.182  0.1326 -0.4496  0.1785
  920SOL    HW1 7890   2.414  10.764   8.175  3.5614  0.7830 -2.0681
  920SOL    HW2 7891   2.371  10.619   8.175 -2.2149  2.3065  2.6652
  921SOL     OW 7892   1.053   2.348   5.394 -0.0590  0.3838 -0.9311
  921SOL    HW1 7893   1.014   2.261   5.408  0.3350  0.6561  2.1528
  921SOL    HW2 7894   0.988   2.408   5.431  1.2807  1.1470  0.1880
  922SOL     OW 7895   1.019   7.368   3.046 -0.6700  0.2756 -0.2459
  922SOL    HW1 7896   0.970   7.430   2.992  0.0298 -0.2796 -1.5396
  922SOL    HW2 7897   0.989   7.281   3.017  0.0756 -0.0376 -0.1061
  923SOL     OW 7898   4.323   7.616  10.191  0.2883  0.5783  0.4946
  923SOL    HW1 7899   4.292   7.567  10.267 -0.7710 -1.0776 -0.9590
  923SOL    HW2 7900   4.243   7.641  10.145  0.9699 -0.0313 -1.0522
  924SOL     OW 7901   7.219   1.925   4.085 -0.1606 -0.6201 -0.1279
  924SOL    HW1 7902   7.227   1.847   4.030  0.4809 -0.7199  0.1102
  924SOL    HW2 7903   7.130   1.956   4.068 -0.0049 -0.6979 -1.1710
  925SOL     OW 7904   1.025   4.702   9.467  0.3492  0.0524  0.1289
  925SOL    HW1 7905   0.961   4.640   9.432 -0.5389  2.3646 -2.4921
  925SOL    HW2 7906   1.065   4.741   9.389  2.2361  1.4029  1.7441
  926SOL     OW 7907   3.097   9.135   8.979  0.5914 -0.4015  0.0390
  926SOL    HW1 7908   3.039   9.087   9.038  0.3913 -0.1185  0.0718
  926SOL    HW2 7909   3.052   9.133   8.895  1.0879 -1.1938 -0.2182
  927SOL     OW 7910   9.988   4.844   5.680  0.0206 -0.0669 -0.4917
  927SOL    HW1 7911   9.989   4.931   5.721 -0.5699  0.7823 -2.1861
  927SOL    HW2 7912   9.990   4.863   5.586  0.6827 -1.9293 -0.8693
  928SOL     OW 7913   0.151   9.776   6.642 -0.5224 -0.3312 -0.4711
  928SOL    HW1 7914   0.154   9.856   6.694  0.2297  0.3084 -1.4981
  928SOL    HW2 7915   0.182   9.802   6.556 -1.1741 -1.5261 -1.0762
  929SOL     OW 7916   8.890   4.085   7.282 -0.4304  0.0363  1.3445
  929SOL    HW1 7917   8.846   4.002   7.303 -1.6188  0.4385  0.4861
  929SOL    HW2 7918   8.964   4.059   7.227  0.1620 -0.6031  2.4203
  930SOL     OW 7919   9.018   5.840   4.362  0.1118  1.0563  0.4072
  930SOL    HW1 7920   9.072   5.771   4.324 -1.9951 -0.5162  0.1914
  930SOL    HW2 7921   8.993   5.807   4.448 -1.9982  0.9222 -0.2225
  931SOL     OW 7922   5.447   3.878  11.007 -0.3142 -0.4888 -0.4181
  931SOL    HW1 7923   5.524   3.929  11.034  0.4677 -1.5257 -0.6027
  931SOL    HW2 7924   5.411   3.925  10.933 -0.2666  0.3878  0.1048
  932SOL     OW 7925   8.330   7.199  10.057 -0.1695  0.0468  0.8261
  932SOL    HW1 7926   8.288   7.284  10.047  0.3954  0.3971  1.4300
  932SOL    HW2 7927   8.307   7.170  10.145 -2.0341 -1.3491 -0.0853
  933SOL     OW 7928   0.676   3.491   3.490  0.1332  0.6805  0.0942
  933SOL    HW1 7929   0.588   3.530   3.492  0.1545  0.7667 -0.4123
  933SOL    HW2 7930   0.664   3.404   3.529 -0.6640 -0.2135 -2.0253
  934SOL     OW 7931   0.144  11.081   5.598  0.0411  0.0575  0.2088
  934SOL    HW1 7932   0.221  11.053   5.548 -0.2278 -0.4097  0.0527
  934SOL    HW2 7933   0.103  11.148   5.544  0.3188  0.2852  0.2780
  935SOL     OW 7934  10.458   9.962   4.182  0.4633  0.1002 -0.5581
  935SOL    HW1 7935  10.542   9.917   4.188 -1.0625 -2.7946  0.0669
  935SOL    HW2 7936  10.402   9.900   4.135 -1.8894  1.1017  0.8711
  936SOL     OW 7937   1.675  10.626  10.324  0.0439  0.7400 -0.5965
  936SOL    HW1 7938   1.586  10.659  10.340 -0.3198  0.3145 -1.6658
  936SOL    HW2 7939   1.704  10.591  10.408 -1.9105 -1.7199 -0.8885
  937SOL     OW 7940   6.000   3.282   8.510 -0.2134 -0.2435  0.0347
  937SOL    HW1 7941   5.964   3.216   8.451  2.6716 -1.9119  0.0360
  937SOL    HW2 7942   6.035   3.350   8.453  1.0550 -1.0329 -0.1380
  938SOL     OW 7943   1.961   8.106  11.225  0.5490  0.1526 -0.4306
  938SOL    HW1 7944   2.045   8.083  11.185  0.3091 -0.9333 -0.3025
  938SOL    HW2 7945   1.980   8.186  11.274  0.7474  1.7552 -3.0204
  939SOL     OW 7946   9.927   1.965  10.971 -0.0261  0.3685  0.1495
  939SOL    HW1 7947   9.969   1.911  11.039  1.1208  1.5734  0.4044
  939SOL    HW2 7948   9.897   2.043  11.018 -2.7584 -0.5337  0.0114
  940SOL     OW 7949   1.043   1.346   5.304 -0.7823  0.0449  0.0746
  940SOL    HW1 7950   1.108   1.292   5.348 -0.5438 -1.6675 -2.3082
  940SOL    HW2 7951   1.093   1.402   5.245 -1.4072 -0.8824 -1.3558
  941SOL     OW 7952   8.238  11.116   3.774 -0.6081 -0.4421  0.4079
  941SOL    HW1 7953   8.182  11.040   3.755 -2.3059  0.9544 -0.4130
  941SOL    HW2 7954   8.322  11.095   3.734 -1.5813 -1.1794 -1.3183
  942SOL     OW 7955  10.996   9.530   3.741 -0.7615  0.3279  0.0522
  942SOL    HW1 7956  10.981   9.536   3.647 -1.2827 -2.6908 -0.1197
  942SOL    HW2 7957  11.090   9.519   3.750 -0.7568  0.2105 -0.1507
  943SOL     OW 7958   4.602   1.337   9.293  0.3307  0.8681 -0.0032
  943SOL    HW1 7959   4.592   1.407   9.228  1.0999  1.7458  0.7977
  943SOL    HW2 7960   4.514   1.302   9.304 -0.3684  2.7520  0.7001
  944SOL     OW 7961   2.612  11.236   1.843 -0.3529  0.1926 -0.2966
  944SOL    HW1 7962   2.616  11.154   1.794 -1.0149  0.0583 -0.1224
  944SOL    HW2 7963   2.529  11.275   1.817 -0.5661  0.2635  0.4884
  945SOL     OW 7964   5.359   2.763   5.823 -0.2724  0.4488  0.1282
  945SOL    HW1 7965   5.316   2.817   5.756  2.6632  1.7888 -0.7463
  945SOL    HW2 7966   5.422   2.710   5.774 -1.0613 -1.7171  1.3497
  946SOL     OW 7967   5.177   6.137   7.883 -0.1458 -0.3372 -0.3585
  946SOL    HW1 7968   5.216   6.160   7.967 -0.0820  0.0611 -0.4953
  946SOL    HW2 7969   5.095   6.187   7.880 -0.4682 -0.8551 -0.2492
  947SOL     OW 7970   9.369   0.102   3.005 -0.5064 -0.1403 -0.1943
  947SOL    HW1 7971   9.327   0.018   2.985 -0.4489 -0.1159 -0.4273
  947SOL    HW2 7972   9.445   0.105   2.947 -0.0664 -0.2728  0.3819
  948SOL     OW 7973   5.683   4.806   4.265  0.0959  0.2001 -0.1826
  948SOL    HW1 7974   5.748   4.850   4.210  0.7512 -0.9795 -0.3649
  948SOL    HW2 7975   5.607   4.796   4.208  0.2618  0.2877 -0.4241
  949SOL     OW 7976   7.537   4.292   9.699  0.4145 -0.2142 -0.0005
  949SOL    HW1 7977   7.476   4.330   9.636 -0.5286 -1.3792  0.1818
  949SOL    HW2 7978   7.483   4.269   9.774  1.0595 -1.2856  0.1598
  950SOL     OW 7979   7.706   6.987   2.181  0.0882 -0.0810  0.5224
  950SOL    HW1 7980   7.644   7.057   2.201 -0.7787  0.0097 -2.1714
  950SOL    HW2 7981   7.657   6.929   2.121  1.3443 -2.0805  1.3862
  951SOL     OW 7982   4.924   9.371  10.518 -0.3614 -0.7719 -0.0887
  951SOL    HW1 7983   4.982   9.408  10.585 -0.5844  1.7335 -1.2157
  951SOL    HW2 7984   4.957   9.282  10.504  3.4900  0.6845 -0.9875
  952SOL     OW 7985   2.089   8.306   3.531  0.6035  0.0563 -0.1500
  952SOL    HW1 7986   2.158   8.358   3.491  0.7239 -1.2479 -1.6903
  952SOL    HW2 7987   2.007   8.346   3.501  0.6811  0.5132  0.2347
  953SOL     OW 7988   7.297   1.948   9.719  0.2845  0.7418 -0.0981
  953SOL    HW1 7989   7.287   2.039   9.749 -0.3691  0.4094  0.7299
  953SOL    HW2 7990   7.384   1.922   9.748  0.4980  1.1322 -0.3965
  954SOL     OW 7991   3.525   5.438  10.394  0.7829  0.4734  0.1092
  954SOL    HW1 7992   3.605   5.485  10.370  3.5256 -3.0696  1.8480
  954SOL    HW2 7993   3.495   5.399  10.312  0.7791  1.9199 -0.5794
  955SOL     OW 7994   5.790   3.189   2.063 -0.0013 -0.1693  0.4796
  955SOL    HW1 7995   5.841   3.265   2.037 -2.2657  2.1067  2.4586
  955SOL    HW2 7996   5.855   3.119   2.074  2.0608  1.3568 -1.6771
  956SOL     OW 7997  10.431  10.472   5.207  0.6444  0.4845  0.1846
  956SOL    HW1 7998  10.361  10.531   5.176  0.1280  0.1199  0.6422
  956SOL    HW2 7999  10.411  10.388   5.166  1.8574  0.8177 -1.1351
  957SOL     OW 8000   7.851   2.312   9.573  0.0332  0.1136 -0.2305
  957SOL    HW1 8001   7.913   2.382   9.552  0.1004 -0.0085 -0.4420
  957SOL    HW2 8002   7.868   2.292   9.665  2.2589 -1.8475 -1.0203
  958SOL     OW 8003   1.162   9.186   4.821  0.2967  0.1229  0.6323
  958SOL    HW1 8004   1.141   9.104   4.777  0.3039 -0.1992  1.2227
  958SOL    HW2 8005   1.243   9.216   4.780 -1.5726  1.6761 -2.1030
  959SOL     OW 8006   9.341   9.371   1.288  0.3382 -0.4865  0.0001
  959SOL    HW1 8007   9.280   9.303   1.258 -1.3759  0.6508  0.7766
  959SOL    HW2 8008   9.324   9.445   1.229 -0.5110  0.5288  1.4783
  960SOL     OW 8009   7.145   5.190   4.503  0.0307  0.3827  0.1169
  960SOL    HW1 8010   7.198   5.178   4.423  0.7642  0.3346  0.6088
  960SOL    HW2 8011   7.116   5.101   4.525 -0.4795  0.4412 -0.3003
  961SOL     OW 8012   0.500   8.458   9.548  0.2107  0.1881  0.0491
  961SOL    HW1 8013   0.449   8.401   9.490 -1.5970  1.4015  0.4370
  961SOL    HW2 8014   0.577   8.482   9.496 -1.5358  1.5297 -2.0119
  962SOL     OW 8015   1.538   2.614   0.525  0.8251  0.1145  0.2644
  962SOL    HW1 8016   1.490   2.538   0.559  0.9449  0.7711  1.9166
  962SOL    HW2 8017   1.600   2.577   0.462 -0.0257 -1.0129  0.0748
  963SOL     OW 8018   5.255  10.559   9.863  0.5588 -0.5081 -0.0673
  963SOL    HW1 8019   5.248  10.464   9.851 -1.0430 -0.3909 -0.0792
  963SOL    HW2 8020   5.292  10.569   9.951 -0.8298 -1.1185  0.5849
  964SOL     OW 8021   4.806   4.191  10.302 -0.1876 -0.3711 -0.7146
  964SOL    HW1 8022   4.712   4.178  10.285 -0.1264 -1.9649  0.0723
  964SOL    HW2 8023   4.849   4.125  10.248  0.5418  0.8502 -1.6526
  965SOL     OW 8024   9.671   8.655   6.164  0.0849  0.1081 -0.0695
  965SOL    HW1 8025   9.640   8.626   6.250  0.2179  1.3677  0.4155
  965SOL    HW2 8026   9.749   8.707   6.184  0.9427 -0.7647 -1.0746
  966SOL     OW 8027   7.796   7.031   7.815  0.2544  0.3416 -0.0502
  966SOL    HW1 8028   7.835   6.950   7.847 -1.0844 -0.2852  0.0113
  966SOL    HW2 8029   7.783   7.017   7.721 -0.1554  0.4129 -0.0055
  967SOL     OW 8030   6.845  10.219   7.645 -0.0573  0.5002  0.1776
  967SOL    HW1 8031   6.776  10.283   7.627  0.4828  1.4179  1.3244
  967SOL    HW2 8032   6.921  10.252   7.597 -0.3373 -0.3885 -0.8945
  968SOL     OW 8033   7.379   5.196   1.961 -0.4069  0.2262 -0.4863
  968SOL    HW1 8034   7.294   5.237   1.979 -0.1313  0.4942  0.2717
  968SOL    HW2 8035   7.417   5.249   1.891  0.4078  1.9897  1.2172
  969SOL     OW 8036  10.201   8.154   9.679  0.2882  0.0577 -0.4914
  969SOL    HW1 8037  10.226   8.244   9.659 -2.4993  1.2131  0.9460
  969SOL    HW2 8038  10.140   8.130   9.609 -0.5048  0.0009  0.2109
  970SOL     OW 8039   8.216   0.014   0.970 -0.0453 -0.8650 -0.0043
  970SOL    HW1 8040   8.296  -0.027   0.936  1.2229 -0.1595  2.0328
  970SOL    HW2 8041   8.243   0.055   1.052 -1.7690  2.2042 -0.8832
  971SOL     OW 8042   5.916   4.678   8.479 -0.0123 -0.1702 -0.8338
  971SOL    HW1 8043   5.913   4.766   8.440 -0.1210  0.0478 -0.3462
  971SOL    HW2 8044   5.842   4.632   8.441 -1.1995  0.6282  0.4807
  972SOL     OW 8045   5.693   1.363   7.105 -0.4952 -0.2399 -0.2089
  972SOL    HW1 8046   5.679   1.391   7.195 -1.2076  0.4519 -0.5281
  972SOL    HW2 8047   5.631   1.290   7.093 -1.1952  0.3868 -0.4696
  973SOL     OW 8048   5.062   4.356   9.680  0.1709  0.1185  0.1682
  973SOL    HW1 8049   5.144   4.381   9.637  1.0818 -1.3556  0.9767
  973SOL    HW2 8050   5.084   4.359   9.774 -0.1362 -2.1450  0.3219
  974SOL     OW 8051   6.091   1.169   7.354  0.3341 -0.3806 -0.4054
  974SOL    HW1 8052   6.136   1.251   7.375 -0.3479  0.1740 -1.1236
  974SOL    HW2 8053   6.047   1.186   7.271 -2.9264 -0.2400  1.2912
  975SOL     OW 8054   5.079  10.072   1.443  0.0768 -0.4840  0.2441
  975SOL    HW1 8055   5.110   9.995   1.490  1.1508 -0.7608 -0.8926
  975SOL    HW2 8056   5.014  10.038   1.381  2.1087 -0.8238 -1.7706
  976SOL     OW 8057   8.134   9.184   9.907 -0.1302 -0.2417  0.3784
  976SOL    HW1 8058   8.180   9.226   9.979  0.3685 -0.6512  0.2982
  976SOL    HW2 8059   8.186   9.205   9.830 -1.5243  1.5600 -0.1108
  977SOL     OW 8060   4.225   6.372   9.742 -0.2817 -0.4385  0.1262
  977SOL    HW1 8061   4.152   6.311   9.737  0.1649 -1.0908  1.4282
  977SOL    HW2 8062   4.278   6.352   9.665  0.4404 -2.4529  1.1353
  978SOL     OW 8063   8.586   0.038   2.240  0.1949  0.2511 -0.6303
  978SOL    HW1 8064   8.633  -0.039   2.272  1.6366  0.7270 -1.5307
  978SOL    HW2 8065   8.530   0.004   2.170 -0.5409 -0.2683  0.2101
  979SOL     OW 8066  10.180   5.981   2.388  0.2159 -0.2290 -0.0393
  979SOL    HW1 8067  10.217   6.026   2.464 -1.8319 -0.1983  1.0009
  979SOL    HW2 8068  10.136   6.051   2.339  0.9371 -0.3611 -0.8641
  980SOL     OW 8069  10.116   5.367   6.333  0.1888  0.3891 -0.1821
  980SOL    HW1 8070  10.146   5.278   6.351  0.9184  0.6120 -0.2680
  980SOL    HW2 8071  10.089   5.400   6.419  1.0376  0.4896  0.0518
  981SOL     OW 8072  11.185   1.302   1.293 -0.7075 -0.2136  0.5833
  981SOL    HW1 8073  11.250   1.240   1.259 -0.4758  0.5591 -0.4396
  981SOL    HW2 8074  11.176   1.280   1.385  1.3559 -0.0640  0.8462
  982SOL     OW 8075   5.499  11.254   2.991  0.0181  0.0660  0.4950
  982SOL    HW1 8076   5.469  11.205   2.915 -1.6576 -0.1670  1.2631
  982SOL    HW2 8077   5.520  11.187   3.056  1.6036  0.2562  0.1870
  983SOL     OW 8078   3.393   6.458   1.919  0.0973  0.0427 -0.6485
  983SOL    HW1 8079   3.327   6.427   1.980 -0.6732  2.7265 -0.0249
  983SOL    HW2 8080   3.474   6.413   1.945 -0.4869  0.2226  1.5727
  984SOL     OW 8081   2.154   4.659   9.889  0.3492  0.1492 -0.0843
  984SOL    HW1 8082   2.112   4.701   9.814  0.0781  2.0642  1.0923
  984SOL    HW2 8083   2.248   4.662   9.868  0.1715 -0.8884 -1.0989
  985SOL     OW 8084   1.529   3.176   5.932 -0.9459 -0.5688  0.0229
  985SOL    HW1 8085   1.618   3.153   5.907 -1.0286  0.1798 -1.0207
  985SOL    HW2 8086   1.474   3.132   5.867 -1.2438  0.2884 -0.3143
  986SOL     OW 8087   0.490   4.921   1.595  0.3122  0.1883  0.1218
  986SOL    HW1 8088   0.419   4.856   1.589 -1.3277  1.6518  2.7227
  986SOL    HW2 8089   0.510   4.925   1.688  2.6787  1.0656 -0.4078
  987SOL     OW 8090   6.514  11.330   4.494 -0.5231 -0.2126 -0.2843
  987SOL    HW1 8091   6.465  11.397   4.541  1.5953 -0.2434  2.0650
  987SOL    HW2 8092   6.591  11.376   4.461  1.2842 -1.5602  1.9101
  988SOL     OW 8093   6.076   2.194   1.380  0.2484 -0.2327  0.2706
  988SOL    HW1 8094   6.086   2.173   1.473  0.5026 -3.3483 -0.3923
  988SOL    HW2 8095   6.164   2.217   1.351 -0.1406  2.5260  1.1589
  989SOL     OW 8096   6.484   3.953   1.050  0.1575  0.0515  0.7183
  989SOL    HW1 8097   6.533   4.004   0.986 -1.1366  2.3692  1.5240
  989SOL    HW2 8098   6.401   3.999   1.059 -0.5760 -1.5328  2.3900
  990SOL     OW 8099   2.892   2.927   7.826 -0.0839 -0.3905 -0.6459
  990SOL    HW1 8100   2.810   2.884   7.800  0.1962 -0.1656 -1.8985
  990SOL    HW2 8101   2.953   2.856   7.841 -0.4915 -0.5600  0.2754
  991SOL     OW 8102   3.269   7.707   3.888 -0.6782  0.1367 -0.2981
  991SOL    HW1 8103   3.274   7.642   3.959  0.1695  0.4634 -0.0593
  991SOL    HW2 8104   3.187   7.753   3.904  0.5996  1.7660  1.8330
  992SOL     OW 8105   4.231   6.103   6.157 -0.4087 -0.3914 -0.8094
  992SOL    HW1 8106   4.305   6.158   6.184 -0.0018 -0.8831 -0.9195
  992SOL    HW2 8107   4.179   6.094   6.237  0.4308 -1.2633 -0.3410
  993SOL     OW 8108   1.125   7.194   9.315 -0.3068  0.4426 -0.3680
  993SOL    HW1 8109   1.118   7.259   9.244 -0.4226  0.4306 -0.3695
  993SOL    HW2 8110   1.097   7.112   9.275  0.7609  0.2029 -0.6263
  994SOL     OW 8111   6.399   2.745   6.562  0.1190  0.3272 -0.3994
  994SOL    HW1 8112   6.417   2.797   6.640  0.8585  0.1453 -0.4424
  994SOL    HW2 8113   6.363   2.807   6.499  0.8582  0.7569 -0.4018
  995SOL     OW 8114   5.637   6.107   6.074 -0.2050  0.8550 -0.3934
  995SOL    HW1 8115   5.593   6.078   6.155 -0.5343 -1.0549 -1.2224
  995SOL    HW2 8116   5.695   6.178   6.102 -1.6648  1.4469  1.2155
  996SOL     OW 8117   8.968   0.743   5.596  0.0265  0.3811 -0.0381
  996SOL    HW1 8118   8.930   0.831   5.594  0.2265  0.5077  1.0609
  996SOL    HW2 8119   9.014   0.739   5.681 -2.2243 -1.7264  1.1314
  997SOL     OW 8120   1.289   6.754   0.067  0.0964 -0.0099 -0.3924
  997SOL    HW1 8121   1.351   6.819   0.035 -0.5362  0.8552  0.1331
  997SOL    HW2 8122   1.301   6.679   0.008  1.3305  0.2981 -0.5588
  998SOL     OW 8123   1.037   9.559   1.855  0.5723  0.4427 -0.0253
  998SOL    HW1 8124   1.048   9.564   1.950  1.4052  1.7205 -0.1825
  998SOL    HW2 8125   1.125   9.570   1.821  0.0633  1.5178 -1.0062
  999SOL     OW 8126   6.011   4.356   7.800 -0.2338 -0.0298 -0.5419
  999SOL    HW1 8127   5.957   4.366   7.878  0.1877 -0.7236 -0.1601
  999SOL    HW2 8128   6.008   4.262   7.781 -0.2007  0.1110 -1.2623
 1000SOL     OW 8129   7.294   5.073   0.383 -0.0767 -0.3047  0.0110
 1000SOL    HW1 8130   7.372   5.119   0.352  0.5582 -3.0554 -2.7266
 1000SOL    HW2 8131   7.224   5.138   0.376  1.5538  1.5828  0.5292
 1001SOL     OW 8132   2.279   9.438   1.439 -0.0952 -0.4138  0.0107
 1001SOL    HW1 8133   2.325   9.414   1.519  1.2455 -1.0436 -0.9372
 1001SOL    HW2 8134   2.268   9.355   1.392 -1.6251 -0.1747 -0.0816
 1002SOL     OW 8135   5.447   4.201   9.001  0.1830  0.3780  0.4792
 1002SOL    HW1 8136   5.415   4.194   8.912  0.5430  0.3306  0.3510
 1002SOL    HW2 8137   5.410   4.283   9.034  1.5112  1.3095 -0.3254
 1003SOL     OW 8138   7.661   3.565   3.819  0.9450 -0.5857  0.4798
 1003SOL    HW1 8139   7.621   3.550   3.734  0.0204  0.0136  0.8024
 1003SOL    HW2 8140   7.688   3.478   3.848  2.8994 -0.5635 -1.2055
 1004SOL     OW 8141   7.372   2.808  10.151 -0.0395 -0.2904  0.4807
 1004SOL    HW1 8142   7.365   2.886  10.095  0.0655 -1.2541 -0.9022
 1004SOL    HW2 8143   7.293   2.759  10.133  1.4461 -2.1496 -1.2275
 1005SOL     OW 8144   0.235   1.505   7.508 -0.2772 -0.0920  0.3849
 1005SOL    HW1 8145   0.287   1.500   7.589  0.4968 -0.9612 -0.1517
 1005SOL    HW2 8146   0.291   1.463   7.442 -0.4510  1.5817 -0.8326
 1006SOL     OW 8147   7.146   7.750  10.252 -0.0677  0.4751 -0.2880
 1006SOL    HW1 8148   7.150   7.672  10.307 -1.2587  0.1574 -0.6427
 1006SOL    HW2 8149   7.232   7.791  10.262 -0.9638  1.5492  3.4437
 1007SOL     OW 8150   9.758   1.836   9.367 -0.3191  0.1992  0.1974
 1007SOL    HW1 8151   9.748   1.815   9.460  0.4601  1.4751  0.5725
 1007SOL    HW2 8152   9.687   1.898   9.349  0.8802  1.6794  0.4959
 1008SOL     OW 8153   4.019   2.549   1.154 -0.0215 -0.2749  0.1172
 1008SOL    HW1 8154   3.926   2.563   1.136  0.4124  0.7638 -1.4102
 1008SOL    HW2 8155   4.062   2.555   1.068  1.5481  0.1051  0.9008
 1009SOL     OW 8156   2.884   9.710   2.352 -0.2478 -0.2849  0.0401
 1009SOL    HW1 8157   2.979   9.696   2.347 -0.3485 -0.3132 -2.3045
 1009SOL    HW2 8158   2.871   9.800   2.320 -1.1232 -0.7049 -0.8017
 1010SOL     OW 8159   9.078   1.720   5.431 -0.1947  0.6410 -0.4290
 1010SOL    HW1 8160   8.986   1.735   5.451  0.1077  1.3939  0.4221
 1010SOL    HW2 8161   9.124   1.742   5.512  0.6159 -1.0587 -0.4031
 1011SOL     OW 8162  10.136   3.402   6.747  0.1855 -0.7443 -0.6911
 1011SOL    HW1 8163  10.069   3.401   6.679  0.8941  0.2291 -1.4202
 1011SOL    HW2 8164  10.217   3.378   6.702  0.0013 -4.0454  0.5805
 1012SOL     OW 8165   3.139   6.076   7.385  0.1048  0.2987  0.4205
 1012SOL    HW1 8166   3.153   6.054   7.478 -0.7279  0.3436  0.5649
 1012SOL    HW2 8167   3.173   6.165   7.375  0.9980 -0.0322  0.4771
 1013SOL     OW 8168  11.206   9.959   8.020 -0.4705 -0.2583 -0.0912
 1013SOL    HW1 8169  11.207   9.913   7.937 -1.3688  1.6710 -1.2144
 1013SOL    HW2 8170  11.299   9.971   8.042 -0.2311 -1.1848 -0.5744
 1014SOL     OW 8171   8.756   4.175   1.336  0.3666 -0.8121  0.1918
 1014SOL    HW1 8172   8.741   4.139   1.249 -0.1411  2.5277 -1.1738
 1014SOL    HW2 8173   8.851   4.176   1.346  0.5292  0.5766 -1.1852
 1015SOL     OW 8174   3.466   6.141   1.177 -0.1634 -0.2584  0.2836
 1015SOL    HW1 8175   3.506   6.070   1.227  1.1411 -0.4976 -1.0544
 1015SOL    HW2 8176   3.540   6.192   1.144 -1.1078  1.8772  1.4414
 1016SOL     OW 8177   8.517   1.908   6.522 -0.4104  0.1313  0.1079
 1016SOL    HW1 8178   8.542   1.990   6.479 -0.1564 -0.2808 -0.5489
 1016SOL    HW2 8179   8.563   1.909   6.606 -0.5522  0.7429  0.1740
 1017SOL     OW 8180  11.173   6.464   1.271  0.6723 -0.1191 -0.3747
 1017SOL    HW1 8181  11.247   6.405   1.256  1.1337  0.5821 -0.9068
 1017SOL    HW2 8182  11.209   6.551   1.255  0.0017  0.3121  0.4244
 1018SOL     OW 8183   1.210   9.126   7.720  0.1479 -0.5264  0.3044
 1018SOL    HW1 8184   1.248   9.173   7.794  0.7269 -1.3501  0.5394
 1018SOL    HW2 8185   1.233   9.034   7.735  0.2510 -0.7114 -0.8735
 1019SOL     OW 8186   0.769   8.096   6.705  0.1092 -0.1666  0.7850
 1019SOL    HW1 8187   0.697   8.080   6.645 -0.7596  1.7369  1.2946
 1019SOL    HW2 8188   0.823   8.163   6.661  1.6864 -1.6964  0.3226
 1020SOL     OW 8189   0.237   4.347   2.109  0.0992  0.0119 -0.5725
 1020SOL    HW1 8190   0.247   4.354   2.203 -0.7705  2.0180 -0.5991
 1020SOL    HW2 8191   0.145   4.322   2.096 -0.4855  2.2180 -0.9325
 1021SOL     OW 8192   6.730   9.803  10.599  0.5934  0.1283 -0.0139
 1021SOL    HW1 8193   6.805   9.774  10.650  0.0746 -0.1249  0.6139
 1021SOL    HW2 8194   6.666   9.732  10.607  0.1493  0.4936 -0.2416
 1022SOL     OW 8195   9.635   5.992   2.479  0.0501  0.9566 -0.4886
 1022SOL    HW1 8196   9.565   6.034   2.430 -1.8165 -1.2905  0.1658
 1022SOL    HW2 8197   9.651   5.909   2.433  1.2087  0.7345  0.2725
 1023SOL     OW 8198   2.015   3.029   9.211 -0.2647 -0.0236 -0.0360
 1023SOL    HW1 8199   2.048   3.051   9.124 -1.0290  1.1279 -0.0533
 1023SOL    HW2 8200   1.946   2.964   9.195 -0.0178 -0.2369 -0.2396
 1024SOL     OW 8201   9.735   9.564   7.113  0.3183  0.0846  0.9424
 1024SOL    HW1 8202   9.657   9.570   7.058  0.0996 -0.3807  1.1893
 1024SOL    HW2 8203   9.703   9.584   7.201  0.2212 -1.3205  1.2456
 1025SOL     OW 8204   6.918  10.149   5.553  0.2798 -0.0173  0.5359
 1025SOL    HW1 8205   7.004  10.120   5.582  0.5279 -0.0484 -0.2255
 1025SOL    HW2 8206   6.886  10.077   5.497  0.7506  0.9985 -1.0857
 1026SOL     OW 8207  10.533  10.791  10.393 -0.2220  0.2319 -0.2812
 1026SOL    HW1 8208  10.514  10.881  10.420  0.7503  0.0172  1.1385
 1026SOL    HW2 8209  10.527  10.740  10.473  1.6611 -0.5845 -0.6519
 1027SOL     OW 8210   9.700   0.177   8.186 -0.0869  0.8711  0.7936
 1027SOL    HW1 8211   9.678   0.213   8.272 -0.8995  1.1790  0.4596
 1027SOL    HW2 8212   9.616   0.165   8.143  0.1945 -0.8752  0.6750
 1028SOL     OW 8213   8.355   8.160   8.112  0.0289 -0.1211 -0.0715
 1028SOL    HW1 8214   8.404   8.180   8.033  1.5957 -0.4656  0.7792
 1028SOL    HW2 8215   8.300   8.237   8.127  0.2979  0.2665 -1.0568
 1029SOL     OW 8216   0.190  10.687   2.785  0.1805  0.2246  0.8382
 1029SOL    HW1 8217   0.203  10.626   2.857  1.4052  0.5955  0.9438
 1029SOL    HW2 8218   0.262  10.750   2.793  0.0794  0.5244 -0.4467
 1030SOL     OW 8219  10.259  10.426   6.622 -0.2123 -0.6735  0.5573
 1030SOL    HW1 8220  10.343  10.403   6.582 -0.0008  2.3796 -0.8870
 1030SOL    HW2 8221  10.196  10.367   6.580  0.8816 -1.5377  0.1004
 1031SOL     OW 8222   0.312  10.426  11.059 -0.1384 -0.2872  0.7453
 1031SOL    HW1 8223   0.278  10.468  11.138 -1.6270 -1.0187  0.5273
 1031SOL    HW2 8224   0.332  10.499  11.000  1.9749  0.3157  2.1588
 1032SOL     OW 8225   1.663   7.842   4.824 -0.1038 -0.3526 -0.1426
 1032SOL    HW1 8226   1.702   7.851   4.737 -1.4047  3.3098 -0.4610
 1032SOL    HW2 8227   1.724   7.887   4.883 -1.8465  2.0343 -0.0738
 1033SOL     OW 8228   9.495   2.413  11.015 -0.0723 -0.9903 -0.0805
 1033SOL    HW1 8229   9.480   2.351  11.087 -0.6520 -2.5469 -1.5166
 1033SOL    HW2 8230   9.415   2.467  11.013 -0.2556 -1.2525  0.1407
 1034SOL     OW 8231  11.127  10.762   5.714 -0.0022 -0.8863  0.0018
 1034SOL    HW1 8232  11.091  10.849   5.729 -1.5180 -1.1622 -1.8608
 1034SOL    HW2 8233  11.080  10.705   5.775 -1.0373 -0.8590 -0.7700
 1035SOL     OW 8234   0.736   6.236   4.718  0.0092  0.0915  0.6502
 1035SOL    HW1 8235   0.800   6.236   4.648  0.3956 -0.4546  0.9956
 1035SOL    HW2 8236   0.787   6.252   4.798 -0.5633  1.7966  0.6880
 1036SOL     OW 8237   0.007   9.519   5.361  0.7513  0.5605 -0.0079
 1036SOL    HW1 8238   0.083   9.577   5.372 -0.2363  1.4426  2.4818
 1036SOL    HW2 8239  -0.068   9.579   5.355  0.1719 -0.3162 -2.0529
 1037SOL     OW 8240   7.839   5.781   9.820  0.1899 -0.0543  0.5832
 1037SOL    HW1 8241   7.849   5.728   9.741 -1.9912  0.2731  0.0375
 1037SOL    HW2 8242   7.928   5.794   9.853  0.9955 -1.4135 -1.0100
 1038SOL     OW 8243   7.072  10.464   9.860 -0.3330  0.0963 -0.0192
 1038SOL    HW1 8244   7.049  10.557   9.868 -0.9066  0.0273 -0.7373
 1038SOL    HW2 8245   7.143  10.451   9.922 -1.9570  0.4348  1.9893
 1039SOL     OW 8246   5.937   0.314   3.746  0.9727  0.2135  0.0576
 1039SOL    HW1 8247   5.873   0.311   3.675  0.0970 -0.4462  0.8607
 1039SOL    HW2 8248   6.007   0.370   3.713  0.1464  0.6618 -0.9669
 1040SOL     OW 8249   1.939   9.259   7.614 -0.1408 -0.1867  0.2415
 1040SOL    HW1 8250   1.909   9.221   7.532  1.1347  1.4767 -1.0162
 1040SOL    HW2 8251   1.882   9.220   7.681  0.1254 -3.1016 -1.1544
 1041SOL     OW 8252   7.694   6.639   0.191  0.0590 -0.1548  0.3983
 1041SOL    HW1 8253   7.768   6.696   0.171 -0.2028 -0.5092 -1.6594
 1041SOL    HW2 8254   7.636   6.692   0.246  0.1515  1.3211 -0.8957
 1042SOL     OW 8255   9.432   5.981   1.022  0.1123  0.1644  0.4460
 1042SOL    HW1 8256   9.457   5.942   1.105 -2.5452 -1.1331  0.6958
 1042SOL    HW2 8257   9.366   6.046   1.045  0.3812  0.7863 -0.5204
 1043SOL     OW 8258   7.116   5.624   3.011  0.3145  0.1467 -0.0169
 1043SOL    HW1 8259   7.069   5.707   3.021  0.2942  0.1255  0.0582
 1043SOL    HW2 8260   7.113   5.606   2.917  0.6089  0.4031 -0.0757
 1044SOL     OW 8261   9.420   7.977   8.945  0.2725 -0.1822  0.1159
 1044SOL    HW1 8262   9.512   8.003   8.950  0.3829 -0.8128  1.5559
 1044SOL    HW2 8263   9.423   7.884   8.923 -0.0243 -0.2549  0.3887
 1045SOL     OW 8264   4.820   3.012   2.464 -0.1587  0.0318 -0.0870
 1045SOL    HW1 8265   4.765   2.944   2.504 -0.5586 -0.0196 -0.7236
 1045SOL    HW2 8266   4.765   3.051   2.397  0.4643  0.2273 -0.4867
 1046SOL     OW 8267   0.575  11.200   2.008  0.1748  0.0210  0.4248
 1046SOL    HW1 8268   0.587  11.150   1.927  0.1728  3.0723 -1.5128
 1046SOL    HW2 8269   0.579  11.291   1.981 -0.1569  1.1118  3.8477
 1047SOL     OW 8270   1.913   4.657   9.707  0.1821 -0.4904  0.3154
 1047SOL    HW1 8271   1.956   4.613   9.633  1.3819 -0.4201  0.9632
 1047SOL    HW2 8272   1.882   4.585   9.762  0.4896 -0.5425  0.4244
 1048SOL     OW 8273   3.697   6.080   7.692  0.4275 -0.4725 -0.1261
 1048SOL    HW1 8274   3.707   6.050   7.602 -1.1866  0.1301 -0.5382
 1048SOL    HW2 8275   3.674   6.173   7.684  0.7304 -0.2923  0.9243
 1049SOL     OW 8276   7.656  11.318  10.144 -0.5074 -0.0942 -0.2290
 1049SOL    HW1 8277   7.651  11.258  10.070 -2.9606  1.9865 -1.8475
 1049SOL    HW2 8278   7.580  11.296  10.197 -0.6296  0.6712 -0.0919
 1050SOL     OW 8279  10.474   2.474   7.277  0.1715  0.0266 -0.0176
 1050SOL    HW1 8280  10.393   2.423   7.279 -0.2401  0.7143  1.2191
 1050SOL    HW2 8281  10.446   2.565   7.280  0.9511  0.3061 -0.8510
 1051SOL     OW 8282  10.585   5.589  10.138 -0.1179  0.3270 -0.2086
 1051SOL    HW1 8283  10.671   5.571  10.101  0.1584 -2.6959  1.7055
 1051SOL    HW2 8284  10.597   5.577  10.233 -1.9046  3.0620  0.4311
 1052SOL     OW 8285  10.105  10.256   3.563 -0.3017  0.5890 -0.1275
 1052SOL    HW1 8286  10.174  10.294   3.509  1.0793 -1.5479  0.1070
 1052SOL    HW2 8287  10.041  10.222   3.500  0.1638  0.1914 -0.3873
 1053SOL     OW 8288   6.730   8.705   5.469  0.0665 -0.4013 -0.5614
 1053SOL    HW1 8289   6.676   8.673   5.541 -0.0140  1.1918  0.1070
 1053SOL    HW2 8290   6.668   8.725   5.400  0.1438 -1.9426 -1.0914
 1054SOL     OW 8291   5.575   0.258  10.647 -0.1623 -0.2451 -0.4796
 1054SOL    HW1 8292   5.564   0.174  10.690  1.1303  0.4596  1.3084
 1054SOL    HW2 8293   5.502   0.311  10.678 -0.5957 -0.5031 -1.0678
 1055SOL     OW 8294   7.709   0.230   5.572 -0.7263 -0.0601  0.6360
 1055SOL    HW1 8295   7.622   0.212   5.536  0.1824 -1.8537 -0.7463
 1055SOL    HW2 8296   7.767   0.227   5.497  1.0261 -2.4372  2.0139
 1056SOL     OW 8297   3.302  10.204  11.149 -0.2331 -0.2655  0.4269
 1056SOL    HW1 8298   3.265  10.177  11.233  0.5238  2.0769  1.5271
 1056SOL    HW2 8299   3.391  10.169  11.150  1.0540  2.9029  2.2363
 1057SOL     OW 8300   4.335   1.383   8.304 -0.3428 -0.2722  0.0917
 1057SOL    HW1 8301   4.327   1.351   8.214  1.5993  0.0759 -0.2235
 1057SOL    HW2 8302   4.395   1.457   8.297 -0.5053  0.0100  1.6258
 1058SOL     OW 8303   2.305   6.676   1.564  0.1298  0.3707  0.1332
 1058SOL    HW1 8304   2.330   6.761   1.528  1.6195  0.8916  2.2445
 1058SOL    HW2 8305   2.374   6.656   1.627 -0.2560 -2.3793 -0.2593
 1059SOL     OW 8306   2.035   5.338  10.987 -0.1971 -0.1387  0.1900
 1059SOL    HW1 8307   2.128   5.355  10.972 -0.0087  0.5258  1.9138
 1059SOL    HW2 8308   2.029   5.322  11.081 -1.4982 -2.4878 -0.2506
 1060SOL     OW 8309   6.940   6.519   3.944  0.4072 -0.4005  0.1875
 1060SOL    HW1 8310   6.963   6.602   3.987 -0.2912  0.7631 -1.6048
 1060SOL    HW2 8311   6.850   6.502   3.973  0.3913 -0.2904  0.2042
 1061SOL     OW 8312  10.052   7.864   2.739  0.1311 -0.3587  0.1443
 1061SOL    HW1 8313   9.979   7.802   2.739 -0.5951  0.4314 -1.9537
 1061SOL    HW2 8314  10.079   7.868   2.647  1.3715  1.0253  0.5601
 1062SOL     OW 8315   9.749   1.511  10.197  0.1237  0.1302 -0.0292
 1062SOL    HW1 8316   9.841   1.521  10.223  0.9798  1.3557 -3.2857
 1062SOL    HW2 8317   9.699   1.553  10.267  2.0908  0.5009  1.1909
 1063SOL     OW 8318   7.550  10.625   0.418  0.0042 -0.3914 -0.1138
 1063SOL    HW1 8319   7.555  10.618   0.513  1.5915 -2.9506 -0.3420
 1063SOL    HW2 8320   7.490  10.555   0.391  0.3383 -0.3313 -1.0600
 1064SOL     OW 8321   7.023   3.903   3.284  0.2364 -0.3239 -0.3168
 1064SOL    HW1 8322   6.938   3.871   3.316  0.0497 -1.4626 -1.8442
 1064SOL    HW2 8323   7.020   3.884   3.190  1.6039  0.9578 -0.6198
 1065SOL     OW 8324   0.063   0.098   0.347 -0.2340  1.0013  0.0338
 1065SOL    HW1 8325   0.069   0.185   0.386  0.9968  1.5125 -1.2557
 1065SOL    HW2 8326   0.154   0.068   0.342 -0.3215  1.1080 -2.7808
 1066SOL     OW 8327   8.418   8.518   1.072  0.2525  0.2106  0.2036
 1066SOL    HW1 8328   8.395   8.575   0.999 -0.1982  3.3758  2.7350
 1066SOL    HW2 8329   8.508   8.490   1.053  0.3795  1.5110 -1.1940
 1067SOL     OW 8330   2.319   8.135   8.417 -0.1294  0.2823 -0.1214
 1067SOL    HW1 8331   2.344   8.060   8.362  0.0639 -1.4434  2.2351
 1067SOL    HW2 8332   2.402   8.169   8.449 -0.3648 -0.4968  1.3485
 1068SOL     OW 8333   2.100   1.229   7.979  0.8072  0.8063 -0.2160
 1068SOL    HW1 8334   2.089   1.300   8.043 -1.3990  0.1285  0.1779
 1068SOL    HW2 8335   2.070   1.151   8.024  1.2657 -0.0463 -1.3692
 1069SOL     OW 8336   2.369   7.864   8.283  0.5147 -0.0094 -0.7019
 1069SOL    HW1 8337   2.311   7.793   8.256  0.8720 -0.0866 -1.2707
 1069SOL    HW2 8338   2.457   7.835   8.256  1.0897 -0.7101  1.7184
 1070SOL     OW 8339   3.724   5.274   7.447 -0.7539 -0.3404 -0.1205
 1070SOL    HW1 8340   3.794   5.226   7.402 -0.5277 -0.7435  0.6589
 1070SOL    HW2 8341   3.745   5.266   7.540  0.2901  2.8469 -0.0505
 1071SOL     OW 8342   9.910   7.573   9.948  0.0789 -0.5908  0.8255
 1071SOL    HW1 8343   9.965   7.638   9.904  1.9661 -1.2036  2.1854
 1071SOL    HW2 8344   9.824   7.581   9.907  1.3416  0.0098 -1.7551
 1072SOL     OW 8345   9.295  10.358   2.689 -0.1961 -0.0108  0.3354
 1072SOL    HW1 8346   9.332  10.292   2.631 -1.5157 -1.0190  0.6271
 1072SOL    HW2 8347   9.359  10.365   2.760  0.5482 -0.0633 -0.3151
 1073SOL     OW 8348   5.827   8.036   5.827  0.4429  0.2956 -0.3358
 1073SOL    HW1 8349   5.831   8.130   5.813  2.5436  0.2323 -0.3339
 1073SOL    HW2 8350   5.746   8.022   5.876  1.2722  2.3651  1.7060
 1074SOL     OW 8351   0.645   0.474   8.378  0.8547 -0.3577  0.2999
 1074SOL    HW1 8352   0.639   0.522   8.295 -0.8143  0.3671  0.8050
 1074SOL    HW2 8353   0.734   0.490   8.409  0.8808  0.9385 -0.4165
 1075SOL     OW 8354   7.071   0.205   2.525 -0.8612  0.2674 -0.2057
 1075SOL    HW1 8355   7.100   0.295   2.543 -0.5241  0.0538  0.3434
 1075SOL    HW2 8356   7.115   0.182   2.443  2.9738 -1.0844  2.0803
 1076SOL     OW 8357   7.835   1.557  10.349  0.2555 -0.0848  0.2760
 1076SOL    HW1 8358   7.892   1.627  10.381 -0.5263  1.0576 -0.7608
 1076SOL    HW2 8359   7.750   1.600  10.334 -0.0268 -1.0660 -1.0844
 1077SOL     OW 8360   7.972   0.998   8.259  0.5573  0.3203 -0.5513
 1077SOL    HW1 8361   7.902   0.934   8.275  0.1709  0.4299 -1.7630
 1077SOL    HW2 8362   7.983   0.998   8.164  2.0639  0.4637 -0.3850
 1078SOL     OW 8363   0.638   8.201   9.971 -0.0470 -0.1320  0.5984
 1078SOL    HW1 8364   0.610   8.290   9.952  1.6132  0.2390 -0.1540
 1078SOL    HW2 8365   0.568   8.146   9.937 -0.7018  0.8496  0.3552
 1079SOL     OW 8366   4.894   4.223   4.369  0.0612 -0.8907  0.1732
 1079SOL    HW1 8367   4.803   4.252   4.362  0.4221 -0.2459 -2.9954
 1079SOL    HW2 8368   4.896   4.140   4.322  0.8777 -1.4885  1.2597
 1080SOL     OW 8369   5.803   2.754  10.600  0.0607  0.4982 -0.0288
 1080SOL    HW1 8370   5.855   2.834  10.612 -0.1588  0.8172 -1.1238
 1080SOL    HW2 8371   5.736   2.779  10.537 -2.0633  0.3845  2.1273
 1081SOL     OW 8372  10.081   9.799   2.692  0.4397 -0.2623  0.0654
 1081SOL    HW1 8373  10.074   9.875   2.635  0.3577 -0.8361 -0.7033
 1081SOL    HW2 8374  10.172   9.770   2.683  0.2572 -0.7295 -0.2551
 1082SOL     OW 8375   2.884   2.702   8.379  0.0963  0.2266  0.3681
 1082SOL    HW1 8376   2.905   2.646   8.304  0.3303  1.7640 -0.7302
 1082SOL    HW2 8377   2.801   2.667   8.412  0.1815 -0.6996 -0.3565
 1083SOL     OW 8378   9.764   3.393   5.908  0.3243  0.3940  0.0804
 1083SOL    HW1 8379   9.722   3.459   5.963  0.4860 -0.8298  1.6971
 1083SOL    HW2 8380   9.692   3.339   5.875  0.3534  0.1689  0.3785
 1084SOL     OW 8381   0.669  10.370   5.571  0.6757 -0.6044 -0.6364
 1084SOL    HW1 8382   0.666  10.277   5.592  0.9769 -0.5786 -0.4778
 1084SOL    HW2 8383   0.756  10.383   5.532  0.6853 -0.3644 -0.5369
 1085SOL     OW 8384   8.707   8.904   6.095 -0.1360  0.5699  0.2742
 1085SOL    HW1 8385   8.646   8.881   6.166  1.0499  0.7321  1.3747
 1085SOL    HW2 8386   8.789   8.862   6.120  0.9166  2.4926  0.1576
 1086SOL     OW 8387   7.764   0.554   4.043 -0.3116 -0.0461  0.2079
 1086SOL    HW1 8388   7.719   0.605   3.977 -0.6726 -0.7916 -0.1280
 1086SOL    HW2 8389   7.841   0.606   4.066  0.9140 -0.6740 -2.2517
 1087SOL     OW 8390   9.321  10.633   8.887 -0.3638  0.1946 -1.0111
 1087SOL    HW1 8391   9.366  10.698   8.941 -2.7951  0.4952  0.7755
 1087SOL    HW2 8392   9.386  10.565   8.871  1.6147  2.0601 -1.1735
 1088SOL     OW 8393   3.941   6.808   2.068  0.0422  0.1385 -0.5615
 1088SOL    HW1 8394   4.003   6.867   2.111  0.5061 -1.5240  1.0760
 1088SOL    HW2 8395   3.988   6.725   2.060 -1.4469 -0.7044 -0.6618
 1089SOL     OW 8396  11.284   9.196   2.447  0.5078 -0.3136  0.2268
 1089SOL    HW1 8397  11.233   9.205   2.528 -2.0753 -1.1612 -1.2151
 1089SOL    HW2 8398  11.286   9.284   2.410  2.3901  0.2274  1.5970
 1090SOL     OW 8399   6.548   7.525  10.433 -0.2244  0.0010  0.1502
 1090SOL    HW1 8400   6.454   7.542  10.441 -0.8419 -3.0181 -0.2723
 1090SOL    HW2 8401   6.573   7.485  10.516  0.6680  0.6242  0.1931
 1091SOL     OW 8402   4.661   2.222  10.798 -0.0224  0.2057 -0.4147
 1091SOL    HW1 8403   4.693   2.240  10.886  0.6321 -0.7155 -0.4514
 1091SOL    HW2 8404   4.737   2.237  10.741 -0.2311  0.0539 -0.7334
 1092SOL     OW 8405   5.305   1.211  11.106  0.1172 -0.2262  0.3807
 1092SOL    HW1 8406   5.365   1.285  11.098 -1.5222  1.1276  0.1387
 1092SOL    HW2 8407   5.356   1.135  11.079  1.2605  1.1009 -1.2739
 1093SOL     OW 8408   7.975   1.897   5.888  0.4676 -0.6057 -0.3935
 1093SOL    HW1 8409   7.961   1.991   5.904 -0.1708 -0.4324 -1.9270
 1093SOL    HW2 8410   7.950   1.856   5.971  1.4053  0.6178  0.5307
 1094SOL     OW 8411   6.073   0.143   3.877  0.5754  0.4799 -0.3104
 1094SOL    HW1 8412   6.020   0.208   3.830 -1.2906  0.1895  1.3407
 1094SOL    HW2 8413   6.045   0.150   3.968  0.4350 -2.5216 -0.0635
 1095SOL     OW 8414   2.467   7.038   3.819  0.2528  0.1455  0.0923
 1095SOL    HW1 8415   2.434   6.953   3.788  0.5716 -0.3198  1.0183
 1095SOL    HW2 8416   2.555   7.044   3.783  0.6129 -0.3839  0.8733
 1096SOL     OW 8417   9.423   2.350   6.018  0.7445  0.0047 -0.2831
 1096SOL    HW1 8418   9.489   2.282   6.035  1.4697  0.4575 -1.2040
 1096SOL    HW2 8419   9.354   2.304   5.971 -0.5996 -0.9305  2.5127
 1097SOL     OW 8420   2.967   0.995   9.393  0.5045 -0.0586 -0.1375
 1097SOL    HW1 8421   3.010   0.978   9.477  1.5813  1.5540 -0.3328
 1097SOL    HW2 8422   2.945   1.089   9.396  0.4324 -0.0156 -1.6020
 1098SOL     OW 8423   7.978   9.908   8.416  0.4515  0.2498 -0.3621
 1098SOL    HW1 8424   7.884   9.924   8.405  0.1386 -0.3019  1.3497
 1098SOL    HW2 8425   7.994   9.826   8.369  0.0380  0.2510 -0.5072
 1099SOL     OW 8426   1.651   8.367   8.375 -0.3921  0.3177  0.2801
 1099SOL    HW1 8427   1.661   8.277   8.345  0.9680  0.4217  0.3605
 1099SOL    HW2 8428   1.558   8.376   8.397 -0.6585 -0.8609 -0.3529
 1100SOL     OW 8429   3.722   0.118  10.620 -0.0524  0.0779 -0.3113
 1100SOL    HW1 8430   3.684   0.039  10.582 -1.5673  0.2063  0.8783
 1100SOL    HW2 8431   3.687   0.190  10.567  0.4491  0.0397 -0.7022
 1101SOL     OW 8432   8.263   5.073   4.677 -0.1152  0.0123 -0.0127
 1101SOL    HW1 8433   8.218   5.069   4.761  1.5368 -0.7576  0.8600
 1101SOL    HW2 8434   8.282   5.166   4.664  0.9749 -0.0220  1.2208
 1102SOL     OW 8435   7.922   8.757   0.065 -0.4954 -0.0960 -0.1987
 1102SOL    HW1 8436   7.836   8.767   0.107 -0.7777 -1.2855 -0.4858
 1102SOL    HW2 8437   7.908   8.693  -0.004  0.8647 -1.0972  0.4314
 1103SOL     OW 8438   8.895   2.917  10.408 -0.1774 -0.5055  0.0991
 1103SOL    HW1 8439   8.916   2.890  10.497 -2.0183 -1.1101  0.3703
 1103SOL    HW2 8440   8.829   2.985  10.419 -1.0521 -1.2021 -0.8274
 1104SOL     OW 8441   8.034   6.118  11.283 -0.0836 -0.1119  0.0233
 1104SOL    HW1 8442   8.124   6.105  11.254 -0.1206  0.8616 -0.5468
 1104SOL    HW2 8443   7.988   6.151  11.205 -0.4069  1.5561  0.8859
 1105SOL     OW 8444   1.954   1.496   0.921 -0.0295 -0.1263 -0.4315
 1105SOL    HW1 8445   2.008   1.426   0.885 -1.1781 -0.8293 -0.8218
 1105SOL    HW2 8446   1.956   1.565   0.854  0.9290  0.1485 -0.1383
 1106SOL     OW 8447   3.773  10.162   0.622 -0.6249 -0.6926 -0.2801
 1106SOL    HW1 8448   3.823  10.090   0.583  2.2093 -0.1664  2.1522
 1106SOL    HW2 8449   3.774  10.231   0.556  1.3663 -0.9449 -0.5321
 1107SOL     OW 8450   6.563   1.312   4.584  0.1229  0.4820 -0.3122
 1107SOL    HW1 8451   6.512   1.390   4.565 -0.6979 -0.3634 -1.6882
 1107SOL    HW2 8452   6.597   1.284   4.499 -0.1229 -1.0038  0.0554
 1108SOL     OW 8453   0.985   3.547   7.719  0.3069  0.8412 -0.1168
 1108SOL    HW1 8454   1.071   3.572   7.754  1.0219  0.1089 -1.3238
 1108SOL    HW2 8455   0.999   3.461   7.681 -1.4701 -0.2285  1.5294
 1109SOL     OW 8456   8.578   9.497   5.273  0.0790 -0.0112  0.0555
 1109SOL    HW1 8457   8.601   9.412   5.236 -0.9471 -0.1931 -0.1769
 1109SOL    HW2 8458   8.571   9.481   5.367  3.7652  0.6864  0.5176
 1110SOL     OW 8459   7.121   9.545   6.678 -0.3028 -0.0609 -0.3783
 1110SOL    HW1 8460   7.039   9.537   6.727  0.0157 -0.9104  0.0142
 1110SOL    HW2 8461   7.161   9.625   6.712  0.0649 -0.8144  0.9604
 1111SOL     OW 8462   3.706   6.592   8.719  0.1840  0.2083 -0.0048
 1111SOL    HW1 8463   3.714   6.674   8.767  0.0085 -0.2422  0.8210
 1111SOL    HW2 8464   3.722   6.524   8.786  0.7464 -0.4125 -0.7616
 1112SOL     OW 8465   0.683   8.512   9.838 -0.4414  0.6150  0.6069
 1112SOL    HW1 8466   0.741   8.437   9.829 -0.5007  0.3482  2.2768
 1112SOL    HW2 8467   0.674   8.546   9.749  1.0184 -0.2672  0.0981
 1113SOL     OW 8468   0.893   9.916   8.984 -0.2402  0.1646  0.0310
 1113SOL    HW1 8469   0.813   9.950   9.022  0.5074  2.2561 -0.2003
 1113SOL    HW2 8470   0.955   9.912   9.057 -0.0867  0.0711 -0.1038
 1114SOL     OW 8471   4.429  10.357   2.840 -0.4545  0.0012  0.3134
 1114SOL    HW1 8472   4.445  10.361   2.746 -0.6618 -2.7242  0.1130
 1114SOL    HW2 8473   4.476  10.279   2.870 -0.8019  0.5395  2.3945
 1115SOL     OW 8474   7.160   6.631  10.116  0.1447  0.1493  0.0371
 1115SOL    HW1 8475   7.224   6.677  10.171  0.2963 -2.0834  1.7980
 1115SOL    HW2 8476   7.076   6.648  10.159  0.1195 -0.6509  0.3028
 1116SOL     OW 8477   2.032   2.892   2.008  0.2689  0.0805  0.5983
 1116SOL    HW1 8478   2.050   2.956   2.077  1.6001  1.3208 -0.8403
 1116SOL    HW2 8479   2.085   2.921   1.934 -0.7538 -1.4843 -0.8047
 1117SOL     OW 8480   7.204   4.514   5.818  0.6586  0.5386 -0.5300
 1117SOL    HW1 8481   7.117   4.484   5.844 -0.2693  0.5792 -3.4179
 1117SOL    HW2 8482   7.208   4.605   5.848 -0.4273  0.6308 -0.6268
 1118SOL     OW 8483  11.311   4.687   7.263  0.4121 -0.1597  0.1907
 1118SOL    HW1 8484  11.233   4.743   7.254  2.2488  2.6736  1.0694
 1118SOL    HW2 8485  11.298   4.642   7.346  0.5185  1.7228  1.2618
 1119SOL     OW 8486   2.318   2.408   3.280  0.5449  0.1893 -0.1623
 1119SOL    HW1 8487   2.390   2.423   3.218 -0.2067  0.5374 -0.9506
 1119SOL    HW2 8488   2.355   2.348   3.345  2.1868  1.9103  0.5491
 1120SOL     OW 8489   5.020  10.953   2.460 -0.3521  0.1415 -0.1808
 1120SOL    HW1 8490   5.074  10.880   2.431 -1.1832 -0.0373 -1.3287
 1120SOL    HW2 8491   5.030  10.954   2.555  0.4629 -0.8318 -0.2453
 1121SOL     OW 8492   2.438   9.467  10.613 -0.3830 -0.0719 -0.2573
 1121SOL    HW1 8493   2.433   9.444  10.706  0.0139  0.2501 -0.1565
 1121SOL    HW2 8494   2.530   9.489  10.598 -0.2063 -1.2394 -0.9981
 1122SOL     OW 8495   9.358   1.149  10.262 -0.4157 -0.1857 -0.3136
 1122SOL    HW1 8496   9.392   1.233  10.292 -1.2408 -0.4609  1.4600
 1122SOL    HW2 8497   9.395   1.085  10.323 -0.4870 -1.0201 -1.1308
 1123SOL     OW 8498   5.282   5.098   5.305  0.1269  0.2611  0.3722
 1123SOL    HW1 8499   5.366   5.140   5.288 -0.1701  0.6309 -0.2219
 1123SOL    HW2 8500   5.225   5.130   5.235 -0.6115  0.3232  0.9864
 1124SOL     OW 8501   6.692   0.550   9.454  0.1309  0.1792  0.0612
 1124SOL    HW1 8502   6.779   0.514   9.466 -0.0277 -0.5014 -0.8070
 1124SOL    HW2 8503   6.659   0.509   9.374  0.3633  3.0285 -1.5802
 1125SOL     OW 8504   6.848  10.645   8.807 -0.4188  0.2325  0.0863
 1125SOL    HW1 8505   6.789  10.569   8.808  0.8104 -0.7436 -0.2760
 1125SOL    HW2 8506   6.931  10.611   8.840  0.6397  1.0137 -1.7040
 1126SOL     OW 8507   6.350  10.803   1.349  0.4530 -0.3891 -0.0372
 1126SOL    HW1 8508   6.327  10.833   1.438  0.2922 -0.5303 -0.0323
 1126SOL    HW2 8509   6.367  10.884   1.301  0.0009 -0.2846 -0.0253
 1127SOL     OW 8510   5.136   4.291   8.229  0.0688  0.5246 -0.1598
 1127SOL    HW1 8511   5.131   4.206   8.273 -0.8788  0.2834 -0.7375
 1127SOL    HW2 8512   5.126   4.355   8.300 -0.1804  0.1472  0.1468
 1128SOL     OW 8513   3.344   8.906   1.544  0.0116  0.0518 -0.0040
 1128SOL    HW1 8514   3.301   8.948   1.469  0.8538  1.0799  0.0815
 1128SOL    HW2 8515   3.350   8.975   1.610 -0.7987 -0.8725  1.0440
 1129SOL     OW 8516   2.437   7.547   6.819  0.1467  0.2648  0.4238
 1129SOL    HW1 8517   2.410   7.466   6.863  0.2258 -0.3100 -0.5561
 1129SOL    HW2 8518   2.498   7.517   6.751 -0.9457  0.9963 -0.9015
 1130SOL     OW 8519  11.210   6.092   4.435  0.3442 -0.4791  0.2231
 1130SOL    HW1 8520  11.284   6.044   4.472  1.2991  0.5763 -0.3058
 1130SOL    HW2 8521  11.173   6.140   4.509 -0.3016 -1.6097  0.6501
 1131SOL     OW 8522   4.397   1.242   6.219  0.0029 -0.4115  0.5981
 1131SOL    HW1 8523   4.455   1.243   6.143  0.9933  2.2181  1.3282
 1131SOL    HW2 8524   4.444   1.189   6.284  0.3168 -0.5708  0.2447
 1132SOL     OW 8525   7.055   5.884   4.681  0.1643  0.2816  0.1955
 1132SOL    HW1 8526   7.008   5.914   4.760  1.3537  1.9425  0.2993
 1132SOL    HW2 8527   7.101   5.805   4.710  0.1860  0.5897  1.0424
 1133SOL     OW 8528   3.885   0.649   1.238 -0.2660  0.4501 -0.1592
 1133SOL    HW1 8529   3.953   0.646   1.305 -0.5453  0.5655  0.1308
 1133SOL    HW2 8530   3.932   0.637   1.156  0.4569  3.2914 -0.1906
 1134SOL     OW 8531   0.459   0.918   8.901 -0.1536 -0.1794  0.0342
 1134SOL    HW1 8532   0.441   0.959   8.986 -0.6271 -1.1725  0.4216
 1134SOL    HW2 8533   0.524   0.850   8.921  0.0547 -0.1277 -0.4714
 1135SOL     OW 8534   3.076   9.800   8.538  0.2030 -0.0126  0.1041
 1135SOL    HW1 8535   3.057   9.866   8.471  0.5689  0.7324  0.7150
 1135SOL    HW2 8536   3.135   9.738   8.496  0.4694  0.4776 -0.2498
 1136SOL     OW 8537   8.644   4.040   3.057  0.8212 -0.4109  0.2442
 1136SOL    HW1 8538   8.649   3.953   3.018 -1.6429  0.1121 -1.3332
 1136SOL    HW2 8539   8.586   4.029   3.132  0.1705 -0.0510 -0.2026
 1137SOL     OW 8540   2.096   3.321   1.287 -0.2131  0.3486  1.2027
 1137SOL    HW1 8541   2.062   3.257   1.351 -0.1090 -0.9785 -0.0523
 1137SOL    HW2 8542   2.187   3.333   1.312  0.1539 -1.0857  0.5803
 1138SOL     OW 8543   7.237   6.403   4.875 -0.6744  0.2993  0.1039
 1138SOL    HW1 8544   7.162   6.461   4.885  0.2325  1.5037 -0.0886
 1138SOL    HW2 8545   7.298   6.428   4.945 -1.4847 -2.3392  1.8702
 1139SOL     OW 8546   0.718   7.960   2.810  0.8740  0.6558 -0.0773
 1139SOL    HW1 8547   0.720   7.983   2.903 -0.0014  2.9405 -0.5719
 1139SOL    HW2 8548   0.650   7.893   2.802  0.3958  1.0331  0.8144
 1140SOL     OW 8549   9.569   1.988   1.560  0.2988  0.2046 -0.4565
 1140SOL    HW1 8550   9.557   1.950   1.647 -0.9154 -0.1717 -0.7901
 1140SOL    HW2 8551   9.616   1.920   1.511 -0.0509 -0.0420 -0.4460
 1141SOL     OW 8552   1.262  10.556   4.961 -0.2033  0.1804 -0.9496
 1141SOL    HW1 8553   1.252  10.647   4.933  2.4270  0.6058 -0.6760
 1141SOL    HW2 8554   1.356  10.538   4.951 -0.1837 -1.5913  1.7159
 1142SOL     OW 8555   4.466   4.714   6.897  0.1343 -0.2987  0.8165
 1142SOL    HW1 8556   4.473   4.743   6.807 -0.5212 -1.6812  0.3089
 1142SOL    HW2 8557   4.423   4.628   6.892 -0.2473 -0.2300  2.4545
 1143SOL     OW 8558   8.873   0.921   9.458  0.2898 -0.3155  0.0240
 1143SOL    HW1 8559   8.797   0.940   9.403 -0.0342  0.1985  0.6391
 1143SOL    HW2 8560   8.938   0.987   9.433  0.7488 -1.1142 -0.9066
 1144SOL     OW 8561   4.218   5.167   6.672  0.9127  0.2902  0.9679
 1144SOL    HW1 8562   4.233   5.241   6.732  1.9132 -0.5449  1.7578
 1144SOL    HW2 8563   4.280   5.100   6.700 -1.8735 -1.9545  2.0772
 1145SOL     OW 8564   2.494   9.981   0.003 -0.3550 -0.5727 -0.0972
 1145SOL    HW1 8565   2.535   9.984  -0.084 -0.4913 -1.1356 -0.1851
 1145SOL    HW2 8566   2.555   9.932   0.057  0.2424  0.7271  0.4114
 1146SOL     OW 8567   2.646   7.109   0.195  0.4625 -0.3717  0.9496
 1146SOL    HW1 8568   2.562   7.104   0.241 -0.2461 -1.1891 -0.3993
 1146SOL    HW2 8569   2.625   7.084   0.105  2.0395  0.0742  0.4516
 1147SOL     OW 8570   4.323   3.778   6.327 -0.9427 -0.1328  0.0445
 1147SOL    HW1 8571   4.276   3.859   6.346  0.2608  1.8284 -4.6160
 1147SOL    HW2 8572   4.412   3.794   6.360 -0.7973  0.3369 -0.5656
 1148SOL     OW 8573   7.137   5.281   0.308 -0.2015 -0.0238  0.1585
 1148SOL    HW1 8574   7.043   5.281   0.325 -0.3206  0.6282 -0.4685
 1148SOL    HW2 8575   7.146   5.328   0.225  0.6062 -0.8386 -0.2132
 1149SOL     OW 8576   7.016   9.061   4.390 -0.0784 -0.1396 -0.1595
 1149SOL    HW1 8577   7.028   9.024   4.478  3.1197 -0.5092 -0.7126
 1149SOL    HW2 8578   7.063   9.144   4.392 -2.5371  1.3244 -0.6559
 1150SOL     OW 8579   8.309   5.541   5.430 -0.1559 -0.1723  0.3897
 1150SOL    HW1 8580   8.337   5.496   5.510  0.6760 -0.0311  0.1797
 1150SOL    HW2 8581   8.384   5.596   5.406 -0.8912  0.7697  0.2335
 1151SOL     OW 8582   0.439   7.797   2.477 -0.0857 -0.1971  0.0395
 1151SOL    HW1 8583   0.526   7.835   2.489 -0.5886  1.3785 -1.2001
 1151SOL    HW2 8584   0.449   7.706   2.505  1.6342  0.3061  1.1476
 1152SOL     OW 8585  10.354  10.037  10.370 -0.4080  0.0652  0.4746
 1152SOL    HW1 8586  10.446  10.060  10.359 -0.3280 -1.0180 -1.2249
 1152SOL    HW2 8587  10.355   9.944  10.393 -1.1214 -0.1967 -0.5484
 1153SOL     OW 8588   8.331   2.593   7.531 -0.1160 -0.4792  0.8550
 1153SOL    HW1 8589   8.292   2.554   7.453  0.2141 -4.3727  2.4911
 1153SOL    HW2 8590   8.256   2.624   7.582 -0.4177  0.6591 -0.2524
 1154SOL     OW 8591  10.203   1.432   7.599  0.2314 -0.1432  0.0678
 1154SOL    HW1 8592  10.137   1.501   7.598  0.4590  0.0982 -1.9891
 1154SOL    HW2 8593  10.263   1.455   7.669  1.9948  3.4110 -2.4829
 1155SOL     OW 8594   3.567   2.439   9.963 -0.4378  0.0675 -0.5292
 1155SOL    HW1 8595   3.488   2.420   9.913 -0.1165  0.0406 -1.0331
 1155SOL    HW2 8596   3.535   2.473  10.047 -0.9810  0.4018 -0.8657
 1156SOL     OW 8597   8.067   8.977   7.225 -0.4375 -0.9616  0.7826
 1156SOL    HW1 8598   8.116   8.989   7.144 -0.9050  0.0063  0.6280
 1156SOL    HW2 8599   8.130   8.943   7.288  0.7704  1.4855  0.9553
 1157SOL     OW 8600  11.057  11.039   8.082  0.6952 -0.1063  0.5918
 1157SOL    HW1 8601  11.077  11.011   8.171 -0.1791 -0.6842  0.6163
 1157SOL    HW2 8602  11.052  10.958   8.032  1.2527  0.2228 -0.0040
 1158SOL     OW 8603   7.536   7.186   3.412 -0.1444  0.3408 -0.6162
 1158SOL    HW1 8604   7.568   7.269   3.376  0.7283 -0.2184 -1.1675
 1158SOL    HW2 8605   7.442   7.185   3.391  0.2730  0.1849 -2.6235
 1159SOL     OW 8606   8.353   0.250  10.906  0.2818 -0.4141 -0.4758
 1159SOL    HW1 8607   8.353   0.289  10.819 -2.4169  1.1597  0.1476
 1159SOL    HW2 8608   8.327   0.159  10.892  0.5502 -0.3544 -1.3656
 1160SOL     OW 8609   3.465   4.102   1.123  0.4916  0.8147  0.2411
 1160SOL    HW1 8610   3.554   4.075   1.101 -0.3605 -0.3390 -1.9757
 1160SOL    HW2 8611   3.429   4.028   1.172  0.1157  0.4341 -0.6001
 1161SOL     OW 8612   2.806   0.178   1.060  0.2586  0.3450 -0.2232
 1161SOL    HW1 8613   2.882   0.176   1.118  0.7850  2.4514 -0.7797
 1161SOL    HW2 8614   2.829   0.120   0.988  1.4319  1.0971 -0.4693
 1162SOL     OW 8615   2.492   1.435   4.494  0.1374  0.4559 -0.2858
 1162SOL    HW1 8616   2.420   1.374   4.512 -0.5098  0.9449 -1.1835
 1162SOL    HW2 8617   2.570   1.380   4.491 -0.2368 -0.1245  0.3933
 1163SOL     OW 8618   5.182   6.710   1.473  0.1416  0.6291 -0.4259
 1163SOL    HW1 8619   5.254   6.648   1.473 -2.0987 -2.1263 -1.9965
 1163SOL    HW2 8620   5.174   6.737   1.381 -0.3097  1.5422 -0.1234
 1164SOL     OW 8621   7.637   3.718   5.886  0.2142  0.0900  0.5074
 1164SOL    HW1 8622   7.659   3.706   5.979 -1.6750  0.0063  0.9624
 1164SOL    HW2 8623   7.581   3.643   5.865  0.9889 -0.1302 -0.8381
 1165SOL     OW 8624   6.201  10.890   7.695  0.4216  0.1397  0.0166
 1165SOL    HW1 8625   6.277  10.948   7.686 -0.0307  0.7488  0.1302
 1165SOL    HW2 8626   6.154  10.898   7.612  0.7558 -0.6417 -0.2570
 1166SOL     OW 8627   0.007   3.365   4.608 -0.1814  0.6450  0.7695
 1166SOL    HW1 8628   0.094   3.385   4.643  0.4352 -2.7436  1.3452
 1166SOL    HW2 8629   0.024   3.314   4.529 -1.6281  0.3194  0.6551
 1167SOL     OW 8630   9.396   8.657   9.555  0.7270 -0.2820 -0.2945
 1167SOL    HW1 8631   9.440   8.663   9.640  2.2167  2.8207 -1.2301
 1167SOL    HW2 8632   9.326   8.721   9.560  1.4003  0.5771 -1.7353
 1168SOL     OW 8633  10.775  10.348  10.507 -0.4718  0.4167 -0.3260
 1168SOL    HW1 8634  10.776  10.260  10.543 -0.8807  0.5280 -0.0407
 1168SOL    HW2 8635  10.700  10.349  10.447 -0.8817  0.7680  0.1806
 1169SOL     OW 8636   5.764   8.009   1.766 -1.0137 -0.2936  0.3979
 1169SOL    HW1 8637   5.801   8.015   1.854 -1.6103 -0.5916  0.6775
 1169SOL    HW2 8638   5.757   8.099   1.736  1.9493 -0.3259 -0.5230
 1170SOL     OW 8639   5.965   8.007   3.839 -0.3334  0.2875  0.0300
 1170SOL    HW1 8640   5.984   7.974   3.927  2.7752 -0.5064 -0.8729
 1170SOL    HW2 8641   5.912   7.939   3.798  0.5080 -0.6070  0.4101
 1171SOL     OW 8642   0.971  10.245   5.792 -0.1446 -0.6334 -0.2604
 1171SOL    HW1 8643   0.944  10.154   5.806 -0.7789 -0.7809 -2.2408
 1171SOL    HW2 8644   0.921  10.294   5.857 -1.0878 -1.5264 -0.2776
 1172SOL     OW 8645  11.114   2.610   6.609  0.1863  0.0187 -0.1091
 1172SOL    HW1 8646  11.094   2.577   6.696  0.1952  3.0834  1.0998
 1172SOL    HW2 8647  11.028   2.622   6.568  0.1481 -0.4245 -0.1665
 1173SOL     OW 8648   0.881   0.108   1.249 -0.3405 -0.3101 -0.1697
 1173SOL    HW1 8649   0.855   0.049   1.178  1.5519 -0.4614 -0.7885
 1173SOL    HW2 8650   0.960   0.068   1.285 -0.2187  0.7621  0.7754
 1174SOL     OW 8651   2.069   2.466   7.043 -0.7129  0.5005 -0.2021
 1174SOL    HW1 8652   2.143   2.503   7.090 -1.9375 -1.5033  3.4807
 1174SOL    HW2 8653   1.993   2.514   7.076 -1.5126 -0.3472 -0.7712
 1175SOL     OW 8654   8.827   5.146   8.448  0.0229 -0.2009 -0.2174
 1175SOL    HW1 8655   8.814   5.140   8.354  2.1918  1.9866 -0.7102
 1175SOL    HW2 8656   8.906   5.095   8.465  0.4334  0.5639  0.1978
 1176SOL     OW 8657   8.670   6.228   3.133  0.1335  0.1360  0.0456
 1176SOL    HW1 8658   8.599   6.268   3.183 -0.0558  1.2282 -1.0979
 1176SOL    HW2 8659   8.635   6.143   3.106 -1.3612  1.3586 -1.9410
 1177SOL     OW 8660   8.570   9.641   4.722  0.2838  0.3681  0.2223
 1177SOL    HW1 8661   8.635   9.586   4.679 -0.6641  0.4107 -1.3007
 1177SOL    HW2 8662   8.618   9.721   4.745  1.1661 -0.2707  0.6015
 1178SOL     OW 8663   5.509   5.631  10.281 -0.1479  0.1689  0.4265
 1178SOL    HW1 8664   5.495   5.651  10.374  0.1005 -1.2114  0.7826
 1178SOL    HW2 8665   5.561   5.550  10.282  1.1559  0.9568 -0.9080
 1179SOL     OW 8666   2.145   5.422   6.565  0.3932 -0.1200 -0.3757
 1179SOL    HW1 8667   2.149   5.362   6.640 -0.9443 -1.0290 -1.0103
 1179SOL    HW2 8668   2.068   5.476   6.582 -0.7102 -1.2273 -1.7343
 1180SOL     OW 8669   3.209   2.482   3.997 -0.2474  0.0416 -0.1435
 1180SOL    HW1 8670   3.275   2.430   4.042 -1.1754  1.0887  2.4689
 1180SOL    HW2 8671   3.239   2.484   3.906  2.3671 -0.9587  0.6508
 1181SOL     OW 8672  11.335   7.373   3.516 -0.3160 -0.0114 -0.4834
 1181SOL    HW1 8673  11.419   7.411   3.539 -1.8084  2.1634  1.6581
 1181SOL    HW2 8674  11.317   7.308   3.584 -0.5712 -0.1619 -0.6878
 1182SOL     OW 8675   7.595   4.959   6.247 -0.6032 -0.1662  0.0889
 1182SOL    HW1 8676   7.526   4.937   6.310  0.3105 -2.0826  0.4515
 1182SOL    HW2 8677   7.616   5.050   6.265 -0.8474 -0.4923  2.1088
 1183SOL     OW 8678   1.152   8.062   6.504  0.0794 -0.0424 -0.0435
 1183SOL    HW1 8679   1.122   8.010   6.578 -2.0875 -0.2914 -1.0524
 1183SOL    HW2 8680   1.174   7.997   6.437 -2.1653  0.2548 -1.1333
 1184SOL     OW 8681   3.822   5.857   1.774  0.2365  0.0507  0.5569
 1184SOL    HW1 8682   3.790   5.946   1.786  2.2067  0.7840  0.5290
 1184SOL    HW2 8683   3.823   5.845   1.679  1.5387  0.6050  0.4906
 1185SOL     OW 8684   1.484   7.964   5.085 -0.2875  0.2175  0.3499
 1185SOL    HW1 8685   1.512   8.055   5.070  0.0127  0.0920  0.1523
 1185SOL    HW2 8686   1.390   7.971   5.106 -0.3419  0.5413  0.0058
 1186SOL     OW 8687   6.201   7.523   5.418  0.1531 -0.1320  0.5400
 1186SOL    HW1 8688   6.279   7.484   5.378 -1.8492 -1.0563 -2.6270
 1186SOL    HW2 8689   6.187   7.603   5.369  0.0232  0.9056  2.2291
 1187SOL     OW 8690   5.615   8.618  10.081  0.4205 -0.0920 -0.3862
 1187SOL    HW1 8691   5.531   8.617  10.034 -0.8131 -1.2656  1.7687
 1187SOL    HW2 8692   5.591   8.612  10.173  2.9096 -0.5661  0.2674
 1188SOL     OW 8693   4.312   4.969   6.836  0.3218 -0.3147 -0.7013
 1188SOL    HW1 8694   4.316   4.874   6.842  0.7590 -0.5077 -3.3037
 1188SOL    HW2 8695   4.312   4.999   6.926  0.4288 -2.7721  0.1525
 1189SOL     OW 8696   2.041   1.057   1.229 -0.5303 -0.2142 -0.7133
 1189SOL    HW1 8697   2.020   0.966   1.250  0.3615 -0.5702 -1.3179
 1189SOL    HW2 8698   1.957   1.097   1.207 -0.9148 -0.9217 -0.5452
 1190SOL     OW 8699   0.810   0.046   7.873 -0.1378  0.6554 -0.7058
 1190SOL    HW1 8700   0.867   0.121   7.892 -0.8945  1.5694 -1.9175
 1190SOL    HW2 8701   0.862  -0.008   7.813  0.4142  0.1906  0.1792
 1191SOL     OW 8702   1.862   4.152   4.446 -0.2462 -0.2046 -0.3510
 1191SOL    HW1 8703   1.819   4.232   4.478 -2.9948 -1.0638 -1.7460
 1191SOL    HW2 8704   1.912   4.120   4.521  1.5688  3.2286  0.0157
 1192SOL     OW 8705   3.237   2.857   5.512 -0.6272  0.1305  0.6023
 1192SOL    HW1 8706   3.322   2.899   5.516 -1.2367  1.4618 -0.0857
 1192SOL    HW2 8707   3.231   2.823   5.422 -1.0359  0.4907  0.4931
 1193SOL     OW 8708   2.279   7.177   4.999 -0.1269 -0.2129  0.0202
 1193SOL    HW1 8709   2.305   7.111   4.934 -0.1335 -0.1694 -0.0261
 1193SOL    HW2 8710   2.204   7.138   5.044  0.2466 -0.4958  0.4040
 1194SOL     OW 8711   6.655  10.248   7.909  0.3697 -0.4075 -0.5845
 1194SOL    HW1 8712   6.640  10.331   7.954 -1.0987 -1.1248  0.2731
 1194SOL    HW2 8713   6.749  10.232   7.918  1.0382  2.1452 -2.5082
 1195SOL     OW 8714   9.511   7.045   7.979  0.1313  0.2893  0.4736
 1195SOL    HW1 8715   9.510   6.991   7.900 -0.8780  0.9549  0.0319
 1195SOL    HW2 8716   9.559   6.992   8.043  0.9476 -0.2597 -0.5696
 1196SOL     OW 8717   3.641   5.045   2.313  0.2337  0.0905  0.4662
 1196SOL    HW1 8718   3.630   4.994   2.233  0.7024 -0.2399  0.6101
 1196SOL    HW2 8719   3.736   5.060   2.319  0.1609  0.4432  0.7552
 1197SOL     OW 8720   6.712   0.614   2.155 -0.1468 -0.1095  0.6274
 1197SOL    HW1 8721   6.650   0.547   2.185 -1.4712 -0.1824 -2.1989
 1197SOL    HW2 8722   6.789   0.602   2.212 -1.4778 -2.1158  2.0592
 1198SOL     OW 8723   7.507   5.628   1.313  0.3001 -0.1417  1.0262
 1198SOL    HW1 8724   7.564   5.673   1.375  0.2417 -0.2113  1.1308
 1198SOL    HW2 8725   7.544   5.648   1.227  1.3428 -1.3761  1.1622
 1199SOL     OW 8726  11.119   5.100   1.950  0.0327  0.2732 -0.2062
 1199SOL    HW1 8727  11.077   5.059   1.874 -1.5833  3.6111 -1.2275
 1199SOL    HW2 8728  11.048   5.111   2.013  0.8017  0.0078  0.7232
 1200SOL     OW 8729   4.331   6.216   5.456 -0.0664  0.1931 -0.4324
 1200SOL    HW1 8730   4.298   6.294   5.411 -0.2145  0.7495  0.6120
 1200SOL    HW2 8731   4.394   6.178   5.396  2.2165  2.7753  0.2079
 1201SOL     OW 8732   1.738   9.884  10.609 -0.1442  0.2747 -0.3122
 1201SOL    HW1 8733   1.718   9.949  10.542  1.3425 -1.9386 -3.0584
 1201SOL    HW2 8734   1.831   9.897  10.628 -0.3404  0.2958  0.6709
 1202SOL     OW 8735   6.853   8.853   0.190 -0.1914 -0.0240 -0.1113
 1202SOL    HW1 8736   6.771   8.886   0.226  0.2810  0.2457  0.7296
 1202SOL    HW2 8737   6.897   8.812   0.264  0.4708 -0.1007 -0.5383
 1203SOL     OW 8738   1.667   5.454   8.873  0.0588  0.4114 -0.0940
 1203SOL    HW1 8739   1.711   5.408   8.801  1.0684  0.0523  0.7336
 1203SOL    HW2 8740   1.720   5.432   8.950 -1.6480 -0.1394  0.9455
 1204SOL     OW 8741   9.866   3.718   0.253  0.4491  0.0541  0.1518
 1204SOL    HW1 8742   9.777   3.749   0.270  0.3892  0.5423 -0.9802
 1204SOL    HW2 8743   9.886   3.660   0.327 -0.4144  0.7513  0.9510
 1205SOL     OW 8744   0.302   0.829   8.243  0.4715 -0.0698  0.5646
 1205SOL    HW1 8745   0.352   0.908   8.225 -0.8631  0.5877 -0.3113
 1205SOL    HW2 8746   0.294   0.786   8.158 -0.1180 -0.3825  0.7790
 1206SOL     OW 8747   7.188   5.878   7.837  0.3887  0.1723 -0.5920
 1206SOL    HW1 8748   7.107   5.830   7.819  0.1281  1.3321 -2.6656
 1206SOL    HW2 8749   7.167   5.936   7.910 -0.3656 -0.2300 -0.4933
 1207SOL     OW 8750  10.573  10.238   4.685  0.3043  0.2245 -0.1913
 1207SOL    HW1 8751  10.508  10.242   4.615  0.0794  0.1621  0.0152
 1207SOL    HW2 8752  10.528  10.197   4.758 -0.0578  2.0696  0.6507
 1208SOL     OW 8753   2.551   6.289   9.795  0.5501 -0.0076  0.0788
 1208SOL    HW1 8754   2.505   6.205   9.794  0.9750 -0.2419  0.1532
 1208SOL    HW2 8755   2.549   6.316   9.887  1.6049 -0.5967  0.2813
 1209SOL     OW 8756   5.456   1.089   2.410  0.2731  0.3577  0.5083
 1209SOL    HW1 8757   5.495   1.131   2.487  1.1774 -0.1730  0.3495
 1209SOL    HW2 8758   5.367   1.124   2.406  0.6112  1.3181  1.0945
 1210SOL     OW 8759   0.732   2.451   4.379  0.9943  0.6777  0.4047
 1210SOL    HW1 8760   0.812   2.501   4.363  0.4502  1.0386 -1.2770
 1210SOL    HW2 8761   0.662   2.505   4.342  0.0115  0.1668  1.4791
 1211SOL     OW 8762   2.571   4.019   1.199  0.2456  0.2691 -0.4454
 1211SOL    HW1 8763   2.554   3.929   1.170 -1.2980  0.4505 -0.1733
 1211SOL    HW2 8764   2.664   4.033   1.182  0.1475 -0.8306 -2.0319
 1212SOL     OW 8765   4.576   0.747   2.804  0.0382  0.3284 -0.4224
 1212SOL    HW1 8766   4.487   0.714   2.790 -0.6489  1.1390  1.8142
 1212SOL    HW2 8767   4.589   0.813   2.736 -0.8318 -0.2086 -1.1220
 1213SOL     OW 8768   9.964  11.262  11.294  0.0568  0.5942 -0.1930
 1213SOL    HW1 8769  10.016  11.323  11.347 -1.1877  0.5685  1.0849
 1213SOL    HW2 8770   9.914  11.212  11.358 -1.9921  1.0312 -1.4179
 1214SOL     OW 8771   3.649   5.349   4.855 -0.0671  0.1814  0.1745
 1214SOL    HW1 8772   3.643   5.410   4.781 -1.1971  1.8026  1.5558
 1214SOL    HW2 8773   3.670   5.405   4.930  0.2546 -1.3286  1.2264
 1215SOL     OW 8774   6.239   5.544   7.078 -0.1711  0.0206 -0.5574
 1215SOL    HW1 8775   6.190   5.500   7.008  1.6178 -2.1235 -0.5219
 1215SOL    HW2 8776   6.172   5.581   7.135 -1.8037 -2.8113 -0.5250
 1216SOL     OW 8777   4.677   7.103  10.300 -0.6400 -0.2551  0.0935
 1216SOL    HW1 8778   4.662   7.144  10.215 -1.8447 -0.2302  0.3132
 1216SOL    HW2 8779   4.770   7.080  10.299 -0.5827 -0.0170 -1.1208
 1217SOL     OW 8780   4.396   8.465   2.710 -0.1925  0.0328 -0.2029
 1217SOL    HW1 8781   4.383   8.394   2.646  0.7262 -1.5887  1.3535
 1217SOL    HW2 8782   4.393   8.421   2.795  0.1687  1.9175  0.8094
 1218SOL     OW 8783   5.290  10.956   3.439  0.2161 -0.3410  0.0559
 1218SOL    HW1 8784   5.256  11.038   3.475  0.2245 -0.4944  0.4129
 1218SOL    HW2 8785   5.227  10.890   3.467  1.1714 -0.7462  1.3510
 1219SOL     OW 8786   0.497   5.588   3.501  0.6093  0.1998  0.1104
 1219SOL    HW1 8787   0.432   5.518   3.493 -0.1736  1.0147 -0.8521
 1219SOL    HW2 8788   0.532   5.599   3.413  0.6955  1.0432  0.2453
 1220SOL     OW 8789   1.582   6.294   6.130 -0.6148 -0.0155  0.1388
 1220SOL    HW1 8790   1.631   6.373   6.109  0.4067 -1.1075 -1.7110
 1220SOL    HW2 8791   1.538   6.270   6.048 -0.5614 -1.6031  0.5558
 1221SOL     OW 8792   5.712   8.961  10.357 -0.6135  0.5605 -0.0459
 1221SOL    HW1 8793   5.774   9.010  10.302 -1.4972  2.2226  0.3933
 1221SOL    HW2 8794   5.745   8.974  10.446 -0.4101 -0.3157  0.0084
 1222SOL     OW 8795   9.378   9.771   6.266 -1.3242 -0.2744 -0.2199
 1222SOL    HW1 8796   9.464   9.772   6.224 -0.5714  1.2091  1.3335
 1222SOL    HW2 8797   9.383   9.699   6.329 -0.6123  0.9532  1.1254
 1223SOL     OW 8798   5.054   3.457   1.398  0.3957 -0.1257 -0.3000
 1223SOL    HW1 8799   5.059   3.376   1.447  0.1475 -0.6840 -1.1867
 1223SOL    HW2 8800   5.023   3.431   1.311  0.4716  0.8883 -0.6400
 1224SOL     OW 8801   9.966   3.994   5.025  0.3152 -0.2562 -0.5014
 1224SOL    HW1 8802  10.019   4.003   4.946 -0.0694  0.1872 -0.7132
 1224SOL    HW2 8803   9.892   3.939   4.998  0.6779 -0.8949 -0.2008
 1225SOL     OW 8804   7.624   2.105   0.678 -0.0946 -0.0177 -0.2602
 1225SOL    HW1 8805   7.617   2.150   0.762 -1.3438  2.5800 -1.7182
 1225SOL    HW2 8806   7.535   2.101   0.645  0.2190 -2.1264 -0.9327
 1226SOL     OW 8807   0.090   4.144   2.475 -0.2389  0.2526 -0.0630
 1226SOL    HW1 8808   0.081   4.164   2.568 -0.6337 -0.5906  0.0879
 1226SOL    HW2 8809   0.163   4.199   2.445  1.0786 -0.8093  1.1469
 1227SOL     OW 8810   2.360   3.754   2.679 -0.3190 -0.2713  0.3500
 1227SOL    HW1 8811   2.401   3.708   2.606 -1.7140 -1.0917  0.0690
 1227SOL    HW2 8812   2.424   3.748   2.750  1.7394  1.8847 -1.2254
 1228SOL     OW 8813  11.071   8.452   7.053 -0.4720 -0.8841 -0.3572
 1228SOL    HW1 8814  11.028   8.442   7.138 -0.6208 -1.1494 -0.4645
 1228SOL    HW2 8815  11.071   8.364   7.015  1.1809 -1.1077  0.1295
 1229SOL     OW 8816  10.123   3.855   6.454  0.0961 -0.0969 -0.4905
 1229SOL    HW1 8817  10.047   3.895   6.496 -1.3958 -1.8373 -1.4550
 1229SOL    HW2 8818  10.120   3.888   6.364  1.0708  0.6157 -0.2648
 1230SOL     OW 8819   1.791   2.606   0.773 -0.2625  0.0035  0.8593
 1230SOL    HW1 8820   1.808   2.533   0.832  2.0017 -0.2946 -0.0965
 1230SOL    HW2 8821   1.798   2.568   0.685 -0.7719  1.0137  0.3680
 1231SOL     OW 8822   7.683   4.796   8.661  0.1262 -0.1913  0.5212
 1231SOL    HW1 8823   7.762   4.751   8.630 -0.3674 -0.2065 -0.7265
 1231SOL    HW2 8824   7.633   4.728   8.706 -0.5030 -0.8420 -1.1509
 1232SOL     OW 8825  10.547   5.675   8.492 -0.5781  0.0599  1.0001
 1232SOL    HW1 8826  10.476   5.631   8.539 -0.7200  3.6286  4.3950
 1232SOL    HW2 8827  10.504   5.749   8.450  0.4119 -0.3990 -0.8386
 1233SOL     OW 8828   6.412   7.388   1.655 -0.2659 -0.0963 -0.4010
 1233SOL    HW1 8829   6.507   7.396   1.659 -0.2661 -0.1945 -0.2029
 1233SOL    HW2 8830   6.388   7.339   1.733 -0.5769  0.8196  0.0952
 1234SOL     OW 8831   3.058   6.337   2.210 -0.8283  0.0130 -0.5114
 1234SOL    HW1 8832   3.040   6.397   2.138 -0.8587 -0.0788 -0.5811
 1234SOL    HW2 8833   3.078   6.254   2.166 -0.2074  0.1243 -0.4398
 1235SOL     OW 8834   8.656   9.911   9.929  0.1237 -0.2349 -0.3449
 1235SOL    HW1 8835   8.646   9.976   9.999 -0.2763 -2.0307  1.2885
 1235SOL    HW2 8836   8.733   9.859   9.954  1.3633  0.5020 -2.4096
 1236SOL     OW 8837  10.277   6.048   0.582  0.1031 -0.1916 -0.3824
 1236SOL    HW1 8838  10.315   6.079   0.664  0.2071 -0.2572 -0.4050
 1236SOL    HW2 8839  10.213   5.982   0.608  0.6471 -0.7310 -0.3893
 1237SOL     OW 8840   5.059   1.642   7.675 -0.0578  0.4394 -0.1920
 1237SOL    HW1 8841   4.999   1.578   7.639  0.2025  1.3644 -2.3579
 1237SOL    HW2 8842   5.054   1.629   7.769 -3.9803  0.7968 -0.2684
 1238SOL     OW 8843   9.497   7.163   6.542 -1.1265  0.1517 -0.0131
 1238SOL    HW1 8844   9.562   7.120   6.598 -0.5548 -1.4411 -1.8276
 1238SOL    HW2 8845   9.473   7.243   6.589  1.5862  0.3802  1.0377
 1239SOL     OW 8846   0.267   4.888   0.648 -0.0765 -0.3703 -0.7753
 1239SOL    HW1 8847   0.179   4.906   0.682  0.2398  0.7095 -0.4953
 1239SOL    HW2 8848   0.260   4.905   0.554 -0.4345 -1.3557 -0.9354
 1240SOL     OW 8849   2.709   4.575   8.469 -0.1695 -0.2186  0.4576
 1240SOL    HW1 8850   2.776   4.509   8.451  0.3888  0.6350 -0.6413
 1240SOL    HW2 8851   2.641   4.559   8.404  0.0870  0.4528  0.0216
 1241SOL     OW 8852   1.955   6.483   2.955 -0.0215 -0.7354 -0.1593
 1241SOL    HW1 8853   1.957   6.552   3.021 -1.4417 -0.0617 -0.7963
 1241SOL    HW2 8854   1.943   6.402   3.005  1.2704 -0.4832  0.5658
 1242SOL     OW 8855  11.214   2.978   9.428  0.2751 -0.5943 -0.4344
 1242SOL    HW1 8856  11.230   2.905   9.368  0.1121 -2.1762  1.3841
 1242SOL    HW2 8857  11.165   3.041   9.375  1.2600 -1.3593 -2.3304
 1243SOL     OW 8858   5.791   4.923   5.739 -0.1431 -0.3620  0.0183
 1243SOL    HW1 8859   5.803   5.006   5.785  0.1145 -0.2141 -0.3144
 1243SOL    HW2 8860   5.805   4.944   5.647 -1.3736 -0.5051 -0.2106
 1244SOL     OW 8861   2.141   5.258   7.756 -0.8074 -0.0825  0.0017
 1244SOL    HW1 8862   2.067   5.249   7.696 -1.4371 -0.7203  0.8594
 1244SOL    HW2 8863   2.108   5.226   7.840  0.6149 -0.9339  0.2561
 1245SOL     OW 8864   7.823   1.445   3.994  0.0652  0.0589  0.0556
 1245SOL    HW1 8865   7.797   1.353   3.982 -0.0215 -0.0403  0.9981
 1245SOL    HW2 8866   7.791   1.489   3.915  0.9770 -0.8998 -0.8727
 1246SOL     OW 8867   9.183   5.495  11.050 -0.0948 -0.1231  0.3733
 1246SOL    HW1 8868   9.152   5.438  10.980  1.5224  0.0393 -0.5130
 1246SOL    HW2 8869   9.278   5.486  11.047  0.2928  3.5624 -0.6333
 1247SOL     OW 8870   3.989   3.522   2.411 -0.6796  0.1028  0.2646
 1247SOL    HW1 8871   4.058   3.457   2.402 -1.7795 -1.3618  2.1326
 1247SOL    HW2 8872   4.011   3.570   2.490 -1.5572 -0.0778  0.6238
 1248SOL     OW 8873   1.632   0.102   4.527  0.6633 -0.1298 -0.0687
 1248SOL    HW1 8874   1.620   0.123   4.620 -1.2605  0.1278 -0.3378
 1248SOL    HW2 8875   1.726   0.111   4.512  0.6792  2.4399  1.2511
 1249SOL     OW 8876   0.808   3.038   4.773  0.3870  0.2829  0.1107
 1249SOL    HW1 8877   0.865   3.064   4.845  1.2698 -1.3007 -0.0046
 1249SOL    HW2 8878   0.867   3.004   4.706 -0.5525  0.2824 -0.7314
 1250SOL     OW 8879   7.805  10.824   3.349 -0.5896  0.4253  0.6618
 1250SOL    HW1 8880   7.791  10.918   3.337 -1.5155  0.1223 -0.7672
 1250SOL    HW2 8881   7.769  10.784   3.269 -0.1796 -1.1344  1.2441
 1251SOL     OW 8882   6.338   2.300  10.069 -0.1780  0.1807  0.0892
 1251SOL    HW1 8883   6.282   2.351  10.128  1.3892  1.4936  0.4846
 1251SOL    HW2 8884   6.370   2.229  10.124 -1.3394 -0.5008 -0.1012
 1252SOL     OW 8885   2.220   3.713   5.840 -0.2378  0.5270 -0.5355
 1252SOL    HW1 8886   2.273   3.774   5.892  0.0154  0.0394 -0.2226
 1252SOL    HW2 8887   2.226   3.630   5.887 -1.1211  0.4143 -0.6032
 1253SOL     OW 8888   8.415   9.059   4.476 -0.1748  0.3460 -0.0352
 1253SOL    HW1 8889   8.421   8.972   4.437  0.7511  0.4730 -0.1782
 1253SOL    HW2 8890   8.352   9.106   4.420  0.7544  0.3638 -1.0693
 1254SOL     OW 8891   4.474  11.290   6.957 -0.6364  0.4443  0.3162
 1254SOL    HW1 8892   4.485  11.253   7.044  0.8570 -0.8226 -0.3918
 1254SOL    HW2 8893   4.471  11.385   6.971  3.4579  0.5079  1.4190
 1255SOL     OW 8894   9.572  10.501   6.933  0.4661 -0.4757 -0.3913
 1255SOL    HW1 8895   9.487  10.504   6.890  1.2763 -0.6663 -2.0535
 1255SOL    HW2 8896   9.558  10.446   7.011 -0.9444 -0.4129 -0.5900
 1256SOL     OW 8897   0.731   0.672   2.307 -0.2497  0.2927 -0.0387
 1256SOL    HW1 8898   0.731   0.610   2.234  0.3893 -2.3293  2.0969
 1256SOL    HW2 8899   0.640   0.700   2.316 -0.5096 -0.2046 -1.1606
 1257SOL     OW 8900   3.422   4.464   5.582  0.7566 -0.2512  0.2556
 1257SOL    HW1 8901   3.492   4.505   5.633  0.0478  1.6025 -0.2219
 1257SOL    HW2 8902   3.368   4.419   5.647 -0.0010  1.8888  1.1634
 1258SOL     OW 8903   0.732   3.795   4.559  0.2208 -0.1998  0.1110
 1258SOL    HW1 8904   0.696   3.882   4.575  2.1667  0.6192  0.2737
 1258SOL    HW2 8905   0.703   3.743   4.634  0.5411  0.8171  0.9633
 1259SOL     OW 8906   2.561   9.013   9.507  0.1943 -0.2731 -0.2097
 1259SOL    HW1 8907   2.624   9.027   9.578 -0.1380 -0.6801  0.1756
 1259SOL    HW2 8908   2.612   9.022   9.427  0.5252  0.4197  0.0763
 1260SOL     OW 8909   7.365  10.424   6.351 -0.3987 -0.5474 -0.5044
 1260SOL    HW1 8910   7.406  10.489   6.409 -1.7183  1.9021 -2.2310
 1260SOL    HW2 8911   7.276  10.416   6.384 -0.6465 -0.4294 -1.1478
 1261SOL     OW 8912  10.046   7.643   4.499  0.2948 -0.0149  0.0030
 1261SOL    HW1 8913   9.965   7.623   4.546 -0.9672  0.1120 -2.0408
 1261SOL    HW2 8914  10.038   7.595   4.416  1.7592  0.9545 -0.7244
 1262SOL     OW 8915   8.668   1.478   5.880  0.2094 -0.3002 -0.0387
 1262SOL    HW1 8916   8.629   1.559   5.847 -0.9814 -0.8582 -0.0361
 1262SOL    HW2 8917   8.746   1.506   5.927  0.1216  0.7944 -0.5203
 1263SOL     OW 8918   3.059   3.902   1.507 -0.0419 -0.3671 -0.3471
 1263SOL    HW1 8919   3.074   3.939   1.420 -0.9813 -0.7990 -0.7030
 1263SOL    HW2 8920   3.079   3.809   1.497  1.7505 -0.0860  0.3983
 1264SOL     OW 8921   6.112   2.334   6.101 -0.4150 -0.5182  0.0184
 1264SOL    HW1 8922   6.051   2.319   6.029 -0.2427 -2.9019  0.3338
 1264SOL    HW2 8923   6.197   2.305   6.068  0.2194  0.9740  0.2567
 1265SOL     OW 8924   1.688   9.036   6.869 -0.0865 -0.0746  0.0657
 1265SOL    HW1 8925   1.685   8.940   6.864  0.1529 -0.0927  0.2852
 1265SOL    HW2 8926   1.653   9.057   6.956  0.7255 -0.0029  0.3770
 1266SOL     OW 8927  10.657   3.927   6.150  0.4571  0.0820  0.0876
 1266SOL    HW1 8928  10.734   3.922   6.207  1.9286 -0.2258 -1.9155
 1266SOL    HW2 8929  10.660   4.015   6.113  2.0116 -1.1935 -2.9663
 1267SOL     OW 8930   6.951  10.237   4.356 -0.4162 -0.1702 -0.2904
 1267SOL    HW1 8931   6.977  10.148   4.381  0.0371  0.0175 -0.1011
 1267SOL    HW2 8932   6.873  10.254   4.407 -0.0061 -0.1294  0.3221
 1268SOL     OW 8933   2.375   5.512   0.247  0.2767  0.3454  0.1984
 1268SOL    HW1 8934   2.351   5.551   0.331 -0.1201 -0.5719  0.5270
 1268SOL    HW2 8935   2.344   5.574   0.181  0.1667  0.8489  0.7209
 1269SOL     OW 8936   7.095   0.015   3.400 -0.7024 -0.4548 -0.1359
 1269SOL    HW1 8937   7.186   0.043   3.396 -1.2688  1.6168  0.3148
 1269SOL    HW2 8938   7.080  -0.032   3.319 -0.3849  3.0394 -2.3298
 1270SOL     OW 8939   2.753   8.223   2.173  0.6692  0.1715  0.1254
 1270SOL    HW1 8940   2.782   8.172   2.098 -0.5695 -2.4458  1.3455
 1270SOL    HW2 8941   2.658   8.231   2.161  0.8043  1.9666  0.1141
 1271SOL     OW 8942   0.005   8.993   3.037  0.0251 -0.1331 -0.5768
 1271SOL    HW1 8943  -0.000   9.087   3.054 -2.8706 -0.7019  1.9811
 1271SOL    HW2 8944  -0.083   8.969   3.007  0.5799 -2.1484 -0.6643
 1272SOL     OW 8945   0.419   1.712   9.889  0.1274 -0.5555 -0.4575
 1272SOL    HW1 8946   0.498   1.765   9.890 -0.1178 -0.1643  2.6357
 1272SOL    HW2 8947   0.357   1.763   9.837  1.0604  0.4155 -0.6334
 1273SOL     OW 8948   1.786   0.199   1.466  0.0821  0.6922  0.0427
 1273SOL    HW1 8949   1.787   0.220   1.372 -1.7375  0.5249 -0.0394
 1273SOL    HW2 8950   1.808   0.281   1.509  2.3432  0.4360 -0.5606
 1274SOL     OW 8951   0.129   7.847   8.201  0.4238 -0.5293  0.5580
 1274SOL    HW1 8952   0.125   7.758   8.236  0.5696  0.2818  2.6893
 1274SOL    HW2 8953   0.218   7.877   8.222  0.3614  0.1430 -0.1034
 1275SOL     OW 8954   3.113   3.816   0.825 -0.0231  0.1939  0.1568
 1275SOL    HW1 8955   3.164   3.864   0.760 -0.3286  0.8604  0.4142
 1275SOL    HW2 8956   3.032   3.866   0.835  0.3392  0.4969  1.6051
 1276SOL     OW 8957   8.267   0.723   1.699  0.5709  0.5444 -0.0946
 1276SOL    HW1 8958   8.243   0.806   1.741 -0.8841  0.3946 -0.6043
 1276SOL    HW2 8959   8.339   0.746   1.641  0.6327  1.3196  0.2766
 1277SOL     OW 8960   1.326  10.737   6.241 -0.2720  0.2054  0.7853
 1277SOL    HW1 8961   1.390  10.710   6.174 -1.1097  0.9242 -0.3150
 1277SOL    HW2 8962   1.254  10.775   6.191 -0.9317  0.7042  2.1087
 1278SOL     OW 8963   7.915   0.591   2.468 -0.3645 -0.0904  0.2452
 1278SOL    HW1 8964   7.862   0.603   2.547 -0.7634 -0.8478  0.1005
 1278SOL    HW2 8965   7.852   0.579   2.398 -0.0061  0.0053 -0.0952
 1279SOL     OW 8966   1.945   5.766   0.825  0.4290  0.2379  0.1209
 1279SOL    HW1 8967   1.987   5.715   0.894 -2.0585 -0.5477  1.1300
 1279SOL    HW2 8968   1.943   5.856   0.860 -1.5034 -0.2860  1.4911
 1280SOL     OW 8969   4.553   8.965  10.317  0.3492  0.0373 -0.3738
 1280SOL    HW1 8970   4.570   9.052  10.280  1.1899 -0.1192 -0.3599
 1280SOL    HW2 8971   4.488   8.980  10.385 -1.2557  0.3317 -1.9307
 1281SOL     OW 8972   9.680   9.125   9.364  0.0221  0.4157  0.4190
 1281SOL    HW1 8973   9.731   9.063   9.312  1.9766  1.7997  0.6549
 1281SOL    HW2 8974   9.590   9.091   9.361  1.1716 -2.8793  1.1869
 1282SOL     OW 8975   9.861   0.545   2.377  0.6827 -0.3322 -0.1742
 1282SOL    HW1 8976   9.819   0.631   2.368 -0.0239 -0.7082 -0.4397
 1282SOL    HW2 8977   9.860   0.528   2.471  0.8054 -0.0622 -0.1211
 1283SOL     OW 8978   4.669   2.071   0.551  0.0102  0.1488 -0.6548
 1283SOL    HW1 8979   4.628   2.132   0.613  0.5972  0.0830 -0.1978
 1283SOL    HW2 8980   4.662   2.115   0.466 -1.9029 -0.2998 -0.7567
 1284SOL     OW 8981  10.834   3.114   3.273 -0.1214 -0.4527 -0.1235
 1284SOL    HW1 8982  10.898   3.043   3.273 -0.8980 -1.1597 -0.4085
 1284SOL    HW2 8983  10.750   3.071   3.289 -0.7923  0.2216 -1.7505
 1285SOL     OW 8984  10.010   5.229   0.582 -0.1225  0.2576 -0.0670
 1285SOL    HW1 8985  10.068   5.158   0.608 -0.5550 -0.0988 -0.0761
 1285SOL    HW2 8986   9.992   5.276   0.664 -0.9010 -0.4333  0.1617
 1286SOL     OW 8987   7.253   2.389   7.846 -0.0237  0.0610 -0.1896
 1286SOL    HW1 8988   7.232   2.470   7.800 -0.2325 -0.1779 -0.5147
 1286SOL    HW2 8989   7.342   2.403   7.878 -0.5052  0.8892  0.7978
 1287SOL     OW 8990   7.994  10.765  10.999 -0.1629 -0.4353  0.1919
 1287SOL    HW1 8991   8.037  10.737  11.080 -0.6680  0.3657  0.7481
 1287SOL    HW2 8992   8.055  10.827  10.959 -0.1946 -0.3425  0.2863
 1288SOL     OW 8993   6.383   6.157   8.567  0.0902  0.2356  0.4261
 1288SOL    HW1 8994   6.406   6.191   8.480  0.5550  0.2443  0.5538
 1288SOL    HW2 8995   6.466   6.154   8.615  0.2583 -2.1789  0.0468
 1289SOL     OW 8996   9.025   3.390   7.682 -0.2963  0.7635 -0.4137
 1289SOL    HW1 8997   8.975   3.326   7.631 -2.0404  2.2210 -0.5766
 1289SOL    HW2 8998   9.094   3.338   7.724  0.7578 -0.5812 -3.6259
 1290SOL     OW 8999   4.352   7.825   5.807  0.3998 -0.5595  0.2924
 1290SOL    HW1 9000   4.447   7.827   5.797  0.3637 -0.6220 -0.1058
 1290SOL    HW2 9001   4.322   7.905   5.764  0.1206 -1.6018 -1.4966
 1291SOL     OW 9002  10.654   2.667   9.681 -0.2320 -0.6868  0.0635
 1291SOL    HW1 9003  10.674   2.706   9.766 -0.0585  1.9108 -1.1325
 1291SOL    HW2 9004  10.570   2.623   9.694 -0.8029  0.7204  1.2750
 1292SOL     OW 9005  10.802   1.322   5.312  0.2281  0.6445  0.1793
 1292SOL    HW1 9006  10.809   1.297   5.220  0.9950  1.1995  0.0818
 1292SOL    HW2 9007  10.844   1.408   5.317 -1.3118  1.3872  0.7281
 1293SOL     OW 9008   7.841   3.585  10.756  0.0641 -0.1465  0.7923
 1293SOL    HW1 9009   7.790   3.601  10.836 -0.2170 -0.5617  0.6956
 1293SOL    HW2 9010   7.837   3.668  10.708 -0.2389 -0.0753  0.9422
 1294SOL     OW 9011  10.550   1.404   0.707  0.3061  0.3305  0.1033
 1294SOL    HW1 9012  10.587   1.317   0.717  0.8403  0.2840 -1.9990
 1294SOL    HW2 9013  10.480   1.393   0.643 -1.0556  1.0651  1.4409
 1295SOL     OW 9014   2.615  10.304   1.994  0.0894  0.2621  0.5773
 1295SOL    HW1 9015   2.709  10.287   2.005  0.1622  0.5211  0.3430
 1295SOL    HW2 9016   2.601  10.301   1.900 -0.1477  0.1860  0.6148
 1296SOL     OW 9017   1.339   4.664   3.798  0.1616  0.0647  0.3304
 1296SOL    HW1 9018   1.417   4.674   3.853 -1.5777 -0.9801  3.0610
 1296SOL    HW2 9019   1.348   4.576   3.762  0.9753  0.5067 -0.5799
 1297SOL     OW 9020   9.872  10.806   6.093 -0.2560 -0.1924 -0.1473
 1297SOL    HW1 9021   9.791  10.854   6.077 -0.9106 -0.5103  2.0595
 1297SOL    HW2 9022   9.844  10.728   6.140  1.1565 -1.1966 -0.9442
 1298SOL     OW 9023   5.659   9.520   5.389 -0.4275 -0.1747  0.4953
 1298SOL    HW1 9024   5.708   9.593   5.351 -1.1215 -0.0143 -0.1210
 1298SOL    HW2 9025   5.593   9.499   5.322 -2.0812  0.5103  1.8805
 1299SOL     OW 9026   6.564   5.239   1.858 -0.0103 -0.1533 -0.2941
 1299SOL    HW1 9027   6.611   5.225   1.776  0.3309  0.6129 -0.2267
 1299SOL    HW2 9028   6.603   5.318   1.896 -2.1270  1.1471 -0.7877
 1300SOL     OW 9029   4.278  11.054   4.937 -0.4060 -0.3024 -0.2047
 1300SOL    HW1 9030   4.234  11.117   4.993 -0.9392 -0.7697 -0.0845
 1300SOL    HW2 9031   4.354  11.025   4.987 -0.6989 -0.4763  0.1373
 1301SOL     OW 9032   1.229   0.090  11.133 -0.0014  0.0316  0.1965
 1301SOL    HW1 9033   1.256   0.090  11.041 -0.6075 -1.7538 -0.0121
 1301SOL    HW2 9034   1.134   0.104  11.130  0.0563  0.4987  0.5747
 1302SOL     OW 9035   6.815  11.206   4.852  0.1811  0.1056 -0.0111
 1302SOL    HW1 9036   6.902  11.175   4.875  0.5551  1.5459  0.5976
 1302SOL    HW2 9037   6.799  11.170   4.765  2.0511  1.0975 -0.8056
 1303SOL     OW 9038  10.296   0.572  11.303  0.0477  0.1064 -0.6384
 1303SOL    HW1 9039  10.351   0.650  11.314  2.8096 -1.8798  0.0758
 1303SOL    HW2 9040  10.216   0.592  11.353  0.6681  2.5062 -0.5523
 1304SOL     OW 9041   7.708   9.419   0.975 -0.5419 -0.4091  0.0501
 1304SOL    HW1 9042   7.678   9.470   0.900 -0.6493  1.9184  1.6300
 1304SOL    HW2 9043   7.800   9.401   0.956 -0.7586 -0.4643 -0.9816
 1305SOL     OW 9044   5.521   8.551   8.020 -0.8447 -0.0311  0.3777
 1305SOL    HW1 9045   5.514   8.552   7.925  0.9132  2.8684  0.2394
 1305SOL    HW2 9046   5.556   8.464   8.040 -0.8111 -0.5007 -1.6421
 1306SOL     OW 9047   9.121   2.373   2.959 -0.2270  0.6289  0.2272
 1306SOL    HW1 9048   9.190   2.411   2.903  0.8671 -0.2004  0.9789
 1306SOL    HW2 9049   9.056   2.341   2.897  0.7874  0.0640 -0.5707
 1307SOL     OW 9050   8.552   9.686   2.596  0.1334  0.8306 -0.5338
 1307SOL    HW1 9051   8.478   9.636   2.560  0.9827 -1.9083  1.4331
 1307SOL    HW2 9052   8.512   9.745   2.660 -0.6238  1.1554 -1.2922
 1308SOL     OW 9053  11.123   5.306   8.483  0.0689  0.1386 -0.3330
 1308SOL    HW1 9054  11.145   5.353   8.403  0.6685 -0.0308 -0.2695
 1308SOL    HW2 9055  11.207   5.288   8.525 -0.1390 -1.1299 -0.4442
 1309SOL     OW 9056   9.071   6.694   1.703  0.9034  0.4608  0.7691
 1309SOL    HW1 9057   9.131   6.663   1.770  0.9533 -3.0809 -0.7455
 1309SOL    HW2 9058   9.127   6.720   1.630  0.7523 -0.5314  0.2730
 1310SOL     OW 9059   8.990  11.162   1.902 -0.3810 -0.7226  0.1174
 1310SOL    HW1 9060   8.982  11.257   1.895  0.2325 -0.5426  1.8019
 1310SOL    HW2 9061   9.073  11.148   1.948 -0.8948 -2.0464  0.6619
 1311SOL     OW 9062   0.035   9.765   7.383 -0.3342  0.4027  0.1976
 1311SOL    HW1 9063   0.111   9.822   7.383  0.0700 -0.0404 -3.0796
 1311SOL    HW2 9064   0.071   9.676   7.385 -0.7223  0.1954 -1.0836
 1312SOL     OW 9065   5.868   4.591   6.659  0.4485  0.4817 -0.3566
 1312SOL    HW1 9066   5.857   4.569   6.567 -1.0786  0.1324 -0.1047
 1312SOL    HW2 9067   5.943   4.651   6.661  0.4764  0.5036 -1.8188
 1313SOL     OW 9068   8.834   5.783   4.157 -0.5219 -0.5347 -0.3392
 1313SOL    HW1 9069   8.770   5.851   4.180 -0.3065 -0.7185  0.8550
 1313SOL    HW2 9070   8.903   5.793   4.222  0.3156 -0.8187 -1.1793
 1314SOL     OW 9071   7.271   2.353   0.771 -0.0190  0.0649  0.3750
 1314SOL    HW1 9072   7.182   2.322   0.755  0.9201 -1.9414 -1.1521
 1314SOL    HW2 9073   7.285   2.421   0.705  0.5227 -1.5620 -1.2220
 1315SOL     OW 9074   6.768   8.132   3.205 -0.1445  0.0595  0.5769
 1315SOL    HW1 9075   6.766   8.204   3.269 -0.4370 -0.4271  1.1236
 1315SOL    HW2 9076   6.828   8.068   3.243 -1.5036 -0.9163  1.1179
 1316SOL     OW 9077   4.862   5.918   6.706  0.9389 -0.2403  0.2403
 1316SOL    HW1 9078   4.800   5.972   6.657  1.2519 -0.2814 -0.2099
 1316SOL    HW2 9079   4.899   5.978   6.771 -2.7933 -1.3054  3.4957
 1317SOL     OW 9080   8.119   9.939   9.914  0.2554  0.1009  0.4815
 1317SOL    HW1 9081   8.180  10.001   9.954  1.8051  0.1169 -1.8469
 1317SOL    HW2 9082   8.135   9.857   9.961  1.6427  0.2598  0.3117
 1318SOL     OW 9083   6.483  10.296   3.027  0.2707 -0.0745 -0.6397
 1318SOL    HW1 9084   6.567  10.265   2.994  0.1113 -1.2572  0.0093
 1318SOL    HW2 9085   6.483  10.270   3.119 -0.0915  1.4423 -0.2112
 1319SOL     OW 9086  10.255   0.732  10.180 -0.1172  0.7586  0.4720
 1319SOL    HW1 9087  10.232   0.644  10.149 -0.4460  0.4732  1.4897
 1319SOL    HW2 9088  10.339   0.719  10.224 -1.2189  0.5092  2.5625
 1320SOL     OW 9089   8.489  11.123  11.264  0.9844  0.0583 -0.1883
 1320SOL    HW1 9090   8.437  11.198  11.292  0.3728 -0.4770  0.1181
 1320SOL    HW2 9091   8.428  11.069  11.214  1.1815 -0.6953  0.3771
 1321SOL     OW 9092   0.960   7.499   2.246  0.3970 -0.1584  0.5590
 1321SOL    HW1 9093   0.953   7.523   2.154  0.2263 -1.9397  0.0911
 1321SOL    HW2 9094   1.010   7.570   2.286  3.8656 -1.2513 -1.6689
 1322SOL     OW 9095   1.555   8.497   2.906  0.7909 -0.3327  0.2493
 1322SOL    HW1 9096   1.579   8.436   2.836 -2.1910 -0.9115 -0.3231
 1322SOL    HW2 9097   1.574   8.449   2.987 -0.6587 -1.7091 -0.1929
 1323SOL     OW 9098   5.395   9.304   3.565  0.6905  0.2438 -0.6177
 1323SOL    HW1 9099   5.336   9.309   3.490  0.5840 -0.7477 -0.6000
 1323SOL    HW2 9100   5.337   9.302   3.641  0.7609 -0.3523 -0.5823
 1324SOL     OW 9101   7.417   3.750   8.400  0.5939  0.1700  0.1962
 1324SOL    HW1 9102   7.361   3.680   8.368  0.5428  0.5983 -0.6793
 1324SOL    HW2 9103   7.501   3.709   8.416  0.2237 -0.3338  0.8362
 1325SOL     OW 9104   5.524   8.647   0.167 -0.3173 -0.2780 -0.3694
 1325SOL    HW1 9105   5.484   8.692   0.093  0.2479 -0.6460 -0.9043
 1325SOL    HW2 9106   5.616   8.636   0.142 -0.2170 -0.7892  0.2031
 1326SOL     OW 9107   2.529   0.393  11.157  0.3671  0.3155 -0.5262
 1326SOL    HW1 9108   2.468   0.319  11.158  0.4942  0.2272  0.9598
 1326SOL    HW2 9109   2.616   0.352  11.154  0.4372  0.4007  0.3075
 1327SOL     OW 9110   5.472   1.203   9.509 -0.7886 -0.3874  0.5109
 1327SOL    HW1 9111   5.539   1.148   9.550 -0.7560 -0.1491  0.7781
 1327SOL    HW2 9112   5.407   1.141   9.477  0.5046 -0.7545 -1.4827
 1328SOL     OW 9113   6.866   6.262  10.749  0.1043 -0.8309 -0.1015
 1328SOL    HW1 9114   6.925   6.335  10.767 -1.2398  0.3148 -0.3077
 1328SOL    HW2 9115   6.851   6.222  10.835 -1.4583  0.9088  0.4583
 1329SOL     OW 9116   4.908   5.008   3.175 -0.1096  0.2325 -0.7173
 1329SOL    HW1 9117   4.889   5.033   3.084  0.0749  1.6963 -0.3635
 1329SOL    HW2 9118   4.865   4.923   3.186 -0.5641  0.2788 -2.0162
 1330SOL     OW 9119   0.504   1.949   0.239  0.5881 -0.4217  0.1785
 1330SOL    HW1 9120   0.526   2.041   0.229  0.4682 -0.4839 -0.6342
 1330SOL    HW2 9121   0.462   1.944   0.325 -1.5120  0.6677 -0.7533
 1331SOL     OW 9122   7.605   7.223   2.306 -0.2190 -0.1099  0.4616
 1331SOL    HW1 9123   7.536   7.283   2.278  0.3042  1.1565  1.7987
 1331SOL    HW2 9124   7.577   7.193   2.393  0.4177 -0.3395  0.5940
 1332SOL     OW 9125  11.239   1.878   3.113 -0.6253 -0.2019  0.0660
 1332SOL    HW1 9126  11.214   1.914   3.198 -2.1966  0.3239 -0.5969
 1332SOL    HW2 9127  11.334   1.888   3.110 -0.6954  1.0571  1.1892
 1333SOL     OW 9128   9.819   8.018  10.119  0.0100 -0.4059 -0.5256
 1333SOL    HW1 9129   9.733   8.056  10.100  0.9319  2.0121 -0.0070
 1333SOL    HW2 9130   9.867   8.088  10.162  1.2451 -2.6955  1.9662
 1334SOL     OW 9131   6.458   3.845   3.245 -0.1413  0.0448  0.5443
 1334SOL    HW1 9132   6.418   3.779   3.300 -0.5821 -0.9570 -0.9377
 1334SOL    HW2 9133   6.432   3.929   3.283  1.2786 -0.6163  3.0435
 1335SOL     OW 9134   4.959   9.532   4.310  0.2414  0.4408 -0.0737
 1335SOL    HW1 9135   4.897   9.572   4.249  0.3288  1.3988  0.4506
 1335SOL    HW2 9136   4.998   9.606   4.357  0.7155 -0.2359  0.6203
 1336SOL     OW 9137   8.693   6.710   9.130  0.8382 -0.4354 -0.3007
 1336SOL    HW1 9138   8.688   6.679   9.039 -0.3632 -1.3951  0.0774
 1336SOL    HW2 9139   8.781   6.686   9.158  2.0297  1.8676 -1.8997
 1337SOL     OW 9140   2.050   3.589   7.241  0.3861  0.1239 -0.2533
 1337SOL    HW1 9141   2.043   3.679   7.273 -1.5713  0.0732 -0.5217
 1337SOL    HW2 9142   1.960   3.561   7.226  1.0328 -1.5147 -1.2211
 1338SOL     OW 9143   9.717   6.559   1.467 -0.2941  0.2225  0.4853
 1338SOL    HW1 9144   9.637   6.549   1.415  0.4141  1.7082 -0.9213
 1338SOL    HW2 9145   9.742   6.469   1.488 -1.7472 -0.3108  0.0595
 1339SOL     OW 9146   7.465   8.888   6.951 -0.4803  0.1916 -0.3450
 1339SOL    HW1 9147   7.456   8.976   6.913 -0.5981 -0.3245 -1.5264
 1339SOL    HW2 9148   7.550   8.857   6.919  0.4033  0.5795  1.5588
 1340SOL     OW 9149   1.877   5.411   7.843  0.4819  0.0010  0.3073
 1340SOL    HW1 9150   1.913   5.411   7.754  0.9730  0.6582  0.5009
 1340SOL    HW2 9151   1.811   5.481   7.842  2.4971  1.9573  1.2473
 1341SOL     OW 9152   6.717   3.703   1.476 -0.3365  0.5306  0.3486
 1341SOL    HW1 9153   6.640   3.758   1.489 -0.4939  0.2555  0.5638
 1341SOL    HW2 9154   6.752   3.732   1.392  0.3625  1.8987  1.0971
 1342SOL     OW 9155   3.926   8.062   3.572 -0.4720  0.1321 -0.1199
 1342SOL    HW1 9156   3.988   8.131   3.548  1.0226 -1.1873 -0.1553
 1342SOL    HW2 9157   3.975   8.005   3.631 -1.9783 -0.4078  0.6497
 1343SOL     OW 9158   4.513   0.559   5.942  0.9102  0.9090 -0.1064
 1343SOL    HW1 9159   4.589   0.516   5.982  0.5833  0.3943 -0.0355
 1343SOL    HW2 9160   4.549   0.638   5.900  1.5162  0.5450 -0.2720
 1344SOL     OW 9161   1.468   3.141   2.678 -0.0330  0.2217 -0.4957
 1344SOL    HW1 9162   1.545   3.087   2.696  0.6627  0.5666 -2.2651
 1344SOL    HW2 9163   1.441   3.115   2.590 -0.5901  1.6760 -0.7722
 1345SOL     OW 9164   2.458   1.407   1.708  0.1384  0.6731  0.4872
 1345SOL    HW1 9165   2.503   1.472   1.762 -0.3357  1.3083  0.1119
 1345SOL    HW2 9166   2.408   1.355   1.771  0.6430  0.5625  0.8023
 1346SOL     OW 9167   9.954   7.125   4.434  0.1339  0.2930  0.1987
 1346SOL    HW1 9168   9.945   7.032   4.456  1.6163 -0.3359 -1.6937
 1346SOL    HW2 9169  10.046   7.135   4.409  0.1063  2.3887  0.8139
 1347SOL     OW 9170   5.640   2.497   9.346  0.3592 -0.2807 -0.1195
 1347SOL    HW1 9171   5.582   2.426   9.373  0.3917  0.0094  0.7418
 1347SOL    HW2 9172   5.709   2.454   9.296  0.0185 -0.7731 -0.1708
 1348SOL     OW 9173   7.878   3.188   6.033 -0.2965 -0.1708  0.3532
 1348SOL    HW1 9174   7.936   3.235   5.974 -0.5011 -0.1970  0.1327
 1348SOL    HW2 9175   7.920   3.195   6.119  0.8691 -1.5484 -0.0743
 1349SOL     OW 9176  10.747   5.022   3.798  0.3404  0.1716  0.3693
 1349SOL    HW1 9177  10.804   4.951   3.828  2.8486  0.2045 -3.8583
 1349SOL    HW2 9178  10.802   5.100   3.799 -0.4154  0.7567 -1.2233
 1350SOL     OW 9179   4.956  10.801   4.466 -0.1942 -0.4341 -0.3312
 1350SOL    HW1 9180   4.999  10.857   4.400 -1.1040 -1.6411 -1.9879
 1350SOL    HW2 9181   5.011  10.723   4.471  0.4987  0.1282  1.2162
 1351SOL     OW 9182   0.899   7.129   2.985 -0.3909  0.8352 -0.9201
 1351SOL    HW1 9183   0.871   7.038   2.983 -0.8646  0.9221  0.7225
 1351SOL    HW2 9184   0.853   7.170   2.912  1.0035 -0.5430 -2.6083
 1352SOL     OW 9185   5.485   6.955   6.732 -0.5897 -0.1783  0.0647
 1352SOL    HW1 9186   5.486   6.963   6.827  2.9362 -0.5826  0.1416
 1352SOL    HW2 9187   5.406   6.904   6.713 -1.1750 -0.3643  2.7999
 1353SOL     OW 9188  10.478   1.292   0.135 -0.5301  0.2171 -0.0752
 1353SOL    HW1 9189  10.522   1.365   0.092 -0.0438 -0.1266 -0.1705
 1353SOL    HW2 9190  10.546   1.225   0.144 -0.8543 -0.0495  0.4228
 1354SOL     OW 9191   6.977   1.312   9.842 -0.1111  0.2253  0.2832
 1354SOL    HW1 9192   7.034   1.267   9.905  0.4682  2.3912  1.3300
 1354SOL    HW2 9193   6.978   1.403   9.869 -1.8964  0.7627 -1.3679
 1355SOL     OW 9194   9.102   5.794   5.793 -0.4058 -0.0221 -0.0747
 1355SOL    HW1 9195   9.042   5.868   5.798  0.2267  0.5231 -0.4066
 1355SOL    HW2 9196   9.084   5.754   5.708 -0.0595  0.3487 -0.3221
 1356SOL     OW 9197   8.896   5.855   5.606  0.1766 -0.0782 -0.2432
 1356SOL    HW1 9198   8.880   5.798   5.531  2.0334 -0.6799 -0.2164
 1356SOL    HW2 9199   8.951   5.925   5.571 -0.4475  0.6117  0.1582
 1357SOL     OW 9200   1.308   4.038   4.661 -0.0227 -0.1984  0.5632
 1357SOL    HW1 9201   1.293   4.045   4.566 -0.1851  0.0851  0.6087
 1357SOL    HW2 9202   1.403   4.037   4.670  0.0390 -3.2231  0.1840
 1358SOL     OW 9203   8.685   7.874  10.066 -0.0172 -0.2151 -0.6266
 1358SOL    HW1 9204   8.652   7.890   9.978  1.9576 -0.8757 -1.5271
 1358SOL    HW2 9205   8.690   7.779  10.073  0.5972 -0.1482 -0.0995
 1359SOL     OW 9206   8.735   1.197   3.027  0.5806 -0.3178 -0.8060
 1359SOL    HW1 9207   8.739   1.215   3.121  0.3221 -0.4756 -0.7618
 1359SOL    HW2 9208   8.806   1.247   2.989  0.1534  0.4222 -0.6300
 1360SOL     OW 9209   0.428   1.018   5.829  0.3731 -0.3765  0.3057
 1360SOL    HW1 9210   0.399   1.106   5.808 -0.3287 -0.8566 -0.7563
 1360SOL    HW2 9211   0.486   1.029   5.905 -0.8434  0.8206  1.0787
 1361SOL     OW 9212  10.770   0.152   1.466  0.1612 -0.0171 -1.0390
 1361SOL    HW1 9213  10.788   0.058   1.460 -0.7332 -0.2768  0.3279
 1361SOL    HW2 9214  10.831   0.183   1.533 -0.8861  0.0306 -0.1101
 1362SOL     OW 9215   1.349   9.999   3.113 -0.0171 -0.2693  0.6852
 1362SOL    HW1 9216   1.320   9.922   3.163 -1.4274 -1.0740 -1.2592
 1362SOL    HW2 9217   1.423   9.967   3.061 -0.3676 -0.2148  0.1505
 1363SOL     OW 9218   5.618   5.983   3.034 -0.1690  0.0749 -0.4019
 1363SOL    HW1 9219   5.617   5.897   3.076  1.1437 -0.4793 -1.4571
 1363SOL    HW2 9220   5.578   5.968   2.948 -1.9811  1.0007  0.2581
 1364SOL     OW 9221   8.016   5.936   7.103  0.1037  0.0512 -0.2733
 1364SOL    HW1 9222   7.971   5.928   7.187 -0.0290 -0.3497 -0.3820
 1364SOL    HW2 9223   7.945   5.952   7.040  0.4633  3.4656  0.1178
 1365SOL     OW 9224   2.488   6.458   0.452  0.1973  0.0171  0.1678
 1365SOL    HW1 9225   2.433   6.438   0.528  1.8597  0.4775  1.5116
 1365SOL    HW2 9226   2.517   6.373   0.420 -0.0691 -0.1484  0.3652
 1366SOL     OW 9227   0.465   3.462  10.235  0.0708 -0.1338 -0.0178
 1366SOL    HW1 9228   0.499   3.372  10.227 -0.4454 -0.4714  1.5789
 1366SOL    HW2 9229   0.373   3.451  10.257 -0.0086  0.7993  0.1129
 1367SOL     OW 9230   9.073   4.643   9.625 -0.4342  0.4038  0.5539
 1367SOL    HW1 9231   8.995   4.617   9.673 -0.5051  1.8879  1.2779
 1367SOL    HW2 9232   9.142   4.647   9.692  0.9025 -3.3863 -0.4741
 1368SOL     OW 9233  10.514   7.647   8.640  0.1407 -0.2061  0.4734
 1368SOL    HW1 9234  10.476   7.602   8.564  0.6940 -0.0562  0.1078
 1368SOL    HW2 9235  10.609   7.641   8.626  0.2559 -0.5414  1.3610
 1369SOL     OW 9236   7.577   8.840   3.145  0.7329 -0.5883  0.2722
 1369SOL    HW1 9237   7.638   8.899   3.187 -0.0172  0.7780 -0.5325
 1369SOL    HW2 9238   7.613   8.824   3.058  1.7089 -2.5296  1.0006
 1370SOL     OW 9239   2.419  10.854   7.242  0.4261 -0.2234  0.1417
 1370SOL    HW1 9240   2.390  10.867   7.152  1.7264 -1.9062 -0.5569
 1370SOL    HW2 9241   2.510  10.824   7.234 -0.2257 -2.9253  1.8689
 1371SOL     OW 9242   0.448   6.798  11.317  0.3783  0.8893 -0.0672
 1371SOL    HW1 9243   0.470   6.799  11.410 -0.2203 -3.0303  0.1925
 1371SOL    HW2 9244   0.533   6.794  11.272  0.6327  1.3920  0.3726
 1372SOL     OW 9245   4.700   9.627   8.353  0.4386  0.4412  0.7638
 1372SOL    HW1 9246   4.774   9.631   8.292 -0.1929  0.7238  0.0113
 1372SOL    HW2 9247   4.661   9.714   8.349 -0.5763 -0.0315  0.3520
 1373SOL     OW 9248   5.142  10.554   5.095  0.1351  0.0639 -0.2349
 1373SOL    HW1 9249   5.070  10.614   5.076 -1.5350 -2.0262 -0.6327
 1373SOL    HW2 9250   5.220  10.598   5.061 -0.9832  2.2083 -0.0673
 1374SOL     OW 9251   9.298   8.448   4.902 -0.4012  0.3213 -0.1082
 1374SOL    HW1 9252   9.345   8.396   4.967 -1.5677 -0.6040  0.0048
 1374SOL    HW2 9253   9.252   8.515   4.953  0.6914  1.1709 -0.2109
 1375SOL     OW 9254   0.770   4.795   1.170  0.0884 -0.3527 -0.0419
 1375SOL    HW1 9255   0.731   4.861   1.227 -0.5777 -1.3206  0.6428
 1375SOL    HW2 9256   0.862   4.821   1.163 -0.0124  0.2556  0.7855
 1376SOL     OW 9257   0.507   7.666   3.282  0.6110 -0.0423 -0.1079
 1376SOL    HW1 9258   0.477   7.753   3.308  0.2279  0.4124 -1.9997
 1376SOL    HW2 9259   0.436   7.607   3.307  0.7140  0.2285  0.8395
 1377SOL     OW 9260   0.645   8.009   8.791 -0.1114 -0.0010 -0.2185
 1377SOL    HW1 9261   0.722   8.044   8.747 -1.0607  1.5939 -0.6686
 1377SOL    HW2 9262   0.584   7.988   8.720 -0.7575  0.4164  0.2064
 1378SOL     OW 9263   0.162   9.575   0.870 -0.2609  0.6025  0.1076
 1378SOL    HW1 9264   0.102   9.506   0.844  0.8467 -0.4718  0.3625
 1378SOL    HW2 9265   0.200   9.545   0.953  0.8919  1.0890 -0.2292
 1379SOL     OW 9266   3.398  10.411   2.927 -0.0125 -0.1146  0.3019
 1379SOL    HW1 9267   3.310  10.403   2.889 -0.2401  3.8539 -0.2412
 1379SOL    HW2 9268   3.448  10.459   2.861  1.1416  2.0613  2.6619
 1380SOL     OW 9269   8.062  10.285   2.355  0.0179  0.2023 -0.0556
 1380SOL    HW1 9270   8.011  10.224   2.408  1.4299 -0.0468  1.0373
 1380SOL    HW2 9271   8.061  10.247   2.267 -1.1578 -0.1133  0.0860
 1381SOL     OW 9272   3.583   4.778   9.938 -0.0687 -0.4512  0.1034
 1381SOL    HW1 9273   3.516   4.719   9.904  0.2582 -1.3509  0.9961
 1381SOL    HW2 9274   3.605   4.742  10.024  0.2799  0.8558  0.5729
 1382SOL     OW 9275   3.148   0.736   6.298  0.2562  0.6909 -0.0584
 1382SOL    HW1 9276   3.211   0.668   6.274  0.1479  0.4696  0.2738
 1382SOL    HW2 9277   3.193   0.818   6.281  0.6749  0.5303  0.2733
 1383SOL     OW 9278  10.482   3.880   5.579 -0.1674 -0.2528  0.1930
 1383SOL    HW1 9279  10.481   3.784   5.579  1.1214 -0.2935 -2.0081
 1383SOL    HW2 9280  10.560   3.903   5.628  1.0847 -0.3907 -1.7097
 1384SOL     OW 9281   0.389   9.983   6.946  0.2917 -0.4536 -0.2353
 1384SOL    HW1 9282   0.436   9.932   7.012  1.9464  0.9963 -0.2679
 1384SOL    HW2 9283   0.453  10.000   6.878 -0.6428  0.4035 -0.9197
 1385SOL     OW 9284   8.869   6.234   2.073  0.2076 -0.0961 -1.0050
 1385SOL    HW1 9285   8.949   6.286   2.064  0.1675  0.2044  0.2583
 1385SOL    HW2 9286   8.897   6.144   2.058  0.4736  0.1733 -2.1624
 1386SOL     OW 9287   6.547   2.348   6.820  0.4192 -0.0335 -0.3725
 1386SOL    HW1 9288   6.526   2.423   6.764  0.5556  0.8267  0.7133
 1386SOL    HW2 9289   6.496   2.363   6.900 -0.4489 -1.6894 -0.5769
 1387SOL     OW 9290   8.295   5.438   5.805 -0.3287  0.4952  0.1247
 1387SOL    HW1 9291   8.271   5.529   5.787 -0.2443  0.5799  0.4293
 1387SOL    HW2 9292   8.234   5.410   5.873  0.2898  0.6476  0.7576
 1388SOL     OW 9293   6.294   1.649   7.961  0.3197  0.0599  0.0054
 1388SOL    HW1 9294   6.335   1.604   7.887  1.6752 -0.1194  0.8569
 1388SOL    HW2 9295   6.355   1.720   7.983 -0.6240  0.8100  0.2286
 1389SOL     OW 9296   4.704   7.944   3.220 -0.2636  0.7846  0.4533
 1389SOL    HW1 9297   4.680   7.966   3.310  1.1299 -0.1477  1.0640
 1389SOL    HW2 9298   4.700   7.849   3.216 -2.8520  0.9210 -1.2139
 1390SOL     OW 9299   7.143   2.861   6.724 -0.1360  0.7248  0.3910
 1390SOL    HW1 9300   7.105   2.932   6.775  0.2661  1.6732 -0.6134
 1390SOL    HW2 9301   7.071   2.830   6.669  0.0538  1.2873 -0.1764
 1391SOL     OW 9302  10.845   6.461   3.778  0.0245 -0.0365 -0.7710
 1391SOL    HW1 9303  10.837   6.404   3.855 -0.8516  1.6168  0.4045
 1391SOL    HW2 9304  10.936   6.453   3.751  0.4889 -0.1968  0.8087
 1392SOL     OW 9305   3.524   5.021   3.769 -0.0225  0.0549  0.3577
 1392SOL    HW1 9306   3.446   4.972   3.794 -0.3849  0.4909  0.0866
 1392SOL    HW2 9307   3.522   5.099   3.823 -0.2870  0.5264 -0.3226
 1393SOL     OW 9308   7.072   3.887   5.938 -0.2145  0.2001 -0.7724
 1393SOL    HW1 9309   7.049   3.959   5.997  1.0435 -0.5118  0.5900
 1393SOL    HW2 9310   7.097   3.930   5.857  0.5427  1.2991  0.0404
 1394SOL     OW 9311   0.065   6.961   0.088 -0.3641  0.2567 -0.0149
 1394SOL    HW1 9312   0.070   7.045   0.132 -2.5330  0.9792 -1.0554
 1394SOL    HW2 9313   0.145   6.956   0.036 -0.5279  1.9713 -0.4478
 1395SOL     OW 9314  11.277   3.399   3.526 -0.3511  0.0631 -0.0615
 1395SOL    HW1 9315  11.257   3.316   3.569  2.2155 -0.0521  1.0386
 1395SOL    HW2 9316  11.371   3.411   3.542 -0.4357  2.5518 -1.3041
 1396SOL     OW 9317   0.546   9.413   5.168  0.4146  0.7929 -0.9161
 1396SOL    HW1 9318   0.623   9.369   5.132 -0.1910  1.2832 -2.8543
 1396SOL    HW2 9319   0.501   9.449   5.092 -0.8995  1.8653  0.3376
 1397SOL     OW 9320  10.365   5.997   1.177  0.4318 -0.1572  0.6690
 1397SOL    HW1 9321  10.398   6.061   1.240  1.6439  0.5329 -0.6475
 1397SOL    HW2 9322  10.361   5.915   1.227  0.7670  0.5083  1.8223
 1398SOL     OW 9323  11.012   7.750   2.170  1.2540  0.0917 -0.4485
 1398SOL    HW1 9324  11.071   7.688   2.213 -0.7812 -1.5546  0.0691
 1398SOL    HW2 9325  10.926   7.709   2.175  0.2156  1.9467 -2.1340
 1399SOL     OW 9326   6.194   2.431   4.522 -0.0710  0.0748 -0.0903
 1399SOL    HW1 9327   6.242   2.438   4.439 -0.2645  0.0555 -0.2024
 1399SOL    HW2 9328   6.123   2.494   4.514  0.0338  0.2207  0.1435
 1400SOL     OW 9329   6.014   5.445   5.892 -0.1459  0.4080 -0.0929
 1400SOL    HW1 9330   6.066   5.526   5.891  0.6123 -0.0735 -0.3165
 1400SOL    HW2 9331   5.927   5.473   5.919  0.3216  1.1833  0.6559
 1401SOL     OW 9332   7.378   0.350   8.242  0.3319 -0.2615 -0.3064
 1401SOL    HW1 9333   7.411   0.284   8.181 -1.0305 -0.6868 -0.6114
 1401SOL    HW2 9334   7.430   0.428   8.224  1.4862 -1.0534 -0.4203
 1402SOL     OW 9335   4.934   9.813   0.979  0.2820  0.1612 -0.6885
 1402SOL    HW1 9336   4.847   9.813   1.019  0.0361  0.5264 -1.2214
 1402SOL    HW2 9337   4.960   9.721   0.979  0.3673  0.1673  0.4793
 1403SOL     OW 9338   9.467   9.918   1.117  0.3619  0.1285  0.3987
 1403SOL    HW1 9339   9.429   9.884   1.037 -1.1930  0.4954  0.9714
 1403SOL    HW2 9340   9.414   9.994   1.139 -0.3657 -1.0225  2.7502
 1404SOL     OW 9341   9.049   2.481   4.208  0.9024  0.3222 -0.2639
 1404SOL    HW1 9342   9.097   2.489   4.291  0.3229  0.7471  0.0271
 1404SOL    HW2 9343   8.979   2.546   4.214 -1.0426 -1.7509  0.2217
 1405SOL     OW 9344   7.620   7.652   6.784  0.0978  0.2736  0.2250
 1405SOL    HW1 9345   7.679   7.591   6.738  1.8000  1.4871  0.7376
 1405SOL    HW2 9346   7.536   7.644   6.738  0.6897 -1.4190 -0.5943
 1406SOL     OW 9347   4.424   0.937  10.978  0.4786  0.3141 -0.3491
 1406SOL    HW1 9348   4.513   0.962  11.004  0.1857  0.7382  0.2608
 1406SOL    HW2 9349   4.375   1.019  10.976  0.2547  0.1673 -1.3239
 1407SOL     OW 9350   7.554   2.208   7.149 -0.1446 -0.4645 -0.2905
 1407SOL    HW1 9351   7.621   2.276   7.154 -0.1159 -0.5394  0.3226
 1407SOL    HW2 9352   7.601   2.127   7.171 -0.0483 -0.7666 -1.5891
 1408SOL     OW 9353   6.924   3.406   3.645 -0.2041  0.2012  0.3721
 1408SOL    HW1 9354   6.881   3.357   3.575 -2.3408  0.2160  1.6184
 1408SOL    HW2 9355   6.995   3.349   3.674  0.0460 -0.2516 -1.0811
 1409SOL     OW 9356   2.310  10.541   7.535 -0.1538 -0.5946  0.5420
 1409SOL    HW1 9357   2.244  10.595   7.491  0.2132  0.2204  0.9770
 1409SOL    HW2 9358   2.288  10.548   7.628  0.5421 -0.3268  0.6881
 1410SOL     OW 9359   3.703   2.834   2.986  0.0350 -0.2942  0.0039
 1410SOL    HW1 9360   3.778   2.812   3.041  0.0849  0.2136  0.1480
 1410SOL    HW2 9361   3.740   2.886   2.915 -0.2589  0.4665  0.3992
 1411SOL     OW 9362   7.460   8.913   1.079  0.1983  0.5600  0.0107
 1411SOL    HW1 9363   7.484   8.835   1.129  1.0781  0.3840 -0.6494
 1411SOL    HW2 9364   7.382   8.888   1.029 -0.6487  0.7258  1.2429
 1412SOL     OW 9365   7.320   6.733   6.509 -0.6085 -0.1072  0.5240
 1412SOL    HW1 9366   7.323   6.647   6.465  0.0472  1.0751 -1.8403
 1412SOL    HW2 9367   7.382   6.725   6.581 -0.3991 -1.5625  0.2071
 1413SOL     OW 9368   7.812   3.968   5.857  0.0214  0.2572 -0.1430
 1413SOL    HW1 9369   7.826   3.978   5.951 -0.3107  1.3833 -0.2017
 1413SOL    HW2 9370   7.856   4.044   5.818 -0.9975  0.5301 -0.7866
 1414SOL     OW 9371   3.526   6.034   8.105 -0.6727 -0.1379  0.1389
 1414SOL    HW1 9372   3.448   5.999   8.063 -0.4873 -1.9199  1.2583
 1414SOL    HW2 9373   3.575   5.957   8.132 -0.2657  0.9806  2.6376
 1415SOL     OW 9374   8.397   9.972  10.195  0.0345 -0.4498 -0.3472
 1415SOL    HW1 9375   8.339  10.024  10.140  0.6257 -0.8199 -1.3254
 1415SOL    HW2 9376   8.482  10.016  10.189 -0.1749  0.2457  1.2845
 1416SOL     OW 9377   3.305   2.089  10.603  0.6225 -0.5059  0.1147
 1416SOL    HW1 9378   3.362   2.040  10.662  0.9780 -0.6087 -0.3213
 1416SOL    HW2 9379   3.308   2.179  10.636  0.1851 -0.7181  0.7437
 1417SOL     OW 9380   8.270   3.093   0.853  0.6249  0.1986  0.2656
 1417SOL    HW1 9381   8.272   2.999   0.871 -0.7502  0.3150  1.0684
 1417SOL    HW2 9382   8.191   3.105   0.800  0.0775  1.0924  1.2841
 1418SOL     OW 9383   9.214   4.171   7.979  0.6187 -1.1049  0.2033
 1418SOL    HW1 9384   9.224   4.170   8.074 -1.6875  0.4119  0.5105
 1418SOL    HW2 9385   9.261   4.250   7.951  1.0501 -1.3918  0.1257
 1419SOL     OW 9386   8.086   1.705   6.780 -0.2196  0.0373  0.4902
 1419SOL    HW1 9387   8.154   1.765   6.810  0.0322  0.8651 -1.5979
 1419SOL    HW2 9388   8.108   1.621   6.820 -0.8039  1.4040  3.7747
 1420SOL     OW 9389   0.234   4.093   5.411  0.0823  0.8802  0.0716
 1420SOL    HW1 9390   0.234   4.088   5.316  0.7408 -0.3552  0.1284
 1420SOL    HW2 9391   0.183   4.018   5.440  2.1946 -0.3485  0.7410
 1421SOL     OW 9392   5.309   0.156   3.360  0.5005  0.0785  0.0037
 1421SOL    HW1 9393   5.303   0.146   3.265 -1.4644 -1.9603  0.3143
 1421SOL    HW2 9394   5.380   0.097   3.386  0.1161 -0.3967 -0.0353
 1422SOL     OW 9395   1.765  10.129   1.934 -0.0088 -0.1974 -0.6183
 1422SOL    HW1 9396   1.826  10.075   1.883 -0.1528  0.5444 -1.5824
 1422SOL    HW2 9397   1.714  10.176   1.868 -0.6844  0.2345  0.2075
 1423SOL     OW 9398   5.512  10.588   3.399  0.3946  0.1122 -0.1270
 1423SOL    HW1 9399   5.458  10.578   3.320  1.7130  1.4188 -1.2212
 1423SOL    HW2 9400   5.457  10.638   3.459 -0.4576 -0.5304 -0.3542
 1424SOL     OW 9401   3.685  10.062   9.653 -0.4544  0.0617 -0.3216
 1424SOL    HW1 9402   3.700   9.968   9.642 -0.3889 -0.1245  1.1739
 1424SOL    HW2 9403   3.610  10.081   9.596 -0.9887 -1.0712 -0.0215
 1425SOL     OW 9404   1.285   7.124   8.124 -0.4745 -0.0140  0.2320
 1425SOL    HW1 9405   1.204   7.158   8.161 -0.1019  0.4084  0.6658
 1425SOL    HW2 9406   1.283   7.150   8.033 -1.8097 -1.8112 -0.2868
 1426SOL     OW 9407   7.348   4.890   1.869 -0.2694  0.0040  0.4754
 1426SOL    HW1 9408   7.345   4.853   1.957  0.0066 -0.3838  0.3230
 1426SOL    HW2 9409   7.437   4.922   1.859 -0.0199 -0.8523 -0.0287
 1427SOL     OW 9410   5.745   4.586   2.408  0.0228 -0.6055 -0.0327
 1427SOL    HW1 9411   5.810   4.541   2.462  1.1832 -0.2494 -1.1049
 1427SOL    HW2 9412   5.669   4.527   2.407 -0.3279 -0.2539  2.6193
 1428SOL     OW 9413   3.797  10.696  10.941 -0.0029  0.8348  0.1512
 1428SOL    HW1 9414   3.738  10.651  10.881 -1.3067  0.1154  1.9172
 1428SOL    HW2 9415   3.810  10.783  10.902  0.5330 -0.2022 -1.9923
 1429SOL     OW 9416   3.317   8.512   2.078 -0.2724 -0.0651  0.0505
 1429SOL    HW1 9417   3.387   8.452   2.105 -0.6266 -0.5965 -0.1957
 1429SOL    HW2 9418   3.289   8.554   2.159  0.3443  0.1614  0.1479
 1430SOL     OW 9419   4.775   8.846   2.668 -0.7805 -0.1113 -0.1892
 1430SOL    HW1 9420   4.694   8.890   2.693 -1.0076 -0.6748  0.0847
 1430SOL    HW2 9421   4.752   8.753   2.665 -0.2846 -0.2228 -0.6681
 1431SOL     OW 9422   9.176   6.867   8.587 -0.6019 -0.3599  0.2333
 1431SOL    HW1 9423   9.149   6.884   8.497 -1.3841 -0.7752  0.3811
 1431SOL    HW2 9424   9.245   6.931   8.604 -1.4150  0.6461 -0.2039
 1432SOL     OW 9425   2.585   0.193   8.140  0.1950 -0.0203  0.2054
 1432SOL    HW1 9426   2.560   0.217   8.050  1.1183  1.3998  0.3134
 1432SOL    HW2 9427   2.663   0.246   8.158 -0.2357  0.0240  1.9975
 1433SOL     OW 9428   9.558  10.757   7.760 -0.1627 -0.6026  0.1994
 1433SOL    HW1 9429   9.552  10.849   7.785  1.1136 -1.1619  2.7197
 1433SOL    HW2 9430   9.633  10.724   7.808  0.5921 -2.5266 -2.1916
 1434SOL     OW 9431   0.616   7.443   9.101  0.1463 -0.0138  0.0214
 1434SOL    HW1 9432   0.687   7.450   9.165  0.9757  2.1645 -1.0876
 1434SOL    HW2 9433   0.658   7.405   9.024 -0.3072 -0.3983 -0.0355
 1435SOL     OW 9434   1.418   0.744   1.867  0.5585  0.1919  0.6974
 1435SOL    HW1 9435   1.368   0.669   1.898  0.6040 -0.4915 -0.8234
 1435SOL    HW2 9436   1.367   0.820   1.896 -0.7403 -0.4704  0.2225
 1436SOL     OW 9437   6.791   0.208   9.275  0.4003 -0.5739 -0.2131
 1436SOL    HW1 9438   6.713   0.263   9.282  0.3882 -0.5385 -0.6095
 1436SOL    HW2 9439   6.785   0.147   9.349  0.8637  0.5166  0.7300
 1437SOL     OW 9440   8.107  10.545   4.167 -0.6960 -0.3130 -0.0675
 1437SOL    HW1 9441   8.169  10.539   4.094 -1.4042  0.5480 -0.7576
 1437SOL    HW2 9442   8.136  10.621   4.217  1.5189 -2.5706  2.2277
 1438SOL     OW 9443   2.899   3.260   2.647  0.3012 -0.1487  0.2513
 1438SOL    HW1 9444   2.804   3.249   2.655  0.4206 -0.5519  1.2544
 1438SOL    HW2 9445   2.910   3.344   2.605 -0.5157 -0.1947 -0.0655
 1439SOL     OW 9446   4.066   4.536  10.415  0.2719  0.3147  0.8168
 1439SOL    HW1 9447   4.133   4.492  10.362  0.5710  2.1094 -0.3654
 1439SOL    HW2 9448   3.995   4.473  10.421  1.4254 -1.0137  0.7161
 1440SOL     OW 9449   5.317   3.645   8.229 -0.1641  0.2538 -0.3149
 1440SOL    HW1 9450   5.254   3.695   8.177 -0.9278  1.7447  1.9793
 1440SOL    HW2 9451   5.380   3.709   8.260  0.9713 -0.8096 -0.3703
 1441SOL     OW 9452   2.352  10.845  10.189  0.1437  0.1822  0.2584
 1441SOL    HW1 9453   2.261  10.845  10.160  0.0873 -0.0696  0.4307
 1441SOL    HW2 9454   2.360  10.766  10.242  0.2505  0.6242  0.9138
 1442SOL     OW 9455   3.577   9.769   7.943 -0.7713  0.6670  0.4329
 1442SOL    HW1 9456   3.516   9.750   8.014 -2.8190  1.6491 -0.9970
 1442SOL    HW2 9457   3.526   9.822   7.881  1.6052  1.6917 -0.7171
 1443SOL     OW 9458   8.127   8.113   9.841 -0.0370 -0.2921  0.2568
 1443SOL    HW1 9459   8.087   8.155   9.916 -0.1584 -1.2842  0.7497
 1443SOL    HW2 9460   8.054   8.082   9.788 -0.0625  3.1772 -1.9257
 1444SOL     OW 9461   6.456  10.555   3.288  0.2362 -0.3872  0.0148
 1444SOL    HW1 9462   6.428  10.487   3.227 -0.3046  0.5829 -0.8219
 1444SOL    HW2 9463   6.546  10.573   3.264 -0.3405  0.8143 -1.2477
 1445SOL     OW 9464   0.469   8.508   3.988 -0.5996 -0.0415  0.2406
 1445SOL    HW1 9465   0.448   8.600   3.972 -2.8578 -0.0919  2.5188
 1445SOL    HW2 9466   0.398   8.460   3.946 -0.7739 -0.6175  1.1928
 1446SOL     OW 9467   6.091   7.584   2.618  0.2891 -0.1501  0.1270
 1446SOL    HW1 9468   6.137   7.612   2.539  1.8764 -1.1395  0.6788
 1446SOL    HW2 9469   6.085   7.488   2.610 -1.9198 -0.0311 -0.0496
 1447SOL     OW 9470   1.557   5.159   0.399 -0.2961  0.0821  0.6838
 1447SOL    HW1 9471   1.486   5.222   0.417  0.0425  0.6020  0.1948
 1447SOL    HW2 9472   1.627   5.212   0.361 -0.6566 -0.8569 -1.3675
 1448SOL     OW 9473   6.990   2.470   8.084 -0.0417  0.3139 -0.0316
 1448SOL    HW1 9474   6.972   2.540   8.146 -1.8929  0.2061 -0.4244
 1448SOL    HW2 9475   7.067   2.425   8.120  0.7973  2.1396  0.5421
 1449SOL     OW 9476   1.417   9.117  10.076 -0.1849 -0.0838  0.5945
 1449SOL    HW1 9477   1.482   9.126  10.145 -0.3623 -0.2619  0.7870
 1449SOL    HW2 9478   1.410   9.022  10.062  1.4408  0.0364 -1.1926
 1450SOL     OW 9479   7.610   4.167   3.860  0.2832  0.2573  0.0180
 1450SOL    HW1 9480   7.638   4.255   3.834  0.7155  0.2458  0.4478
 1450SOL    HW2 9481   7.525   4.155   3.818 -0.0263  1.0915  0.4126
 1451SOL     OW 9482   1.360   3.727   3.036  0.6360 -0.4944  0.5244
 1451SOL    HW1 9483   1.439   3.757   3.081  0.2593  1.4709 -0.0913
 1451SOL    HW2 9484   1.357   3.778   2.955 -1.5104 -0.2103  0.7563
 1452SOL     OW 9485  11.000  10.820   7.818  0.0241  0.2512 -0.1713
 1452SOL    HW1 9486  11.080  10.823   7.766  0.5347  1.6781  0.6752
 1452SOL    HW2 9487  11.028  10.787   7.903 -0.3813  0.2849 -0.0208
 1453SOL     OW 9488   6.011   2.295   2.596 -0.2581 -0.3805 -0.2977
 1453SOL    HW1 9489   6.000   2.253   2.511  0.4460  0.8700 -1.0243
 1453SOL    HW2 9490   6.003   2.224   2.660 -1.2880 -1.2458 -1.3761
 1454SOL     OW 9491   2.646   3.109   0.177 -0.4720  0.2271 -0.0346
 1454SOL    HW1 9492   2.665   3.121   0.084 -0.1971 -0.7974 -0.1191
 1454SOL    HW2 9493   2.574   3.170   0.195 -0.9111  0.0223 -1.0541
 1455SOL     OW 9494   6.699   8.851  10.083 -0.0648  0.6315 -0.0531
 1455SOL    HW1 9495   6.776   8.836  10.028  0.6558 -0.0422  1.1074
 1455SOL    HW2 9496   6.718   8.803  10.164 -2.9297 -1.9574 -0.7938
 1456SOL     OW 9497   3.808   1.135   1.639  0.2845  0.1978 -0.1414
 1456SOL    HW1 9498   3.770   1.095   1.561  0.0556  0.4127 -0.1407
 1456SOL    HW2 9499   3.783   1.227   1.633  0.7231  0.3192 -0.0905
 1457SOL     OW 9500   8.612   8.596   9.573 -0.0347  0.6267 -0.6054
 1457SOL    HW1 9501   8.662   8.644   9.508 -1.2167  2.5307 -0.1362
 1457SOL    HW2 9502   8.609   8.653   9.649  0.2143 -1.0307  0.6761
 1458SOL     OW 9503   4.404   5.013   9.832  0.5898  0.1753 -0.1121
 1458SOL    HW1 9504   4.458   5.091   9.816  0.6276  0.3353  0.7760
 1458SOL    HW2 9505   4.403   4.967   9.748  1.0412  0.8391 -0.4878
 1459SOL     OW 9506  10.166   6.301   5.044 -0.2698  0.6227  0.3063
 1459SOL    HW1 9507  10.197   6.295   4.954  0.2555 -0.3083  0.5413
 1459SOL    HW2 9508  10.072   6.318   5.036 -0.5347 -1.1125 -0.4174
 1460SOL     OW 9509   2.941   6.393   0.719 -0.0765  0.4436 -0.3020
 1460SOL    HW1 9510   2.992   6.452   0.663  0.0771 -0.1657 -0.8065
 1460SOL    HW2 9511   2.850   6.419   0.703  0.0121  0.8349 -0.1906
 1461SOL     OW 9512   6.121   2.320   1.847 -0.1993  0.0896  0.3699
 1461SOL    HW1 9513   6.167   2.384   1.902  0.8381 -0.1741 -0.1776
 1461SOL    HW2 9514   6.151   2.235   1.879  1.3532 -0.0480 -1.3768
 1462SOL     OW 9515  10.910   2.993   7.574  0.0718 -0.0014  0.2849
 1462SOL    HW1 9516  10.858   2.921   7.537 -1.3651  0.8528  0.6124
 1462SOL    HW2 9517  10.866   3.015   7.656  1.7840 -0.1967  1.2978
 1463SOL     OW 9518  10.634  10.598   6.130  0.3935 -0.3796 -0.0068
 1463SOL    HW1 9519  10.709  10.640   6.171 -0.1918  0.0731  0.6064
 1463SOL    HW2 9520  10.557  10.638   6.172 -0.1792 -1.6592  0.2171
 1464SOL     OW 9521   2.273   6.854   4.289 -0.0446 -0.6272 -0.3164
 1464SOL    HW1 9522   2.202   6.861   4.226  0.5999 -0.1443 -1.0031
 1464SOL    HW2 9523   2.298   6.944   4.307  0.8764 -0.8089 -0.6463
 1465SOL     OW 9524   5.370   0.051   3.727  0.0086  0.3591  0.1223
 1465SOL    HW1 9525   5.365  -0.007   3.802 -1.0897  1.8111  1.2017
 1465SOL    HW2 9526   5.464   0.066   3.714  0.2475 -0.7809  0.4886
 1466SOL     OW 9527  10.481   6.478   0.814 -0.2718  0.0962 -0.1549
 1466SOL    HW1 9528  10.399   6.428   0.819  0.1531 -0.6329 -0.2722
 1466SOL    HW2 9529  10.509   6.486   0.905  0.5005 -1.3366 -0.2413
 1467SOL     OW 9530   9.900   4.717   2.082  0.0924  0.6292  0.3547
 1467SOL    HW1 9531   9.937   4.658   2.016  0.0258  0.4820  0.4512
 1467SOL    HW2 9532   9.839   4.773   2.033 -2.1245 -1.3620  0.7720
 1468SOL     OW 9533  10.248   9.741   3.327 -0.1815 -0.4560  0.2117
 1468SOL    HW1 9534  10.233   9.647   3.334  1.0061 -0.6272  0.6036
 1468SOL    HW2 9535  10.280   9.766   3.414  1.2441 -0.0126 -0.4383
 1469SOL     OW 9536   1.147  11.288   1.349  0.3090  0.3867 -0.0855
 1469SOL    HW1 9537   1.129  11.209   1.400  0.1569 -0.0997 -0.8788
 1469SOL    HW2 9538   1.233  11.317   1.379  1.8078 -1.8702 -1.9877
 1470SOL     OW 9539  11.021   4.657   1.688  0.4498  0.1999  0.1000
 1470SOL    HW1 9540  11.049   4.613   1.609 -2.0350 -0.6255 -0.3800
 1470SOL    HW2 9541  11.088   4.637   1.753  0.2208 -2.9228 -0.5646
 1471SOL     OW 9542   5.866   9.492   4.954  0.0549 -0.3788  0.0374
 1471SOL    HW1 9543   5.826   9.407   4.973  0.3034 -0.6606 -0.6630
 1471SOL    HW2 9544   5.927   9.506   5.026  0.1325 -0.8773  0.0732
 1472SOL     OW 9545  10.002   1.814   4.588 -0.3655 -0.0321 -0.7196
 1472SOL    HW1 9546  10.010   1.830   4.682 -0.7800 -0.8630 -0.5402
 1472SOL    HW2 9547   9.968   1.725   4.582  0.1445 -0.1680 -1.6674
 1473SOL     OW 9548   8.120   4.818  11.282 -0.1685  0.1793 -0.4071
 1473SOL    HW1 9549   8.168   4.873  11.344  0.9129 -0.1913 -0.8912
 1473SOL    HW2 9550   8.153   4.729  11.299 -0.5177 -0.0479 -0.9045
 1474SOL     OW 9551   6.743  11.159   0.896 -0.4096  0.1582  0.4744
 1474SOL    HW1 9552   6.709  11.238   0.940  2.1089  0.7839  1.4052
 1474SOL    HW2 9553   6.812  11.128   0.955 -1.0128 -2.4582 -0.1641
 1475SOL     OW 9554   8.227   6.284   6.633 -0.6132  0.5261 -0.0502
 1475SOL    HW1 9555   8.292   6.215   6.618 -0.1491  1.0553 -0.5179
 1475SOL    HW2 9556   8.266   6.340   6.701 -2.6139 -1.7373  3.0903
 1476SOL     OW 9557   0.954   6.227   5.840  0.1644  0.4618  0.1460
 1476SOL    HW1 9558   0.885   6.214   5.905  0.2363 -1.6537 -0.1531
 1476SOL    HW2 9559   1.036   6.218   5.889  0.2161 -0.4019 -0.0849
 1477SOL     OW 9560   3.949   5.233   7.289 -0.7811 -0.6313 -0.1683
 1477SOL    HW1 9561   3.970   5.144   7.263 -1.2925 -0.6971 -0.3567
 1477SOL    HW2 9562   3.948   5.283   7.207 -0.8427 -0.5232 -0.1028
 1478SOL     OW 9563   5.459   8.120   0.948  0.0409  0.2439 -0.7808
 1478SOL    HW1 9564   5.395   8.174   0.994 -0.3820  2.0096 -3.3124
 1478SOL    HW2 9565   5.430   8.030   0.963  0.0169  0.7145  2.4196
 1479SOL     OW 9566   1.944   4.086   3.417 -0.2226  0.6206  0.4971
 1479SOL    HW1 9567   1.977   4.130   3.495 -0.4541  1.0733  0.3416
 1479SOL    HW2 9568   1.857   4.055   3.442  0.0553 -0.0005  0.6983
 1480SOL     OW 9569   9.931   3.050   8.902  0.6681  0.1262  0.5922
 1480SOL    HW1 9570  10.011   3.028   8.949 -0.6247 -0.6846  2.5123
 1480SOL    HW2 9571   9.925   2.986   8.832  1.6078  0.0926  0.5408
 1481SOL     OW 9572   6.636   0.008   2.627  0.1149 -0.0506 -0.1168
 1481SOL    HW1 9573   6.624   0.040   2.716  0.1814 -0.8585  0.1760
 1481SOL    HW2 9574   6.596  -0.079   2.626 -1.5282  0.6814 -1.3556
 1482SOL     OW 9575  10.729   4.924   1.620  0.4866 -0.7647 -0.0785
 1482SOL    HW1 9576  10.650   4.947   1.571  1.4242  0.4346 -1.0516
 1482SOL    HW2 9577  10.716   4.963   1.706  0.3166  0.0147 -0.4538
 1483SOL     OW 9578   4.081   3.155   1.473 -0.0676  0.0975 -0.3493
 1483SOL    HW1 9579   4.021   3.092   1.435 -0.4097  1.2011 -1.6739
 1483SOL    HW2 9580   4.027   3.207   1.532 -0.1916  0.4238 -0.7532
 1484SOL     OW 9581   0.296   1.427   9.062 -0.7035 -0.5983  0.0529
 1484SOL    HW1 9582   0.372   1.369   9.061 -1.6447 -1.8776  0.3684
 1484SOL    HW2 9583   0.224   1.370   9.089 -1.6832  0.6966  0.1936
 1485SOL     OW 9584   2.978   8.104  11.230 -0.0070 -0.2860 -1.0950
 1485SOL    HW1 9585   2.886   8.118  11.207 -0.2510  1.8058  0.9261
 1485SOL    HW2 9586   3.027   8.124  11.151 -1.0532  2.8409 -1.0152
 1486SOL     OW 9587   8.585   2.776   0.466 -0.2870 -0.2257 -0.1525
 1486SOL    HW1 9588   8.500   2.793   0.508  0.2303  0.0410  0.8099
 1486SOL    HW2 9589   8.640   2.741   0.537  0.7426  0.6336 -0.5171
 1487SOL     OW 9590   3.863   5.096   1.519 -0.5495  0.2258  0.5747
 1487SOL    HW1 9591   3.955   5.080   1.539 -0.3051  0.1148 -0.6103
 1487SOL    HW2 9592   3.859   5.099   1.423 -1.6646  0.8899  0.6317
 1488SOL     OW 9593   9.045   9.871   0.448 -0.0069 -0.2134 -0.3560
 1488SOL    HW1 9594   9.099   9.794   0.430  0.2030 -0.0420 -0.4684
 1488SOL    HW2 9595   9.063   9.930   0.374  2.5322  1.4199  1.4779
 1489SOL     OW 9596   7.151   5.335   1.978  0.2152 -0.1518  0.6502
 1489SOL    HW1 9597   7.065   5.306   2.010  0.0648  0.8210  1.1603
 1489SOL    HW2 9598   7.131   5.409   1.921  0.8700  1.8591  2.9378
 1490SOL     OW 9599   9.550   5.814   0.392  0.0502  0.3846 -0.1228
 1490SOL    HW1 9600   9.625   5.846   0.442 -0.1254 -0.9215  0.9862
 1490SOL    HW2 9601   9.481   5.878   0.409  0.3044  0.5026  0.4642
 1491SOL     OW 9602   9.635   9.791   8.469 -0.6905 -0.3241  0.1536
 1491SOL    HW1 9603   9.596   9.749   8.545  1.6154 -0.0129  1.5456
 1491SOL    HW2 9604   9.595   9.878   8.467 -0.6496 -0.2748  1.1274
 1492SOL     OW 9605   1.804   0.274   0.383 -0.4219 -0.2479 -0.1523
 1492SOL    HW1 9606   1.899   0.264   0.371 -0.5979  0.1020 -2.1479
 1492SOL    HW2 9607   1.784   0.357   0.340 -1.5825 -0.1285  0.6071
 1493SOL     OW 9608   9.067  10.980   6.740 -0.8329 -0.1241  0.9204
 1493SOL    HW1 9609   8.989  10.984   6.796 -1.5701 -1.4449  0.0258
 1493SOL    HW2 9610   9.137  10.949   6.798 -1.0693  0.6475  1.6263
 1494SOL     OW 9611   1.198   7.770   7.551  0.6660  0.0128  0.5154
 1494SOL    HW1 9612   1.256   7.774   7.476 -1.3969  0.8572 -1.0925
 1494SOL    HW2 9613   1.194   7.860   7.584  0.1896 -0.0158  0.5474
 1495SOL     OW 9614   1.996  10.409   6.095  0.1385  0.8861 -0.0944
 1495SOL    HW1 9615   2.080  10.401   6.140  0.8762  0.6476 -1.5025
 1495SOL    HW2 9616   1.932  10.417   6.166  1.2083 -0.1438  1.0120
 1496SOL     OW 9617   5.779   2.940   4.705 -0.2041  0.4093  0.1290
 1496SOL    HW1 9618   5.746   3.005   4.767 -0.3594  0.7507 -0.3056
 1496SOL    HW2 9619   5.759   2.977   4.619  1.3135  0.6273 -0.1422
 1497SOL     OW 9620  10.316   9.235   2.811 -0.7589  0.1390 -0.0791
 1497SOL    HW1 9621  10.235   9.281   2.790 -0.1462  1.9242  1.3012
 1497SOL    HW2 9622  10.300   9.198   2.898 -0.2009  0.2546  0.0758
 1498SOL     OW 9623  11.067   7.349   4.790 -0.0243 -0.1927 -0.2807
 1498SOL    HW1 9624  11.161   7.360   4.782  0.0546 -0.3817  0.3242
 1498SOL    HW2 9625  11.046   7.387   4.876 -0.6340  0.7256 -0.8241
 1499SOL     OW 9626   9.973   2.102   5.084 -0.5016  0.5995 -0.7351
 1499SOL    HW1 9627  10.037   2.166   5.054 -0.9134  1.1483 -0.4452
 1499SOL    HW2 9628   9.889   2.146   5.075 -0.7892  0.0994 -0.5361
 1500SOL     OW 9629   1.748   1.397   1.102 -0.2640 -0.2782 -0.1601
 1500SOL    HW1 9630   1.821   1.414   1.042 -0.5811 -0.5849 -0.6315
 1500SOL    HW2 9631   1.681   1.460   1.077 -0.0156  0.2613  0.5256
 1501SOL     OW 9632   7.761   2.906   3.566  0.1578 -0.2672  0.7254
 1501SOL    HW1 9633   7.738   2.852   3.641 -0.3180 -0.3640  0.5120
 1501SOL    HW2 9634   7.713   2.867   3.492  1.1113 -0.5552  0.2472
 1502SOL     OW 9635   8.184  10.894   7.140  0.4736  0.0069  0.4914
 1502SOL    HW1 9636   8.214  10.804   7.148 -1.4363 -0.6821  0.2610
 1502SOL    HW2 9637   8.185  10.928   7.230 -1.9003 -1.3213  1.0809
 1503SOL     OW 9638   4.946   8.054   6.046  0.2872 -0.4935 -0.0137
 1503SOL    HW1 9639   4.938   7.988   6.114  0.8597  1.2873  1.8522
 1503SOL    HW2 9640   5.036   8.085   6.053  0.0174  0.5045 -0.8194
 1504SOL     OW 9641   2.910   9.659  11.051 -0.0925 -0.5736  0.0591
 1504SOL    HW1 9642   2.832   9.619  11.011 -0.6426  0.3325  0.2144
 1504SOL    HW2 9643   2.896   9.753  11.041  0.2336 -0.3634  1.5036
 1505SOL     OW 9644   4.334   0.699   1.548  0.6136  0.1352  0.1693
 1505SOL    HW1 9645   4.404   0.637   1.568  0.8500 -0.1153 -1.3896
 1505SOL    HW2 9646   4.342   0.767   1.615  0.6940 -1.2315  1.5526
 1506SOL     OW 9647   9.460   9.620   1.661 -0.3659  0.1769 -0.2935
 1506SOL    HW1 9648   9.449   9.646   1.752 -2.2248 -0.7614 -0.2433
 1506SOL    HW2 9649   9.511   9.539   1.665  0.0479  0.4401 -0.1326
 1507SOL     OW 9650   2.538   7.406   2.523 -0.2820 -0.2150 -0.0546
 1507SOL    HW1 9651   2.507   7.379   2.437 -2.1684 -0.1025  0.5724
 1507SOL    HW2 9652   2.545   7.501   2.517  0.8245 -0.3199 -0.4773
 1508SOL     OW 9653   1.737  10.504   1.694  0.0008 -0.0471  0.3018
 1508SOL    HW1 9654   1.675  10.438   1.663  1.2924 -0.4088 -1.6170
 1508SOL    HW2 9655   1.681  10.575   1.726 -1.4552 -0.1340 -1.8850
 1509SOL     OW 9656   3.059   6.767   0.762 -0.2297 -0.9354 -0.5478
 1509SOL    HW1 9657   3.004   6.739   0.689 -1.8111  0.3031  0.1449
 1509SOL    HW2 9658   3.064   6.862   0.753 -1.6237 -0.6017  1.7334
 1510SOL     OW 9659   7.399   4.862  10.449 -0.6497 -0.2087 -0.8644
 1510SOL    HW1 9660   7.367   4.772  10.439  2.6503 -1.5623 -0.0413
 1510SOL    HW2 9661   7.415   4.892  10.360 -0.5236 -0.9290 -1.0892
 1511SOL     OW 9662   4.889   9.423  11.049  0.2054 -0.1515  0.2089
 1511SOL    HW1 9663   4.803   9.437  11.008  0.2780  0.9205  0.3951
 1511SOL    HW2 9664   4.888   9.332  11.078 -0.4653 -0.4556 -0.7403
 1512SOL     OW 9665   6.631   8.116   9.710 -0.3854  0.0257  0.1764
 1512SOL    HW1 9666   6.590   8.112   9.797  0.3189 -0.2544  0.4963
 1512SOL    HW2 9667   6.562   8.088   9.650 -0.1784 -2.0425  0.8769
 1513SOL     OW 9668   7.372   5.106   7.188  0.0128  0.5228  0.3056
 1513SOL    HW1 9669   7.359   5.012   7.193  0.4269  0.2247 -3.1773
 1513SOL    HW2 9670   7.453   5.116   7.138 -1.3760  2.7438 -1.5906
 1514SOL     OW 9671   1.812   5.306   0.617  0.3300 -0.1586  0.4693
 1514SOL    HW1 9672   1.829   5.217   0.588 -0.4232  0.7200 -2.9971
 1514SOL    HW2 9673   1.879   5.359   0.573 -0.6300  1.2217  0.6207
 1515SOL     OW 9674   5.659   6.430   4.149 -0.1386  0.1509  0.2039
 1515SOL    HW1 9675   5.724   6.363   4.171 -1.0487 -0.3582  1.3759
 1515SOL    HW2 9676   5.595   6.385   4.094 -0.8507 -0.0114  1.1440
 1516SOL     OW 9677   5.292   6.966   1.435 -0.1887 -0.0100 -0.1059
 1516SOL    HW1 9678   5.383   6.934   1.429 -0.1839 -0.3275  1.4874
 1516SOL    HW2 9679   5.254   6.914   1.506 -1.6678  0.0227 -0.8689
 1517SOL     OW 9680   4.308   8.899   1.820 -0.4524 -0.1267 -0.5674
 1517SOL    HW1 9681   4.311   8.960   1.894 -0.2175  0.6451 -1.2044
 1517SOL    HW2 9682   4.396   8.903   1.782 -0.6568 -0.3015 -1.0623
 1518SOL     OW 9683   8.296   5.735   6.808 -0.3648  0.3909 -0.0402
 1518SOL    HW1 9684   8.310   5.726   6.902  0.1747 -0.0894 -0.1638
 1518SOL    HW2 9685   8.229   5.803   6.800  0.4436  1.2798  0.6426
 1519SOL     OW 9686   2.668   6.803   1.211  0.0669 -0.3313 -0.1506
 1519SOL    HW1 9687   2.747   6.816   1.159  0.6756 -1.0953  0.5792
 1519SOL    HW2 9688   2.696   6.818   1.301 -1.0472  1.2648 -0.0534
 1520SOL     OW 9689   7.495  10.777   4.771 -0.0367  0.3147  0.8516
 1520SOL    HW1 9690   7.548  10.852   4.801 -0.0056  0.9608 -0.7433
 1520SOL    HW2 9691   7.412  10.816   4.745 -0.0813 -0.2306  0.1694
 1521SOL     OW 9692   3.533   1.041   0.042 -0.0294 -0.9046 -0.0367
 1521SOL    HW1 9693   3.625   1.064   0.026  0.2679 -1.4233  0.9233
 1521SOL    HW2 9694   3.483   1.108  -0.005  0.8332 -0.0558  0.2495
 1522SOL     OW 9695   2.771   1.155   1.967  0.1142  0.5347  0.3852
 1522SOL    HW1 9696   2.738   1.129   1.881 -0.1513 -2.8309  1.4192
 1522SOL    HW2 9697   2.865   1.171   1.954  0.3651 -1.3888 -0.2603
 1523SOL     OW 9698   1.223  10.483   2.406 -0.4312 -0.0765 -0.5700
 1523SOL    HW1 9699   1.238  10.443   2.320  2.8735 -0.7354  0.2354
 1523SOL    HW2 9700   1.231  10.411   2.468 -2.3718  0.4767  0.3471
 1524SOL     OW 9701   9.521   0.832   0.754  0.0146  0.2191  0.4570
 1524SOL    HW1 9702   9.484   0.823   0.842  1.2471 -2.2963  0.7688
 1524SOL    HW2 9703   9.579   0.756   0.744  0.0288  0.5342 -2.4643
 1525SOL     OW 9704   1.145  10.506   3.510  0.5224 -0.0443  0.3453
 1525SOL    HW1 9705   1.114  10.416   3.501  2.0692 -0.4774 -0.8823
 1525SOL    HW2 9706   1.178  10.512   3.600  0.1333 -0.6239  0.5225
 1526SOL     OW 9707   1.632   3.633   6.525  0.0181  0.9210 -0.2676
 1526SOL    HW1 9708   1.633   3.563   6.589 -0.4837 -1.1792 -2.4622
 1526SOL    HW2 9709   1.602   3.710   6.573  0.7445 -0.3189  2.2223
 1527SOL     OW 9710   8.362   7.830   1.078 -0.0846 -0.3934 -0.2103
 1527SOL    HW1 9711   8.428   7.890   1.044  0.9254 -0.7187  1.1138
 1527SOL    HW2 9712   8.280   7.879   1.075  0.3415  0.2543 -1.2471
 1528SOL     OW 9713  11.131   6.904  11.310  0.2456  0.0335  0.2380
 1528SOL    HW1 9714  11.217   6.928  11.343  0.5112  0.8987 -1.0322
 1528SOL    HW2 9715  11.109   6.974  11.249 -1.2815 -0.2799  0.4125
 1529SOL     OW 9716   4.310   4.751  10.684 -0.0773  0.0302 -0.6278
 1529SOL    HW1 9717   4.229   4.799  10.668  0.4527  0.9056 -0.7269
 1529SOL    HW2 9718   4.379   4.817  10.678  0.5332 -0.4578  0.7373
 1530SOL     OW 9719   3.146   1.726   9.945  0.7684 -0.3289 -0.1479
 1530SOL    HW1 9720   3.111   1.662   9.883  0.0127 -0.0030 -0.0649
 1530SOL    HW2 9721   3.070   1.754   9.996  1.7456 -2.2195  2.4551
 1531SOL     OW 9722   2.531   2.372  10.711 -0.0867  0.5021  0.0622
 1531SOL    HW1 9723   2.592   2.316  10.663  1.2208  0.1840  2.0234
 1531SOL    HW2 9724   2.479   2.311  10.763 -1.1222  0.8793 -0.5269
 1532SOL     OW 9725   7.914   9.415  11.257  0.7367 -0.0660 -0.2090
 1532SOL    HW1 9726   7.981   9.391  11.320  0.6858  2.1088  0.7282
 1532SOL    HW2 9727   7.875   9.332  11.230  2.1825 -1.1698  1.0260
 1533SOL     OW 9728   4.113   0.046   1.910  0.0092 -0.0295  0.0464
 1533SOL    HW1 9729   4.123   0.119   1.971 -0.0330 -0.1430  0.1894
 1533SOL    HW2 9730   4.023   0.017   1.923  0.4017 -0.8867  0.8572
 1534SOL     OW 9731   2.236   8.240   0.578  0.5302  0.1420  0.6201
 1534SOL    HW1 9732   2.318   8.288   0.588 -0.0116  1.2354 -0.1339
 1534SOL    HW2 9733   2.203   8.230   0.668  1.0287  0.5041  0.8482
 1535SOL     OW 9734   0.932   8.238   6.546 -0.3163  0.4876  0.1998
 1535SOL    HW1 9735   0.969   8.326   6.537  0.3392  0.1384 -0.5548
 1535SOL    HW2 9736   0.988   8.182   6.492 -0.4439 -0.4826  1.0564
 1536SOL     OW 9737   9.912   3.180   1.689 -0.4762 -0.4277  0.0742
 1536SOL    HW1 9738   9.987   3.198   1.746 -0.8260 -0.2858  0.4916
 1536SOL    HW2 9739   9.854   3.256   1.701 -0.1184  0.0544 -1.1787
 1537SOL     OW 9740   7.398   4.257   0.502  0.3204 -0.4224  0.2045
 1537SOL    HW1 9741   7.338   4.191   0.537  0.6618 -0.4271  0.7822
 1537SOL    HW2 9742   7.485   4.223   0.521  0.4975  1.0746  2.1665
 1538SOL     OW 9743   6.185   3.690   1.561 -0.4203 -0.1280  0.4948
 1538SOL    HW1 9744   6.188   3.617   1.623  0.0324  0.2385  0.9093
 1538SOL    HW2 9745   6.150   3.763   1.612 -1.7087 -0.2782 -0.1546
 1539SOL     OW 9746   2.511   2.416   6.125 -0.4819 -0.1159 -0.2811
 1539SOL    HW1 9747   2.571   2.477   6.084 -1.0518 -0.0762 -1.0613
 1539SOL    HW2 9748   2.558   2.385   6.203  1.5300 -1.8678 -2.1135
 1540SOL     OW 9749   9.320   9.862   0.600 -0.1847  0.1596 -0.1882
 1540SOL    HW1 9750   9.314   9.938   0.543  0.0993  0.2246 -0.1365
 1540SOL    HW2 9751   9.315   9.787   0.540  0.7255  0.2340 -0.3667
 1541SOL     OW 9752   9.807   2.837   0.256  0.2523 -0.2963  0.1694
 1541SOL    HW1 9753   9.874   2.894   0.295  0.2323 -0.2534  0.1420
 1541SOL    HW2 9754   9.841   2.749   0.266  1.1650 -0.1433 -1.4980
 1542SOL     OW 9755  10.227   2.640   4.624 -0.3328 -0.2715 -0.2701
 1542SOL    HW1 9756  10.180   2.716   4.659 -2.1011 -1.0846 -0.8320
 1542SOL    HW2 9757  10.302   2.630   4.682 -1.9886 -0.2299  1.9896
 1543SOL     OW 9758   5.010   3.815   1.333 -0.3641  0.3343  0.0578
 1543SOL    HW1 9759   5.011   3.907   1.304 -1.0991  0.3237 -0.0073
 1543SOL    HW2 9760   4.918   3.797   1.351 -0.2973 -0.5819 -0.5126
 1544SOL     OW 9761   8.253  10.450   9.173 -0.3353  0.0518  0.1732
 1544SOL    HW1 9762   8.165  10.465   9.206  0.0222 -2.2650  2.3691
 1544SOL    HW2 9763   8.243  10.447   9.077 -2.5316  0.3089  0.3714
 1545SOL     OW 9764   1.521  11.130   7.729  0.5216  0.1863  0.5267
 1545SOL    HW1 9765   1.567  11.095   7.806  0.1332  3.2126  2.2335
 1545SOL    HW2 9766   1.555  11.219   7.720 -0.8166  0.4998 -1.6795
 1546SOL     OW 9767   9.125   0.476   0.007  0.0013 -0.2553  0.4308
 1546SOL    HW1 9768   9.209   0.519   0.023 -0.1448 -0.4075  1.6899
 1546SOL    HW2 9769   9.104   0.434   0.091 -1.0913 -0.6273 -0.0266
 1547SOL     OW 9770   9.429   3.019   1.070  0.1722  0.1767 -0.4302
 1547SOL    HW1 9771   9.522   3.043   1.063  0.0772  0.6084 -0.2583
 1547SOL    HW2 9772   9.383   3.103   1.067 -0.3701 -0.1691 -3.1127
 1548SOL     OW 9773   3.672   3.360   1.809  0.2301  0.6263  0.4420
 1548SOL    HW1 9774   3.683   3.270   1.780  0.3430  0.7400  0.1314
 1548SOL    HW2 9775   3.684   3.413   1.730  0.1201  0.9104  0.6132
 1549SOL     OW 9776   3.343   2.821   3.449  0.1657 -0.4719 -0.3051
 1549SOL    HW1 9777   3.258   2.783   3.429 -0.1646  0.2126 -0.2226
 1549SOL    HW2 9778   3.324   2.911   3.475  0.7642 -0.7426  1.1727
 1550SOL     OW 9779   1.900   9.327   8.665 -0.0739 -0.8903  0.7965
 1550SOL    HW1 9780   1.991   9.309   8.690  0.1075  1.1544  1.7271
 1550SOL    HW2 9781   1.857   9.242   8.669  1.5484 -1.7160  1.4105
 1551SOL     OW 9782   0.811   7.496   9.328  0.7650  0.9236  0.1378
 1551SOL    HW1 9783   0.884   7.509   9.388  0.7761  1.8180 -0.0591
 1551SOL    HW2 9784   0.750   7.439   9.375  1.0082  1.2112  0.8014
 1552SOL     OW 9785   7.478   2.041   8.324 -0.1256 -0.2151  0.5559
 1552SOL    HW1 9786   7.405   1.980   8.318 -0.2002 -0.0071 -0.7104
 1552SOL    HW2 9787   7.493   2.050   8.418 -1.0660 -1.0406  0.7981
 1553SOL     OW 9788   2.377   3.503   6.687 -0.0474 -0.2429 -0.3126
 1553SOL    HW1 9789   2.455   3.515   6.634  0.3373 -1.7085 -0.1064
 1553SOL    HW2 9790   2.304   3.510   6.626  0.2400  1.0565 -0.5168
 1554SOL     OW 9791  10.817   2.414   9.979 -0.0086  0.4144  0.6056
 1554SOL    HW1 9792  10.850   2.475  10.046 -1.3923  0.1428  1.5555
 1554SOL    HW2 9793  10.760   2.467   9.924  1.0358  0.6090 -0.2876
 1555SOL     OW 9794   4.905   0.070  10.270  0.0504  0.2586  0.1473
 1555SOL    HW1 9795   4.876   0.018  10.195  1.2353 -1.4771  0.8436
 1555SOL    HW2 9796   4.825   0.089  10.319 -0.7551  1.5916 -1.6451
 1556SOL     OW 9797   2.631   6.367   5.409  0.0323 -0.7974  0.3947
 1556SOL    HW1 9798   2.678   6.400   5.332  2.7229 -1.4596  1.6833
 1556SOL    HW2 9799   2.659   6.276   5.416  0.4764 -0.5075  2.5985
 1557SOL     OW 9800   2.784   2.192   1.585 -0.1457 -0.0075  0.3870
 1557SOL    HW1 9801   2.750   2.128   1.522  0.9991 -1.0403  0.7886
 1557SOL    HW2 9802   2.879   2.190   1.572 -0.0331  0.9584  1.0280
 1558SOL     OW 9803   6.310   4.137   4.761  0.2114  0.0155  0.5732
 1558SOL    HW1 9804   6.369   4.072   4.801  0.8353  1.0204  1.3368
 1558SOL    HW2 9805   6.261   4.173   4.836 -2.3201 -1.7060 -0.1963
 1559SOL     OW 9806   9.459  10.624  10.632  0.3388 -0.3968  0.5615
 1559SOL    HW1 9807   9.512  10.555  10.592 -0.4518 -1.3032  1.0348
 1559SOL    HW2 9808   9.383  10.578  10.667 -0.6317  0.8429  0.1285
 1560SOL     OW 9809   6.721   7.079   9.482  0.9673  0.2942  0.1749
 1560SOL    HW1 9810   6.727   7.172   9.506  0.3929  0.2805  0.3800
 1560SOL    HW2 9811   6.663   7.077   9.406  1.9684  0.2289 -0.6011
 1561SOL     OW 9812   7.120   2.202   7.070 -0.0010  0.5396 -0.8471
 1561SOL    HW1 9813   7.039   2.230   7.112 -1.5332 -2.1572 -1.8872
 1561SOL    HW2 9814   7.106   2.219   6.977  0.9935  0.8709 -0.9460
 1562SOL     OW 9815   3.407   9.548   1.364  0.1241  0.4459  0.2844
 1562SOL    HW1 9816   3.466   9.601   1.418  1.3318 -0.2132 -0.3775
 1562SOL    HW2 9817   3.437   9.562   1.275 -2.1194  1.8501 -0.2956
 1563SOL     OW 9818   0.506   0.441   9.522  0.1696  0.0481 -0.3824
 1563SOL    HW1 9819   0.412   0.428   9.525  0.1294 -0.2328 -1.9931
 1563SOL    HW2 9820   0.522   0.519   9.574 -0.7350 -0.9234  1.3883
 1564SOL     OW 9821   7.192   3.883   7.263 -0.1247  0.4778 -0.1502
 1564SOL    HW1 9822   7.144   3.940   7.203 -0.4384 -0.2148 -0.5667
 1564SOL    HW2 9823   7.149   3.896   7.348 -0.1050  0.9655 -0.2142
 1565SOL     OW 9824   9.966   5.802   5.883 -0.5491 -0.0129 -0.4854
 1565SOL    HW1 9825   9.887   5.812   5.935 -0.5651 -0.7945 -0.3550
 1565SOL    HW2 9826   9.961   5.714   5.847  0.6701 -0.3738  0.2036
 1566SOL     OW 9827   1.758   6.424   5.264  0.7676  0.0244 -0.0925
 1566SOL    HW1 9828   1.726   6.475   5.338 -0.8605 -0.8278 -0.1865
 1566SOL    HW2 9829   1.843   6.463   5.242  0.4683  1.3717  1.1194
 1567SOL     OW 9830   0.709   2.942   0.940  0.4144 -0.0262 -0.3305
 1567SOL    HW1 9831   0.731   2.871   0.879  0.9002 -0.6027  0.4981
 1567SOL    HW2 9832   0.752   2.917   1.022  0.4237  1.1286  0.0319
 1568SOL     OW 9833   7.093   5.130   8.334 -0.4290 -0.5915 -0.6638
 1568SOL    HW1 9834   7.007   5.171   8.335 -0.4106 -0.5555  0.9071
 1568SOL    HW2 9835   7.114   5.117   8.426  0.8897 -1.3563 -1.0616
 1569SOL     OW 9836   4.247   8.864   2.263 -0.1473  0.3138  0.2164
 1569SOL    HW1 9837   4.236   8.861   2.358 -1.4305 -2.4786  0.0256
 1569SOL    HW2 9838   4.158   8.860   2.228  0.3700  0.2252 -1.1219
 1570SOL     OW 9839   6.096   0.802   9.105 -0.4431 -0.1664  0.2318
 1570SOL    HW1 9840   6.127   0.756   9.183  0.9528  0.1878 -0.0994
 1570SOL    HW2 9841   6.120   0.745   9.032 -1.6891 -0.4663  0.0324
 1571SOL     OW 9842   0.663   3.232   8.036 -0.0156 -0.1822 -0.1853
 1571SOL    HW1 9843   0.697   3.281   7.961  0.3721 -1.0197 -0.5675
 1571SOL    HW2 9844   0.591   3.286   8.069 -1.5884 -0.7819 -2.4748
 1572SOL     OW 9845   7.516   6.679   6.114 -0.4680 -0.4471 -0.6308
 1572SOL    HW1 9846   7.456   6.627   6.168  1.7497 -1.3833  0.9981
 1572SOL    HW2 9847   7.559   6.738   6.176  0.8526 -0.3099 -1.6523
 1573SOL     OW 9848   8.656   4.825   5.614  0.6863 -0.1917  0.1661
 1573SOL    HW1 9849   8.677   4.918   5.624  0.6792 -0.2187  0.4481
 1573SOL    HW2 9850   8.703   4.783   5.686  1.5250 -0.5294 -0.5674
 1574SOL     OW 9851   0.961   5.969   0.321 -0.0970 -0.3229 -0.0178
 1574SOL    HW1 9852   0.924   5.888   0.288  0.3286 -0.2394 -0.7005
 1574SOL    HW2 9853   1.033   5.942   0.378 -1.7985 -0.5231  2.1024
 1575SOL     OW 9854   3.558   5.506   4.497  0.7775 -0.3397  0.1214
 1575SOL    HW1 9855   3.591   5.550   4.575  1.1528 -1.3844  0.5585
 1575SOL    HW2 9856   3.488   5.449   4.530 -1.4856  1.8386 -0.7883
 1576SOL     OW 9857  11.283   9.988   5.320 -0.0388 -0.1077 -0.4209
 1576SOL    HW1 9858  11.265  10.070   5.273  1.2539  1.8589  2.3466
 1576SOL    HW2 9859  11.373   9.966   5.296  1.6021  2.3584  2.9830
 1577SOL     OW 9860   9.978   7.574   3.497  0.0634  0.0825  0.1016
 1577SOL    HW1 9861   9.971   7.649   3.438  0.5062 -1.3115 -1.8146
 1577SOL    HW2 9862   9.889   7.538   3.501  0.2892 -0.6154 -0.8477
 1578SOL     OW 9863   9.880   8.810   3.765  0.1196 -0.9236  0.2477
 1578SOL    HW1 9864   9.953   8.801   3.827  0.6342  0.4012 -0.1537
 1578SOL    HW2 9865   9.922   8.834   3.682 -0.7996  0.2283  0.1009
 1579SOL     OW 9866   7.612   8.973   0.595  0.0426 -0.1617  0.3199
 1579SOL    HW1 9867   7.606   9.056   0.643  0.7473  0.2895 -0.3634
 1579SOL    HW2 9868   7.524   8.936   0.601 -0.7556  1.4561 -0.8339
 1580SOL     OW 9869   1.166   2.120   4.411 -0.5119  0.5099  0.1487
 1580SOL    HW1 9870   1.241   2.166   4.447  0.9138  1.0912 -3.3484
 1580SOL    HW2 9871   1.103   2.189   4.388 -0.5976  0.3019 -0.2468
 1581SOL     OW 9872   3.003   6.870   3.579 -0.0022 -0.0345 -0.5612
 1581SOL    HW1 9873   3.003   6.965   3.595  1.9036  0.3239 -2.4865
 1581SOL    HW2 9874   3.066   6.858   3.509 -0.9300 -2.6498 -0.9860
 1582SOL     OW 9875   4.615   4.813  11.183 -0.2526  0.2238 -0.3002
 1582SOL    HW1 9876   4.671   4.761  11.241  1.3236  0.3322 -1.6854
 1582SOL    HW2 9877   4.541   4.756  11.163 -0.1765 -0.2796  0.7817
 1583SOL     OW 9878   7.459   3.485   5.827 -0.2530 -0.0650  0.4728
 1583SOL    HW1 9879   7.391   3.541   5.788  1.1220 -0.0762 -2.0249
 1583SOL    HW2 9880   7.413   3.436   5.895 -2.8824 -0.4300 -1.4951
 1584SOL     OW 9881   2.476   1.971   0.757 -0.0008  1.0924  0.4870
 1584SOL    HW1 9882   2.391   1.930   0.745 -1.1169  3.2945  0.5383
 1584SOL    HW2 9883   2.540   1.905   0.729 -1.6904 -0.7209  0.8326
 1585SOL     OW 9884  11.237  10.939   8.342 -0.6927  0.2399  0.1110
 1585SOL    HW1 9885  11.217  11.032   8.357  0.4256  0.4777  0.1660
 1585SOL    HW2 9886  11.314  10.940   8.284  0.1198 -0.6420  1.1606
 1586SOL     OW 9887   3.653   2.899   5.771 -0.2185  0.0573 -0.2921
 1586SOL    HW1 9888   3.663   2.811   5.808 -1.0059 -0.1543 -0.5668
 1586SOL    HW2 9889   3.741   2.923   5.741  0.0414 -0.5456 -0.0165
 1587SOL     OW 9890   1.197   0.573   5.940  0.6064 -0.2220  0.1620
 1587SOL    HW1 9891   1.199   0.642   5.874  0.0584 -1.2450 -0.9304
 1587SOL    HW2 9892   1.204   0.492   5.890 -1.1674 -1.0670  1.2703
 1588SOL     OW 9893   4.487   3.012   9.305 -0.0789 -0.0032 -0.4437
 1588SOL    HW1 9894   4.565   2.989   9.254 -0.4517  2.0596 -2.0170
 1588SOL    HW2 9895   4.469   3.103   9.282  0.1951  1.2908  4.0514
 1589SOL     OW 9896   1.536   1.197   6.913 -0.1112 -0.3015 -0.3460
 1589SOL    HW1 9897   1.581   1.176   6.831  1.3520  0.9889  0.1133
 1589SOL    HW2 9898   1.444   1.201   6.889  0.3733  0.8972 -2.1150
 1590SOL     OW 9899   9.736   3.858   4.619  0.4890 -0.7917 -0.3733
 1590SOL    HW1 9900   9.728   3.949   4.592 -0.9799 -0.7622  0.1368
 1590SOL    HW2 9901   9.778   3.861   4.705 -0.3355 -0.5381  0.0260
 1591SOL     OW 9902   7.623   4.081   5.643  0.2186 -0.1360 -0.0954
 1591SOL    HW1 9903   7.644   4.162   5.689  0.1557 -0.4025  0.4046
 1591SOL    HW2 9904   7.579   4.110   5.563  1.9689  0.3905 -0.8779
 1592SOL     OW 9905   1.902  11.199   5.629  0.7908  0.3459 -0.1712
 1592SOL    HW1 9906   1.897  11.111   5.667 -1.5658 -0.2603 -1.8392
 1592SOL    HW2 9907   1.855  11.254   5.692 -1.3943 -0.3206 -1.1938
 1593SOL     OW 9908   3.752   0.984   0.531  0.5167 -0.8716  0.2769
 1593SOL    HW1 9909   3.820   0.919   0.548  1.0194 -0.6139 -0.6850
 1593SOL    HW2 9910   3.721   0.963   0.443  0.3612 -0.0957  0.1451
 1594SOL     OW 9911   4.283   0.522   2.174  0.0509  0.1345  0.4398
 1594SOL    HW1 9912   4.344   0.546   2.244  2.1769  0.1647 -1.3559
 1594SOL    HW2 9913   4.339   0.483   2.106 -1.7402  1.3754 -1.8260
 1595SOL     OW 9914   1.315   2.492   0.373 -0.0485 -0.0593  0.5059
 1595SOL    HW1 9915   1.234   2.469   0.417 -0.1095  0.6249  0.7646
 1595SOL    HW2 9916   1.352   2.563   0.426 -0.3861  1.1464 -0.8287
 1596SOL     OW 9917   9.184   8.184   0.536 -0.3637  0.2572  0.3230
 1596SOL    HW1 9918   9.224   8.158   0.453  1.0050  2.3061  0.2879
 1596SOL    HW2 9919   9.187   8.106   0.590  0.0928 -0.6995 -1.0410
 1597SOL     OW 9920   0.780   9.929  10.427  0.0141 -0.3345 -0.1547
 1597SOL    HW1 9921   0.803   9.838  10.409 -0.2377  0.2916 -3.8754
 1597SOL    HW2 9922   0.707   9.922  10.490  0.8818 -2.6298  0.6660
 1598SOL     OW 9923   7.129   9.573   7.918  0.1398  0.2479  0.6634
 1598SOL    HW1 9924   7.135   9.654   7.967 -0.3981  0.2957  0.6463
 1598SOL    HW2 9925   7.045   9.535   7.943  0.6245 -0.5719  1.0890
 1599SOL     OW 9926   6.812   6.606   7.206  0.2709  0.0266 -0.4006
 1599SOL    HW1 9927   6.743   6.540   7.211 -0.1401  0.5294  0.6906
 1599SOL    HW2 9928   6.886   6.566   7.253 -0.3172  0.7531  1.1517
 1600SOL     OW 9929   0.528   4.820   8.833 -0.2694  0.4956 -0.2076
 1600SOL    HW1 9930   0.474   4.897   8.818 -0.5379  0.2635 -0.4493
 1600SOL    HW2 9931   0.497   4.756   8.768  0.9168  0.6718 -0.9551
 1601SOL     OW 9932   9.940   5.739  10.373  0.4460 -0.6025  0.2363
 1601SOL    HW1 9933   9.886   5.661  10.363 -0.5539  0.1185 -0.1055
 1601SOL    HW2 9934   9.931   5.785  10.290 -0.3168  0.7042  1.0244
 1602SOL     OW 9935   9.458   0.377   9.087 -0.3456  0.3880 -0.0592
 1602SOL    HW1 9936   9.438   0.396   9.179 -1.2950 -2.9849  0.4837
 1602SOL    HW2 9937   9.551   0.400   9.079 -0.4042  1.3192  1.5589
 1603SOL     OW 9938   2.704   2.267   7.279  0.4059 -0.3786 -0.2054
 1603SOL    HW1 9939   2.709   2.327   7.204  3.0770  0.2458  0.4264
 1603SOL    HW2 9940   2.740   2.185   7.246  1.6709 -0.0761  0.3922
 1604SOL     OW 9941   3.919   2.308   6.534 -0.0851  0.0891 -0.0655
 1604SOL    HW1 9942   3.839   2.258   6.522  0.1386 -0.2214 -0.2459
 1604SOL    HW2 9943   3.908   2.351   6.619 -0.7887  0.6853 -0.4578
 1605SOL     OW 9944   6.542   5.791   5.095 -0.2386  0.0068  0.5344
 1605SOL    HW1 9945   6.611   5.856   5.087  0.8645 -1.1315  0.7449
 1605SOL    HW2 9946   6.567   5.737   5.170 -0.1177 -1.8659 -0.8208
 1606SOL     OW 9947   7.551   2.962   4.171  0.3358 -0.7895  0.2807
 1606SOL    HW1 9948   7.471   2.920   4.140  0.5541 -0.5268 -0.6495
 1606SOL    HW2 9949   7.589   2.899   4.233  0.5410 -1.8519 -0.9192
 1607SOL     OW 9950   4.065   3.795   8.256  0.1438 -0.1086  0.3989
 1607SOL    HW1 9951   3.992   3.773   8.198  0.1514 -1.8449  1.0219
 1607SOL    HW2 9952   4.038   3.762   8.341  1.2228  0.1847  0.8630
 1608SOL     OW 9953   9.058   0.406   2.010 -0.4812  0.0920  0.6797
 1608SOL    HW1 9954   9.067   0.311   2.020 -0.5220  0.0737  0.5432
 1608SOL    HW2 9955   9.134   0.431   1.957  0.7036  0.4334  2.5056
 1609SOL     OW 9956   3.145   2.975   5.795  0.5064  0.0943  0.1202
 1609SOL    HW1 9957   3.179   3.045   5.850 -0.4121  0.5956  0.0657
 1609SOL    HW2 9958   3.219   2.916   5.782  0.4418 -0.6216  2.8236
 1610SOL     OW 9959   2.797   5.436  10.543 -0.3241  0.2314 -0.5959
 1610SOL    HW1 9960   2.702   5.432  10.554 -0.3361  1.0366 -0.4103
 1610SOL    HW2 9961   2.831   5.438  10.633 -0.1457  0.3294 -0.6672
 1611SOL     OW 9962   0.065   7.978   0.959 -0.5519 -0.3546 -0.1420
 1611SOL    HW1 9963   0.152   7.949   0.932 -0.8510 -0.9207 -0.4875
 1611SOL    HW2 9964   0.030   7.906   1.011 -0.1939  0.5038  1.3369
 1612SOL     OW 9965   7.176   8.887   5.317 -0.2225 -0.0075 -0.2312
 1612SOL    HW1 9966   7.114   8.858   5.249 -1.2669 -1.6259  1.3740
 1612SOL    HW2 9967   7.129   8.876   5.399  1.2612  1.3330  0.8244
 1613SOL     OW 9968   5.701   0.024   4.618  0.3857  0.2240 -0.3815
 1613SOL    HW1 9969   5.755  -0.017   4.551  0.7427 -0.0336  0.0609
 1613SOL    HW2 9970   5.743  -0.000   4.701  0.0952  0.7467 -0.0771
 1614SOL     OW 9971   7.999   8.937   2.928 -0.7479  0.2802  0.0193
 1614SOL    HW1 9972   7.925   8.996   2.915  1.4643  2.8395 -1.3665
 1614SOL    HW2 9973   8.029   8.914   2.840  2.0094  1.7863  0.5109
 1615SOL     OW 9974  10.754   5.445   4.090 -0.0244  0.5311 -0.2624
 1615SOL    HW1 9975  10.794   5.417   4.172 -0.4400 -0.0387 -0.2452
 1615SOL    HW2 9976  10.821   5.495   4.046  2.0376 -3.4529 -1.9144
 1616SOL     OW 9977   4.402   2.525   2.399 -0.2692 -0.0817  0.5443
 1616SOL    HW1 9978   4.481   2.472   2.386 -1.6488 -2.0403 -0.1619
 1616SOL    HW2 9979   4.359   2.487   2.475 -1.9732 -0.9167 -0.7822
 1617SOL     OW 9980  11.311   8.142   3.344  0.1217 -0.6549 -0.2933
 1617SOL    HW1 9981  11.240   8.086   3.376 -0.7020  0.4024 -0.2558
 1617SOL    HW2 9982  11.289   8.159   3.253  0.6984 -0.8955 -0.4794
 1618SOL     OW 9983   4.803   9.068   2.960  0.1299  0.3115  0.0009
 1618SOL    HW1 9984   4.712   9.074   2.933 -0.2857 -1.7594  0.8586
 1618SOL    HW2 9985   4.801   9.019   3.042  1.8782  1.6472  0.8865
 1619SOL     OW 9986   5.777   8.415   2.485 -0.2553 -0.1061  0.0545
 1619SOL    HW1 9987   5.825   8.498   2.484  0.6377 -0.6218 -1.9933
 1619SOL    HW2 9988   5.841   8.349   2.460 -1.3881 -1.1916 -0.0610
 1620SOL     OW 9989   0.090   2.198   8.227  0.3231 -0.7486 -0.1721
 1620SOL    HW1 9990  -0.005   2.191   8.238  0.2493 -0.4795 -0.6235
 1620SOL    HW2 9991   0.111   2.288   8.250  0.4803 -0.8309  0.0078
 1621SOL     OW 9992   9.300   5.152   5.655 -0.2223  0.4378  0.3612
 1621SOL    HW1 9993   9.364   5.193   5.714 -0.4656  0.2738  0.7425
 1621SOL    HW2 9994   9.350   5.131   5.577 -0.1377  1.6651  0.0760
 1622SOL     OW 9995   8.955   4.708   5.283 -0.4658  0.6914 -0.5603
 1622SOL    HW1 9996   8.996   4.746   5.206  1.0899  2.1128  0.9208
 1622SOL    HW2 9997   8.968   4.773   5.352 -3.0024  0.0543  0.5973
 1623SOL     OW 9998   4.031   3.878   7.740  0.5892 -0.0787  0.5687
 1623SOL    HW1 9999   4.117   3.864   7.780  1.3315 -1.1720 -1.3267
 1623SOL    HW210000   4.014   3.971   7.753  3.2117  0.7211 -1.1545
 1624SOL     OW10001   4.492   0.820   1.300  0.2158  0.5507  0.1596
 1624SOL    HW110002   4.536   0.777   1.226  0.7957  0.2387  0.6819
 1624SOL    HW210003   4.563   0.865   1.347 -0.0458  0.1572  0.9348
 1625SOL     OW10004  10.770   7.950   4.972  0.3471  0.8023  0.0291
 1625SOL    HW110005  10.791   8.017   4.906 -0.6717  1.7926  0.6855
 1625SOL    HW210006  10.682   7.921   4.950  0.9319 -0.6060 -0.4735
 1626SOL     OW10007   0.881  10.037   6.743  0.1069 -0.0078  0.0813
 1626SOL    HW110008   0.921   9.990   6.670 -1.4385  0.0469 -0.8395
 1626SOL    HW210009   0.940  10.111   6.759  1.5412 -1.1860  0.2669
 1627SOL     OW10010   0.774   2.953   7.270  0.3573  0.0857 -0.5752
 1627SOL    HW110011   0.684   2.982   7.287  0.3460  0.4105 -1.1712
 1627SOL    HW210012   0.783   2.873   7.320 -0.4554 -0.2634 -0.9741
 1628SOL     OW10013   1.148   7.535   7.130 -0.3227  0.0942 -0.6234
 1628SOL    HW110014   1.154   7.515   7.224  0.4925  1.1077 -0.4600
 1628SOL    HW210015   1.055   7.551   7.115 -0.3996  0.3280  0.0880
 1629SOL     OW10016   0.306   2.712   4.916 -0.0521  0.0626  0.2566
 1629SOL    HW110017   0.284   2.727   5.008 -0.5335 -2.0585  0.5055
 1629SOL    HW210018   0.402   2.704   4.916 -0.0172  0.4379  0.4992
 1630SOL     OW10019  10.480  10.688   3.263  0.4077 -0.8501 -0.4959
 1630SOL    HW110020  10.417  10.626   3.302 -1.5159  0.8915 -0.7502
 1630SOL    HW210021  10.446  10.774   3.287  1.3495  0.1823 -2.7654
 1631SOL     OW10022   9.903   1.205   2.546  0.2194 -0.1316  0.2267
 1631SOL    HW110023   9.867   1.117   2.536  0.4180 -0.2107  0.2039
 1631SOL    HW210024   9.997   1.193   2.533  0.2214  0.1193  0.0127
 1632SOL     OW10025   7.353   9.200   3.426  0.2546 -0.2333  0.1661
 1632SOL    HW110026   7.379   9.119   3.469  0.0996 -0.3831 -0.0215
 1632SOL    HW210027   7.340   9.262   3.498 -1.1753 -0.8163  0.4275
 1633SOL     OW10028   7.760   3.165   1.311 -0.4418 -0.0111 -0.1246
 1633SOL    HW110029   7.675   3.204   1.330 -0.8022 -0.2558 -1.2227
 1633SOL    HW210030   7.749   3.122   1.226  0.7684 -0.0677 -0.2659
 1634SOL     OW10031   8.892   4.172   6.464  0.1439 -0.4218  0.2752
 1634SOL    HW110032   8.798   4.174   6.482  0.0524  0.6246 -0.3134
 1634SOL    HW210033   8.930   4.133   6.543 -0.5919  0.9807  1.3540
 1635SOL     OW10034   0.022   8.349   1.426  0.2683  0.2216  0.0433
 1635SOL    HW110035   0.072   8.416   1.380 -0.1978  0.4734 -0.0974
 1635SOL    HW210036   0.077   8.324   1.500  0.4458  0.7472  0.0832
 1636SOL     OW10037   5.344   0.075   6.965  0.0142  0.0845 -0.1997
 1636SOL    HW110038   5.395   0.003   6.929 -0.3336  0.1916 -0.9221
 1636SOL    HW210039   5.404   0.149   6.966  0.3926 -0.2245  0.6059
 1637SOL     OW10040   3.417   3.221   4.382  0.3066 -0.4768 -0.0743
 1637SOL    HW110041   3.444   3.142   4.335  0.6361 -1.4200  1.6305
 1637SOL    HW210042   3.420   3.195   4.475  0.9582  1.7088  0.5379
 1638SOL     OW10043   7.139   8.494   1.086  0.5856  0.5355 -0.0759
 1638SOL    HW110044   7.198   8.538   1.148  0.9040 -1.3722  1.0380
 1638SOL    HW210045   7.155   8.537   1.002  3.9900 -0.2920  0.0877
 1639SOL     OW10046   6.240  11.073   9.124  0.2438  0.4039  0.4160
 1639SOL    HW110047   6.229  10.978   9.114 -0.8322  0.5754 -0.1029
 1639SOL    HW210048   6.167  11.111   9.075  1.9240  1.5561 -1.2772
 1640SOL     OW10049   2.028   1.283   7.255 -0.1382 -0.0931 -0.1205
 1640SOL    HW110050   2.028   1.187   7.263 -0.0098 -0.1674 -0.8818
 1640SOL    HW210051   1.987   1.299   7.170 -0.5091  0.5511  0.1798
 1641SOL     OW10052   9.931   4.022   7.299 -0.1072 -0.0883  0.0365
 1641SOL    HW110053   9.961   3.936   7.267 -1.4537 -0.1373 -1.1917
 1641SOL    HW210054   9.946   4.019   7.393 -1.9122 -2.4520  0.3047
 1642SOL     OW10055   5.065   3.220   6.103  0.1392  0.3269 -0.5291
 1642SOL    HW110056   5.090   3.135   6.067  0.5643  0.4700 -0.5808
 1642SOL    HW210057   5.148   3.268   6.111  0.2980 -0.3195  2.2428
 1643SOL     OW10058   5.976   5.858   2.186 -0.3413 -0.6203  0.0865
 1643SOL    HW110059   5.922   5.869   2.108 -0.0774 -0.4683 -0.0757
 1643SOL    HW210060   5.922   5.807   2.246 -0.8069 -0.1594  0.0668
 1644SOL     OW10061   7.724   5.148   4.198  0.2080  0.0625 -0.8827
 1644SOL    HW110062   7.764   5.188   4.121 -1.5030 -0.0220 -1.8471
 1644SOL    HW210063   7.653   5.094   4.163 -1.6621  1.3023  0.8320
 1645SOL     OW10064   4.867   3.633   1.555  0.3383 -0.2741  0.1903
 1645SOL    HW110065   4.848   3.709   1.499 -0.0501 -0.1334  0.5036
 1645SOL    HW210066   4.946   3.595   1.518  0.5118  0.2621  0.0020
 1646SOL     OW10067   9.829  10.389   3.338  0.1718  0.0068 -0.3213
 1646SOL    HW110068   9.804  10.376   3.246 -0.8603 -0.9261  0.0761
 1646SOL    HW210069   9.911  10.340   3.347  2.1337  2.9226 -1.5874
 1647SOL     OW10070  10.665   6.063   8.146 -0.3504  0.0792  0.4652
 1647SOL    HW110071  10.714   6.035   8.223 -0.5590 -1.5985  0.0225
 1647SOL    HW210072  10.610   6.135   8.176 -0.8054 -0.9013  2.0131
 1648SOL     OW10073   7.508   2.253   2.343  0.5181 -0.3268  0.1607
 1648SOL    HW110074   7.501   2.340   2.303 -0.2569 -1.1796 -1.5788
 1648SOL    HW210075   7.454   2.260   2.422 -0.9827  0.2688 -0.8872
 1649SOL     OW10076   6.258  11.291   4.022 -0.0268  0.4388  0.6713
 1649SOL    HW110077   6.323  11.228   3.989  0.0994  0.5390  0.7308
 1649SOL    HW210078   6.228  11.337   3.943 -0.4747 -0.0298  0.5607
 1650SOL     OW10079   3.857   4.500   7.046  0.0937  0.2039 -0.1845
 1650SOL    HW110080   3.874   4.555   7.123 -0.7644 -1.2247  1.0457
 1650SOL    HW210081   3.780   4.450   7.069  0.3895 -0.9348 -1.6278
 1651SOL     OW10082   1.329   7.392   8.600 -0.8290  0.3156 -0.0941
 1651SOL    HW110083   1.368   7.476   8.576  0.7067  0.0716  1.4432
 1651SOL    HW210084   1.238   7.399   8.572 -0.3095  1.8721 -1.4471
 1652SOL     OW10085   0.968   7.012  10.305  0.4957 -0.2951  0.4238
 1652SOL    HW110086   0.973   6.968  10.220  1.0437  1.2323 -0.3598
 1652SOL    HW210087   1.055   7.002  10.343 -0.2239 -2.4348  1.5762
 1653SOL     OW10088   0.530   8.264  10.774 -0.3171  0.5280  0.2898
 1653SOL    HW110089   0.528   8.192  10.711  0.4154 -0.0235  0.8820
 1653SOL    HW210090   0.529   8.343  10.720  1.1516  0.0620 -0.4623
 1654SOL     OW10091   0.488   0.973   5.091  0.0230  0.3365  0.2686
 1654SOL    HW110092   0.405   0.927   5.105 -0.9524  1.8436 -0.4370
 1654SOL    HW210093   0.470   1.063   5.119  1.1480  0.8946 -0.7663
 1655SOL     OW10094   6.938   6.500   8.815 -0.0679  0.0092 -0.4011
 1655SOL    HW110095   6.931   6.411   8.848  0.1581 -0.0704 -0.5690
 1655SOL    HW210096   6.940   6.490   8.719 -0.1660  0.2016 -0.4233
 1656SOL     OW10097   2.731   5.546   6.663 -0.4686 -0.5357  0.0497
 1656SOL    HW110098   2.696   5.595   6.737 -1.0517  0.4937 -0.8912
 1656SOL    HW210099   2.656   5.500   6.626 -0.6071  0.6747 -1.2096
 1657SOL     OW10100   6.327   2.362  10.470 -0.0907  0.0432  0.8822
 1657SOL    HW110101   6.421   2.369  10.454 -0.0262 -0.4415  1.0391
 1657SOL    HW210102   6.314   2.272  10.500 -0.8725 -0.5606 -1.1214
 1658SOL     OW10103   3.020   4.849   1.592 -0.4232 -0.1313  0.2931
 1658SOL    HW110104   3.113   4.837   1.570 -0.4572  1.3793 -0.7352
 1658SOL    HW210105   3.022   4.900   1.673 -0.3680 -0.7114  0.6660
 1659SOL     OW10106   7.550   3.371   2.876  0.1599  0.1484 -0.2529
 1659SOL    HW110107   7.501   3.355   2.956  0.9720  0.1482  0.2509
 1659SOL    HW210108   7.556   3.285   2.833  1.6271 -0.2929  0.7887
 1660SOL     OW10109   0.862   6.654   7.363 -0.2782  0.3008  0.4668
 1660SOL    HW110110   0.912   6.574   7.382 -1.7525 -1.0017 -0.9429
 1660SOL    HW210111   0.781   6.643   7.414 -1.6012 -0.3470 -1.7173
 1661SOL     OW10112  11.025   7.635   0.496  0.0329  0.2050  0.6076
 1661SOL    HW110113  10.959   7.693   0.535 -0.3023  1.3368 -1.5545
 1661SOL    HW210114  11.108   7.669   0.527 -0.3096 -0.2200  2.0302
 1662SOL     OW10115   6.028  10.199   4.482 -0.2751 -0.5869  0.2663
 1662SOL    HW110116   6.026  10.244   4.567 -0.6286  0.1278 -0.1176
 1662SOL    HW210117   6.116  10.216   4.448 -0.0373 -1.1085  0.6128
 1663SOL     OW10118   2.419   1.370   6.411  0.1735 -0.1092 -0.0304
 1663SOL    HW110119   2.455   1.344   6.327  1.4182  1.2422  0.0747
 1663SOL    HW210120   2.446   1.461   6.422 -2.2849  0.5860  0.5740
 1664SOL     OW10121   5.037   5.479   1.185 -0.0474  0.3937  0.3872
 1664SOL    HW110122   5.058   5.433   1.266 -0.4214  0.3932  0.4837
 1664SOL    HW210123   5.026   5.570   1.212  0.5530  0.5170  0.2189
 1665SOL     OW10124   8.852   4.228   3.041 -0.7673 -0.3081 -0.3264
 1665SOL    HW110125   8.930   4.188   3.003 -0.5136 -0.5620  0.4497
 1665SOL    HW210126   8.783   4.163   3.027 -0.6359 -0.4763 -0.2004
 1666SOL     OW10127  10.576   1.188   6.003  0.0177  0.2734 -0.6054
 1666SOL    HW110128  10.648   1.135   6.038  1.4824  2.0119 -0.8854
 1666SOL    HW210129  10.499   1.159   6.051  0.6816 -2.4113 -1.0665
 1667SOL     OW10130   8.891   1.018   6.187 -0.7501  0.3875 -0.2535
 1667SOL    HW110131   8.951   1.056   6.252  0.4266 -0.1589 -0.9873
 1667SOL    HW210132   8.916   0.925   6.184 -1.6936  0.1380 -0.5291
 1668SOL     OW10133   8.216   6.005   6.924  0.2163 -0.0942 -1.0406
 1668SOL    HW110134   8.221   6.080   6.983 -0.9799 -0.0159 -1.0293
 1668SOL    HW210135   8.127   5.972   6.935  0.8054 -1.6455 -0.9017
 1669SOL     OW10136   2.129   6.295   0.034 -0.3022 -0.0120 -0.3167
 1669SOL    HW110137   2.173   6.329   0.112  0.2883 -0.5428 -0.4172
 1669SOL    HW210138   2.061   6.360   0.015  0.5116  0.8704 -0.2345
 1670SOL     OW10139   5.144   2.172   5.406  0.6409 -1.0336  0.1348
 1670SOL    HW110140   5.098   2.241   5.454  2.6000  0.5043 -0.1364
 1670SOL    HW210141   5.079   2.102   5.397 -1.8559  1.2989 -0.7741
 1671SOL     OW10142  10.095   6.654   7.618 -0.1405 -0.1891  0.2892
 1671SOL    HW110143  10.076   6.677   7.527 -0.9935 -2.7109 -0.2042
 1671SOL    HW210144  10.184   6.619   7.615  1.2827  3.1948  1.0934
 1672SOL     OW10145   7.991   1.454   7.298 -0.2822 -0.0412  0.7613
 1672SOL    HW110146   7.987   1.366   7.260 -0.2465 -0.6558  2.1199
 1672SOL    HW210147   7.907   1.464   7.343 -0.2028  0.5426  0.7831
 1673SOL     OW10148   3.851   8.924   2.855 -0.2466 -0.0377 -0.6168
 1673SOL    HW110149   3.858   8.971   2.773 -0.8355  3.2119  1.1147
 1673SOL    HW210150   3.889   8.983   2.920  0.9209 -2.8397  1.3655
 1674SOL     OW10151   9.275   3.596  10.010  0.7238  0.1533  0.3822
 1674SOL    HW110152   9.305   3.522  10.063  0.0504 -1.3145 -1.2510
 1674SOL    HW210153   9.354   3.647   9.993  1.2556 -0.3776  1.1994
 1675SOL     OW10154  10.095   3.776  10.691  0.0288 -0.1933 -0.2778
 1675SOL    HW110155  10.158   3.714  10.728  1.3726  0.6279 -1.1428
 1675SOL    HW210156  10.084   3.842  10.759 -3.0982 -2.4853  1.5431
 1676SOL     OW10157   1.977   4.067   1.593  0.6014  0.0478  0.1023
 1676SOL    HW110158   1.950   4.059   1.501 -0.7038 -0.5028  0.5256
 1676SOL    HW210159   1.997   4.160   1.604  0.9103  0.0897 -0.7763
 1677SOL     OW10160   0.702   8.034   7.878 -0.0602 -0.0027  0.4434
 1677SOL    HW110161   0.695   7.973   7.804  2.7348  0.4854 -0.3066
 1677SOL    HW210162   0.616   8.075   7.884 -0.5675 -0.6058 -2.0720
 1678SOL     OW10163   7.831   1.070   3.941  0.1133 -0.2099  0.4724
 1678SOL    HW110164   7.739   1.063   3.916  0.0878  0.4531  0.3721
 1678SOL    HW210165   7.880   1.047   3.862  0.0323  0.5855  0.1903
 1679SOL     OW10166   9.886   6.534   3.541  0.4353 -0.0673 -0.3621
 1679SOL    HW110167   9.915   6.590   3.469  1.0371  0.3916  0.2247
 1679SOL    HW210168   9.797   6.509   3.517  0.0324  1.4127 -0.5018
 1680SOL     OW10169  10.443   6.984  10.240  0.0669  0.4329 -0.7754
 1680SOL    HW110170  10.437   7.077  10.217 -0.9124 -0.0508 -2.5727
 1680SOL    HW210171  10.353   6.952  10.234  0.4496 -0.7120 -0.4985
 1681SOL     OW10172   0.243   7.885  10.370  0.2438 -0.1383 -0.3727
 1681SOL    HW110173   0.281   7.832  10.440  0.1680 -0.1486 -0.3402
 1681SOL    HW210174   0.148   7.876  10.381  0.1818  2.4347  1.4819
 1682SOL     OW10175   6.514   1.723   6.782 -0.2174 -0.0817  0.0440
 1682SOL    HW110176   6.443   1.661   6.765 -3.1659  3.1115  0.0814
 1682SOL    HW210177   6.513   1.783   6.707  1.2816  1.0486  0.8873
 1683SOL     OW10178   0.550   2.548   3.249 -0.3145 -0.1893 -0.1900
 1683SOL    HW110179   0.531   2.604   3.173 -1.0270 -0.4578 -0.2092
 1683SOL    HW210180   0.580   2.609   3.316 -0.4745  0.1435 -0.4191
 1684SOL     OW10181   6.396   6.490   4.119  0.3558  0.0040  0.6888
 1684SOL    HW110182   6.438   6.405   4.109  1.3880  0.6399 -0.5526
 1684SOL    HW210183   6.308   6.478   4.081  0.3584 -0.6051  0.8656
 1685SOL     OW10184   5.235   9.044   2.282 -0.2624 -0.5085  0.3551
 1685SOL    HW110185   5.274   9.082   2.203  0.2293 -1.4197  0.1622
 1685SOL    HW210186   5.144   9.075   2.280 -0.8844 -2.3230 -1.7682
 1686SOL     OW10187   3.107  11.099   9.248  0.0913  0.5688  0.0902
 1686SOL    HW110188   3.161  11.099   9.327  3.6184 -0.4921 -2.1786
 1686SOL    HW210189   3.088  11.006   9.233 -0.2252  0.7308 -0.4940
 1687SOL     OW10190  10.701   6.558  10.513  0.1503 -0.6897 -0.0950
 1687SOL    HW110191  10.617   6.568  10.469  0.8217 -1.2111 -1.5250
 1687SOL    HW210192  10.751   6.500  10.455  1.3848 -0.6189  0.8911
 1688SOL     OW10193  10.702  10.308   5.785 -0.4309  0.2775 -0.2792
 1688SOL    HW110194  10.672  10.397   5.768 -4.1521 -1.1091 -1.6806
 1688SOL    HW210195  10.717  10.270   5.698 -1.3580 -1.1914  0.1667
 1689SOL     OW10196   4.179   1.314   1.593 -0.0677  0.2855 -0.3953
 1689SOL    HW110197   4.160   1.304   1.686 -0.8596 -0.0894 -0.5895
 1689SOL    HW210198   4.274   1.328   1.589 -0.0857  0.6928  0.4893
 1690SOL     OW10199   6.528   4.353   3.072  0.0732 -0.3303 -0.2507
 1690SOL    HW110200   6.598   4.297   3.105  1.6198  1.8112  0.1440
 1690SOL    HW210201   6.495   4.399   3.149 -1.5376 -1.0329 -0.4933
 1691SOL     OW10202   6.180   7.547   4.545  0.2191  0.0346 -0.5813
 1691SOL    HW110203   6.214   7.634   4.525 -1.2215  0.5087 -1.0403
 1691SOL    HW210204   6.189   7.498   4.463  2.7927 -0.8722  0.1830
 1692SOL     OW10205  10.888   3.328   7.416  0.0716 -0.0060 -0.4233
 1692SOL    HW110206  10.940   3.345   7.495 -1.8341  1.0957  0.6143
 1692SOL    HW210207  10.832   3.255   7.439  0.6558 -0.7509 -1.3203
 1693SOL     OW10208  11.071   6.765   7.533 -0.0575 -0.0216  0.5761
 1693SOL    HW110209  11.114   6.788   7.451 -0.0528 -0.3938  0.4726
 1693SOL    HW210210  11.142   6.763   7.597 -0.0606  0.2681  0.5867
 1694SOL     OW10211   9.835   4.385   1.760  0.1563  0.0258  0.0223
 1694SOL    HW110212   9.765   4.321   1.750 -0.1342  0.0627  1.7509
 1694SOL    HW210213   9.790   4.468   1.776  0.5786  0.1918  0.3714
 1695SOL     OW10214  10.095   3.393  10.725 -0.0595  0.5200  0.5059
 1695SOL    HW110215  10.139   3.471  10.691 -1.4897  1.0168 -0.2381
 1695SOL    HW210216  10.002   3.416  10.726 -0.5484 -1.3205 -0.1260
 1696SOL     OW10217  10.483   6.578   1.261  0.7117 -0.0325  0.7236
 1696SOL    HW110218  10.462   6.669   1.238  0.4424 -0.0727  0.8000
 1696SOL    HW210219  10.416   6.526   1.216 -0.3373 -0.0493  2.2682
 1697SOL     OW10220   0.800   4.767   4.941 -0.5222  0.1236  0.8017
 1697SOL    HW110221   0.744   4.813   4.878 -0.6125  0.6085  1.2364
 1697SOL    HW210222   0.739   4.716   4.995 -0.4353 -0.3834  0.4236
 1698SOL     OW10223   5.653   9.729   3.786  0.1705 -0.2439  0.0771
 1698SOL    HW110224   5.599   9.797   3.826  1.5782  0.7522  0.3408
 1698SOL    HW210225   5.617   9.718   3.698 -1.6977 -1.0238  0.9125
 1699SOL     OW10226   4.562   3.469   5.655  0.5753  0.1735  0.4688
 1699SOL    HW110227   4.574   3.560   5.680 -1.3668  0.6152 -0.1147
 1699SOL    HW210228   4.528   3.473   5.565 -1.5601 -0.9949  1.1774
 1700SOL     OW10229   5.202  11.142   2.586 -0.4343  0.4548  0.6635
 1700SOL    HW110230   5.121  11.150   2.637 -0.6757  2.2678  0.0229
 1700SOL    HW210231   5.194  11.208   2.517  0.8624 -0.4865 -0.4214
 1701SOL     OW10232   4.991   3.564  10.551  0.1123  0.5050  0.3978
 1701SOL    HW110233   5.087   3.565  10.555  0.0770  1.6076  1.1776
 1701SOL    HW210234   4.963   3.617  10.626 -1.1213 -0.3298  0.5348
 1702SOL     OW10235   8.692   3.146  10.439  0.5102  0.2304 -0.2971
 1702SOL    HW110236   8.610   3.195  10.434 -0.5724 -1.4465  0.8467
 1702SOL    HW210237   8.742   3.177  10.364 -0.8923  1.7479 -0.6438
 1703SOL     OW10238   1.744   2.320  10.902  0.2386  0.3146  0.3985
 1703SOL    HW110239   1.801   2.295  10.829 -0.1316 -0.1990  0.2883
 1703SOL    HW210240   1.740   2.416  10.896  0.2223  0.2770 -0.2449
 1704SOL     OW10241   3.100   2.814   0.675 -0.5933 -0.9000 -0.6606
 1704SOL    HW110242   3.083   2.754   0.747 -2.0540 -2.1184 -1.9943
 1704SOL    HW210243   3.027   2.801   0.615 -0.8347  2.0483 -1.1051
 1705SOL     OW10244   0.022   0.359   2.983 -0.6239 -0.5337 -0.1331
 1705SOL    HW110245   0.092   0.414   2.948 -0.9763 -0.5733 -0.9216
 1705SOL    HW210246  -0.024   0.415   3.046  0.0176 -0.4569  0.2704
 1706SOL     OW10247   7.685   8.227   9.405 -0.1871 -0.0258 -0.1086
 1706SOL    HW110248   7.594   8.258   9.402 -0.6045 -0.9738  2.0105
 1706SOL    HW210249   7.697   8.180   9.323 -0.9696  1.8151 -1.3078
 1707SOL     OW10250   3.961  10.616  10.155 -0.6751  0.2711  0.1014
 1707SOL    HW110251   3.967  10.527  10.122  1.2370  0.6041 -0.5281
 1707SOL    HW210252   3.877  10.620  10.200 -0.9801 -1.7049 -0.2665
 1708SOL     OW10253   4.005   7.508  11.177 -0.2804  0.1627  0.3631
 1708SOL    HW110254   4.030   7.600  11.172 -1.0007  0.4041  1.1949
 1708SOL    HW210255   4.081   7.461  11.141 -0.1612  1.1036 -0.6501
 1709SOL     OW10256   7.649   0.314   1.285 -0.5879 -0.0671  0.0968
 1709SOL    HW110257   7.679   0.282   1.200  2.4413  1.9755  0.3050
 1709SOL    HW210258   7.598   0.242   1.321  0.5508 -2.0925 -2.1897
 1710SOL     OW10259   8.599   2.531   0.336 -0.2735 -0.1015 -0.3780
 1710SOL    HW110260   8.570   2.621   0.354 -0.3225  0.0397 -1.1246
 1710SOL    HW210261   8.688   2.527   0.371  0.8542  1.1488 -2.9119
 1711SOL     OW10262   6.114   3.687   4.665  0.4816  0.2585  0.3129
 1711SOL    HW110263   6.084   3.742   4.737  3.1568  2.0977  0.0781
 1711SOL    HW210264   6.176   3.627   4.704  0.5697  0.0535 -0.1347
 1712SOL     OW10265   9.904   0.121   7.108 -0.6937 -0.2065 -0.4416
 1712SOL    HW110266   9.963   0.183   7.064 -0.0893  0.3694  1.1299
 1712SOL    HW210267   9.817   0.159   7.096 -0.7366 -0.9082 -2.5262
 1713SOL     OW10268   0.064   3.941  10.358 -0.0518 -0.2525 -0.0316
 1713SOL    HW110269   0.011   4.009  10.400  0.8950 -1.4135  3.2331
 1713SOL    HW210270   0.135   3.990  10.315 -1.2199  1.0105 -0.5609
 1714SOL     OW10271  10.354   8.385   4.273  0.0982 -0.3246  0.5083
 1714SOL    HW110272  10.377   8.478   4.270 -1.0087 -0.0598  0.0675
 1714SOL    HW210273  10.411   8.348   4.341  0.6044  0.6565  0.6217
 1715SOL     OW10274   9.411   2.101   2.908  0.1229 -0.2713 -0.5973
 1715SOL    HW110275   9.418   2.024   2.852 -1.4381 -0.0585 -1.0947
 1715SOL    HW210276   9.361   2.071   2.984  1.2232 -0.2565  0.1400
 1716SOL     OW10277   6.746   3.424   5.853 -0.0376  0.0407 -0.4117
 1716SOL    HW110278   6.746   3.471   5.769 -0.0894  0.3150 -0.2582
 1716SOL    HW210279   6.762   3.492   5.918  1.0537 -0.3298 -0.2839
 1717SOL     OW10280   0.608  10.060   9.586  1.0469  0.7873 -0.6929
 1717SOL    HW110281   0.518  10.089   9.566  0.6671  0.3359  0.3576
 1717SOL    HW210282   0.659  10.141   9.588  0.5508  1.1019 -0.7171
 1718SOL     OW10283  11.157   2.915   0.099 -0.2636 -0.0206  0.7808
 1718SOL    HW110284  11.206   2.974   0.042 -1.2343 -0.5638 -0.6412
 1718SOL    HW210285  11.219   2.845   0.119 -0.5564 -0.9605 -1.4085
 1719SOL     OW10286   4.674   3.148   2.807  0.2829  0.0428  0.3565
 1719SOL    HW110287   4.711   3.220   2.858  0.2641  0.2252  0.1129
 1719SOL    HW210288   4.602   3.188   2.758  0.7968  0.0352 -0.4119
 1720SOL     OW10289   5.522  10.216   9.119  0.1475 -0.4398 -0.2941
 1720SOL    HW110290   5.435  10.212   9.080  0.8063 -0.3395 -1.8165
 1720SOL    HW210291   5.582  10.204   9.045  1.4889  2.3363  0.2727
 1721SOL     OW10292   5.971  10.974   9.531  0.6210  0.0983  0.1133
 1721SOL    HW110293   5.885  10.952   9.495  1.0417 -0.8208 -0.3380
 1721SOL    HW210294   5.952  11.009   9.619 -0.3576  1.8002 -0.7360
 1722SOL     OW10295   1.337   9.781   2.514  0.6214  0.3869  0.6009
 1722SOL    HW110296   1.282   9.716   2.558  0.0064  1.5820  1.6121
 1722SOL    HW210297   1.355   9.742   2.428  0.0217 -0.9868  1.0801
 1723SOL     OW10298   7.765   1.847   9.456  0.3637  0.5660 -0.0429
 1723SOL    HW110299   7.799   1.936   9.470 -0.1762  0.7762 -0.0533
 1723SOL    HW210300   7.672   1.860   9.441  0.3969  0.0479 -0.6628
 1724SOL     OW10301   6.949   3.262   5.984 -0.2769  0.1125  0.8464
 1724SOL    HW110302   6.871   3.303   5.946 -1.3085 -0.9725  1.7745
 1724SOL    HW210303   6.939   3.169   5.966  0.5620 -0.0965  1.4281
 1725SOL     OW10304   7.808   9.481   9.630 -0.3106 -0.2076 -0.4133
 1725SOL    HW110305   7.895   9.473   9.590  0.1285 -0.8356  0.6408
 1725SOL    HW210306   7.797   9.575   9.646  0.0441 -0.0946 -0.8356
 1726SOL     OW10307   6.422   7.432  10.920 -0.3572 -0.1309 -0.2918
 1726SOL    HW110308   6.487   7.486  10.967  0.1221 -0.1723 -0.8946
 1726SOL    HW210309   6.434   7.344  10.955  0.8731 -0.4118 -1.3794
 1727SOL     OW10310   7.694   9.697   7.269  0.2361  0.1540 -0.0563
 1727SOL    HW110311   7.605   9.724   7.246  1.2228  1.1438 -2.9589
 1727SOL    HW210312   7.707   9.615   7.222  0.1918 -1.0316  1.9602
 1728SOL     OW10313   7.808   5.205   6.352 -0.4967 -0.1984 -0.5000
 1728SOL    HW110314   7.720   5.238   6.371 -0.2249  0.6512 -0.6919
 1728SOL    HW210315   7.864   5.247   6.417 -0.1871 -0.5192 -0.5571
 1729SOL     OW10316   9.675   4.650   5.027 -0.2482 -0.7240  0.4280
 1729SOL    HW110317   9.611   4.701   4.977 -1.1828  1.1786  3.4163
 1729SOL    HW210318   9.746   4.634   4.966 -1.1469  1.8633 -1.3855
 1730SOL     OW10319   7.839   9.006   8.383 -0.0784 -0.4704  0.4276
 1730SOL    HW110320   7.814   8.933   8.441  0.4020  0.4653  1.8528
 1730SOL    HW210321   7.907   9.052   8.432  0.7310  0.0142 -1.1623
 1731SOL     OW10322   0.643   9.416   0.605  0.4253  0.4104  0.1300
 1731SOL    HW110323   0.584   9.381   0.671  0.0373  2.3754  0.8371
 1731SOL    HW210324   0.663   9.341   0.549 -1.5587 -0.5982  0.7443
 1732SOL     OW10325   5.201   8.133  11.286  0.3490  0.2017  0.4196
 1732SOL    HW110326   5.295   8.149  11.296  0.1746  1.6986 -0.2372
 1732SOL    HW210327   5.161   8.180  11.359  0.0656  0.0566  0.3573
 1733SOL     OW10328   7.936   8.358   5.838 -0.0304  0.2022  0.0364
 1733SOL    HW110329   7.949   8.440   5.885 -2.1181  0.0216  0.9751
 1733SOL    HW210330   7.952   8.289   5.903  0.0587 -0.1191 -0.3182
 1734SOL     OW10331  11.073  10.134   0.325  0.0352  0.1009 -0.3045
 1734SOL    HW110332  11.100  10.091   0.244  0.7058 -0.5859  0.2853
 1734SOL    HW210333  10.977  10.133   0.322  0.0516  0.3629 -1.2344
 1735SOL     OW10334   4.585   7.862   9.899 -0.1725 -0.2390 -0.1674
 1735SOL    HW110335   4.532   7.843   9.976  1.4196 -1.0851  0.7472
 1735SOL    HW210336   4.575   7.957   9.886 -0.4281 -0.0827  1.1137
 1736SOL     OW10337   2.636   3.333   4.267 -0.0569 -0.8578 -0.2148
 1736SOL    HW110338   2.559   3.325   4.324 -0.9726 -0.7217 -1.4041
 1736SOL    HW210339   2.609   3.395   4.199  0.6884 -1.7002 -1.3056
 1737SOL     OW10340  10.805   4.137   8.964 -0.3856  0.1587  0.3887
 1737SOL    HW110341  10.710   4.132   8.955 -0.4598  0.4291  1.0254
 1737SOL    HW210342  10.836   4.049   8.945 -0.8616 -0.2246  1.3797
 1738SOL     OW10343   5.032   1.555   7.189  0.0827 -0.6886 -0.2489
 1738SOL    HW110344   5.011   1.492   7.120 -2.5860 -0.2107  0.0849
 1738SOL    HW210345   4.989   1.636   7.162  0.7514  0.0863  0.9513
 1739SOL     OW10346   3.670   4.440   7.475  0.5052 -0.1424  0.1171
 1739SOL    HW110347   3.576   4.422   7.482  0.3851  0.7145  0.8730
 1739SOL    HW210348   3.707   4.360   7.439 -0.6018 -0.2550 -0.7932
 1740SOL     OW10349   9.453   6.393   5.810  0.0536  0.4443  0.4632
 1740SOL    HW110350   9.499   6.475   5.791 -1.0874  0.8145 -0.8300
 1740SOL    HW210351   9.508   6.325   5.771  1.4123  0.5052  2.2433
 1741SOL     OW10352   7.487   4.481   1.400 -0.4377  0.0396  0.1068
 1741SOL    HW110353   7.544   4.512   1.329 -0.5505  1.6714  0.7040
 1741SOL    HW210354   7.546   4.438   1.462 -0.1216  0.0390 -0.1947
 1742SOL     OW10355   3.197   8.842   4.895  0.4550 -0.7126  0.5299
 1742SOL    HW110356   3.220   8.753   4.866  1.2876 -0.3417  0.0335
 1742SOL    HW210357   3.153   8.829   4.979  0.2465 -1.6230  0.2949
 1743SOL     OW10358   7.333   7.725   3.448 -0.2705  0.2287 -0.4230
 1743SOL    HW110359   7.340   7.636   3.484 -2.2128  0.0126 -0.5063
 1743SOL    HW210360   7.376   7.720   3.362 -0.8665 -0.7826 -0.6691
 1744SOL     OW10361   2.808   3.223   7.620 -0.2901 -0.4175 -0.0831
 1744SOL    HW110362   2.827   3.258   7.708 -0.2977  0.2843 -0.3553
 1744SOL    HW210363   2.879   3.161   7.604 -0.5885 -0.9593  0.6433
 1745SOL     OW10364  11.171   3.604   5.509  0.5931 -0.2617  0.1024
 1745SOL    HW110365  11.227   3.527   5.522  0.6581 -0.3848 -0.8672
 1745SOL    HW210366  11.232   3.678   5.510  0.4343 -0.1308  1.8843
 1746SOL     OW10367   2.193   9.204   0.804 -0.1146 -0.3084 -0.0089
 1746SOL    HW110368   2.251   9.132   0.778 -0.5675 -0.5435 -0.3631
 1746SOL    HW210369   2.187   9.259   0.726  0.6487  0.3994  0.4183
 1747SOL     OW10370   1.809   6.592   2.002  0.7172  0.2909  0.4114
 1747SOL    HW110371   1.719   6.623   2.004  1.2544  1.8425  0.9873
 1747SOL    HW210372   1.848   6.625   2.082  2.1480  0.6764 -0.4277
 1748SOL     OW10373   7.621   0.886   7.922 -0.1187 -0.0522 -0.0913
 1748SOL    HW110374   7.535   0.849   7.900 -0.4373  0.8774 -0.4342
 1748SOL    HW210375   7.679   0.855   7.853 -0.6149  0.9514 -0.9701
 1749SOL     OW10376   6.665   8.000   8.936 -0.0641 -0.4705 -0.2902
 1749SOL    HW110377   6.738   7.972   8.880 -0.5817 -1.8247 -0.3142
 1749SOL    HW210378   6.606   8.047   8.876  0.6686  0.4388 -0.3125
 1750SOL     OW10379   0.402   5.837   8.234 -0.0922  0.0924  0.7891
 1750SOL    HW110380   0.384   5.812   8.143  1.0733  0.5309  0.4198
 1750SOL    HW210381   0.360   5.769   8.287 -1.5712  0.3425 -0.0552
 1751SOL     OW10382   9.649   9.947   9.723 -0.7130 -0.0425  0.2847
 1751SOL    HW110383   9.559   9.962   9.754 -0.6810 -3.3221  2.1884
 1751SOL    HW210384   9.698   9.926   9.802  1.1581 -0.8983 -1.0815
 1752SOL     OW10385   1.126   9.157   0.626 -0.2397  0.2313  0.2840
 1752SOL    HW110386   1.095   9.076   0.585  0.7962  0.1877 -0.4468
 1752SOL    HW210387   1.096   9.226   0.567 -1.6051  0.4423  1.1960
 1753SOL     OW10388   0.781   4.986  11.172 -0.1388 -0.5496 -0.1190
 1753SOL    HW110389   0.735   5.000  11.089 -1.1411  1.8865  0.8219
 1753SOL    HW210390   0.714   4.951  11.231  0.2059 -0.8349  0.1060
 1754SOL     OW10391   6.701  10.823   1.800  0.4144 -0.1834 -0.6485
 1754SOL    HW110392   6.696  10.878   1.721  0.7688 -0.0393 -0.5705
 1754SOL    HW210393   6.794  10.806   1.812  0.2341 -1.6213 -1.2245
 1755SOL     OW10394   1.879   7.496   7.880  0.6513 -0.0506  0.3916
 1755SOL    HW110395   1.922   7.511   7.795  0.7779  0.7085  0.5836
 1755SOL    HW210396   1.818   7.424   7.863 -1.9663  2.4284 -1.3110
 1756SOL     OW10397   8.840   3.654   1.215 -0.7368 -0.5184  0.1486
 1756SOL    HW110398   8.870   3.579   1.164  0.9368  0.3848 -0.2135
 1756SOL    HW210399   8.876   3.730   1.170 -0.4238  0.3744  1.8663
 1757SOL     OW10400   3.073   9.002   9.402 -0.2240 -0.1893 -0.1087
 1757SOL    HW110401   3.165   8.981   9.384 -0.6372 -0.9909 -1.3576
 1757SOL    HW210402   3.077   9.076   9.463  1.2495  0.2825 -0.7433
 1758SOL     OW10403   8.075  10.984   9.434 -0.3363  0.1439 -0.6439
 1758SOL    HW110404   8.146  10.920   9.425 -0.4046 -0.0969  0.4944
 1758SOL    HW210405   8.043  10.996   9.345 -1.2957 -2.4849 -0.6908
 1759SOL     OW10406  10.466   2.976   9.783  0.4109 -0.1220 -0.2822
 1759SOL    HW110407  10.496   3.042   9.845  1.8826  0.8181 -1.9655
 1759SOL    HW210408  10.471   2.893   9.831  1.7770  0.5514  0.7481
 1760SOL     OW10409   2.184   6.877   0.376  0.6168 -0.0888 -0.2768
 1760SOL    HW110410   2.242   6.829   0.435  1.0652 -0.9920 -1.4085
 1760SOL    HW210411   2.096   6.859   0.408  0.7839 -1.6206 -0.6299
 1761SOL     OW10412  10.892   0.240   2.194 -0.2857 -0.1622 -0.6116
 1761SOL    HW110413  10.872   0.171   2.257 -1.3002  0.7412  0.0671
 1761SOL    HW210414  10.900   0.194   2.110  1.2653 -1.3994  0.1839
 1762SOL     OW10415   7.392   2.082   1.751  0.7704 -0.1042 -0.7086
 1762SOL    HW110416   7.452   2.054   1.682  0.1216 -0.6739 -1.0425
 1762SOL    HW210417   7.409   2.022   1.823  0.6196 -0.2554 -0.7972
 1763SOL     OW10418   2.408   8.290   9.980 -0.2930  0.0215  0.1504
 1763SOL    HW110419   2.366   8.260   9.899  0.7465  1.2560 -0.8778
 1763SOL    HW210420   2.501   8.294   9.959  0.1224 -0.6540  1.7526
 1764SOL     OW10421   1.322  10.649   7.675 -0.1838  0.0438 -0.5750
 1764SOL    HW110422   1.379  10.602   7.736 -0.1012  1.2213  0.2803
 1764SOL    HW210423   1.380  10.675   7.604 -0.7462 -3.3873 -2.3801
 1765SOL     OW10424   1.702   6.524   5.986 -0.2677  0.5078 -0.2982
 1765SOL    HW110425   1.674   6.561   5.902  0.3896  1.5750 -0.0531
 1765SOL    HW210426   1.796   6.541   5.989  0.0121 -1.0528 -0.1025
 1766SOL     OW10427   6.094   1.708   9.520 -0.3651 -0.2659 -0.3235
 1766SOL    HW110428   6.060   1.618   9.524  0.5142 -0.5429  1.8441
 1766SOL    HW210429   6.189   1.698   9.527 -0.1752  0.7853 -1.2524
 1767SOL     OW10430   7.173   4.410   1.318  0.0643 -0.0067  0.0055
 1767SOL    HW110431   7.249   4.464   1.340 -0.5029  0.8946 -0.1974
 1767SOL    HW210432   7.128   4.398   1.401  0.3209 -0.3732  0.0921
 1768SOL     OW10433   3.322   8.722   8.600  0.0515  0.3470 -0.5546
 1768SOL    HW110434   3.262   8.648   8.599 -1.5469  1.6112 -0.3615
 1768SOL    HW210435   3.342   8.739   8.508  0.6558 -0.4959 -0.5831
 1769SOL     OW10436   2.591   7.933   2.761 -0.5240  0.0691 -0.1152
 1769SOL    HW110437   2.528   7.893   2.821 -0.4738  0.5965  0.2949
 1769SOL    HW210438   2.550   8.015   2.735  0.2721  0.7341  0.6682
 1770SOL     OW10439   3.757   1.228   4.447  0.6347 -0.4481  0.2960
 1770SOL    HW110440   3.834   1.284   4.434  1.1884 -1.6451 -1.8724
 1770SOL    HW210441   3.775   1.180   4.528  1.5517  0.2607  0.5174
 1771SOL     OW10442   3.094   5.977   8.658 -0.1518 -0.3188  0.1238
 1771SOL    HW110443   3.174   5.978   8.711  0.1438 -1.2990 -0.2791
 1771SOL    HW210444   3.084   6.066   8.626  0.4419 -0.0512  0.6915
 1772SOL     OW10445   3.774   1.735   0.899 -0.0988 -0.2091  0.2923
 1772SOL    HW110446   3.717   1.807   0.872  0.3484  0.1537  0.3049
 1772SOL    HW210447   3.820   1.769   0.976  0.5025 -0.3173 -0.0188
 1773SOL     OW10448   3.254   9.991   8.205 -0.0047 -0.0867  0.3605
 1773SOL    HW110449   3.166   9.980   8.241  0.0582  1.7202  1.1061
 1773SOL    HW210450   3.313   9.965   8.277  0.0837 -0.7052  0.0691
 1774SOL     OW10451   8.113   9.691   6.591 -0.5111 -0.2001 -0.0132
 1774SOL    HW110452   8.021   9.707   6.570  0.1826  1.6373 -1.7814
 1774SOL    HW210453   8.128   9.600   6.564 -1.4672 -0.0855 -0.9450
 1775SOL     OW10454   7.685   0.816   6.870 -0.8738 -0.2513 -0.1656
 1775SOL    HW110455   7.660   0.880   6.803 -1.6322 -0.8420 -0.4660
 1775SOL    HW210456   7.780   0.824   6.877 -0.8776  0.3646 -0.7535
 1776SOL     OW10457   5.786   4.566   0.746 -0.5925  0.0649  0.3984
 1776SOL    HW110458   5.705   4.578   0.697 -1.0205 -1.6180  0.6441
 1776SOL    HW210459   5.855   4.574   0.681 -1.0344  0.1284 -0.0663
 1777SOL     OW10460   2.071   0.761   6.710 -0.1222 -0.0590  0.1095
 1777SOL    HW110461   2.161   0.771   6.741 -0.1246  1.6421 -0.3574
 1777SOL    HW210462   2.075   0.783   6.617 -1.4329  2.6104  0.6338
 1778SOL     OW10463   8.503  10.279   0.807 -0.0365  0.0094 -0.1673
 1778SOL    HW110464   8.503  10.308   0.898 -2.0162 -0.6756  0.0842
 1778SOL    HW210465   8.558  10.342   0.761  0.7092  0.5549  1.4399
 1779SOL     OW10466  10.990   1.332   1.108 -0.4874  0.5713 -0.0453
 1779SOL    HW110467  11.053   1.322   1.179 -1.2132 -0.0783  0.5145
 1779SOL    HW210468  10.906   1.342   1.152 -1.3205 -2.4999 -0.8284
 1780SOL     OW10469   2.338   0.220   9.209 -0.8165  0.3064 -0.4204
 1780SOL    HW110470   2.368   0.130   9.226  0.2909  0.4317 -1.6083
 1780SOL    HW210471   2.410   0.275   9.242 -0.5623  0.6783 -1.5690
 1781SOL     OW10472  10.249   1.733   2.183  0.5509  0.2196  0.8334
 1781SOL    HW110473  10.230   1.711   2.274 -0.5283  1.4561  0.9276
 1781SOL    HW210474  10.240   1.828   2.179  0.9537  0.2182 -0.4929
 1782SOL     OW10475   2.569   0.498   4.925 -0.2210  0.2599  0.3827
 1782SOL    HW110476   2.572   0.409   4.958 -1.0289  0.1214  0.0959
 1782SOL    HW210477   2.628   0.498   4.849 -2.1499 -0.6937 -1.1622
 1783SOL     OW10478  10.624   4.051   4.665  0.2304  0.5387  0.5197
 1783SOL    HW110479  10.636   4.136   4.708 -1.4699  1.3102 -0.4902
 1783SOL    HW210480  10.625   3.987   4.737  2.0556  1.3381  1.2410
 1784SOL     OW10481   6.951   9.665  11.239 -0.7120 -0.1661  0.8653
 1784SOL    HW110482   6.875   9.639  11.187  0.1852  0.6314 -0.8674
 1784SOL    HW210483   6.950   9.761  11.238  2.4236 -0.0265 -2.4606
 1785SOL     OW10484  10.312  11.175   0.621  0.6611  0.0004 -0.3322
 1785SOL    HW110485  10.328  11.134   0.536 -0.2513 -0.0298 -0.4946
 1785SOL    HW210486  10.216  11.178   0.628  0.6995 -1.7587  1.5217
 1786SOL     OW10487  10.892   5.266   4.952 -0.2365 -0.6478 -0.6092
 1786SOL    HW110488  10.849   5.349   4.927 -0.9506 -0.6341  0.6442
 1786SOL    HW210489  10.981   5.292   4.976 -0.4254 -0.2649 -0.3183
 1787SOL     OW10490   0.163   9.409   0.033 -0.5329 -0.5038 -0.6293
 1787SOL    HW110491   0.193   9.325  -0.002  0.0539 -0.7058  0.3331
 1787SOL    HW210492   0.072   9.394   0.058 -0.5171 -0.7657 -0.7236
 1788SOL     OW10493   0.508  10.759   5.847 -0.0349 -0.0849  0.0985
 1788SOL    HW110494   0.564  10.825   5.807 -1.7568 -0.7382 -3.6779
 1788SOL    HW210495   0.520  10.681   5.792 -1.0188 -1.7119  2.0930
 1789SOL     OW10496   2.803   2.704  11.031  0.6435  0.0458 -0.3626
 1789SOL    HW110497   2.844   2.657  11.103  0.7951 -0.9862 -1.1086
 1789SOL    HW210498   2.773   2.786  11.070 -2.5209 -1.9997  1.7687
 1790SOL     OW10499   1.290   7.538   5.098 -0.2411 -0.0416  0.3279
 1790SOL    HW110500   1.234   7.602   5.141  1.4082  2.3858 -1.0224
 1790SOL    HW210501   1.373   7.542   5.147 -0.3515 -1.7352  0.7080
 1791SOL     OW10502   7.476   6.937   1.019 -0.1827  0.2643 -0.0433
 1791SOL    HW110503   7.419   7.011   1.001  0.6278  0.6882 -0.9296
 1791SOL    HW210504   7.419   6.860   1.012 -0.9435  0.7787  0.5206
 1792SOL     OW10505   2.979   4.747   4.999 -0.5189  0.3225  0.6632
 1792SOL    HW110506   2.884   4.736   5.001 -0.3550 -1.3525  0.4232
 1792SOL    HW210507   3.000   4.791   5.081 -1.7528  3.0188 -0.4195
 1793SOL     OW10508   1.721   4.140   5.399  0.0700  0.4998  0.7088
 1793SOL    HW110509   1.720   4.158   5.493  0.7027  0.6391  0.6966
 1793SOL    HW210510   1.629   4.128   5.375 -0.1679  1.2956  1.1916
 1794SOL     OW10511   6.847   3.584   4.462  0.1528  0.0361 -0.7988
 1794SOL    HW110512   6.870   3.666   4.505  1.1611 -0.6431 -0.0018
 1794SOL    HW210513   6.751   3.584   4.459  0.1767  2.0069 -2.3598
 1795SOL     OW10514   6.247   5.972   5.794  0.4992  0.4676 -0.6331
 1795SOL    HW110515   6.328   5.926   5.820  1.0955  0.4289 -2.4602
 1795SOL    HW210516   6.273   6.023   5.717 -1.1540  0.6844 -1.0545
 1796SOL     OW10517   0.926   6.961   6.748 -0.2895  0.1331 -0.1512
 1796SOL    HW110518   0.965   7.002   6.671  0.5757  0.8782  0.6682
 1796SOL    HW210519   0.886   7.033   6.797  0.6078 -0.0793  0.9304
 1797SOL     OW10520  10.688   0.529   6.778 -0.1317  0.2090 -0.0116
 1797SOL    HW110521  10.600   0.506   6.749 -0.0626 -1.7159  1.2089
 1797SOL    HW210522  10.677   0.613   6.822 -1.4904 -0.3305  0.7073
 1798SOL     OW10523   5.627  11.334   1.284  0.9961  0.0690  0.6228
 1798SOL    HW110524   5.587  11.399   1.227 -0.8325 -0.9181  0.7376
 1798SOL    HW210525   5.720  11.336   1.262  0.4233  0.1970 -1.8968
 1799SOL     OW10526   2.152   5.726   7.272  0.0406 -0.2965 -0.0633
 1799SOL    HW110527   2.237   5.692   7.300 -0.5509 -1.0834  0.8136
 1799SOL    HW210528   2.092   5.652   7.284 -1.1916  0.9322  1.5310
 1800SOL     OW10529   0.909   5.388   5.289  0.2976  0.0704  0.3085
 1800SOL    HW110530   0.977   5.321   5.282  0.0645 -0.3456  1.8380
 1800SOL    HW210531   0.836   5.344   5.333 -0.9766  0.5020 -1.3467
 1801SOL     OW10532   6.705  10.110   0.859  0.3262  0.1914 -0.3367
 1801SOL    HW110533   6.625  10.095   0.808  0.4982  0.7984 -0.7942
 1801SOL    HW210534   6.775  10.074   0.805  0.6077  1.5731 -0.9243
 1802SOL     OW10535   3.627  10.963   1.308  0.3310 -0.2386  0.1762
 1802SOL    HW110536   3.628  10.917   1.392  0.6287 -0.7089 -0.0770
 1802SOL    HW210537   3.562  11.031   1.318  0.6213 -0.0639  0.9146
 1803SOL     OW10538   0.322   8.622   3.679 -0.8326  0.1589 -0.1712
 1803SOL    HW110539   0.369   8.643   3.759  1.6916 -0.5227 -1.3939
 1803SOL    HW210540   0.256   8.558   3.705  0.4216 -0.5739  1.2582
 1804SOL     OW10541   3.826   9.748   4.108 -0.2369  0.5940 -0.0273
 1804SOL    HW110542   3.906   9.732   4.158  0.0581 -1.7306 -1.1757
 1804SOL    HW210543   3.854   9.751   4.017 -1.4227  0.0104 -0.4170
 1805SOL     OW10544   0.278   2.203   0.604  0.3282  0.2695 -0.2243
 1805SOL    HW110545   0.282   2.149   0.683  0.4990  0.8230  0.1492
 1805SOL    HW210546   0.338   2.276   0.622 -1.1573  1.4731 -0.0479
 1806SOL     OW10547   7.997   8.360   9.713  0.5547  0.2422 -0.2207
 1806SOL    HW110548   7.984   8.314   9.630  0.4538 -0.9830  0.4491
 1806SOL    HW210549   7.908   8.374   9.746  0.6104  0.2349 -0.0673
 1807SOL     OW10550   2.157   4.937   5.207 -0.2361  0.3776  0.5530
 1807SOL    HW110551   2.221   5.000   5.174  1.6257 -1.1220  1.2245
 1807SOL    HW210552   2.184   4.853   5.170 -1.1252 -0.4708  1.7895
 1808SOL     OW10553   1.252   4.778   3.084 -0.0568  0.3377 -0.3340
 1808SOL    HW110554   1.273   4.757   2.993  1.4997 -0.1345  0.1261
 1808SOL    HW210555   1.336   4.797   3.125 -0.6232 -0.5057  1.2851
 1809SOL     OW10556   4.991   1.122   9.974 -0.3130 -0.7924  0.7148
 1809SOL    HW110557   5.026   1.210   9.991 -0.8472 -0.5038  0.3541
 1809SOL    HW210558   5.031   1.096   9.891 -3.2626  0.8244 -1.3467
 1810SOL     OW10559   2.062   0.029   8.146  0.5467  0.5472 -0.2835
 1810SOL    HW110560   1.973   0.052   8.171  1.1509  1.1152  1.4955
 1810SOL    HW210561   2.067   0.047   8.052  0.3460  5.8625  0.5440
 1811SOL     OW10562   9.859   3.778  11.316  0.3888  0.0952  0.0912
 1811SOL    HW110563   9.850   3.783  11.411  3.0285  0.3837  0.3436
 1811SOL    HW210564   9.849   3.869  11.286  1.5190  0.2729  0.2685
 1812SOL     OW10565   4.425   6.394   7.205 -0.0495 -0.1634 -0.6312
 1812SOL    HW110566   4.476   6.471   7.229 -2.3012  0.9413  0.7934
 1812SOL    HW210567   4.468   6.321   7.250  0.8520  0.5845 -0.2683
 1813SOL     OW10568   8.081   9.594   8.748  0.0484 -0.0863  0.0015
 1813SOL    HW110569   7.991   9.609   8.719 -0.1462 -1.8099 -0.3312
 1813SOL    HW210570   8.126   9.561   8.670  1.2332  1.7109 -0.1013
 1814SOL     OW10571   6.363   8.271   3.906 -0.0783  0.4653  0.0488
 1814SOL    HW110572   6.331   8.344   3.958  0.1708  0.3153  0.4214
 1814SOL    HW210573   6.296   8.257   3.839 -0.6147  0.3811  0.6016
 1815SOL     OW10574   2.771   3.747  10.756  0.2808  0.1758  0.1967
 1815SOL    HW110575   2.715   3.768  10.831  1.2575 -0.3496  1.0863
 1815SOL    HW210576   2.843   3.810  10.761 -0.5738  1.3179 -1.3534
 1816SOL     OW10577   2.182   7.481   3.405  0.1976 -0.0748 -0.2540
 1816SOL    HW110578   2.104   7.426   3.416  0.1936 -0.2455 -1.0896
 1816SOL    HW210579   2.191   7.527   3.488 -0.3407 -0.6479  0.1250
 1817SOL     OW10580   0.436   5.366   1.090 -0.0284 -0.1994  0.1665
 1817SOL    HW110581   0.412   5.292   1.146 -1.4233  0.9568  1.1257
 1817SOL    HW210582   0.359   5.379   1.033  1.2910 -1.2391 -1.9346
 1818SOL     OW10583  10.111   9.782   6.073 -0.2982 -1.1538  0.1654
 1818SOL    HW110584  10.122   9.709   6.013 -1.0225 -0.4939 -0.7933
 1818SOL    HW210585  10.195   9.828   6.071 -0.1759 -1.3858 -0.0039
 1819SOL     OW10586   5.631   2.798   9.564 -0.0305  0.1076 -0.5280
 1819SOL    HW110587   5.666   2.802   9.475  0.1880  0.8104 -0.4201
 1819SOL    HW210588   5.654   2.711   9.596 -1.2429 -0.6401 -1.6111
 1820SOL     OW10589   6.383   8.075  11.205  0.5315  0.2202 -0.2310
 1820SOL    HW110590   6.396   7.980  11.210  0.5991  0.1198 -1.7916
 1820SOL    HW210591   6.297   8.089  11.244  0.8925 -0.3692  0.8091
 1821SOL     OW10592   1.995   0.502   8.361 -0.0333  0.7615  0.0476
 1821SOL    HW110593   2.014   0.581   8.411 -2.3376  2.4413 -1.6471
 1821SOL    HW210594   2.078   0.480   8.319  1.1264  1.1098  2.0847
 1822SOL     OW10595   3.863   9.343   8.776  0.1620 -0.2028  0.0477
 1822SOL    HW110596   3.949   9.368   8.744  0.9788 -0.8905  1.6061
 1822SOL    HW210597   3.819   9.426   8.796  0.8437  0.1332  0.1637
 1823SOL     OW10598   8.065   4.821   9.362  0.1891  0.2433  0.6499
 1823SOL    HW110599   8.022   4.872   9.430 -0.8367  1.9386 -1.2278
 1823SOL    HW210600   8.025   4.734   9.368 -0.1414  0.4694  1.9471
 1824SOL     OW10601  11.123   2.089   2.953  0.0472 -0.4702 -0.5124
 1824SOL    HW110602  11.198   2.029   2.951  0.3278 -0.0776 -2.0319
 1824SOL    HW210603  11.069   2.056   3.025 -0.0643 -2.8450 -1.6402
 1825SOL     OW10604  10.642   9.732   1.542 -0.1818 -0.4542 -0.2582
 1825SOL    HW110605  10.732   9.758   1.561  0.2541 -2.4371  0.5114
 1825SOL    HW210606  10.628   9.758   1.451  0.4714  1.7303  0.2452
 1826SOL     OW10607   9.605   9.600   3.130  0.3070  0.3441  0.8602
 1826SOL    HW110608   9.529   9.655   3.108  0.0428 -0.1219  0.6235
 1826SOL    HW210609   9.669   9.620   3.061 -0.1086 -0.2838  0.2870
 1827SOL     OW10610   3.789   5.762   6.846  0.5474  0.2587 -0.0339
 1827SOL    HW110611   3.719   5.744   6.784 -1.2117 -1.7856  2.3853
 1827SOL    HW210612   3.779   5.854   6.870 -3.0071 -0.5977  2.1492
 1828SOL     OW10613   9.261   0.094   8.241  0.9377  0.0003 -0.3614
 1828SOL    HW110614   9.317   0.062   8.311 -0.5697  0.9400  1.3034
 1828SOL    HW210615   9.322   0.118   8.170  2.5305 -0.0462  0.9725
 1829SOL     OW10616   6.017   0.799   3.262  0.4717 -0.3936  0.0766
 1829SOL    HW110617   6.048   0.719   3.218  2.7155  0.1097  0.6644
 1829SOL    HW210618   6.052   0.870   3.209 -0.0436  0.1998  0.5369
 1830SOL     OW10619   5.879   7.588   0.165  0.1251 -0.1770 -0.6001
 1830SOL    HW110620   5.959   7.566   0.211 -0.2521 -0.2005  0.0411
 1830SOL    HW210621   5.884   7.539   0.083  1.9162  1.6894 -1.6700
 1831SOL     OW10622   6.508   3.971   1.481 -0.2596 -0.2485 -0.1351
 1831SOL    HW110623   6.456   3.916   1.422 -0.7007  0.2148 -0.1816
 1831SOL    HW210624   6.459   4.053   1.486  0.0629 -0.0911  0.4464
 1832SOL     OW10625   5.789   7.265   6.227  0.0264  0.2028  0.6346
 1832SOL    HW110626   5.771   7.202   6.297 -0.1889 -0.1021  0.3033
 1832SOL    HW210627   5.735   7.236   6.154  0.4093  0.3998  0.2708
 1833SOL     OW10628   2.813   9.111   0.632 -0.0086  0.2691  0.2362
 1833SOL    HW110629   2.771   9.026   0.614  0.1322  0.3595 -0.5197
 1833SOL    HW210630   2.899   9.104   0.591  0.4227  0.3780  1.1142
 1834SOL     OW10631   9.773   8.181   6.178  0.3573  0.0240  0.1092
 1834SOL    HW110632   9.702   8.127   6.212 -2.4747  2.5030 -1.6817
 1834SOL    HW210633   9.782   8.252   6.242  0.4938  0.2959 -0.2105
 1835SOL     OW10634  10.658   8.196   7.329  0.4884 -0.8769 -0.4106
 1835SOL    HW110635  10.735   8.142   7.312  0.7764 -0.7293  0.3937
 1835SOL    HW210636  10.687   8.259   7.396  0.4030  0.8172 -1.9199
 1836SOL     OW10637   1.174  10.266   8.989 -0.0698 -0.4453  0.7979
 1836SOL    HW110638   1.234  10.214   8.936 -0.6915 -0.0488 -0.3137
 1836SOL    HW210639   1.184  10.231   9.077 -0.3145 -2.2869  0.1163
 1837SOL     OW10640   7.042   8.984   4.649  0.0955 -0.2380  0.3178
 1837SOL    HW110641   7.135   8.965   4.655  0.1866  0.5442  1.5425
 1837SOL    HW210642   7.028   9.058   4.708 -1.3250 -0.4359  0.2606
 1838SOL     OW10643   9.117   2.947   0.420 -0.1108 -0.6608  0.0296
 1838SOL    HW110644   9.137   2.907   0.504  0.7333  1.1336  0.7163
 1838SOL    HW210645   9.148   3.037   0.428  1.9432 -1.0093 -2.9257
 1839SOL     OW10646   7.825  10.480   8.648  0.1965  0.5791  0.0746
 1839SOL    HW110647   7.842  10.506   8.558  1.2353 -0.5437 -0.0718
 1839SOL    HW210648   7.749  10.532   8.675  1.2518  2.5270 -0.7011
 1840SOL     OW10649   6.127  10.353   9.988 -0.4261 -0.0653  0.1663
 1840SOL    HW110650   6.137  10.358  10.083  0.9853  1.4262 -0.0391
 1840SOL    HW210651   6.168  10.434   9.955 -2.4178  0.2607 -1.5955
 1841SOL     OW10652   9.280   2.283   9.361  0.5839  0.4069 -0.0105
 1841SOL    HW110653   9.203   2.302   9.415  2.4019  1.4994  2.2817
 1841SOL    HW210654   9.282   2.353   9.296  0.6932  1.4290  1.0951
 1842SOL     OW10655   2.293   3.021   7.537  0.7661 -0.3234 -0.2401
 1842SOL    HW110656   2.306   3.113   7.561 -2.0161 -0.6192  2.6973
 1842SOL    HW210657   2.306   2.973   7.618  0.1673 -2.3246 -1.3079
 1843SOL     OW10658  10.296   0.927   1.332 -0.5494 -0.6105 -0.5550
 1843SOL    HW110659  10.237   0.864   1.374  0.5296 -1.9756 -1.0617
 1843SOL    HW210660  10.331   0.979   1.403 -1.1697 -0.8092 -0.0956
 1844SOL     OW10661   9.881   2.863   4.344 -0.8518  0.0948  0.4708
 1844SOL    HW110662   9.954   2.855   4.282 -0.8704  0.6510  0.3713
 1844SOL    HW210663   9.904   2.938   4.399 -2.3335  1.6264 -0.9311
 1845SOL     OW10664   6.214  11.065  11.274  0.2949  0.3829  0.1901
 1845SOL    HW110665   6.293  11.055  11.329  0.7416  1.6196 -0.2032
 1845SOL    HW210666   6.228  11.148  11.227 -1.5651  0.9861  0.6524
 1846SOL     OW10667  11.027  10.043  10.381  0.1262  0.2285 -0.1432
 1846SOL    HW110668  10.991  10.018  10.466  1.3779  0.5868  0.5182
 1846SOL    HW210669  10.968  10.005  10.316 -1.9997  1.7142  0.8910
 1847SOL     OW10670   2.701   5.310   0.023  0.0518  0.2512  0.1554
 1847SOL    HW110671   2.704   5.316  -0.073 -1.1609 -1.9834 -0.0509
 1847SOL    HW210672   2.777   5.257   0.046  0.8994  1.5998  0.5407
 1848SOL     OW10673   2.126   0.314   9.326  0.0212  0.8373  0.2636
 1848SOL    HW110674   2.193   0.291   9.262 -1.1189  0.2979 -0.7653
 1848SOL    HW210675   2.167   0.380   9.381  0.9475  1.4958 -1.1840
 1849SOL     OW10676   4.105   2.209   5.979  0.2877 -0.2062 -0.5997
 1849SOL    HW110677   4.149   2.263   6.046  0.4125  1.9703 -2.3834
 1849SOL    HW210678   4.020   2.189   6.017  0.1980  1.3540  0.0677
 1850SOL     OW10679   3.522   8.993  11.292  0.1007  0.1201  0.3721
 1850SOL    HW110680   3.615   9.004  11.273 -0.4268 -0.3292 -2.6288
 1850SOL    HW210681   3.517   8.910  11.339  1.0984 -0.2582 -0.1808
 1851SOL     OW10682   4.949   0.374   6.698  0.1238  0.0295 -0.9165
 1851SOL    HW110683   5.016   0.316   6.662 -1.2373 -0.5889 -2.5536
 1851SOL    HW210684   4.903   0.321   6.762  0.5446  0.1431 -0.5143
 1852SOL     OW10685   1.641   5.266   6.572 -0.1650  0.0281 -0.1330
 1852SOL    HW110686   1.553   5.298   6.555 -1.4037 -2.7882  0.6209
 1852SOL    HW210687   1.677   5.326   6.637 -2.2377  0.1395  0.9456
 1853SOL     OW10688   1.161   0.867   8.273 -0.3276 -0.3452  0.3997
 1853SOL    HW110689   1.188   0.958   8.285 -1.4624  0.0664 -0.1150
 1853SOL    HW210690   1.090   0.855   8.336 -0.1628 -0.8914  0.4870
 1854SOL     OW10691   2.088   9.297   5.848 -0.4218  0.3032  0.0929
 1854SOL    HW110692   2.071   9.310   5.754 -0.4398 -0.4208 -0.0018
 1854SOL    HW210693   2.183   9.310   5.857 -0.2751 -0.5870 -0.1810
 1855SOL     OW10694   8.636  10.841   7.132 -0.0882 -0.0370  0.1877
 1855SOL    HW110695   8.579  10.850   7.056  0.7366 -1.5479 -0.6420
 1855SOL    HW210696   8.714  10.795   7.098  1.5883  1.8871  1.2961
 1856SOL     OW10697   3.184   6.273   8.181  0.3385 -0.1276 -0.7617
 1856SOL    HW110698   3.186   6.340   8.113 -0.4030  0.0843 -0.5789
 1856SOL    HW210699   3.126   6.309   8.248  1.0231 -0.3520 -0.0341
 1857SOL     OW10700   7.109   3.517   4.365 -0.2400 -0.2031 -0.3298
 1857SOL    HW110701   7.152   3.601   4.346  0.4735 -0.6604 -0.7602
 1857SOL    HW210702   7.034   3.541   4.419 -0.1198  0.7329 -0.5553
 1858SOL     OW10703   0.975   4.442  10.362 -0.5722 -0.4130  0.1395
 1858SOL    HW110704   0.974   4.380  10.290  0.4178 -0.2414 -0.0269
 1858SOL    HW210705   1.062   4.432  10.401  0.1287  1.8314 -0.7495
 1859SOL     OW10706   8.067   9.992   1.722  0.0626 -0.0051 -0.5860
 1859SOL    HW110707   8.149   9.948   1.743  0.4065  1.7067  1.9597
 1859SOL    HW210708   8.000   9.943   1.770  0.0035  0.3130 -0.3395
 1860SOL     OW10709   0.580   7.959   4.833  0.3047  0.2219  0.2502
 1860SOL    HW110710   0.564   7.924   4.921  0.8562 -1.2653 -0.2254
 1860SOL    HW210711   0.493   7.970   4.796  0.1022 -0.2597  0.5702
 1861SOL     OW10712   9.900   7.456   9.387 -0.4514  0.6654  0.4266
 1861SOL    HW110713   9.869   7.546   9.386 -0.7678  0.5503 -0.3005
 1861SOL    HW210714   9.889   7.428   9.478 -2.3375  0.6863  0.2357
 1862SOL     OW10715   3.119   5.388  11.113  0.9487  0.1928  0.0892
 1862SOL    HW110716   3.069   5.468  11.098  0.0864 -0.3662 -0.0739
 1862SOL    HW210717   3.053   5.319  11.115  1.6220 -0.4361  0.8988
 1863SOL     OW10718   5.546   5.100   4.423 -0.1541 -0.0373  0.2333
 1863SOL    HW110719   5.608   5.172   4.424 -0.4530  0.2915 -1.6860
 1863SOL    HW210720   5.520   5.089   4.514  1.8098  0.5949  0.9018
 1864SOL     OW10721   2.089   1.911   3.618 -0.2603 -0.5786  0.2079
 1864SOL    HW110722   2.056   1.854   3.549  3.2590 -1.4597 -0.8269
 1864SOL    HW210723   2.170   1.870   3.647  1.9407  3.3790  0.0570
 1865SOL     OW10724   5.149   4.366   9.961  0.0231  0.0225  0.0041
 1865SOL    HW110725   5.168   4.289  10.015 -1.0049  0.5168  1.0769
 1865SOL    HW210726   5.193   4.438  10.005  0.1021  0.2441 -0.4317
 1866SOL     OW10727   3.242   7.755   5.126 -0.2783  0.2302 -0.5612
 1866SOL    HW110728   3.161   7.791   5.089  1.2466  1.0329 -3.2550
 1866SOL    HW210729   3.291   7.832   5.156  0.1073 -0.1365 -0.2385
 1867SOL     OW10730  10.089   6.352   2.668  0.3580  0.5450  0.4292
 1867SOL    HW110731  10.121   6.262   2.663  1.1738  0.8650 -0.3541
 1867SOL    HW210732  10.036   6.355   2.748  0.2064 -0.6603  0.3754
 1868SOL     OW10733   5.694   6.989   3.801  0.1584  0.4926  0.3395
 1868SOL    HW110734   5.740   7.030   3.873  0.7015 -1.1010  0.9091
 1868SOL    HW210735   5.756   6.927   3.764 -1.5563 -1.8376  1.2493
 1869SOL     OW10736   8.058   1.321   3.471 -0.5604 -0.5854  0.3386
 1869SOL    HW110737   8.032   1.360   3.555 -0.0612 -1.0178  0.6989
 1869SOL    HW210738   8.074   1.229   3.491 -1.4398 -0.9162 -0.4556
 1870SOL     OW10739  10.593   3.451   4.585 -0.5776 -0.1598 -0.9106
 1870SOL    HW110740  10.557   3.402   4.659 -0.9749 -0.3743 -1.2421
 1870SOL    HW210741  10.648   3.389   4.539 -0.2260  0.0115 -0.7217
 1871SOL     OW10742   0.620   9.909   0.071 -0.4034 -0.4032  0.1332
 1871SOL    HW110743   0.545   9.969   0.068 -0.7352 -0.8181 -0.0091
 1871SOL    HW210744   0.692   9.958   0.032 -0.4923  0.1520  0.6697
 1872SOL     OW10745   2.228  10.640   0.008 -0.2528  0.0873  0.0265
 1872SOL    HW110746   2.233  10.575   0.078  0.2295  1.7305  1.5666
 1872SOL    HW210747   2.150  10.616  -0.042 -1.3548 -0.3665  1.9016
 1873SOL     OW10748   1.394   2.800   6.409  0.2316 -0.6600 -0.1154
 1873SOL    HW110749   1.379   2.856   6.486 -0.7454 -0.2923 -0.5660
 1873SOL    HW210750   1.309   2.796   6.366  0.5152 -1.7720 -0.5811
 1874SOL     OW10751   8.151   2.242   9.679 -0.0556  0.1390 -0.0129
 1874SOL    HW110752   8.200   2.306   9.627  1.6941 -0.8229  0.4074
 1874SOL    HW210753   8.195   2.158   9.662 -0.5881 -0.4887  1.6037
 1875SOL     OW10754   6.364   2.660   3.255  0.4173 -0.1637 -0.1592
 1875SOL    HW110755   6.366   2.657   3.159 -0.3196  0.1672 -0.1868
 1875SOL    HW210756   6.385   2.571   3.282  2.6503  0.2025 -0.5939
 1876SOL     OW10757   7.060   8.262   3.112 -0.5929  0.4600  0.1870
 1876SOL    HW110758   7.119   8.336   3.126 -1.0713  0.5257  2.0872
 1876SOL    HW210759   7.060   8.216   3.196 -1.3064 -0.9544 -0.5787
 1877SOL     OW10760   2.501  10.412   9.623 -0.1492  0.2173  0.2681
 1877SOL    HW110761   2.406  10.409   9.616 -0.2690 -2.2940  2.1618
 1877SOL    HW210762   2.533  10.391   9.535 -1.3505  0.0398 -0.1229
 1878SOL     OW10763   7.671   7.776   0.161  0.3980 -0.2042  0.1395
 1878SOL    HW110764   7.704   7.695   0.199  1.6695  0.2784  0.1012
 1878SOL    HW210765   7.619   7.748   0.086 -0.1084 -1.0308  0.7898
 1879SOL     OW10766  10.281   0.168   0.768 -0.3511  0.2748 -0.0625
 1879SOL    HW110767  10.276   0.261   0.790  1.0436  1.0663 -2.8497
 1879SOL    HW210768  10.369   0.142   0.797 -0.4337  0.0449 -0.0260
 1880SOL     OW10769   5.563   4.183   7.789 -0.1744  0.2221 -0.9155
 1880SOL    HW110770   5.590   4.262   7.742  1.8183 -0.4377 -0.9719
 1880SOL    HW210771   5.645   4.147   7.824 -0.6184 -3.2324 -3.1295
 1881SOL     OW10772   0.152   1.707   8.113  0.1308  0.3054 -0.3767
 1881SOL    HW110773   0.223   1.745   8.061 -0.5265  3.2630  0.7882
 1881SOL    HW210774   0.073   1.727   8.063 -0.0430 -1.4351 -0.7995
 1882SOL     OW10775   9.494   5.656   0.955  0.1122 -0.0507  0.0360
 1882SOL    HW110776   9.511   5.717   0.883 -0.8513 -1.1612 -1.1494
 1882SOL    HW210777   9.542   5.577   0.932  0.6935 -0.0415  1.1681
 1883SOL     OW10778   8.376   6.773   6.012  0.1109 -0.3408 -0.1300
 1883SOL    HW110779   8.327   6.711   5.958 -1.5486  1.3094 -0.5522
 1883SOL    HW210780   8.367   6.739   6.101  0.5192 -1.5434 -0.5289
 1884SOL     OW10781   5.440   9.549   7.593  0.1963 -0.6964  0.1908
 1884SOL    HW110782   5.453   9.463   7.634 -0.2180 -0.4783  0.7680
 1884SOL    HW210783   5.449   9.531   7.499 -0.4094 -1.4665  0.2706
 1885SOL     OW10784   4.127   4.619   6.711  0.1235 -0.2449  0.1771
 1885SOL    HW110785   4.102   4.682   6.644  2.0728  0.8718  0.4742
 1885SOL    HW210786   4.111   4.665   6.794  0.7661 -0.4486  0.4130
 1886SOL     OW10787  10.949   8.527   2.463 -0.0014  0.5026 -0.0783
 1886SOL    HW110788  10.870   8.487   2.426  0.3136  0.1523 -0.3731
 1886SOL    HW210789  11.017   8.509   2.398  0.7738 -0.9472  1.1356
 1887SOL     OW10790   3.117   4.107   4.056  0.0805 -0.1614  0.0281
 1887SOL    HW110791   3.160   4.093   4.141 -0.2589  1.3845  0.4690
 1887SOL    HW210792   3.041   4.049   4.057 -0.9738  1.2242  1.5630
 1888SOL     OW10793   7.084   5.917   9.738  0.6571 -1.0083  0.2633
 1888SOL    HW110794   7.088   5.957   9.825  0.6881  1.2407 -0.7225
 1888SOL    HW210795   7.011   5.962   9.695 -0.6787 -3.5364 -0.1967
 1889SOL     OW10796   1.052   9.321   5.692  0.1931  0.0522  0.3266
 1889SOL    HW110797   1.102   9.315   5.774  2.1973  0.0135 -0.8734
 1889SOL    HW210798   1.066   9.237   5.649 -0.2221  0.3577 -0.4085
 1890SOL     OW10799   2.831   0.060   9.547  0.3246  0.3018  0.0456
 1890SOL    HW110800   2.854  -0.032   9.540  0.1257  0.2064  0.6417
 1890SOL    HW210801   2.913   0.106   9.526  0.4026 -0.0010 -0.3313
 1891SOL     OW10802   3.781  10.901   1.790 -0.3228 -0.3727  0.4104
 1891SOL    HW110803   3.802  10.945   1.873 -1.9486 -1.4154  1.3799
 1891SOL    HW210804   3.867  10.887   1.749  0.4641  0.6277  1.6609
 1892SOL     OW10805   0.655   0.810   1.982  0.9692 -0.2506 -0.0200
 1892SOL    HW110806   0.746   0.832   1.999  1.1169 -1.8107  1.3155
 1892SOL    HW210807   0.656   0.762   1.899  1.6101 -1.8506  0.8951
 1893SOL     OW10808   7.270   4.456  11.101 -0.4432 -0.0698 -0.5200
 1893SOL    HW110809   7.281   4.547  11.073  1.2766 -0.7349 -2.0484
 1893SOL    HW210810   7.334   4.444  11.171 -2.3051  0.5561  1.3385
 1894SOL     OW10811  11.003   1.419  11.275  0.5870  0.1004 -0.7419
 1894SOL    HW110812  11.011   1.475  11.199  2.0347 -0.7564 -1.2511
 1894SOL    HW210813  11.072   1.450  11.335  0.1336  0.1091 -0.2244
 1895SOL     OW10814  10.782   9.850   4.580 -0.5964  0.2582 -0.0980
 1895SOL    HW110815  10.701   9.817   4.542 -0.5834 -0.8343  0.7921
 1895SOL    HW210816  10.848   9.785   4.557 -0.0730  0.8611 -0.3429
 1896SOL     OW10817   9.681   5.116   2.213 -0.1265 -0.1088 -0.1553
 1896SOL    HW110818   9.732   5.181   2.261 -1.3756  0.3124  0.6156
 1896SOL    HW210819   9.667   5.156   2.127  0.1816  0.1078 -0.1035
 1897SOL     OW10820   3.653   1.550   8.973 -0.4079  0.3585 -0.1127
 1897SOL    HW110821   3.729   1.515   9.020 -0.2574 -1.7689 -1.8423
 1897SOL    HW210822   3.581   1.541   9.036  0.2187 -0.3483  0.5236
 1898SOL     OW10823   6.790   0.549   9.753  0.7432 -0.6191 -0.2374
 1898SOL    HW110824   6.827   0.637   9.763  0.3445 -0.4622 -0.1149
 1898SOL    HW210825   6.763   0.524   9.841  0.4210 -0.6678 -0.3461
 1899SOL     OW10826   6.496   1.703   1.479  0.3874  0.0468  0.5671
 1899SOL    HW110827   6.481   1.798   1.473 -2.5216 -0.4932 -1.7431
 1899SOL    HW210828   6.591   1.693   1.471  0.5393  2.6336 -1.5351
 1900SOL     OW10829   6.943   9.722   2.827  0.0189  0.5395 -0.1115
 1900SOL    HW110830   6.946   9.628   2.845 -1.4557  0.4077 -0.4203
 1900SOL    HW210831   6.918   9.727   2.734 -0.7779  1.2214  0.1301
 1901SOL     OW10832  11.268   0.446   5.803 -0.1524 -0.0837 -0.2788
 1901SOL    HW110833  11.193   0.480   5.851  1.0092 -1.3596  2.5211
 1901SOL    HW210834  11.242   0.356   5.779 -0.2535  0.1335 -0.9933
 1902SOL     OW10835   5.315   3.073   1.494  0.0720 -0.0177 -0.0312
 1902SOL    HW110836   5.303   3.010   1.564 -2.8607 -0.7917 -1.1465
 1902SOL    HW210837   5.319   3.020   1.414  1.3853  0.9748 -0.6504
 1903SOL     OW10838   8.988   4.743  10.363 -0.6833 -0.0793  0.5864
 1903SOL    HW110839   9.078   4.711  10.373  0.1115  1.9722  0.3905
 1903SOL    HW210840   8.949   4.686  10.298  1.6888  1.2724 -2.1659
 1904SOL     OW10841   7.777   9.423   8.466 -0.1959 -0.0972  0.2521
 1904SOL    HW110842   7.698   9.469   8.438  0.0536  0.5090  0.5419
 1904SOL    HW210843   7.792   9.453   8.555  0.1084 -0.5578  0.3607
 1905SOL     OW10844   6.586   1.773   5.995 -0.6044 -0.0287  0.3185
 1905SOL    HW110845   6.646   1.769   6.069  1.0591 -0.2248 -1.0073
 1905SOL    HW210846   6.591   1.864   5.966  0.4486 -0.4660 -0.9082
 1906SOL     OW10847   0.239   1.573   4.796 -0.0968 -0.0934 -0.6022
 1906SOL    HW110848   0.282   1.657   4.787 -0.6787  0.2856  0.0814
 1906SOL    HW210849   0.147   1.590   4.773 -0.3072 -0.4393 -0.0355
 1907SOL     OW10850   7.738   1.914   0.989  0.7584  0.1115 -0.1828
 1907SOL    HW110851   7.785   1.930   0.907 -0.1424  0.8117 -0.5720
 1907SOL    HW210852   7.709   2.001   1.017  0.5157 -0.2009  0.5522
 1908SOL     OW10853   0.398  10.286   0.491 -0.4557  0.3659  0.3362
 1908SOL    HW110854   0.345  10.338   0.551 -1.3480  2.5753 -2.2146
 1908SOL    HW210855   0.476  10.339   0.476  0.5349 -0.9381  0.8351
 1909SOL     OW10856   5.998  10.919   7.890 -0.2159  0.1141 -0.0472
 1909SOL    HW110857   6.068  10.906   7.826 -1.4587  0.5384 -1.5342
 1909SOL    HW210858   5.978  11.012   7.885 -1.0774 -0.0584  0.1749
 1910SOL     OW10859   9.371   0.847   8.144 -0.4266  0.3906  0.3299
 1910SOL    HW110860   9.295   0.828   8.090 -0.0442  1.3109 -0.5554
 1910SOL    HW210861   9.441   0.792   8.109 -0.0653  1.2989 -0.4135
 1911SOL     OW10862   3.521   6.414   7.409 -0.8194  0.5745  0.3632
 1911SOL    HW110863   3.532   6.326   7.446 -0.8224 -0.0995 -1.1841
 1911SOL    HW210864   3.609   6.451   7.410 -0.7776  0.4590  0.8233
 1912SOL     OW10865   5.945   6.839   8.975 -0.2549 -0.3309  0.1232
 1912SOL    HW110866   5.886   6.907   9.007  0.1983 -0.6276  1.6423
 1912SOL    HW210867   6.020   6.887   8.941 -0.4854 -0.0273  0.0377
 1913SOL     OW10868   1.482   4.637   5.167 -0.3097  0.3904  0.0571
 1913SOL    HW110869   1.409   4.586   5.132  0.2767 -0.5919  0.2660
 1913SOL    HW210870   1.479   4.620   5.262  1.6566 -1.5578 -0.2097
 1914SOL     OW10871   2.774   5.917   1.350  0.2715 -0.4514 -0.0042
 1914SOL    HW110872   2.867   5.937   1.355  0.2050 -0.4459  1.6294
 1914SOL    HW210873   2.752   5.885   1.438 -1.1470 -0.9662 -0.5296
 1915SOL     OW10874   1.893   5.020   6.171  0.1608  0.1348  0.7787
 1915SOL    HW110875   1.835   5.097   6.175 -1.7140 -1.2217  0.5044
 1915SOL    HW210876   1.909   4.998   6.263  0.3638  0.6031  0.8578
 1916SOL     OW10877   7.351   4.849   7.233  0.4522 -0.9063  0.4185
 1916SOL    HW110878   7.420   4.784   7.219 -0.5636 -1.8939 -0.0741
 1916SOL    HW210879   7.272   4.797   7.248 -0.4982  0.2074 -0.6399
 1917SOL     OW10880   0.102  10.934   0.724  0.7596  0.5615  0.1146
 1917SOL    HW110881   0.133  11.019   0.691  0.9732  1.1101  1.7085
 1917SOL    HW210882   0.181  10.882   0.736  0.5862 -0.1017 -1.4432
 1918SOL     OW10883   2.582   9.193   5.744 -0.1196  0.0491 -0.1091
 1918SOL    HW110884   2.636   9.153   5.812 -0.0564  0.3033 -0.0066
 1918SOL    HW210885   2.498   9.149   5.751 -0.2189  0.3081  0.3617
 1919SOL     OW10886   1.881   8.970   8.146  0.4047 -0.1621 -0.0085
 1919SOL    HW110887   1.962   8.946   8.102 -0.5192 -2.1393 -0.7028
 1919SOL    HW210888   1.817   8.979   8.075 -0.3702 -0.2780  0.6581
 1920SOL     OW10889   9.767   8.330   5.451 -0.5382  0.2064 -0.4171
 1920SOL    HW110890   9.698   8.291   5.504 -0.1944 -0.1451 -0.2308
 1920SOL    HW210891   9.841   8.269   5.457 -0.4441  0.2335 -1.1712
 1921SOL     OW10892   4.171   1.473   6.853 -0.5318 -0.1684  0.0711
 1921SOL    HW110893   4.152   1.397   6.909  0.4671 -0.0979  0.5117
 1921SOL    HW210894   4.181   1.436   6.765 -1.0297 -0.4169  0.1174
 1922SOL     OW10895   6.008   7.051   9.378 -0.0258  0.0953 -0.2688
 1922SOL    HW110896   6.049   7.107   9.311  1.2356 -1.6031 -0.9484
 1922SOL    HW210897   5.935   7.104   9.411 -0.8263  0.9150 -3.1387
 1923SOL     OW10898   6.838   0.826   6.937  0.2829 -0.0713 -0.1483
 1923SOL    HW110899   6.795   0.773   7.004  1.2343 -1.8233 -0.9042
 1923SOL    HW210900   6.925   0.788   6.928 -0.1167 -0.4125 -2.9675
 1924SOL     OW10901   3.471   2.885   7.470 -0.1140  0.3588 -0.3238
 1924SOL    HW110902   3.552   2.930   7.494  0.1071 -0.3690  0.3122
 1924SOL    HW210903   3.408   2.955   7.452  0.7066  0.9292 -1.0022
 1925SOL     OW10904   7.762   0.034   5.256 -0.3032  0.1332  0.2746
 1925SOL    HW110905   7.763  -0.027   5.182  2.6921 -1.3239  1.4129
 1925SOL    HW210906   7.813   0.109   5.225 -1.2383  0.6443 -0.0221
 1926SOL     OW10907  10.430   3.753   2.461  0.1424  0.3863 -0.4114
 1926SOL    HW110908  10.381   3.832   2.481  0.3958  1.0023 -2.1177
 1926SOL    HW210909  10.415   3.695   2.536  2.0561  2.9926  2.0786
 1927SOL     OW10910   6.183   2.453   6.797  0.2243 -0.2901 -0.2975
 1927SOL    HW110911   6.090   2.476   6.791 -0.2194 -1.9949 -0.1606
 1927SOL    HW210912   6.217   2.509   6.866 -0.6567  0.4778 -0.4733
 1928SOL     OW10913   7.033  11.019   7.829 -0.2690  0.0595 -0.5626
 1928SOL    HW110914   7.120  11.058   7.824  0.4695 -1.6866 -1.8379
 1928SOL    HW210915   7.009  11.000   7.738 -1.1575 -1.2296 -0.0815
 1929SOL     OW10916   2.562  11.303   3.879  0.1019  0.2172 -0.7827
 1929SOL    HW110917   2.618  11.298   3.956 -1.1093 -2.3473 -0.0020
 1929SOL    HW210918   2.619  11.279   3.806  0.4786 -0.5822 -0.2329
 1930SOL     OW10919  10.283   3.596   1.011 -0.4264 -0.5371  0.1855
 1930SOL    HW110920  10.341   3.673   1.009  0.3029 -1.0031  1.9417
 1930SOL    HW210921  10.195   3.632   0.998  0.2173  0.2092 -2.3087
 1931SOL     OW10922   5.453   1.901   0.499  0.0739  0.0430 -0.0842
 1931SOL    HW110923   5.524   1.892   0.435 -0.1753 -0.5842 -0.2805
 1931SOL    HW210924   5.493   1.876   0.582  1.2365  3.7781  0.5795
 1932SOL     OW10925   1.690   2.731   4.121 -0.3830 -0.2682  0.4096
 1932SOL    HW110926   1.724   2.692   4.202 -1.4828  0.3673  1.1931
 1932SOL    HW210927   1.741   2.812   4.111 -1.2831  0.4441  1.3316
 1933SOL     OW10928  11.176   8.086  10.186 -0.6133  0.7400  0.9776
 1933SOL    HW110929  11.105   8.136  10.227 -1.1357  0.6951  0.1202
 1933SOL    HW210930  11.226   8.052  10.260 -1.7554  0.3776  1.5924
 1934SOL     OW10931   7.494   6.223   3.246  0.1473  0.0031 -0.2555
 1934SOL    HW110932   7.455   6.251   3.163  1.0248  1.7527 -0.1030
 1934SOL    HW210933   7.556   6.155   3.222 -1.4788 -1.3239 -0.7318
 1935SOL     OW10934  10.441   3.234   7.004  0.3097 -0.4436  0.1178
 1935SOL    HW110935  10.406   3.301   7.062  1.2148 -0.4750  0.6976
 1935SOL    HW210936  10.533   3.226   7.028 -0.0643 -2.7458  0.8673
 1936SOL     OW10937   4.491   9.910   9.803  0.7700 -0.2668  0.3236
 1936SOL    HW110938   4.400   9.896   9.776  1.1884 -0.6671 -0.8873
 1936SOL    HW210939   4.543   9.883   9.728  1.8682  0.7510  0.7027
 1937SOL     OW10940  10.297   9.785   8.225  0.1008  0.5416  0.1171
 1937SOL    HW110941  10.368   9.730   8.191  1.1331  1.7679  0.2539
 1937SOL    HW210942  10.218   9.731   8.216  1.1539 -1.1268  0.6522
 1938SOL     OW10943   1.311  10.631   8.065 -1.1316  0.1452  0.0117
 1938SOL    HW110944   1.290  10.722   8.045  0.5213  1.1802  2.7106
 1938SOL    HW210945   1.380  10.608   8.003 -0.2940  1.3269  0.4923
 1939SOL     OW10946   9.065   3.316   2.925  0.2123 -0.6735  0.1616
 1939SOL    HW110947   9.138   3.297   2.866 -0.0210 -1.8974  0.2573
 1939SOL    HW210948   9.011   3.237   2.923 -0.6849 -0.0806  0.7164
 1940SOL     OW10949   6.450   5.529   2.863  0.4976  0.6316 -0.2766
 1940SOL    HW110950   6.456   5.458   2.799  2.0824 -0.4591  1.0575
 1940SOL    HW210951   6.391   5.496   2.931  0.1840  1.1322 -0.2956
 1941SOL     OW10952   6.642   5.971   8.450 -0.3702 -0.0234 -0.2322
 1941SOL    HW110953   6.685   5.903   8.398 -0.4005  2.1771 -3.3046
 1941SOL    HW210954   6.551   5.942   8.456  0.2242 -1.6790  1.0197
 1942SOL     OW10955   7.392   5.997  10.871 -0.7654  0.7836 -0.0351
 1942SOL    HW110956   7.431   6.074  10.913  0.4624  1.1933 -1.8809
 1942SOL    HW210957   7.352   6.030  10.791 -0.9848 -0.3577 -0.4135
 1943SOL     OW10958   5.311  10.824   4.929  0.6642  0.0447  0.0248
 1943SOL    HW110959   5.311  10.753   4.864 -0.5787 -0.6947  0.8198
 1943SOL    HW210960   5.238  10.881   4.902  1.8463  1.2245 -0.7928
 1944SOL     OW10961   7.311  10.297   5.242 -0.3466 -0.7226  0.1518
 1944SOL    HW110962   7.309  10.348   5.161  1.5386 -1.7685 -0.5938
 1944SOL    HW210963   7.339  10.210   5.215 -1.8241 -1.6922  1.6465
 1945SOL     OW10964   6.897   8.778   9.933 -0.1950 -0.0956  0.2439
 1945SOL    HW110965   6.985   8.758   9.965 -0.2299 -2.4798 -1.0213
 1945SOL    HW210966   6.889   8.727   9.852 -0.9606  3.8556 -2.3509
 1946SOL     OW10967   6.371   6.058   8.055 -0.0348 -0.1715  0.2527
 1946SOL    HW110968   6.461   6.045   8.087 -0.4658 -2.5257  0.6124
 1946SOL    HW210969   6.381   6.107   7.974  1.4550  1.1147  1.1697
 1947SOL     OW10970   4.781   2.676   3.615  0.3288 -0.0364  0.1589
 1947SOL    HW110971   4.812   2.631   3.536 -0.9080  0.2196 -0.4844
 1947SOL    HW210972   4.833   2.756   3.619  2.5513 -1.4851  1.3115
 1948SOL     OW10973   2.913   7.642   4.029  0.1094  0.5010  0.0437
 1948SOL    HW110974   3.002   7.611   4.045 -0.0494  0.4773  0.9431
 1948SOL    HW210975   2.913   7.732   4.062 -0.3031  0.3695  0.4069
 1949SOL     OW10976   7.145   2.232   9.840 -0.0800 -0.3443  0.2797
 1949SOL    HW110977   7.059   2.206   9.807 -0.2528  0.4877  0.0689
 1949SOL    HW210978   7.177   2.296   9.777 -0.0769  0.6804  1.2979
 1950SOL     OW10979   2.741   4.263   8.995 -0.2463 -0.0061  0.1342
 1950SOL    HW110980   2.805   4.198   8.964 -1.2827 -0.8919 -0.1664
 1950SOL    HW210981   2.793   4.342   9.008  0.6094 -0.2199 -1.8150
 1951SOL     OW10982   7.662   5.054  10.360 -0.6178 -0.2899  0.0360
 1951SOL    HW110983   7.572   5.086  10.363 -0.8080 -0.8867  1.2492
 1951SOL    HW210984   7.711   5.116  10.413 -0.5850 -0.7524  0.5571
 1952SOL     OW10985   6.430   2.157   0.181  0.3246  0.6383 -0.1057
 1952SOL    HW110986   6.509   2.186   0.225  1.2246 -0.5048 -0.9272
 1952SOL    HW210987   6.461   2.104   0.108 -1.1853  0.7229 -0.8341
 1953SOL     OW10988   0.020   5.351   4.707 -0.6874 -0.6314  0.1045
 1953SOL    HW110989   0.090   5.295   4.674 -0.5189  0.3290 -1.1996
 1953SOL    HW210990  -0.060   5.313   4.670 -0.5029  0.4146 -1.4271
 1954SOL     OW10991   7.636   1.314   6.249 -0.0364  0.3861  0.1377
 1954SOL    HW110992   7.565   1.255   6.224  1.3507 -0.7153 -1.3024
 1954SOL    HW210993   7.655   1.291   6.340 -1.1684  0.3394  0.3764
 1955SOL     OW10994   0.399   8.093   5.172 -0.3159  0.2966  0.1807
 1955SOL    HW110995   0.368   8.153   5.104 -0.6712 -0.1921 -0.0974
 1955SOL    HW210996   0.335   8.101   5.242 -0.8273 -0.3570 -0.1963
 1956SOL     OW10997   7.028   2.997   6.934  0.1270 -0.8591  0.2730
 1956SOL    HW110998   7.063   2.942   7.004  0.7436  1.7281  2.0466
 1956SOL    HW210999   7.044   3.086   6.963 -3.6907  0.3632 -1.0699
 1957SOL     OW11000   8.105   1.724   5.714  0.0985  0.0813  0.5799
 1957SOL    HW111001   8.067   1.792   5.768 -0.7313  0.2203 -0.1548
 1957SOL    HW211002   8.158   1.771   5.649 -0.0682  0.0067  0.3868
 1958SOL     OW11003   5.772   0.842   2.576  0.5106 -0.0761 -0.1818
 1958SOL    HW111004   5.828   0.811   2.505  1.2926  0.0866  0.3600
 1958SOL    HW211005   5.793   0.935   2.584 -0.6313  0.2346 -0.7048
 1959SOL     OW11006   2.824   8.017   9.143 -0.2338  0.2519  0.7908
 1959SOL    HW111007   2.906   8.062   9.124  0.2469 -1.5708 -1.7981
 1959SOL    HW211008   2.787   7.999   9.057 -2.6223 -0.2800  1.8925
 1960SOL     OW11009   7.610   8.508   8.986 -0.1491  0.0144  0.3837
 1960SOL    HW111010   7.563   8.592   8.987 -0.5425 -0.2013 -0.1144
 1960SOL    HW211011   7.618   8.485   9.079 -1.7438 -0.3492  0.4360
 1961SOL     OW11012  10.407   8.802   3.507  0.0138 -0.1556 -0.3841
 1961SOL    HW111013  10.331   8.839   3.462  0.4463 -0.8272 -1.6780
 1961SOL    HW211014  10.376   8.785   3.596 -0.3918  2.6800  0.0834
 1962SOL     OW11015   5.855   7.523   6.085 -0.2161  0.3414 -0.0122
 1962SOL    HW111016   5.875   7.518   5.991  1.2708 -1.4498  0.3710
 1962SOL    HW211017   5.829   7.434   6.108 -0.5909  0.7808  1.2720
 1963SOL     OW11018   0.131   6.548   2.755  0.0534 -0.2516 -0.0335
 1963SOL    HW111019   0.150   6.473   2.811 -1.5611  0.2580  1.2360
 1963SOL    HW211020   0.038   6.566   2.769 -0.2673  0.1923 -2.5206
 1964SOL     OW11021   6.145   3.409   9.143 -0.3066  0.1636 -0.6207
 1964SOL    HW111022   6.180   3.481   9.090  0.5073  0.7291  0.6452
 1964SOL    HW211023   6.053   3.434   9.159 -0.1138  0.7838 -0.4402
 1965SOL     OW11024   3.921   5.875   8.633  0.0280  0.3473 -0.0669
 1965SOL    HW111025   3.915   5.886   8.538 -0.3290 -0.3048 -0.1196
 1965SOL    HW211026   3.874   5.794   8.651 -1.6552  1.5237  0.8970
 1966SOL     OW11027   5.124   4.581   9.024 -0.2924 -0.1990 -0.0060
 1966SOL    HW111028   5.047   4.637   9.031  0.5367  1.3355 -2.4328
 1966SOL    HW211029   5.120   4.525   9.101 -3.1538  0.6924  0.5543
 1967SOL     OW11030  10.162   4.760   7.975 -0.4248  0.5414  0.1265
 1967SOL    HW111031  10.094   4.818   7.940  0.2210  1.1396 -0.1233
 1967SOL    HW211032  10.219   4.817   8.027 -0.1280  0.0320  0.3626
 1968SOL     OW11033   3.845   4.369   6.796 -0.7769 -0.0426  0.2351
 1968SOL    HW111034   3.765   4.420   6.783 -1.0091 -0.0574  1.4995
 1968SOL    HW211035   3.889   4.412   6.869 -1.4284 -2.1718  1.9372
 1969SOL     OW11036  11.038   5.058   4.770  0.2971 -0.0383 -0.2040
 1969SOL    HW111037  10.962   5.110   4.794 -0.2459 -1.1171  0.4198
 1969SOL    HW211038  11.006   4.968   4.765  1.0715 -0.2441 -1.9488
 1970SOL     OW11039   7.435   0.516   9.824 -0.5497  0.6965 -0.2443
 1970SOL    HW111040   7.385   0.504   9.905  0.5189  0.6505  0.4214
 1970SOL    HW211041   7.494   0.589   9.843  0.9718 -0.4704 -0.3505
 1971SOL     OW11042  10.091   4.766  10.666 -0.2863  0.0070  0.2178
 1971SOL    HW111043  10.186   4.775  10.673 -0.0567 -0.9058 -1.5808
 1971SOL    HW211044  10.057   4.819  10.739  1.5366  1.7869 -0.1641
 1972SOL     OW11045   2.984   0.014   4.646  0.0040 -0.2379  0.1109
 1972SOL    HW111046   3.056  -0.000   4.708 -0.2729  0.7116  0.6729
 1972SOL    HW211047   3.004   0.098   4.606 -1.2746  0.5046  0.9738
 1973SOL     OW11048   3.508   0.844   9.603  0.3321 -0.1871 -0.2208
 1973SOL    HW111049   3.596   0.876   9.622  0.0569 -0.0112  0.7952
 1973SOL    HW211050   3.502   0.761   9.651  0.9479 -1.6638 -2.6064
 1974SOL     OW11051   3.061   3.999   2.288 -0.5899 -0.5969  0.5229
 1974SOL    HW111052   3.006   3.950   2.227  0.9180 -1.2007 -0.4004
 1974SOL    HW211053   3.068   4.086   2.249 -0.4723 -0.6816  0.3516
 1975SOL     OW11054   2.112   7.693  11.189 -0.4407 -0.4935  0.1102
 1975SOL    HW111055   2.083   7.646  11.112 -0.9165  1.9116 -1.2083
 1975SOL    HW211056   2.204   7.667  11.200 -0.3100 -0.6872 -1.3887
 1976SOL     OW11057   9.634  10.257  10.608  1.0893  0.1295 -0.0741
 1976SOL    HW111058   9.675  10.184  10.654 -0.2767 -1.5158 -1.3966
 1976SOL    HW211059   9.607  10.317  10.677  1.3432 -1.0915  1.1070
 1977SOL     OW11060   8.284   0.664   3.710  0.5476 -0.4589 -0.6415
 1977SOL    HW111061   8.277   0.592   3.772  1.5098 -0.1654 -0.1866
 1977SOL    HW211062   8.201   0.712   3.719  0.8812 -0.1222  0.7837
 1978SOL     OW11063  10.329   3.203   2.298  0.2372  0.6886 -0.1440
 1978SOL    HW111064  10.322   3.118   2.343 -2.8864  1.7334  1.4562
 1978SOL    HW211065  10.342   3.266   2.369  2.3337  1.6216 -1.3123
 1979SOL     OW11066   4.023  10.794  11.116 -0.1095  0.4639  0.6164
 1979SOL    HW111067   4.105  10.797  11.066  0.2740 -2.1331  1.0372
 1979SOL    HW211068   3.954  10.803  11.050  0.4498 -0.2844 -0.0678
 1980SOL     OW11069   2.567   1.709   2.334  0.0966  0.5013 -0.1695
 1980SOL    HW111070   2.496   1.752   2.382 -0.3140 -0.9333  0.5350
 1980SOL    HW211071   2.564   1.618   2.364  1.3173  0.1119 -1.2137
 1981SOL     OW11072   0.846  10.300   6.295 -0.4664 -0.6774 -0.3435
 1981SOL    HW111073   0.936  10.266   6.298 -0.1463  0.2247  0.6361
 1981SOL    HW211074   0.848  10.378   6.351 -1.2822  0.7265 -2.2193
 1982SOL     OW11075  10.124   5.529   2.026 -0.0556  0.2687  0.6017
 1982SOL    HW111076  10.080   5.457   2.071  0.3554  0.4987  1.3841
 1982SOL    HW211077  10.192   5.558   2.087  2.0324 -0.9030 -1.0747
 1983SOL     OW11078  11.105   4.258   0.074 -0.0129  0.1167 -0.4066
 1983SOL    HW111079  11.022   4.221   0.044 -0.3645  0.7594 -0.2397
 1983SOL    HW211080  11.110   4.233   0.166  1.1700 -2.0434 -1.0230
 1984SOL     OW11081   0.446  11.115   9.966  0.2366 -0.2398 -0.3157
 1984SOL    HW111082   0.412  11.077  10.048  2.0085 -1.3610 -0.0697
 1984SOL    HW211083   0.422  11.207   9.971 -2.1654 -0.8512  0.1463
 1985SOL     OW11084   2.235   7.166   2.265  0.1230 -1.1642 -0.4883
 1985SOL    HW111085   2.324   7.138   2.286  0.5275  0.3760 -0.1093
 1985SOL    HW211086   2.205   7.212   2.344 -0.2838  0.0308 -1.3344
 1986SOL     OW11087   4.429  10.592   2.412  0.2175  0.0094  0.2094
 1986SOL    HW111088   4.449  10.650   2.485  0.8897 -0.9548  0.7957
 1986SOL    HW211089   4.514  10.564   2.380 -0.1020 -3.4468  2.1648
 1987SOL     OW11090   2.016   4.419   8.339  0.3865 -0.2376  0.1218
 1987SOL    HW111091   2.051   4.503   8.308  0.5611  0.0119  0.9913
 1987SOL    HW211092   1.935   4.407   8.289  0.0786  0.7076  0.3816
 1988SOL     OW11093   2.997   5.077   4.412 -0.2934  0.0633 -0.0304
 1988SOL    HW111094   2.903   5.098   4.416 -0.3120  0.0997 -0.6208
 1988SOL    HW211095   3.007   5.029   4.330 -0.1258 -1.6414  0.9735
 1989SOL     OW11096   7.066   9.818  10.499  0.1178 -0.0200 -0.4118
 1989SOL    HW111097   7.049   9.818  10.405  1.5327 -2.5856 -0.7270
 1989SOL    HW211098   7.062   9.910  10.525  1.4815  0.9209 -3.3095
 1990SOL     OW11099   5.696   1.579   2.192 -0.0692 -0.7187 -0.2217
 1990SOL    HW111100   5.652   1.561   2.110  0.8330 -1.3564 -0.5787
 1990SOL    HW211101   5.628   1.615   2.249 -0.1389  2.3505 -2.1261
 1991SOL     OW11102   1.981  10.712   0.288  0.1559  0.3908 -0.0549
 1991SOL    HW111103   1.964  10.652   0.360 -1.2313 -0.3396 -0.9657
 1991SOL    HW211104   1.928  10.679   0.216  2.2385  0.5790 -1.7103
 1992SOL     OW11105   5.031   8.202   2.815  0.1769 -0.0373  0.1761
 1992SOL    HW111106   5.011   8.287   2.775  1.8473 -0.0627 -0.7910
 1992SOL    HW211107   5.075   8.153   2.745 -1.0519 -1.8143  0.6401
 1993SOL     OW11108   7.629   6.405   0.416  0.8720 -0.3362  0.6392
 1993SOL    HW111109   7.624   6.437   0.506  0.5469  1.7395 -0.0894
 1993SOL    HW211110   7.709   6.443   0.381 -0.0414  0.5195 -0.5556
 1994SOL     OW11111   0.487   1.258   7.901  0.4607 -0.1746 -0.5832
 1994SOL    HW111112   0.394   1.260   7.876  0.3891 -1.5685 -0.4689
 1994SOL    HW211113   0.532   1.300   7.828 -0.5478  3.6076  0.8444
 1995SOL     OW11114   9.462   0.138   8.059 -0.6103 -1.1309 -0.5155
 1995SOL    HW111115   9.431   0.191   7.986  1.3986 -0.4674 -0.9186
 1995SOL    HW211116   9.468   0.050   8.024 -0.6077 -0.9931 -0.8609
 1996SOL     OW11117   1.060   0.522   4.389 -0.2348  0.3737 -0.0679
 1996SOL    HW111118   1.026   0.597   4.437  0.4094  1.1160 -0.7576
 1996SOL    HW211119   1.147   0.507   4.426 -1.0345 -1.1238  1.2563
 1997SOL     OW11120   9.756  10.306   7.049  0.1479  0.4271  0.4288
 1997SOL    HW111121   9.713  10.255   6.980 -1.9580  1.3318  1.0274
 1997SOL    HW211122   9.822  10.246   7.085 -1.1088 -1.2815 -0.0120
 1998SOL     OW11123   5.937   9.590   2.720 -0.3988 -0.0041 -0.0047
 1998SOL    HW111124   6.025   9.593   2.682 -0.1555 -0.8100  0.4880
 1998SOL    HW211125   5.879   9.594   2.644  0.0657  0.0870 -0.3628
 1999SOL     OW11126   7.901   6.161   9.654  0.0628  0.1977  0.7571
 1999SOL    HW111127   7.874   6.231   9.714  0.5636  1.1074 -0.0707
 1999SOL    HW211128   7.831   6.095   9.660 -1.0617  1.3644  0.5519
 2000SOL     OW11129   0.391   2.789   2.000 -0.0062  0.3635  0.1403
 2000SOL    HW111130   0.303   2.779   1.964  0.7522  0.0796 -1.6836
 2000SOL    HW211131   0.398   2.722   2.068 -1.3658  0.7269  0.6461
 2001SOL     OW11132  10.676   4.183   5.413 -0.1047  0.3435  0.0554
 2001SOL    HW111133  10.587   4.190   5.448 -0.9320  0.9248 -2.0960
 2001SOL    HW211134  10.698   4.090   5.425 -1.3648 -0.0096 -0.2518
 2002SOL     OW11135   0.391   9.049   6.147 -0.4959  0.8058 -0.2757
 2002SOL    HW111136   0.392   9.115   6.078 -1.2628  0.0447 -1.0248
 2002SOL    HW211137   0.467   9.069   6.201 -1.5030  3.1777  0.3219
 2003SOL     OW11138   4.710   1.913   8.903 -0.7062  0.1714  0.1940
 2003SOL    HW111139   4.648   1.977   8.867  0.2055 -0.1285 -1.9872
 2003SOL    HW211140   4.742   1.865   8.827  3.4435  1.3918  1.0162
 2004SOL     OW11141   8.551   0.080   9.885 -0.1361 -0.7265 -0.5165
 2004SOL    HW111142   8.615   0.137   9.843  0.0293  0.3096  1.0797
 2004SOL    HW211143   8.470   0.096   9.836  0.3785 -0.6188 -1.3420
 2005SOL     OW11144   3.422   7.557   9.760 -0.1231  0.2606 -0.3527
 2005SOL    HW111145   3.412   7.527   9.850  0.7955 -2.5357 -1.1260
 2005SOL    HW211146   3.515   7.579   9.753 -0.4983  1.9295 -0.2091
 2006SOL     OW11147   7.562   6.467   9.478  0.4200  0.1889 -0.3499
 2006SOL    HW111148   7.645   6.457   9.431  0.6091  0.9816 -0.1797
 2006SOL    HW211149   7.544   6.561   9.478  0.0428  0.1277  0.5164
 2007SOL     OW11150   6.832   6.129   6.889 -0.6594  0.5274  0.3309
 2007SOL    HW111151   6.874   6.150   6.973 -1.0504 -0.0430  0.6711
 2007SOL    HW211152   6.805   6.214   6.854  3.4648  1.2972 -1.3591
 2008SOL     OW11153   1.963   5.549   5.563 -0.2515 -0.0282  0.2663
 2008SOL    HW111154   1.876   5.561   5.603 -1.0709  0.4653 -1.6149
 2008SOL    HW211155   1.947   5.555   5.469  1.4832 -2.1633 -0.2044
 2009SOL     OW11156   7.573   5.169   6.555  1.0073  0.1155  0.4423
 2009SOL    HW111157   7.539   5.117   6.482  1.5005 -1.0605  1.0369
 2009SOL    HW211158   7.496   5.215   6.590  0.4697 -0.6475  0.2681
 2010SOL     OW11159   2.565   3.345   7.440 -0.0445  0.0599 -0.4802
 2010SOL    HW111160   2.648   3.314   7.404 -0.4456  1.1913 -2.4212
 2010SOL    HW211161   2.526   3.397   7.370 -1.1733  1.7485  1.3414
 2011SOL     OW11162   3.373   3.813   0.408 -0.3373  0.4261  0.0318
 2011SOL    HW111163   3.445   3.773   0.359  0.1554  1.6280 -0.2495
 2011SOL    HW211164   3.415   3.850   0.486 -0.8606 -0.0143  0.5279
 2012SOL     OW11165  10.337  10.657   2.075 -0.3661  0.2612 -0.4458
 2012SOL    HW111166  10.266  10.607   2.034  0.8581  0.0906 -2.4202
 2012SOL    HW211167  10.364  10.720   2.009 -0.0948  1.7586  1.0621
 2013SOL     OW11168   1.440   9.162   8.675 -0.4035 -1.0249  0.3119
 2013SOL    HW111169   1.440   9.089   8.737  1.6339 -1.1555  0.2115
 2013SOL    HW211170   1.348   9.188   8.667 -0.6951 -1.0305  3.3501
 2014SOL     OW11171   9.662   7.832   4.597 -0.6185 -0.3219 -0.2031
 2014SOL    HW111172   9.713   7.908   4.624 -1.7212  0.1359  0.6533
 2014SOL    HW211173   9.712   7.757   4.627  1.1418  0.0053 -2.2232
 2015SOL     OW11174   3.401   1.931   7.224  0.0642 -0.6959  0.2466
 2015SOL    HW111175   3.461   2.003   7.204  0.6767 -1.1058  0.5886
 2015SOL    HW211176   3.347   1.963   7.295  1.1895 -1.0293  1.2652
 2016SOL     OW11177   4.798   7.863   2.682 -0.0782 -0.3877  0.5354
 2016SOL    HW111178   4.769   7.878   2.592 -0.5520 -1.4212  0.5051
 2016SOL    HW211179   4.868   7.798   2.674  0.1911 -0.1365  0.8629
 2017SOL     OW11180   9.521   5.608  11.047 -0.2981 -0.3469  0.5624
 2017SOL    HW111181   9.591   5.661  11.085  1.5082 -1.8756 -0.5401
 2017SOL    HW211182   9.495   5.655  10.967  0.8927 -0.8094 -0.1035
 2018SOL     OW11183   4.198   2.140   8.272 -0.2685  0.3777 -0.4929
 2018SOL    HW111184   4.179   2.183   8.355  0.6508  0.1622 -0.1737
 2018SOL    HW211185   4.197   2.211   8.207 -1.2342  0.5093 -0.3466
 2019SOL     OW11186  11.323   1.640  10.156 -0.0159  0.7742 -0.2174
 2019SOL    HW111187  11.234   1.640  10.119  0.3850  0.4871 -1.2037
 2019SOL    HW211188  11.374   1.691  10.093  0.9576 -0.8556 -0.7743
 2020SOL     OW11189   8.277   2.414   1.553 -0.3260  0.0077 -0.1095
 2020SOL    HW111190   8.250   2.448   1.468  3.2925  0.7169 -1.0364
 2020SOL    HW211191   8.301   2.323   1.537  1.3187  0.4292 -0.0592
 2021SOL     OW11192   7.884   4.035   9.348  0.1470  0.0872 -0.0220
 2021SOL    HW111193   7.810   3.975   9.352  0.2307 -0.0714 -0.8296
 2021SOL    HW211194   7.890   4.072   9.437  0.2632 -1.2957  0.5660
 2022SOL     OW11195   8.671   0.707  10.093 -0.1683  0.2287 -0.0774
 2022SOL    HW111196   8.653   0.748  10.178  1.6568  0.7503  0.0923
 2022SOL    HW211197   8.762   0.677  10.100 -0.3819 -0.7786 -1.4334
 2023SOL     OW11198   6.529   0.853   0.500  0.0636  0.4144 -0.3253
 2023SOL    HW111199   6.440   0.889   0.493 -0.7936 -1.7033 -0.5490
 2023SOL    HW211200   6.539   0.833   0.593 -1.0830 -2.7269 -0.8253
 2024SOL     OW11201   2.447   6.090   3.050 -0.0242  0.0611 -0.1741
 2024SOL    HW111202   2.506   6.124   2.982  0.5867 -0.5478  0.0449
 2024SOL    HW211203   2.393   6.025   3.005 -0.2514  0.3278 -0.2851
 2025SOL     OW11204   0.990  10.904   8.612 -0.1587 -0.0258 -0.2699
 2025SOL    HW111205   0.929  10.972   8.582 -0.8391 -0.0630  0.9947
 2025SOL    HW211206   0.944  10.822   8.596  0.9617 -0.2493 -2.4809
 2026SOL     OW11207   9.176   3.599   6.172  0.3422 -0.3044  0.1936
 2026SOL    HW111208   9.141   3.665   6.112  0.9594 -0.7430 -0.6573
 2026SOL    HW211209   9.110   3.530   6.173  0.6540 -0.6230 -0.5509
 2027SOL     OW11210   9.973   6.753   9.373 -0.6529 -0.4118  0.5400
 2027SOL    HW111211  10.011   6.835   9.343 -1.2447 -0.5506 -0.6041
 2027SOL    HW211212   9.901   6.736   9.313 -1.3040 -1.1477  1.5043
 2028SOL     OW11213   1.281   0.269   0.470  0.4271 -0.6393  0.2365
 2028SOL    HW111214   1.226   0.279   0.392  1.0043 -0.1163 -0.1043
 2028SOL    HW211215   1.362   0.230   0.438  1.4552  1.4165  0.2438
 2029SOL     OW11216   3.167   1.738   1.535 -0.0846 -0.2974 -0.1669
 2029SOL    HW111217   3.129   1.651   1.544  0.2513 -0.2769  1.7646
 2029SOL    HW211218   3.114   1.794   1.592  0.8945  0.3540  0.1225
 2030SOL     OW11219   9.614   7.796  11.315 -0.0629 -0.3514 -0.4828
 2030SOL    HW111220   9.693   7.766  11.270 -0.1334  0.0627 -0.8863
 2030SOL    HW211221   9.563   7.840  11.247 -2.5540 -4.1597 -1.2301
 2031SOL     OW11222   2.225   8.004   5.698 -0.5664  0.8969 -0.3103
 2031SOL    HW111223   2.157   8.068   5.723 -0.3032  0.5111  1.5141
 2031SOL    HW211224   2.274   7.990   5.779  1.4746  0.8908 -1.5240
 2032SOL     OW11225   6.357   0.195   3.544 -0.2871  0.0158 -0.6619
 2032SOL    HW111226   6.386   0.273   3.592  1.6953 -0.0588 -1.6680
 2032SOL    HW211227   6.420   0.127   3.569 -1.0270 -0.8185 -1.0518
 2033SOL     OW11228  10.339   8.670   6.074  0.0020 -0.5592  0.6635
 2033SOL    HW111229  10.357   8.579   6.053 -0.2616 -0.8323  1.6001
 2033SOL    HW211230  10.266   8.667   6.136 -0.3788  0.3160  0.2666
 2034SOL     OW11231   1.747   5.240   9.888 -0.6056 -0.4148 -0.0227
 2034SOL    HW111232   1.666   5.291   9.890 -0.1102  0.3576  1.6602
 2034SOL    HW211233   1.813   5.301   9.854 -0.2376 -0.2472  0.9617
 2035SOL     OW11234   8.789   0.607   6.563  0.6967  0.2198 -0.2335
 2035SOL    HW111235   8.823   0.666   6.496 -0.8610  2.6355  1.0128
 2035SOL    HW211236   8.732   0.547   6.516 -0.0767  1.6406 -1.1728
 2036SOL     OW11237   7.325   6.937   1.851  0.1308 -0.2133  0.0442
 2036SOL    HW111238   7.265   6.897   1.914  1.0866 -2.4137 -0.3951
 2036SOL    HW211239   7.290   6.914   1.766  0.9911 -0.5718 -0.2153
 2037SOL     OW11240   4.394   7.367   5.180  0.1923 -0.0070 -0.2276
 2037SOL    HW111241   4.339   7.302   5.136 -0.8197  0.9475 -0.4122
 2037SOL    HW211242   4.344   7.390   5.259 -0.2451  1.6916 -0.9606
 2038SOL     OW11243   2.752  11.086  10.753 -0.0205 -0.1860 -0.2092
 2038SOL    HW111244   2.845  11.111  10.746 -0.2447  0.3297 -1.5085
 2038SOL    HW211245   2.739  11.022  10.683 -0.2817 -1.4303  0.9590
 2039SOL     OW11246   1.120   7.040   4.069 -0.2659  0.7602  0.1434
 2039SOL    HW111247   1.182   6.980   4.026 -0.1274 -0.2407  1.6861
 2039SOL    HW211248   1.044   7.041   4.011  1.0006  1.6511 -1.5482
 2040SOL     OW11249   3.502   3.889  10.915  0.3191 -0.0812  0.0551
 2040SOL    HW111250   3.554   3.968  10.931 -0.1351  0.0590  0.8327
 2040SOL    HW211251   3.555   3.838  10.853  0.6591  0.7818 -0.3717
 2041SOL     OW11252   2.898   1.256   9.324  0.5670  0.4817 -0.0590
 2041SOL    HW111253   2.836   1.306   9.376  1.4058  1.1420  0.3256
 2041SOL    HW211254   2.896   1.298   9.238 -0.1791 -0.0649 -0.3139
 2042SOL     OW11255   1.635   6.979   6.009  0.1900  0.0113  0.1432
 2042SOL    HW111256   1.715   7.002   6.056 -0.4944  0.2721  1.2034
 2042SOL    HW211257   1.592   6.914   6.065  0.2972 -1.1108 -1.0500
 2043SOL     OW11258   3.779   2.246   9.402  0.1592 -0.3152  0.3225
 2043SOL    HW111259   3.855   2.303   9.408 -0.2229  0.5397 -2.2821
 2043SOL    HW211260   3.736   2.254   9.488  1.3162  1.5824  0.7560
 2044SOL     OW11261  11.095   6.190   8.450  0.4400 -0.1329  0.2901
 2044SOL    HW111262  11.101   6.106   8.495 -1.4422 -2.5328 -3.6735
 2044SOL    HW211263  11.030   6.240   8.499  0.2269 -1.6947  1.6073
 2045SOL     OW11264   2.855   3.559   7.741  0.5644  0.7710  0.1262
 2045SOL    HW111265   2.760   3.551   7.743  0.7612 -1.5178  1.5142
 2045SOL    HW211266   2.875   3.591   7.653 -1.5255  1.9236  0.0547
 2046SOL     OW11267   0.637   6.370   9.232 -0.2031  0.5006  0.2377
 2046SOL    HW111268   0.703   6.400   9.169 -0.9287  2.8172  0.5479
 2046SOL    HW211269   0.553   6.384   9.189 -0.6601  1.2076  1.3169
 2047SOL     OW11270   6.962   2.469   5.670 -0.4493 -0.2720 -0.5416
 2047SOL    HW111271   7.000   2.554   5.690 -1.6743  0.1588 -0.0159
 2047SOL    HW211272   6.980   2.416   5.748 -0.7467 -0.1259 -0.3716
 2048SOL     OW11273   6.155   0.282   5.092 -0.2670 -0.1038  0.2728
 2048SOL    HW111274   6.072   0.243   5.062  1.8507 -1.4334 -4.3600
 2048SOL    HW211275   6.211   0.207   5.110  1.4993  0.7053 -1.5903
 2049SOL     OW11276   4.144   4.257   2.001  1.0580  0.0218  0.1505
 2049SOL    HW111277   4.089   4.329   2.030  0.1052 -0.6158 -0.0391
 2049SOL    HW211278   4.138   4.193   2.072 -1.3896 -1.6061 -1.4195
 2050SOL     OW11279   8.645   6.056   3.358 -0.9663 -0.1337  0.4053
 2050SOL    HW111280   8.733   6.085   3.333 -0.9312 -0.5650  0.0120
 2050SOL    HW211281   8.649   5.961   3.352 -1.9612 -0.0930 -1.3955
 2051SOL     OW11282   0.660   9.160  11.282  0.2683  0.2450 -0.3152
 2051SOL    HW111283   0.736   9.125  11.236  0.6924  1.3747 -0.4853
 2051SOL    HW211284   0.682   9.252  11.298 -0.8869  0.4713 -0.0045
 2052SOL     OW11285   9.672   5.981   5.627 -0.4401 -0.2513  0.2034
 2052SOL    HW111286   9.653   5.941   5.542  0.4453 -0.7010  0.2160
 2052SOL    HW211287   9.621   5.930   5.690  1.4004 -2.0045  0.3445
 2053SOL     OW11288   7.529   9.477   6.606  0.3266 -0.1795 -1.0193
 2053SOL    HW111289   7.528   9.557   6.660  0.6664 -0.3717 -0.7270
 2053SOL    HW211290   7.436   9.456   6.594  0.2307  0.2747 -1.1237
 2054SOL     OW11291   9.835   3.916  10.448  0.0203  0.2974 -0.4844
 2054SOL    HW111292   9.834   3.833  10.495 -1.6136  0.4587 -0.2107
 2054SOL    HW211293   9.801   3.895  10.361  0.9614  0.4213 -0.8988
 2055SOL     OW11294   4.162   7.579   2.923  0.6167 -0.3091  0.0729
 2055SOL    HW111295   4.199   7.667   2.911 -0.4771  0.1236 -0.2287
 2055SOL    HW211296   4.077   7.595   2.964  0.7096 -1.2737  0.6419
 2056SOL     OW11297   5.393   3.773   3.839  0.5312  0.2050  0.0065
 2056SOL    HW111298   5.359   3.765   3.750  1.6660 -1.4702 -0.3076
 2056SOL    HW211299   5.319   3.752   3.895 -0.0910  0.8984 -0.5433
 2057SOL     OW11300   8.944   1.788   0.939 -0.4272  0.0787 -0.5386
 2057SOL    HW111301   8.895   1.849   0.993 -0.0012 -0.6810  0.7364
 2057SOL    HW211302   8.989   1.731   1.002 -1.3264 -1.9507 -1.6794
 2058SOL     OW11303   9.281   4.848   5.117 -0.1305 -0.0438  0.7258
 2058SOL    HW111304   9.235   4.917   5.164  1.7872 -0.2526  2.9578
 2058SOL    HW211305   9.270   4.769   5.171  0.5121 -0.7248 -0.1101
 2059SOL     OW11306   1.219   0.861   8.847  0.5231  0.0736  0.2599
 2059SOL    HW111307   1.146   0.862   8.785 -0.4460  1.4244  1.4044
 2059SOL    HW211308   1.215   0.774   8.887 -0.0283 -0.1152 -0.1936
 2060SOL     OW11309   2.167   7.351  10.818 -0.2989  0.2437  0.9420
 2060SOL    HW111310   2.208   7.284  10.873 -2.1000 -0.0930  1.9063
 2060SOL    HW211311   2.177   7.319  10.729  1.2221  0.0132  1.1715
 2061SOL     OW11312   2.668   4.650   9.178 -0.1688 -0.4710  0.1266
 2061SOL    HW111313   2.603   4.718   9.158  1.0206  0.1446 -1.7384
 2061SOL    HW211314   2.623   4.568   9.162 -0.1497 -0.0359 -2.4457
 2062SOL     OW11315   5.800   0.040   7.580  0.8673 -0.5399 -0.0142
 2062SOL    HW111316   5.837  -0.049   7.579  1.5351 -0.2947  1.2588
 2062SOL    HW211317   5.760   0.051   7.494  1.7659 -1.6718 -0.5861
 2063SOL     OW11318   9.779   2.196   3.430  0.1412 -0.0480 -0.3129
 2063SOL    HW111319   9.837   2.122   3.410 -0.7403 -1.0185  0.6311
 2063SOL    HW211320   9.711   2.158   3.486  0.2949  1.7262  1.1121
 2064SOL     OW11321   0.041   8.422   2.002  0.3761  0.1383 -0.1880
 2064SOL    HW111322   0.081   8.335   1.998  0.3099  0.1057 -0.1316
 2064SOL    HW211323   0.048   8.455   1.912  3.6122  1.5123  0.5082
 2065SOL     OW11324   9.399   2.064   5.345 -0.1252 -0.1337 -0.1126
 2065SOL    HW111325   9.468   2.042   5.282 -2.6815 -2.5133 -2.2144
 2065SOL    HW211326   9.429   2.025   5.428  1.3360 -0.5752 -0.8340
 2066SOL     OW11327   9.479   0.572   8.869 -0.0880 -0.1478  0.5697
 2066SOL    HW111328   9.532   0.640   8.910  0.3289  0.3354 -0.7423
 2066SOL    HW211329   9.439   0.525   8.942 -1.2734  2.1897  1.4616
 2067SOL     OW11330   9.954   4.540   1.230  0.6049  0.4019 -0.2098
 2067SOL    HW111331  10.011   4.498   1.295  0.3603  0.4154  0.0147
 2067SOL    HW211332   9.977   4.499   1.147  1.9868  1.4391 -0.3585
 2068SOL     OW11333   1.728   7.172   0.285 -0.4141 -0.2457  0.0418
 2068SOL    HW111334   1.699   7.132   0.203 -1.2152  2.2028 -0.9401
 2068SOL    HW211335   1.648   7.200   0.328  0.1546  3.4385 -1.0379
 2069SOL     OW11336   6.824   1.481   8.601 -0.1768  0.2899  0.0536
 2069SOL    HW111337   6.762   1.452   8.667  1.4540 -1.3490  0.9040
 2069SOL    HW211338   6.774   1.480   8.519 -1.8378  1.0634  1.0504
 2070SOL     OW11339   8.886  11.070   7.602  0.2975  0.3115 -0.1410
 2070SOL    HW111340   8.950  11.052   7.671  1.5224  2.1746 -0.7622
 2070SOL    HW211341   8.804  11.031   7.635  1.2868 -0.4423  1.5139
 2071SOL     OW11342   2.334   5.085   4.176  0.3676 -0.3255 -0.4039
 2071SOL    HW111343   2.336   5.100   4.270 -0.0932 -0.4914 -0.3660
 2071SOL    HW211344   2.254   5.129   4.146  0.3563 -0.5223 -0.6689
 2072SOL     OW11345   7.449  11.284   9.735 -0.0109 -0.9450 -0.5158
 2072SOL    HW111346   7.366  11.314   9.699 -0.2410  2.6301  2.7031
 2072SOL    HW211347   7.438  11.189   9.745 -2.7194 -0.8847 -2.4701
 2073SOL     OW11348   6.281  10.935   9.662 -0.3484  0.5347  0.3194
 2073SOL    HW111349   6.367  10.893   9.658 -0.5457 -0.0316  1.8751
 2073SOL    HW211350   6.234  10.900   9.586 -0.7474 -2.6378  1.9592
 2074SOL     OW11351   0.566  10.282   0.004  0.5898  0.4588  0.1024
 2074SOL    HW111352   0.514  10.208   0.037  1.2675  0.1372  0.4679
 2074SOL    HW211353   0.560  10.348   0.073 -2.0456  1.7327 -1.2907
 2075SOL     OW11354   8.415   8.819   4.351  0.5775 -0.0713 -0.3403
 2075SOL    HW111355   8.383   8.763   4.422  1.3312 -0.3956 -0.2534
 2075SOL    HW211356   8.410   8.764   4.272  2.2686 -0.6171 -0.0919
 2076SOL     OW11357   2.631   3.454   0.196  0.1937  0.1294  0.0045
 2076SOL    HW111358   2.667   3.420   0.115 -0.3389  0.5343 -0.4037
 2076SOL    HW211359   2.554   3.399   0.213  1.0442 -0.8056  0.9317
 2077SOL     OW11360   7.897   2.555   3.501  0.0722 -0.1870 -0.3622
 2077SOL    HW111361   7.811   2.569   3.541 -1.1905  2.6997 -3.7995
 2077SOL    HW211362   7.960   2.577   3.570 -1.9976  1.3816  1.0701
 2078SOL     OW11363  10.248  11.320   2.082  0.1315  0.3333 -0.0974
 2078SOL    HW111364  10.194  11.363   2.015 -1.4813  0.6074  1.3659
 2078SOL    HW211365  10.199  11.331   2.163  1.1100 -1.7807  0.7993
 2079SOL     OW11366   2.704  10.440   5.604  0.1642  0.3613  0.7172
 2079SOL    HW111367   2.698  10.358   5.654 -0.2162  0.4136  0.7556
 2079SOL    HW211368   2.648  10.501   5.651  0.4943  0.6657  0.7221
 2080SOL     OW11369   6.420   9.944   5.389 -0.3677  0.6928  0.3162
 2080SOL    HW111370   6.441  10.003   5.461  0.0321  1.8487 -0.7252
 2080SOL    HW211371   6.489   9.959   5.324 -1.2734  0.4133 -0.7383
 2081SOL     OW11372   8.505   4.999  10.355  1.1244 -0.7673 -0.2244
 2081SOL    HW111373   8.509   4.991  10.260 -0.5457  1.1959 -0.4873
 2081SOL    HW211374   8.570   4.936  10.387  3.1128 -0.0429 -2.7109
 2082SOL     OW11375   3.420   2.882   6.518 -0.2936 -0.1801 -0.0960
 2082SOL    HW111376   3.360   2.900   6.590 -0.4713  0.9827 -0.5190
 2082SOL    HW211377   3.363   2.882   6.440  0.2395  0.8952 -0.4959
 2083SOL     OW11378   5.604   2.114  10.094  0.3450  0.4824 -0.2159
 2083SOL    HW111379   5.559   2.152  10.169 -0.8565 -0.3073 -0.5306
 2083SOL    HW211380   5.583   2.171  10.021  0.4409  0.5170 -0.2164
 2084SOL     OW11381   8.859   1.903   7.324 -0.4395  0.8556 -0.4635
 2084SOL    HW111382   8.816   1.980   7.286 -0.9653  0.3488 -0.9065
 2084SOL    HW211383   8.850   1.835   7.257 -1.6489 -0.1436  0.6955
 2085SOL     OW11384   7.151   7.237   5.430  0.2956 -0.5765  0.5496
 2085SOL    HW111385   7.124   7.214   5.342  2.0758  1.2478 -0.5230
 2085SOL    HW211386   7.096   7.312   5.453  1.8656  0.8523 -0.2269
 2086SOL     OW11387   2.171   2.128   7.725 -0.2995 -0.0867  0.0563
 2086SOL    HW111388   2.125   2.202   7.686  1.7302  0.6240 -1.0336
 2086SOL    HW211389   2.116   2.052   7.705 -0.7724  0.6842 -1.6362
 2087SOL     OW11390   4.917   3.241   9.349 -0.2445  0.3419 -0.0095
 2087SOL    HW111391   4.892   3.254   9.257 -0.0741  0.4932 -0.0331
 2087SOL    HW211392   4.879   3.316   9.395 -2.3799 -0.9538  0.4224
 2088SOL     OW11393   2.648   8.817  10.835 -0.0363  0.3381 -0.1803
 2088SOL    HW111394   2.576   8.837  10.774  1.0324  1.4880 -1.0830
 2088SOL    HW211395   2.609   8.827  10.922 -0.7769  1.7264 -0.6514
 2089SOL     OW11396   1.024   7.723   2.066 -0.4043  0.4077 -0.1065
 2089SOL    HW111397   1.114   7.732   2.035 -0.1342 -0.5479  0.3728
 2089SOL    HW211398   1.015   7.792   2.132 -0.6657  1.7874 -1.5414
 2090SOL     OW11399  10.046   7.778   3.902 -0.0247  0.1772 -0.1483
 2090SOL    HW111400  10.057   7.706   3.839  1.0381 -0.0568  0.2884
 2090SOL    HW211401   9.952   7.785   3.914 -0.2058 -0.2361 -1.2396
 2091SOL     OW11402   3.947   0.599   5.738 -0.0244  0.4299 -0.0822
 2091SOL    HW111403   3.876   0.617   5.800 -1.0487 -0.5972 -0.9098
 2091SOL    HW211404   3.904   0.549   5.668  2.1861 -3.2868  1.0839
 2092SOL     OW11405   9.514  11.279   5.795 -0.2956 -0.0422  0.1565
 2092SOL    HW111406   9.425  11.313   5.793 -0.1231  0.3726 -1.4255
 2092SOL    HW211407   9.556  11.317   5.718  1.1239 -0.5765  0.6443
 2093SOL     OW11408   3.060   9.518   8.931 -0.3696 -0.2247 -0.5871
 2093SOL    HW111409   3.093   9.584   8.870 -0.3826  0.9563  0.6346
 2093SOL    HW211410   3.137   9.473   8.963 -0.3132 -0.4248 -1.0022
 2094SOL     OW11411  10.042   2.640   6.369 -0.2197 -0.2105 -0.2319
 2094SOL    HW111412  10.015   2.731   6.359 -0.8895 -0.4476 -0.6673
 2094SOL    HW211413  10.114   2.629   6.307  0.0329  0.0936  0.0089
 2095SOL     OW11414   3.433   8.458   1.803  0.0681 -0.1503 -0.3036
 2095SOL    HW111415   3.402   8.456   1.894 -0.2183 -0.7986 -0.4192
 2095SOL    HW211416   3.507   8.519   1.805  1.2050 -1.5244  0.7258
 2096SOL     OW11417   0.078   1.079   1.561  0.4939  0.5902 -0.4526
 2096SOL    HW111418  -0.016   1.095   1.558  0.4440  0.1592 -1.2190
 2096SOL    HW211419   0.117   1.156   1.519  0.4653  0.6056 -0.4504
 2097SOL     OW11420   7.998   8.366   4.528  0.5513 -0.4980  0.3085
 2097SOL    HW111421   8.049   8.341   4.451 -1.6034  0.6542 -1.5432
 2097SOL    HW211422   8.025   8.456   4.547  0.8264 -0.6592  0.6676
 2098SOL     OW11423   7.900   1.578   1.418 -0.1587 -0.4164  0.5461
 2098SOL    HW111424   7.891   1.671   1.400 -2.2659 -0.6201  0.4822
 2098SOL    HW211425   7.855   1.564   1.501  3.0632 -0.8136  2.3126
 2099SOL     OW11426   8.765   8.759   2.224  0.2737  1.0008 -0.0860
 2099SOL    HW111427   8.718   8.759   2.140 -0.6405  1.4422  0.4131
 2099SOL    HW211428   8.848   8.716   2.205 -0.4591 -0.0698 -0.9220
 2100SOL     OW11429   1.500   3.674   5.982  0.4488 -0.8918 -0.4744
 2100SOL    HW111430   1.550   3.599   5.950 -0.6204 -1.3866 -1.0025
 2100SOL    HW211431   1.486   3.654   6.075  0.1205 -1.3718 -0.6250
 2101SOL     OW11432   3.523   7.805   8.496 -0.6283  0.3730  0.0806
 2101SOL    HW111433   3.585   7.775   8.563 -1.8680  1.4474  1.7496
 2101SOL    HW211434   3.439   7.771   8.524 -0.9899 -0.1856 -1.6179
 2102SOL     OW11435   8.638   0.965   0.661  0.0123  0.2587 -0.1281
 2102SOL    HW111436   8.691   0.957   0.582  2.0478  2.1198  0.9962
 2102SOL    HW211437   8.608   1.056   0.661 -1.0073 -0.0676  0.6112
 2103SOL     OW11438   8.204  10.558   3.197 -0.6582 -0.4341  0.0576
 2103SOL    HW111439   8.155  10.489   3.152  1.3983  0.2010 -3.2544
 2103SOL    HW211440   8.268  10.511   3.250 -1.4142 -1.1356  0.3575
 2104SOL     OW11441   7.416   1.826   7.965  0.1013  0.2913  0.6685
 2104SOL    HW111442   7.361   1.851   7.891 -0.3386  1.8736  1.5089
 2104SOL    HW211443   7.495   1.789   7.925  0.8037  3.0768 -0.6308
 2105SOL     OW11444   6.996   6.888   9.711 -0.5345 -0.0500 -0.6685
 2105SOL    HW111445   7.034   6.808   9.748  0.4582  0.0351 -1.4850
 2105SOL    HW211446   6.903   6.882   9.734 -0.7118 -2.0437 -1.7666
 2106SOL     OW11447   3.261   6.615   4.888  0.3887 -0.3562 -0.7753
 2106SOL    HW111448   3.226   6.551   4.826 -1.3526  0.1111 -0.3072
 2106SOL    HW211449   3.261   6.569   4.972 -0.6758  0.1713 -0.4752
 2107SOL     OW11450   5.148   9.822   3.279  0.1689 -0.5493 -0.6129
 2107SOL    HW111451   5.174   9.913   3.264  2.3320 -0.5564  2.6571
 2107SOL    HW211452   5.173   9.777   3.198  0.7089  1.4243 -1.5799
 2108SOL     OW11453   4.036   3.904   1.806  0.9197 -0.1297 -0.0698
 2108SOL    HW111454   4.111   3.935   1.856 -1.1873  0.6734  2.6882
 2108SOL    HW211455   4.017   3.817   1.842 -1.2552  0.8821  1.3171
 2109SOL     OW11456   7.083   4.363   8.632  0.3153  0.0716  0.2340
 2109SOL    HW111457   7.115   4.433   8.575 -0.4467 -0.5716 -1.0152
 2109SOL    HW211458   7.090   4.284   8.579 -0.1093 -0.5832  1.1497
 2110SOL     OW11459   8.370   6.274   2.461 -0.4158 -0.0734  0.2869
 2110SOL    HW111460   8.395   6.366   2.468 -2.3390  0.5008 -0.0162
 2110SOL    HW211461   8.453   6.226   2.465  0.5652  1.6294  1.0107
 2111SOL     OW11462   6.559   9.039   1.503 -0.1053 -0.7502  0.5096
 2111SOL    HW111463   6.582   9.023   1.411  1.1646 -0.4012  0.7677
 2111SOL    HW211464   6.557   9.134   1.510 -0.8183 -0.7769  0.6979
 2112SOL     OW11465   7.239   1.920   6.942 -0.1093  0.2120  0.9406
 2112SOL    HW111466   7.263   1.880   7.025  2.3275  0.5962  0.4646
 2112SOL    HW211467   7.196   2.002   6.966  0.4663  0.2591  1.8277
 2113SOL     OW11468   8.295   4.334  10.112  0.2384  0.1610 -0.0925
 2113SOL    HW111469   8.208   4.337  10.073  0.8521  0.9976 -1.4156
 2113SOL    HW211470   8.346   4.278  10.055  0.5487 -0.4228  0.7482
 2114SOL     OW11471   5.740   2.218   6.529 -0.0407  0.2769  0.3903
 2114SOL    HW111472   5.777   2.235   6.442 -1.0117 -1.3101 -0.3733
 2114SOL    HW211473   5.657   2.172   6.511  0.1442 -0.8100  2.1627
 2115SOL     OW11474   9.857   3.786   2.594 -0.2601 -0.1431 -0.1451
 2115SOL    HW111475   9.805   3.840   2.654  0.1820  0.1445 -0.0183
 2115SOL    HW211476   9.869   3.841   2.517  0.2139 -0.0386 -0.0040
 2116SOL     OW11477   9.025   0.287   0.206  0.5559 -0.0375 -0.2146
 2116SOL    HW111478   9.046   0.209   0.258  0.7721 -0.1092 -0.4088
 2116SOL    HW211479   8.930   0.283   0.194  0.5818 -0.3358 -0.3266
 2117SOL     OW11480   5.921   3.391   8.248 -0.1575  0.4849  0.4815
 2117SOL    HW111481   5.931   3.392   8.152  1.4435 -1.3983  0.5905
 2117SOL    HW211482   6.002   3.431   8.280 -1.7732  3.4585  1.0467
 2118SOL     OW11483   9.197   8.990   1.682  0.2646  0.1384  0.2828
 2118SOL    HW111484   9.131   9.052   1.652 -2.5032 -1.6487  2.4752
 2118SOL    HW211485   9.181   8.911   1.631  0.4651 -0.4054  1.0506
 2119SOL     OW11486   6.787  10.127   9.165 -0.2162  0.4602 -0.1346
 2119SOL    HW111487   6.808  10.067   9.237 -0.4532 -0.3063 -0.6899
 2119SOL    HW211488   6.692  10.129   9.162 -0.2055  0.9152 -0.0738
 2120SOL     OW11489   5.396   5.562  10.035 -0.2915  0.0515 -0.0073
 2120SOL    HW111490   5.465   5.577   9.970 -0.2314 -2.1337 -0.4627
 2120SOL    HW211491   5.437   5.583  10.119 -0.0524  1.8728 -0.5538
 2121SOL     OW11492   7.921   5.445   1.859  0.3863 -0.4583  0.1129
 2121SOL    HW111493   7.923   5.425   1.766  0.1487  1.2497 -0.2718
 2121SOL    HW211494   8.013   5.450   1.885  0.4562 -0.7252 -0.0858
 2122SOL     OW11495   9.176   7.352   9.695 -0.4097  0.2472 -0.2925
 2122SOL    HW111496   9.228   7.367   9.773 -0.4953 -0.1999 -0.1473
 2122SOL    HW211497   9.230   7.385   9.623 -0.2221  0.4153 -0.0737
 2123SOL     OW11498   8.984  10.004   6.300 -0.2316 -0.4044  0.0521
 2123SOL    HW111499   8.945   9.979   6.216 -2.9904  0.1843  1.1081
 2123SOL    HW211500   8.976   9.925   6.353 -1.6827  0.2547  0.8447
 2124SOL     OW11501   8.595   4.351   8.143  0.2685  0.3612  0.6685
 2124SOL    HW111502   8.642   4.271   8.122 -0.5283  0.2540 -0.7946
 2124SOL    HW211503   8.635   4.383   8.224  2.0589 -0.3350  0.0735
 2125SOL     OW11504   7.990   8.022   3.746  0.8217 -0.7794 -0.2733
 2125SOL    HW111505   7.908   8.052   3.706  0.5401  0.9112  1.4962
 2125SOL    HW211506   8.058   8.077   3.706  0.7065 -0.0622  0.4969
 2126SOL     OW11507   5.394   4.412   7.510  0.0528  0.2237 -0.0848
 2126SOL    HW111508   5.329   4.394   7.578 -0.0253  1.6258  0.2282
 2126SOL    HW211509   5.478   4.390   7.550 -0.2216 -1.7377 -0.5393
 2127SOL     OW11510  11.004   5.371   8.943  0.7065 -0.7269  0.8192
 2127SOL    HW111511  11.006   5.406   8.854  2.3150  0.1580  1.1775
 2127SOL    HW211512  10.947   5.294   8.937 -0.1611  0.0037 -0.7061
 2128SOL     OW11513   7.679   3.653   7.842  0.2328  0.8728  0.5555
 2128SOL    HW111514   7.641   3.610   7.919  0.2330  0.7463  0.4855
 2128SOL    HW211515   7.698   3.742   7.871  1.0971  0.5564  0.9812
 2129SOL     OW11516   6.558  10.565   0.409 -0.3497  0.3709 -0.1599
 2129SOL    HW111517   6.633  10.531   0.458 -0.8440  1.6162  1.4864
 2129SOL    HW211518   6.507  10.487   0.388  1.1743 -0.4542 -0.9661
 2130SOL     OW11519   9.203   5.598   6.581  0.1553 -0.2844  0.3480
 2130SOL    HW111520   9.275   5.638   6.531  0.0088  2.5983  2.2772
 2130SOL    HW211521   9.238   5.514   6.610  1.6475 -0.2572 -1.2735
 2131SOL     OW11522   7.881   2.809   9.215 -0.3295 -0.1793 -0.0344
 2131SOL    HW111523   7.814   2.744   9.232  1.0333 -1.4476  0.5636
 2131SOL    HW211524   7.920   2.827   9.301  0.0332  0.6201 -0.3550
 2132SOL     OW11525  10.557   6.488   9.775 -0.1545  0.6721  0.1749
 2132SOL    HW111526  10.618   6.535   9.832  0.7504  0.7955 -0.8814
 2132SOL    HW211527  10.613   6.446   9.710 -1.1783  0.5719 -0.6521
 2133SOL     OW11528   7.859  10.720   0.837 -0.3468  0.1347 -0.3077
 2133SOL    HW111529   7.943  10.710   0.791  0.1455 -0.6359  0.7411
 2133SOL    HW211530   7.819  10.633   0.833 -0.7528  0.3162 -0.1586
 2134SOL     OW11531   6.935   5.710   4.250 -0.1245  0.8282 -0.0330
 2134SOL    HW111532   6.995   5.727   4.322  1.2548 -0.9995 -0.6985
 2134SOL    HW211533   6.968   5.764   4.178 -1.3853  2.5031  0.6350
 2135SOL     OW11534   3.045   8.928   9.816  0.0768 -0.5559  0.2045
 2135SOL    HW111535   3.079   8.943   9.905  1.7504  0.9514 -0.6624
 2135SOL    HW211536   3.061   8.835   9.801  0.9549 -0.5495  1.0069
 2136SOL     OW11537   0.172   7.771   2.426  0.2473  0.0684 -0.0210
 2136SOL    HW111538   0.158   7.803   2.336 -0.1340  0.1256  0.0566
 2136SOL    HW211539   0.266   7.784   2.441  0.2487  0.3973 -0.2843
 2137SOL     OW11540   6.848   2.267  10.526  0.5439  0.1503  0.4519
 2137SOL    HW111541   6.830   2.308  10.442  0.4872 -0.0736  0.3547
 2137SOL    HW211542   6.778   2.298  10.583  1.2992  1.3122  0.7621
 2138SOL     OW11543   9.253   6.815   1.488 -0.3538 -0.2199  0.2753
 2138SOL    HW111544   9.343   6.813   1.520 -0.0918 -1.2167 -0.4959
 2138SOL    HW211545   9.240   6.906   1.461  1.1831 -0.5213 -1.6760
 2139SOL     OW11546   0.271   3.164   6.173 -0.6386  0.1145 -0.8929
 2139SOL    HW111547   0.193   3.122   6.137 -0.8834  0.4233 -0.7242
 2139SOL    HW211548   0.238   3.243   6.218 -0.1195  0.8125 -1.7254
 2140SOL     OW11549   1.193   6.054   1.323 -0.6031 -0.4290  0.7475
 2140SOL    HW111550   1.100   6.043   1.302 -0.5818 -0.1824  0.5159
 2140SOL    HW211551   1.234   5.973   1.292 -0.6649 -0.3234  0.3895
 2141SOL     OW11552  10.483   0.178   8.575  0.0889 -0.0917 -0.1660
 2141SOL    HW111553  10.558   0.179   8.516  1.3894  0.0957  1.4463
 2141SOL    HW211554  10.425   0.247   8.542  2.1142  1.9539  0.4176
 2142SOL     OW11555   7.698   1.992   7.259 -0.0620 -0.0546 -0.2945
 2142SOL    HW111556   7.719   1.916   7.314 -1.9004  0.2797  0.9047
 2142SOL    HW211557   7.630   1.961   7.200 -1.2008  0.7808  0.5551
 2143SOL     OW11558   2.595   2.919   7.042 -0.2690  0.2425 -0.1629
 2143SOL    HW111559   2.533   2.972   7.092 -0.0555  0.3370  0.0012
 2143SOL    HW211560   2.613   2.971   6.964 -1.6333 -0.4986 -0.9927
 2144SOL     OW11561   3.043   4.663   7.298  0.5904  0.0412  0.6243
 2144SOL    HW111562   3.135   4.642   7.311  0.8910 -0.1268 -1.5867
 2144SOL    HW211563   3.039   4.759   7.298  0.5618  0.0503  1.9137
 2145SOL     OW11564  10.880   8.578  11.185  1.1663 -0.4841  0.4305
 2145SOL    HW111565  10.972   8.553  11.170  0.9464 -2.0274  1.4888
 2145SOL    HW211566  10.852   8.522  11.258 -0.3508  0.6169  0.7140
 2146SOL     OW11567   1.671   7.828   6.266 -0.1784 -0.4347 -0.0836
 2146SOL    HW111568   1.697   7.820   6.174  1.4142 -0.7893  0.3786
 2146SOL    HW211569   1.728   7.897   6.301  1.5788 -2.5818  1.4451
 2147SOL     OW11570   0.451   9.396   3.206 -0.4109  0.1641 -0.1573
 2147SOL    HW111571   0.502   9.348   3.272 -0.3799  0.3140 -0.0730
 2147SOL    HW211572   0.505   9.394   3.128  0.2609  1.3598  0.2660
 2148SOL     OW11573   7.832   3.456   1.579  0.5754 -0.4956  0.2240
 2148SOL    HW111574   7.807   3.538   1.621  3.2417  0.4715  0.0430
 2148SOL    HW211575   7.810   3.388   1.642  1.6458  0.6821  1.9055
 2149SOL     OW11576   2.992   4.159   1.023 -0.3100 -0.2359  0.3858
 2149SOL    HW111577   3.007   4.244   0.982 -0.4380 -0.0085  0.8083
 2149SOL    HW211578   2.982   4.098   0.949 -1.2377  0.2935  0.0574
 2150SOL     OW11579   7.031   7.359   7.199  0.7055 -0.7415  0.6298
 2150SOL    HW111580   6.968   7.429   7.185  2.6533  0.8106 -0.5175
 2150SOL    HW211581   7.056   7.367   7.292 -0.4089 -1.0552  0.9583
 2151SOL     OW11582   9.793   6.879   0.272  0.0648  0.0914  0.3447
 2151SOL    HW111583   9.790   6.897   0.178  0.5946 -0.2594  0.2571
 2151SOL    HW211584   9.774   6.963   0.314  0.7889  0.4623 -0.0706
 2152SOL     OW11585   1.486   4.618   0.545 -0.1455 -0.6945 -0.6013
 2152SOL    HW111586   1.481   4.688   0.480 -0.2774 -0.5156 -0.3987
 2152SOL    HW211587   1.517   4.661   0.625 -0.9570 -0.7253 -0.2698
 2153SOL     OW11588   9.241   7.269   3.685 -0.5641  0.1794 -0.0139
 2153SOL    HW111589   9.245   7.336   3.617 -0.8785  0.0381 -0.1754
 2153SOL    HW211590   9.320   7.283   3.737 -0.0482 -0.0340 -0.7126
 2154SOL     OW11591   7.285   4.154   4.709 -0.3116 -0.0141  0.1546
 2154SOL    HW111592   7.379   4.163   4.724 -0.3211 -2.5233  2.2535
 2154SOL    HW211593   7.277   4.071   4.661 -1.5569 -1.0967  2.1457
 2155SOL     OW11594   2.536   1.425   2.272 -0.5362 -0.3310 -0.0935
 2155SOL    HW111595   2.585   1.447   2.193 -0.5535  0.3071  0.0664
 2155SOL    HW211596   2.449   1.463   2.258 -1.0441 -1.6054 -0.4482
 2156SOL     OW11597   8.653  10.719   4.935 -0.4151 -0.3637 -0.0177
 2156SOL    HW111598   8.603  10.786   4.888  0.2262 -0.1938 -0.4670
 2156SOL    HW211599   8.588  10.672   4.987 -0.6976  1.5313  1.4213
 2157SOL     OW11600  10.747   4.733   9.280  0.5249 -0.3230 -0.5275
 2157SOL    HW111601  10.779   4.785   9.354 -0.7520  1.6981 -1.3604
 2157SOL    HW211602  10.814   4.743   9.213  1.0834 -1.1415 -0.1009
 2158SOL     OW11603   0.814   6.527  11.328  0.3908  0.2333 -0.0244
 2158SOL    HW111604   0.818   6.614  11.369  2.3874  0.4894 -0.7062
 2158SOL    HW211605   0.899   6.488  11.347 -1.4366 -2.6972  2.5998
 2159SOL     OW11606   6.604   6.847   6.927  0.2205 -0.4325 -0.5622
 2159SOL    HW111607   6.553   6.767   6.939  0.4782 -0.3634  1.0897
 2159SOL    HW211608   6.551   6.901   6.868 -1.9893 -0.0487  1.6773
 2160SOL     OW11609   7.262   5.216   8.997  0.5003  0.5807 -0.0758
 2160SOL    HW111610   7.262   5.152   9.068  1.4233  1.5355  0.8044
 2160SOL    HW211611   7.355   5.227   8.975  0.2291  0.3778 -1.3572
 2161SOL     OW11612   1.696  10.895   7.301 -0.4405  0.1346  0.1611
 2161SOL    HW111613   1.716  10.976   7.348  0.0307 -0.3187  0.7532
 2161SOL    HW211614   1.729  10.825   7.359 -0.9607 -0.4793 -0.2800
 2162SOL     OW11615   5.116   6.341   0.466 -1.1062 -0.1156 -0.6679
 2162SOL    HW111616   5.136   6.386   0.548  1.2657 -0.1541 -1.1972
 2162SOL    HW211617   5.057   6.270   0.491  0.3767 -0.7342  1.1452
 2163SOL     OW11618   6.190   1.892   9.307 -0.8330 -0.2169 -0.3829
 2163SOL    HW111619   6.125   1.846   9.359  0.2382 -1.1604  0.1396
 2163SOL    HW211620   6.158   1.886   9.217 -2.5572  1.1935  0.1147
 2164SOL     OW11621   6.255   6.349   0.728  0.6631  0.1267 -0.1240
 2164SOL    HW111622   6.197   6.385   0.796 -0.1948 -0.5464 -0.4857
 2164SOL    HW211623   6.209   6.365   0.646  1.2725  0.1151 -0.4699
 2165SOL     OW11624   8.510   5.094   0.280  0.0703 -0.6999  0.2353
 2165SOL    HW111625   8.582   5.064   0.224 -0.5084 -0.2503 -0.7394
 2165SOL    HW211626   8.495   5.184   0.254  0.8569  0.0252  2.2167
 2166SOL     OW11627   8.315   8.993   1.334  0.2754 -0.1010  0.5365
 2166SOL    HW111628   8.350   8.941   1.261 -2.3167 -2.0031  0.5638
 2166SOL    HW211629   8.334   8.941   1.412 -0.7100 -0.1262  0.7666
 2167SOL     OW11630   9.164   4.575   4.397 -0.3315  0.0503 -0.1883
 2167SOL    HW111631   9.074   4.591   4.427 -0.9126  0.2097 -1.9454
 2167SOL    HW211632   9.218   4.588   4.475 -1.7496  0.7865  0.6988
 2168SOL     OW11633  10.654   1.928   7.175 -0.1783 -0.4429  0.0407
 2168SOL    HW111634  10.719   1.889   7.233  0.5050  1.2853  0.4503
 2168SOL    HW211635  10.704   1.960   7.100 -1.0027 -2.2561 -1.3314
 2169SOL     OW11636   4.582   2.170   5.010  0.3295 -0.8056 -0.6252
 2169SOL    HW111637   4.622   2.213   5.085  0.5198 -1.3777 -0.3978
 2169SOL    HW211638   4.623   2.210   4.933 -0.2416  0.1476 -0.4352
 2170SOL     OW11639  10.599   1.608   7.985  0.2328 -0.0880  0.1097
 2170SOL    HW111640  10.676   1.664   7.985 -0.6274  1.1302 -0.5093
 2170SOL    HW211641  10.553   1.630   8.066  0.0449 -0.1020  0.0084
 2171SOL     OW11642   0.617   2.190   0.420 -0.0592  0.4189  0.0452
 2171SOL    HW111643   0.566   2.112   0.442 -0.6837  0.7325 -0.2907
 2171SOL    HW211644   0.648   2.222   0.505  0.2425 -0.2231  0.1786
 2172SOL     OW11645   4.850   5.606   3.268 -0.3656  0.1631 -0.4580
 2172SOL    HW111646   4.930   5.651   3.241 -0.5910  0.5882 -0.4285
 2172SOL    HW211647   4.865   5.585   3.360 -0.1634 -0.0352 -0.5350
 2173SOL     OW11648   0.190  10.341   3.949  0.3263 -0.3744  0.0259
 2173SOL    HW111649   0.231  10.259   3.923 -1.0885 -1.8913  2.4816
 2173SOL    HW211650   0.192  10.341   4.044 -2.4466  1.0135  0.1495
 2174SOL     OW11651  10.049   1.442   3.276 -0.8193 -0.2359  0.0724
 2174SOL    HW111652  10.010   1.418   3.360  0.2973 -1.4873  0.2612
 2174SOL    HW211653   9.980   1.426   3.211 -1.4180 -0.0299  0.6540
 2175SOL     OW11654   8.009   2.406   1.798  0.2616  0.2691 -0.1267
 2175SOL    HW111655   8.096   2.412   1.839 -0.3332  2.4125  0.8649
 2175SOL    HW211656   7.948   2.416   1.871 -0.8236  1.1988 -1.1432
 2176SOL     OW11657  10.210   1.329   1.039  0.0712 -0.2804  0.8073
 2176SOL    HW111658  10.294   1.363   1.006  0.9548  0.5053  3.7083
 2176SOL    HW211659  10.144   1.384   0.997  0.9571 -1.0474 -1.6950
 2177SOL     OW11660  10.167   9.080   3.246  0.0601  0.1114  0.0358
 2177SOL    HW111661  10.256   9.045   3.255 -0.1473  0.2839  3.0684
 2177SOL    HW211662  10.180   9.173   3.225  0.5741 -0.1562 -0.8797
 2178SOL     OW11663  10.937   3.046   1.687 -0.8824 -0.2723  0.6031
 2178SOL    HW111664  10.865   3.038   1.624 -0.7525 -2.9068  0.7499
 2178SOL    HW211665  10.910   2.991   1.761  1.5222 -1.8021  0.3961
 2179SOL     OW11666   2.505   0.523   4.072  0.1309  0.6379 -0.2173
 2179SOL    HW111667   2.515   0.597   4.131 -0.9274  1.2005 -0.7253
 2179SOL    HW211668   2.417   0.489   4.089  0.7341 -0.7501  0.2759
 2180SOL     OW11669   4.881   8.417   1.136 -0.8123 -0.4971 -0.0211
 2180SOL    HW111670   4.855   8.509   1.137 -0.4698 -0.4103  1.0565
 2180SOL    HW211671   4.848   8.382   1.219  1.7398 -0.5871  1.0014
 2181SOL     OW11672  10.402   8.758   1.417 -0.4712 -0.1102 -0.0609
 2181SOL    HW111673  10.420   8.815   1.492 -0.2890 -0.9975  0.5915
 2181SOL    HW211674  10.475   8.695   1.417 -0.8473 -0.5488 -0.5484
 2182SOL     OW11675   2.134   0.291   3.543  0.3657 -0.2526 -0.6089
 2182SOL    HW111676   2.169   0.236   3.613  0.5952 -1.0679 -1.3442
 2182SOL    HW211677   2.063   0.340   3.584  0.2707 -0.9739  0.1120
 2183SOL     OW11678   3.651   7.131  10.191 -0.6835 -0.1166 -0.0115
 2183SOL    HW111679   3.610   7.218  10.195 -1.8940 -0.5534 -2.2499
 2183SOL    HW211680   3.590   7.074  10.239 -1.1873 -0.1848 -0.7155
 2184SOL     OW11681   0.214   8.259   8.090 -0.0148 -0.6067  0.2114
 2184SOL    HW111682   0.248   8.210   8.164  1.0002  1.6464  1.2863
 2184SOL    HW211683   0.144   8.313   8.126  0.1389  0.1220 -0.5519
 2185SOL     OW11684   9.443   1.041   5.254 -0.4731 -0.0041 -0.1504
 2185SOL    HW111685   9.497   1.009   5.182 -2.8555 -1.1678 -1.4568
 2185SOL    HW211686   9.500   1.101   5.302  0.7374  1.8958 -3.8162
 2186SOL     OW11687  11.060  10.447   0.366 -0.1149  0.3030  0.6481
 2186SOL    HW111688  11.146  10.478   0.340 -1.3053  1.9477 -1.4708
 2186SOL    HW211689  11.067  10.351   0.364  1.5932  0.4294  0.3257
 2187SOL     OW11690   6.143   7.252   0.121 -0.2240 -0.5599 -0.3871
 2187SOL    HW111691   6.114   7.339   0.150 -1.0456 -0.6009 -1.0484
 2187SOL    HW211692   6.160   7.204   0.202 -0.9976 -0.1798  0.0096
 2188SOL     OW11693   3.187   3.128   1.798 -0.4736  0.3728 -0.3777
 2188SOL    HW111694   3.225   3.128   1.885 -0.4532 -0.2681 -0.3808
 2188SOL    HW211695   3.238   3.063   1.749 -2.0744 -1.1143 -0.1491
 2189SOL     OW11696   7.683   1.071   9.108 -0.5828  0.2753 -0.4397
 2189SOL    HW111697   7.688   1.167   9.114 -1.8686  0.4082 -1.2525
 2189SOL    HW211698   7.608   1.055   9.051  0.3510 -1.1927 -1.2888
 2190SOL     OW11699  10.807  10.398   1.226  0.7554  0.7544 -0.6609
 2190SOL    HW111700  10.741  10.463   1.251 -0.0801  0.0061 -0.8723
 2190SOL    HW211701  10.757  10.331   1.180  1.6531  0.0902 -0.6748
 2191SOL     OW11702   4.401   5.968   5.579 -0.1632 -0.2526 -0.7450
 2191SOL    HW111703   4.325   5.912   5.563  0.3668 -0.9962 -0.6556
 2191SOL    HW211704   4.382   6.048   5.529 -0.1193 -1.2016 -2.3368
 2192SOL     OW11705   8.746   3.388   9.872 -0.3693 -0.0994  0.1133
 2192SOL    HW111706   8.825   3.339   9.895  0.7977 -0.0084 -3.4238
 2192SOL    HW211707   8.742   3.459   9.936  2.2514 -0.2954  0.5300
 2193SOL     OW11708   9.540   4.527   4.383  0.1350  0.0063 -0.1510
 2193SOL    HW111709   9.505   4.508   4.470 -0.7392 -3.6469 -1.2393
 2193SOL    HW211710   9.621   4.478   4.378  1.8063  2.6758 -0.3290
 2194SOL     OW11711   7.032   1.493   4.533 -0.1163  0.4067  0.8065
 2194SOL    HW111712   6.960   1.499   4.471  0.6498 -0.8590 -0.2256
 2194SOL    HW211713   6.990   1.466   4.615 -0.9254  0.5468  0.4491
 2195SOL     OW11714   1.379   2.710   3.169  0.4116 -0.8658 -0.3654
 2195SOL    HW111715   1.345   2.631   3.127  0.5530 -0.5322 -1.1211
 2195SOL    HW211716   1.328   2.718   3.250 -0.7597 -0.8223 -1.0863
 2196SOL     OW11717  11.259   6.437   1.838 -0.2465  0.0577  0.4876
 2196SOL    HW111718  11.260   6.532   1.826  1.2302  0.0836  0.6864
 2196SOL    HW211719  11.345   6.408   1.807 -0.8699 -1.2776 -0.0481
 2197SOL     OW11720   4.929   2.564   0.919  0.2948  0.1784 -0.1332
 2197SOL    HW111721   4.932   2.659   0.931 -0.3187  0.2230 -0.3273
 2197SOL    HW211722   5.005   2.531   0.967 -0.6729  0.5876  1.7196
 2198SOL     OW11723   5.914   1.978   6.186 -0.0229  0.1125  0.0726
 2198SOL    HW111724   5.971   1.973   6.109  0.9740 -0.1275  0.8254
 2198SOL    HW211725   5.916   2.070   6.211 -0.3228  0.1853 -0.1722
 2199SOL     OW11726   3.703   6.705   0.160 -0.1895 -0.9283  0.2274
 2199SOL    HW111727   3.717   6.733   0.069 -0.3425  0.0547  0.5070
 2199SOL    HW211728   3.700   6.786   0.210  2.2121 -1.5371  1.4374
 2200SOL     OW11729   4.249   7.723   5.135  0.7714  0.2202  0.2723
 2200SOL    HW111730   4.250   7.802   5.080  0.0311  0.7367  0.9884
 2200SOL    HW211731   4.188   7.664   5.090  0.4575  0.4936  0.3384
 2201SOL     OW11732   4.586   5.692   4.186 -0.1665  0.4007  0.3497
 2201SOL    HW111733   4.573   5.781   4.152  1.6725  1.0878  1.3593
 2201SOL    HW211734   4.596   5.704   4.281  3.2179 -0.5134  0.1473
 2202SOL     OW11735  10.241   9.740   7.864  0.1566  0.3876  1.2100
 2202SOL    HW111736  10.284   9.823   7.884  0.3530  0.6192 -0.0864
 2202SOL    HW211737  10.166   9.764   7.811  0.5796 -0.3030  0.2859
 2203SOL     OW11738   8.454  11.093  10.535  0.4181  0.1052 -0.2054
 2203SOL    HW111739   8.490  11.164  10.481  0.1446  1.2853  1.1432
 2203SOL    HW211740   8.530  11.040  10.558  1.0360  1.3967  0.8580
 2204SOL     OW11741   1.360   4.261   6.688 -0.2067 -0.1527 -0.3382
 2204SOL    HW111742   1.349   4.174   6.650  0.5650 -0.7978  0.8652
 2204SOL    HW211743   1.453   4.281   6.675 -0.2458  0.2118 -0.0688
 2205SOL     OW11744   8.485   7.125   1.920  0.1957 -0.2425  0.0033
 2205SOL    HW111745   8.491   7.215   1.886  1.0299 -0.6673 -0.9955
 2205SOL    HW211746   8.428   7.079   1.858 -0.6152 -0.2943  0.7747
 2206SOL     OW11747   7.058   3.850   6.901  0.3648 -0.2930 -0.5744
 2206SOL    HW111748   7.080   3.925   6.956 -0.6531 -1.4990  1.4998
 2206SOL    HW211749   7.130   3.845   6.837  1.0016  1.7537 -0.0420
 2207SOL     OW11750   0.225   7.814   4.921 -0.1972 -0.0822  0.2284
 2207SOL    HW111751   0.235   7.784   5.011 -1.8651  0.1821  0.5183
 2207SOL    HW211752   0.190   7.903   4.929 -0.2530 -0.0178 -0.6657
 2208SOL     OW11753   2.811  10.542   8.240  0.2099  0.3745  0.1915
 2208SOL    HW111754   2.780  10.625   8.204 -0.3293  0.2842  0.4374
 2208SOL    HW211755   2.880  10.566   8.301  0.8627  0.5583 -0.6140
 2209SOL     OW11756   9.861   5.156   0.886  0.0841  0.0731 -0.1028
 2209SOL    HW111757   9.863   5.064   0.914 -1.0663 -0.1184 -0.6370
 2209SOL    HW211758   9.856   5.152   0.790  0.2297  0.6969 -0.1412
 2210SOL     OW11759  10.013   7.778   9.790 -0.2832 -0.3102 -0.0069
 2210SOL    HW111760  10.084   7.828   9.829 -1.6799  1.0352  0.8780
 2210SOL    HW211761  10.055   7.721   9.726  1.2898  2.6755 -1.7063
 2211SOL     OW11762   5.083   7.037   9.155  0.2591  0.2446 -0.4130
 2211SOL    HW111763   5.045   6.966   9.103  0.6837  0.5200 -1.1199
 2211SOL    HW211764   5.163   7.001   9.191 -0.0393  0.0506  0.0570
 2212SOL     OW11765   5.216  10.024   2.403  0.0408 -0.1093  0.1995
 2212SOL    HW111766   5.272  10.051   2.476  0.6825 -1.5512  0.2586
 2212SOL    HW211767   5.267   9.957   2.358  0.3691  1.9558 -2.5998
 2213SOL     OW11768   5.413   3.122   0.319  0.2457 -0.6339 -0.0286
 2213SOL    HW111769   5.488   3.068   0.344 -0.5389 -1.1028  1.3500
 2213SOL    HW211770   5.451   3.198   0.276  1.6567  0.3304  2.8339
 2214SOL     OW11771   3.350   0.681   0.703  0.1937  0.5341 -0.5096
 2214SOL    HW111772   3.428   0.671   0.758 -0.4334 -1.1538  0.1221
 2214SOL    HW211773   3.291   0.736   0.754  0.6991  1.2649 -0.7025
 2215SOL     OW11774   3.282   5.346   7.629  0.1185 -0.0376 -0.4957
 2215SOL    HW111775   3.311   5.257   7.647 -0.9144 -0.2769  0.0428
 2215SOL    HW211776   3.358   5.389   7.589  0.6845 -1.0934 -0.5666
 2216SOL     OW11777   5.178   5.645   2.550 -0.2050  0.6666  0.4961
 2216SOL    HW111778   5.133   5.564   2.525 -1.1932  1.2695  0.2752
 2216SOL    HW211779   5.111   5.695   2.597  0.3690  1.4047  0.5258
 2217SOL     OW11780   9.496   4.931   2.265 -0.4155  0.7461 -0.7023
 2217SOL    HW111781   9.546   5.013   2.258  1.0280  0.1229  1.5860
 2217SOL    HW211782   9.499   4.909   2.359  1.3170 -3.1636 -1.5616
 2218SOL     OW11783   0.827   6.625   4.732  0.1224 -0.4221  0.3757
 2218SOL    HW111784   0.891   6.605   4.663 -1.2660  0.7061 -1.3099
 2218SOL    HW211785   0.757   6.561   4.720 -0.4575  0.2233  0.2679
 2219SOL     OW11786   5.100   6.760   2.228  0.0894  0.3044  0.5353
 2219SOL    HW111787   5.176   6.743   2.173  0.5084 -0.5952  1.3927
 2219SOL    HW211788   5.027   6.721   2.181  0.5899 -1.2772  1.0551
 2220SOL     OW11789   0.549   4.370   0.457  0.1566 -0.0994 -0.5172
 2220SOL    HW111790   0.614   4.359   0.527 -1.4686 -1.6119  0.7861
 2220SOL    HW211791   0.599   4.410   0.385  1.9874  1.0255  1.2972
 2221SOL     OW11792   2.131   5.324   3.339  0.0319 -0.2737 -0.3946
 2221SOL    HW111793   2.156   5.416   3.325 -1.5729  0.3961  0.9717
 2221SOL    HW211794   2.141   5.311   3.433 -2.3273 -0.6859 -0.1630
 2222SOL     OW11795   9.384   2.600   1.412 -0.1899  0.7421  0.3247
 2222SOL    HW111796   9.354   2.511   1.395  3.0575 -0.6321  1.4415
 2222SOL    HW211797   9.416   2.630   1.327 -0.1271  0.3949  0.2237
 2223SOL     OW11798   3.034  10.430   4.920  0.0095  0.3938 -0.0185
 2223SOL    HW111799   2.963  10.375   4.954 -1.0263  1.9372  0.3411
 2223SOL    HW211800   2.994  10.478   4.847  0.3943  2.0425  0.8445
 2224SOL     OW11801   5.781   7.297   3.778 -0.1882  0.5697  0.6130
 2224SOL    HW111802   5.792   7.230   3.845  0.7981 -0.2516 -0.3623
 2224SOL    HW211803   5.689   7.322   3.785 -0.2707 -0.0306  1.7849
 2225SOL     OW11804   4.738   5.988   1.537  0.0628  0.0640  0.4443
 2225SOL    HW111805   4.790   5.928   1.591  1.3647  0.6193 -0.1589
 2225SOL    HW211806   4.678   6.030   1.599 -0.0767 -1.0241  1.0576
 2226SOL     OW11807   9.945   1.084   8.424 -0.5753  0.1676  0.4770
 2226SOL    HW111808   9.973   1.022   8.492 -0.4555  0.8431  1.0457
 2226SOL    HW211809   9.984   1.050   8.343 -1.3068 -1.0321  0.6264
 2227SOL     OW11810  11.136   5.980   8.610  0.6059  0.0307 -0.3165
 2227SOL    HW111811  11.160   5.955   8.699  2.0635 -0.1607 -0.7447
 2227SOL    HW211812  11.146   5.899   8.559 -1.3247 -0.1439 -0.4649
 2228SOL     OW11813   5.775   4.268   6.272  0.7596 -0.1707 -0.3583
 2228SOL    HW111814   5.808   4.189   6.228  2.0159 -0.4729  1.0968
 2228SOL    HW211815   5.680   4.253   6.279  1.1574 -2.2399  1.2112
 2229SOL     OW11816   5.186   8.358  10.610 -0.3554 -0.4104  0.4833
 2229SOL    HW111817   5.242   8.430  10.640 -1.6077  0.4701  0.7631
 2229SOL    HW211818   5.152   8.319  10.690 -0.0482 -1.0120  0.3175
 2230SOL     OW11819   5.278   5.882   8.757 -0.1404 -0.3087  0.3485
 2230SOL    HW111820   5.310   5.970   8.778 -0.4811 -0.2854  0.8018
 2230SOL    HW211821   5.353   5.835   8.723  0.2904 -0.1499  1.0675
 2231SOL     OW11822   8.766   3.775   7.639  0.0238 -0.0915  0.9206
 2231SOL    HW111823   8.773   3.773   7.735 -1.6657 -0.5415  1.0509
 2231SOL    HW211824   8.675   3.798   7.622 -0.1128 -1.6061 -0.5582
 2232SOL     OW11825   7.173   5.123   1.731  0.8012 -0.0865 -0.0828
 2232SOL    HW111826   7.213   5.210   1.724 -3.1159  2.0669  2.7800
 2232SOL    HW211827   7.231   5.075   1.790  1.0348  1.8135  1.2738
 2233SOL     OW11828   9.497   9.364   1.589 -0.3569 -0.0791  0.5553
 2233SOL    HW111829   9.481   9.277   1.625  1.6746 -0.0577  1.5981
 2233SOL    HW211830   9.431   9.375   1.521 -1.7272 -1.7380  1.5901
 2234SOL     OW11831   0.394   7.612   4.229  0.7399  0.2093  0.3906
 2234SOL    HW111832   0.343   7.581   4.153  1.5517  2.4469 -1.1244
 2234SOL    HW211833   0.469   7.553   4.232  1.0280  0.4863 -0.9484
 2235SOL     OW11834   4.847   3.948   8.310  0.0877  0.1410 -0.3494
 2235SOL    HW111835   4.757   3.969   8.334  0.7936  2.0005  0.8669
 2235SOL    HW211836   4.845   3.935   8.216 -1.3729  0.6535 -0.4036
 2236SOL     OW11837   7.205   8.873   2.552 -0.4305  0.4297  0.1671
 2236SOL    HW111838   7.153   8.792   2.550  1.3239 -0.7588  0.9042
 2236SOL    HW211839   7.143   8.941   2.575 -1.8361 -0.8169  0.1296
 2237SOL     OW11840   5.460   0.860   0.303  0.2136  0.5099 -0.7838
 2237SOL    HW111841   5.492   0.819   0.222  0.2347  0.0453 -0.5449
 2237SOL    HW211842   5.484   0.952   0.295  0.4291  0.4181 -1.2006
 2238SOL     OW11843   4.765   3.376   1.660 -0.2979 -0.3462 -0.2157
 2238SOL    HW111844   4.723   3.390   1.745  1.5578 -0.6800  0.7816
 2238SOL    HW211845   4.795   3.463   1.634 -0.0081 -0.4002 -0.0642
 2239SOL     OW11846   0.712   6.970   7.801 -0.3339 -0.5294  0.3696
 2239SOL    HW111847   0.625   7.010   7.796  0.0078  0.1325 -0.4106
 2239SOL    HW211848   0.765   7.034   7.849  0.2599  0.0780 -1.0443
 2240SOL     OW11849  10.857   5.833   2.006 -0.0829 -0.4881  0.6139
 2240SOL    HW111850  10.846   5.921   2.041 -2.1346 -0.0802 -0.9505
 2240SOL    HW211851  10.780   5.786   2.036 -0.1593 -1.0888 -0.4878
 2241SOL     OW11852   8.761   6.427   4.555 -0.4592  0.0291  1.0305
 2241SOL    HW111853   8.704   6.502   4.573 -1.6923 -0.8561  0.8965
 2241SOL    HW211854   8.755   6.415   4.460  0.7593  0.5606  0.8852
 2242SOL     OW11855   7.223   3.040  10.898  0.7606  0.2557  0.8946
 2242SOL    HW111856   7.316   3.058  10.893  0.5814  1.1650  0.7753
 2242SOL    HW211857   7.217   2.945  10.904  1.6691  0.1574  0.2832
 2243SOL     OW11858  10.701  10.251   4.178 -0.2544  0.3483  0.4818
 2243SOL    HW111859  10.694  10.201   4.096 -1.6915  0.6715  0.3928
 2243SOL    HW211860  10.620  10.231   4.225  0.6087  0.0906  1.8787
 2244SOL     OW11861   0.047   2.618   2.195 -0.1579 -0.0227 -0.0259
 2244SOL    HW111862   0.142   2.622   2.185 -0.1506 -0.7019 -0.2131
 2244SOL    HW211863   0.014   2.602   2.106 -0.3916 -0.6960  0.1780
 2245SOL     OW11864   5.148   1.220  10.422 -0.1930  0.0492 -0.4025
 2245SOL    HW111865   5.151   1.259  10.334  0.7904  1.6623  0.3153
 2245SOL    HW211866   5.073   1.261  10.464  0.7743  1.1107  0.3183
 2246SOL     OW11867   6.860   9.084   0.436 -0.8434 -0.3130 -0.0940
 2246SOL    HW111868   6.809   9.033   0.500 -0.5014 -1.4115 -0.6735
 2246SOL    HW211869   6.797   9.103   0.367 -0.5675 -1.3908 -0.6571
 2247SOL     OW11870   1.274   1.074   0.692 -0.0140  0.0119 -0.0889
 2247SOL    HW111871   1.247   1.165   0.704 -1.7137 -0.4167 -0.5572
 2247SOL    HW211872   1.311   1.048   0.777  1.3359  1.4071 -0.2357
 2248SOL     OW11873   8.300  10.805   3.145  0.3304  0.8485  0.0724
 2248SOL    HW111874   8.313  10.831   3.054  3.9227  0.5247  0.4024
 2248SOL    HW211875   8.245  10.727   3.141  1.2036  0.3092 -1.9159
 2249SOL     OW11876   4.827   2.476   4.037  0.1410 -0.2028  0.3787
 2249SOL    HW111877   4.791   2.506   3.953 -0.0690 -1.6302 -0.0682
 2249SOL    HW211878   4.800   2.384   4.042 -0.3044  0.0138  2.2656
 2250SOL     OW11879   9.101   1.118  11.001  0.4148  0.2582  0.3743
 2250SOL    HW111880   9.042   1.181  11.044  1.2766  1.1525  0.2665
 2250SOL    HW211881   9.178   1.116  11.058  1.2495  0.8765 -0.7229
 2251SOL     OW11882   3.794   9.312   7.514  0.1682 -0.2540  0.0956
 2251SOL    HW111883   3.778   9.262   7.434 -1.4732  1.0113 -0.3679
 2251SOL    HW211884   3.710   9.313   7.560 -0.0951  2.8196 -0.3318
 2252SOL     OW11885   3.576   8.313  10.530 -0.1381  0.0738 -0.9938
 2252SOL    HW111886   3.642   8.350  10.590 -0.7519 -0.1214 -0.1994
 2252SOL    HW211887   3.527   8.389  10.500 -0.1972  0.1135 -0.8014
 2253SOL     OW11888  10.728   0.486   7.082  0.1766 -0.1930  0.5620
 2253SOL    HW111889  10.653   0.431   7.058  1.1400 -0.6751 -1.3931
 2253SOL    HW211890  10.788   0.426   7.126  0.6842 -0.4363 -0.4631
 2254SOL     OW11891   0.641   8.715   8.248  0.6943 -0.1548 -0.7145
 2254SOL    HW111892   0.568   8.679   8.198 -0.1482  0.5449 -0.0031
 2254SOL    HW211893   0.681   8.640   8.291 -0.4820 -0.3505  0.0364
 2255SOL     OW11894   6.170   2.510   0.789  0.4789  0.3158  0.0525
 2255SOL    HW111895   6.140   2.582   0.845  2.2554  1.6153 -0.5948
 2255SOL    HW211896   6.092   2.485   0.739 -0.5250  0.7708  1.3522
 2256SOL     OW11897   2.681   0.254   1.288  0.7194  0.6593  0.1893
 2256SOL    HW111898   2.731   0.234   1.209  0.6414 -0.5302  0.4325
 2256SOL    HW211899   2.630   0.332   1.266 -0.7969 -0.8100 -1.5862
 2257SOL     OW11900   7.557  10.046   4.457  0.2193 -0.5330 -0.6353
 2257SOL    HW111901   7.579  10.019   4.546 -1.0989  0.6394  0.0633
 2257SOL    HW211902   7.594  10.134   4.449 -0.3985 -0.3075 -0.9738
 2258SOL     OW11903   7.626   9.368   1.969 -0.0537  0.4444  0.2018
 2258SOL    HW111904   7.610   9.449   2.016 -2.0234 -0.0653  0.4146
 2258SOL    HW211905   7.603   9.388   1.878  0.9964  0.5833 -0.0419
 2259SOL     OW11906   7.219   0.300   5.631  0.6380  0.7989 -0.0190
 2259SOL    HW111907   7.270   0.222   5.652  1.9854  1.4500 -0.7409
 2259SOL    HW211908   7.254   0.328   5.546  0.1977  2.1976  0.2552
 2260SOL     OW11909   5.839   6.226   5.305 -0.1686  0.4769  0.1377
 2260SOL    HW111910   5.872   6.281   5.234  0.1571  0.3789  0.2123
 2260SOL    HW211911   5.749   6.207   5.281  0.2398 -0.3738 -0.7559
 2261SOL     OW11912   6.699   0.163   4.387  0.4929 -0.4158 -0.2313
 2261SOL    HW111913   6.694   0.158   4.291 -1.6042 -2.0456 -0.0662
 2261SOL    HW211914   6.740   0.248   4.404 -2.1502  1.4219 -2.5210
 2262SOL     OW11915   6.729  10.762   5.275 -0.2846  0.1675 -0.4763
 2262SOL    HW111916   6.648  10.728   5.315  0.5792 -0.0027  1.1931
 2262SOL    HW211917   6.715  10.857   5.270 -0.9453  0.0448 -1.0405
 2263SOL     OW11918   7.238  11.224   3.660 -0.2502 -0.2652  0.3989
 2263SOL    HW111919   7.188  11.265   3.590 -0.2538  1.1343  1.1942
 2263SOL    HW211920   7.330  11.238   3.635 -0.2467  0.9169  1.0459
 2264SOL     OW11921  10.202   6.551   5.759 -0.4602 -0.1257 -0.1868
 2264SOL    HW111922  10.107   6.567   5.754 -0.3179  0.7456 -0.1176
 2264SOL    HW211923  10.233   6.614   5.824 -0.0380 -1.3478  0.8241
 2265SOL     OW11924   2.880   2.123   3.652 -0.3676  0.0628  0.1668
 2265SOL    HW111925   2.869   2.202   3.705  0.8532  1.0124 -0.9687
 2265SOL    HW211926   2.897   2.054   3.717  1.9177  1.3523  1.0216
 2266SOL     OW11927  11.207   5.932   0.931 -0.6478 -0.0713  0.0098
 2266SOL    HW111928  11.286   5.917   0.981 -1.8630 -0.7317  1.7759
 2266SOL    HW211929  11.237   5.967   0.847  1.5699 -1.5689  0.1584
 2267SOL     OW11930   7.699   5.133   8.959  0.0948  0.2566 -0.4967
 2267SOL    HW111931   7.649   5.167   9.033  1.5583 -1.5040  1.3700
 2267SOL    HW211932   7.646   5.154   8.882 -2.0705  1.0285  1.1623
 2268SOL     OW11933   6.768   6.512   9.650  0.1663 -0.9288  0.3717
 2268SOL    HW111934   6.786   6.428   9.693 -1.9805 -0.5567  2.0462
 2268SOL    HW211935   6.818   6.576   9.700  0.3922 -0.9513  0.1793
 2269SOL     OW11936   2.131   5.896   8.474 -0.3523 -0.0037 -0.4750
 2269SOL    HW111937   2.058   5.949   8.442 -0.0394  0.1726 -0.9128
 2269SOL    HW211938   2.094   5.845   8.546 -1.3852 -1.2986 -1.8843
 2270SOL     OW11939  10.512   1.666   1.572 -0.3084  0.0146  0.3064
 2270SOL    HW111940  10.515   1.762   1.576  2.1232 -0.0619  1.1602
 2270SOL    HW211941  10.526   1.637   1.662  1.4996 -1.1477 -0.3117
 2271SOL     OW11942   3.413   0.164   1.432 -0.4679  0.3393 -0.6740
 2271SOL    HW111943   3.386   0.073   1.435  0.2650  0.1489  1.2743
 2271SOL    HW211944   3.366   0.206   1.504  0.9592  0.9844 -0.0991
 2272SOL     OW11945   9.281   6.972   3.646 -0.0490 -0.2661  0.2146
 2272SOL    HW111946   9.258   7.060   3.678  1.0270  0.1137 -0.0417
 2272SOL    HW211947   9.322   6.988   3.561  3.5178 -0.7118  1.7808
 2273SOL     OW11948  10.449   2.679   9.366 -0.8005 -0.7160 -0.3045
 2273SOL    HW111949  10.475   2.598   9.409 -1.7713  0.6046  2.9262
 2273SOL    HW211950  10.360   2.695   9.397 -0.3399  2.0111 -0.2320
 2274SOL     OW11951   7.492   1.316   9.021  0.3236 -0.5577 -0.7054
 2274SOL    HW111952   7.572   1.342   8.976  1.5487 -0.4277  1.5135
 2274SOL    HW211953   7.454   1.398   9.052  0.1728 -0.7598 -0.3572
 2275SOL     OW11954   1.961   7.223   1.678  0.3708 -0.2512 -0.0003
 2275SOL    HW111955   1.895   7.198   1.615 -0.2726 -0.5533  0.7844
 2275SOL    HW211956   1.919   7.211   1.763  0.8227  1.2652  0.4555
 2276SOL     OW11957  10.682   4.159   2.934  0.0830 -0.1542  0.6458
 2276SOL    HW111958  10.603   4.205   2.963  0.5805  1.7113 -0.8229
 2276SOL    HW211959  10.748   4.181   3.001  0.3235  1.3473 -0.0600
 2277SOL     OW11960   0.821   2.888   9.067  0.0664 -0.2321  0.0328
 2277SOL    HW111961   0.803   2.935   8.985 -1.1798  0.1822  0.5376
 2277SOL    HW211962   0.756   2.818   9.070  0.0027 -0.1452  0.7469
 2278SOL     OW11963   3.418   3.757  10.411  0.3644 -0.2792 -0.8682
 2278SOL    HW111964   3.474   3.759  10.333 -0.7764  0.6863 -1.6928
 2278SOL    HW211965   3.336   3.719  10.379  0.1735 -0.6572  0.0720
 2279SOL     OW11966   0.076   8.745   1.282  0.0946  0.4570  0.0676
 2279SOL    HW111967  -0.018   8.740   1.295  0.0328  1.6784  0.1506
 2279SOL    HW211968   0.105   8.654   1.278 -0.9618  0.0810  0.9277
 2280SOL     OW11969   4.056  10.790   7.757  0.3319  0.7005  0.1923
 2280SOL    HW111970   4.119  10.718   7.750  1.4829  1.8118 -1.4146
 2280SOL    HW211971   4.080  10.835   7.838 -0.8033 -1.0757  1.5380
 2281SOL     OW11972   2.591   7.352  11.314 -0.0691 -0.0396  0.0357
 2281SOL    HW111973   2.652   7.294  11.361 -0.0444 -0.4838 -0.5486
 2281SOL    HW211974   2.629   7.439  11.325  0.6813 -0.3147 -0.3243
 2282SOL     OW11975   4.407   7.845   2.026  0.5778 -0.1494 -0.4275
 2282SOL    HW111976   4.419   7.766   2.078 -1.2566  0.6648  1.3033
 2282SOL    HW211977   4.457   7.912   2.071 -0.7597  0.4852  0.1476
 2283SOL     OW11978   6.938   0.185   5.246  0.1148  0.1154 -0.2772
 2283SOL    HW111979   6.905   0.251   5.186  1.5340 -0.3803 -1.6499
 2283SOL    HW211980   6.938   0.227   5.332 -0.2015  1.4507 -0.9291
 2284SOL     OW11981   5.004   5.265   3.240 -0.0888  0.5814 -0.1010
 2284SOL    HW111982   5.002   5.169   3.249 -0.3076  0.5617 -0.3783
 2284SOL    HW211983   4.950   5.283   3.164 -0.4623  0.9649  0.2559
 2285SOL     OW11984   0.871   7.893   8.559  0.1349 -0.6375  0.3953
 2285SOL    HW111985   0.898   7.949   8.632 -0.4615 -0.9186  0.8464
 2285SOL    HW211986   0.951   7.846   8.534  0.1850 -1.0854  1.3689
 2286SOL     OW11987   1.378   6.159   2.839 -0.2673 -0.2551 -0.0668
 2286SOL    HW111988   1.357   6.129   2.927  1.1164 -1.0095  0.0320
 2286SOL    HW211989   1.294   6.163   2.793 -1.2200  2.0290  1.8489
 2287SOL     OW11990   3.344   2.386  10.915  0.3370 -0.3002 -0.0884
 2287SOL    HW111991   3.262   2.337  10.903 -0.6022  0.4358  2.9763
 2287SOL    HW211992   3.339   2.457  10.851 -0.0932 -1.8860 -1.8620
 2288SOL     OW11993   8.662   1.714   6.734  0.0322  0.2864 -0.5455
 2288SOL    HW111994   8.613   1.672   6.805 -0.9270  1.9304 -0.2093
 2288SOL    HW211995   8.750   1.726   6.769 -0.2136  0.3303  0.0760
 2289SOL     OW11996   4.718   9.535  10.539 -0.0140 -0.0881  0.1090
 2289SOL    HW111997   4.695   9.570  10.454 -1.0081 -0.2932  0.2880
 2289SOL    HW211998   4.794   9.479  10.523  0.2622  0.4607 -0.5086
 2290SOL     OW11999   5.825   2.250   7.803  0.4169  0.0984 -0.1236
 2290SOL    HW112000   5.797   2.275   7.715  0.4563  1.8344  0.3558
 2290SOL    HW212001   5.794   2.160   7.813  0.2288 -0.0398 -1.8342
 2291SOL     OW12002   2.542   4.252   7.226  0.0991  0.4511 -0.3064
 2291SOL    HW112003   2.505   4.318   7.284 -0.4926 -2.1702  2.4132
 2291SOL    HW212004   2.494   4.263   7.143 -3.6121  0.1732  1.6945
 2292SOL     OW12005   1.453   3.431   3.393 -0.1923 -0.4197  0.6725
 2292SOL    HW112006   1.455   3.341   3.361  1.0024  0.3747 -1.6573
 2292SOL    HW212007   1.543   3.463   3.379 -1.6766  2.5754 -3.0521
 2293SOL     OW12008   8.647   6.631   5.274  0.3940  0.5899 -0.7675
 2293SOL    HW112009   8.681   6.586   5.351 -0.7022  2.2354  0.7288
 2293SOL    HW212010   8.617   6.561   5.216  1.0490 -0.6729  0.3931
 2294SOL     OW12011   5.503   1.152   7.072 -0.2577  0.1746 -0.0244
 2294SOL    HW112012   5.543   1.091   7.134  0.1223  0.2518 -0.1937
 2294SOL    HW212013   5.483   1.099   6.995 -0.3421  0.1683  0.0018
 2295SOL     OW12014   7.696   1.359   8.834  0.2702  0.1887  0.6939
 2295SOL    HW112015   7.702   1.454   8.850 -0.2428  0.1226  1.3345
 2295SOL    HW212016   7.645   1.352   8.753 -2.1095  0.4171  2.1007
 2296SOL     OW12017  10.800   8.045   1.237  0.2127 -0.1727 -0.0168
 2296SOL    HW112018  10.835   8.134   1.227  0.7194 -0.3549  0.1342
 2296SOL    HW212019  10.705   8.057   1.235  0.2771  0.3691 -0.0430
 2297SOL     OW12020   0.505   1.801  10.895  0.3988  0.1802 -0.1068
 2297SOL    HW112021   0.549   1.879  10.928  1.8406 -1.5667  2.1806
 2297SOL    HW212022   0.553   1.779  10.815  1.3584  0.3935  0.4045
 2298SOL     OW12023   7.003  10.254  10.047 -0.3018 -0.2379 -0.4628
 2298SOL    HW112024   6.998  10.318   9.975  2.4782 -1.1092 -1.5144
 2298SOL    HW212025   7.028  10.172  10.004 -0.0867 -1.1272  1.3282
 2299SOL     OW12026   6.714  10.164   3.382 -0.8424  0.2328  0.3930
 2299SOL    HW112027   6.795  10.136   3.341 -0.7168 -0.9671  1.3893
 2299SOL    HW212028   6.712  10.116   3.465 -2.1527  0.8896  0.7604
 2300SOL     OW12029   7.864   1.035   5.060 -0.2631  0.7563 -0.2575
 2300SOL    HW112030   7.849   0.941   5.075 -0.4620  0.4457 -2.1732
 2300SOL    HW212031   7.925   1.061   5.128  0.6279 -1.0297 -0.3404
 2301SOL     OW12032   4.449   8.777   1.400  0.2600 -0.7737  0.5726
 2301SOL    HW112033   4.366   8.788   1.446 -0.2629  0.6533 -0.6846
 2301SOL    HW212034   4.441   8.832   1.322  2.2588 -0.8702  0.2738
 2302SOL     OW12035   3.436   2.946   2.247  0.1123  0.3702 -0.2684
 2302SOL    HW112036   3.490   3.013   2.288 -1.0708  1.1495  0.0061
 2302SOL    HW212037   3.397   2.898   2.320 -0.2302  0.3365 -0.4734
 2303SOL     OW12038   2.425  10.810  11.306  0.0789  0.9194  0.0149
 2303SOL    HW112039   2.360  10.749  11.342  2.4000 -0.8653  1.2633
 2303SOL    HW212040   2.389  10.897  11.326 -0.9327 -0.0207  2.5364
 2304SOL     OW12041   1.401   3.054   8.176  0.2839 -0.3285 -0.4977
 2304SOL    HW112042   1.433   3.073   8.088 -0.0609  2.2547 -0.0955
 2304SOL    HW212043   1.316   3.013   8.162  0.7599 -1.0383 -1.3814
 2305SOL     OW12044  10.997   7.154   1.114 -0.0528  0.4892 -0.5572
 2305SOL    HW112045  10.909   7.161   1.152  1.3451  0.4996  2.8737
 2305SOL    HW212046  11.045   7.226   1.154  1.4198  0.7684 -2.7765
 2306SOL     OW12047   4.551   2.292   9.294 -0.1011 -0.9415 -0.3267
 2306SOL    HW112048   4.532   2.198   9.290 -0.0803 -0.9723  0.2074
 2306SOL    HW212049   4.474   2.331   9.337 -0.6351 -0.5520 -1.6266
 2307SOL     OW12050   1.590   3.893   9.696 -0.2469  0.2602 -0.0959
 2307SOL    HW112051   1.590   3.965   9.759  0.6309  0.3263 -0.1559
 2307SOL    HW212052   1.556   3.931   9.615 -0.2379  0.4863  0.0074
 2308SOL     OW12053   7.052   2.882   9.608 -0.4500 -0.2861 -0.2326
 2308SOL    HW112054   7.111   2.808   9.622  0.3413  0.5964  1.1382
 2308SOL    HW212055   6.978   2.844   9.560  1.6019 -1.2243 -2.8202
 2309SOL     OW12056   2.049   8.474   6.196  0.7241 -0.6760 -0.4745
 2309SOL    HW112057   2.083   8.404   6.140 -0.4914 -0.6751 -1.2256
 2309SOL    HW212058   1.954   8.469   6.186  0.5159 -0.3303  1.1837
 2310SOL     OW12059  10.608  11.312   6.084  0.4659  0.0563  0.0639
 2310SOL    HW112060  10.673  11.270   6.141  1.6452  2.1369  0.2724
 2310SOL    HW212061  10.575  11.240   6.029  0.2433 -1.7234  2.4550
 2311SOL     OW12062   0.685   2.535   7.101 -0.2441  0.2628 -0.8599
 2311SOL    HW112063   0.726   2.450   7.086 -0.5262  0.2652 -1.6802
 2311SOL    HW212064   0.591   2.517   7.099 -0.3254  0.1410  1.6604
 2312SOL     OW12065   8.634  10.436   7.492 -0.0384  0.6251 -0.0963
 2312SOL    HW112066   8.566  10.436   7.426 -0.2006  1.7587  0.0715
 2312SOL    HW212067   8.700  10.498   7.460  0.7496 -0.1850 -0.0843
 2313SOL     OW12068   0.828   3.823   2.854 -0.2686 -0.1125 -0.1049
 2313SOL    HW112069   0.758   3.807   2.791 -0.1360  0.0500 -0.2945
 2313SOL    HW212070   0.865   3.737   2.871  0.5646 -0.0055 -1.2634
 2314SOL     OW12071   2.921   7.341   9.126  0.1505  0.2485  0.5164
 2314SOL    HW112072   2.890   7.428   9.153  0.2111  0.0763  1.1367
 2314SOL    HW212073   3.009   7.356   9.092 -0.6111  0.7601 -1.3412
 2315SOL     OW12074   4.640   4.387   6.434 -0.0916 -0.0699  0.6345
 2315SOL    HW112075   4.623   4.364   6.526  1.9560 -3.0880  0.3529
 2315SOL    HW212076   4.697   4.463   6.439 -0.2386 -0.0262  1.8683
 2316SOL     OW12077   5.018   4.724   7.601  0.3423 -0.1030 -0.8351
 2316SOL    HW112078   5.021   4.750   7.693  2.1098 -0.2870 -0.8237
 2316SOL    HW212079   4.932   4.683   7.590 -0.7866  1.9493  0.1596
 2317SOL     OW12080   5.708   8.063   2.769 -0.1869 -0.0403  0.4607
 2317SOL    HW112081   5.797   8.028   2.768  0.2440  1.0312 -1.4798
 2317SOL    HW212082   5.720   8.158   2.765 -1.4084  0.1462  1.1111
 2318SOL     OW12083   2.389   8.977   5.456  0.1790  0.0375 -0.0446
 2318SOL    HW112084   2.473   8.940   5.483  1.4308  2.5204 -0.4529
 2318SOL    HW212085   2.352   8.911   5.397  0.9402 -1.9316  1.6005
 2319SOL     OW12086   0.156  11.127   2.367 -0.2530  0.6075  0.6117
 2319SOL    HW112087   0.199  11.191   2.312 -0.5151 -0.9694 -1.4840
 2319SOL    HW212088   0.156  11.166   2.455 -2.3506  4.4331 -0.9749
 2320SOL     OW12089   1.854   0.693   3.838  0.5617  0.4577 -0.2450
 2320SOL    HW112090   1.799   0.627   3.798  1.2198 -0.2919  0.0752
 2320SOL    HW212091   1.806   0.775   3.826 -1.7869 -0.4921  2.1126
 2321SOL     OW12092   4.507   4.603   0.289 -0.4594  0.8958  0.0760
 2321SOL    HW112093   4.548   4.679   0.246 -0.8854  2.6311  2.6189
 2321SOL    HW212094   4.570   4.575   0.355 -1.0549  0.1426  0.3360
 2322SOL     OW12095   3.043  10.864   5.819 -0.2999  0.0149  0.3277
 2322SOL    HW112096   2.975  10.907   5.872 -0.9434  0.5468 -0.9023
 2322SOL    HW212097   3.007  10.777   5.800  0.1477 -0.3543  1.1800
 2323SOL     OW12098   6.944   9.967  11.263 -0.4988  0.0202 -0.7162
 2323SOL    HW112099   7.013  10.008  11.211 -0.1127  1.0572  0.6001
 2323SOL    HW212100   6.868  10.023  11.251 -0.6533 -0.2097 -0.8289
 2324SOL     OW12101   0.547   8.373   2.534 -0.7831  0.0899 -0.3404
 2324SOL    HW112102   0.618   8.310   2.548 -1.0021 -0.4896 -1.7210
 2324SOL    HW212103   0.477   8.344   2.592 -0.5076 -0.3426 -0.2234
 2325SOL     OW12104   8.873   9.677   7.525  0.0360 -0.3609 -0.4025
 2325SOL    HW112105   8.869   9.703   7.433 -0.2789  2.1053  0.2677
 2325SOL    HW212106   8.935   9.738   7.564 -0.9171 -0.4417  1.2959
 2326SOL     OW12107   3.695   9.200   2.352  0.5125 -0.0403 -0.4704
 2326SOL    HW112108   3.693   9.284   2.307 -0.4889  0.4164  0.3971
 2326SOL    HW212109   3.785   9.169   2.342  1.3137  1.8625  0.5337
 2327SOL     OW12110   7.731   4.194   9.192  0.2822  0.0152 -0.0650
 2327SOL    HW112111   7.711   4.112   9.145  2.8966 -0.4246 -0.5260
 2327SOL    HW212112   7.800   4.169   9.254 -1.7022  1.0493  2.6428
 2328SOL     OW12113   2.935   3.909   7.542  0.5434 -0.3009 -0.5788
 2328SOL    HW112114   3.005   3.845   7.551  0.3840 -0.2501  1.2835
 2328SOL    HW212115   2.870   3.866   7.486  1.0740 -1.2081 -0.4989
 2329SOL     OW12116   1.865   4.494   4.941 -0.5329 -0.5475 -0.1198
 2329SOL    HW112117   1.881   4.582   4.973  0.8213 -0.8091 -0.0606
 2329SOL    HW212118   1.946   4.469   4.897 -1.0883 -1.5660 -0.5885
 2330SOL     OW12119   4.563   4.981   7.571  0.9294 -0.5684  0.0412
 2330SOL    HW112120   4.630   4.929   7.528  1.3003 -1.2252  1.3847
 2330SOL    HW212121   4.526   4.923   7.637 -0.2720  0.1169 -0.0160
 2331SOL     OW12122   9.736   1.683   2.769 -0.1852  0.1970  0.2488
 2331SOL    HW112123   9.723   1.772   2.735  0.0737  0.5373  1.0438
 2331SOL    HW212124   9.828   1.664   2.751 -0.3552 -0.0876 -0.3349
 2332SOL     OW12125  11.190   1.680   1.435  0.1226  0.1903  0.5179
 2332SOL    HW112126  11.112   1.627   1.417  0.7214 -0.6431  0.3503
 2332SOL    HW212127  11.250   1.660   1.363  0.3197  1.1714  0.4047
 2333SOL     OW12128   5.205   1.920   8.458  0.1981  0.3264  0.0698
 2333SOL    HW112129   5.176   1.923   8.549  3.0315 -0.2276  1.0409
 2333SOL    HW212130   5.223   2.011   8.436 -1.0933  0.5354 -0.1631
 2334SOL     OW12131  10.638   5.045  10.936 -0.0681  0.4773  0.1443
 2334SOL    HW112132  10.589   5.056  10.854  1.1089 -0.7725 -0.7657
 2334SOL    HW212133  10.629   4.952  10.957  2.6038  0.0210 -0.5192
 2335SOL     OW12134   8.482   5.664  11.198 -0.5498  0.2019 -0.4586
 2335SOL    HW112135   8.545   5.707  11.140 -1.6675  1.7884 -0.5141
 2335SOL    HW212136   8.458   5.584  11.151  0.9264 -0.0980 -0.7301
 2336SOL     OW12137   0.011   4.448   1.734  0.4886 -0.1529  0.2081
 2336SOL    HW112138   0.101   4.463   1.763 -0.2812 -1.3515  3.3711
 2336SOL    HW212139  -0.044   4.475   1.807 -1.8267  1.5393 -2.0524
 2337SOL     OW12140   5.147   3.671   6.178 -0.1229  0.1759 -0.1107
 2337SOL    HW112141   5.211   3.717   6.123 -1.4228  1.0488 -0.9220
 2337SOL    HW212142   5.063   3.685   6.134 -0.9096 -0.7909  1.0484
 2338SOL     OW12143   7.663   2.861   8.137  0.0275 -0.0267 -0.3287
 2338SOL    HW112144   7.620   2.780   8.109 -1.6676  0.4196  0.8745
 2338SOL    HW212145   7.605   2.931   8.105  1.6065  0.7480 -1.5936
 2339SOL     OW12146   6.976   5.709   7.831 -0.2220  1.0688  0.2412
 2339SOL    HW112147   7.009   5.662   7.908 -0.0992  0.7867  0.0155
 2339SOL    HW212148   6.930   5.643   7.780  3.1395  0.3310 -1.9857
 2340SOL     OW12149   4.822   6.314   2.971  0.0712 -0.2712 -0.3888
 2340SOL    HW112150   4.881   6.374   3.015  0.3531  0.6879 -2.0438
 2340SOL    HW212151   4.806   6.244   3.035  3.1151 -0.6328  0.0462
 2341SOL     OW12152  10.269   5.694   0.479 -0.2167 -0.2701  0.5291
 2341SOL    HW112153  10.228   5.608   0.489 -2.8931  0.9786  0.9266
 2341SOL    HW212154  10.324   5.703   0.557  0.9116 -2.0275 -0.0392
 2342SOL     OW12155   9.821   9.562   8.069 -0.0903 -0.1759 -0.0262
 2342SOL    HW112156   9.785   9.614   7.996  0.6054  0.3188 -0.0228
 2342SOL    HW212157   9.911   9.593   8.077  0.3353 -1.4088 -0.0319
 2343SOL     OW12158   5.393   6.626   2.381 -0.1784 -0.1562  0.0032
 2343SOL    HW112159   5.350   6.545   2.411 -0.6644 -0.4932 -1.5760
 2343SOL    HW212160   5.442   6.600   2.304  0.2997  0.9056 -0.0507
 2344SOL     OW12161   3.406   4.464   2.794  0.2058  0.4623  0.7156
 2344SOL    HW112162   3.354   4.405   2.740 -0.6180  0.7375  1.1939
 2344SOL    HW212163   3.383   4.552   2.763  0.3735  0.5843  0.9324
 2345SOL     OW12164   6.653  10.331   1.010 -0.0128  0.1542  0.2255
 2345SOL    HW112165   6.669  10.238   0.997 -0.9837 -0.2365  1.6824
 2345SOL    HW212166   6.574  10.349   0.959 -1.3035 -0.4122  1.9630
 2346SOL     OW12167  11.205   8.588   3.949 -0.4668  0.0048 -0.7069
 2346SOL    HW112168  11.201   8.499   3.985 -1.0038 -0.4040 -1.7343
 2346SOL    HW212169  11.298   8.612   3.953 -0.6771  0.4761  2.0901
 2347SOL     OW12170   7.670   9.992  10.182 -0.0182 -0.2825  0.3552
 2347SOL    HW112171   7.706   9.904  10.169 -2.3851 -0.8693 -2.7334
 2347SOL    HW212172   7.621   9.986  10.264 -1.2456 -2.2440 -0.4966
 2348SOL     OW12173   7.945   7.471   6.232 -0.3570  0.7392 -0.0609
 2348SOL    HW112174   7.881   7.543   6.225 -0.1828  0.9648  0.5718
 2348SOL    HW212175   7.937   7.441   6.323 -1.1689 -0.7448 -0.6108
 2349SOL     OW12176   5.427   1.363   9.748 -0.2975  0.3195  0.4652
 2349SOL    HW112177   5.508   1.413   9.764 -0.4995  0.5103  0.9179
 2349SOL    HW212178   5.450   1.302   9.678 -0.3303  1.7292 -0.8038
 2350SOL     OW12179   9.361   9.003   5.358  0.0536  0.2709  0.8754
 2350SOL    HW112180   9.453   8.986   5.378  0.4558 -1.7394 -2.3544
 2350SOL    HW212181   9.363   9.059   5.281 -1.4061 -0.6985  0.1186
 2351SOL     OW12182   1.934   3.656   2.189  0.1378 -0.6114  0.6511
 2351SOL    HW112183   1.857   3.654   2.132 -0.2416 -1.0819  1.1804
 2351SOL    HW212184   1.964   3.565   2.192  1.1657 -0.3104 -0.1608
 2352SOL     OW12185   7.022   4.679   7.501  0.6659 -0.3111  0.2591
 2352SOL    HW112186   7.012   4.759   7.553  0.6640 -0.1825  0.0642
 2352SOL    HW212187   6.934   4.661   7.468  0.6419 -0.4688  0.4118
 2353SOL     OW12188   3.733   2.255   4.691  0.2401  0.1265 -0.3070
 2353SOL    HW112189   3.775   2.339   4.711  0.9931 -0.9741  3.0904
 2353SOL    HW212190   3.646   2.263   4.730  0.2759 -0.6383 -0.0802
 2354SOL     OW12191   7.979   5.813   1.404  0.9670  0.1807  0.3455
 2354SOL    HW112192   8.067   5.803   1.441  1.2969 -0.2509 -0.5557
 2354SOL    HW212193   7.994   5.834   1.312  0.1322  0.7629  0.3365
 2355SOL     OW12194   9.161   0.189   0.858  0.5028  0.1208 -0.5059
 2355SOL    HW112195   9.245   0.147   0.875  0.3226  0.4126  1.1652
 2355SOL    HW212196   9.097   0.118   0.867  0.5765 -0.1983 -2.2119
 2356SOL     OW12197   5.937   3.022   5.624  0.3146  0.4799 -0.1902
 2356SOL    HW112198   5.972   3.099   5.669  0.1360  0.6150 -0.2825
 2356SOL    HW212199   5.908   2.965   5.694 -1.7890  1.5464 -0.1715
 2357SOL     OW12200   8.802   5.670   9.784  0.1046  0.1500  0.7071
 2357SOL    HW112201   8.747   5.742   9.815 -0.4723  1.5613 -3.2777
 2357SOL    HW212202   8.743   5.594   9.784 -0.3208  0.4715  1.5115
 2358SOL     OW12203   0.990   4.830   2.785  0.0008 -0.4332 -0.0159
 2358SOL    HW112204   1.038   4.874   2.855  2.1073 -0.6668 -1.2822
 2358SOL    HW212205   1.024   4.868   2.704 -1.1552 -1.3997 -0.9738
 2359SOL     OW12206   3.523   8.630   9.430  0.6941  0.6081 -0.2381
 2359SOL    HW112207   3.470   8.575   9.372 -1.0146  0.8253  1.0940
 2359SOL    HW212208   3.567   8.691   9.370  1.7431 -1.4391 -1.6179
 2360SOL     OW12209   5.874   2.896   5.913 -0.1771 -0.2003  0.1574
 2360SOL    HW112210   5.820   2.817   5.917 -0.6792  0.1010 -0.6326
 2360SOL    HW212211   5.842   2.951   5.985 -0.2201 -0.4650  0.3394
 2361SOL     OW12212   6.481   3.498   1.295 -0.2913  0.2099  0.3297
 2361SOL    HW112213   6.546   3.460   1.236 -1.2463  0.0922 -0.6574
 2361SOL    HW212214   6.524   3.576   1.331  0.5830 -0.1584  0.1025
 2362SOL     OW12215  10.342   7.029   3.090  0.2892 -0.8153  0.4719
 2362SOL    HW112216  10.301   7.013   3.175  1.3385  2.0352  1.5866
 2362SOL    HW212217  10.433   7.003   3.102  0.2719 -1.0847  0.0058
 2363SOL     OW12218   2.108   4.314   6.223  0.4705 -0.7547 -0.0857
 2363SOL    HW112219   2.036   4.315   6.287  2.5792 -0.4134  2.3634
 2363SOL    HW212220   2.065   4.329   6.139 -2.4167 -1.3159  1.2099
 2364SOL     OW12221  10.123   4.443   8.653  0.1092 -0.1334 -0.3746
 2364SOL    HW112222  10.169   4.403   8.580  1.3426  0.1381  0.2392
 2364SOL    HW212223  10.173   4.416   8.731 -0.6866  0.2758  0.2868
 2365SOL     OW12224  10.117   4.116   8.578  0.1118  0.8850 -0.3014
 2365SOL    HW112225  10.074   4.097   8.662  0.2563  0.8857 -0.2261
 2365SOL    HW212226  10.208   4.137   8.603  0.2938  0.3391 -0.5132
 2366SOL     OW12227   3.374   7.303   9.264 -0.2832  0.5191 -1.2547
 2366SOL    HW112228   3.293   7.278   9.220  0.0625 -0.5063 -1.3242
 2366SOL    HW212229   3.346   7.343   9.346 -0.8540 -0.2953 -1.0497
 2367SOL     OW12230   5.880   3.919   0.623  0.4794 -0.0936 -0.0340
 2367SOL    HW112231   5.844   3.840   0.583  0.1780  0.1927 -0.3247
 2367SOL    HW212232   5.809   3.983   0.618 -0.3676 -0.7236  3.0021
 2368SOL     OW12233   8.499  10.967   8.355 -0.0868 -0.5347  0.7648
 2368SOL    HW112234   8.529  10.932   8.271  0.3930 -1.9166  1.5007
 2368SOL    HW212235   8.405  10.948   8.357 -0.3885  0.7950 -0.0749
 2369SOL     OW12236  10.771   0.753   9.878 -0.3441  0.0975 -0.2718
 2369SOL    HW112237  10.788   0.663   9.848  1.4676 -0.2158  1.5593
 2369SOL    HW212238  10.856   0.783   9.911 -1.4401  1.7151  1.1347
 2370SOL     OW12239   3.609   7.236   9.394  0.2121 -0.1925  0.0795
 2370SOL    HW112240   3.535   7.251   9.335  0.5394  1.6760  0.0932
 2370SOL    HW212241   3.640   7.148   9.372 -0.1783  0.1499 -1.9782
 2371SOL     OW12242   9.948   7.601   0.708  0.0097 -0.2674  0.0576
 2371SOL    HW112243   9.927   7.685   0.667  1.8891 -0.4687 -1.4406
 2371SOL    HW212244  10.008   7.559   0.646  2.4460 -0.8927  2.7334
 2372SOL     OW12245   8.668   4.408   8.755  0.4775  0.5821 -0.1060
 2372SOL    HW112246   8.671   4.394   8.850 -1.6235 -1.3003 -0.2828
 2372SOL    HW212247   8.734   4.348   8.721  0.0920  0.0624  0.0530
 2373SOL     OW12248   5.787   7.504   4.212  0.0659  0.7660 -0.3175
 2373SOL    HW112249   5.758   7.544   4.294  0.0324 -0.4868  0.3006
 2373SOL    HW212250   5.706   7.474   4.170  0.0472  1.7764 -1.0135
 2374SOL     OW12251   5.021   6.133   1.515  0.0657  0.2005 -0.1853
 2374SOL    HW112252   5.028   6.063   1.449  1.0188 -1.0331  1.2024
 2374SOL    HW212253   4.936   6.119   1.555  0.3447 -0.3236  0.2401
 2375SOL     OW12254   1.441   5.247   9.204 -0.2514 -0.1671 -0.2694
 2375SOL    HW112255   1.476   5.298   9.277  1.5775  0.5954 -1.6319
 2375SOL    HW212256   1.451   5.156   9.232 -2.3106  0.1525  1.6267
 2376SOL     OW12257   4.751   2.352  11.034 -0.3955 -0.4649 -0.0357
 2376SOL    HW112258   4.768   2.423  10.973 -0.8000  0.8876  1.3816
 2376SOL    HW212259   4.664   2.371  11.069  0.4083 -0.4003  2.0081
 2377SOL     OW12260   0.065   3.885   2.386 -0.0404 -0.1118 -1.0871
 2377SOL    HW112261   0.005   3.890   2.311 -1.1207  1.4680 -0.1388
 2377SOL    HW212262   0.068   3.974   2.421  0.0744 -0.9295  1.0576
 2378SOL     OW12263   2.941   0.732   5.579 -0.1603 -0.1253 -0.4209
 2378SOL    HW112264   2.993   0.681   5.516 -0.0145  1.1230 -1.3219
 2378SOL    HW212265   2.969   0.699   5.665  1.9809  0.3569 -0.8993
 2379SOL     OW12266   8.938   0.838   9.002  0.2669 -0.5785  0.1372
 2379SOL    HW112267   8.859   0.830   8.947 -0.0388  0.7434  0.3676
 2379SOL    HW212268   8.912   0.801   9.086  0.2130 -1.0691 -0.0892
 2380SOL     OW12269   1.535   6.286   3.301  0.1360 -0.0959  0.5251
 2380SOL    HW112270   1.541   6.359   3.240  0.6031 -0.1855  0.4673
 2380SOL    HW212271   1.502   6.325   3.382  1.3102  0.3483  0.7953
 2381SOL     OW12272   0.960   0.286   0.985  0.0744  0.2339  0.0338
 2381SOL    HW112273   0.942   0.304   1.077 -1.1589  1.3160 -0.4117
 2381SOL    HW212274   0.874   0.282   0.944  0.5334 -1.6740 -0.8278
 2382SOL     OW12275  11.026   6.523   9.701 -0.1713 -0.1380  0.1749
 2382SOL    HW112276  10.935   6.494   9.695 -0.1263 -0.3586  0.5429
 2382SOL    HW212277  11.065   6.465   9.766  0.7993 -1.4493 -1.5543
 2383SOL     OW12278   4.928   5.161   3.582 -0.1634  0.3686 -0.0328
 2383SOL    HW112279   4.910   5.232   3.520 -1.8896  0.4452  0.5304
 2383SOL    HW212280   4.926   5.203   3.668 -0.0417 -0.1629  0.2321
 2384SOL     OW12281  10.219   2.675   2.550 -0.4525  0.6567 -0.6652
 2384SOL    HW112282  10.149   2.739   2.540 -0.3607  0.9684  0.5327
 2384SOL    HW212283  10.290   2.723   2.593  0.1003  0.0862 -0.9274
 2385SOL     OW12284  10.767   1.729  10.654 -0.3825  0.0346  0.0160
 2385SOL    HW112285  10.688   1.717  10.707  0.3687  0.4658  1.2648
 2385SOL    HW212286  10.826   1.777  10.712  0.4032  0.6333 -1.2833
 2386SOL     OW12287  10.336   6.302   8.683 -0.5081 -0.2187  0.0451
 2386SOL    HW112288  10.330   6.391   8.646  0.6366 -0.3317 -0.4073
 2386SOL    HW212289  10.261   6.297   8.743 -1.7752  0.3365 -1.4562
 2387SOL     OW12290   1.749   9.429   5.846 -0.0446 -0.2542  0.4119
 2387SOL    HW112291   1.834   9.469   5.828 -0.3484 -0.0854 -0.6978
 2387SOL    HW212292   1.731   9.375   5.770 -0.7819 -0.5552  0.7918
 2388SOL     OW12293   0.887   7.449   8.297  0.1363  0.1108 -0.9158
 2388SOL    HW112294   0.894   7.424   8.206  0.1021 -0.5036 -0.7477
 2388SOL    HW212295   0.818   7.516   8.298 -0.6712 -0.7106 -1.1701
 2389SOL     OW12296   4.111   7.603   9.784  0.1182  0.6064 -0.0555
 2389SOL    HW112297   4.141   7.536   9.722 -0.3134  0.9222 -0.6130
 2389SOL    HW212298   4.089   7.678   9.729 -2.0271  0.2716  0.3045
 2390SOL     OW12299   2.374   9.539   6.792  0.2319  0.1092 -0.5563
 2390SOL    HW112300   2.407   9.452   6.770  0.6474  0.5807 -1.8718
 2390SOL    HW212301   2.453   9.593   6.799  0.0664  0.1132  1.5283
 2391SOL     OW12302   4.744   8.739  10.909  0.3717  0.2296 -0.5487
 2391SOL    HW112303   4.695   8.813  10.873 -0.4883 -0.1607 -0.2149
 2391SOL    HW212304   4.740   8.752  11.004 -0.4799 -0.6677 -0.4540
 2392SOL     OW12305   1.421   4.192   1.656 -0.2117 -0.0366  0.1016
 2392SOL    HW112306   1.416   4.099   1.634  0.2032 -0.3192  1.1893
 2392SOL    HW212307   1.361   4.234   1.594 -1.9616 -1.2641  0.9155
 2393SOL     OW12308   7.824   4.091  11.026 -0.0974 -0.2857 -0.1969
 2393SOL    HW112309   7.897   4.153  11.032 -0.4247 -0.1113  2.2549
 2393SOL    HW212310   7.867   4.005  11.020  0.3139 -0.0329 -1.0161
 2394SOL     OW12311  10.699   5.150   1.265  0.3782 -0.3500  0.7326
 2394SOL    HW112312  10.696   5.154   1.361  1.5859 -0.3394  0.7757
 2394SOL    HW212313  10.693   5.056   1.245  0.2299 -0.3599  0.8225
 2395SOL     OW12314  11.158   7.505   8.791 -0.6111  0.9100 -0.3183
 2395SOL    HW112315  11.188   7.487   8.702 -3.9963 -1.4250 -1.0967
 2395SOL    HW212316  11.165   7.600   8.800 -0.8212  1.2664 -3.3076
 2396SOL     OW12317   7.080  10.827   8.727 -0.0903  0.5617 -0.0793
 2396SOL    HW112318   7.056  10.844   8.635  1.6358  1.1872 -0.4259
 2396SOL    HW212319   7.003  10.783   8.763 -1.0104  0.7922 -1.6831
 2397SOL     OW12320   7.315   6.698   4.236 -0.3985  0.5348 -0.0295
 2397SOL    HW112321   7.402   6.729   4.211 -0.5461  1.5762  0.7170
 2397SOL    HW212322   7.304   6.616   4.188  2.1342 -1.0879  2.0065
 2398SOL     OW12323   0.616   5.549   6.619  0.1706  0.0987  0.4842
 2398SOL    HW112324   0.618   5.464   6.663  0.0942  0.0529  0.3967
 2398SOL    HW212325   0.704   5.560   6.584 -0.4207 -0.9501 -1.4356
 2399SOL     OW12326   9.690  10.284   0.577 -0.3385  0.2158 -0.2183
 2399SOL    HW112327   9.749  10.287   0.653  0.4939  1.9602 -0.8946
 2399SOL    HW212328   9.602  10.280   0.615  0.0138  2.2456  0.8673
 2400SOL     OW12329  10.436   4.832   9.196 -0.4603 -0.3571  0.1392
 2400SOL    HW112330  10.391   4.760   9.153 -1.1107  0.1018  0.0384
 2400SOL    HW212331  10.517   4.794   9.230  0.0053 -0.7464 -1.3746
 2401SOL     OW12332   2.909   0.908   2.842  0.1466 -0.4298 -0.4304
 2401SOL    HW112333   2.866   0.839   2.893 -2.5100  0.4223 -1.3962
 2401SOL    HW212334   2.860   0.987   2.863  1.3995  0.6428 -1.4497
 2402SOL     OW12335   3.629   4.198   3.283 -0.4873  0.6198 -0.3663
 2402SOL    HW112336   3.556   4.179   3.342 -0.2561  2.0868  0.4302
 2402SOL    HW212337   3.601   4.277   3.236  0.5669  1.1711 -0.0744
 2403SOL     OW12338   2.288   2.310   2.937  0.5520  0.0765 -0.2082
 2403SOL    HW112339   2.268   2.347   2.851  0.1847  0.0372 -0.1402
 2403SOL    HW212340   2.225   2.351   2.996 -0.8336 -1.7597 -0.3744
 2404SOL     OW12341   5.087  10.936  10.052 -0.1811  0.1970  0.2090
 2404SOL    HW112342   5.133  10.912   9.972  1.5806 -0.1658  1.3057
 2404SOL    HW212343   4.995  10.946  10.025  0.2784 -0.5556 -1.7041
 2405SOL     OW12344   8.251   5.271   6.246 -0.0429 -0.5632 -0.5598
 2405SOL    HW112345   8.290   5.346   6.200  2.3694 -2.3085 -1.4815
 2405SOL    HW212346   8.283   5.279   6.336  1.7076 -1.4223 -1.0760
 2406SOL     OW12347  10.111   2.494   9.055  0.6887  0.0886  0.2106
 2406SOL    HW112348  10.203   2.520   9.052  0.7078 -0.0395 -0.3199
 2406SOL    HW212349  10.102   2.428   8.987  0.7486 -1.6637  1.8435
 2407SOL     OW12350  10.681   0.368   3.015 -0.6790 -0.0283 -0.2104
 2407SOL    HW112351  10.731   0.390   3.094 -2.1938  1.6450  0.3073
 2407SOL    HW212352  10.652   0.278   3.028 -2.2478  0.7590  1.8646
 2408SOL     OW12353   9.268  10.700   7.962  0.3220 -0.3983  0.0291
 2408SOL    HW112354   9.348  10.694   7.910  1.3276 -0.4530  1.5449
 2408SOL    HW212355   9.276  10.631   8.028 -1.4904 -1.1279 -0.4662
 2409SOL     OW12356  11.158  11.240   2.386 -0.2170 -0.0253 -0.9248
 2409SOL    HW112357  11.200  11.237   2.472  1.1269 -0.0249 -1.5673
 2409SOL    HW212358  11.065  11.251   2.405  0.2706  1.8837  0.4836
 2410SOL     OW12359   0.026   3.717   1.282 -0.2210 -0.3087 -0.2712
 2410SOL    HW112360  -0.038   3.702   1.351  0.4426 -0.8233  0.2367
 2410SOL    HW212361   0.036   3.632   1.239 -0.4865 -0.0376 -0.8826
 2411SOL     OW12362  10.051   9.902   4.618 -0.0063  0.4048  0.2502
 2411SOL    HW112363  10.105   9.906   4.697 -0.8705  1.6394  0.7740
 2411SOL    HW212364  10.069   9.984   4.572 -1.5851  0.9056  0.5244
 2412SOL     OW12365  11.095   5.010  11.077 -0.1953  0.2410  0.0723
 2412SOL    HW112366  11.156   5.055  11.019 -0.9234  0.7556 -0.3084
 2412SOL    HW212367  11.140   4.929  11.101  0.2516  0.1735 -0.9566
 2413SOL     OW12368   6.744   0.100   0.252  0.0063 -0.0004  0.3807
 2413SOL    HW112369   6.705   0.014   0.242 -0.0402 -0.0000  0.5540
 2413SOL    HW212370   6.779   0.121   0.166 -1.1791  0.3846 -0.0205
 2414SOL     OW12371   2.198   3.660  10.439  0.5428 -0.0038 -0.1184
 2414SOL    HW112372   2.282   3.642  10.397 -0.3453  0.4759 -2.1633
 2414SOL    HW212373   2.148   3.708  10.373 -1.7768 -1.3129  0.6334
 2415SOL     OW12374   2.008   0.508   6.762  0.9395  0.2185 -0.2122
 2415SOL    HW112375   2.049   0.593   6.744  1.4692 -0.2381 -1.2023
 2415SOL    HW212376   1.939   0.527   6.825  2.2879  1.1051  1.0336
 2416SOL     OW12377   1.212   8.799   6.741 -0.7268 -0.3428  0.2193
 2416SOL    HW112378   1.294   8.754   6.721 -1.2207 -1.0772 -0.1428
 2416SOL    HW212379   1.171   8.813   6.655 -0.9581  0.0814  0.3957
 2417SOL     OW12380   6.958   2.211   2.370  0.1086 -0.4314  0.3194
 2417SOL    HW112381   6.981   2.217   2.463 -0.5372 -2.2894  0.6047
 2417SOL    HW212382   6.863   2.206   2.369  0.0470  0.7229 -0.5231
 2418SOL     OW12383   2.257  10.763   9.920  0.2666  0.7293  0.7009
 2418SOL    HW112384   2.320  10.704   9.961 -0.9988  0.0519  1.6690
 2418SOL    HW212385   2.310  10.840   9.894  1.8240 -0.5824 -0.1300
 2419SOL     OW12386   9.427  10.871   7.143  0.0641  0.4302  0.2740
 2419SOL    HW112387   9.450  10.920   7.223 -1.5981  2.2134 -0.3084
 2419SOL    HW212388   9.503  10.815   7.127  1.0634  1.1632  2.2595
 2420SOL     OW12389   1.102   7.185   9.602 -0.7371  0.0991  0.0373
 2420SOL    HW112390   1.091   7.206   9.510 -1.5554  0.6063  0.2386
 2420SOL    HW212391   1.012   7.173   9.635 -0.5028  0.6515  0.9206
 2421SOL     OW12392   0.605   8.197   7.452 -0.9415 -0.5010  0.1145
 2421SOL    HW112393   0.681   8.165   7.499 -1.0824 -1.2233 -0.1390
 2421SOL    HW212394   0.639   8.265   7.393 -0.7921  0.4992  1.3414
 2422SOL     OW12395   3.323   1.073   5.657 -0.4783 -0.3617 -0.1615
 2422SOL    HW112396   3.303   1.159   5.692  0.4864 -0.2062  0.0249
 2422SOL    HW212397   3.286   1.012   5.721  0.7606 -0.0765  0.8426
 2423SOL     OW12398   8.026   9.750   0.315  0.5562  0.0330  0.7762
 2423SOL    HW112399   8.058   9.829   0.271  0.1313 -0.2576 -0.0513
 2423SOL    HW212400   8.090   9.735   0.385  0.7796  0.9647  0.7879
 2424SOL     OW12401   7.405   6.860   0.022 -0.6057  0.8276 -0.3395
 2424SOL    HW112402   7.436   6.776  -0.010 -0.8752  0.4270  0.4332
 2424SOL    HW212403   7.473   6.890   0.082 -0.8786  0.7844 -0.0085
 2425SOL     OW12404   1.884   5.972   8.710 -0.0509  0.6543 -0.3770
 2425SOL    HW112405   1.945   6.044   8.694 -0.6341  1.4663  0.9466
 2425SOL    HW212406   1.862   5.938   8.623  0.1607  2.1263 -1.0096
 2426SOL     OW12407   6.210  11.246   4.487 -0.6394 -0.8066 -0.1283
 2426SOL    HW112408   6.190  11.182   4.555  0.9091 -1.6769 -0.4800
 2426SOL    HW212409   6.301  11.270   4.502 -0.5967 -0.2225 -1.2467
 2427SOL     OW12410   1.353   2.966   6.066 -0.2347  0.4307  0.6064
 2427SOL    HW112411   1.432   2.946   6.118 -1.2201 -1.5174  1.3718
 2427SOL    HW212412   1.351   3.062   6.064  1.5847  0.5225  1.4631
 2428SOL     OW12413   8.769   1.533  11.202 -0.0953  0.3693  0.3377
 2428SOL    HW112414   8.717   1.536  11.282 -2.3653 -1.0531 -1.0044
 2428SOL    HW212415   8.811   1.447  11.203  1.9180  1.3423  1.1999
 2429SOL     OW12416   1.670   8.086   0.228 -0.8513 -0.1650  0.2570
 2429SOL    HW112417   1.708   8.117   0.146  0.3021 -1.1414  0.4120
 2429SOL    HW212418   1.692   7.993   0.231  1.7219  0.4349  3.0681
 2430SOL     OW12419   1.427   7.295   5.104  0.2909 -0.2287  0.0728
 2430SOL    HW112420   1.484   7.346   5.160 -0.9064 -0.2143  1.2978
 2430SOL    HW212421   1.384   7.360   5.048  2.9383 -0.4006 -2.2761
 2431SOL     OW12422   7.029  11.176   2.824  0.1780  0.3389  0.6880
 2431SOL    HW112423   6.999  11.086   2.837  0.6309  0.2252  0.9633
 2431SOL    HW212424   6.962  11.217   2.769  0.8085 -0.6526 -0.8501
 2432SOL     OW12425   1.502  10.597   3.068  0.2224  0.1181 -0.1266
 2432SOL    HW112426   1.456  10.584   2.985  0.8606 -0.5806 -0.3837
 2432SOL    HW212427   1.433  10.594   3.134 -0.3258  0.9512 -0.6468
 2433SOL     OW12428   8.315   0.631   4.910 -0.6538  0.3530 -0.6280
 2433SOL    HW112429   8.268   0.661   4.988 -0.9183  0.6719 -0.9059
 2433SOL    HW212430   8.292   0.695   4.842 -1.1723 -0.4517 -1.2192
 2434SOL     OW12431   3.338   2.758   1.256  0.1137 -0.0340  0.9146
 2434SOL    HW112432   3.335   2.699   1.331  0.4914  0.0439  0.9905
 2434SOL    HW212433   3.383   2.836   1.289 -0.9619  0.5628  1.0052
 2435SOL     OW12434   6.997   3.132   6.438  0.3811  0.5814 -0.2763
 2435SOL    HW112435   7.049   3.151   6.516 -2.8516  1.9402  1.7021
 2435SOL    HW212436   7.017   3.204   6.378  1.7931  0.3420 -0.1015
 2436SOL     OW12437   0.235   8.739   1.619 -0.2928 -0.6580 -0.2621
 2436SOL    HW112438   0.152   8.787   1.615  0.2138  0.3371  1.0168
 2436SOL    HW212439   0.271   8.747   1.530 -1.5728 -1.1428 -0.8391
 2437SOL     OW12440   9.285   4.764   2.673  0.3521 -0.0413 -0.2270
 2437SOL    HW112441   9.282   4.764   2.769 -2.9000  0.6131 -0.2996
 2437SOL    HW212442   9.230   4.690   2.647 -1.8861  2.0596 -1.6393
 2438SOL     OW12443   9.520   1.073   2.037 -0.4700 -0.1624 -0.5031
 2438SOL    HW112444   9.609   1.109   2.038 -1.3432  2.0290  0.6475
 2438SOL    HW212445   9.501   1.056   1.945  0.6050  0.7300 -0.8941
 2439SOL     OW12446   5.082   6.168   9.796  0.2140 -0.1288 -0.4683
 2439SOL    HW112447   5.089   6.242   9.856  1.9017 -0.3026 -0.4201
 2439SOL    HW212448   5.029   6.104   9.843 -0.1574  0.5260  0.0148
 2440SOL     OW12449   6.398   7.837  10.367  0.2467 -0.3970  0.5860
 2440SOL    HW112450   6.397   7.746  10.337  1.3138 -0.0196 -0.6733
 2440SOL    HW212451   6.490   7.863  10.358 -0.0901  0.8636  0.7784
 2441SOL     OW12452   8.540   7.965   1.862 -0.4241 -0.0556  0.0630
 2441SOL    HW112453   8.473   7.984   1.796 -0.0634 -0.7452 -0.5074
 2441SOL    HW212454   8.496   7.909   1.926 -1.0366  1.3431  0.9134
 2442SOL     OW12455   8.964   3.851   1.606  0.6254  0.4788  0.0537
 2442SOL    HW112456   8.921   3.935   1.622 -1.0989 -0.2033 -0.8723
 2442SOL    HW212457   9.040   3.873   1.553 -0.2486  1.3678 -0.8450
 2443SOL     OW12458   0.359   5.223   0.235  0.0857 -0.0122  0.1118
 2443SOL    HW112459   0.266   5.233   0.216 -0.2138 -1.0047  1.0220
 2443SOL    HW212460   0.362   5.190   0.324  1.2077 -2.4331 -0.7816
 2444SOL     OW12461   5.870   1.709  10.839 -0.1074 -0.7644 -0.5168
 2444SOL    HW112462   5.940   1.687  10.900 -0.5703 -0.3076  0.1887
 2444SOL    HW212463   5.851   1.802  10.856 -0.7952 -0.8520 -0.7859
 2445SOL     OW12464   4.091  10.994   9.819 -0.2963  0.1127  0.2540
 2445SOL    HW112465   4.074  10.912   9.866  0.6666  0.9535  2.1249
 2445SOL    HW212466   4.009  11.043   9.827 -0.9586 -0.7438 -1.0795
 2446SOL     OW12467   6.586   0.951   7.676  0.1136 -0.7711  0.2602
 2446SOL    HW112468   6.543   0.871   7.705  0.5232 -0.9250  0.4523
 2446SOL    HW212469   6.662   0.960   7.734 -0.5597  0.3698  0.9841
 2447SOL     OW12470   1.351   5.551   8.340  0.0443 -0.1949 -0.4660
 2447SOL    HW112471   1.383   5.640   8.325 -0.6861  0.3404  1.0622
 2447SOL    HW212472   1.311   5.525   8.257  0.6350  0.7524 -1.0466
 2448SOL     OW12473   2.752   0.915   3.136 -0.0928 -0.1120 -0.2387
 2448SOL    HW112474   2.689   0.868   3.081 -1.1827  1.5402 -0.4254
 2448SOL    HW212475   2.808   0.846   3.172 -1.3911 -1.5122 -0.8451
 2449SOL     OW12476   9.426   9.023   8.956  0.2355 -0.0540 -0.2768
 2449SOL    HW112477   9.357   9.025   8.890  0.6154  0.9376 -0.6504
 2449SOL    HW212478   9.410   8.943   9.005 -1.0437  0.0556 -0.5075
 2450SOL     OW12479   5.165   1.572   3.460 -0.4844 -0.2292  0.1116
 2450SOL    HW112480   5.083   1.526   3.442 -0.8058  0.2499  0.3224
 2450SOL    HW212481   5.139   1.663   3.473 -0.3066 -0.5457  2.9980
 2451SOL     OW12482   9.120   4.834   5.953 -0.1119  0.0930  0.0289
 2451SOL    HW112483   9.167   4.759   5.989 -1.8221 -0.8304  0.4477
 2451SOL    HW212484   9.135   4.829   5.858  2.1531  0.9320  0.3206
 2452SOL     OW12485   4.563   0.401   8.346  0.2068 -0.0154 -0.0844
 2452SOL    HW112486   4.597   0.490   8.354 -0.6620  0.5201 -1.8833
 2452SOL    HW212487   4.468   0.410   8.357  0.3461 -1.0977  2.2336
 2453SOL     OW12488  10.559   3.678   7.352  0.2892 -0.3916 -0.4466
 2453SOL    HW112489  10.528   3.692   7.263 -1.9865  0.1216  0.3889
 2453SOL    HW212490  10.566   3.766   7.389 -1.0006 -0.6967  0.5692
 2454SOL     OW12491   4.467   3.729   3.757  0.3966  0.5991  0.6310
 2454SOL    HW112492   4.512   3.775   3.686 -2.0158  3.3259  0.7897
 2454SOL    HW212493   4.416   3.661   3.712 -0.0958  1.4544 -0.1127
 2455SOL     OW12494  10.361  10.205   6.924  0.4194  0.4691 -0.5778
 2455SOL    HW112495  10.383  10.112   6.916 -0.2144  0.2889 -0.2392
 2455SOL    HW212496  10.440  10.250   6.893  0.1501 -0.1741 -2.2540
 2456SOL     OW12497   2.833   0.161   3.931 -0.6059 -0.3871  0.2304
 2456SOL    HW112498   2.801   0.102   3.999  2.2234 -0.4411  1.5834
 2456SOL    HW212499   2.906   0.207   3.972  1.3404 -0.6155 -2.8259
 2457SOL     OW12500  10.801   8.890  10.321 -0.0371 -0.3989  0.5209
 2457SOL    HW112501  10.758   8.886  10.236 -1.3094  3.1176  0.9116
 2457SOL    HW212502  10.734   8.861  10.383  0.7272 -2.4693  0.4100
 2458SOL     OW12503   3.549   4.507   8.011 -0.4442 -0.4722 -0.3307
 2458SOL    HW112504   3.513   4.529   8.097 -1.1852 -0.1417 -0.7206
 2458SOL    HW212505   3.567   4.413   8.016  1.2791 -0.1024  0.8157
 2459SOL     OW12506   3.507   8.564   1.434  0.8781  0.2601  0.3405
 2459SOL    HW112507   3.413   8.562   1.451  0.4201 -0.6101 -2.1977
 2459SOL    HW212508   3.534   8.653   1.455 -1.1567  1.5114 -2.2105
 2460SOL     OW12509   8.133   9.239   3.547 -0.5127 -0.3208 -0.3757
 2460SOL    HW112510   8.193   9.307   3.578 -1.0740  1.4959 -3.0765
 2460SOL    HW212511   8.171   9.210   3.464 -2.1208 -0.8114 -0.9508
 2461SOL     OW12512   7.874  10.290   4.912 -0.5031  0.6812  0.1359
 2461SOL    HW112513   7.956  10.334   4.938  0.6746  0.4739 -3.0003
 2461SOL    HW212514   7.844  10.246   4.992  3.4348 -0.7457  0.9526
 2462SOL     OW12515   1.601   9.634  10.520 -0.3617  0.0564 -0.6523
 2462SOL    HW112516   1.644   9.675  10.595 -0.5496  0.0968 -0.5636
 2462SOL    HW212517   1.596   9.541  10.543  0.7916 -0.1477 -1.2104
 2463SOL     OW12518  11.291   2.180   7.134 -0.1933  0.1683 -0.0034
 2463SOL    HW112519  11.359   2.156   7.070 -1.1278  0.4774 -1.1260
 2463SOL    HW212520  11.302   2.275   7.146  1.0826 -0.1675  1.6016
 2464SOL     OW12521   6.925   7.800   6.340  0.6901  0.3862 -0.0044
 2464SOL    HW112522   6.862   7.870   6.357 -0.5576 -0.5335 -0.8276
 2464SOL    HW212523   6.888   7.750   6.268  2.3299 -0.2170 -0.4633
 2465SOL     OW12524   3.922   6.692   6.513 -0.0489 -0.7169 -0.4595
 2465SOL    HW112525   3.965   6.768   6.552 -1.0498 -1.6834  2.6389
 2465SOL    HW212526   3.840   6.683   6.560  0.0355 -3.7159 -0.7681
 2466SOL     OW12527   9.909   5.354   8.264 -0.1023  0.6252 -0.2972
 2466SOL    HW112528   9.996   5.322   8.284  0.0908  1.6843  0.5459
 2466SOL    HW212529   9.922   5.443   8.232 -0.7642  0.3423 -1.4252
 2467SOL     OW12530   4.611  10.164   2.818  0.5527 -0.1465  0.1933
 2467SOL    HW112531   4.668  10.125   2.751 -1.7754  0.1664 -2.0612
 2467SOL    HW212532   4.660  10.240   2.850  1.5549 -0.0687 -1.4601
 2468SOL     OW12533   8.649   9.864   6.876 -0.2169  0.2449 -0.2974
 2468SOL    HW112534   8.625   9.955   6.893 -0.2866  0.2007 -0.1453
 2468SOL    HW212535   8.743   9.865   6.862 -0.1405  0.2694  0.2110
 2469SOL     OW12536   3.764   6.569   8.462  0.1896  0.1591  0.0435
 2469SOL    HW112537   3.749   6.580   8.556  1.4861 -0.1642  0.2875
 2469SOL    HW212538   3.694   6.509   8.434  0.1550 -0.2159  0.9036
 2470SOL     OW12539  10.258   1.827   8.422  0.7627 -0.2018 -0.0029
 2470SOL    HW112540  10.201   1.887   8.374  0.2146 -1.1005 -0.4914
 2470SOL    HW212541  10.322   1.884   8.465 -0.5733  0.8420  0.6653
 2471SOL     OW12542   2.190  10.627  10.482  0.1333 -0.2490 -0.1374
 2471SOL    HW112543   2.124  10.697  10.489 -0.8696 -1.2548  0.7585
 2471SOL    HW212544   2.160  10.573  10.410  0.6859  0.0104 -0.5620
 2472SOL     OW12545   6.097  10.854   2.032  0.2138 -0.0959 -0.6851
 2472SOL    HW112546   6.165  10.790   2.053  2.2022  1.7107 -1.3319
 2472SOL    HW212547   6.030  10.805   1.985  1.7480 -1.6662 -1.2657
 2473SOL     OW12548   8.237   1.636   3.135 -0.6707  0.2480 -0.4244
 2473SOL    HW112549   8.264   1.581   3.208 -1.9527 -0.7339 -0.6686
 2473SOL    HW212550   8.319   1.668   3.097  0.0324 -0.0653  0.8010
 2474SOL     OW12551   7.138   4.468  10.350  0.2866  0.2020 -0.1187
 2474SOL    HW112552   7.165   4.393  10.297 -0.5151  0.6881 -1.2352
 2474SOL    HW212553   7.052   4.492  10.316  0.2685  1.2473  0.6332
 2475SOL     OW12554   9.490   5.703   9.689  0.3694  0.2116  0.0345
 2475SOL    HW112555   9.524   5.716   9.601 -1.6155  0.3958 -0.7376
 2475SOL    HW212556   9.403   5.745   9.688 -1.3728 -3.1718  0.8723
 2476SOL     OW12557   6.895   4.831   5.475  0.0146  0.3033  0.2861
 2476SOL    HW112558   6.904   4.925   5.487 -1.4864  0.5342 -0.2764
 2476SOL    HW212559   6.942   4.792   5.549  2.2479  1.4427 -0.4916
 2477SOL     OW12560   8.883   5.790   8.712 -0.2960 -0.4452 -0.1386
 2477SOL    HW112561   8.947   5.788   8.783 -0.8872 -0.4744  0.3958
 2477SOL    HW212562   8.923   5.741   8.641  0.7117  0.4084 -0.1724
 2478SOL     OW12563   1.035   1.658  10.078  0.4178 -0.0917 -0.4567
 2478SOL    HW112564   0.990   1.731  10.121  0.7209  0.3781 -0.9318
 2478SOL    HW212565   1.002   1.580  10.123  0.5533  0.3737  0.4771
 2479SOL     OW12566   7.432   4.043   8.845  0.1507  0.1328  0.2946
 2479SOL    HW112567   7.348   4.065   8.806 -1.0570 -0.6632  2.3977
 2479SOL    HW212568   7.448   3.953   8.818  0.4277  0.3535 -0.2767
 2480SOL     OW12569   8.012   8.793   8.626 -0.1143  0.1589  0.1067
 2480SOL    HW112570   7.935   8.777   8.681 -0.1223  0.0890  0.0748
 2480SOL    HW212571   8.070   8.847   8.680 -0.7373  1.2898 -0.3181
 2481SOL     OW12572   3.649   1.464  10.612 -0.4614 -0.0280 -0.5018
 2481SOL    HW112573   3.633   1.516  10.533 -0.2538 -0.1647 -0.6358
 2481SOL    HW212574   3.743   1.446  10.609 -0.5747 -0.6148 -0.5826
 2482SOL     OW12575  10.551   0.044   8.321  0.3268 -0.0415 -0.1918
 2482SOL    HW112576  10.540   0.003   8.235  2.3172 -0.6884 -0.1695
 2482SOL    HW212577  10.645   0.041   8.336 -0.0063  0.1514  1.9830
 2483SOL     OW12578   3.339   3.695   5.664  0.5100  0.0716  0.0345
 2483SOL    HW112579   3.400   3.627   5.692  0.5329 -0.2009 -0.6912
 2483SOL    HW212580   3.298   3.661   5.585  2.0583  1.7620 -1.5298
 2484SOL     OW12581   7.746   3.962   8.519 -0.0585  0.6270  0.3126
 2484SOL    HW112582   7.816   3.986   8.457 -0.9346  0.9883 -0.5414
 2484SOL    HW212583   7.674   4.021   8.496 -0.9730 -0.3958  0.5780
 2485SOL     OW12584   8.840   9.413   7.901  0.9105 -0.3341 -0.6425
 2485SOL    HW112585   8.868   9.475   7.968  0.0636 -0.1052 -0.4900
 2485SOL    HW212586   8.749   9.435   7.885  1.5720  0.7028 -3.1001
 2486SOL     OW12587   1.425   6.843   2.656  0.2328 -0.2598  0.5289
 2486SOL    HW112588   1.387   6.872   2.739 -1.3342 -0.7606 -0.0037
 2486SOL    HW212589   1.464   6.922   2.618  0.8664 -0.0045  1.6822
 2487SOL     OW12590   1.656   4.769   0.730  0.8654  0.0804  0.0568
 2487SOL    HW112591   1.630   4.844   0.677 -0.6770  0.6593  1.6022
 2487SOL    HW212592   1.752   4.772   0.731  0.8047  2.5571  0.8504
 2488SOL     OW12593   4.942   5.000   4.023  0.4398 -0.7114 -0.3304
 2488SOL    HW112594   4.856   5.042   4.034  0.2823 -1.1834  0.3500
 2488SOL    HW212595   4.986   5.014   4.107  1.1317 -0.2472 -0.7712
 2489SOL     OW12596   4.561   2.837   6.123  0.4824  0.0798  0.2044
 2489SOL    HW112597   4.502   2.822   6.049  0.0776  1.1770  0.3018
 2489SOL    HW212598   4.645   2.857   6.082  0.6583 -0.9212  0.0618
 2490SOL     OW12599   3.350   6.086   8.889 -0.8314  0.3035 -0.1777
 2490SOL    HW112600   3.288   6.158   8.900  0.9643  1.4969  2.6237
 2490SOL    HW212601   3.350   6.042   8.974  1.7589  0.0161 -0.2923
 2491SOL     OW12602   1.943   3.842   3.233  0.0632  0.4214  0.1562
 2491SOL    HW112603   1.961   3.838   3.139 -0.5684  0.7265  0.0204
 2491SOL    HW212604   1.915   3.933   3.248 -0.2844  0.2466  0.5594
 2492SOL     OW12605   8.797   3.861   9.034 -0.7568 -0.4045 -0.0269
 2492SOL    HW112606   8.785   3.802   8.960 -0.6547  0.1037 -0.4475
 2492SOL    HW212607   8.712   3.904   9.044 -0.5221  0.1447 -0.3802
 2493SOL     OW12608   9.605   2.866   2.902 -0.1902  0.0447  0.5450
 2493SOL    HW112609   9.632   2.914   2.979 -0.2383 -0.5240  0.9206
 2493SOL    HW212610   9.541   2.923   2.859 -0.4080  0.2178  1.0979
 2494SOL     OW12611   2.877   0.610   7.344 -0.1153  0.6125  0.3406
 2494SOL    HW112612   2.929   0.578   7.271 -0.8967  0.4915 -0.1660
 2494SOL    HW212613   2.794   0.636   7.305 -0.9851 -0.5743  1.3476
 2495SOL     OW12614   6.307   3.220   2.430 -0.2289 -0.1218 -0.1824
 2495SOL    HW112615   6.311   3.126   2.447 -0.6240 -0.0825  0.1254
 2495SOL    HW212616   6.322   3.261   2.515 -0.0846  0.0964 -0.3105
 2496SOL     OW12617   8.085   4.419   3.467  0.2580 -0.3584 -0.3274
 2496SOL    HW112618   8.152   4.472   3.424  0.8760 -0.6167  0.2907
 2496SOL    HW212619   8.134   4.367   3.531 -0.6575  0.1752  0.8371
 2497SOL     OW12620   7.150   9.386   0.274 -0.2589 -0.0854  0.5830
 2497SOL    HW112621   7.171   9.448   0.205 -0.9491 -0.0426  0.4031
 2497SOL    HW212622   7.117   9.309   0.227  1.4521 -0.9377  0.7594
 2498SOL     OW12623   8.204   1.631   8.049 -0.1013  0.4301 -0.1269
 2498SOL    HW112624   8.170   1.619   8.138  0.1325 -0.0428 -0.0995
 2498SOL    HW212625   8.257   1.553   8.033 -0.2409  0.4600 -0.7273
 2499SOL     OW12626   5.806   8.170   9.179  0.3790  0.0235 -0.2390
 2499SOL    HW112627   5.873   8.102   9.176 -0.5256 -0.8295 -1.5058
 2499SOL    HW212628   5.753   8.156   9.101  0.3157  2.3315 -0.6611
 2500SOL     OW12629   1.077   7.529   3.872 -0.4467  0.1480  0.0975
 2500SOL    HW112630   1.089   7.466   3.942  1.9270  0.4638  0.0153
 2500SOL    HW212631   1.097   7.481   3.791 -0.3313  0.5356 -0.1101
 2501SOL     OW12632   2.660   9.494   6.139  0.3396  1.1399  0.1683
 2501SOL    HW112633   2.672   9.536   6.224 -1.4416 -0.4810  1.2689
 2501SOL    HW212634   2.716   9.416   6.144 -0.3388  0.6562  0.1354
 2502SOL     OW12635  10.808   0.895   1.866 -0.0993  0.1689  0.1261
 2502SOL    HW112636  10.817   0.823   1.928 -1.9387 -0.0402  0.1785
 2502SOL    HW212637  10.740   0.866   1.805  0.3220  1.1718 -0.8399
 2503SOL     OW12638   4.530   3.064   8.246  0.3010 -0.2430 -0.2872
 2503SOL    HW112639   4.437   3.066   8.268  0.1792  1.1378 -0.8624
 2503SOL    HW212640   4.548   2.971   8.229 -0.9667 -0.5278 -0.1815
 2504SOL     OW12641   7.197   0.504   4.194 -0.6990 -0.2955 -0.6440
 2504SOL    HW112642   7.279   0.544   4.223 -1.7843  0.5001  1.4836
 2504SOL    HW212643   7.138   0.579   4.179 -1.4334 -0.9136 -0.8850
 2505SOL     OW12644   0.775   7.896   8.088  0.7198 -0.0648  0.3135
 2505SOL    HW112645   0.758   7.937   8.003  3.0326  1.3349  0.4696
 2505SOL    HW212646   0.809   7.968   8.142  0.9919 -1.3317  1.8561
 2506SOL     OW12647   9.382   7.308   9.875 -0.4096  0.2068 -0.0680
 2506SOL    HW112648   9.381   7.354   9.959 -1.5014  0.2266 -0.0879
 2506SOL    HW212649   9.343   7.223   9.893 -0.0065 -0.0542 -0.4083
 2507SOL     OW12650   3.240   0.695  10.980 -0.5362  0.1420 -0.3033
 2507SOL    HW112651   3.302   0.767  10.988 -0.7940  0.1846  1.5566
 2507SOL    HW212652   3.288   0.627  10.933  0.7821  0.3338  0.7483
 2508SOL     OW12653   8.480   1.793   1.193 -0.2106 -0.2460 -0.4843
 2508SOL    HW112654   8.543   1.734   1.234 -0.2822  0.1299  0.1859
 2508SOL    HW212655   8.507   1.798   1.101  0.0597 -0.9632 -0.4481
 2509SOL     OW12656   1.654   0.142   0.070 -0.4523 -0.0693 -0.7606
 2509SOL    HW112657   1.678   0.063   0.119 -1.9442 -0.4941 -0.6811
 2509SOL    HW212658   1.586   0.112   0.010 -1.1717  1.2033 -0.5868
 2510SOL     OW12659   8.928   8.729   1.341 -0.2004  0.7884  0.5966
 2510SOL    HW112660   8.950   8.793   1.273  0.0375  2.5189  2.2542
 2510SOL    HW212661   8.834   8.717   1.333 -0.4244  2.2231  1.0034
 2511SOL     OW12662   6.990   4.984   5.132 -0.0153 -0.0092  0.5134
 2511SOL    HW112663   7.068   5.005   5.184 -0.7215  1.8761  0.8425
 2511SOL    HW212664   6.941   5.066   5.128 -2.0558 -1.2091  0.4183
 2512SOL     OW12665   6.420   1.237   5.794  0.1216  0.3511  0.2741
 2512SOL    HW112666   6.481   1.308   5.813 -0.1411  0.9447 -1.0410
 2512SOL    HW212667   6.430   1.221   5.700 -0.0874 -1.1074  0.4803
 2513SOL     OW12668   4.831  10.642   3.023 -0.0395  0.2225  0.4717
 2513SOL    HW112669   4.854  10.589   3.100 -1.0657  0.3995  0.9096
 2513SOL    HW212670   4.801  10.725   3.059  1.4250  1.0564 -0.2147
 2514SOL     OW12671   4.041   2.651   9.918  0.0901  0.3209 -0.0788
 2514SOL    HW112672   4.018   2.710   9.846  0.3336 -0.3512 -0.7270
 2514SOL    HW212673   4.020   2.564   9.884 -0.1443  0.0220  0.8091
 2515SOL     OW12674   6.176   2.505   2.181  0.4771  0.1832 -0.7398
 2515SOL    HW112675   6.248   2.501   2.244 -0.0362 -1.6212 -0.2299
 2515SOL    HW212676   6.112   2.443   2.215 -0.3939  0.1845 -2.3544
 2516SOL     OW12677   8.172   7.513   1.359 -0.8352 -0.0488 -0.2176
 2516SOL    HW112678   8.152   7.554   1.443  2.5649 -0.4375  0.8324
 2516SOL    HW212679   8.188   7.421   1.380  0.0043 -0.1650 -1.3065
 2517SOL     OW12680   7.623   1.113   7.698  0.3322 -0.2051  0.0949
 2517SOL    HW112681   7.584   1.106   7.612  1.5827 -0.5502 -0.4544
 2517SOL    HW212682   7.658   1.026   7.716 -0.7006 -0.3803  1.3365
 2518SOL     OW12683   8.092   6.416   3.911 -0.4038  0.5188 -0.0296
 2518SOL    HW112684   8.145   6.485   3.871 -0.7402  0.6619 -0.2277
 2518SOL    HW212685   8.089   6.438   4.004  1.2761 -0.3905  0.2718
 2519SOL     OW12686   8.170   4.722   9.657 -0.4848  0.3602  0.3420
 2519SOL    HW112687   8.209   4.747   9.741  0.8546  0.3085 -0.2500
 2519SOL    HW212688   8.085   4.765   9.656 -0.7158 -0.0131  1.9299
 2520SOL     OW12689   3.181   5.175   9.792  0.2149  0.0264  0.1648
 2520SOL    HW112690   3.238   5.149   9.864  2.4451 -0.4442 -1.7042
 2520SOL    HW212691   3.230   5.152   9.713 -3.0264 -1.4186 -1.5447
 2521SOL     OW12692   9.697   0.671   3.650  0.2429  0.1344  0.2338
 2521SOL    HW112693   9.676   0.705   3.563  0.9294  1.7965  0.6982
 2521SOL    HW212694   9.616   0.684   3.700 -0.8014 -2.6241 -0.6543
 2522SOL     OW12695   5.184  10.579   8.656 -0.3556 -0.4965 -0.1802
 2522SOL    HW112696   5.167  10.661   8.610 -0.6377  1.1331  2.7128
 2522SOL    HW212697   5.267  10.592   8.700 -0.8026 -1.4409  0.9852
 2523SOL     OW12698   2.356   1.666   0.113 -0.0382  0.2871 -0.5178
 2523SOL    HW112699   2.297   1.732   0.076  1.4568  1.5502 -0.6984
 2523SOL    HW212700   2.361   1.688   0.206 -0.4639 -0.3013 -0.3538
 2524SOL     OW12701   3.556   0.888   5.844  0.4581  0.3022  0.2689
 2524SOL    HW112702   3.614   0.901   5.769  0.9409  0.1579  0.6165
 2524SOL    HW212703   3.554   0.973   5.889  0.6440  0.2237  0.4275
 2525SOL     OW12704   7.410   1.518   9.494 -0.0966 -0.3838 -0.1749
 2525SOL    HW112705   7.337   1.510   9.555 -1.9513 -0.4444 -2.3455
 2525SOL    HW212706   7.435   1.428   9.474  0.4900 -0.3646  0.4758
 2526SOL     OW12707   9.529   0.127   2.319  0.0365  0.3139 -0.2212
 2526SOL    HW112708   9.620   0.107   2.344  0.2353  1.0053 -0.3716
 2526SOL    HW212709   9.487   0.150   2.402  0.3772  1.4062 -0.3433
 2527SOL     OW12710   1.298   3.405   8.644  0.3388 -0.2697  0.4781
 2527SOL    HW112711   1.349   3.476   8.604  1.5776 -0.9216  0.8725
 2527SOL    HW212712   1.352   3.327   8.633 -1.2846 -1.2903 -0.4852
 2528SOL     OW12713   0.951   8.394   3.985  0.0913  0.2750  0.4181
 2528SOL    HW112714   0.999   8.431   3.911  0.5054 -0.5094  0.2842
 2528SOL    HW212715   0.997   8.426   4.062  0.1070  0.4940  0.3191
 2529SOL     OW12716   3.735   4.901   6.171 -0.0180 -0.4627 -0.1163
 2529SOL    HW112717   3.782   4.876   6.250 -1.9220 -0.5301  1.0071
 2529SOL    HW212718   3.794   4.964   6.128  1.3512 -0.9758  0.9543
 2530SOL     OW12719   9.036   4.376   3.715 -0.1503 -0.2258 -0.4616
 2530SOL    HW112720   8.965   4.416   3.665 -0.9309 -0.3245  0.5655
 2530SOL    HW212721   9.012   4.284   3.723 -0.5946  0.0070  1.0512
 2531SOL     OW12722   5.143   0.523   8.691 -0.1733  0.2095  0.2604
 2531SOL    HW112723   5.132   0.618   8.692 -0.5620  0.1681 -0.2420
 2531SOL    HW212724   5.236   0.510   8.671 -0.3747  0.4651 -0.8653
 2532SOL     OW12725   7.423   8.090   7.359  0.4580 -0.5406  0.1309
 2532SOL    HW112726   7.419   8.088   7.263 -2.3106  1.8394  0.1332
 2532SOL    HW212727   7.337   8.059   7.387  0.0511  1.9110  1.7573
 2533SOL     OW12728  10.683   1.653   2.601 -0.2083  0.2684  0.0001
 2533SOL    HW112729  10.602   1.614   2.568 -0.0081 -0.4254  0.2994
 2533SOL    HW212730  10.674   1.650   2.696 -0.9462  2.6052  0.0298
 2534SOL     OW12731   6.212   1.347   0.341 -0.1898 -0.3198  0.4925
 2534SOL    HW112732   6.139   1.408   0.344 -1.6699 -1.9921 -0.1226
 2534SOL    HW212733   6.199   1.290   0.417 -0.4024 -1.5700 -0.4643
 2535SOL     OW12734   5.105   3.108   8.154 -0.4392 -0.6716 -0.0970
 2535SOL    HW112735   5.109   3.141   8.065 -1.5775  0.5565  0.2944
 2535SOL    HW212736   5.147   3.022   8.150  0.8888  0.0332 -1.4943
 2536SOL     OW12737   6.742   9.493   2.612  0.5902  0.2670 -0.9088
 2536SOL    HW112738   6.810   9.514   2.547  0.3519 -0.6401 -1.4596
 2536SOL    HW212739   6.748   9.398   2.622  1.3106  0.5038  1.1665
 2537SOL     OW12740   3.858   3.399   2.219 -0.1550  0.7492  0.1884
 2537SOL    HW112741   3.776   3.375   2.262  0.0489 -1.0301 -0.3626
 2537SOL    HW212742   3.894   3.469   2.273 -0.9349 -0.0056  1.7093
 2538SOL     OW12743   0.256   7.347   9.420  0.4214 -0.4151  0.1701
 2538SOL    HW112744   0.299   7.414   9.368 -1.0768 -0.2646 -0.8949
 2538SOL    HW212745   0.261   7.268   9.367  1.2781 -0.9088  0.9786
 2539SOL     OW12746   3.007   2.955   2.915 -0.0177  0.5943  0.7980
 2539SOL    HW112747   3.098   2.951   2.885 -0.6808 -0.7407 -1.1077
 2539SOL    HW212748   2.982   3.046   2.902  0.2056  0.3833 -1.3008
 2540SOL     OW12749   7.875  10.616   4.867  0.5722  0.3479 -0.5109
 2540SOL    HW112750   7.853  10.539   4.919  1.6944  0.1792 -0.2522
 2540SOL    HW212751   7.969  10.607   4.850  0.2828  0.5297 -2.3647
 2541SOL     OW12752   6.932   0.095   2.240  0.2969  0.4416 -0.2931
 2541SOL    HW112753   6.897   0.044   2.168 -0.3184  1.1057 -0.4710
 2541SOL    HW212754   7.026   0.101   2.223  0.2790 -0.1388 -0.5725
 2542SOL     OW12755  10.372   0.219  11.077  0.3656 -0.3453 -0.1337
 2542SOL    HW112756  10.466   0.222  11.093  0.4881  0.7192 -1.0136
 2542SOL    HW212757  10.335   0.277  11.144  0.6009  1.5331 -1.5866
 2543SOL     OW12758   9.560   2.455   0.151  0.1321  0.1636 -0.2086
 2543SOL    HW112759   9.637   2.483   0.200  1.6172  0.6335 -2.7084
 2543SOL    HW212760   9.556   2.361   0.162  0.6583  0.2288  0.5191
 2544SOL     OW12761   2.340   0.937   1.560  0.1169  0.0758  0.5299
 2544SOL    HW112762   2.327   0.973   1.648  0.3255  0.2207  0.5018
 2544SOL    HW212763   2.410   0.873   1.571 -0.9082 -1.0334  0.7696
 2545SOL     OW12764   7.735   1.205   7.072  0.2199 -0.2461 -0.3465
 2545SOL    HW112765   7.665   1.147   7.103  1.2593 -1.3364 -0.0111
 2545SOL    HW212766   7.693   1.290   7.063 -0.5887 -0.3666  2.0663
 2546SOL     OW12767   7.470   0.202   4.585 -0.1100 -0.3599  0.3041
 2546SOL    HW112768   7.440   0.263   4.517 -1.3982 -0.8229  0.4451
 2546SOL    HW212769   7.528   0.141   4.540  1.2339  0.9928  0.1676
 2547SOL     OW12770  10.640   1.642   2.921 -0.6971  0.0891 -0.3845
 2547SOL    HW112771  10.656   1.662   3.014 -1.2241 -0.0629 -0.2577
 2547SOL    HW212772  10.551   1.671   2.905  0.1083  2.0472 -1.4078
 2548SOL     OW12773   7.106   4.719   7.252  0.3439  0.2334  0.6669
 2548SOL    HW112774   7.025   4.738   7.205  0.7042  1.5826  0.5664
 2548SOL    HW212775   7.080   4.708   7.343 -0.0151  0.1336  0.5503
 2549SOL     OW12776   4.420   6.138   0.384  0.0738 -0.0520  0.4161
 2549SOL    HW112777   4.499   6.119   0.332  0.2499  2.2318 -0.2342
 2549SOL    HW212778   4.347   6.124   0.324  0.1572  0.4346  0.1944
 2550SOL     OW12779   4.372   9.407   7.023 -0.1452  0.2335  0.3628
 2550SOL    HW112780   4.381   9.500   7.043  2.5260 -0.5678  3.4223
 2550SOL    HW212781   4.437   9.365   7.079 -0.1823 -3.3484 -2.1440
 2551SOL     OW12782  10.415   6.706   9.685 -0.0366  0.0123  0.2828
 2551SOL    HW112783  10.463   6.626   9.705 -1.1984 -0.6222  0.6080
 2551SOL    HW212784  10.450   6.771   9.746 -0.5356 -0.7913  1.4452
 2552SOL     OW12785   0.630  10.838  10.084  0.6398 -0.2907 -0.0927
 2552SOL    HW112786   0.661  10.879  10.164 -1.8880  0.1635  0.7190
 2552SOL    HW212787   0.651  10.745  10.094  1.2744 -0.0744  0.6138
 2553SOL     OW12788   6.559   7.881   3.162  0.2177  0.5748 -0.4395
 2553SOL    HW112789   6.555   7.915   3.073  1.2131  1.0380 -0.3112
 2553SOL    HW212790   6.549   7.958   3.218 -0.7673  0.2411 -0.1434
 2554SOL     OW12791   4.294   0.981   0.298 -0.0944  0.3146  0.5239
 2554SOL    HW112792   4.303   0.886   0.287  0.6087  0.3791  0.5342
 2554SOL    HW212793   4.374   1.017   0.260  0.8320  0.7533  2.8033
 2555SOL     OW12794   9.850   6.070   8.056 -0.5649  0.0452  0.0572
 2555SOL    HW112795   9.799   6.029   8.126 -0.2814 -0.7490 -0.1998
 2555SOL    HW212796   9.881   5.997   8.002  0.8750  0.5100  0.2273
 2556SOL     OW12797   3.616   9.998   3.506 -0.4626  0.5576  0.2766
 2556SOL    HW112798   3.544  10.004   3.568 -1.2360  1.2414 -0.6575
 2556SOL    HW212799   3.581  10.037   3.425  0.2612 -1.0190 -0.8158
 2557SOL     OW12800   8.356   1.804   2.593  0.1055 -0.1684 -0.6616
 2557SOL    HW112801   8.368   1.755   2.512 -2.1105  0.5235 -1.4418
 2557SOL    HW212802   8.302   1.747   2.648  0.8337 -0.2538 -0.0342
 2558SOL     OW12803   0.609   6.725   7.898 -0.5560 -0.5409  0.0621
 2558SOL    HW112804   0.630   6.811   7.864  0.0815 -0.3571  0.9091
 2558SOL    HW212805   0.693   6.687   7.923 -0.9038 -1.0823  0.4382
 2559SOL     OW12806   5.256   2.211   2.351 -0.4098 -0.4441  0.2197
 2559SOL    HW112807   5.230   2.128   2.311 -2.2007 -0.6130  1.6557
 2559SOL    HW212808   5.213   2.278   2.298 -0.1437 -0.4918 -0.0611
 2560SOL     OW12809   2.006   6.537   7.936 -0.0657  0.1329 -0.2701
 2560SOL    HW112810   1.982   6.450   7.967 -1.2202  1.2246  2.0347
 2560SOL    HW212811   1.941   6.558   7.869 -0.6129 -0.2166  0.1469
 2561SOL     OW12812  10.353   5.794   2.448  0.8171 -0.4482  0.2444
 2561SOL    HW112813  10.284   5.850   2.412  0.6635  0.2380  1.5736
 2561SOL    HW212814  10.311   5.747   2.519  1.4250 -0.9205  0.2979
 2562SOL     OW12815   6.193   5.289   0.818  0.8783 -0.5055 -0.1965
 2562SOL    HW112816   6.217   5.209   0.866  0.2153  0.2590  1.4444
 2562SOL    HW212817   6.102   5.276   0.794  0.6804 -0.1244  0.3348
 2563SOL     OW12818   6.472   2.314   3.027  0.9040  0.6257 -0.4587
 2563SOL    HW112819   6.445   2.233   3.069 -0.3607  0.5549 -1.3923
 2563SOL    HW212820   6.511   2.366   3.098  0.3732 -0.1869  0.4321
 2564SOL     OW12821   1.212   5.928   2.178 -0.1825  0.4294  0.3631
 2564SOL    HW112822   1.258   5.850   2.210 -0.6341  0.0373  0.0659
 2564SOL    HW212823   1.238   5.998   2.238 -0.8881 -0.2556  1.4776
 2565SOL     OW12824   9.611   0.656   4.691  0.2404  0.0777 -0.2099
 2565SOL    HW112825   9.698   0.617   4.694  0.0852 -0.3629 -1.1387
 2565SOL    HW212826   9.611   0.721   4.761  1.1456 -0.2708  0.1183
 2566SOL     OW12827   6.398   2.792   4.176 -0.1864  0.0121  0.4375
 2566SOL    HW112828   6.305   2.792   4.152 -0.3352  1.7019  0.9824
 2566SOL    HW212829   6.430   2.878   4.149  1.1767 -0.4808  0.4507
 2567SOL     OW12830   9.420   3.066   5.890 -0.2144  0.0279 -0.4373
 2567SOL    HW112831   9.386   2.979   5.871 -0.9782  0.4329 -0.9694
 2567SOL    HW212832   9.489   3.052   5.955  0.8346 -1.1569 -1.7810
 2568SOL     OW12833   9.652   0.175   4.037 -0.0189 -0.2482  0.0380
 2568SOL    HW112834   9.595   0.246   4.068  0.5360 -0.1901  0.9274
 2568SOL    HW212835   9.716   0.164   4.106  0.4860 -0.9634 -0.5428
 2569SOL     OW12836   9.140   7.724   8.495  0.6276  0.1140  0.2227
 2569SOL    HW112837   9.093   7.640   8.493 -0.1337  0.5463 -1.0026
 2569SOL    HW212838   9.188   7.723   8.578 -1.1378 -0.5830  1.2679
 2570SOL     OW12839   0.840   5.551   1.725  0.4372 -0.6272 -0.3986
 2570SOL    HW112840   0.794   5.492   1.785 -1.1485  0.5347 -0.4421
 2570SOL    HW212841   0.850   5.632   1.775  2.5207 -0.8849 -0.3734
 2571SOL     OW12842   8.950   6.839   6.359  0.4362 -0.0661  0.8432
 2571SOL    HW112843   8.969   6.879   6.274  0.9448 -2.4445 -0.2103
 2571SOL    HW212844   8.856   6.821   6.356  0.2727  0.7426  1.1743
 2572SOL     OW12845   1.754   4.777   4.038  0.2726 -0.5733  0.2490
 2572SOL    HW112846   1.718   4.809   4.121 -0.1599 -0.5970  0.0734
 2572SOL    HW212847   1.848   4.774   4.052  0.2435 -0.0551  0.5580
 2573SOL     OW12848  11.313   7.209   1.457  0.2005 -0.1141 -0.1093
 2573SOL    HW112849  11.227   7.197   1.498 -0.3519 -0.5031 -1.3616
 2573SOL    HW212850  11.296   7.262   1.379  1.5844  2.6399  1.3902
 2574SOL     OW12851   6.414   9.273   3.389 -0.2640 -0.1957  0.5559
 2574SOL    HW112852   6.463   9.281   3.307 -1.2780 -0.9434 -0.1394
 2574SOL    HW212853   6.415   9.179   3.409 -1.8305 -0.3033  0.2489
 2575SOL     OW12854   1.058   2.937   6.811  0.7313 -0.0101  0.1789
 2575SOL    HW112855   1.032   2.847   6.795  0.2704 -0.0456  1.0640
 2575SOL    HW212856   1.001   2.966   6.882 -1.0668  1.8867 -1.9873
 2576SOL     OW12857   7.653   0.661   9.140 -0.0990  0.4307  0.6012
 2576SOL    HW112858   7.665   0.748   9.178  1.8356  0.6770 -0.5240
 2576SOL    HW212859   7.725   0.609   9.175 -1.0787 -0.6571  1.0426
 2577SOL     OW12860   7.607   4.051   0.823 -0.2566 -0.0224  0.2413
 2577SOL    HW112861   7.612   4.068   0.917  1.1645 -0.3473  0.2354
 2577SOL    HW212862   7.520   4.012   0.811 -1.4343  2.2664  1.0333
 2578SOL     OW12863   5.798   6.338   6.103  0.1456  0.3860 -0.4503
 2578SOL    HW112864   5.842   6.384   6.174  0.3619 -0.7433  0.1479
 2578SOL    HW212865   5.868   6.316   6.041  0.2129 -0.1805 -0.1703
 2579SOL     OW12866   8.648   8.369   0.994  0.1519  0.2148 -0.3252
 2579SOL    HW112867   8.569   8.317   0.977  0.1331 -0.3565  1.4343
 2579SOL    HW212868   8.707   8.309   1.040  0.1513  1.7293  1.6920
 2580SOL     OW12869   5.898  10.496   0.540  0.1186  0.1743  0.1230
 2580SOL    HW112870   5.882  10.590   0.548  0.7666  0.2679  0.3549
 2580SOL    HW212871   5.819  10.456   0.577  0.4308  0.6262  1.3135
 2581SOL     OW12872   0.196   0.815  10.725 -0.2254  0.1644 -0.4526
 2581SOL    HW112873   0.161   0.882  10.666 -1.8417 -0.3448 -0.0856
 2581SOL    HW212874   0.133   0.743  10.720  1.2786 -1.1622 -0.5101
 2582SOL     OW12875   0.698   5.793   5.189  0.3793 -0.0626  0.2156
 2582SOL    HW112876   0.714   5.701   5.167 -1.0110 -0.2755  0.0771
 2582SOL    HW212877   0.620   5.817   5.140 -0.7182  0.4701  2.1705
 2583SOL     OW12878   3.307   1.008   6.586 -0.1732 -0.4221  0.6191
 2583SOL    HW112879   3.265   1.083   6.543 -0.2951 -1.3972 -0.9820
 2583SOL    HW212880   3.385   1.045   6.627 -0.0757  0.5315 -0.3954
 2584SOL     OW12881   6.766   9.706   8.218 -0.1650  0.1330 -0.5718
 2584SOL    HW112882   6.739   9.797   8.210  2.2322  0.8896 -0.4236
 2584SOL    HW212883   6.813   9.687   8.138 -0.6768 -1.0078 -0.6153
 2585SOL     OW12884   7.453   0.100   1.985 -0.1472  0.4353  0.1939
 2585SOL    HW112885   7.516   0.086   1.914  0.1185  1.9206  0.1193
 2585SOL    HW212886   7.372   0.061   1.954  0.5900 -0.9972  0.0503
 2586SOL     OW12887   1.917   7.567   0.684 -0.0362 -0.2267 -0.2442
 2586SOL    HW112888   1.962   7.551   0.767 -2.6349  2.8317  1.8645
 2586SOL    HW212889   1.843   7.506   0.685 -0.1311 -0.1115 -0.2791
 2587SOL     OW12890   2.849   9.954   2.822 -0.4041 -0.1856 -0.4310
 2587SOL    HW112891   2.763   9.915   2.803 -1.0221  0.3907  1.1381
 2587SOL    HW212892   2.908   9.911   2.760 -1.2483 -2.8477  0.5244
 2588SOL     OW12893  10.876  11.022   4.128  0.0077  0.5598  0.2167
 2588SOL    HW112894  10.970  11.039   4.120 -0.0355  0.1201 -1.4512
 2588SOL    HW212895  10.834  11.100   4.091 -0.2966  0.8430  1.1427
 2589SOL     OW12896   8.637   5.903   2.830 -0.1582  0.0161 -0.3628
 2589SOL    HW112897   8.575   5.860   2.772 -2.5126  2.5491  0.1705
 2589SOL    HW212898   8.647   5.991   2.794 -0.8351  1.2799  2.4113
 2590SOL     OW12899   9.864   2.233  11.070  0.0515 -0.4001  0.3788
 2590SOL    HW112900   9.950   2.264  11.099  0.2847  0.4037 -1.1303
 2590SOL    HW212901   9.826   2.307  11.023  0.1863 -1.9863 -2.3621
 2591SOL     OW12902   4.376   4.492   4.093 -0.0297  0.1520 -0.2040
 2591SOL    HW112903   4.329   4.566   4.055 -1.1192  0.2168  1.2336
 2591SOL    HW212904   4.395   4.436   4.018 -3.0812 -0.2385 -0.7685
 2592SOL     OW12905   2.462   5.419   5.519  0.4229  0.6605 -0.7503
 2592SOL    HW112906   2.551   5.455   5.518  0.8009 -0.2459  0.3428
 2592SOL    HW212907   2.406   5.497   5.523  1.1726  1.2135 -0.7768
 2593SOL     OW12908   2.719   1.621   0.169 -0.3824 -0.0465  0.9868
 2593SOL    HW112909   2.727   1.713   0.191 -0.2016  0.2716 -0.3257
 2593SOL    HW212910   2.653   1.618   0.099  1.3962 -0.5926 -0.7379
 2594SOL     OW12911   6.740   0.007   5.753  0.2891 -0.1838 -0.5578
 2594SOL    HW112912   6.712   0.074   5.691  1.0853  1.0934  0.4581
 2594SOL    HW212913   6.799  -0.049   5.703  0.6158  0.6109 -1.0504
 2595SOL     OW12914   1.576   8.742  10.858  0.1450 -0.1465 -0.4649
 2595SOL    HW112915   1.494   8.701  10.886  0.7434 -0.6443  0.5955
 2595SOL    HW212916   1.550   8.804  10.790 -1.4203  1.3257  1.4155
 2596SOL     OW12917   6.504   7.955   0.989  0.1975 -0.0663  0.2042
 2596SOL    HW112918   6.502   7.896   0.914  0.0372 -0.5387  0.5813
 2596SOL    HW212919   6.526   7.900   1.063 -1.4433  0.0629  0.8178
 2597SOL     OW12920   7.481   3.204   7.920  0.8124  0.2128 -0.9383
 2597SOL    HW112921   7.529   3.131   7.882  2.5876  1.0417 -0.3376
 2597SOL    HW212922   7.539   3.238   7.988 -1.1585  0.4681  0.6495
 2598SOL     OW12923   9.406   5.429   8.143  0.1193  0.0044 -0.3979
 2598SOL    HW112924   9.473   5.421   8.211  1.3936  0.0680 -1.6198
 2598SOL    HW212925   9.400   5.342   8.103 -0.0983  0.1464 -0.6817
 2599SOL     OW12926   7.724   2.557   4.000 -0.6020 -0.1451 -0.5043
 2599SOL    HW112927   7.654   2.498   3.971 -0.4766 -0.1677 -0.7574
 2599SOL    HW212928   7.732   2.538   4.094 -1.4249  0.3637 -0.3228
 2600SOL     OW12929   2.941  10.498   3.831  0.3938 -0.0322  0.1396
 2600SOL    HW112930   2.947  10.441   3.909 -2.6878 -3.3789 -1.8897
 2600SOL    HW212931   2.942  10.587   3.866  0.3800 -1.4215  3.8995
 2601SOL     OW12932   4.071   8.946   0.244 -0.4777 -0.1536  0.3733
 2601SOL    HW112933   4.015   8.869   0.258 -0.9357 -0.2803 -1.9338
 2601SOL    HW212934   4.094   8.942   0.151  1.5497  1.1376  0.7971
 2602SOL     OW12935   9.754   0.914   6.227 -0.1696 -0.2635 -0.6226
 2602SOL    HW112936   9.752   1.008   6.210 -2.1722 -0.1171  0.1616
 2602SOL    HW212937   9.840   0.885   6.198  0.0829  1.6333 -1.8179
 2603SOL     OW12938   5.323   9.111  10.421  0.2590  0.3405  0.1395
 2603SOL    HW112939   5.415   9.089  10.404 -0.5670 -1.9802 -1.6450
 2603SOL    HW212940   5.297   9.164  10.346  0.3918  1.8270  1.1310
 2604SOL     OW12941   4.017  10.410  10.775 -0.2418 -0.2763 -0.1302
 2604SOL    HW112942   4.040  10.500  10.749  1.1805 -0.8503 -0.8874
 2604SOL    HW212943   3.935  10.394  10.729  0.9426 -0.3499 -2.2927
 2605SOL     OW12944   9.138   1.970   5.313  0.3796  0.2825  0.6834
 2605SOL    HW112945   9.228   1.998   5.330  0.9201 -1.1228  0.2496
 2605SOL    HW212946   9.133   1.882   5.350 -0.6651  0.1557  0.2575
 2606SOL     OW12947   5.243   9.227   2.709  0.3798  0.3365  0.2647
 2606SOL    HW112948   5.243   9.132   2.719 -0.1737  0.5052  1.9982
 2606SOL    HW212949   5.201   9.242   2.624 -0.0555 -0.9356  0.2425
 2607SOL     OW12950   7.468   1.631   8.177  0.3907 -0.3293  0.4808
 2607SOL    HW112951   7.442   1.553   8.127  0.0580 -1.0840  1.8045
 2607SOL    HW212952   7.435   1.704   8.126 -2.0717 -1.1756  0.8209
 2608SOL     OW12953   3.347   8.228   9.384  0.6940  0.1826  0.5459
 2608SOL    HW112954   3.368   8.143   9.424  1.0317  0.6414  1.3703
 2608SOL    HW212955   3.375   8.292   9.450  1.0618  0.9501 -0.3523
 2609SOL     OW12956   8.467   7.575   2.282 -0.4504 -0.3247  0.4496
 2609SOL    HW112957   8.451   7.522   2.204 -2.6465  0.3221  0.4252
 2609SOL    HW212958   8.550   7.619   2.264 -0.8177 -0.3437 -1.4336
 2610SOL     OW12959  10.445  10.927   1.881 -0.1475  0.2739 -0.4750
 2610SOL    HW112960  10.523  10.878   1.907  0.4824  1.0817 -0.8143
 2610SOL    HW212961  10.409  10.960   1.963  0.5023  0.8389 -0.4147
 2611SOL     OW12962   3.861   9.276   0.090 -0.3016  0.6576 -0.1536
 2611SOL    HW112963   3.906   9.222   0.026  1.2125  1.3067  0.3404
 2611SOL    HW212964   3.812   9.340   0.037  2.6313  2.5684 -0.7101
 2612SOL     OW12965   7.452  10.946   1.133 -0.2427 -0.4100 -0.0746
 2612SOL    HW112966   7.443  11.034   1.095  1.3240 -0.1570  0.0902
 2612SOL    HW212967   7.538  10.916   1.103 -0.0225 -1.1908  1.3050
 2613SOL     OW12968  10.356   2.628   1.673  0.4242  0.1945 -0.1420
 2613SOL    HW112969  10.270   2.587   1.679  0.6443 -0.2088  0.3152
 2613SOL    HW212970  10.369   2.671   1.758  0.3075  0.9931 -0.5224
 2614SOL     OW12971   4.576   0.100   2.082 -0.4963 -0.2941 -0.4921
 2614SOL    HW112972   4.498   0.109   2.137 -1.9458  1.0393 -2.6910
 2614SOL    HW212973   4.581   0.006   2.064 -0.5666 -0.6213  1.1011
 2615SOL     OW12974   1.859   9.127   4.499 -0.1081 -0.2936  0.2695
 2615SOL    HW112975   1.780   9.166   4.536  0.1831 -1.4933  2.2163
 2615SOL    HW212976   1.926   9.140   4.567  0.9886 -0.6449 -0.7279
 2616SOL     OW12977   1.690   5.676   7.582  0.0269 -0.6757 -0.4167
 2616SOL    HW112978   1.663   5.680   7.674 -0.5262 -0.8814 -0.5680
 2616SOL    HW212979   1.786   5.673   7.586  0.2286  3.4824  0.0138
 2617SOL     OW12980   3.256   7.695   3.120  0.1291  0.1835 -0.1123
 2617SOL    HW112981   3.213   7.771   3.080 -0.3278  0.8445  1.5897
 2617SOL    HW212982   3.333   7.731   3.164 -0.0333 -0.3641  0.6206
 2618SOL     OW12983   8.327  10.989   2.908  0.0292 -0.2069  0.0776
 2618SOL    HW112984   8.245  11.037   2.895 -1.7464 -2.6344  2.0122
 2618SOL    HW212985   8.333  10.932   2.831 -0.7665 -0.9689  0.5807
 2619SOL     OW12986  11.213   6.576   2.855  0.3846  0.1386  0.4710
 2619SOL    HW112987  11.178   6.655   2.898  0.3612  1.2696 -1.5918
 2619SOL    HW212988  11.144   6.511   2.867 -1.0859  1.4331 -0.7815
 2620SOL     OW12989   0.259   7.055   5.343  0.3353  0.2610 -0.3032
 2620SOL    HW112990   0.282   7.063   5.251  0.0064 -0.0687 -0.4165
 2620SOL    HW212991   0.182   6.997   5.343  1.2909 -1.0220  0.3023
 2621SOL     OW12992  10.996   0.760  10.509 -0.2625  0.1090  0.2208
 2621SOL    HW112993  10.963   0.684  10.556  0.4684 -1.2617 -1.4147
 2621SOL    HW212994  11.035   0.815  10.577 -0.5696 -1.1018  1.3978
 2622SOL     OW12995   0.505   7.015   3.977 -0.6720  0.1787  0.2059
 2622SOL    HW112996   0.454   7.055   4.048 -0.7057  0.1508  0.1974
 2622SOL    HW212997   0.559   6.949   4.020  0.0952  0.8984  0.3604
 2623SOL     OW12998   8.875   3.003   7.801  0.2349  0.1910  0.3232
 2623SOL    HW112999   8.951   2.991   7.859  0.7226 -0.2275 -0.3910
 2623SOL    HW213000   8.849   2.914   7.778  0.2461  0.3692 -0.3621
 2624SOL     OW13001   5.646   0.141   3.007  0.0184  0.1524 -0.0053
 2624SOL    HW113002   5.608   0.053   3.016  0.4966 -0.2417 -1.7455
 2624SOL    HW213003   5.688   0.157   3.091 -0.1883 -1.2265  0.3807
 2625SOL     OW13004   5.824   3.276   0.701  0.2165 -0.2081  0.2084
 2625SOL    HW113005   5.835   3.291   0.795  0.3978 -1.6732  0.4328
 2625SOL    HW213006   5.751   3.334   0.676  0.7863  0.8896  1.0490
 2626SOL     OW13007   8.670   6.424   6.563 -0.1579 -0.1974 -0.0898
 2626SOL    HW113008   8.630   6.339   6.582  0.4543 -0.8172 -1.5025
 2626SOL    HW213009   8.595   6.484   6.555 -0.5397 -0.3912  1.8496
 2627SOL     OW13010   2.352   0.604   6.418  0.3085 -0.3381  0.1230
 2627SOL    HW113011   2.398   0.608   6.503 -0.9284 -1.4974  0.8605
 2627SOL    HW213012   2.301   0.524   6.423 -0.3575 -0.0127 -1.4473
 2628SOL     OW13013   1.806   8.406  11.132  0.2211  0.1161 -0.2363
 2628SOL    HW113014   1.731   8.356  11.166  1.3318 -1.0077  0.5981
 2628SOL    HW213015   1.824   8.366  11.047  1.8755 -1.7730  0.9502
 2629SOL     OW13016   9.837   1.111   9.598  0.1627 -0.4229 -0.1767
 2629SOL    HW113017   9.860   1.069   9.682  0.8765  0.4392  0.0568
 2629SOL    HW213018   9.748   1.143   9.612  0.0542 -0.8032  0.0462
 2630SOL     OW13019   9.161   4.439   8.293 -0.8649 -0.2403 -0.3408
 2630SOL    HW113020   9.210   4.500   8.348 -0.6371 -0.7846  0.0576
 2630SOL    HW213021   9.131   4.493   8.220 -0.5838  0.3328 -0.0438
 2631SOL     OW13022   9.026   3.798   7.579 -0.5268  0.4771  0.2928
 2631SOL    HW113023   9.035   3.878   7.631 -0.9859 -0.0555  1.1928
 2631SOL    HW213024   8.932   3.781   7.576 -0.4604  0.1797 -0.2131
 2632SOL     OW13025   8.332   7.042  10.721 -0.1647 -0.1804 -0.4074
 2632SOL    HW113026   8.369   7.099  10.654 -0.4912 -0.1581 -0.5678
 2632SOL    HW213027   8.239   7.035  10.699  0.0569 -1.5755 -0.9806
 2633SOL     OW13028   9.475   9.839  10.737 -0.1283 -0.7146  0.4519
 2633SOL    HW113029   9.463   9.905  10.669  0.4523 -0.5831  0.4706
 2633SOL    HW213030   9.387   9.813  10.762 -0.3906  1.3434  1.7170
 2634SOL     OW13031   7.612   0.993   3.809 -0.3949 -0.1515 -0.2944
 2634SOL    HW113032   7.544   0.951   3.863 -3.0497  0.8303 -2.7264
 2634SOL    HW213033   7.583   0.979   3.719  2.3103  0.9368 -1.3806
 2635SOL     OW13034  10.176   4.301   2.039 -0.6938 -0.0002  0.3429
 2635SOL    HW113035  10.116   4.228   2.050 -0.5819  0.0532  1.3559
 2635SOL    HW213036  10.227   4.279   1.961 -2.1553  0.0528 -0.6542
 2636SOL     OW13037   3.342   7.422   9.520  0.2432 -0.4439  0.5514
 2636SOL    HW113038   3.341   7.516   9.501 -0.5574 -0.2944  1.3209
 2636SOL    HW213039   3.403   7.413   9.593  0.6921 -0.5964  0.1674
 2637SOL     OW13040   1.068   9.527   0.022 -0.1511  0.2141 -0.1135
 2637SOL    HW113041   1.152   9.525  -0.023  0.5413 -0.8200  1.1818
 2637SOL    HW213042   1.061   9.616   0.057  0.4400  0.2761 -0.1549
 2638SOL     OW13043   2.170   6.348   5.920  0.0545  0.3678  0.0555
 2638SOL    HW113044   2.189   6.271   5.866 -0.0873  1.4846 -1.6164
 2638SOL    HW213045   2.250   6.361   5.971  0.7375  0.1766 -0.9555
 2639SOL     OW13046   9.669   8.879   2.568  0.4797  0.0868 -0.0989
 2639SOL    HW113047   9.583   8.872   2.610  1.0316  0.1085  1.0502
 2639SOL    HW213048   9.731   8.860   2.638  1.3653 -1.6410 -1.3334
 2640SOL     OW13049   6.327   5.274   8.091  0.1575  0.2575 -0.3772
 2640SOL    HW113050   6.313   5.345   8.029 -3.2853  0.3819  0.4427
 2640SOL    HW213051   6.412   5.237   8.066 -0.0394  1.7977 -3.6403
 2641SOL     OW13052   9.366   2.332   1.401 -0.0145 -0.1038  0.3782
 2641SOL    HW113053   9.395   2.261   1.344  1.6808 -0.2231  1.3739
 2641SOL    HW213054   9.303   2.291   1.460  1.0918 -0.8475  1.0703
 2642SOL     OW13055   4.373   8.914   9.287 -0.3674  0.1195 -0.0372
 2642SOL    HW113056   4.434   8.948   9.222 -0.1335  0.3099  0.2813
 2642SOL    HW213057   4.289   8.954   9.264 -0.3706 -0.1296 -0.4663
 2643SOL     OW13058   4.665   3.036   6.651 -0.0443 -0.0094 -0.2031
 2643SOL    HW113059   4.641   3.017   6.560 -2.4409 -0.5572  0.5144
 2643SOL    HW213060   4.583   3.064   6.692  0.9953  0.1665  1.8120
 2644SOL     OW13061   0.455   5.851   5.610 -0.0466 -0.2848 -0.0029
 2644SOL    HW113062   0.537   5.839   5.563 -0.6525 -2.7643 -0.5388
 2644SOL    HW213063   0.399   5.900   5.550  1.5091  2.7299  0.9562
 2645SOL     OW13064   2.797   6.720   4.423  0.1551 -0.0755  0.5433
 2645SOL    HW113065   2.864   6.734   4.490  0.1585  0.5182  0.4164
 2645SOL    HW213066   2.841   6.670   4.355 -0.2775 -2.1305  1.7056
 2646SOL     OW13067   5.950   5.385  10.162 -0.6378  0.0905 -0.1781
 2646SOL    HW113068   6.028   5.376  10.218 -0.2240 -0.2074 -0.8019
 2646SOL    HW213069   5.918   5.296  10.151  0.6019 -0.1380 -2.2758
 2647SOL     OW13070   0.224   1.377  10.172 -0.3507 -0.3152  0.3324
 2647SOL    HW113071   0.264   1.293  10.196  0.4617 -0.2939 -0.8915
 2647SOL    HW213072   0.291   1.442  10.194 -0.3534 -0.1291 -0.2139
 2648SOL     OW13073   6.250   7.760  10.924  0.3968  0.0547 -0.0618
 2648SOL    HW113074   6.338   7.788  10.900 -0.1522  0.9434 -1.0661
 2648SOL    HW213075   6.262   7.711  11.006  1.7766  0.4120 -0.0404
 2649SOL     OW13076   3.317   1.269   6.448 -0.2250  0.1836  0.4872
 2649SOL    HW113077   3.221   1.268   6.456 -0.2562  2.4526  0.7419
 2649SOL    HW213078   3.347   1.314   6.527  1.0487 -0.3901  0.3313
 2650SOL     OW13079   3.667   0.750   1.484  0.0239 -0.0300 -0.7357
 2650SOL    HW113080   3.762   0.766   1.490 -0.1333  1.0847 -1.1118
 2650SOL    HW213081   3.638   0.743   1.574  0.3637  0.3037 -0.5975
 2651SOL     OW13082   5.211   0.494   3.209 -0.2922  0.3382  0.1892
 2651SOL    HW113083   5.279   0.560   3.215  0.7934 -0.7790  0.3659
 2651SOL    HW213084   5.185   0.477   3.300 -1.4768  1.4225  0.0737
 2652SOL     OW13085  11.081   5.638   4.920 -0.6976  0.1116  0.3826
 2652SOL    HW113086  11.153   5.693   4.950 -0.6229 -0.0776  0.5505
 2652SOL    HW213087  11.088   5.641   4.824 -0.3165 -0.1085  0.4038
 2653SOL     OW13088   3.210   5.854   2.502  0.5048 -0.2541  0.3184
 2653SOL    HW113089   3.274   5.792   2.537  1.0688  0.2620  0.2217
 2653SOL    HW213090   3.125   5.811   2.513  0.9510 -1.3032 -0.3329
 2654SOL     OW13091   7.611   2.575   9.759 -0.6602  0.2148  0.0671
 2654SOL    HW113092   7.614   2.670   9.764 -0.4562  0.1700  0.8402
 2654SOL    HW213093   7.526   2.552   9.794 -0.5836  0.0903  0.1701
 2655SOL     OW13094   3.848   2.029   3.294 -0.7785 -0.1618  0.0816
 2655SOL    HW113095   3.768   1.978   3.305 -0.8008 -0.2407 -0.4055
 2655SOL    HW213096   3.916   1.963   3.278 -0.5054 -0.1271  1.1240
 2656SOL     OW13097   8.864   3.252  10.253  0.2417  0.1213 -0.2121
 2656SOL    HW113098   8.952   3.274  10.282  0.8022  0.3379 -2.0458
 2656SOL    HW213099   8.842   3.317  10.187 -0.9648 -0.4331 -0.3877
 2657SOL     OW13100   2.162   5.363   2.203 -0.3301 -0.1235 -0.0749
 2657SOL    HW113101   2.089   5.307   2.230  0.4607 -1.3064 -0.3822
 2657SOL    HW213102   2.231   5.303   2.179  0.7052  0.9956  0.0475
 2658SOL     OW13103   8.655   9.887  10.440  0.2644  0.0103  0.5868
 2658SOL    HW113104   8.740   9.897  10.483 -0.7319  2.2450  2.1968
 2658SOL    HW213105   8.612   9.972  10.453 -2.3788 -1.2093  0.2209
 2659SOL     OW13106   1.238   9.315   3.492  1.1604  0.1034  0.6355
 2659SOL    HW113107   1.162   9.263   3.464  0.0160  0.8661  2.2563
 2659SOL    HW213108   1.295   9.253   3.537  1.5225 -0.4736 -0.5820
 2660SOL     OW13109  11.217   4.487   9.000  0.0851 -0.3321  0.1176
 2660SOL    HW113110  11.167   4.406   8.995 -2.8194  1.4498 -0.5361
 2660SOL    HW213111  11.281   4.480   8.929 -0.1514 -2.0066  0.0419
 2661SOL     OW13112   5.022   0.536   3.628  0.3113  0.1206  0.0196
 2661SOL    HW113113   5.002   0.448   3.659 -1.4136  0.2013 -0.8407
 2661SOL    HW213114   5.110   0.528   3.589  0.8298 -0.8499  1.3402
 2662SOL     OW13115   1.504   8.605   8.206 -0.5050  0.4845  0.3534
 2662SOL    HW113116   1.575   8.668   8.215  0.0968  0.0673 -1.1610
 2662SOL    HW213117   1.434   8.638   8.262  0.9300  0.8233  1.9884
 2663SOL     OW13118   5.505   8.174   1.920  0.2612  0.1164 -0.6491
 2663SOL    HW113119   5.488   8.086   1.952 -1.8038 -0.0152 -1.9833
 2663SOL    HW213120   5.567   8.211   1.982  0.5534 -2.0021  0.3595
 2664SOL     OW13121   5.939   7.505   9.770 -0.1998 -0.0017  0.2498
 2664SOL    HW113122   6.015   7.453   9.796  0.9095  0.3428 -2.1547
 2664SOL    HW213123   5.863   7.450   9.790  0.6888 -0.4658  2.4023
 2665SOL     OW13124   6.096   2.633   6.078  0.0802 -0.0586 -0.0092
 2665SOL    HW113125   6.024   2.665   6.133  1.8969 -0.1904  2.5473
 2665SOL    HW213126   6.093   2.538   6.090  0.8281 -0.0410  0.3084
 2666SOL     OW13127   1.425   8.605   0.146  0.3174  0.2758  0.2711
 2666SOL    HW113128   1.506   8.656   0.151  0.4501 -0.0310  1.5939
 2666SOL    HW213129   1.371   8.639   0.217 -0.5441  0.1787 -0.3307
 2667SOL     OW13130   0.128   1.665   4.296 -0.6806  0.1861 -0.7550
 2667SOL    HW113131   0.089   1.597   4.240  0.1392  0.1361 -1.2673
 2667SOL    HW213132   0.213   1.683   4.256 -0.3991  0.6736  0.0608
 2668SOL     OW13133   5.676   5.828  10.080 -0.3778 -0.1481 -0.5197
 2668SOL    HW113134   5.638   5.801  10.163 -1.3138 -0.3038 -0.9880
 2668SOL    HW213135   5.627   5.779  10.014 -0.7393  1.1922 -1.2612
 2669SOL     OW13136   5.922   5.016   7.490  0.0996 -0.0377 -0.4245
 2669SOL    HW113137   5.884   5.102   7.474 -1.6244 -0.8606 -0.7984
 2669SOL    HW213138   5.930   4.976   7.403  1.5004 -0.0249 -0.3216
 2670SOL     OW13139   4.277   7.449   1.954 -0.1685  0.3044  0.0174
 2670SOL    HW113140   4.221   7.440   1.877 -1.7575  0.8923  1.0724
 2670SOL    HW213141   4.359   7.485   1.920 -0.4827 -0.4149 -1.5322
 2671SOL     OW13142   7.368   6.392   0.364 -0.0827 -0.3403 -0.5704
 2671SOL    HW113143   7.362   6.451   0.288 -0.8495  0.0082 -0.2450
 2671SOL    HW213144   7.459   6.401   0.393 -0.0774  0.3692 -0.7772
 2672SOL     OW13145   0.914   5.991   5.204 -0.2136 -0.3731 -0.3139
 2672SOL    HW113146   0.932   5.990   5.298 -2.3350  0.5090  0.1279
 2672SOL    HW213147   0.868   5.908   5.188  2.5734 -1.8329 -1.1258
 2673SOL     OW13148   9.462   4.820   8.248 -0.3311 -0.0821 -0.0348
 2673SOL    HW113149   9.428   4.882   8.313 -0.4060 -0.2913  0.1282
 2673SOL    HW213150   9.512   4.873   8.187  1.7078 -0.1658  1.5267
 2674SOL     OW13151   5.022   8.686   1.817  0.0346  0.3012  0.0380
 2674SOL    HW113152   5.028   8.780   1.834 -0.7322  0.5699 -1.1320
 2674SOL    HW213153   4.946   8.657   1.867 -2.2840  1.1120 -2.8214
 2675SOL     OW13154   6.158   6.175   8.933 -0.4511 -0.0405  0.0507
 2675SOL    HW113155   6.108   6.159   9.014 -0.5346  0.2458  0.0565
 2675SOL    HW213156   6.247   6.190   8.962 -0.1587 -1.5168 -0.0309
 2676SOL     OW13157   9.649   2.098   6.618 -0.1892 -0.0330  0.0757
 2676SOL    HW113158   9.723   2.089   6.677 -1.4703  0.2938  1.7464
 2676SOL    HW213159   9.657   2.187   6.583 -0.2550  0.3008  0.9017
 2677SOL     OW13160  10.075   8.202   2.719 -0.0768 -0.7104 -0.0197
 2677SOL    HW113161  10.086   8.180   2.627  0.0181 -1.8136  0.2487
 2677SOL    HW213162  10.110   8.291   2.727  0.3814 -0.8017 -0.9433
 2678SOL     OW13163  10.732   9.488  11.275 -0.3087  0.2512 -0.0625
 2678SOL    HW113164  10.642   9.521  11.270 -0.0733  0.8241 -0.5393
 2678SOL    HW213165  10.758   9.504  11.366 -0.0518  1.7871 -0.3808
 2679SOL     OW13166   4.828   9.943   9.671 -0.1985 -0.0671  0.4327
 2679SOL    HW113167   4.785  10.028   9.672  1.0925  0.5936  0.2643
 2679SOL    HW213168   4.824   9.915   9.580 -0.1402  0.0654  0.3902
 2680SOL     OW13169   0.258   8.371   7.266  0.5120 -0.7768 -0.4052
 2680SOL    HW113170   0.274   8.460   7.234 -1.1065  0.0012  0.9015
 2680SOL    HW213171   0.288   8.372   7.356 -0.2766 -1.3126 -0.1342
 2681SOL     OW13172  10.419   4.714   5.739 -0.3109 -0.7016  0.2325
 2681SOL    HW113173  10.380   4.784   5.685 -0.0393 -0.6588  0.0912
 2681SOL    HW213174  10.513   4.728   5.732 -0.1579 -2.4573 -1.6483
 2682SOL     OW13175   4.560   6.955   0.776 -0.5115  0.2978 -0.1435
 2682SOL    HW113176   4.531   7.030   0.829 -2.2999 -0.9009  0.6288
 2682SOL    HW213177   4.634   6.988   0.727 -0.2627  2.1226  1.3929
 2683SOL     OW13178  10.511   2.783   4.414  0.3780  0.1650 -0.3987
 2683SOL    HW113179  10.554   2.745   4.491  0.7040  1.4936  0.0988
 2683SOL    HW213180  10.558   2.747   4.339  1.9336  1.0847  0.1210
 2684SOL     OW13181   2.720   6.594   9.260  0.4958  0.3953 -0.3703
 2684SOL    HW113182   2.709   6.689   9.252 -2.5587 -0.0606 -2.6942
 2684SOL    HW213183   2.632   6.559   9.247  1.1936 -2.7057  2.3639
 2685SOL     OW13184   8.635  10.132  10.150  0.4691 -0.1122 -0.2900
 2685SOL    HW113185   8.596  10.197  10.208  0.8692  0.6567 -0.8753
 2685SOL    HW213186   8.696  10.181  10.096  1.1934 -1.0673 -0.3600
 2686SOL     OW13187   6.098   9.879   1.941  0.0608  0.2271  0.8910
 2686SOL    HW113188   6.141   9.907   1.861  0.3726 -0.2491  0.8923
 2686SOL    HW213189   6.034   9.814   1.913  1.3879 -1.2562  1.2110
 2687SOL     OW13190   0.416   4.651   8.638  0.2092 -0.6265 -0.4003
 2687SOL    HW113191   0.392   4.570   8.592 -3.1187  0.5960 -0.9588
 2687SOL    HW213192   0.426   4.716   8.568  1.1404 -0.1495  0.1713
 2688SOL     OW13193   1.806   1.800   0.456 -0.2602  0.5241 -0.4629
 2688SOL    HW113194   1.744   1.732   0.428 -0.6534  1.4155 -1.8071
 2688SOL    HW213195   1.777   1.879   0.411  1.6807  1.0206 -0.8969
 2689SOL     OW13196  10.920   5.775   9.878 -0.2059 -0.5077 -0.2562
 2689SOL    HW113197  10.963   5.712   9.935 -0.7332  0.6437  1.4399
 2689SOL    HW213198  10.990   5.834   9.850 -0.4095  0.6082  1.4935
 2690SOL     OW13199   7.656   2.826   2.129 -0.4163 -0.0036 -0.0176
 2690SOL    HW113200   7.562   2.836   2.144 -0.2842 -1.3369  1.8964
 2690SOL    HW213201   7.675   2.736   2.155  1.6071  0.6271  0.7574
 2691SOL     OW13202   5.527   0.324   9.990 -0.7045  0.1334  0.1622
 2691SOL    HW113203   5.557   0.347  10.079 -0.2992 -0.0018  0.0630
 2691SOL    HW213204   5.470   0.396   9.964  0.8652  1.2356 -0.3011
 2692SOL     OW13205   8.219   1.685   5.293 -0.4182  0.0936 -0.0038
 2692SOL    HW113206   8.237   1.727   5.377 -1.3873 -1.3509  0.9556
 2692SOL    HW213207   8.279   1.610   5.290 -0.8433 -0.2361 -0.2926
 2693SOL     OW13208   9.912   2.108   6.717 -0.2907  0.2484 -0.3540
 2693SOL    HW113209   9.931   2.196   6.751  0.3643  0.4552 -1.2190
 2693SOL    HW213210   9.997   2.076   6.686 -0.2905 -1.1954  1.0840
 2694SOL     OW13211   1.816   9.778   8.603  0.3535 -0.2036 -0.9297
 2694SOL    HW113212   1.822   9.821   8.518  1.4283  1.1071 -0.2069
 2694SOL    HW213213   1.729   9.802   8.635  0.2511 -0.0631 -1.3071
 2695SOL     OW13214  11.139   0.177   0.307 -0.5671 -0.3523 -0.4888
 2695SOL    HW113215  11.089   0.097   0.290 -0.8533 -0.3697  0.4005
 2695SOL    HW213216  11.227   0.147   0.326 -0.1687 -0.3156 -2.1725
 2696SOL     OW13217   0.673  10.364   0.494 -0.3012  0.2102 -0.3395
 2696SOL    HW113218   0.760  10.403   0.489 -0.3746  0.3682 -0.3869
 2696SOL    HW213219   0.689  10.271   0.511 -0.1151  0.1604 -0.7807
 2697SOL     OW13220  10.487   4.815   6.332  0.4842 -0.1754 -0.2362
 2697SOL    HW113221  10.427   4.865   6.276  0.7846  0.9788  0.4495
 2697SOL    HW213222  10.522   4.880   6.393  1.3854 -1.1109  0.2542
 2698SOL     OW13223   6.849  10.368   3.188 -0.0361 -0.6860  0.2126
 2698SOL    HW113224   6.873  10.372   3.095  2.6442  0.2281  0.8989
 2698SOL    HW213225   6.795  10.446   3.202 -1.3255 -1.3721 -0.7789
 2699SOL     OW13226   7.036   8.435   0.349  0.0960  0.5246  0.5330
 2699SOL    HW113227   7.069   8.420   0.261  0.4286 -0.1040  0.7583
 2699SOL    HW213228   6.947   8.399   0.347 -0.4384  1.8495  0.0416
 2700SOL     OW13229   6.847  11.050  11.131  0.1946 -0.1425 -0.1960
 2700SOL    HW113230   6.842  10.962  11.170 -0.0194  0.4190  1.0668
 2700SOL    HW213231   6.756  11.079  11.127  0.4429  1.0299  1.7901
 2701SOL     OW13232   1.274   3.752   5.294 -0.0265  0.7831 -0.2725
 2701SOL    HW113233   1.346   3.773   5.354 -0.3194  0.8387  0.0597
 2701SOL    HW213234   1.311   3.687   5.235  0.1400  0.4213  0.2232
 2702SOL     OW13235   2.243   1.334   2.972  0.1733 -0.9338  0.2941
 2702SOL    HW113236   2.255   1.426   2.995  2.5524 -0.7718 -1.4128
 2702SOL    HW213237   2.298   1.286   3.033 -0.0407 -1.1129  0.3453
 2703SOL     OW13238   4.102   7.761   1.088  0.3579 -0.1963 -0.5957
 2703SOL    HW113239   4.076   7.752   1.180 -0.5256 -1.7484 -0.9817
 2703SOL    HW213240   4.072   7.680   1.046  1.2633  0.2385 -2.1394
 2704SOL     OW13241   7.813   1.817   6.652 -0.3657 -0.5042 -0.3420
 2704SOL    HW113242   7.800   1.876   6.577 -0.5023 -0.1962 -0.0762
 2704SOL    HW213243   7.900   1.838   6.684 -0.5765 -0.1545  0.0083
 2705SOL     OW13244   8.050   4.214   1.824  0.3097 -0.5965 -0.0539
 2705SOL    HW113245   8.077   4.192   1.735 -0.3743  0.6427 -0.5839
 2705SOL    HW213246   8.016   4.131   1.860 -1.1607 -0.6813 -1.5990
 2706SOL     OW13247   6.857  10.469   3.711  0.3593  0.5824  0.1508
 2706SOL    HW113248   6.808  10.411   3.770  0.7565 -0.2783 -0.3588
 2706SOL    HW213249   6.938  10.488   3.757 -0.4108  1.9878  0.9859
 2707SOL     OW13250   1.766   8.449   6.195 -0.3684  0.4909 -0.3253
 2707SOL    HW113251   1.771   8.398   6.276  0.4704  1.5954  0.3371
 2707SOL    HW213252   1.687   8.419   6.151  1.0714 -2.7048 -0.8488
 2708SOL     OW13253   0.179   5.809  10.140 -0.5134  0.2826 -0.3680
 2708SOL    HW113254   0.153   5.901  10.140 -0.6541  0.2449 -1.0971
 2708SOL    HW213255   0.275   5.812  10.133 -0.6773  0.3414 -2.7702
 2709SOL     OW13256   0.375   4.075  10.179  0.1350 -0.0430 -0.4402
 2709SOL    HW113257   0.421   4.054  10.098 -0.2025 -0.6467 -0.4755
 2709SOL    HW213258   0.423   4.027  10.247 -1.6812 -2.3513 -0.7566
 2710SOL     OW13259   7.957   2.219   5.068  0.1500 -0.4062  0.2471
 2710SOL    HW113260   7.949   2.201   5.161  0.9891 -0.8418  0.2347
 2710SOL    HW213261   8.026   2.285   5.062 -0.4104  0.1703 -0.0110
 2711SOL     OW13262   3.614   0.638   8.273 -0.2276  0.3691  0.0405
 2711SOL    HW113263   3.534   0.586   8.262  0.4624 -0.4101 -1.3756
 2711SOL    HW213264   3.657   0.600   8.350 -0.4259 -0.2270 -0.1426
 2712SOL     OW13265   5.562   8.673   5.249 -0.2508 -0.1014  0.0793
 2712SOL    HW113266   5.622   8.615   5.203  2.1805  0.8400  1.9319
 2712SOL    HW213267   5.535   8.622   5.326 -3.4865 -1.2775 -1.7078
 2713SOL     OW13268  10.855   6.123   5.095 -0.4053  0.7600  0.4745
 2713SOL    HW113269  10.766   6.139   5.128 -0.0408  0.0415  1.8105
 2713SOL    HW213270  10.893   6.210   5.087 -1.0704  1.0435  0.3222
 2714SOL     OW13271   1.426   5.890  10.893 -0.0819  0.3712  0.0658
 2714SOL    HW113272   1.517   5.876  10.866 -0.0247 -0.6256  0.7378
 2714SOL    HW213273   1.375   5.851  10.822 -0.0589  3.0029 -1.4745
 2715SOL     OW13274   9.044   5.964   4.752  0.3089  0.1874  0.1115
 2715SOL    HW113275   9.031   6.035   4.689 -0.8080  1.0178  1.2759
 2715SOL    HW213276   9.019   5.885   4.704 -3.5059  1.1282  0.4418
 2716SOL     OW13277  10.328   5.779   1.341  0.1590 -0.8356  0.2310
 2716SOL    HW113278  10.385   5.709   1.308 -0.7095 -0.7798 -1.4254
 2716SOL    HW213279  10.262   5.733   1.393 -1.1470 -1.3974 -1.8846
 2717SOL     OW13280   3.139   4.781   5.587 -0.2089 -0.0645 -0.0668
 2717SOL    HW113281   3.094   4.837   5.650  0.6738  0.5763  0.0062
 2717SOL    HW213282   3.230   4.810   5.590  0.4654 -2.1705  0.6883
 2718SOL     OW13283   0.598  10.509   6.355 -0.3738  0.6945  0.4584
 2718SOL    HW113284   0.562  10.540   6.439  2.4041 -0.4897  2.1653
 2718SOL    HW213285   0.676  10.563   6.342 -0.4045  0.3910 -1.0647
 2719SOL     OW13286   3.737   3.006   2.336 -0.6930 -0.2335  0.3567
 2719SOL    HW113287   3.677   3.024   2.408 -0.2976 -0.7627  0.8226
 2719SOL    HW213288   3.814   2.968   2.378  0.1112  0.7630 -0.1985
 2720SOL     OW13289   5.050   4.644   4.219 -0.0563  0.1685 -0.2187
 2720SOL    HW113290   5.064   4.551   4.235  1.5090  0.8972  2.9945
 2720SOL    HW213291   5.123   4.671   4.164  0.3840 -0.1804  0.1969
 2721SOL     OW13292   6.339   3.042   9.450 -0.4930 -0.3656 -0.3144
 2721SOL    HW113293   6.246   3.024   9.436 -1.2432  1.5609  1.8721
 2721SOL    HW213294   6.384   2.982   9.390 -3.1566  0.0630 -2.8564
 2722SOL     OW13295   4.806   2.590   7.514  0.1290 -0.1104 -0.6697
 2722SOL    HW113296   4.791   2.564   7.605  1.0309 -0.7990 -0.7107
 2722SOL    HW213297   4.898   2.569   7.497  0.1891  0.7606 -1.4982
 2723SOL     OW13298   1.634   6.268   2.715  0.4921 -0.0431  0.3951
 2723SOL    HW113299   1.555   6.248   2.764  0.7814  0.4819  1.0973
 2723SOL    HW213300   1.608   6.338   2.655  0.0576 -0.9092 -0.4291
 2724SOL     OW13301   7.518   6.246   1.074 -0.5084  0.7114  0.8300
 2724SOL    HW113302   7.436   6.220   1.031 -0.2728  0.1916  0.6819
 2724SOL    HW213303   7.524   6.190   1.151  0.6098 -0.5794 -0.1443
 2725SOL     OW13304   1.797   4.511   1.177  0.2128 -0.5222 -0.1506
 2725SOL    HW113305   1.786   4.506   1.082 -0.2545  0.9526 -0.1901
 2725SOL    HW213306   1.712   4.542   1.209 -0.1666 -2.6072  0.9187
 2726SOL     OW13307   0.940   2.609   4.380 -0.6574  0.0994 -0.5072
 2726SOL    HW113308   1.021   2.592   4.332 -0.1038 -1.1355  0.7867
 2726SOL    HW213309   0.969   2.651   4.461 -1.2066 -1.2893  0.4236
 2727SOL     OW13310   5.292  10.353   8.510 -0.4953  0.3617 -0.2288
 2727SOL    HW113311   5.203  10.385   8.524 -1.3300 -1.9209  0.0168
 2727SOL    HW213312   5.334  10.357   8.596 -1.2491 -1.0284  0.2261
 2728SOL     OW13313   7.998  10.259   2.851 -0.2618 -0.2187  0.7663
 2728SOL    HW113314   7.974  10.269   2.759  2.8517  1.1237  0.0292
 2728SOL    HW213315   8.032  10.169   2.857 -1.4622 -0.6816  0.8911
 2729SOL     OW13316   8.155   4.684   6.156  0.0355 -0.1017  0.1483
 2729SOL    HW113317   8.227   4.622   6.144 -1.3369 -1.2428 -2.4920
 2729SOL    HW213318   8.186   4.765   6.117  0.1231 -0.4161 -0.4373
 2730SOL     OW13319  10.965   8.851   0.928  0.1368  0.0775 -0.1171
 2730SOL    HW113320  11.040   8.907   0.949 -0.9244  0.8530  1.7080
 2730SOL    HW213321  10.913   8.902   0.866 -0.7827  1.1111  1.4750
 2731SOL     OW13322  10.012   0.268   6.515 -0.6503 -0.3684  0.0083
 2731SOL    HW113323  10.027   0.348   6.566  1.5362 -1.2021  0.7328
 2731SOL    HW213324   9.954   0.215   6.569 -0.0352 -0.3526  0.6880
 2732SOL     OW13325  10.513   5.567   4.054 -0.0204  0.5022  0.2872
 2732SOL    HW113326  10.482   5.639   4.109  2.0505  1.1656  0.6508
 2732SOL    HW213327  10.608   5.568   4.065  0.0973 -1.8947 -0.2120
 2733SOL     OW13328   2.256   2.626   3.510 -0.2077 -0.2796 -0.7538
 2733SOL    HW113329   2.330   2.594   3.459  0.4124  0.3034 -0.2253
 2733SOL    HW213330   2.207   2.547   3.533  1.2747 -0.8659  0.4984
 2734SOL     OW13331   4.194   9.987   8.119  0.2772  0.0573 -0.0702
 2734SOL    HW113332   4.119  10.045   8.103 -0.0327 -0.6000 -1.0246
 2734SOL    HW213333   4.170   9.938   8.197  1.5226  2.8291  2.1422
 2735SOL     OW13334   2.122   0.818   1.051 -0.1136 -0.7840  0.1240
 2735SOL    HW113335   2.065   0.800   1.125 -0.5703  0.9068  0.1953
 2735SOL    HW213336   2.063   0.848   0.982  0.3426 -2.0240 -0.8359
 2736SOL     OW13337   2.211   5.624   3.834 -0.1246  0.4509  0.0082
 2736SOL    HW113338   2.156   5.556   3.794  1.5099 -0.0413 -1.4003
 2736SOL    HW213339   2.256   5.579   3.905 -0.3464  0.4937  0.1792
 2737SOL     OW13340   8.868   2.608   0.361 -0.2263 -0.4926  0.1782
 2737SOL    HW113341   8.881   2.643   0.449 -1.2561 -1.3811  0.6974
 2737SOL    HW213342   8.903   2.675   0.303 -1.4459  1.0296  1.1850
 2738SOL     OW13343  10.054   2.652   8.424 -0.4612 -0.3676  0.8231
 2738SOL    HW113344  10.002   2.690   8.353 -0.4449  0.3089  1.1671
 2738SOL    HW213345   9.991   2.604   8.477 -0.5849 -0.3138  0.7249
 2739SOL     OW13346  10.898   7.404   8.803  0.3547  0.2342  0.0069
 2739SOL    HW113347  10.921   7.389   8.711  1.3406  1.0232  0.1230
 2739SOL    HW213348  10.969   7.458   8.837 -0.1090  0.1051  1.1895
 2740SOL     OW13349   6.828   8.152   1.492 -0.3798  0.1826  0.0490
 2740SOL    HW113350   6.923   8.148   1.479 -0.6322 -2.4971 -1.1991
 2740SOL    HW213351   6.791   8.122   1.410 -2.2777 -0.6177  1.1668
 2741SOL     OW13352   5.070   2.093   4.215  0.7720 -0.1001 -0.3876
 2741SOL    HW113353   5.000   2.034   4.242  0.1821  0.8839  0.2863
 2741SOL    HW213354   5.087   2.146   4.293  1.7996  0.1225 -0.7617
 2742SOL     OW13355  10.701   8.362   4.345 -0.4363 -0.1109  0.0322
 2742SOL    HW113356  10.636   8.295   4.367 -0.4091  0.4762  1.9870
 2742SOL    HW213357  10.657   8.417   4.280 -0.9557 -1.2196 -0.5713
 2743SOL     OW13358   0.191   9.509   5.962  0.4603 -0.4445  0.3955
 2743SOL    HW113359   0.227   9.564   5.893 -0.2383 -1.9248 -1.1576
 2743SOL    HW213360   0.226   9.547   6.043  3.1307 -0.0984 -0.8835
 2744SOL     OW13361  10.419  10.705   6.291 -0.4431  0.2401  0.1149
 2744SOL    HW113362  10.365  10.779   6.264  1.4878  1.5677 -0.1969
 2744SOL    HW213363  10.463  10.736   6.370 -0.8756 -1.1928  0.9307
 2745SOL     OW13364   2.600   6.256  10.832 -0.2348 -0.6423 -0.2524
 2745SOL    HW113365   2.675   6.288  10.882  0.0395  2.6550 -2.6628
 2745SOL    HW213366   2.524   6.296  10.875 -0.3477 -1.1132 -0.0050
 2746SOL     OW13367   4.113   9.388  10.719 -0.1289  0.0117 -0.3466
 2746SOL    HW113368   4.081   9.433  10.640  0.1192 -0.3093 -0.6339
 2746SOL    HW213369   4.196   9.349  10.692  1.2339  2.0121  0.7871
 2747SOL     OW13370   7.674   4.904   2.713 -0.1427  0.4445 -0.2659
 2747SOL    HW113371   7.718   4.866   2.637  0.6481 -2.5450  1.5910
 2747SOL    HW213372   7.581   4.902   2.689 -0.0993 -2.3983 -0.4098
 2748SOL     OW13373   2.627  11.199  10.993  0.0306 -1.0089  0.0979
 2748SOL    HW113374   2.709  11.167  10.957  1.4889  3.2007 -0.5740
 2748SOL    HW213375   2.565  11.197  10.920  1.0851  0.9206 -0.8937
 2749SOL     OW13376   4.294   0.595   4.361 -0.2847  0.4443  0.9672
 2749SOL    HW113377   4.306   0.512   4.315  0.8717  0.6773  0.8447
 2749SOL    HW213378   4.296   0.661   4.291  0.9711  0.7552  1.2871
 2750SOL     OW13379   2.446   6.029   8.620  0.0579 -0.6763 -0.0035
 2750SOL    HW113380   2.393   5.953   8.597  0.8872 -1.2944  0.0958
 2750SOL    HW213381   2.536   6.000   8.606  0.3180  1.0251 -2.2694
 2751SOL     OW13382   4.598   2.283   8.935  0.6896 -0.1790 -0.0466
 2751SOL    HW113383   4.690   2.284   8.906  0.2160 -1.4537 -1.6407
 2751SOL    HW213384   4.566   2.197   8.910 -0.4524 -0.4154  2.1505
 2752SOL     OW13385   1.457   1.513   1.816  0.6906 -0.1995  0.3856
 2752SOL    HW113386   1.413   1.576   1.872  1.7593  0.4634  0.4897
 2752SOL    HW213387   1.475   1.561   1.735 -2.8322 -1.7585 -1.4619
 2753SOL     OW13388  11.127   3.685   2.621  0.3294 -0.1314  0.1142
 2753SOL    HW113389  11.189   3.679   2.693  0.0319 -0.6760  0.3274
 2753SOL    HW213390  11.171   3.741   2.556 -0.0324  1.6097  1.3448
 2754SOL     OW13391   6.419  11.156   2.423 -0.1528 -0.7134  0.0802
 2754SOL    HW113392   6.430  11.077   2.370  0.2026 -0.9336  0.4779
 2754SOL    HW213393   6.449  11.130   2.510  0.0994 -0.0925  0.1758
 2755SOL     OW13394   8.506   9.669   6.339 -0.3340 -0.1157 -0.9950
 2755SOL    HW113395   8.446   9.620   6.396  0.6058 -1.5743 -1.2331
 2755SOL    HW213396   8.531   9.745   6.391 -3.4557  1.2884 -1.4047
 2756SOL     OW13397   0.227   0.687   0.190  0.2710  0.2444 -0.1882
 2756SOL    HW113398   0.261   0.654   0.273 -2.5884 -0.2707  0.8307
 2756SOL    HW213399   0.163   0.754   0.214  0.4882  1.1692 -2.0305
 2757SOL     OW13400  11.298  11.061   6.445  0.1991 -0.0235 -0.0402
 2757SOL    HW113401  11.297  11.137   6.504  2.4784 -0.0944  0.1342
 2757SOL    HW213402  11.346  10.994   6.494  2.3710  0.0092 -2.0713
 2758SOL     OW13403   1.650   8.224   8.083  0.6985  0.3422  0.1372
 2758SOL    HW113404   1.656   8.167   8.160  1.7482  0.0889 -0.1261
 2758SOL    HW213405   1.650   8.163   8.008 -2.9934  0.4205 -0.0140
 2759SOL     OW13406   4.849   1.690   1.947  0.2324 -0.2862  0.3732
 2759SOL    HW113407   4.817   1.710   2.035 -0.3412 -0.2049  0.1457
 2759SOL    HW213408   4.771   1.693   1.892  0.2339 -2.4920  0.2156
 2760SOL     OW13409   0.144   7.642   0.195  0.0200  0.4851 -0.0556
 2760SOL    HW113410   0.164   7.591   0.273 -0.7658 -0.5569 -0.5300
 2760SOL    HW213411   0.216   7.625   0.135 -0.6570 -0.7237 -0.5301
 2761SOL     OW13412   4.079  10.571   1.753  0.4649 -0.0864  0.0909
 2761SOL    HW113413   4.167  10.537   1.737  0.8060  1.1308 -0.6931
 2761SOL    HW213414   4.087  10.666   1.740 -1.3094 -0.1276 -1.6122
 2762SOL     OW13415   8.575   1.566   4.488 -0.0354  0.1469  0.2033
 2762SOL    HW113416   8.613   1.647   4.453  0.8921 -0.4996 -0.3033
 2762SOL    HW213417   8.650   1.517   4.520 -0.6993 -0.0744  1.4499
 2763SOL     OW13418  11.091   8.437   9.990  0.1792  0.0162  0.1920
 2763SOL    HW113419  11.075   8.371  10.058  0.7870 -1.0048 -0.6532
 2763SOL    HW213420  11.187   8.446   9.988  0.1694 -0.1130 -0.6903
 2764SOL     OW13421  10.820   4.375   5.245  0.1260 -0.2398  0.0689
 2764SOL    HW113422  10.781   4.357   5.330 -2.1602 -0.4401 -0.9949
 2764SOL    HW213423  10.801   4.467   5.229  0.9889 -0.0728 -0.0199
 2765SOL     OW13424   2.571   0.214   4.203 -0.2424  0.4888 -0.1086
 2765SOL    HW113425   2.531   0.185   4.284 -1.5601  2.0661 -0.1786
 2765SOL    HW213426   2.505   0.270   4.161  0.5216 -0.0458 -2.1159
 2766SOL     OW13427   1.122   1.879   0.643 -0.2491 -0.0740 -0.4854
 2766SOL    HW113428   1.086   1.832   0.718  1.0225 -2.2587 -1.2179
 2766SOL    HW213429   1.095   1.970   0.658 -0.3416 -0.5122  2.4279
 2767SOL     OW13430   7.386   4.255   9.018  0.4493 -0.5584  0.0674
 2767SOL    HW113431   7.322   4.318   8.986 -0.0093 -0.4226  1.2202
 2767SOL    HW213432   7.365   4.174   8.972 -0.2518 -0.3915  0.0915
 2768SOL     OW13433   1.226   1.830   1.672  0.0278  0.9580  0.3906
 2768SOL    HW113434   1.140   1.864   1.697  0.1310  1.2518  0.3484
 2768SOL    HW213435   1.277   1.908   1.652  0.6813  0.8536  1.6190
 2769SOL     OW13436   6.974   6.361   9.488  0.1441  0.1967 -0.1728
 2769SOL    HW113437   7.025   6.429   9.532 -1.0139  1.4901 -0.7908
 2769SOL    HW213438   6.909   6.409   9.437 -0.6295 -1.3813 -0.7059
 2770SOL     OW13439   1.312   5.305   4.191  0.3732  0.4494 -0.0763
 2770SOL    HW113440   1.256   5.381   4.209  0.8086  1.0202 -1.0513
 2770SOL    HW213441   1.396   5.344   4.166  1.0720 -0.3870  0.9612
 2771SOL     OW13442  11.032  11.032   0.357 -0.1283 -0.0805 -0.7140
 2771SOL    HW113443  10.993  11.114   0.328  0.4632  0.2616 -0.5528
 2771SOL    HW213444  11.105  11.058   0.414  1.2432 -0.6684 -2.1548
 2772SOL     OW13445   3.739   7.468   1.633  0.1054 -0.2132 -0.1586
 2772SOL    HW113446   3.703   7.380   1.619 -1.0386  0.4496 -1.4602
 2772SOL    HW213447   3.734   7.510   1.547 -0.2796  1.4756  0.6705
 2773SOL     OW13448   6.478   1.188   6.131 -0.5052 -0.7975 -0.3812
 2773SOL    HW113449   6.401   1.238   6.103 -1.0716 -0.6287  1.4066
 2773SOL    HW213450   6.551   1.248   6.121 -0.9049 -0.2697 -0.1610
 2774SOL     OW13451   5.423   3.818   1.971  0.0562 -1.1189 -0.7620
 2774SOL    HW113452   5.398   3.763   2.045  1.9715 -1.1136 -0.1052
 2774SOL    HW213453   5.396   3.767   1.894 -0.9628 -1.5992 -0.1044
 2775SOL     OW13454  10.012   1.645   2.706  0.7983  0.2451 -0.2261
 2775SOL    HW113455   9.976   1.641   2.617 -0.3857  1.7876  0.1581
 2775SOL    HW213456  10.069   1.722   2.705  1.4040 -0.1962  0.1412
 2776SOL     OW13457   1.439   1.663   0.742  0.0355 -0.4967 -0.5555
 2776SOL    HW113458   1.379   1.723   0.696 -0.3384 -0.7769 -0.4365
 2776SOL    HW213459   1.405   1.660   0.832  0.3394 -0.5105 -0.4413
 2777SOL     OW13460   8.605  10.191   3.620  0.5201 -0.4968  0.8902
 2777SOL    HW113461   8.539  10.184   3.551  0.4348  0.3503  0.8860
 2777SOL    HW213462   8.631  10.100   3.638  0.4065 -0.7291 -0.1216
 2778SOL     OW13463   4.304   2.794   2.734  0.0390  0.1216  0.4491
 2778SOL    HW113464   4.267   2.759   2.816 -0.4958  1.6079  0.8743
 2778SOL    HW213465   4.378   2.848   2.763  0.4645 -0.1488 -0.1373
 2779SOL     OW13466   5.971  10.102   5.313 -0.3232 -0.2899 -0.3832
 2779SOL    HW113467   5.984  10.196   5.300 -0.5573 -0.0162  1.3462
 2779SOL    HW213468   5.886  10.095   5.358 -0.3410 -1.3339 -0.5669
 2780SOL     OW13469   1.191   8.795   2.710  0.2522  0.2046  0.5092
 2780SOL    HW113470   1.238   8.770   2.630 -2.2424  0.5545 -1.1390
 2780SOL    HW213471   1.240   8.754   2.781  0.7151 -2.7965 -1.4742
 2781SOL     OW13472   6.137   8.214   3.463  0.2499 -0.0095  0.1982
 2781SOL    HW113473   6.060   8.254   3.425 -1.0244 -0.8774  1.7944
 2781SOL    HW213474   6.169   8.152   3.397 -1.1530 -0.5500  0.0224
 2782SOL     OW13475   4.779   5.124   0.302 -0.0309  0.1531  0.3031
 2782SOL    HW113476   4.692   5.134   0.264 -0.5302  2.0972  1.8496
 2782SOL    HW213477   4.839   5.151   0.232 -0.7155  0.0176 -0.3469
 2783SOL     OW13478   3.002   3.015   8.329 -0.1177  0.1301  0.0374
 2783SOL    HW113479   2.920   2.966   8.322  0.8836 -1.8292  1.8102
 2783SOL    HW213480   3.049   2.996   8.248 -0.5370 -0.3224 -0.0968
 2784SOL     OW13481   0.854   7.110   0.899 -0.5105 -0.2394  0.4575
 2784SOL    HW113482   0.787   7.153   0.952  0.7099  1.3627  0.7787
 2784SOL    HW213483   0.885   7.038   0.953 -0.2060  0.5757  1.3900
 2785SOL     OW13484   2.466   3.321   8.281 -0.0348 -0.5160  0.1014
 2785SOL    HW113485   2.403   3.276   8.225  0.0505 -0.2568 -0.2074
 2785SOL    HW213486   2.530   3.253   8.303  2.1060  0.2150 -3.3211
 2786SOL     OW13487   1.301   5.657   3.555  0.4373 -0.2167 -0.9225
 2786SOL    HW113488   1.387   5.640   3.516  0.4101  1.8840 -1.9803
 2786SOL    HW213489   1.313   5.641   3.648  2.0720  0.3586 -1.0217
 2787SOL     OW13490   3.191   3.669   3.985  0.3195 -0.4490  0.1401
 2787SOL    HW113491   3.157   3.706   3.904  2.0738  0.7263 -0.0873
 2787SOL    HW213492   3.245   3.739   4.023  0.1262 -1.2347  1.9445
 2788SOL     OW13493  10.335   6.671   3.919 -0.1733  0.2931 -0.0203
 2788SOL    HW113494  10.337   6.746   3.860 -0.7940 -1.3341 -2.1792
 2788SOL    HW213495  10.247   6.671   3.956 -0.5879 -0.1157 -1.0082
 2789SOL     OW13496  10.115   5.831   0.709 -0.0128 -0.4284  0.5471
 2789SOL    HW113497  10.080   5.844   0.797 -1.2924 -0.6639  0.0839
 2789SOL    HW213498  10.179   5.760   0.718 -0.5108 -0.7944  1.1988
 2790SOL     OW13499   5.066   0.145   6.579 -0.8653 -0.8115  0.0600
 2790SOL    HW113500   4.979   0.129   6.544 -1.2873  0.7834  0.3211
 2790SOL    HW213501   5.121   0.157   6.501 -1.0866 -0.8119 -0.0972
 2791SOL     OW13502   0.550  10.256   9.261  0.3841  0.1346 -0.3092
 2791SOL    HW113503   0.559  10.351   9.256  4.2815 -0.2640 -3.5341
 2791SOL    HW213504   0.467  10.238   9.216 -0.4379  1.9690  0.4193
 2792SOL     OW13505   1.245   2.102   8.441  0.0869  0.2653 -0.0589
 2792SOL    HW113506   1.244   2.197   8.436  2.5241  0.3765  1.0327
 2792SOL    HW213507   1.302   2.075   8.368 -2.7918 -0.5477 -2.1170
 2793SOL     OW13508   5.573   6.452   0.061  0.5108  0.1919  0.4012
 2793SOL    HW113509   5.501   6.394   0.038 -0.9258  1.9127  0.4121
 2793SOL    HW213510   5.648   6.418   0.014 -0.3403 -1.5542  0.2794
 2794SOL     OW13511   5.061  10.444   6.647 -0.3576 -0.4813  0.0873
 2794SOL    HW113512   5.057  10.362   6.696  2.1244 -0.5242  0.2988
 2794SOL    HW213513   5.140  10.487   6.679 -1.6786  2.0569  0.0404
 2795SOL     OW13514   7.401   9.896   7.358  0.1432 -0.2799  0.1888
 2795SOL    HW113515   7.400   9.886   7.453 -0.1153 -0.7497  0.1338
 2795SOL    HW213516   7.444   9.981   7.344 -1.0435  0.4493  0.7835
 2796SOL     OW13517  10.968   9.564   2.440  0.1046 -0.1424  0.1517
 2796SOL    HW113518  10.939   9.493   2.496 -0.2137 -0.2631 -0.1594
 2796SOL    HW213519  10.887   9.608   2.414  0.4108  1.4331  1.7867
 2797SOL     OW13520   5.841   7.579   8.883  0.3436 -0.2043 -0.0475
 2797SOL    HW113521   5.809   7.508   8.828  0.1981 -0.1082 -0.0859
 2797SOL    HW213522   5.773   7.593   8.948  0.2583  0.0679 -0.1912
 2798SOL     OW13523   8.533   4.606   8.609  0.2759 -0.1439  0.2508
 2798SOL    HW113524   8.545   4.535   8.672  1.4723 -0.7132 -0.5920
 2798SOL    HW213525   8.561   4.685   8.656 -2.8028  0.0778  1.8039
 2799SOL     OW13526   9.942   7.759   4.904 -0.0273 -0.0114 -0.1124
 2799SOL    HW113527  10.028   7.734   4.938 -0.6323 -1.3072  0.5172
 2799SOL    HW213528   9.909   7.680   4.862 -1.8381 -0.2098  1.6011
 2800SOL     OW13529   6.124   4.534   6.934  0.1572  0.5315  0.1749
 2800SOL    HW113530   6.063   4.549   6.862 -0.8446  0.4308  0.9877
 2800SOL    HW213531   6.153   4.443   6.923 -0.6183  0.2617  0.3678
 2801SOL     OW13532   8.171   2.254   8.397 -0.4056  0.1953 -0.3801
 2801SOL    HW113533   8.242   2.210   8.351 -0.5971 -0.2403 -0.2555
 2801SOL    HW213534   8.111   2.280   8.328 -1.1117 -1.2069 -0.3120
 2802SOL     OW13535  10.947  10.649   3.016  0.1656  0.5659  0.1277
 2802SOL    HW113536  11.029  10.616   3.054  0.0536 -0.7325 -0.7356
 2802SOL    HW213537  10.964  10.741   2.998  0.1871  1.2510  3.4148
 2803SOL     OW13538   1.811   9.796   0.995  0.5847 -0.2825 -0.3054
 2803SOL    HW113539   1.882   9.825   0.938  0.5137  0.2676 -0.1191
 2803SOL    HW213540   1.854   9.738   1.059  0.8618  0.0201 -0.2144
 2804SOL     OW13541  11.295   0.718   0.079 -0.5157 -0.0403 -0.1046
 2804SOL    HW113542  11.309   0.670   0.160  0.5098 -2.1036 -1.4655
 2804SOL    HW213543  11.351   0.796   0.086  1.2019 -1.2973  0.2639
 2805SOL     OW13544  10.879   0.496   0.167 -0.2695 -0.4980 -0.2162
 2805SOL    HW113545  10.855   0.584   0.196 -0.7705 -0.3691 -1.0085
 2805SOL    HW213546  10.843   0.489   0.079  1.4991 -0.7653 -0.9474
 2806SOL     OW13547   9.944   9.515   0.004 -0.5260 -0.1376 -0.2523
 2806SOL    HW113548  10.027   9.564   0.001 -1.1529  1.0640  1.1140
 2806SOL    HW213549   9.971   9.424   0.018  0.5811  0.2316  0.1326
 2807SOL     OW13550   2.383  10.925   6.978  0.1179  0.0932  0.3185
 2807SOL    HW113551   2.445  10.914   6.906  0.0930  0.4608  0.2391
 2807SOL    HW213552   2.375  11.020   6.988  0.1099  0.0422  0.7976
 2808SOL     OW13553   7.589   1.322   5.407 -0.2449 -0.6901 -0.2578
 2808SOL    HW113554   7.639   1.373   5.343 -0.7167 -0.3886 -0.3866
 2808SOL    HW213555   7.601   1.231   5.379  0.9627 -0.6925  0.2306
 2809SOL     OW13556   5.067   7.240   0.119 -0.3419  0.4541  0.5237
 2809SOL    HW113557   5.062   7.257   0.025 -1.3596  0.3450  0.5605
 2809SOL    HW213558   5.121   7.162   0.126 -3.0886 -1.5827 -0.1967
 2810SOL     OW13559   7.607   9.535   1.227  0.0247 -0.2347 -0.0891
 2810SOL    HW113560   7.627   9.557   1.136 -0.0778 -0.7673 -0.2422
 2810SOL    HW213561   7.652   9.452   1.243 -0.7379 -0.6338  0.0475
 2811SOL     OW13562   6.130   1.574   3.945 -0.1868 -0.6319 -0.2635
 2811SOL    HW113563   6.133   1.492   3.896 -1.7507  0.1676 -1.7346
 2811SOL    HW213564   6.039   1.579   3.976 -0.4144  1.1419 -1.2098
 2812SOL     OW13565   0.764   4.238   5.048  0.3291 -0.6046 -0.0635
 2812SOL    HW113566   0.740   4.309   5.108 -0.7352 -0.6763 -0.4021
 2812SOL    HW213567   0.770   4.160   5.104 -0.8190 -0.7042 -0.0626
 2813SOL     OW13568   5.177   4.051   4.681 -0.6001 -0.5328 -0.2535
 2813SOL    HW113569   5.192   3.962   4.713 -0.3248 -0.5192 -0.3482
 2813SOL    HW213570   5.232   4.059   4.603 -0.9893 -0.4388 -0.5219
 2814SOL     OW13571   7.333   3.302   0.613  0.3195  0.2356 -0.3215
 2814SOL    HW113572   7.359   3.221   0.570 -0.2555 -0.5200  0.7314
 2814SOL    HW213573   7.267   3.340   0.555 -0.7336 -0.9715  0.0710
 2815SOL     OW13574  10.153   9.411   7.986 -0.3632  0.1401  0.6529
 2815SOL    HW113575  10.135   9.461   8.066 -0.0658  1.0367  0.1646
 2815SOL    HW213576  10.140   9.320   8.012 -0.4085  0.4308  1.6878
 2816SOL     OW13577   2.803   1.742   2.093  0.0953  0.0244 -0.3887
 2816SOL    HW113578   2.812   1.832   2.122  2.2598  0.4307 -2.2044
 2816SOL    HW213579   2.772   1.748   2.003 -0.4881 -1.0764 -0.2727
 2817SOL     OW13580   4.802   6.209   5.087  0.1608  0.0253 -0.1978
 2817SOL    HW113581   4.810   6.209   4.992  1.1438 -1.3867 -0.1305
 2817SOL    HW213582   4.821   6.119   5.113  2.6121  1.0072  1.5564
 2818SOL     OW13583   1.162   7.855   5.072 -0.4539 -0.2627  0.1043
 2818SOL    HW113584   1.154   7.805   4.991 -0.3757 -1.1120  0.6214
 2818SOL    HW213585   1.072   7.867   5.102 -0.5573  1.0259 -0.6967
 2819SOL     OW13586   7.105   7.052   5.218  0.6014 -0.2654  0.0025
 2819SOL    HW113587   7.040   7.030   5.286  1.1787 -0.4400  0.5004
 2819SOL    HW213588   7.052   7.084   5.145  0.0604  1.3485  1.0703
 2820SOL     OW13589   7.989   1.479   8.535  0.6626  0.0968 -0.6006
 2820SOL    HW113590   7.923   1.449   8.472 -0.2930  0.6984  0.1101
 2820SOL    HW213591   8.061   1.416   8.525 -0.4963 -1.2766 -0.5478
 2821SOL     OW13592   6.244   2.472   1.597 -0.3746 -0.0114 -0.0283
 2821SOL    HW113593   6.276   2.552   1.555 -0.6586  0.5394  0.8065
 2821SOL    HW213594   6.236   2.495   1.689  0.9472 -1.4441  0.4558
 2822SOL     OW13595   8.220   3.497   3.489  0.1379 -0.1377 -0.6321
 2822SOL    HW113596   8.246   3.544   3.568  0.7120 -1.2952 -0.1188
 2822SOL    HW213597   8.131   3.466   3.508 -0.0402  0.2921 -0.7654
 2823SOL     OW13598   4.984   3.053   7.856  0.1056  0.0531 -0.0504
 2823SOL    HW113599   5.023   2.977   7.899  2.8138  1.6000  0.3457
 2823SOL    HW213600   4.892   3.052   7.883  0.6750 -1.6685  1.9409
 2824SOL     OW13601   8.618  11.272   3.134 -0.3282  0.1201 -0.3565
 2824SOL    HW113602   8.585  11.199   3.081 -1.6634  0.9132 -0.6673
 2824SOL    HW213603   8.635  11.234   3.220 -0.5292 -0.6696 -0.6590
 2825SOL     OW13604  10.771   6.322   6.280  0.2545 -0.8282 -0.1673
 2825SOL    HW113605  10.762   6.296   6.188 -0.9146  1.2942 -0.6745
 2825SOL    HW213606  10.845   6.381   6.282  0.5156 -1.1609  0.3366
 2826SOL     OW13607   8.525   4.258   1.452  0.2061 -0.7627  0.4780
 2826SOL    HW113608   8.520   4.214   1.537 -1.8237 -2.0005 -0.2393
 2826SOL    HW213609   8.604   4.223   1.412  0.8762 -0.5929  1.6119
 2827SOL     OW13610   8.348  10.325   8.190  0.5439  0.1158 -0.5527
 2827SOL    HW113611   8.375  10.333   8.099 -0.4049  0.3976 -0.8078
 2827SOL    HW213612   8.402  10.253   8.225 -2.1406 -2.9640 -2.4872
 2828SOL     OW13613   4.331   0.208   9.441  0.3706  0.8352  0.0910
 2828SOL    HW113614   4.417   0.191   9.480  0.0626  2.0096  1.3474
 2828SOL    HW213615   4.348   0.273   9.373  0.4899  1.0511  0.3240
 2829SOL     OW13616   8.432   0.581   4.071  0.1728 -0.5602 -0.7024
 2829SOL    HW113617   8.413   0.524   3.996  1.7135 -0.4601 -1.1752
 2829SOL    HW213618   8.360   0.564   4.132 -1.1601 -0.5747 -2.2283
 2830SOL     OW13619   4.205   9.296  10.199  0.2186 -0.1060  0.3597
 2830SOL    HW113620   4.292   9.262  10.179 -0.4611 -0.3629 -2.3929
 2830SOL    HW213621   4.171   9.236  10.265  2.5849  0.7603  2.4326
 2831SOL     OW13622   3.474   8.177   6.139 -0.7654 -0.6069  0.3925
 2831SOL    HW113623   3.383   8.200   6.160 -0.3704  0.1504  1.3190
 2831SOL    HW213624   3.501   8.242   6.075 -0.2930  0.3220  1.5104
 2832SOL     OW13625   8.937   0.698   0.221 -0.0786  0.3907 -0.7690
 2832SOL    HW113626   8.884   0.672   0.296  0.4831  1.5146  0.0179
 2832SOL    HW213627   9.023   0.659   0.238  0.3846  1.6478 -0.2475
 2833SOL     OW13628   0.097  10.848  11.116 -0.0755 -0.1459  0.0527
 2833SOL    HW113629   0.060  10.760  11.117  1.0289 -0.6261 -0.0114
 2833SOL    HW213630   0.029  10.904  11.153 -0.6317 -1.0934  0.4703
 2834SOL     OW13631  10.487   8.258   5.078 -0.2172  0.1413  0.0588
 2834SOL    HW113632  10.514   8.202   5.150 -1.8285  0.8639  1.2517
 2834SOL    HW213633  10.567   8.273   5.027  0.2495 -3.2459 -0.3191
 2835SOL     OW13634   8.468   7.157   1.086  0.2261 -0.4949 -0.1813
 2835SOL    HW113635   8.527   7.219   1.044  0.6245 -0.9812 -0.3478
 2835SOL    HW213636   8.523   7.109   1.147  0.1608 -1.4580 -0.8692
 2836SOL     OW13637  11.227  10.004  10.731 -0.0418  0.6413  0.4038
 2836SOL    HW113638  11.247   9.991  10.639  0.8904 -0.1289  0.6973
 2836SOL    HW213639  11.309   9.983  10.776 -0.3422  1.4981  1.3661
 2837SOL     OW13640   4.026   0.353   3.549  0.1286 -0.5104 -0.5008
 2837SOL    HW113641   4.042   0.318   3.461  0.9828  1.8451 -1.3287
 2837SOL    HW213642   3.973   0.432   3.534  0.3952 -0.0113  1.0835
 2838SOL     OW13643   1.393   2.246   7.987  0.2389 -0.3970  0.8053
 2838SOL    HW113644   1.485   2.270   7.979 -0.3009  1.0736 -1.6926
 2838SOL    HW213645   1.380   2.180   7.919 -1.2988  1.9566 -1.2741
 2839SOL     OW13646   5.212   3.582   9.222 -0.0201 -0.0513  0.0072
 2839SOL    HW113647   5.138   3.611   9.168  0.0944 -0.6490 -0.4816
 2839SOL    HW213648   5.243   3.502   9.179  1.9012  1.0266 -0.7053
 2840SOL     OW13649   2.038   3.057   8.636  0.6004 -0.5479  0.3461
 2840SOL    HW113650   2.035   3.011   8.552 -1.5968  1.3046 -0.6348
 2840SOL    HW213651   2.051   3.149   8.612 -1.1592  0.1477  1.9603
 2841SOL     OW13652   8.355   1.430   7.088  0.1027  0.1335 -0.7784
 2841SOL    HW113653   8.305   1.444   7.008  0.1967  2.4481 -0.4627
 2841SOL    HW213654   8.444   1.414   7.058 -0.2099 -0.8972 -1.1974
 2842SOL     OW13655   0.465   3.165   6.908  0.1643  0.6244  0.1295
 2842SOL    HW113656   0.471   3.186   6.815  0.4215  0.8207  0.1915
 2842SOL    HW213657   0.492   3.074   6.914  0.1245  0.6051  0.0080
 2843SOL     OW13658   0.995   0.579   0.768 -0.0338 -0.2947 -0.1819
 2843SOL    HW113659   1.085   0.583   0.799  0.6197 -2.5670 -1.6503
 2843SOL    HW213660   0.997   0.620   0.682 -0.2723 -0.9607 -0.5038
 2844SOL     OW13661   6.545   3.966  10.228  0.0885  0.3417 -0.0853
 2844SOL    HW113662   6.479   4.003  10.287  1.7938 -0.8491  2.6814
 2844SOL    HW213663   6.502   3.892  10.186 -2.0721  2.9267 -2.6184
 2845SOL     OW13664  10.710   3.088   6.396  0.2636 -0.8104 -0.1624
 2845SOL    HW113665  10.778   3.059   6.457 -0.9216 -2.2062  0.5153
 2845SOL    HW213666  10.631   3.042   6.424 -1.2931  1.7805 -0.1201
 2846SOL     OW13667   4.622   3.871   7.264  0.2056  0.3094 -0.0570
 2846SOL    HW113668   4.549   3.901   7.317  1.7472  0.8495  1.8053
 2846SOL    HW213669   4.700   3.894   7.315  1.6623 -0.5419 -1.8463
 2847SOL     OW13670   7.437   2.638   3.811  0.2942 -0.1109 -0.3772
 2847SOL    HW113671   7.428   2.556   3.860 -2.4259  1.7738  2.4507
 2847SOL    HW213672   7.385   2.624   3.731 -0.7972 -0.8829  0.4574
 2848SOL     OW13673   9.072   5.126   3.235 -0.0313 -0.4584  0.0315
 2848SOL    HW113674   8.992   5.075   3.248 -0.4558  0.2389  0.2023
 2848SOL    HW213675   9.065   5.162   3.147  0.1156 -0.4399  0.0260
 2849SOL     OW13676   0.067   6.287  10.426 -0.3838  0.0548  0.2902
 2849SOL    HW113677   0.022   6.332  10.497  0.6734  0.9670  0.4006
 2849SOL    HW213678   0.159   6.315  10.434  0.2956 -2.0839  0.3206
 2850SOL     OW13679   0.771   0.283   2.176 -0.0276  0.7239  0.0085
 2850SOL    HW113680   0.785   0.377   2.168  1.3425  0.5350  0.0908
 2850SOL    HW213681   0.848   0.243   2.136 -0.9466 -0.3844 -0.7199
 2851SOL     OW13682   2.068  10.314   2.583  0.0479  0.1821  0.4078
 2851SOL    HW113683   2.010  10.302   2.658  1.0801  0.0387  1.1919
 2851SOL    HW213684   2.019  10.370   2.523 -1.0020 -0.1568  0.9505
 2852SOL     OW13685   4.910   3.642   2.938  0.3078  0.1211  0.3028
 2852SOL    HW113686   4.880   3.568   2.885  1.6915  1.9470 -3.1604
 2852SOL    HW213687   5.002   3.623   2.955 -0.1606 -0.5164  2.2220
 2853SOL     OW13688   7.227   8.123   2.055 -0.1997 -0.1638 -0.1763
 2853SOL    HW113689   7.287   8.196   2.036  1.7016 -1.8487 -0.8596
 2853SOL    HW213690   7.171   8.118   1.977 -0.2886  0.5108 -0.1625
 2854SOL     OW13691  10.178   7.099   3.702 -0.1279 -0.2756 -0.0406
 2854SOL    HW113692  10.140   7.171   3.652  0.7534  1.0788  1.2312
 2854SOL    HW213693  10.134   7.102   3.787 -0.0045 -1.1820  0.0621
 2855SOL     OW13694   5.276   7.452   4.283 -0.4926 -0.1076  0.0973
 2855SOL    HW113695   5.302   7.541   4.305  0.3503 -0.7141  1.6525
 2855SOL    HW213696   5.281   7.448   4.188 -1.2444  1.7148 -0.0350
 2856SOL     OW13697   5.754   9.328   5.553 -0.7767 -0.6204 -0.3630
 2856SOL    HW113698   5.848   9.331   5.567 -0.7906 -0.4178 -0.3077
 2856SOL    HW213699   5.733   9.412   5.512 -0.9731 -0.5538 -0.1264
 2857SOL     OW13700   1.111   7.960   5.731 -0.0895 -0.2371 -0.2675
 2857SOL    HW113701   1.089   7.869   5.708 -0.0110 -0.0318 -1.1613
 2857SOL    HW213702   1.112   8.006   5.648  0.3176  0.4954  0.1400
 2858SOL     OW13703   1.108   2.025   2.618 -0.2484 -0.5169 -0.9849
 2858SOL    HW113704   1.061   2.091   2.568 -0.0338 -0.0860 -0.6249
 2858SOL    HW213705   1.145   1.966   2.552 -0.2096 -0.1169 -1.3207
 2859SOL     OW13706   7.055   3.746   7.733  0.3520 -0.0864 -0.6271
 2859SOL    HW113707   7.128   3.776   7.787  0.9652  1.0258 -2.0430
 2859SOL    HW213708   6.980   3.743   7.793  1.5404 -1.2755  0.8542
 2860SOL     OW13709   8.933   7.766   0.589  0.1777 -0.5209 -0.2087
 2860SOL    HW113710   8.983   7.684   0.587 -1.7407 -1.7148 -0.8550
 2860SOL    HW213711   8.906   7.780   0.499 -0.1500  0.4247  0.0314
 2861SOL     OW13712  10.171   2.535   9.792 -0.8064 -0.0886  0.1198
 2861SOL    HW113713  10.139   2.617   9.830  0.8394  0.0475  1.3126
 2861SOL    HW213714  10.127   2.466   9.842 -2.2322  0.0524 -0.9214
 2862SOL     OW13715   1.131   1.597   1.462  0.1017  0.4530 -0.0612
 2862SOL    HW113716   1.185   1.618   1.386 -0.4211 -0.8152 -0.7960
 2862SOL    HW213717   1.126   1.679   1.511  2.4861  0.6810 -0.0941
 2863SOL     OW13718  10.905   8.924   4.931  0.2488  0.3626 -0.0180
 2863SOL    HW113719  10.932   8.995   4.989 -1.9335  0.5184  0.8667
 2863SOL    HW213720  10.857   8.967   4.860  1.1939  0.0002 -0.8781
 2864SOL     OW13721   0.613   5.636   3.260 -0.1407 -0.0445  0.1503
 2864SOL    HW113722   0.593   5.702   3.193 -0.3881  0.9082  1.1334
 2864SOL    HW213723   0.709   5.630   3.258 -0.1148  0.3292  0.0311
 2865SOL     OW13724   6.038   5.704   9.278  0.2474 -0.6224 -0.0842
 2865SOL    HW113725   6.021   5.723   9.371  1.6847 -2.6300  0.6241
 2865SOL    HW213726   6.133   5.712   9.270  0.0499  0.2828 -1.5702
 2866SOL     OW13727   1.003   4.107   6.590 -0.3563 -0.0927  0.2441
 2866SOL    HW113728   0.967   4.041   6.529  0.3793 -1.0108  0.7851
 2866SOL    HW213729   1.038   4.055   6.663 -0.8645  0.9792  1.2572
 2867SOL     OW13730   3.187   2.218  10.351  0.0945  0.5858  0.0368
 2867SOL    HW113731   3.214   2.161  10.423 -0.1217 -2.1745 -1.9889
 2867SOL    HW213732   3.122   2.276  10.389 -1.3150 -1.9960  1.6834
 2868SOL     OW13733  10.094   2.736   3.464  0.1411  0.0979 -0.4977
 2868SOL    HW113734  10.001   2.742   3.489  0.7809  3.5713  1.3860
 2868SOL    HW213735  10.093   2.727   3.369 -2.1714 -2.6614 -0.2704
 2869SOL     OW13736   5.950   8.615   1.095  0.2402  0.1121 -0.3643
 2869SOL    HW113737   6.034   8.655   1.117  0.6944 -0.2278 -1.4219
 2869SOL    HW213738   5.973   8.533   1.051 -0.6479 -0.1761 -0.3068
 2870SOL     OW13739   5.588   2.576   1.789 -0.0850  0.0763  0.2555
 2870SOL    HW113740   5.656   2.537   1.843  0.5815 -0.8950 -1.2566
 2870SOL    HW213741   5.507   2.534   1.817  0.1062  0.2990  1.1624
 2871SOL     OW13742  11.063  10.041   4.089 -0.4576  0.0100 -0.2686
 2871SOL    HW113743  11.043  10.116   4.145 -0.4989  0.6332 -1.1227
 2871SOL    HW213744  11.159  10.040   4.086 -0.4179 -0.7236  0.7475
 2872SOL     OW13745  11.008   0.156   2.882 -0.0639 -0.4675  0.5734
 2872SOL    HW113746  11.053   0.227   2.838  2.6214 -1.3824  1.6898
 2872SOL    HW213747  11.036   0.077   2.836 -0.4126 -1.0597  1.3499
 2873SOL     OW13748   9.544   6.056   0.598 -0.7603  0.4813  0.2742
 2873SOL    HW113749   9.628   6.073   0.554 -1.7123 -0.2562 -1.8621
 2873SOL    HW213750   9.556   6.094   0.685  1.2229  1.8518 -0.5363
 2874SOL     OW13751   4.816   4.615   8.784 -0.1801  0.5948  0.2784
 2874SOL    HW113752   4.791   4.704   8.760  0.6720  0.9177  0.5666
 2874SOL    HW213753   4.793   4.607   8.877 -1.7996 -0.0524 -0.1504
 2875SOL     OW13754   8.767   9.237   4.883 -0.1011 -0.2350  0.3904
 2875SOL    HW113755   8.733   9.322   4.914  0.9406  0.7334 -1.0647
 2875SOL    HW213756   8.694   9.199   4.834 -0.6365 -0.2885  1.2043
 2876SOL     OW13757   3.274   7.093   2.372  0.0172 -0.1162 -0.6971
 2876SOL    HW113758   3.206   7.026   2.363 -1.7830  1.8306 -2.0400
 2876SOL    HW213759   3.355   7.049   2.347 -0.5703 -2.7049  1.6851
 2877SOL     OW13760   9.930   2.073   9.597  0.3178  0.0181  0.3919
 2877SOL    HW113761  10.017   2.052   9.562 -0.2952 -1.1380 -0.4737
 2877SOL    HW213762   9.888   1.988   9.609 -1.5687  0.6392 -1.4500
 2878SOL     OW13763   7.827   3.875   7.586  0.0095  0.3138  0.6343
 2878SOL    HW113764   7.898   3.937   7.571 -1.0061  1.2879 -0.2203
 2878SOL    HW213765   7.747   3.928   7.584 -0.9029 -1.0585 -0.5436
 2879SOL     OW13766   1.817   6.710   0.837 -0.5916  0.2446 -0.3421
 2879SOL    HW113767   1.883   6.642   0.825 -0.5967  0.3647 -1.0803
 2879SOL    HW213768   1.745   6.666   0.882 -0.5197 -0.1906 -0.6537
 2880SOL     OW13769   2.624  10.014   7.958 -0.1841 -0.6048  0.7956
 2880SOL    HW113770   2.620  10.089   7.898  1.7531  0.2865  1.7494
 2880SOL    HW213771   2.587  10.048   8.040 -0.6128 -1.1221  0.8182
 2881SOL     OW13772   2.172   3.166  10.882 -0.8116  0.2001 -0.7530
 2881SOL    HW113773   2.207   3.253  10.903 -2.1744  0.1544  1.9373
 2881SOL    HW213774   2.248   3.116  10.854  0.4589  1.5088  0.2490
 2882SOL     OW13775   7.336   3.267   9.367 -0.3003 -0.0434 -0.2674
 2882SOL    HW113776   7.262   3.223   9.409  1.2063  0.3701  2.9517
 2882SOL    HW213777   7.400   3.198   9.351 -0.6709 -0.1160 -1.5034
 2883SOL     OW13778   1.926   6.747   1.072  0.2198 -0.4786  1.3227
 2883SOL    HW113779   1.865   6.748   0.999 -1.3523  1.2698  2.5946
 2883SOL    HW213780   1.992   6.814   1.050  1.1469 -1.6715  0.4081
 2884SOL     OW13781   9.998   2.716   1.627  0.2401  0.7813  0.4582
 2884SOL    HW113782  10.009   2.804   1.592 -0.1870  0.2202 -1.1205
 2884SOL    HW213783   9.953   2.729   1.711  1.2958  2.1388  0.8360
 2885SOL     OW13784  10.294   0.814   8.362 -0.2004  0.6524  0.3986
 2885SOL    HW113785  10.346   0.890   8.337  1.9137 -0.3776  1.5431
 2885SOL    HW213786  10.270   0.831   8.454  1.5622 -0.7209  1.1421
 2886SOL     OW13787   0.789   8.310   6.866  0.3757 -0.3817  0.4683
 2886SOL    HW113788   0.741   8.336   6.945 -1.0498  0.8611 -0.7643
 2886SOL    HW213789   0.758   8.221   6.848  0.5042 -0.5685  1.1639
 2887SOL     OW13790   1.686  10.792   3.022 -0.5190  0.1307  0.1141
 2887SOL    HW113791   1.728  10.769   2.939  0.2195  1.2456  0.1697
 2887SOL    HW213792   1.620  10.723   3.035  1.6059 -1.9494  0.2788
 2888SOL     OW13793  10.442   2.978   0.601 -0.0049  0.2443  0.4345
 2888SOL    HW113794  10.515   3.038   0.617 -0.1291  0.5871 -0.2931
 2888SOL    HW213795  10.467   2.897   0.646  0.6199  0.5083  0.5577
 2889SOL     OW13796   1.983   0.604   7.302  0.3022 -0.8767  0.1977
 2889SOL    HW113797   1.961   0.677   7.244  0.3909 -1.5885 -0.7619
 2889SOL    HW213798   2.023   0.644   7.378  0.5268  0.0615 -0.4091
 2890SOL     OW13799   5.584   4.444   5.924  0.0023  0.0687  0.1063
 2890SOL    HW113800   5.632   4.520   5.889  0.6792 -0.4989 -0.1993
 2890SOL    HW213801   5.647   4.373   5.921 -0.5259 -0.4216  0.7497
 2891SOL     OW13802  11.296   8.937  10.210 -0.1618 -0.2775  0.6065
 2891SOL    HW113803  11.315   9.007  10.273 -2.2347 -1.3940  2.5165
 2891SOL    HW213804  11.201   8.938  10.201 -0.2279 -2.9315  0.7620
 2892SOL     OW13805   0.456   9.865   1.214 -0.6350  0.5654  0.5850
 2892SOL    HW113806   0.478   9.954   1.243 -0.4982  1.0204 -0.8689
 2892SOL    HW213807   0.498   9.857   1.128 -1.0484 -0.7378  0.5004
 2893SOL     OW13808   7.039   0.446   6.783  0.4345  0.1277  0.5267
 2893SOL    HW113809   6.985   0.380   6.740  1.0735 -0.3661  0.4800
 2893SOL    HW213810   7.092   0.484   6.713 -1.8008  2.5640  0.0675
 2894SOL     OW13811   4.118   6.378   1.020  0.0221 -0.3695 -0.6559
 2894SOL    HW113812   4.107   6.473   1.015  1.1209 -0.2213 -0.5101
 2894SOL    HW213813   4.067   6.344   0.947 -1.4325  0.2348  0.0653
 2895SOL     OW13814   0.105   5.047   5.627 -0.2984 -0.3016  0.5671
 2895SOL    HW113815   0.142   4.970   5.584 -0.1624 -0.6963  1.3824
 2895SOL    HW213816   0.164   5.118   5.604 -0.2415 -0.5061  0.0769
 2896SOL     OW13817  10.370   9.772   1.064 -0.0066 -0.1042 -0.0397
 2896SOL    HW113818  10.399   9.732   0.981  0.2193  1.3557 -0.6776
 2896SOL    HW213819  10.281   9.740   1.075  0.0895 -0.6152 -0.6508
 2897SOL     OW13820   4.471  11.245   3.442  0.0773  0.2540 -0.1507
 2897SOL    HW113821   4.558  11.232   3.403  1.1072 -0.4424  2.2809
 2897SOL    HW213822   4.447  11.334   3.418  1.2077  0.2540 -1.3467
 2898SOL     OW13823   0.414   9.705   6.452  0.2399 -0.6067  0.2250
 2898SOL    HW113824   0.496   9.737   6.492  0.7072 -1.0882 -0.3390
 2898SOL    HW213825   0.396   9.767   6.382 -0.1247 -0.2442  0.6364
 2899SOL     OW13826   9.315   2.836   5.815 -0.2003  0.1104  0.1910
 2899SOL    HW113827   9.252   2.810   5.882 -1.0725  1.3859 -0.1052
 2899SOL    HW213828   9.263   2.843   5.735  0.5805 -0.1050 -0.3337
 2900SOL     OW13829   3.769  10.401   1.210  0.2814  0.5578  0.3348
 2900SOL    HW113830   3.796  10.425   1.121  0.9445 -0.8678  0.1336
 2900SOL    HW213831   3.674  10.410   1.209  0.1161 -1.0229 -1.0422
 2901SOL     OW13832   4.057   5.648   2.377 -0.1342  0.7381 -0.2059
 2901SOL    HW113833   4.144   5.681   2.397 -0.2632  0.0890  1.4672
 2901SOL    HW213834   4.071   5.586   2.305  1.0487 -0.6754  1.2147
 2902SOL     OW13835   3.729   4.211   4.574  0.1288 -0.1776  0.6860
 2902SOL    HW113836   3.647   4.248   4.606  0.5678 -0.6792  2.4803
 2902SOL    HW213837   3.703   4.144   4.511 -0.7415  1.3609 -0.6192
 2903SOL     OW13838   6.257  10.094   5.975  0.0192  0.0241  0.1136
 2903SOL    HW113839   6.171  10.053   5.980  0.2994 -0.5025  0.7506
 2903SOL    HW213840   6.248  10.175   6.025 -0.1653  0.0659  0.0117
 2904SOL     OW13841   8.597   6.167   6.642 -0.1917 -0.2812 -0.1651
 2904SOL    HW113842   8.508   6.136   6.660  0.7473 -1.9414  1.7696
 2904SOL    HW213843   8.653   6.092   6.661  1.5913  0.4842 -2.1544
 2905SOL     OW13844   3.950   5.950   2.044 -0.6838  0.5073 -0.1659
 2905SOL    HW113845   3.882   6.016   2.029 -1.7676 -0.5360  0.1970
 2905SOL    HW213846   3.913   5.890   2.108  0.0518 -0.8258 -0.9631
 2906SOL     OW13847   3.531   5.771   8.722  0.2069 -0.8331  0.0712
 2906SOL    HW113848   3.573   5.853   8.749  0.5481 -0.6238 -1.0859
 2906SOL    HW213849   3.489   5.792   8.639 -1.8613 -1.1500  1.0003
 2907SOL     OW13850   7.182   9.644  10.691 -0.6477  0.1138  0.3459
 2907SOL    HW113851   7.247   9.710  10.714  0.2273  0.3469 -2.5626
 2907SOL    HW213852   7.112   9.692  10.648 -0.3045 -0.7161 -1.2006
 2908SOL     OW13853   4.760   0.384   3.459 -0.3693  0.0950  0.0439
 2908SOL    HW113854   4.817   0.353   3.529 -1.2999 -0.3743  0.6162
 2908SOL    HW213855   4.814   0.442   3.407  0.5663 -0.1884  0.6917
 2909SOL     OW13856   3.476  10.940   7.853 -0.3761 -0.0353  0.0230
 2909SOL    HW113857   3.538  11.012   7.859  1.0603 -1.1286 -1.1907
 2909SOL    HW213858   3.523  10.865   7.889 -1.0507 -0.8406 -0.7506
 2910SOL     OW13859   7.487   0.429   5.109 -0.1276  0.1696  0.0294
 2910SOL    HW113860   7.527   0.355   5.155  1.1938  1.4270  0.9099
 2910SOL    HW213861   7.425   0.388   5.048  0.8698 -1.6816  0.2304
 2911SOL     OW13862   0.296   4.723   1.645 -0.0160  0.1855  0.5104
 2911SOL    HW113863   0.255   4.657   1.701  0.3970  0.7707  1.5323
 2911SOL    HW213864   0.366   4.675   1.600 -0.9458 -0.5056 -0.2298
 2912SOL     OW13865   2.220   4.752   4.422 -0.1399  0.1183 -0.1963
 2912SOL    HW113866   2.244   4.734   4.332  0.3673 -0.1051 -0.0168
 2912SOL    HW213867   2.127   4.775   4.418  0.1769  1.3429 -0.9376
 2913SOL     OW13868   1.569   3.568   0.297  0.1697 -0.2210  0.3434
 2913SOL    HW113869   1.618   3.514   0.359  0.1459 -1.0097 -0.3086
 2913SOL    HW213870   1.613   3.552   0.213  0.2682  0.9152  0.1743
 2914SOL     OW13871   1.555   0.373   2.513 -0.1648  0.7027 -0.3174
 2914SOL    HW113872   1.588   0.449   2.464  0.1868 -0.0140 -1.1917
 2914SOL    HW213873   1.617   0.303   2.494 -0.8290  0.0255 -0.0002
 2915SOL     OW13874  11.127  10.291   6.813  0.1272 -0.4257 -0.0413
 2915SOL    HW113875  11.143  10.337   6.731 -0.2549 -0.6965 -0.2696
 2915SOL    HW213876  11.089  10.207   6.787  0.0959 -0.5512  0.4079
 2916SOL     OW13877   5.283   2.936   9.321 -0.3228  0.2082  0.2155
 2916SOL    HW113878   5.191   2.956   9.304 -0.1376  1.6385  0.8015
 2916SOL    HW213879   5.286   2.841   9.328 -1.4935  0.0356 -1.3035
 2917SOL     OW13880  10.880   3.537   1.801  0.0538 -0.1373  0.2581
 2917SOL    HW113881  10.931   3.457   1.807  0.4742  0.2373  2.0115
 2917SOL    HW213882  10.802   3.520   1.854  1.0453  1.2513  2.2254
 2918SOL     OW13883   7.544   0.037   3.438  0.1177 -0.5933  0.3939
 2918SOL    HW113884   7.536  -0.052   3.472  0.7381 -0.1523  1.7299
 2918SOL    HW213885   7.619   0.034   3.380 -0.0610 -1.0149  0.1793
 2919SOL     OW13886   9.645   5.552   2.773 -0.5559 -0.2201  0.0391
 2919SOL    HW113887   9.636   5.610   2.849  1.5067  0.3771 -0.1373
 2919SOL    HW213888   9.572   5.576   2.716 -1.6234 -0.0834  1.4550
 2920SOL     OW13889   1.116   7.227   1.579 -0.3883  0.2088  0.1217
 2920SOL    HW113890   1.092   7.177   1.657  1.1287 -0.0212  0.4578
 2920SOL    HW213891   1.195   7.275   1.605  1.6896 -1.9060 -2.0414
 2921SOL     OW13892   7.687   2.341   3.141 -0.0805 -0.2816 -0.1869
 2921SOL    HW113893   7.763   2.400   3.146  1.0637 -1.7824  0.5050
 2921SOL    HW213894   7.713   2.274   3.078 -0.8239 -0.8133  0.0750
 2922SOL     OW13895   5.376   5.618   6.735 -0.1960  0.5531 -0.0975
 2922SOL    HW113896   5.408   5.701   6.700 -1.2483  0.5199 -1.1858
 2922SOL    HW213897   5.281   5.621   6.721 -0.2462 -0.8286 -0.1379
 2923SOL     OW13898  11.090   8.193  10.608 -0.1845  0.2815 -0.0917
 2923SOL    HW113899  11.092   8.097  10.602 -1.6307  0.3448 -2.4710
 2923SOL    HW213900  11.000   8.216  10.585  0.3028  2.2561 -0.0916
 2924SOL     OW13901   6.086   4.424   3.092 -0.1393  0.5264 -0.3038
 2924SOL    HW113902   6.024   4.386   3.155  1.1191 -2.2548 -0.6888
 2924SOL    HW213903   6.168   4.431   3.141  1.2274 -2.9778 -1.9245
 2925SOL     OW13904   4.126   3.371  10.880 -0.0300 -0.0643 -0.0055
 2925SOL    HW113905   4.100   3.412  10.963  0.6297 -0.4212  0.3768
 2925SOL    HW213906   4.044   3.335  10.845 -0.6565  1.7238 -0.4375
 2926SOL     OW13907   1.645   6.461   6.338  0.3996  0.2957 -0.3502
 2926SOL    HW113908   1.561   6.457   6.384 -0.3776 -0.5577 -1.7896
 2926SOL    HW213909   1.642   6.387   6.277  2.0260  0.5031 -0.7053
 2927SOL     OW13910   0.283   8.429   7.861 -0.5607 -0.0173 -0.0430
 2927SOL    HW113911   0.269   8.346   7.906 -0.7622 -0.7759 -1.4880
 2927SOL    HW213912   0.374   8.424   7.830 -0.2744  0.6962  0.6670
 2928SOL     OW13913   2.106   3.895   4.958  0.2373 -0.1791  0.2907
 2928SOL    HW113914   2.165   3.898   5.034  1.7217 -0.5658 -0.8090
 2928SOL    HW213915   2.161   3.860   4.888 -0.8109  1.2052 -1.2334
 2929SOL     OW13916   5.887   7.428   1.651  0.1112 -0.1769  0.0349
 2929SOL    HW113917   5.844   7.461   1.573  0.7893  2.4491  0.7084
 2929SOL    HW213918   5.935   7.351   1.622  0.7619  1.0535 -2.2546
 2930SOL     OW13919   4.650   2.311   5.683 -0.2245  0.4575  0.2433
 2930SOL    HW113920   4.649   2.229   5.732  0.3415  1.2205  1.5709
 2930SOL    HW213921   4.569   2.311   5.633 -0.0546 -1.0720 -0.0336
 2931SOL     OW13922   7.834   2.381   8.524  0.2174  0.0457  0.0270
 2931SOL    HW113923   7.904   2.436   8.560  0.6201 -0.0427 -0.6186
 2931SOL    HW213924   7.767   2.381   8.592  2.2814 -2.6892  2.2128
 2932SOL     OW13925   1.817   1.675   4.680 -0.4836 -0.5338 -0.3320
 2932SOL    HW113926   1.753   1.613   4.644  1.1195 -4.6698  3.4388
 2932SOL    HW213927   1.901   1.642   4.649  0.5090 -1.2528  2.9267
 2933SOL     OW13928   5.075   5.832   1.518 -0.4515 -0.0601  0.2018
 2933SOL    HW113929   5.146   5.781   1.480 -0.6250 -0.4446  0.3899
 2933SOL    HW213930   5.115   5.877   1.592 -0.7640 -1.4763  1.2352
 2934SOL     OW13931   1.908   1.095   0.763  0.0752  0.2132  0.2386
 2934SOL    HW113932   1.825   1.142   0.758 -0.0467 -0.1512 -1.4771
 2934SOL    HW213933   1.893   1.027   0.829  0.4621  2.9252  3.1906
 2935SOL     OW13934   0.322  10.910   4.107  0.0876  0.4946 -0.3743
 2935SOL    HW113935   0.409  10.950   4.110  0.2920  0.2213 -2.2988
 2935SOL    HW213936   0.334  10.831   4.054 -1.2351  0.1690 -0.2082
 2936SOL     OW13937   2.294   1.172   7.732 -0.0910  0.2225 -0.0208
 2936SOL    HW113938   2.344   1.249   7.758 -0.0755  0.2847 -0.2329
 2936SOL    HW213939   2.204   1.204   7.721  0.3114  0.6967 -2.2718
 2937SOL     OW13940   4.842  10.393   9.454 -0.1635 -0.0144  0.0849
 2937SOL    HW113941   4.848  10.487   9.438  0.8284 -0.2530 -1.0018
 2937SOL    HW213942   4.824  10.385   9.548  1.9790  1.1877  0.6257
 2938SOL     OW13943  10.878   8.860   6.662  0.5326  0.5403 -0.0845
 2938SOL    HW113944  10.812   8.912   6.616 -0.8275 -0.8922  0.1867
 2938SOL    HW213945  10.876   8.775   6.619 -2.1977 -1.4910  3.7245
 2939SOL     OW13946   8.638   9.916   7.729 -0.4262  0.4998 -0.3817
 2939SOL    HW113947   8.657   9.908   7.635  1.4723  1.6146 -0.1214
 2939SOL    HW213948   8.721   9.942   7.768 -0.5135 -2.5135  1.9984
 2940SOL     OW13949   0.180   2.835   6.266 -0.2233  0.0393  0.2914
 2940SOL    HW113950   0.181   2.858   6.359 -1.1332  0.3555  0.2254
 2940SOL    HW213951   0.267   2.862   6.235 -0.5628  1.6322  0.6544
 2941SOL     OW13952   7.366  10.740   2.045 -0.0143  0.2721 -0.2365
 2941SOL    HW113953   7.401  10.704   1.964 -1.0273 -0.1180 -0.5057
 2941SOL    HW213954   7.429  10.714   2.112 -0.1256 -0.9825 -0.6133
 2942SOL     OW13955   7.705   6.082  10.755  0.0497  0.3039 -0.2380
 2942SOL    HW113956   7.633   6.145  10.743  1.6801  2.5456  1.3872
 2942SOL    HW213957   7.664   6.005  10.794 -1.8329  0.6590 -1.4398
 2943SOL     OW13958   9.389   4.879  10.128 -0.6872  0.0843 -0.1163
 2943SOL    HW113959   9.477   4.896  10.095 -1.1049  0.6837 -0.9487
 2943SOL    HW213960   9.373   4.787  10.107 -0.3358  0.0325 -0.1513
 2944SOL     OW13961   3.027   7.031   0.694  0.2204 -0.0414 -0.3953
 2944SOL    HW113962   3.045   7.108   0.748 -1.9486 -0.1310  0.5286
 2944SOL    HW213963   3.042   7.060   0.604  3.2460  0.3005  0.1692
 2945SOL     OW13964   9.267   1.090   0.965  0.1288 -0.1193 -0.0886
 2945SOL    HW113965   9.281   1.047   1.049  0.1490 -0.0978 -0.0808
 2945SOL    HW213966   9.172   1.096   0.956  0.1280 -0.0163 -0.0127
 2946SOL     OW13967   0.136   2.952   1.459  0.2124  0.2812  0.6477
 2946SOL    HW113968   0.102   2.880   1.512  0.5543 -0.4566 -0.1090
 2946SOL    HW213969   0.222   2.971   1.496  1.2607 -1.5039 -0.7730
 2947SOL     OW13970   3.974   1.158   6.197 -0.4534  0.3465 -0.5626
 2947SOL    HW113971   3.898   1.213   6.216  0.0079  0.7051  0.3219
 2947SOL    HW213972   4.005   1.131   6.284  0.3192  0.0671 -0.9255
 2948SOL     OW13973   8.243   9.662   9.648  0.5440 -0.0667  0.2949
 2948SOL    HW113974   8.283   9.721   9.585  0.4274  0.0123  0.2935
 2948SOL    HW213975   8.196   9.719   9.709 -0.3266 -0.1968 -0.2308
 2949SOL     OW13976   1.345   5.186   9.675 -0.1023  0.1145  0.1767
 2949SOL    HW113977   1.306   5.273   9.682  0.1453  0.3985 -1.7669
 2949SOL    HW213978   1.280   5.127   9.714 -1.1586  0.9352 -0.3430
 2950SOL     OW13979   1.536   5.753  10.026 -0.3652 -0.0839  0.3101
 2950SOL    HW113980   1.552   5.695  10.100  2.1124  0.7126  0.4480
 2950SOL    HW213981   1.598   5.724   9.959 -0.2243  1.3625 -0.2068
 2951SOL     OW13982   2.572   5.228  10.939  0.3006 -0.4862  0.0488
 2951SOL    HW113983   2.635   5.174  10.987 -0.2166  0.7190  2.1616
 2951SOL    HW213984   2.531   5.283  11.006  0.5647  2.2878 -1.9453
 2952SOL     OW13985   8.295   6.534   8.441  0.0348  0.0974 -0.4280
 2952SOL    HW113986   8.369   6.479   8.414  0.6050  1.2881 -1.3356
 2952SOL    HW213987   8.219   6.490   8.405  0.5054 -0.0236 -1.2978
 2953SOL     OW13988  10.052  10.764   4.528 -0.0448  0.3763  0.1007
 2953SOL    HW113989  10.040  10.708   4.604 -0.6513 -0.4929 -0.6230
 2953SOL    HW213990  10.134  10.736   4.489 -0.7460 -0.5878 -0.7242
 2954SOL     OW13991   4.328  10.781   3.863  0.5371 -0.2262  0.3885
 2954SOL    HW113992   4.367  10.868   3.867  1.1607 -0.5660  1.8887
 2954SOL    HW213993   4.238  10.793   3.894  0.5472 -0.0786  0.3585
 2955SOL     OW13994   9.342   4.257   0.816 -0.1256  0.1358  0.1388
 2955SOL    HW113995   9.281   4.328   0.838 -0.5312  0.1337 -0.9592
 2955SOL    HW213996   9.418   4.302   0.779  1.6218  0.3339  3.7074
 2956SOL     OW13997   1.305   3.332   7.809 -0.3389  0.1294  0.0101
 2956SOL    HW113998   1.326   3.250   7.854  1.3586  1.7335  2.3010
 2956SOL    HW213999   1.344   3.322   7.722  2.6057 -0.3109  1.3228
 2957SOL     OW14000   7.649   5.809   9.997 -0.0132 -0.3178  0.0065
 2957SOL    HW114001   7.719   5.794   9.933 -1.8547  1.4989 -2.5406
 2957SOL    HW214002   7.575   5.756   9.965 -1.4578  1.8088 -0.2525
 2958SOL     OW14003   1.781   2.557   5.515  0.3709  0.6057 -0.0494
 2958SOL    HW114004   1.827   2.480   5.547  1.5039  0.5996 -1.6287
 2958SOL    HW214005   1.689   2.529   5.509  0.5486 -0.1667  0.7107
 2959SOL     OW14006   0.385   3.263   2.834 -0.1820 -0.1367 -0.1672
 2959SOL    HW114007   0.321   3.332   2.853  0.1191  0.1743 -0.2829
 2959SOL    HW214008   0.438   3.298   2.763  0.2754 -0.2941  0.0941
 2960SOL     OW14009   5.095   4.002   8.695 -0.3830  0.2990 -0.0399
 2960SOL    HW114010   5.084   3.977   8.787  1.7626  1.0352  0.4285
 2960SOL    HW214011   5.046   3.934   8.647 -0.8021 -0.5832  1.5744
 2961SOL     OW14012   8.369   6.921   9.958 -0.3752 -0.0529 -0.0107
 2961SOL    HW114013   8.462   6.902   9.945 -0.7466 -1.4536 -0.6783
 2961SOL    HW214014   8.368   7.004  10.006  1.2145  0.0101 -0.0638
 2962SOL     OW14015   4.156  11.133   4.008 -0.6436  0.3616 -0.6549
 2962SOL    HW114016   4.172  11.226   3.995  0.6344  0.8485  3.6453
 2962SOL    HW214017   4.066  11.129   4.040 -0.2861  0.2707  0.3580
 2963SOL     OW14018   4.542   2.162   3.823  0.0399  0.4063  0.1910
 2963SOL    HW114019   4.600   2.129   3.891 -0.2296 -1.0132 -0.2581
 2963SOL    HW214020   4.456   2.165   3.863 -0.3144 -1.4570 -0.3972
 2964SOL     OW14021   1.055   8.097   2.948 -0.1723  0.1525 -0.3405
 2964SOL    HW114022   0.966   8.078   2.975  0.2591  0.1379  1.1672
 2964SOL    HW214023   1.110   8.048   3.010  0.8752  1.3597 -0.2689
 2965SOL     OW14024   9.648   7.467  10.071 -0.5193  0.3543  0.2622
 2965SOL    HW114025   9.623   7.517   9.994 -0.7208  0.9467  0.7106
 2965SOL    HW214026   9.597   7.504  10.143 -1.6279 -1.3354  0.3754
 2966SOL     OW14027   2.217   6.294   1.660 -0.2959  0.2227  0.5830
 2966SOL    HW114028   2.192   6.386   1.668 -0.6934  0.1512  0.1507
 2966SOL    HW214029   2.137   6.250   1.631 -0.4397 -0.4430  1.9321
 2967SOL     OW14030   9.222   6.027   3.637 -0.4070  0.6393  0.3192
 2967SOL    HW114031   9.217   6.022   3.542 -1.6992 -0.6957  0.4390
 2967SOL    HW214032   9.171   5.952   3.668 -0.5833  1.4567  2.0715
 2968SOL     OW14033   6.564   0.708   4.017  0.5915 -0.0571 -0.0234
 2968SOL    HW114034   6.557   0.652   3.939  1.2281  1.3620 -1.1316
 2968SOL    HW214035   6.476   0.746   4.027  0.8788  0.8980 -0.9576
 2969SOL     OW14036   3.242   6.569  10.032  0.0739  0.3121  0.1775
 2969SOL    HW114037   3.202   6.518   9.961  1.7056  2.6612 -2.5211
 2969SOL    HW214038   3.296   6.506  10.080  1.2579 -0.7612 -2.4683
 2970SOL     OW14039   7.007   9.809  10.896  0.2179 -0.6229  0.1681
 2970SOL    HW114040   6.981   9.717  10.887 -1.1224 -0.5323  2.6534
 2970SOL    HW214041   6.925   9.858  10.890  0.7459  0.2898  0.2965
 2971SOL     OW14042   8.693   8.328   3.871  0.0418  0.0094 -0.5548
 2971SOL    HW114043   8.730   8.247   3.905 -0.7580 -0.2700 -0.3207
 2971SOL    HW214044   8.598   8.319   3.885 -0.1628  0.4887 -1.5840
 2972SOL     OW14045   6.349   7.647   3.677  0.1450  0.3237  0.6078
 2972SOL    HW114046   6.413   7.603   3.733 -0.8564 -0.0624  1.4660
 2972SOL    HW214047   6.360   7.740   3.698  0.4241  0.2608  0.7478
 2973SOL     OW14048   1.947  11.205   7.241  0.0102  0.0884  0.0100
 2973SOL    HW114049   2.012  11.213   7.310 -0.7587  0.4012  0.7086
 2973SOL    HW214050   1.966  11.277   7.181 -1.7600  2.2589  1.9650
 2974SOL     OW14051   4.409   2.681   8.935 -0.1304 -0.1410  1.0189
 2974SOL    HW114052   4.399   2.669   9.030  0.0033  0.1586  1.0692
 2974SOL    HW214053   4.340   2.743   8.911  2.2455  2.8031  1.5453
 2975SOL     OW14054   9.146   1.759   4.687 -0.1478  0.3390 -0.0376
 2975SOL    HW114055   9.103   1.674   4.687 -0.7119  0.6108 -1.6124
 2975SOL    HW214056   9.080   1.820   4.655  0.2088  1.4054  1.2071
 2976SOL     OW14057   1.323   7.041  10.551 -0.0523 -0.3789 -0.9691
 2976SOL    HW114058   1.364   7.065  10.634  0.9203 -1.3992 -1.1351
 2976SOL    HW214059   1.315   7.124  10.503  0.6964  0.0039 -0.4396
 2977SOL     OW14060   1.812   5.520   4.656  0.6587 -0.3985  0.5377
 2977SOL    HW114061   1.828   5.615   4.650  1.0224 -0.4088  1.3372
 2977SOL    HW214062   1.793   5.494   4.566  0.1013  0.5168  0.3721
 2978SOL     OW14063   2.686   0.781   6.644 -0.3439  0.8863  0.0954
 2978SOL    HW114064   2.638   0.700   6.622 -0.9538  1.5096 -0.9234
 2978SOL    HW214065   2.657   0.803   6.732  0.8167 -0.7169  0.9013
 2979SOL     OW14066   0.495   0.436   3.200  0.2454 -0.4416  0.3649
 2979SOL    HW114067   0.550   0.512   3.215 -1.2111  0.6693  0.1828
 2979SOL    HW214068   0.496   0.423   3.105 -1.2507  0.6978  0.1793
 2980SOL     OW14069   7.946   6.267   4.476 -0.1050  0.1917 -0.8574
 2980SOL    HW114070   7.954   6.244   4.383  1.1810 -2.5109 -0.1374
 2980SOL    HW214071   8.031   6.302   4.500 -0.4530  0.9390 -0.6923
 2981SOL     OW14072  10.260   4.188  10.611 -0.1074 -0.0389 -0.4616
 2981SOL    HW114073  10.176   4.209  10.569 -0.1319 -0.0414 -0.4141
 2981SOL    HW214074  10.325   4.232  10.557 -0.2034  0.6361 -0.0385
 2982SOL     OW14075   4.808   1.705   4.101  0.0146  0.0449 -0.1402
 2982SOL    HW114076   4.818   1.641   4.031 -0.2766 -2.5604  2.1025
 2982SOL    HW214077   4.880   1.685   4.162 -0.2998  1.6024  0.7689
 2983SOL     OW14078   4.039   6.794   1.278  0.2114 -0.4380 -0.6880
 2983SOL    HW114079   3.963   6.835   1.237  1.0678  0.2605 -1.5984
 2983SOL    HW214080   4.041   6.832   1.366 -1.3895 -1.6364 -0.0987
 2984SOL     OW14081   1.608   0.413   4.764 -0.0657 -0.6645  0.0660
 2984SOL    HW114082   1.671   0.342   4.772 -0.5178 -1.0244  0.4367
 2984SOL    HW214083   1.526   0.377   4.800 -0.6521 -0.4302 -0.9944
 2985SOL     OW14084   8.432   8.200   4.628 -0.0885 -0.5719 -0.4534
 2985SOL    HW114085   8.401   8.150   4.553  0.0345 -0.1212 -0.8041
 2985SOL    HW214086   8.482   8.272   4.590  0.0926 -0.4232  0.0657
 2986SOL     OW14087   3.654   0.790   6.831 -0.3955 -0.4959 -0.6792
 2986SOL    HW114088   3.716   0.740   6.778  1.0647  2.8216 -2.2594
 2986SOL    HW214089   3.600   0.837   6.767 -0.3450  1.5455  0.7231
 2987SOL     OW14090   8.351   8.651   5.716  0.4321  0.0704 -0.3451
 2987SOL    HW114091   8.387   8.677   5.801  1.8327  2.1549 -1.5326
 2987SOL    HW214092   8.291   8.579   5.737  0.4328  0.8033  2.4423
 2988SOL     OW14093   0.912   7.784   2.663  0.3104 -0.5580 -0.4527
 2988SOL    HW114094   0.862   7.851   2.710  0.8381  0.5281 -1.4419
 2988SOL    HW214095   0.960   7.738   2.732 -0.2756 -0.1162  0.2590
 2989SOL     OW14096   2.559   4.418   0.140  0.1470  0.4995 -0.4863
 2989SOL    HW114097   2.495   4.374   0.195  0.6670  0.1803 -0.1279
 2989SOL    HW214098   2.544   4.511   0.156  0.5853  0.4005  0.5442
 2990SOL     OW14099  11.324   0.532  10.214  0.3226 -0.3840 -0.0297
 2990SOL    HW114100  11.271   0.589  10.159  0.2261  0.4231  0.8914
 2990SOL    HW214101  11.414   0.548  10.186  0.3282  0.4931  0.4552
 2991SOL     OW14102   0.449  10.896   1.482  0.0453 -0.6164  0.3634
 2991SOL    HW114103   0.501  10.977   1.487  0.7850 -1.0415 -0.4351
 2991SOL    HW214104   0.371  10.921   1.433  0.2660 -0.3797  0.1286
 2992SOL     OW14105   1.187   7.475   4.278  0.6050 -0.2286 -0.1516
 2992SOL    HW114106   1.202   7.381   4.293  0.2422 -0.2823 -0.1343
 2992SOL    HW214107   1.099   7.479   4.241 -0.0353  0.2551  1.3753
 2993SOL     OW14108  10.672   6.530   6.632  0.4870 -0.1564  0.6360
 2993SOL    HW114109  10.581   6.554   6.613  0.5248  0.3500  1.0929
 2993SOL    HW214110  10.667   6.442   6.668 -0.0125  0.6374  2.5512
 2994SOL     OW14111   0.215  10.094   8.309  0.2124 -0.1101 -0.0965
 2994SOL    HW114112   0.242  10.010   8.345 -0.0772  0.2478  1.0087
 2994SOL    HW214113   0.278  10.157   8.345  0.3584  0.1600 -0.8189
 2995SOL     OW14114   9.678   5.361   9.124  0.3378  0.2147 -0.2072
 2995SOL    HW114115   9.589   5.397   9.120  0.7923  1.2528 -1.5692
 2995SOL    HW214116   9.686   5.327   9.213 -0.7458  1.8762  0.5561
 2996SOL     OW14117   8.881   2.783  11.000 -0.0588  0.4073  0.0807
 2996SOL    HW114118   8.839   2.729  10.934  2.4294  0.4263 -1.5908
 2996SOL    HW214119   8.812   2.801  11.064 -1.9108 -1.5372 -1.2991
 2997SOL     OW14120   3.792   2.092   3.930  0.1501 -0.0480 -0.0544
 2997SOL    HW114121   3.839   2.108   4.012 -0.4735 -0.9024  0.4776
 2997SOL    HW214122   3.740   2.170   3.917  0.0505 -0.0190  0.5050
 2998SOL     OW14123  10.655   6.492   3.539  0.0686  0.7144  0.0239
 2998SOL    HW114124  10.629   6.582   3.523 -1.2273  0.2056 -0.9190
 2998SOL    HW214125  10.678   6.488   3.632  0.2420  2.0288  0.0342
 2999SOL     OW14126   2.207  10.050   4.886  0.0638 -1.0732  0.1803
 2999SOL    HW114127   2.209  10.136   4.927 -0.0364 -1.7067  1.5472
 2999SOL    HW214128   2.114  10.035   4.865  0.1648 -0.5934 -0.6246
 3000SOL     OW14129   9.891  10.361   4.608  0.2325  0.2029 -0.7387
 3000SOL    HW114130   9.842  10.403   4.536  1.9242  0.6647 -1.6415
 3000SOL    HW214131   9.904  10.431   4.672  0.7567  0.3934 -1.0495
 3001SOL     OW14132   5.448   0.296   8.229  0.0146  0.1342 -0.1358
 3001SOL    HW114133   5.357   0.292   8.260 -0.6321 -0.7017 -2.0887
 3001SOL    HW214134   5.450   0.372   8.171  0.6230  0.2900  0.0845
 3002SOL     OW14135   0.982  11.232   3.133 -0.2546 -0.0456 -0.2642
 3002SOL    HW114136   0.988  11.229   3.229 -2.0892 -0.1316 -0.1286
 3002SOL    HW214137   0.907  11.176   3.112 -0.1927  0.3971 -1.7216
 3003SOL     OW14138   9.120   4.809   4.127  0.5956 -0.1457  0.0183
 3003SOL    HW114139   9.171   4.742   4.082  0.8679  0.2979 -0.3378
 3003SOL    HW214140   9.050   4.760   4.171  0.3075 -0.5904 -0.9112
 3004SOL     OW14141   2.833   7.788   7.003 -0.2559 -0.5261 -0.5953
 3004SOL    HW114142   2.767   7.853   7.025  1.2477  0.6742  0.4923
 3004SOL    HW214143   2.831   7.782   6.908 -0.2503  1.2887 -0.7175
 3005SOL     OW14144   1.439  10.429   7.364 -0.2504 -0.2273 -0.0550
 3005SOL    HW114145   1.526  10.389   7.369 -0.9445 -1.8384 -0.5497
 3005SOL    HW214146   1.453  10.521   7.387  1.4698 -0.6262  0.5276
 3006SOL     OW14147   7.693   1.735   9.155  0.2933 -0.1287  0.0191
 3006SOL    HW114148   7.664   1.669   9.218 -0.8236  2.1240  1.9712
 3006SOL    HW214149   7.783   1.755   9.181 -0.7103  1.9840  2.0085
 3007SOL     OW14150   0.608   7.299   2.121  0.1369  0.0560 -0.1195
 3007SOL    HW114151   0.563   7.374   2.161  0.8041  0.4010 -0.0154
 3007SOL    HW214152   0.647   7.252   2.194  0.0461 -0.1815 -0.2221
 3008SOL     OW14153   3.689   7.872   9.871  0.4086  0.4885 -0.0825
 3008SOL    HW114154   3.721   7.829   9.950 -1.7536 -1.1680 -0.0662
 3008SOL    HW214155   3.617   7.928   9.900 -1.1870 -1.0333 -0.9825
 3009SOL     OW14156   9.091   2.416   0.411  0.4446  0.0392  0.0566
 3009SOL    HW114157   9.165   2.468   0.380 -1.1806  1.2790 -1.8078
 3009SOL    HW214158   9.014   2.458   0.373 -1.0920 -2.3146  0.4706
 3010SOL     OW14159   3.780   4.988  10.277 -0.0167  0.1369  0.2218
 3010SOL    HW114160   3.790   5.080  10.251 -1.8150  0.3787  0.2976
 3010SOL    HW214161   3.824   4.982  10.362  0.5138  0.8194  0.0013
 3011SOL     OW14162   9.886   3.648   9.307  0.4690  0.4104  1.2121
 3011SOL    HW114163   9.839   3.717   9.354 -0.6354  1.4366 -1.2929
 3011SOL    HW214164   9.818   3.604   9.256  1.5354 -1.0327  1.0222
 3012SOL     OW14165   2.116   6.079   3.424  0.7462  0.1019 -0.1105
 3012SOL    HW114166   2.049   6.015   3.448  2.6135 -1.0675  2.1635
 3012SOL    HW214167   2.134   6.061   3.332  0.3419 -1.8102  0.1620
 3013SOL     OW14168   0.480   1.397   9.419 -0.3939  0.6703  0.0788
 3013SOL    HW114169   0.435   1.441   9.491 -0.9823  0.2497 -0.0246
 3013SOL    HW214170   0.423   1.324   9.397  0.8204 -0.4524  0.5867
 3014SOL     OW14171   8.428   4.928   1.912  0.1279 -0.1131  0.5458
 3014SOL    HW114172   8.523   4.910   1.915  0.4422  1.2876 -0.8911
 3014SOL    HW214173   8.388   4.844   1.937  1.7588 -0.3177  2.6507
 3015SOL     OW14174  10.899   1.971   4.977  0.1946  0.2690 -0.0264
 3015SOL    HW114175  10.840   2.040   5.006 -0.5011  0.2650 -1.3540
 3015SOL    HW214176  10.840   1.904   4.940  0.7636 -1.5289  2.1908
 3016SOL     OW14177   6.652   8.633   3.058 -0.5798 -0.1649 -0.0639
 3016SOL    HW114178   6.672   8.574   3.131 -0.1120 -2.1990 -1.7678
 3016SOL    HW214179   6.735   8.676   3.039  0.2055 -2.3814 -1.7512
 3017SOL     OW14180  10.075   1.920   3.791  0.2908 -0.2863  0.0698
 3017SOL    HW114181  10.003   1.934   3.853 -1.2217 -2.8399 -1.0292
 3017SOL    HW214182  10.053   1.976   3.716 -0.9528 -1.5336 -0.5320
 3018SOL     OW14183   4.599   2.655   0.134  0.8254 -0.2966  0.3132
 3018SOL    HW114184   4.672   2.645   0.073  0.4718 -1.2893  0.0378
 3018SOL    HW214185   4.575   2.565   0.157 -0.0409  0.0356  0.7183
 3019SOL     OW14186   4.191   1.862   8.230  0.2390 -0.3505 -0.9869
 3019SOL    HW114187   4.096   1.864   8.238  0.3074  0.4895 -0.2995
 3019SOL    HW214188   4.218   1.954   8.234  1.0967 -0.5970 -0.8785
 3020SOL     OW14189   2.425   8.416   2.085 -0.1560 -0.0855  0.0923
 3020SOL    HW114190   2.369   8.447   2.156 -0.8518 -0.2984 -0.3531
 3020SOL    HW214191   2.468   8.495   2.053  0.7039 -0.1020  1.2151
 3021SOL     OW14192   9.321   8.353   7.538  0.0891  0.1512 -0.1721
 3021SOL    HW114193   9.311   8.442   7.504  0.3658 -0.2358 -1.2946
 3021SOL    HW214194   9.233   8.328   7.566 -0.8040 -0.6624 -3.5193
 3022SOL     OW14195   8.675   9.977   5.174  0.6311 -0.2014 -0.3487
 3022SOL    HW114196   8.679   9.882   5.162  1.6844 -0.2466  0.3021
 3022SOL    HW214197   8.766  10.006   5.169  0.3933  0.6693  0.2827
 3023SOL     OW14198   8.041   4.531  10.342  0.2340 -0.5298  0.0228
 3023SOL    HW114199   8.118   4.587  10.354  0.9798 -1.9113  1.9493
 3023SOL    HW214200   8.076   4.442  10.343 -1.1497 -1.1092 -1.2501
 3024SOL     OW14201   3.433  10.819   0.065  0.3438  0.0227 -0.0822
 3024SOL    HW114202   3.520  10.837   0.099 -0.2248  0.8472  0.9771
 3024SOL    HW214203   3.374  10.837   0.138 -0.5825 -2.4933 -0.1550
 3025SOL     OW14204  10.975   2.389  10.305 -0.4190 -0.5208 -0.4800
 3025SOL    HW114205  10.911   2.318  10.311  0.1878 -1.0684 -0.4148
 3025SOL    HW214206  10.980   2.424  10.394 -1.8706  0.6432 -0.8305
 3026SOL     OW14207   3.167   5.891   3.616 -0.2762 -0.7961 -0.1687
 3026SOL    HW114208   3.161   5.811   3.563  0.3763 -0.1167 -1.2817
 3026SOL    HW214209   3.234   5.871   3.680  0.3924 -0.9034 -0.8909
 3027SOL     OW14210   2.523  10.929   2.000  0.0604  0.5937  0.0566
 3027SOL    HW114211   2.560  10.937   2.088 -0.1415  0.0309  0.1903
 3027SOL    HW214212   2.445  10.984   2.002  0.6207  1.4147 -0.0859
 3028SOL     OW14213   4.021   3.725   0.563  0.2659 -0.4047  0.6856
 3028SOL    HW114214   4.047   3.635   0.583  0.4573 -0.8383 -1.3576
 3028SOL    HW214215   3.926   3.721   0.555  0.3932 -0.7201 -0.7423
 3029SOL     OW14216   1.155   7.168   5.604  0.0690  0.2112 -0.4352
 3029SOL    HW114217   1.186   7.132   5.521  0.8400 -0.1010 -0.0129
 3029SOL    HW214218   1.120   7.093   5.652  2.3425 -0.1451  0.7487
 3030SOL     OW14219   5.695   5.476   1.375 -0.2330 -0.4930 -0.0459
 3030SOL    HW114220   5.620   5.498   1.319  0.0476 -2.0467 -1.0516
 3030SOL    HW214221   5.771   5.513   1.329 -0.2307 -0.0315  0.3267
 3031SOL     OW14222   1.275   1.613   1.216 -0.4075 -0.3078  0.5158
 3031SOL    HW114223   1.370   1.622   1.211 -0.0860 -1.9302  2.9283
 3031SOL    HW214224   1.257   1.524   1.188 -1.1729 -0.1644  0.5267
 3032SOL     OW14225   0.087   2.807   7.365 -0.0500  0.0007 -0.3699
 3032SOL    HW114226   0.002   2.773   7.337 -0.3861 -1.3055  2.1521
 3032SOL    HW214227   0.149   2.736   7.349  0.2883  0.3337 -0.5770
 3033SOL     OW14228  11.288  10.839   1.869  0.8852 -0.1442  0.1462
 3033SOL    HW114229  11.358  10.838   1.804  1.0291  1.9850  0.2261
 3033SOL    HW214230  11.328  10.876   1.948 -0.2113  0.7586  0.3021
 3034SOL     OW14231   9.885   2.045   8.902 -0.3498 -0.0237 -0.5591
 3034SOL    HW114232   9.883   2.087   8.988 -2.0127 -1.1454 -0.0257
 3034SOL    HW214233   9.969   2.000   8.898 -0.5676 -0.5655  0.7902
 3035SOL     OW14234   6.758   4.535   9.017  0.5212 -0.2481  0.1433
 3035SOL    HW114235   6.850   4.556   9.006  0.7016 -1.6712 -1.4411
 3035SOL    HW214236   6.751   4.499   9.105  1.4835 -0.1370  0.2650
 3036SOL     OW14237   3.184   6.235   2.880 -0.1172 -0.4462 -0.2511
 3036SOL    HW114238   3.258   6.237   2.820  0.3409 -0.5621  0.3001
 3036SOL    HW214239   3.197   6.156   2.932  0.9057  1.0057  1.7611
 3037SOL     OW14240   8.413   9.368   6.152 -0.4952 -0.2195 -0.6091
 3037SOL    HW114241   8.467   9.420   6.092  0.6218 -0.6126  0.0491
 3037SOL    HW214242   8.326   9.369   6.112 -0.2522  1.3167 -1.1265
 3038SOL     OW14243   2.531  11.282   8.843  0.2975  0.0674 -0.1457
 3038SOL    HW114244   2.536  11.364   8.796  0.5252  0.6963  0.9493
 3038SOL    HW214245   2.461  11.233   8.799 -1.8962  2.0506  1.0029
 3039SOL     OW14246   3.419   3.642   9.576 -0.6013 -0.7627  0.4220
 3039SOL    HW114247   3.475   3.689   9.514 -0.3851  0.2010  1.3439
 3039SOL    HW214248   3.457   3.554   9.579 -1.1894 -1.1189 -1.5357
 3040SOL     OW14249   7.509   3.626   1.690  0.5624  0.1645 -0.0336
 3040SOL    HW114250   7.422   3.623   1.649  0.0131  0.9117  1.0566
 3040SOL    HW214251   7.526   3.719   1.705  1.7854  0.0584 -0.7190
 3041SOL     OW14252   2.053   9.610   2.967  0.2726  0.3606 -0.2819
 3041SOL    HW114253   1.986   9.656   3.017  1.0909 -0.9487  2.1263
 3041SOL    HW214254   2.130   9.667   2.971  0.3472  0.2416 -0.0105
 3042SOL     OW14255   9.324  10.963   7.417 -0.5038  0.0286  0.1088
 3042SOL    HW114256   9.303  10.881   7.462  1.1236 -0.8779 -0.7652
 3042SOL    HW214257   9.262  10.966   7.343 -1.4152  0.2345  0.8650
 3043SOL     OW14258   3.604   9.237   0.415  0.4362  0.1542 -0.1223
 3043SOL    HW114259   3.587   9.170   0.482 -0.1786  0.6743  0.2514
 3043SOL    HW214260   3.595   9.190   0.332  0.0689 -0.2437  0.1359
 3044SOL     OW14261   7.255   3.541   9.975 -0.4853  0.3474  0.0088
 3044SOL    HW114262   7.186   3.478   9.995  0.9400 -1.7668 -1.5280
 3044SOL    HW214263   7.210   3.626   9.974 -2.7982 -0.8279  0.3052
 3045SOL     OW14264   5.604  10.320   7.000 -0.3515  0.5753 -0.0451
 3045SOL    HW114265   5.589  10.232   7.036 -1.9260  0.8283 -0.0459
 3045SOL    HW214266   5.689  10.314   6.956 -0.2436 -0.8216  0.3250
 3046SOL     OW14267   1.587   0.800   5.180  0.0035  0.4544 -0.4021
 3046SOL    HW114268   1.569   0.853   5.257 -0.8043 -0.0566 -0.2320
 3046SOL    HW214269   1.572   0.860   5.106 -2.0886  0.1641 -0.2574
 3047SOL     OW14270   2.916   2.328   1.850  0.1219  0.0410  0.2607
 3047SOL    HW114271   2.845   2.343   1.913 -0.5023  1.5365 -0.7691
 3047SOL    HW214272   2.871   2.313   1.767  0.9743 -0.7986 -0.0590
 3048SOL     OW14273   1.828   4.485   0.679 -0.0501  0.0935 -0.0852
 3048SOL    HW114274   1.817   4.575   0.710  1.3102 -0.3739  1.8293
 3048SOL    HW214275   1.914   4.484   0.637 -1.2820  0.3686 -2.6829
 3049SOL     OW14276   2.985   8.739   9.443 -0.6128 -0.3425 -0.3003
 3049SOL    HW114277   3.014   8.828   9.463 -0.5934 -0.0281 -1.6514
 3049SOL    HW214278   3.061   8.698   9.402 -0.9483 -0.6488 -0.6233
 3050SOL     OW14279   7.417   8.552   5.612 -0.0034  0.1052  0.2487
 3050SOL    HW114280   7.398   8.645   5.610 -0.7904 -0.0251  1.4652
 3050SOL    HW214281   7.508   8.547   5.643  0.2878  0.4911 -0.5303
 3051SOL     OW14282  10.403   7.374   5.631 -0.2790  0.4172  0.1514
 3051SOL    HW114283  10.406   7.303   5.695  1.4401 -0.4498 -0.8680
 3051SOL    HW214284  10.407   7.330   5.546 -2.1769  1.5748 -0.5753
 3052SOL     OW14285   3.606   2.528  10.552  0.4341  0.3983  0.5321
 3052SOL    HW114286   3.670   2.599  10.544  0.6979  0.1556  0.4707
 3052SOL    HW214287   3.626   2.470  10.479 -0.4590  0.7917 -0.0273
 3053SOL     OW14288   7.139   0.368   5.932  0.2462 -0.1362  0.2037
 3053SOL    HW114289   7.165   0.349   5.842 -1.8961 -1.0171 -0.2627
 3053SOL    HW214290   7.096   0.453   5.927 -1.8693 -1.1830 -0.0357
 3054SOL     OW14291   1.602  11.233   0.476  0.5536  0.0134 -0.2831
 3054SOL    HW114292   1.669  11.175   0.443  0.5423 -0.9318  1.2856
 3054SOL    HW214293   1.650  11.309   0.511  0.7523 -0.2941  0.1118
 3055SOL     OW14294   9.087   1.424   5.603  0.4269  0.3175  0.5547
 3055SOL    HW114295   9.129   1.347   5.642 -0.5103  0.0585  1.0981
 3055SOL    HW214296   9.108   1.495   5.663  0.6472  0.3176  0.4742
 3056SOL     OW14297   6.172   9.891  10.531  0.4870  0.1947  0.0383
 3056SOL    HW114298   6.087   9.875  10.489  0.7453  1.1500 -0.8878
 3056SOL    HW214299   6.228   9.821  10.499  0.6428  0.8363 -1.1414
 3057SOL     OW14300   7.436   4.096   3.305  0.3233  0.0567  0.5370
 3057SOL    HW114301   7.432   4.128   3.214  0.4779  0.4490  0.6676
 3057SOL    HW214302   7.454   4.174   3.357  0.9633 -0.2891  0.8399
 3058SOL     OW14303  10.865   6.982   8.182  0.2658  0.4041 -0.2301
 3058SOL    HW114304  10.855   6.889   8.202  0.5742  0.7686  1.7434
 3058SOL    HW214305  10.776   7.015   8.172  0.1110  0.1551  0.3321
 3059SOL     OW14306   5.685   3.550   1.230 -0.1077  0.2151 -0.0733
 3059SOL    HW114307   5.732   3.588   1.305 -3.0677  2.3025  0.8134
 3059SOL    HW214308   5.595   3.542   1.260 -0.9703 -0.7809 -2.8008
 3060SOL     OW14309   4.440   8.016   1.610 -0.2771  0.2739  0.4111
 3060SOL    HW114310   4.492   7.937   1.605  0.2337  0.6725 -0.7842
 3060SOL    HW214311   4.366   8.001   1.551  0.2365  0.9790 -0.4275
 3061SOL     OW14312   2.200   0.129   0.743 -0.2566 -0.7123 -0.3026
 3061SOL    HW114313   2.237   0.041   0.742 -2.0461 -1.4948 -0.0046
 3061SOL    HW214314   2.119   0.120   0.793 -2.4376  0.3076 -3.5241
 3062SOL     OW14315   6.046   5.273   5.677 -0.2069 -0.3794 -0.4501
 3062SOL    HW114316   5.970   5.228   5.713  0.8740 -2.5145 -0.7535
 3062SOL    HW214317   6.072   5.335   5.745 -0.8284 -1.2681  0.6073
 3063SOL     OW14318  10.498   3.583   6.653  0.1121 -0.1104  0.1787
 3063SOL    HW114319  10.432   3.566   6.586  0.5172  2.5139 -0.9431
 3063SOL    HW214320  10.569   3.628   6.606  1.4720 -0.3779  1.9194
 3064SOL     OW14321   5.847   1.003   6.995 -0.0107 -0.0941 -0.0501
 3064SOL    HW114322   5.786   1.007   7.068 -0.1306 -2.4504  0.0197
 3064SOL    HW214323   5.925   0.962   7.031  0.5984  0.3821 -0.8147
 3065SOL     OW14324   6.081  11.127   9.345 -0.5932  0.0390 -0.2260
 3065SOL    HW114325   6.166  11.109   9.305 -0.8047  0.6329 -0.9577
 3065SOL    HW214326   6.059  11.047   9.392  1.2087  0.5068  1.4867
 3066SOL     OW14327   0.322   5.572   7.518  1.0405  0.1717 -0.2041
 3066SOL    HW114328   0.287   5.548   7.604  0.1440 -1.2010 -0.9402
 3066SOL    HW214329   0.262   5.533   7.455  2.2091  0.3607 -1.4740
 3067SOL     OW14330  11.295   2.804  10.645  0.1268  0.2761 -0.1628
 3067SOL    HW114331  11.296   2.736  10.712  0.5284  1.9434  1.5824
 3067SOL    HW214332  11.317   2.759  10.564 -0.0372 -1.7326  0.8913
 3068SOL     OW14333   0.685   1.067   4.859 -0.5581  0.3387  0.7040
 3068SOL    HW114334   0.747   1.096   4.927 -1.4936  0.6047  1.4433
 3068SOL    HW214335   0.603   1.051   4.906 -0.3458 -2.6202  0.1761
 3069SOL     OW14336   8.900   4.626   4.133  0.2743 -0.4013 -0.1012
 3069SOL    HW114337   8.941   4.552   4.087  0.6422 -0.9434  1.0758
 3069SOL    HW214338   8.807   4.619   4.111  0.3372 -1.0903 -0.1643
 3070SOL     OW14339   0.998   0.468   6.099 -0.3740  0.3880 -0.4734
 3070SOL    HW114340   0.937   0.448   6.029  1.2028 -1.4200 -1.3872
 3070SOL    HW214341   1.068   0.517   6.056  0.8917 -1.2380 -0.3246
 3071SOL     OW14342   2.050  10.844   0.070  0.4359  0.0016  0.5187
 3071SOL    HW114343   2.020  10.765   0.024  3.5987 -0.9525 -0.0119
 3071SOL    HW214344   2.063  10.815   0.160  1.9661 -0.1949  0.2403
 3072SOL     OW14345   5.186   8.450   1.260  0.4453  0.2164  0.1057
 3072SOL    HW114346   5.096   8.453   1.294  0.7560 -0.4843  1.0234
 3072SOL    HW214347   5.198   8.535   1.217  0.4441  1.6844  2.8880
 3073SOL     OW14348   4.578   2.493   6.033 -0.4102  0.1712 -0.2906
 3073SOL    HW114349   4.524   2.509   6.111 -1.4364  2.4023 -1.4226
 3073SOL    HW214350   4.609   2.404   6.044 -3.1033 -0.6467  1.1511
 3074SOL     OW14351   8.081   9.519   7.379 -0.1888 -0.8004  0.4440
 3074SOL    HW114352   8.038   9.474   7.306  1.3182  0.0638 -1.0157
 3074SOL    HW214353   8.017   9.584   7.408 -0.7685 -1.0825 -0.1912
 3075SOL     OW14354   9.240  10.138   2.976 -0.4336 -0.6759 -0.4488
 3075SOL    HW114355   9.281  10.113   3.059 -1.0488  0.9157  0.3602
 3075SOL    HW214356   9.297  10.102   2.909  0.5858 -1.1733  0.6687
 3076SOL     OW14357   0.404   5.507   5.328 -0.4272 -0.2424  0.3281
 3076SOL    HW114358   0.436   5.418   5.310  0.6202  0.5126 -1.7862
 3076SOL    HW214359   0.427   5.523   5.419  1.4812 -1.3058  0.0651
 3077SOL     OW14360   3.863   9.886   2.468  0.0268 -0.0150 -0.0171
 3077SOL    HW114361   3.887   9.979   2.467 -0.6054  0.1465 -1.5059
 3077SOL    HW214362   3.776   9.884   2.508 -0.6251  0.2250 -1.3783
 3078SOL     OW14363   6.704   3.064  10.412  0.0433  0.6114 -0.4865
 3078SOL    HW114364   6.689   2.995  10.346  0.0591  1.0052 -0.9072
 3078SOL    HW214365   6.780   3.112  10.378  0.4162  0.4525  0.1218
 3079SOL     OW14366   9.417   0.466   4.770  0.4948 -0.0281  0.3233
 3079SOL    HW114367   9.445   0.406   4.839 -0.1917  0.5564  1.1188
 3079SOL    HW214368   9.498   0.502   4.734  0.8949 -1.2048  0.0371
 3080SOL     OW14369   3.480   5.746   6.391  0.2370  0.2809 -0.1534
 3080SOL    HW114370   3.531   5.779   6.317  0.0958  1.7008  0.3608
 3080SOL    HW214371   3.538   5.759   6.466  0.4748 -1.3731 -0.0336
 3081SOL     OW14372   8.810   8.030   8.677 -0.0539 -0.0869  0.6391
 3081SOL    HW114373   8.880   8.088   8.647 -1.2206  0.5853 -0.8738
 3081SOL    HW214374   8.794   7.972   8.603 -1.0071 -0.3245  1.0236
 3082SOL     OW14375  11.257   0.457   4.180 -0.0617 -0.0431  0.1005
 3082SOL    HW114376  11.348   0.464   4.208 -0.2060 -0.1225  0.5850
 3082SOL    HW214377  11.246   0.530   4.119  0.8984 -1.2037 -1.5191
 3083SOL     OW14378   9.628  11.077   9.736  0.6227  0.3659  0.2282
 3083SOL    HW114379   9.710  11.127   9.743  0.7509  0.3542 -0.9372
 3083SOL    HW214380   9.612  11.073   9.641 -1.8808  2.2716  0.5037
 3084SOL     OW14381  10.199   0.753   2.328  0.3832 -0.2762  0.9638
 3084SOL    HW114382  10.193   0.839   2.287  0.0435 -0.6821  0.1406
 3084SOL    HW214383  10.282   0.717   2.296 -0.0298 -0.7200  0.3722
 3085SOL     OW14384  10.508  10.607   9.547  0.2806 -0.6661 -0.6286
 3085SOL    HW114385  10.563  10.612   9.468 -0.1601 -1.1828 -0.9713
 3085SOL    HW214386  10.424  10.575   9.516  0.1999 -1.1832  0.1017
 3086SOL     OW14387   9.950  11.100   7.372  0.5012 -0.6231  0.3833
 3086SOL    HW114388   9.909  11.186   7.359  0.4293 -0.8130 -0.6641
 3086SOL    HW214389  10.043  11.119   7.382  0.6348 -0.5108 -0.9762
 3087SOL     OW14390   3.004   0.698   5.871 -0.0217 -0.2692  0.1070
 3087SOL    HW114391   2.963   0.620   5.906  0.6638 -0.3753  0.6954
 3087SOL    HW214392   3.011   0.758   5.945  1.6537 -0.5845  0.2394
 3088SOL     OW14393   6.795   1.223   2.605  0.0377 -0.2198  0.1191
 3088SOL    HW114394   6.858   1.180   2.547  1.0746 -0.5640  1.4768
 3088SOL    HW214395   6.725   1.253   2.546  2.3792  1.9262 -1.7205
 3089SOL     OW14396   7.747   0.908   9.666 -0.0247 -0.1823  0.4250
 3089SOL    HW114397   7.822   0.877   9.717 -0.8537  0.6521  2.2148
 3089SOL    HW214398   7.785   0.962   9.597  0.9849  1.3676  2.1472
 3090SOL     OW14399   1.851   6.173   2.572  0.1773 -0.0975 -0.3696
 3090SOL    HW114400   1.879   6.091   2.611  0.5971 -0.4355 -1.3844
 3090SOL    HW214401   1.772   6.197   2.621 -1.6528 -2.6120 -1.9967
 3091SOL     OW14402  10.641   3.157   0.641 -0.0540 -0.4432  0.0201
 3091SOL    HW114403  10.703   3.207   0.694 -0.5443 -0.5078  0.6502
 3091SOL    HW214404  10.635   3.207   0.559  1.0566 -0.6025 -0.1577
 3092SOL     OW14405   8.644   7.209  11.085 -0.0900 -0.4804 -0.0740
 3092SOL    HW114406   8.718   7.247  11.133 -0.7195 -0.1044  0.6102
 3092SOL    HW214407   8.676   7.202  10.995 -0.0815  2.0763 -0.3110
 3093SOL     OW14408   1.197  11.005   3.410  0.3178  0.8398 -0.0275
 3093SOL    HW114409   1.222  11.085   3.457  0.8119  0.9432 -0.4737
 3093SOL    HW214410   1.171  10.944   3.480 -1.1580  1.7714  0.2503
 3094SOL     OW14411   0.046   7.339   5.830 -0.1165 -0.8145  0.0544
 3094SOL    HW114412   0.012   7.311   5.915  0.4756 -0.0697  0.5442
 3094SOL    HW214413  -0.032   7.349   5.775 -0.6780  0.5054  1.0620
 3095SOL     OW14414   1.548   8.476   3.518  0.2156 -0.5881 -0.1635
 3095SOL    HW114415   1.599   8.529   3.458 -0.4416 -0.2286 -0.4047
 3095SOL    HW214416   1.462   8.468   3.477 -0.8454  1.2438  1.6143
 3096SOL     OW14417   1.747   5.939   3.138 -0.0718 -0.3027 -0.5043
 3096SOL    HW114418   1.774   6.009   3.078 -1.4510  1.9637  1.4007
 3096SOL    HW214419   1.817   5.936   3.204 -0.0128 -0.7243 -0.5851
 3097SOL     OW14420   2.903   4.358   9.502 -0.0064 -0.1038 -0.5552
 3097SOL    HW114421   2.977   4.416   9.486  0.7913 -0.7385  0.7564
 3097SOL    HW214422   2.870   4.336   9.415  1.4369  0.0701 -1.1550
 3098SOL     OW14423   5.228   5.718   2.878 -0.0473 -0.2322  0.4965
 3098SOL    HW114424   5.260   5.807   2.896 -1.2149 -0.0373  1.6616
 3098SOL    HW214425   5.297   5.661   2.911  0.0618  0.2155  1.0456
 3099SOL     OW14426   7.244   3.070   4.976  0.0864 -0.0983  0.5455
 3099SOL    HW114427   7.201   2.996   4.933  2.0272 -0.9218 -0.0071
 3099SOL    HW214428   7.256   3.134   4.905 -0.4748  0.2553  0.7636
 3100SOL     OW14429   4.566   4.077   2.983  0.0279  0.4858 -0.4761
 3100SOL    HW114430   4.551   4.017   3.055  0.4695 -0.8740 -1.5009
 3100SOL    HW214431   4.614   4.150   3.022  0.5791 -0.3994  0.5278
 3101SOL     OW14432   4.843   0.224   2.231 -0.4005 -0.1290  0.5660
 3101SOL    HW114433   4.846   0.153   2.167  0.0275  0.0426  0.3897
 3101SOL    HW214434   4.888   0.189   2.308  0.4474  0.1883  0.2283
 3102SOL     OW14435   7.467   1.050   2.601  0.3623 -0.4233  0.3913
 3102SOL    HW114436   7.372   1.047   2.593  0.3726 -0.4880  0.2913
 3102SOL    HW214437   7.491   1.141   2.583  0.3868 -0.5736 -0.3352
 3103SOL     OW14438   4.520   5.642  10.612  0.4852 -0.0617  0.1634
 3103SOL    HW114439   4.612   5.656  10.634  0.2000  0.1660  1.2546
 3103SOL    HW214440   4.497   5.715  10.555  0.4929  0.8748  1.3597
 3104SOL     OW14441   4.391   8.252   2.227 -0.1989  0.3803  0.1126
 3104SOL    HW114442   4.447   8.317   2.184 -1.7693  2.3139  0.9152
 3104SOL    HW214443   4.398   8.271   2.320 -0.9617 -0.3567  0.3306
 3105SOL     OW14444   1.266   8.732   9.118  0.2426 -0.9422 -0.1768
 3105SOL    HW114445   1.203   8.663   9.138 -0.2356 -0.9963 -1.7599
 3105SOL    HW214446   1.337   8.686   9.073 -0.1936 -0.3978 -1.4575
 3106SOL     OW14447   6.495   0.693   6.466 -0.3877  0.2603 -0.1991
 3106SOL    HW114448   6.495   0.604   6.502  0.1611  1.0667  1.8334
 3106SOL    HW214449   6.403   0.709   6.443 -0.8664 -0.0548  1.4232
 3107SOL     OW14450   2.658   4.906   3.280 -0.1427 -0.0127 -0.0408
 3107SOL    HW114451   2.607   4.827   3.260 -1.0344  0.9550 -1.7255
 3107SOL    HW214452   2.592   4.974   3.293  0.6523  0.7224  0.1909
 3108SOL     OW14453   1.147   6.441   4.721 -0.2913  0.3445  0.1201
 3108SOL    HW114454   1.191   6.357   4.734  0.1351  0.5536  0.0216
 3108SOL    HW214455   1.153   6.458   4.627  0.5397  0.9922  0.2894
 3109SOL     OW14456   1.501   1.862   3.595 -0.0233 -0.9291  0.4699
 3109SOL    HW114457   1.472   1.865   3.504  2.0351  1.3110 -0.1459
 3109SOL    HW214458   1.477   1.774   3.624 -1.2828 -1.4625 -2.0277
 3110SOL     OW14459   0.205   7.179   7.920 -0.0419 -0.6452 -0.0212
 3110SOL    HW114460   0.189   7.185   8.014 -0.2347  0.1635 -0.0993
 3110SOL    HW214461   0.213   7.086   7.902  0.7604 -0.7658  0.9282
 3111SOL     OW14462  10.214   3.390  10.065  1.0304 -0.5541  0.7216
 3111SOL    HW114463  10.236   3.429  10.149 -0.3687  1.4123  0.1960
 3111SOL    HW214464  10.128   3.425  10.043 -0.5267 -4.2807  0.4417
 3112SOL     OW14465  10.656   8.341   3.605  0.8130  0.2197 -0.5596
 3112SOL    HW114466  10.654   8.266   3.547 -1.3454 -2.6185  2.9905
 3112SOL    HW214467  10.581   8.394   3.580  0.1020 -0.8062 -0.6079
 3113SOL     OW14468  10.748   9.019   4.733  0.0134  0.3236  0.9880
 3113SOL    HW114469  10.771   9.036   4.641  0.5258  0.6247  1.1694
 3113SOL    HW214470  10.718   9.103   4.766 -2.1695 -0.2549  0.5260
 3114SOL     OW14471   5.272   6.401   1.300 -0.3945 -0.2361 -0.4960
 3114SOL    HW114472   5.250   6.358   1.217 -0.1139 -1.4990  0.0679
 3114SOL    HW214473   5.310   6.331   1.353  0.3102  0.7866  0.3502
 3115SOL     OW14474   7.727   8.015   2.777 -0.9457 -0.4347 -0.0030
 3115SOL    HW114475   7.665   8.075   2.819 -0.5293 -0.8689  1.2480
 3115SOL    HW214476   7.733   8.047   2.687 -0.1871  1.8478  0.8261
 3116SOL     OW14477   1.538   9.164   3.174  0.2028 -0.5148  0.0907
 3116SOL    HW114478   1.534   9.250   3.133 -0.5469 -0.0590  1.0969
 3116SOL    HW214479   1.582   9.108   3.110  0.1053  0.4652 -0.8340
 3117SOL     OW14480   2.745   2.775   2.537  0.5284 -0.1545  0.4585
 3117SOL    HW114481   2.672   2.835   2.520 -2.4348 -3.0319  2.4211
 3117SOL    HW214482   2.719   2.729   2.616  3.5902 -2.7199  0.0356
 3118SOL     OW14483   6.971   9.406   4.228  0.0018  0.2934  0.1934
 3118SOL    HW114484   6.950   9.499   4.240 -1.5583 -0.2183  1.5169
 3118SOL    HW214485   6.890   9.360   4.247  0.6414 -1.3389 -0.9222
 3119SOL     OW14486   2.960   7.462   4.692 -0.5647 -0.3006 -0.4400
 3119SOL    HW114487   2.892   7.430   4.633 -2.0352 -1.1765  1.6578
 3119SOL    HW214488   3.003   7.533   4.644 -1.6607 -1.0327 -2.5539
 3120SOL     OW14489   1.872   2.251   1.187  0.1925 -0.1089  0.1241
 3120SOL    HW114490   1.866   2.166   1.144  0.8435  0.0560 -0.2842
 3120SOL    HW214491   1.783   2.267   1.221  0.1635 -1.1191  0.5261
 3121SOL     OW14492   2.870  10.063   9.704  0.0033 -0.4635 -0.1379
 3121SOL    HW114493   2.824  10.143   9.730 -0.8860 -1.7846  2.4610
 3121SOL    HW214494   2.811  10.020   9.642 -1.1659 -0.8917  1.2463
 3122SOL     OW14495   8.302   3.072   4.577 -0.5887 -0.3320 -0.2276
 3122SOL    HW114496   8.344   3.135   4.636  0.1027 -1.4583  0.5081
 3122SOL    HW214497   8.333   3.096   4.490  0.1562 -0.0205  0.1193
 3123SOL     OW14498   4.625   4.125   3.442  0.1762  0.2760  0.4493
 3123SOL    HW114499   4.646   4.203   3.492 -0.4418  0.1305  0.9472
 3123SOL    HW214500   4.540   4.144   3.402 -1.4009 -1.2270  2.9383
 3124SOL     OW14501  10.732   9.198   5.904  0.1548 -0.0233  0.1825
 3124SOL    HW114502  10.745   9.292   5.891  2.1383 -0.0721  1.5292
 3124SOL    HW214503  10.775   9.158   5.828  0.8876  0.1033  0.5270
 3125SOL     OW14504   0.028   5.182   1.001 -0.0519  0.0391 -0.2830
 3125SOL    HW114505  -0.040   5.207   0.939 -0.3847 -0.3083 -0.0604
 3125SOL    HW214506  -0.017   5.126   1.065  0.6573 -1.0077 -0.6930
 3126SOL     OW14507   8.236   7.045   8.182  0.1479  0.1827  0.3783
 3126SOL    HW114508   8.231   6.961   8.228 -0.0315 -0.8962 -1.5558
 3126SOL    HW214509   8.152   7.087   8.201 -1.1627 -1.5582 -1.3565
 3127SOL     OW14510   1.575  10.099   6.041 -0.1297  0.1156 -0.3051
 3127SOL    HW114511   1.521  10.056   6.108  0.5483 -0.2292  0.0244
 3127SOL    HW214512   1.597  10.184   6.079 -0.8725  0.4725 -0.6593
 3128SOL     OW14513   1.564   8.119   5.339  0.3609  0.1514 -0.8943
 3128SOL    HW114514   1.557   8.186   5.271  0.1252  1.0733  0.0174
 3128SOL    HW214515   1.642   8.144   5.390  0.5462 -0.5350 -0.8375
 3129SOL     OW14516   3.654   6.343  11.105 -0.0846 -0.0760  0.3348
 3129SOL    HW114517   3.604   6.363  11.026 -0.3720 -1.5822  0.1220
 3129SOL    HW214518   3.595   6.364  11.177  0.6726  2.6652  0.2307
 3130SOL     OW14519   9.831   7.066   8.164 -0.3303  0.4366 -0.0373
 3130SOL    HW114520   9.919   7.053   8.199 -0.0541 -0.4113 -0.9866
 3130SOL    HW214521   9.835   7.150   8.119 -0.3698  0.9963  0.9964
 3131SOL     OW14522   4.028   1.694   4.998  0.4397  0.1952  0.1966
 3131SOL    HW114523   3.959   1.668   5.059  0.5400 -1.3725 -0.3255
 3131SOL    HW214524   3.986   1.691   4.912  0.3383  2.2446  0.1557
 3132SOL     OW14525   3.460   0.760   9.946 -0.3196  0.1357  0.4463
 3132SOL    HW114526   3.496   0.673   9.963 -2.7772 -0.5546  2.3400
 3132SOL    HW214527   3.380   0.744   9.897 -1.3930  1.2376  1.7929
 3133SOL     OW14528  10.412   4.494   8.249 -0.6277 -0.4179 -0.1761
 3133SOL    HW114529  10.325   4.481   8.211 -0.9588 -0.3435  0.5521
 3133SOL    HW214530  10.458   4.548   8.185 -1.4825  0.4667 -0.0546
 3134SOL     OW14531   6.725   0.141   7.685  0.0381 -0.2157 -0.0319
 3134SOL    HW114532   6.653   0.154   7.747  0.7033  1.6411  0.3738
 3134SOL    HW214533   6.794   0.200   7.715  1.0171 -0.5718 -1.5275
 3135SOL     OW14534   7.791   6.231   5.317 -0.1612  0.2409 -0.1093
 3135SOL    HW114535   7.732   6.206   5.247 -2.6896 -0.8828  2.3267
 3135SOL    HW214536   7.753   6.311   5.353  0.4708  0.1835  0.6979
 3136SOL     OW14537   7.820   8.841   8.092 -0.1812  0.0859 -0.6005
 3136SOL    HW114538   7.857   8.785   8.024  0.5160 -0.2175  0.0189
 3136SOL    HW214539   7.862   8.812   8.173  0.9600  2.1478 -0.4010
 3137SOL     OW14540   6.975   2.972   6.176 -0.0832  0.0651  0.7028
 3137SOL    HW114541   6.972   3.038   6.244  1.4195  0.3597  0.5024
 3137SOL    HW214542   6.889   2.975   6.135 -0.0203  1.9262  0.6692
 3138SOL     OW14543   3.489   7.792   6.890 -0.8127 -0.5000  0.3830
 3138SOL    HW114544   3.433   7.788   6.967 -0.9043 -0.4767  0.3172
 3138SOL    HW214545   3.543   7.713   6.895  0.0897  0.1601  1.1703
 3139SOL     OW14546   2.049  10.622   3.151  0.1693 -0.0422 -0.1475
 3139SOL    HW114547   2.021  10.596   3.063 -0.3879  0.3088 -0.0798
 3139SOL    HW214548   1.974  10.670   3.186  0.2858 -0.4319  0.6319
 3140SOL     OW14549   0.075   5.569   0.063  0.5235 -0.6997 -0.6228
 3140SOL    HW114550   0.012   5.598  -0.002  0.3423 -1.5539 -0.8257
 3140SOL    HW214551   0.159   5.601   0.030  0.2763 -0.0790 -0.6552
 3141SOL     OW14552   4.975   2.495   9.419 -0.2532  0.0670 -0.3857
 3141SOL    HW114553   4.900   2.451   9.380  0.0172 -0.3412 -0.4541
 3141SOL    HW214554   4.938   2.568   9.468 -0.4726  1.6062 -2.7733
 3142SOL     OW14555   5.209   5.190   1.689  0.3998  0.0593 -0.3530
 3142SOL    HW114556   5.137   5.137   1.723 -0.3309  0.7918 -0.7582
 3142SOL    HW214557   5.203   5.273   1.737 -1.2162  1.4553 -2.8865
 3143SOL     OW14558   5.945   0.420   3.311  0.7065  0.2387 -0.4066
 3143SOL    HW114559   5.944   0.414   3.216  0.8222 -2.6136 -0.2575
 3143SOL    HW214560   6.022   0.370   3.338 -0.4000 -0.6217  1.2719
 3144SOL     OW14561   5.793   8.080   5.244 -0.0934 -0.5432 -0.6009
 3144SOL    HW114562   5.819   8.019   5.312  0.3654 -0.5283 -0.7547
 3144SOL    HW214563   5.861   8.148   5.246 -1.8215  1.1704  1.0964
 3145SOL     OW14564   9.681   4.883  10.078 -0.3383 -0.2384  0.3670
 3145SOL    HW114565   9.720   4.869  10.164 -1.9619 -0.0151  1.1466
 3145SOL    HW214566   9.740   4.945  10.035  1.2824 -1.4721  0.7495
 3146SOL     OW14567   2.008   3.348  11.257  0.9546  0.2509  0.3048
 3146SOL    HW114568   1.969   3.425  11.299  0.0171  0.5135 -1.0317
 3146SOL    HW214569   2.004   3.367  11.163  1.0183 -1.2864 -0.0234
 3147SOL     OW14570   6.606   4.506   0.220 -0.0469 -0.0094  0.0301
 3147SOL    HW114571   6.617   4.431   0.161 -0.7701 -0.1563  0.0730
 3147SOL    HW214572   6.605   4.582   0.162 -1.7165 -0.2252 -0.2632
 3148SOL     OW14573  11.104   6.965   4.020  0.0596  0.6025  0.5125
 3148SOL    HW114574  11.118   7.039   3.960  2.7049  0.2294  0.6006
 3148SOL    HW214575  11.107   6.888   3.964 -2.2403  0.4968  0.4902
 3149SOL     OW14576   8.424   9.086   1.029 -0.2464 -0.3039  0.7331
 3149SOL    HW114577   8.513   9.111   1.055  0.4076 -1.4706 -0.2816
 3149SOL    HW214578   8.411   8.999   1.068 -0.6593 -0.4445  0.2925
 3150SOL     OW14579   4.969   7.145  10.157  0.1965  0.1761 -0.5239
 3150SOL    HW114580   4.947   7.237  10.171 -1.4793  0.2715 -3.4754
 3150SOL    HW214581   4.960   7.105  10.243  0.4055  2.6589  0.6893
 3151SOL     OW14582   5.772   3.493   9.542  0.1691 -0.3546 -0.4533
 3151SOL    HW114583   5.694   3.536   9.507  0.1990  0.8412  0.9326
 3151SOL    HW214584   5.744   3.459   9.627 -0.4216 -4.8161 -2.2988
 3152SOL     OW14585   7.214  10.200   6.846  0.1329 -0.1285 -0.1766
 3152SOL    HW114586   7.142  10.238   6.895  0.4328  0.6143 -0.3055
 3152SOL    HW214587   7.276  10.272   6.833  0.2872 -0.4306 -1.2086
 3153SOL     OW14588   3.911   4.577   9.197  0.9321 -0.4250  0.1766
 3153SOL    HW114589   3.917   4.592   9.102  2.0376  0.0270  0.3096
 3153SOL    HW214590   3.937   4.485   9.208  2.7224  0.0736  0.2281
 3154SOL     OW14591   9.295   7.880   5.801  0.2685  0.0662  0.5752
 3154SOL    HW114592   9.311   7.791   5.832  0.4930  0.3320  1.2411
 3154SOL    HW214593   9.381   7.914   5.778  0.1025 -0.1182 -0.3272
 3155SOL     OW14594   6.722   7.271   0.015  0.0640 -0.2021  0.0364
 3155SOL    HW114595   6.799   7.240  -0.034  0.3885  0.1730  0.2993
 3155SOL    HW214596   6.742   7.248   0.106  0.7450  1.6104  0.3690
 3156SOL     OW14597   6.200   2.900  10.644 -0.0987 -0.0895 -0.0687
 3156SOL    HW114598   6.257   2.976  10.654 -0.3670  0.1307 -0.1827
 3156SOL    HW214599   6.117   2.937  10.612  0.2722 -0.6101 -1.6596
 3157SOL     OW14600   8.890   6.290   9.960  0.3827 -0.0868  0.8584
 3157SOL    HW114601   8.937   6.357   9.909 -0.1658 -0.5948 -0.3303
 3157SOL    HW214602   8.928   6.207   9.931  0.9564 -0.3254  2.2247
 3158SOL     OW14603   6.234   1.632  10.860  0.1117 -0.0378 -0.0155
 3158SOL    HW114604   6.219   1.665  10.948 -0.1955 -0.0337 -0.0691
 3158SOL    HW214605   6.217   1.707  10.803  1.3857  0.2547 -0.0092
 3159SOL     OW14606   3.721   3.688   6.810 -0.1198  0.5652 -0.0685
 3159SOL    HW114607   3.727   3.601   6.772 -0.2180  0.9637 -1.0101
 3159SOL    HW214608   3.724   3.674   6.905  1.8855 -0.2867 -0.2544
 3160SOL     OW14609   0.990  11.115  10.859  0.3711  0.0809  0.4656
 3160SOL    HW114610   1.083  11.094  10.860  0.6333  1.1254 -0.8930
 3160SOL    HW214611   0.985  11.200  10.816 -1.4035 -0.9492 -1.4706
 3161SOL     OW14612   0.382   1.663   2.442 -0.4153 -0.5249  0.2043
 3161SOL    HW114613   0.414   1.738   2.392 -1.0168  0.2067  0.8980
 3161SOL    HW214614   0.372   1.697   2.531 -1.7749 -1.1201  0.2900
 3162SOL     OW14615   6.678   6.453   3.986  0.2238 -0.3776 -0.1597
 3162SOL    HW114616   6.647   6.363   3.998 -2.2712  0.6111  1.2573
 3162SOL    HW214617   6.616   6.491   3.925  1.5221  0.2721 -1.0760
 3163SOL     OW14618  11.278  10.000   4.608 -0.2260 -0.3703  0.3190
 3163SOL    HW114619  11.201  10.004   4.664  0.9336  0.0814  1.9312
 3163SOL    HW214620  11.245  10.012   4.519 -1.9956 -0.2180  0.9894
 3164SOL     OW14621   1.998   2.522   6.148  0.0187 -0.0406 -0.2064
 3164SOL    HW114622   2.088   2.533   6.178 -0.1681  1.0673 -0.0455
 3164SOL    HW214623   1.958   2.465   6.214  0.9076 -1.4868 -0.8933
 3165SOL     OW14624   1.712   2.313   3.166  0.1613 -1.0098  0.0343
 3165SOL    HW114625   1.645   2.335   3.101 -0.7218 -1.2953  0.8507
 3165SOL    HW214626   1.733   2.397   3.208  0.3130 -0.9226 -0.2132
 3166SOL     OW14627   2.214   4.334   9.190 -0.2604 -0.0870  0.3193
 3166SOL    HW114628   2.223   4.270   9.120 -0.8627 -0.8848  0.9522
 3166SOL    HW214629   2.185   4.414   9.146  2.0850  0.2366 -0.6781
 3167SOL     OW14630   9.533  11.034   4.395 -0.7485  0.0483 -0.1856
 3167SOL    HW114631   9.503  10.949   4.365 -2.4565  0.2855  0.7385
 3167SOL    HW214632   9.454  11.075   4.431 -0.1403  2.3583 -1.3867
 3168SOL     OW14633   2.195   8.774  11.056 -0.0777  0.1910 -0.1303
 3168SOL    HW114634   2.131   8.775  11.127  0.3358 -0.2412  0.2546
 3168SOL    HW214635   2.175   8.852  11.004  0.0287  0.8576  0.8264
 3169SOL     OW14636   9.789   8.439   0.106  0.5919 -0.2102  0.1517
 3169SOL    HW114637   9.772   8.347   0.123  1.7020 -0.5327 -0.3906
 3169SOL    HW214638   9.885   8.447   0.113  0.4533  1.0256  0.8218
 3170SOL     OW14639   4.808   8.885   9.355 -0.0637  0.0952 -0.3034
 3170SOL    HW114640   4.865   8.839   9.415 -0.5219  1.2739  1.0514
 3170SOL    HW214641   4.737   8.823   9.336  0.6306 -0.6494 -0.4582
 3171SOL     OW14642   8.723   3.337   8.233  0.4172  0.3406 -0.0797
 3171SOL    HW114643   8.756   3.299   8.151  0.3374  0.0270  0.0345
 3171SOL    HW214644   8.630   3.312   8.235  0.4290  0.3130  0.1268
 3172SOL     OW14645  11.336  10.163   1.766 -0.3306 -0.6641  0.3455
 3172SOL    HW114646  11.282  10.216   1.708  0.2258 -1.5902 -1.0527
 3172SOL    HW214647  11.277  10.138   1.838 -1.2151 -0.0434 -0.1550
 3173SOL     OW14648   1.617   0.647   3.479 -0.0781 -0.8422  0.1131
 3173SOL    HW114649   1.678   0.576   3.500 -0.1811 -0.9521  0.0406
 3173SOL    HW214650   1.601   0.637   3.385 -0.1609 -0.7758  0.1209
 3174SOL     OW14651   4.010   5.223   0.016 -0.2782 -0.0130 -0.2811
 3174SOL    HW114652   4.010   5.298   0.076 -1.9915 -1.0145  1.0507
 3174SOL    HW214653   3.934   5.171   0.044 -0.6253 -0.9410 -2.8137
 3175SOL     OW14654   1.510  10.249   4.004  0.2098 -0.0194  0.0529
 3175SOL    HW114655   1.555  10.222   3.924 -0.0307 -2.3850  0.6851
 3175SOL    HW214656   1.507  10.345   3.998  1.7762 -0.0497 -1.8928
 3176SOL     OW14657   9.282   5.123   0.188  0.6703  0.1978 -0.1381
 3176SOL    HW114658   9.291   5.033   0.155  2.2702  0.1467  0.3685
 3176SOL    HW214659   9.188   5.136   0.198  0.3297 -0.8422 -1.8191
 3177SOL     OW14660   8.678  10.766   0.276 -0.2931 -0.5340 -0.0685
 3177SOL    HW114661   8.650  10.808   0.195  0.2993  1.1826  0.5795
 3177SOL    HW214662   8.772  10.783   0.280 -0.4180 -0.1135  1.2544
 3178SOL     OW14663   4.060   1.890  10.797  0.1082  0.5967 -0.2168
 3178SOL    HW114664   3.981   1.846  10.763  0.0405 -0.0760  0.7867
 3178SOL    HW214665   4.132   1.832  10.772  0.2818  1.1594 -1.0415
 3179SOL     OW14666   9.009   7.397   0.080 -0.1761 -0.0759 -0.1953
 3179SOL    HW114667   9.020   7.302   0.086 -0.5939 -0.4321 -4.3150
 3179SOL    HW214668   9.099   7.431   0.079 -0.0220 -0.4271  0.5467
 3180SOL     OW14669   1.691   0.008   4.215 -0.0141 -0.2756  0.0980
 3180SOL    HW114670   1.670   0.052   4.297 -0.0916 -0.0177 -0.0613
 3180SOL    HW214671   1.748  -0.065   4.240  1.1892  0.6839  0.2210
 3181SOL     OW14672   8.485   6.854   6.780 -0.3849 -0.1959 -0.8120
 3181SOL    HW114673   8.484   6.789   6.851  1.1281 -1.1857 -1.6683
 3181SOL    HW214674   8.399   6.845   6.739 -0.0242 -2.0322 -1.2205
 3182SOL     OW14675   0.628   5.960   0.199 -0.4008  0.1456  0.1528
 3182SOL    HW114676   0.651   5.878   0.155 -2.7504 -1.5102  1.9411
 3182SOL    HW214677   0.681   5.961   0.278 -1.3510 -0.3004  0.7985
 3183SOL     OW14678   6.843   7.363   3.795  0.5491 -0.1246 -0.2859
 3183SOL    HW114679   6.906   7.336   3.861  1.1994 -0.0561 -0.8684
 3183SOL    HW214680   6.814   7.450   3.823 -2.1180 -1.6714  2.0006
 3184SOL     OW14681   4.910   5.438   0.246  0.1452  0.0835 -0.4210
 3184SOL    HW114682   4.831   5.483   0.277 -0.7664 -2.1723  0.6200
 3184SOL    HW214683   4.960   5.421   0.326  0.6396 -0.4731 -0.8463
 3185SOL     OW14684   2.815   7.510   7.348  0.3276  0.0087 -0.0494
 3185SOL    HW114685   2.746   7.454   7.312 -0.8382  1.8137 -0.6941
 3185SOL    HW214686   2.864   7.539   7.271  0.7368  0.1309  0.2576
 3186SOL     OW14687   4.695   2.079   3.438  0.3740  0.2460  0.4879
 3186SOL    HW114688   4.769   2.019   3.440  0.1779 -0.0019  0.4567
 3186SOL    HW214689   4.631   2.040   3.498  0.2900  0.4823  0.5524
 3187SOL     OW14690   5.397   4.276   6.668 -0.2823 -0.0456 -0.1833
 3187SOL    HW114691   5.462   4.290   6.736 -0.0779  2.5979 -0.8897
 3187SOL    HW214692   5.318   4.251   6.715  0.8147 -1.8026  0.7674
 3188SOL     OW14693  11.154   6.371   5.873 -0.0742 -0.1136  0.0310
 3188SOL    HW114694  11.096   6.348   5.946 -1.1515  0.2240 -0.7055
 3188SOL    HW214695  11.155   6.466   5.872  1.2464 -0.1095  0.6118
 3189SOL     OW14696   3.467   3.264   6.786 -0.9299  0.7277  0.0381
 3189SOL    HW114697   3.391   3.206   6.792  0.5640 -1.3627 -0.8262
 3189SOL    HW214698   3.455   3.309   6.702 -1.9202  1.4605  0.5576
 3190SOL     OW14699   8.654   7.357   4.971 -0.8752  0.3746  0.3549
 3190SOL    HW114700   8.674   7.285   4.913 -2.3194 -0.2405  0.6153
 3190SOL    HW214701   8.740   7.386   5.004 -0.1037  0.3984 -1.6464
 3191SOL     OW14702   4.333   4.920   6.410  0.0572  0.2131 -0.0103
 3191SOL    HW114703   4.402   4.986   6.418  0.5302 -0.3290  0.3477
 3191SOL    HW214704   4.253   4.971   6.396  0.0356  0.9833  2.6332
 3192SOL     OW14705   6.251   2.946   5.732 -0.3917  0.1864 -0.5383
 3192SOL    HW114706   6.251   2.859   5.772  1.5275  0.1115 -0.6555
 3192SOL    HW214707   6.176   2.991   5.773 -1.4861 -1.5480 -0.5920
 3193SOL     OW14708   5.640  10.231  10.116 -0.4821 -0.5127  0.5447
 3193SOL    HW114709   5.598  10.163  10.168  1.1085 -1.5944  0.4458
 3193SOL    HW214710   5.733  10.209  10.119 -0.1247  0.7825 -0.7813
 3194SOL     OW14711   7.714   0.981   6.075  0.6503  0.1481 -0.3658
 3194SOL    HW114712   7.750   1.066   6.051  1.8390  0.0168  0.9085
 3194SOL    HW214713   7.649   0.962   6.007 -1.1521  3.0283  0.4575
 3195SOL     OW14714   4.590   4.664   4.139  0.4052 -0.1347  0.7181
 3195SOL    HW114715   4.581   4.737   4.078 -0.2502  0.0274  1.0040
 3195SOL    HW214716   4.522   4.602   4.111  0.5330 -0.3466  0.8807
 3196SOL     OW14717   9.489   6.454  10.417  0.4374 -0.4629  0.1536
 3196SOL    HW114718   9.414   6.464  10.475  0.2830 -1.1069  0.0731
 3196SOL    HW214719   9.565   6.468  10.474  0.2658 -0.1934  0.3160
 3197SOL     OW14720   1.236   1.726   6.935  0.6051 -0.2702  0.1339
 3197SOL    HW114721   1.269   1.689   6.853  0.7690  1.6199 -0.6706
 3197SOL    HW214722   1.158   1.673   6.955  0.3163 -0.4652 -1.4644
 3198SOL     OW14723   2.893   9.314   9.889 -0.1512  0.1008 -0.5741
 3198SOL    HW114724   2.889   9.408   9.910  1.0271  0.6238 -2.5640
 3198SOL    HW214725   2.891   9.310   9.794  1.0140 -1.8392 -0.5472
 3199SOL     OW14726   2.148   3.473   6.528 -0.2140 -0.2317 -0.1159
 3199SOL    HW114727   2.088   3.513   6.590 -1.1800 -0.2975 -0.9808
 3199SOL    HW214728   2.116   3.501   6.442  1.8973  0.9643 -0.5485
 3200SOL     OW14729   9.130   2.967   1.699 -0.7353 -0.2241  0.5689
 3200SOL    HW114730   9.166   3.043   1.653 -0.3468 -0.8032 -0.0857
 3200SOL    HW214731   9.110   3.000   1.787 -0.8142  0.6996  0.2092
 3201SOL     OW14732   7.056   9.083   7.902  0.0750  0.7314  0.4519
 3201SOL    HW114733   7.129   9.072   7.841 -0.3712  0.4935 -0.0435
 3201SOL    HW214734   7.080   9.030   7.978 -0.8042 -1.5362 -0.7996
 3202SOL     OW14735   7.588   9.993   3.474 -0.4475 -0.2352 -0.1685
 3202SOL    HW114736   7.625   9.934   3.409  0.6056 -0.0156  0.2204
 3202SOL    HW214737   7.635  10.075   3.462 -0.6026 -0.0409  0.5251
 3203SOL     OW14738   5.945   1.976   3.482 -0.1582  0.1144  0.2545
 3203SOL    HW114739   6.000   1.960   3.559 -0.4432  1.1814  0.6918
 3203SOL    HW214740   5.856   1.985   3.518 -0.2323  1.0266 -0.1499
 3204SOL     OW14741   2.839   9.967   2.260  0.2001  0.0209 -0.4967
 3204SOL    HW114742   2.852   9.982   2.166  0.6899  1.4767 -0.2173
 3204SOL    HW214743   2.755  10.010   2.279  0.9101  1.2041  0.0422
 3205SOL     OW14744   3.737  10.214   8.569  0.8021 -0.0223  0.1364
 3205SOL    HW114745   3.688  10.188   8.490 -0.3475 -1.0316  1.1496
 3205SOL    HW214746   3.724  10.141   8.630  2.8663  0.1013  0.7598
 3206SOL     OW14747   7.176  11.146   3.986  0.1111  0.3770 -0.4305
 3206SOL    HW114748   7.159  11.052   3.975  1.1528  0.1755 -0.3444
 3206SOL    HW214749   7.257  11.150   4.037  0.3047  1.3180 -0.8070
 3207SOL     OW14750   1.611   8.280   2.711 -0.6891 -0.0598  0.0341
 3207SOL    HW114751   1.586   8.198   2.670 -2.7324  0.3011  0.5009
 3207SOL    HW214752   1.628   8.340   2.638 -0.2767 -0.5804 -0.2959
 3208SOL     OW14753   9.689   2.216   5.316  0.2392 -0.2707 -0.5450
 3208SOL    HW114754   9.784   2.221   5.326 -0.1284  2.3303  2.3777
 3208SOL    HW214755   9.665   2.135   5.361  1.1803 -1.7016 -2.5595
 3209SOL     OW14756  10.227   0.691   0.828  0.5445 -0.6797  0.0808
 3209SOL    HW114757  10.240   0.674   0.921 -1.2445  0.1533  0.4935
 3209SOL    HW214758  10.274   0.773   0.812  0.0116 -0.3030  0.4593
 3210SOL     OW14759   7.065   5.831   6.512  0.2740  0.6222  0.7354
 3210SOL    HW114760   7.134   5.815   6.576  1.1474  1.4518  0.0123
 3210SOL    HW214761   7.106   5.887   6.446 -0.9002  0.5835 -0.0377
 3211SOL     OW14762  10.042   0.896   6.139 -0.1215  0.0844 -0.2342
 3211SOL    HW114763  10.000   0.862   6.060 -0.7999 -0.4181  0.3354
 3211SOL    HW214764  10.121   0.843   6.148 -0.9140 -1.0207  0.3629
 3212SOL     OW14765   8.856   9.030   2.254  0.4568  0.0625 -0.0982
 3212SOL    HW114766   8.923   8.966   2.227  1.1483 -0.0466  1.8005
 3212SOL    HW214767   8.774   8.980   2.252  0.5096  0.0206 -1.8199
 3213SOL     OW14768   9.044   9.010  10.517  0.2106 -0.2552 -0.3414
 3213SOL    HW114769   9.015   9.066  10.446 -0.7884 -0.5547 -0.1768
 3213SOL    HW214770   9.084   9.069  10.581 -0.9493  0.2919 -0.1110
 3214SOL     OW14771   7.381   7.691   1.731  0.1370  0.3142  0.3971
 3214SOL    HW114772   7.331   7.772   1.720  0.0652  0.2611  0.3320
 3214SOL    HW214773   7.324   7.634   1.782 -0.7433 -0.5341 -1.4987
 3215SOL     OW14774   6.047   2.894   6.701  0.9164 -0.2935 -0.2403
 3215SOL    HW114775   6.053   2.950   6.623 -2.9214  0.5250 -0.0741
 3215SOL    HW214776   6.089   2.945   6.770  0.8642  0.7265 -0.9457
 3216SOL     OW14777   3.398   0.456   6.792 -0.2347 -0.5961  0.5645
 3216SOL    HW114778   3.458   0.498   6.730  1.5277  0.9771  3.2297
 3216SOL    HW214779   3.424   0.364   6.792  2.3148  0.0910  1.7668
 3217SOL     OW14780   0.183  10.773   4.953 -0.0230 -0.0993  0.0856
 3217SOL    HW114781   0.221  10.691   4.923  2.2404  1.0266 -0.1940
 3217SOL    HW214782   0.155  10.755   5.043  0.6136 -1.1214  0.0840
 3218SOL     OW14783   0.931   0.323   9.758 -0.3099 -1.0018 -0.5964
 3218SOL    HW114784   0.876   0.251   9.789  0.7405 -1.2492  0.7554
 3218SOL    HW214785   0.964   0.364   9.838 -0.0739  0.3374 -1.3783
 3219SOL     OW14786   6.286   3.449   0.359  0.0862  0.2008  0.3539
 3219SOL    HW114787   6.318   3.445   0.269 -0.7301  0.4087  0.0499
 3219SOL    HW214788   6.303   3.540   0.386 -2.5035  1.0396 -0.6698
 3220SOL     OW14789   6.728   6.058   1.597 -0.0947 -0.0050 -0.5246
 3220SOL    HW114790   6.711   6.148   1.569  0.2785  0.1007 -0.4137
 3220SOL    HW214791   6.645   6.030   1.637 -0.0330  0.4841 -0.0431
 3221SOL     OW14792   8.345   9.899   9.097  0.3341 -0.3186  0.2468
 3221SOL    HW114793   8.339   9.927   9.006  0.7786 -0.1246  0.2781
 3221SOL    HW214794   8.412   9.831   9.097  0.8943  0.2295  0.5620
 3222SOL     OW14795   5.493   2.008  11.092 -0.0019  0.0376 -0.3571
 3222SOL    HW114796   5.479   2.083  11.034  0.3751  1.2291  1.0701
 3222SOL    HW214797   5.413   2.004  11.144  0.4411  0.1207  0.3245
 3223SOL     OW14798   5.682   4.145   9.931 -0.1163  0.1571 -0.4167
 3223SOL    HW114799   5.709   4.231   9.964  0.8786  0.0805 -1.0088
 3223SOL    HW214800   5.676   4.090  10.009 -0.6805  0.7416 -0.0474
 3224SOL     OW14801   7.096   4.896   1.117 -0.1546 -0.6043  0.1141
 3224SOL    HW114802   7.106   4.833   1.046  0.5943 -1.2578  0.7915
 3224SOL    HW214803   7.070   4.843   1.192 -1.0634  0.0979  0.3069
 3225SOL     OW14804   7.959   6.563   0.611 -0.5124  0.1874 -0.3988
 3225SOL    HW114805   7.879   6.601   0.649  0.5134  0.4479  1.6006
 3225SOL    HW214806   7.981   6.491   0.671  0.5851 -0.0690 -1.0963
 3226SOL     OW14807   4.888   7.377   4.670  0.3208 -0.6007 -0.1462
 3226SOL    HW114808   4.800   7.387   4.706  0.8348 -1.3866  1.3864
 3226SOL    HW214809   4.931   7.461   4.687 -0.2368 -0.0779 -1.2494
 3227SOL     OW14810   1.590   5.564  10.204 -0.2245  0.2402 -0.0159
 3227SOL    HW114811   1.566   5.586  10.294  0.1027 -0.2216  0.1867
 3227SOL    HW214812   1.678   5.527  10.211 -0.5793 -0.6937 -0.4035
 3228SOL     OW14813  10.450   9.396   7.131 -0.1911  0.4074 -0.2755
 3228SOL    HW114814  10.442   9.384   7.037 -0.1171 -1.1220 -0.0894
 3228SOL    HW214815  10.452   9.491   7.143  0.9853  0.6036 -1.9110
 3229SOL     OW14816   1.105   6.191   0.862 -0.0744  0.2172  0.1688
 3229SOL    HW114817   1.036   6.125   0.869 -0.9735  1.0907 -0.3604
 3229SOL    HW214818   1.184   6.146   0.892 -0.3913 -1.5091 -1.4834
 3230SOL     OW14819   3.894  10.095   0.247  0.2921 -0.6775  0.0819
 3230SOL    HW114820   3.932  10.033   0.309  0.8839 -1.2711 -0.8504
 3230SOL    HW214821   3.919  10.181   0.280  2.9294 -1.0618 -0.8022
 3231SOL     OW14822  10.765   3.358   2.338  0.4210  0.1303  0.3032
 3231SOL    HW114823  10.760   3.429   2.402 -0.9984 -0.3335  0.7239
 3231SOL    HW214824  10.765   3.402   2.253 -0.1946  0.6500  0.5704
 3232SOL     OW14825  11.311   8.071   6.500  0.0181  0.5713  0.4175
 3232SOL    HW114826  11.256   8.093   6.575  0.6807 -0.1150  1.1091
 3232SOL    HW214827  11.398   8.059   6.537  0.3322  0.1516 -0.4534
 3233SOL     OW14828   0.064   2.886   7.913 -0.1332 -0.1744 -0.1522
 3233SOL    HW114829   0.092   2.902   7.823  0.6190  1.9234  0.4251
 3233SOL    HW214830  -0.016   2.937   7.922  0.2530  0.3007  0.6138
 3234SOL     OW14831   2.067   0.551   1.945 -0.0131 -0.3543  0.5817
 3234SOL    HW114832   2.145   0.589   1.905 -0.1185 -1.3843 -0.6325
 3234SOL    HW214833   2.001   0.621   1.941  0.1079 -0.3083 -0.6597
 3235SOL     OW14834   5.621   7.668   5.976  0.0112  0.1904 -0.3120
 3235SOL    HW114835   5.695   7.630   6.024 -0.0935 -0.4599 -0.6598
 3235SOL    HW214836   5.636   7.762   5.981  0.9474  0.0609 -0.5084
 3236SOL     OW14837   1.184   0.831   6.133  0.1097 -0.2797 -0.6083
 3236SOL    HW114838   1.187   0.736   6.140  0.1505 -0.2928 -0.8027
 3236SOL    HW214839   1.195   0.862   6.223 -0.2901 -0.4644 -0.4939
 3237SOL     OW14840   1.729   4.402  10.819 -0.3917 -0.0244 -0.0756
 3237SOL    HW114841   1.690   4.349  10.888  0.5790 -0.9268 -0.2002
 3237SOL    HW214842   1.690   4.369  10.738 -0.3292 -0.0718 -0.0869
 3238SOL     OW14843   7.440   0.178  11.251 -0.0735 -0.0058 -0.2306
 3238SOL    HW114844   7.368   0.204  11.194 -0.6553  1.2304  1.0250
 3238SOL    HW214845   7.512   0.155  11.192 -1.5374 -1.4331 -1.5060
 3239SOL     OW14846   9.641   3.094   7.418  0.0257 -0.2928 -0.0749
 3239SOL    HW114847   9.699   3.019   7.403 -1.8183 -1.8701  0.5222
 3239SOL    HW214848   9.699   3.163   7.451  2.2163 -0.5409 -3.1106
 3240SOL     OW14849   8.117   5.944   4.599 -0.1203  0.3402  0.3334
 3240SOL    HW114850   8.167   5.887   4.658  0.8646 -0.5351 -1.3242
 3240SOL    HW214851   8.066   5.883   4.545 -1.9515  1.1741  1.0526
 3241SOL     OW14852   4.564   5.131   8.570  0.1884  0.4432  0.6626
 3241SOL    HW114853   4.522   5.050   8.539 -1.5858  2.3635 -2.1502
 3241SOL    HW214854   4.491   5.191   8.587  1.4623  1.3208  3.2165
 3242SOL     OW14855   0.876   5.176  10.405  0.0795  0.4035 -0.0216
 3242SOL    HW114856   0.830   5.104  10.448  0.8323 -0.5635 -0.7800
 3242SOL    HW214857   0.851   5.169  10.313  1.0193  0.4068 -0.2898
 3243SOL     OW14858   9.636   0.490   9.818  0.2818 -0.0117 -0.0264
 3243SOL    HW114859   9.565   0.440   9.859 -2.6675  2.0114 -2.5321
 3243SOL    HW214860   9.671   0.544   9.889 -0.5738 -1.0999  1.2476
 3244SOL     OW14861   0.530   4.589   3.050 -0.5234  0.9402  0.0405
 3244SOL    HW114862   0.472   4.597   2.974  0.1136 -0.1013 -0.5707
 3244SOL    HW214863   0.470   4.580   3.124 -1.1629  0.6587 -0.4976
 3245SOL     OW14864   6.324   5.837  11.122 -0.0671 -0.2062 -0.2822
 3245SOL    HW114865   6.293   5.758  11.077  0.7447 -0.2055 -0.8618
 3245SOL    HW214866   6.286   5.910  11.073  0.3471 -0.2173 -0.6258
 3246SOL     OW14867   5.554  11.331   3.367  0.1704  0.0841 -0.1914
 3246SOL    HW114868   5.618  11.260   3.374  0.8969  0.5416 -1.9310
 3246SOL    HW214869   5.600  11.401   3.321 -1.4242  0.6107 -1.0212
 3247SOL     OW14870  10.262   3.215   6.256 -0.7493  0.0160 -0.2613
 3247SOL    HW114871  10.288   3.227   6.347 -2.1937  0.9459  0.0520
 3247SOL    HW214872  10.250   3.304   6.223 -0.1670 -0.3172 -1.3814
 3248SOL     OW14873   1.774   1.735   3.715  0.0207 -0.0886  0.1718
 3248SOL    HW114874   1.819   1.744   3.799  0.4136  1.4326 -0.1848
 3248SOL    HW214875   1.694   1.787   3.725 -0.7220 -1.2072  0.1373
 3249SOL     OW14876   7.038   4.020   2.881  0.2620  0.3441 -0.2824
 3249SOL    HW114877   7.120   3.991   2.921  0.5430  1.2669 -0.1718
 3249SOL    HW214878   6.973   3.954   2.907  1.1235 -0.7915 -0.9877
 3250SOL     OW14879   2.700  10.518   4.850 -0.0229  0.5824 -0.2085
 3250SOL    HW114880   2.685  10.487   4.760 -0.7532  0.7246 -0.1445
 3250SOL    HW214881   2.731  10.441   4.897  0.7499  0.6064 -0.6802
 3251SOL     OW14882   2.256   4.459   7.716 -0.0072  0.3393 -0.1704
 3251SOL    HW114883   2.324   4.397   7.741 -0.2731 -0.3946 -1.2616
 3251SOL    HW214884   2.194   4.458   7.789  1.0550  0.9076  0.7701
 3252SOL     OW14885   5.873   3.964   0.150 -0.3633  0.2391 -0.4670
 3252SOL    HW114886   5.855   3.888   0.095  1.2745 -0.1956 -0.4340
 3252SOL    HW214887   5.969   3.971   0.150 -0.3588  0.5660  1.8729
 3253SOL     OW14888   2.242   0.461   4.000 -0.5142  1.0041 -0.5176
 3253SOL    HW114889   2.217   0.493   4.087 -0.3475  0.4568 -0.2669
 3253SOL    HW214890   2.172   0.400   3.976  0.7970 -0.9422  0.4126
 3254SOL     OW14891  10.276   3.552   2.952 -0.0860  0.3965  0.1179
 3254SOL    HW114892  10.181   3.551   2.943 -0.0113  1.3675 -0.9533
 3254SOL    HW214893  10.292   3.587   3.039 -0.7183 -0.2457  0.4929
 3255SOL     OW14894   4.540   4.757   9.585 -0.0265  0.1316 -0.7489
 3255SOL    HW114895   4.519   4.664   9.580  1.2928 -0.1249 -1.7961
 3255SOL    HW214896   4.455   4.801   9.577 -0.8478 -0.9917  1.3462
 3256SOL     OW14897   9.123   6.051   8.114  0.3850 -0.5670 -0.1751
 3256SOL    HW114898   9.055   6.109   8.079  1.5042  0.4929 -0.6247
 3256SOL    HW214899   9.181   6.109   8.163  1.6709 -1.2604 -0.8578
 3257SOL     OW14900   2.741   0.934   1.412 -0.9060 -0.2469 -0.2420
 3257SOL    HW114901   2.720   0.866   1.477 -0.6428  1.0736  1.2606
 3257SOL    HW214902   2.685   1.008   1.436 -1.3364  0.0220 -1.9853
 3258SOL     OW14903   4.449   7.702   4.694 -0.0410 -0.2798  0.1131
 3258SOL    HW114904   4.523   7.643   4.704  0.1972 -0.4891 -2.4543
 3258SOL    HW214905   4.385   7.673   4.758  1.6390 -0.8252  1.5659
 3259SOL     OW14906   9.430   6.021   8.284 -0.4477  0.7333  0.0552
 3259SOL    HW114907   9.367   6.092   8.297 -0.5630  0.7379 -0.4913
 3259SOL    HW214908   9.480   6.048   8.207  0.3718  0.8305  0.6158
 3260SOL     OW14909   1.494   2.974   4.540  0.7280 -0.1017 -0.3881
 3260SOL    HW114910   1.557   3.000   4.608  0.0606  1.3493 -0.3032
 3260SOL    HW214911   1.414   2.953   4.589  0.5285  0.0383 -0.6585
 3261SOL     OW14912   6.164   6.981   2.607  0.3822 -0.3793 -0.7829
 3261SOL    HW114913   6.108   6.997   2.683  1.1538 -1.5305  0.0485
 3261SOL    HW214914   6.222   6.910   2.635  0.7728 -0.7132 -2.4012
 3262SOL     OW14915   6.695   9.397   9.613 -0.3484  0.4654  0.1117
 3262SOL    HW114916   6.753   9.455   9.662 -1.1208  0.2263  1.3321
 3262SOL    HW214917   6.753   9.347   9.556  0.2798  2.8872 -1.4545
 3263SOL     OW14918   5.341   4.937   2.667 -0.1408  0.0612  0.1698
 3263SOL    HW114919   5.432   4.951   2.692 -0.7630 -0.3206  2.7495
 3263SOL    HW214920   5.323   4.846   2.693 -1.2195  0.0929 -0.4607
 3264SOL     OW14921   1.707   7.548   6.291 -0.2953  0.5982 -0.4855
 3264SOL    HW114922   1.733   7.640   6.292 -1.1501  0.8359  1.1707
 3264SOL    HW214923   1.616   7.549   6.320  0.5474 -1.0386  2.2914
 3265SOL     OW14924   6.900   1.768   2.084  0.2243 -0.0311 -0.3726
 3265SOL    HW114925   6.922   1.827   2.156 -4.3115 -1.3411  2.3445
 3265SOL    HW214926   6.826   1.810   2.040  0.2893 -1.2125 -1.6528
 3266SOL     OW14927   4.208   9.857   2.661 -0.1579  0.0726  0.0055
 3266SOL    HW114928   4.274   9.860   2.730 -1.1470 -1.1780  1.0383
 3266SOL    HW214929   4.241   9.791   2.599  1.2626  1.9656 -1.3233
 3267SOL     OW14930   8.773   4.994   6.629  0.4845 -0.0876 -0.7279
 3267SOL    HW114931   8.712   5.029   6.565 -0.4505  2.0796  1.2760
 3267SOL    HW214932   8.747   5.034   6.712  3.1877 -0.9092  0.5878
 3268SOL     OW14933   7.372  11.176   0.949 -0.3720 -0.4448  0.1051
 3268SOL    HW114934   7.314  11.106   0.920 -1.2330  0.9504 -1.6551
 3268SOL    HW214935   7.401  11.219   0.869  1.2541  0.3462  1.0779
 3269SOL     OW14936   1.764   3.904   8.932  0.0938 -0.0393 -0.0446
 3269SOL    HW114937   1.779   3.831   8.872 -1.3104 -0.0151 -0.4322
 3269SOL    HW214938   1.813   3.976   8.894  0.9187 -0.5789 -0.0344
 3270SOL     OW14939   0.444   3.149  11.003 -0.2232 -0.2056  0.0745
 3270SOL    HW114940   0.486   3.223  11.045 -0.7765 -0.9444  1.9674
 3270SOL    HW214941   0.494   3.073  11.032 -0.8882 -0.7727 -0.2507
 3271SOL     OW14942   0.799   8.158   9.509 -0.0258 -0.1963 -0.7095
 3271SOL    HW114943   0.877   8.204   9.477  0.7261 -2.0757 -1.6806
 3271SOL    HW214944   0.791   8.083   9.450 -0.6152 -1.8736  1.4523
 3272SOL     OW14945   7.213   1.526   0.464  0.3463 -0.1402  0.0228
 3272SOL    HW114946   7.154   1.482   0.525  1.3506 -0.8555  0.4954
 3272SOL    HW214947   7.252   1.597   0.514 -1.0558  1.1338 -0.6595
 3273SOL     OW14948   8.863   9.256   5.267 -0.6816 -0.4708  0.2855
 3273SOL    HW114949   8.888   9.173   5.226  0.3078  0.7737 -1.6975
 3273SOL    HW214950   8.887   9.323   5.203  1.7883  1.6472  3.2599
 3274SOL     OW14951   8.638  11.251   8.699 -0.5036 -0.1808  0.0228
 3274SOL    HW114952   8.549  11.266   8.666  0.2602  1.8305 -1.1865
 3274SOL    HW214953   8.667  11.172   8.652 -0.4896  1.0056 -2.0502
 3275SOL     OW14954  10.268   8.765   6.910 -0.3753  0.2442  0.4534
 3275SOL    HW114955  10.198   8.703   6.930 -0.0419 -0.3270 -0.1595
 3275SOL    HW214956  10.232   8.850   6.936 -1.1661 -0.0926  0.4706
 3276SOL     OW14957   5.050  10.896   6.979  0.5807  0.2529  0.2661
 3276SOL    HW114958   5.009  10.921   7.062 -0.1754 -1.0215  0.2859
 3276SOL    HW214959   4.985  10.917   6.912  0.0901 -1.2462  0.2482
 3277SOL     OW14960   2.920   5.268   2.258  0.3664  0.6585  0.0826
 3277SOL    HW114961   2.831   5.291   2.285 -0.5718 -0.1969 -2.1375
 3277SOL    HW214962   2.974   5.284   2.335 -1.3376  3.4552  0.7302
 3278SOL     OW14963   3.652   7.033   0.970 -0.3436  0.0559 -0.3161
 3278SOL    HW114964   3.684   7.123   0.975 -0.5756  0.0399  1.8054
 3278SOL    HW214965   3.642   7.016   0.876  1.6817  1.5290 -0.8282
 3279SOL     OW14966   4.143   4.355   2.672 -0.1768  0.6438  0.2472
 3279SOL    HW114967   4.089   4.304   2.611  0.8005 -1.8986  1.3934
 3279SOL    HW214968   4.133   4.446   2.644 -2.2457 -0.1433 -1.7143
 3280SOL     OW14969   9.886  10.846   4.311  0.3625 -0.3011 -0.3705
 3280SOL    HW114970   9.932  10.928   4.293  0.2138 -0.2037 -0.3017
 3280SOL    HW214971   9.920  10.817   4.395 -1.5595  1.0665  0.9014
 3281SOL     OW14972   6.187   3.867   0.537  0.7110 -0.2054 -0.0486
 3281SOL    HW114973   6.208   3.915   0.616  3.4591 -0.1141 -0.7858
 3281SOL    HW214974   6.149   3.933   0.478  2.3312  0.5680 -0.2351
 3282SOL     OW14975   1.234   0.547   7.153  0.2107  0.4096  0.1305
 3282SOL    HW114976   1.298   0.556   7.223 -2.5485 -0.7280  2.8933
 3282SOL    HW214977   1.250   0.459   7.118  2.0367  1.2353 -1.1748
 3283SOL     OW14978   3.267   6.063   0.092 -0.2273  0.5971  0.1072
 3283SOL    HW114979   3.221   5.979   0.084  0.2435  0.4704 -1.6402
 3283SOL    HW214980   3.317   6.055   0.173  0.0980 -0.9653 -0.2244
 3284SOL     OW14981   5.078   7.336   7.712  0.1178  0.2978  0.4369
 3284SOL    HW114982   5.012   7.398   7.680  1.2820  0.8891 -0.8416
 3284SOL    HW214983   5.162   7.380   7.696  0.8628 -0.7420  1.4195
 3285SOL     OW14984   0.095  11.290   1.923  0.2123  0.2011 -0.1470
 3285SOL    HW114985   0.121  11.375   1.890  0.4106  0.1347 -0.1580
 3285SOL    HW214986   0.121  11.228   1.855  1.5319 -0.0443  0.5796
 3286SOL     OW14987   8.444  11.140   1.422  0.1454  0.0751  0.0236
 3286SOL    HW114988   8.397  11.195   1.485 -1.6054 -1.5763  0.2067
 3286SOL    HW214989   8.385  11.133   1.348  0.3164 -1.6067  0.0350
 3287SOL     OW14990   3.451  10.653   1.432  0.1581 -0.0056 -0.1583
 3287SOL    HW114991   3.520  10.685   1.490 -0.7522  0.9284  0.4463
 3287SOL    HW214992   3.396  10.598   1.487  0.2728 -0.5284 -0.5656
 3288SOL     OW14993   9.414   2.045   2.481  0.6571  0.7066 -0.1324
 3288SOL    HW114994   9.439   1.967   2.433  0.9913  0.8562 -0.2035
 3288SOL    HW214995   9.319   2.052   2.468  0.9491  1.5289 -1.9418
 3289SOL     OW14996   0.225   7.324   1.553  0.4254 -0.3068 -0.1942
 3289SOL    HW114997   0.241   7.418   1.557  1.6134 -0.5069 -0.2042
 3289SOL    HW214998   0.184   7.310   1.468  0.9999  0.0911 -0.5400
 3290SOL     OW14999   8.413  10.250   4.413  0.5920 -0.1787 -0.6514
 3290SOL    HW115000   8.443  10.324   4.467  0.1980  0.0716 -0.7818
 3290SOL    HW215001   8.392  10.288   4.328  0.3403 -0.4320 -0.7046
 3291SOL     OW15002   9.942   7.309   1.401 -0.0730 -0.1909 -0.2248
 3291SOL    HW115003   9.861   7.288   1.448  0.1049  1.6773  0.9873
 3291SOL    HW215004   9.951   7.240   1.335 -1.1397 -2.0363  1.5079
 3292SOL     OW15005   4.102   7.058   5.267 -0.2827  0.3584 -0.8568
 3292SOL    HW115006   4.007   7.056   5.276 -0.0466 -0.4408  1.7620
 3292SOL    HW215007   4.135   7.037   5.354  2.3047  1.0628 -1.6232
 3293SOL     OW15008   1.652   2.818  10.581  0.0069  0.6105  0.1974
 3293SOL    HW115009   1.598   2.739  10.593  1.1643 -0.2507 -0.1775
 3293SOL    HW215010   1.696   2.804  10.497 -0.7382  2.2447 -0.4888
 3294SOL     OW15011  10.090   7.440   0.859  0.0197 -0.1994  0.3996
 3294SOL    HW115012  10.025   7.509   0.846  1.3822  0.8828 -0.9155
 3294SOL    HW215013  10.044   7.372   0.907 -2.2887  0.2597 -1.0654
 3295SOL     OW15014  10.194   7.459   8.344  0.0471  0.2628 -0.6868
 3295SOL    HW115015  10.215   7.549   8.317 -0.8328  0.3016 -1.2507
 3295SOL    HW215016  10.167   7.416   8.263 -1.9287  0.1841  0.0109
 3296SOL     OW15017   5.220   8.118   9.799 -0.2509  0.2125  0.0903
 3296SOL    HW115018   5.205   8.033   9.758  1.2019  0.7764 -1.6654
 3296SOL    HW215019   5.196   8.105   9.891  1.9327 -2.7019  0.3167
 3297SOL     OW15020   6.267  10.412   1.316 -0.0838 -0.0734 -0.3638
 3297SOL    HW115021   6.178  10.394   1.285 -0.1658 -1.7674  0.7719
 3297SOL    HW215022   6.300  10.327   1.344  1.2372  0.8503  0.9551
 3298SOL     OW15023   0.723  10.908   7.072  0.0090  0.0690  0.0642
 3298SOL    HW115024   0.650  10.928   7.013 -0.4859 -0.0091  0.6459
 3298SOL    HW215025   0.704  10.820   7.105  1.5918 -0.9166 -1.6019
 3299SOL     OW15026   5.969  10.831   1.632  0.0447  0.0613  0.4186
 3299SOL    HW115027   5.976  10.826   1.727  1.9397  1.3809  0.3859
 3299SOL    HW215028   5.945  10.742   1.604  1.0529 -0.7214  2.0066
 3300SOL     OW15029  10.493   4.096   2.605 -0.4669  0.0249 -0.1764
 3300SOL    HW115030  10.430   4.030   2.575  0.3847 -0.5965 -0.6209
 3300SOL    HW215031  10.554   4.047   2.660  0.6518  0.2747 -1.1694
 3301SOL     OW15032   4.939   1.314   4.768  0.1128  0.3321  0.4574
 3301SOL    HW115033   4.924   1.390   4.712 -0.4545  0.9052  1.3661
 3301SOL    HW215034   5.033   1.296   4.760  0.1222  0.6936 -0.2927
 3302SOL     OW15035   6.406   5.076   5.547 -0.0762 -0.2064 -1.1333
 3302SOL    HW115036   6.450   5.019   5.484 -0.1314  0.7578 -2.0695
 3302SOL    HW215037   6.313   5.053   5.539 -0.4839  2.1326 -3.7863
 3303SOL     OW15038  11.290   9.694   4.486 -0.4079  0.2134 -0.2982
 3303SOL    HW115039  11.256   9.749   4.557 -0.4461 -0.0597 -0.0999
 3303SOL    HW215040  11.271   9.743   4.406  1.7412  1.6390  0.0023
 3304SOL     OW15041   1.909   4.811   4.418 -0.5285  0.0838 -0.0076
 3304SOL    HW115042   1.922   4.735   4.361  1.1045 -0.5538  1.1555
 3304SOL    HW215043   1.894   4.884   4.357  1.5754 -0.4949 -1.3192
 3305SOL     OW15044  10.804   7.625  10.558 -0.4356  0.0324 -0.2637
 3305SOL    HW115045  10.898   7.621  10.544 -0.5696  1.0003 -1.5478
 3305SOL    HW215046  10.769   7.658  10.475 -2.0222 -1.5176 -0.2316
 3306SOL     OW15047   4.964  11.024  10.647  0.1388  0.2783 -0.0919
 3306SOL    HW115048   4.919  10.946  10.615 -0.0267  0.4637 -0.3232
 3306SOL    HW215049   5.038  11.035  10.587 -0.8901  1.3503 -1.2201
 3307SOL     OW15050   4.082   1.936   0.416  0.2399 -0.4108 -0.5451
 3307SOL    HW115051   4.108   1.917   0.506  1.1363 -0.9265 -0.9058
 3307SOL    HW215052   3.988   1.955   0.421 -0.0860 -2.1459  0.2516
 3308SOL     OW15053   1.086   0.561   3.259  0.0637 -0.1226 -0.4795
 3308SOL    HW115054   1.085   0.573   3.354 -1.4981 -0.0847 -0.5003
 3308SOL    HW215055   1.109   0.647   3.224  0.2915 -0.0503 -0.1553
 3309SOL     OW15056  11.151   5.401   0.651 -0.0350 -0.0689 -0.5943
 3309SOL    HW115057  11.078   5.358   0.695  2.2222 -0.2069  3.1735
 3309SOL    HW215058  11.117   5.489   0.629 -1.7065 -0.5641 -0.0845
 3310SOL     OW15059   1.104   2.905   1.604  0.0878  0.4486 -0.2785
 3310SOL    HW115060   1.095   3.000   1.593 -1.3031  0.5322  1.4031
 3310SOL    HW215061   1.175   2.895   1.668  0.6465  0.3306 -0.9144
 3311SOL     OW15062   9.671   9.415   1.297 -0.2221 -0.0694 -0.0146
 3311SOL    HW115063   9.602   9.476   1.270  0.3802  0.8105  0.4123
 3311SOL    HW215064   9.624   9.338   1.328 -1.0319  0.5899  0.4336
 3312SOL     OW15065  10.329   6.861   3.724 -0.0626 -0.1956 -0.3205
 3312SOL    HW115066  10.264   6.798   3.694 -1.0199  0.8724 -0.5064
 3312SOL    HW215067  10.292   6.947   3.701  0.5708  0.4950  1.1940
 3313SOL     OW15068   5.540   4.466   3.372 -0.1670 -0.8086  0.1449
 3313SOL    HW115069   5.464   4.471   3.429 -1.0133 -0.9815 -0.9571
 3313SOL    HW215070   5.589   4.390   3.405  0.2245  0.0946  1.6797
 3314SOL     OW15071   2.212   9.873   3.213  0.2552  0.2075 -0.0660
 3314SOL    HW115072   2.142   9.926   3.250 -0.0921 -0.5370  0.3392
 3314SOL    HW215073   2.291   9.904   3.257  0.1288  0.7584 -0.2208
 3315SOL     OW15074   1.390   0.531  11.047  0.0071 -0.5532 -0.7159
 3315SOL    HW115075   1.430   0.598  11.102 -1.2239  0.3095 -0.8452
 3315SOL    HW215076   1.408   0.449  11.093  0.8273 -0.0508 -0.1285
 3316SOL     OW15077  10.981   6.279  10.560 -0.4498 -0.2482 -0.1121
 3316SOL    HW115078  11.040   6.206  10.577  0.0591  0.1039 -0.3460
 3316SOL    HW215079  11.040   6.354  10.545 -0.9366 -0.0616 -1.1197
 3317SOL     OW15080   9.939   2.899   6.477 -0.1736 -0.2761  0.0524
 3317SOL    HW115081  10.013   2.956   6.499  0.8847 -1.5339 -0.2050
 3317SOL    HW215082   9.866   2.960   6.460  1.0656  1.0196 -0.7198
 3318SOL     OW15083   5.553   8.731   9.678 -0.6502 -0.1043 -0.4005
 3318SOL    HW115084   5.578   8.705   9.589 -2.2494  0.3630 -1.0026
 3318SOL    HW215085   5.485   8.668   9.703 -0.3488 -0.1080  0.4143
 3319SOL     OW15086   9.861   7.908   7.477  0.3834 -0.6136 -0.5759
 3319SOL    HW115087   9.929   7.927   7.542  0.1623 -1.2867 -0.1358
 3319SOL    HW215088   9.794   7.976   7.492 -0.4474 -1.7351  1.0440
 3320SOL     OW15089   7.916   7.957   1.301 -0.9310 -0.1903 -0.2292
 3320SOL    HW115090   7.895   8.050   1.303 -1.0421 -0.2190 -0.0957
 3320SOL    HW215091   8.004   7.953   1.262  0.1271  0.1640  2.0546
 3321SOL     OW15092   5.538   4.070   5.112  0.3644 -0.3813 -0.2785
 3321SOL    HW115093   5.510   4.065   5.204 -0.8974 -1.0512 -0.6860
 3321SOL    HW215094   5.457   4.088   5.064  1.1157  0.5545 -1.2111
 3322SOL     OW15095  10.937   4.450   9.679  0.8416 -0.8632  0.3595
 3322SOL    HW115096  10.898   4.369   9.648 -0.0951  0.2630 -1.5244
 3322SOL    HW215097  10.967   4.495   9.599 -0.0964  1.3671  1.2089
 3323SOL     OW15098   6.754  10.820   9.404  0.2176 -0.3222 -0.1730
 3323SOL    HW115099   6.733  10.794   9.314  0.2747 -1.7715  0.2215
 3323SOL    HW215100   6.758  10.738   9.452  2.7317  0.2134  0.6264
 3324SOL     OW15101  10.538   3.957   7.820  0.0647 -0.2424  0.5042
 3324SOL    HW115102  10.549   3.862   7.820  3.2162  0.0805 -0.5673
 3324SOL    HW215103  10.477   3.974   7.747  0.4164 -1.3395 -0.0528
 3325SOL     OW15104   8.186   5.031   1.386  0.0126  0.3417  0.0971
 3325SOL    HW115105   8.266   4.980   1.401  0.4718  1.4199  1.4014
 3325SOL    HW215106   8.123   4.967   1.352  1.0748 -0.7531  0.1618
 3326SOL     OW15107   7.566   0.956   5.800 -0.6424 -0.5220  0.0268
 3326SOL    HW115108   7.565   1.049   5.777 -1.8384 -0.5475 -0.0201
 3326SOL    HW215109   7.475   0.929   5.798 -0.5992 -1.0389  2.6921
 3327SOL     OW15110   8.889   8.100  10.254 -0.2354  0.5216  0.1090
 3327SOL    HW115111   8.981   8.117  10.231 -0.2894  0.0115 -0.5001
 3327SOL    HW215112   8.892   8.075  10.346  0.3461 -0.3706 -0.1391
 3328SOL     OW15113   1.084  10.863   2.159  0.4235  0.1513  0.1132
 3328SOL    HW115114   1.009  10.917   2.130  0.8586  0.1183 -1.0950
 3328SOL    HW215115   1.044  10.782   2.191 -0.1509  0.6887  0.7964
 3329SOL     OW15116   5.727   0.492   4.065 -0.0248 -0.9442  0.7220
 3329SOL    HW115117   5.707   0.400   4.079  1.6231 -1.3899  0.2063
 3329SOL    HW215118   5.771   0.520   4.145 -0.5784 -0.5671  0.9056
 3330SOL     OW15119   9.754   9.319   7.280  0.3565  0.0543  0.4572
 3330SOL    HW115120   9.668   9.280   7.290  0.2802 -1.0117 -3.4333
 3330SOL    HW215121   9.737   9.408   7.250  0.6058  0.3070  1.0631
 3331SOL     OW15122   0.612   2.949  11.080 -0.6156  0.0080 -0.7964
 3331SOL    HW115123   0.696   2.972  11.040  0.1819 -0.9361  0.3125
 3331SOL    HW215124   0.628   2.865  11.123 -0.8714  1.8558  3.1314
 3332SOL     OW15125  11.140  11.071   3.186  0.4467  0.6298 -0.4540
 3332SOL    HW115126  11.058  11.116   3.204  0.4783  0.8840 -0.9319
 3332SOL    HW215127  11.198  11.139   3.150  0.6783  0.3317 -0.6498
 3333SOL     OW15128   5.004   5.132   8.241  0.1060 -0.1763 -0.3833
 3333SOL    HW115129   4.923   5.134   8.293  1.3228 -0.2300  1.5829
 3333SOL    HW215130   5.018   5.040   8.220 -0.0324 -0.2328 -0.2269
 3334SOL     OW15131   8.535   3.581   8.687 -0.5875  0.0537  0.3084
 3334SOL    HW115132   8.527   3.574   8.592 -0.2969 -0.1090  0.2953
 3334SOL    HW215133   8.538   3.491   8.718 -3.8647  0.0602  0.7664
 3335SOL     OW15134   7.440   8.112   8.727 -0.1014 -0.1473  0.6861
 3335SOL    HW115135   7.405   8.157   8.804  0.8300 -0.6681  1.4201
 3335SOL    HW215136   7.379   8.040   8.712  0.5237 -0.9542  1.8681
 3336SOL     OW15137  10.273   2.935   9.609 -0.0670  0.0983  0.1704
 3336SOL    HW115138  10.256   2.841   9.605 -0.1504 -0.0559  3.4447
 3336SOL    HW215139  10.337   2.945   9.679 -0.0200  2.5016 -0.1732
 3337SOL     OW15140   6.790   9.381   1.624 -0.4769 -0.3570  0.7104
 3337SOL    HW115141   6.825   9.463   1.658  2.2324 -1.2102  0.0676
 3337SOL    HW215142   6.777   9.326   1.701 -1.0878  0.1798  1.0066
 3338SOL     OW15143   1.008   9.759  10.650  0.1257 -0.2907 -0.1926
 3338SOL    HW115144   0.958   9.701  10.594  0.2117 -0.9147  0.3717
 3338SOL    HW215145   1.100   9.737  10.632  0.2733  1.9909 -2.4480
 3339SOL     OW15146   4.385   0.271   8.958 -0.4261  0.2785  0.0982
 3339SOL    HW115147   4.456   0.335   8.954 -0.5926  0.4553 -0.0219
 3339SOL    HW215148   4.413   0.209   9.026 -0.3392  0.5659  0.3250
 3340SOL     OW15149   3.097   7.075   2.020  0.0059 -0.4458 -0.3298
 3340SOL    HW115150   3.124   7.062   2.111  1.7440 -1.6405 -0.9902
 3340SOL    HW215151   3.156   7.143   1.987 -2.5212  2.1363  0.2184
 3341SOL     OW15152   1.262   9.907   1.373  0.5361 -0.1252  0.0133
 3341SOL    HW115153   1.187   9.901   1.314  0.2560 -2.6392  0.5511
 3341SOL    HW215154   1.332   9.860   1.328  0.3215 -2.0668  1.6109
 3342SOL     OW15155   9.003   0.162   3.152 -0.1876  0.1786  0.0199
 3342SOL    HW115156   8.916   0.197   3.138 -0.1672  0.9658  1.7015
 3342SOL    HW215157   9.001   0.075   3.111 -2.0162 -0.1361  0.7307
 3343SOL     OW15158   1.395  10.959   9.898  0.3039 -0.7543 -0.1751
 3343SOL    HW115159   1.309  10.956   9.858  0.9748 -1.6505 -1.5975
 3343SOL    HW215160   1.443  11.024   9.847  0.0339  0.8266  1.5353
 3344SOL     OW15161   0.657   9.410   4.587  0.5341 -0.0473  0.3091
 3344SOL    HW115162   0.729   9.473   4.596  1.7653 -1.2881 -0.7024
 3344SOL    HW215163   0.578   9.463   4.592  1.5055  1.3262  1.5936
 3345SOL     OW15164  10.505   3.608   3.616  0.8731 -0.7529  0.2372
 3345SOL    HW115165  10.416   3.584   3.640 -0.4014  0.8969 -2.5898
 3345SOL    HW215166  10.558   3.534   3.645 -1.7187 -2.8888 -0.2433
 3346SOL     OW15167   6.447  10.454   3.529 -0.4606 -0.0097  0.2217
 3346SOL    HW115168   6.519  10.404   3.493 -0.6546  1.2099 -1.9619
 3346SOL    HW215169   6.421  10.513   3.458 -2.2020  1.0458  1.6896
 3347SOL     OW15170   8.377   4.992   3.262  0.5298  0.0014 -0.4939
 3347SOL    HW115171   8.434   5.066   3.282 -1.1960  0.9428  1.1101
 3347SOL    HW215172   8.346   5.010   3.173  1.0386  0.6040 -0.5509
 3348SOL     OW15173   8.181  10.721   4.350  0.0540  0.2636 -0.0106
 3348SOL    HW115174   8.182  10.662   4.425 -1.4539  0.7782  0.4352
 3348SOL    HW215175   8.272  10.747   4.339  0.5132 -1.0223  0.6839
 3349SOL     OW15176   9.551   9.350   7.895 -0.1649  0.0824  0.7115
 3349SOL    HW115177   9.470   9.348   7.843 -0.0787 -0.3781  0.5925
 3349SOL    HW215178   9.603   9.421   7.857 -0.6753  0.6397  1.0347
 3350SOL     OW15179   9.483   5.119   9.762  0.0119  0.6761  0.3293
 3350SOL    HW115180   9.476   5.027   9.788  1.1655  0.8060  1.0976
 3350SOL    HW215181   9.396   5.156   9.780 -0.0061  0.0990  1.4005
 3351SOL     OW15182  11.106   7.743   4.396  0.3657 -0.2270  0.3296
 3351SOL    HW115183  11.027   7.778   4.355  1.4977  0.5176 -1.2865
 3351SOL    HW215184  11.120   7.658   4.353  0.4745 -0.3205  0.5506
 3352SOL     OW15185   9.256   3.910  10.890 -0.4324  0.2210 -0.3005
 3352SOL    HW115186   9.335   3.907  10.837 -0.4839  1.4855 -0.4447
 3352SOL    HW215187   9.231   3.818  10.900  0.8310 -0.1538 -0.5747
 3353SOL     OW15188   4.980   6.795   2.813 -0.5605 -0.3414 -0.3440
 3353SOL    HW115189   5.031   6.714   2.802 -0.1285 -0.3292  1.3444
 3353SOL    HW215190   4.900   6.781   2.763 -0.1126 -1.4816 -0.7500
 3354SOL     OW15191   0.389   9.889   3.116  0.0401 -0.7105 -0.7032
 3354SOL    HW115192   0.379   9.833   3.039  0.3862  0.7163 -1.8125
 3354SOL    HW215193   0.403   9.829   3.189  1.4705 -2.0149 -2.0381
 3355SOL     OW15194   6.910   1.857   0.062  0.3638 -0.1357 -1.0246
 3355SOL    HW115195   6.926   1.891   0.150  1.4115  0.9186 -1.6091
 3355SOL    HW215196   6.945   1.768   0.064 -0.8260 -0.5826  0.0154
 3356SOL     OW15197   7.865   9.616   1.571  0.4531 -0.5213 -0.1029
 3356SOL    HW115198   7.922   9.547   1.535  0.4477  0.1770 -1.4824
 3356SOL    HW215199   7.874   9.607   1.666  1.8479 -1.2659 -0.2870
 3357SOL     OW15200  10.789  10.404   4.493 -0.1621 -0.0035  0.6932
 3357SOL    HW115201  10.775  10.316   4.527 -1.2227 -0.5491 -1.1164
 3357SOL    HW215202  10.702  10.443   4.490 -0.4628 -0.7951 -3.5624
 3358SOL     OW15203   1.404  10.323   1.897  0.2455  0.5707  0.3797
 3358SOL    HW115204   1.428  10.265   1.826 -0.7745  0.2738  0.2805
 3358SOL    HW215205   1.327  10.283   1.937  0.7687  0.7538  1.6203
 3359SOL     OW15206   9.161   5.363   0.747 -1.0501 -0.1350  0.0019
 3359SOL    HW115207   9.164   5.354   0.842 -0.6616  0.8873  0.0946
 3359SOL    HW215208   9.079   5.320   0.721 -1.4161  0.0450  0.8476
 3360SOL     OW15209   7.334   4.283   5.670 -0.2877 -0.0055  0.3205
 3360SOL    HW115210   7.283   4.364   5.676 -0.1611  0.0571  0.5544
 3360SOL    HW215211   7.370   4.283   5.581 -0.1002  0.3044  0.3974
 3361SOL     OW15212   6.896  11.184   5.590 -0.8064 -0.1130 -0.1365
 3361SOL    HW115213   6.928  11.201   5.502 -0.4033 -0.9343 -0.1534
 3361SOL    HW215214   6.972  11.199   5.646 -1.1788  0.8411  0.1133
 3362SOL     OW15215  10.529   0.892   9.978 -0.1009 -0.0676  0.5816
 3362SOL    HW115216  10.614   0.868   9.941 -0.5046 -0.2055 -0.2672
 3362SOL    HW215217  10.520   0.837  10.056  2.2465  2.5993  2.8352
 3363SOL     OW15218  11.095   4.616   8.002  0.1151  0.5385 -0.2334
 3363SOL    HW115219  11.190   4.607   7.993  0.0522 -0.1912 -0.2501
 3363SOL    HW215220  11.060   4.532   7.970 -0.5347  0.8094 -0.2534
 3364SOL     OW15221   8.157   8.817   8.189 -0.1105 -0.0003  0.2480
 3364SOL    HW115222   8.109   8.756   8.133 -0.5236 -0.2899  0.9189
 3364SOL    HW215223   8.176   8.767   8.269 -0.1998  0.6552  0.6817
 3365SOL     OW15224   3.143   3.511   7.221 -0.0550  0.2636 -0.5290
 3365SOL    HW115225   3.077   3.547   7.280 -1.6609  1.1304 -2.7759
 3365SOL    HW215226   3.093   3.467   7.153  1.7846 -1.5926 -0.7319
 3366SOL     OW15227   8.551   2.762   7.373 -0.2474 -0.1573 -0.1794
 3366SOL    HW115228   8.538   2.722   7.458  0.1745  0.4297  0.1703
 3366SOL    HW215229   8.646   2.772   7.365 -0.3791  1.5541  0.1229
 3367SOL     OW15230   5.673   4.196  10.490 -0.1313 -1.4378 -0.0155
 3367SOL    HW115231   5.727   4.191  10.411 -0.2228 -0.3784 -0.1490
 3367SOL    HW215232   5.586   4.219  10.457 -0.8554 -3.8546  0.1254
 3368SOL     OW15233   6.722   5.998   4.512  0.0706  0.0872  0.2505
 3368SOL    HW115234   6.687   6.082   4.543 -0.5599  0.0019 -0.2047
 3368SOL    HW215235   6.753   6.017   4.423 -0.9737 -0.3783 -0.2291
 3369SOL     OW15236  10.490  11.174   3.896  0.2290 -0.0310 -0.3251
 3369SOL    HW115237  10.420  11.189   3.832 -0.0870 -3.6241 -0.9189
 3369SOL    HW215238  10.528  11.090   3.871  2.2370  0.0216  2.3169
 3370SOL     OW15239   2.219   6.997   2.968 -0.5506 -0.1763  0.5233
 3370SOL    HW115240   2.299   7.036   2.932 -0.6161 -1.2375 -0.8331
 3370SOL    HW215241   2.212   7.033   3.056  1.1706  0.3010  0.4843
 3371SOL     OW15242   3.768   6.810   4.766  0.3943  0.1789  0.1949
 3371SOL    HW115243   3.685   6.770   4.739  0.4460  0.4105 -0.3185
 3371SOL    HW215244   3.749   6.847   4.852  0.1789 -0.4253  0.4089
 3372SOL     OW15245   2.629   0.176   9.190  0.0439 -0.0919  0.0619
 3372SOL    HW115246   2.619   0.194   9.096 -0.7629 -0.2120  0.1254
 3372SOL    HW215247   2.685   0.246   9.222  0.6840 -0.2938 -0.5985
 3373SOL     OW15248   6.255   5.278   7.215 -0.0830 -0.1118  0.8379
 3373SOL    HW115249   6.187   5.336   7.250  0.7641  1.4032  0.0319
 3373SOL    HW215250   6.282   5.319   7.133  1.3116 -1.0741  0.7954
 3374SOL     OW15251   5.979   5.014   7.735 -0.5004  0.1129  0.2668
 3374SOL    HW115252   5.967   5.003   7.640  2.5310 -1.6643  0.0424
 3374SOL    HW215253   5.976   5.109   7.748  0.7267  0.4815 -1.8556
 3375SOL     OW15254  10.292   6.460   2.942 -0.5167  0.3911  0.2830
 3375SOL    HW115255  10.282   6.374   2.981 -0.0306 -0.4512 -1.4144
 3375SOL    HW215256  10.213   6.472   2.889 -0.6194  1.0184  0.5743
 3376SOL     OW15257   2.915  10.852   4.584 -0.3784  0.2371  0.2587
 3376SOL    HW115258   2.960  10.932   4.556  1.4012 -0.5318  0.8887
 3376SOL    HW215259   2.933  10.789   4.514 -0.4525 -0.0750  0.5217
 3377SOL     OW15260   0.553   1.123   2.728  0.0414 -0.1060  0.0479
 3377SOL    HW115261   0.597   1.134   2.644  0.2064 -1.6830 -0.0905
 3377SOL    HW215262   0.586   1.039   2.761 -1.9409 -0.7322  0.4985
 3378SOL     OW15263  10.966   9.909   6.072 -0.0962  0.0622  0.0908
 3378SOL    HW115264  11.055   9.875   6.068 -0.3702 -1.0137  2.2749
 3378SOL    HW215265  10.920   9.850   6.134 -1.6400  2.0423  0.8952
 3379SOL     OW15266  11.019   2.815  11.000  0.2612 -0.1852  0.2456
 3379SOL    HW115267  10.966   2.827  11.078  0.2439 -0.6494  0.3120
 3379SOL    HW215268  11.061   2.899  10.985  0.2192 -0.0804  0.7257
 3380SOL     OW15269   1.977   6.779   9.650 -0.3125 -0.3689  0.7298
 3380SOL    HW115270   2.009   6.743   9.732 -0.2894 -0.2045  0.7923
 3380SOL    HW215271   2.050   6.768   9.589  0.1664  0.7801  1.0902
 3381SOL     OW15272   2.318   6.797   5.102 -0.1339 -0.2969 -0.1840
 3381SOL    HW115273   2.233   6.822   5.138 -0.9991 -1.4596 -1.3840
 3381SOL    HW215274   2.358   6.743   5.170 -0.7975 -0.6003 -0.0292
 3382SOL     OW15275   6.613  10.434   9.266  0.1766 -0.8986 -0.1714
 3382SOL    HW115276   6.677  10.418   9.335 -0.1036  0.1279  0.3234
 3382SOL    HW215277   6.658  10.492   9.205 -0.5135  0.3933  0.5321
 3383SOL     OW15278   7.549   8.511   1.390 -0.0549  0.2459  0.5246
 3383SOL    HW115279   7.584   8.494   1.477  1.9644  0.8015 -0.1365
 3383SOL    HW215280   7.587   8.441   1.335 -3.0958 -1.4474  0.4822
 3384SOL     OW15281   0.452   8.463  10.418 -0.0476  0.4390 -1.0088
 3384SOL    HW115282   0.389   8.425  10.356 -0.0998 -1.6656  0.2822
 3384SOL    HW215283   0.537   8.452  10.375 -0.0157 -1.5490 -0.5282
 3385SOL     OW15284   6.106   1.474   7.968  0.3089 -0.3055  0.1669
 3385SOL    HW115285   6.141   1.413   7.903  0.3416  0.0373 -0.1388
 3385SOL    HW215286   6.168   1.546   7.968  0.1402 -0.1623  0.3534
 3386SOL     OW15287   4.371  10.731   8.462  0.0554  0.2105  0.2161
 3386SOL    HW115288   4.289  10.770   8.430  0.1814  1.0831  0.9339
 3386SOL    HW215289   4.345  10.680   8.539 -0.7807 -4.5845 -3.0440
 3387SOL     OW15290   0.053   2.118   4.858 -0.9849  0.2791  0.2251
 3387SOL    HW115291   0.036   2.212   4.852  1.8170  0.7383 -1.2223
 3387SOL    HW215292   0.002   2.080   4.786  1.0281  1.2040 -1.7527
 3388SOL     OW15293   2.503   2.187   6.369 -0.0091 -0.2454 -0.0932
 3388SOL    HW115294   2.417   2.154   6.346  0.0483  0.0158 -0.6841
 3388SOL    HW215295   2.486   2.256   6.434 -0.2175 -0.4801  0.0989
 3389SOL     OW15296   0.267  11.017   3.041  0.3076  0.2859 -0.7936
 3389SOL    HW115297   0.260  11.098   2.992  1.4640  1.2590  0.6073
 3389SOL    HW215298   0.360  10.994   3.038  0.0606 -0.7513 -0.8123
 3390SOL     OW15299  10.286  10.498   4.480  0.1588 -0.0439 -0.4086
 3390SOL    HW115300  10.250  10.569   4.427 -0.6699  0.0281  0.2381
 3390SOL    HW215301  10.374  10.484   4.445 -0.1725  0.3764 -1.4332
 3391SOL     OW15302   2.615   4.963   2.139  0.1976  0.8418 -0.2509
 3391SOL    HW115303   2.525   4.973   2.109  0.4184 -0.4504 -1.3861
 3391SOL    HW215304   2.665   5.025   2.087  0.5653 -1.3208 -2.5518
 3392SOL     OW15305   2.819   9.974   0.775  0.0743  0.8539 -0.2877
 3392SOL    HW115306   2.808   9.880   0.789  0.1795  1.2328  2.5084
 3392SOL    HW215307   2.732  10.004   0.747  0.4620 -0.3202 -2.8938
 3393SOL     OW15308   6.181   8.195   6.204  0.2638  0.1913  0.1613
 3393SOL    HW115309   6.174   8.111   6.249  1.3018  0.6265  1.1570
 3393SOL    HW215310   6.230   8.251   6.264  0.8209  1.0884 -1.0970
 3394SOL     OW15311   1.694   4.995   4.885  0.2159 -0.3435 -0.1613
 3394SOL    HW115312   1.741   4.940   4.823  0.0666  0.2342 -0.7962
 3394SOL    HW215313   1.637   4.935   4.933 -0.0137 -0.7260 -0.9124
 3395SOL     OW15314   0.052   0.982  10.525 -0.0944 -0.0359 -0.2458
 3395SOL    HW115315   0.071   1.023  10.441 -2.1863 -0.8696 -1.1679
 3395SOL    HW215316  -0.041   1.000  10.540 -0.5268 -2.5509  0.3624
 3396SOL     OW15317   5.890   4.308   8.066  0.2349  0.1099  0.5401
 3396SOL    HW115318   5.807   4.315   8.115 -0.0630  0.1802  0.0223
 3396SOL    HW215319   5.932   4.393   8.078 -0.6376  0.7351 -0.7675
 3397SOL     OW15320   9.770   3.033   1.864 -0.0889 -0.2541  0.0860
 3397SOL    HW115321   9.829   3.095   1.820  1.8861 -1.3578  1.1077
 3397SOL    HW215322   9.683   3.058   1.833  0.7096  2.5555 -0.1089
 3398SOL     OW15323  10.244  11.181   9.538  0.3462  0.2963  0.1671
 3398SOL    HW115324  10.189  11.103   9.531 -1.8470  1.7791  0.2768
 3398SOL    HW215325  10.236  11.207   9.630  1.8298  0.1232  0.3476
 3399SOL     OW15326   4.113   2.983   1.721 -0.1298  0.1289  0.7163
 3399SOL    HW115327   4.119   3.076   1.699 -0.0514 -0.1881 -0.6474
 3399SOL    HW215328   4.153   2.938   1.647  0.4183 -0.9672  1.6735
 3400SOL     OW15329   0.812   1.171   6.013  0.1116  0.2663 -0.0408
 3400SOL    HW115330   0.865   1.090   6.019 -1.8295 -1.1975 -1.7912
 3400SOL    HW215331   0.876   1.241   6.021  2.1664 -1.4601 -0.6396
 3401SOL     OW15332   5.300   0.541   9.844 -0.1443 -0.0219  0.0558
 3401SOL    HW115333   5.269   0.552   9.934 -0.6249  3.2927 -0.4648
 3401SOL    HW215334   5.221   0.521   9.794 -0.7469  3.1568 -0.3913
 3402SOL     OW15335   9.390   4.398   3.112  0.4568  0.3173 -0.5362
 3402SOL    HW115336   9.383   4.474   3.170  0.6282  0.0817 -0.2010
 3402SOL    HW215337   9.478   4.406   3.073  0.4763  0.2883 -0.4963
 3403SOL     OW15338   7.478   2.905  11.043 -0.1811  0.3489  0.0607
 3403SOL    HW115339   7.446   2.969  11.106 -1.6924  0.3034 -0.6478
 3403SOL    HW215340   7.517   2.959  10.973 -1.9996  0.5516 -0.8324
 3404SOL     OW15341   4.492   3.726   2.857 -0.0555  0.3149 -0.0609
 3404SOL    HW115342   4.408   3.759   2.890 -0.9185 -2.6488  0.9008
 3404SOL    HW215343   4.492   3.749   2.765 -1.5297  1.1738  0.1348
 3405SOL     OW15344   1.377   2.187   2.629  0.2759 -0.0494  0.1994
 3405SOL    HW115345   1.309   2.209   2.565  0.9703  3.0907  0.4363
 3405SOL    HW215346   1.432   2.122   2.585 -1.8104 -1.2393 -0.6894
 3406SOL     OW15347   7.649   3.942   3.355 -0.5604 -0.0646  0.3649
 3406SOL    HW115348   7.581   4.007   3.338 -0.3783 -0.1933 -0.9354
 3406SOL    HW215349   7.617   3.863   3.311  1.2452  0.3658 -1.8435
 3407SOL     OW15350   9.242   4.615   9.852  0.5458 -0.4357 -0.2367
 3407SOL    HW115351   9.282   4.572   9.776  1.5419 -0.0385  0.0539
 3407SOL    HW215352   9.315   4.630   9.912  0.1074  1.0339 -0.0458
 3408SOL     OW15353   9.794   7.772   8.407 -0.9019 -0.4047  0.4099
 3408SOL    HW115354   9.838   7.763   8.492  0.3622  0.6459 -0.1341
 3408SOL    HW215355   9.708   7.732   8.421 -0.5193 -0.6958  2.0450
 3409SOL     OW15356  10.492   0.746   1.244  0.1279  0.6929  0.5543
 3409SOL    HW115357  10.581   0.755   1.277  1.8114 -0.5420 -3.3539
 3409SOL    HW215358  10.459   0.836   1.239  0.9136  1.1239  2.4411
 3410SOL     OW15359   4.666   4.651   5.716  0.3623  0.1205 -0.0473
 3410SOL    HW115360   4.642   4.562   5.743 -0.7055  0.1102 -0.9948
 3410SOL    HW215361   4.757   4.660   5.743  0.4013 -1.1743  0.2972
 3411SOL     OW15362   8.824   6.009   8.440 -0.2329  0.4118 -0.2259
 3411SOL    HW115363   8.851   5.930   8.392 -0.2560  0.2206  0.0724
 3411SOL    HW215364   8.754   5.979   8.498  0.5087  0.4221  0.6845
 3412SOL     OW15365   3.999   1.376   1.106 -0.1243  0.0756 -1.0195
 3412SOL    HW115366   4.017   1.408   1.194  0.2446  0.5020 -1.2482
 3412SOL    HW215367   3.904   1.375   1.099 -0.1765 -0.8079 -0.3051
 3413SOL     OW15368   5.563   4.893  10.577  0.0313 -0.1065 -0.1961
 3413SOL    HW115369   5.580   4.970  10.632 -2.7056 -0.3091  1.0053
 3413SOL    HW215370   5.507   4.925  10.506  0.3496 -0.6444 -0.7035
 3414SOL     OW15371   7.570   1.294   2.487 -0.6270 -0.2012  0.2416
 3414SOL    HW115372   7.523   1.350   2.424 -1.5179 -0.8532  0.3200
 3414SOL    HW215373   7.629   1.242   2.433 -0.0143  0.5885  0.1360
 3415SOL     OW15374   0.654   9.564   9.379 -0.0078 -0.3462  0.6487
 3415SOL    HW115375   0.722   9.501   9.356 -0.8228 -1.4929  1.3390
 3415SOL    HW215376   0.691   9.614   9.451  0.2958 -0.6281  0.6868
 3416SOL     OW15377   7.936   0.623   8.214  0.0723 -0.5993  0.8787
 3416SOL    HW115378   7.886   0.685   8.268  1.5690  1.5395 -0.0820
 3416SOL    HW215379   7.938   0.663   8.127  3.0434 -0.7795  0.8038
 3417SOL     OW15380   7.936   0.818   9.834 -0.1437 -0.7247 -0.0271
 3417SOL    HW115381   8.011   0.874   9.852  0.7733 -1.5627 -1.1667
 3417SOL    HW215382   7.924   0.767   9.914 -0.6760  0.7432  0.8352
 3418SOL     OW15383   7.679   0.822  11.007 -0.0897  0.0803 -0.1682
 3418SOL    HW115384   7.739   0.896  10.995  0.0982 -0.0722 -0.1756
 3418SOL    HW215385   7.656   0.795  10.918 -0.2565  0.2068 -0.1654
 3419SOL     OW15386   6.098   2.876   2.807 -0.4910 -0.0618  1.0579
 3419SOL    HW115387   6.043   2.810   2.849  0.1231 -0.8451  0.6428
 3419SOL    HW215388   6.037   2.944   2.780 -1.4890 -1.6170 -0.7616
 3420SOL     OW15389  10.843   2.072   6.981  0.3772 -0.2400 -0.3647
 3420SOL    HW115390  10.920   2.104   7.028 -0.8961  1.0143  0.9335
 3420SOL    HW215391  10.816   2.145   6.927  0.3777 -0.8490 -1.1981
 3421SOL     OW15392   4.666   5.487   9.222  0.3762  0.1627  0.2739
 3421SOL    HW115393   4.652   5.574   9.183  0.8474 -0.3097 -0.9661
 3421SOL    HW215394   4.647   5.426   9.151 -1.7534 -0.8308  1.6634
 3422SOL     OW15395   5.667   3.944   2.083  1.0152  0.0363  0.0598
 3422SOL    HW115396   5.760   3.963   2.071  0.4188  3.5251  0.5880
 3422SOL    HW215397   5.622   4.009   2.030 -1.1716 -1.3352  0.1668
 3423SOL     OW15398   1.441   9.860   9.476  1.1322 -0.1272  0.3152
 3423SOL    HW115399   1.438   9.879   9.570  0.7892 -1.4165  0.5778
 3423SOL    HW215400   1.504   9.789   9.468  1.1334 -0.0428 -0.4349
 3424SOL     OW15401  11.116   6.111   7.774  0.4501  0.3779 -0.2648
 3424SOL    HW115402  11.090   6.160   7.852  0.5383  0.9262 -0.5745
 3424SOL    HW215403  11.083   6.163   7.701  0.6926  0.0580 -0.6048
 3425SOL     OW15404   5.686  11.307   9.905  0.2662 -0.8887 -0.5870
 3425SOL    HW115405   5.672  11.278   9.995  1.8599  3.1138  1.0901
 3425SOL    HW215406   5.781  11.318   9.899 -0.0439  1.2612 -1.9337
 3426SOL     OW15407   8.638   1.949   1.605  0.1795  0.2548 -0.1047
 3426SOL    HW115408   8.636   1.870   1.659  0.5363  0.0850 -0.3379
 3426SOL    HW215409   8.645   1.917   1.515 -1.0574  0.5204 -0.3055
 3427SOL     OW15410   8.722   6.236   8.322 -0.6145  0.0069  0.6068
 3427SOL    HW115411   8.760   6.166   8.375 -0.3205  0.2272  0.6910
 3427SOL    HW215412   8.790   6.256   8.256 -0.4596  0.6038  0.9387
 3428SOL     OW15413   5.750   3.458   7.687 -0.1504 -0.2978 -0.2090
 3428SOL    HW115414   5.812   3.457   7.614  0.2557 -0.2276  0.1336
 3428SOL    HW215415   5.666   3.430   7.648  0.1674 -0.7137 -0.6029
 3429SOL     OW15416   2.842   6.765   6.395 -0.1924  0.2235  0.0942
 3429SOL    HW115417   2.784   6.832   6.431 -0.1235  0.8122 -0.8539
 3429SOL    HW215418   2.889   6.731   6.471 -0.0128  1.4768  0.5739
 3430SOL     OW15419   9.054   0.747   8.056  0.3643 -0.0718  0.0460
 3430SOL    HW115420   9.045   0.671   8.113 -1.0792  0.1123  0.0708
 3430SOL    HW215421   9.119   0.721   7.991 -0.4933 -1.4941 -0.2444
 3431SOL     OW15422   1.278   8.712  11.256  0.0928  0.1252 -0.8988
 3431SOL    HW115423   1.328   8.702  11.336 -2.0958 -0.1616  0.4870
 3431SOL    HW215424   1.237   8.798  11.263  0.3411  0.3319 -1.9589
 3432SOL     OW15425   5.914   5.554   8.591  0.0808  0.7806  0.0200
 3432SOL    HW115426   5.929   5.595   8.506  1.4549  0.8591  0.2975
 3432SOL    HW215427   5.929   5.625   8.654 -2.1076  1.0412  0.2893
 3433SOL     OW15428   9.130   8.592   7.729  0.8835 -0.9091  0.2149
 3433SOL    HW115429   9.143   8.507   7.770  3.8838  0.3107  1.9105
 3433SOL    HW215430   9.062   8.634   7.781  0.9571 -1.4146  0.7180
 3434SOL     OW15431   5.025   5.972   1.822  0.0664  0.1219  0.3551
 3434SOL    HW115432   5.069   5.944   1.902 -1.6172 -1.3958  0.7973
 3434SOL    HW215433   4.980   6.054   1.847 -0.2258 -0.1981  0.9004
 3435SOL     OW15434   4.809   0.340   1.537 -0.1582  0.4354 -0.0149
 3435SOL    HW115435   4.836   0.299   1.619 -1.1455  0.1530  0.1780
 3435SOL    HW215436   4.877   0.405   1.519 -0.0309  0.6237  1.1167
 3436SOL     OW15437   3.129   9.088   6.957 -0.5386 -0.6601 -0.5532
 3436SOL    HW115438   3.155   9.011   6.906 -3.0186 -1.5156 -0.5892
 3436SOL    HW215439   3.174   9.161   6.914  1.6838 -2.0242 -0.6456
 3437SOL     OW15440   9.219   4.413   6.214  0.0315 -0.1353 -0.3915
 3437SOL    HW115441   9.158   4.375   6.151 -1.2163  0.8400  0.1927
 3437SOL    HW215442   9.181   4.393   6.300  0.2879  0.8497 -0.0332
 3438SOL     OW15443   6.775   6.865   6.112  0.2059  0.2914  0.4253
 3438SOL    HW115444   6.689   6.841   6.077  0.1205 -0.9277  1.4491
 3438SOL    HW215445   6.808   6.929   6.050 -0.3713 -1.0955 -1.3677
 3439SOL     OW15446   0.925   3.648   0.599  0.0472  0.0334 -0.1509
 3439SOL    HW115447   0.866   3.713   0.561  0.2219  0.7573  0.8003
 3439SOL    HW215448   0.908   3.568   0.548 -3.2681 -0.3821  1.4365
 3440SOL     OW15449   3.819   9.583   3.806 -0.4452  0.4797  0.1668
 3440SOL    HW115450   3.906   9.565   3.841 -0.3110 -0.2446 -0.5326
 3440SOL    HW215451   3.781   9.496   3.790 -0.5856  0.7936 -1.2677
 3441SOL     OW15452   5.998   2.039   0.958 -0.4257  0.2770  0.3714
 3441SOL    HW115453   6.084   2.015   0.993 -0.5056 -1.1433 -0.3890
 3441SOL    HW215454   6.002   2.134   0.949  0.3817  0.4295  2.1474
 3442SOL     OW15455  10.537  10.490   4.421 -0.0562 -0.6424 -0.2168
 3442SOL    HW115456  10.565  10.437   4.346  0.1993  0.2109 -0.7385
 3442SOL    HW215457  10.544  10.580   4.390 -0.6022 -0.3069  0.6190
 3443SOL     OW15458   4.692   3.344   8.392 -0.5520  0.4358  0.3087
 3443SOL    HW115459   4.774   3.306   8.361 -1.2390  1.4481 -2.9558
 3443SOL    HW215460   4.716   3.433   8.419  0.0937 -0.5260  3.0129
 3444SOL     OW15461   5.710   5.874   8.181  0.1310  0.0618  0.3226
 3444SOL    HW115462   5.659   5.808   8.227  0.6363  0.6580  1.7665
 3444SOL    HW215463   5.801   5.854   8.203  0.2476  1.6608  1.3687
 3445SOL     OW15464   3.673   6.235   5.511 -0.4619 -0.5632 -0.1615
 3445SOL    HW115465   3.731   6.270   5.443  2.1739 -2.3997  1.0660
 3445SOL    HW215466   3.603   6.192   5.462 -0.7485  1.5170 -1.6727
 3446SOL     OW15467   9.458   1.187   3.454  0.4291  0.7654 -0.0584
 3446SOL    HW115468   9.380   1.180   3.510 -1.6092  1.6286 -2.6870
 3446SOL    HW215469   9.497   1.271   3.477  0.3784  0.5186  0.9741
 3447SOL     OW15470   6.649   8.198   0.927 -0.0198  0.5034 -0.3455
 3447SOL    HW115471   6.586   8.126   0.934  0.1867  0.4390  1.0649
 3447SOL    HW215472   6.726   8.158   0.886  0.6923 -0.5210  1.8743
 3448SOL     OW15473   0.203   9.270   2.026 -0.5669 -0.1161 -0.7573
 3448SOL    HW115474   0.298   9.270   2.026 -0.5650 -0.8568 -1.9881
 3448SOL    HW215475   0.178   9.281   1.934 -1.6519 -3.3692 -0.9078
 3449SOL     OW15476   3.392  10.305   9.019 -0.0296  0.0930 -0.0347
 3449SOL    HW115477   3.330  10.376   9.005 -1.9359 -1.1428  1.7198
 3449SOL    HW215478   3.351  10.229   8.978 -0.5020 -1.0933  2.5127
 3450SOL     OW15479   9.409   7.140   5.516  0.0151  0.2467 -0.2073
 3450SOL    HW115480   9.416   7.154   5.611 -1.5066 -2.1868  0.2947
 3450SOL    HW215481   9.388   7.047   5.507  0.1914  0.4429 -2.9537
 3451SOL     OW15482   3.973   4.316  10.656 -1.2811 -0.2497 -0.2256
 3451SOL    HW115483   4.069   4.318  10.649 -1.1874 -1.3653  0.7066
 3451SOL    HW215484   3.943   4.321  10.565 -0.3510  0.3639 -0.5099
 3452SOL     OW15485   3.246   2.426   8.565  0.4799  0.2452  0.8330
 3452SOL    HW115486   3.318   2.379   8.522 -0.0218 -0.3765  0.6607
 3452SOL    HW215487   3.229   2.376   8.644  0.0082  0.2002  0.7012
 3453SOL     OW15488   8.936   9.902  10.533 -0.5373 -0.7797 -0.0902
 3453SOL    HW115489   8.994   9.954  10.589 -0.7458 -0.3647 -0.2608
 3453SOL    HW215490   8.995   9.840  10.489 -0.3654 -1.0843  0.5548
 3454SOL     OW15491   9.002   8.450   0.127 -0.0060 -0.5070 -0.0398
 3454SOL    HW115492   9.086   8.459   0.083  0.7440 -1.0015  1.2460
 3454SOL    HW215493   9.017   8.489   0.214 -1.4324  0.4352 -0.2088
 3455SOL     OW15494   6.819  10.751   2.448 -0.6512 -0.6109 -0.1737
 3455SOL    HW115495   6.914  10.753   2.459 -0.6543 -1.0815 -0.0639
 3455SOL    HW215496   6.798  10.658   2.438 -0.8092 -0.3438 -2.6801
 3456SOL     OW15497  10.640   7.787   5.357 -0.3273 -0.7136  0.2717
 3456SOL    HW115498  10.611   7.697   5.371 -0.0241 -0.9656 -0.6945
 3456SOL    HW215499  10.562   7.833   5.327 -0.1866 -0.9630 -0.5016
 3457SOL     OW15500   0.740   2.648   1.910  0.0829  0.2089  0.2809
 3457SOL    HW115501   0.831   2.677   1.908  0.2181 -0.2684 -0.7197
 3457SOL    HW215502   0.689   2.728   1.897  0.2942  0.7392  2.5510
 3458SOL     OW15503   0.766   1.798  10.152 -0.0875 -0.9053 -0.5869
 3458SOL    HW115504   0.673   1.820  10.139 -0.1342 -0.4835  0.3980
 3458SOL    HW215505   0.763   1.711  10.193 -0.0294 -1.1281 -1.0573
 3459SOL     OW15506   2.549   8.492   7.885  0.2490 -0.1509  0.5910
 3459SOL    HW115507   2.494   8.545   7.942 -1.2739 -0.3262 -0.6707
 3459SOL    HW215508   2.604   8.555   7.838 -0.1888  0.1704  0.5085
 3460SOL     OW15509   6.845   1.572   7.256  0.6707  0.3609 -0.3847
 3460SOL    HW115510   6.875   1.607   7.172  0.0819 -1.5281 -1.4174
 3460SOL    HW215511   6.912   1.507   7.280  1.8167  2.1895  1.5624
 3461SOL     OW15512   6.560   0.386  10.487 -0.3252  0.7806 -0.3961
 3461SOL    HW115513   6.575   0.296  10.516 -1.3437  0.4352 -0.9248
 3461SOL    HW215514   6.581   0.386  10.394 -3.6648  0.2435 -1.1935
 3462SOL     OW15515   0.337   9.255   5.931 -0.4163  0.4369  0.9745
 3462SOL    HW115516   0.419   9.303   5.915 -0.0158 -0.1859  1.1430
 3462SOL    HW215517   0.277   9.321   5.966  0.8428  0.3360  3.4400
 3463SOL     OW15518   4.882   5.085  11.109  0.3027  0.2910 -0.3304
 3463SOL    HW115519   4.799   5.089  11.157 -0.1079 -1.7249 -0.8499
 3463SOL    HW215520   4.948   5.069  11.177  0.0548  0.1243 -0.1260
 3464SOL     OW15521   4.549  11.129   3.884 -0.4570 -0.4255  0.4514
 3464SOL    HW115522   4.629  11.076   3.888  0.1428  0.4540  0.4595
 3464SOL    HW215523   4.495  11.098   3.956 -1.6413 -3.3990 -1.6435
 3465SOL     OW15524   7.677   0.956   4.558 -0.1048 -0.3809  0.1105
 3465SOL    HW115525   7.673   0.918   4.646  0.2507  0.1064  0.3391
 3465SOL    HW215526   7.668   0.881   4.499 -0.9933 -0.6354  0.5632
 3466SOL     OW15527   5.585  10.171   2.533 -0.4170  0.1546  0.0447
 3466SOL    HW115528   5.564  10.188   2.441 -1.0816  0.0286  0.1717
 3466SOL    HW215529   5.578  10.076   2.542 -0.2165  0.1543  0.1923
 3467SOL     OW15530   4.450   7.764  10.867  0.4688  0.8207 -0.2100
 3467SOL    HW115531   4.424   7.715  10.789  0.9444 -0.7362  0.5994
 3467SOL    HW215532   4.510   7.831  10.834 -0.0944  0.8073 -1.3031
 3468SOL     OW15533   3.022   7.799   7.539 -0.2608  0.1369 -0.0006
 3468SOL    HW115534   3.069   7.870   7.495 -0.2073  1.1210  1.6356
 3468SOL    HW215535   2.940   7.838   7.567 -0.5188 -0.6354  0.3325
 3469SOL     OW15536   3.374   0.470   8.654 -0.5679 -0.5595  0.0091
 3469SOL    HW115537   3.311   0.451   8.723 -2.1783  1.6679 -0.7951
 3469SOL    HW215538   3.434   0.533   8.694 -0.4592 -0.6136 -0.0697
 3470SOL     OW15539   2.858   3.928   5.910 -0.3431 -0.6045  0.8100
 3470SOL    HW115540   2.838   3.970   5.826 -0.3054 -0.2233  0.9921
 3470SOL    HW215541   2.954   3.928   5.914 -0.3181 -1.6777  0.3204
 3471SOL     OW15542   1.122   2.541   7.558  0.0424 -0.8262  0.1357
 3471SOL    HW115543   1.143   2.611   7.619  0.1272  0.9346 -1.8451
 3471SOL    HW215544   1.148   2.461   7.603  3.1681  0.6640  1.1183
 3472SOL     OW15545   2.895   1.491  11.130 -0.6614  0.3170  0.8960
 3472SOL    HW115546   2.930   1.474  11.217 -1.1587  0.7848  1.1855
 3472SOL    HW215547   2.825   1.427  11.118  0.6050 -0.9600  0.1173
 3473SOL     OW15548  10.756   5.934   9.448 -0.3320 -0.3495  0.3642
 3473SOL    HW115549  10.732   5.952   9.538  1.5476  0.7657  0.6699
 3473SOL    HW215550  10.850   5.916   9.451 -0.4349 -1.2800 -1.2228
 3474SOL     OW15551   3.029   0.922   5.058 -0.4527 -0.5047 -0.0847
 3474SOL    HW115552   3.099   0.860   5.037  0.3360  0.0078  0.9756
 3474SOL    HW215553   3.040   0.993   4.995 -0.1062 -0.4965 -0.0171
 3475SOL     OW15554   9.967   1.304   7.907  0.3060 -0.0973 -0.3503
 3475SOL    HW115555  10.022   1.287   7.831  0.4003 -0.0912 -0.2852
 3475SOL    HW215556   9.949   1.217   7.944 -3.1845 -0.4670 -2.7395
 3476SOL     OW15557   9.304   8.410  11.089  0.3260  0.0366 -0.4403
 3476SOL    HW115558   9.245   8.457  11.030 -0.3655 -0.5176 -0.1970
 3476SOL    HW215559   9.376   8.382  11.033 -1.7828 -3.1329 -1.7354
 3477SOL     OW15560   3.201   1.148   2.158 -0.2762  0.0848 -0.3228
 3477SOL    HW115561   3.111   1.139   2.127  0.2149 -0.4064 -1.6155
 3477SOL    HW215562   3.247   1.188   2.085  0.7639 -0.5000  0.0131
 3478SOL     OW15563   7.458   9.322   1.044  0.1683 -0.0038 -0.1244
 3478SOL    HW115564   7.407   9.399   1.069  0.0744  0.3918 -1.4541
 3478SOL    HW215565   7.548   9.355   1.035  0.3598 -0.3331  0.5588
 3479SOL     OW15566   8.082   5.273   0.982 -0.0780 -0.4820  0.3859
 3479SOL    HW115567   8.075   5.268   1.078  1.1088  0.6906  0.5479
 3479SOL    HW215568   8.167   5.234   0.963 -1.0036 -2.1996 -0.3497
 3480SOL     OW15569  10.617   9.647   0.459 -0.0187  0.3274  0.6249
 3480SOL    HW115570  10.641   9.605   0.542  1.7090 -0.3750 -0.2039
 3480SOL    HW215571  10.694   9.637   0.404 -0.9403  1.3119 -0.8809
 3481SOL     OW15572  10.939   3.589   1.065  0.1929  0.2236 -0.1216
 3481SOL    HW115573  10.972   3.500   1.059  1.1197  0.5114  0.6057
 3481SOL    HW215574  10.854   3.586   1.022  0.2733 -0.9822 -0.2112
 3482SOL     OW15575   7.478   2.151   7.812 -0.0770  0.4056 -0.4692
 3482SOL    HW115576   7.517   2.064   7.812 -1.5460 -0.2785 -1.4229
 3482SOL    HW215577   7.424   2.154   7.891 -0.5925  0.1785 -0.8091
 3483SOL     OW15578   3.159   0.096   0.437 -0.7316  0.7224  0.2183
 3483SOL    HW115579   3.195   0.184   0.447 -3.0052  1.4500  2.7261
 3483SOL    HW215580   3.080   0.109   0.384 -0.4458  0.0254 -0.3759
 3484SOL     OW15581   2.447   2.651   9.802  0.3973  0.0467  0.3560
 3484SOL    HW115582   2.418   2.626   9.890  0.5866 -1.3687  0.0246
 3484SOL    HW215583   2.372   2.697   9.765 -0.5406 -1.3824  0.4240
 3485SOL     OW15584   2.204   9.592   2.567  0.4321  0.0557 -0.1878
 3485SOL    HW115585   2.147   9.613   2.493 -1.4745  1.8032  1.6809
 3485SOL    HW215586   2.193   9.498   2.581 -1.7247  0.3072 -0.0909
 3486SOL     OW15587   1.507   3.632  10.792  0.6516  0.6589  0.1478
 3486SOL    HW115588   1.459   3.645  10.710  0.6294 -1.4801 -0.1970
 3486SOL    HW215589   1.448   3.664  10.860 -0.9751 -1.2270 -0.3468
 3487SOL     OW15590  10.656   2.839   6.789  0.2332 -0.4026 -0.1329
 3487SOL    HW115591  10.669   2.922   6.835  2.1524 -0.9398  0.3235
 3487SOL    HW215592  10.593   2.792   6.843  1.6141 -0.5669  1.3643
 3488SOL     OW15593   9.128   0.275   8.391  0.2733  0.2149 -0.2868
 3488SOL    HW115594   9.139   0.249   8.483  0.6558  0.0864 -0.3702
 3488SOL    HW215595   9.170   0.205   8.341 -1.1733 -0.4405 -0.6121
 3489SOL     OW15596   9.229   5.257   4.898 -0.2338 -0.7207 -0.0053
 3489SOL    HW115597   9.139   5.234   4.922 -0.7963 -1.4657 -2.6611
 3489SOL    HW215598   9.220   5.335   4.842  0.8681 -0.1995  0.5177
 3490SOL     OW15599   2.276   6.319  10.975 -0.4404  0.2669 -0.3995
 3490SOL    HW115600   2.241   6.325  10.886 -1.4095 -1.5801 -0.1781
 3490SOL    HW215601   2.201   6.293  11.029  0.8570 -2.1103  0.3603
 3491SOL     OW15602   0.803   3.806   4.859  0.1579 -0.0817  0.5254
 3491SOL    HW115603   0.826   3.829   4.949 -0.1759 -1.3620  0.9600
 3491SOL    HW215604   0.708   3.791   4.862  0.3866 -1.6289  0.3214
 3492SOL     OW15605   2.183   6.001   5.080  0.7386 -0.3325  0.1299
 3492SOL    HW115606   2.117   5.945   5.121  0.0653  0.2454 -0.1664
 3492SOL    HW215607   2.265   5.953   5.092  0.1371 -1.4948 -0.3009
 3493SOL     OW15608   7.773   4.961   7.288 -0.1915 -0.3913  0.4985
 3493SOL    HW115609   7.751   5.015   7.212 -1.1509 -0.0976  0.9785
 3493SOL    HW215610   7.743   4.873   7.265 -1.2102 -0.1453  0.8407
 3494SOL     OW15611   9.355   8.797   6.771  0.1063 -0.2429 -0.0920
 3494SOL    HW115612   9.303   8.721   6.746 -1.2693  0.8413 -0.6197
 3494SOL    HW215613   9.446   8.770   6.760 -0.3850 -1.6645 -0.6543
 3495SOL     OW15614   5.914   7.507  10.804 -0.2413 -0.2067  0.4155
 3495SOL    HW115615   5.855   7.500  10.878 -1.3091 -0.1686 -0.4247
 3495SOL    HW215616   6.000   7.523  10.843 -0.7912 -0.1938  1.6337
 3496SOL     OW15617  10.612   5.539   2.253 -0.0294  0.1018  0.2297
 3496SOL    HW115618  10.701   5.573   2.250 -0.2995  0.6927 -1.9552
 3496SOL    HW215619  10.623   5.447   2.278  1.1911  0.1651 -0.0208
 3497SOL     OW15620   8.722   6.449   4.266 -0.0882  0.1199 -0.1183
 3497SOL    HW115621   8.766   6.366   4.250  1.8089  1.0535  0.1111
 3497SOL    HW215622   8.727   6.496   4.182  1.1420  1.0390  0.4553
 3498SOL     OW15623   8.575   1.986   9.678 -0.5863 -0.4915  0.0350
 3498SOL    HW115624   8.666   2.010   9.664  0.0379 -1.1206  2.7502
 3498SOL    HW215625   8.576   1.932   9.757 -3.3020 -0.5800  0.0577
 3499SOL     OW15626   6.665   2.824   9.609  0.9937 -0.0802 -0.0326
 3499SOL    HW115627   6.685   2.734   9.583 -0.6762 -0.4982  0.1382
 3499SOL    HW215628   6.703   2.877   9.539  1.5746 -0.9196 -0.3697
 3500SOL     OW15629   6.768   9.741   5.776 -0.2195  0.1391 -0.0648
 3500SOL    HW115630   6.859   9.715   5.794  0.2064  1.7778  0.2528
 3500SOL    HW215631   6.747   9.803   5.846 -1.6929 -0.4593  0.0245
 3501SOL     OW15632   6.271   7.903   4.907  0.7429 -0.3831 -0.2981
 3501SOL    HW115633   6.289   7.810   4.898 -0.1046 -0.5589 -0.2086
 3501SOL    HW215634   6.314   7.928   4.988  0.4934 -0.8227 -0.0285
 3502SOL     OW15635   6.061   6.035  10.509 -0.2310  0.3897 -0.7166
 3502SOL    HW115636   6.077   6.124  10.477  0.4094  0.7707  0.6074
 3502SOL    HW215637   6.023   6.047  10.596 -2.0218 -0.6221 -1.3320
 3503SOL     OW15638   7.889   8.232  11.330  0.1803  0.0831 -0.2379
 3503SOL    HW115639   7.826   8.303  11.348  0.4336 -0.0912  1.3837
 3503SOL    HW215640   7.961   8.248  11.390  1.0738 -0.5239 -1.1354
 3504SOL     OW15641  10.957   3.191   5.584 -0.4035  0.3185  0.2072
 3504SOL    HW115642  10.913   3.128   5.528 -0.1793 -0.3596  0.7919
 3504SOL    HW215643  10.913   3.274   5.566  0.5482  0.3932 -1.9853
 3505SOL     OW15644  10.492   7.726   9.066 -0.0199 -0.2917 -0.5862
 3505SOL    HW115645  10.464   7.810   9.030  0.1806 -0.0752 -0.2444
 3505SOL    HW215646  10.569   7.702   9.014 -2.6600 -2.4615 -3.6870
 3506SOL     OW15647   8.581   3.813   2.931  0.1768 -0.8561 -0.2639
 3506SOL    HW115648   8.553   3.811   2.840 -0.7020 -0.3858 -0.0149
 3506SOL    HW215649   8.526   3.748   2.975 -0.1293 -0.3426  0.1217
 3507SOL     OW15650   1.105   6.698   3.685 -0.2853  0.4359  0.5318
 3507SOL    HW115651   1.173   6.630   3.693 -0.9767 -0.5749 -1.8896
 3507SOL    HW215652   1.029   6.659   3.729 -0.6604 -0.3421 -0.7912
 3508SOL     OW15653   7.921   1.143  10.164 -0.3359 -0.4372 -0.1135
 3508SOL    HW115654   7.865   1.074  10.199  1.3967 -0.6459  2.4004
 3508SOL    HW215655   8.007   1.102  10.156  0.6040  1.2576  0.9120
 3509SOL     OW15656   0.737  10.026   4.605 -0.7525  0.7589 -0.4291
 3509SOL    HW115657   0.784  10.097   4.649 -1.1948  1.2225 -0.7063
 3509SOL    HW215658   0.647  10.057   4.598 -0.5365  1.0027 -2.3265
 3510SOL     OW15659   0.450   6.444   7.615  0.6984  0.5210  0.0628
 3510SOL    HW115660   0.380   6.427   7.552 -1.4931 -2.3567  3.1191
 3510SOL    HW215661   0.411   6.507   7.676  1.5196  0.4731  0.6318
 3511SOL     OW15662   9.932   6.124  11.045  0.1513  0.0023 -0.3282
 3511SOL    HW115663   9.840   6.095  11.044 -0.4486  1.7808  0.3043
 3511SOL    HW215664   9.960   6.110  11.135 -0.6291  2.7086  0.3959
 3512SOL     OW15665   0.922   5.023   7.315 -0.3031 -0.1030  0.2019
 3512SOL    HW115666   0.839   5.070   7.311 -0.6313 -0.6316  0.7941
 3512SOL    HW215667   0.926   4.987   7.403  1.0701  0.8492  0.5564
 3513SOL     OW15668   8.054   7.402  10.631 -0.6042 -0.1803 -0.4292
 3513SOL    HW115669   8.100   7.378  10.711  0.3384 -0.6312 -1.1000
 3513SOL    HW215670   8.122   7.409  10.564 -1.3429  0.4312 -1.1491
 3514SOL     OW15671   3.169  11.252   1.251  0.3865 -0.0287  0.1856
 3514SOL    HW115672   3.113  11.180   1.281 -0.3145 -0.4827 -2.1525
 3514SOL    HW215673   3.244  11.208   1.210  0.7957  0.5876  0.2733
 3515SOL     OW15674   3.757   4.707   7.921  0.0725  0.0028  0.9369
 3515SOL    HW115675   3.709   4.790   7.916  0.3707  0.1224  0.0549
 3515SOL    HW215676   3.690   4.642   7.940 -0.5022  0.1161 -0.6520
 3516SOL     OW15677   5.277   4.637   0.093 -0.4416 -0.4690 -0.1854
 3516SOL    HW115678   5.300   4.640   0.185 -0.3014 -0.4526 -0.2207
 3516SOL    HW215679   5.332   4.567   0.056  1.4974  1.3256 -0.8027
 3517SOL     OW15680   1.399   6.688   8.911  0.4211 -0.3383 -0.1477
 3517SOL    HW115681   1.347   6.631   8.855  1.9225 -1.4715 -0.4395
 3517SOL    HW215682   1.342   6.762   8.931 -0.7676 -0.8240 -1.6653
 3518SOL     OW15683   0.678   0.224   6.160  0.0358  0.4766 -0.4948
 3518SOL    HW115684   0.586   0.235   6.185  0.4138  1.7935  0.4020
 3518SOL    HW215685   0.708   0.313   6.138  0.8530 -0.0693 -1.6412
 3519SOL     OW15686  10.889   2.237   2.879 -0.8067  0.0038  0.2294
 3519SOL    HW115687  10.807   2.192   2.860 -1.3842  0.4856  1.5173
 3519SOL    HW215688  10.952   2.167   2.892 -1.1225 -0.3824 -0.2983
 3520SOL     OW15689   2.631   5.666  10.424  0.4601  0.3791  0.3564
 3520SOL    HW115690   2.554   5.704  10.382  0.2415  1.1305  1.4145
 3520SOL    HW215691   2.657   5.731  10.489  0.9382 -0.6394  1.1998
 3521SOL     OW15692   3.040   0.960   5.333  0.3684  0.0482 -0.2319
 3521SOL    HW115693   3.037   0.874   5.373 -2.1038  0.6220  0.9051
 3521SOL    HW215694   3.016   0.945   5.242  0.5652 -0.5337 -0.1914
 3522SOL     OW15695   8.505   5.264   4.775  0.0926  0.2465 -0.6502
 3522SOL    HW115696   8.542   5.176   4.781 -0.4417 -0.0794 -1.9267
 3522SOL    HW215697   8.521   5.291   4.685  0.8494  1.7410 -0.0878
 3523SOL     OW15698   5.176   0.047   6.143 -0.4758  0.2887  0.3000
 3523SOL    HW115699   5.124  -0.033   6.149 -0.9682  0.4819 -0.9816
 3523SOL    HW215700   5.250   0.024   6.086 -0.3437  0.5955  0.3443
 3524SOL     OW15701   6.671   7.932   5.178 -0.1582  0.7547  0.3668
 3524SOL    HW115702   6.694   8.015   5.219  4.3071  1.0969 -2.4660
 3524SOL    HW215703   6.720   7.866   5.228  1.2114  0.6036 -1.1100
 3525SOL     OW15704   7.128   6.145   3.336 -0.0262 -0.2514 -0.1765
 3525SOL    HW115705   7.143   6.139   3.242  0.0965  2.0652 -0.3280
 3525SOL    HW215706   7.205   6.102   3.375  0.6968  0.1867 -1.1074
 3526SOL     OW15707   4.579   5.035   1.294 -0.4037  0.5371  0.3732
 3526SOL    HW115708   4.654   4.991   1.253 -0.5196  1.2307 -0.6089
 3526SOL    HW215709   4.618   5.104   1.348 -0.2691 -0.0487  1.0201
 3527SOL     OW15710   3.206   7.022   9.727  0.0480 -0.3317  0.3614
 3527SOL    HW115711   3.289   7.007   9.772 -0.6489 -0.3082  1.6539
 3527SOL    HW215712   3.169   6.935   9.715  0.6309 -0.4213 -0.9775
 3528SOL     OW15713   5.353   1.020   8.947 -0.0741 -0.1839  0.1199
 3528SOL    HW115714   5.291   1.038   8.877 -1.0485 -2.0935  0.4618
 3528SOL    HW215715   5.384   1.107   8.975 -4.1924  0.9720  1.3930
 3529SOL     OW15716   7.512   5.037   5.822  0.0028  0.0814 -0.5521
 3529SOL    HW115717   7.478   4.976   5.756 -0.2124  0.2395 -0.5888
 3529SOL    HW215718   7.547   4.981   5.891  0.8666 -0.0935 -1.1169
 3530SOL     OW15719   5.619   8.345   6.488  0.0251  0.0265  0.5286
 3530SOL    HW115720   5.639   8.372   6.578 -1.2428 -0.7202  1.0407
 3530SOL    HW215721   5.701   8.361   6.440  0.1117  2.3281  1.3711
 3531SOL     OW15722   5.399  11.153  10.597  0.0946  0.7068  0.0444
 3531SOL    HW115723   5.321  11.141  10.651  0.4192 -0.2223  0.3108
 3531SOL    HW215724   5.450  11.219  10.644 -0.8184  1.7797 -0.4549
 3532SOL     OW15725   3.258   6.962   8.906 -0.2509 -0.4810  0.2285
 3532SOL    HW115726   3.256   6.891   8.842  0.4634 -1.1807  0.9647
 3532SOL    HW215727   3.310   7.030   8.865 -1.0376 -0.3289 -0.5322
 3533SOL     OW15728   9.600   8.188   9.373  0.4718 -0.2898 -0.1805
 3533SOL    HW115729   9.613   8.269   9.422  2.2880 -0.8926  0.3718
 3533SOL    HW215730   9.653   8.123   9.419  0.0196 -1.5073 -1.3394
 3534SOL     OW15731   2.436   2.784   6.736 -0.0449 -0.0154 -0.2496
 3534SOL    HW115732   2.430   2.879   6.748 -1.0429 -0.1560  0.3821
 3534SOL    HW215733   2.379   2.767   6.661 -1.5260 -0.3684  0.9304
 3535SOL     OW15734   2.578  10.436   8.306 -0.1818 -0.1507 -0.1241
 3535SOL    HW115735   2.514  10.494   8.265 -0.1156  0.4157  0.5622
 3535SOL    HW215736   2.662  10.480   8.294 -0.3314  0.7675  1.8847
 3536SOL     OW15737   7.689   1.734   3.368 -0.1967 -0.3995 -0.2181
 3536SOL    HW115738   7.664   1.643   3.347 -0.7242 -0.2916 -0.0683
 3536SOL    HW215739   7.782   1.729   3.389 -0.1796 -0.8784 -0.3968
 3537SOL     OW15740   0.315   9.230  10.248 -0.4365 -0.2673 -0.2318
 3537SOL    HW115741   0.386   9.238  10.312 -1.4530  2.7822  0.6256
 3537SOL    HW215742   0.359   9.214  10.165  1.2043  0.3480  0.4871
 3538SOL     OW15743   7.339  10.487   2.488  0.0646 -0.4945  0.1734
 3538SOL    HW115744   7.426  10.526   2.489 -0.0925 -0.1159 -1.0218
 3538SOL    HW215745   7.347  10.409   2.544  0.9772 -0.0794  0.6288
 3539SOL     OW15746   5.471   6.267   0.510  0.1632  0.1419  0.2353
 3539SOL    HW115747   5.400   6.203   0.511  1.3703 -1.2160  1.1158
 3539SOL    HW215748   5.486   6.288   0.602  0.4094  0.9570  0.0097
 3540SOL     OW15749   6.086   8.761   4.592  0.1412  0.2287  0.3370
 3540SOL    HW115750   5.993   8.746   4.610 -0.1695  1.0167 -0.5401
 3540SOL    HW215751   6.099   8.725   4.504  0.8227 -0.4778  0.7269
 3541SOL     OW15752   6.758   4.280   2.802 -0.1179 -0.3029  0.7163
 3541SOL    HW115753   6.793   4.339   2.736 -0.3716 -0.4458  0.4542
 3541SOL    HW215754   6.794   4.312   2.885  0.2167 -0.1394  0.5064
 3542SOL     OW15755  11.069   5.702   6.988 -0.1474 -0.2191  0.6130
 3542SOL    HW115756  11.017   5.622   7.003 -1.4646  0.7506  1.3068
 3542SOL    HW215757  11.157   5.678   7.017 -0.0489 -2.0607 -1.0974
 3543SOL     OW15758   4.841   7.206   2.101  0.3518  0.4564 -0.0724
 3543SOL    HW115759   4.903   7.216   2.174 -0.7078  1.0149  0.7739
 3543SOL    HW215760   4.894   7.173   2.029  1.6121  0.7913  0.6769
 3544SOL     OW15761   3.713   0.730   9.313 -0.0308 -0.6015 -0.0983
 3544SOL    HW115762   3.670   0.647   9.335  0.4788 -1.0830 -0.9179
 3544SOL    HW215763   3.642   0.786   9.281 -0.4861 -0.4909  1.0456
 3545SOL     OW15764   3.352   1.026   0.444  0.1603  0.6715  0.0012
 3545SOL    HW115765   3.425   1.087   0.453  0.0910  0.4497  2.4827
 3545SOL    HW215766   3.392   0.944   0.414  0.9210  0.6573  1.0080
 3546SOL     OW15767   4.673   3.588   2.091  0.1544  0.0405 -0.1777
 3546SOL    HW115768   4.682   3.655   2.023  0.1374 -0.1130 -0.3310
 3546SOL    HW215769   4.662   3.638   2.172  0.8610  0.2342 -0.1894
 3547SOL     OW15770   3.440   1.569   0.457 -0.3981 -0.5105 -0.0251
 3547SOL    HW115771   3.374   1.602   0.395 -0.4044  0.2790  0.3896
 3547SOL    HW215772   3.388   1.535   0.531 -0.4524 -2.8836 -1.1124
 3548SOL     OW15773   7.450   8.776   7.196 -0.5029 -0.2298  0.0340
 3548SOL    HW115774   7.458   8.807   7.106  0.1627 -3.4372 -1.0889
 3548SOL    HW215775   7.491   8.844   7.249  1.3324  0.5569 -2.3277
 3549SOL     OW15776   4.598   6.894   0.394 -0.2349 -0.6078 -0.3530
 3549SOL    HW115777   4.530   6.830   0.417  0.1685 -1.8201 -2.4029
 3549SOL    HW215778   4.679   6.843   0.393  0.1836  0.0604 -1.4166
 3550SOL     OW15779   4.540  10.024   0.162 -0.0231  0.2177 -0.5761
 3550SOL    HW115780   4.549  10.085   0.235  0.1827  1.5090 -1.6562
 3550SOL    HW215781   4.447  10.025   0.141 -0.3674 -1.4460  0.7275
 3551SOL     OW15782   6.537   5.209   3.903 -0.6420 -0.2659 -0.2874
 3551SOL    HW115783   6.474   5.144   3.935  1.1604 -0.9723  1.9494
 3551SOL    HW215784   6.519   5.288   3.954  0.0640 -0.3695  0.1285
 3552SOL     OW15785   8.476   6.931   2.118  0.6223  0.0447 -0.5292
 3552SOL    HW115786   8.481   7.005   2.057 -1.7620  0.3446 -0.3954
 3552SOL    HW215787   8.458   6.971   2.203 -1.1620 -0.7079 -0.5380
 3553SOL     OW15788   3.787   0.486   5.516 -0.1418 -0.8748 -0.1671
 3553SOL    HW115789   3.695   0.509   5.510 -0.2676 -1.5202 -0.8336
 3553SOL    HW215790   3.826   0.523   5.436  0.6159  1.3140  1.1641
 3554SOL     OW15791   5.365   4.607   4.371 -0.0338 -0.2516  0.9522
 3554SOL    HW115792   5.440   4.651   4.411 -0.2855  0.0225  1.1235
 3554SOL    HW215793   5.396   4.581   4.285 -0.1811  1.0946  0.4891
 3555SOL     OW15794   8.237   4.844   9.890  0.3519 -0.0626  0.3871
 3555SOL    HW115795   8.143   4.859   9.905 -0.2503 -1.6311 -1.4880
 3555SOL    HW215796   8.272   4.930   9.866 -1.1002  0.1442 -1.1261
 3556SOL     OW15797   3.159   1.163   8.873  0.3115 -0.1448 -0.1580
 3556SOL    HW115798   3.105   1.087   8.895  1.0626 -0.5740  0.2358
 3556SOL    HW215799   3.225   1.129   8.812  1.0469  0.0420  0.5257
 3557SOL     OW15800   7.008   6.170  11.155 -0.2637 -0.4660  0.3374
 3557SOL    HW115801   7.009   6.075  11.167 -2.9842 -0.2949  2.3362
 3557SOL    HW215802   6.933   6.185  11.097  0.8159  0.3875 -0.8466
 3558SOL     OW15803   5.606   6.107   5.202 -0.6562 -0.0400  0.0768
 3558SOL    HW115804   5.663   6.072   5.134  1.2117  2.2042  0.4205
 3558SOL    HW215805   5.528   6.136   5.154  0.3943  0.9920 -1.0554
 3559SOL     OW15806   0.942   7.148   7.575  0.4314  0.2630  0.2533
 3559SOL    HW115807   1.032   7.180   7.582  0.7050 -0.6794  1.0088
 3559SOL    HW215808   0.947   7.073   7.517  0.2841 -0.3986  1.0948
 3560SOL     OW15809   3.244   9.508   9.238 -0.1543  0.2189 -0.2025
 3560SOL    HW115810   3.285   9.459   9.167 -1.6755  0.4147 -1.2453
 3560SOL    HW215811   3.165   9.458   9.260 -0.5308  0.9917  0.2554
 3561SOL     OW15812   0.743   8.257   8.083  0.1017  0.1839 -0.2038
 3561SOL    HW115813   0.745   8.209   8.000 -0.1068 -0.8159  0.3671
 3561SOL    HW215814   0.834   8.281   8.098  0.5878 -2.1071  0.6955
 3562SOL     OW15815   2.132   7.360   6.680 -0.0901  0.9497  0.3708
 3562SOL    HW115816   2.075   7.283   6.686  1.7733 -0.3798  1.5105
 3562SOL    HW215817   2.138   7.392   6.770 -1.2559  2.7527 -0.1766
 3563SOL     OW15818   7.574  10.004   9.907  0.6354 -0.3632  0.2560
 3563SOL    HW115819   7.651  10.043   9.865  0.7006  0.4044  1.0921
 3563SOL    HW215820   7.589  10.015  10.000  0.7217 -2.5011  0.5229
 3564SOL     OW15821   5.204   6.965   1.032 -0.3513  0.0136 -0.5184
 3564SOL    HW115822   5.296   6.972   1.056 -0.6337  1.1760  0.3151
 3564SOL    HW215823   5.157   7.002   1.108 -1.4739 -0.2520 -1.0737
 3565SOL     OW15824   0.171  10.856   1.623  0.1636  0.0492  0.0077
 3565SOL    HW115825   0.212  10.778   1.586 -2.1558 -1.5663  0.7108
 3565SOL    HW215826   0.084  10.859   1.584  0.0297  2.0080  0.3841
 3566SOL     OW15827  10.857   1.716   7.985  0.1034  0.2507  0.7248
 3566SOL    HW115828  10.890   1.806   7.981 -0.8066  0.6070  1.1919
 3566SOL    HW215829  10.933   1.665   8.015  0.9820  0.6595 -0.7538
 3567SOL     OW15830   4.368   2.955   4.783  0.7489  0.2236 -0.2157
 3567SOL    HW115831   4.390   3.018   4.714  2.7593  0.4289  0.5907
 3567SOL    HW215832   4.314   2.889   4.739  1.8362  0.4618 -1.9474
 3568SOL     OW15833  10.595   3.503  10.583 -0.2506 -0.2319  0.2409
 3568SOL    HW115834  10.576   3.477  10.674 -0.3047  1.6232  0.7856
 3568SOL    HW215835  10.690   3.501  10.577 -0.0814  2.4839  1.2591
 3569SOL     OW15836   2.468   7.754   9.878 -0.1493 -0.5092 -0.5639
 3569SOL    HW115837   2.456   7.712   9.793 -2.0746 -1.1708  0.0233
 3569SOL    HW215838   2.385   7.798   9.896  0.6451  0.6309  0.4385
 3570SOL     OW15839   8.423   0.794   9.445  0.1943  0.7655  0.2013
 3570SOL    HW115840   8.448   0.881   9.415  1.2597  0.3215 -0.2192
 3570SOL    HW215841   8.434   0.798   9.540  1.1251  0.8142  0.0939
 3571SOL     OW15842  10.451   5.753   5.300  0.4067 -0.3435  0.3180
 3571SOL    HW115843  10.531   5.745   5.352  0.1976  1.6913  1.0050
 3571SOL    HW215844  10.384   5.707   5.350  1.0978 -1.9178 -0.1797
 3572SOL     OW15845   3.239   5.513   2.919 -0.5680 -0.1832  0.3971
 3572SOL    HW115846   3.296   5.587   2.899 -0.4626 -0.4805 -0.4093
 3572SOL    HW215847   3.178   5.508   2.845  0.9178 -2.3473 -0.7450
 3573SOL     OW15848   8.384   6.680   4.134 -0.7002  0.1351 -0.3892
 3573SOL    HW115849   8.406   6.589   4.117 -1.5662 -0.4352  1.4452
 3573SOL    HW215850   8.314   6.700   4.072 -0.1535 -0.2697 -1.1477
 3574SOL     OW15851   3.781   4.214   8.733 -0.2848  0.2387  0.5766
 3574SOL    HW115852   3.694   4.244   8.708 -0.3122 -0.6084 -0.3838
 3574SOL    HW215853   3.839   4.286   8.709 -0.8505  1.3314  2.3966
 3575SOL     OW15854   2.526   6.065   1.390  0.0080 -0.7573  0.1794
 3575SOL    HW115855   2.534   6.068   1.486 -0.0985 -1.3445  0.2131
 3575SOL    HW215856   2.604   6.018   1.361  0.3240 -0.0790 -0.0703
 3576SOL     OW15857   5.554   3.344   7.533 -0.0492  0.3578 -0.4015
 3576SOL    HW115858   5.588   3.407   7.469 -0.6005  1.8012  0.6934
 3576SOL    HW215859   5.483   3.299   7.488  0.7560  0.0802 -1.4024
 3577SOL     OW15860   5.668   0.310   2.315 -0.7981  0.5612  0.1472
 3577SOL    HW115861   5.652   0.232   2.262 -1.2347  0.0943  0.9528
 3577SOL    HW215862   5.757   0.299   2.348 -0.6589  0.6745 -0.1857
 3578SOL     OW15863   8.311   4.323   4.914  0.0006 -0.1385 -0.2239
 3578SOL    HW115864   8.363   4.350   4.838  0.5106  0.8033  0.4567
 3578SOL    HW215865   8.250   4.258   4.878  2.4031 -2.1597 -0.8008
 3579SOL     OW15866   9.069   2.393  11.221 -0.1374  0.4087 -0.8618
 3579SOL    HW115867   8.986   2.347  11.217  0.4447 -0.6674 -0.6083
 3579SOL    HW215868   9.046   2.482  11.248 -0.9674 -0.5184  1.5615
 3580SOL     OW15869   9.251   6.668   3.621 -0.5461 -0.6540  0.1868
 3580SOL    HW115870   9.162   6.691   3.649 -0.0472 -0.4302  1.6088
 3580SOL    HW215871   9.304   6.744   3.646 -0.4242  0.5063 -3.3027
 3581SOL     OW15872   6.404   7.455   5.825  0.2434  0.1062  0.4002
 3581SOL    HW115873   6.432   7.375   5.780  1.0033  0.0029  1.0427
 3581SOL    HW215874   6.312   7.466   5.801  0.1256 -0.9875  0.3455
 3582SOL     OW15875   3.619  10.586   8.738  0.5231  0.2751 -0.3184
 3582SOL    HW115876   3.608  10.520   8.807  0.8156 -0.7601 -1.2505
 3582SOL    HW215877   3.637  10.667   8.785 -0.5579 -0.1577  0.8697
 3583SOL     OW15878   7.562   1.525   0.994  0.6985 -0.2094  0.1637
 3583SOL    HW115879   7.532   1.612   1.021  0.5772  0.2967 -1.5025
 3583SOL    HW215880   7.585   1.536   0.901 -1.7957 -2.5435 -0.8189
 3584SOL     OW15881  10.194   7.891   6.410  0.0554  0.1558  0.2456
 3584SOL    HW115882  10.125   7.834   6.445 -0.8514  1.4818  0.6211
 3584SOL    HW215883  10.254   7.831   6.365 -2.3644 -0.7880 -1.7852
 3585SOL     OW15884   9.051   8.477   7.483 -0.6272  0.0984  0.0835
 3585SOL    HW115885   9.061   8.544   7.550 -0.7256 -0.7001  0.9112
 3585SOL    HW215886   9.067   8.522   7.400 -0.1594  1.0159  0.6733
 3586SOL     OW15887  10.765   6.492   2.887  0.3054  0.7604 -0.6572
 3586SOL    HW115888  10.815   6.487   2.805 -0.5433 -2.4453 -1.0506
 3586SOL    HW215889  10.675   6.510   2.860  0.3229  1.4355 -0.2880
 3587SOL     OW15890  10.781   4.444   1.038  0.2291  0.7389 -0.4764
 3587SOL    HW115891  10.766   4.379   0.970 -0.5842  0.3641  0.0537
 3587SOL    HW215892  10.796   4.392   1.117  0.9050  1.1735 -0.3149
 3588SOL     OW15893   6.955   6.945   0.987  0.1918  0.2350 -0.3327
 3588SOL    HW115894   6.988   6.884   0.921  0.7834  0.9199 -0.6695
 3588SOL    HW215895   6.902   6.890   1.045  1.1049 -0.6826 -0.3636
 3589SOL     OW15896  10.333  10.905   2.577 -0.1108  0.3461  0.4830
 3589SOL    HW115897  10.416  10.894   2.624 -0.5572 -1.6069  0.8501
 3589SOL    HW215898  10.352  10.873   2.488 -0.6261 -0.6825  0.7379
 3590SOL     OW15899   5.989   5.618   9.729  0.3411 -0.4578  0.4850
 3590SOL    HW115900   6.080   5.588   9.731 -0.1369 -2.0421 -0.5299
 3590SOL    HW215901   5.944   5.564   9.794 -0.7181 -2.7121 -1.9963
 3591SOL     OW15902   8.436   6.643   6.521  0.3840  0.0789 -0.3116
 3591SOL    HW115903   8.370   6.574   6.515 -0.9901  1.0743  2.6959
 3591SOL    HW215904   8.394   6.720   6.483  0.7005  0.1306 -0.5676
 3592SOL     OW15905   6.037   7.755   1.359  0.0077 -0.2832  0.2107
 3592SOL    HW115906   5.968   7.804   1.315 -0.6427 -1.4139 -0.0450
 3592SOL    HW215907   6.010   7.752   1.451  1.8711  2.9580  0.9481
 3593SOL     OW15908   3.603   3.650   4.083  0.0746  0.5130 -0.7116
 3593SOL    HW115909   3.541   3.583   4.112  0.7742 -0.4367 -1.3704
 3593SOL    HW215910   3.583   3.726   4.136 -1.1706 -0.0213 -0.4045
 3594SOL     OW15911   3.085   9.896   6.111  0.0052  1.1193  0.4301
 3594SOL    HW115912   2.992   9.880   6.128 -0.0313  0.6624 -0.1747
 3594SOL    HW215913   3.106   9.836   6.039  0.7270  1.3404  0.4610
 3595SOL     OW15914   9.895   3.271   6.092 -0.5905  0.5080  0.0538
 3595SOL    HW115915   9.978   3.305   6.059 -1.4622 -1.0696 -4.0501
 3595SOL    HW215916   9.834   3.282   6.019 -3.4541 -0.3519  2.2368
 3596SOL     OW15917   8.348   6.285   9.667 -0.1708 -0.1621  0.1951
 3596SOL    HW115918   8.330   6.378   9.677 -0.7581 -0.2602  0.0397
 3596SOL    HW215919   8.262   6.243   9.672  0.1514 -0.7527  0.9413
 3597SOL     OW15920   9.605   3.817   8.560 -0.1871  0.1724 -0.1497
 3597SOL    HW115921   9.607   3.726   8.591  0.7340  0.0765 -0.4731
 3597SOL    HW215922   9.558   3.813   8.477  1.1214 -0.2417 -0.8851
 3598SOL     OW15923   2.418   3.158  11.155  0.1188  0.2434  0.7341
 3598SOL    HW115924   2.338   3.110  11.173  0.9202 -0.7372  1.7703
 3598SOL    HW215925   2.486   3.090  11.147  0.6272  0.9548 -1.4422
 3599SOL     OW15926  10.298  10.684   8.618  0.0921  0.0949  0.2867
 3599SOL    HW115927  10.247  10.665   8.697  0.0625  0.0049  0.2458
 3599SOL    HW215928  10.233  10.717   8.555  0.0145 -0.3867  0.1060
 3600SOL     OW15929   2.792   9.129   3.015 -0.4299  0.1886 -0.3134
 3600SOL    HW115930   2.757   9.133   2.926 -0.9494 -0.6838 -0.1553
 3600SOL    HW215931   2.736   9.189   3.065 -0.2383  0.5583 -0.5405
 3601SOL     OW15932   6.170   4.769   0.978 -0.3206  0.0291  0.1856
 3601SOL    HW115933   6.228   4.821   1.033  0.4521  0.9578 -1.4521
 3601SOL    HW215934   6.087   4.767   1.026  0.6856 -0.2527  1.9549
 3602SOL     OW15935   6.392   4.871   9.257 -0.4650  0.3514  0.6566
 3602SOL    HW115936   6.458   4.819   9.210  1.1578  0.0816  3.0783
 3602SOL    HW215937   6.312   4.859   9.208  1.0657 -0.2376 -1.7676
 3603SOL     OW15938   2.320   8.183   5.364  0.0255  0.3679 -0.0729
 3603SOL    HW115939   2.325   8.089   5.382 -1.9291  0.0747 -0.9213
 3603SOL    HW215940   2.410   8.208   5.343  0.2009 -1.7796 -2.0848
 3604SOL     OW15941   0.890   3.004   5.981 -0.3764  0.7667  0.1918
 3604SOL    HW115942   0.963   2.956   5.941  1.1525  0.8364  2.7346
 3604SOL    HW215943   0.907   3.095   5.959 -1.3746  0.4960 -1.7477
 3605SOL     OW15944   4.092   3.049   4.315  0.1200 -0.1089 -0.5130
 3605SOL    HW115945   4.030   3.096   4.371  0.3077  0.4776 -0.7936
 3605SOL    HW215946   4.174   3.099   4.323  0.6826 -1.1243  0.2005
 3606SOL     OW15947   6.706   3.132   9.622  0.0451  0.2896  0.3593
 3606SOL    HW115948   6.616   3.155   9.598 -0.1185 -0.1943  0.5143
 3606SOL    HW215949   6.741   3.085   9.547 -0.5750 -1.5152  1.1806
 3607SOL     OW15950   2.416   4.104   2.492 -0.4408 -0.2045 -0.0306
 3607SOL    HW115951   2.352   4.073   2.428 -0.1326  0.0240 -0.4541
 3607SOL    HW215952   2.370   4.099   2.576 -0.8578 -0.4791 -0.2704
 3608SOL     OW15953   5.097   1.620   0.024  0.2926 -0.1220  0.1716
 3608SOL    HW115954   5.048   1.696  -0.005 -0.5370 -0.4545  0.6662
 3608SOL    HW215955   5.047   1.587   0.100  1.0104 -0.7460  0.3817
 3609SOL     OW15956   7.177   9.883   6.710  0.0270 -0.3839  0.0678
 3609SOL    HW115957   7.200   9.897   6.802  2.1237  0.7606 -0.6131
 3609SOL    HW215958   7.189   9.969   6.669  0.3351 -1.1853 -1.5481
 3610SOL     OW15959   7.791   9.623   6.910 -0.3938  0.1071 -0.7592
 3610SOL    HW115960   7.719   9.567   6.938  1.0768 -2.2995 -1.6980
 3610SOL    HW215961   7.821   9.585   6.828  1.8022  1.2243 -0.5145
 3611SOL     OW15962   9.891   7.454   8.422 -0.7075 -0.4201  0.3023
 3611SOL    HW115963   9.835   7.529   8.441  1.3681  1.3094 -0.1673
 3611SOL    HW215964   9.973   7.473   8.467  0.3467 -1.6970 -1.0087
 3612SOL     OW15965   1.384   0.277  10.100  0.0584 -0.0039  0.3135
 3612SOL    HW115966   1.414   0.358  10.058 -0.9562 -0.1152 -0.6580
 3612SOL    HW215967   1.347   0.305  10.184 -0.3632  0.5460 -0.0567
 3613SOL     OW15968  10.834   3.344   2.026 -0.2298  0.1675  0.5603
 3613SOL    HW115969  10.767   3.322   1.961  1.0698 -0.2396 -0.6552
 3613SOL    HW215970  10.913   3.299   1.996  0.2995 -0.3140  2.6243
 3614SOL     OW15971   0.590   1.710   9.316 -0.1378  0.2036  0.2789
 3614SOL    HW115972   0.569   1.698   9.408  0.0588  1.0283  0.4352
 3614SOL    HW215973   0.641   1.791   9.313 -1.0020  0.7309 -0.6754
 3615SOL     OW15974   3.072   8.081   0.839 -0.2994 -0.0716 -0.2293
 3615SOL    HW115975   2.980   8.060   0.858 -0.1724 -0.5686 -0.1634
 3615SOL    HW215976   3.083   8.171   0.871 -0.6699 -0.1319  0.0735
 3616SOL     OW15977  10.153   6.994   1.876  0.0679  0.1197 -0.4645
 3616SOL    HW115978  10.105   6.990   1.793  1.3905 -2.1057 -1.1802
 3616SOL    HW215979  10.146   6.905   1.911  1.7352  0.3705  0.5335
 3617SOL     OW15980   4.587   3.003   1.807  0.1555  0.0110 -0.2060
 3617SOL    HW115981   4.609   3.025   1.716  3.1719  1.3338  0.7678
 3617SOL    HW215982   4.609   2.911   1.815 -0.3290 -0.1663 -0.8869
 3618SOL     OW15983   2.074   8.090   2.680  0.6263  0.0804 -0.2394
 3618SOL    HW115984   2.124   8.171   2.691 -0.2541  0.5537  0.3582
 3618SOL    HW215985   1.993   8.117   2.636  0.1029 -0.3883  0.4257
 3619SOL     OW15986   3.153   1.434   3.181 -0.0123 -0.3894  0.1212
 3619SOL    HW115987   3.104   1.387   3.249 -0.8856 -1.3950 -1.1915
 3619SOL    HW215988   3.100   1.425   3.102 -0.0615  2.6322 -0.2141
 3620SOL     OW15989   8.383   0.244   8.624  0.2514 -0.4220  0.1937
 3620SOL    HW115990   8.476   0.251   8.602  0.2130  0.0143  0.1804
 3620SOL    HW215991   8.352   0.334   8.632  0.1214 -0.5785  1.4556
 3621SOL     OW15992   7.976   1.895   5.179  0.3446  0.2862 -0.0850
 3621SOL    HW115993   8.011   1.885   5.267 -1.2187  0.7725  0.6137
 3621SOL    HW215994   7.891   1.938   5.191  0.4203  0.9996 -1.8759
 3622SOL     OW15995   3.747   0.498   8.479 -0.5693 -0.6505  0.2914
 3622SOL    HW115996   3.737   0.510   8.574 -0.6919 -0.0196  0.2000
 3622SOL    HW215997   3.824   0.442   8.470 -0.3165 -0.3835  0.7498
 3623SOL     OW15998   1.542   8.841   1.467 -0.0083 -0.0188  0.1872
 3623SOL    HW115999   1.472   8.786   1.504  0.2564 -0.3345  0.2160
 3623SOL    HW216000   1.610   8.779   1.442  0.2000  0.2807  0.0210
 3624SOL     OW16001   4.076  10.876   1.740  0.7347  0.1137 -0.1920
 3624SOL    HW116002   4.125  10.891   1.821  1.1373  1.8282 -0.7375
 3624SOL    HW216003   4.132  10.911   1.671  0.9789 -2.4930 -1.3918
 3625SOL     OW16004  10.743   5.825   9.117 -0.0702  0.0090 -0.7529
 3625SOL    HW116005  10.686   5.824   9.040 -1.8319 -1.1522  0.5411
 3625SOL    HW216006  10.714   5.751   9.169  1.3453  0.5792  0.8815
 3626SOL     OW16007   5.992   6.342  10.248  0.2483 -0.4201 -0.0964
 3626SOL    HW116008   5.939   6.302  10.178 -0.3840  1.7164 -0.8746
 3626SOL    HW216009   6.081   6.342  10.213  0.3544 -1.7066  0.1640
 3627SOL     OW16010   7.121  10.748   6.295 -0.0624 -0.3104 -0.1678
 3627SOL    HW116011   7.136  10.661   6.258  2.4090 -0.2479  0.5599
 3627SOL    HW216012   7.209  10.784   6.307 -1.1067  2.9196 -1.8748
 3628SOL     OW16013   2.772  10.877   9.226  0.2944 -0.5912  0.4126
 3628SOL    HW116014   2.713  10.825   9.281 -1.0308 -0.4382 -0.8312
 3628SOL    HW216015   2.764  10.966   9.261  0.4105 -0.7150  0.7632
 3629SOL     OW16016   6.873   7.949   8.369  0.8583  0.6799 -0.7429
 3629SOL    HW116017   6.854   8.005   8.445 -0.0464 -1.0309  0.3473
 3629SOL    HW216018   6.878   8.009   8.295 -0.0865  2.1925  0.3884
 3630SOL     OW16019   9.264   7.747   6.643 -0.1763  0.0050 -0.0442
 3630SOL    HW116020   9.229   7.673   6.594 -0.1093 -1.2246  1.6860
 3630SOL    HW216021   9.190   7.781   6.693  0.4880 -0.9418  1.6184
 3631SOL     OW16022   4.527   1.595   8.684  0.4491  0.7675  0.6539
 3631SOL    HW116023   4.465   1.615   8.614  1.6905  2.2560 -0.0279
 3631SOL    HW216024   4.472   1.562   8.755 -0.8773 -0.3075 -0.8194
 3632SOL     OW16025   9.373   2.391   4.952  0.7830  0.4822 -0.2431
 3632SOL    HW116026   9.336   2.334   5.020  2.1719 -1.0501 -0.7310
 3632SOL    HW216027   9.317   2.376   4.876  0.2932  0.8451  0.0448
 3633SOL     OW16028   2.517   9.021  10.088 -0.5298  0.0386  0.0517
 3633SOL    HW116029   2.560   9.106  10.076 -0.5329  0.1953  1.1100
 3633SOL    HW216030   2.508   9.012  10.183  0.2080 -1.5142 -0.0006
 3634SOL     OW16031   9.919  10.561  10.454  0.0883  0.2560 -0.2775
 3634SOL    HW116032   9.905  10.618  10.378 -1.3495  0.5147  0.1519
 3634SOL    HW216033  10.004  10.521  10.439 -0.4600 -0.1965 -2.3605
 3635SOL     OW16034   3.825   6.942   9.133 -0.5624 -0.9300 -0.2107
 3635SOL    HW116035   3.919   6.927   9.127 -0.4915 -0.1629 -1.0359
 3635SOL    HW216036   3.809   6.960   9.225  0.6335  2.4255 -0.5979
 3636SOL     OW16037   9.276   7.094   1.430  0.1120  0.2278 -0.2442
 3636SOL    HW116038   9.220   7.122   1.358 -1.6928  0.8191  1.3537
 3636SOL    HW216039   9.344   7.161   1.436 -0.9447  1.2885 -0.0646
 3637SOL     OW16040   4.091  10.919   8.458  0.9191 -1.0141 -0.1776
 3637SOL    HW116041   4.016  10.921   8.518 -0.2232 -2.6707 -1.5251
 3637SOL    HW216042   4.140  10.999   8.479 -2.1257  1.0102 -0.4572
 3638SOL     OW16043   7.350   8.475   4.506 -0.2091  0.7238  0.0591
 3638SOL    HW116044   7.293   8.473   4.584  0.5569  0.6023  0.6169
 3638SOL    HW216045   7.368   8.567   4.492  0.8006  0.6523  0.8682
 3639SOL     OW16046   5.205   6.468   5.461 -0.1773 -0.2604 -0.1545
 3639SOL    HW116047   5.200   6.498   5.370 -0.7100 -1.1390 -0.4164
 3639SOL    HW216048   5.231   6.376   5.455  0.1644 -0.2153  0.6017
 3640SOL     OW16049   8.668   3.884  11.200 -0.1055  0.1279 -0.1097
 3640SOL    HW116050   8.712   3.839  11.272 -0.9969  0.6595  0.7810
 3640SOL    HW216051   8.648   3.971  11.234 -1.6897 -0.0435 -0.5470
 3641SOL     OW16052   4.069   6.531   5.347 -0.0504  0.1036  0.3577
 3641SOL    HW116053   4.033   6.491   5.426 -3.4374 -0.2395 -1.2475
 3641SOL    HW216054   4.092   6.457   5.291  1.2086  0.3612  0.5161
 3642SOL     OW16055   9.066   7.425   2.691  0.5814  0.3835  0.7189
 3642SOL    HW116056   9.065   7.386   2.779  0.5479 -0.6164  0.2801
 3642SOL    HW216057   9.045   7.517   2.705  0.5159  0.2129  1.7572
 3643SOL     OW16058   4.135   2.080   0.098  0.0071 -0.2294  0.4540
 3643SOL    HW116059   4.106   2.058   0.186 -0.6722 -0.4633  0.1728
 3643SOL    HW216060   4.229   2.094   0.107  0.0254 -0.7328  1.1254
 3644SOL     OW16061   0.683   9.879   1.543  0.6746 -0.3219  0.3742
 3644SOL    HW116062   0.699   9.808   1.481 -0.8287 -1.0339  0.7850
 3644SOL    HW216063   0.698   9.840   1.629 -0.1050 -0.1324  0.6007
 3645SOL     OW16064   6.277   7.573  10.493 -0.0386 -0.4597 -0.0326
 3645SOL    HW116065   6.188   7.603  10.512  0.3287 -0.3796  1.5612
 3645SOL    HW216066   6.277   7.481  10.519  0.0790 -0.7100 -0.9111
 3646SOL     OW16067   4.545   2.504   4.969 -0.1268  0.1948  0.6591
 3646SOL    HW116068   4.520   2.594   4.990  2.2464  0.7724  1.2102
 3646SOL    HW216069   4.467   2.452   4.989 -2.1708  2.3308 -1.4969
 3647SOL     OW16070   8.924   4.986   5.420 -0.5288 -0.6277  0.3280
 3647SOL    HW116071   8.860   5.056   5.422  0.7418  0.5936 -0.5823
 3647SOL    HW216072   8.963   4.986   5.507  0.5683  0.8714 -0.1399
 3648SOL     OW16073  10.932   1.051  10.948  0.8479  0.2121  0.4250
 3648SOL    HW116074  10.965   0.986  11.009  0.5784 -0.3005  0.0331
 3648SOL    HW216075  10.854   1.010  10.909 -0.1105  1.2945  1.1580
 3649SOL     OW16076   1.255   6.544  10.346  0.1515  0.4054 -0.0941
 3649SOL    HW116077   1.176   6.562  10.294  0.4566  0.4309 -0.5518
 3649SOL    HW216078   1.276   6.627  10.387 -1.0166  0.0163  1.3704
 3650SOL     OW16079   7.090   1.954   1.396  0.1588 -0.1053  0.4401
 3650SOL    HW116080   7.098   2.047   1.374  0.3665  0.0194  1.0264
 3650SOL    HW216081   7.180   1.922   1.401  0.0476 -0.8320 -1.7669
 3651SOL     OW16082   7.181   0.954   8.922  0.0133 -0.2454  0.0723
 3651SOL    HW116083   7.275   0.973   8.915  0.0921 -1.4673 -3.0730
 3651SOL    HW216084   7.176   0.886   8.989  1.2954  0.2999  0.7515
 3652SOL     OW16085   7.748   8.170   6.692  0.3412  0.1901 -0.0425
 3652SOL    HW116086   7.746   8.229   6.767 -0.7959  1.2408 -0.8836
 3652SOL    HW216087   7.759   8.083   6.730  0.5610  0.7900  1.2890
 3653SOL     OW16088   1.115   6.771   1.190  0.3422 -0.4645  0.0470
 3653SOL    HW116089   1.194   6.749   1.239  1.8470  1.4267 -1.4165
 3653SOL    HW216090   1.057   6.696   1.201  1.6832 -1.2018  2.4841
 3654SOL     OW16091   5.698   3.543   5.372 -0.0656 -0.0329  0.4831
 3654SOL    HW116092   5.763   3.488   5.329  1.8185  1.9984  0.6454
 3654SOL    HW216093   5.643   3.481   5.421  1.8100 -1.7898  0.4539
 3655SOL     OW16094   4.216   0.664   8.220 -0.5744 -0.0322 -0.1409
 3655SOL    HW116095   4.233   0.625   8.305  0.6882  1.4289  0.3019
 3655SOL    HW216096   4.122   0.681   8.219 -1.3006 -3.7133 -0.6455
 3656SOL     OW16097   3.203   1.338  10.657 -0.4279 -0.5562 -0.3298
 3656SOL    HW116098   3.287   1.297  10.637  0.1787  0.2845  0.4785
 3656SOL    HW216099   3.169   1.288  10.731 -0.0955 -0.1456  0.0979
 3657SOL     OW16100  11.115   9.595   0.018  0.9753 -0.2942 -0.0307
 3657SOL    HW116101  11.126   9.653   0.094 -1.7574  0.8754 -0.4581
 3657SOL    HW216102  11.117   9.507   0.055 -0.1112  0.2552  1.3996
 3658SOL     OW16103   9.806   3.631   3.412 -0.7648  0.2457 -0.5493
 3658SOL    HW116104   9.883   3.575   3.424 -1.3979 -0.4728  0.2762
 3658SOL    HW216105   9.799   3.678   3.495 -0.3940  1.3554 -1.1480
 3659SOL     OW16106   0.019   5.981  10.407  0.1298 -0.6289 -0.1011
 3659SOL    HW116107   0.096   5.963  10.461  0.0005 -0.1157  0.2605
 3659SOL    HW216108   0.054   6.014  10.325  0.2421  1.9934  0.9687
 3660SOL     OW16109   3.832   1.407   3.304 -0.1939 -0.1168 -0.3516
 3660SOL    HW116110   3.872   1.440   3.384 -0.8757  3.5901 -1.4110
 3660SOL    HW216111   3.805   1.486   3.257 -2.3541 -2.2811 -2.9286
 3661SOL     OW16112   9.627   8.891   2.051  0.2754  0.6333  0.2982
 3661SOL    HW116113   9.680   8.819   2.019 -0.8094 -0.4749  0.9766
 3661SOL    HW216114   9.650   8.899   2.144 -0.9473 -0.0442  0.6676
 3662SOL     OW16115   4.742  10.927   2.438  0.2672  0.6860 -0.5016
 3662SOL    HW116116   4.710  10.915   2.527  0.5599  1.7245 -0.2527
 3662SOL    HW216117   4.837  10.933   2.447  0.2584  1.3268 -0.8205
 3663SOL     OW16118   2.517   2.181   9.293 -0.4441 -0.0574 -0.3001
 3663SOL    HW116119   2.465   2.256   9.324  2.1089  0.5654  2.7409
 3663SOL    HW216120   2.606   2.199   9.324  0.9438 -2.7015 -2.5180
 3664SOL     OW16121   8.908   1.164   8.435 -0.6784  0.7505  0.1619
 3664SOL    HW116122   8.815   1.178   8.449 -1.1352 -2.5112  0.6689
 3664SOL    HW216123   8.917   1.069   8.424  2.4576  1.1022 -0.7977
 3665SOL     OW16124   2.832   3.614   3.508 -0.1493  0.0244  0.3513
 3665SOL    HW116125   2.904   3.615   3.445  1.9554  1.4261  2.7085
 3665SOL    HW216126   2.805   3.706   3.514 -1.2444 -0.2994  0.5178
 3666SOL     OW16127  10.155   3.165   8.486 -0.2052 -0.0375  0.7682
 3666SOL    HW116128  10.158   3.207   8.400 -0.8974  0.0204  0.7673
 3666SOL    HW216129  10.065   3.181   8.517  0.0270 -0.0912  1.4793
 3667SOL     OW16130   6.840   2.894   1.318  0.1051  0.6561  0.3179
 3667SOL    HW116131   6.910   2.891   1.383  0.1337  1.0672  0.3070
 3667SOL    HW216132   6.851   2.813   1.268  0.7051  0.8217  0.1766
 3668SOL     OW16133  10.046   2.455   0.934  0.2125  0.1654  0.0413
 3668SOL    HW116134   9.958   2.481   0.962  0.1640 -0.6672  0.7001
 3668SOL    HW216135  10.037   2.363   0.910  1.1208 -0.2081  1.1058
 3669SOL     OW16136   2.261   8.862   8.339  0.1464  0.0736  0.0012
 3669SOL    HW116137   2.240   8.952   8.364 -0.9384 -0.2210  0.1765
 3669SOL    HW216138   2.315   8.828   8.411  0.8761  0.6947 -0.2435
 3670SOL     OW16139  10.830   6.653   4.034  0.1683  0.1092  0.4607
 3670SOL    HW116140  10.793   6.742   4.028 -1.1593 -0.4684 -0.1324
 3670SOL    HW216141  10.755   6.598   4.055  0.6663 -1.1228 -0.9188
 3671SOL     OW16142   7.448   0.799   9.424 -0.3871 -0.4254  0.1986
 3671SOL    HW116143   7.500   0.734   9.471 -0.1633 -0.3798  0.0164
 3671SOL    HW216144   7.507   0.832   9.356 -0.2004  0.6066  0.8447
 3672SOL     OW16145   3.829   8.246   9.632 -0.0898  0.2214 -0.2957
 3672SOL    HW116146   3.784   8.182   9.578  0.7502 -0.9454  0.3810
 3672SOL    HW216147   3.765   8.271   9.699 -0.1777 -0.4397 -0.1345
 3673SOL     OW16148   4.693  10.831   2.177  0.1234  0.3924  0.0970
 3673SOL    HW116149   4.676  10.738   2.192  0.2672  0.1571 -1.1905
 3673SOL    HW216150   4.698  10.868   2.265  0.6259 -0.9166  0.6387
 3674SOL     OW16151   7.370   7.439   7.997  0.0858 -0.0231 -0.4103
 3674SOL    HW116152   7.289   7.424   7.948 -0.3039 -0.0967  0.2484
 3674SOL    HW216153   7.368   7.373   8.067 -1.3230  2.5819  2.1354
 3675SOL     OW16154   5.197   6.553   5.186  0.2575 -0.1477  0.2104
 3675SOL    HW116155   5.120   6.496   5.174 -1.4631  2.3545 -1.0072
 3675SOL    HW216156   5.164   6.641   5.171  2.5374  1.3741  3.5659
 3676SOL     OW16157   6.691   8.660   0.540 -0.3361 -0.1671  0.1726
 3676SOL    HW116158   6.746   8.680   0.616 -0.1419  0.0228 -0.0150
 3676SOL    HW216159   6.747   8.605   0.485 -0.9739 -1.4946  0.8279
 3677SOL     OW16160   7.356   8.704   0.362 -0.2533  0.4684  0.9069
 3677SOL    HW116161   7.365   8.796   0.336 -0.6458 -0.1752 -1.5734
 3677SOL    HW216162   7.296   8.666   0.298  1.3909 -1.9719  0.7535
 3678SOL     OW16163  11.176   0.521  11.238  0.1869  0.4552 -0.2288
 3678SOL    HW116164  11.220   0.504  11.155  0.2614  0.8208 -0.2675
 3678SOL    HW216165  11.236   0.579  11.286 -1.2867  2.9505 -1.2635
 3679SOL     OW16166   9.755   8.826   4.337  0.1066  0.6331 -0.1505
 3679SOL    HW116167   9.749   8.750   4.394 -1.1100  1.1766  0.4688
 3679SOL    HW216168   9.697   8.807   4.263  0.7854  0.4236 -0.6375
 3680SOL     OW16169   6.253   6.508   3.144 -0.9194 -0.0041 -0.1294
 3680SOL    HW116170   6.296   6.428   3.114  0.8416  0.4051  1.2468
 3680SOL    HW216171   6.305   6.579   3.107 -1.1694  0.4997  0.4781
 3681SOL     OW16172   1.055   7.630   2.849  0.1981 -0.2915 -0.3267
 3681SOL    HW116173   1.112   7.673   2.913  2.6513 -2.6321 -0.8949
 3681SOL    HW216174   0.971   7.622   2.894  0.9944  0.9720  1.4332
 3682SOL     OW16175  11.168   4.845   7.492  0.6764  0.9783 -0.1129
 3682SOL    HW116176  11.145   4.857   7.400  1.2448  1.3313 -0.2100
 3682SOL    HW216177  11.089   4.807   7.532  0.7489 -0.0277 -0.9282
 3683SOL     OW16178   0.518   4.248   9.084  0.3307 -0.3372  0.4146
 3683SOL    HW116179   0.441   4.284   9.040  1.5185  1.4886 -0.2436
 3683SOL    HW216180   0.541   4.315   9.148  0.3205 -1.6938  1.8543
 3684SOL     OW16181   1.583   1.527   9.676 -0.3349  0.1798 -0.3097
 3684SOL    HW116182   1.652   1.562   9.620 -1.2967  2.9619  0.1785
 3684SOL    HW216183   1.509   1.586   9.663 -2.9045 -3.1195 -1.3038
 3685SOL     OW16184   5.866   5.888   2.927 -0.0514 -0.5346  0.3026
 3685SOL    HW116185   5.802   5.824   2.896 -1.8688  0.9167  0.9669
 3685SOL    HW216186   5.815   5.952   2.977  1.8976  0.7183  0.7777
 3686SOL     OW16187   9.162   7.215   4.302  0.0486  0.2287  0.2820
 3686SOL    HW116188   9.172   7.201   4.208  1.2674  0.5002  0.3638
 3686SOL    HW216189   9.182   7.131   4.342 -0.1508  0.1982  0.3158
 3687SOL     OW16190  10.835   0.855   6.333  0.4876  0.0386  0.0380
 3687SOL    HW116191  10.864   0.790   6.268  0.5650  1.5611 -1.4865
 3687SOL    HW216192  10.800   0.802   6.404  0.3967 -1.6943 -1.2358
 3688SOL     OW16193   5.452   7.897   2.109  0.4047 -0.3253 -0.0254
 3688SOL    HW116194   5.378   7.857   2.063 -0.2741  2.2456 -1.2717
 3688SOL    HW216195   5.412   7.957   2.172  1.3739  1.7305 -1.2949
 3689SOL     OW16196   3.328   7.007   4.729 -0.4739  0.6603  0.3576
 3689SOL    HW116197   3.381   6.986   4.806 -0.2197 -0.7095 -0.1664
 3689SOL    HW216198   3.273   7.081   4.756  1.5130  1.9251  0.9748
 3690SOL     OW16199   2.811   6.276  10.994 -0.5847  0.3301  0.5779
 3690SOL    HW116200   2.748   6.308  11.058 -1.4058 -1.3176  0.6218
 3690SOL    HW216201   2.834   6.188  11.025 -1.1113 -0.5564 -1.4206
 3691SOL     OW16202   3.360   0.898   1.152  0.1092 -0.1482 -0.1091
 3691SOL    HW116203   3.361   0.811   1.113  0.7344  0.5612 -1.7533
 3691SOL    HW216204   3.348   0.957   1.077  0.3525  1.1995  0.9000
 3692SOL     OW16205   2.021   4.252   7.675  0.0769 -0.4235  0.1254
 3692SOL    HW116206   2.030   4.161   7.647  0.0074 -0.3088 -0.2773
 3692SOL    HW216207   2.081   4.260   7.750  0.5909 -0.6282 -0.2559
 3693SOL     OW16208   4.145  10.715   5.714  0.1253 -0.9797 -0.2406
 3693SOL    HW116209   4.138  10.803   5.675 -0.1617 -0.9238 -0.0599
 3693SOL    HW216210   4.239  10.699   5.718  0.2438 -0.1012  1.0037
 3694SOL     OW16211   1.179   6.522   6.297 -0.7201  0.3292  0.3405
 3694SOL    HW116212   1.251   6.577   6.329 -0.9449  1.0266 -0.3207
 3694SOL    HW216213   1.222   6.445   6.260 -0.4084 -0.0234  1.4160
 3695SOL     OW16214  10.833   0.324   6.180 -0.1703 -0.1338 -0.3716
 3695SOL    HW116215  10.919   0.365   6.193  1.0522 -3.1137  1.3893
 3695SOL    HW216216  10.792   0.326   6.266  1.2897 -5.3963  0.6285
 3696SOL     OW16217  11.264   2.024   7.683 -0.0118  0.3958 -0.2639
 3696SOL    HW116218  11.182   2.039   7.636  0.5201 -1.9512 -2.0106
 3696SOL    HW216219  11.327   2.083   7.640  0.0507 -0.4208 -1.3115
 3697SOL     OW16220   1.186   2.471   7.973 -0.2226  0.1835 -0.3835
 3697SOL    HW116221   1.259   2.410   7.985 -1.0382 -0.9069 -0.9699
 3697SOL    HW216222   1.229   2.556   7.961  0.8816 -0.0323  1.7630
 3698SOL     OW16223   7.208   5.168   7.872  1.2620  0.0685  0.3026
 3698SOL    HW116224   7.268   5.191   7.801  1.0546 -1.1109 -0.2744
 3698SOL    HW216225   7.198   5.073   7.864 -2.2536  0.4702 -0.8712
 3699SOL     OW16226   6.579   4.494   3.575  0.0027  0.1219  0.7761
 3699SOL    HW116227   6.605   4.478   3.666  0.0190 -1.5792  0.5003
 3699SOL    HW216228   6.579   4.407   3.535 -3.8507  0.3504  0.1315
 3700SOL     OW16229   0.556   7.950   7.110  0.3396 -0.0382  0.0285
 3700SOL    HW116230   0.462   7.941   7.092 -0.1130 -0.1566  2.3457
 3700SOL    HW216231   0.595   7.870   7.073 -0.2986  0.5292 -1.9292
 3701SOL     OW16232   0.845   3.714   1.011 -0.6733  0.0118 -0.8040
 3701SOL    HW116233   0.921   3.709   1.069 -1.8420  0.8418  0.8400
 3701SOL    HW216234   0.861   3.791   0.958 -0.8371  0.7883  0.2545
 3702SOL     OW16235   8.315  11.002   5.536  0.3397  1.0432 -0.4785
 3702SOL    HW116236   8.236  11.043   5.570 -0.8567 -0.3667 -1.5114
 3702SOL    HW216237   8.284  10.926   5.487  2.2603  1.0139 -1.7131
 3703SOL     OW16238   4.255  11.103  10.618 -0.7020  0.1186  0.1158
 3703SOL    HW116239   4.176  11.151  10.641 -1.2175  0.6509 -2.6424
 3703SOL    HW216240   4.326  11.157  10.652 -1.4333  0.3816  1.2860
 3704SOL     OW16241   1.224   9.742   3.584  0.3259  0.1321 -0.5721
 3704SOL    HW116242   1.294   9.791   3.627 -0.3549  0.2803  0.4027
 3704SOL    HW216243   1.144   9.787   3.612 -0.2932 -1.3456  0.0971
 3705SOL     OW16244   2.393   1.085   5.866 -0.3823  0.0189  0.3459
 3705SOL    HW116245   2.481   1.049   5.879 -0.5640 -0.1038  1.2802
 3705SOL    HW216246   2.349   1.021   5.810  0.5042  0.6776 -1.0961
 3706SOL     OW16247  10.402   5.836   8.349 -0.2999 -0.5113  0.3642
 3706SOL    HW116248  10.328   5.800   8.300  0.6626 -3.0332  0.6541
 3706SOL    HW216249  10.380   5.928   8.363 -2.0774 -0.5335 -1.9836
 3707SOL     OW16250   8.670   4.487   8.373 -0.3083 -0.2887  0.2476
 3707SOL    HW116251   8.622   4.542   8.435  0.3971  1.7094 -0.9528
 3707SOL    HW216252   8.735   4.545   8.334  0.1960 -1.8808 -1.3401
 3708SOL     OW16253   7.452  10.471   0.982  0.3801 -0.1911 -0.1475
 3708SOL    HW116254   7.382  10.528   1.012  0.6243  0.2158 -0.3477
 3708SOL    HW216255   7.429  10.450   0.892  0.5338 -0.0315 -0.2235
 3709SOL     OW16256  10.766   9.844   0.845  0.0764 -0.1464 -0.1300
 3709SOL    HW116257  10.792   9.755   0.868  0.8035  0.0511 -0.1857
 3709SOL    HW216258  10.707   9.871   0.915  0.5242 -0.3621  0.3288
 3710SOL     OW16259   2.836  10.371   3.225  0.5668 -0.0398  0.4995
 3710SOL    HW116260   2.920  10.408   3.250  1.1739 -2.1572  1.7357
 3710SOL    HW216261   2.771  10.419   3.277  1.4257 -1.3304  2.8417
 3711SOL     OW16262   0.170   4.959   3.516 -0.4800  0.6210  0.0051
 3711SOL    HW116263   0.100   4.924   3.462  1.6229 -0.1690 -2.3068
 3711SOL    HW216264   0.197   5.039   3.472  0.5084  0.5695  0.4876
 3712SOL     OW16265   9.778   5.822   4.454 -0.5994  0.1913  0.0198
 3712SOL    HW116266   9.729   5.742   4.438 -0.0874  0.6605 -4.3501
 3712SOL    HW216267   9.719   5.892   4.427  0.6357  1.0313 -0.5340
 3713SOL     OW16268   5.317  11.260   1.187  0.3947 -0.7645 -0.3021
 3713SOL    HW116269   5.391  11.293   1.239  0.1453  0.5625 -0.7542
 3713SOL    HW216270   5.325  11.165   1.191  2.5898 -0.6573 -0.9767
 3714SOL     OW16271  10.569  11.008   9.749 -0.0833 -0.0116 -0.1447
 3714SOL    HW116272  10.648  11.028   9.799 -0.1775 -0.1473  0.0586
 3714SOL    HW216273  10.586  10.921   9.711 -0.2692 -0.1835  0.1682
 3715SOL     OW16274   1.204   7.454   7.396 -0.3295 -0.0693 -0.2467
 3715SOL    HW116275   1.294   7.474   7.422 -0.5724 -1.0692  1.4980
 3715SOL    HW216276   1.151   7.523   7.435 -0.4387 -0.1935 -0.1713
 3716SOL     OW16277   6.580   9.689   4.796  0.3937 -0.5059 -0.5073
 3716SOL    HW116278   6.556   9.777   4.765  0.4338 -0.3612 -0.1326
 3716SOL    HW216279   6.624   9.704   4.879  2.1553 -0.7482 -1.3788
 3717SOL     OW16280   5.245   3.320   9.123 -0.1429  0.1384  0.2525
 3717SOL    HW116281   5.178   3.252   9.133  0.0354 -0.0461  0.2127
 3717SOL    HW216282   5.286   3.301   9.039 -1.6535  1.7018 -0.8450
 3718SOL     OW16283   3.731   4.416   2.602  0.1590  0.0958 -0.1639
 3718SOL    HW116284   3.661   4.476   2.576 -0.8168 -0.8475  0.2810
 3718SOL    HW216285   3.805   4.474   2.621 -0.3731  1.0775 -1.0013
 3719SOL     OW16286   0.895   3.790   2.519  0.2472  0.6430  0.0909
 3719SOL    HW116287   0.820   3.805   2.576 -0.2328 -1.6711  0.0898
 3719SOL    HW216288   0.869   3.826   2.434 -0.1250  1.5383  0.5846
 3720SOL     OW16289   4.762   2.477   4.800 -0.0151 -0.4273 -0.4044
 3720SOL    HW116290   4.781   2.566   4.770 -1.7582  0.1090  0.0671
 3720SOL    HW216291   4.684   2.485   4.854  0.6075 -2.0452  0.7794
 3721SOL     OW16292   8.918   2.116   6.798 -0.1085 -0.0713 -0.1220
 3721SOL    HW116293   8.961   2.049   6.745  1.4373 -0.0070  1.0133
 3721SOL    HW216294   8.981   2.188   6.802 -1.1558  0.8570 -0.1109
 3722SOL     OW16295   0.534  10.845   2.508  0.4594  0.5888 -0.0143
 3722SOL    HW116296   0.441  10.821   2.508  0.6231 -0.0589 -0.1388
 3722SOL    HW216297   0.554  10.861   2.600  0.2374  0.6611  0.0218
 3723SOL     OW16298   7.535   9.776   8.986 -0.2626 -0.2995 -0.0551
 3723SOL    HW116299   7.537   9.858   8.936  0.7245  0.0202  0.4911
 3723SOL    HW216300   7.579   9.712   8.929  0.3592 -0.0700  0.1620
 3724SOL     OW16301   8.342  10.755   4.667 -0.2727  0.4456 -0.3178
 3724SOL    HW116302   8.325  10.809   4.589 -0.7965  1.2250  0.3402
 3724SOL    HW216303   8.431  10.780   4.693 -0.3659  0.7069 -0.2453
 3725SOL     OW16304   1.930   3.333   4.998 -0.7287  0.1325 -0.0531
 3725SOL    HW116305   1.920   3.347   4.904 -0.7328  0.3784 -0.0172
 3725SOL    HW216306   1.989   3.259   5.006  0.3102  0.9347 -0.2355
 3726SOL     OW16307   3.865   5.215   7.677  0.0829 -0.5104 -0.0178
 3726SOL    HW116308   3.824   5.235   7.761 -0.6752 -0.3335 -0.4277
 3726SOL    HW216309   3.919   5.138   7.694  0.6695  0.0928  0.8548
 3727SOL     OW16310   0.554   0.975   9.815  0.0739  0.1162  0.4780
 3727SOL    HW116311   0.633   1.026   9.798  0.0796  0.1709  0.6700
 3727SOL    HW216312   0.500   0.987   9.736  1.4489 -2.1380 -0.8754
 3728SOL     OW16313   9.623   6.991   6.105  0.3377  0.5427  0.4193
 3728SOL    HW116314   9.529   6.984   6.123  0.4430 -2.2299  0.0737
 3728SOL    HW216315   9.665   6.979   6.191  0.4385  0.6089  0.3802
 3729SOL     OW16316   7.967   5.370   5.089  0.1237 -0.0929 -0.5763
 3729SOL    HW116317   7.881   5.411   5.102  0.1051  0.0957 -1.2587
 3729SOL    HW216318   7.991   5.337   5.176  0.0333  1.1462 -0.0717
 3730SOL     OW16319   3.539   7.895   5.841 -0.1691  0.3578 -0.4101
 3730SOL    HW116320   3.484   7.851   5.906 -0.6014  0.1888 -0.8829
 3730SOL    HW216321   3.517   7.988   5.849  1.3442  0.5950  1.1529
 3731SOL     OW16322   2.842   3.698   2.007  0.2877  0.1387 -0.6191
 3731SOL    HW116323   2.826   3.691   1.913 -1.0763  1.0761 -0.4789
 3731SOL    HW216324   2.883   3.783   2.019 -2.3033  1.3582 -0.0589
 3732SOL     OW16325   7.240   1.831   0.889  0.5788 -0.2476 -0.2041
 3732SOL    HW116326   7.197   1.911   0.920  1.6053  1.1967 -2.4114
 3732SOL    HW216327   7.205   1.762   0.946 -0.2546  1.7611  1.7937
 3733SOL     OW16328   0.083   0.272  10.511 -0.1515  0.0202  0.6185
 3733SOL    HW116329   0.073   0.363  10.480 -1.2384 -0.4130 -0.3584
 3733SOL    HW216330   0.001   0.254  10.557  0.0623 -0.4736  0.8052
 3734SOL     OW16331   1.360   1.901  10.291  0.1451  0.0415  0.0506
 3734SOL    HW116332   1.331   1.827  10.345 -1.4566  1.2420  0.8777
 3734SOL    HW216333   1.346   1.872  10.201 -0.4215 -0.6848  0.3691
 3735SOL     OW16334   0.490  11.060   9.188  0.1023 -0.0364 -0.0297
 3735SOL    HW116335   0.398  11.086   9.202  0.9765  2.4565  1.3941
 3735SOL    HW216336   0.512  11.007   9.265 -0.0195 -0.2530 -0.1448
 3736SOL     OW16337   1.521   2.472   6.063 -0.0105  0.0577  0.2037
 3736SOL    HW116338   1.431   2.438   6.060  0.0832 -0.1116 -0.6310
 3736SOL    HW216339   1.553   2.445   6.149 -0.0633 -1.6560 -0.2895
 3737SOL     OW16340  10.984  11.289   0.265 -0.9591  0.5325 -0.0398
 3737SOL    HW116341  11.015  11.254   0.182 -0.7986  1.2426 -0.2796
 3737SOL    HW216342  10.888  11.288   0.257 -0.9508  0.3542 -0.1256
 3738SOL     OW16343   8.709   9.496   4.521 -0.4392 -0.3944  0.0389
 3738SOL    HW116344   8.765   9.421   4.502 -0.7555 -0.4328 -0.7524
 3738SOL    HW216345   8.620   9.466   4.500 -0.9318 -0.7590  2.4915
 3739SOL     OW16346   2.574   0.634   2.704  0.1419 -0.0853  0.0276
 3739SOL    HW116347   2.622   0.618   2.785  0.3889 -0.3934 -0.1784
 3739SOL    HW216348   2.627   0.698   2.656 -0.2004  0.3906  0.2817
 3740SOL     OW16349  11.235   6.202   2.887  0.1427  0.0712  0.0229
 3740SOL    HW116350  11.194   6.287   2.903  0.8764  0.4690 -0.2130
 3740SOL    HW216351  11.201   6.174   2.802 -2.0841 -1.0570  1.2189
 3741SOL     OW16352   0.297   3.225   3.338 -0.8558 -0.3180  0.4460
 3741SOL    HW116353   0.244   3.146   3.321 -2.5760  0.6626  1.1826
 3741SOL    HW216354   0.254   3.293   3.286 -0.7805  0.6740  1.6902
 3742SOL     OW16355   2.069   8.794   0.445  0.5696 -0.3574  0.8117
 3742SOL    HW116356   2.038   8.709   0.414  0.7458 -0.3474  0.6056
 3742SOL    HW216357   2.163   8.793   0.425  0.4764  0.0865  0.3447
 3743SOL     OW16358  11.121   9.655   2.666 -0.1093  0.3036  0.1142
 3743SOL    HW116359  11.051   9.606   2.624  0.4060 -0.1177 -0.2496
 3743SOL    HW216360  11.135   9.731   2.610 -1.6015  1.4143  1.2086
 3744SOL     OW16361   8.905   2.251  10.821  0.0435 -0.2141  0.3091
 3744SOL    HW116362   8.876   2.166  10.854 -0.0130  0.3515  1.7702
 3744SOL    HW216363   8.829   2.286  10.775  0.4086 -1.4148 -1.2427
 3745SOL     OW16364   0.230   0.476   6.350 -0.7172 -0.1475 -0.0708
 3745SOL    HW116365   0.184   0.507   6.429 -0.7829  0.5882 -0.3975
 3745SOL    HW216366   0.167   0.418   6.308 -0.9918  0.1054 -0.0138
 3746SOL     OW16367   3.037   2.592   7.512  0.3405 -0.1950  0.3863
 3746SOL    HW116368   2.975   2.610   7.583 -1.2324  0.0541 -1.0212
 3746SOL    HW216369   3.096   2.668   7.512 -0.8115  0.7170  0.2189
 3747SOL     OW16370   9.743   1.456   3.822  0.7197 -0.1051 -0.0538
 3747SOL    HW116371   9.770   1.520   3.756 -0.0700 -0.3659 -0.6405
 3747SOL    HW216372   9.789   1.376   3.799 -0.2471 -0.4439 -0.8254
 3748SOL     OW16373   6.474   5.643   6.864  0.2541 -0.7202  0.1920
 3748SOL    HW116374   6.429   5.564   6.835  0.6508 -0.0863 -2.2589
 3748SOL    HW216375   6.446   5.711   6.802  1.4735  0.5823  1.0398
 3749SOL     OW16376   4.201   6.698   8.052 -0.5896 -0.2120  0.2076
 3749SOL    HW116377   4.180   6.606   8.038 -2.3709 -0.2217  2.5232
 3749SOL    HW216378   4.294   6.706   8.031 -0.4050 -2.5482  0.0554
 3750SOL     OW16379   0.184   9.579   9.409 -0.4977 -0.4054  0.2228
 3750SOL    HW116380   0.141   9.493   9.412  0.1603 -0.6995  1.2692
 3750SOL    HW216381   0.256   9.567   9.348 -1.2731 -0.1869 -0.7598
 3751SOL     OW16382   0.764   3.109   1.383 -0.6772 -0.0218 -0.4042
 3751SOL    HW116383   0.704   3.037   1.402  0.6031 -1.6531 -2.3137
 3751SOL    HW216384   0.850   3.067   1.376  0.6735  2.2081  1.9074
 3752SOL     OW16385   0.385   5.415   4.552  0.5822  0.3641 -0.2306
 3752SOL    HW116386   0.440   5.390   4.478  0.0335  3.1694 -1.6317
 3752SOL    HW216387   0.298   5.382   4.530  0.5762  0.5437 -0.4731
 3753SOL     OW16388   7.949   0.319   7.911  0.2718  0.6292 -0.4752
 3753SOL    HW116389   7.874   0.352   7.961 -0.9708 -0.4116 -1.6091
 3753SOL    HW216390   7.965   0.387   7.846  0.6900  1.1215  0.1367
 3754SOL     OW16391   5.831   0.684  11.280  0.3600 -0.0798 -0.1230
 3754SOL    HW116392   5.892   0.754  11.256 -0.5686  0.9208  0.4068
 3754SOL    HW216393   5.862   0.653  11.364 -0.1204  0.7515  0.3714
 3755SOL     OW16394   1.135   8.290   7.085  0.0644 -0.1737  0.1634
 3755SOL    HW116395   1.156   8.221   7.148 -1.3249 -0.0885  0.7481
 3755SOL    HW216396   1.128   8.369   7.138  0.7081  0.2426 -0.3701
 3756SOL     OW16397   0.821   4.815   9.157  0.2863  0.6558 -0.5126
 3756SOL    HW116398   0.915   4.796   9.159  0.3698  1.0896 -0.2466
 3756SOL    HW216399   0.803   4.856   9.242 -0.8972 -3.0525  1.1564
 3757SOL     OW16400   9.592   4.216   8.108 -0.7936  0.8046 -0.2109
 3757SOL    HW116401   9.575   4.305   8.139 -1.8447  0.2891  0.7431
 3757SOL    HW216402   9.536   4.161   8.163  1.5136 -0.6579  0.7287
 3758SOL     OW16403   6.946   5.882   3.028 -0.0580 -0.1025  0.2100
 3758SOL    HW116404   7.018   5.943   3.046 -1.4519  1.6481 -0.0060
 3758SOL    HW216405   6.904   5.869   3.113 -0.4417  0.1220  0.0555
 3759SOL     OW16406   9.047   8.877   2.163  0.2445  0.3958  0.2488
 3759SOL    HW116407   9.042   8.782   2.159  2.8775  0.2102  0.7042
 3759SOL    HW216408   9.088   8.902   2.080 -0.2111  1.1204  0.2377
 3760SOL     OW16409   1.796   9.076   0.044 -0.2517 -0.2910 -0.2908
 3760SOL    HW116410   1.890   9.063   0.058  0.0820  0.8035 -1.4159
 3760SOL    HW216411   1.778   9.163   0.080 -0.6573 -0.1323 -0.8670
 3761SOL     OW16412   1.256   9.164  10.905  0.0152 -0.2728 -0.8715
 3761SOL    HW116413   1.184   9.172  10.842  0.0111 -0.5518 -0.9031
 3761SOL    HW216414   1.220   9.109  10.975  0.6355 -1.5697 -1.5425
 3762SOL     OW16415   6.406  10.336   0.281 -0.1760 -0.1201  0.2768
 3762SOL    HW116416   6.328  10.365   0.234 -0.1709 -0.1386  0.2560
 3762SOL    HW216417   6.446  10.271   0.223 -0.9601 -1.2392  0.9480
 3763SOL     OW16418   7.192   9.341  10.237  0.1447 -0.5054  0.0555
 3763SOL    HW116419   7.222   9.414  10.293 -1.2204  0.2700 -0.2114
 3763SOL    HW216420   7.127   9.296  10.290 -0.6281 -0.2013 -0.6265
 3764SOL     OW16421  10.581  10.250   3.475  0.2238  0.1844 -0.0684
 3764SOL    HW116422  10.529  10.329   3.493  2.0638  1.2979  0.4575
 3764SOL    HW216423  10.606  10.260   3.383 -0.0802 -0.1201 -0.1858
 3765SOL     OW16424   0.472   1.638   7.967 -0.2468 -0.0766  0.0651
 3765SOL    HW116425   0.565   1.616   7.974 -0.3281 -0.9902 -1.5113
 3765SOL    HW216426   0.456   1.700   8.039  1.5538  0.0367  0.3798
 3766SOL     OW16427   1.001   1.570   2.515  0.6247  0.0428  0.4726
 3766SOL    HW116428   0.933   1.503   2.511  1.2173 -0.5579  0.4771
 3766SOL    HW216429   0.986   1.615   2.599  0.4665 -0.3223  0.6388
 3767SOL     OW16430   3.596   3.875   4.476  0.0767 -0.6146  0.2685
 3767SOL    HW116431   3.544   3.810   4.524  1.4046  0.3368  3.1069
 3767SOL    HW216432   3.686   3.844   4.485  0.5292  0.6207  0.0596
 3768SOL     OW16433  11.267   6.500   4.657 -0.6021 -0.6494  0.5650
 3768SOL    HW116434  11.219   6.453   4.589  2.4341 -1.4129 -1.1028
 3768SOL    HW216435  11.204   6.565   4.688 -2.9751 -2.0615 -1.0200
 3769SOL     OW16436  10.147   6.898   8.005  0.3132 -0.0287  0.9124
 3769SOL    HW116437  10.127   6.943   8.086  2.3932  3.9081 -0.6127
 3769SOL    HW216438  10.079   6.926   7.944 -0.0304 -1.2814  0.7112
 3770SOL     OW16439   3.920   1.055   9.919 -0.3507 -0.1595  0.3777
 3770SOL    HW116440   3.880   1.071  10.004  0.7952 -1.2707  1.1389
 3770SOL    HW216441   3.935   0.961   9.916  0.0298 -0.0719 -0.8615
 3771SOL     OW16442   5.470   7.836   1.012  0.0560 -0.2316  0.4555
 3771SOL    HW116443   5.410   7.766   1.034 -0.5505  0.6782  1.7258
 3771SOL    HW216444   5.495   7.875   1.096  2.4844 -0.6511 -0.0303
 3772SOL     OW16445   1.468   5.229   5.031 -0.2225  0.3730  0.0469
 3772SOL    HW116446   1.464   5.138   5.061  0.8946  0.6238  0.9842
 3772SOL    HW216447   1.406   5.275   5.087 -2.3910 -0.1863 -1.8550
 3773SOL     OW16448   3.828   7.733   0.209 -0.2108 -0.3572  0.1936
 3773SOL    HW116449   3.901   7.717   0.268 -1.2958  0.7256  1.8552
 3773SOL    HW216450   3.837   7.824   0.184 -0.8684 -0.2838  0.2260
 3774SOL     OW16451  10.171   6.941  10.323  0.4538  0.2031  0.1536
 3774SOL    HW116452  10.136   6.932  10.234 -1.8630  0.0770  1.0382
 3774SOL    HW216453  10.098   6.918  10.380  1.8796  0.3805  2.1121
 3775SOL     OW16454   7.495   5.919   7.045  0.6268 -0.3833  0.2105
 3775SOL    HW116455   7.434   5.850   7.019  0.3760 -0.0466 -0.1078
 3775SOL    HW216456   7.468   5.995   6.994  0.4933  0.1323  1.0468
 3776SOL     OW16457  10.625   0.663   0.497 -0.4509 -0.4607 -0.1391
 3776SOL    HW116458  10.665   0.578   0.513  0.2068 -0.4235 -1.4733
 3776SOL    HW216459  10.619   0.704   0.583 -0.3271 -1.6560  0.4458
 3777SOL     OW16460   9.160   2.166  10.127  0.3536  0.0342  0.9590
 3777SOL    HW116461   9.098   2.125  10.187 -0.1703 -0.7362 -0.0986
 3777SOL    HW216462   9.106   2.197  10.054  0.9569  1.1464  0.9791
 3778SOL     OW16463   1.129   6.393   8.137 -0.1627 -0.4159  0.0124
 3778SOL    HW116464   1.150   6.481   8.105 -0.9810  0.0484  0.7345
 3778SOL    HW216465   1.209   6.364   8.180  0.7243 -0.7733 -1.8273
 3779SOL     OW16466   2.331  11.193   2.205  0.0959 -0.2875 -0.0878
 3779SOL    HW116467   2.423  11.215   2.223  0.4687  0.3358 -2.5186
 3779SOL    HW216468   2.317  11.110   2.249  1.5372  0.0810  1.1295
 3780SOL     OW16469   9.066   9.997   3.253  0.1705 -0.1619  0.0959
 3780SOL    HW116470   9.043  10.062   3.319 -0.5059 -0.4430  0.1431
 3780SOL    HW216471   9.070   9.915   3.301 -0.7968 -0.4406 -0.2948
 3781SOL     OW16472   4.581   1.544   4.219 -0.8409  0.1848  0.1080
 3781SOL    HW116473   4.651   1.596   4.259 -1.2413  1.4765 -0.8501
 3781SOL    HW216474   4.530   1.607   4.169 -0.8916 -1.2613 -1.6944
 3782SOL     OW16475   6.336   8.041  10.142 -0.8772  0.2328 -0.1886
 3782SOL    HW116476   6.268   8.015  10.204 -0.7172  0.9255  0.2771
 3782SOL    HW216477   6.348   7.964  10.086 -2.9703  0.5254 -1.1152
 3783SOL     OW16478   9.201   9.798   3.812  0.3317  0.1235  0.3709
 3783SOL    HW116479   9.216   9.738   3.885  0.1660  0.9130  1.0660
 3783SOL    HW216480   9.121   9.844   3.835  0.3848  0.5111 -0.2171
 3784SOL     OW16481  10.214   7.715   7.345 -0.0645  0.5175  0.4045
 3784SOL    HW116482  10.118   7.715   7.340 -0.0312  0.8922 -0.4574
 3784SOL    HW216483  10.234   7.763   7.426 -0.6283 -1.4561  1.7471
 3785SOL     OW16484   9.182   3.907   5.287 -0.5619  0.0902 -0.3651
 3785SOL    HW116485   9.180   3.998   5.316 -0.9137 -0.2611  0.7494
 3785SOL    HW216486   9.131   3.907   5.206 -0.3128  0.9391 -0.5294
 3786SOL     OW16487   0.571   1.247  11.113 -0.3340  0.6074 -0.2573
 3786SOL    HW116488   0.582   1.232  11.019  2.6391  0.1080  0.1189
 3786SOL    HW216489   0.539   1.164  11.147  0.3481  0.2133 -0.5726
 3787SOL     OW16490   7.606   2.453   4.954  0.2296 -0.8785  0.1766
 3787SOL    HW116491   7.654   2.466   4.873  1.5949  1.3174  1.3079
 3787SOL    HW216492   7.514   2.449   4.927  0.7403 -1.3138 -1.5749
 3788SOL     OW16493   1.364   1.252   0.228  0.1993  0.1874  0.3673
 3788SOL    HW116494   1.420   1.266   0.305 -1.8187  1.2177  1.7033
 3788SOL    HW216495   1.340   1.340   0.200 -1.2595 -0.2448  0.2189
 3789SOL     OW16496   2.118   5.183   9.610  0.2293  0.3284  0.0588
 3789SOL    HW116497   2.040   5.225   9.573 -0.7943 -0.8441  0.8454
 3789SOL    HW216498   2.190   5.219   9.560 -0.9625  0.1978 -1.8167
 3790SOL     OW16499   9.794   9.071   0.520  0.3914 -0.1093  0.2384
 3790SOL    HW116500   9.879   9.089   0.479  0.0930  1.4000  0.2566
 3790SOL    HW216501   9.755   9.158   0.533 -1.1291 -0.7937  0.2942
 3791SOL     OW16502   0.843   3.683   8.516 -0.4392 -0.0324  0.3673
 3791SOL    HW116503   0.751   3.699   8.497 -0.5774 -1.4203 -0.1441
 3791SOL    HW216504   0.863   3.744   8.588 -1.7210  0.3267  0.4346
 3792SOL     OW16505   4.925   0.038   2.531  0.3993 -0.3856  0.4784
 3792SOL    HW116506   4.931  -0.029   2.599  0.9398  0.6260  1.4435
 3792SOL    HW216507   4.894   0.116   2.577 -1.1559 -0.2242 -0.8140
 3793SOL     OW16508   1.293   2.374   0.899  0.1290  0.0909  0.2128
 3793SOL    HW116509   1.279   2.321   0.821  0.4865  0.0259  0.1919
 3793SOL    HW216510   1.209   2.371   0.945 -0.5675  1.3818 -0.9203
 3794SOL     OW16511   0.575   2.262   5.924  0.3830  0.5431 -0.0480
 3794SOL    HW116512   0.542   2.328   5.863 -1.0319 -1.3186 -1.3458
 3794SOL    HW216513   0.669   2.278   5.927  0.3599  1.2317 -2.0325
 3795SOL     OW16514   9.888   3.998   6.528 -0.1217 -0.3046  0.6262
 3795SOL    HW116515   9.798   3.967   6.533 -0.2250 -0.5171 -1.9136
 3795SOL    HW216516   9.887   4.064   6.458  2.2321 -2.4423 -1.5428
 3796SOL     OW16517   2.761  10.792   1.143 -0.2060 -0.0358  1.1533
 3796SOL    HW116518   2.667  10.792   1.124 -0.1819  0.8513  1.0471
 3796SOL    HW216519   2.797  10.863   1.091  0.8964 -1.7778 -0.5616
 3797SOL     OW16520   9.903   8.121   0.510 -0.6459 -0.6387 -0.9173
 3797SOL    HW116521   9.982   8.161   0.546 -0.2701 -2.0106 -0.2118
 3797SOL    HW216522   9.838   8.128   0.581 -0.7393 -0.8009 -0.9870
 3798SOL     OW16523   9.204   5.049   9.988  0.0771 -0.1446  0.2761
 3798SOL    HW116524   9.140   4.982   9.962  1.4142 -0.7016 -1.6078
 3798SOL    HW216525   9.275   4.999  10.028  0.6164  0.2501 -0.1966
 3799SOL     OW16526   1.552   4.968   9.685  0.0548 -0.1520 -0.4823
 3799SOL    HW116527   1.507   5.046   9.719  1.8491  0.4884  0.4798
 3799SOL    HW216528   1.645   4.989   9.692  0.5328 -1.8907 -1.4188
 3800SOL     OW16529   7.723  11.185   5.051 -0.6348  0.4332  0.2632
 3800SOL    HW116530   7.747  11.119   4.986  0.7666  2.2323 -1.0816
 3800SOL    HW216531   7.628  11.190   5.045 -0.5587  0.2428 -1.3120
 3801SOL     OW16532   2.066   3.779   7.743  0.1796  0.6350 -0.3510
 3801SOL    HW116533   2.125   3.707   7.767  0.3599  0.3638 -1.5933
 3801SOL    HW216534   1.998   3.778   7.811 -1.5256 -2.6790 -1.9795
 3802SOL     OW16535   8.120   1.785   1.973  0.0960 -0.8295 -0.0042
 3802SOL    HW116536   8.038   1.786   2.022 -0.3130 -0.4055 -0.7022
 3802SOL    HW216537   8.184   1.750   2.035 -0.5239 -0.7683  0.6727
 3803SOL     OW16538   3.628  10.510   9.019 -0.5535  0.2365 -0.1564
 3803SOL    HW116539   3.665  10.472   9.098  2.7635  1.8005 -0.8418
 3803SOL    HW216540   3.583  10.589   9.049 -1.9052 -0.7927  0.5206
 3804SOL     OW16541   7.763   1.473   1.647  0.0993  0.4607  0.0648
 3804SOL    HW116542   7.823   1.460   1.720 -1.0374 -1.2459  0.7147
 3804SOL    HW216543   7.740   1.384   1.618 -0.1217  1.1055 -1.8198
 3805SOL     OW16544   6.861   7.121   5.346 -0.3816  0.3482 -0.3669
 3805SOL    HW116545   6.839   7.205   5.386 -1.0321 -0.5709  1.2272
 3805SOL    HW216546   6.777   7.081   5.326 -0.0842 -0.2936 -0.3435
 3806SOL     OW16547   1.179  10.479   6.588  0.4199 -0.5677 -0.7195
 3806SOL    HW116548   1.230  10.520   6.518  0.4009 -2.3701 -1.8316
 3806SOL    HW216549   1.088  10.491   6.562  0.2886  1.5122  0.6113
 3807SOL     OW16550   7.305   0.171   3.480  0.0091  0.4821  0.2734
 3807SOL    HW116551   7.391   0.133   3.461  0.0464  0.4784  0.4515
 3807SOL    HW216552   7.311   0.261   3.447  0.2125  0.6030  0.6315
 3808SOL     OW16553   1.736   8.575   6.686 -0.0635  0.1284 -0.1261
 3808SOL    HW116554   1.664   8.513   6.696  0.3029 -0.6613 -2.0850
 3808SOL    HW216555   1.728   8.607   6.596  0.7213  1.7195  0.3438
 3809SOL     OW16556   1.250  10.717   1.809  0.3707 -0.0156 -0.0583
 3809SOL    HW116557   1.265  10.705   1.903  0.4137  1.2925  0.1176
 3809SOL    HW216558   1.206  10.802   1.803  1.6539  0.5721 -1.3206
 3810SOL     OW16559   1.125   8.868   6.235 -0.3167  0.0609 -0.7804
 3810SOL    HW116560   1.058   8.928   6.200  0.4607  0.6110 -1.3346
 3810SOL    HW216561   1.074   8.795   6.272 -1.1953 -0.1566 -2.3519
 3811SOL     OW16562   4.767   9.860   0.570 -0.1648  0.3412  0.5611
 3811SOL    HW116563   4.693   9.910   0.604 -0.8331 -0.7323  0.7135
 3811SOL    HW216564   4.734   9.770   0.561  0.8569  0.0218 -0.1918
 3812SOL     OW16565   8.018   7.929  10.060 -0.2797 -0.1466 -0.0745
 3812SOL    HW116566   8.067   7.855  10.097 -0.7555  0.1428  1.1559
 3812SOL    HW216567   8.059   8.006  10.100  0.2932  0.2765 -1.4438
 3813SOL     OW16568   4.290   3.623  10.307  0.2343 -0.7994  0.0608
 3813SOL    HW116569   4.340   3.561  10.361  0.6587 -1.4338 -1.0391
 3813SOL    HW216570   4.290   3.584  10.220 -0.7374  0.0479 -0.3293
 3814SOL     OW16571   9.242   9.314   3.891 -0.3291  0.4013  0.3105
 3814SOL    HW116572   9.199   9.326   3.806  1.2252 -0.2774 -0.5962
 3814SOL    HW216573   9.180   9.349   3.955 -1.7972  0.3215 -1.0484
 3815SOL     OW16574   9.096   6.792  10.559  0.4729  1.0409  0.5055
 3815SOL    HW116575   9.170   6.735  10.583 -0.2348  0.2546  0.8258
 3815SOL    HW216576   9.137   6.876  10.540  1.5132  0.4931  0.2404
 3816SOL     OW16577   1.841   5.413   0.093 -0.4382 -0.0669  0.4406
 3816SOL    HW116578   1.784   5.473   0.046 -0.5531  0.7662  1.6343
 3816SOL    HW216579   1.923   5.461   0.103  0.5341 -1.2917 -1.3568
 3817SOL     OW16580  10.727   1.790   0.622  0.7915  0.7945 -0.7607
 3817SOL    HW116581  10.723   1.780   0.717 -0.5274  1.8032 -0.6835
 3817SOL    HW216582  10.681   1.872   0.605 -0.9037 -0.4595 -2.4482
 3818SOL     OW16583   9.914   4.161   4.338  0.4475  0.6209 -0.5617
 3818SOL    HW116584   9.998   4.127   4.370 -0.3869 -1.0073  0.0131
 3818SOL    HW216585   9.855   4.085   4.343 -1.3820  2.0621  0.2980
 3819SOL     OW16586   1.865   6.262   1.253 -0.0493  0.5867 -0.3655
 3819SOL    HW116587   1.877   6.274   1.347 -0.0130 -0.7494 -0.1875
 3819SOL    HW216588   1.903   6.176   1.235 -3.9067 -1.1463 -0.8189
 3820SOL     OW16589  10.595   8.525   6.448 -0.0362 -0.7100  0.1814
 3820SOL    HW116590  10.618   8.572   6.529  0.2528 -0.8215  0.1654
 3820SOL    HW216591  10.680   8.509   6.406 -0.3577  1.9686 -1.6147
 3821SOL     OW16592   3.870   9.396  10.510  0.7271 -0.2486 -0.6034
 3821SOL    HW116593   3.935   9.466  10.507 -0.3950  0.8005 -0.6061
 3821SOL    HW216594   3.799   9.426  10.454  0.7077 -1.8897 -1.4995
 3822SOL     OW16595   5.210   1.644   8.985  0.0120  0.3976  0.5165
 3822SOL    HW116596   5.258   1.615   9.063  1.1967 -1.3744 -0.8319
 3822SOL    HW216597   5.220   1.739   8.985  3.2528  0.1146  0.4835
 3823SOL     OW16598   1.380   8.216   1.493 -0.3566  0.5228  0.2742
 3823SOL    HW116599   1.343   8.282   1.434  1.5794  2.2754  0.9420
 3823SOL    HW216600   1.467   8.249   1.515 -0.5842 -0.6081  3.2447
 3824SOL     OW16601  10.139   6.978   2.768  0.4835  0.6559 -0.4013
 3824SOL    HW116602  10.119   6.954   2.858 -0.1310  1.1394 -0.4066
 3824SOL    HW216603  10.121   6.899   2.717 -0.4656  0.7705 -0.2688
 3825SOL     OW16604   9.499   8.163   1.599 -0.4618  0.0043 -0.2238
 3825SOL    HW116605   9.539   8.198   1.679  0.7848 -2.3790  0.2221
 3825SOL    HW216606   9.462   8.240   1.556 -0.6968  1.4056  2.3823
 3826SOL     OW16607  10.666  10.531   5.347  0.2400 -0.3538 -0.0438
 3826SOL    HW116608  10.590  10.534   5.289 -0.2252  1.2501  0.6186
 3826SOL    HW216609  10.629  10.531   5.435  0.9885 -0.6877  0.2742
 3827SOL     OW16610   9.167   8.615   4.015  0.1606 -0.3594  0.3316
 3827SOL    HW116611   9.115   8.656   3.946  0.1374 -0.6815  0.1520
 3827SOL    HW216612   9.115   8.625   4.094 -0.2941 -0.9028  0.1058
 3828SOL     OW16613   5.064  11.271  11.290 -0.5864  0.6937  0.6292
 3828SOL    HW116614   4.969  11.279  11.288 -0.6079  0.2343 -0.5032
 3828SOL    HW216615   5.088  11.290  11.381 -1.7139  1.2378  0.8172
 3829SOL     OW16616   9.831   0.481   4.631  0.4223 -0.1323  0.4642
 3829SOL    HW116617   9.871   0.395   4.649  1.0719  0.0225 -0.1860
 3829SOL    HW216618   9.875   0.510   4.551 -0.4634  0.3966  0.1751
 3830SOL     OW16619   3.374   7.894   6.090  0.4560 -0.6912  0.3062
 3830SOL    HW116620   3.354   7.858   6.176 -2.7927  2.8306  1.1450
 3830SOL    HW216621   3.413   7.980   6.109  2.9256 -1.3275 -1.6983
 3831SOL     OW16622   6.981   0.813   5.264 -0.1408  0.1331  0.1776
 3831SOL    HW116623   6.896   0.796   5.224 -0.3001  0.5754  0.3247
 3831SOL    HW216624   7.004   0.902   5.236  0.6944 -0.3172 -0.5985
 3832SOL     OW16625   7.137  10.640   2.725  0.0315 -0.7109 -0.5762
 3832SOL    HW116626   7.181  10.668   2.645 -0.0142 -0.3497 -0.4735
 3832SOL    HW216627   7.208  10.628   2.788  0.0738 -1.0575 -0.6903
 3833SOL     OW16628   5.787  10.955   5.436  0.0711  0.4714  0.4270
 3833SOL    HW116629   5.763  10.970   5.344  1.4901 -1.6226 -0.3180
 3833SOL    HW216630   5.728  10.886   5.465 -0.5950  1.3578  1.2186
 3834SOL     OW16631   5.130   7.313   3.863 -0.1028  0.0796  0.8001
 3834SOL    HW116632   5.051   7.340   3.909 -1.9809 -1.9439 -1.0916
 3834SOL    HW216633   5.150   7.226   3.898 -0.7804 -0.9066 -1.1998
 3835SOL     OW16634   7.658   0.002   2.278 -0.3845 -0.1452 -0.1129
 3835SOL    HW116635   7.570   0.034   2.300 -0.6913 -1.0104 -0.0310
 3835SOL    HW216636   7.688  -0.043   2.357  0.4279  0.7597  0.0958
 3836SOL     OW16637   4.777   2.947   5.802 -0.3381 -0.0057 -0.5781
 3836SOL    HW116638   4.873   2.950   5.805 -0.4081  0.5739  2.2006
 3836SOL    HW216639   4.755   2.866   5.848 -1.1898 -0.1270 -1.1954
 3837SOL     OW16640   6.650   0.338   8.432 -0.2301 -0.0590  0.2704
 3837SOL    HW116641   6.606   0.383   8.504  1.6177  0.2672  1.2329
 3837SOL    HW216642   6.739   0.324   8.464  0.2161 -1.1839 -1.4187
 3838SOL     OW16643   9.949   1.560   7.549 -0.2495 -0.3046  0.2090
 3838SOL    HW116644   9.932   1.470   7.579  0.1399 -0.6038 -0.4436
 3838SOL    HW216645   9.881   1.576   7.484 -0.2476 -0.1634  0.2432
 3839SOL     OW16646   8.492   8.403   0.264 -0.2018  0.9998 -0.0990
 3839SOL    HW116647   8.497   8.418   0.170 -0.8090 -1.4739 -0.5619
 3839SOL    HW216648   8.580   8.423   0.296  1.0289 -1.3925 -1.7434
 3840SOL     OW16649   5.552   9.552   8.542 -0.2295 -0.0504  0.0965
 3840SOL    HW116650   5.546   9.646   8.523  0.2188 -0.4139 -1.9636
 3840SOL    HW216651   5.644   9.539   8.566 -0.0879 -0.1058 -0.4693
 3841SOL     OW16652   3.889   0.520   8.000  0.1435 -0.4939  0.2846
 3841SOL    HW116653   3.877   0.433   8.039  1.5556 -0.1356  1.5489
 3841SOL    HW216654   3.938   0.504   7.920 -0.3260 -0.9502  0.0875
 3842SOL     OW16655   2.436   1.670   3.240 -0.2551  0.1440 -0.1761
 3842SOL    HW116656   2.430   1.636   3.150 -1.1160 -0.9354  0.2767
 3842SOL    HW216657   2.376   1.614   3.290 -0.7965  1.6067  0.8202
 3843SOL     OW16658   3.218   9.271   3.983  0.1643  0.2689 -0.2442
 3843SOL    HW116659   3.224   9.231   4.070 -0.3843  0.2247 -0.2250
 3843SOL    HW216660   3.131   9.247   3.952  0.5984 -0.2365 -1.0669
 3844SOL     OW16661   5.741   3.463  10.292 -0.2707 -0.2120 -0.0767
 3844SOL    HW116662   5.773   3.436  10.378 -0.2981 -1.7757 -0.5408
 3844SOL    HW216663   5.736   3.559  10.297  0.9910 -0.1945  1.2143
 3845SOL     OW16664   8.248   1.837   1.444 -0.1103 -0.2274 -0.2704
 3845SOL    HW116665   8.215   1.788   1.520  1.3265 -1.5183 -0.4361
 3845SOL    HW216666   8.306   1.903   1.482 -0.9809  0.4500 -0.1230
 3846SOL     OW16667   2.632   5.908   2.797  0.2648  0.4782 -0.0070
 3846SOL    HW116668   2.537   5.912   2.807  0.4282  1.5638  1.1476
 3846SOL    HW216669   2.648   5.943   2.710 -0.3744  0.5033 -0.1190
 3847SOL     OW16670   2.150  11.178  10.610 -0.3353 -0.3669 -0.1064
 3847SOL    HW116671   2.177  11.193  10.700 -0.3452 -0.3056 -0.1128
 3847SOL    HW216672   2.091  11.251  10.590 -0.5873 -0.5565 -0.0550
 3848SOL     OW16673   6.302   8.615   3.079 -0.2768 -0.4514  0.0656
 3848SOL    HW116674   6.250   8.691   3.106  2.0892  2.3979 -2.9476
 3848SOL    HW216675   6.387   8.628   3.121  0.4010 -0.9718 -1.1092
 3849SOL     OW16676   6.771   2.054  10.771  0.3735 -0.2391  0.4710
 3849SOL    HW116677   6.730   2.138  10.751  0.3857 -0.2435  0.4272
 3849SOL    HW216678   6.824   2.034  10.694 -0.6857 -0.9300 -0.0861
 3850SOL     OW16679   1.469   7.523   6.402 -0.2591 -0.4195 -0.5446
 3850SOL    HW116680   1.444   7.440   6.362 -0.3338 -1.4836  1.6347
 3850SOL    HW216681   1.508   7.498   6.486 -3.0245  1.8877  1.5290
 3851SOL     OW16682   0.683  10.760   1.513  0.1974 -0.1723  0.3940
 3851SOL    HW116683   0.720  10.722   1.593  0.4239  1.0357  0.8672
 3851SOL    HW216684   0.597  10.792   1.539  0.0220 -0.3242  0.0026
 3852SOL     OW16685   3.442   1.555   9.148 -0.4679  0.2328 -0.1940
 3852SOL    HW116686   3.373   1.492   9.131 -2.3193  1.8938  0.9330
 3852SOL    HW216687   3.484   1.524   9.229 -1.0961  0.2214  0.1289
 3853SOL     OW16688  11.003  10.045   5.281 -0.0591  0.3480  0.3925
 3853SOL    HW116689  11.043  10.014   5.362  1.3674  0.7499 -0.1218
 3853SOL    HW216690  11.010  10.140   5.286 -1.1181  0.4310  0.3609
 3854SOL     OW16691   7.054   2.137   4.660 -0.1144  0.2407  0.5141
 3854SOL    HW116692   7.029   2.065   4.718  2.9142 -0.5385  0.8962
 3854SOL    HW216693   7.032   2.105   4.573  1.3819 -1.2332  0.6610
 3855SOL     OW16694   2.546   6.710   0.099  0.3284  0.2674  0.0246
 3855SOL    HW116695   2.456   6.685   0.083  0.0780  1.3925 -0.3818
 3855SOL    HW216696   2.558   6.791   0.049  1.5149  0.1967  0.1783
 3856SOL     OW16697   2.999   4.545   5.462 -0.2339  0.1693 -0.5122
 3856SOL    HW116698   2.999   4.466   5.517  0.3419 -0.3507 -1.2462
 3856SOL    HW216699   3.050   4.608   5.512  0.8422 -0.5133 -0.7117
 3857SOL     OW16700   4.175   2.571   0.185  0.1380  0.5238 -0.0940
 3857SOL    HW116701   4.174   2.484   0.224  0.0087  0.0337 -1.1536
 3857SOL    HW216702   4.153   2.555   0.093 -0.6035  1.7526 -0.1406
 3858SOL     OW16703   1.898   8.521   3.948 -0.1906  0.2052  0.7123
 3858SOL    HW116704   1.845   8.471   4.010 -1.6346 -1.3149 -1.6524
 3858SOL    HW216705   1.845   8.523   3.868  0.9145  3.4812  0.0055
 3859SOL     OW16706   5.703   4.927   1.368  0.7208  0.0978  0.0423
 3859SOL    HW116707   5.642   4.996   1.344  0.8131 -0.1110 -0.8096
 3859SOL    HW216708   5.656   4.845   1.352  0.3507 -0.0491  1.7386
 3860SOL     OW16709   8.278   0.043   9.404 -0.2348 -0.1740 -0.1493
 3860SOL    HW116710   8.204   0.026   9.462  0.2550 -1.5937  0.0832
 3860SOL    HW216711   8.264   0.132   9.372 -1.3223  0.0573  0.9481
 3861SOL     OW16712   4.051   4.060   8.137 -0.4608  0.2834  0.0892
 3861SOL    HW116713   3.958   4.079   8.127 -0.4842  0.3770  0.4791
 3861SOL    HW216714   4.056   3.964   8.138 -0.3623  0.2525 -1.6825
 3862SOL     OW16715   6.445  10.883   0.570 -0.4895 -0.3473  0.1956
 3862SOL    HW116716   6.376  10.947   0.587 -1.7693 -1.7859  0.5129
 3862SOL    HW216717   6.504  10.890   0.645 -0.3411  0.7982 -0.0168
 3863SOL     OW16718   9.427   2.148   3.357  0.3230 -0.3114 -0.3900
 3863SOL    HW116719   9.450   2.222   3.413  1.8077 -0.7398 -0.4137
 3863SOL    HW216720   9.500   2.141   3.295  0.9075 -2.6779  0.5062
 3864SOL     OW16721   7.602   2.213  11.147  0.3083  0.4759 -0.2104
 3864SOL    HW116722   7.522   2.182  11.104  0.4347 -0.5904  0.3169
 3864SOL    HW216723   7.579   2.219  11.239  0.0998  2.5744 -0.3769
 3865SOL     OW16724   3.681   4.926  10.801  0.3831  0.0393 -0.5042
 3865SOL    HW116725   3.775   4.906  10.797  0.1705 -1.2164  0.6059
 3865SOL    HW216726   3.639   4.852  10.757 -0.0803  0.7864 -1.3317
 3866SOL     OW16727   1.676   9.825   9.751  0.1409 -0.4532 -0.3591
 3866SOL    HW116728   1.741   9.773   9.705  1.1685 -1.7729  2.4759
 3866SOL    HW216729   1.707   9.915   9.744  0.9119 -0.7837 -1.1857
 3867SOL     OW16730   8.106   6.135   3.948  0.0034 -0.3730  0.1276
 3867SOL    HW116731   8.013   6.115   3.952  0.0121 -0.1776  1.6475
 3867SOL    HW216732   8.111   6.230   3.960  0.3807 -0.3378 -0.2831
 3868SOL     OW16733  10.196   9.736   6.542 -0.0545  0.2533  0.5739
 3868SOL    HW116734  10.281   9.760   6.505 -0.0162  0.0658  0.5389
 3868SOL    HW216735  10.217   9.683   6.619 -0.1351 -1.7470 -0.7376
 3869SOL     OW16736  10.860   2.048   3.873  0.3394  0.3320 -0.0474
 3869SOL    HW116737  10.902   2.131   3.895  0.7338  0.2653 -0.5408
 3869SOL    HW216738  10.932   1.990   3.850  0.0259  0.0082 -0.2133
 3870SOL     OW16739   4.431   0.303   9.788 -0.4046 -0.5778  0.2257
 3870SOL    HW116740   4.466   0.392   9.797  0.7850 -0.9878 -0.2600
 3870SOL    HW216741   4.505   0.246   9.809 -1.0906 -1.4577  0.2713
 3871SOL     OW16742   8.746   1.325   8.891  0.6761  0.8746  0.1079
 3871SOL    HW116743   8.655   1.352   8.892  0.4950  0.2596  2.2588
 3871SOL    HW216744   8.792   1.395   8.844 -0.9360  1.0038 -1.3148
 3872SOL     OW16745   8.608   7.200   4.328 -0.3541  0.8856 -0.1444
 3872SOL    HW116746   8.583   7.183   4.237 -1.4270 -1.6701  0.5762
 3872SOL    HW216747   8.703   7.211   4.325 -0.2237 -0.4238 -1.4298
 3873SOL     OW16748   5.860  11.050  10.922  0.0119  0.6805 -0.2086
 3873SOL    HW116749   5.955  11.060  10.916 -0.0418  0.8944 -0.7780
 3873SOL    HW216750   5.845  10.956  10.908  0.2420  0.3952  1.3786
 3874SOL     OW16751  10.845   2.503   0.146 -0.2997 -0.8184 -0.1089
 3874SOL    HW116752  10.917   2.562   0.167  0.1864 -1.8634  1.1989
 3874SOL    HW216753  10.788   2.506   0.222 -0.4615 -1.7264 -0.1840
 3875SOL     OW16754   0.240   9.578   7.371 -0.3941  0.3988  0.1850
 3875SOL    HW116755   0.276   9.572   7.282 -1.2512  0.1707 -0.1461
 3875SOL    HW216756   0.291   9.648   7.412 -0.5023  1.0294 -0.7344
 3876SOL     OW16757   6.338   7.679   1.534  0.6530 -0.0335 -0.4133
 3876SOL    HW116758   6.319   7.752   1.476  0.5372  0.6864  0.5297
 3876SOL    HW216759   6.305   7.706   1.619 -2.1995 -2.4355 -0.6876
 3877SOL     OW16760   9.929   3.965   9.474  0.7027  0.0017  0.1239
 3877SOL    HW116761   9.964   4.035   9.418 -1.5293  1.6655  0.7800
 3877SOL    HW216762   9.960   3.987   9.562  0.2660 -0.0302  0.2831
 3878SOL     OW16763   2.849  11.292   1.596 -0.0021 -0.2974 -0.3981
 3878SOL    HW116764   2.808  11.282   1.510 -1.7583 -0.5519  0.4563
 3878SOL    HW216765   2.862  11.386   1.606  0.5253 -0.2867 -1.0591
 3879SOL     OW16766   9.478   9.200   3.401 -0.1544  0.3114 -0.4392
 3879SOL    HW116767   9.412   9.170   3.464 -1.4054  1.3431 -1.2276
 3879SOL    HW216768   9.482   9.295   3.414  1.4726  0.2087 -0.1333
 3880SOL     OW16769   8.056  10.232   6.640 -0.1362 -0.3604  0.2321
 3880SOL    HW116770   8.119  10.221   6.570  0.8500 -1.7513  1.3005
 3880SOL    HW216771   8.026  10.144   6.660 -0.6606  0.0473  1.3215
 3881SOL     OW16772   0.322   4.843   0.009  0.5237 -0.5475  0.0823
 3881SOL    HW116773   0.353   4.917  -0.042 -0.0320  0.0836  0.6512
 3881SOL    HW216774   0.268   4.882   0.078 -0.5599 -1.5385 -0.1806
 3882SOL     OW16775   1.462   3.039  10.097 -0.4381  0.2773 -0.0494
 3882SOL    HW116776   1.402   3.051  10.023  1.8462 -1.1371 -2.1877
 3882SOL    HW216777   1.404   3.034  10.173 -3.1870 -2.3042 -2.1711
 3883SOL     OW16778   9.067   3.933   3.497  0.0151  0.2805  0.0958
 3883SOL    HW116779   9.148   3.907   3.540  0.5661  0.4570 -0.8241
 3883SOL    HW216780   9.092   3.948   3.405 -1.1098  0.0509 -0.2513
 3884SOL     OW16781   0.313   5.617   8.868  0.1148 -0.1310  0.1100
 3884SOL    HW116782   0.285   5.549   8.807  0.5263 -1.1271  1.0170
 3884SOL    HW216783   0.231   5.652   8.904 -0.0581 -1.1466  0.7097
 3885SOL     OW16784   2.354   7.295   3.192 -0.6191 -0.5811  0.3241
 3885SOL    HW116785   2.276   7.334   3.233 -1.3806 -1.7419  0.0013
 3885SOL    HW216786   2.357   7.206   3.226  0.1399 -0.7870 -0.2650
 3886SOL     OW16787   8.017   9.378   1.198 -0.5963 -0.1711 -0.1629
 3886SOL    HW116788   8.040   9.458   1.150  1.9395 -0.5520  0.3107
 3886SOL    HW216789   7.971   9.324   1.135 -0.9527  1.0186 -0.9449
 3887SOL     OW16790   7.713   0.151   1.031  0.0853  0.1680  0.0852
 3887SOL    HW116791   7.730   0.181   0.942  0.7212  0.2837  0.2414
 3887SOL    HW216792   7.652   0.079   1.021 -0.7939  0.9604 -0.3586
 3888SOL     OW16793   8.165   0.187   1.327  0.5833  0.0892  0.1794
 3888SOL    HW116794   8.159   0.281   1.312  0.1683 -0.0510 -0.5480
 3888SOL    HW216795   8.103   0.148   1.265 -0.4836 -0.5673  1.6375
 3889SOL     OW16796   8.113   4.688   1.674 -0.1684  0.1435 -0.4394
 3889SOL    HW116797   8.125   4.658   1.584 -0.4865 -0.6168 -0.2253
 3889SOL    HW216798   8.163   4.626   1.727  0.5534  0.9682 -0.1485
 3890SOL     OW16799   7.839   2.829   5.533 -0.0186 -0.0610  0.5689
 3890SOL    HW116800   7.802   2.917   5.524  0.3519  0.0175 -0.2828
 3890SOL    HW216801   7.773   2.772   5.492  0.2136 -0.0589  0.1862
 3891SOL     OW16802   8.098   5.650   3.825  0.3524 -0.2165  0.1825
 3891SOL    HW116803   8.158   5.675   3.896 -1.4335 -0.5507  1.8481
 3891SOL    HW216804   8.095   5.555   3.829 -0.9695 -0.1579  0.6965
 3892SOL     OW16805   1.382   4.226   8.661  0.1721  0.4775  0.2229
 3892SOL    HW116806   1.346   4.185   8.740 -1.5756  1.7069  0.0888
 3892SOL    HW216807   1.325   4.302   8.645  0.8939  0.6129 -1.8574
 3893SOL     OW16808   1.369   2.468   5.682  0.1261  0.3102 -0.5412
 3893SOL    HW116809   1.313   2.408   5.732 -1.0294  2.2972  0.6290
 3893SOL    HW216810   1.324   2.478   5.598 -0.0673  0.1358 -0.4604
 3894SOL     OW16811   7.578   5.677   8.649  0.3001  0.9018 -0.3409
 3894SOL    HW116812   7.643   5.716   8.706  0.1330  1.2850 -0.4154
 3894SOL    HW216813   7.624   5.660   8.567  0.3258  1.0898 -0.3633
 3895SOL     OW16814  11.091   5.949   1.845 -0.1350  0.4237  0.4460
 3895SOL    HW116815  11.147   5.902   1.907  0.7972  0.8834 -0.0314
 3895SOL    HW216816  11.021   5.887   1.825 -0.2832  0.1564  1.7147
 3896SOL     OW16817   0.613   1.892   7.402 -0.5288 -0.2579  0.3246
 3896SOL    HW116818   0.555   1.864   7.473 -0.8683 -2.2749 -0.6970
 3896SOL    HW216819   0.605   1.987   7.400 -2.9526 -0.4127  0.9335
 3897SOL     OW16820   6.458   9.885  10.367  0.1030  0.1736  0.0965
 3897SOL    HW116821   6.403   9.952  10.327 -1.9846 -0.8787  1.0769
 3897SOL    HW216822   6.510   9.850  10.295 -0.3576  1.3588 -0.8317
 3898SOL     OW16823   8.582   5.185   3.321  0.6815  0.1452 -0.0776
 3898SOL    HW116824   8.617   5.242   3.390  0.5200  0.9466 -0.6598
 3898SOL    HW216825   8.591   5.236   3.241 -0.4371 -0.2396 -0.4515
 3899SOL     OW16826   1.765   3.553   9.478 -0.0296  0.0375 -0.1934
 3899SOL    HW116827   1.769   3.610   9.555  0.7404  1.5598 -1.3406
 3899SOL    HW216828   1.855   3.552   9.444 -0.1190 -1.5487 -0.4309
 3900SOL     OW16829  10.650   6.903   9.735 -0.4190 -0.3227  0.3646
 3900SOL    HW116830  10.603   6.985   9.739  0.4179  0.4253 -3.3246
 3900SOL    HW216831  10.693   6.895   9.820 -0.3207  3.1613  0.6766
 3901SOL     OW16832   0.164  10.662   1.387 -0.1419  0.1651  0.2157
 3901SOL    HW116833   0.168  10.711   1.304  0.7421  1.8151  1.1942
 3901SOL    HW216834   0.074  10.629   1.391 -0.2763  0.3231 -1.2587
 3902SOL     OW16835  10.678   7.432  10.679  0.5806  0.0844 -0.0074
 3902SOL    HW116836  10.597   7.470  10.715  1.2548 -0.1350  1.7456
 3902SOL    HW216837  10.712   7.501  10.622  0.4146  1.1286  1.1217
 3903SOL     OW16838   3.367   9.009   2.433 -0.9146  0.0212  0.2072
 3903SOL    HW116839   3.296   9.014   2.496 -0.4043 -1.5867  0.9443
 3903SOL    HW216840   3.428   9.078   2.459 -2.2351  1.5084 -0.5209
 3904SOL     OW16841   8.131   1.967   8.498 -0.5928  0.3556 -0.2551
 3904SOL    HW116842   8.059   2.015   8.457 -1.1492 -1.2316 -1.1967
 3904SOL    HW216843   8.205   1.979   8.439 -0.3477  1.1857  0.2174
 3905SOL     OW16844   7.320  10.150   4.552  0.2188 -0.4537 -0.6694
 3905SOL    HW116845   7.329  10.108   4.637  1.7674  0.5325 -0.3160
 3905SOL    HW216846   7.403  10.133   4.508  0.5228  1.4053 -0.8778
 3906SOL     OW16847   5.842   6.630   3.719  0.2955  0.1055  0.3576
 3906SOL    HW116848   5.884   6.578   3.650 -1.1134  0.2947 -0.6823
 3906SOL    HW216849   5.804   6.565   3.778  0.2534 -0.0497  0.1589
 3907SOL     OW16850   3.621   8.960   1.775 -0.0814  0.4032  0.5135
 3907SOL    HW116851   3.613   9.023   1.847  0.9043  0.5801  0.4789
 3907SOL    HW216852   3.595   8.876   1.812 -0.4789  0.6622  0.8214
 3908SOL     OW16853   0.418   0.669   6.884 -0.0671  0.5720 -0.3270
 3908SOL    HW116854   0.488   0.657   6.820 -0.6824  0.8166 -1.0536
 3908SOL    HW216855   0.355   0.600   6.863 -1.2468  1.9316 -1.3132
 3909SOL     OW16856   4.411   4.736   3.619 -0.1002 -0.3596 -0.1654
 3909SOL    HW116857   4.472   4.765   3.688  0.0871 -2.5729  0.6649
 3909SOL    HW216858   4.383   4.816   3.576 -1.0611  1.1990  3.2040
 3910SOL     OW16859   4.530   8.124   4.434  0.4536  0.2380  0.4396
 3910SOL    HW116860   4.497   8.037   4.459 -0.8626  0.7734  0.6118
 3910SOL    HW216861   4.469   8.154   4.367  1.1714  0.8513  0.0488
 3911SOL     OW16862   5.798   6.284   2.418 -0.6528 -0.0194  0.4730
 3911SOL    HW116863   5.817   6.322   2.504 -0.9471 -1.1241  1.0292
 3911SOL    HW216864   5.764   6.197   2.437  1.8012 -1.3190 -0.8803
 3912SOL     OW16865   5.253   0.111   3.081 -0.2576 -0.3994 -0.2451
 3912SOL    HW116866   5.342   0.094   3.050 -0.0497  0.4049 -0.1274
 3912SOL    HW216867   5.204   0.032   3.061 -0.2260  0.2283 -2.9403
 3913SOL     OW16868   0.351   4.757   8.205 -0.5440  0.1941  0.0147
 3913SOL    HW116869   0.367   4.830   8.145 -0.7375  0.4814  0.3118
 3913SOL    HW216870   0.393   4.682   8.163 -1.6128  0.1561 -1.0141
 3914SOL     OW16871   7.483   3.877  11.097 -0.2580  0.1837  0.1865
 3914SOL    HW116872   7.412   3.812  11.098 -0.1943  0.1175  0.3988
 3914SOL    HW216873   7.450   3.946  11.040 -0.5758  0.2426  0.4334
 3915SOL     OW16874   3.638   3.916   8.458 -0.1735  0.6073 -0.0687
 3915SOL    HW116875   3.656   3.990   8.399  3.2886 -0.2894 -0.2853
 3915SOL    HW216876   3.547   3.926   8.483 -1.0063  2.4871 -3.5623
 3916SOL     OW16877   8.092   3.859   6.327  0.1885  0.1876 -0.6628
 3916SOL    HW116878   8.138   3.943   6.324  0.3132  0.1704  0.3641
 3916SOL    HW216879   8.161   3.795   6.346 -0.1727  0.1026  0.4163
 3917SOL     OW16880   1.737   8.751   7.987 -0.1812 -0.3645 -0.2081
 3917SOL    HW116881   1.728   8.656   7.977 -0.6558 -0.3779  0.3054
 3917SOL    HW216882   1.764   8.763   8.078  1.0677 -0.0747 -0.6119
 3918SOL     OW16883   0.934   5.822   8.542  0.4103 -0.4773  0.2883
 3918SOL    HW116884   0.870   5.875   8.589  0.0685 -0.9510  0.3528
 3918SOL    HW216885   0.999   5.886   8.511  0.4308 -0.1161  1.0570
 3919SOL     OW16886   2.916   8.624   2.897  0.7609  0.0354 -0.0967
 3919SOL    HW116887   2.908   8.669   2.813 -0.0264 -0.2975 -0.2106
 3919SOL    HW216888   2.859   8.674   2.956  0.0621 -0.6735 -0.1673
 3920SOL     OW16889  10.390   7.366   8.529  0.3737 -0.7252 -0.0771
 3920SOL    HW116890  10.467   7.325   8.490  0.4737  0.7668 -1.5099
 3920SOL    HW216891  10.349   7.413   8.457 -1.1436 -0.4118  0.9715
 3921SOL     OW16892   3.669   3.953   9.300 -0.6374 -0.3477 -0.7528
 3921SOL    HW116893   3.576   3.934   9.290 -0.6063 -0.1245 -1.4331
 3921SOL    HW216894   3.679   4.044   9.272 -0.6492  0.4920  1.7800
 3922SOL     OW16895   8.426   5.753   4.256 -1.0663  0.1572  0.1181
 3922SOL    HW116896   8.476   5.734   4.335  0.8102 -0.4551 -1.1745
 3922SOL    HW216897   8.382   5.837   4.275  0.9151  1.0127  1.0787
 3923SOL     OW16898  10.820  11.013   0.583 -0.2456 -0.3326 -0.4022
 3923SOL    HW116899  10.804  10.923   0.611  0.2851 -0.4900 -0.5931
 3923SOL    HW216900  10.768  11.023   0.503 -0.9523 -0.2058  0.0672
 3924SOL     OW16901   1.338   5.179   8.227  0.1770 -0.0299 -0.9772
 3924SOL    HW116902   1.310   5.090   8.202  1.1688 -0.2260 -1.3960
 3924SOL    HW216903   1.262   5.215   8.273  0.2379 -1.6041  0.4545
 3925SOL     OW16904   1.598   7.714  10.350  0.0804 -0.4483  0.3685
 3925SOL    HW116905   1.581   7.796  10.395 -0.5390 -1.0623  1.2852
 3925SOL    HW216906   1.691   7.717  10.327  0.0876  0.4398  0.5084
 3926SOL     OW16907   1.477   5.688   1.053 -0.0947 -0.4452 -0.0002
 3926SOL    HW116908   1.493   5.595   1.064  0.0666 -0.6955 -2.1123
 3926SOL    HW216909   1.563   5.729   1.068  0.5439 -0.9431 -2.1994
 3927SOL     OW16910   8.308   3.925   6.006 -0.1191 -0.0513 -0.2538
 3927SOL    HW116911   8.349   3.888   6.085  0.1836  0.6286 -0.0841
 3927SOL    HW216912   8.337   4.016   6.005 -0.8648  0.1813 -0.6629
 3928SOL     OW16913   3.306  11.080  11.031  0.3323  0.2723 -0.2989
 3928SOL    HW116914   3.380  11.026  11.057  0.5548  0.1208 -1.2662
 3928SOL    HW216915   3.327  11.167  11.066  1.0867  0.2924 -0.7918
 3929SOL     OW16916   1.184   4.554   9.127 -0.3755 -0.7027  0.1137
 3929SOL    HW116917   1.228   4.517   9.203 -0.1616 -0.2445  0.2174
 3929SOL    HW216918   1.114   4.492   9.107 -0.0148 -1.1616  0.2727
 3930SOL     OW16919   7.839   1.329   0.256 -0.6462  0.3929  0.1646
 3930SOL    HW116920   7.834   1.423   0.238  0.3644  0.5843  0.8074
 3930SOL    HW216921   7.910   1.297   0.201 -2.1182 -0.3357 -1.3394
 3931SOL     OW16922   8.665  10.129   0.526 -0.1868 -0.0651 -0.2718
 3931SOL    HW116923   8.680  10.165   0.438  0.7517 -0.4756 -0.2823
 3931SOL    HW216924   8.616  10.048   0.510  0.6798 -0.5528 -0.4723
 3932SOL     OW16925   4.394   4.417   7.154 -0.0285 -0.5494 -0.5948
 3932SOL    HW116926   4.447   4.496   7.158 -1.3688  0.4293 -1.5914
 3932SOL    HW216927   4.381   4.402   7.060 -1.9996 -0.4136 -0.3716
 3933SOL     OW16928   8.256   6.190   5.205 -0.5184 -0.6447 -0.1010
 3933SOL    HW116929   8.318   6.254   5.171 -0.6797  0.7650  2.1939
 3933SOL    HW216930   8.297   6.105   5.186  0.8533  0.1888 -0.9439
 3934SOL     OW16931  10.350   5.581   2.173  0.0797  0.5894  0.3129
 3934SOL    HW116932  10.299   5.572   2.253 -1.3373 -1.8267 -0.8273
 3934SOL    HW216933  10.441   5.569   2.201 -0.5422 -2.0905  1.3007
 3935SOL     OW16934   1.960   9.173   9.211  0.1752  0.2013 -0.0430
 3935SOL    HW116935   2.027   9.171   9.280  0.9488  1.0527 -0.7661
 3935SOL    HW216936   2.004   9.137   9.134 -0.2685  0.5643 -0.4624
 3936SOL     OW16937   4.816   6.615   2.467  0.3225  0.1918 -0.3373
 3936SOL    HW116938   4.773   6.658   2.541  0.6264 -0.8162  0.4357
 3936SOL    HW216939   4.910   6.622   2.486  0.3817 -0.7432 -0.2201
 3937SOL     OW16940   5.578   9.533   6.167 -0.1315 -0.0781 -0.4850
 3937SOL    HW116941   5.612   9.602   6.111  0.4258 -0.1103 -0.1934
 3937SOL    HW216942   5.642   9.462   6.160  0.6036  0.3981  1.1591
 3938SOL     OW16943  10.984   8.638   6.045 -0.0468 -0.7881  0.1872
 3938SOL    HW116944  10.936   8.660   5.965  1.0996 -0.3293 -0.3994
 3938SOL    HW216945  10.935   8.681   6.115  0.2823  0.8767 -0.5646
 3939SOL     OW16946   9.807   1.654   2.149  0.1092 -0.3075 -0.2727
 3939SOL    HW116947   9.777   1.578   2.100 -0.1389 -0.2069 -0.2752
 3939SOL    HW216948   9.843   1.618   2.230  1.6889 -0.5881 -1.0727
 3940SOL     OW16949   2.246   4.118   2.241 -0.2151 -0.1029  0.1433
 3940SOL    HW116950   2.259   4.192   2.301 -1.5644  0.1266  0.1549
 3940SOL    HW216951   2.295   4.143   2.163 -0.9954  0.9961 -0.0076
 3941SOL     OW16952   4.610   2.527   1.523 -0.4330  0.2558  0.1241
 3941SOL    HW116953   4.657   2.446   1.544 -2.0411 -0.5568  0.6770
 3941SOL    HW216954   4.565   2.550   1.604 -0.1860  1.5864 -0.1003
 3942SOL     OW16955   7.004   8.139   2.850 -0.0866  0.6069  0.1720
 3942SOL    HW116956   7.012   8.045   2.866 -2.2454  0.4071  0.2459
 3942SOL    HW216957   7.028   8.180   2.933  2.1929  0.2168 -0.2549
 3943SOL     OW16958  10.102   4.745   6.290  0.1904 -0.0124 -0.2189
 3943SOL    HW116959  10.037   4.678   6.268 -0.1945  0.1947  0.2739
 3943SOL    HW216960  10.152   4.758   6.210  0.5068 -1.1623 -0.2074
 3944SOL     OW16961  10.352   1.101   1.115 -0.6306 -0.1492  0.1191
 3944SOL    HW116962  10.327   1.188   1.083 -1.5424 -0.8983 -1.2396
 3944SOL    HW216963  10.342   1.107   1.210 -0.7531  1.2019  0.0377
 3945SOL     OW16964   5.377   2.186   7.867 -0.3249 -0.1295 -0.9116
 3945SOL    HW116965   5.426   2.105   7.861  1.1670  0.7191 -0.3695
 3945SOL    HW216966   5.443   2.255   7.860 -1.7266  1.0596 -2.9283
 3946SOL     OW16967   4.627   0.918  11.226 -0.1315 -0.3765 -0.1177
 3946SOL    HW116968   4.547   0.907  11.277 -0.5868  0.3342 -0.6797
 3946SOL    HW216969   4.672   0.991  11.268 -0.5540  0.2716 -0.8021
 3947SOL     OW16970   5.917  11.255   2.096 -0.6299  0.0970 -0.5721
 3947SOL    HW116971   5.962  11.308   2.162 -0.2040  0.3667 -1.0745
 3947SOL    HW216972   5.933  11.164   2.123  0.7578  0.1696 -1.0849
 3948SOL     OW16973   0.782   1.983   5.838 -0.4392 -0.1223 -0.4727
 3948SOL    HW116974   0.719   1.994   5.910 -0.9748 -1.6739 -0.7003
 3948SOL    HW216975   0.768   2.061   5.783 -0.9062  0.4413  0.4248
 3949SOL     OW16976   1.896   1.337   1.384  0.0415  0.2482  0.3833
 3949SOL    HW116977   1.829   1.389   1.427 -0.5261  0.1826 -0.4240
 3949SOL    HW216978   1.902   1.372   1.295  0.9651  0.1535  0.3982
 3950SOL     OW16979   7.151   7.332   6.343  0.3710 -0.1908  1.0662
 3950SOL    HW116980   7.211   7.399   6.309 -0.1712  0.3047  1.0736
 3950SOL    HW216981   7.064   7.365   6.320  0.1286 -1.1830  0.5495
 3951SOL     OW16982   1.662  11.057   8.600 -0.0424 -0.1248  0.0148
 3951SOL    HW116983   1.701  11.089   8.681  1.3234 -2.7336  0.4390
 3951SOL    HW216984   1.587  11.004   8.629  1.2576 -2.1908 -0.3081
 3952SOL     OW16985   8.695   1.767   4.350  0.2986  0.6268 -0.5394
 3952SOL    HW116986   8.724   1.839   4.405  0.3919 -0.2458  0.5797
 3952SOL    HW216987   8.767   1.704   4.353 -0.7339 -0.5213  0.3469
 3953SOL     OW16988   9.525   9.027   8.397  0.3605 -0.5024  0.1446
 3953SOL    HW116989   9.605   8.988   8.433 -1.3134 -3.9236  0.3548
 3953SOL    HW216990   9.534   9.015   8.302 -0.0709 -1.2888  0.1976
 3954SOL     OW16991   8.176   8.999   8.803 -0.4502 -0.2847 -0.4846
 3954SOL    HW116992   8.111   9.058   8.765 -0.5424 -0.1357 -0.0923
 3954SOL    HW216993   8.236   9.056   8.851  0.7667 -0.2677 -1.9556
 3955SOL     OW16994   8.721   7.295   9.897  0.0268 -0.5356  0.2001
 3955SOL    HW116995   8.800   7.328   9.940 -0.7994  0.4108  0.9919
 3955SOL    HW216996   8.674   7.374   9.870  0.0840 -1.1002 -1.6506
 3956SOL     OW16997   5.719   6.652  10.399 -0.1669  0.0655  0.1666
 3956SOL    HW116998   5.735   6.573  10.451 -1.8288  0.2657  1.0178
 3956SOL    HW216999   5.648   6.696  10.445 -0.4256  1.1756 -1.2867
 3957SOL     OW17000   9.110   4.503   9.392 -0.3917 -0.7371 -0.7309
 3957SOL    HW117001   9.071   4.423   9.426  0.7743 -1.2885 -0.6627
 3957SOL    HW217002   9.108   4.564   9.466 -0.7789 -0.8845 -0.6213
 3958SOL     OW17003   2.167   6.443   6.784 -0.3952  0.2999  0.3897
 3958SOL    HW117004   2.149   6.537   6.775  1.6203  0.6031 -0.7717
 3958SOL    HW217005   2.233   6.437   6.853 -0.2465 -0.2220  0.2060
 3959SOL     OW17006   1.630   9.317   1.072  0.5586  0.1989  0.3555
 3959SOL    HW117007   1.622   9.345   1.163  0.9307  0.6185  0.2626
 3959SOL    HW217008   1.605   9.394   1.021  0.5605  0.0307  0.1030
 3960SOL     OW17009   8.946  10.896   9.378 -0.1205  0.8040  0.1196
 3960SOL    HW117010   9.002  10.856   9.444 -2.2110 -0.1941  1.3364
 3960SOL    HW217011   9.002  10.959   9.333  1.2524  1.7546  3.0740
 3961SOL     OW17012   0.280   8.927   6.613  0.4299  0.1420 -0.5593
 3961SOL    HW117013   0.279   9.018   6.584  1.7292  0.7539  1.2068
 3961SOL    HW217014   0.278   8.932   6.709  0.6302 -1.6794 -0.4328
 3962SOL     OW17015   5.814   0.346   7.297 -0.4065  0.2543  0.0122
 3962SOL    HW117016   5.797   0.253   7.310 -1.3336  0.5777  1.3070
 3962SOL    HW217017   5.836   0.379   7.385 -0.6026  1.3438 -0.3336
 3963SOL     OW17018  10.506   6.174   4.863  0.3454 -0.3070 -0.5939
 3963SOL    HW117019  10.412   6.168   4.845  0.1168 -1.3835  0.8231
 3963SOL    HW217020  10.542   6.225   4.790 -1.8576  3.1945  0.6263
 3964SOL     OW17021   8.104   8.872   9.047 -0.1716  0.7318  0.2028
 3964SOL    HW117022   8.155   8.908   9.120  0.9739 -1.6127  0.5954
 3964SOL    HW217023   8.139   8.917   8.969  1.0952  0.6193  0.6949
 3965SOL     OW17024  10.433   6.728   6.782 -0.1810 -0.2017  0.2409
 3965SOL    HW117025  10.501   6.785   6.817  0.5193 -0.7856 -0.1814
 3965SOL    HW217026  10.445   6.731   6.687 -1.0435  0.0738  0.1344
 3966SOL     OW17027   2.009   5.214   5.027 -0.0039  0.9204  0.2228
 3966SOL    HW117028   2.033   5.283   5.090  0.6538  0.5164  0.4229
 3966SOL    HW217029   2.019   5.256   4.942  0.5972  1.0192  0.3376
 3967SOL     OW17030   7.339   5.333   3.793 -0.9033 -0.1072 -0.0150
 3967SOL    HW117031   7.296   5.337   3.878 -2.0473  0.7949 -0.6419
 3967SOL    HW217032   7.432   5.322   3.815 -1.1786  0.1351  1.3402
 3968SOL     OW17033   9.979   9.244   0.092  0.5595  0.2917 -0.1121
 3968SOL    HW117034  10.033   9.173   0.126  1.5528  1.9655  1.9207
 3968SOL    HW217035   9.889   9.214   0.104  0.9725 -0.5848  0.8349
 3969SOL     OW17036   6.055   5.033  10.225  0.2641 -1.1826  0.5694
 3969SOL    HW117037   5.972   5.061  10.184 -0.4248 -1.8173  1.5132
 3969SOL    HW217038   6.122   5.087  10.183 -0.4700 -1.5917 -1.1700
 3970SOL     OW17039   9.212  11.152   2.066 -0.0117 -0.4426  0.0305
 3970SOL    HW117040   9.168  11.162   2.150 -0.2753 -1.7504  0.0511
 3970SOL    HW217041   9.293  11.202   2.076 -1.5069  2.0787 -0.0494
 3971SOL     OW17042  10.326   5.504   6.546 -0.3883 -0.1965  0.1273
 3971SOL    HW117043  10.316   5.435   6.481  0.4926 -0.1677 -0.0445
 3971SOL    HW217044  10.259   5.486   6.612 -1.2881 -0.2233 -0.7890
 3972SOL     OW17045   0.004   4.943   9.760  0.0200 -0.3768 -0.6645
 3972SOL    HW117046  -0.023   5.019   9.810  2.1713 -0.1855  0.2695
 3972SOL    HW217047  -0.062   4.934   9.691  0.3165  2.9605 -1.4403
 3973SOL     OW17048   1.684   8.692   4.126  0.1365  0.1365  0.4038
 3973SOL    HW117049   1.693   8.710   4.220  0.4183  0.8873  0.2388
 3973SOL    HW217050   1.759   8.737   4.086 -1.1528  1.6133 -0.4075
 3974SOL     OW17051   6.555   1.731   4.679 -0.2866 -0.2598  0.0817
 3974SOL    HW117052   6.500   1.660   4.645  0.5744 -0.3587 -1.1428
 3974SOL    HW217053   6.508   1.811   4.656 -0.0723 -0.3547 -0.7071
 3975SOL     OW17054   9.143   5.315  10.507 -0.4221 -0.8673 -0.7416
 3975SOL    HW117055   9.138   5.220  10.495 -0.0868 -0.7586 -1.7657
 3975SOL    HW217056   9.159   5.350  10.419 -3.6990  0.3598 -0.9332
 3976SOL     OW17057   5.501   3.358   3.093  0.2077 -0.4592  0.2751
 3976SOL    HW117058   5.413   3.329   3.116  0.8989 -3.2439 -0.3090
 3976SOL    HW217059   5.555   3.332   3.168  0.3538  2.5939  1.3083
 3977SOL     OW17060   0.379   2.117   2.401  0.3553 -0.3621  0.7381
 3977SOL    HW117061   0.332   2.039   2.431 -0.4281 -0.1547  0.0665
 3977SOL    HW217062   0.437   2.084   2.332 -0.3807 -0.2545  0.0712
 3978SOL     OW17063   6.780  10.561   9.836  0.2990  0.2548  0.6609
 3978SOL    HW117064   6.840  10.621   9.881 -0.1807  0.8709  0.4894
 3978SOL    HW217065   6.737  10.514   9.907  0.5615  0.2249  0.8029
 3979SOL     OW17066  10.591   4.603   0.917 -0.3371  0.0257  0.4494
 3979SOL    HW117067  10.503   4.580   0.948  0.3011  0.5534  2.7359
 3979SOL    HW217068  10.650   4.568   0.983  1.2170 -0.4682 -1.1490
 3980SOL     OW17069   2.712   5.686   9.501 -0.6044 -0.2468  0.2208
 3980SOL    HW117070   2.728   5.591   9.504  0.3488 -0.0425  2.0956
 3980SOL    HW217071   2.627   5.697   9.545 -1.4555 -0.3719 -1.3614
 3981SOL     OW17072   9.560   7.896   5.688 -0.0940  0.6430  0.8835
 3981SOL    HW117073   9.620   7.839   5.639 -1.4706 -0.7265  0.7325
 3981SOL    HW217074   9.583   7.882   5.779  1.1071  1.6090  0.7284
 3982SOL     OW17075   3.664   7.350   2.544  0.1146 -0.0879  0.2373
 3982SOL    HW117076   3.691   7.402   2.468  0.2053 -0.6885 -0.1463
 3982SOL    HW217077   3.626   7.413   2.604 -1.9536  0.0859 -1.2157
 3983SOL     OW17078   1.675   7.420   3.383  0.0770 -0.0716 -0.2056
 3983SOL    HW117079   1.688   7.424   3.288 -1.3803  0.6033 -0.3905
 3983SOL    HW217080   1.583   7.443   3.396 -0.0594 -1.3268  1.2859
 3984SOL     OW17081   5.392   1.667   7.442  0.0494  0.1012  0.4937
 3984SOL    HW117082   5.475   1.704   7.412 -0.1000 -0.4578 -0.6615
 3984SOL    HW217083   5.340   1.658   7.362 -1.2380  0.7107  1.2389
 3985SOL     OW17084   0.653   9.351   8.912 -0.3883  0.0996  0.2561
 3985SOL    HW117085   0.651   9.430   8.858  0.4692 -0.4107 -0.5331
 3985SOL    HW217086   0.734   9.358   8.961 -0.5225 -0.0785  0.5015
 3986SOL     OW17087   2.821   5.783   2.383  0.1476  0.4131  0.1293
 3986SOL    HW117088   2.863   5.830   2.310  0.1282  0.1371 -0.0594
 3986SOL    HW217089   2.892   5.772   2.447  0.2278  0.4274  0.0436
 3987SOL     OW17090   8.911   2.835   1.548 -0.2561 -0.0525 -0.0130
 3987SOL    HW117091   9.004   2.832   1.525 -0.4024 -0.1993 -0.5934
 3987SOL    HW217092   8.904   2.778   1.625  0.4099  1.2338  1.0279
 3988SOL     OW17093  10.752   3.975  11.286 -0.0727 -0.1070  0.4076
 3988SOL    HW117094  10.840   3.982  11.322 -1.3065  1.1435  3.3094
 3988SOL    HW217095  10.724   3.886  11.309 -0.6614  0.5141  2.2402
 3989SOL     OW17096   9.541   9.219   5.546  0.1649 -0.0261  0.9189
 3989SOL    HW117097   9.499   9.160   5.609  1.7216  0.1340  2.1323
 3989SOL    HW217098   9.468   9.258   5.498 -1.0347 -0.4649  2.3405
 3990SOL     OW17099  10.625   4.167   3.771 -0.2293 -0.2702 -0.2313
 3990SOL    HW117100  10.717   4.156   3.794  0.0924  0.4478 -1.1518
 3990SOL    HW217101  10.605   4.093   3.714 -0.7327 -1.4424  1.4194
 3991SOL     OW17102   0.546   2.228   2.566  0.1327  0.0064  0.2270
 3991SOL    HW117103   0.529   2.187   2.650 -1.5056  0.3260  0.0614
 3991SOL    HW217104   0.494   2.177   2.503  1.6868 -0.5210 -0.6781
 3992SOL     OW17105   3.471   9.510   2.785 -0.5098 -0.4880  0.0674
 3992SOL    HW117106   3.529   9.461   2.727 -0.2049 -0.2540  0.1772
 3992SOL    HW217107   3.503   9.600   2.781 -1.7797 -0.0634 -1.0490
 3993SOL     OW17108   1.233   2.723   1.280 -0.0194  0.4205 -0.3055
 3993SOL    HW117109   1.208   2.728   1.187  0.6316  0.1465 -0.4953
 3993SOL    HW217110   1.328   2.733   1.280  0.0594 -0.3071  0.2812
 3994SOL     OW17111   8.746  10.301   7.187 -0.0405  0.4371 -0.5993
 3994SOL    HW117112   8.751  10.342   7.273  0.8690 -0.9977  0.0638
 3994SOL    HW217113   8.678  10.234   7.196  0.5417 -0.1896 -0.7653
 3995SOL     OW17114   6.699   3.979   9.503  0.0790 -0.0432  0.1665
 3995SOL    HW117115   6.691   3.924   9.425  0.3770 -1.2547  0.9748
 3995SOL    HW217116   6.721   3.918   9.574  1.4481  1.2523  0.8885
 3996SOL     OW17117   8.829   2.291   7.937 -0.9364 -0.2233  0.1026
 3996SOL    HW117118   8.897   2.341   7.891 -2.0119  0.2353 -1.0259
 3996SOL    HW217119   8.877   2.233   7.996  0.3591  1.6917  0.9712
 3997SOL     OW17120   3.987  10.013   5.172  0.1558  0.0640 -0.3662
 3997SOL    HW117121   4.031  10.094   5.197  0.5300 -0.1309 -0.3932
 3997SOL    HW217122   3.924   9.998   5.242 -0.5714  0.8782 -0.8310
 3998SOL     OW17123   1.060   7.229   8.207  0.6268  0.5581  0.5853
 3998SOL    HW117124   1.096   7.307   8.249 -0.5215  0.9399  0.8825
 3998SOL    HW217125   1.016   7.262   8.128 -0.2995  0.2924  0.9770
 3999SOL     OW17126   8.239   6.652   6.860 -0.4087 -0.1288  0.0203
 3999SOL    HW117127   8.171   6.675   6.924 -0.4472 -0.0357 -0.0549
 3999SOL    HW217128   8.232   6.719   6.793 -0.3057 -0.1752 -0.0367
 4000SOL     OW17129   1.153   1.990   9.115 -0.2477 -0.4206  0.1586
 4000SOL    HW117130   1.121   1.908   9.153 -0.0016 -1.4867 -1.8490
 4000SOL    HW217131   1.223   1.963   9.055  0.1611  1.3050 -0.1635
 4001SOL     OW17132   4.759   9.762   4.286 -0.3743 -0.0163 -0.1742
 4001SOL    HW117133   4.684   9.755   4.346 -0.4123  1.0488 -0.0878
 4001SOL    HW217134   4.798   9.847   4.306  0.3638 -0.2012 -0.8027
 4002SOL     OW17135   9.532  11.148   6.371  0.2810 -0.0855  0.0488
 4002SOL    HW117136   9.582  11.108   6.300 -2.3879 -2.5454 -0.5502
 4002SOL    HW217137   9.464  11.199   6.326  0.6602  1.1313  0.8460
 4003SOL     OW17138   1.539   9.808   8.634  0.4562 -0.2968  0.6435
 4003SOL    HW117139   1.534   9.713   8.623  0.0881 -0.1993 -0.0175
 4003SOL    HW217140   1.493   9.844   8.559  0.5811  0.4106  0.8987
 4004SOL     OW17141   9.257   9.597   1.125  0.5438 -0.4518  0.2005
 4004SOL    HW117142   9.166   9.604   1.155 -0.2320 -0.1001 -2.1536
 4004SOL    HW217143   9.255   9.533   1.055  2.1544 -0.5252  0.1887
 4005SOL     OW17144   5.777   8.985   9.435 -0.2770  0.0092 -0.3037
 4005SOL    HW117145   5.725   9.050   9.388 -1.0045  0.0953  0.6197
 4005SOL    HW217146   5.784   9.020   9.524 -0.0311 -0.8072 -0.0036
 4006SOL     OW17147   0.737   4.552   4.654 -0.1861 -0.1982 -0.4325
 4006SOL    HW117148   0.824   4.565   4.690  0.9864  0.1346 -3.2950
 4006SOL    HW217149   0.694   4.637   4.666  0.9336  0.5731 -1.7391
 4007SOL     OW17150   3.383   0.090   7.437 -0.4522 -0.1607 -0.2395
 4007SOL    HW117151   3.459   0.137   7.402 -0.6960 -2.1128 -3.5821
 4007SOL    HW217152   3.310   0.116   7.380 -1.1100 -2.5859 -0.5451
 4008SOL     OW17153   5.014  11.025   5.335  0.0505 -0.1371 -0.0625
 4008SOL    HW117154   5.104  10.993   5.339  0.1830  0.1927 -0.3800
 4008SOL    HW217155   4.972  10.972   5.267  0.2714  0.3795 -0.5913
 4009SOL     OW17156   6.191   1.701   2.145  0.1507  0.0995 -0.2552
 4009SOL    HW117157   6.174   1.609   2.125  1.4661 -0.1424 -0.3231
 4009SOL    HW217158   6.109   1.733   2.182  0.0385 -1.4016  0.8376
 4010SOL     OW17159   5.621   4.913   2.728  0.3254 -0.2443 -0.1250
 4010SOL    HW117160   5.651   4.824   2.713 -0.3127 -0.3702 -0.6672
 4010SOL    HW217161   5.577   4.910   2.813  2.7078  0.1595  1.1656
 4011SOL     OW17162   2.803   6.332   0.403 -0.4616  0.1865  0.3281
 4011SOL    HW117163   2.726   6.275   0.401  0.1294 -0.5579 -2.1538
 4011SOL    HW217164   2.799   6.373   0.490 -1.0308 -3.4569  2.1343
 4012SOL     OW17165   4.037   4.940   5.813 -0.3094  0.0962 -0.1811
 4012SOL    HW117166   4.092   4.902   5.745 -1.7727  0.1619 -1.4543
 4012SOL    HW217167   3.970   4.990   5.764 -1.9812 -0.6741  1.2538
 4013SOL     OW17168   1.189  10.382   8.742  0.1491  0.7626  0.1413
 4013SOL    HW117169   1.109  10.423   8.776  0.7579  2.3591 -0.3290
 4013SOL    HW217170   1.208  10.313   8.806 -1.1470  0.8832  0.6947
 4014SOL     OW17171   0.882   8.129   8.732 -0.4353  0.1863 -0.5313
 4014SOL    HW117172   0.917   8.169   8.812 -0.8212 -0.4317 -0.0465
 4014SOL    HW217173   0.857   8.203   8.677  0.0617  0.6200 -0.1762
 4015SOL     OW17174   0.391   0.918  10.867  0.5830  0.1527 -0.5342
 4015SOL    HW117175   0.313   0.871  10.836  0.2335 -1.2796  2.3677
 4015SOL    HW217176   0.446   0.851  10.906  2.7166  1.3536 -1.3869
 4016SOL     OW17177   5.090  11.319   4.002  0.0706  0.1753 -0.1502
 4016SOL    HW117178   5.032  11.361   3.938 -0.2973  0.5828  0.4418
 4016SOL    HW217179   5.109  11.388   4.065  0.0746 -0.3411  0.4200
 4017SOL     OW17180   4.661  11.210   5.199  0.1860 -0.8145  0.2748
 4017SOL    HW117181   4.698  11.216   5.287 -1.5227  0.1282  0.9635
 4017SOL    HW217182   4.638  11.301   5.176 -0.8982 -1.2587 -0.4558
 4018SOL     OW17183   4.996   4.940   4.286 -0.1430 -0.3072  0.1973
 4018SOL    HW117184   4.918   4.885   4.287  0.3855 -1.0613  1.9205
 4018SOL    HW217185   5.069   4.879   4.290  0.6219  0.3320 -2.6981
 4019SOL     OW17186   7.903   4.312   7.694 -0.2858 -0.5514 -0.5795
 4019SOL    HW117187   7.952   4.394   7.691 -0.5174 -0.4284 -1.2924
 4019SOL    HW217188   7.813   4.338   7.714  0.0883 -0.8521  1.5595
 4020SOL     OW17189   9.587   6.369   6.334 -0.2071  0.0989  0.1002
 4020SOL    HW117190   9.634   6.290   6.309  1.3697  0.3622  2.0987
 4020SOL    HW217191   9.552   6.350   6.421 -0.6443  1.2460  0.1905
 4021SOL     OW17192   2.753   9.434   2.601  0.3678  0.3100  0.0905
 4021SOL    HW117193   2.774   9.474   2.685  1.6748 -1.5901  0.7104
 4021SOL    HW217194   2.837   9.405   2.566 -0.6255 -3.0166  0.2954
 4022SOL     OW17195   0.889   4.539  10.006  0.0646  0.2185 -0.0200
 4022SOL    HW117196   0.818   4.592  10.040  0.4852  0.2153  0.8723
 4022SOL    HW217197   0.878   4.542   9.911 -0.8896  0.5357  0.0980
 4023SOL     OW17198   3.684  10.885   1.020 -0.4661 -1.1403  0.1655
 4023SOL    HW117199   3.623  10.931   1.078 -0.1376  0.6789 -0.8955
 4023SOL    HW217200   3.764  10.875   1.073 -0.5518 -0.5228  0.4121
 4024SOL     OW17201  10.994   3.647   5.101  0.0875  0.3759 -0.4278
 4024SOL    HW117202  10.994   3.742   5.096  0.1466  0.4006  0.0666
 4024SOL    HW217203  10.979   3.627   5.194  0.6369 -0.0926 -0.4367
 4025SOL     OW17204   0.117   2.076   9.484  0.0469  0.0277 -0.1823
 4025SOL    HW117205   0.144   1.985   9.475 -0.3507 -0.2708  1.3477
 4025SOL    HW217206   0.186   2.117   9.536  0.0353  0.5019 -0.5360
 4026SOL     OW17207   3.776  10.869   5.706 -0.2051 -0.1985 -0.0486
 4026SOL    HW117208   3.748  10.842   5.794 -0.1765  0.7867  0.2764
 4026SOL    HW217209   3.710  10.934   5.680  1.2980  1.5562  0.3903
 4027SOL     OW17210  11.102   2.029   5.532 -0.2664 -0.4250 -0.1306
 4027SOL    HW117211  11.192   2.059   5.538 -0.6204  0.3935  1.1598
 4027SOL    HW217212  11.089   2.011   5.439  0.7861  0.8343 -0.5332
 4028SOL     OW17213   3.755   3.421   4.964 -0.4751 -0.3078 -0.2503
 4028SOL    HW117214   3.756   3.491   4.899  0.5996 -0.9683 -0.9601
 4028SOL    HW217215   3.711   3.348   4.920  0.0010 -0.6620 -0.1373
 4029SOL     OW17216   8.166   7.216   0.046  0.0959  0.3556  0.3730
 4029SOL    HW117217   8.080   7.258   0.052 -0.2517 -0.2343 -0.2872
 4029SOL    HW217218   8.221   7.264   0.107 -1.0030  0.0132  1.6604
 4030SOL     OW17219   1.974  11.200   9.239  0.3216  0.8990  0.7323
 4030SOL    HW117220   2.002  11.279   9.287  0.1071  1.3392  0.1308
 4030SOL    HW217221   1.906  11.231   9.180  0.8590  0.4219 -0.1347
 4031SOL     OW17222   5.353   3.691   6.590 -0.1534  0.9293 -0.1824
 4031SOL    HW117223   5.313   3.745   6.522  2.1113  2.0482 -0.6489
 4031SOL    HW217224   5.326   3.732   6.672  0.7022  2.1697 -0.5117
 4032SOL     OW17225   5.441  10.710   5.347  0.5349  0.2774 -0.3175
 4032SOL    HW117226   5.437  10.624   5.305 -1.8172  1.1412 -1.9999
 4032SOL    HW217227   5.504  10.700   5.418  0.1314 -2.8758 -0.3641
 4033SOL     OW17228   3.224   9.422  10.406  0.5752  0.2052 -0.2494
 4033SOL    HW117229   3.208   9.353  10.471 -0.6744  0.4532 -0.2672
 4033SOL    HW217230   3.280   9.382  10.340  0.3747 -0.6024  0.0677
 4034SOL     OW17231   7.545   2.541  10.716  0.2789  0.2995  0.0441
 4034SOL    HW117232   7.582   2.485  10.784  0.8560  1.8947  1.0765
 4034SOL    HW217233   7.621   2.589  10.681 -0.3880  1.3790  0.0683
 4035SOL     OW17234   9.407   5.487   9.126  0.2691 -0.2184 -0.0133
 4035SOL    HW117235   9.380   5.418   9.066 -1.4335 -1.2192  1.8748
 4035SOL    HW217236   9.325   5.520   9.164  1.1170  2.2105 -0.1760
 4036SOL     OW17237   3.700   9.438   7.936 -0.5487  0.3989 -0.3710
 4036SOL    HW117238   3.648   9.405   8.010  0.6893 -0.2602  0.2184
 4036SOL    HW217239   3.641   9.431   7.861 -1.3616 -0.2028  0.3078
 4037SOL     OW17240   4.339   4.703   0.637 -0.1724  0.0651  0.3562
 4037SOL    HW117241   4.417   4.746   0.671 -0.5220  0.8437  0.2025
 4037SOL    HW217242   4.316   4.753   0.559 -1.6308  0.7275  1.1793
 4038SOL     OW17243  10.844   4.297   2.098 -0.0191 -0.7192  0.5598
 4038SOL    HW117244  10.795   4.301   2.180  0.0030  0.5882  0.5126
 4038SOL    HW217245  10.934   4.277   2.124  0.9787  4.1970  1.2623
 4039SOL     OW17246   8.308   7.041   3.982  0.2644 -0.0008  0.0604
 4039SOL    HW117247   8.217   7.064   4.000 -0.5907 -0.8039 -3.0255
 4039SOL    HW217248   8.310   6.945   3.984  1.2397  0.0257  0.9222
 4040SOL     OW17249   8.380  11.130   0.928  0.0434 -0.0460 -0.1955
 4040SOL    HW117250   8.473  11.111   0.941  0.6271  1.8279 -1.3473
 4040SOL    HW217251   8.358  11.086   0.845  0.7147  1.9455 -1.4826
 4041SOL     OW17252   2.454   5.538   8.119 -0.0587  0.3464 -0.1163
 4041SOL    HW117253   2.419   5.463   8.072 -2.0163  1.5280 -0.5880
 4041SOL    HW217254   2.389   5.559   8.185 -0.5307  2.8480 -1.2872
 4042SOL     OW17255   4.054   1.312   5.533  0.2954  0.3318  0.4601
 4042SOL    HW117256   4.082   1.225   5.503  0.0119  0.3995  0.0043
 4042SOL    HW217257   4.051   1.365   5.454 -0.8137  0.4090  0.5536
 4043SOL     OW17258   0.998   6.366   3.691 -0.0887  0.2657  0.3064
 4043SOL    HW117259   0.940   6.442   3.699 -2.3093 -1.3287  0.0454
 4043SOL    HW217260   0.949   6.295   3.733  1.3131 -1.3304 -0.7237
 4044SOL     OW17261   8.359   9.167   0.607 -0.1291  0.2788 -0.0115
 4044SOL    HW117262   8.301   9.227   0.560 -1.9506 -1.9580 -0.7246
 4044SOL    HW217263   8.309   9.144   0.686  0.5800 -0.2509  0.2835
 4045SOL     OW17264   7.939   6.918  11.179  0.8835  0.2931  0.5634
 4045SOL    HW117265   7.990   6.875  11.248 -0.6542 -0.9487  0.9673
 4045SOL    HW217266   7.870   6.965  11.226 -0.7604 -1.3568 -0.1183
 4046SOL     OW17267  11.036   3.530  11.197 -0.9599  0.3593 -0.2077
 4046SOL    HW117268  11.025   3.625  11.194 -0.8937  0.3589 -0.4486
 4046SOL    HW217269  10.957   3.498  11.242 -0.1138  0.6785  1.5457
 4047SOL     OW17270   8.675  11.225   6.081  0.3660 -0.3678 -0.1570
 4047SOL    HW117271   8.618  11.205   6.155  0.2300 -0.0629 -0.1766
 4047SOL    HW217272   8.758  11.252   6.122  0.3616 -0.4120 -0.1198
 4048SOL     OW17273   0.486   6.805   3.205  0.0740 -0.2504  0.0107
 4048SOL    HW117274   0.405   6.757   3.221 -0.2378  0.9513  2.1814
 4048SOL    HW217275   0.554   6.754   3.249  0.4744 -1.0885 -1.5394
 4049SOL     OW17276   7.706   0.539   3.196  0.2342 -0.0286  0.4431
 4049SOL    HW117277   7.611   0.530   3.182  0.5466 -0.4386 -1.6352
 4049SOL    HW217278   7.728   0.471   3.259 -0.4876 -1.5915 -0.9351
 4050SOL     OW17279   3.706   1.026  10.497  0.2330 -0.0421  0.6418
 4050SOL    HW117280   3.675   1.084  10.428  1.1068  1.2123  1.2977
 4050SOL    HW217281   3.637   0.960  10.506  0.1006 -0.2164 -1.4094
 4051SOL     OW17282   7.241   9.515   8.355  0.6946 -0.3887  0.7331
 4051SOL    HW117283   7.333   9.498   8.377  0.4264 -1.4015  1.1511
 4051SOL    HW217284   7.226   9.606   8.380  1.0053 -0.8547  2.7637
 4052SOL     OW17285   3.890   6.979  10.921 -0.3098  0.0200 -0.4198
 4052SOL    HW117286   3.832   7.050  10.950 -1.1085 -1.0316  0.6374
 4052SOL    HW217287   3.968   7.023  10.889 -1.4510  1.4495 -1.2895
 4053SOL     OW17288  11.034   2.283  10.720  0.0231  0.0501 -0.3290
 4053SOL    HW117289  11.050   2.232  10.799  0.7733  1.3431  0.3841
 4053SOL    HW217290  11.044   2.221  10.648 -1.2753 -1.2802  0.6125
 4054SOL     OW17291   3.708   3.686   1.198  0.1148  0.7477  0.8648
 4054SOL    HW117292   3.766   3.745   1.149 -1.1739  1.3093 -0.0275
 4054SOL    HW217293   3.647   3.744   1.242 -1.4730  0.0859 -0.4083
 4055SOL     OW17294   6.188   8.209  10.527 -0.3368 -0.3561  0.0875
 4055SOL    HW117295   6.186   8.116  10.505 -2.5744 -0.0293 -1.1979
 4055SOL    HW217296   6.281   8.233  10.521  0.1881 -2.3759 -0.1041
 4056SOL     OW17297   8.589  10.860  10.698  0.1146  0.2814  0.3936
 4056SOL    HW117298   8.614  10.928  10.762 -2.1254  0.1421  1.4686
 4056SOL    HW217299   8.545  10.793  10.751  3.3801 -2.6796 -0.4636
 4057SOL     OW17300   9.580   7.072   8.276  0.4970  0.3674  0.3551
 4057SOL    HW117301   9.673   7.076   8.255  0.1039  3.4808 -1.0039
 4057SOL    HW217302   9.573   7.118   8.360  0.0172  1.4858 -0.2825
 4058SOL     OW17303   5.521   1.454   6.270 -0.1618 -0.0447  0.0901
 4058SOL    HW117304   5.514   1.423   6.360 -1.4243 -1.0602 -0.3416
 4058SOL    HW217305   5.609   1.429   6.242  1.2847  2.7666  1.9330
 4059SOL     OW17306   8.986   4.062   2.585  0.4449 -0.3278  0.0122
 4059SOL    HW117307   8.927   4.137   2.577  0.5724 -0.1836  0.4219
 4059SOL    HW217308   9.053   4.076   2.518  2.0042  1.3225  1.8430
 4060SOL     OW17309   6.064  10.421   1.748 -0.4974  0.2172 -0.6220
 4060SOL    HW117310   6.129  10.456   1.686  0.5140 -2.0886 -0.9208
 4060SOL    HW217311   6.101  10.439   1.834 -0.7703  1.3085 -0.7234
 4061SOL     OW17312   5.380   0.520   1.023 -0.1238  0.7412 -0.5744
 4061SOL    HW117313   5.459   0.528   0.970  0.2790 -2.6026 -0.6022
 4061SOL    HW217314   5.315   0.481   0.965 -0.2669 -1.1323  0.7835
 4062SOL     OW17315   4.946   3.065   2.717 -0.7167 -0.1729 -0.1773
 4062SOL    HW117316   4.947   3.160   2.707  1.7216 -0.0284  1.0552
 4062SOL    HW217317   4.899   3.033   2.639 -0.3081  1.9573 -1.3367
 4063SOL     OW17318   2.659  10.077  10.028 -0.1659  0.3675  0.6938
 4063SOL    HW117319   2.627   9.998   9.983 -0.2347 -0.4600  2.1595
 4063SOL    HW217320   2.628  10.149   9.974  0.8387 -0.6363 -1.2833
 4064SOL     OW17321   1.262   3.815   3.634  0.2028  0.5980 -0.4186
 4064SOL    HW117322   1.348   3.855   3.644 -0.3601  1.5279  0.9993
 4064SOL    HW217323   1.257   3.750   3.704 -0.0461  0.1885 -0.8148
 4065SOL     OW17324   3.109   7.593  10.037  0.0247 -0.1059 -0.2361
 4065SOL    HW117325   3.193   7.550  10.047 -0.5393 -1.3857 -0.9235
 4065SOL    HW217326   3.054   7.529   9.991 -0.7984  1.3747 -1.3499
 4066SOL     OW17327   9.958   9.499   2.497  0.0065 -0.1958  0.1596
 4066SOL    HW117328   9.965   9.566   2.430 -0.4186  1.6100  1.8918
 4066SOL    HW217329   9.897   9.434   2.461 -0.2303  0.7660 -1.1731
 4067SOL     OW17330   0.448   0.034   2.550 -0.8974 -0.0356  0.2306
 4067SOL    HW117331   0.501   0.088   2.492  0.9658  0.3760  2.2518
 4067SOL    HW217332   0.396   0.097   2.600 -0.6946 -0.2614  0.7229
 4068SOL     OW17333   5.489   4.820   6.866  0.2474 -0.3409  0.2552
 4068SOL    HW117334   5.550   4.866   6.808  0.5591 -2.5922 -1.2899
 4068SOL    HW217335   5.423   4.784   6.806 -0.8044 -0.6629  1.5860
 4069SOL     OW17336   4.176   6.371   3.988  0.0596  0.1080  0.4185
 4069SOL    HW117337   4.201   6.390   3.897 -0.1949  0.8319  0.4921
 4069SOL    HW217338   4.233   6.300   4.014 -0.2890 -0.5326 -0.5228
 4070SOL     OW17339   5.837   4.919   4.082 -0.3270  0.8197 -0.5947
 4070SOL    HW117340   5.850   4.913   3.987 -1.6444 -0.9641 -0.6690
 4070SOL    HW217341   5.840   5.013   4.100 -1.2661  1.2653 -2.5970
 4071SOL     OW17342   2.828   4.991   8.076  0.0810 -0.2692 -0.0150
 4071SOL    HW117343   2.739   4.978   8.041  0.8397 -2.0791 -1.3516
 4071SOL    HW217344   2.885   4.943   8.016  1.9900  0.9383  0.7913
 4072SOL     OW17345   9.768   3.501   9.653 -0.0456  0.2673  0.1109
 4072SOL    HW117346   9.753   3.576   9.596  0.8985 -0.2744 -0.8558
 4072SOL    HW217347   9.683   3.485   9.694 -0.0731  2.3141  0.8859
 4073SOL     OW17348   0.535   8.457  11.274 -0.1193  0.4897 -0.4656
 4073SOL    HW117349   0.621   8.485  11.305  0.1678 -1.4638  0.5705
 4073SOL    HW217350   0.554   8.396  11.203 -0.5367 -1.7872  1.3138
 4074SOL     OW17351   6.218   9.936   7.500 -0.1371 -0.0028  0.2081
 4074SOL    HW117352   6.270   9.891   7.566  0.4847  0.1343 -0.1869
 4074SOL    HW217353   6.260  10.022   7.491  0.2212 -0.2917 -0.9022
 4075SOL     OW17354  10.176  10.897  10.415 -0.0992 -0.6839 -0.7364
 4075SOL    HW117355  10.177  10.984  10.375 -1.3878 -0.7062 -0.8291
 4075SOL    HW217356  10.202  10.913  10.506 -0.7468 -0.1392 -0.6408
 4076SOL     OW17357   5.614   8.244   5.931 -0.3161  0.3124 -0.0730
 4076SOL    HW117358   5.612   8.199   6.016 -0.7217  1.4946  0.5626
 4076SOL    HW217359   5.584   8.179   5.868  1.8539 -1.1803  0.4063
 4077SOL     OW17360   8.530   6.058   1.109 -0.1585  0.4468 -0.0355
 4077SOL    HW117361   8.578   5.983   1.075  0.3401  1.6749 -2.1387
 4077SOL    HW217362   8.541   6.053   1.204 -0.0567 -2.0577 -0.1528
 4078SOL     OW17363   0.982   4.387   9.079 -0.1491  0.1675  0.4652
 4078SOL    HW117364   0.891   4.361   9.063  0.8487 -1.8098 -2.5974
 4078SOL    HW217365   1.016   4.319   9.137 -0.0761 -0.3028 -0.1158
 4079SOL     OW17366   6.882   1.215   8.095 -0.5463  0.7724 -0.9807
 4079SOL    HW117367   6.932   1.263   8.030  0.6035 -0.6253 -1.1398
 4079SOL    HW217368   6.930   1.133   8.108 -1.9545  0.0668 -0.0161
 4080SOL     OW17369   8.989   2.902   3.589  0.2744  0.1331 -0.2580
 4080SOL    HW117370   9.039   2.932   3.513 -0.9076 -0.5707 -1.3361
 4080SOL    HW217371   9.045   2.836   3.630  0.1470 -0.8328 -1.6010
 4081SOL     OW17372   6.423   4.663   2.187 -0.1199 -0.0197 -0.0192
 4081SOL    HW117373   6.431   4.657   2.282  0.2553  1.9492  0.0990
 4081SOL    HW217374   6.377   4.746   2.172  0.9800  0.3305 -1.5918
 4082SOL     OW17375   1.956  10.918   3.035  0.5822  0.6585 -0.1500
 4082SOL    HW117376   1.861  10.903   3.034  0.8505 -1.3176  1.5013
 4082SOL    HW217377   1.971  10.974   3.110  0.8469  0.0614  0.2429
 4083SOL     OW17378   2.324   6.792   3.311 -0.0287  0.4694 -0.1045
 4083SOL    HW117379   2.286   6.754   3.390  0.3265 -3.5107 -1.7453
 4083SOL    HW217380   2.416   6.768   3.314 -0.0720  0.0255 -1.8383
 4084SOL     OW17381   3.183   0.349   5.092  0.1373 -0.5053  0.1598
 4084SOL    HW117382   3.102   0.389   5.123  1.7635  1.3537  2.1402
 4084SOL    HW217383   3.181   0.360   4.997 -1.1758  0.9733  0.3478
 4085SOL     OW17384  10.302  10.688   9.131 -0.3255  0.6316  0.2906
 4085SOL    HW117385  10.262  10.743   9.064 -0.9227 -0.3673 -0.1944
 4085SOL    HW217386  10.392  10.718   9.137 -0.6607  1.6899  0.0665
 4086SOL     OW17387   6.344   5.854   6.208  0.2096  0.4578 -0.0426
 4086SOL    HW117388   6.271   5.914   6.197 -2.8944 -3.2946 -1.1352
 4086SOL    HW217389   6.333   5.818   6.296  0.1789 -0.7560 -0.5232
 4087SOL     OW17390   2.285   4.044   3.793  0.3750 -0.1874 -0.3010
 4087SOL    HW117391   2.375   4.036   3.764  0.4991 -0.6009  0.1935
 4087SOL    HW217392   2.287   4.112   3.861  0.3924 -0.5389  0.0487
 4088SOL     OW17393   1.432   2.167   3.516 -0.2981  0.2710  0.4753
 4088SOL    HW117394   1.500   2.230   3.542  0.9931 -0.9949  0.2343
 4088SOL    HW217395   1.364   2.178   3.582  0.0232  1.7264  0.5994
 4089SOL     OW17396   9.591   4.166   0.587 -0.2257  0.5154  0.2179
 4089SOL    HW117397   9.656   4.140   0.521  0.2020  0.2050  0.7531
 4089SOL    HW217398   9.518   4.201   0.536  0.7391  1.7383 -0.3714
 4090SOL     OW17399   2.073   2.478   9.827 -0.0073 -0.4921  0.0352
 4090SOL    HW117400   2.134   2.404   9.828 -1.7224 -1.9534  0.1121
 4090SOL    HW217401   2.086   2.520   9.912 -0.4290 -1.9484  0.8539
 4091SOL     OW17402   7.252   2.495   2.816  0.1826  0.0179  0.5533
 4091SOL    HW117403   7.243   2.407   2.852  1.4507 -0.4164 -0.1663
 4091SOL    HW217404   7.205   2.493   2.733 -0.3598  0.2199  0.8519
 4092SOL     OW17405   9.367   7.718   8.296  0.2298 -0.6204  0.2516
 4092SOL    HW117406   9.287   7.672   8.318  0.1195 -0.4061  0.2966
 4092SOL    HW217407   9.341   7.810   8.288  0.3183 -0.6542 -0.4799
 4093SOL     OW17408  10.042   5.354   0.827 -0.1264  0.7858 -0.2990
 4093SOL    HW117409  10.046   5.430   0.885  0.0622 -0.8114  1.7835
 4093SOL    HW217410  10.027   5.279   0.884  1.0281 -0.9620 -2.2081
 4094SOL     OW17411   3.604  10.835   4.539 -0.4014  0.5061 -0.0125
 4094SOL    HW117412   3.613  10.823   4.634  2.7158 -0.9648 -0.4389
 4094SOL    HW217413   3.528  10.782   4.516 -1.3865  1.1183  1.6698
 4095SOL     OW17414   3.954   3.685  10.037  1.2889 -0.9309 -0.2153
 4095SOL    HW117415   3.944   3.629   9.960 -3.2079  0.5798 -0.8445
 4095SOL    HW217416   3.983   3.769  10.000 -0.2359 -0.3987 -0.2336
 4096SOL     OW17417  10.941  10.670   6.765  0.2773  0.6168 -0.2494
 4096SOL    HW117418  10.929  10.627   6.680 -0.7959  0.3760  0.0088
 4096SOL    HW217419  10.991  10.749   6.746  2.5026 -0.8415 -0.7127
 4097SOL     OW17420   0.704   8.190   0.842  0.1135  0.1663 -0.1440
 4097SOL    HW117421   0.751   8.157   0.918 -0.8832  1.4438  1.0527
 4097SOL    HW217422   0.771   8.201   0.775  1.1036 -0.3893  0.7364
 4098SOL     OW17423   5.276   6.034   2.885  0.2582  0.3278  0.0254
 4098SOL    HW117424   5.231   6.043   2.969 -2.2453 -1.6786 -0.9999
 4098SOL    HW217425   5.257   6.115   2.839  0.3054  0.7850  0.8124
 4099SOL     OW17426   4.007   4.867   2.289  0.1517  0.0360 -0.4994
 4099SOL    HW117427   4.001   4.796   2.225 -0.5146  0.2845 -0.7204
 4099SOL    HW217428   4.100   4.870   2.313 -0.0940 -2.0316  0.8008
 4100SOL     OW17429   4.075   2.389  11.013  0.1745 -0.0500  0.1631
 4100SOL    HW117430   4.081   2.302  10.974  0.9204  0.8658 -1.8671
 4100SOL    HW217431   3.986   2.394  11.047  0.3526 -1.8502  0.9003
 4101SOL     OW17432  10.033  11.333   3.490  0.2215  0.3753 -0.1161
 4101SOL    HW117433  10.112  11.307   3.442  1.7694  0.3223  2.3401
 4101SOL    HW217434  10.037  11.428   3.494 -0.7567  0.4742 -1.4804
 4102SOL     OW17435   2.976  10.710   8.403  0.6603 -0.0789  0.5725
 4102SOL    HW117436   2.888  10.732   8.434 -0.5948 -1.7597 -1.6552
 4102SOL    HW217437   3.010  10.649   8.469  0.0605  0.4087  1.3311
 4103SOL     OW17438   5.340   3.592   2.130 -0.2057  0.0280  0.2812
 4103SOL    HW117439   5.413   3.530   2.123  0.2557  0.5044  0.9293
 4103SOL    HW217440   5.312   3.586   2.221  0.6943  1.7516  0.6834
 4104SOL     OW17441   2.804   3.870   8.893  0.0072 -0.0729  0.2464
 4104SOL    HW117442   2.825   3.953   8.851 -1.6149  0.2262 -0.0130
 4104SOL    HW217443   2.887   3.821   8.892  1.7378  2.6435  3.1102
 4105SOL     OW17444   8.210   8.050  10.234  0.2600 -0.4328  0.0141
 4105SOL    HW117445   8.234   7.957  10.226  1.9838  0.0681 -1.0279
 4105SOL    HW217446   8.261   8.093  10.165 -1.0685  1.1987  0.0402
 4106SOL     OW17447  11.229   0.622   3.558 -0.5391 -0.0668 -0.2543
 4106SOL    HW117448  11.214   0.551   3.620 -0.2762  0.0184 -0.0941
 4106SOL    HW217449  11.152   0.621   3.502  0.7543 -2.3204 -2.0523
 4107SOL     OW17450   7.092  10.519   8.882 -0.5002  0.3834 -0.1083
 4107SOL    HW117451   7.124  10.449   8.939 -0.8422 -0.7983 -1.3557
 4107SOL    HW217452   7.164  10.535   8.820 -1.4433 -0.7317 -1.5110
 4108SOL     OW17453  10.004   0.653   2.751  0.2216  0.1731 -0.4366
 4108SOL    HW117454   9.919   0.628   2.788  0.4122  0.9999  0.5723
 4108SOL    HW217455  10.011   0.747   2.769  1.0806  0.2271 -1.0592
 4109SOL     OW17456   5.856  11.113   7.326  0.2253  0.4909 -0.8094
 4109SOL    HW117457   5.765  11.095   7.351  0.3352  0.2233 -0.5964
 4109SOL    HW217458   5.899  11.136   7.409  0.8230 -1.3594 -0.6010
 4110SOL     OW17459   6.898   8.301   3.708  0.0363  0.3335 -0.1142
 4110SOL    HW117460   6.988   8.335   3.711  0.5943 -1.0137 -1.1428
 4110SOL    HW217461   6.902   8.219   3.756 -0.2189 -0.6696 -1.7770
 4111SOL     OW17462  10.201   9.513   1.612 -0.6148  0.2199  0.2329
 4111SOL    HW117463  10.191   9.569   1.689  0.6218 -0.6525  1.0559
 4111SOL    HW217464  10.141   9.440   1.627 -0.0659 -0.1647  0.5859
 4112SOL     OW17465   9.278   3.084   1.504 -0.1116  0.1686  0.3504
 4112SOL    HW117466   9.287   3.148   1.433  0.0477  0.9571  1.0669
 4112SOL    HW217467   9.310   3.130   1.581 -2.0844  0.0064  1.3062
 4113SOL     OW17468   4.008   0.633   0.998  0.1020 -0.2178  0.7553
 4113SOL    HW117469   4.042   0.705   0.946  0.7426 -0.6477  0.5748
 4113SOL    HW217470   3.953   0.583   0.938 -1.1323  0.6613  1.1312
 4114SOL     OW17471   1.856   5.077   6.772  0.5476  0.0883 -0.2179
 4114SOL    HW117472   1.775   5.094   6.724 -0.6630  0.1399  1.8005
 4114SOL    HW217473   1.845   4.988   6.806  0.7654  0.5772  1.1605
 4115SOL     OW17474   8.847   1.725   8.539 -0.1729  0.0343 -0.5468
 4115SOL    HW117475   8.822   1.737   8.630 -0.2060 -0.5052 -0.4819
 4115SOL    HW217476   8.889   1.807   8.514  1.1971 -0.3532  0.4168
 4116SOL     OW17477   0.923   6.514   6.827 -0.9717 -0.7125  0.2340
 4116SOL    HW117478   0.869   6.436   6.820  1.9494 -2.6511 -1.5165
 4116SOL    HW217479   0.958   6.528   6.739  2.0982 -0.0674  1.4656
 4117SOL     OW17480  11.007   9.864   1.820 -0.3811  0.0213 -0.1184
 4117SOL    HW117481  11.045   9.810   1.890 -0.9671 -0.8380 -0.4518
 4117SOL    HW217482  11.081   9.882   1.762 -0.2246 -0.6564 -0.1409
 4118SOL     OW17483  11.059   4.687   6.613 -0.0054 -0.5327  0.3022
 4118SOL    HW117484  11.097   4.604   6.585  0.0665  0.0354 -1.3775
 4118SOL    HW217485  11.134   4.747   6.616 -0.6565  0.5404 -2.8086
 4119SOL     OW17486   1.747   5.295   0.301 -0.5679 -0.3208 -0.1760
 4119SOL    HW117487   1.765   5.351   0.226  0.2772  0.3497  0.5072
 4119SOL    HW217488   1.833   5.265   0.330 -0.9805 -1.6651 -0.2930
 4120SOL     OW17489   6.529   1.466   9.160  0.3366  0.1211  0.5477
 4120SOL    HW117490   6.562   1.446   9.247  0.7446  1.3014  0.6681
 4120SOL    HW217491   6.540   1.561   9.151  0.9455 -0.0846 -1.0416
 4121SOL     OW17492  10.521  11.173  10.719 -0.2880 -0.0649  0.0320
 4121SOL    HW117493  10.579  11.245  10.743 -0.4081 -0.4290  1.4609
 4121SOL    HW217494  10.433  11.211  10.725 -0.3507 -0.3144  0.7824
 4122SOL     OW17495   8.776   8.460  11.289  0.2370  0.2334  0.3612
 4122SOL    HW117496   8.849   8.483  11.347  1.1416 -0.7340 -0.3755
 4122SOL    HW217497   8.810   8.474  11.201 -0.2279 -0.8858 -0.0030
 4123SOL     OW17498   1.676  10.055   9.995 -0.1104  0.4437 -0.0323
 4123SOL    HW117499   1.701  10.138   9.955  0.7800  0.5205  0.6653
 4123SOL    HW217500   1.615  10.015   9.933  0.3632  1.0825 -0.9119
 4124SOL     OW17501   8.428   7.986   1.553  0.6607 -0.8483 -0.0986
 4124SOL    HW117502   8.437   7.905   1.503  0.9805 -0.8666 -0.0131
 4124SOL    HW217503   8.334   8.005   1.552  0.8220 -0.0843 -1.8952
 4125SOL     OW17504   3.882   2.909   5.314  0.4763 -0.2900  0.2170
 4125SOL    HW117505   3.972   2.885   5.293  0.2504 -2.0346  1.1520
 4125SOL    HW217506   3.857   2.972   5.246  1.8519 -1.0298 -0.9930
 4126SOL     OW17507   1.869   7.234   2.447  0.4255  0.3695  0.3706
 4126SOL    HW117508   1.789   7.261   2.401  0.6312  0.1045 -0.1398
 4126SOL    HW217509   1.892   7.310   2.501 -0.0478  0.5267  0.3537
 4127SOL     OW17510   8.535  10.428   1.514  0.1867 -0.3161  0.0966
 4127SOL    HW117511   8.598  10.484   1.467  0.6667 -0.1371  0.9327
 4127SOL    HW217512   8.483  10.489   1.566 -0.6893 -0.4666 -0.5997
 4128SOL     OW17513   6.067   8.720   9.757 -0.0830 -0.2458  0.1471
 4128SOL    HW117514   6.031   8.750   9.840 -0.9090 -2.3735  0.5877
 4128SOL    HW217515   6.145   8.671   9.781 -1.7693 -3.1220 -0.0847
 4129SOL     OW17516   7.654   6.577   3.940  0.1677 -0.1466 -0.2719
 4129SOL    HW117517   7.715   6.597   3.869 -0.3619  0.8589 -0.4632
 4129SOL    HW217518   7.575   6.545   3.896  0.1614 -0.3721 -0.0947
 4130SOL     OW17519   8.436   4.727  11.336 -0.2596 -0.0376 -0.2551
 4130SOL    HW117520   8.417   4.645  11.382  1.4909  0.3361  1.2279
 4130SOL    HW217521   8.503   4.769  11.391 -1.6296  2.7048 -0.6251
 4131SOL     OW17522   5.374   5.345  10.891 -0.0238  0.8591  0.4971
 4131SOL    HW117523   5.433   5.303  10.954 -1.7557 -0.9942  0.9450
 4131SOL    HW217524   5.358   5.277  10.825 -1.7072  1.3194  0.4270
 4132SOL     OW17525   1.074   8.209   2.574 -0.3324 -0.3218 -0.2975
 4132SOL    HW117526   1.127   8.148   2.626  0.1158 -0.9895 -1.5330
 4132SOL    HW217527   1.138   8.252   2.516 -0.7485  0.8081  0.0680
 4133SOL     OW17528   2.928   6.459   1.971 -0.5512 -0.4916 -0.0300
 4133SOL    HW117529   2.867   6.401   1.925 -0.1182 -0.2748 -0.8803
 4133SOL    HW217530   3.008   6.457   1.920 -0.4299  0.6355  0.0834
 4134SOL     OW17531   7.392   5.074   7.680  0.3676  0.3476 -0.3576
 4134SOL    HW117532   7.442   5.013   7.735  0.0341  1.6254  1.4248
 4134SOL    HW217533   7.320   5.022   7.645 -0.3731 -0.1325  1.7851
 4135SOL     OW17534   8.756   4.226   4.404  0.0276  0.3450 -0.6145
 4135SOL    HW117535   8.755   4.319   4.380  0.6238  1.2379  2.5163
 4135SOL    HW217536   8.828   4.218   4.466  0.7941 -2.5211 -1.7817
 4136SOL     OW17537   9.391  10.736   8.460 -0.1529  0.2082 -0.3502
 4136SOL    HW117538   9.302  10.757   8.487 -0.2546 -0.1970 -0.3821
 4136SOL    HW217539   9.417  10.663   8.517  0.0027  0.0370 -0.6399
 4137SOL     OW17540   9.773  11.323   2.719  0.0691  0.3967 -0.0769
 4137SOL    HW117541   9.778  11.351   2.628  0.1644 -0.4234 -0.3243
 4137SOL    HW217542   9.864  11.315   2.746  0.0828 -1.7328 -0.6493
 4138SOL     OW17543   8.509   5.254   1.063  0.3107  0.0778  0.3694
 4138SOL    HW117544   8.495   5.348   1.067  0.0878  0.0567  0.1034
 4138SOL    HW217545   8.456   5.219   1.135  1.1567  0.2387  1.0757
 4139SOL     OW17546   7.575   6.102   3.871 -0.1146  0.4473 -0.1174
 4139SOL    HW117547   7.498   6.046   3.860  0.0420  0.2650 -0.2856
 4139SOL    HW217548   7.539   6.189   3.889 -0.3591  0.2572  0.3287
 4140SOL     OW17549   5.727   5.869   8.502 -0.4777 -0.0671 -0.1911
 4140SOL    HW117550   5.715   5.938   8.436 -1.5917  0.2237  0.3100
 4140SOL    HW217551   5.785   5.909   8.568 -1.4465  0.5322  0.3039
 4141SOL     OW17552   2.428   1.351   4.170  0.0363 -0.2758  0.8627
 4141SOL    HW117553   2.386   1.278   4.215 -2.0009  0.9772  1.0166
 4141SOL    HW217554   2.496   1.381   4.231 -0.1636 -1.0188  1.4548
 4142SOL     OW17555   6.548   1.523   5.838  0.8977  0.3719 -0.3697
 4142SOL    HW117556   6.543   1.597   5.899 -0.5172 -1.2869  1.5543
 4142SOL    HW217557   6.520   1.560   5.754  0.4847  2.0882  0.4938
 4143SOL     OW17558   8.716   7.604   9.838 -0.5748 -0.2740  0.3497
 4143SOL    HW117559   8.787   7.639   9.784  1.2403 -0.6039  2.4378
 4143SOL    HW217560   8.637   7.646   9.804  0.6453  0.3710 -1.8040
 4144SOL     OW17561   8.541   8.711   6.924  0.2982 -0.0345 -0.4301
 4144SOL    HW117562   8.635   8.710   6.938  0.1068 -2.9120  0.9686
 4144SOL    HW217563   8.505   8.747   7.005 -0.0219 -3.6345  1.1241
 4145SOL     OW17564   8.096   8.243   0.156  0.2782 -0.2306 -0.3092
 4145SOL    HW117565   8.131   8.204   0.076  1.5966  0.3731 -0.0425
 4145SOL    HW217566   8.173   8.263   0.208 -0.5436 -0.0305  0.8473
 4146SOL     OW17567   9.146   5.658   4.924 -0.4780  0.1072 -0.5312
 4146SOL    HW117568   9.162   5.746   4.956 -2.5745 -0.1262  1.2319
 4146SOL    HW217569   9.097   5.670   4.842  0.4863  0.5882 -1.0454
 4147SOL     OW17570   0.019   8.356   3.505  0.1014  0.9797  0.3681
 4147SOL    HW117571  -0.018   8.268   3.509  2.8018 -0.1116  2.4538
 4147SOL    HW217572   0.077   8.354   3.429  0.5844  0.8000  0.7438
 4148SOL     OW17573   0.006   0.817   5.316  0.0433 -0.0616  0.8100
 4148SOL    HW117574  -0.036   0.742   5.358  0.0563 -1.0669 -0.9412
 4148SOL    HW217575  -0.066   0.879   5.300  0.0937  0.4700  2.5947
 4149SOL     OW17576   7.895   0.257   5.166 -0.2626 -0.0426 -0.0922
 4149SOL    HW117577   7.840   0.257   5.087 -0.1965 -0.1754 -0.1399
 4149SOL    HW217578   7.984   0.246   5.132 -0.1251  0.9399 -0.0645
 4150SOL     OW17579   2.060   2.485   4.630  0.3688 -0.3438  0.4713
 4150SOL    HW117580   2.019   2.544   4.566 -2.8307 -2.8224  0.1313
 4150SOL    HW217581   2.048   2.529   4.714  1.9864  1.5361 -0.2272
 4151SOL     OW17582  10.034   1.251  11.274  0.1456 -0.9928  0.3050
 4151SOL    HW117583  10.106   1.275  11.333  0.4104  0.1388 -0.4557
 4151SOL    HW217584   9.982   1.188  11.324 -0.3168  0.8537  2.2201
 4152SOL     OW17585   3.972   6.631   6.256 -0.0055  0.1807 -0.0828
 4152SOL    HW117586   3.973   6.654   6.349 -0.4959  0.4580 -0.1437
 4152SOL    HW217587   3.889   6.585   6.244  0.3210 -0.3634 -0.2635
 4153SOL     OW17588   6.494   7.097   3.783 -0.1889 -0.6439 -0.3286
 4153SOL    HW117589   6.463   7.051   3.860  0.0502  1.2892  0.9541
 4153SOL    HW217590   6.452   7.052   3.709 -1.2773 -1.8115  0.9802
 4154SOL     OW17591   0.093   9.852   6.042 -0.0943 -0.2569  0.3236
 4154SOL    HW117592   0.132   9.832   5.957  1.1429  0.0064  0.8167
 4154SOL    HW217593   0.029   9.921   6.023  0.4069  0.0343 -0.3501
 4155SOL     OW17594   8.309   8.730   6.028 -0.0674 -0.1418 -0.0778
 4155SOL    HW117595   8.285   8.679   6.106 -1.5552 -0.4067 -0.6816
 4155SOL    HW217596   8.235   8.717   5.968  1.0379  0.1012 -1.5168
 4156SOL     OW17597   2.991   0.385   5.634 -0.1465  0.2815 -0.3180
 4156SOL    HW117598   3.049   0.309   5.644 -1.4006 -0.6621 -0.1011
 4156SOL    HW217599   3.028   0.433   5.560  0.8057 -0.4090 -0.3096
 4157SOL     OW17600   6.487  10.941   1.983  0.0248  0.0980 -0.1447
 4157SOL    HW117601   6.545  10.998   2.032 -0.1126  0.2997 -0.2188
 4157SOL    HW217602   6.545  10.875   1.945  0.4314  1.2305 -1.5561
 4158SOL     OW17603   9.363   4.107   5.883  0.1291  0.1801  0.0477
 4158SOL    HW117604   9.368   4.203   5.884 -1.0422  0.2873 -1.3889
 4158SOL    HW217605   9.279   4.088   5.925 -0.1886 -0.1476 -0.7305
 4159SOL     OW17606   6.389   2.550   4.035 -0.2886 -0.4507 -0.7203
 4159SOL    HW117607   6.458   2.485   4.053  1.1274  0.6596 -1.9636
 4159SOL    HW217608   6.420   2.629   4.079 -1.4624 -0.3080 -0.1506
 4160SOL     OW17609   5.312   7.297  10.820 -0.5626  0.2122  0.0135
 4160SOL    HW117610   5.231   7.278  10.867 -0.1578  0.2671  0.7446
 4160SOL    HW217611   5.285   7.351  10.746 -1.2377 -0.0840  0.0429
 4161SOL     OW17612   9.249  10.903   6.079 -0.4815 -0.4683  0.1422
 4161SOL    HW117613   9.211  10.868   5.999  0.1285 -0.3543 -0.1983
 4161SOL    HW217614   9.295  10.982   6.051  1.4110 -1.4838  0.2623
 4162SOL     OW17615   7.296  10.322   3.825 -0.1001 -0.7789 -0.1545
 4162SOL    HW117616   7.349  10.285   3.895 -1.2007  0.6876  1.4934
 4162SOL    HW217617   7.209  10.286   3.839  0.2649 -2.6650 -2.4568
 4163SOL     OW17618   8.262   1.159   7.153  0.4986 -0.1010 -0.6106
 4163SOL    HW117619   8.290   1.244   7.121  1.3979 -0.5321 -1.0084
 4163SOL    HW217620   8.172   1.172   7.182  1.0441  1.2804  0.5102
 4164SOL     OW17621   3.846   7.982   0.504  0.1288  0.6105  0.3425
 4164SOL    HW117622   3.904   8.022   0.569 -1.0409  1.0400  1.1411
 4164SOL    HW217623   3.891   7.994   0.421  1.3461  0.6239  0.9994
 4165SOL     OW17624   1.980   6.507   4.989  0.4624  0.0404 -0.0156
 4165SOL    HW117625   2.032   6.427   4.992  0.8113  0.2392 -0.6448
 4165SOL    HW217626   1.914   6.490   4.922  0.1737  0.0599  0.2649
 4166SOL     OW17627   5.928   5.766   9.517 -0.4857  0.6893 -0.2053
 4166SOL    HW117628   5.989   5.840   9.519 -0.2147  0.4594  0.2749
 4166SOL    HW217629   5.950   5.716   9.596 -1.6766  0.9131  0.2762
 4167SOL     OW17630  10.118   0.514   4.090  0.5094  0.5077  0.1201
 4167SOL    HW117631  10.118   0.418   4.091 -2.3950  0.4549  0.4200
 4167SOL    HW217632  10.034   0.537   4.050  0.1607  2.9212  2.1586
 4168SOL     OW17633   7.505   7.981  11.074 -0.1517 -0.5101 -0.0239
 4168SOL    HW117634   7.545   7.996  11.160 -2.7923  0.9591  1.0165
 4168SOL    HW217635   7.463   8.064  11.053 -1.5609 -1.6065 -1.6294
 4169SOL     OW17636   8.269   5.132   7.318  0.0948 -0.1100  0.0668
 4169SOL    HW117637   8.298   5.075   7.389 -1.2084 -1.8658 -0.7604
 4169SOL    HW217638   8.266   5.074   7.241 -0.9615  1.1579 -0.8659
 4170SOL     OW17639   9.481   7.992   2.099 -0.0398  0.2586 -0.1891
 4170SOL    HW117640   9.549   7.926   2.113  0.8780  0.9078 -1.4533
 4170SOL    HW217641   9.520   8.074   2.131 -0.5172  0.4941 -0.2070
 4171SOL     OW17642   7.744  10.265   3.472  0.4134  0.7119  0.2714
 4171SOL    HW117643   7.803  10.329   3.513 -0.3308  1.4797  0.1671
 4171SOL    HW217644   7.796  10.225   3.403  1.4945 -0.1557  1.5602
 4172SOL     OW17645   8.402   8.577   2.952  0.0082  0.0478  0.1658
 4172SOL    HW117646   8.386   8.547   3.041  0.4982 -0.2198  0.1711
 4172SOL    HW217647   8.425   8.497   2.904 -2.1112 -0.1084 -0.6542
 4173SOL     OW17648   9.245   7.234   2.358 -0.3927  0.2633 -0.0056
 4173SOL    HW117649   9.239   7.326   2.382  3.2952  0.2619  1.3690
 4173SOL    HW217650   9.278   7.234   2.268 -1.4217  0.2652 -0.3885
 4174SOL     OW17651   4.504   1.148   5.273 -0.3190  0.3153  0.0368
 4174SOL    HW117652   4.567   1.108   5.333 -0.3736  0.1899  0.0088
 4174SOL    HW217653   4.440   1.080   5.256  0.4656 -0.1160 -1.2756
 4175SOL     OW17654   3.357  11.310   0.224  1.0605 -0.1595 -0.3350
 4175SOL    HW117655   3.307  11.275   0.298 -1.1736  0.5899 -1.4254
 4175SOL    HW217656   3.327  11.400   0.215  2.6461  0.3120 -1.0397
 4176SOL     OW17657   3.788   6.384   0.083  0.2394 -0.7469  0.1531
 4176SOL    HW117658   3.813   6.344  -0.000 -0.0397 -0.3664 -0.1124
 4176SOL    HW217659   3.871   6.414   0.121  0.5619 -2.3187  0.7489
 4177SOL     OW17660   7.367  10.493   2.205 -0.2267 -0.0367  0.0301
 4177SOL    HW117661   7.359  10.453   2.291  0.5582 -1.3057 -0.4737
 4177SOL    HW217662   7.453  10.535   2.206  0.0698 -0.6333 -0.3718
 4178SOL     OW17663  10.642   3.745   6.985 -0.0696 -0.1644 -0.8750
 4178SOL    HW117664  10.710   3.794   7.033 -1.0353  1.7806 -1.4861
 4178SOL    HW217665  10.566   3.747   7.043 -0.5576  0.3008 -1.5273
 4179SOL     OW17666   5.042   7.826   2.296  0.1004  0.1244  0.3967
 4179SOL    HW117667   5.053   7.737   2.329 -1.3408  0.2287  1.2145
 4179SOL    HW217668   5.125   7.869   2.316 -0.4565 -0.0278  3.3370
 4180SOL     OW17669   6.317   4.531   9.734  0.3114  0.1273  0.2837
 4180SOL    HW117670   6.240   4.516   9.680 -0.2227  2.6723  0.2538
 4180SOL    HW217671   6.291   4.506   9.823 -0.2550  0.1578  0.1235
 4181SOL     OW17672   0.771   5.405  10.524 -0.0354  0.3133 -0.0671
 4181SOL    HW117673   0.814   5.322  10.506 -0.0470  0.6013 -1.4408
 4181SOL    HW217674   0.839   5.471  10.509 -0.3256  0.6268 -0.0163
 4182SOL     OW17675  11.097   2.283   4.450 -0.2907 -0.2897  0.7300
 4182SOL    HW117676  11.090   2.210   4.511  2.4620 -1.3038 -0.0852
 4182SOL    HW217677  11.063   2.249   4.368 -0.0553 -0.2941  0.6334
 4183SOL     OW17678   2.308   1.487  10.619  0.1135  0.3117  0.3978
 4183SOL    HW117679   2.394   1.472  10.581 -0.4522 -0.0548 -0.7622
 4183SOL    HW217680   2.303   1.582  10.631  0.1146  0.4805 -0.8972
 4184SOL     OW17681   0.787   9.460   5.611  0.4343  0.2102  0.1270
 4184SOL    HW117682   0.768   9.479   5.703 -0.8582 -0.8182  0.0935
 4184SOL    HW217683   0.869   9.411   5.612  0.3720  0.1161  0.7530
 4185SOL     OW17684   4.595  10.558   9.379 -0.4236 -0.5029 -0.4173
 4185SOL    HW117685   4.623  10.516   9.460 -1.6425 -1.6370 -0.5592
 4185SOL    HW217686   4.592  10.651   9.401  0.6336 -0.6538  0.4157
 4186SOL     OW17687   3.194   0.472  10.289  0.1202 -0.1593 -0.5031
 4186SOL    HW117688   3.107   0.439  10.309  0.6556 -1.7497 -0.7229
 4186SOL    HW217689   3.218   0.524  10.365 -0.4091 -0.9727  0.2292
 4187SOL     OW17690   0.820   4.854   0.207 -0.1465 -0.4578  0.0119
 4187SOL    HW117691   0.755   4.874   0.274 -0.3437 -1.6358  0.1835
 4187SOL    HW217692   0.870   4.935   0.197 -1.0266  0.1611  0.5576
 4188SOL     OW17693   1.963   1.840   2.729 -0.0471 -0.4378 -0.5184
 4188SOL    HW117694   1.939   1.748   2.731 -0.4618 -0.3077  2.5429
 4188SOL    HW217695   1.881   1.887   2.714  0.1633 -0.5522 -2.0688
 4189SOL     OW17696   3.005   2.645   2.436  0.4931 -0.0893 -0.5354
 4189SOL    HW117697   2.937   2.712   2.422  0.2474 -0.3574 -0.6230
 4189SOL    HW217698   2.990   2.581   2.366  1.7159  0.5652 -1.4081
 4190SOL     OW17699   4.187   1.408  10.507  0.7281 -0.0254 -0.1656
 4190SOL    HW117700   4.273   1.426  10.467  1.1054 -3.2394 -0.8921
 4190SOL    HW217701   4.207   1.349  10.580 -0.5743  1.5883  1.5486
 4191SOL     OW17702   3.464   8.285  11.315 -0.3075  0.3874 -0.0447
 4191SOL    HW117703   3.456   8.365  11.366 -0.3552 -0.2482  0.9601
 4191SOL    HW217704   3.410   8.221  11.362  0.8249 -0.6085 -0.0614
 4192SOL     OW17705   4.400  10.056   1.813  0.0170  0.3531 -0.4039
 4192SOL    HW117706   4.371  10.144   1.836  0.2351  0.5762 -0.9872
 4192SOL    HW217707   4.339  10.027   1.746  0.0563  0.1260 -0.3435
 4193SOL     OW17708   1.199   4.957   0.788  0.5265  0.5041 -0.1345
 4193SOL    HW117709   1.108   4.932   0.770  0.8978 -2.0898  1.3554
 4193SOL    HW217710   1.250   4.913   0.719  0.7443  1.2651 -0.4673
 4194SOL     OW17711  10.179   4.547   0.122  0.0981  0.0241 -0.3845
 4194SOL    HW117712  10.120   4.619   0.097  1.7414  1.3127 -0.5790
 4194SOL    HW217713  10.267   4.583   0.112  0.9092 -1.2098  1.9255
 4195SOL     OW17714   9.030   4.335   6.032 -0.1834 -0.0390 -0.0387
 4195SOL    HW117715   9.065   4.368   5.949 -2.3765  0.5341 -0.7684
 4195SOL    HW217716   9.032   4.240   6.023 -0.5572  0.0221 -0.8147
 4196SOL     OW17717   2.098   1.008   1.934 -0.1750  0.1703  0.0348
 4196SOL    HW117718   2.049   1.088   1.919 -1.1168 -0.3134  0.5066
 4196SOL    HW217719   2.150   1.026   2.012 -2.1946 -0.4923  1.5778
 4197SOL     OW17720   8.112   5.680   0.374 -0.0229  0.8142 -0.0647
 4197SOL    HW117721   8.186   5.622   0.394  0.8934  1.5351 -1.2608
 4197SOL    HW217722   8.135   5.720   0.290 -1.2684  1.8814  0.0820
 4198SOL     OW17723   5.582   1.049   4.665  0.2677  0.2561 -0.0097
 4198SOL    HW117724   5.636   0.981   4.627 -0.5907  1.0706 -2.7796
 4198SOL    HW217725   5.511   1.002   4.708  2.2427 -0.7482  2.3100
 4199SOL     OW17726  10.520   0.251   4.213  0.7611  0.3581 -0.0293
 4199SOL    HW117727  10.511   0.306   4.291  1.8531  1.6957 -0.8150
 4199SOL    HW217728  10.588   0.295   4.161  2.4601 -2.3411 -0.1712
 4200SOL     OW17729  10.996   9.184   1.748 -0.5989  0.1057 -0.0940
 4200SOL    HW117730  10.968   9.206   1.838  0.3124 -0.2452  0.2759
 4200SOL    HW217731  11.040   9.100   1.757 -0.5131  0.0684 -0.8841
 4201SOL     OW17732   0.551   3.343   9.354  0.9942  0.2973  0.6687
 4201SOL    HW117733   0.513   3.372   9.271  0.5678 -0.7309  0.4900
 4201SOL    HW217734   0.475   3.330   9.411  1.1125 -1.1971  0.5016
 4202SOL     OW17735   3.177   7.487   1.127  0.0578 -0.5510 -0.0835
 4202SOL    HW117736   3.171   7.578   1.156  0.0706 -0.4389 -0.4259
 4202SOL    HW217737   3.148   7.435   1.202  2.8904 -0.4051  1.1735
 4203SOL     OW17738   3.447   8.185   5.007 -0.8121 -0.3278 -0.3375
 4203SOL    HW117739   3.419   8.265   5.052  1.5772  0.3091  0.0607
 4203SOL    HW217740   3.526   8.210   4.960  0.7543 -2.7658  0.8836
 4204SOL     OW17741   4.500   5.084   5.038  0.4272  0.1260  0.4179
 4204SOL    HW117742   4.495   4.997   4.997  2.0852  1.5815 -3.0307
 4204SOL    HW217743   4.411   5.118   5.033  0.3857 -0.1737 -0.9509
 4205SOL     OW17744   6.986   0.902  11.128  0.1118  0.0406  0.2131
 4205SOL    HW117745   6.951   0.979  11.173  2.7485  2.0040 -0.9338
 4205SOL    HW217746   7.006   0.841  11.198  0.1374  1.3244  1.3535
 4206SOL     OW17747  10.729   2.841   7.441 -0.1557  0.1503 -0.6485
 4206SOL    HW117748  10.718   2.783   7.365 -0.3552  0.7557 -1.0788
 4206SOL    HW217749  10.645   2.836   7.487  0.5089 -1.5191  0.4577
 4207SOL     OW17750   0.375   8.853   8.457  0.6482 -0.4954 -0.2707
 4207SOL    HW117751   0.322   8.797   8.513  0.4109  0.5860  0.6085
 4207SOL    HW217752   0.316   8.876   8.384 -0.4047  1.3407  1.0994
 4208SOL     OW17753   7.879   3.872   4.684 -0.0196  0.3539 -0.5843
 4208SOL    HW117754   7.890   3.933   4.611 -0.6765 -1.8843 -2.6211
 4208SOL    HW217755   7.874   3.785   4.642 -1.9046 -0.8373  1.9885
 4209SOL     OW17756   6.244   1.814   4.040 -0.0169  0.3832 -0.2669
 4209SOL    HW117757   6.203   1.729   4.025  1.1398  0.2144 -2.6911
 4209SOL    HW217758   6.172   1.872   4.065 -1.2869 -0.5862 -1.6295
 4210SOL     OW17759  10.106   8.808   0.622 -0.4470  0.4498 -0.5004
 4210SOL    HW117760  10.078   8.850   0.541 -1.5490 -0.5470 -0.6471
 4210SOL    HW217761  10.055   8.727   0.627  0.2817  0.0412  0.7195
 4211SOL     OW17762   2.934   3.964   2.033  0.9076  0.0786 -0.1171
 4211SOL    HW117763   2.987   4.041   2.013  0.9930 -0.6122 -2.6736
 4211SOL    HW217764   2.845   3.998   2.043  1.2686  0.7737  0.7730
 4212SOL     OW17765   2.344   6.135   7.044 -0.7093  0.2662  0.1216
 4212SOL    HW117766   2.408   6.196   7.008  0.7805 -0.4282  1.5591
 4212SOL    HW217767   2.309   6.089   6.968  0.3772  0.7552 -0.6771
 4213SOL     OW17768   7.387   7.077   7.389 -0.5823 -0.2875 -0.3628
 4213SOL    HW117769   7.313   7.071   7.329 -2.2872 -1.7990  1.8464
 4213SOL    HW217770   7.368   7.154   7.443 -1.5323 -1.7708  1.4639
 4214SOL     OW17771   6.103   6.146   6.747  0.4056  0.1677  0.4483
 4214SOL    HW117772   6.159   6.215   6.711  0.2431 -0.5793 -1.2860
 4214SOL    HW217773   6.118   6.071   6.690 -2.4979 -0.0020 -0.2026
 4215SOL     OW17774   6.988   1.958   9.441  1.0732  0.4217  0.1112
 4215SOL    HW117775   6.972   1.906   9.520  0.7783  0.0610 -0.1861
 4215SOL    HW217776   7.055   1.909   9.393 -0.8463 -0.8878 -1.2819
 4216SOL     OW17777   8.186   2.069   2.812 -0.2589 -0.5238 -0.1029
 4216SOL    HW117778   8.114   2.112   2.767  1.6290  0.9090 -1.7969
 4216SOL    HW217779   8.163   2.076   2.905 -2.0760  0.2906 -0.5834
 4217SOL     OW17780   9.125   3.834   6.052  0.3467 -0.0445 -0.0624
 4217SOL    HW117781   9.185   3.810   5.980  0.9271 -0.1612  0.4596
 4217SOL    HW217782   9.178   3.889   6.110 -0.5093  1.1533 -0.4002
 4218SOL     OW17783   3.443   1.255   8.456  0.0915 -0.4498 -0.3841
 4218SOL    HW117784   3.387   1.308   8.513  0.3159 -1.6675  0.9960
 4218SOL    HW217785   3.386   1.184   8.426  0.8138 -1.5789  0.8594
 4219SOL     OW17786   5.000   7.034   0.652 -0.2753 -0.1915  0.1616
 4219SOL    HW117787   5.068   7.020   0.587 -1.2161 -0.9105 -0.6825
 4219SOL    HW217788   4.918   7.035   0.602 -0.9571 -0.1360  1.2529
 4220SOL     OW17789   4.388   9.849   4.019 -0.0713 -0.1417 -0.1859
 4220SOL    HW117790   4.432   9.872   4.101  1.3969 -1.0131 -0.7120
 4220SOL    HW217791   4.330   9.776   4.042 -0.7441  0.5545  0.3660
 4221SOL     OW17792   2.996   9.330   2.888  0.6360  0.0044  0.0364
 4221SOL    HW117793   2.935   9.282   2.945  0.3357 -0.6212 -0.7905
 4221SOL    HW217794   3.081   9.290   2.905  1.0284  1.6023  1.9903
 4222SOL     OW17795   7.163   5.074   7.395 -0.3645  0.6779 -0.4493
 4222SOL    HW117796   7.236   5.035   7.346 -0.6226  0.8084 -0.9436
 4222SOL    HW217797   7.137   5.005   7.457 -1.2638 -0.2290 -1.7833
 4223SOL     OW17798   2.005  10.945   0.444  0.7740  0.2832  0.3005
 4223SOL    HW117799   2.075  11.011   0.439 -0.4547  1.5793 -0.5154
 4223SOL    HW217800   2.013  10.896   0.362  0.5792  0.6053  0.0855
 4224SOL     OW17801   0.212   8.630   9.886  0.0658  0.0951  0.5930
 4224SOL    HW117802   0.227   8.724   9.900 -0.6847  0.4260 -0.7897
 4224SOL    HW217803   0.278   8.588   9.940  3.0202  1.4803 -1.7743
 4225SOL     OW17804   3.361   4.835   5.317  0.2083  0.4836 -0.3939
 4225SOL    HW117805   3.380   4.831   5.411 -0.9769  1.8525 -0.0758
 4225SOL    HW217806   3.390   4.922   5.290 -1.9967  1.1511 -0.6984
 4226SOL     OW17807   3.703   5.445   4.008  0.9805  0.1899  0.9104
 4226SOL    HW117808   3.771   5.406   3.953  0.9350 -0.0172  1.0005
 4226SOL    HW217809   3.686   5.531   3.968 -0.3313 -0.6893 -0.4822
 4227SOL     OW17810   6.188   9.320   4.332 -0.0293  0.6248  0.0062
 4227SOL    HW117811   6.123   9.383   4.302 -0.2599  0.7634  0.8070
 4227SOL    HW217812   6.158   9.236   4.298  0.8071  1.0586 -1.9404
 4228SOL     OW17813   1.105   7.247   2.603  0.4967 -0.5079 -0.5266
 4228SOL    HW117814   1.152   7.285   2.677  2.3173 -3.2452 -0.2365
 4228SOL    HW217815   1.083   7.158   2.631 -1.4942 -0.5715 -2.1403
 4229SOL     OW17816   3.076   0.335   7.567 -0.0003  0.4077 -0.2824
 4229SOL    HW117817   3.108   0.245   7.560 -0.5591  0.2700 -1.1967
 4229SOL    HW217818   3.107   0.365   7.652  0.7422 -0.4343 -0.2420
 4230SOL     OW17819   1.073   4.795   9.119 -0.0888  0.0602 -0.4264
 4230SOL    HW117820   1.133   4.720   9.116  1.9355  1.4838  2.0720
 4230SOL    HW217821   1.127   4.870   9.091 -1.0189  1.1679  0.6617
 4231SOL     OW17822   1.812   8.713   5.813 -0.4972  0.5119 -0.0089
 4231SOL    HW117823   1.773   8.782   5.867 -1.3103 -0.2720  0.4236
 4231SOL    HW217824   1.805   8.634   5.867  1.3119  0.2628 -0.0957
 4232SOL     OW17825   5.305  10.109   5.606 -0.0899  0.8602  0.4674
 4232SOL    HW117826   5.378  10.049   5.626 -1.1931 -0.2630  1.2438
 4232SOL    HW217827   5.346  10.180   5.557  1.1991 -0.7308 -0.8627
 4233SOL     OW17828   7.603   5.526   9.225  0.2338 -0.5950  0.4835
 4233SOL    HW117829   7.524   5.514   9.278 -0.4971 -0.6433 -0.6015
 4233SOL    HW217830   7.657   5.450   9.247  0.2261 -0.2721  1.6485
 4234SOL     OW17831   7.070   6.980  10.035  0.4722 -0.0761 -0.0145
 4234SOL    HW117832   7.158   6.958  10.005  0.8089  1.1004  0.0748
 4234SOL    HW217833   7.056   7.069  10.004 -0.1548  0.2369  1.1340
 4235SOL     OW17834   6.644   5.489   8.074 -0.0423 -0.2324  0.6660
 4235SOL    HW117835   6.602   5.510   8.158 -0.2558 -1.0546  0.7733
 4235SOL    HW217836   6.632   5.567   8.021  0.5831  0.5020  1.5968
 4236SOL     OW17837   7.478   8.365   6.183 -0.1436  0.1821 -0.0861
 4236SOL    HW117838   7.508   8.298   6.244 -0.3414 -1.6655 -1.9679
 4236SOL    HW217839   7.529   8.443   6.204  0.3687 -0.6764  1.8680
 4237SOL     OW17840  10.532   4.950   2.306  0.1784  0.0276  0.5635
 4237SOL    HW117841  10.567   4.972   2.220 -0.1421 -2.7787 -0.3217
 4237SOL    HW217842  10.514   5.035   2.347  1.8870  1.4086 -1.4682
 4238SOL     OW17843  10.450   1.680   8.768  0.4030  0.5480  0.7004
 4238SOL    HW117844  10.381   1.698   8.705  1.4326  2.0899 -0.0041
 4238SOL    HW217845  10.420   1.722   8.849  0.4002  0.9884  0.4689
 4239SOL     OW17846   4.344  10.968   9.149 -0.1172  0.2463  0.6227
 4239SOL    HW117847   4.410  10.965   9.218  1.2388  0.4571 -0.6281
 4239SOL    HW217848   4.261  10.980   9.195  0.6842 -0.2694  2.2375
 4240SOL     OW17849   7.940   2.976   6.880 -0.1003  0.5253  0.4602
 4240SOL    HW117850   7.964   2.999   6.970  2.1142 -2.7608  0.8215
 4240SOL    HW217851   8.021   2.987   6.830 -0.4377 -0.8855 -0.4408
 4241SOL     OW17852   9.094   0.267   1.727 -0.4168  0.0610  0.0426
 4241SOL    HW117853   9.058   0.356   1.718 -0.2213  0.0919 -0.4980
 4241SOL    HW217854   9.135   0.250   1.642 -0.9027 -0.7450 -0.0295
 4242SOL     OW17855   2.274  10.429   0.847  0.7039 -0.0550 -0.0331
 4242SOL    HW117856   2.220  10.488   0.900  0.1726 -0.1328 -0.4709
 4242SOL    HW217857   2.352  10.413   0.899  0.0809 -0.3230  0.8237
 4243SOL     OW17858   9.053   0.146   3.974 -0.4980  0.0231 -0.2464
 4243SOL    HW117859   9.018   0.211   4.035 -1.0166 -0.1887 -0.3208
 4243SOL    HW217860   9.108   0.197   3.915  0.3084  0.1764  0.6175
 4244SOL     OW17861   8.254  10.435   8.895  0.3868  0.6055 -0.1129
 4244SOL    HW117862   8.203  10.390   8.828  1.3080  0.1380 -0.5179
 4244SOL    HW217863   8.345  10.425   8.866  0.9184 -0.8527  1.9300
 4245SOL     OW17864   5.108   3.499   5.884 -0.2058 -0.3371  0.2202
 4245SOL    HW117865   5.032   3.447   5.911 -0.2675 -1.0080 -1.1932
 4245SOL    HW217866   5.073   3.588   5.874 -0.3990 -0.2808  1.3018
 4246SOL     OW17867   0.186   3.116   1.876  1.3493  0.0661 -0.0531
 4246SOL    HW117868   0.272   3.154   1.858  1.4776 -0.1662  0.0811
 4246SOL    HW217869   0.126   3.170   1.824  1.6169 -0.0199 -0.4552
 4247SOL     OW17870   4.833   2.195   9.601 -0.0206 -0.0393  0.5803
 4247SOL    HW117871   4.745   2.163   9.622 -0.1696  0.5061  0.8091
 4247SOL    HW217872   4.852   2.157   9.515 -1.0007  0.8457 -0.0499
 4248SOL     OW17873  10.689   8.094   5.830 -0.3798 -0.1140  0.0549
 4248SOL    HW117874  10.757   8.064   5.890 -0.9644  0.1328  0.8467
 4248SOL    HW217875  10.717   8.061   5.744  1.4094  1.0848  0.1399
 4249SOL     OW17876   4.117   9.742   7.995 -0.5662 -0.4537 -0.2300
 4249SOL    HW117877   4.031   9.724   8.032 -0.0511 -1.7165  0.4184
 4249SOL    HW217878   4.105   9.819   7.940 -2.1896 -0.8697 -0.4808
 4250SOL     OW17879   1.823   4.348   8.167 -0.6233  0.2988  0.3878
 4250SOL    HW117880   1.834   4.327   8.074  0.0568 -0.3780  0.6177
 4250SOL    HW217881   1.773   4.274   8.202 -1.5264  0.9099  0.4140
 4251SOL     OW17882   4.429   9.743   3.007  0.1883  0.1976  0.4645
 4251SOL    HW117883   4.498   9.696   2.960 -0.8900  0.6451 -1.6060
 4251SOL    HW217884   4.424   9.829   2.964 -2.8448 -0.4555 -0.6161
 4252SOL     OW17885   3.939   2.837   9.734 -0.0230  0.7392  0.1953
 4252SOL    HW117886   3.893   2.918   9.756 -3.1330 -0.6865 -0.7761
 4252SOL    HW217887   3.885   2.797   9.666  2.1195 -1.5571 -0.2014
 4253SOL     OW17888  10.415   2.808   5.632 -0.0007 -0.0279 -0.3767
 4253SOL    HW117889  10.354   2.746   5.593 -1.2509  0.7283  0.3131
 4253SOL    HW217890  10.378   2.826   5.719  0.3933  1.5730 -0.5262
 4254SOL     OW17891   9.269   0.141   3.592  0.3656 -0.4854 -0.1757
 4254SOL    HW117892   9.339   0.101   3.643  0.6799  0.6614  0.3021
 4254SOL    HW217893   9.274   0.234   3.613 -2.4619 -0.6223  1.2784
 4255SOL     OW17894   1.777   6.691   7.099  0.4384  0.4065  0.0342
 4255SOL    HW117895   1.813   6.678   7.187  1.4352 -0.7271 -0.5207
 4255SOL    HW217896   1.715   6.620   7.088 -0.8384  1.4488  0.3912
 4256SOL     OW17897   4.066   4.869   9.420  0.0614 -0.6296 -0.4287
 4256SOL    HW117898   4.041   4.911   9.502 -0.3039 -3.8698  1.2182
 4256SOL    HW217899   4.003   4.901   9.356 -0.2446  1.2041  0.7569
 4257SOL     OW17900   0.937   2.616  10.530 -0.2364  0.3208 -0.5543
 4257SOL    HW117901   0.885   2.695  10.550  0.8120  1.2168 -1.3203
 4257SOL    HW217902   1.012   2.622  10.588 -2.0367 -2.1245  2.1511
 4258SOL     OW17903   1.847   3.766   1.780 -0.2552 -0.6198 -0.0206
 4258SOL    HW117904   1.859   3.732   1.692 -0.5107 -1.4762  0.2671
 4258SOL    HW217905   1.928   3.743   1.826  0.7094  1.5472 -0.5506
 4259SOL     OW17906   8.099   9.365   0.472  0.2436  0.0389 -0.0421
 4259SOL    HW117907   8.005   9.377   0.458  0.5314  0.7823 -1.4235
 4259SOL    HW217908   8.115   9.406   0.557 -0.4500  1.2331 -0.4582
 4260SOL     OW17909   6.163   0.261   5.473  0.3036  0.2689  0.1491
 4260SOL    HW117910   6.245   0.230   5.510 -1.0988 -0.1217  3.0597
 4260SOL    HW217911   6.134   0.190   5.416  1.6820  0.1601 -0.4284
 4261SOL     OW17912   4.570   2.381   8.275 -0.3709 -0.0970  0.0382
 4261SOL    HW117913   4.480   2.407   8.293 -0.4573  2.2533 -3.2649
 4261SOL    HW217914   4.623   2.435   8.333 -0.9980  0.3338  0.2091
 4262SOL     OW17915   2.547   3.544  11.020 -0.2879  0.1911  0.1495
 4262SOL    HW117916   2.640   3.518  11.022 -0.5583 -0.8337 -0.0610
 4262SOL    HW217917   2.511   3.506  11.100 -0.5921  0.2975  0.0606
 4263SOL     OW17918   1.926   9.555  10.867 -0.0050  0.4186  0.3498
 4263SOL    HW117919   1.894   9.491  10.802  0.5319  0.1774  0.3231
 4263SOL    HW217920   1.874   9.538  10.945  1.2870 -1.1830  0.8855
 4264SOL     OW17921   9.251   5.457   7.769  0.0935  0.2411  0.3135
 4264SOL    HW117922   9.195   5.477   7.845  0.4172 -0.9022  0.8619
 4264SOL    HW217923   9.189   5.444   7.697 -0.2744  0.3482  0.6070
 4265SOL     OW17924   6.261   2.104   5.618  0.0793 -0.1047  0.1491
 4265SOL    HW117925   6.268   2.059   5.533  0.2958  0.2146 -0.0039
 4265SOL    HW217926   6.272   2.035   5.683 -2.6690 -0.7868 -0.0689
 4266SOL     OW17927   6.406   3.329   5.413 -0.2313  0.0523 -0.6341
 4266SOL    HW117928   6.421   3.287   5.328  0.1910 -1.2316  0.0681
 4266SOL    HW217929   6.483   3.384   5.427  1.1655 -2.0707  0.2927
 4267SOL     OW17930   8.014   6.504   9.714  0.1123  0.2712 -0.1158
 4267SOL    HW117931   7.955   6.579   9.702  1.1803  1.0429 -0.5880
 4267SOL    HW217932   7.957   6.428   9.702 -0.6214  1.0095 -1.5444
 4268SOL     OW17933   4.577   3.607   7.202 -0.3173 -0.0226 -0.3539
 4268SOL    HW117934   4.668   3.592   7.176 -0.2811  0.7416 -0.6648
 4268SOL    HW217935   4.568   3.702   7.208 -0.4458 -0.1387  2.0009
 4269SOL     OW17936   8.408   0.774   0.687 -0.0461 -0.0004 -0.5765
 4269SOL    HW117937   8.442   0.763   0.776  2.8689 -1.9801 -1.8798
 4269SOL    HW217938   8.468   0.834   0.645 -1.2122  0.6421 -1.3637
 4270SOL     OW17939   8.882   8.514   8.105 -0.3457 -0.1829 -0.0222
 4270SOL    HW117940   8.886   8.419   8.117  0.7461 -0.1762 -0.2080
 4270SOL    HW217941   8.800   8.540   8.146 -0.8465 -1.2554 -0.3101
 4271SOL     OW17942   0.489   8.562   8.046 -0.1942  0.1857 -0.2528
 4271SOL    HW117943   0.438   8.571   7.965 -1.4335  1.7320  0.6827
 4271SOL    HW217944   0.580   8.559   8.017 -0.6160  1.0029 -1.6972
 4272SOL     OW17945   2.210   0.747  10.190 -0.1141  0.3001 -0.1401
 4272SOL    HW117946   2.269   0.821  10.209  0.2729  0.1205 -0.6305
 4272SOL    HW217947   2.152   0.743  10.265  2.6654 -1.6791  1.9934
 4273SOL     OW17948   5.646   3.151   7.705 -0.0965 -0.3314  0.0760
 4273SOL    HW117949   5.586   3.078   7.689 -1.1909  0.3378  1.0161
 4273SOL    HW217950   5.615   3.220   7.646 -1.0622  0.4476  1.4577
 4274SOL     OW17951   2.689  11.081   1.161 -0.9488  0.2552 -0.2072
 4274SOL    HW117952   2.661  11.149   1.100  0.7936 -0.8529 -2.2822
 4274SOL    HW217953   2.613  11.023   1.169 -0.8884 -0.1020 -2.0678
 4275SOL     OW17954   2.151  10.920  10.759  0.2948 -0.2664  0.1852
 4275SOL    HW117955   2.079  10.984  10.765  0.0325 -0.3246 -2.0388
 4275SOL    HW217956   2.108  10.836  10.749  0.6799 -0.3833 -0.4699
 4276SOL     OW17957   3.608   9.364   9.448  0.3438 -0.3103 -0.2866
 4276SOL    HW117958   3.539   9.304   9.419  1.6195 -1.2874 -1.3447
 4276SOL    HW217959   3.569   9.451   9.439 -0.1776 -0.7412 -2.6089
 4277SOL     OW17960  10.362   7.877   0.569  0.9483 -0.0919  0.3266
 4277SOL    HW117961  10.420   7.804   0.547 -1.1236 -1.5972 -0.2775
 4277SOL    HW217962  10.278   7.836   0.590  0.5960  1.9163  3.0661
 4278SOL     OW17963   6.683   6.451   5.218  0.5008 -0.2223  0.4986
 4278SOL    HW117964   6.657   6.409   5.300 -2.0540  2.0558  0.9048
 4278SOL    HW217965   6.739   6.524   5.245 -0.0099  0.2834  0.2090
 4279SOL     OW17966   7.044   6.474  10.735  0.3671  0.2165 -0.0924
 4279SOL    HW117967   7.059   6.443  10.645 -0.6090  0.0386 -0.2013
 4279SOL    HW217968   7.085   6.561  10.737  0.5158  0.1651 -0.6685
 4280SOL     OW17969   2.743  10.942   2.597 -0.1173 -0.3467 -0.6318
 4280SOL    HW117970   2.797  11.019   2.578 -2.3479  0.8999 -2.1417
 4280SOL    HW217971   2.654  10.969   2.576 -1.1010 -2.9974 -0.1008
 4281SOL     OW17972   7.103   1.453   8.754  0.2013 -0.2030  0.3398
 4281SOL    HW117973   7.054   1.534   8.738 -0.6841 -0.6704  0.6147
 4281SOL    HW217974   7.038   1.393   8.790  1.0341 -0.7811  0.9050
 4282SOL     OW17975   0.249   0.170   3.087  0.0817  0.3911  0.1552
 4282SOL    HW117976   0.251   0.173   3.182  0.4100  0.3099  0.1526
 4282SOL    HW217977   0.214   0.255   3.060  0.5053  0.6248  0.3341
 4283SOL     OW17978   2.134   3.428  10.533  0.8966 -0.1927  0.6052
 4283SOL    HW117979   2.166   3.514  10.506 -1.5785  0.1493 -1.3670
 4283SOL    HW217980   2.056   3.413  10.481 -0.4262 -2.3744  3.0744
 4284SOL     OW17981   5.740   8.282   3.566 -0.1933  0.5010 -0.4789
 4284SOL    HW117982   5.662   8.338   3.560 -2.9391 -3.2202 -1.2432
 4284SOL    HW217983   5.766   8.287   3.658 -1.5091  1.5386 -0.1423
 4285SOL     OW17984   3.970  10.456   1.367 -0.5148  0.4101  0.4140
 4285SOL    HW117985   3.900  10.465   1.302 -0.7667  0.3480  0.6764
 4285SOL    HW217986   3.967  10.365   1.394 -0.8492  0.5981  1.0089
 4286SOL     OW17987   2.072   7.807   2.753 -0.1738 -0.3425  0.6205
 4286SOL    HW117988   2.164   7.782   2.742  0.1686  0.6555  1.1807
 4286SOL    HW217989   2.072   7.902   2.750 -1.2024 -0.3349  0.5926
 4287SOL     OW17990   9.368   3.582   9.466  0.0606 -0.1526  0.3813
 4287SOL    HW117991   9.410   3.623   9.391 -0.3502  0.8705  0.7031
 4287SOL    HW217992   9.274   3.588   9.448 -0.0264 -0.3225  0.7651
 4288SOL     OW17993   2.039   1.698   1.834  0.3403 -0.1011 -0.5685
 4288SOL    HW117994   2.060   1.614   1.794 -0.0247  0.7397 -2.5816
 4288SOL    HW217995   1.945   1.708   1.821  0.2599  0.3033  0.2925
 4289SOL     OW17996  10.365   9.236   5.036 -0.2200 -0.3095  0.4359
 4289SOL    HW117997  10.363   9.329   5.060 -0.2547 -0.2140  0.0528
 4289SOL    HW217998  10.294   9.225   4.973  2.5013  0.3251 -2.8900
 4290SOL     OW17999  10.538   8.308   2.026  0.3546 -0.0739 -0.3607
 4290SOL    HW118000  10.448   8.330   2.004 -0.2260 -1.8870  0.0524
 4290SOL    HW218001  10.575   8.273   1.945  0.9299  1.3818 -0.7319
 4291SOL     OW18002   6.212  11.009   9.905  0.1313  0.1998 -0.7483
 4291SOL    HW118003   6.238  10.997   9.814 -0.2558 -2.3856 -0.5612
 4291SOL    HW218004   6.294  11.023   9.952  0.2610  2.4160 -1.5861
 4292SOL     OW18005   8.697   2.747   5.029  0.5648 -0.4995 -0.4321
 4292SOL    HW118006   8.636   2.717   5.096 -1.1647  3.4684 -0.1007
 4292SOL    HW218007   8.651   2.730   4.946  0.9032 -1.5642 -0.4007
 4293SOL     OW18008   4.840   0.033   9.010 -0.0784  0.4599 -0.2772
 4293SOL    HW118009   4.898  -0.007   8.945  1.1044  2.1490 -0.3015
 4293SOL    HW218010   4.751   0.014   8.978  0.4456 -1.3438 -0.7407
 4294SOL     OW18011  10.737  10.071  10.555 -0.3990 -0.3169  0.1037
 4294SOL    HW118012  10.682   9.993  10.558 -1.4897  0.4909  1.7590
 4294SOL    HW218013  10.815  10.047  10.606  0.3854 -1.1364 -1.4464
 4295SOL     OW18014   9.930   0.450   7.369  0.1323 -0.4832 -0.0171
 4295SOL    HW118015   9.921   0.545   7.359 -0.4855 -0.6603 -1.2578
 4295SOL    HW218016   9.980   0.439   7.449 -1.9011  0.8302  1.4729
 4296SOL     OW18017   9.200  10.627   4.983 -0.2521  0.7048 -0.1832
 4296SOL    HW118018   9.223  10.535   4.988 -0.0745  0.7216 -0.6765
 4296SOL    HW218019   9.248  10.660   4.907 -0.3232  1.1967 -0.0148
 4297SOL     OW18020   4.785  11.000   1.070 -0.7216  0.0031 -0.0593
 4297SOL    HW118021   4.867  11.047   1.090  0.7645 -2.8660  0.9673
 4297SOL    HW218022   4.756  10.967   1.155 -1.7998 -0.7897 -0.7261
 4298SOL     OW18023  10.925   6.444   6.650 -0.1910  0.2631 -0.1961
 4298SOL    HW118024  10.842   6.491   6.648 -0.7688 -0.7565 -0.4688
 4298SOL    HW218025  10.950   6.436   6.557 -0.8709 -1.3167 -0.2485
 4299SOL     OW18026   4.402   4.472   3.557  0.0745  0.2394 -0.0516
 4299SOL    HW118027   4.383   4.559   3.592  2.3314  0.3822  0.9092
 4299SOL    HW218028   4.422   4.419   3.635 -0.9485 -1.0656 -0.6549
 4300SOL     OW18029   8.495   0.612   1.002 -0.1354  0.1555  0.3325
 4300SOL    HW118030   8.516   0.519   1.001 -2.3720 -0.3752  0.3295
 4300SOL    HW218031   8.495   0.636   1.095 -1.6542 -0.3584  0.4733
 4301SOL     OW18032   6.339   8.897   8.122 -0.0832  0.0606  0.3066
 4301SOL    HW118033   6.275   8.952   8.076  1.1662  0.1799 -1.3450
 4301SOL    HW218034   6.293   8.815   8.137 -0.9266  0.4537 -0.0702
 4302SOL     OW18035   0.090   6.498   8.487 -0.1328  0.1673 -0.5398
 4302SOL    HW118036   0.141   6.540   8.418 -2.9287  2.7464 -1.1516
 4302SOL    HW218037   0.142   6.511   8.567  0.8951  1.3421 -1.3861
 4303SOL     OW18038   0.506  10.260   3.969 -0.2498 -0.2968  0.1744
 4303SOL    HW118039   0.493  10.173   4.006 -1.2085 -0.2369 -0.0124
 4303SOL    HW218040   0.482  10.250   3.877  1.1237 -0.1989 -0.2037
 4304SOL     OW18041   3.320   5.288   0.706 -0.2075  0.4032  0.1811
 4304SOL    HW118042   3.361   5.237   0.636 -0.8517  0.3406 -0.1548
 4304SOL    HW218043   3.393   5.321   0.758  0.3832  1.8145 -1.4777
 4305SOL     OW18044   5.510   4.663   7.788 -0.3151 -0.0126  0.5170
 4305SOL    HW118045   5.442   4.673   7.722 -0.3236 -1.1161  0.3458
 4305SOL    HW218046   5.592   4.663   7.738 -0.4022 -2.3755  0.3245
 4306SOL     OW18047   4.283   2.605   2.975  0.4731 -0.5177 -0.1479
 4306SOL    HW118048   4.342   2.579   3.046  1.0966 -1.5143 -1.0160
 4306SOL    HW218049   4.198   2.569   3.001  0.8194 -1.3705 -0.1681
 4307SOL     OW18050   9.310   7.941   9.483  0.3868 -0.2141  0.3232
 4307SOL    HW118051   9.275   7.961   9.570 -0.9672  1.3189 -0.5370
 4307SOL    HW218052   9.237   7.896   9.438  0.9689 -0.7234 -0.1235
 4308SOL     OW18053  10.619   8.870   3.924  0.4265  0.0590 -0.2061
 4308SOL    HW118054  10.634   8.915   3.841  1.6626 -0.9215 -0.5432
 4308SOL    HW218055  10.597   8.780   3.899 -0.1415 -0.0043  0.5044
 4309SOL     OW18056   0.420   7.170   3.500 -0.2194  0.4727  0.0523
 4309SOL    HW118057   0.455   7.218   3.575  1.4940 -1.1269  0.3257
 4309SOL    HW218058   0.454   7.081   3.511 -1.4724 -0.2413 -1.6411
 4310SOL     OW18059  10.378   4.229   5.282  0.1509  0.0461  0.2002
 4310SOL    HW118060  10.462   4.189   5.260  0.2318  1.5409 -2.4085
 4310SOL    HW218061  10.313   4.161   5.264  0.5729 -0.1372 -0.6301
 4311SOL     OW18062   2.505   4.661   2.446 -0.1228  0.1319 -0.3688
 4311SOL    HW118063   2.595   4.662   2.480  0.0803  0.0938 -0.9007
 4311SOL    HW218064   2.479   4.569   2.451  0.6531 -0.2034 -2.2523
 4312SOL     OW18065   6.647   4.733   7.910 -0.1271 -0.0827  0.0862
 4312SOL    HW118066   6.694   4.683   7.843 -0.1205  0.8628 -0.6258
 4312SOL    HW218067   6.709   4.799   7.939  0.2061 -1.0962  1.7458
 4313SOL     OW18068  11.237   4.680   6.334  0.0895 -0.7552  0.4235
 4313SOL    HW118069  11.218   4.768   6.302  1.3173 -0.2841  0.9211
 4313SOL    HW218070  11.191   4.622   6.275 -1.3312  0.2468  0.5146
 4314SOL     OW18071   0.977   8.834   1.100  0.0928 -0.1285  0.0691
 4314SOL    HW118072   0.955   8.821   1.193  1.8811 -0.4302  0.4900
 4314SOL    HW218073   1.030   8.914   1.100 -1.1086  0.6779 -0.9084
 4315SOL     OW18074   0.312   6.443   0.183 -0.2597  0.5066 -0.2087
 4315SOL    HW118075   0.324   6.391   0.104  1.9834  2.1388 -0.9927
 4315SOL    HW218076   0.401   6.460   0.214 -1.0996 -0.9358  3.2667
 4316SOL     OW18077   7.622   0.327   9.406  0.8964 -0.3567 -0.3073
 4316SOL    HW118078   7.534   0.290   9.410  1.4895 -1.7182  0.3317
 4316SOL    HW218079   7.651   0.331   9.497  1.0018  1.3291 -0.3949
 4317SOL     OW18080   1.905   9.251   6.483  0.2265 -0.0806  0.5197
 4317SOL    HW118081   1.844   9.189   6.521 -0.6730  0.4153 -0.0791
 4317SOL    HW218082   1.883   9.335   6.525 -4.1090  1.5813 -4.3481
 4318SOL     OW18083   6.563   9.507   3.466  0.4646  0.4133  0.0496
 4318SOL    HW118084   6.519   9.525   3.549  0.2293  0.2629 -0.0438
 4318SOL    HW218085   6.527   9.423   3.437  0.1637  0.7214 -0.4656
 4319SOL     OW18086   9.248  11.178   4.220  0.2465  0.3917  0.1009
 4319SOL    HW118087   9.287  11.262   4.194  1.0418 -0.3732 -1.2381
 4319SOL    HW218088   9.270  11.168   4.312  1.7488  0.7956 -0.2012
 4320SOL     OW18089   5.368   7.797   4.573 -0.2489 -0.6136  0.0908
 4320SOL    HW118090   5.379   7.881   4.617  0.5275 -1.0585  0.7649
 4320SOL    HW218091   5.436   7.742   4.611 -0.4510 -1.4040 -0.6945
 4321SOL     OW18092   4.968   3.221   3.511 -0.3482 -0.3548  0.5497
 4321SOL    HW118093   4.956   3.224   3.416 -0.5060 -0.9821  0.5480
 4321SOL    HW218094   4.993   3.130   3.530  3.2759  0.5914  0.6907
 4322SOL     OW18095   5.511   2.459   1.154 -0.1337 -0.3375  0.3528
 4322SOL    HW118096   5.546   2.397   1.089  2.3790 -0.1583  1.4743
 4322SOL    HW218097   5.417   2.442   1.155 -0.0725 -1.1129 -2.5251
 4323SOL     OW18098   0.783   7.286   8.568 -0.0647  0.0552  0.3149
 4323SOL    HW118099   0.724   7.217   8.538 -0.0907 -0.3849  1.3506
 4323SOL    HW218100   0.803   7.337   8.489  0.4902 -1.5336 -0.5890
 4324SOL     OW18101   0.609   5.923   6.400  0.0977  0.0069 -0.0330
 4324SOL    HW118102   0.654   5.995   6.444 -0.7939  1.6952 -1.7895
 4324SOL    HW218103   0.625   5.938   6.307 -0.1329 -2.0703 -0.4365
 4325SOL     OW18104   8.188  10.431   9.501  0.1512 -0.0915  0.1815
 4325SOL    HW118105   8.136  10.354   9.479  1.0534 -0.8010  0.5323
 4325SOL    HW218106   8.278  10.407   9.480  0.4373  0.8626  0.3006
 4326SOL     OW18107   8.936   4.948   7.442  0.3195  0.0955 -0.1645
 4326SOL    HW118108   8.843   4.967   7.434  0.0334 -0.6674  1.0752
 4326SOL    HW218109   8.961   4.913   7.357 -0.5543  0.1920 -0.4657
 4327SOL     OW18110   8.192   3.826   2.308  0.7938  0.0817  0.4701
 4327SOL    HW118111   8.248   3.770   2.254  0.6488 -0.7129  1.1288
 4327SOL    HW218112   8.242   3.906   2.321  0.9156  0.1937 -0.6651
 4328SOL     OW18113   3.003   8.523   1.376 -0.0869  0.2052  0.2233
 4328SOL    HW118114   2.974   8.598   1.428  0.3225  0.4656  0.0833
 4328SOL    HW218115   3.090   8.502   1.411 -0.0318  0.0503 -0.0060
 4329SOL     OW18116   8.039   5.354   8.684  0.3309  0.3743  0.2174
 4329SOL    HW118117   8.043   5.406   8.765  0.3514  1.0170 -0.1888
 4329SOL    HW218118   8.130   5.349   8.654  0.1655  1.2791 -0.4686
 4330SOL     OW18119  10.506   8.372   2.492 -0.1648 -0.0298  0.8136
 4330SOL    HW118120  10.495   8.313   2.566 -1.3499  1.4892  1.8956
 4330SOL    HW218121  10.496   8.316   2.415 -0.5425 -1.3618  1.8087
 4331SOL     OW18122   1.755  10.451   6.951 -0.1528 -0.4045 -0.4385
 4331SOL    HW118123   1.802  10.443   6.868 -0.1684 -0.3595 -0.4512
 4331SOL    HW218124   1.800  10.522   6.997 -0.1665 -0.4060 -0.4237
 4332SOL     OW18125   2.359   3.982   9.617 -0.1645 -0.6414 -0.4131
 4332SOL    HW118126   2.300   3.919   9.657 -1.0114 -1.0599 -2.2481
 4332SOL    HW218127   2.328   4.067   9.649 -1.3525 -0.9026 -0.8333
 4333SOL     OW18128   7.657   7.929   4.596 -0.2780  0.5959  0.0774
 4333SOL    HW118129   7.709   7.853   4.571 -1.7074 -0.9242  1.6382
 4333SOL    HW218130   7.654   7.927   4.692 -0.9337  2.1970  0.1164
 4334SOL     OW18131   3.438   7.855   2.684 -0.1659  0.1852  0.0102
 4334SOL    HW118132   3.355   7.846   2.731 -1.3036  0.1754 -1.9109
 4334SOL    HW218133   3.416   7.912   2.610  1.9224  1.4229  0.3293
 4335SOL     OW18134   5.541   2.909   8.256  0.1897  0.6611  0.4577
 4335SOL    HW118135   5.631   2.877   8.256  0.4999  1.5162  0.8790
 4335SOL    HW218136   5.526   2.937   8.347 -0.2654  1.1709  0.2252
 4336SOL     OW18137  10.832   6.960   0.927 -0.1527 -0.0447  0.2518
 4336SOL    HW118138  10.773   6.887   0.944 -0.7613 -0.2832 -2.6868
 4336SOL    HW218139  10.913   6.937   0.972 -1.2387 -1.1825  1.6839
 4337SOL     OW18140   4.423   4.933  10.110 -0.1873 -0.3165 -0.4401
 4337SOL    HW118141   4.439   4.839  10.117  0.8968 -0.1498 -0.6466
 4337SOL    HW218142   4.414   4.949  10.016  1.5240  0.0906 -0.5434
 4338SOL     OW18143   9.816  10.342   2.434  1.0073  0.3433  0.0988
 4338SOL    HW118144   9.848  10.426   2.400 -0.1128  1.0117  0.6680
 4338SOL    HW218145   9.830  10.348   2.528 -0.9406  0.7341  0.3840
 4339SOL     OW18146  10.628   0.004  10.348 -0.1692 -0.2592  0.1712
 4339SOL    HW118147  10.668   0.052  10.420 -0.0310 -0.8908  0.5199
 4339SOL    HW218148  10.539  -0.013  10.377 -0.1841 -0.3078  0.0941
 4340SOL     OW18149   1.929   7.361   3.460 -0.2866  0.1595 -0.7245
 4340SOL    HW118150   1.925   7.387   3.552  1.5841  0.9028 -0.8420
 4340SOL    HW218151   1.843   7.385   3.425 -2.0974 -2.7914  1.4957
 4341SOL     OW18152   2.132   2.519   0.860 -0.1406  0.1944  0.0852
 4341SOL    HW118153   2.148   2.550   0.771 -0.6177 -1.3837 -0.5613
 4341SOL    HW218154   2.040   2.542   0.877 -0.6071 -1.1900 -0.5354
 4342SOL     OW18155   4.016   3.542   6.501 -0.1265 -0.2126  0.3289
 4342SOL    HW118156   4.006   3.458   6.546  0.2302  0.2990  1.3839
 4342SOL    HW218157   3.930   3.557   6.461  0.4142 -2.0518 -1.6318
 4343SOL     OW18158  10.909   4.975   7.022 -0.3293  0.2515 -0.2005
 4343SOL    HW118159  10.821   4.993   7.055 -0.1912  0.6746 -0.0652
 4343SOL    HW218160  10.904   4.886   6.987 -0.4360 -0.2738  1.1296
 4344SOL     OW18161   5.844   6.142   4.528 -0.2027  0.2909 -0.5110
 4344SOL    HW118162   5.834   6.224   4.578  1.4491  0.8026 -0.9698
 4344SOL    HW218163   5.768   6.089   4.553 -0.8255  1.6110  0.4799
 4345SOL     OW18164   7.789   6.475   6.719  0.1602  0.3863 -0.1623
 4345SOL    HW118165   7.705   6.489   6.764 -0.5350 -2.5494 -0.4609
 4345SOL    HW218166   7.840   6.422   6.780  0.8864  0.1065 -1.0145
 4346SOL     OW18167   8.850  10.874  11.117 -0.4591  0.3893  0.1903
 4346SOL    HW118168   8.935  10.866  11.159  1.0774  2.1533 -2.4510
 4346SOL    HW218169   8.800  10.933  11.174  0.8643  1.1089  0.6210
 4347SOL     OW18170   1.130   3.019  10.912 -0.0541  0.5685 -0.6873
 4347SOL    HW118171   1.195   3.089  10.906 -0.0891  0.6522 -0.0860
 4347SOL    HW218172   1.090   3.016  10.826 -0.2616  1.4886 -0.6202
 4348SOL     OW18173   4.849   1.168  11.055  0.6577  0.3407 -0.2114
 4348SOL    HW118174   4.788   1.224  11.006 -0.2314  0.7889  1.3687
 4348SOL    HW218175   4.867   1.217  11.135  1.2173 -0.8744  0.4111
 4349SOL     OW18176   1.190   1.546   7.345  0.3831  0.0262  0.4993
 4349SOL    HW118177   1.246   1.563   7.421 -2.5536  1.0286  2.5462
 4349SOL    HW218178   1.212   1.614   7.282  1.9008  0.0167  1.0069
 4350SOL     OW18179   2.686   9.743  10.495  0.0275 -0.0530 -0.4406
 4350SOL    HW118180   2.721   9.827  10.466  0.6491  0.2329  1.1222
 4350SOL    HW218181   2.710   9.681  10.425  3.1447  0.2473  0.3348
 4351SOL     OW18182   2.117   2.001   1.716 -0.2367 -0.5211 -0.1483
 4351SOL    HW118183   2.141   2.051   1.794 -1.9872  1.0127 -0.5555
 4351SOL    HW218184   2.070   1.925   1.750  0.3007 -0.6299  0.3577
 4352SOL     OW18185  10.628   8.357   4.826 -0.0311 -0.2442 -0.3518
 4352SOL    HW118186  10.555   8.307   4.788 -0.2354  0.2097 -0.5600
 4352SOL    HW218187  10.593   8.445   4.839  0.3681 -0.1190 -0.1053
 4353SOL     OW18188   3.786   3.064   3.412  0.4204 -0.0262 -0.3158
 4353SOL    HW118189   3.722   3.014   3.361  1.4213 -0.9924 -0.6451
 4353SOL    HW218190   3.742   3.146   3.432 -0.6075 -0.3352 -1.2801
 4354SOL     OW18191   9.256  11.095   9.688 -0.0084  0.3932  0.2335
 4354SOL    HW118192   9.192  11.127   9.752 -1.5501 -1.3839 -0.3507
 4354SOL    HW218193   9.327  11.059   9.741 -0.9849 -0.5138  0.9524
 4355SOL     OW18194   5.905   3.894   7.820 -0.0107 -0.5254 -0.1255
 4355SOL    HW118195   5.852   3.929   7.892 -2.0140 -2.4004 -0.6116
 4355SOL    HW218196   5.856   3.818   7.790  2.1522 -1.3296 -1.7452
 4356SOL     OW18197   8.637   5.241   8.981 -0.3350 -0.7338  0.1040
 4356SOL    HW118198   8.686   5.194   8.914  0.5028  1.5362 -0.9158
 4356SOL    HW218199   8.678   5.216   9.063  1.8184  0.2562 -0.6486
 4357SOL     OW18200   7.602   5.740   5.941 -0.2826 -0.6741 -0.5867
 4357SOL    HW118201   7.515   5.720   5.905 -1.1916  0.9466  0.6293
 4357SOL    HW218202   7.642   5.798   5.876 -1.3629  1.1041  0.3011
 4358SOL     OW18203   0.759   1.122   5.140  0.9280  0.3504  0.4166
 4358SOL    HW118204   0.815   1.199   5.130  0.9781  0.5868  2.3245
 4358SOL    HW218205   0.677   1.156   5.175  0.3711 -0.2820 -0.2563
 4359SOL     OW18206   1.141  10.092   4.455  0.0713  0.4392  0.2515
 4359SOL    HW118207   1.215  10.048   4.413 -0.2251 -0.7144  0.9337
 4359SOL    HW218208   1.074  10.098   4.386  1.5455  3.4324 -1.0217
 4360SOL     OW18209   5.666   9.898   2.503  0.2872 -0.5354  0.4169
 4360SOL    HW118210   5.646   9.850   2.423 -1.6341 -0.7245  0.9705
 4360SOL    HW218211   5.759   9.884   2.517  0.5870 -0.7183 -1.6333
 4361SOL     OW18212   4.895   5.521  10.512 -0.1377  0.1826  0.7094
 4361SOL    HW118213   4.941   5.446  10.474  0.6659  0.3251  1.3963
 4361SOL    HW218214   4.804   5.491  10.521 -0.1241 -0.1948 -0.3805
 4362SOL     OW18215   4.391   3.035   6.698  0.2014 -0.2771  0.2124
 4362SOL    HW118216   4.318   3.003   6.750 -0.2747 -0.4514 -0.5583
 4362SOL    HW218217   4.363   3.122   6.669  0.1335 -0.4987 -0.3987
 4363SOL     OW18218   8.696   6.690   6.185 -0.1798  0.1858 -0.4177
 4363SOL    HW118219   8.711   6.670   6.277  0.0352 -3.0025 -1.0774
 4363SOL    HW218220   8.664   6.780   6.184  0.6314  0.5476  2.6755
 4364SOL     OW18221   2.578   3.256   5.973 -0.4419  0.5033 -0.7208
 4364SOL    HW118222   2.544   3.178   6.016  1.8363 -0.5037 -0.7098
 4364SOL    HW218223   2.556   3.328   6.033 -2.3042 -0.1213 -0.6074
 4365SOL     OW18224   0.972   8.911   7.584 -0.4899  0.3330 -0.5552
 4365SOL    HW118225   1.037   8.887   7.651 -1.6529 -2.2819 -0.3032
 4365SOL    HW218226   0.892   8.927   7.633 -1.3482 -1.5971 -1.2585
 4366SOL     OW18227   7.458  10.863   0.428 -0.3577 -0.2183 -0.2941
 4366SOL    HW118228   7.500  10.777   0.438 -1.1907 -0.6093 -0.1318
 4366SOL    HW218229   7.365  10.843   0.415 -0.6016  0.6732  0.0636
 4367SOL     OW18230   1.105   2.087   7.789  0.5501  0.1337  0.0402
 4367SOL    HW118231   1.160   2.025   7.835 -1.0876 -1.5971 -0.2587
 4367SOL    HW218232   1.053   2.129   7.857 -0.4634 -1.0033 -0.0112
 4368SOL     OW18233   0.804   6.831   7.107  0.2543  0.3122  0.3466
 4368SOL    HW118234   0.819   6.789   7.191  0.2800  0.7104  0.5429
 4368SOL    HW218235   0.884   6.817   7.057  0.1738 -0.0713  0.3251
 4369SOL     OW18236   0.621   1.473   9.191  0.1441 -0.0399  0.2295
 4369SOL    HW118237   0.559   1.421   9.242  0.6677 -0.0452  0.8716
 4369SOL    HW218238   0.604   1.563   9.218 -0.2248  0.0503 -0.2975
 4370SOL     OW18239   7.765   3.544   2.859 -0.0960  0.3572  0.4898
 4370SOL    HW118240   7.709   3.470   2.883 -1.5741  0.7698 -1.6080
 4370SOL    HW218241   7.714   3.621   2.883 -1.0094  0.7549 -2.6027
 4371SOL     OW18242   2.259   8.251   8.990 -0.0131 -0.3741  0.8116
 4371SOL    HW118243   2.231   8.189   9.057  1.7098 -1.1754  0.8240
 4371SOL    HW218244   2.348   8.275   9.016  0.9380 -1.2304 -1.5535
 4372SOL     OW18245   8.703   4.978   2.582  0.3153  0.5019  0.0260
 4372SOL    HW118246   8.621   5.027   2.577  0.4593  0.7962  0.4486
 4372SOL    HW218247   8.765   5.031   2.532 -0.0628 -0.3902 -1.4173
 4373SOL     OW18248   7.114   2.241   3.802  0.0462 -0.3371 -0.1690
 4373SOL    HW118249   7.209   2.251   3.793  0.3235 -1.5609  1.1517
 4373SOL    HW218250   7.082   2.329   3.818  1.0213  0.0183 -0.1310
 4374SOL     OW18251   0.693   3.476   0.945 -0.1423  0.2196 -0.9098
 4374SOL    HW118252   0.767   3.534   0.960 -0.3587  0.0036  1.2315
 4374SOL    HW218253   0.624   3.511   1.002 -0.2464 -2.1676  0.4611
 4375SOL     OW18254  10.777   8.741   8.380 -0.4484  0.0305 -0.0468
 4375SOL    HW118255  10.868   8.724   8.405 -0.3741  2.1188  1.2624
 4375SOL    HW218256  10.782   8.762   8.287  0.3042 -0.6626 -0.1676
 4376SOL     OW18257   0.128   0.995   3.717  0.0201 -0.1849 -0.4395
 4376SOL    HW118258   0.218   0.971   3.699 -0.3560 -0.9528 -1.2846
 4376SOL    HW218259   0.098   1.041   3.638 -0.1689  0.5440  0.0402
 4377SOL     OW18260   8.755   3.486   5.280  0.1422 -0.5969 -0.7200
 4377SOL    HW118261   8.663   3.472   5.257  0.8131 -3.6015 -1.7825
 4377SOL    HW218262   8.752   3.524   5.368 -2.0949 -1.6515 -0.2969
 4378SOL     OW18263   8.477   7.701   8.271 -0.1325  0.4004  0.4784
 4378SOL    HW118264   8.460   7.679   8.363 -0.1551  0.6344  0.5302
 4378SOL    HW218265   8.493   7.616   8.229 -2.9919  0.0030  0.0891
 4379SOL     OW18266   6.551   4.961   1.236 -0.0748  0.0888 -0.0152
 4379SOL    HW118267   6.600   5.010   1.171  0.5100 -1.9707 -1.1583
 4379SOL    HW218268   6.614   4.945   1.307  0.7517 -1.9898 -1.1918
 4380SOL     OW18269   9.956  11.307   3.829 -0.0228 -0.7699  1.0000
 4380SOL    HW118270   9.902  11.346   3.761 -0.9700 -1.9891  1.0464
 4380SOL    HW218271  10.000  11.382   3.870 -0.6222  0.1021  0.0722
 4381SOL     OW18272   3.183   0.354   7.082 -0.0377  0.0693 -0.1907
 4381SOL    HW118273   3.220   0.411   7.015  0.0632  1.4785  1.0519
 4381SOL    HW218274   3.093   0.385   7.093  0.0433  0.0362  0.5504
 4382SOL     OW18275   2.887   9.901   7.915 -0.0292  0.1213 -0.1163
 4382SOL    HW118276   2.887   9.807   7.899 -0.0319  0.2422 -0.8302
 4382SOL    HW218277   2.804   9.932   7.879  1.0888  0.7769 -2.2582
 4383SOL     OW18278  11.278   1.753   7.498  0.3339  0.5960  0.3529
 4383SOL    HW118279  11.206   1.696   7.470  1.9094 -0.6937 -1.1507
 4383SOL    HW218280  11.263   1.835   7.450 -0.6643  0.6835  0.7974
 4384SOL     OW18281  10.292   6.814   8.378 -0.5592  0.1521 -0.4567
 4384SOL    HW118282  10.272   6.881   8.313 -0.3219  0.8895  0.2187
 4384SOL    HW218283  10.291   6.860   8.462 -0.6713 -0.7440  0.0496
 4385SOL     OW18284   1.878   9.747   9.072  0.5229  0.1286 -0.0661
 4385SOL    HW118285   1.845   9.673   9.125  1.1748  0.5587  0.9522
 4385SOL    HW218286   1.889   9.710   8.984 -0.2773 -0.6821  0.1633
 4386SOL     OW18287   1.380  10.423   5.586 -0.4709  0.1623  0.1767
 4386SOL    HW118288   1.392  10.432   5.681  0.6842  0.4032  0.0169
 4386SOL    HW218289   1.297  10.376   5.577  0.0117 -0.9614  1.3356
 4387SOL     OW18290   3.538  10.495   9.646 -0.4224  0.1337  0.1114
 4387SOL    HW118291   3.586  10.565   9.691 -0.6347  0.6444 -0.4511
 4387SOL    HW218292   3.557  10.416   9.697  2.8689 -0.1133 -1.3826
 4388SOL     OW18293   3.342  10.604   7.768  0.2890  0.2511  0.3070
 4388SOL    HW118294   3.372  10.626   7.857  1.8942  0.9059 -0.3831
 4388SOL    HW218295   3.247  10.615   7.772  0.4374  1.2047  1.7041
 4389SOL     OW18296   3.130   0.731   9.524  0.2289 -0.5450 -0.0835
 4389SOL    HW118297   3.119   0.719   9.618 -0.1074  0.8467  0.0603
 4389SOL    HW218298   3.193   0.803   9.516 -2.0813  1.4479 -0.9090
 4390SOL     OW18299   5.653   5.632   2.432  0.1483 -0.3156  0.1135
 4390SOL    HW118300   5.593   5.567   2.397 -1.6613  1.0004  0.7334
 4390SOL    HW218301   5.664   5.695   2.361 -0.0589  0.0231  0.3816
 4391SOL     OW18302   9.575   8.067  11.183  0.3695  0.0597 -0.3406
 4391SOL    HW118303   9.579   8.109  11.097  1.1628 -1.1954 -0.9277
 4391SOL    HW218304   9.653   8.012  11.187 -0.6495 -1.3813  0.4027
 4392SOL     OW18305   9.631   5.036  10.960  0.1095  0.0714  0.0702
 4392SOL    HW118306   9.589   5.000  10.882 -0.1755 -1.4882  0.9254
 4392SOL    HW218307   9.712   5.075  10.927  0.1263 -0.8131 -0.9748
 4393SOL     OW18308   4.156   5.293   7.836 -0.3099 -0.4932  0.2540
 4393SOL    HW118309   4.173   5.247   7.754 -1.8135 -1.7855  0.6503
 4393SOL    HW218310   4.134   5.382   7.810  2.2482 -0.0378 -0.5488
 4394SOL     OW18311   2.396   1.734   9.759 -0.4840 -0.2545  0.0384
 4394SOL    HW118312   2.310   1.694   9.745 -0.2255 -1.8806  2.6527
 4394SOL    HW218313   2.456   1.679   9.709 -0.7875  0.0487 -0.6662
 4395SOL     OW18314   0.919   8.318   8.943 -1.1272 -0.8228  0.3406
 4395SOL    HW118315   0.863   8.318   9.021  0.0565  1.3111  1.2271
 4395SOL    HW218316   0.885   8.389   8.889  1.5076  1.3934  1.5028
 4396SOL     OW18317   4.544   5.510   1.406 -0.2937 -0.1106  0.2624
 4396SOL    HW118318   4.469   5.476   1.357 -0.9483  3.0175 -1.0223
 4396SOL    HW218319   4.619   5.496   1.347 -0.5072  0.4330 -0.1329
 4397SOL     OW18320   6.131   1.270   9.204 -0.8446  0.8794  0.5650
 4397SOL    HW118321   6.193   1.249   9.275 -0.3703  0.6222  0.0800
 4397SOL    HW218322   6.111   1.186   9.164  0.9220  1.2794 -1.2692
 4398SOL     OW18323  10.034   1.206   1.476 -0.2351  0.4800  0.5592
 4398SOL    HW118324   9.963   1.243   1.528  0.6625  1.0389  1.4018
 4398SOL    HW218325  10.105   1.271   1.483 -0.2815  0.8115 -1.7618
 4399SOL     OW18326   3.111   4.896   1.944 -0.1491 -0.3872 -0.3430
 4399SOL    HW118327   3.155   4.971   1.904 -1.9735  0.2993 -1.1472
 4399SOL    HW218328   3.106   4.918   2.037  0.1437  0.0857 -0.4367
 4400SOL     OW18329   3.794  11.038   4.873  0.1234  0.2049  0.0109
 4400SOL    HW118330   3.879  11.018   4.913 -0.1593 -0.8361  0.1029
 4400SOL    HW218331   3.805  11.014   4.781  0.5175  1.8340 -0.3696
 4401SOL     OW18332  10.416   0.803   3.756  0.7528  0.0065  0.3161
 4401SOL    HW118333  10.357   0.848   3.817  1.4236  0.8551  0.3563
 4401SOL    HW218334  10.412   0.711   3.782  0.4287  0.2493  1.1457
 4402SOL     OW18335   2.324   7.295   2.695  0.4484 -0.1234  0.1637
 4402SOL    HW118336   2.349   7.210   2.731  0.0871 -0.6248 -0.7472
 4402SOL    HW218337   2.406   7.335   2.667  0.8308  0.6285  2.2779
 4403SOL     OW18338   7.188   6.541   7.869  0.3734  0.3953 -0.6517
 4403SOL    HW118339   7.157   6.461   7.913  0.6928  1.2214  1.1028
 4403SOL    HW218340   7.265   6.512   7.820  1.1292 -0.1760  0.8351
 4404SOL     OW18341   2.763  10.759   1.735  0.4715 -0.1222  0.2362
 4404SOL    HW118342   2.778  10.739   1.642  5.5448  2.5489  0.3028
 4404SOL    HW218343   2.716  10.843   1.733  1.5759  0.4974  0.0688
 4405SOL     OW18344   2.348   1.405   6.921 -0.5962  0.3496  0.0018
 4405SOL    HW118345   2.336   1.445   7.008 -1.2650 -0.0691  0.1087
 4405SOL    HW218346   2.324   1.475   6.860 -2.0731  0.0427  0.1962
 4406SOL     OW18347   8.824   6.316   1.793  0.5798  0.6240 -0.0986
 4406SOL    HW118348   8.736   6.347   1.774  1.1054  1.4067 -1.3170
 4406SOL    HW218349   8.820   6.284   1.883 -1.0229  0.3412 -0.2708
 4407SOL     OW18350   1.096   2.626   1.513 -0.1061  0.3335  0.3110
 4407SOL    HW118351   1.036   2.689   1.552 -0.8503 -0.4424  0.4220
 4407SOL    HW218352   1.136   2.673   1.440 -2.0821  0.3196 -0.8109
 4408SOL     OW18353   6.419   6.390  10.726  0.3120  0.2876 -0.0543
 4408SOL    HW118354   6.509   6.391  10.694  0.0015  0.9066 -0.9228
 4408SOL    HW218355   6.422   6.335  10.805  1.2960 -0.3378 -0.5196
 4409SOL     OW18356   6.518   4.977   1.959 -0.4479 -0.4380 -0.2559
 4409SOL    HW118357   6.612   4.957   1.968 -1.0775 -2.2009  3.2841
 4409SOL    HW218358   6.515   5.072   1.945  1.8482 -0.1712  0.7829
 4410SOL     OW18359   4.702   6.348   0.736  0.4838 -0.7885  0.0891
 4410SOL    HW118360   4.609   6.322   0.735  0.2214  0.1364 -0.6152
 4410SOL    HW218361   4.708   6.410   0.808  0.7657 -1.5698  0.7437
 4411SOL     OW18362   2.643   2.251   1.149  0.0947  0.3815 -0.0792
 4411SOL    HW118363   2.613   2.195   1.078  0.4873 -0.5609  0.4851
 4411SOL    HW218364   2.567   2.304   1.173 -0.5999 -0.6903  0.1134
 4412SOL     OW18365   9.710   6.310   0.038  0.5639 -0.2298 -0.4611
 4412SOL    HW118366   9.791   6.361   0.048 -1.2400  2.3762  1.4729
 4412SOL    HW218367   9.665   6.351  -0.036  1.1949 -2.0520 -1.9158
 4413SOL     OW18368   2.653   2.671   1.695  0.1073  0.1537  0.0707
 4413SOL    HW118369   2.725   2.666   1.758  0.4522  0.8520 -0.2668
 4413SOL    HW218370   2.646   2.582   1.661 -1.3701 -0.7117  2.5090
 4414SOL     OW18371   4.233   5.042   8.175  0.2490  0.2169  0.1347
 4414SOL    HW118372   4.163   5.075   8.118  1.2729  2.6369  0.1980
 4414SOL    HW218373   4.204   4.955   8.201 -2.2285  0.7477 -0.7027
 4415SOL     OW18374   0.635  10.332   3.208  0.2475 -0.0937  0.3129
 4415SOL    HW118375   0.710  10.365   3.258 -0.8180 -0.3273  2.1203
 4415SOL    HW218376   0.564  10.393   3.227 -0.1052 -0.0427 -1.1467
 4416SOL     OW18377   6.678   4.096   5.886  0.6094 -0.2532  0.5152
 4416SOL    HW118378   6.679   4.139   5.800 -2.2990 -0.3296  0.3971
 4416SOL    HW218379   6.680   4.169   5.948 -1.1234 -0.0536  0.3435
 4417SOL     OW18380   6.185   0.874   2.185 -0.4807 -0.6586 -0.3642
 4417SOL    HW118381   6.259   0.848   2.130 -0.9787 -1.8018 -0.5140
 4417SOL    HW218382   6.113   0.818   2.155 -1.1766 -0.1584  0.3656
 4418SOL     OW18383   6.385   1.202   7.370  0.3516 -0.1000  0.2620
 4418SOL    HW118384   6.427   1.184   7.286  1.4367  0.7161  0.6251
 4418SOL    HW218385   6.418   1.288   7.395  0.6032 -0.6646  1.8911
 4419SOL     OW18386   0.271   2.886   5.659  0.7200 -0.1620  0.0345
 4419SOL    HW118387   0.295   2.867   5.749  1.6423  3.0437  0.5120
 4419SOL    HW218388   0.352   2.917   5.618 -0.5961  2.3680 -0.7373
 4420SOL     OW18389   0.413   0.759   5.790 -0.6972 -0.8552 -0.1914
 4420SOL    HW118390   0.376   0.771   5.702 -0.4823 -1.7277 -0.4003
 4420SOL    HW218391   0.391   0.841   5.836  0.1393  0.0654 -1.3940
 4421SOL     OW18392   5.713   8.246  11.228  0.6104 -0.3960  0.6899
 4421SOL    HW118393   5.786   8.183  11.225  0.1114 -0.9374 -1.0517
 4421SOL    HW218394   5.678   8.239  11.317  1.2715 -1.7759  0.8512
 4422SOL     OW18395   4.975   2.297   4.749 -0.0661  0.0273 -1.1260
 4422SOL    HW118396   4.897   2.351   4.757  0.7199  0.8958  1.2311
 4422SOL    HW218397   4.951   2.214   4.791 -0.3607 -0.4157 -2.1754
 4423SOL     OW18398   9.353   6.497   1.961 -0.3907 -0.0762 -0.2607
 4423SOL    HW118399   9.338   6.473   1.870 -0.2950  0.8352 -0.5212
 4423SOL    HW218400   9.319   6.586   1.968 -0.4856 -0.1769  0.6177
 4424SOL     OW18401   7.670  10.492   9.005 -0.3878 -0.2763  0.0136
 4424SOL    HW118402   7.635  10.427   9.066 -2.0507  0.0785 -0.5583
 4424SOL    HW218403   7.765  10.482   9.013 -0.5559 -0.3495  2.5394
 4425SOL     OW18404   8.344   3.036   8.923  0.1492 -0.2201  0.1875
 4425SOL    HW118405   8.312   3.121   8.954  0.0309 -0.3160  0.3295
 4425SOL    HW218406   8.266   2.981   8.920  0.6779 -1.2005  2.9746
 4426SOL     OW18407   9.049   5.049   6.607 -0.5952 -0.1307 -0.5157
 4426SOL    HW118408   8.957   5.033   6.588 -0.2613 -1.5371 -1.0496
 4426SOL    HW218409   9.087   5.068   6.521  0.0604 -1.9580 -0.6462
 4427SOL     OW18410   9.253   1.009   9.706  0.5533  0.3424 -0.1896
 4427SOL    HW118411   9.339   1.015   9.664  0.7289  1.0883  0.2582
 4427SOL    HW218412   9.190   1.029   9.637  0.6603 -1.4559 -0.8245
 4428SOL     OW18413   9.577  10.373   9.702  1.1560 -0.8263  0.4748
 4428SOL    HW118414   9.527  10.295   9.678  0.5754 -0.9101  1.8917
 4428SOL    HW218415   9.669  10.346   9.697  1.0372 -0.8973 -1.3800
 4429SOL     OW18416   7.430   5.667   9.979 -0.3111 -0.3712 -0.2919
 4429SOL    HW118417   7.358   5.669  10.043 -0.4922  0.7338 -0.5118
 4429SOL    HW218418   7.397   5.715   9.903  0.6549  0.1718 -0.3896
 4430SOL     OW18419   7.808   7.210   5.386  0.1341 -0.4249  0.3491
 4430SOL    HW118420   7.844   7.134   5.432 -1.0196 -0.8538  0.5469
 4430SOL    HW218421   7.806   7.279   5.451 -2.1522 -1.2250  1.1717
 4431SOL     OW18422   4.432   5.529   6.871 -0.3054  0.2437  0.5830
 4431SOL    HW118423   4.449   5.472   6.947 -2.2774  0.6679  1.3720
 4431SOL    HW218424   4.374   5.597   6.905 -0.9711  0.6063 -1.2452
 4432SOL     OW18425  10.181   4.166   0.347  0.3889 -0.3035 -0.4911
 4432SOL    HW118426  10.211   4.257   0.351  1.9552 -0.8006 -0.3585
 4432SOL    HW218427  10.259   4.115   0.371 -0.8378 -1.6105  0.8227
 4433SOL     OW18428   3.165   8.343   0.817  0.1080 -0.0660  0.3195
 4433SOL    HW118429   3.196   8.330   0.728 -0.3169  1.2426 -0.0215
 4433SOL    HW218430   3.094   8.407   0.809 -1.0503 -1.1892  1.3884
 4434SOL     OW18431  10.258   3.350   0.218 -0.5975 -0.5590 -0.2749
 4434SOL    HW118432  10.298   3.304   0.292  1.8633 -0.1689 -1.2921
 4434SOL    HW218433  10.318   3.423   0.201 -0.7370 -1.0606 -3.0931
 4435SOL     OW18434   2.511   9.836   6.722 -0.4293  0.3292 -0.4596
 4435SOL    HW118435   2.539   9.778   6.792 -0.9338 -1.1271 -1.4192
 4435SOL    HW218436   2.566   9.914   6.730  0.1020 -0.1946  0.9988
 4436SOL     OW18437   1.471   3.110   7.882  0.1812 -0.2391  0.0324
 4436SOL    HW118438   1.551   3.057   7.881  0.8560  0.7772 -0.5450
 4436SOL    HW218439   1.419   3.075   7.810  0.0699 -0.9384  0.4410
 4437SOL     OW18440   6.025   4.620   9.905  0.6501 -0.0583 -0.2080
 4437SOL    HW118441   6.086   4.688   9.933 -0.8261  0.9365  0.6664
 4437SOL    HW218442   5.945   4.667   9.881  0.2106 -1.3339 -1.3450
 4438SOL     OW18443   3.178   9.872   4.248 -0.1945  0.3097  0.0100
 4438SOL    HW118444   3.235   9.909   4.181 -2.6803  1.9101 -1.3154
 4438SOL    HW218445   3.237   9.827   4.309  2.1823 -0.7270 -2.9435
 4439SOL     OW18446   0.397  10.096   5.803 -0.1457  0.1123 -0.0763
 4439SOL    HW118447   0.449  10.109   5.882  1.3351  0.4109 -1.0961
 4439SOL    HW218448   0.354  10.181   5.788 -1.6615 -0.3833  1.2503
 4440SOL     OW18449   5.000  11.262   6.807 -0.0756 -0.6362  0.0055
 4440SOL    HW118450   4.905  11.263   6.816  0.0662  1.7552  2.2390
 4440SOL    HW218451   5.019  11.337   6.750  0.4598 -1.2214 -0.5862
 4441SOL     OW18452   4.392   9.972   4.988 -0.4315 -0.3346 -0.3045
 4441SOL    HW118453   4.469   9.952   5.042 -0.4313 -0.1655 -0.2401
 4441SOL    HW218454   4.427   9.983   4.900  0.2215  3.8160  0.3881
 4442SOL     OW18455   3.467   5.316   5.689 -0.2090 -0.1003  0.3900
 4442SOL    HW118456   3.381   5.278   5.708 -1.4416  1.8903 -1.0374
 4442SOL    HW218457   3.515   5.247   5.643 -1.8329 -0.5084 -0.7231
 4443SOL     OW18458   6.196   4.816   9.935  0.1860 -0.4842  0.0665
 4443SOL    HW118459   6.286   4.792   9.912 -0.1357 -2.0844  0.4168
 4443SOL    HW218460   6.201   4.847  10.025  0.6421  1.0076 -0.4577
 4444SOL     OW18461   4.132   8.108   8.807  0.3607  0.1140  0.7815
 4444SOL    HW118462   4.070   8.065   8.748  1.0877  1.3501 -0.9360
 4444SOL    HW218463   4.078   8.164   8.863 -0.2146 -0.0176  0.3605
 4445SOL     OW18464   2.727   6.256   8.196  0.5697  0.1938 -0.1192
 4445SOL    HW118465   2.782   6.305   8.257  1.6239  0.4014 -1.2172
 4445SOL    HW218466   2.741   6.164   8.219 -1.3505  0.3674  1.8959
 4446SOL     OW18467  10.759   2.226   3.246  0.2401  0.5963  0.2814
 4446SOL    HW118468  10.730   2.137   3.227  1.4503 -0.2232  2.0632
 4446SOL    HW218469  10.699   2.257   3.313 -0.8320  1.5297 -1.1013
 4447SOL     OW18470   2.486  10.224   4.919 -0.0119  0.6069 -0.3670
 4447SOL    HW118471   2.398  10.232   4.956 -0.6446 -0.0029 -1.7222
 4447SOL    HW218472   2.476  10.247   4.827  1.1850  0.1364 -0.6268
 4448SOL     OW18473   6.838   5.310   2.343 -0.5509  0.0332  0.0749
 4448SOL    HW118474   6.822   5.242   2.278 -0.0595 -0.9069  0.9304
 4448SOL    HW218475   6.751   5.334   2.375 -0.6318 -1.4632  1.0452
 4449SOL     OW18476   8.405   6.149   8.448  0.0303  0.5133 -0.6743
 4449SOL    HW118477   8.427   6.206   8.374 -2.3994 -1.0017 -2.6852
 4449SOL    HW218478   8.355   6.077   8.408 -0.1499 -1.0868  2.2800
 4450SOL     OW18479   8.177   0.808   0.319  0.0851  0.0882 -0.2972
 4450SOL    HW118480   8.130   0.807   0.402 -0.2236  0.3763 -0.4669
 4450SOL    HW218481   8.168   0.720   0.284  1.6661 -0.5190  0.7880
 4451SOL     OW18482   6.045   1.099   1.576  0.2407 -0.3286 -0.2511
 4451SOL    HW118483   5.997   1.118   1.657  1.3965  0.0953  0.3487
 4451SOL    HW218484   5.986   1.127   1.506 -0.2167  0.5656  0.4817
 4452SOL     OW18485   7.688   0.096   3.066 -0.1309  0.1138 -0.0845
 4452SOL    HW118486   7.713   0.009   3.096  0.1822  0.2431  0.0305
 4452SOL    HW218487   7.757   0.154   3.100 -0.2591  0.3845 -0.2847
 4453SOL     OW18488   1.203  10.450   9.381 -0.5175  0.4703 -0.3597
 4453SOL    HW118489   1.171  10.513   9.316 -2.2429  0.5837  0.5647
 4453SOL    HW218490   1.182  10.489   9.465  1.1111  0.0111  0.2787
 4454SOL     OW18491   3.904   2.486  11.335 -0.5112 -0.2739  0.1357
 4454SOL    HW118492   3.929   2.398  11.309 -1.1788 -0.6198  0.6395
 4454SOL    HW218493   3.906   2.485  11.430 -3.4147 -0.6359  0.2428
 4455SOL     OW18494   0.116   5.588   4.612  0.2243 -0.1992 -0.1465
 4455SOL    HW118495   0.154   5.583   4.524  0.4519  0.3742 -0.0883
 4455SOL    HW218496   0.099   5.498   4.636 -0.7064 -0.3101 -1.1571
 4456SOL     OW18497   9.323   2.509   0.739 -0.1281 -0.0455 -0.3326
 4456SOL    HW118498   9.235   2.534   0.712  0.5835  0.9402 -1.8324
 4456SOL    HW218499   9.378   2.584   0.715  1.1610 -0.7338  0.3687
 4457SOL     OW18500   4.244   8.539   8.788 -0.1739 -0.0612  0.3719
 4457SOL    HW118501   4.241   8.629   8.820 -0.4516 -0.4213  1.3754
 4457SOL    HW218502   4.152   8.515   8.776 -0.0430  0.4267 -1.7273
 4458SOL     OW18503   7.324   4.000   4.300 -0.4511 -0.2507  0.0351
 4458SOL    HW118504   7.312   4.094   4.309 -0.3367 -0.3260  1.0456
 4458SOL    HW218505   7.394   3.990   4.236 -0.8758  0.3324 -0.5263
 4459SOL     OW18506   9.075   4.978   2.563 -0.4883  0.1425  0.6059
 4459SOL    HW118507   9.149   4.921   2.543 -0.7781 -0.0397  0.0391
 4459SOL    HW218508   9.063   5.030   2.483 -0.9619  0.1812  0.7023
 4460SOL     OW18509   8.918   4.375   5.522  0.2422 -0.2338 -0.2013
 4460SOL    HW118510   8.861   4.452   5.513 -0.3923 -0.6872 -0.0552
 4460SOL    HW218511   8.861   4.301   5.503  1.1359 -0.6003 -1.5080
 4461SOL     OW18512   8.004   4.284   2.855  0.6117 -0.3598 -0.2513
 4461SOL    HW118513   8.090   4.315   2.825 -0.0564  2.3476  0.4970
 4461SOL    HW218514   8.022   4.242   2.939  1.4108 -1.1156 -0.7912
 4462SOL     OW18515   1.080   3.878   5.140 -0.2732 -0.6503  0.2350
 4462SOL    HW118516   0.994   3.843   5.165 -0.2699  0.0833  1.3177
 4462SOL    HW218517   1.143   3.821   5.184 -0.2444 -0.2500  0.7263
 4463SOL     OW18518  11.249   6.223   4.904  0.5353 -0.4558  0.3233
 4463SOL    HW118519  11.240   6.128   4.902  2.2820 -0.6876  1.7387
 4463SOL    HW218520  11.330   6.238   4.953  1.2451  1.6972 -1.3945
 4464SOL     OW18521   9.328   0.786  10.933 -0.2327  0.1064 -0.1759
 4464SOL    HW118522   9.278   0.705  10.940  0.4268 -0.4824 -1.9974
 4464SOL    HW218523   9.418   0.757  10.919  0.4649  1.1595  1.8547
 4465SOL     OW18524   8.455   4.031   3.244  0.3098  0.5917  0.1535
 4465SOL    HW118525   8.520   4.093   3.276  0.2912  0.5692  0.2362
 4465SOL    HW218526   8.371   4.071   3.268  0.3187  0.0159  1.1743
 4466SOL     OW18527  10.596   8.294   3.317  0.6006  0.1573 -0.0441
 4466SOL    HW118528  10.594   8.390   3.327  1.2247  0.1364  0.2948
 4466SOL    HW218529  10.537   8.262   3.385 -1.6696  0.4232 -1.8523
 4467SOL     OW18530   9.430   8.312   4.406  0.2472 -0.0305  0.1636
 4467SOL    HW118531   9.466   8.271   4.326  0.3908  0.8095 -0.2047
 4467SOL    HW218532   9.336   8.314   4.391  0.0814 -1.6370  0.8498
 4468SOL     OW18533   7.234   1.179   9.456  0.2597  0.6427  0.0222
 4468SOL    HW118534   7.223   1.091   9.418  2.2103 -0.4911  1.9949
 4468SOL    HW218535   7.316   1.211   9.419  1.3811  0.1560  2.0023
 4469SOL     OW18536   5.780   8.595   0.067 -0.5773 -0.3177 -0.0208
 4469SOL    HW118537   5.803   8.683   0.037 -1.3685 -0.1459 -0.1260
 4469SOL    HW218538   5.840   8.537   0.019 -1.0254  0.0495 -1.0354
 4470SOL     OW18539   5.775   1.269  10.820 -0.1540 -0.4671 -0.3482
 4470SOL    HW118540   5.846   1.288  10.881  0.7536 -1.0651 -1.1874
 4470SOL    HW218541   5.742   1.355  10.794 -0.4619 -0.2105  0.8789
 4471SOL     OW18542  10.842   4.362   0.036 -0.1516  0.4770  0.2920
 4471SOL    HW118543  10.871   4.383   0.125 -2.5251 -2.4362  1.8070
 4471SOL    HW218544  10.750   4.386   0.034 -0.2507  0.0434 -1.2533
 4472SOL     OW18545   8.565   5.386  10.616 -0.0257 -0.2725 -0.1936
 4472SOL    HW118546   8.536   5.309  10.665  0.7782 -1.0677 -0.9430
 4472SOL    HW218547   8.634   5.353  10.559  0.0256  0.9272 -0.8363
 4473SOL     OW18548   1.480   9.892   6.426  0.7213 -0.1526  0.3899
 4473SOL    HW118549   1.556   9.889   6.484  0.0735 -1.1657  1.2219
 4473SOL    HW218550   1.445   9.803   6.430 -0.6015  0.3535  0.1499
 4474SOL     OW18551   8.287   2.428   7.816  0.4006 -0.0820 -0.6375
 4474SOL    HW118552   8.297   2.443   7.722  2.8714 -0.8138 -0.5185
 4474SOL    HW218553   8.351   2.361   7.837 -0.1233  0.0696  1.5900
 4475SOL     OW18554   0.646   9.065   6.280 -0.1893  0.4396  0.2687
 4475SOL    HW118555   0.671   9.134   6.341  0.5545 -0.8946  1.5370
 4475SOL    HW218556   0.708   8.994   6.298 -1.6720 -1.0106 -0.1576
 4476SOL     OW18557   3.749   7.407   4.882 -0.0413  0.2673  0.0751
 4476SOL    HW118558   3.797   7.325   4.897  0.4276  0.4737 -0.2843
 4476SOL    HW218559   3.708   7.426   4.966 -0.5274 -0.5813  0.0422
 4477SOL     OW18560  10.710   2.714  10.761 -0.2645  0.3637 -0.1283
 4477SOL    HW118561  10.683   2.797  10.802 -0.8496 -1.6061  3.6984
 4477SOL    HW218562  10.634   2.688  10.709 -0.5088  1.6585 -0.4560
 4478SOL     OW18563   6.995  10.603   5.655 -0.2338 -0.1888 -0.3028
 4478SOL    HW118564   7.039  10.523   5.683 -1.3328 -0.9706 -0.7570
 4478SOL    HW218565   7.056  10.673   5.677  1.4885 -1.2768 -1.4924
 4479SOL     OW18566   3.862   0.904   7.437 -0.0326 -0.2370 -0.6698
 4479SOL    HW118567   3.883   0.969   7.369 -0.1776  2.0769  1.4059
 4479SOL    HW218568   3.946   0.881   7.476 -0.1538  0.1439 -0.1699
 4480SOL     OW18569   5.321   5.118  11.191 -0.2645  0.4583  0.2052
 4480SOL    HW118570   5.391   5.071  11.237 -0.2694  0.1809 -0.0634
 4480SOL    HW218571   5.261   5.048  11.163 -0.2704  0.6249 -0.2010
 4481SOL     OW18572   1.256   5.292   2.955 -0.3536 -0.5045  0.5698
 4481SOL    HW118573   1.285   5.378   2.923 -0.7970 -0.6170 -0.1437
 4481SOL    HW218574   1.160   5.295   2.949 -0.3421 -1.2970 -0.1194
 4482SOL     OW18575   1.587   7.450   3.104  0.6381  0.8180  0.2994
 4482SOL    HW118576   1.551   7.533   3.136 -1.4116 -0.7671  2.2445
 4482SOL    HW218577   1.527   7.424   3.033 -0.7845 -0.6842  2.0100
 4483SOL     OW18578   5.398   3.190   4.318  0.3883 -0.0449  0.4970
 4483SOL    HW118579   5.440   3.191   4.233 -0.7602  0.5830 -0.0802
 4483SOL    HW218580   5.401   3.098   4.345 -0.9378 -0.5836 -1.0969
 4484SOL     OW18581   2.862   4.434   6.772  0.1847  0.0060  0.4107
 4484SOL    HW118582   2.855   4.342   6.798 -2.0182 -0.6758 -2.3988
 4484SOL    HW218583   2.786   4.476   6.812 -0.1915  0.0930 -0.4011
 4485SOL     OW18584   1.094   5.485   5.675  0.2592 -0.5941 -0.2812
 4485SOL    HW118585   1.016   5.433   5.657 -0.0757 -0.7384  1.5097
 4485SOL    HW218586   1.088   5.559   5.614 -0.5499 -1.3306 -1.1109
 4486SOL     OW18587   3.767   8.405   1.174  0.1619  0.6171 -0.3294
 4486SOL    HW118588   3.776   8.416   1.269 -0.1851 -3.1267  0.2142
 4486SOL    HW218589   3.858   8.404   1.142  0.4389 -1.4951  0.4482
 4487SOL     OW18590   9.015   7.213   1.003  0.4393 -0.5295 -0.0381
 4487SOL    HW118591   8.957   7.271   1.053 -0.6657 -1.4774 -0.2080
 4487SOL    HW218592   8.960   7.138   0.981  1.7789 -1.4849 -0.1090
 4488SOL     OW18593   3.041   6.810   9.729  0.0717  0.5152 -0.1181
 4488SOL    HW118594   3.006   6.750   9.794 -2.1948  1.0806 -0.7695
 4488SOL    HW218595   2.974   6.878   9.721  0.1795  0.3183 -3.2118
 4489SOL     OW18596   2.783   8.614   9.262  0.0008  0.0281 -0.7083
 4489SOL    HW118597   2.845   8.657   9.322 -0.6967  1.5573 -1.0700
 4489SOL    HW218598   2.802   8.521   9.271  1.7237  0.4207 -0.1047
 4490SOL     OW18599   2.933   1.128   4.446  0.2185 -0.5551 -0.2654
 4490SOL    HW118600   3.021   1.131   4.484  0.3887 -0.5936 -0.6560
 4490SOL    HW218601   2.899   1.042   4.471  0.7460 -1.0190 -1.1149
 4491SOL     OW18602   3.002   5.270   5.949  0.3514  0.0636 -0.4869
 4491SOL    HW118603   2.923   5.241   5.905  0.3769 -0.0441 -0.4637
 4491SOL    HW218604   3.015   5.206   6.020 -0.4656  1.0329  0.5585
 4492SOL     OW18605   1.120   5.210   1.291  0.7289  0.7038 -0.2681
 4492SOL    HW118606   1.034   5.233   1.254  0.3062 -1.4076 -0.6681
 4492SOL    HW218607   1.181   5.226   1.220  0.1314 -1.6480 -1.3787
 4493SOL     OW18608   9.560   9.225   9.115  0.0104  0.1608 -0.6548
 4493SOL    HW118609   9.590   9.187   9.197  1.5020  0.2758 -1.1242
 4493SOL    HW218610   9.514   9.155   9.070 -1.4352  0.2962  0.5762
 4494SOL     OW18611   1.207   7.205   4.283 -0.0175  0.5536  0.0755
 4494SOL    HW118612   1.242   7.178   4.368  1.6873  2.5139  0.0510
 4494SOL    HW218613   1.157   7.130   4.252 -0.0145 -0.4674  2.4579
 4495SOL     OW18614   2.689   2.225  10.542  0.2465  0.3445  0.2129
 4495SOL    HW118615   2.772   2.191  10.508  0.3076  0.9256 -0.2284
 4495SOL    HW218616   2.623   2.193  10.480  0.1756  0.1328  0.3977
 4496SOL     OW18617   4.915   2.857   4.359  0.0646  0.0897  0.1843
 4496SOL    HW118618   4.827   2.861   4.396 -0.0850 -0.0128 -0.1686
 4496SOL    HW218619   4.911   2.787   4.294  0.3147  0.3147 -0.0735
 4497SOL     OW18620   5.866   3.689   2.781  0.4315  0.0427 -0.0361
 4497SOL    HW118621   5.943   3.728   2.740  0.6837  0.5527  0.9172
 4497SOL    HW218622   5.892   3.598   2.798  1.5844  0.7815  2.2380
 4498SOL     OW18623   7.337   7.355   2.857 -0.0442  0.2169 -0.3033
 4498SOL    HW118624   7.334   7.399   2.772  0.2011  0.9514  0.0675
 4498SOL    HW218625   7.337   7.262   2.835  2.5872  0.3801 -1.2159
 4499SOL     OW18626   6.361   6.196   4.177 -0.0795  0.5039 -0.4861
 4499SOL    HW118627   6.289   6.209   4.239 -2.1557  0.8273 -2.8537
 4499SOL    HW218628   6.404   6.117   4.207 -1.2406  0.4564  1.1688
 4500SOL     OW18629   5.713   4.886   9.656  0.8004 -0.6207 -0.1025
 4500SOL    HW118630   5.671   4.941   9.590  0.3556 -0.1788  0.5371
 4500SOL    HW218631   5.807   4.898   9.641  0.7136  0.7453  0.3693
 4501SOL     OW18632   0.431   0.901   7.038  0.5587  0.2373 -0.1835
 4501SOL    HW118633   0.388   0.855   6.967 -1.3786 -0.4656  1.3844
 4501SOL    HW218634   0.485   0.835   7.081 -0.2275  0.0377  0.5092
 4502SOL     OW18635   3.401   0.013   5.651  0.2101  0.4551 -0.0355
 4502SOL    HW118636   3.407  -0.078   5.678  0.2060  0.3950 -0.2377
 4502SOL    HW218637   3.385   0.009   5.557  3.7384  0.7236 -0.7137
 4503SOL     OW18638   8.878  10.887   1.968 -0.2420 -0.0919  0.2948
 4503SOL    HW118639   8.932  10.898   1.889 -4.1647  0.6678 -2.4189
 4503SOL    HW218640   8.899  10.964   2.021  0.1627  1.0358 -1.4438
 4504SOL     OW18641   0.580   6.128   1.190  0.4781  0.5744  0.1249
 4504SOL    HW118642   0.651   6.155   1.249  2.0157 -1.2820 -0.8412
 4504SOL    HW218643   0.575   6.033   1.200  0.1453  0.3459 -2.0332
 4505SOL     OW18644   2.323   1.111  10.914  0.5269 -0.1254  0.0241
 4505SOL    HW118645   2.366   1.084  10.833  0.9951 -0.4941  0.3995
 4505SOL    HW218646   2.330   1.207  10.914  0.3378 -0.1104 -0.4754
 4506SOL     OW18647   1.594   7.926   3.105 -0.1694 -0.1794  0.1951
 4506SOL    HW118648   1.647   7.996   3.067  0.6726 -1.3274 -0.7918
 4506SOL    HW218649   1.520   7.971   3.145  0.6680  1.3187  0.1012
 4507SOL     OW18650   2.514   2.512   3.493 -0.2528 -0.5515  0.2373
 4507SOL    HW118651   2.548   2.575   3.430  1.6715 -0.9778  0.8399
 4507SOL    HW218652   2.517   2.428   3.446 -0.2001 -0.6439  0.4095
 4508SOL     OW18653   4.120   4.424  11.029  0.1056 -0.3829 -0.3346
 4508SOL    HW118654   4.108   4.384  11.115 -0.2937 -0.3003 -0.3487
 4508SOL    HW218655   4.031   4.447  11.001  0.1739 -0.9157 -1.0084
 4509SOL     OW18656   2.232   0.878  10.623  0.1983  0.0814  0.4142
 4509SOL    HW118657   2.238   0.797  10.572 -2.2716  1.0635 -1.5100
 4509SOL    HW218658   2.262   0.852  10.711  0.1960 -2.7331 -0.3505
 4510SOL     OW18659   1.562   1.050   8.393  0.2507 -0.3491  0.6452
 4510SOL    HW118660   1.577   0.956   8.403 -1.5747 -0.4565  2.5001
 4510SOL    HW218661   1.601   1.090   8.471  2.0909  0.5931 -0.7021
 4511SOL     OW18662   8.181   3.152   2.278  0.4304  0.4529  0.1218
 4511SOL    HW118663   8.102   3.161   2.330 -0.5079 -0.3215 -1.1490
 4511SOL    HW218664   8.153   3.170   2.188  1.7310  0.3305 -0.3211
 4512SOL     OW18665   6.534   2.223   7.913  0.2171 -0.0208  0.8180
 4512SOL    HW118666   6.595   2.295   7.931  1.1008 -0.5605  0.0208
 4512SOL    HW218667   6.563   2.187   7.830 -1.9523  0.4951 -0.2138
 4513SOL     OW18668   9.702   7.046   2.655  0.2068 -0.3824 -0.5122
 4513SOL    HW118669   9.783   7.003   2.626  0.0455 -0.5662 -0.6905
 4513SOL    HW218670   9.693   7.122   2.598  0.8166  0.2324  0.2016
 4514SOL     OW18671   1.741   3.632   2.871  0.2881  0.0264 -0.0595
 4514SOL    HW118672   1.653   3.652   2.904  0.5958 -0.2078  0.8977
 4514SOL    HW218673   1.744   3.536   2.868  0.8017  0.0198  0.6903
 4515SOL     OW18674   1.300   3.606   4.264  0.2238 -0.2532  0.0504
 4515SOL    HW118675   1.257   3.530   4.225 -0.1576 -0.4691  0.8826
 4515SOL    HW218676   1.293   3.592   4.358 -1.8210  1.9088  0.2644
 4516SOL     OW18677   8.715   8.427   9.099  0.2051  0.4545 -0.4246
 4516SOL    HW118678   8.651   8.360   9.075 -0.1533  0.1274  1.3776
 4516SOL    HW218679   8.798   8.395   9.064 -0.6117  0.9952 -2.9974
 4517SOL     OW18680   1.068   3.693   6.365 -0.1047  0.7417  0.1935
 4517SOL    HW118681   1.141   3.705   6.425  0.2007  2.4015 -0.4877
 4517SOL    HW218682   1.014   3.772   6.377 -1.6538 -0.3356  0.5078
 4518SOL     OW18683   0.198   6.077   9.606  0.1703  0.5106 -0.4617
 4518SOL    HW118684   0.266   6.014   9.632  0.3397  0.6202 -0.6470
 4518SOL    HW218685   0.226   6.160   9.644 -0.5536  0.2725  0.6170
 4519SOL     OW18686   5.520   1.885   1.650  0.1725 -0.8469 -0.0915
 4519SOL    HW118687   5.510   1.964   1.597  1.4515  0.1269  1.0563
 4519SOL    HW218688   5.571   1.825   1.595  0.8466 -0.1335 -0.2456
 4520SOL     OW18689   5.726   0.334   7.851 -0.5503 -0.2241  0.3286
 4520SOL    HW118690   5.809   0.382   7.845  0.0085 -1.3971 -1.3854
 4520SOL    HW218691   5.667   0.381   7.792 -0.6363 -0.3962  0.2800
 4521SOL     OW18692  10.800   8.109   1.526  0.1828  0.4283  0.0147
 4521SOL    HW118693  10.802   8.101   1.431  1.5472  0.6767  0.0141
 4521SOL    HW218694  10.745   8.036   1.555  2.8141 -1.9169 -0.7327
 4522SOL     OW18695   7.448   6.985   9.437  0.1113 -0.0046  0.0233
 4522SOL    HW118696   7.442   7.069   9.481  0.3690  0.3694 -0.6508
 4522SOL    HW218697   7.369   6.979   9.383  1.0685  0.7297 -1.5155
 4523SOL     OW18698   3.696  11.236   8.934  0.5047 -0.0371  0.8944
 4523SOL    HW118699   3.654  11.320   8.919  1.3503  0.4208  1.0690
 4523SOL    HW218700   3.638  11.190   8.995 -0.1511  0.2609  0.4978
 4524SOL     OW18701   8.770   5.771   7.137  0.4648 -0.4759  0.1320
 4524SOL    HW118702   8.806   5.860   7.137 -3.1039  1.1114  2.6449
 4524SOL    HW218703   8.801   5.733   7.219 -0.4340 -0.4671  0.4796
 4525SOL     OW18704   5.191   5.604   0.330  0.5157 -0.7926  0.2349
 4525SOL    HW118705   5.165   5.585   0.240  0.2552  0.5144  0.0340
 4525SOL    HW218706   5.286   5.617   0.325  0.2750  0.8807 -0.1304
 4526SOL     OW18707   7.570   7.743   2.668 -0.2297  0.6269  0.3345
 4526SOL    HW118708   7.531   7.764   2.584 -0.3421  0.6735  0.3982
 4526SOL    HW218709   7.664   7.749   2.653 -0.1761 -1.2346 -0.2888
 4527SOL     OW18710   7.857   7.381   9.790 -0.2859  0.0883 -0.0302
 4527SOL    HW118711   7.889   7.294   9.813  1.6059  0.8098  0.1906
 4527SOL    HW218712   7.766   7.367   9.764 -0.2975 -1.8099  0.9006
 4528SOL     OW18713  10.440   5.876   1.617  0.2785 -0.0362  0.4367
 4528SOL    HW118714  10.534   5.860   1.606 -0.0359 -2.4237  1.0840
 4528SOL    HW218715  10.428   5.887   1.711 -0.0122  0.9336  0.2951
 4529SOL     OW18716   2.217   3.891   9.202 -0.8257 -0.5486 -0.4403
 4529SOL    HW118717   2.221   3.798   9.180  0.5122 -0.3629 -1.0105
 4529SOL    HW218718   2.308   3.916   9.217 -1.2141  0.5942  0.0146
 4530SOL     OW18719   9.632  10.752   4.349 -0.0926 -0.8014 -0.2253
 4530SOL    HW118720   9.665  10.677   4.398  0.1957  1.0118  2.4709
 4530SOL    HW218721   9.710  10.805   4.332 -0.7845  0.7423  1.2576
 4531SOL     OW18722  10.127   4.207   3.468  0.4130 -0.0280  0.1300
 4531SOL    HW118723  10.160   4.251   3.390 -1.1737 -0.4287 -0.8066
 4531SOL    HW218724  10.186   4.234   3.539  1.7487  0.4981 -1.1639
 4532SOL     OW18725   9.313   7.455  10.997  0.1217  0.3529  0.4172
 4532SOL    HW118726   9.283   7.540  11.028  0.6495  0.4591  0.6533
 4532SOL    HW218727   9.242   7.421  10.943 -0.4825  0.5205  1.1055
 4533SOL     OW18728   7.012   2.979   0.472 -0.1267  0.3023 -0.5070
 4533SOL    HW118729   7.083   3.001   0.412  1.1741 -0.4377  0.7172
 4533SOL    HW218730   6.963   2.910   0.427  0.1948  0.4998 -1.1663
 4534SOL     OW18731  11.022   2.889   3.226  0.4559  0.2369  0.1096
 4534SOL    HW118732  11.069   2.806   3.226 -0.4006 -0.2649  0.4128
 4534SOL    HW218733  11.065   2.942   3.160  0.7371 -0.6111 -0.3942
 4535SOL     OW18734   1.887   3.873   0.035 -0.1534  0.5586  0.1959
 4535SOL    HW118735   1.960   3.836   0.085  0.3941 -0.2141 -1.1616
 4535SOL    HW218736   1.880   3.818  -0.042 -0.4395  2.2480 -1.0097
 4536SOL     OW18737   7.089   5.212   2.425  0.1399  0.0612  0.5341
 4536SOL    HW118738   7.103   5.245   2.514  1.0867  0.1753  0.3430
 4536SOL    HW218739   6.996   5.228   2.408  0.0273  0.3107  1.3938
 4537SOL     OW18740   7.673   7.207  10.824  0.0838 -0.4758 -0.0317
 4537SOL    HW118741   7.589   7.223  10.781 -0.3960 -2.5092  0.0619
 4537SOL    HW218742   7.651   7.190  10.915  0.8828  1.6218  0.5775
 4538SOL     OW18743   8.627   7.130   7.895 -0.0735  0.5542  0.2658
 4538SOL    HW118744   8.554   7.190   7.908 -0.5316  0.3988 -1.3899
 4538SOL    HW218745   8.587   7.049   7.864  0.7699  0.4010 -0.4575
 4539SOL     OW18746   7.019   9.920   2.260 -0.1308 -0.7208  0.1057
 4539SOL    HW118747   7.060   9.875   2.335 -1.2905 -2.8524 -0.4983
 4539SOL    HW218748   6.991   9.849   2.202 -0.8001  0.8561 -1.5477
 4540SOL     OW18749   9.322  11.294  10.211  0.0892 -0.5185 -0.5598
 4540SOL    HW118750   9.344  11.256  10.296 -1.4045 -0.7982 -0.2978
 4540SOL    HW218751   9.280  11.377  10.232 -0.7262 -0.8162 -1.0136
 4541SOL     OW18752   3.415   8.921   9.940  0.4577 -0.4624 -0.5874
 4541SOL    HW118753   3.430   8.933   9.846  1.8209  0.3312 -0.2841
 4541SOL    HW218754   3.330   8.961   9.955  0.4279 -0.1962 -1.4142
 4542SOL     OW18755   0.782   3.685   3.289  0.6001 -0.2301  0.1266
 4542SOL    HW118756   0.787   3.762   3.346  0.8204 -0.3514  0.2713
 4542SOL    HW218757   0.772   3.611   3.349  0.3424 -0.3098 -0.0141
 4543SOL     OW18758   0.822   0.577   1.188  0.0387 -0.3128 -0.5116
 4543SOL    HW118759   0.811   0.670   1.171  1.4198 -0.0468  0.0232
 4543SOL    HW218760   0.767   0.560   1.264  2.0827  0.7010  1.2409
 4544SOL     OW18761  10.982   5.485   9.692  0.1719  0.1712 -0.1923
 4544SOL    HW118762  10.899   5.533   9.691 -0.0626 -0.2413 -1.7638
 4544SOL    HW218763  11.008   5.484   9.784 -1.3641  0.6592  0.2642
 4545SOL     OW18764   6.871   6.851   4.342 -0.2211 -0.2933  0.5625
 4545SOL    HW118765   6.882   6.940   4.374  0.7520 -0.6705  1.3237
 4545SOL    HW218766   6.790   6.821   4.382  0.0775 -0.1552  1.2926
 4546SOL     OW18767   0.250   2.706   8.056  0.0095 -0.1843 -0.2979
 4546SOL    HW118768   0.174   2.739   8.009 -0.2338 -0.8051 -0.3353
 4546SOL    HW218769   0.233   2.613   8.070  0.3570 -0.1470  0.4647
 4547SOL     OW18770  11.049   7.406   1.751  0.4123 -0.2844  0.0037
 4547SOL    HW118771  11.009   7.459   1.820  1.4407 -0.6006  0.8678
 4547SOL    HW218772  11.143   7.421   1.762  0.5632  0.1939 -1.7708
 4548SOL     OW18773   1.996   3.865   1.020  0.0292 -0.5750  0.5242
 4548SOL    HW118774   2.004   3.953   1.058  0.0973 -0.5460  0.4432
 4548SOL    HW218775   1.927   3.875   0.953 -0.0487 -0.6117  0.5990
 4549SOL     OW18776   9.756   3.657   7.145  0.4828 -0.0569 -1.0073
 4549SOL    HW118777   9.747   3.565   7.120  1.0320 -0.1032 -1.0291
 4549SOL    HW218778   9.722   3.705   7.069  0.9605 -0.2268 -1.3328
 4550SOL     OW18779   1.758   2.387   9.188  0.3879  0.0391  0.0594
 4550SOL    HW118780   1.691   2.415   9.250 -0.7256 -2.3278 -0.0312
 4550SOL    HW218781   1.837   2.375   9.241 -0.4420 -1.5271  0.9763
 4551SOL     OW18782   3.282   1.726   0.327 -0.1279 -0.1222  0.5492
 4551SOL    HW118783   3.187   1.711   0.327 -0.3090  1.0126  1.4004
 4551SOL    HW218784   3.292   1.818   0.302  0.6815  0.2365  2.1683
 4552SOL     OW18785   2.216   4.964   6.455  0.2436 -0.2690 -0.9160
 4552SOL    HW118786   2.305   4.972   6.489 -0.0311 -0.8474 -0.0517
 4552SOL    HW218787   2.187   5.054   6.441  1.1964 -0.1005 -1.8071
 4553SOL     OW18788  11.207   7.749   3.582  0.7495 -0.2314  0.2310
 4553SOL    HW118789  11.257   7.707   3.652  0.9152 -0.4816 -0.0341
 4553SOL    HW218790  11.274   7.788   3.526  0.9440 -3.7477 -2.2029
 4554SOL     OW18791   7.994  10.618   3.424  0.1687  0.0153  0.5531
 4554SOL    HW118792   7.932  10.689   3.407 -0.7920 -1.1240 -0.7908
 4554SOL    HW218793   8.048  10.613   3.346 -0.2420 -1.2008  0.3330
 4555SOL     OW18794  10.812   9.245  11.220 -0.9599 -0.4029 -0.4729
 4555SOL    HW118795  10.771   9.331  11.231 -1.0265 -0.3521 -1.0913
 4555SOL    HW218796  10.902   9.264  11.195 -0.9090 -0.5102 -0.3707
 4556SOL     OW18797   8.377   2.087   3.409 -0.3009 -0.6166  1.2792
 4556SOL    HW118798   8.397   2.132   3.327  0.1232 -0.5617  1.4132
 4556SOL    HW218799   8.420   2.139   3.476  3.5600 -3.3090  1.1043
 4557SOL     OW18800  11.328   1.730   7.191 -0.0763 -0.4217 -0.1059
 4557SOL    HW118801  11.327   1.723   7.095 -0.3764  1.2269 -0.2538
 4557SOL    HW218802  11.326   1.825   7.207  3.3118 -0.5568  1.5044
 4558SOL     OW18803   7.765   0.934   0.593 -0.1167  0.0245  0.2032
 4558SOL    HW118804   7.719   0.999   0.646  0.9302 -0.0926  1.2689
 4558SOL    HW218805   7.833   0.983   0.548 -0.1556 -0.1084 -0.0034
 4559SOL     OW18806   3.939   3.774   8.502  0.6710 -0.5738  0.1387
 4559SOL    HW118807   4.013   3.813   8.550  0.3674 -0.2806  0.3656
 4559SOL    HW218808   3.869   3.839   8.509  0.9146 -0.1207 -1.4811
 4560SOL     OW18809   4.923   1.318   5.117 -0.1345  0.2187 -0.1613
 4560SOL    HW118810   4.851   1.255   5.115 -0.0522  0.1491 -1.0334
 4560SOL    HW218811   4.993   1.275   5.067  0.5058  0.2885  0.6701
 4561SOL     OW18812  10.770  10.132   9.478  0.4782  0.1747  0.0080
 4561SOL    HW118813  10.739  10.107   9.391  1.0297  1.7269 -0.6565
 4561SOL    HW218814  10.864  10.140   9.468  0.4728  0.9853  0.5887
 4562SOL     OW18815   1.747   6.257   8.359  0.2588  0.0096  0.0593
 4562SOL    HW118816   1.745   6.331   8.420  0.3175  0.7685 -0.8587
 4562SOL    HW218817   1.820   6.277   8.300 -1.3904  0.5185 -1.8295
 4563SOL     OW18818   4.871   5.636   9.559  0.3136  0.0472 -0.1433
 4563SOL    HW118819   4.830   5.673   9.481 -0.1739  0.8659  0.4808
 4563SOL    HW218820   4.956   5.605   9.530  0.2287  0.5588 -0.9572
 4564SOL     OW18821   8.486   5.280   2.253  0.0704 -0.4339  0.1443
 4564SOL    HW118822   8.552   5.270   2.322 -0.3582  0.3919  0.6847
 4564SOL    HW218823   8.429   5.350   2.284 -0.8380 -0.8718 -0.4971
 4565SOL     OW18824   1.298   3.295   3.890  0.1261  0.0222 -0.3309
 4565SOL    HW118825   1.323   3.206   3.917 -1.1936  0.2935  1.9402
 4565SOL    HW218826   1.380   3.344   3.891  0.4255 -0.4861  1.3237
 4566SOL     OW18827   6.907   6.922   8.005 -0.5421 -0.5616  0.0651
 4566SOL    HW118828   6.976   6.895   7.945 -0.7994 -0.2348 -0.3787
 4566SOL    HW218829   6.953   6.967   8.076 -0.2112 -1.2279  0.2723
 4567SOL     OW18830   7.673   1.301   5.917  0.1155 -0.2740 -0.0262
 4567SOL    HW118831   7.689   1.290   5.823  0.8373 -0.9083  0.1678
 4567SOL    HW218832   7.738   1.365   5.946 -0.8485  0.7986 -0.1704
 4568SOL     OW18833   1.192   9.006   2.100  0.1412  0.2223  0.4443
 4568SOL    HW118834   1.124   8.998   2.034  2.6899  0.6043 -2.3535
 4568SOL    HW218835   1.180   9.094   2.137 -0.3820  0.5957 -0.6086
 4569SOL     OW18836   9.072  10.780  10.179 -0.1125 -0.3905  0.0402
 4569SOL    HW118837   9.110  10.693  10.190 -1.6325 -1.1066 -0.2234
 4569SOL    HW218838   9.099  10.828  10.257 -0.0332 -1.3788  0.6326
 4570SOL     OW18839   4.104   6.907   4.338  0.5187  0.5939 -0.3433
 4570SOL    HW118840   4.035   6.929   4.275 -0.8889 -0.1660  0.8904
 4570SOL    HW218841   4.058   6.856   4.405  1.4130  3.7938  2.7844
 4571SOL     OW18842   0.689   1.424   3.080  0.0151 -0.0749 -0.1456
 4571SOL    HW118843   0.761   1.417   3.143 -1.0089  1.4155  1.2479
 4571SOL    HW218844   0.610   1.426   3.135 -0.8871  1.5283 -1.4528
 4572SOL     OW18845   0.886  10.252   4.718  0.0239  0.4539 -0.0844
 4572SOL    HW118846   0.864  10.237   4.809 -0.7643  2.8253  0.1683
 4572SOL    HW218847   0.978  10.279   4.720 -0.0293  0.6296  0.0296
 4573SOL     OW18848   8.133   8.506  10.858  0.0908 -0.0729 -0.3675
 4573SOL    HW118849   8.137   8.479  10.767 -0.0105 -1.0899 -0.0702
 4573SOL    HW218850   8.110   8.599  10.854 -3.1374 -0.8434 -1.3154
 4574SOL     OW18851   8.685   3.507   2.825  0.5498 -0.4367 -0.0598
 4574SOL    HW118852   8.654   3.427   2.866  1.5346 -1.0123 -0.3973
 4574SOL    HW218853   8.755   3.478   2.765  1.2675  0.7196  0.1840
 4575SOL     OW18854   5.942   8.066  11.246  0.5783 -0.1094  0.2551
 4575SOL    HW118855   5.927   7.995  11.309 -2.1243  0.3817  0.2184
 4575SOL    HW218856   5.986   8.024  11.172 -0.0654 -1.5396  0.6652
 4576SOL     OW18857   9.069   1.507   2.103 -0.0265 -0.3045  0.6839
 4576SOL    HW118858   9.041   1.597   2.085 -1.0688 -0.8091 -0.2678
 4576SOL    HW218859   9.150   1.496   2.053  0.4485  0.3098  1.3170
 4577SOL     OW18860   8.907   1.898   9.484 -0.2303  0.1312  0.6422
 4577SOL    HW118861   8.950   1.972   9.441  2.3243 -0.7231  1.5874
 4577SOL    HW218862   8.931   1.823   9.429 -2.3145 -0.0995  0.0183
 4578SOL     OW18863   6.319   6.048   1.479 -0.1582 -0.6896  0.1222
 4578SOL    HW118864   6.305   6.077   1.390 -0.2345  1.7746  0.9138
 4578SOL    HW218865   6.239   6.001   1.502 -1.0525  0.5849 -0.3668
 4579SOL     OW18866  10.361   8.890   8.439  0.3586  0.0793 -0.6144
 4579SOL    HW118867  10.424   8.859   8.374 -0.9852  0.2035 -1.9983
 4579SOL    HW218868  10.295   8.938   8.388 -0.4122  0.6690  0.9021
 4580SOL     OW18869   7.142   9.359   7.161  0.1333  0.1565  0.4714
 4580SOL    HW118870   7.127   9.453   7.175  2.2495  0.3788  1.3150
 4580SOL    HW218871   7.173   9.353   7.071 -1.4543  0.0710 -0.0966
 4581SOL     OW18872   4.967   6.249   0.741 -0.1664 -0.0950 -0.4602
 4581SOL    HW118873   4.874   6.272   0.741  0.0587  0.8124 -0.9624
 4581SOL    HW218874   5.013   6.332   0.750  0.6594 -0.3338 -2.3004
 4582SOL     OW18875   1.977   2.952   8.894 -0.0225  0.8052  0.1603
 4582SOL    HW118876   1.987   3.046   8.911  3.6742  0.8757 -1.8318
 4582SOL    HW218877   2.002   2.942   8.802 -0.8058 -2.0797  0.2227
 4583SOL     OW18878   7.660   5.949   5.797  0.4291 -0.2411 -0.2368
 4583SOL    HW118879   7.697   5.886   5.735  0.1479 -0.7362  0.0980
 4583SOL    HW218880   7.713   6.028   5.785  1.6921 -0.9815  0.3318
 4584SOL     OW18881   3.985   8.542   8.707 -0.1292  0.1794 -0.0451
 4584SOL    HW118882   3.967   8.451   8.683 -0.9417  0.3073  0.0622
 4584SOL    HW218883   3.961   8.593   8.630  0.5635  0.2820 -0.1944
 4585SOL     OW18884   6.604   5.773   3.081  0.1740 -0.2073 -0.6318
 4585SOL    HW118885   6.628   5.725   3.002  0.6765 -0.7304 -0.1606
 4585SOL    HW218886   6.529   5.724   3.117  2.1172 -2.0301  1.1105
 4586SOL     OW18887   0.025   7.955   3.752  0.6976  0.1418  0.1629
 4586SOL    HW118888  -0.002   8.047   3.755 -0.9302 -0.1850 -2.4889
 4586SOL    HW218889   0.070   7.945   3.668 -0.8441 -1.8488 -0.5087
 4587SOL     OW18890   5.726   1.187   1.165  0.2358  0.1833 -0.2796
 4587SOL    HW118891   5.633   1.203   1.148  0.2881 -0.6631 -1.4254
 4587SOL    HW218892   5.757   1.141   1.087  1.1498 -1.3181  0.9436
 4588SOL     OW18893   1.991   7.935   8.558 -0.0799 -0.9824  0.4637
 4588SOL    HW118894   2.075   7.892   8.575  0.7732  0.7439  0.8171
 4588SOL    HW218895   1.957   7.892   8.479  1.3245 -1.4405  0.0913
 4589SOL     OW18896   0.608  10.859   9.800 -0.2351  0.0497 -0.2964
 4589SOL    HW118897   0.555  10.938   9.790  0.0912  0.3388  0.2801
 4589SOL    HW218898   0.636  10.859   9.891  2.5669  1.0665 -1.0880
 4590SOL     OW18899   1.502  10.202   7.916 -0.2598 -0.5403 -0.0514
 4590SOL    HW118900   1.481  10.139   7.986  0.9163 -0.2357  0.5952
 4590SOL    HW218901   1.478  10.287   7.953  0.0393 -0.4103 -0.1553
 4591SOL     OW18902  10.426   0.135   8.042  0.0276  0.1606 -0.1366
 4591SOL    HW118903  10.457   0.220   8.073 -0.3577 -0.2719  1.4669
 4591SOL    HW218904  10.332   0.148   8.026 -0.2522 -0.2500  1.1498
 4592SOL     OW18905   1.264   8.861   8.670 -0.2677  0.7826  0.1951
 4592SOL    HW118906   1.300   8.896   8.752 -2.3255  0.4183  1.2760
 4592SOL    HW218907   1.189   8.917   8.651  1.0323  1.7706 -2.2477
 4593SOL     OW18908   0.386   3.923   2.969 -0.3539  0.1363 -0.1170
 4593SOL    HW118909   0.380   3.921   3.064 -0.4097  1.6936 -0.0734
 4593SOL    HW218910   0.305   3.965   2.940 -1.2077 -2.0095 -0.9738
 4594SOL     OW18911   0.024   8.926   6.485  0.0646  0.2746  0.0207
 4594SOL    HW118912   0.114   8.920   6.515  0.1069  2.4958  0.4066
 4594SOL    HW218913  -0.010   9.006   6.526 -1.6317  0.2386 -1.2578
 4595SOL     OW18914   1.727   6.617   3.873  0.2073 -0.0536  0.2325
 4595SOL    HW118915   1.632   6.607   3.874  0.0690  0.9677 -1.0536
 4595SOL    HW218916   1.756   6.587   3.960 -1.0649 -2.2365 -0.0922
 4596SOL     OW18917   0.174   6.141   8.163  0.1227  0.5766  0.6297
 4596SOL    HW118918   0.218   6.095   8.234  0.2041  0.6348  0.6183
 4596SOL    HW218919   0.126   6.212   8.205 -3.5064 -2.0513  1.1840
 4597SOL     OW18920  10.625   3.158   9.327 -0.4374 -0.1542 -0.3622
 4597SOL    HW118921  10.567   3.084   9.345  0.6604 -0.8203  0.5421
 4597SOL    HW218922  10.701   3.119   9.284  1.5093 -0.0310  2.8376
 4598SOL     OW18923  11.211   8.718   4.908  0.4352 -0.6195 -0.9042
 4598SOL    HW118924  11.137   8.768   4.874  1.3142 -0.4120 -2.5536
 4598SOL    HW218925  11.192   8.708   5.001 -0.7461  1.0272 -0.9460
 4599SOL     OW18926   7.235   5.304   9.899 -0.0097  0.2469 -0.0257
 4599SOL    HW118927   7.263   5.302   9.990  0.3650 -0.4639 -0.1500
 4599SOL    HW218928   7.317   5.305   9.849 -0.2100 -0.0166 -0.3606
 4600SOL     OW18929   1.517  11.204   0.778  0.9419  0.1799  0.1324
 4600SOL    HW118930   1.501  11.145   0.851  1.3501 -0.7965 -0.5622
 4600SOL    HW218931   1.566  11.151   0.714  1.2375  1.2320 -0.5272
 4601SOL     OW18932   0.512   1.380   8.733 -0.8543  0.7462  0.8247
 4601SOL    HW118933   0.576   1.443   8.767 -0.7531  0.7866  0.5584
 4601SOL    HW218934   0.507   1.399   8.640  0.3197 -0.6868  0.4703
 4602SOL     OW18935   1.206   3.871   1.419 -0.1166  0.2456  0.4002
 4602SOL    HW118936   1.157   3.796   1.455 -0.2398 -1.1659 -2.5128
 4602SOL    HW218937   1.264   3.832   1.353  1.9078  2.4166  0.8396
 4603SOL     OW18938   0.340   3.953   7.174 -0.3733  0.0178 -1.0165
 4603SOL    HW118939   0.253   3.988   7.154 -0.9271 -1.6806 -1.6208
 4603SOL    HW218940   0.401   4.023   7.147 -1.5671  1.6253  0.3464
 4604SOL     OW18941   0.509   7.138   0.799  0.1263  0.0284  0.7113
 4604SOL    HW118942   0.570   7.201   0.761 -0.3714 -0.3907 -0.8092
 4604SOL    HW218943   0.512   7.063   0.740 -2.7997  0.4869 -0.0740
 4605SOL     OW18944   6.263   3.705  11.334 -0.4060  0.5985  0.0333
 4605SOL    HW118945   6.284   3.675  11.245 -1.9534  3.0083 -1.1924
 4605SOL    HW218946   6.191   3.648  11.362  0.4860 -0.5716  0.0353
 4606SOL     OW18947   6.842   6.551   1.972 -0.3927 -0.4247  0.1419
 4606SOL    HW118948   6.892   6.632   1.972 -1.3073  0.1437  1.3075
 4606SOL    HW218949   6.812   6.541   2.062 -2.0992 -0.9439 -0.4696
 4607SOL     OW18950  10.503   6.296   0.058 -0.0091  0.4635 -0.4864
 4607SOL    HW118951  10.548   6.213   0.050 -3.0728 -1.5710  2.0880
 4607SOL    HW218952  10.489   6.325  -0.032  0.8620 -1.9573 -1.4304
 4608SOL     OW18953   0.772   0.762   0.461  0.4606  0.3936  0.0346
 4608SOL    HW118954   0.832   0.709   0.513  1.5610 -0.0625 -1.6678
 4608SOL    HW218955   0.706   0.700   0.430  1.1364  0.2079 -1.0555
 4609SOL     OW18956  10.548   8.163   3.842 -0.2928  0.3182  0.0129
 4609SOL    HW118957  10.517   8.215   3.915  0.8003  0.3283  0.4761
 4609SOL    HW218958  10.565   8.227   3.772  0.0692  0.4795  0.2439
 4610SOL     OW18959  10.860  10.364   6.910 -0.3777 -0.9947 -0.5142
 4610SOL    HW118960  10.954  10.372   6.893 -0.6675 -1.0291 -2.1517
 4610SOL    HW218961  10.837  10.443   6.959  0.7104 -1.5196  0.8900
 4611SOL     OW18962   7.737   0.191   7.217 -0.4416  0.4405 -0.0469
 4611SOL    HW118963   7.645   0.205   7.195 -0.2397  1.3374 -0.3347
 4611SOL    HW218964   7.769   0.133   7.147 -0.9474 -0.4118  0.4178
 4612SOL     OW18965   4.786   0.777   0.598 -0.3206 -0.9608 -0.1320
 4612SOL    HW118966   4.735   0.858   0.588 -0.9993 -1.1129  1.8277
 4612SOL    HW218967   4.824   0.762   0.511 -0.3257  1.3547 -0.5747
 4613SOL     OW18968  10.381   7.836   8.776  0.0674  0.5208 -0.1734
 4613SOL    HW118969  10.419   7.805   8.693 -0.7456  1.0661 -0.7505
 4613SOL    HW218970  10.331   7.761   8.809  0.6413  0.2021 -0.0209
 4614SOL     OW18971  10.039   5.803   5.482 -0.2345  0.2753 -0.2131
 4614SOL    HW118972  10.023   5.870   5.415  0.4636  0.6092 -0.0526
 4614SOL    HW218973  10.061   5.853   5.561 -1.6085 -0.1062  0.4142
 4615SOL     OW18974   5.226   5.092   2.475 -0.1489 -0.2602 -0.3414
 4615SOL    HW118975   5.138   5.080   2.511  0.7310 -5.2782  0.4917
 4615SOL    HW218976   5.284   5.047   2.537  2.7853  1.0965 -1.9928
 4616SOL     OW18977   5.994   0.687   2.133  0.6157  0.6354  0.0423
 4616SOL    HW118978   5.924   0.700   2.069  1.3219 -0.6734 -1.0272
 4616SOL    HW218979   6.044   0.613   2.099  2.3043  1.3094  0.9808
 4617SOL     OW18980   5.722   5.045   6.409 -0.3965 -0.6134 -0.3755
 4617SOL    HW118981   5.766   5.001   6.336 -1.8237 -1.1145 -0.9493
 4617SOL    HW218982   5.632   5.013   6.405 -0.5366 -0.4656  1.4800
 4618SOL     OW18983   5.596   1.723   9.598  0.3264 -0.0915  0.3375
 4618SOL    HW118984   5.587   1.805   9.646  0.5167  0.8623 -1.2356
 4618SOL    HW218985   5.638   1.747   9.515  2.4331 -2.0737  0.7424
 4619SOL     OW18986   3.001   4.333  10.899 -0.0207  0.6918  0.1100
 4619SOL    HW118987   3.041   4.366  10.818  0.5748 -2.5816 -1.0096
 4619SOL    HW218988   3.075   4.309  10.955 -0.4003 -0.2745  0.2131
 4620SOL     OW18989   6.126   9.664   5.867  0.1471 -0.4035  0.1956
 4620SOL    HW118990   6.151   9.730   5.931  0.1132 -0.2962  0.0986
 4620SOL    HW218991   6.178   9.685   5.789 -0.7511  0.2520 -0.2462
 4621SOL     OW18992   9.895   9.022   1.745  0.3854 -0.0411 -0.9838
 4621SOL    HW118993   9.964   9.075   1.785  0.2914 -0.1268 -0.7096
 4621SOL    HW218994   9.874   9.069   1.664  1.3487 -0.4655 -1.4845
 4622SOL     OW18995   9.994  10.814   6.532  0.1521  0.0848  0.0973
 4622SOL    HW118996   9.964  10.798   6.622 -0.3779 -1.4214 -0.3271
 4622SOL    HW218997  10.075  10.862   6.542 -0.2341  0.4893  1.3786
 4623SOL     OW18998   8.496   1.754   5.084  0.3787 -0.6218 -0.1818
 4623SOL    HW118999   8.410   1.713   5.084 -0.7295  1.5809  1.7418
 4623SOL    HW219000   8.490   1.822   5.017 -0.4027  1.4701  1.9508
 4624SOL     OW19001   8.735   1.556   9.587  0.0023 -0.1965 -0.4664
 4624SOL    HW119002   8.787   1.592   9.659 -1.3106 -0.1743  0.4996
 4624SOL    HW219003   8.654   1.526   9.629 -0.6592 -0.4558 -1.8996
 4625SOL     OW19004   0.145   2.288   1.227 -0.2191 -0.2129  1.1274
 4625SOL    HW119005   0.050   2.296   1.225 -0.1580  0.3010 -0.3689
 4625SOL    HW219006   0.161   2.194   1.214 -0.5221 -0.3130  1.4791
 4626SOL     OW19007   4.498   3.304   7.895 -0.1836 -0.3585  0.5051
 4626SOL    HW119008   4.429   3.253   7.937 -1.0838 -0.3819 -0.9629
 4626SOL    HW219009   4.511   3.263   7.810  1.7516 -0.4270  0.7987
 4627SOL     OW19010  10.788   3.689   2.879 -0.1320 -0.1155 -0.1723
 4627SOL    HW119011  10.732   3.650   2.945 -1.8585 -2.1557 -2.7387
 4627SOL    HW219012  10.750   3.775   2.862 -1.0962 -0.5489 -0.2041
 4628SOL     OW19013   7.939   0.748   4.612 -0.1590 -0.0436  0.3330
 4628SOL    HW119014   7.886   0.702   4.677 -1.3399  0.9552  0.0940
 4628SOL    HW219015   7.970   0.826   4.658 -0.4104  0.2988 -0.0751
 4629SOL     OW19016   1.879   5.419   1.084 -0.0043  0.4575 -0.0832
 4629SOL    HW119017   1.852   5.352   1.021 -0.8113  0.6338  0.0707
 4629SOL    HW219018   1.939   5.475   1.034 -0.7989  0.7171 -0.7758
 4630SOL     OW19019   3.314   2.164   5.388 -0.5041  0.1517  0.2288
 4630SOL    HW119020   3.379   2.223   5.425 -1.6597  0.2753  2.1412
 4630SOL    HW219021   3.264   2.132   5.463 -0.2544 -2.8511 -0.7957
 4631SOL     OW19022   8.533   2.905   4.279 -0.7445 -0.1204  0.7581
 4631SOL    HW119023   8.526   2.832   4.341 -0.1078 -0.3056  0.6155
 4631SOL    HW219024   8.627   2.915   4.264 -0.8390  0.6021  0.6217
 4632SOL     OW19025   6.827   1.286   2.309  0.3549 -0.3281 -0.5375
 4632SOL    HW119026   6.749   1.303   2.256  0.3504 -1.5265 -0.9201
 4632SOL    HW219027   6.852   1.196   2.288  1.0590 -0.4095  0.5913
 4633SOL     OW19028   6.948   2.869   6.524  0.0735  0.0962  0.4891
 4633SOL    HW119029   6.929   2.818   6.445 -0.1150  1.2864 -0.2403
 4633SOL    HW219030   6.981   2.953   6.492  2.9091 -0.4936  1.7070
 4634SOL     OW19031   3.216   7.785   2.053  0.1022 -0.2800  0.0796
 4634SOL    HW119032   3.306   7.772   2.083  0.6926  2.2551 -0.4267
 4634SOL    HW219033   3.208   7.728   1.977  1.1989 -0.7737  0.3254
 4635SOL     OW19034   2.107   7.174   8.895 -0.4672 -0.2717  0.1804
 4635SOL    HW119035   2.200   7.151   8.894 -0.5487 -0.6206  0.8570
 4635SOL    HW219036   2.077   7.155   8.806  0.6810  2.2497 -0.8022
 4636SOL     OW19037   1.942   0.789   1.949 -0.5963 -0.4315  0.6337
 4636SOL    HW119038   1.913   0.800   2.040 -0.2943  0.0791  0.6673
 4636SOL    HW219039   2.006   0.859   1.936 -0.1544 -0.9134  0.2312
 4637SOL     OW19040   7.785   2.774   4.289  0.5766 -0.2326 -0.2656
 4637SOL    HW119041   7.872   2.805   4.313  0.7958  0.2137 -1.5942
 4637SOL    HW219042   7.725   2.840   4.326  0.7658 -0.7661  1.0147
 4638SOL     OW19043  10.981   2.419   0.808  0.1941 -0.5791 -0.0495
 4638SOL    HW119044  11.073   2.398   0.793  0.0239 -1.2630 -0.1609
 4638SOL    HW219045  10.937   2.334   0.809 -0.4701 -0.2393 -0.2071
 4639SOL     OW19046  10.664  10.064   2.467 -0.6302 -0.5486  0.1105
 4639SOL    HW119047  10.665  10.026   2.379 -1.3131  1.8154 -0.9512
 4639SOL    HW219048  10.732  10.016   2.515  2.1482  0.4905 -2.7030
 4640SOL     OW19049   0.389   3.482   8.690  0.1328 -0.6312  0.2962
 4640SOL    HW119050   0.347   3.494   8.605 -0.1881  0.0035  0.5391
 4640SOL    HW219051   0.481   3.464   8.670  0.1329 -0.1043 -0.1660
 4641SOL     OW19052   5.002  10.195   2.029 -0.8513  0.3682 -0.5830
 4641SOL    HW119053   5.030  10.106   2.012 -0.9927  0.8607 -3.7181
 4641SOL    HW219054   5.083  10.246   2.030 -1.0205  0.7512 -2.7856
 4642SOL     OW19055   6.780   5.217   2.091 -0.0944  0.4005 -0.6051
 4642SOL    HW119056   6.743   5.299   2.058 -0.5324  1.1487  1.6328
 4642SOL    HW219057   6.833   5.183   2.019 -1.5598  1.5979 -2.2856
 4643SOL     OW19058   6.525   7.103   0.360  0.3188  0.1538 -0.1213
 4643SOL    HW119059   6.593   7.120   0.294  1.2537 -1.1387  0.4840
 4643SOL    HW219060   6.490   7.190   0.381  0.4633  0.6574 -1.8249
 4644SOL     OW19061  10.899   6.694   1.231  0.0393  0.4604  0.2033
 4644SOL    HW119062  10.837   6.767   1.232 -0.8432 -0.2956  1.4802
 4644SOL    HW219063  10.913   6.672   1.323 -0.1380 -1.3517 -0.1882
 4645SOL     OW19064   8.523   6.144   4.816  0.4596 -0.0123 -0.2059
 4645SOL    HW119065   8.601   6.149   4.761  1.0921  0.9124  0.7585
 4645SOL    HW219066   8.511   6.233   4.849 -2.1736  0.3348 -1.9260
 4646SOL     OW19067   4.650   5.449   9.800  0.0743  0.0299 -0.1418
 4646SOL    HW119068   4.589   5.382   9.832 -0.8226  1.4686  1.2023
 4646SOL    HW219069   4.721   5.448   9.864  1.4169 -1.4982 -1.5921
 4647SOL     OW19070   4.980   2.015   6.086 -0.3455  0.0296  0.3344
 4647SOL    HW119071   5.003   1.923   6.086  0.9122  0.3302 -1.1415
 4647SOL    HW219072   4.922   2.025   6.162 -0.7817 -2.0193  0.3012
 4648SOL     OW19073   3.938   9.414   0.641 -0.9348 -0.3132 -0.5534
 4648SOL    HW119074   3.851   9.453   0.631  0.3588  2.6830 -0.6775
 4648SOL    HW219075   3.993   9.463   0.581  1.3178 -0.6377  1.1778
 4649SOL     OW19076   2.187  10.588   9.001 -0.4767  0.4979 -0.2033
 4649SOL    HW119077   2.157  10.527   8.934 -1.5797 -0.0225  0.7444
 4649SOL    HW219078   2.236  10.534   9.063  0.0418  0.8792 -0.2732
 4650SOL     OW19079   9.531   3.215   0.225  0.0381  0.0196  0.0953
 4650SOL    HW119080   9.520   3.141   0.167  0.1304 -0.2119  0.3721
 4650SOL    HW219081   9.465   3.204   0.293 -0.7923  0.8750 -0.5645
 4651SOL     OW19082   0.211  10.953  10.884  0.3479 -0.2547  0.1417
 4651SOL    HW119083   0.285  11.004  10.918 -0.8466  1.2219  0.5829
 4651SOL    HW219084   0.164  10.925  10.962 -0.8250  0.7420 -0.2021
 4652SOL     OW19085   1.635   9.833   1.724  0.6594  0.3175  1.0942
 4652SOL    HW119086   1.725   9.804   1.735  0.0412 -2.4859 -0.8687
 4652SOL    HW219087   1.619   9.828   1.630 -2.5087 -2.3642  1.6823
 4653SOL     OW19088   3.647   9.465   9.165  0.6051  0.5476 -0.0910
 4653SOL    HW119089   3.613   9.527   9.230 -0.1855  1.1505 -1.0524
 4653SOL    HW219090   3.736   9.495   9.146  0.3941  1.1150 -0.1937
 4654SOL     OW19091   8.489   9.729   2.134  0.2169  0.2440  0.9027
 4654SOL    HW119092   8.532   9.646   2.113 -0.8202  0.0074 -0.3266
 4654SOL    HW219093   8.489   9.732   2.229  1.5583 -0.4860  0.9464
 4655SOL     OW19094   3.509   2.186   8.221  0.4630 -0.3700 -0.4262
 4655SOL    HW119095   3.428   2.163   8.175  0.4573  0.0641 -0.6346
 4655SOL    HW219096   3.575   2.194   8.151  0.4494  0.3145 -0.3600
 4656SOL     OW19097   8.816   5.871  11.054 -0.2786  0.4039 -0.3835
 4656SOL    HW119098   8.872   5.912  11.120 -0.4553 -0.2003  0.1491
 4656SOL    HW219099   8.867   5.797  11.022 -0.9984 -0.4900  0.5177
 4657SOL     OW19100   9.198   0.152   6.365 -0.0823  0.5012 -0.0766
 4657SOL    HW119101   9.168   0.235   6.330 -1.4910 -0.2352 -0.6552
 4657SOL    HW219102   9.128   0.123   6.424 -0.6514 -1.3024 -1.5653
 4658SOL     OW19103  10.634   7.822   7.271 -0.0689 -0.5795  0.1352
 4658SOL    HW119104  10.565   7.879   7.305  0.1527 -0.2329  0.0054
 4658SOL    HW219105  10.696   7.882   7.228  0.3618 -0.8775  0.3375
 4659SOL     OW19106   5.287   1.628   8.405  0.2594 -0.1652 -0.0013
 4659SOL    HW119107   5.279   1.545   8.452 -0.1173  0.4018  0.9515
 4659SOL    HW219108   5.327   1.688   8.469 -2.4356  1.2668  0.4153
 4660SOL     OW19109   3.681   5.947   9.972  0.6592  0.1777 -0.5505
 4660SOL    HW119110   3.643   6.035   9.978 -1.2524 -0.5720 -1.0662
 4660SOL    HW219111   3.643   5.900  10.046  1.1027 -0.4012 -0.6915
 4661SOL     OW19112   0.930   5.946   5.944  0.1741  0.3163 -0.2842
 4661SOL    HW119113   0.841   5.951   5.910 -0.8341  0.8829  2.3001
 4661SOL    HW219114   0.925   5.880   6.014  1.5652  0.9870  0.4753
 4662SOL     OW19115   8.745   7.318   8.301  0.4432 -0.6971  0.6631
 4662SOL    HW119116   8.824   7.265   8.310  0.3205 -0.5825  2.5518
 4662SOL    HW219117   8.741   7.339   8.208  2.4658 -0.9779  0.4949
 4663SOL     OW19118   4.086  10.308  10.127  0.6548 -0.1203 -0.1787
 4663SOL    HW119119   4.132  10.225  10.139  0.3472 -0.2971 -0.2027
 4663SOL    HW219120   4.050  10.302  10.038  0.3127 -0.1201 -0.0395
 4664SOL     OW19121   7.805   6.649   5.205 -0.3111  0.1995 -0.9373
 4664SOL    HW119122   7.796   6.568   5.155  0.0501 -0.3361 -0.1463
 4664SOL    HW219123   7.891   6.683   5.179  0.2485 -0.5177 -0.0621
 4665SOL     OW19124   7.245   5.941   0.232  0.1250 -0.5557  0.1442
 4665SOL    HW119125   7.160   5.911   0.200  0.3379 -1.8164  0.6959
 4665SOL    HW219126   7.235   6.036   0.242 -1.2752 -0.7139  0.3851
 4666SOL     OW19127   7.615   6.210   6.173 -0.8957  0.5740 -0.1159
 4666SOL    HW119128   7.668   6.138   6.141  0.1918  0.3707  2.0577
 4666SOL    HW219129   7.529   6.197   6.132 -0.5459 -1.6320 -0.1977
 4667SOL     OW19130   6.060   5.267   1.117 -0.2154  0.0418 -1.1424
 4667SOL    HW119131   6.019   5.214   1.185 -0.1092  0.0810 -1.0472
 4667SOL    HW219132   5.989   5.324   1.086  0.3560  1.8342  0.7428
 4668SOL     OW19133   1.449   9.135   5.203  0.3702  1.0792 -0.4430
 4668SOL    HW119134   1.481   9.071   5.267 -0.8082  0.0784 -0.8333
 4668SOL    HW219135   1.484   9.105   5.119  0.7607  1.6010 -0.4683
 4669SOL     OW19136   6.877   8.347   9.048 -0.2773  0.3241  0.3789
 4669SOL    HW119137   6.805   8.303   9.093 -0.3357 -0.3925 -0.4067
 4669SOL    HW219138   6.918   8.401   9.116 -0.4052 -0.6887  1.2637
 4670SOL     OW19139  10.800  10.229   0.270 -0.0094  0.1006  0.2248
 4670SOL    HW119140  10.798  10.148   0.220 -2.3873  0.6351 -0.6127
 4670SOL    HW219141  10.757  10.208   0.353 -0.2600  0.3927  0.1709
 4671SOL     OW19142   3.030   2.603   0.861  0.4132 -0.4376 -0.1278
 4671SOL    HW119143   2.935   2.589   0.859  0.5360 -1.2065 -0.7371
 4671SOL    HW219144   3.044   2.657   0.939 -0.4116 -1.2284  0.5989
 4672SOL     OW19145   6.300   2.562   1.882  0.2200  0.5637  0.3989
 4672SOL    HW119146   6.278   2.523   1.967 -1.8342 -0.7043 -0.6787
 4672SOL    HW219147   6.236   2.632   1.870  0.3203  0.5494 -0.2302
 4673SOL     OW19148  11.093   8.562   8.153 -0.4961 -0.2429  0.1800
 4673SOL    HW119149  11.181   8.547   8.120 -0.9440 -1.0310 -0.6966
 4673SOL    HW219150  11.046   8.603   8.080 -0.7385  0.5777  0.7845
 4674SOL     OW19151   9.684   0.353   8.418 -0.4620 -0.6385  0.1749
 4674SOL    HW119152   9.657   0.295   8.490 -2.5498  0.4742  0.3177
 4674SOL    HW219153   9.739   0.419   8.460  1.2769 -1.9865  0.1365
 4675SOL     OW19154   8.469   0.258   1.541 -0.2091 -0.3019 -0.1758
 4675SOL    HW119155   8.515   0.330   1.585 -1.1627 -0.7084  1.5151
 4675SOL    HW219156   8.538   0.193   1.523  0.8498  1.3852 -2.5864
 4676SOL     OW19157   7.279  10.259   5.882 -0.5544  0.2714 -0.2659
 4676SOL    HW119158   7.215  10.193   5.909 -0.0127  0.1223  0.6700
 4676SOL    HW219159   7.303  10.304   5.963  0.0922  0.7147 -0.6990
 4677SOL     OW19160  10.983   4.923   1.780  0.1021 -0.3011  0.6674
 4677SOL    HW119161  10.909   4.965   1.737  0.4053 -0.1219  0.3213
 4677SOL    HW219162  10.984   4.833   1.745  2.0493  0.6411 -1.8602
 4678SOL     OW19163   8.215   6.551   7.518 -0.6835  0.2329 -0.3589
 4678SOL    HW119164   8.128   6.512   7.509 -1.7585  2.2006  0.9936
 4678SOL    HW219165   8.200   6.629   7.572  2.1058  0.0233  0.7898
 4679SOL     OW19166   5.246   2.330   7.415  0.4217 -0.2021  0.4576
 4679SOL    HW119167   5.322   2.336   7.474 -0.1466  0.2693  1.1536
 4679SOL    HW219168   5.208   2.244   7.434  1.7308 -1.1488 -1.0780
 4680SOL     OW19169   9.799   4.399   7.586  0.2692  0.5027  0.4161
 4680SOL    HW119170   9.859   4.452   7.533 -0.4178  0.1097 -0.7607
 4680SOL    HW219171   9.809   4.434   7.675 -0.0365  2.4742 -0.2938
 4681SOL     OW19172  11.206   5.655   2.303  0.9156  0.1826 -0.1744
 4681SOL    HW119173  11.262   5.658   2.380 -0.2183 -1.1181  0.7416
 4681SOL    HW219174  11.198   5.561   2.283  0.7306  0.4713 -1.5181
 4682SOL     OW19175   9.640   0.230   9.392  0.3454 -0.3471 -0.8976
 4682SOL    HW119176   9.685   0.261   9.314  2.4463  1.7677  1.0792
 4682SOL    HW219177   9.623   0.309   9.443  0.4257 -1.8285  1.4974
 4683SOL     OW19178  10.723   8.386   0.034  0.5364  0.4515 -0.0808
 4683SOL    HW119179  10.631   8.367   0.016  1.0552 -0.6157 -1.7303
 4683SOL    HW219180  10.725   8.410   0.127 -0.9722 -2.2475  0.6866
 4684SOL     OW19181   4.708   6.437   0.267  0.2471  0.2135  0.0990
 4684SOL    HW119182   4.793   6.477   0.284  0.1782  0.7646 -0.8370
 4684SOL    HW219183   4.660   6.503   0.216 -1.0102  0.2148  1.2493
 4685SOL     OW19184   0.091   4.573   1.243 -0.6548 -0.0342 -0.6361
 4685SOL    HW119185   0.055   4.651   1.286  0.8423  0.6298 -0.5362
 4685SOL    HW219186   0.050   4.572   1.157 -2.3674 -0.3964  0.1641
 4686SOL     OW19187  10.734   5.266   1.541 -0.1447  0.0975  0.2435
 4686SOL    HW119188  10.822   5.256   1.576  0.1666  0.3331 -0.4475
 4686SOL    HW219189  10.679   5.279   1.617 -0.0016 -2.7795  0.9003
 4687SOL     OW19190   0.587  10.836   4.856 -1.2013  0.4738  0.2651
 4687SOL    HW119191   0.529  10.888   4.800 -0.0208  0.0390 -1.3608
 4687SOL    HW219192   0.592  10.751   4.814  0.2968  0.3684  0.6296
 4688SOL     OW19193   3.042   4.744   9.444  0.1515 -0.4580  0.0107
 4688SOL    HW119194   3.010   4.728   9.533  0.1205  1.3615  0.3475
 4688SOL    HW219195   3.125   4.697   9.439 -0.8209 -2.2714  0.3055
 4689SOL     OW19196   2.556   7.816   4.149 -0.3206 -0.0223 -0.2846
 4689SOL    HW119197   2.576   7.727   4.121  0.8396  0.0757  0.2029
 4689SOL    HW219198   2.520   7.858   4.070 -1.6858 -1.1495 -0.2923
 4690SOL     OW19199   0.706   0.845   6.928 -0.0107  0.7548  0.4622
 4690SOL    HW119200   0.635   0.887   6.976  0.7011  2.0734  0.3599
 4690SOL    HW219201   0.687   0.862   6.836  0.0708  0.5126  0.3989
 4691SOL     OW19202   8.822   5.016  11.001  0.7997  0.2472  0.1761
 4691SOL    HW119203   8.910   5.052  10.997  0.3462  1.3656 -0.4132
 4691SOL    HW219204   8.816   4.973  11.086  1.8211  0.4012  0.3278
 4692SOL     OW19205   8.201  11.200   1.762  0.2784  0.4721  0.5457
 4692SOL    HW119206   8.253  11.121   1.758  0.1513  0.3737  0.8091
 4692SOL    HW219207   8.210  11.240   1.675  0.1036  0.0206  0.3225
 4693SOL     OW19208   2.306   8.421   6.937 -0.7865 -0.0742  0.1570
 4693SOL    HW119209   2.346   8.381   6.860  1.1527  0.6613  0.7462
 4693SOL    HW219210   2.341   8.371   7.011 -1.5761  0.0933  0.6579
 4694SOL     OW19211   8.045   7.110   4.005  0.3473 -0.5037 -0.2590
 4694SOL    HW119212   8.006   7.062   3.933  0.0708 -0.7288  0.0372
 4694SOL    HW219213   8.049   7.201   3.976 -2.8384  0.0155  0.7035
 4695SOL     OW19214   2.231   4.654   2.806  0.3510 -0.3447  0.6435
 4695SOL    HW119215   2.321   4.661   2.837  0.3569 -0.3624  0.6305
 4695SOL    HW219216   2.178   4.672   2.883  0.3556  1.7059  0.2012
 4696SOL     OW19217   8.713   9.225   0.126  0.2969 -0.1410  0.4260
 4696SOL    HW119218   8.684   9.314   0.106  0.9687  0.2159  1.0168
 4696SOL    HW219219   8.637   9.170   0.108  0.0541  0.4830 -0.4940
 4697SOL     OW19220   2.389   6.558   7.412 -0.4612  0.1386  0.2085
 4697SOL    HW119221   2.308   6.585   7.370 -0.3949 -0.5369 -0.3425
 4697SOL    HW219222   2.435   6.506   7.347  0.9275  1.4283  0.1184
 4698SOL     OW19223   0.218   5.985   4.215  0.0834 -0.4659  0.0456
 4698SOL    HW119224   0.172   5.925   4.157 -1.5612 -0.2190  1.0528
 4698SOL    HW219225   0.263   6.046   4.157  0.9785 -2.0944 -0.9706
 4699SOL     OW19226   7.200   6.560   4.467 -0.2734 -0.1114 -0.2762
 4699SOL    HW119227   7.263   6.488   4.467  0.0039  0.0920  2.2556
 4699SOL    HW219228   7.223   6.611   4.389  1.7076 -0.8982 -0.2462
 4700SOL     OW19229   6.974   4.282   4.185 -0.7761 -0.4523  0.2693
 4700SOL    HW119230   6.923   4.360   4.163 -1.3332 -1.2355 -1.2925
 4700SOL    HW219231   7.064   4.305   4.164 -1.0138 -0.4184 -0.7010
 4701SOL     OW19232   8.475   2.911   5.385  0.4004 -0.0788 -0.2158
 4701SOL    HW119233   8.424   2.909   5.305 -0.7490 -1.4283  0.5293
 4701SOL    HW219234   8.480   3.004   5.408 -1.0398  0.1404 -0.7427
 4702SOL     OW19235   4.461   6.628  10.226  0.0456  0.0288  0.3279
 4702SOL    HW119236   4.519   6.604  10.154  1.1742  1.6945  0.6361
 4702SOL    HW219237   4.415   6.706  10.195 -0.5432 -0.1179  0.8369
 4703SOL     OW19238   9.896   7.344   8.165  0.7950  0.1401 -0.2621
 4703SOL    HW119239   9.898   7.371   8.257  0.6915 -0.6403 -0.0288
 4703SOL    HW219240   9.954   7.406   8.121 -0.0542  1.2441  0.1297
 4704SOL     OW19241   0.705   6.320   9.666  0.2673  0.7155  0.0327
 4704SOL    HW119242   0.692   6.287   9.577 -1.0904 -0.8554  0.7731
 4704SOL    HW219243   0.719   6.414   9.655 -2.5178  0.9945 -1.6775
 4705SOL     OW19244  10.710   9.478   5.874  0.0072 -0.3819 -0.3983
 4705SOL    HW119245  10.633   9.523   5.840  0.4617  0.9984  0.3528
 4705SOL    HW219246  10.784   9.530   5.843  0.6085 -1.3528 -0.6102
 4706SOL     OW19247   9.636   1.969   4.502 -0.4581  0.6576  0.4292
 4706SOL    HW119248   9.655   1.887   4.456  0.3988  1.3034 -0.3964
 4706SOL    HW219249   9.543   1.963   4.525 -0.7267  0.0171 -0.7769
 4707SOL     OW19250   6.525  10.028   5.618  0.6568  0.0173  0.4075
 4707SOL    HW119251   6.503  10.115   5.653 -1.0223 -0.1592 -0.1452
 4707SOL    HW219252   6.536   9.973   5.695 -0.3211  0.2588  0.7317
 4708SOL     OW19253   4.962   3.934  10.862  0.0862  0.3655  0.1889
 4708SOL    HW119254   4.935   3.846  10.890 -1.1493  0.4336 -0.7037
 4708SOL    HW219255   4.906   3.993  10.913  1.4479  0.6819  1.3538
 4709SOL     OW19256  10.368   5.298   8.886  0.2688 -0.9497  0.5797
 4709SOL    HW119257  10.276   5.269   8.886  0.7492 -2.6813 -2.0234
 4709SOL    HW219258  10.375   5.354   8.808  1.8828 -2.5965 -0.5005
 4710SOL     OW19259   8.126   9.380   0.108  0.2134 -0.0932 -0.1837
 4710SOL    HW119260   8.067   9.306   0.125  0.6710 -0.5352 -0.4750
 4710SOL    HW219261   8.196   9.342   0.054  0.9465  0.3407  0.4525
 4711SOL     OW19262  10.262  10.548   0.795 -0.6625  0.4299 -0.5065
 4711SOL    HW119263  10.236  10.463   0.760 -0.3751 -1.0113  2.5407
 4711SOL    HW219264  10.344  10.569   0.751 -0.7598 -0.8652 -1.3200
 4712SOL     OW19265   7.401   9.907   5.805 -0.5052  0.2844 -0.1954
 4712SOL    HW119266   7.411   9.829   5.860  0.7048  1.2204  0.9525
 4712SOL    HW219267   7.477   9.961   5.826 -1.0133  1.5118 -1.4256
 4713SOL     OW19268   8.189   3.001   6.479  0.6461 -0.0294 -0.6424
 4713SOL    HW119269   8.137   2.952   6.416 -0.8958 -0.3166  0.8202
 4713SOL    HW219270   8.279   2.980   6.457  0.0465 -2.3112 -1.0012
 4714SOL     OW19271   0.085   6.253   9.379 -0.1706  0.0656 -0.2576
 4714SOL    HW119272   0.165   6.205   9.358  0.0493  0.8714 -1.3595
 4714SOL    HW219273   0.067   6.233   9.471  1.6619  0.3939  0.1879
 4715SOL     OW19274   2.588   6.946   3.536 -0.5254  0.6816  0.2008
 4715SOL    HW119275   2.527   6.880   3.566  0.0250  0.1386  0.1275
 4715SOL    HW219276   2.660   6.943   3.599  1.4610 -1.6723 -2.1114
 4716SOL     OW19277   5.353   5.607  10.838 -0.2934  0.0964 -0.3627
 4716SOL    HW119278   5.369   5.520  10.874  1.4959  0.5811  0.0710
 4716SOL    HW219279   5.261   5.624  10.856 -0.5364 -1.5188 -0.0452
 4717SOL     OW19280  10.000   7.437   4.317 -0.0581  0.2956  0.1805
 4717SOL    HW119281   9.995   7.383   4.239  0.4468  1.4492 -0.6718
 4717SOL    HW219282  10.036   7.380   4.385  1.1235 -0.2391 -0.8841
 4718SOL     OW19283  10.880   0.684   6.101  0.3091  0.4072  0.3832
 4718SOL    HW119284  10.798   0.652   6.063  0.3192  1.5348 -0.6036
 4718SOL    HW219285  10.908   0.754   6.042  2.3936 -0.4866  0.2702
 4719SOL     OW19286   5.505  10.854   4.200 -0.0546  0.5804 -0.0418
 4719SOL    HW119287   5.552  10.842   4.282  1.2694  1.1878 -0.6934
 4719SOL    HW219288   5.568  10.896   4.142 -0.8444 -0.1824 -1.4885
 4720SOL     OW19289   6.853   6.768   4.986 -0.5040  0.3845  0.1865
 4720SOL    HW119290   6.795   6.712   4.934 -1.4038  1.0072  0.5272
 4720SOL    HW219291   6.834   6.857   4.957 -0.3521  0.6651  0.9350
 4721SOL     OW19292   8.136  10.227   7.775 -0.5385 -0.2499  0.5977
 4721SOL    HW119293   8.154  10.155   7.834  0.6297  0.0627  0.6432
 4721SOL    HW219294   8.213  10.230   7.717 -0.2413  1.3806  1.0399
 4722SOL     OW19295  10.884   2.582   6.444  0.3964  0.2375  0.0684
 4722SOL    HW119296  10.849   2.497   6.418  0.1259 -0.2144  1.8269
 4722SOL    HW219297  10.811   2.625   6.489  0.9705  0.7842  0.4918
 4723SOL     OW19298   1.816   1.304  10.185  0.3893 -0.5907  0.1241
 4723SOL    HW119299   1.853   1.390  10.162  0.4461 -0.4078  0.9071
 4723SOL    HW219300   1.735   1.299  10.133  0.6629 -0.2980 -0.3408
 4724SOL     OW19301   3.832   9.622   5.292 -0.4036  0.4831  0.1031
 4724SOL    HW119302   3.745   9.651   5.319  0.6829  3.1963  0.8289
 4724SOL    HW219303   3.882   9.618   5.373  0.2366 -0.8249 -0.3411
 4725SOL     OW19304   9.420   2.528   4.211 -0.3077  0.0721 -0.1879
 4725SOL    HW119305   9.354   2.466   4.240  0.4664 -0.7049 -0.0780
 4725SOL    HW219306   9.423   2.517   4.116 -0.7572  0.5410 -0.2625
 4726SOL     OW19307   0.409   6.283   6.843 -0.1598 -0.0210  0.2189
 4726SOL    HW119308   0.330   6.302   6.893  0.9603 -0.5434  2.2332
 4726SOL    HW219309   0.419   6.188   6.848  1.0990  0.1332  0.7564
 4727SOL     OW19310   8.428  10.671   4.261 -0.1926  0.8307  0.3220
 4727SOL    HW119311   8.520  10.684   4.286  0.3587 -1.8662 -0.1375
 4727SOL    HW219312   8.430  10.660   4.166 -0.8479 -0.1805  0.4115
 4728SOL     OW19313   6.844   5.605   7.314  0.4833 -0.0614 -0.1638
 4728SOL    HW119314   6.790   5.526   7.303  0.8568 -0.3947  0.3996
 4728SOL    HW219315   6.791   5.662   7.370  0.8391 -0.5153  0.6485
 4729SOL     OW19316   7.243   2.260   5.921  0.3620 -0.0626  0.2116
 4729SOL    HW119317   7.225   2.168   5.939 -1.6268  0.4748  1.1605
 4729SOL    HW219318   7.157   2.298   5.901  1.1090  1.6482  0.1051
 4730SOL     OW19319   7.339   2.444   9.328  0.0992 -0.4823 -0.1911
 4730SOL    HW119320   7.387   2.382   9.382 -0.7086 -1.1935 -0.2737
 4730SOL    HW219321   7.364   2.422   9.238  0.5808 -0.0374 -0.1651
 4731SOL     OW19322   1.548   0.057   5.227 -0.8067 -0.9759 -0.1364
 4731SOL    HW119323   1.455   0.076   5.214 -0.8278 -0.9452  0.0528
 4731SOL    HW219324   1.590   0.144   5.231 -0.6830 -1.0039 -0.8539
 4732SOL     OW19325   7.852   6.761   6.710  0.2827  0.6419 -0.3578
 4732SOL    HW119326   7.832   6.668   6.699 -2.7079  0.9705  1.7436
 4732SOL    HW219327   7.806   6.786   6.790  0.6135  4.0776 -1.1723
 4733SOL     OW19328   8.020   7.618   1.626  0.0540  0.5456 -0.3962
 4733SOL    HW119329   8.030   7.588   1.716 -2.0382  0.6598 -0.0917
 4733SOL    HW219330   8.036   7.712   1.629  0.5643  0.4518 -0.2479
 4734SOL     OW19331   5.518   2.923   2.205 -0.3064 -0.1503  0.1381
 4734SOL    HW119332   5.574   2.850   2.177  1.0649  1.3657 -1.1394
 4734SOL    HW219333   5.578   2.983   2.249 -1.1631  0.8669 -0.0752
 4735SOL     OW19334   5.787  10.725   1.424 -0.8129 -0.2295  0.3952
 4735SOL    HW119335   5.866  10.759   1.380  0.0101 -1.3496  0.9835
 4735SOL    HW219336   5.817  10.646   1.469 -2.4460 -1.1031 -0.0056
 4736SOL     OW19337   2.824   2.087   7.128 -0.4284  0.4184 -0.4996
 4736SOL    HW119338   2.912   2.108   7.095 -0.0419  1.6724  1.1891
 4736SOL    HW219339   2.780   2.045   7.055  1.8903 -1.0540 -1.1064
 4737SOL     OW19340   1.690   6.376   1.699  0.1282  0.3959 -0.2771
 4737SOL    HW119341   1.601   6.357   1.729 -0.6381  1.2247 -1.9855
 4737SOL    HW219342   1.746   6.341   1.768 -1.4683 -1.4570  0.1287
 4738SOL     OW19343  10.781   6.198   6.026  0.1864  0.9267  0.1977
 4738SOL    HW119344  10.791   6.105   6.045  0.1325  1.0550  0.9019
 4738SOL    HW219345  10.832   6.213   5.946  1.1439  0.5169  0.7197
 4739SOL     OW19346   5.676   5.773  11.290 -0.6069  0.2518  0.2764
 4739SOL    HW119347   5.731   5.766  11.212 -0.9383  0.0515  0.0560
 4739SOL    HW219348   5.597   5.818  11.259 -0.6767  0.3044  0.5302
 4740SOL     OW19349  11.302   3.362   1.210  0.9356 -0.3031 -0.3598
 4740SOL    HW119350  11.210   3.362   1.182  0.5958  2.1085  0.6369
 4740SOL    HW219351  11.303   3.301   1.284 -0.0979  0.4768  0.3116
 4741SOL     OW19352   8.855   4.128   5.736  0.1398 -0.2045 -0.8762
 4741SOL    HW119353   8.798   4.056   5.764 -0.3388  0.4603 -0.1322
 4741SOL    HW219354   8.820   4.155   5.651 -1.3055  0.8913  0.0482
 4742SOL     OW19355   1.559   3.416   7.589  0.3452  0.1421  0.2844
 4742SOL    HW119356   1.596   3.421   7.501 -0.1988 -1.2575 -0.0416
 4742SOL    HW219357   1.465   3.412   7.575  0.2709 -0.3845  0.9143
 4743SOL     OW19358   4.961   3.015   1.192  0.4815  0.7072  0.1767
 4743SOL    HW119359   5.045   2.983   1.224  0.7720  1.7425  0.4737
 4743SOL    HW219360   4.905   3.017   1.270  1.0706  2.8476  0.5816
 4744SOL     OW19361  10.665   0.576  10.908 -0.2794  0.1075  0.4473
 4744SOL    HW119362  10.589   0.620  10.946 -0.9308 -0.2911 -0.3598
 4744SOL    HW219363  10.718   0.647  10.871 -0.8349  0.3035  0.0158
 4745SOL     OW19364   6.503   9.159   3.832  0.1732  0.3593  0.1745
 4745SOL    HW119365   6.532   9.159   3.740  2.0039  1.6290  0.7087
 4745SOL    HW219366   6.573   9.112   3.878 -0.4965  0.1514  0.9743
 4746SOL     OW19367   8.492   1.012   5.631  0.1422 -0.0017 -0.6233
 4746SOL    HW119368   8.553   0.967   5.690 -1.6215 -0.6757  0.7416
 4746SOL    HW219369   8.534   1.009   5.545  2.4240  0.3315  0.4522
 4747SOL     OW19370   6.272  10.811   9.031 -0.6743 -0.2565 -0.3138
 4747SOL    HW119371   6.242  10.854   8.950 -0.8290 -1.8061 -1.0926
 4747SOL    HW219372   6.367  10.827   9.031 -0.8039  0.5503 -0.3156
 4748SOL     OW19373  10.394   8.454   3.690 -0.1302  0.4666 -0.4689
 4748SOL    HW119374  10.318   8.414   3.647  0.5434 -0.1824 -1.0775
 4748SOL    HW219375  10.399   8.542   3.653  0.4196 -0.0739 -1.7242
 4749SOL     OW19376   7.241   5.118   6.565  0.2494  0.0127  0.0957
 4749SOL    HW119377   7.152   5.086   6.551 -0.5703  1.8695  0.9011
 4749SOL    HW219378   7.235   5.172   6.644  2.4916 -1.3305  1.2214
 4750SOL     OW19379   4.652   2.853   9.029  0.0666 -0.3515  0.1846
 4750SOL    HW119380   4.737   2.830   9.065  1.1868  0.7363 -1.7058
 4750SOL    HW219381   4.595   2.779   9.052  1.2568 -0.6490  2.2908
 4751SOL     OW19382   4.353  10.512   2.119 -0.1323  0.1756  0.0643
 4751SOL    HW119383   4.349  10.591   2.174  0.5867  0.0269  0.3364
 4751SOL    HW219384   4.446  10.498   2.104 -0.3410  0.3697 -1.4427
 4752SOL     OW19385   6.391   9.900   9.848  0.0191  0.0824  0.2065
 4752SOL    HW119386   6.343   9.974   9.884  0.1107  0.6297 -0.7677
 4752SOL    HW219387   6.335   9.866   9.779 -0.2893 -1.1410  1.0477
 4753SOL     OW19388  11.314   8.145   4.242  0.1400  0.2099  0.7011
 4753SOL    HW119389  11.331   8.059   4.282  1.1059  0.9376  1.9116
 4753SOL    HW219390  11.334   8.208   4.312 -0.2048  1.4337 -0.2873
 4754SOL     OW19391   5.144  10.726   2.358 -0.1960  0.2893 -0.4238
 4754SOL    HW119392   5.194  10.648   2.382 -0.2478  0.6287  0.8046
 4754SOL    HW219393   5.144  10.725   2.262  0.8557 -0.5482 -0.4324
 4755SOL     OW19394   8.717   9.974   2.331  0.1635 -0.1241  0.2552
 4755SOL    HW119395   8.735  10.066   2.313  0.8615 -0.4093 -0.5688
 4755SOL    HW219396   8.791   9.945   2.385 -0.3324 -0.0671  0.9693
 4756SOL     OW19397  10.986   8.635   0.662 -0.0835 -0.2415 -0.4166
 4756SOL    HW119398  11.041   8.658   0.737  0.2774 -0.8584 -0.4979
 4756SOL    HW219399  11.044   8.589   0.602 -0.9517 -1.8601 -0.0200
 4757SOL     OW19400   2.356  11.213   2.574  0.2293  0.2886  0.0843
 4757SOL    HW119401   2.388  11.130   2.610 -0.3757  0.0266  0.0349
 4757SOL    HW219402   2.304  11.251   2.645 -0.9848 -0.2408 -0.4983
 4758SOL     OW19403   4.736   3.917   9.231 -0.3989  0.4753  0.0108
 4758SOL    HW119404   4.769   3.834   9.266 -2.0306 -0.0947  0.2407
 4758SOL    HW219405   4.793   3.984   9.268 -0.7510 -0.3187  2.0135
 4759SOL     OW19406   8.937   3.822   5.448 -0.2313 -0.2533 -0.8303
 4759SOL    HW119407   8.958   3.858   5.534  0.0150 -0.9819 -0.5790
 4759SOL    HW219408   9.019   3.823   5.400 -0.4827  0.6578 -1.2485
 4760SOL     OW19409   2.627   3.261   2.497 -0.2064 -0.3089 -0.3311
 4760SOL    HW119410   2.603   3.279   2.587 -1.0938 -1.9839 -0.2196
 4760SOL    HW219411   2.555   3.298   2.445  0.4848  0.9854 -0.3895
 4761SOL     OW19412   9.847   2.400   3.254  0.2365  0.6188  0.0417
 4761SOL    HW119413   9.772   2.424   3.199  0.4014  1.5501  0.2201
 4761SOL    HW219414   9.811   2.341   3.320  0.4256 -2.3892 -2.3975
 4762SOL     OW19415   3.756   9.742   9.168 -0.1344 -0.2398 -0.1201
 4762SOL    HW119416   3.711   9.797   9.231  0.1411  3.4497 -2.9344
 4762SOL    HW219417   3.848   9.769   9.174  0.4527 -2.1947  0.1537
 4763SOL     OW19418   6.882   4.534  10.622  0.8414  0.3978  0.7678
 4763SOL    HW119419   6.816   4.602  10.604  0.8289  0.4008  0.8282
 4763SOL    HW219420   6.840   4.452  10.594  0.6141  0.3373  1.2784
 4764SOL     OW19421  11.105   4.510  10.204  0.0377 -0.0890 -0.0362
 4764SOL    HW119422  11.042   4.469  10.263 -1.5252  1.0531 -0.8686
 4764SOL    HW219423  11.115   4.447  10.132 -1.0573  0.2186 -0.4716
 4765SOL     OW19424   1.145   7.267   0.516 -0.3720 -0.6007 -0.3023
 4765SOL    HW119425   1.132   7.219   0.597 -0.0352 -0.1418  0.0225
 4765SOL    HW219426   1.057   7.298   0.493 -0.3620 -0.1834  0.2221
 4766SOL     OW19427   5.965  10.855   8.137  0.9241 -0.6276  0.0197
 4766SOL    HW119428   5.933  10.939   8.170  1.1052 -0.8558  0.7870
 4766SOL    HW219429   5.980  10.870   8.044  0.7224  0.1228  0.1050
 4767SOL     OW19430   9.848   3.284  10.388  0.8223 -0.5584 -0.0363
 4767SOL    HW119431   9.916   3.280  10.455  1.0515  1.7368 -0.0692
 4767SOL    HW219432   9.863   3.368  10.344 -2.7326  0.5874  0.7507
 4768SOL     OW19433   2.330   6.859   8.980  0.2032  0.4372  0.6174
 4768SOL    HW119434   2.315   6.953   8.988 -2.8515 -0.0825  1.3297
 4768SOL    HW219435   2.334   6.843   8.886  1.5496  1.3576  0.4928
 4769SOL     OW19436  10.661   3.762   3.772 -0.3696  0.2664  0.2352
 4769SOL    HW119437  10.648   3.689   3.833  1.6306 -0.0738  0.2972
 4769SOL    HW219438  10.596   3.748   3.704 -0.6048 -1.0904  0.7074
 4770SOL     OW19439   3.004   3.621   8.056 -0.3337  0.0025  0.4408
 4770SOL    HW119440   2.976   3.595   7.969 -0.3193  1.4953 -0.0231
 4770SOL    HW219441   2.999   3.541   8.108 -2.3123 -0.4545 -0.4276
 4771SOL     OW19442   7.064   7.113   1.252  0.7330  0.1788  0.4234
 4771SOL    HW119443   6.972   7.127   1.229 -0.0643 -1.0776  2.6922
 4771SOL    HW219444   7.095   7.049   1.188 -0.2034 -0.0063  0.1455
 4772SOL     OW19445   1.153   3.219  11.181 -0.1382 -0.0067  0.0838
 4772SOL    HW119446   1.152   3.295  11.239  0.3988 -0.4984  0.7454
 4772SOL    HW219447   1.165   3.256  11.093 -0.0731  0.6817  0.3814
 4773SOL     OW19448   8.530   5.167  10.785  0.0010 -0.1409 -0.1711
 4773SOL    HW119449   8.560   5.205  10.868 -0.3437 -2.5490  1.1114
 4773SOL    HW219450   8.440   5.138  10.803  0.0480 -1.0073 -1.2572
 4774SOL     OW19451   7.118   8.972   0.404 -0.0609 -0.3070 -0.0078
 4774SOL    HW119452   7.065   9.051   0.396  0.6305  0.1876  0.2000
 4774SOL    HW219453   7.057   8.900   0.389 -0.4722  0.3041 -1.3056
 4775SOL     OW19454   6.843   7.693   5.280 -0.3544  0.2764 -0.0111
 4775SOL    HW119455   6.800   7.655   5.203 -0.8572 -1.2407  0.9878
 4775SOL    HW219456   6.773   7.698   5.346  0.3102  0.5848  0.6728
 4776SOL     OW19457  10.085  10.489  10.123 -0.3053 -0.1897 -0.5442
 4776SOL    HW119458  10.181  10.482  10.127 -0.3585 -0.6640 -0.0022
 4776SOL    HW219459  10.066  10.573  10.165 -0.1377 -0.1477 -0.5490
 4777SOL     OW19460  10.791   3.438   5.837 -0.0816 -0.8789 -0.4980
 4777SOL    HW119461  10.698   3.441   5.859 -0.1857  0.1967 -1.0395
 4777SOL    HW219462  10.825   3.363   5.885 -0.6944  0.2345  1.7289
 4778SOL     OW19463  10.980   0.923  10.026 -0.5507  0.5640 -0.1746
 4778SOL    HW119464  10.927   0.919  10.106 -1.8833  1.1434 -1.0088
 4778SOL    HW219465  10.985   1.016  10.005 -0.8870  0.3625 -1.2023
 4779SOL     OW19466   7.824   6.083   0.163  0.4314  0.2267 -0.1372
 4779SOL    HW119467   7.739   6.105   0.125  0.6192  0.1968 -0.5767
 4779SOL    HW219468   7.882   6.072   0.087  1.5440  3.2050  0.2136
 4780SOL     OW19469   9.054   0.939   0.119  0.6423  0.4670  0.3100
 4780SOL    HW119470   8.990   0.940   0.047 -0.6744  2.6951  1.4544
 4780SOL    HW219471   9.030   0.861   0.170  1.7042 -1.2445 -1.6991
 4781SOL     OW19472   9.568   4.547   9.864  0.1699  0.4603  0.0471
 4781SOL    HW119473   9.588   4.461   9.827  0.8018 -0.4504  2.3927
 4781SOL    HW219474   9.563   4.532   9.959 -0.5310  2.8563  0.4365
 4782SOL     OW19475   4.836   3.112   6.258  0.3462  0.7200  0.0435
 4782SOL    HW119476   4.892   3.093   6.334  0.7724 -2.0326 -0.9101
 4782SOL    HW219477   4.875   3.191   6.219  2.0287  0.3220  0.8510
 4783SOL     OW19478   5.199   8.057   2.650  0.1410  0.0059  0.1171
 4783SOL    HW119479   5.245   8.043   2.733 -0.8622  0.4011  0.7417
 4783SOL    HW219480   5.181   7.968   2.618  0.2585 -0.1450  0.4642
 4784SOL     OW19481  10.479  11.118   5.941 -0.5947 -0.0362 -0.2981
 4784SOL    HW119482  10.489  11.058   5.868 -1.8753  0.7605 -1.1514
 4784SOL    HW219483  10.391  11.102   5.974 -1.3996  2.1390 -1.2753
 4785SOL     OW19484   2.690   0.220   5.318  0.0861  0.1840  0.6592
 4785SOL    HW119485   2.669   0.170   5.397 -1.2012 -1.6003 -0.7978
 4785SOL    HW219486   2.694   0.311   5.348 -1.1569 -0.3903  2.6274
 4786SOL     OW19487   8.691  10.910   1.609 -0.3625  0.4336  0.0643
 4786SOL    HW119488   8.707  10.815   1.610  1.6013  0.7328  0.5867
 4786SOL    HW219489   8.596  10.918   1.605 -0.5617 -1.5596 -0.1704
 4787SOL     OW19490   4.383   1.638  10.111  0.1756  0.5479 -0.2756
 4787SOL    HW119491   4.421   1.613  10.027  0.6550 -0.5582  0.2727
 4787SOL    HW219492   4.317   1.704  10.088  0.0598 -0.0003 -1.5573
 4788SOL     OW19493   9.991   2.820   9.763  0.3448  0.1528 -0.1296
 4788SOL    HW119494   9.942   2.869   9.697  2.8398  0.9121 -1.4997
 4788SOL    HW219495  10.060   2.881   9.791  2.2693 -1.8493 -0.3618
 4789SOL     OW19496   1.217   6.781   0.566 -0.5243  0.5536  0.3638
 4789SOL    HW119497   1.242   6.856   0.513 -0.0077  0.0948 -0.0481
 4789SOL    HW219498   1.299   6.751   0.606 -0.5805 -0.3246 -0.1668
 4790SOL     OW19499   2.264   0.767   7.990 -0.5611  0.1877 -0.5242
 4790SOL    HW119500   2.177   0.802   8.010  0.6060  2.2418  1.2821
 4790SOL    HW219501   2.310   0.841   7.950  0.6685 -0.5743 -0.5324
 4791SOL     OW19502   4.572   0.530   5.060 -0.2972  0.0570 -0.2458
 4791SOL    HW119503   4.597   0.475   5.135 -0.0953  0.8191  0.2467
 4791SOL    HW219504   4.518   0.472   5.006 -1.7103 -0.0594  1.2403
 4792SOL     OW19505   0.898   4.030   5.499 -0.1646 -0.0995 -0.0472
 4792SOL    HW119506   0.953   3.953   5.512  0.8087  0.5871 -0.1063
 4792SOL    HW219507   0.939   4.099   5.550 -0.3750  0.7008 -0.9402
 4793SOL     OW19508   6.686   5.736   4.433  0.1238  0.0075 -0.0062
 4793SOL    HW119509   6.743   5.703   4.364  1.2649 -2.3230  1.9673
 4793SOL    HW219510   6.720   5.823   4.452  2.2091 -0.8154  0.2100
 4794SOL     OW19511   0.415   2.062   8.157 -0.2764  1.0189  0.1001
 4794SOL    HW119512   0.346   2.026   8.102 -0.0938  2.3959 -1.0683
 4794SOL    HW219513   0.370   2.098   8.233 -0.6776  0.4991  0.1095
 4795SOL     OW19514   0.209   3.916   6.294 -0.5516 -0.6913 -0.4415
 4795SOL    HW119515   0.246   3.887   6.378  0.6114  1.9405  0.0075
 4795SOL    HW219516   0.124   3.953   6.317 -0.6015 -0.7299 -0.5626
 4796SOL     OW19517   3.492   4.881   8.938 -0.2385 -0.4019 -0.2313
 4796SOL    HW119518   3.473   4.909   9.028  1.4944 -1.7037  0.5693
 4796SOL    HW219519   3.410   4.840   8.908 -0.2785 -1.5672  1.4019
 4797SOL     OW19520   8.290   7.175   5.934 -0.4341 -0.1791  0.0834
 4797SOL    HW119521   8.234   7.099   5.949  1.2233 -1.1778  1.3302
 4797SOL    HW219522   8.271   7.233   6.008 -1.0154  0.2241 -0.3744
 4798SOL     OW19523   4.526   8.510   9.775 -0.4421 -0.4166 -0.2700
 4798SOL    HW119524   4.569   8.582   9.822 -1.1164 -0.3268  0.2251
 4798SOL    HW219525   4.490   8.455   9.844 -1.5898 -0.1974 -0.6926
 4799SOL     OW19526   2.512  10.124   7.495 -0.2586 -0.4739  0.0897
 4799SOL    HW119527   2.492  10.032   7.484  1.2609 -0.7783 -0.1715
 4799SOL    HW219528   2.516  10.137   7.590  2.0584 -1.2614  0.1363
 4800SOL     OW19529  10.433   5.007   6.124 -0.5021  0.2259  0.0799
 4800SOL    HW119530  10.403   5.098   6.135 -2.3140 -0.3547  0.1400
 4800SOL    HW219531  10.528   5.014   6.114 -0.8617  2.3525 -2.3447
 4801SOL     OW19532   1.062   3.149   9.603 -0.0102  0.5731 -0.1848
 4801SOL    HW119533   0.988   3.124   9.659 -0.5022 -1.0506 -1.4921
 4801SOL    HW219534   1.102   3.066   9.579  1.4434  1.3796 -0.5637
 4802SOL     OW19535  11.262   5.067   2.947  0.2216  0.3038 -0.4416
 4802SOL    HW119536  11.262   5.113   2.864  0.6150 -0.6741 -0.9901
 4802SOL    HW219537  11.339   5.010   2.943 -0.3547 -0.5280  0.1470
 4803SOL     OW19538   2.102   3.814   2.914 -0.5424  0.5769 -0.1728
 4803SOL    HW119539   2.061   3.730   2.934  0.9134  0.0201  0.5246
 4803SOL    HW219540   2.168   3.793   2.848  1.0566  0.8611  1.3101
 4804SOL     OW19541   9.530   5.140   8.636  0.3582  0.3383  0.7993
 4804SOL    HW119542   9.459   5.178   8.585 -0.5421 -2.2269  0.0148
 4804SOL    HW219543   9.559   5.210   8.694 -0.8801  2.2885 -0.8787
 4805SOL     OW19544   8.094   8.939   9.402 -0.8183 -0.2808  0.9610
 4805SOL    HW119545   8.142   8.859   9.380  0.2722 -0.0164  2.3228
 4805SOL    HW219546   8.126   9.004   9.339 -1.0858 -0.6717  0.4058
 4806SOL     OW19547   7.729   1.263   3.631 -0.1133  0.0829 -0.1213
 4806SOL    HW119548   7.670   1.304   3.567 -1.8179 -2.5788 -0.3511
 4806SOL    HW219549   7.681   1.267   3.714 -0.1922 -1.1435 -0.0958
 4807SOL     OW19550   8.659   1.390   1.309  0.1481 -0.4960  0.2943
 4807SOL    HW119551   8.658   1.401   1.404 -1.4730  2.2299  0.0036
 4807SOL    HW219552   8.569   1.411   1.281  0.5969 -1.2507 -1.8516
 4808SOL     OW19553   9.235   7.361   6.789  0.6149 -0.4418 -0.3184
 4808SOL    HW119554   9.303   7.377   6.723  0.0480 -1.8315 -1.2481
 4808SOL    HW219555   9.265   7.282   6.834  0.6110  0.0731  0.5924
 4809SOL     OW19556   4.391   3.035   2.302  0.0700  0.4311  0.8300
 4809SOL    HW119557   4.396   2.951   2.347 -0.4913  0.5381  1.0922
 4809SOL    HW219558   4.298   3.045   2.280  0.4963 -0.1805 -1.4015
 4810SOL     OW19559   6.909   4.030   4.038 -0.1348 -0.3796  0.3867
 4810SOL    HW119560   6.953   3.945   4.036 -0.0444 -0.3279  0.1222
 4810SOL    HW219561   6.968   4.085   4.090 -0.8021 -0.8106  1.6155
 4811SOL     OW19562   5.886   2.540  10.442 -0.9460  0.0948  0.4644
 4811SOL    HW119563   5.921   2.614  10.392 -0.1842  0.9187  2.1817
 4811SOL    HW219564   5.840   2.580  10.515 -1.6776 -1.1132  0.6769
 4812SOL     OW19565   1.532   0.138   6.326  0.3388  0.1184  0.0659
 4812SOL    HW119566   1.446   0.161   6.289  0.8674  0.4761 -0.9717
 4812SOL    HW219567   1.543   0.198   6.400 -0.8950 -0.8461  1.0561
 4813SOL     OW19568   6.497   7.323  10.082 -0.1259 -0.8077  0.0197
 4813SOL    HW119569   6.572   7.323  10.141 -0.1573 -0.3834  0.0651
 4813SOL    HW219570   6.522   7.263  10.011  0.6092 -0.0326 -0.3913
 4814SOL     OW19571   7.234   8.074   0.499  0.0285  0.2767  0.0631
 4814SOL    HW119572   7.275   8.152   0.538 -0.7229  0.3708  0.6986
 4814SOL    HW219573   7.207   8.021   0.575  4.6907 -2.9105 -0.3111
 4815SOL     OW19574   7.332   0.176   8.486  0.1803 -0.2229 -0.0757
 4815SOL    HW119575   7.331   0.254   8.430 -1.9040 -0.2558 -0.1522
 4815SOL    HW219576   7.292   0.107   8.432 -1.8518 -0.2611  1.3977
 4816SOL     OW19577   3.365   6.286   3.566 -0.1934 -0.4597 -0.2117
 4816SOL    HW119578   3.418   6.320   3.638  0.3807  0.4406 -1.0535
 4816SOL    HW219579   3.278   6.325   3.580  0.1239  0.3471 -0.4462
 4817SOL     OW19580   0.262   2.493   9.565  0.1882  0.2106  0.6748
 4817SOL    HW119581   0.283   2.400   9.552 -0.5334  0.0824  0.3886
 4817SOL    HW219582   0.166   2.496   9.562  0.2418  1.1367 -0.4655
 4818SOL     OW19583   3.053   5.245   5.410  0.0223 -0.4942  0.0547
 4818SOL    HW119584   3.059   5.216   5.501  0.0159 -2.3749 -0.5407
 4818SOL    HW219585   3.025   5.168   5.361  1.9247 -0.0219 -1.8427
 4819SOL     OW19586   3.885   2.021   7.236  0.1293  0.0913  0.3455
 4819SOL    HW119587   3.824   2.010   7.309  4.2011 -4.8161  3.2804
 4819SOL    HW219588   3.951   2.082   7.270 -0.8515  2.1850 -1.3725
 4820SOL     OW19589   6.265  10.297   4.403  0.0963  0.0255 -0.0138
 4820SOL    HW119590   6.277  10.392   4.391 -1.4061 -0.0663 -2.3018
 4820SOL    HW219591   6.353  10.261   4.390  0.8823  1.1689  1.8416
 4821SOL     OW19592   6.140   8.322  10.109  0.0937  0.2112 -0.1000
 4821SOL    HW119593   6.223   8.324  10.060  0.6649  0.4409  0.8686
 4821SOL    HW219594   6.167   8.315  10.201 -0.9893 -3.1450  0.0213
 4822SOL     OW19595   7.727   9.747   6.055 -0.8501 -0.6333 -0.5257
 4822SOL    HW119596   7.728   9.785   6.142  0.4648  1.1901 -1.2974
 4822SOL    HW219597   7.815   9.710   6.043 -1.0540 -0.9699 -1.0283
 4823SOL     OW19598   8.426   6.148   6.322  0.2297 -0.0192 -0.2537
 4823SOL    HW119599   8.505   6.190   6.287  0.5687 -0.1467  0.3433
 4823SOL    HW219600   8.459   6.067   6.362 -0.3502 -0.6030 -0.9685
 4824SOL     OW19601   7.151  10.189   9.673 -0.8664 -0.0798  0.6581
 4824SOL    HW119602   7.217  10.221   9.734 -0.9804  0.6169  0.4207
 4824SOL    HW219603   7.152  10.094   9.684  0.0339 -0.0598  0.7955
 4825SOL     OW19604   4.113   1.758   1.557 -0.0997 -0.2713 -0.1189
 4825SOL    HW119605   4.087   1.841   1.518  0.4254 -0.6191 -1.2411
 4825SOL    HW219606   4.205   1.747   1.531 -0.1047 -1.0952  0.1918
 4826SOL     OW19607   6.675  11.127   4.606  0.2785  0.0103 -0.7142
 4826SOL    HW119608   6.631  11.046   4.581 -0.6657  0.2154  0.2607
 4826SOL    HW219609   6.615  11.197   4.581  0.1670  0.3054  0.3486
 4827SOL     OW19610   6.258   8.432   4.691 -0.4638  0.5079  0.5475
 4827SOL    HW119611   6.277   8.430   4.597 -1.9034  1.4463  0.2227
 4827SOL    HW219612   6.281   8.520   4.719  3.6783 -0.8725  1.9420
 4828SOL     OW19613   9.725  10.584   2.782 -0.1380  0.2471 -0.1214
 4828SOL    HW119614   9.651  10.636   2.813 -0.3862 -0.0751 -0.1734
 4828SOL    HW219615   9.787  10.649   2.748 -0.9431  0.4438 -1.2446
 4829SOL     OW19616   5.583   5.389   8.499 -0.6985 -0.2840  0.2828
 4829SOL    HW119617   5.497   5.350   8.508 -1.1458  0.7981  0.8498
 4829SOL    HW219618   5.633   5.355   8.573 -0.8146 -0.4750  0.2716
 4830SOL     OW19619   1.352   3.648   8.234 -0.6248  0.1179 -0.0120
 4830SOL    HW119620   1.325   3.729   8.277 -1.7571 -0.4915  0.4537
 4830SOL    HW219621   1.278   3.623   8.179 -0.1566 -0.4207 -0.4090
 4831SOL     OW19622   3.441   1.967   6.576  0.4620 -0.5222 -0.0303
 4831SOL    HW119623   3.450   1.917   6.495 -0.7219 -1.4586  0.4140
 4831SOL    HW219624   3.366   1.928   6.621  0.6850  0.4327  1.1998
 4832SOL     OW19625   0.723   6.269   0.276  0.0019 -0.1295  0.7326
 4832SOL    HW119626   0.768   6.186   0.256 -0.1495 -0.4440  1.6854
 4832SOL    HW219627   0.676   6.290   0.195 -0.3844 -1.2536  0.6467
 4833SOL     OW19628   3.475   2.908   0.033  0.3430  0.2674 -0.1839
 4833SOL    HW119629   3.473   2.969   0.107  1.1358 -0.3318  0.3358
 4833SOL    HW219630   3.568   2.894   0.015  0.1701 -0.6831 -0.3813
 4834SOL     OW19631   8.514  10.941   4.221 -0.4578 -0.6424 -0.3586
 4834SOL    HW119632   8.464  10.904   4.149  2.0395  0.9826 -3.0789
 4834SOL    HW219633   8.600  10.900   4.214  0.4262  1.0067  0.4150
 4835SOL     OW19634   0.246   0.450   8.025 -0.5778  0.7085  0.2605
 4835SOL    HW119635   0.266   0.544   8.021 -2.0036  1.0169 -0.0681
 4835SOL    HW219636   0.261   0.419   7.936  2.1121  0.1307  0.8882
 4836SOL     OW19637   7.313   3.250   4.733  0.8589  0.0726  0.3239
 4836SOL    HW119638   7.332   3.230   4.642 -0.5209  1.9747 -0.4188
 4836SOL    HW219639   7.394   3.289   4.767  1.2755 -0.3546 -0.1839
 4837SOL     OW19640   7.052  10.983  10.597  0.0799  0.2182  0.9207
 4837SOL    HW119641   7.028  11.013  10.509  1.3962  1.0371  0.8317
 4837SOL    HW219642   7.021  11.054  10.655 -0.1386  0.0149  1.0537
 4838SOL     OW19643   8.846   7.838   3.413  0.5676 -0.1736  0.2359
 4838SOL    HW119644   8.855   7.757   3.363  1.0147  2.2093 -3.7509
 4838SOL    HW219645   8.937   7.867   3.428  0.4226  1.7968 -2.2992
 4839SOL     OW19646   1.830  11.113   4.860  0.1803  0.1004 -0.1933
 4839SOL    HW119647   1.862  11.046   4.800 -1.3620 -1.5844  0.8058
 4839SOL    HW219648   1.885  11.105   4.938 -1.1204 -1.2393  0.6186
 4840SOL     OW19649   4.477  10.034   5.822  0.0466  0.4884 -0.3892
 4840SOL    HW119650   4.508  10.088   5.895  1.2891  0.1794 -0.6797
 4840SOL    HW219651   4.553   9.982   5.796 -0.2147  0.9866 -2.2581
 4841SOL     OW19652   7.362   7.559   5.041 -0.3681 -0.4489 -0.6723
 4841SOL    HW119653   7.374   7.653   5.024  0.6234 -0.2892  0.7964
 4841SOL    HW219654   7.363   7.519   4.954 -0.7278  0.8929 -1.3142
 4842SOL     OW19655   9.245   1.527   4.871  0.5424  0.1860  0.4323
 4842SOL    HW119656   9.166   1.522   4.817  0.6497  0.1927  0.2731
 4842SOL    HW219657   9.250   1.619   4.898  1.1807  0.4726 -0.6034
 4843SOL     OW19658   3.462   6.642   9.536  0.2217 -0.0406 -0.0896
 4843SOL    HW119659   3.385   6.609   9.489  1.1779 -2.9392  0.3165
 4843SOL    HW219660   3.428   6.674   9.619 -0.4160 -2.6190  0.6859
 4844SOL     OW19661   8.108   0.113   6.833  0.4773  0.1012  0.3282
 4844SOL    HW119662   8.128   0.068   6.915 -1.6925 -1.4035  0.0687
 4844SOL    HW219663   8.103   0.043   6.768  0.3529  1.0768 -0.7300
 4845SOL     OW19664   9.361   5.534   2.280  0.8026 -0.0236  0.3143
 4845SOL    HW119665   9.306   5.457   2.288  2.1535 -1.1044 -0.7321
 4845SOL    HW219666   9.440   5.504   2.234  2.6266  1.2918  2.4282
 4846SOL     OW19667   9.441   2.607   6.056 -0.5080 -0.2231  0.2721
 4846SOL    HW119668   9.440   2.511   6.058 -1.6918 -0.2309 -0.4610
 4846SOL    HW219669   9.350   2.632   6.072  0.2694  0.8420  3.3302
 4847SOL     OW19670   0.116   5.410   3.961 -0.4439 -0.2863 -0.0258
 4847SOL    HW119671   0.106   5.385   3.869 -0.1790 -0.8655  0.0978
 4847SOL    HW219672   0.106   5.505   3.962 -1.0255 -0.3379 -0.5752
 4848SOL     OW19673   7.245   9.466   1.172  0.4302  0.1887 -0.0489
 4848SOL    HW119674   7.223   9.434   1.259  2.5986  1.4069  0.9696
 4848SOL    HW219675   7.196   9.548   1.164 -0.6482 -0.4754 -0.4477
 4849SOL     OW19676   7.415  10.148   3.134  0.0247 -0.9243 -0.2730
 4849SOL    HW119677   7.402  10.061   3.095 -0.1302 -2.0394  2.1731
 4849SOL    HW219678   7.509  10.152   3.151  0.3023  0.1006 -1.9285
 4850SOL     OW19679   3.860   1.360   7.882 -0.2471  0.2429  0.5725
 4850SOL    HW119680   3.887   1.303   7.810 -0.6331 -0.9059  1.3280
 4850SOL    HW219681   3.778   1.399   7.852  0.6057  1.3371 -0.4307
 4851SOL     OW19682   9.274   3.286   9.058  0.3514 -0.6638  0.1924
 4851SOL    HW119683   9.307   3.311   8.971  0.8213 -2.2436 -0.0851
 4851SOL    HW219684   9.182   3.263   9.042  0.1672 -0.0233  0.2952
 4852SOL     OW19685   1.316   3.542   8.882  0.2706 -0.1034  0.0697
 4852SOL    HW119686   1.372   3.486   8.936 -3.2747 -1.4146  2.5147
 4852SOL    HW219687   1.308   3.495   8.799  0.5581 -1.2459  0.6873
 4853SOL     OW19688   9.178   8.025   4.690 -0.4312  0.0442 -0.8572
 4853SOL    HW119689   9.240   7.969   4.645  0.1664  0.9035 -1.1170
 4853SOL    HW219690   9.211   8.114   4.677  0.3510  0.2408  2.1812
 4854SOL     OW19691   6.859   8.960   2.261  0.4415 -0.1625 -0.4741
 4854SOL    HW119692   6.772   8.936   2.293  0.6582 -0.1654  0.1126
 4854SOL    HW219693   6.885   9.034   2.314  1.8251 -1.6888  1.0332
 4855SOL     OW19694   8.604   8.894   8.772  0.6611  0.3295 -0.4307
 4855SOL    HW119695   8.637   8.835   8.840  0.3731  2.8589  2.0242
 4855SOL    HW219696   8.521   8.855   8.744  1.6238 -1.6646 -0.5881
 4856SOL     OW19697   9.407   7.932   5.201  0.4267  0.0611 -0.0697
 4856SOL    HW119698   9.366   8.018   5.207 -2.3021 -1.0202 -2.2519
 4856SOL    HW219699   9.415   7.903   5.292 -1.4032  1.3777  0.5381
 4857SOL     OW19700   6.924   6.452   0.287  0.3088 -0.7178 -0.5425
 4857SOL    HW119701   6.951   6.382   0.228  2.0241 -0.3611 -0.2008
 4857SOL    HW219702   6.950   6.423   0.374 -0.3867 -0.3503 -0.2042
 4858SOL     OW19703   3.863   5.770   9.539  0.2412  0.4677 -0.4887
 4858SOL    HW119704   3.827   5.708   9.603  1.1136 -0.3808 -0.8271
 4858SOL    HW219705   3.952   5.740   9.522  1.0716  2.4232  0.1560
 4859SOL     OW19706   0.728   3.314   2.215  0.1214  0.6035 -0.3407
 4859SOL    HW119707   0.644   3.324   2.169  0.8378  1.2967 -1.5279
 4859SOL    HW219708   0.704   3.277   2.299 -1.1226 -1.7032 -1.6493
 4860SOL     OW19709   1.606   8.909  10.649 -0.7752 -0.3700  0.2230
 4860SOL    HW119710   1.687   8.927  10.601 -1.1377 -1.4613 -0.8042
 4860SOL    HW219711   1.592   8.988  10.702  0.9202 -0.1384  0.3726
 4861SOL     OW19712   6.031   1.163   5.107  0.0870  0.4078 -0.5803
 4861SOL    HW119713   6.012   1.244   5.155  0.5544 -0.0933  0.4642
 4861SOL    HW219714   5.977   1.169   5.029 -0.4558  1.3864 -0.1479
 4862SOL     OW19715   4.533   5.097   9.375 -0.2338  0.0052  0.4986
 4862SOL    HW119716   4.525   5.002   9.366  0.3082 -0.2204  2.2707
 4862SOL    HW219717   4.606   5.110   9.436  0.8168  1.6024 -1.0235
 4863SOL     OW19718   0.572   5.177   5.964  0.0427  0.3047  0.4099
 4863SOL    HW119719   0.660   5.167   6.000  0.2146  1.6979  0.4137
 4863SOL    HW219720   0.515   5.175   6.040  0.1822  0.5886  0.5250
 4864SOL     OW19721   0.211  11.323   8.461  0.1066  0.4965  0.1169
 4864SOL    HW119722   0.284  11.289   8.408 -0.3233  0.3798 -0.4035
 4864SOL    HW219723   0.238  11.412   8.484  1.4093 -0.3265  1.8051
 4865SOL     OW19724   2.695   3.251   7.172  0.1060  0.2795  0.0168
 4865SOL    HW119725   2.758   3.180   7.188 -2.7468 -2.1828  0.7606
 4865SOL    HW219726   2.731   3.298   7.097  2.6496 -1.3043  0.1747
 4866SOL     OW19727   6.642  10.817   8.071 -0.1009 -0.0319  0.5083
 4866SOL    HW119728   6.617  10.804   7.980 -0.0361 -0.6218  0.5766
 4866SOL    HW219729   6.576  10.771   8.122  0.3540 -0.4407  0.7309
 4867SOL     OW19730   0.178   2.585   0.383 -0.7084  0.1889 -0.1323
 4867SOL    HW119731   0.244   2.655   0.391 -1.0699  0.6681 -1.2431
 4867SOL    HW219732   0.120   2.615   0.314  0.3587 -2.1986 -2.1352
 4868SOL     OW19733   2.649   5.476  10.809 -0.6385  0.5497  0.0448
 4868SOL    HW119734   2.671   5.434  10.892 -1.4219  0.9268  0.4497
 4868SOL    HW219735   2.729   5.522  10.784  0.5936 -2.0389 -0.9655
 4869SOL     OW19736   8.617   3.967   5.847  0.3282 -0.3805 -0.0665
 4869SOL    HW119737   8.553   4.021   5.893  2.8132  0.7910  2.1513
 4869SOL    HW219738   8.574   3.882   5.838 -1.2817  0.1557  2.0100
 4870SOL     OW19739   9.202   6.477  10.498 -0.8739  0.2704  0.0540
 4870SOL    HW119740   9.253   6.553  10.527 -0.8138  0.9550 -1.7839
 4870SOL    HW219741   9.124   6.478  10.552  0.8311 -0.5329  2.6177
 4871SOL     OW19742   5.597   4.326   9.644  0.5049  0.3402  0.1478
 4871SOL    HW119743   5.669   4.371   9.687  1.8506  0.3756 -2.0337
 4871SOL    HW219744   5.624   4.322   9.552 -1.7596 -0.6832 -0.4916
 4872SOL     OW19745   7.958   5.978   2.631 -0.1967  0.2425 -0.2237
 4872SOL    HW119746   8.035   6.006   2.680  0.3841  0.4892 -1.2815
 4872SOL    HW219747   7.900   6.055   2.632 -0.5049  0.0057  0.7031
 4873SOL     OW19748   4.489   4.981  10.685  0.2751 -0.0513 -0.1443
 4873SOL    HW119749   4.550   4.974  10.758  2.5282 -1.5331 -2.0655
 4873SOL    HW219750   4.543   4.968  10.607 -2.3443 -0.3563 -2.0037
 4874SOL     OW19751   9.027   1.324   4.060  0.3651 -0.3130 -0.4722
 4874SOL    HW119752   8.994   1.402   4.015  1.5481  1.3596  1.4573
 4874SOL    HW219753   9.122   1.336   4.062  0.6261 -2.1888 -0.7994
 4875SOL     OW19754   6.610  11.197   5.481  0.2772 -0.5600 -0.3886
 4875SOL    HW119755   6.704  11.187   5.490  0.4130 -0.4862 -1.5919
 4875SOL    HW219756   6.572  11.131   5.540  1.0615  0.0357  0.7901
 4876SOL     OW19757   3.160  10.426  10.657  0.2865 -0.7883 -0.5201
 4876SOL    HW119758   3.185  10.335  10.641  1.7884 -0.7308  1.2989
 4876SOL    HW219759   3.199  10.447  10.743 -0.6478  1.3321 -0.5796
 4877SOL     OW19760   4.409  10.623   4.302  0.5065  0.3387 -0.0311
 4877SOL    HW119761   4.504  10.616   4.290  0.2478 -1.0658 -1.3858
 4877SOL    HW219762   4.373  10.606   4.215 -1.0867 -1.6175  0.9837
 4878SOL     OW19763   8.806   2.914   4.255 -0.2230  0.0592 -0.7667
 4878SOL    HW119764   8.853   2.947   4.178  0.6779 -3.1354 -1.6365
 4878SOL    HW219765   8.850   2.957   4.329  0.2089  1.6176 -1.8844
 4879SOL     OW19766   9.428   2.790   0.874 -0.4573 -0.2211  0.3317
 4879SOL    HW119767   9.422   2.849   0.949 -0.1816  1.7833 -1.2096
 4879SOL    HW219768   9.521   2.770   0.867 -0.4191 -0.0039  0.2145
 4880SOL     OW19769   9.538   4.163   7.842  0.0959 -0.0995 -0.1842
 4880SOL    HW119770   9.561   4.163   7.935  1.2744  0.1848 -0.4657
 4880SOL    HW219771   9.529   4.070   7.820  1.2558 -0.2343 -0.1244
 4881SOL     OW19772   0.336  10.729   3.298  0.3372  0.0514  0.2379
 4881SOL    HW119773   0.306  10.715   3.387 -0.2100 -0.1853  0.0216
 4881SOL    HW219774   0.273  10.681   3.244  1.1706 -0.5344 -0.2177
 4882SOL     OW19775   8.372   3.645   6.107 -0.4015 -0.3922 -0.1918
 4882SOL    HW119776   8.289   3.605   6.079  0.2719 -0.8561 -1.5794
 4882SOL    HW219777   8.353   3.679   6.195 -1.9336 -0.8777 -0.3043
 4883SOL     OW19778   3.161   2.365   0.813 -0.0802 -0.0460  0.1744
 4883SOL    HW119779   3.140   2.317   0.893 -1.2132 -0.8452 -0.5754
 4883SOL    HW219780   3.139   2.456   0.833 -1.0651 -0.3584  0.5295
 4884SOL     OW19781   8.220   5.931   6.471 -0.5441  0.3743 -0.3951
 4884SOL    HW119782   8.143   5.890   6.432  0.2974 -1.5651 -0.0710
 4884SOL    HW219783   8.267   5.969   6.397 -0.5520 -0.6092 -0.9192
 4885SOL     OW19784  11.011  10.982   0.770  0.5769  0.0190  0.7377
 4885SOL    HW119785  10.948  11.014   0.704  0.3032  1.0714  1.5003
 4885SOL    HW219786  11.075  10.933   0.719 -0.5025 -0.5165 -0.1392
 4886SOL     OW19787   4.857   1.558   6.236  0.0628  0.1362  0.6776
 4886SOL    HW119788   4.863   1.497   6.309 -0.2442 -0.1474  0.4629
 4886SOL    HW219789   4.766   1.588   6.236  0.1940  0.5485  0.7437
 4887SOL     OW19790   1.229  10.837   4.996  0.1158  0.2468 -0.0182
 4887SOL    HW119791   1.221  10.901   4.924 -0.9655 -0.1664 -0.2629
 4887SOL    HW219792   1.285  10.881   5.060  0.1504  1.0754 -0.6044
 4888SOL     OW19793   3.588   0.891   6.276 -0.0564 -0.5799 -0.0567
 4888SOL    HW119794   3.595   0.796   6.283 -1.6388 -0.7902 -1.0185
 4888SOL    HW219795   3.664   0.917   6.223  0.5945 -1.2579  0.5441
 4889SOL     OW19796   5.781   1.327  10.054 -0.8421 -0.1310  0.7928
 4889SOL    HW119797   5.845   1.258  10.034 -1.3137 -0.5082  0.5693
 4889SOL    HW219798   5.778   1.329  10.150 -1.4405 -1.0087  0.8057
 4890SOL     OW19799  10.427   1.050   4.975 -0.0797 -0.0284 -0.2185
 4890SOL    HW119800  10.404   0.978   4.918 -1.0620 -0.6093  0.8919
 4890SOL    HW219801  10.376   1.124   4.942  0.8944  0.1704 -1.3272
 4891SOL     OW19802   7.781   9.025   0.371  0.3432 -0.0892 -0.4085
 4891SOL    HW119803   7.833   8.945   0.366 -0.6489 -0.8607  1.1142
 4891SOL    HW219804   7.715   9.006   0.438 -0.7802  1.5025 -1.0487
 4892SOL     OW19805   5.442   4.715   3.574  0.2885  0.3259 -0.0095
 4892SOL    HW119806   5.505   4.769   3.527  0.5715  0.9256  1.0691
 4892SOL    HW219807   5.358   4.735   3.532  0.3695  1.6825  0.4501
 4893SOL     OW19808  10.147   3.279  10.459 -0.1957 -0.2792  0.4180
 4893SOL    HW119809  10.222   3.334  10.481  0.5129 -0.3127 -1.7439
 4893SOL    HW219810  10.162   3.254  10.367 -2.9767 -0.0729 -0.1356
 4894SOL     OW19811   6.726   8.251   2.168  0.1731 -0.2420  0.0035
 4894SOL    HW119812   6.652   8.311   2.173  0.5384  0.2494 -0.4306
 4894SOL    HW219813   6.708   8.185   2.235 -0.4974  0.0502  0.1173
 4895SOL     OW19814   0.423   2.135   3.994 -0.4841 -0.3783 -0.3373
 4895SOL    HW119815   0.515   2.145   3.971 -0.5992  0.6599 -0.3648
 4895SOL    HW219816   0.396   2.221   4.024 -1.0840 -1.0149  1.0201
 4896SOL     OW19817   3.074   2.525   5.926 -0.3199 -0.0237  0.5137
 4896SOL    HW119818   3.001   2.577   5.962  0.6873  0.3873  2.0067
 4896SOL    HW219819   3.089   2.563   5.840 -2.1061 -0.3439  0.0265
 4897SOL     OW19820   0.285   3.751   1.433  0.4455  0.4558 -0.3847
 4897SOL    HW119821   0.225   3.719   1.501 -1.3247  1.3191 -1.4900
 4897SOL    HW219822   0.230   3.757   1.355  2.3596 -0.1238 -1.7985
 4898SOL     OW19823   4.314   1.126   2.467  0.2536  0.3382  0.4233
 4898SOL    HW119824   4.274   1.162   2.388  0.1055  0.3493  0.5041
 4898SOL    HW219825   4.349   1.041   2.440 -1.0392 -0.2854  0.6950
 4899SOL     OW19826   5.074   1.386  10.016 -0.6281  0.0284 -0.1341
 4899SOL    HW119827   5.138   1.356  10.081 -0.7838 -0.7404 -0.3258
 4899SOL    HW219828   5.076   1.481  10.022  0.9375  0.0395 -0.5215
 4900SOL     OW19829   2.360   6.376   0.943 -0.3306  0.1440  0.4644
 4900SOL    HW119830   2.336   6.469   0.939 -1.4458 -0.0502  2.2935
 4900SOL    HW219831   2.393   6.364   1.032  1.1347 -0.9176 -0.2065
 4901SOL     OW19832   6.036   0.144   4.736 -0.4594 -0.0587  0.8202
 4901SOL    HW119833   6.099   0.138   4.807  0.8744 -0.9309 -0.4149
 4901SOL    HW219834   6.007   0.054   4.721  0.1442 -0.0543 -0.4943
 4902SOL     OW19835   6.756   6.537   1.228 -0.2989 -0.2700 -0.2080
 4902SOL    HW119836   6.747   6.604   1.296  0.8793 -0.9831  0.6644
 4902SOL    HW219837   6.675   6.487   1.234 -0.5747  0.1981  0.0916
 4903SOL     OW19838   3.490  11.309   7.684  0.0337  0.5832 -0.4255
 4903SOL    HW119839   3.444  11.226   7.670 -0.2000  0.9060 -1.6203
 4903SOL    HW219840   3.500  11.346   7.597  1.6695  1.0089 -0.0717
 4904SOL     OW19841   5.780   2.398  10.828 -0.4380 -0.6453  0.0131
 4904SOL    HW119842   5.701   2.367  10.784 -1.1991 -0.4718  1.2263
 4904SOL    HW219843   5.762   2.384  10.921  0.1585  1.2817  0.4269
 4905SOL     OW19844   4.992   4.981   6.604 -0.5974 -0.1047 -0.1429
 4905SOL    HW119845   4.905   5.007   6.574 -0.7338  0.7355  0.9526
 4905SOL    HW219846   4.976   4.909   6.665 -0.4851 -0.2544 -0.2879
 4906SOL     OW19847   9.641   5.710   6.303  0.7715  0.1083 -0.2442
 4906SOL    HW119848   9.678   5.724   6.390  0.1638 -1.9200  0.3757
 4906SOL    HW219849   9.674   5.624   6.276 -1.0768 -0.4143 -0.9248
 4907SOL     OW19850   4.183   5.928   3.005 -0.0819  0.7773  0.2963
 4907SOL    HW119851   4.235   5.848   2.998  0.2825  1.0795 -0.6267
 4907SOL    HW219852   4.094   5.902   2.982 -0.2070  0.4048  1.1654
 4908SOL     OW19853   6.621   1.777   3.053  0.6131 -0.1610 -0.3568
 4908SOL    HW119854   6.625   1.863   3.094 -1.4029 -0.0881 -0.2533
 4908SOL    HW219855   6.602   1.717   3.125  2.4005 -0.7589 -0.3654
 4909SOL     OW19856  11.336   8.030   4.728 -0.3448  0.4406  0.3699
 4909SOL    HW119857  11.368   8.057   4.642  2.7380 -1.0864  0.9619
 4909SOL    HW219858  11.374   8.094   4.788 -1.9158  1.0874  0.6925
 4910SOL     OW19859   2.955   8.828   0.800  0.6762 -0.2756  0.7608
 4910SOL    HW119860   2.961   8.832   0.895 -0.1658  3.1567  0.7364
 4910SOL    HW219861   2.863   8.809   0.783  0.5799  0.2507  0.6597
 4911SOL     OW19862   2.562   0.868  10.863 -0.0152 -0.0549 -0.9182
 4911SOL    HW119863   2.609   0.850  10.944 -2.5496  0.8673  0.8568
 4911SOL    HW219864   2.607   0.817  10.796  0.9385 -2.4009  1.4408
 4912SOL     OW19865   2.593   9.536   9.935  0.0505 -0.1810 -0.1685
 4912SOL    HW119866   2.546   9.595   9.995  2.3972  0.3233  1.2454
 4912SOL    HW219867   2.678   9.577   9.924  1.1478 -2.4806 -0.4914
 4913SOL     OW19868   8.414   8.155   5.575  0.3094 -0.0650  0.2147
 4913SOL    HW119869   8.376   8.141   5.489 -0.0835  0.9646  0.2145
 4913SOL    HW219870   8.371   8.090   5.631  0.0221 -0.2409 -0.2046
 4914SOL     OW19871   9.551   8.337  10.951 -0.6403  0.0696  0.2586
 4914SOL    HW119872   9.611   8.369  10.883  1.7248 -1.0069  1.7679
 4914SOL    HW219873   9.515   8.256  10.915  1.2875 -0.9720  0.5902
 4915SOL     OW19874   7.197   6.004   3.864  0.3363 -0.4922 -0.3993
 4915SOL    HW119875   7.258   5.943   3.905  1.1308  1.5720  1.6139
 4915SOL    HW219876   7.117   5.996   3.916  0.3789  0.0400 -0.2523
 4916SOL     OW19877   5.957   3.182   8.745  0.2815 -0.7685 -0.8494
 4916SOL    HW119878   6.042   3.170   8.787 -0.2243 -0.6870  0.2245
 4916SOL    HW219879   5.976   3.225   8.663  1.0786  1.3683  0.4199
 4917SOL     OW19880   7.831   2.727   3.838  0.0220 -0.5377  0.3844
 4917SOL    HW119881   7.790   2.679   3.910 -0.6391 -0.5993 -0.0217
 4917SOL    HW219882   7.899   2.668   3.805  0.9341 -0.1459  1.5238
 4918SOL     OW19883   5.963   4.027   0.903  0.2563 -0.5623 -0.1149
 4918SOL    HW119884   5.956   4.001   0.811 -2.9512 -0.8959  0.1622
 4918SOL    HW219885   5.933   4.118   0.905  1.8112 -0.0356  0.4131
 4919SOL     OW19886  10.582   9.475   1.964  0.5127 -0.1061  0.0298
 4919SOL    HW119887  10.666   9.502   2.002  0.8055 -0.7368 -0.1734
 4919SOL    HW219888  10.602   9.456   1.873 -0.4187  2.5978 -0.8024
 4920SOL     OW19889   0.470   4.114   3.992  0.1463 -0.1387 -0.0237
 4920SOL    HW119890   0.439   4.163   4.068  0.2305  0.0799 -0.1296
 4920SOL    HW219891   0.447   4.169   3.917 -0.4250 -0.6061 -0.1955
 4921SOL     OW19892   0.771   6.715   6.684 -0.2565  0.1659  0.0661
 4921SOL    HW119893   0.852   6.765   6.694 -0.3855  0.7256 -1.6052
 4921SOL    HW219894   0.741   6.701   6.774  2.2533 -1.0352  0.7645
 4922SOL     OW19895   6.493   5.516  11.299 -0.4092  0.1528  0.4857
 4922SOL    HW119896   6.468   5.585  11.360  2.0951  0.8728  0.7312
 4922SOL    HW219897   6.518   5.443  11.355 -1.1232 -0.2882  0.2470
 4923SOL     OW19898  10.870   7.896   4.693 -0.0516 -0.4134  0.0223
 4923SOL    HW119899  10.901   7.968   4.746  0.4573 -0.3571 -0.3522
 4923SOL    HW219900  10.945   7.838   4.684 -0.3269 -0.7580 -0.0698
 4924SOL     OW19901   8.947   0.250   4.578 -0.0065 -0.3834  0.1937
 4924SOL    HW119902   8.995   0.197   4.514 -1.3289 -1.2192 -0.1341
 4924SOL    HW219903   8.937   0.192   4.654  0.2607  0.0869  0.5859
 4925SOL     OW19904   9.668   0.886   7.792  0.4772  0.3130  0.8069
 4925SOL    HW119905   9.653   0.840   7.709 -0.9714 -0.2478  1.3569
 4925SOL    HW219906   9.756   0.859   7.819  0.0509 -1.3530  0.5955
 4926SOL     OW19907   2.802   5.035   2.634  0.4484 -0.1020  0.7826
 4926SOL    HW119908   2.782   5.045   2.541  0.3869 -3.1010  0.4404
 4926SOL    HW219909   2.726   4.990   2.670 -0.2350  2.4405  2.6528
 4927SOL     OW19910   8.195   2.267   5.471 -0.1248  0.5519 -0.0410
 4927SOL    HW119911   8.266   2.229   5.522 -0.4381  1.0358  0.7773
 4927SOL    HW219912   8.229   2.273   5.382  0.8208  0.7040  0.3305
 4928SOL     OW19913   2.839  10.114   1.725  0.8516  0.1203  0.2011
 4928SOL    HW119914   2.765  10.054   1.727 -0.1964  1.3631 -0.5765
 4928SOL    HW219915   2.846  10.141   1.633  1.0388  1.5053  0.6059
 4929SOL     OW19916   9.128   9.323   6.393  0.7879 -0.2533  0.4129
 4929SOL    HW119917   9.214   9.282   6.398  0.2933 -1.3310  0.3300
 4929SOL    HW219918   9.143   9.405   6.346  1.5983 -0.9204 -0.5251
 4930SOL     OW19919   6.917   6.286   8.339  0.2320 -0.4949 -0.6626
 4930SOL    HW119920   6.882   6.307   8.426 -1.0418  1.8813 -1.7162
 4930SOL    HW219921   6.972   6.209   8.354 -0.5223 -0.5548  2.1266
 4931SOL     OW19922   4.326   7.997   4.004  0.2851 -0.0732  0.7147
 4931SOL    HW119923   4.249   7.940   3.991  0.7065 -0.3883 -0.5760
 4931SOL    HW219924   4.312   8.037   4.089 -0.1329 -1.9718  1.5837
 4932SOL     OW19925   7.032  10.061   3.783 -0.1816  0.7099 -0.4396
 4932SOL    HW119926   7.017  10.087   3.692  0.4268  0.2544 -0.6725
 4932SOL    HW219927   6.982  10.124   3.834  0.1654  1.4835 -1.0516
 4933SOL     OW19928   4.447   3.236   8.468 -0.2910  0.1894  0.2045
 4933SOL    HW119929   4.401   3.175   8.411  0.0185 -0.9944  1.1987
 4933SOL    HW219930   4.512   3.277   8.412  0.4635 -1.4612 -0.1730
 4934SOL     OW19931   6.861   1.238  10.720 -0.0581  0.9673  0.1217
 4934SOL    HW119932   6.891   1.329  10.730 -0.2071  1.0537 -0.1834
 4934SOL    HW219933   6.821   1.237  10.633 -0.3352  0.6856  0.2531
 4935SOL     OW19934   8.771   5.133   4.125 -0.0584 -0.5761  0.2987
 4935SOL    HW119935   8.731   5.072   4.187 -1.4418  0.5055  0.4899
 4935SOL    HW219936   8.835   5.182   4.178  1.9724 -2.6901 -0.1325
 4936SOL     OW19937   9.207   9.251   9.385 -0.4730 -0.3842  0.3456
 4936SOL    HW119938   9.265   9.176   9.373  2.0776  1.4746  0.6236
 4936SOL    HW219939   9.184   9.279   9.297 -0.1025 -0.4958  0.2132
 4937SOL     OW19940   3.574   6.246   0.426 -0.3592 -0.1739  0.2956
 4937SOL    HW119941   3.669   6.236   0.436 -0.3241  2.0782  2.7872
 4937SOL    HW219942   3.564   6.326   0.374 -0.8904 -0.7594 -0.5066
 4938SOL     OW19943   8.072   3.776   0.582  0.0990 -0.0792 -0.0890
 4938SOL    HW119944   8.151   3.764   0.530  0.3931 -0.1814  0.3770
 4938SOL    HW219945   8.104   3.812   0.665 -0.0019 -3.1735  1.3375
 4939SOL     OW19946   4.908  10.131   9.283 -0.1404 -0.1693 -0.2146
 4939SOL    HW119947   4.876  10.174   9.204  1.9660  3.2421  0.6577
 4939SOL    HW219948   4.889  10.194   9.353  1.6740 -1.3239  1.3612
 4940SOL     OW19949   7.335   1.662   4.000  0.1479 -0.1891 -0.1897
 4940SOL    HW119950   7.360   1.721   3.929  2.7660 -0.7038  0.2748
 4940SOL    HW219951   7.299   1.585   3.955 -0.6124  0.5380 -0.8596
 4941SOL     OW19952   0.431  10.825   3.828  0.0140 -0.5172  0.1138
 4941SOL    HW119953   0.344  10.795   3.855  0.4191 -1.0238  0.8949
 4941SOL    HW219954   0.416  10.875   3.748 -1.0170 -0.4539  0.3418
 4942SOL     OW19955   2.088   4.757  10.468 -0.0046 -0.2410 -0.1439
 4942SOL    HW119956   2.086   4.853  10.472 -0.5397 -0.3072  1.0866
 4942SOL    HW219957   2.007   4.729  10.509 -0.3732 -1.2038 -1.4934
 4943SOL     OW19958   1.671   2.082   6.668 -0.0950  0.0709 -0.0247
 4943SOL    HW119959   1.706   2.166   6.699 -4.0495  0.9886  2.3226
 4943SOL    HW219960   1.606   2.106   6.602  0.1650 -1.3300 -0.8275
 4944SOL     OW19961   1.242   8.409   4.983  0.2362 -0.2776  0.5317
 4944SOL    HW119962   1.195   8.329   5.009  0.9189 -0.7600  0.2945
 4944SOL    HW219963   1.220   8.421   4.891  0.4196 -0.3946  0.4723
 4945SOL     OW19964   9.429   0.420   3.671 -0.3823 -0.1823  0.1329
 4945SOL    HW119965   9.507   0.416   3.615 -0.5986  0.0737 -0.1868
 4945SOL    HW219966   9.449   0.488   3.734 -0.9047  0.8451 -0.8017
 4946SOL     OW19967   5.334   3.394   8.364  0.1774 -0.1117 -0.0228
 4946SOL    HW119968   5.366   3.343   8.290  1.0655  1.2954 -0.6408
 4946SOL    HW219969   5.305   3.477   8.325 -0.5023  0.1745  1.0552
 4947SOL     OW19970   7.831   8.954  10.714 -0.0412  0.5143 -0.3473
 4947SOL    HW119971   7.764   8.936  10.780 -0.3963  0.9915 -0.5682
 4947SOL    HW219972   7.810   9.042  10.682 -0.6508 -0.2059 -2.0124
 4948SOL     OW19973   6.537   1.658   5.563  0.7597 -0.3322  0.1782
 4948SOL    HW119974   6.632   1.664   5.553  0.7840 -1.1162 -0.0592
 4948SOL    HW219975   6.507   1.611   5.486  0.2841 -0.9370  0.7275
 4949SOL     OW19976   0.103   7.742   1.521 -0.3058  0.1151  0.0192
 4949SOL    HW119977   0.053   7.661   1.513 -0.3973  0.0875  0.8358
 4949SOL    HW219978   0.079   7.777   1.607 -0.7986  1.3663 -0.6085
 4950SOL     OW19979   5.848  10.769   7.444  0.1790  0.5705  0.4493
 4950SOL    HW119980   5.775  10.709   7.430  0.2070  1.0229 -1.8255
 4950SOL    HW219981   5.818  10.828   7.513 -1.4723  0.5044 -0.1976
 4951SOL     OW19982  10.709   0.980   1.408 -0.3018  0.3565 -0.2627
 4951SOL    HW119983  10.783   0.997   1.350 -0.4082  0.9161 -0.2394
 4951SOL    HW219984  10.743   0.917   1.472  0.3100  1.0069  0.0583
 4952SOL     OW19985   5.470   2.699   4.761  0.1736 -0.1675  0.1503
 4952SOL    HW119986   5.422   2.717   4.681  0.3582  2.5796  0.6163
 4952SOL    HW219987   5.562   2.701   4.735  0.2552  1.3313  0.5326
 4953SOL     OW19988  10.518   7.464   9.207  0.3597 -0.1989 -0.0757
 4953SOL    HW119989  10.432   7.425   9.226  0.8536 -0.9154  0.7260
 4953SOL    HW219990  10.497   7.547   9.165 -0.7285 -0.5954 -0.3633
 4954SOL     OW19991   2.634   7.569   4.101  0.1553  0.2864 -0.3163
 4954SOL    HW119992   2.713   7.595   4.052  0.5729 -0.6842 -0.1663
 4954SOL    HW219993   2.634   7.473   4.098 -0.8949  0.2717 -0.1091
 4955SOL     OW19994   9.110   7.537   1.622 -0.1122 -0.1317 -0.2845
 4955SOL    HW119995   9.034   7.526   1.679  0.5836  0.5337  0.7681
 4955SOL    HW219996   9.097   7.624   1.583 -0.0481 -0.1509 -0.3472
 4956SOL     OW19997   7.375  11.175  11.100  0.3677 -0.2084  0.3220
 4956SOL    HW119998   7.281  11.164  11.111  0.4997 -0.6207  1.0246
 4956SOL    HW219999   7.386  11.193  11.006 -0.5259  1.0763  0.4520
 4957SOL     OW20000   6.462   4.031   7.031  0.2416 -0.5078  0.1070
 4957SOL    HW120001   6.466   4.088   7.108  0.4306 -0.7283  0.2616
 4957SOL    HW220002   6.553   4.019   7.005  0.0957  0.8084 -1.0759
 4958SOL     OW20003   5.357   1.571   1.837 -0.0037 -0.2425  0.5797
 4958SOL    HW120004   5.317   1.498   1.885 -1.4382  0.5298  0.5766
 4958SOL    HW220005   5.317   1.569   1.750  2.3177 -1.4054 -0.5096
 4959SOL     OW20006   8.191   7.475   7.084 -0.3617  0.4996 -0.0010
 4959SOL    HW120007   8.197   7.380   7.075 -0.0882  0.2753  2.2122
 4959SOL    HW220008   8.243   7.509   7.012  1.0096 -1.0549  0.2103
 4960SOL     OW20009  10.498   1.560   9.439  0.1279  0.2816 -0.4998
 4960SOL    HW120010  10.529   1.508   9.513 -1.4820  0.0139  0.0012
 4960SOL    HW220011  10.551   1.640   9.441  3.9458 -2.0522 -2.3851
 4961SOL     OW20012  10.585   0.751   5.392 -0.7836  0.8677  0.1250
 4961SOL    HW120013  10.566   0.662   5.422 -1.1707  1.1954  0.8643
 4961SOL    HW220014  10.512   0.773   5.335 -2.5153  1.9986  2.6959
 4962SOL     OW20015   8.995   5.167   0.199 -0.0247 -0.3891 -1.1790
 4962SOL    HW120016   8.924   5.188   0.138 -0.8089 -0.0617 -0.1781
 4962SOL    HW220017   8.982   5.229   0.272 -0.1144 -1.8744  0.0884
 4963SOL     OW20018   9.701   2.588   5.485 -0.2644 -0.3903 -0.6412
 4963SOL    HW120019   9.680   2.532   5.410 -2.0446 -0.4137 -0.1383
 4963SOL    HW220020   9.648   2.666   5.472 -0.8742 -0.5543  0.7834
 4964SOL     OW20021   6.954   3.870   6.261 -0.0079  0.3523  0.2745
 4964SOL    HW120022   6.883   3.814   6.293 -1.2518 -0.0919 -3.1141
 4964SOL    HW220023   6.911   3.949   6.230  0.9672  0.1449 -1.6779
 4965SOL     OW20024   7.866   4.044   0.658 -0.2257  0.2687  0.1234
 4965SOL    HW120025   7.831   3.975   0.715 -1.3691  1.2352  0.6112
 4965SOL    HW220026   7.789   4.092   0.628  0.4161  0.1823 -1.7349
 4966SOL     OW20027   0.958   1.042  11.126  0.1630  0.3905 -0.0280
 4966SOL    HW120028   0.907   1.108  11.173  1.7403  1.8977 -0.3719
 4966SOL    HW220029   0.896   1.003  11.065 -0.8182  1.5309  0.2051
 4967SOL     OW20030   0.667   7.318   6.196  0.4702 -0.2610 -0.0162
 4967SOL    HW120031   0.714   7.354   6.271 -0.3529 -1.6998  1.2258
 4967SOL    HW220032   0.703   7.364   6.120 -1.1954  3.8883  1.5300
 4968SOL     OW20033   1.204   4.307   9.710  0.8902 -0.5938  0.2427
 4968SOL    HW120034   1.217   4.399   9.685 -0.1354 -0.2338  1.0004
 4968SOL    HW220035   1.175   4.311   9.801  0.1311 -1.6283  0.0521
 4969SOL     OW20036   6.658   5.165   4.674 -0.3218  0.8592 -0.9590
 4969SOL    HW120037   6.694   5.208   4.751 -1.3628 -1.6650  1.0195
 4969SOL    HW220038   6.726   5.104   4.646 -0.4636  0.8108 -1.2021
 4970SOL     OW20039   1.007   7.747   8.028 -0.0237 -0.4383  0.0293
 4970SOL    HW120040   1.027   7.810   7.958  1.8181 -0.8653  0.1386
 4970SOL    HW220041   0.912   7.753   8.039 -0.3000 -0.1322 -2.2807
 4971SOL     OW20042   1.958   2.597   8.615 -0.1811  0.0514  0.7496
 4971SOL    HW120043   1.993   2.544   8.543 -0.4505  0.6506  0.1724
 4971SOL    HW220044   2.010   2.572   8.691 -0.4374 -1.1906  0.5290
 4972SOL     OW20045   3.883   4.797   0.204 -0.4370  0.0597  0.0828
 4972SOL    HW120046   3.950   4.730   0.194  0.0737  0.6718 -0.6847
 4972SOL    HW220047   3.869   4.804   0.298 -0.8684 -1.4819  0.1515
 4973SOL     OW20048   5.844   9.981   3.905  0.3743 -0.2685  0.8761
 4973SOL    HW120049   5.935  10.009   3.904  0.7507 -1.4353 -1.3790
 4973SOL    HW220050   5.846   9.895   3.947  0.2573 -0.1163  1.1935
 4974SOL     OW20051   5.851   7.106   1.542 -0.3935  0.6989 -0.4202
 4974SOL    HW120052   5.878   7.015   1.527  1.2811  1.4159 -1.9376
 4974SOL    HW220053   5.824   7.108   1.633  2.9081 -0.5400  0.6480
 4975SOL     OW20054  10.888   3.692   3.406 -0.3196 -0.1490 -0.1589
 4975SOL    HW120055  10.805   3.716   3.365 -0.4357  2.1349  1.3270
 4975SOL    HW220056  10.869   3.610   3.453 -1.4944 -0.0800 -0.4950
 4976SOL     OW20057   5.211   4.102   0.921 -0.0152  0.0113  0.3384
 4976SOL    HW120058   5.188   4.012   0.896 -0.4906 -0.0393  0.9397
 4976SOL    HW220059   5.197   4.153   0.841 -0.2933 -0.3561  0.1485
 4977SOL     OW20060   8.584   5.787   1.529 -0.5857 -0.4761  0.0784
 4977SOL    HW120061   8.594   5.698   1.564 -1.8688 -0.5964  0.1508
 4977SOL    HW220062   8.556   5.774   1.439  0.5140 -0.1410 -0.3223
 4978SOL     OW20063   9.097   8.495   5.600  0.2028 -0.1012  0.1020
 4978SOL    HW120064   9.165   8.428   5.601  0.0664 -0.2507 -0.1907
 4978SOL    HW220065   9.144   8.578   5.593  0.4117 -0.0975  1.4490
 4979SOL     OW20066   0.926   2.840   7.658  0.2876 -0.0873 -0.0568
 4979SOL    HW120067   0.992   2.815   7.593 -0.5379 -0.9207 -0.5923
 4979SOL    HW220068   0.878   2.911   7.617  0.4896  0.1374  0.0979
 4980SOL     OW20069   0.119   0.484   3.774 -0.6856  0.5772 -0.3084
 4980SOL    HW120070   0.180   0.556   3.754  0.0905 -0.2345 -0.8860
 4980SOL    HW220071   0.062   0.520   3.842 -0.5656  1.8876 -0.8643
 4981SOL     OW20072  11.040   5.299  10.190 -0.3370  0.1648 -0.0144
 4981SOL    HW120073  10.979   5.356  10.236 -1.3591 -0.2324 -0.8488
 4981SOL    HW220074  11.043   5.219  10.241 -0.4042  0.2417  0.1078
 4982SOL     OW20075   7.023   1.664   8.173  0.4284 -0.6828  0.3392
 4982SOL    HW120076   6.936   1.635   8.149  0.2912 -0.0117  0.0042
 4982SOL    HW220077   7.009   1.746   8.221  0.9925  0.6402 -1.7049
 4983SOL     OW20078   6.308   6.996   9.147  0.2844  0.5585  0.3410
 4983SOL    HW120079   6.280   6.942   9.221 -0.1764  1.8758  1.1401
 4983SOL    HW220080   6.237   7.059   9.135  0.1115  0.0169 -1.5814
 4984SOL     OW20081   6.552   6.905   2.423 -0.4857  0.4411 -0.1599
 4984SOL    HW120082   6.501   6.827   2.446 -1.6627  1.2507 -0.0103
 4984SOL    HW220083   6.617   6.912   2.494 -0.2384 -0.5100 -0.2800
 4985SOL     OW20084  10.550   6.644   4.793  0.2038 -0.1646 -0.2973
 4985SOL    HW120085  10.588   6.575   4.847  0.9165 -0.0221 -0.6198
 4985SOL    HW220086  10.511   6.597   4.718 -0.4928 -0.3302  0.1594
 4986SOL     OW20087   6.143   5.215   2.824  0.8343 -0.0179 -0.3570
 4986SOL    HW120088   6.083   5.288   2.811  1.6951  1.1085  1.5955
 4986SOL    HW220089   6.112   5.147   2.765 -1.4645  1.0574 -0.4575
 4987SOL     OW20090   3.412   4.596   8.226  0.2942 -0.1884  0.3767
 4987SOL    HW120091   3.334   4.605   8.280 -1.6634 -0.5220 -2.2858
 4987SOL    HW220092   3.449   4.684   8.221 -1.3855  0.4769 -0.4521
 4988SOL     OW20093   9.632   8.332   6.452  0.0768  0.6600 -0.1635
 4988SOL    HW120094   9.701   8.372   6.398  1.2236  1.4734  1.7948
 4988SOL    HW220095   9.674   8.320   6.537 -2.4563  1.9844  1.3436
 4989SOL     OW20096  10.571   2.346   0.867  0.8871 -0.5998 -0.6286
 4989SOL    HW120097  10.482   2.354   0.901  1.1465 -0.1717 -0.0395
 4989SOL    HW220098  10.622   2.411   0.917  1.8410 -1.8833  0.1110
 4990SOL     OW20099   1.000   6.896   0.265  0.5306 -0.5155 -0.3266
 4990SOL    HW120100   1.079   6.950   0.276  0.8261 -1.0797  0.3692
 4990SOL    HW220101   0.940   6.928   0.332 -0.0691  0.3243 -1.2529
 4991SOL     OW20102   3.065   1.538   9.327 -0.1302  0.7391  0.8047
 4991SOL    HW120103   3.063   1.618   9.275 -0.3947  0.4996  0.4469
 4991SOL    HW220104   3.158   1.522   9.343 -0.0122  0.3706 -0.2706
 4992SOL     OW20105   3.006   7.698   7.165  0.3137 -0.2324 -0.2084
 4992SOL    HW120106   3.004   7.752   7.243  1.4436  1.3077 -1.2339
 4992SOL    HW220107   2.939   7.736   7.108  0.3870 -0.5654 -0.5195
 4993SOL     OW20108  10.898   2.543   7.341 -0.4424  0.6093  0.5398
 4993SOL    HW120109  10.821   2.503   7.382  0.7049 -0.7155  1.4156
 4993SOL    HW220110  10.883   2.530   7.247 -1.3645  0.5015  0.6931
 4994SOL     OW20111   9.151  10.549   2.089  0.6395  0.4882  0.2602
 4994SOL    HW120112   9.126  10.463   2.057 -2.2260  1.6758 -0.9095
 4994SOL    HW220113   9.209  10.585   2.022 -0.0022  0.3344 -0.3892
 4995SOL     OW20114   4.513   4.583   7.780  0.1267 -0.0183 -0.2066
 4995SOL    HW120115   4.595   4.601   7.826  0.3336 -0.1050 -0.5381
 4995SOL    HW220116   4.485   4.498   7.814 -0.7058  0.7919  1.1525
 4996SOL     OW20117   6.200   3.791   7.935  0.3758 -0.1212  0.0857
 4996SOL    HW120118   6.259   3.837   7.995 -0.2121  2.4266 -1.2124
 4996SOL    HW220119   6.230   3.815   7.848 -1.9843  0.4764 -0.6032
 4997SOL     OW20120  10.759   9.213   2.313  0.8908 -0.0547  0.1988
 4997SOL    HW120121  10.743   9.149   2.243  1.1942 -0.5824  0.6119
 4997SOL    HW220122  10.836   9.261   2.284  2.4769 -1.8998  1.3149
 4998SOL     OW20123   9.224   8.989   4.818  0.1195  0.7739 -0.0030
 4998SOL    HW120124   9.278   8.924   4.774 -0.1564 -0.4341  1.3680
 4998SOL    HW220125   9.232   9.068   4.765  0.0258 -0.5305 -2.0233
 4999SOL     OW20126   2.576   9.897   8.277 -0.2895 -0.2001 -0.2428
 4999SOL    HW120127   2.520   9.869   8.204  1.1390  1.8207 -2.2215
 4999SOL    HW220128   2.516   9.942   8.337 -1.3699 -1.1941 -0.5630
 5000SOL     OW20129   2.775   6.465   5.926 -0.0893  0.1209  0.4655
 5000SOL    HW120130   2.750   6.477   6.017 -0.4959 -2.7816  0.7888
 5000SOL    HW220131   2.848   6.525   5.912  0.0562  0.4904  2.7288
 5001SOL     OW20132   2.849   0.632   2.961  0.2926 -0.7406  0.6102
 5001SOL    HW120133   2.939   0.598   2.961  1.3253  1.7532 -2.9311
 5001SOL    HW220134   2.794   0.554   2.954  2.0908 -2.3100  2.9383
 5002SOL     OW20135   8.209   3.434   6.311  0.0623 -0.6830 -0.0132
 5002SOL    HW120136   8.144   3.496   6.278  1.8955  0.9673 -0.6171
 5002SOL    HW220137   8.205   3.444   6.406 -1.3755 -1.4647  0.0263
 5003SOL     OW20138   1.009   3.333   1.725  0.1415 -0.3905 -1.0693
 5003SOL    HW120139   1.008   3.343   1.820 -1.6486 -1.7030 -0.9167
 5003SOL    HW220140   0.953   3.404   1.693  0.2774 -0.3003 -1.1072
 5004SOL     OW20141   5.608   7.340   2.033 -0.0700  0.3400 -0.2299
 5004SOL    HW120142   5.557   7.320   2.112  1.0968 -1.5748  0.0677
 5004SOL    HW220143   5.609   7.436   2.029 -0.8500  0.4488  1.6152
 5005SOL     OW20144   6.267   3.905   9.950  0.4028  0.5468  0.4360
 5005SOL    HW120145   6.349   3.877   9.992  0.6007 -0.8263 -0.8361
 5005SOL    HW220146   6.200   3.848   9.988  0.2076  0.8894  0.6130
 5006SOL     OW20147   3.192   7.244   3.505  0.2394 -0.2549  0.0420
 5006SOL    HW120148   3.107   7.210   3.532  0.3605 -0.6607 -0.0868
 5006SOL    HW220149   3.199   7.223   3.412  0.2794  0.1992 -0.0616
 5007SOL     OW20150   4.416  10.281   4.685  0.1926  0.4207  0.1248
 5007SOL    HW120151   4.411  10.256   4.593 -1.5738  0.8434  0.0790
 5007SOL    HW220152   4.422  10.377   4.683  1.0226  0.3777  0.4338
 5008SOL     OW20153   8.003   5.728   4.455  1.0785 -0.1574 -0.4744
 5008SOL    HW120154   8.090   5.698   4.480  0.7171  0.2286  1.3197
 5008SOL    HW220155   7.946   5.653   4.475  0.6657  0.4641  0.7122
 5009SOL     OW20156  11.035   2.956  10.616  0.0940  0.1958 -0.7174
 5009SOL    HW120157  10.983   2.889  10.573  1.1551 -0.9625 -0.2204
 5009SOL    HW220158  11.096   2.908  10.671 -0.0297  1.5977  0.7002
 5010SOL     OW20159  11.235   9.063  10.984 -0.0915  0.3691 -0.0816
 5010SOL    HW120160  11.326   9.095  10.977  0.3863 -0.7362  0.9117
 5010SOL    HW220161  11.209   9.047  10.893  1.6857 -1.9434 -0.2260
 5011SOL     OW20162   9.222   9.826   8.710 -0.1476  0.0951  0.1504
 5011SOL    HW120163   9.128   9.833   8.726  0.3168 -0.0082  3.2648
 5011SOL    HW220164   9.253   9.917   8.708 -0.3484  0.1444 -1.2816
 5012SOL     OW20165   8.058  10.938   1.026  0.0272  0.0562 -0.7816
 5012SOL    HW120166   8.054  10.979   0.940  0.8984  1.0776 -0.3370
 5012SOL    HW220167   7.997  10.987   1.080  1.0259  0.7459 -0.2658
 5013SOL     OW20168   6.303  10.015   3.146  0.2408  0.0929  0.4777
 5013SOL    HW120169   6.265  10.063   3.073 -1.6735 -0.8590  0.8223
 5013SOL    HW220170   6.344  10.083   3.200  0.5544  0.9365 -0.7954
 5014SOL     OW20171  11.138   1.073  10.539 -0.2788 -0.2045 -0.6075
 5014SOL    HW120172  11.104   1.072  10.449 -1.5053  2.5586 -0.2029
 5014SOL    HW220173  11.127   1.163  10.568  1.8732 -0.6306  1.6820
 5015SOL     OW20174   9.592   4.844   7.969 -0.3363 -0.3753 -0.0450
 5015SOL    HW120175   9.559   4.754   7.967 -0.7384 -0.2342  0.0612
 5015SOL    HW220176   9.529   4.893   7.916  0.6557 -0.4018 -1.2771
 5016SOL     OW20177   0.606   2.572   9.700  0.2326  0.6427 -0.2875
 5016SOL    HW120178   0.558   2.643   9.744  0.1293  1.7422 -2.1161
 5016SOL    HW220179   0.586   2.584   9.607  0.1810 -1.8297 -0.6248
 5017SOL     OW20180   0.444   6.268   0.441  0.1919  0.3524 -0.0058
 5017SOL    HW120181   0.433   6.173   0.439  1.3232  0.1748  1.3600
 5017SOL    HW220182   0.525   6.284   0.392 -0.4513  0.7122 -0.9831
 5018SOL     OW20183   0.398  10.601   4.144  0.5049  0.3874  0.0431
 5018SOL    HW120184   0.313  10.629   4.110  0.3787 -1.0995 -0.9029
 5018SOL    HW220185   0.383  10.514   4.179  1.5525  0.2883  0.2826
 5019SOL     OW20186   4.749   7.378   4.348  0.2329  0.3811 -0.3919
 5019SOL    HW120187   4.836   7.377   4.387 -0.4067 -0.7981  1.0622
 5019SOL    HW220188   4.748   7.457   4.293  2.2850  0.2753 -0.6395
 5020SOL     OW20189   0.263   6.287   8.827 -0.1679  0.1057 -0.4065
 5020SOL    HW120190   0.202   6.327   8.888 -1.1212 -1.3760 -0.3763
 5020SOL    HW220191   0.228   6.199   8.811  2.0255 -0.8413 -0.2537
 5021SOL     OW20192   1.601   2.825  10.972 -0.8455  0.4801 -0.4019
 5021SOL    HW120193   1.620   2.918  10.959  2.6241 -0.0400  0.3833
 5021SOL    HW220194   1.606   2.813  11.067 -1.8575 -0.3899 -0.4593
 5022SOL     OW20195  10.983   6.947   3.462 -0.0979 -0.3548 -0.1999
 5022SOL    HW120196  10.962   6.853   3.462 -0.1152 -0.3575 -1.0057
 5022SOL    HW220197  11.004   6.966   3.371  1.3785  0.0946  0.2128
 5023SOL     OW20198   3.344   8.274   4.165 -0.2042  0.6938 -0.1485
 5023SOL    HW120199   3.361   8.334   4.092 -3.4783  0.2834 -1.3114
 5023SOL    HW220200   3.321   8.191   4.123  0.7139 -0.3724  1.4149
 5024SOL     OW20201   4.898   7.235   3.005 -0.4303  0.5840  0.3663
 5024SOL    HW120202   4.927   7.257   3.094 -1.6121 -1.2449  1.2346
 5024SOL    HW220203   4.921   7.143   2.995 -2.8284  0.0119 -0.1825
 5025SOL     OW20204   7.454   5.736   9.342 -0.1209 -0.2615 -0.1120
 5025SOL    HW120205   7.425   5.827   9.331 -4.5554 -1.7711 -2.3756
 5025SOL    HW220206   7.485   5.711   9.255  0.7774 -0.9940  0.4179
 5026SOL     OW20207   2.831   2.256   8.300 -0.1679  0.3831 -0.0815
 5026SOL    HW120208   2.790   2.186   8.351  0.0004  0.8222  0.6602
 5026SOL    HW220209   2.910   2.279   8.350  1.0876 -0.5779 -1.5690
 5027SOL     OW20210  10.985   4.703   2.447  0.1407 -0.2879 -0.3529
 5027SOL    HW120211  11.064   4.757   2.450 -1.0452  1.4866 -0.1100
 5027SOL    HW220212  10.951   4.716   2.359 -1.5217  1.4268  0.5051
 5028SOL     OW20213  10.261   9.904  10.069  0.2301 -0.3224  0.2263
 5028SOL    HW120214  10.222   9.863   9.991 -0.9395  1.2962 -0.0645
 5028SOL    HW220215  10.314   9.975  10.033  0.8708 -0.4938  0.8355
 5029SOL     OW20216   4.587  10.980   1.981 -0.8090  0.6640 -0.7645
 5029SOL    HW120217   4.614  10.922   2.052 -1.6730  0.9644 -0.1765
 5029SOL    HW220218   4.550  11.056   2.026 -0.0181  1.5096 -1.5305
 5030SOL     OW20219  10.902   7.860   5.172  0.0291 -0.4287 -0.1732
 5030SOL    HW120220  10.856   7.907   5.103 -0.5039  0.2831  0.6563
 5030SOL    HW220221  10.878   7.769   5.160 -0.2029 -0.2827 -0.8133
 5031SOL     OW20222   0.297   2.172   4.946  0.1576  0.3092  0.2982
 5031SOL    HW120223   0.204   2.148   4.946  0.0080  0.8857  1.0251
 5031SOL    HW220224   0.305   2.239   5.014  1.0893  0.3330  0.1735
 5032SOL     OW20225   9.481   1.634   9.215  0.0876 -0.6957  0.0662
 5032SOL    HW120226   9.469   1.593   9.129  0.6396 -2.4885  0.8212
 5032SOL    HW220227   9.576   1.637   9.226  0.0621  0.8890 -0.0016
 5033SOL     OW20228   6.457   5.659   1.392  0.0431  0.2788 -0.0547
 5033SOL    HW120229   6.481   5.747   1.362  1.8228  1.2655  3.9418
 5033SOL    HW220230   6.367   5.669   1.423  0.1752  0.6384  0.2206
 5034SOL     OW20231   3.248   7.316   1.662  0.1695 -0.5588 -0.1167
 5034SOL    HW120232   3.263   7.308   1.568 -1.2511 -1.4132 -0.2830
 5034SOL    HW220233   3.171   7.373   1.669  0.9368  0.4191  0.5757
 5035SOL     OW20234   0.323   4.964   9.104  0.6485 -0.3887  0.3157
 5035SOL    HW120235   0.301   4.983   9.195  0.2528  2.1421 -0.2721
 5035SOL    HW220236   0.239   4.961   9.059  0.9436  0.3487 -0.3065
 5036SOL     OW20237   7.148   3.316   3.172  0.5624 -0.0428  0.4149
 5036SOL    HW120238   7.224   3.262   3.151 -0.1616 -0.5836 -0.9370
 5036SOL    HW220239   7.075   3.254   3.173  0.0567  0.5627  1.0902
 5037SOL     OW20240   8.357   3.883   8.766 -0.0877 -0.4435 -0.0331
 5037SOL    HW120241   8.314   3.961   8.731  1.0944  0.6622  0.9601
 5037SOL    HW220242   8.451   3.901   8.759  0.2230 -2.0952 -0.5003
 5038SOL     OW20243   0.927   5.880  10.865 -0.0717 -0.5977  0.8388
 5038SOL    HW120244   0.960   5.795  10.893  1.8108 -0.1062  0.2165
 5038SOL    HW220245   0.970   5.895  10.780 -1.7678  0.1735  0.0882
 5039SOL     OW20246   6.943   0.588   5.588 -0.3985  0.5747 -0.2851
 5039SOL    HW120247   6.995   0.651   5.538  0.6901 -0.8958 -1.0408
 5039SOL    HW220248   6.852   0.613   5.570  0.0119  2.0474 -0.4041
 5040SOL     OW20249   1.864   4.381   3.311 -0.3350 -0.4141 -0.1170
 5040SOL    HW120250   1.844   4.321   3.382  0.9648  0.7270  1.2550
 5040SOL    HW220251   1.925   4.444   3.349 -1.2868  1.5013 -1.6370
 5041SOL     OW20252   9.058   7.796   4.463  0.1381  0.0253  0.1852
 5041SOL    HW120253   9.128   7.861   4.460  1.7527 -1.4475  3.2040
 5041SOL    HW220254   9.101   7.714   4.441 -0.4554 -0.9789  2.5501
 5042SOL     OW20255   2.665   3.119   6.833 -0.1117 -0.1866 -0.1486
 5042SOL    HW120256   2.683   3.213   6.843 -0.9269 -0.1100  0.6195
 5042SOL    HW220257   2.592   3.114   6.773 -0.2508 -0.3162  0.0292
 5043SOL     OW20258   4.262   2.824  11.227 -0.3683  0.6672  0.0204
 5043SOL    HW120259   4.272   2.816  11.321  0.2638  0.2026 -0.0874
 5043SOL    HW220260   4.349   2.806  11.191 -0.8495 -0.2925 -0.7118
 5044SOL     OW20261   8.835   1.507  10.576 -0.0768  0.1095  0.4417
 5044SOL    HW120262   8.881   1.558  10.642 -0.1796 -0.6631  1.1193
 5044SOL    HW220263   8.855   1.550  10.493  1.5606 -0.0167  0.7736
 5045SOL     OW20264  10.931   1.674   2.520 -0.3559  0.4020 -0.4741
 5045SOL    HW120265  10.841   1.684   2.551 -0.4228  1.4173 -0.9709
 5045SOL    HW220266  10.969   1.761   2.526  0.6635 -0.0637 -0.0788
 5046SOL     OW20267   9.584   9.961   2.103 -0.6046  0.9216  0.0103
 5046SOL    HW120268   9.671   9.988   2.133 -0.6225 -0.5648  1.5135
 5046SOL    HW220269   9.572   9.874   2.142 -1.8661  0.1676 -2.0009
 5047SOL     OW20270   8.029   0.531   0.663  0.5150  0.4000  0.1501
 5047SOL    HW120271   7.952   0.584   0.684 -2.4361 -3.3764 -0.5712
 5047SOL    HW220272   8.023   0.518   0.568 -0.1296 -2.9856  0.5896
 5048SOL     OW20273  10.287   8.543  10.876 -0.0018 -0.1971  0.1785
 5048SOL    HW120274  10.351   8.594  10.826  1.3556 -0.3081  1.7517
 5048SOL    HW220275  10.255   8.477  10.815 -0.4361  1.3870 -1.3549
 5049SOL     OW20276   0.547   7.553   0.748  0.7216  0.1763  0.9102
 5049SOL    HW120277   0.584   7.635   0.714  1.9345 -0.7912 -0.1830
 5049SOL    HW220278   0.535   7.569   0.842  1.9562  1.2398  0.9011
 5050SOL     OW20279   4.868   0.690   0.348  0.4577  0.4726  0.2132
 5050SOL    HW120280   4.884   0.712   0.257  1.2678  0.5151  0.3573
 5050SOL    HW220281   4.909   0.604   0.360 -2.2930 -0.9613 -0.2327
 5051SOL     OW20282   6.562   7.963   4.420 -0.2972 -0.2994 -0.0261
 5051SOL    HW120283   6.639   7.967   4.364 -0.0376 -1.7288  0.2039
 5051SOL    HW220284   6.587   8.011   4.499 -0.8234  2.1063 -1.2995
 5052SOL     OW20285  10.138   5.537   2.374  0.7828  0.3221  0.3142
 5052SOL    HW120286  10.140   5.442   2.386 -0.2064  0.0750 -1.1947
 5052SOL    HW220287  10.090   5.570   2.450  0.7807 -0.4252  0.6437
 5053SOL     OW20288   5.035   6.058   8.959 -0.1201 -0.0914 -0.3489
 5053SOL    HW120289   5.104   6.074   9.024 -0.4832 -0.6047  0.1612
 5053SOL    HW220290   4.954   6.070   9.008 -0.3997  0.6417 -0.9820
 5054SOL     OW20291   4.018   4.828   6.877  1.0478 -0.7622  0.2278
 5054SOL    HW120292   3.989   4.910   6.919  3.1268  0.3767 -0.4925
 5054SOL    HW220293   4.102   4.808   6.919  1.2381 -1.7433 -0.6206
 5055SOL     OW20294   8.990   6.126   6.508 -0.3238  0.2814 -0.4079
 5055SOL    HW120295   8.982   6.031   6.501  0.1607 -0.0979  3.1554
 5055SOL    HW220296   9.081   6.144   6.486 -0.2873 -0.1424 -0.6060
 5056SOL     OW20297   4.380   3.626   0.998 -0.2755  0.0311 -0.2914
 5056SOL    HW120298   4.329   3.684   0.942 -0.7715 -0.2198 -0.1057
 5056SOL    HW220299   4.372   3.663   1.086 -0.8314 -0.4723 -0.1233
 5057SOL     OW20300   4.044   0.761   0.481 -0.2524  0.0905  0.8018
 5057SOL    HW120301   4.117   0.707   0.450 -0.1279  0.5880  0.2196
 5057SOL    HW220302   3.991   0.777   0.403 -1.1728 -0.5408  1.2803
 5058SOL     OW20303   7.933   8.221   6.962 -0.4276 -0.0286  0.1665
 5058SOL    HW120304   7.973   8.304   6.936  0.3244  0.0046  1.3853
 5058SOL    HW220305   7.975   8.155   6.905 -0.0255  0.2494  0.1369
 5059SOL     OW20306  10.618   8.513  10.855  0.0868 -0.5697 -0.3677
 5059SOL    HW120307  10.574   8.429  10.863 -3.0074  1.0135 -0.1811
 5059SOL    HW220308  10.581   8.552  10.776  1.0652  0.8845 -0.1224
 5060SOL     OW20309   7.198   0.721   9.086  0.0258  0.0730 -0.0865
 5060SOL    HW120310   7.284   0.679   9.085 -0.6167 -1.2648  0.8526
 5060SOL    HW220311   7.140   0.657   9.046 -1.1355 -0.3311  2.2169
 5061SOL     OW20312   0.726  11.084   8.697 -0.1886 -0.0065  0.5923
 5061SOL    HW120313   0.642  11.105   8.737 -0.0466  0.1284  0.8162
 5061SOL    HW220314   0.791  11.114   8.760  0.0036 -1.7073  1.2311
 5062SOL     OW20315   0.635  10.771   9.198 -0.1653 -0.5709  0.4147
 5062SOL    HW120316   0.571  10.828   9.240 -1.7521 -1.1917 -1.0812
 5062SOL    HW220317   0.664  10.820   9.121 -0.9164 -1.4283 -0.4223
 5063SOL     OW20318   8.286   7.320   7.890  0.3044  0.2003  0.0839
 5063SOL    HW120319   8.245   7.281   7.813  0.9092 -3.3611  1.5022
 5063SOL    HW220320   8.214   7.337   7.950 -0.0831  2.3392 -0.9407
 5064SOL     OW20321   6.689   4.832   1.529 -0.0090 -0.1424  0.0490
 5064SOL    HW120322   6.649   4.745   1.524 -1.4761  0.4968  0.2205
 5064SOL    HW220323   6.652   4.871   1.608  1.7199  0.1330  0.7526
 5065SOL     OW20324   4.325   5.854   4.576  0.0625  0.5173 -0.5670
 5065SOL    HW120325   4.350   5.943   4.552 -2.7648  1.1227 -1.4589
 5065SOL    HW220326   4.321   5.855   4.672  2.7758  0.5282 -0.4184
 5066SOL     OW20327   0.168   2.051   8.012  0.0412 -0.1297 -0.0834
 5066SOL    HW120328   0.126   2.108   8.076  0.3734  1.0491 -0.9030
 5066SOL    HW220329   0.098   1.996   7.979 -0.9435  1.9578 -1.5993
 5067SOL     OW20330   3.438  10.542  10.385  0.0806  0.3949 -0.1863
 5067SOL    HW120331   3.342  10.536  10.393  0.3761 -1.8484  2.1108
 5067SOL    HW220332   3.461  10.619  10.436 -0.3920  0.2687  0.2247
 5068SOL     OW20333   5.913   0.078  11.238 -0.1243 -0.0642 -0.2989
 5068SOL    HW120334   5.856   0.013  11.279  0.8843  0.3005  1.7612
 5068SOL    HW220335   5.869   0.101  11.157 -1.2358 -2.2247 -0.3315
 5069SOL     OW20336   0.027   3.653   3.744 -0.0950  0.1750  0.4882
 5069SOL    HW120337  -0.005   3.743   3.736  1.2769  0.7022  0.9182
 5069SOL    HW220338  -0.037   3.610   3.802  0.2238  1.3446  1.7089
 5070SOL     OW20339  10.079   3.662   9.491  0.0955  0.2498 -0.4699
 5070SOL    HW120340  10.151   3.612   9.454  0.6228  0.3391  0.4327
 5070SOL    HW220341  10.007   3.651   9.428  1.1228  0.7948 -1.7625
 5071SOL     OW20342   1.846   0.738   8.082  0.3691  0.0550  0.3139
 5071SOL    HW120343   1.919   0.782   8.038  0.5450 -1.6213 -1.1600
 5071SOL    HW220344   1.863   0.645   8.068 -2.1684 -0.3633 -0.2268
 5072SOL     OW20345   3.391   4.451   2.213 -0.0471 -0.2823 -1.0829
 5072SOL    HW120346   3.315   4.474   2.159  0.6362 -1.1352 -2.4552
 5072SOL    HW220347   3.406   4.358   2.195  0.4574 -0.4715  0.2734
 5073SOL     OW20348   5.855   8.088   0.679  0.1698  0.2303  0.0386
 5073SOL    HW120349   5.825   8.040   0.602  0.2067 -0.0560  0.1978
 5073SOL    HW220350   5.775   8.125   0.717  0.2270  0.9014 -0.4843
 5074SOL     OW20351   8.546   4.468   5.942  1.2834  0.1261 -0.3164
 5074SOL    HW120352   8.511   4.445   5.856 -0.7042 -0.5511  0.6586
 5074SOL    HW220353   8.619   4.407   5.955 -0.3827 -1.9187 -0.2015
 5075SOL     OW20354   2.612   5.904   0.707 -0.4243  0.0545  0.1418
 5075SOL    HW120355   2.652   5.858   0.780 -1.7486 -2.7356 -0.8304
 5075SOL    HW220356   2.542   5.956   0.748  1.3695  1.6644  1.2913
 5076SOL     OW20357   1.567   1.267   5.476 -0.1870  0.2746  0.2496
 5076SOL    HW120358   1.605   1.207   5.540 -1.1557 -1.1742 -0.5367
 5076SOL    HW220359   1.632   1.338   5.470  1.3491 -1.0630  0.5851
 5077SOL     OW20360   2.297   3.866   5.238  0.7323  0.3076 -0.2735
 5077SOL    HW120361   2.274   3.779   5.206  1.8748  0.4633 -1.5624
 5077SOL    HW220362   2.381   3.855   5.280 -0.1914  0.3527  1.6222
 5078SOL     OW20363   4.949  10.719   5.966  0.0208 -0.5458  0.6483
 5078SOL    HW120364   4.943  10.628   5.938  1.1112 -0.3766 -0.2041
 5078SOL    HW220365   4.873  10.732   6.023 -2.3947 -0.8778 -2.3434
 5079SOL     OW20366   6.397   8.027   9.606 -0.2181  0.3230 -0.2448
 5079SOL    HW120367   6.387   7.963   9.535  0.8300  0.7457 -0.7765
 5079SOL    HW220368   6.317   8.017   9.658  0.0046 -1.5514 -0.2165
 5080SOL     OW20369   0.850   6.021   9.309 -0.2925  0.6619 -0.6941
 5080SOL    HW120370   0.766   6.044   9.270  0.2295  0.5795 -1.8691
 5080SOL    HW220371   0.915   6.072   9.259  0.2890  1.3707  0.7404
 5081SOL     OW20372   4.141   0.486   5.245  0.0496 -0.6203 -0.4805
 5081SOL    HW120373   4.141   0.519   5.335 -2.6408  0.3909 -0.8146
 5081SOL    HW220374   4.189   0.551   5.195 -2.4816  1.2392 -0.5675
 5082SOL     OW20375   6.907   7.683   3.471  0.4545 -0.3762  0.2881
 5082SOL    HW120376   6.966   7.661   3.543  0.9851  0.1830  0.0327
 5082SOL    HW220377   6.964   7.692   3.395 -0.0618 -0.6277 -0.1296
 5083SOL     OW20378   9.124   7.677  10.372  0.2201  0.2733 -0.0655
 5083SOL    HW120379   9.069   7.753  10.390 -0.0287 -0.0299  0.4604
 5083SOL    HW220380   9.066   7.616  10.326  0.0831 -0.0979  0.6010
 5084SOL     OW20381  10.795  10.893   4.347  0.6049  0.0274 -0.1956
 5084SOL    HW120382  10.833  10.947   4.278  0.7421  0.4499  0.2065
 5084SOL    HW220383  10.868  10.841   4.380  0.9818  1.2601  0.9749
 5085SOL     OW20384   1.353  11.065   5.635  0.1577 -0.0804  0.7619
 5085SOL    HW120385   1.413  10.999   5.599  1.0986  1.4764 -0.5630
 5085SOL    HW220386   1.393  11.091   5.718  2.1446  2.0190 -0.8048
 5086SOL     OW20387  10.393   5.343   5.190  0.2439  0.9794  0.0071
 5086SOL    HW120388  10.314   5.298   5.161  0.2278  1.2117 -0.3068
 5086SOL    HW220389  10.425   5.389   5.112  0.1816  1.6294  0.3612
 5087SOL     OW20390  10.351  11.198   5.493  0.7417 -0.3196  0.7490
 5087SOL    HW120391  10.438  11.186   5.531  1.1817  1.8820  0.5272
 5087SOL    HW220392  10.328  11.288   5.515  0.1042  0.3387 -2.4264
 5088SOL     OW20393   7.783   2.388   7.069  0.0420  0.1562  0.3185
 5088SOL    HW120394   7.782   2.413   6.977 -1.4582  0.3801  0.3853
 5088SOL    HW220395   7.871   2.355   7.084  0.7423  1.4379 -0.8428
 5089SOL     OW20396   2.509   2.861   1.218  0.4814  0.2534  0.1965
 5089SOL    HW120397   2.589   2.852   1.271 -0.7507  4.6633  3.1050
 5089SOL    HW220398   2.467   2.775   1.225  3.9381 -1.5455  0.2681
 5090SOL     OW20399   5.964   1.951   5.316  0.4364 -0.2098 -0.0511
 5090SOL    HW120400   5.926   2.001   5.388 -0.6152 -0.3354 -0.5043
 5090SOL    HW220401   5.973   2.014   5.245 -2.0012 -0.8758 -1.0178
 5091SOL     OW20402   8.361   3.289   1.431 -0.6775  0.0272  0.4466
 5091SOL    HW120403   8.410   3.368   1.407 -2.0322  1.3171  1.7890
 5091SOL    HW220404   8.270   3.319   1.439 -2.0046 -2.5983 -3.3592
 5092SOL     OW20405   9.585   9.994   6.116 -0.1708  0.3962  0.4506
 5092SOL    HW120406   9.679   9.986   6.133 -0.3940  0.7515  1.9005
 5092SOL    HW220407   9.566   9.924   6.054  0.8313 -0.3978  1.0294
 5093SOL     OW20408   8.909   2.492   1.425  0.0493 -0.1416 -0.2064
 5093SOL    HW120409   8.877   2.432   1.357 -1.1337  0.8889 -0.5837
 5093SOL    HW220410   8.956   2.560   1.377  2.1289 -1.1826  0.2855
 5094SOL     OW20411   6.396   6.695   3.817  0.3596 -0.3853 -0.6421
 5094SOL    HW120412   6.434   6.712   3.731  2.6005 -0.9468  0.2217
 5094SOL    HW220413   6.402   6.600   3.826 -2.3729 -0.6377 -0.9776
 5095SOL     OW20414   0.621   9.753  10.937 -0.1585 -0.7491 -0.2047
 5095SOL    HW120415   0.619   9.707  10.853  0.6219 -0.9389 -0.1278
 5095SOL    HW220416   0.706   9.797  10.938 -0.6924  0.2855 -0.0578
 5096SOL     OW20417   7.550   5.043   6.859  0.7923  0.0147  0.5413
 5096SOL    HW120418   7.480   4.979   6.845  0.4101  0.3350  0.9830
 5096SOL    HW220419   7.628   5.000   6.825  0.5872 -0.8103  1.0836
 5097SOL     OW20420   7.582   2.405  10.411 -0.1670  0.4251  0.5872
 5097SOL    HW120421   7.535   2.378  10.332 -1.2824  3.3212  0.2035
 5097SOL    HW220422   7.520   2.388  10.482 -0.3825  0.7979  0.4878
 5098SOL     OW20423   8.768  10.012   9.355 -0.4132  0.3730  0.0080
 5098SOL    HW120424   8.795  10.104   9.347 -2.0624  0.8957  0.4050
 5098SOL    HW220425   8.794   9.987   9.444  0.9086  0.1455 -0.4237
 5099SOL     OW20426  11.246   5.428  10.606  0.1738  0.3112 -0.5194
 5099SOL    HW120427  11.325   5.459  10.650 -0.9323  2.6430 -0.0504
 5099SOL    HW220428  11.226   5.344  10.647  0.9121  0.9883  1.2705
 5100SOL     OW20429   1.550   2.839   5.665  0.2152  0.1560 -0.4369
 5100SOL    HW120430   1.532   2.786   5.587 -0.4400  0.4101 -0.4681
 5100SOL    HW220431   1.519   2.784   5.738  0.2935  0.1549 -0.4056
 5101SOL     OW20432   6.934   5.509   3.482 -0.1361 -0.3636  0.2662
 5101SOL    HW120433   6.979   5.566   3.420 -1.1125 -0.9970 -1.0451
 5101SOL    HW220434   6.998   5.495   3.553  1.6135 -0.9947 -1.4000
 5102SOL     OW20435   2.130   8.563   0.730  0.5793 -0.1163 -0.1058
 5102SOL    HW120436   2.112   8.511   0.651  0.7264 -0.2299 -0.0650
 5102SOL    HW220437   2.095   8.510   0.802  0.8478 -0.2232 -0.0512
 5103SOL     OW20438   1.957  11.140   5.147 -0.2878  0.0469  0.3108
 5103SOL    HW120439   1.886  11.190   5.188 -2.0810 -1.0872 -1.2904
 5103SOL    HW220440   1.954  11.054   5.189  0.8988  0.3557  1.0359
 5104SOL     OW20441   9.148   2.790  11.058  0.2583 -0.6235 -0.0191
 5104SOL    HW120442   9.165   2.852  11.129  0.0953  2.2837 -2.4146
 5104SOL    HW220443   9.053   2.795  11.044  0.5104  0.1466 -1.5603
 5105SOL     OW20444  10.509   0.056   3.066 -0.2400  0.6786 -0.1349
 5105SOL    HW120445  10.600   0.059   3.037 -0.4159  0.5278 -0.7076
 5105SOL    HW220446  10.459   0.029   2.988 -0.7137  0.2542  0.3069
 5106SOL     OW20447   1.104   8.062   1.541 -0.2681 -0.5072  0.3091
 5106SOL    HW120448   1.038   8.107   1.488 -1.9757 -0.3857  2.4612
 5106SOL    HW220449   1.057   7.988   1.580  1.4358 -1.6754  0.1662
 5107SOL     OW20450   2.395   0.492   9.084  0.0311  0.3987  0.0923
 5107SOL    HW120451   2.354   0.553   9.144  0.8365  0.6331  0.4178
 5107SOL    HW220452   2.400   0.539   9.001  1.9301  1.3273  0.6966
 5108SOL     OW20453   3.864   1.321   0.239  0.1628 -0.2128 -0.1845
 5108SOL    HW120454   3.784   1.360   0.275 -0.2524 -1.0069 -0.2325
 5108SOL    HW220455   3.923   1.313   0.314  0.2028  0.3932 -0.1520
 5109SOL     OW20456   7.304   8.448   3.132 -0.9163 -0.0023  0.3193
 5109SOL    HW120457   7.341   8.529   3.168 -0.7479 -0.1068  0.3864
 5109SOL    HW220458   7.333   8.447   3.041  0.4332 -0.7639  0.7294
 5110SOL     OW20459  10.737   6.270   6.749  0.3853 -0.0141 -0.5359
 5110SOL    HW120460  10.709   6.241   6.662 -0.8740  0.4540 -0.3021
 5110SOL    HW220461  10.826   6.303   6.736  0.6584 -1.0550 -1.4125
 5111SOL     OW20462   6.219   7.864   0.825  0.4209  0.0870  0.3399
 5111SOL    HW120463   6.234   7.871   0.920  2.4218 -1.0241  0.1358
 5111SOL    HW220464   6.263   7.941   0.788  1.9251 -0.8656  0.1095
 5112SOL     OW20465   4.036  11.274   0.770 -0.3564 -0.0547  0.4953
 5112SOL    HW120466   4.113  11.219   0.753 -0.3073  0.0143  0.4880
 5112SOL    HW220467   4.070  11.346   0.822 -0.3283  0.2206  0.1015
 5113SOL     OW20468   0.845   7.220   9.708  0.1052  0.8842 -0.8422
 5113SOL    HW120469   0.793   7.205   9.787  0.0848  1.7098 -0.6977
 5113SOL    HW220470   0.816   7.305   9.676  0.0025  0.4946 -1.8291
 5114SOL     OW20471   9.639   5.964   9.489  0.7430  0.3682 -0.0590
 5114SOL    HW120472   9.569   5.902   9.469  1.1951 -0.1559 -0.0255
 5114SOL    HW220473   9.599   6.026   9.550  0.8237 -1.0242  1.4522
 5115SOL     OW20474   1.822   8.904   0.377  0.3783  0.0728  0.4147
 5115SOL    HW120475   1.838   8.897   0.283  0.0929  0.6413  0.3231
 5115SOL    HW220476   1.909   8.901   0.416  0.5515  0.6141  0.0802
 5116SOL     OW20477  10.180   0.615   8.212 -0.7494 -0.0166  0.0555
 5116SOL    HW120478  10.231   0.672   8.269  0.6801 -1.0313 -0.1787
 5116SOL    HW220479  10.091   0.620   8.245  0.0213 -0.4603  2.2864
 5117SOL     OW20480   5.541   6.147   4.792 -0.2625 -0.1833  0.3928
 5117SOL    HW120481   5.548   6.098   4.711  0.5484  1.8182 -0.7710
 5117SOL    HW220482   5.630   6.175   4.812 -0.8194  1.5143  0.5814
 5118SOL     OW20483   5.181   1.193   3.095  0.0685 -0.5201 -0.4572
 5118SOL    HW120484   5.103   1.140   3.110 -1.0784  0.6159 -2.1517
 5118SOL    HW220485   5.189   1.247   3.174 -0.4399 -1.1596  0.0308
 5119SOL     OW20486   0.161   6.235   4.005  0.0913  0.0870  0.7044
 5119SOL    HW120487   0.218   6.296   3.959  0.7996 -1.5172 -0.5875
 5119SOL    HW220488   0.073   6.253   3.970  0.7007 -1.4835 -1.6985
 5120SOL     OW20489   1.807   5.560   2.866  0.6807 -0.2379  0.2838
 5120SOL    HW120490   1.824   5.577   2.774  0.6008  1.5797  0.5988
 5120SOL    HW220491   1.717   5.528   2.868  1.1147 -1.5378 -0.4034
 5121SOL     OW20492  10.918   2.940   7.228 -0.0251 -0.2843  0.4348
 5121SOL    HW120493  10.922   2.974   7.317 -0.5257  1.3213 -0.1433
 5121SOL    HW220494  10.829   2.906   7.218 -0.2546  0.3715  0.2477
 5122SOL     OW20495   4.294   2.033   6.223  1.2241 -0.9536  0.0910
 5122SOL    HW120496   4.238   2.050   6.298 -0.3141 -1.0290 -1.0153
 5122SOL    HW220497   4.371   2.089   6.237  1.2415 -1.4485  2.0144
 5123SOL     OW20498  10.004   9.729   6.344 -0.0488 -0.2343 -0.2796
 5123SOL    HW120499  10.071   9.741   6.412  0.5016 -0.4429 -0.7757
 5123SOL    HW220500  10.054   9.730   6.262 -0.2493 -3.3642 -0.5047
 5124SOL     OW20501   9.989   8.533  10.679 -0.0749 -0.0371 -0.2233
 5124SOL    HW120502   9.943   8.579  10.749  0.4924  0.5815 -0.2539
 5124SOL    HW220503  10.063   8.590  10.658  0.0325 -0.4547 -0.9838
 5125SOL     OW20504   4.898   7.842  11.307 -0.0763 -0.0873 -0.3793
 5125SOL    HW120505   4.984   7.851  11.266  0.8298  0.0553  1.5185
 5125SOL    HW220506   4.893   7.915  11.369 -0.6070 -1.4532  1.2014
 5126SOL     OW20507   4.941   6.631  10.033 -0.0572 -0.1856  0.0200
 5126SOL    HW120508   4.982   6.654  10.117 -0.1327 -0.0464  0.0187
 5126SOL    HW220509   4.855   6.596  10.057 -0.0542 -0.2041  0.0050
 5127SOL     OW20510   9.700   2.208   7.037  0.3193  0.5267  0.1505
 5127SOL    HW120511   9.785   2.210   6.993  0.6158 -0.3191  0.6833
 5127SOL    HW220512   9.704   2.278   7.102  0.7857  0.1635  0.5091
 5128SOL     OW20513   7.439   8.462  10.967  0.5348 -0.4595  0.1860
 5128SOL    HW120514   7.531   8.478  10.990  0.5020 -1.5943  1.1702
 5128SOL    HW220515   7.413   8.541  10.919  2.3567 -0.6296 -1.1725
 5129SOL     OW20516   9.926   8.196  10.416 -0.3370 -0.3094  0.1675
 5129SOL    HW120517   9.958   8.228  10.500  0.6859 -0.1136 -0.2795
 5129SOL    HW220518   9.833   8.216  10.415  0.0022  1.3189  0.5101
 5130SOL     OW20519  10.322   2.557   0.733 -0.4975  0.6759 -0.4746
 5130SOL    HW120520  10.332   2.498   0.658  1.9923  0.7177 -0.2234
 5130SOL    HW220521  10.289   2.501   0.803  0.1751 -0.0659 -0.7357
 5131SOL     OW20522   4.374   8.835   4.024  0.2380  0.1649 -0.1610
 5131SOL    HW120523   4.390   8.861   4.114  0.7963 -0.5264 -0.0563
 5131SOL    HW220524   4.280   8.849   4.011 -0.3182 -1.9914  1.2854
 5132SOL     OW20525   4.434   7.655   3.992 -0.3975 -0.3217 -0.6118
 5132SOL    HW120526   4.442   7.750   3.999 -0.4795 -0.1781 -2.2181
 5132SOL    HW220527   4.391   7.628   4.073 -3.2038  1.3748 -1.4659
 5133SOL     OW20528   1.002   6.973   2.395  0.4355 -0.6020  0.1700
 5133SOL    HW120529   0.955   7.055   2.379  1.7978  0.1788  0.0271
 5133SOL    HW220530   0.959   6.909   2.339 -1.7389 -0.4029  1.5563
 5134SOL     OW20531   2.965   5.357   6.608 -0.0403 -0.2450 -0.2401
 5134SOL    HW120532   2.880   5.397   6.625  0.1258 -0.3166  0.7893
 5134SOL    HW220533   2.946   5.280   6.555 -0.8138 -1.3356  1.5878
 5135SOL     OW20534  11.100  10.621   9.101  0.0206 -0.0748  0.5105
 5135SOL    HW120535  11.178  10.671   9.124 -0.0953  0.7442 -0.8562
 5135SOL    HW220536  11.118  10.588   9.013 -2.3191  2.4858 -0.9902
 5136SOL     OW20537  11.112   0.310   8.770 -0.2620  0.5702 -1.1844
 5136SOL    HW120538  11.020   0.304   8.793  0.0675  1.1488  0.3553
 5136SOL    HW220539  11.147   0.378   8.828  1.6768 -1.4043  0.0095
 5137SOL     OW20540   5.482   2.268   9.890  0.5875 -0.9568  0.0595
 5137SOL    HW120541   5.474   2.359   9.862 -0.1935 -1.0813 -0.1324
 5137SOL    HW220542   5.404   2.225   9.855  2.5754 -2.4461 -2.7501
 5138SOL     OW20543   7.046   9.137   0.754 -0.1112 -0.6925 -0.5219
 5138SOL    HW120544   7.060   9.182   0.671 -0.9094  3.4871  1.4817
 5138SOL    HW220545   7.122   9.160   0.807 -0.7552 -1.3507  0.7016
 5139SOL     OW20546   3.124   1.190   1.689  0.1208 -0.5208  0.2091
 5139SOL    HW120547   3.044   1.138   1.690  0.4405 -1.1113 -2.1362
 5139SOL    HW220548   3.190   1.135   1.730 -0.4555 -0.3823  1.3344
 5140SOL     OW20549  11.236   0.767   0.755 -0.5447 -0.7092  0.5045
 5140SOL    HW120550  11.166   0.701   0.754 -0.5626 -0.7063  1.5480
 5140SOL    HW220551  11.193   0.848   0.780 -0.0776 -0.8229  1.7125
 5141SOL     OW20552   1.992  10.639   6.375  0.1749 -0.1651 -0.6036
 5141SOL    HW120553   1.926  10.586   6.330 -0.8470  0.5818  0.0149
 5141SOL    HW220554   2.014  10.588   6.453 -0.5169  0.1422 -0.2121
 5142SOL     OW20555   2.776   7.193   9.513  0.0870  0.2647 -0.0971
 5142SOL    HW120556   2.871   7.202   9.513 -0.0261  1.6381 -0.7307
 5142SOL    HW220557   2.744   7.279   9.486 -1.3173 -0.3858 -0.5628
 5143SOL     OW20558   3.120   1.262   9.888  0.4444  0.0625  0.5527
 5143SOL    HW120559   3.099   1.345   9.845 -1.3440 -1.9781 -2.6801
 5143SOL    HW220560   3.192   1.226   9.837  0.9725 -0.5631  1.7230
 5144SOL     OW20561   7.170   7.907   0.687 -0.4431  0.2379  0.1107
 5144SOL    HW120562   7.162   7.920   0.781 -2.4358  1.1667 -0.1719
 5144SOL    HW220563   7.151   7.814   0.674  1.2119 -0.2149  0.7449
 5145SOL     OW20564   9.490   9.840   7.315  0.4589  0.7844 -0.2191
 5145SOL    HW120565   9.503   9.922   7.364 -1.3217  1.5300 -0.9423
 5145SOL    HW220566   9.399   9.816   7.334  0.5075 -0.2092 -1.2361
 5146SOL     OW20567   3.791   5.355   2.220  0.0470  0.3030  0.4222
 5146SOL    HW120568   3.848   5.281   2.242 -0.9744 -0.8104 -0.6167
 5146SOL    HW220569   3.702   5.322   2.235 -0.4434  1.1486 -0.5832
 5147SOL     OW20570   2.816   3.408   6.602  0.1546  0.4176 -0.0876
 5147SOL    HW120571   2.869   3.484   6.577  0.0269  0.4909 -0.1329
 5147SOL    HW220572   2.743   3.407   6.540  0.0171  0.4082  0.0731
 5148SOL     OW20573  10.140   3.980   7.113  0.1495 -0.5179 -0.1021
 5148SOL    HW120574  10.201   3.977   7.040  0.3587 -1.2156  0.1008
 5148SOL    HW220575  10.113   4.072   7.118  1.3452 -0.1607 -0.0521
 5149SOL     OW20576   0.310  10.553   4.828 -0.3867 -0.1206 -0.2217
 5149SOL    HW120577   0.404  10.562   4.812 -0.3241 -1.2326 -0.5361
 5149SOL    HW220578   0.269  10.603   4.757 -0.0500 -1.5249 -1.4303
 5150SOL     OW20579   8.061   1.272   6.321  0.1877  0.0361  0.0782
 5150SOL    HW120580   8.108   1.232   6.247 -0.8020 -2.7046  0.8932
 5150SOL    HW220581   8.130   1.290   6.385  0.4218 -2.1461  0.4684
 5151SOL     OW20582   4.356   3.338   0.159 -0.0878  0.4945  0.3797
 5151SOL    HW120583   4.263   3.326   0.177 -0.1512  1.3105  0.6240
 5151SOL    HW220584   4.384   3.407   0.219  0.3311  1.2794 -0.6873
 5152SOL     OW20585   1.710  10.992   2.601 -0.1297  0.5457  0.0572
 5152SOL    HW120586   1.728  11.085   2.585  0.7713  0.2769 -0.5433
 5152SOL    HW220587   1.704  10.953   2.514 -0.5323  0.0504  0.3051
 5153SOL     OW20588   6.559   6.553   9.432  0.2594 -0.6212  0.4666
 5153SOL    HW120589   6.471   6.563   9.467  0.7909  0.1528  1.5801
 5153SOL    HW220590   6.615   6.542   9.508  1.1511 -0.9479 -0.2242
 5154SOL     OW20591  10.578   3.354   2.657 -0.0133 -0.1334  0.7046
 5154SOL    HW120592  10.544   3.352   2.747 -0.3494 -1.5920  0.5690
 5154SOL    HW220593  10.521   3.416   2.611  0.6488  1.2010  1.6818
 5155SOL     OW20594   0.897   2.804   5.222  0.0927 -0.6557  0.1322
 5155SOL    HW120595   0.893   2.884   5.276 -0.0763  0.1080 -0.9848
 5155SOL    HW220596   0.828   2.748   5.257 -0.9848  0.4353 -0.2181
 5156SOL     OW20597   1.123   5.367   9.565 -0.8453  0.1311 -0.2006
 5156SOL    HW120598   1.077   5.395   9.485 -2.6373 -1.8165  0.0922
 5156SOL    HW220599   1.135   5.447   9.615  0.9310  1.4950 -2.7346
 5157SOL     OW20600   0.533   4.156   3.257  0.2982 -0.3168  0.1326
 5157SOL    HW120601   0.531   4.225   3.322  0.5511 -0.9808  0.8477
 5157SOL    HW220602   0.615   4.171   3.209 -0.3266  0.7099 -0.6329
 5158SOL     OW20603   3.846   4.628  10.835  0.2186 -0.3249  0.3082
 5158SOL    HW120604   3.863   4.633  10.741  0.5951 -0.7648  0.3507
 5158SOL    HW220605   3.926   4.662  10.876  0.9081 -2.1533  0.5057
 5159SOL     OW20606  10.713   8.975   6.463  0.7689  0.2283  0.8186
 5159SOL    HW120607  10.658   8.897   6.469 -0.7183  1.2377  0.5156
 5159SOL    HW220608  10.700   9.006   6.373  1.1697  0.9703  1.0145
 5160SOL     OW20609   8.603   7.551   6.603 -0.5992 -0.2799  0.0806
 5160SOL    HW120610   8.566   7.494   6.671  0.0096  0.5896  1.1726
 5160SOL    HW220611   8.553   7.633   6.611 -1.3414 -0.5851 -1.3470
 5161SOL     OW20612   3.228  10.697  11.229 -0.5675 -0.1660  0.0875
 5161SOL    HW120613   3.158  10.760  11.248  0.8666  1.6460 -0.4562
 5161SOL    HW220614   3.303  10.730  11.279  0.2996 -1.2372 -0.4997
 5162SOL     OW20615  11.164   9.025   7.474  0.0628 -0.2349  0.2970
 5162SOL    HW120616  11.083   9.071   7.498  0.8860  1.8157 -0.6986
 5162SOL    HW220617  11.187   9.061   7.389  2.4375 -0.2229  0.9207
 5163SOL     OW20618   4.810   8.876  10.551  0.0412  0.1221 -0.0872
 5163SOL    HW120619   4.857   8.796  10.572  2.4945  0.8772 -2.5176
 5163SOL    HW220620   4.719   8.848  10.536  0.6357 -2.0020  0.2175
 5164SOL     OW20621   7.065   6.617  11.073  0.0202 -0.1765  0.4396
 5164SOL    HW120622   7.093   6.655  11.156  0.6424  0.5034 -0.0747
 5164SOL    HW220623   6.974   6.591  11.088  1.1481 -3.2891  2.4667
 5165SOL     OW20624  11.235   3.057   5.413 -0.1529  0.1748  0.0017
 5165SOL    HW120625  11.261   3.116   5.483  0.0999  1.0067 -0.7788
 5165SOL    HW220626  11.142   3.075   5.399  0.2837  1.5157 -1.2877
 5166SOL     OW20627   6.699   4.284  10.720  0.1427 -0.3122 -0.3776
 5166SOL    HW120628   6.750   4.204  10.732  0.3381 -0.2676 -0.8994
 5166SOL    HW220629   6.628   4.258  10.662  0.7381  0.1153 -1.3076
 5167SOL     OW20630   2.617  10.243  11.066 -0.1094  0.0661 -0.0664
 5167SOL    HW120631   2.567  10.324  11.080  1.0181  0.7631  0.0065
 5167SOL    HW220632   2.577  10.203  10.989 -0.6986  0.6724 -0.0823
 5168SOL     OW20633   3.039   3.413  10.376 -0.5155 -0.1941 -0.1556
 5168SOL    HW120634   2.983   3.482  10.413 -2.1817 -0.8611 -1.3545
 5168SOL    HW220635   3.064   3.360  10.452 -0.8851  0.5683  0.5087
 5169SOL     OW20636   4.836   5.329   2.273  0.2677 -0.1786  0.1097
 5169SOL    HW120637   4.799   5.304   2.188 -0.2414 -0.1227  0.3171
 5169SOL    HW220638   4.760   5.340   2.331  0.4428  2.3304 -0.0911
 5170SOL     OW20639   6.042  10.682   8.823 -0.6060 -0.3478 -0.5949
 5170SOL    HW120640   6.119  10.735   8.841  0.1239 -1.9106  0.9525
 5170SOL    HW220641   6.067  10.628   8.748 -0.4422 -0.3563 -0.5325
 5171SOL     OW20642   8.291   0.938   1.049 -0.7558  0.1976 -0.0009
 5171SOL    HW120643   8.379   0.972   1.065 -0.8859  0.2501  0.6366
 5171SOL    HW220644   8.254   0.997   0.984 -0.0851 -0.2134 -0.7534
 5172SOL     OW20645   1.511   3.105   0.826 -0.1484  0.2839 -0.4633
 5172SOL    HW120646   1.551   3.032   0.778 -0.0172 -0.2612  0.4783
 5172SOL    HW220647   1.442   3.135   0.768 -0.5702 -0.9514 -0.6224
 5173SOL     OW20648   3.934   1.692   5.997 -0.0281  0.3175  0.0525
 5173SOL    HW120649   3.956   1.763   6.058 -0.7804  0.4485  0.1697
 5173SOL    HW220650   3.957   1.612   6.044  0.8827  0.4825 -0.1042
 5174SOL     OW20651  10.610   9.206   0.073 -0.0453  0.4738 -0.4173
 5174SOL    HW120652  10.632   9.268   0.143  1.2453  0.0609 -0.4591
 5174SOL    HW220653  10.682   9.213   0.011 -0.8314  0.2992 -1.3656
 5175SOL     OW20654   7.463   2.003   5.226  0.2885  0.3091 -0.3703
 5175SOL    HW120655   7.460   1.910   5.251 -0.8964  0.1782 -0.9483
 5175SOL    HW220656   7.371   2.030   5.227  0.7291  1.8642  1.2096
 5176SOL     OW20657   9.498   9.115  10.811  0.3596  0.4873 -0.0953
 5176SOL    HW120658   9.433   9.047  10.831  1.9389 -0.8841  0.5181
 5176SOL    HW220659   9.553   9.076  10.744 -0.2861  2.1858 -1.6349
 5177SOL     OW20660   8.362   8.820  11.034  0.5706  0.9461 -0.3788
 5177SOL    HW120661   8.289   8.795  11.090  0.5624 -1.0440 -1.2455
 5177SOL    HW220662   8.440   8.790  11.081  0.5520 -0.9396 -1.5114
 5178SOL     OW20663   1.344   6.021   8.775  0.4971  0.5326  0.1608
 5178SOL    HW120664   1.327   6.098   8.828  0.7182 -0.1390  1.2247
 5178SOL    HW220665   1.437   6.025   8.755  0.6358  0.2074  0.7468
 5179SOL     OW20666  10.285   9.109   7.550 -0.0125  0.5796  0.0826
 5179SOL    HW120667  10.368   9.065   7.530 -0.1323 -0.5461  2.0196
 5179SOL    HW220668  10.305   9.165   7.625 -1.4345 -1.1106  1.7660
 5180SOL     OW20669   9.616   1.378   3.306 -0.2155  0.3441  0.2126
 5180SOL    HW120670   9.539   1.335   3.269 -0.0646  0.7138 -0.5470
 5180SOL    HW220671   9.593   1.471   3.306  0.1596  0.4374  0.1515
 5181SOL     OW20672   5.710   7.053   1.093 -0.7599 -0.1799 -0.0522
 5181SOL    HW120673   5.718   7.010   1.178 -3.3992  2.8234  1.8237
 5181SOL    HW220674   5.777   7.121   1.094 -0.7130 -0.2183 -0.4332
 5182SOL     OW20675   9.125   4.588   2.864 -0.5411 -0.1570  0.4363
 5182SOL    HW120676   9.061   4.610   2.931 -0.3784 -0.6427  0.7549
 5182SOL    HW220677   9.207   4.628   2.895 -0.6816  0.4539  0.0355
 5183SOL     OW20678  10.298   3.599   5.648 -0.0064 -0.3207  0.2461
 5183SOL    HW120679  10.229   3.657   5.616 -0.8055 -0.6560  1.3618
 5183SOL    HW220680  10.257   3.513   5.655  0.8430 -0.7728 -0.2068
 5184SOL     OW20681   7.435   8.135   7.709 -0.1097 -0.4959 -0.3962
 5184SOL    HW120682   7.465   8.113   7.620 -1.1051 -2.0849 -0.3537
 5184SOL    HW220683   7.497   8.090   7.767  0.1154 -0.0427 -0.2805
 5185SOL     OW20684   2.215  10.383   3.202  0.0150 -0.0702 -0.2849
 5185SOL    HW120685   2.250  10.414   3.286 -1.2409 -0.4744  0.4142
 5185SOL    HW220686   2.127  10.421   3.198 -0.9034 -2.0988 -0.2188
 5186SOL     OW20687   4.984   8.894   0.567  0.0833  0.2143 -0.9225
 5186SOL    HW120688   5.062   8.944   0.542 -1.0469  2.3278 -0.3670
 5186SOL    HW220689   5.014   8.837   0.638  0.7987  2.2051  0.4392
 5187SOL     OW20690   9.571   8.995   7.276 -0.3105 -0.4187 -0.0228
 5187SOL    HW120691   9.536   9.084   7.266 -0.0108 -0.1923  0.8842
 5187SOL    HW220692   9.559   8.975   7.369 -0.2496 -1.2735 -0.2020
 5188SOL     OW20693   9.463   2.812   1.914 -0.2777 -0.3617 -0.3462
 5188SOL    HW120694   9.385   2.792   1.863  0.1494 -0.5007 -0.9469
 5188SOL    HW220695   9.535   2.773   1.865 -0.0827 -2.3782  1.4774
 5189SOL     OW20696   8.114   6.410   4.180  0.2703 -0.4140 -0.2617
 5189SOL    HW120697   8.193   6.396   4.233 -0.2858 -1.2882  0.3420
 5189SOL    HW220698   8.051   6.346   4.213 -0.2685 -0.5937 -1.6095
 5190SOL     OW20699   7.554   0.313   2.134  0.4242  0.2833  0.1095
 5190SOL    HW120700   7.545   0.367   2.056 -1.6349  0.3436  0.3740
 5190SOL    HW220701   7.520   0.227   2.107 -1.2462  0.5777  1.2087
 5191SOL     OW20702   9.657   2.221   9.268 -0.0189  0.2264 -0.2362
 5191SOL    HW120703   9.595   2.159   9.308  0.2083  0.6145  0.7405
 5191SOL    HW220704   9.605   2.268   9.203 -0.1149 -1.2209 -1.2435
 5192SOL     OW20705   8.186   0.173   8.898 -0.7284  0.3149  0.4737
 5192SOL    HW120706   8.261   0.114   8.891  0.0443  1.3548 -0.1657
 5192SOL    HW220707   8.145   0.149   8.981 -2.0637 -3.0016 -1.0551
 5193SOL     OW20708  10.650   0.882   2.559 -0.3785  0.1050  0.0089
 5193SOL    HW120709  10.559   0.894   2.533 -0.7105 -0.1039  1.0474
 5193SOL    HW220710  10.700   0.933   2.495 -1.1953 -0.0245 -0.7508
 5194SOL     OW20711   9.142   5.043   5.288 -0.0274 -0.3328 -0.1612
 5194SOL    HW120712   9.054   5.010   5.308  0.1493 -1.1545 -0.6887
 5194SOL    HW220713   9.132   5.138   5.284 -0.3777 -0.2206  2.2994
 5195SOL     OW20714   5.223   0.086   0.994  0.4398  0.3902  0.1778
 5195SOL    HW120715   5.262   0.049   1.074  1.6135  0.2975 -0.4320
 5195SOL    HW220716   5.163   0.018   0.964 -1.1294  1.0267  1.7902
 5196SOL     OW20717   5.652   7.021  10.451 -0.2813 -0.2192 -0.3359
 5196SOL    HW120718   5.581   7.078  10.481 -0.3481 -0.3283 -0.2814
 5196SOL    HW220719   5.617   6.978  10.373 -0.7179 -1.1635  0.3729
 5197SOL     OW20720  10.332   7.268   4.251 -0.0346  0.5831  0.3663
 5197SOL    HW120721  10.427   7.281   4.249  0.2438 -1.3951 -0.0345
 5197SOL    HW220722  10.318   7.200   4.316 -0.9926 -0.5750 -1.0132
 5198SOL     OW20723  10.688   3.712   6.485 -0.8227 -0.1279 -1.1041
 5198SOL    HW120724  10.773   3.755   6.497 -0.6663 -0.6168 -0.4046
 5198SOL    HW220725  10.688   3.685   6.393  0.8460 -2.3187 -0.5265
 5199SOL     OW20726   0.163   7.842   8.962 -0.4482 -0.5548 -0.4701
 5199SOL    HW120727   0.092   7.887   9.007 -0.5580 -0.3056 -0.8935
 5199SOL    HW220728   0.165   7.881   8.874  0.8497  0.1518 -0.1523
 5200SOL     OW20729   5.583   6.889   8.745  0.2756 -0.2132 -0.3320
 5200SOL    HW120730   5.489   6.879   8.760  0.3198  0.4492  0.3965
 5200SOL    HW220731   5.624   6.826   8.804  0.2586 -1.3215 -1.4730
 5201SOL     OW20732   0.582  10.556   3.902  0.8408  0.3708  0.6813
 5201SOL    HW120733   0.611  10.628   3.848  1.8012 -0.8641 -0.4796
 5201SOL    HW220734   0.498  10.529   3.864  1.5103 -0.4896 -0.1881
 5202SOL     OW20735   6.010   3.885   1.316  0.2736  0.2559 -0.2623
 5202SOL    HW120736   6.044   3.832   1.244 -0.7465 -0.8547  0.0569
 5202SOL    HW220737   5.937   3.935   1.277  1.4666  1.7485 -0.6561
 5203SOL     OW20738   0.749   1.120   6.559 -0.5469 -0.2149 -0.0015
 5203SOL    HW120739   0.832   1.157   6.591 -0.3729 -1.7445  1.4189
 5203SOL    HW220740   0.749   1.138   6.465  2.5982 -2.3775 -0.4823
 5204SOL     OW20741   1.076   1.515   7.041  0.2955  0.1085  0.5551
 5204SOL    HW120742   0.995   1.464   7.036 -0.6098  1.4835  0.7115
 5204SOL    HW220743   1.126   1.474   7.111  0.3067 -1.5354 -0.3864
 5205SOL     OW20744   7.785   1.930   8.528  0.8404  0.3186  0.1483
 5205SOL    HW120745   7.803   1.981   8.449  0.4886  1.9221  1.0886
 5205SOL    HW220746   7.699   1.959   8.557 -0.1845 -2.1305 -0.2893
 5206SOL     OW20747   1.277   5.765  10.652  0.2300  0.5481  0.1526
 5206SOL    HW120748   1.219   5.691  10.664  0.1774  0.7650  1.2281
 5206SOL    HW220749   1.351   5.730  10.601  0.0583 -0.1592  0.3899
 5207SOL     OW20750  10.279   4.134   1.371  0.3275 -0.1924  0.3074
 5207SOL    HW120751  10.270   4.177   1.285  1.5510  0.7853  0.6529
 5207SOL    HW220752  10.270   4.040   1.352  0.4630  0.0265 -0.8711
 5208SOL     OW20753   3.638  10.275   9.807 -0.3128  0.1812 -0.1923
 5208SOL    HW120754   3.579  10.199   9.808  0.0037 -0.1307 -2.6109
 5208SOL    HW220755   3.719  10.242   9.767  0.0815  1.6188 -0.5897
 5209SOL     OW20756   5.196   3.493   5.107 -0.4001  0.2234  0.7941
 5209SOL    HW120757   5.219   3.413   5.060  0.7434  0.8866  0.1975
 5209SOL    HW220758   5.227   3.479   5.196 -0.2011  0.0073  0.6909
 5210SOL     OW20759   6.412   2.332   4.947 -0.5932  0.2830  0.6698
 5210SOL    HW120760   6.328   2.333   4.901 -0.5100 -0.0521  0.5075
 5210SOL    HW220761   6.472   2.289   4.886 -0.0234  1.5797  0.2943
 5211SOL     OW20762   2.643   6.604  10.183 -0.6021  0.1118 -0.2270
 5211SOL    HW120763   2.738   6.607  10.186 -0.6022 -0.7427  0.4174
 5211SOL    HW220764   2.616   6.572  10.269 -1.4697  0.3094 -0.4166
 5212SOL     OW20765   4.073   8.187   3.922  0.4036  0.1371 -0.0429
 5212SOL    HW120766   4.135   8.203   3.850  0.1561  1.8095  0.0964
 5212SOL    HW220767   3.987   8.190   3.881  0.3009  0.2369  0.1773
 5213SOL     OW20768   0.036   4.873   9.022  0.5663  0.6502  0.4793
 5213SOL    HW120769  -0.035   4.832   9.071 -0.2446  1.2537 -0.1829
 5213SOL    HW220770   0.068   4.943   9.080  1.2033 -0.1684  1.1348
 5214SOL     OW20771   2.514   8.413   5.308 -0.4421 -0.0391  0.2658
 5214SOL    HW120772   2.554   8.452   5.230 -0.9520 -0.4096 -0.1813
 5214SOL    HW220773   2.446   8.476   5.334 -2.1378 -1.2273 -1.2110
 5215SOL     OW20774   0.754   8.960   3.024 -0.3195  0.5697  0.2804
 5215SOL    HW120775   0.820   8.926   2.963 -0.6489  0.7351 -0.1681
 5215SOL    HW220776   0.730   9.045   2.988  0.2444  1.1321  1.2112
 5216SOL     OW20777   2.367   1.446  10.033 -0.1705  0.5248  0.4244
 5216SOL    HW120778   2.359   1.540  10.020  1.7321  0.5617 -0.6001
 5216SOL    HW220779   2.288   1.422  10.081 -0.7997  2.5930  0.4714
 5217SOL     OW20780  10.352   3.757   9.802  0.5669  0.1965 -0.1097
 5217SOL    HW120781  10.307   3.789   9.724  0.2055 -0.3986 -0.1482
 5217SOL    HW220782  10.392   3.835   9.840 -2.3694  1.1577  1.1501
 5218SOL     OW20783   9.927   6.966  10.472 -0.3133 -0.1974 -0.6162
 5218SOL    HW120784   9.857   6.972  10.537 -0.0750  1.1885 -0.4668
 5218SOL    HW220785   9.895   7.017  10.397  0.0286 -0.5598 -1.0128
 5219SOL     OW20786   8.332   6.227   9.163  0.3890  0.1252  0.6500
 5219SOL    HW120787   8.361   6.255   9.076 -0.5602 -1.0466 -0.0492
 5219SOL    HW220788   8.325   6.309   9.213 -1.3937  1.0731 -1.0886
 5220SOL     OW20789   1.124   8.327   1.061 -0.0798  0.1252  0.0492
 5220SOL    HW120790   1.108   8.418   1.036  2.1332  0.8710  1.2076
 5220SOL    HW220791   1.193   8.297   1.001 -0.1075 -0.4880  0.3179
 5221SOL     OW20792   3.857   1.578   0.079 -0.1361  0.6875  0.2464
 5221SOL    HW120793   3.877   1.512   0.145 -0.5216 -1.0670 -1.3853
 5221SOL    HW220794   3.822   1.652   0.130 -1.9187 -1.2263  1.8999
 5222SOL     OW20795   8.015   6.820   3.363 -0.7065  0.1311 -0.3949
 5222SOL    HW120796   8.024   6.812   3.268 -0.4768 -0.6284 -0.3179
 5222SOL    HW220797   7.935   6.771   3.383  0.3162 -1.3925  0.0205
 5223SOL     OW20798   0.539   2.611   0.436  0.2490  0.3051 -0.2527
 5223SOL    HW120799   0.524   2.593   0.343 -0.0999 -2.0640  0.2114
 5223SOL    HW220800   0.476   2.679   0.458 -0.9637 -0.4340 -1.3430
 5224SOL     OW20801   0.507  10.386   6.873 -0.5473 -0.2499  0.6906
 5224SOL    HW120802   0.594  10.425   6.883 -1.2580  1.5046  0.2474
 5224SOL    HW220803   0.523  10.302   6.831  0.8341  0.6639 -0.6620
 5225SOL     OW20804   9.390  10.497   6.097  0.1371  0.6413 -0.7279
 5225SOL    HW120805   9.328  10.526   6.030 -0.9858  1.1349  0.4976
 5225SOL    HW220806   9.421  10.412   6.066  0.5918  1.4374 -2.4903
 5226SOL     OW20807   7.838   8.060   9.225 -0.0247  0.5614 -0.0955
 5226SOL    HW120808   7.905   8.004   9.187  0.3129  0.6163  0.4084
 5226SOL    HW220809   7.764   8.002   9.242  0.9309 -0.0860  1.9855
 5227SOL     OW20810   6.694   1.900   1.954 -0.3745 -0.0655  0.1589
 5227SOL    HW120811   6.699   1.982   1.904  1.2208 -0.6836 -0.7069
 5227SOL    HW220812   6.636   1.844   1.903  1.0183 -0.5888 -0.8798
 5228SOL     OW20813   0.240   3.807   5.361 -0.3249 -0.7824  0.5966
 5228SOL    HW120814   0.220   3.806   5.268  0.1700 -0.5310  0.4861
 5228SOL    HW220815   0.324   3.764   5.368 -0.6309 -1.3197  0.9961
 5229SOL     OW20816   8.971  10.744   6.434 -0.1843  0.0859 -0.2024
 5229SOL    HW120817   9.021  10.709   6.360 -0.5419 -1.9126  0.4715
 5229SOL    HW220818   8.956  10.836   6.411  2.9318  0.4916 -0.8836
 5230SOL     OW20819   2.218   0.884   9.673 -0.4292  0.2148 -0.0116
 5230SOL    HW120820   2.205   0.979   9.673  2.2716  0.6293  1.6271
 5230SOL    HW220821   2.309   0.872   9.647 -1.1245 -2.0439 -1.5705
 5231SOL     OW20822   1.600   4.290   3.899 -0.1106 -0.1854  0.2157
 5231SOL    HW120823   1.616   4.320   3.988  0.5708 -2.5963  0.9202
 5231SOL    HW220824   1.597   4.195   3.905  0.7235 -0.4232 -2.4732
 5232SOL     OW20825   2.773   3.213   9.140 -0.0758  0.2549 -0.0960
 5232SOL    HW120826   2.786   3.187   9.231 -1.2743 -1.6959 -0.4447
 5232SOL    HW220827   2.829   3.154   9.090  1.3361  1.9667 -0.5934
 5233SOL     OW20828   4.463   7.476  11.026  0.1524 -0.2387  0.0258
 5233SOL    HW120829   4.541   7.526  11.002  0.1386 -0.6266 -0.8537
 5233SOL    HW220830   4.475   7.455  11.119  0.9185  0.0169 -0.0125
 5234SOL     OW20831   3.032   8.307   7.869 -0.0002 -0.3359  0.5106
 5234SOL    HW120832   2.938   8.291   7.868  0.1428 -1.2384 -1.0257
 5234SOL    HW220833   3.042   8.389   7.918 -1.9630  1.8549 -2.5460
 5235SOL     OW20834   7.825   4.169   2.662 -0.0884  0.0601  0.4138
 5235SOL    HW120835   7.857   4.218   2.738  1.2257  0.5246 -0.4173
 5235SOL    HW220836   7.836   4.077   2.686  0.2013  0.2004  0.8378
 5236SOL     OW20837   0.450   2.741   6.517 -0.3483  0.2200  0.1882
 5236SOL    HW120838   0.509   2.815   6.502  0.3914 -0.4167 -0.1059
 5236SOL    HW220839   0.363   2.780   6.519 -0.0732  0.9622 -1.1400
 5237SOL     OW20840  10.336   9.210   6.243 -0.5844  0.0917 -0.0978
 5237SOL    HW120841  10.420   9.232   6.203 -1.0462  1.9181 -0.1061
 5237SOL    HW220842  10.286   9.169   6.173 -1.0033  2.3218 -1.1506
 5238SOL     OW20843   8.089   7.138  10.286 -0.2374  0.3957  0.1538
 5238SOL    HW120844   8.043   7.122  10.203  1.3322 -1.8471 -0.3159
 5238SOL    HW220845   8.055   7.071  10.345 -0.4584  1.2301  0.9832
 5239SOL     OW20846   7.943   6.489   7.248 -0.0558 -0.7682  0.2552
 5239SOL    HW120847   7.965   6.398   7.265 -0.2715 -0.6246  1.3571
 5239SOL    HW220848   7.935   6.529   7.335 -0.3788  0.1963 -0.2020
 5240SOL     OW20849  10.654   2.955  10.913  0.7778 -0.1653  0.3320
 5240SOL    HW120850  10.672   2.904  10.991 -2.3768 -1.5294  0.2531
 5240SOL    HW220851  10.741   2.974  10.876  2.2110 -1.3470  2.9522
 5241SOL     OW20852   5.557   5.897   1.474 -0.0532  0.1964  0.0601
 5241SOL    HW120853   5.517   5.908   1.561  0.3985 -2.3109  0.6232
 5241SOL    HW220854   5.499   5.835   1.429  0.9219 -0.1975 -0.6576
 5242SOL     OW20855  10.007   7.078   6.785  0.3232 -0.0446 -0.2984
 5242SOL    HW120856  10.027   7.168   6.809 -0.0367  0.2613 -1.1101
 5242SOL    HW220857  10.085   7.047   6.740  0.2169  0.0632 -0.5564
 5243SOL     OW20858   8.942   1.050   8.828 -0.3258  0.2007 -0.3274
 5243SOL    HW120859   8.951   0.985   8.897 -1.2771  0.7398  0.3130
 5243SOL    HW220860   8.848   1.052   8.809 -0.1070  0.2680 -1.4260
 5244SOL     OW20861   8.786   1.974   9.977 -0.5057  0.3036  0.2975
 5244SOL    HW120862   8.692   1.981   9.960 -0.4260 -0.0829 -0.3338
 5244SOL    HW220863   8.827   1.983   9.891 -0.2118 -4.0339 -0.1590
 5245SOL     OW20864   4.326   4.122   1.142 -0.0941 -0.5267 -0.3329
 5245SOL    HW120865   4.397   4.180   1.168  0.2285 -0.8306 -0.5321
 5245SOL    HW220866   4.250   4.179   1.134  0.1932 -0.1530 -0.4031
 5246SOL     OW20867   4.730   5.469   8.481 -0.1105  0.4387  0.1751
 5246SOL    HW120868   4.813   5.515   8.473 -0.6895  1.5371  0.3655
 5246SOL    HW220869   4.750   5.392   8.534  0.9368  0.2815 -0.4307
 5247SOL     OW20870   1.979   4.393   6.914  0.4707 -0.3369 -0.0915
 5247SOL    HW120871   1.905   4.351   6.868  0.5076 -2.6606  1.8617
 5247SOL    HW220872   1.937   4.456   6.973  0.1654 -0.2472 -0.4018
 5248SOL     OW20873   6.693   0.924   8.957 -0.0405 -0.4817  0.5085
 5248SOL    HW120874   6.638   0.985   8.908 -0.2349 -1.4092 -0.4658
 5248SOL    HW220875   6.754   0.979   9.005 -1.2567  0.5277  0.9040
 5249SOL     OW20876  10.347   7.146   7.406 -0.4036 -0.2939  0.6153
 5249SOL    HW120877  10.356   7.123   7.313  0.9439  1.2899  0.3269
 5249SOL    HW220878  10.315   7.236   7.405 -1.0463 -0.5054  1.7054
 5250SOL     OW20879   6.234   1.899   5.404 -0.3390  0.6284 -0.4989
 5250SOL    HW120880   6.146   1.905   5.367  0.0904  0.3197 -1.5670
 5250SOL    HW220881   6.222   1.850   5.486 -1.2347  1.0374 -0.3806
 5251SOL     OW20882  11.084   5.208   6.594  0.6418 -0.1204 -0.4338
 5251SOL    HW120883  11.107   5.252   6.512  1.5854  0.1911 -0.0214
 5251SOL    HW220884  11.168   5.176   6.628 -0.0566 -2.4178 -0.8154
 5252SOL     OW20885   6.160   4.596   6.311 -0.6219 -0.3523  0.0165
 5252SOL    HW120886   6.161   4.665   6.245  0.8217  0.9482  1.3481
 5252SOL    HW220887   6.072   4.560   6.307 -1.3830  1.5283 -0.7761
 5253SOL     OW20888   4.405  10.338  10.354  0.7534 -0.6805  0.1745
 5253SOL    HW120889   4.438  10.292  10.432  2.6096  0.2366 -0.0314
 5253SOL    HW220890   4.328  10.386  10.386  1.0051 -0.9680  1.2519
 5254SOL     OW20891   5.990   1.986   5.648  0.7670  0.1503 -0.2430
 5254SOL    HW120892   5.985   2.023   5.736 -1.0186  0.5133 -0.4764
 5254SOL    HW220893   5.955   2.054   5.591 -2.2024 -1.6562 -0.7236
 5255SOL     OW20894   1.645   9.123  11.153 -0.0603  0.7780  0.8540
 5255SOL    HW120895   1.686   9.193  11.103  0.8971 -1.8232 -2.1443
 5255SOL    HW220896   1.711   9.098  11.217  0.9833  0.2110 -0.4300
 5256SOL     OW20897   1.933   5.640   5.884 -0.0828  0.7053 -0.6671
 5256SOL    HW120898   1.984   5.721   5.873  0.8967 -0.0016 -1.4548
 5256SOL    HW220899   1.982   5.590   5.949 -1.7303  1.5577  1.2794
 5257SOL     OW20900   9.128   9.455   0.667  0.8070  0.2390 -0.8262
 5257SOL    HW120901   9.074   9.533   0.679  0.4911 -0.2060  0.7891
 5257SOL    HW220902   9.218   9.487   0.668  0.7298  0.4880  0.9367
 5258SOL     OW20903   3.856   7.166   3.508  0.3114 -0.1497 -0.6053
 5258SOL    HW120904   3.823   7.139   3.594  0.8104 -0.0802 -0.3908
 5258SOL    HW220905   3.778   7.170   3.453 -0.1239  0.5316  0.0378
 5259SOL     OW20906   6.082   6.126   7.020 -0.3394 -0.6702 -0.0770
 5259SOL    HW120907   6.117   6.037   7.027 -1.5025 -1.1984 -0.7885
 5259SOL    HW220908   6.088   6.147   6.927 -1.1994 -0.4722 -0.0867
 5260SOL     OW20909   7.766   2.802  11.034 -0.3443  0.1749  0.1982
 5260SOL    HW120910   7.756   2.894  11.011  0.3989  0.3012  0.3888
 5260SOL    HW220911   7.801   2.761  10.955  1.4751  0.4688  0.8410
 5261SOL     OW20912   0.770   0.344   5.027  0.0151 -0.1766  0.1224
 5261SOL    HW120913   0.755   0.302   5.112  0.7567 -1.3318 -0.3135
 5261SOL    HW220914   0.696   0.315   4.973 -0.9427  1.2772  0.6285
 5262SOL     OW20915   4.646   6.203   9.806 -0.4287 -0.6466  0.4766
 5262SOL    HW120916   4.620   6.210   9.898 -1.3516  0.0980  0.1661
 5262SOL    HW220917   4.701   6.280   9.791 -2.6826  0.8351 -0.3671
 5263SOL     OW20918   9.571   3.450   3.985 -0.4410  0.4385  0.3974
 5263SOL    HW120919   9.554   3.498   3.904 -0.1882 -1.0346 -0.5436
 5263SOL    HW220920   9.664   3.426   3.980 -0.6860 -0.5717  0.6240
 5264SOL     OW20921   6.812  10.975   9.805 -0.3681 -0.3492  0.1645
 5264SOL    HW120922   6.820  11.058   9.851  0.7171  0.2411 -1.0555
 5264SOL    HW220923   6.739  10.989   9.745 -1.0647 -0.7440  0.9124
 5265SOL     OW20924   1.328   1.350   2.490  0.1335  0.2135  0.0879
 5265SOL    HW120925   1.360   1.317   2.574  0.2732  0.3040  0.0710
 5265SOL    HW220926   1.388   1.313   2.425 -1.1518 -1.4830 -0.1690
 5266SOL     OW20927   8.712   3.841   6.492  0.0248 -0.1608 -0.7406
 5266SOL    HW120928   8.722   3.846   6.397  1.0707 -0.3759 -0.6483
 5266SOL    HW220929   8.701   3.748   6.510 -0.2447 -0.1129 -0.6624
 5267SOL     OW20930   6.192   8.957   5.170  0.3476 -0.1015  0.1879
 5267SOL    HW120931   6.276   8.998   5.191  0.0150  1.3543 -1.1850
 5267SOL    HW220932   6.211   8.900   5.095 -0.1096  1.1567 -0.9026
 5268SOL     OW20933   8.642   8.851   5.135 -0.5558 -0.0637  0.6129
 5268SOL    HW120934   8.550   8.842   5.111 -0.4916  1.3482 -0.2364
 5268SOL    HW220935   8.684   8.772   5.100 -1.1047  0.2207 -0.7430
 5269SOL     OW20936   1.745  10.742   2.743  0.0509  0.2031 -0.1253
 5269SOL    HW120937   1.672  10.697   2.701 -0.6726  0.2450  1.0677
 5269SOL    HW220938   1.758  10.821   2.692  1.3903 -1.3535 -2.3072
 5270SOL     OW20939   3.801   6.789   5.520 -0.1973  0.2294 -0.2998
 5270SOL    HW120940   3.745   6.776   5.596 -1.6673 -0.7566 -1.5096
 5270SOL    HW220941   3.829   6.701   5.495  0.5035  0.5676 -0.7141
 5271SOL     OW20942   4.144   9.608   5.743  0.4596 -0.2145  0.1930
 5271SOL    HW120943   4.114   9.555   5.816  1.3637 -0.2017  0.5870
 5271SOL    HW220944   4.216   9.660   5.779  0.3392  0.4402 -0.4781
 5272SOL     OW20945   3.005   3.551   3.293  1.4491  0.0920 -0.2020
 5272SOL    HW120946   3.067   3.583   3.227  1.9551 -0.0150  0.2193
 5272SOL    HW220947   3.027   3.458   3.303  1.2518  0.0667 -0.0169
 5273SOL     OW20948   0.398   3.789  10.323 -0.6241  0.3549 -0.3511
 5273SOL    HW120949   0.475   3.802  10.267 -1.0004  1.3281 -0.6511
 5273SOL    HW220950   0.387   3.694  10.326  0.6251  0.2059 -0.2626
 5274SOL     OW20951   8.391   4.466   6.832  0.2288 -0.7515 -0.7822
 5274SOL    HW120952   8.330   4.480   6.759 -2.0150 -1.0293  1.0049
 5274SOL    HW220953   8.425   4.377   6.818  0.2169 -0.6138 -1.7499
 5275SOL     OW20954   4.178   7.312   2.436 -0.1457  0.2221 -0.0607
 5275SOL    HW120955   4.194   7.221   2.459  0.3748  0.7866  1.9104
 5275SOL    HW220956   4.086   7.327   2.458 -0.3749  0.0504 -0.8683
 5276SOL     OW20957   3.026  11.005   2.930 -0.1260 -0.1410  0.3464
 5276SOL    HW120958   3.067  11.091   2.924 -0.7907  0.1845  0.4767
 5276SOL    HW220959   3.078  10.958   2.995  1.4353 -0.5094 -1.1257
 5277SOL     OW20960   2.272   3.638   9.112 -0.5254 -0.6471 -0.3128
 5277SOL    HW120961   2.186   3.599   9.094  0.8882 -2.5711 -3.1727
 5277SOL    HW220962   2.323   3.566   9.150  1.0321 -0.6198 -2.3356
 5278SOL     OW20963   5.607   7.726   4.211 -0.2753 -0.3265 -0.1550
 5278SOL    HW120964   5.587   7.664   4.141 -0.2412  1.6965 -2.0316
 5278SOL    HW220965   5.689   7.769   4.182  0.2232 -0.0911  1.5626
 5279SOL     OW20966   6.267   1.802   1.858 -0.1115  0.3840 -0.0789
 5279SOL    HW120967   6.204   1.781   1.789  1.3058 -1.1969 -0.9510
 5279SOL    HW220968   6.232   1.759   1.936 -1.2531  1.4037 -0.0203
 5280SOL     OW20969   3.500   9.869   9.074  0.1437  0.1381 -0.5999
 5280SOL    HW120970   3.579   9.818   9.097  0.2099  0.1179 -0.8728
 5280SOL    HW220971   3.533   9.939   9.018  0.1552  0.9044  0.3526
 5281SOL     OW20972   2.980   5.367   6.883  0.4791 -0.6446  0.5571
 5281SOL    HW120973   2.969   5.336   6.793  0.6065 -2.4001  1.1322
 5281SOL    HW220974   3.066   5.409   6.884  0.8825 -1.4539  0.0883
 5282SOL     OW20975   7.285   1.998   2.037  0.1004 -0.4180 -0.5405
 5282SOL    HW120976   7.328   1.974   2.120 -0.9627  1.1892  0.5115
 5282SOL    HW220977   7.322   2.083   2.015  0.7146 -1.0483 -1.9821
 5283SOL     OW20978   4.026  10.759   8.235 -0.0821 -0.4772 -0.1759
 5283SOL    HW120979   4.048  10.814   8.311 -0.4144 -0.8270  0.1751
 5283SOL    HW220980   4.033  10.818   8.160  1.4558 -0.4447 -0.0060
 5284SOL     OW20981   7.998   8.447   1.927  0.1106  0.3501  0.2168
 5284SOL    HW120982   8.042   8.405   1.853 -0.7605 -1.8167  0.9112
 5284SOL    HW220983   8.027   8.539   1.922  0.9382  0.0045 -2.1315
 5285SOL     OW20984   4.287   9.306   5.226  0.5683  0.0474  0.6511
 5285SOL    HW120985   4.318   9.226   5.184  0.0007 -1.1027  2.3709
 5285SOL    HW220986   4.211   9.332   5.173  1.3462  0.0085 -0.4990
 5286SOL     OW20987   4.219   7.732   1.667  0.3806 -0.0282  0.1084
 5286SOL    HW120988   4.225   7.769   1.579 -1.0905  0.9279  0.3889
 5286SOL    HW220989   4.255   7.799   1.725 -0.0712 -0.0189  0.3840
 5287SOL     OW20990   1.511   3.119   9.339  0.3258 -0.2298  0.1646
 5287SOL    HW120991   1.472   3.033   9.352  1.1056 -0.5523  0.4088
 5287SOL    HW220992   1.483   3.145   9.252  2.3400 -1.9456 -1.0406
 5288SOL     OW20993   2.176   1.314  10.467 -0.3547 -0.3781  0.0326
 5288SOL    HW120994   2.221   1.374  10.526 -0.0158  0.3894 -0.9710
 5288SOL    HW220995   2.219   1.230  10.480  1.1856  0.2761 -0.6933
 5289SOL     OW20996   8.615   7.679   7.858  1.2626 -0.5599 -0.4871
 5289SOL    HW120997   8.611   7.764   7.815 -1.2399 -1.2957 -1.7581
 5289SOL    HW220998   8.631   7.700   7.950 -3.4255  1.5634  0.0034
 5290SOL     OW20999   8.800   6.293   7.647 -0.4603  0.0874  0.5681
 5290SOL    HW121000   8.735   6.325   7.585 -0.2206  0.1268  0.3388
 5290SOL    HW221001   8.868   6.253   7.593  0.0814  0.7283  0.7679
 5291SOL     OW21002   5.501   8.158   5.382 -0.0544 -0.3213 -0.0874
 5291SOL    HW121003   5.453   8.226   5.335 -1.7445 -0.2937  1.5994
 5291SOL    HW221004   5.478   8.077   5.337  1.6047  0.1505 -1.8172
 5292SOL     OW21005   6.219   5.632   8.704 -0.4599  0.9641  0.7466
 5292SOL    HW121006   6.246   5.540   8.715  3.0147  1.8470  0.3674
 5292SOL    HW221007   6.285   5.682   8.753 -2.5237  3.2761  1.2672
 5293SOL     OW21008   4.989  11.307   2.965 -0.0678  0.2819  0.3041
 5293SOL    HW121009   4.908  11.348   2.997 -0.7310 -0.5296 -0.2941
 5293SOL    HW221010   5.026  11.264   3.043 -0.7418 -0.1798  0.3809
 5294SOL     OW21011   8.840   4.858  10.723 -0.2548 -0.1243  0.6425
 5294SOL    HW121012   8.923   4.812  10.735  0.6293  1.3090  0.0552
 5294SOL    HW221013   8.847   4.936  10.778 -0.2644  1.2201 -1.2305
 5295SOL     OW21014   0.773   5.356   1.903 -0.5057 -0.4445 -0.4863
 5295SOL    HW121015   0.852   5.302   1.896  0.2364  0.3026  1.6671
 5295SOL    HW221016   0.754   5.358   1.997 -2.0751  0.8217 -0.8186
 5296SOL     OW21017   0.893   8.974   3.252 -0.2391  0.0505 -0.0756
 5296SOL    HW121018   0.923   8.883   3.263 -0.3894 -0.2044 -1.6706
 5296SOL    HW221019   0.840   8.972   3.173 -0.6315  1.4522  0.1478
 5297SOL     OW21020   7.067   4.529   0.457 -0.4931  0.1160 -0.4503
 5297SOL    HW121021   7.045   4.447   0.501 -1.6019 -0.3592 -1.8485
 5297SOL    HW221022   6.983   4.560   0.422 -0.3145  2.5158  1.1564
 5298SOL     OW21023   1.157   1.934   5.480 -0.4641 -0.1213 -0.7273
 5298SOL    HW121024   1.151   1.852   5.431  0.3881 -0.9779  0.5551
 5298SOL    HW221025   1.225   1.984   5.435 -0.7451 -0.2684 -1.3121
 5299SOL     OW21026   4.757  11.047   2.907 -0.4782  0.3176  0.3926
 5299SOL    HW121027   4.678  11.101   2.901 -0.0548  0.8073 -0.8009
 5299SOL    HW221028   4.742  10.975   2.846  0.3580  0.8744 -0.4805
 5300SOL     OW21029   8.139   3.691   1.719 -0.3788 -0.5451 -0.1345
 5300SOL    HW121030   8.045   3.705   1.712 -0.6293 -1.3979  1.2735
 5300SOL    HW221031   8.147   3.604   1.757  1.0016 -0.8378 -1.0621
 5301SOL     OW21032   4.625   5.076  11.192 -0.0365  0.4736  0.2869
 5301SOL    HW121033   4.569   5.063  11.269  0.4024  1.1665  0.7307
 5301SOL    HW221034   4.627   4.990  11.150 -1.2784  0.3884  0.3655
 5302SOL     OW21035  11.121   7.835   0.184 -0.1325 -0.4902 -0.2840
 5302SOL    HW121036  11.051   7.900   0.184  0.1894 -0.1342 -1.4096
 5302SOL    HW221037  11.101   7.777   0.111  1.4549  0.4150 -1.4766
 5303SOL     OW21038   2.066   9.707   9.725  0.3804 -0.2329  0.2332
 5303SOL    HW121039   2.147   9.736   9.683 -0.3135  0.9833 -0.2865
 5303SOL    HW221040   2.049   9.772   9.792  0.1045 -0.7712  0.6942
 5304SOL     OW21041   8.094   2.844   6.005  0.1984  0.2165  0.2306
 5304SOL    HW121042   8.080   2.937   5.984  0.7554 -0.4246 -3.3677
 5304SOL    HW221043   8.010   2.802   5.985  0.4152 -0.2759  0.3560
 5305SOL     OW21044   0.756   4.738  10.254 -0.1517  0.2298  0.0615
 5305SOL    HW121045   0.716   4.825  10.252 -0.5452  0.0224 -2.7604
 5305SOL    HW221046   0.824   4.745  10.320 -1.8096  1.9375  1.6758
 5306SOL     OW21047  10.043   5.940   3.477 -0.5078 -0.4172  0.5824
 5306SOL    HW121048  10.025   5.924   3.569 -1.4488 -0.6799  0.3567
 5306SOL    HW221049   9.966   5.986   3.444  0.2245  0.5299  0.1424
 5307SOL     OW21050   1.078   4.223   0.780  0.3851  0.0159  0.3505
 5307SOL    HW121051   1.010   4.288   0.794  1.8933  1.1488  2.7764
 5307SOL    HW221052   1.133   4.260   0.710  2.0045  2.0670  2.6323
 5308SOL     OW21053  11.084   8.118   4.772 -0.1977  0.2206 -0.0511
 5308SOL    HW121054  11.174   8.090   4.753 -0.7113  1.5387 -5.0992
 5308SOL    HW221055  11.095   8.191   4.834  1.6918 -3.6655  4.5292
 5309SOL     OW21056   5.906   8.767  10.157 -0.1267  0.8164  0.2084
 5309SOL    HW121057   5.927   8.839  10.098 -0.2932  0.2482 -0.5544
 5309SOL    HW221058   5.949   8.691  10.119 -0.4140  0.4043  0.6999
 5310SOL     OW21059   9.246   1.454   4.416 -0.1032 -0.3015 -0.5082
 5310SOL    HW121060   9.220   1.405   4.338  1.2792 -1.2732 -0.3709
 5310SOL    HW221061   9.276   1.388   4.478 -0.9787  0.4816  0.7912
 5311SOL     OW21062  10.993   3.180   5.040 -0.0253  0.3012 -0.0444
 5311SOL    HW121063  10.948   3.111   5.088  0.2643 -0.4763 -0.8895
 5311SOL    HW221064  11.033   3.234   5.109  1.6031 -1.6294  0.5854
 5312SOL     OW21065   8.004   5.098   9.043 -0.2335 -0.2404 -0.6585
 5312SOL    HW121066   7.997   5.128   8.952  0.5727 -1.1033 -1.0121
 5312SOL    HW221067   7.915   5.072   9.067 -0.1144 -1.7167 -1.7955
 5313SOL     OW21068  10.655   2.380   8.319 -0.5254  0.7976 -0.0456
 5313SOL    HW121069  10.604   2.453   8.356 -0.0233  1.1422 -0.0277
 5313SOL    HW221070  10.741   2.417   8.302 -0.0091 -0.0176  0.7605
 5314SOL     OW21071   4.378  11.131   5.588  0.6413  0.1705  0.1068
 5314SOL    HW121072   4.397  11.102   5.499  2.6347  1.7505 -0.0374
 5314SOL    HW221073   4.345  11.220   5.577  0.1446  0.0855  0.8928
 5315SOL     OW21074   2.915   7.605   1.403 -0.3960 -0.2494  0.1915
 5315SOL    HW121075   2.912   7.624   1.309 -1.9673  2.2172  0.6963
 5315SOL    HW221076   2.836   7.554   1.419 -0.9284  0.6351  0.4208
 5316SOL     OW21077   0.444   2.092   5.739  0.9895 -0.3877  0.2896
 5316SOL    HW121078   0.463   2.157   5.806 -0.3305 -0.6124  0.8900
 5316SOL    HW221079   0.441   2.142   5.657 -0.7108  0.4248  0.8437
 5317SOL     OW21080   6.463  11.016   3.362 -0.3041 -0.5861 -0.0116
 5317SOL    HW121081   6.484  10.965   3.284 -0.2983  1.1405 -1.1505
 5317SOL    HW221082   6.546  11.056   3.388 -0.8532  1.0452 -0.7339
 5318SOL     OW21083   9.243   3.716  10.359  0.6110  0.2731  0.1961
 5318SOL    HW121084   9.328   3.673  10.365  0.7504  0.5118 -0.0333
 5318SOL    HW221085   9.248   3.769  10.279  0.0077 -0.2256 -0.1818
 5319SOL     OW21086   1.388   2.305   4.266 -0.2728  0.9078 -0.0879
 5319SOL    HW121087   1.470   2.355   4.260  0.4103  0.0381  1.5299
 5319SOL    HW221088   1.335   2.355   4.329 -0.6396  1.0171 -0.4860
 5320SOL     OW21089   2.512   2.064   9.037  0.0718  0.0238  0.4112
 5320SOL    HW121090   2.425   2.024   9.028 -1.0771  2.3661  0.6069
 5320SOL    HW221091   2.524   2.074   9.131  0.6646 -0.5257  0.3925
 5321SOL     OW21092   3.214   6.222   1.810  0.2320 -0.2042 -0.7939
 5321SOL    HW121093   3.283   6.286   1.826 -0.9250  1.3959 -2.0136
 5321SOL    HW221094   3.258   6.150   1.764  1.5535 -0.3360  0.6536
 5322SOL     OW21095   9.944   5.305   4.312  0.1437 -0.4135  0.1891
 5322SOL    HW121096  10.015   5.263   4.360  1.4598 -0.9833 -2.1890
 5322SOL    HW221097   9.981   5.389   4.284 -0.3899 -0.3751 -0.4040
 5323SOL     OW21098   5.024   1.257   0.738  0.4024 -0.4187  0.2319
 5323SOL    HW121099   5.069   1.336   0.708 -1.4007  0.8830  0.8986
 5323SOL    HW221100   5.054   1.189   0.678  1.1661  0.9792 -1.0175
 5324SOL     OW21101   0.297  10.177   7.135  0.3093  0.0693 -0.3747
 5324SOL    HW121102   0.280  10.261   7.094 -0.1522  0.3169  0.3090
 5324SOL    HW221103   0.307  10.116   7.062 -2.1651  0.1821 -0.8564
 5325SOL     OW21104   7.682   4.354  11.092  0.7862  0.1899  0.1984
 5325SOL    HW121105   7.740   4.283  11.065  0.7802  0.5108 -0.6780
 5325SOL    HW221106   7.617   4.313  11.148 -0.3902 -0.8537 -1.8857
 5326SOL     OW21107  10.580   0.212   6.495  0.0058  0.1672 -0.1461
 5326SOL    HW121108  10.551   0.167   6.574 -0.4630  0.3971 -0.1863
 5326SOL    HW221109  10.547   0.302   6.504 -2.3040 -0.4722 -1.8042
 5327SOL     OW21110   7.299  11.223   4.348  0.7669 -0.1262 -0.3249
 5327SOL    HW121111   7.237  11.151   4.351  1.9886 -1.1258  2.0127
 5327SOL    HW221112   7.343  11.213   4.264 -0.5903 -0.7863 -0.9713
 5328SOL     OW21113   4.399   9.943   9.219 -0.2833 -0.3120 -0.0596
 5328SOL    HW121114   4.322   9.930   9.275 -0.4752 -1.3927 -0.5562
 5328SOL    HW221115   4.369  10.001   9.150 -0.2621  0.3935  0.5167
 5329SOL     OW21116   4.520   3.706   8.576 -0.3644  0.4872 -0.5567
 5329SOL    HW121117   4.505   3.799   8.591  0.1632  0.8530 -2.2119
 5329SOL    HW221118   4.614   3.694   8.594 -0.3434  0.3556 -0.7598
 5330SOL     OW21119   2.681   5.025  11.102  0.2530 -0.1318  0.0574
 5330SOL    HW121120   2.757   5.065  11.145  0.0128  0.0887  0.2805
 5330SOL    HW221121   2.718   4.957  11.045  0.7122  0.7612 -0.7302
 5331SOL     OW21122   9.971   2.969   1.522  0.3172 -0.0496 -0.7066
 5331SOL    HW121123   9.973   2.983   1.427 -2.4027 -1.3309 -1.0060
 5331SOL    HW221124   9.948   3.054   1.558  0.9057  0.3359 -1.2222
 5332SOL     OW21125   3.489   3.409  10.423 -0.0467  0.0122  0.2346
 5332SOL    HW121126   3.537   3.346  10.476 -1.0888 -0.4745  0.6188
 5332SOL    HW221127   3.399   3.377  10.424  0.0323 -0.3915 -2.4070
 5333SOL     OW21128   3.314   0.350  10.060  0.1726 -0.2932  0.4908
 5333SOL    HW121129   3.242   0.364  10.121  0.7797  2.1566  0.6833
 5333SOL    HW221130   3.326   0.255  10.059 -0.9990 -0.5066  2.8490
 5334SOL     OW21131  10.401  10.831   0.948 -0.2904  0.0194 -0.2637
 5334SOL    HW121132  10.495  10.818   0.931 -0.3224  1.8517 -2.0130
 5334SOL    HW221133  10.359  10.753   0.912  0.2552  0.8788 -2.8167
 5335SOL     OW21134   6.647   5.942   8.086  0.2541  0.0072  0.1164
 5335SOL    HW121135   6.676   5.891   8.161  0.3364 -0.3772 -0.1776
 5335SOL    HW221136   6.581   5.887   8.043 -0.2394  0.4841  0.2533
 5336SOL     OW21137   6.035   8.812   0.065  0.6520  0.0865  0.5819
 5336SOL    HW121138   6.118   8.847   0.031 -0.3724  0.9900 -1.0574
 5336SOL    HW221139   6.028   8.725   0.026 -0.0968  0.7719 -0.8111
 5337SOL     OW21140   8.410   9.731   5.542 -0.3149  0.4591 -0.2649
 5337SOL    HW121141   8.374   9.700   5.459 -0.3775  0.0394 -0.0849
 5337SOL    HW221142   8.503   9.747   5.523 -0.2717  0.1204 -0.3575
 5338SOL     OW21143   7.952  10.314   4.558  0.1964  0.5786  0.0629
 5338SOL    HW121144   7.917  10.282   4.475 -1.5660  1.6552  0.3773
 5338SOL    HW221145   7.932  10.245   4.621  0.1664  0.4339 -0.1069
 5339SOL     OW21146   3.800   6.330   4.923 -0.6354  0.1700  0.1470
 5339SOL    HW121147   3.732   6.340   4.856  1.1011  0.9340 -1.5485
 5339SOL    HW221148   3.772   6.387   4.995 -2.6263 -0.8168  0.1839
 5340SOL     OW21149  10.874   6.204   4.437 -0.1291  0.6306  0.2250
 5340SOL    HW121150  10.914   6.218   4.523  1.9632  0.3012 -0.6818
 5340SOL    HW221151  10.875   6.109   4.425 -1.6838  0.5819  0.4204
 5341SOL     OW21152  10.607   5.350   6.343 -0.1490  0.3325 -0.0959
 5341SOL    HW121153  10.642   5.426   6.297 -0.6182  1.0926  0.7755
 5341SOL    HW221154  10.612   5.374   6.436 -0.3322 -0.6850  0.1866
 5342SOL     OW21155   7.563  10.911   5.575  0.3889  0.8478 -0.0087
 5342SOL    HW121156   7.528  10.934   5.662  0.2763 -0.1250  0.2157
 5342SOL    HW221157   7.493  10.860   5.534  0.5910  0.9820 -0.5244
 5343SOL     OW21158   2.291   3.185  10.295 -0.2799  0.4272 -0.1665
 5343SOL    HW121159   2.253   3.199  10.381 -0.8403 -2.1566  0.0711
 5343SOL    HW221160   2.338   3.102  10.303  1.0762  1.0048 -1.8872
 5344SOL     OW21161   0.758   1.898   8.067  0.7463 -0.2209  0.2573
 5344SOL    HW121162   0.849   1.873   8.053  0.9601  0.5603  0.2489
 5344SOL    HW221163   0.710   1.815   8.071  1.2502 -0.5762 -1.1246
 5345SOL     OW21164   1.215   2.309   7.709  0.0495 -0.0247 -0.2078
 5345SOL    HW121165   1.232   2.215   7.712  0.8532  0.1577  1.1967
 5345SOL    HW221166   1.158   2.326   7.784 -1.4808  0.3568 -1.4229
 5346SOL     OW21167   1.589   5.086   7.966 -0.1442  0.8875  0.3357
 5346SOL    HW121168   1.611   5.091   8.059 -0.3821 -3.3730  0.7315
 5346SOL    HW221169   1.509   5.137   7.957  0.1614  1.7535  2.3618
 5347SOL     OW21170   1.754   1.167   8.157 -0.3818  0.1984  0.2178
 5347SOL    HW121171   1.716   1.254   8.138 -0.4736 -0.1274 -1.1750
 5347SOL    HW221172   1.678   1.113   8.178 -0.4989  0.0449 -0.5821
 5348SOL     OW21173   0.518   2.235   5.491 -0.1626 -0.7219  0.5599
 5348SOL    HW121174   0.600   2.259   5.536  1.1449 -0.5169 -1.8433
 5348SOL    HW221175   0.474   2.318   5.475 -0.2769 -0.7317  0.8284
 5349SOL     OW21176   4.687   1.998   5.287  0.6304  0.2937 -1.0421
 5349SOL    HW121177   4.682   2.092   5.302 -0.1824  0.2351 -0.9361
 5349SOL    HW221178   4.650   1.985   5.200 -0.6825 -0.0835 -0.4517
 5350SOL     OW21179   3.816   6.084   1.485 -0.1394 -0.6637 -0.8836
 5350SOL    HW121180   3.902   6.045   1.500 -0.6928 -1.6419 -0.2412
 5350SOL    HW221181   3.825   6.127   1.400  2.1539  2.5536  0.8780
 5351SOL     OW21182  10.284   2.008   9.062  0.3535 -0.1292 -0.0363
 5351SOL    HW121183  10.377   2.029   9.065  0.8210 -1.9953 -1.0874
 5351SOL    HW221184  10.246   2.059   9.134  2.0992  0.9777  0.1280
 5352SOL     OW21185   5.273   3.360   4.026 -0.6335 -0.5010  0.6617
 5352SOL    HW121186   5.298   3.362   3.934  0.3047  0.6258  0.9174
 5352SOL    HW221187   5.230   3.276   4.038 -1.5097 -0.3148 -0.9968
 5353SOL     OW21188   7.907   6.074   9.973  0.1325  0.4896 -0.1051
 5353SOL    HW121189   7.818   6.092  10.003 -0.0694 -1.8704  0.7679
 5353SOL    HW221190   7.944   6.016  10.039  0.9624 -1.7578 -2.4583
 5354SOL     OW21191  11.052   1.984   1.893 -0.0056  0.4216  0.2918
 5354SOL    HW121192  10.996   1.909   1.876 -0.4844  0.6698  0.7516
 5354SOL    HW221193  11.000   2.041   1.950  0.7476  0.6064  0.8109
 5355SOL     OW21194   0.255   4.476   1.823 -0.4556 -0.0727  0.0130
 5355SOL    HW121195   0.269   4.382   1.834  0.7009  0.0614 -0.2734
 5355SOL    HW221196   0.308   4.517   1.890 -0.2608  0.4085 -0.4293
 5356SOL     OW21197   5.525   3.097  10.866 -0.4794  0.2193  0.8425
 5356SOL    HW121198   5.566   3.026  10.916  3.8192  1.1030 -1.1646
 5356SOL    HW221199   5.513   3.061  10.779  1.0710  1.6577  0.0002
 5357SOL     OW21200   2.747  11.224   7.329 -0.1631  0.9922 -0.1064
 5357SOL    HW121201   2.767  11.283   7.401  1.4661 -0.8790  1.0144
 5357SOL    HW221202   2.655  11.243   7.307 -1.0260  0.8607  3.1733
 5358SOL     OW21203  11.281   2.677   7.654 -0.6087 -0.6241 -0.0119
 5358SOL    HW121204  11.251   2.607   7.596 -1.4688 -0.1612 -0.1345
 5358SOL    HW221205  11.250   2.757   7.612 -1.1370 -0.2768  1.0372
 5359SOL     OW21206   2.016   1.130   3.377  0.1485 -0.2274 -0.1188
 5359SOL    HW121207   1.954   1.174   3.319  0.0333  0.1985  0.3241
 5359SOL    HW221208   2.002   1.171   3.463  2.2350  1.0631 -0.3757
 5360SOL     OW21209   4.915   2.165   2.381  0.2734  0.2380 -0.2163
 5360SOL    HW121210   4.945   2.210   2.461 -0.7809  1.6145 -0.5596
 5360SOL    HW221211   4.933   2.228   2.311 -1.0596  0.0580 -0.7357
 5361SOL     OW21212  10.897   1.529   2.311 -0.3245  0.6285 -1.1336
 5361SOL    HW121213  10.873   1.580   2.388 -1.2705  0.9335 -1.6159
 5361SOL    HW221214  10.933   1.593   2.250 -0.3151  0.5195 -1.2436
 5362SOL     OW21215   6.936   2.859   2.070  0.5504  0.1419 -0.2510
 5362SOL    HW121216   6.962   2.773   2.037  2.1366  0.1397  0.9626
 5362SOL    HW221217   6.917   2.910   1.991 -0.4912 -1.3302 -0.9805
 5363SOL     OW21218   0.286   5.697   8.475  0.1361 -0.0410 -0.1858
 5363SOL    HW121219   0.192   5.692   8.460  0.0785 -1.1808  0.5168
 5363SOL    HW221220   0.302   5.788   8.501 -0.5349  0.5650 -1.8583
 5364SOL     OW21221  10.243   8.909  10.934  1.3480 -0.0937  0.1449
 5364SOL    HW121222  10.297   8.950  11.001  3.4755  0.0687 -1.6033
 5364SOL    HW221223  10.181   8.977  10.908  2.4227  0.8259 -0.0862
 5365SOL     OW21224  11.072   5.416  11.332  0.8046  0.5487  0.6132
 5365SOL    HW121225  10.998   5.441  11.387  1.7347 -0.0944  2.2096
 5365SOL    HW221226  11.118   5.498  11.314  0.7846  0.6979  1.2438
 5366SOL     OW21227   2.480   9.671   9.090 -0.0016 -0.1087 -0.1832
 5366SOL    HW121228   2.467   9.593   9.144  0.5144 -0.1983 -0.1781
 5366SOL    HW221229   2.407   9.671   9.029  0.2826 -0.8824 -0.5230
 5367SOL     OW21230  10.694   8.601   7.289 -0.5021  0.8443  0.0208
 5367SOL    HW121231  10.756   8.649   7.344 -1.8810  0.5772  1.8559
 5367SOL    HW221232  10.735   8.599   7.203  1.9996  0.7074  1.1801
 5368SOL     OW21233   1.621   9.313   0.276 -0.1330 -0.7442  0.2809
 5368SOL    HW121234   1.561   9.272   0.214 -0.0351 -3.3484  1.8368
 5368SOL    HW221235   1.565   9.373   0.326 -0.4301  0.5077 -1.4750
 5369SOL     OW21236  10.469  11.195   8.023  0.0199 -0.6277  0.6789
 5369SOL    HW121237  10.408  11.263   8.051  0.8001 -0.0753  1.0412
 5369SOL    HW221238  10.484  11.211   7.930  1.1788  0.4616  1.0438
 5370SOL     OW21239   3.908   0.548   0.560 -0.2133  0.1047  0.1644
 5370SOL    HW121240   3.973   0.483   0.532 -0.8270 -0.8640  0.9759
 5370SOL    HW221241   3.950   0.632   0.541  0.6256 -0.5110 -0.8140
 5371SOL     OW21242   1.391   3.600   8.492  0.1281  0.0778 -0.2838
 5371SOL    HW121243   1.381   3.608   8.397  0.0657 -2.1582 -0.4771
 5371SOL    HW221244   1.425   3.686   8.519 -2.3357  1.6540 -1.9462
 5372SOL     OW21245   8.923   6.236   0.291  0.0016  0.2504  0.1946
 5372SOL    HW121246   8.995   6.180   0.265 -0.6044 -0.1812 -0.5679
 5372SOL    HW221247   8.915   6.221   0.386  0.7028  0.0670  0.2289
 5373SOL     OW21248   1.916   4.744   5.081  0.3527 -0.1764  0.1992
 5373SOL    HW121249   1.959   4.692   5.149 -1.8671  1.2160  2.7335
 5373SOL    HW221250   1.979   4.814   5.062  1.8368 -1.6972 -0.6931
 5374SOL     OW21251   9.969   5.996   7.240  0.5004 -0.4233 -0.0147
 5374SOL    HW121252   9.948   6.082   7.205  0.4627  0.0295  1.0885
 5374SOL    HW221253   9.887   5.948   7.238 -0.3249  0.7516  2.6317
 5375SOL     OW21254   0.047   5.638   2.047  0.5517 -0.6600 -0.0414
 5375SOL    HW121255   0.076   5.640   2.138 -1.1150 -0.4106  0.4993
 5375SOL    HW221256  -0.019   5.707   2.040  0.5490 -0.7716 -1.4016
 5376SOL     OW21257  10.667  10.758   1.939  0.4741  0.2492 -0.1021
 5376SOL    HW121258  10.638  10.669   1.917  2.0766 -0.5383  0.8417
 5376SOL    HW221259  10.761  10.758   1.920  0.4886  1.7387 -0.0695
 5377SOL     OW21260   8.586   7.517   3.450  0.0484  0.8108 -0.1091
 5377SOL    HW121261   8.548   7.603   3.469 -2.1585  0.2627 -1.9406
 5377SOL    HW221262   8.671   7.537   3.412  0.2164  2.1381  0.9009
 5378SOL     OW21263   3.221   8.264   3.107  0.0060 -0.0468 -0.4486
 5378SOL    HW121264   3.190   8.281   3.018 -0.2312  0.9208 -0.1877
 5378SOL    HW221265   3.315   8.249   3.097 -0.0007  0.1665 -0.8583
 5379SOL     OW21266   1.241   7.437   0.875 -0.3654  0.2515 -0.4012
 5379SOL    HW121267   1.329   7.401   0.880 -0.8989 -1.0345 -0.1327
 5379SOL    HW221268   1.234   7.470   0.785  0.2730  0.0717 -0.5195
 5380SOL     OW21269   1.588   1.983   2.926 -1.0648 -0.2170  0.0042
 5380SOL    HW121270   1.606   1.919   2.995 -1.1023 -2.5050 -2.0563
 5380SOL    HW221271   1.525   2.044   2.966  0.0916 -0.5784  2.4739
 5381SOL     OW21272   9.387   3.076   7.492 -0.1268  0.3774  0.2194
 5381SOL    HW121273   9.476   3.107   7.476  0.0792 -0.5234 -0.3801
 5381SOL    HW221274   9.332   3.142   7.450  0.2751  0.5544 -0.0380
 5382SOL     OW21275   5.518   4.738   1.232 -0.0779 -0.1975 -0.4919
 5382SOL    HW121276   5.448   4.726   1.168 -1.3782  0.8751  0.7135
 5382SOL    HW221277   5.582   4.670   1.210 -2.3325 -2.3860 -0.5003
 5383SOL     OW21278   2.876   8.038  10.797  0.3230  0.0807  0.0151
 5383SOL    HW121279   2.824   8.084  10.731  0.3034 -0.4602 -0.3514
 5383SOL    HW221280   2.828   8.052  10.878  0.6538  1.2355  0.0217
 5384SOL     OW21281   3.699   0.120   5.144  0.3355  0.5547  0.6707
 5384SOL    HW121282   3.775   0.063   5.146  0.6331  0.9240  0.1107
 5384SOL    HW221283   3.733   0.208   5.160  0.2496  0.9280 -1.0513
 5385SOL     OW21284   5.042   3.787   8.208  0.1456 -0.5444  0.1202
 5385SOL    HW121285   5.003   3.860   8.256 -0.3657 -0.7614  0.0461
 5385SOL    HW221286   4.972   3.757   8.150  0.5362 -0.7314 -0.2538
 5386SOL     OW21287   4.086   0.817   5.706  0.4132  0.4914  0.1186
 5386SOL    HW121288   4.166   0.787   5.662 -1.5003 -1.4248 -2.2236
 5386SOL    HW221289   4.050   0.738   5.747 -1.0674  0.9821 -0.1891
 5387SOL     OW21290   3.899   0.840   5.489 -0.5929 -0.3106  0.2708
 5387SOL    HW121291   3.813   0.805   5.512 -0.8827 -0.5837 -1.1857
 5387SOL    HW221292   3.956   0.813   5.561 -1.9021  0.6208  1.6878
 5388SOL     OW21293  10.193   7.875   1.295 -0.6177 -0.3084  0.3445
 5388SOL    HW121294  10.112   7.858   1.343 -1.5888 -0.5843 -1.3532
 5388SOL    HW221295  10.204   7.798   1.240  2.2557 -1.5130  2.4603
 5389SOL     OW21296   8.902   2.153   3.910  0.1149  0.0102 -0.1246
 5389SOL    HW121297   8.968   2.168   3.843 -0.1480 -2.3308 -0.9518
 5389SOL    HW221298   8.853   2.235   3.915  1.8696  1.1162 -0.8513
 5390SOL     OW21299   0.239   3.602  10.916 -0.2732 -0.4896  0.5197
 5390SOL    HW121300   0.240   3.537  10.846  0.1976 -0.3544  0.3995
 5390SOL    HW221301   0.146   3.616  10.933 -0.5000  1.2805 -1.7971
 5391SOL     OW21302  10.177   9.994  10.840  0.5906 -0.6478  0.0318
 5391SOL    HW121303  10.259  10.036  10.817 -0.1151  1.0970  0.6566
 5391SOL    HW221304  10.127   9.993  10.758 -0.2065  1.6412  0.4645
 5392SOL     OW21305   4.259   8.248   0.402 -0.2468 -0.3583 -0.2240
 5392SOL    HW121306   4.281   8.170   0.351 -0.7504 -0.2796 -0.5557
 5392SOL    HW221307   4.232   8.214   0.488 -1.0191 -0.5776 -0.5549
 5393SOL     OW21308   1.398  10.723   4.430  0.0572 -0.0054 -0.1368
 5393SOL    HW121309   1.445  10.727   4.347  2.0673  1.2506  1.0154
 5393SOL    HW221310   1.354  10.807   4.438 -3.1031 -1.4478 -1.5535
 5394SOL     OW21311   8.989   9.623   0.817 -0.4325  0.0650 -0.0152
 5394SOL    HW121312   8.896   9.642   0.806 -0.2924  0.6747 -0.1583
 5394SOL    HW221313   9.032   9.708   0.814  0.1258 -0.2061  0.1255
 5395SOL     OW21314   5.471  10.628  10.558  0.2765 -0.9633 -0.5450
 5395SOL    HW121315   5.556  10.630  10.514  0.9631 -0.4007  0.7627
 5395SOL    HW221316   5.465  10.541  10.596 -0.3281 -1.4570 -1.7826
 5396SOL     OW21317  10.537   4.666   3.209 -0.2150  0.0192  0.1404
 5396SOL    HW121318  10.555   4.671   3.115 -2.0658 -1.7543 -0.3498
 5396SOL    HW221319  10.509   4.755   3.233  0.4002  0.5135 -0.9467
 5397SOL     OW21320  11.126   1.991   9.793 -0.4139 -0.8610 -0.1924
 5397SOL    HW121321  11.196   1.933   9.764 -0.7461 -0.5248 -1.6888
 5397SOL    HW221322  11.111   2.050   9.719  1.5042  2.6825  2.1038
 5398SOL     OW21323   4.142   0.690   8.722  0.1706  0.6748 -0.3670
 5398SOL    HW121324   4.131   0.715   8.630 -1.0631 -1.2017 -0.7770
 5398SOL    HW221325   4.149   0.773   8.769  0.5164  1.6680 -2.1257
 5399SOL     OW21326   2.271   1.886  11.280  0.1061 -0.7285 -0.3254
 5399SOL    HW121327   2.263   1.937  11.199 -0.2054  2.0142  1.4008
 5399SOL    HW221328   2.365   1.890  11.301 -0.4476  2.6124  1.9305
 5400SOL     OW21329   3.603   5.517   5.083 -0.3210 -0.3728 -0.2287
 5400SOL    HW121330   3.656   5.589   5.116 -1.0397 -0.2129  0.5803
 5400SOL    HW221331   3.569   5.473   5.161 -1.5726 -0.3277 -0.7347
 5401SOL     OW21332   1.773   1.707   1.051  0.2043 -0.1930  0.2891
 5401SOL    HW121333   1.777   1.754   0.967 -0.6949 -1.7057 -0.6169
 5401SOL    HW221334   1.845   1.744   1.102 -1.3698  3.2160  0.1638
 5402SOL     OW21335   8.075   9.729   9.402 -0.4252  0.3814  0.3708
 5402SOL    HW121336   8.032   9.656   9.447 -2.3636  2.1401  1.4769
 5402SOL    HW221337   8.111   9.690   9.323 -0.8104 -1.9135  1.2772
 5403SOL     OW21338   7.047   2.386   8.472  0.9144 -0.1827 -0.3847
 5403SOL    HW121339   6.982   2.442   8.430  2.2375  0.4021 -1.7012
 5403SOL    HW221340   7.109   2.447   8.513  1.3202 -0.7075 -0.2072
 5404SOL     OW21341   8.655   5.902   9.776  0.3469  0.0049  0.1892
 5404SOL    HW121342   8.633   5.887   9.684  0.2514  0.5748  0.1169
 5404SOL    HW221343   8.589   5.965   9.806 -2.9068 -4.0390  2.0420
 5405SOL     OW21344  10.539   2.456   3.937  0.0207 -0.1801  0.4946
 5405SOL    HW121345  10.624   2.490   3.909 -0.1190  0.7790  1.1920
 5405SOL    HW221346  10.547   2.361   3.928  1.2276 -0.1121  0.7059
 5406SOL     OW21347   2.373   5.380   7.914  0.1444  0.2745  0.0297
 5406SOL    HW121348   2.307   5.428   7.863  0.3315  1.1917  0.6395
 5406SOL    HW221349   2.432   5.345   7.847 -1.6090 -1.5867 -0.6043
 5407SOL     OW21350   0.890   3.873   0.166 -0.2013 -0.2345  0.3688
 5407SOL    HW121351   0.805   3.829   0.168 -0.0819 -0.4378  1.5781
 5407SOL    HW221352   0.879   3.948   0.225 -0.2267  1.0503 -1.2247
 5408SOL     OW21353   4.786  10.168   4.173  0.4676 -0.1517 -0.2971
 5408SOL    HW121354   4.719  10.210   4.120 -0.3927 -1.5845 -0.3877
 5408SOL    HW221355   4.855  10.143   4.111  0.5328  0.2423 -0.3828
 5409SOL     OW21356  10.638   4.314   8.237 -0.5754  0.5245  0.2115
 5409SOL    HW121357  10.569   4.379   8.227  1.4183  2.4109 -2.1384
 5409SOL    HW221358  10.627   4.255   8.163  1.7807  2.3294 -1.6577
 5410SOL     OW21359   8.951  10.629   1.418 -0.1318  0.1564 -0.1720
 5410SOL    HW121360   9.011  10.702   1.402  2.0713 -1.2790  1.1668
 5410SOL    HW221361   8.864  10.667   1.413  1.0089  3.1340  1.6621
 5411SOL     OW21362   4.401   1.992   2.506 -0.3984 -0.7675  0.7460
 5411SOL    HW121363   4.461   2.029   2.571 -1.9859 -0.0326  1.8324
 5411SOL    HW221364   4.440   1.908   2.481  0.3603 -0.9401  2.4744
 5412SOL     OW21365   3.695  10.586   0.271  0.1059  0.2553  0.7836
 5412SOL    HW121366   3.725  10.565   0.359  3.2232 -0.2169 -0.3364
 5412SOL    HW221367   3.602  10.564   0.272  0.5707 -1.9072  3.2924
 5413SOL     OW21368   1.634   0.693   0.989 -0.1380 -0.0306 -0.6016
 5413SOL    HW121369   1.675   0.607   0.999 -0.7610 -0.2641  0.0079
 5413SOL    HW221370   1.544   0.680   1.019  0.3276  1.3376  1.4710
 5414SOL     OW21371   0.913   9.203   6.720  0.2716 -0.1795  0.0893
 5414SOL    HW121372   0.858   9.239   6.790  1.3312  0.3983  0.6460
 5414SOL    HW221373   1.003   9.214   6.753  0.8069  0.6770 -1.6312
 5415SOL     OW21374   5.666   0.552   6.886 -0.2953  0.0778 -0.0271
 5415SOL    HW121375   5.692   0.630   6.837  2.1541 -0.0833  0.9511
 5415SOL    HW221376   5.710   0.561   6.971 -3.1899 -0.4153  1.6106
 5416SOL     OW21377   3.513   7.767   2.027 -0.3991 -0.2736  0.2479
 5416SOL    HW121378   3.524   7.832   1.958 -1.4122 -0.0060  0.3326
 5416SOL    HW221379   3.566   7.800   2.100  0.1430 -0.2220 -0.1708
 5417SOL     OW21380   8.843   1.545   8.792  0.2877  0.7973  0.3802
 5417SOL    HW121381   8.843   1.535   8.697  0.7924  1.6368  0.2835
 5417SOL    HW221382   8.804   1.631   8.806 -0.8406  0.1958  0.9962
 5418SOL     OW21383   6.964   5.858   3.981 -0.7651 -0.1068  0.1245
 5418SOL    HW121384   6.902   5.888   3.914  0.1169  0.2213 -0.5626
 5418SOL    HW221385   6.977   5.935   4.037  0.5660  0.4629 -0.9281
 5419SOL     OW21386   6.092   1.444   2.153 -0.4115 -0.6351  0.5447
 5419SOL    HW121387   5.998   1.456   2.166 -0.5250 -1.1895  0.2437
 5419SOL    HW221388   6.109   1.354   2.181  0.1970 -0.2398  1.4693
 5420SOL     OW21389   1.026  10.332   1.051 -0.0419  0.3434  0.4547
 5420SOL    HW121390   0.967  10.280   1.106  0.0548 -1.3168 -0.9578
 5420SOL    HW221391   0.967  10.380   0.992 -0.0600  0.4254  0.5394
 5421SOL     OW21392   9.439   5.777  10.838  0.2536 -0.3300  0.3707
 5421SOL    HW121393   9.370   5.844  10.843  1.7591  1.2826  0.0840
 5421SOL    HW221394   9.464   5.776  10.745  2.8368  1.4459  0.9984
 5422SOL     OW21395   7.857   5.350  11.198  0.0457 -0.5876 -0.6220
 5422SOL    HW121396   7.866   5.351  11.103 -2.1506 -0.3630 -0.8342
 5422SOL    HW221397   7.787   5.412  11.218  2.1911  1.3246  1.3687
 5423SOL     OW21398   1.091  11.165   9.225 -0.6795  0.6739  0.0260
 5423SOL    HW121399   1.171  11.170   9.172 -1.6135  3.6473 -1.1928
 5423SOL    HW221400   1.072  11.255   9.249 -1.0731 -0.4453  4.3719
 5424SOL     OW21401   9.324   3.583   0.436 -0.2895  0.2526  0.0061
 5424SOL    HW121402   9.283   3.574   0.522  0.0580 -0.7874  0.0752
 5424SOL    HW221403   9.392   3.649   0.448 -1.7067  1.7316 -0.0274
 5425SOL     OW21404   1.634   4.630   7.574 -0.4891 -0.2381  0.0368
 5425SOL    HW121405   1.657   4.539   7.558  1.1726  0.2787 -0.6575
 5425SOL    HW221406   1.681   4.654   7.653 -1.2127 -0.0895  0.4229
 5426SOL     OW21407   4.002   9.899  10.654  0.1443  0.3070 -0.4083
 5426SOL    HW121408   4.084   9.867  10.693 -0.5458 -0.3884  0.4628
 5426SOL    HW221409   4.014   9.994  10.650  0.7378  0.2737  0.3364
 5427SOL     OW21410   8.579   4.542   2.188 -0.2784  0.0175  0.9371
 5427SOL    HW121411   8.629   4.601   2.244  0.6546  0.5503 -0.4367
 5427SOL    HW221412   8.635   4.464   2.180 -1.8690 -1.4450  3.4341
 5428SOL     OW21413  10.044   9.203   2.191 -0.2751 -0.7060  0.6903
 5428SOL    HW121414   9.961   9.226   2.234 -0.4811 -1.1731  0.5489
 5428SOL    HW221415  10.047   9.107   2.196 -2.7209 -1.2803 -4.6947
 5429SOL     OW21416   9.649   0.188   7.025 -0.0994  0.5067  0.4716
 5429SOL    HW121417   9.685   0.201   6.937  0.2754  0.6313  0.6431
 5429SOL    HW221418   9.629   0.277   7.056 -1.0617  0.4107  0.1695
 5430SOL     OW21419   3.005   1.641   7.830 -0.0028 -0.2097  0.0144
 5430SOL    HW121420   3.033   1.584   7.902  0.3239 -2.1331 -1.6055
 5430SOL    HW221421   2.914   1.615   7.814  0.2696 -0.5575 -0.9792
 5431SOL     OW21422  10.443  10.941   0.180 -0.0786  0.2580 -0.0164
 5431SOL    HW121423  10.417  10.850   0.196  0.4896  0.1961  0.5718
 5431SOL    HW221424  10.426  10.954   0.086 -2.6902  0.3907  0.4283
 5432SOL     OW21425   8.350  10.137  10.970 -0.3837 -0.7790  0.1537
 5432SOL    HW121426   8.293  10.201  10.928 -2.7055 -2.4620  0.6037
 5432SOL    HW221427   8.408  10.106  10.900 -0.2744  0.6671 -0.4071
 5433SOL     OW21428   8.281   6.846   2.699  0.0318 -0.8821  0.2733
 5433SOL    HW121429   8.254   6.922   2.750  0.6609  0.0717 -0.7928
 5433SOL    HW221430   8.377   6.848   2.702  0.0653 -0.8551 -0.9039
 5434SOL     OW21431  10.658   6.013   7.744  0.3548 -0.0738 -0.7527
 5434SOL    HW121432  10.692   5.932   7.783  0.8748  0.3360 -0.3427
 5434SOL    HW221433  10.566   5.994   7.726  0.5157 -0.8168 -0.8244
 5435SOL     OW21434  10.151   0.048   0.113 -0.2272  0.0958  0.7759
 5435SOL    HW121435  10.149   0.135   0.074 -0.4637 -0.6289 -0.8551
 5435SOL    HW221436  10.243   0.025   0.115 -0.3875 -0.8630 -1.6511
 5436SOL     OW21437   3.250   4.534  10.040  0.0697 -0.6106  0.1414
 5436SOL    HW121438   3.304   4.574   9.973  0.9792 -0.3458  1.0320
 5436SOL    HW221439   3.173   4.501   9.992 -0.0022  0.8922 -0.7958
 5437SOL     OW21440   1.323   0.599   4.845 -0.6081  0.4543 -0.2698
 5437SOL    HW121441   1.251   0.540   4.824 -0.9073  1.0532 -0.9650
 5437SOL    HW221442   1.352   0.573   4.932 -0.0269 -1.4239 -1.0102
 5438SOL     OW21443   1.478   8.437   8.638  0.2561  0.8568  0.1363
 5438SOL    HW121444   1.556   8.384   8.652 -0.5226 -0.2304  0.4699
 5438SOL    HW221445   1.511   8.520   8.605  1.5744  0.5593  0.6629
 5439SOL     OW21446   2.900   0.321  10.925 -0.2221  0.4001  0.2659
 5439SOL    HW121447   2.950   0.301  11.004 -1.9644 -2.1251  0.7890
 5439SOL    HW221448   2.898   0.238  10.876 -1.8705  1.0797 -0.8610
 5440SOL     OW21449   0.339   7.010   4.525  0.1700 -0.0490 -0.0200
 5440SOL    HW121450   0.376   7.052   4.603  0.6217 -0.0151 -0.2557
 5440SOL    HW221451   0.275   6.947   4.560 -0.3510  0.6733  0.3421
 5441SOL     OW21452   1.478   4.172   9.145  0.0250 -0.4956  0.1717
 5441SOL    HW121453   1.508   4.241   9.086  0.4649 -0.9074 -0.0943
 5441SOL    HW221454   1.558   4.135   9.181 -0.1807 -1.2724 -0.1542
 5442SOL     OW21455   3.168   6.461  11.064 -0.0943 -0.0691  0.2184
 5442SOL    HW121456   3.091   6.500  11.106  0.7103  0.0859  1.5970
 5442SOL    HW221457   3.150   6.367  11.064 -0.6278  0.0301 -0.1867
 5443SOL     OW21458   1.721   3.159   3.493 -0.3190 -0.2505 -0.2768
 5443SOL    HW121459   1.759   3.127   3.574  1.2461 -1.9618 -1.6551
 5443SOL    HW221460   1.627   3.161   3.510 -0.0693 -1.3644  1.3184
 5444SOL     OW21461   0.081   6.348   0.454  0.1915 -0.2476 -0.4720
 5444SOL    HW121462   0.098   6.423   0.511  1.4909  2.8002 -4.6097
 5444SOL    HW221463   0.168   6.322   0.422 -0.6108 -0.8638 -2.2462
 5445SOL     OW21464   3.196   5.591   1.127 -0.1137  0.2962  0.1362
 5445SOL    HW121465   3.253   5.667   1.117 -0.5160  0.1916 -4.0775
 5445SOL    HW221466   3.255   5.517   1.136  0.3289  0.7439  0.9251
 5446SOL     OW21467   6.610   6.252   4.516  0.9787  0.0119  0.0670
 5446SOL    HW121468   6.633   6.345   4.522 -1.6363  0.7248 -0.3030
 5446SOL    HW221469   6.529   6.244   4.568  0.6344 -1.8726 -0.7127
 5447SOL     OW21470   5.185   1.847   3.371  0.4437  0.3268 -0.8562
 5447SOL    HW121471   5.224   1.898   3.442  1.0056 -0.0266 -0.9032
 5447SOL    HW221472   5.239   1.868   3.295 -0.3800  0.9894 -1.2684
 5448SOL     OW21473   8.293   5.152   0.900  0.8497 -0.2771 -0.0387
 5448SOL    HW121474   8.374   5.193   0.930  0.1376 -0.7341  2.6581
 5448SOL    HW221475   8.322   5.072   0.856  1.9651  0.6149 -0.9650
 5449SOL     OW21476   7.083   7.753   5.117 -0.2084 -0.0523 -0.0670
 5449SOL    HW121477   7.025   7.682   5.144 -1.1487  0.5378 -0.5338
 5449SOL    HW221478   7.102   7.735   5.025  0.3863 -0.2601  0.0906
 5450SOL     OW21479   0.833   3.450   6.541  0.3442 -0.0483 -0.5148
 5450SOL    HW121480   0.919   3.419   6.512  0.3359 -1.8431  1.2188
 5450SOL    HW221481   0.792   3.373   6.582 -1.7316  1.0042 -0.5230
 5451SOL     OW21482   8.011   9.066   1.483  0.2228  0.4809  0.5957
 5451SOL    HW121483   7.996   9.160   1.488  2.3765  0.7791  1.9818
 5451SOL    HW221484   8.081   9.056   1.419  0.3835 -0.1476  0.8628
 5452SOL     OW21485   4.842   4.085   9.927  0.0844 -0.0040  0.8209
 5452SOL    HW121486   4.855   4.052  10.016 -1.1341  0.5574  1.2149
 5452SOL    HW221487   4.872   4.176   9.930  3.5383 -1.0533 -0.2954
 5453SOL     OW21488   4.524   1.536   0.143  0.2670  0.0498 -0.0372
 5453SOL    HW121489   4.479   1.612   0.180  1.3916  1.7325 -2.0009
 5453SOL    HW221490   4.457   1.468   0.138 -1.0379  1.2449  0.7538
 5454SOL     OW21491   2.327   1.929   9.388  0.2107  0.0753 -0.6098
 5454SOL    HW121492   2.285   2.006   9.427  0.1988 -0.5914  0.7477
 5454SOL    HW221493   2.269   1.903   9.317  0.0876  1.1744 -0.9197
 5455SOL     OW21494   0.173   1.822   9.449 -0.5298 -0.5239 -0.1306
 5455SOL    HW121495   0.089   1.808   9.405 -0.9838 -2.5932  1.3496
 5455SOL    HW221496   0.232   1.757   9.409 -0.3397 -0.8861  0.7427
 5456SOL     OW21497   5.371   3.840   1.091  0.0102  0.2425  0.4164
 5456SOL    HW121498   5.327   3.810   1.171 -4.4678  1.5961 -1.3411
 5456SOL    HW221499   5.366   3.765   1.031  1.2997 -0.0241  0.6344
 5457SOL     OW21500   7.003   8.231   7.563 -0.5007 -0.3833  0.4325
 5457SOL    HW121501   6.971   8.315   7.597 -0.1360 -0.0021 -0.1585
 5457SOL    HW221502   7.063   8.199   7.630  0.0299  0.2526  0.2697
 5458SOL     OW21503  10.818   1.563  10.911  0.2165  0.4544  0.1265
 5458SOL    HW121504  10.792   1.654  10.928  0.1882  0.5652 -0.4931
 5458SOL    HW221505  10.798   1.550  10.818 -2.6326 -1.1378  0.9100
 5459SOL     OW21506  10.808   1.475   0.832 -0.0957  0.1759 -0.1864
 5459SOL    HW121507  10.727   1.479   0.781 -0.1888  1.5044  0.0514
 5459SOL    HW221508  10.781   1.493   0.922  0.0817 -2.1184  0.3580
 5460SOL     OW21509   0.084   3.767   4.526 -0.0067  0.6084  0.3090
 5460SOL    HW121510  -0.004   3.739   4.499  0.1991 -0.0531  0.3265
 5460SOL    HW221511   0.103   3.842   4.469 -1.4840  2.1855  1.7976
 5461SOL     OW21512   9.753  11.019   2.261 -0.3505 -0.1344  0.3792
 5461SOL    HW121513   9.798  11.059   2.187 -1.8285  2.1912  0.6470
 5461SOL    HW221514   9.819  11.014   2.330  0.9170 -1.9155 -0.9382
 5462SOL     OW21515   1.075   4.000   3.932 -0.6936  0.5205  0.7328
 5462SOL    HW121516   1.156   3.993   3.982  1.0440 -0.9238 -2.1583
 5462SOL    HW221517   1.062   4.094   3.919  1.2220  0.7158  0.1380
 5463SOL     OW21518   0.615   3.152   1.628  0.2514  0.6790 -0.3906
 5463SOL    HW121519   0.691   3.096   1.612 -1.2117 -0.5288 -3.3992
 5463SOL    HW221520   0.647   3.241   1.614  2.1562  0.5505  2.6973
 5464SOL     OW21521   4.149   0.421   8.653  0.1222 -0.0116 -0.2584
 5464SOL    HW121522   4.141   0.514   8.675 -0.8342 -0.6683  2.3521
 5464SOL    HW221523   4.059   0.394   8.631  0.5911 -0.0632 -2.2158
 5465SOL     OW21524  10.993   0.808   3.244 -0.1263  0.2051  0.8089
 5465SOL    HW121525  10.909   0.790   3.201 -0.4089  2.9214  0.1113
 5465SOL    HW221526  11.059   0.779   3.180 -0.5506  2.1780 -0.5624
 5466SOL     OW21527   1.844   2.151   7.238 -0.4241 -0.0449  0.1189
 5466SOL    HW121528   1.864   2.092   7.165  0.6278  0.3469  0.0776
 5466SOL    HW221529   1.751   2.168   7.230 -0.6927 -1.5367  0.0073
 5467SOL     OW21530   7.787   0.429   5.752  0.2901 -0.1368 -0.4155
 5467SOL    HW121531   7.762   0.340   5.729 -3.7073  0.6257  0.5171
 5467SOL    HW221532   7.753   0.441   5.841  0.4816  2.3802 -0.6461
 5468SOL     OW21533   3.195   8.479   8.627 -0.2032  0.3432  0.4686
 5468SOL    HW121534   3.193   8.395   8.583  1.6102 -0.2316  1.4092
 5468SOL    HW221535   3.103   8.499   8.646 -0.8463 -0.2531 -1.8779
 5469SOL     OW21536   5.920   1.509   9.815  0.3496 -0.7074  0.4887
 5469SOL    HW121537   6.011   1.538   9.822  0.7570 -1.9004  0.3045
 5469SOL    HW221538   5.895   1.487   9.905 -0.0372  0.4319  0.6642
 5470SOL     OW21539   7.219   4.214   6.615 -0.0894 -0.4567 -0.0562
 5470SOL    HW121540   7.253   4.286   6.562 -0.4668 -0.0881  0.1974
 5470SOL    HW221541   7.281   4.143   6.602 -0.6503 -0.6825 -1.7148
 5471SOL     OW21542   9.372   2.244   7.466 -0.0818 -0.5405 -0.6159
 5471SOL    HW121543   9.278   2.234   7.475 -0.0340 -0.4525 -0.0030
 5471SOL    HW221544   9.409   2.167   7.508  0.1161 -0.6029 -0.9036
 5472SOL     OW21545  10.150   7.592   9.657 -0.2202 -0.2662  0.1395
 5472SOL    HW121546  10.137   7.498   9.647 -0.2553 -0.2594  0.1197
 5472SOL    HW221547  10.203   7.617   9.581  1.7642 -0.6661  1.3702
 5473SOL     OW21548   7.881   2.310   2.315  0.5513  0.1501  0.6511
 5473SOL    HW121549   7.888   2.227   2.267  0.1277  0.8345 -0.6190
 5473SOL    HW221550   7.844   2.286   2.400 -1.7041 -0.6724 -0.5527
 5474SOL     OW21551   2.202   7.742   4.901  0.2404  0.4233 -0.1417
 5474SOL    HW121552   2.230   7.680   4.833  2.2651  1.7591 -0.5541
 5474SOL    HW221553   2.168   7.817   4.853 -0.3187  0.4794  0.3410
 5475SOL     OW21554   3.195   7.902   8.001 -0.0246 -0.2326 -0.1325
 5475SOL    HW121555   3.214   7.846   8.076  1.9389 -0.3345 -0.6573
 5475SOL    HW221556   3.219   7.849   7.925 -0.3493  0.4770 -0.7400
 5476SOL     OW21557   4.423   2.871  10.077  0.1755 -0.1828 -0.5905
 5476SOL    HW121558   4.364   2.867  10.002 -0.3737 -1.1419 -0.1289
 5476SOL    HW221559   4.377   2.926  10.140  0.5599  0.4838 -0.8899
 5477SOL     OW21560   6.659  10.689  10.618 -0.4208  0.5257 -0.4721
 5477SOL    HW121561   6.652  10.781  10.645  1.3248  0.9487 -1.3948
 5477SOL    HW221562   6.736  10.656  10.664 -0.6962 -0.3280 -0.6124
 5478SOL     OW21563   0.545   4.931   1.910 -0.7382  0.6036  0.5658
 5478SOL    HW121564   0.607   4.982   1.962 -0.6666  1.3244 -0.2095
 5478SOL    HW221565   0.470   4.989   1.898 -1.0237  0.2038  0.4153
 5479SOL     OW21566   4.235   0.156   9.920  0.2820 -0.0056  0.0400
 5479SOL    HW121567   4.173   0.136   9.851 -1.6010  2.2787  0.9799
 5479SOL    HW221568   4.301   0.211   9.878 -0.9275  1.4880  0.0276
 5480SOL     OW21569   1.940   8.629   9.009 -0.5692 -0.4551  0.2060
 5480SOL    HW121570   1.946   8.602   8.917 -2.3145 -0.7896  0.1744
 5480SOL    HW221571   1.902   8.553   9.053 -1.3984  0.3442  0.8917
 5481SOL     OW21572   4.555   8.917  10.782 -0.4052 -0.2163  0.4614
 5481SOL    HW121573   4.587   8.986  10.725  0.1824  0.0849  1.1541
 5481SOL    HW221574   4.465   8.900  10.752  0.0163 -0.2914 -0.7505
 5482SOL     OW21575  11.284   5.277   9.776  0.1915 -0.8108  0.1099
 5482SOL    HW121576  11.294   5.291   9.870 -0.8943  0.5001  0.0515
 5482SOL    HW221577  11.203   5.227   9.767  0.3540 -1.0345 -0.1137
 5483SOL     OW21578   1.611  10.645   6.122 -0.5529 -0.2093  0.4743
 5483SOL    HW121579   1.611  10.740   6.119 -1.1238 -0.1962  0.9196
 5483SOL    HW221580   1.607  10.618   6.030 -2.2303  0.2013  0.4095
 5484SOL     OW21581  11.188   4.260   3.138 -0.2212 -0.1078  0.5830
 5484SOL    HW121582  11.277   4.228   3.141 -0.3051 -0.6906 -2.0276
 5484SOL    HW221583  11.134   4.187   3.169 -0.1424 -1.4587 -2.2899
 5485SOL     OW21584   8.438   5.292   9.469  0.6402  0.6304 -0.7634
 5485SOL    HW121585   8.404   5.382   9.462 -1.2438  0.0388  0.3433
 5485SOL    HW221586   8.416   5.252   9.385 -0.3664  0.6198 -0.5080
 5486SOL     OW21587   8.740  11.267   6.548  0.0661  0.0591 -0.0178
 5486SOL    HW121588   8.702  11.352   6.570  2.3830  1.1194  0.0204
 5486SOL    HW221589   8.834  11.281   6.551  0.4915 -2.4877 -0.1717
 5487SOL     OW21590   6.444   7.162   2.481 -0.3352  0.4338  0.0025
 5487SOL    HW121591   6.358   7.190   2.449 -1.1777 -1.5503  0.4753
 5487SOL    HW221592   6.459   7.078   2.439  1.3576  0.7301 -0.0049
 5488SOL     OW21593   7.290   6.584   8.382  0.0384  0.2127  0.1845
 5488SOL    HW121594   7.377   6.624   8.391  0.4939 -0.1807 -2.3817
 5488SOL    HW221595   7.232   6.658   8.365  0.1190  0.2948  0.2629
 5489SOL     OW21596   9.612   0.226   1.321  0.3727 -0.7706 -0.3094
 5489SOL    HW121597   9.621   0.262   1.409  0.8073 -0.7008 -0.3819
 5489SOL    HW221598   9.588   0.134   1.335 -1.7045 -0.2216 -0.1290
 5490SOL     OW21599   0.854  11.131  10.004  0.6329  0.0216  0.0394
 5490SOL    HW121600   0.860  11.056  10.064 -1.0271  0.4203  0.7159
 5490SOL    HW221601   0.917  11.194  10.040  1.6863 -0.8425 -0.2562
 5491SOL     OW21602   4.360   6.533   5.316  0.1199 -0.0781 -0.4487
 5491SOL    HW121603   4.324   6.622   5.313 -1.1823 -0.5662  0.2207
 5491SOL    HW221604   4.318   6.487   5.244 -0.4483 -0.5919  0.2006
 5492SOL     OW21605   0.462   3.884   0.418 -0.0622  0.2980 -0.6043
 5492SOL    HW121606   0.512   3.803   0.428 -0.0696  0.3575 -0.0786
 5492SOL    HW221607   0.409   3.890   0.497  0.2391  1.0283 -0.4498
 5493SOL     OW21608   5.878  11.265  10.768 -0.1886  0.2308  0.4618
 5493SOL    HW121609   5.885  11.194  10.832  0.6325  0.9349  1.1637
 5493SOL    HW221610   5.966  11.300  10.761 -0.6623  1.4328  0.4070
 5494SOL     OW21611   9.563   5.806   5.814  0.1250  0.2360  0.3197
 5494SOL    HW121612   9.486   5.847   5.853  1.1206  1.0195  1.5275
 5494SOL    HW221613   9.606   5.761   5.887  0.0996 -1.3261 -0.6049
 5495SOL     OW21614   7.739   0.226   4.955 -0.0378 -0.7557 -0.0464
 5495SOL    HW121615   7.705   0.251   4.869 -2.2892  0.9484  1.2900
 5495SOL    HW221616   7.693   0.145   4.976 -0.3799 -0.5228  0.0923
 5496SOL     OW21617   6.521   0.050   2.263 -0.3540  0.2352  0.5524
 5496SOL    HW121618   6.588   0.097   2.312 -0.0429  0.1630  0.2013
 5496SOL    HW221619   6.552  -0.040   2.259 -0.0138  0.3830 -0.3927
 5497SOL     OW21620   9.190   0.376   3.066  0.1301 -0.7525 -0.3087
 5497SOL    HW121621   9.114   0.319   3.081 -0.5246 -0.1415 -1.2847
 5497SOL    HW221622   9.236   0.376   3.150 -1.3778 -0.5052  0.5410
 5498SOL     OW21623   1.114   0.296  10.643 -0.5004  0.5410  0.5081
 5498SOL    HW121624   1.046   0.239  10.607  0.5320 -0.5340  0.2315
 5498SOL    HW221625   1.068   0.375  10.670 -1.7247  0.1856 -0.5169
 5499SOL     OW21626  10.189   2.006   3.292 -0.0275 -0.0099  0.1612
 5499SOL    HW121627  10.215   1.921   3.257 -0.5654 -0.0174 -0.2187
 5499SOL    HW221628  10.247   2.019   3.368 -0.0083 -0.7555  0.2805
 5500SOL     OW21629   1.332   0.918   1.295  0.8288  0.4768  0.4176
 5500SOL    HW121630   1.302   0.864   1.222  0.5815  0.3767  0.5925
 5500SOL    HW221631   1.376   0.992   1.254  1.0359  0.2178  0.1727
 5501SOL     OW21632   2.412   3.724   0.448 -0.0187 -0.0371  0.4580
 5501SOL    HW121633   2.443   3.807   0.412  2.1806 -0.8246  0.4909
 5501SOL    HW221634   2.330   3.707   0.403  0.1465  1.5406 -0.4448
 5502SOL     OW21635   9.453   7.397   8.447 -0.1230  0.6998 -0.3300
 5502SOL    HW121636   9.533   7.344   8.455  0.2385  1.1939 -0.6191
 5502SOL    HW221637   9.413   7.369   8.365 -0.8374 -0.3487  0.3816
 5503SOL     OW21638  10.492   1.775   4.212  0.2271 -0.0701 -0.2361
 5503SOL    HW121639  10.563   1.762   4.149  1.3756  0.6220  0.9046
 5503SOL    HW221640  10.534   1.772   4.298 -1.4592 -1.9662  0.5772
 5504SOL     OW21641   9.997   4.145   9.260 -0.0114  0.2439  0.4478
 5504SOL    HW121642   9.937   4.105   9.196 -1.7226 -0.4461  2.4166
 5504SOL    HW221643   9.984   4.240   9.249  0.5416  0.1570 -0.9875
 5505SOL     OW21644   0.444   2.507   9.971 -0.8475  0.1628 -0.1982
 5505SOL    HW121645   0.414   2.493   9.882 -1.7700 -0.1755  0.1649
 5505SOL    HW221646   0.510   2.576   9.964 -1.8964  1.0980 -0.9652
 5506SOL     OW21647   5.281   1.976   9.067  0.0012  0.1893 -0.0962
 5506SOL    HW121648   5.350   2.042   9.059 -1.4573  1.7609  0.1558
 5506SOL    HW221649   5.298   1.933   9.151  0.5786  0.6595  0.0314
 5507SOL     OW21650   5.617  10.707   5.545 -0.1879  0.3936  0.1890
 5507SOL    HW121651   5.584  10.619   5.561  2.0612 -0.3670  0.7692
 5507SOL    HW221652   5.686  10.719   5.610 -0.8773  2.8299  0.5082
 5508SOL     OW21653   1.321  10.216   4.216  0.0764 -0.1058  0.4451
 5508SOL    HW121654   1.385  10.214   4.145 -1.2545  0.1371 -0.7864
 5508SOL    HW221655   1.321  10.127   4.252 -0.0795 -0.5428 -0.6333
 5509SOL     OW21656   1.942   5.381   9.514 -0.2389  0.0508 -0.0449
 5509SOL    HW121657   1.890   5.444   9.563 -0.2467  0.9462 -1.1845
 5509SOL    HW221658   1.986   5.433   9.447  0.1666 -1.0720 -0.6672
 5510SOL     OW21659   1.366   7.556   4.799  0.0783  0.2276 -0.0260
 5510SOL    HW121660   1.306   7.628   4.818  0.2792  0.1937  0.7613
 5510SOL    HW221661   1.314   7.476   4.816  0.2540  0.1974  0.3770
 5511SOL     OW21662   8.121   8.834   5.665  0.2111 -0.1840 -0.2423
 5511SOL    HW121663   8.192   8.823   5.728 -0.3901 -0.6106  0.3787
 5511SOL    HW221664   8.129   8.924   5.635  2.0332 -0.7273 -1.4484
 5512SOL     OW21665   4.840   1.058   0.526 -0.3714  0.0119 -0.0411
 5512SOL    HW121666   4.858   1.136   0.474  0.3509 -0.1439 -0.0285
 5512SOL    HW221667   4.926   1.024   0.550 -0.6891 -0.0915  0.9958
 5513SOL     OW21668   4.277   5.997   2.687 -0.0222  0.1237 -0.1191
 5513SOL    HW121669   4.277   6.093   2.682 -0.4181  0.1640  0.6756
 5513SOL    HW221670   4.289   5.978   2.779 -0.5417 -0.5912 -0.2011
 5514SOL     OW21671   6.810   5.250   3.425 -0.3641 -0.4999  0.1399
 5514SOL    HW121672   6.830   5.199   3.346 -1.1876 -0.5885 -0.0175
 5514SOL    HW221673   6.878   5.318   3.428 -1.0180  0.2531 -1.3192
 5515SOL     OW21674  10.564   2.127   6.110 -0.2498  0.3876  0.3392
 5515SOL    HW121675  10.582   2.038   6.079 -0.6798  0.5401 -0.3870
 5515SOL    HW221676  10.648   2.159   6.142  0.2481  0.2393 -0.7657
 5516SOL     OW21677   5.706   9.357   4.616  0.5643 -0.1083 -0.4556
 5516SOL    HW121678   5.667   9.356   4.529 -1.3280  0.8343  0.3403
 5516SOL    HW221679   5.773   9.425   4.612 -1.3423  1.8185 -0.4455
 5517SOL     OW21680  10.714   9.536   0.685 -0.3106  0.0799 -0.0021
 5517SOL    HW121681  10.702   9.511   0.776  0.4648 -0.2634  0.0106
 5517SOL    HW221682  10.773   9.469   0.649 -0.3663  0.3844 -0.6689
 5518SOL     OW21683   6.355   0.325   2.503 -0.4388 -0.2617 -0.2182
 5518SOL    HW121684   6.340   0.353   2.594 -2.1470  0.1637 -0.6176
 5518SOL    HW221685   6.359   0.230   2.508  0.0255 -0.2174  0.3827
 5519SOL     OW21686   2.888   0.297   0.527  0.4488  0.4067 -0.1535
 5519SOL    HW121687   2.944   0.284   0.603 -1.8763 -0.4352  1.4512
 5519SOL    HW221688   2.884   0.392   0.516  2.6123  0.4820 -0.6746
 5520SOL     OW21689   1.169  11.286  10.707 -0.2934  0.6383 -0.0877
 5520SOL    HW121690   1.171  11.338  10.626  1.2943  1.2539  0.3387
 5520SOL    HW221691   1.246  11.230  10.701 -0.1697  0.6887  1.0112
 5521SOL     OW21692   3.994   3.191   3.146 -0.1516 -0.2815  0.8191
 5521SOL    HW121693   3.946   3.193   3.229 -1.3781  0.7521  0.0939
 5521SOL    HW221694   3.933   3.226   3.081  0.7988 -1.0708 -0.5304
 5522SOL     OW21695   8.017  10.786   9.655 -0.3700 -0.0024  0.0468
 5522SOL    HW121696   7.997  10.792   9.562 -1.3081  0.0269  0.2512
 5522SOL    HW221697   8.105  10.748   9.658  0.0412  0.8437 -0.8695
 5523SOL     OW21698   1.856   5.485   4.130 -0.2146  0.1358  0.4464
 5523SOL    HW121699   1.795   5.463   4.060 -1.2752  1.5405  0.9089
 5523SOL    HW221700   1.942   5.461   4.095 -1.0124 -2.0746 -0.1357
 5524SOL     OW21701   3.500   5.018   5.816  0.0634 -0.1623 -0.1691
 5524SOL    HW121702   3.450   5.003   5.736 -0.8444  0.1202  0.3424
 5524SOL    HW221703   3.444   4.984   5.886  1.5414 -1.9275  0.2078
 5525SOL     OW21704   0.631   6.712   6.912 -0.0605 -0.8195 -0.2864
 5525SOL    HW121705   0.671   6.735   6.995  0.4683 -1.3485 -0.3927
 5525SOL    HW221706   0.545   6.678   6.935 -0.9916  1.5212 -0.1455
 5526SOL     OW21707   5.140   4.895   0.961 -0.1637 -0.9339  0.3399
 5526SOL    HW121708   5.206   4.831   0.987  0.1205 -0.4251  0.8607
 5526SOL    HW221709   5.122   4.874   0.869  1.1505 -0.6959  0.0292
 5527SOL     OW21710   5.728   0.896  10.925 -0.1755 -0.1686 -0.1001
 5527SOL    HW121711   5.760   0.812  10.958 -1.0662 -0.7799 -0.7676
 5527SOL    HW221712   5.807   0.940  10.894  0.1786 -1.1845 -0.6941
 5528SOL     OW21713   9.270   5.615   1.527  0.2091  0.3442  0.6027
 5528SOL    HW121714   9.347   5.602   1.471  0.3991  0.6979  0.7814
 5528SOL    HW221715   9.197   5.627   1.465 -0.2751 -3.0143  0.3761
 5529SOL     OW21716   3.363   6.139   5.860  0.0076 -0.2784  0.0964
 5529SOL    HW121717   3.412   6.214   5.895  0.9303 -1.7608  2.1171
 5529SOL    HW221718   3.356   6.156   5.766 -1.7015  3.4046  0.7983
 5530SOL     OW21719   0.278   3.578   2.614 -0.0331 -0.1486 -0.1710
 5530SOL    HW121720   0.261   3.634   2.689  2.1882  1.1779 -0.6035
 5530SOL    HW221721   0.370   3.555   2.622 -0.0207 -0.8050 -1.9330
 5531SOL     OW21722   4.464  10.052  11.116 -0.3889  0.4433  0.0655
 5531SOL    HW121723   4.454   9.957  11.122  0.7342  0.1693 -2.0912
 5531SOL    HW221724   4.495  10.078  11.203 -1.3059 -1.0622  0.8686
 5532SOL     OW21725   8.016   8.399   8.564  0.4408 -0.1781  0.0924
 5532SOL    HW121726   8.016   8.403   8.660 -0.0277 -1.8858  0.1889
 5532SOL    HW221727   8.095   8.348   8.543 -0.9205 -2.2036 -0.2718
 5533SOL     OW21728  11.192   7.601   9.242  0.2215  0.2677  0.5198
 5533SOL    HW121729  11.191   7.677   9.183 -1.0628  0.7877  1.1974
 5533SOL    HW221730  11.115   7.613   9.297 -0.2910 -1.8292  0.2688
 5534SOL     OW21731   4.211  10.473   3.454 -0.7169 -0.2332  0.0290
 5534SOL    HW121732   4.266  10.531   3.505 -0.5169  0.1587 -0.6248
 5534SOL    HW221733   4.218  10.388   3.498  1.3892 -0.4862 -0.7656
 5535SOL     OW21734   3.392   5.867   5.276 -0.5110 -0.0932 -0.4253
 5535SOL    HW121735   3.302   5.881   5.244 -0.3832 -0.5656 -1.0052
 5535SOL    HW221736   3.383   5.800   5.344 -0.7055  0.4659  0.1004
 5536SOL     OW21737   8.347   9.824   7.485 -0.2204 -0.3015 -0.0097
 5536SOL    HW121738   8.274   9.816   7.546  0.0461  1.7303  0.6282
 5536SOL    HW221739   8.319   9.891   7.423  0.4242 -0.7407 -0.7906
 5537SOL     OW21740  11.187  10.960   2.308 -0.3955 -0.2850  0.3880
 5537SOL    HW121741  11.212  10.929   2.395  1.6296 -1.3980 -0.5547
 5537SOL    HW221742  11.170  11.054   2.320  1.0425 -0.1832  1.7617
 5538SOL     OW21743   3.546   6.154   3.190  0.4711  0.6743  0.1101
 5538SOL    HW121744   3.580   6.098   3.260  0.1852  0.8465  0.3846
 5538SOL    HW221745   3.466   6.192   3.226 -0.9645 -1.0814 -1.1628
 5539SOL     OW21746   1.448   7.265   4.139 -0.1843  0.1170  0.2344
 5539SOL    HW121747   1.499   7.327   4.190 -2.0711  0.5525  1.6168
 5539SOL    HW221748   1.359   7.272   4.173 -0.7562 -2.1765 -0.6728
 5540SOL     OW21749   2.756   9.647   7.775  1.0677  0.6030 -0.0575
 5540SOL    HW121750   2.662   9.654   7.788  0.4768 -3.1803 -1.6119
 5540SOL    HW221751   2.783   9.575   7.833  2.1884 -1.2331 -2.7523
 5541SOL     OW21752   0.665   7.835   7.640 -0.1916  0.2521 -0.3481
 5541SOL    HW121753   0.642   7.862   7.551 -0.3595 -1.6035 -0.8947
 5541SOL    HW221754   0.754   7.802   7.633 -0.1913  0.1340  0.1843
 5542SOL     OW21755  11.013   8.224   2.173  0.2861 -0.1093  0.2479
 5542SOL    HW121756  10.961   8.208   2.095  3.3277  1.6801 -2.2802
 5542SOL    HW221757  11.064   8.144   2.186 -0.2131 -0.4029  0.3890
 5543SOL     OW21758   8.938   1.521   6.610  0.4698  0.2932  0.0915
 5543SOL    HW121759   8.892   1.563   6.683  0.6310 -0.7194  0.7950
 5543SOL    HW221760   8.940   1.428   6.634  2.8982  0.3092  0.0771
 5544SOL     OW21761   2.914   0.157   5.866  0.5304  0.1728 -0.3607
 5544SOL    HW121762   2.956   0.226   5.815  2.4703 -1.2485 -0.7314
 5544SOL    HW221763   2.915   0.191   5.956  1.6858  0.5433 -0.4967
 5545SOL     OW21764   1.784   8.894   9.694  0.3660 -0.4665 -0.1733
 5545SOL    HW121765   1.789   8.819   9.635  0.5940 -0.8974  0.3800
 5545SOL    HW221766   1.864   8.889   9.746  1.2690  1.2569 -1.4007
 5546SOL     OW21767  11.177   4.019   0.951  0.1247 -0.1225 -0.0601
 5546SOL    HW121768  11.248   4.007   1.014  0.3225 -2.5922 -0.6620
 5546SOL    HW221769  11.140   3.931   0.940 -2.9522  1.0791  0.1207
 5547SOL     OW21770   2.610   5.729   8.768  0.5597  0.2512  0.7187
 5547SOL    HW121771   2.663   5.655   8.738  0.4482  1.4505 -2.7258
 5547SOL    HW221772   2.521   5.696   8.773  0.6094 -0.0301 -0.2016
 5548SOL     OW21773   9.248   4.829   7.076  0.1892  0.1290 -0.5274
 5548SOL    HW121774   9.220   4.815   6.985 -0.3923  1.2215 -0.5307
 5548SOL    HW221775   9.342   4.812   7.075 -0.1278 -1.6718 -0.9344
 5549SOL     OW21776   7.251   6.847   0.751 -0.2429  0.2552 -0.0134
 5549SOL    HW121777   7.250   6.791   0.829  0.7072  0.1941 -0.0376
 5549SOL    HW221778   7.252   6.785   0.677 -2.3654  0.3073 -0.1144
 5550SOL     OW21779   9.758   5.658  10.658  0.4628 -0.2564 -0.4286
 5550SOL    HW121780   9.843   5.688  10.691  0.1112 -0.0062  0.2655
 5550SOL    HW221781   9.752   5.567  10.686 -1.2560  0.8762  3.1197
 5551SOL     OW21782   7.177   4.394   8.902  0.1995 -0.2748  0.6236
 5551SOL    HW121783   7.163   4.399   8.807 -0.3418  0.5205  0.7450
 5551SOL    HW221784   7.097   4.354   8.936 -0.7886  2.0366  1.0539
 5552SOL     OW21785   7.279   5.383   6.716  0.3578 -0.4503  0.3001
 5552SOL    HW121786   7.186   5.399   6.732 -0.1373 -2.1668 -0.7284
 5552SOL    HW221787   7.305   5.451   6.654 -0.4269 -0.4977 -0.0828
 5553SOL     OW21788   9.310  10.898  10.631  0.7366  0.1832 -0.0343
 5553SOL    HW121789   9.354  10.813  10.625 -1.7438 -1.2089  0.4358
 5553SOL    HW221790   9.281  10.916  10.542  0.9481  0.3356 -0.0699
 5554SOL     OW21791   8.188   1.763   8.900  0.1057 -0.1608  0.3409
 5554SOL    HW121792   8.178   1.702   8.827  0.4045 -0.4724  0.5606
 5554SOL    HW221793   8.203   1.848   8.858  0.3099 -0.3447  0.0418
 5555SOL     OW21794   9.302   5.087   2.789 -0.2054 -0.0086 -0.3230
 5555SOL    HW121795   9.282   5.022   2.721  1.0235 -1.5883  0.7690
 5555SOL    HW221796   9.396   5.101   2.781  0.1300 -0.9382  1.6346
 5556SOL     OW21797   7.559   5.256   6.249  0.2006 -0.0805 -0.1544
 5556SOL    HW121798   7.587   5.317   6.181  1.8959  0.7628  1.2439
 5556SOL    HW221799   7.476   5.291   6.280  1.7250  2.2954  1.4723
 5557SOL     OW21800   0.252   4.537   9.712  0.3819  0.1295 -0.0195
 5557SOL    HW121801   0.189   4.466   9.699 -0.5480  0.8846  0.3234
 5557SOL    HW221802   0.202   4.617   9.694  1.2175  0.7384  0.3440
 5558SOL     OW21803   3.561   8.321   6.663 -0.3289 -0.0930  0.2905
 5558SOL    HW121804   3.559   8.225   6.660 -0.8775 -0.1197  1.3670
 5558SOL    HW221805   3.479   8.348   6.621  0.9455 -0.0341 -2.2136
 5559SOL     OW21806   9.220   9.458   9.573 -0.5568 -0.1141  0.2684
 5559SOL    HW121807   9.229   9.393   9.505  1.7614 -0.6572  1.0427
 5559SOL    HW221808   9.142   9.431   9.623 -0.8355 -1.0692 -0.6756
 5560SOL     OW21809   1.217   4.545   7.628 -0.2410 -0.6019 -0.7797
 5560SOL    HW121810   1.268   4.540   7.709 -0.9346  1.3886 -0.1802
 5560SOL    HW221811   1.274   4.509   7.561  1.7140  0.9103  0.0166
 5561SOL     OW21812   6.035   2.668   4.537 -0.1376  0.0667 -0.2082
 5561SOL    HW121813   6.056   2.687   4.629  0.4380 -2.3134  0.1814
 5561SOL    HW221814   6.074   2.741   4.488  0.4800  0.8077  1.3471
 5562SOL     OW21815   7.238   3.161  10.301  0.3305 -0.4112 -0.3938
 5562SOL    HW121816   7.307   3.142  10.365  1.1007 -0.2126 -1.1539
 5562SOL    HW221817   7.234   3.257  10.298 -1.9755 -0.3641  1.7493
 5563SOL     OW21818   5.522  10.071   0.275 -0.4936  0.2931  0.1316
 5563SOL    HW121819   5.589  10.092   0.210 -1.3775  2.1728 -0.2295
 5563SOL    HW221820   5.568  10.072   0.358 -0.1465  2.1548 -0.0517
 5564SOL     OW21821   6.333   9.655   5.115  0.0599 -0.2877 -0.5855
 5564SOL    HW121822   6.377   9.739   5.103  2.0133 -1.3045 -0.7969
 5564SOL    HW221823   6.352   9.606   5.035  2.2462 -2.3417  1.1324
 5565SOL     OW21824   6.797   6.480   9.311  0.3602 -0.0688  0.8248
 5565SOL    HW121825   6.781   6.393   9.274 -0.5890  0.2993  0.3664
 5565SOL    HW221826   6.716   6.502   9.358  0.5394  0.6317  0.8140
 5566SOL     OW21827   5.627   3.324   9.333 -0.5332  0.1363  0.2253
 5566SOL    HW121828   5.601   3.336   9.424  0.3151 -0.4632  0.5618
 5566SOL    HW221829   5.564   3.262   9.297  0.0371 -0.8411  0.8596
 5567SOL     OW21830   0.674   0.881   4.478 -0.1124 -0.0465 -0.3054
 5567SOL    HW121831   0.742   0.930   4.525  1.3970 -1.8148 -0.5912
 5567SOL    HW221832   0.632   0.827   4.545 -2.0841  1.8923  0.0953
 5568SOL     OW21833   5.348   8.950   5.370  0.7136 -0.6128  0.6241
 5568SOL    HW121834   5.415   8.981   5.431  1.2499 -0.8527  0.1605
 5568SOL    HW221835   5.392   8.948   5.285  0.2156 -1.0874  0.3728
 5569SOL     OW21836   7.354  10.590  10.723  0.1770  0.1996  0.8338
 5569SOL    HW121837   7.439  10.630  10.706  0.8366 -1.8778 -0.9930
 5569SOL    HW221838   7.321  10.635  10.801  1.7484  2.8673 -0.0058
 5570SOL     OW21839   5.051   4.886   0.689  0.1731  0.1042 -0.0782
 5570SOL    HW121840   5.019   4.797   0.672  1.4942 -0.5009  0.4996
 5570SOL    HW221841   5.077   4.920   0.604  0.0736 -0.2224 -0.2390
 5571SOL     OW21842  10.189   2.397   5.980  0.4544 -0.2046  0.7916
 5571SOL    HW121843  10.134   2.409   6.058  2.2630  0.9295  1.9184
 5571SOL    HW221844  10.258   2.337   6.009  0.8563 -0.1705 -0.0841
 5572SOL     OW21845   0.152   5.916   7.381 -0.3578 -0.0880 -0.3100
 5572SOL    HW121846   0.168   5.868   7.463 -0.3357  0.1822 -0.1556
 5572SOL    HW221847   0.068   5.960   7.396 -0.5050 -0.2845 -0.5493
 5573SOL     OW21848   5.327   5.407  11.311  0.0772  0.3487 -0.1423
 5573SOL    HW121849   5.287   5.359  11.240  0.8800  0.0413 -0.3971
 5573SOL    HW221850   5.297   5.363  11.391  0.6787 -0.4718 -0.3679
 5574SOL     OW21851   4.268   0.740   3.179  0.2675 -0.4450 -0.3745
 5574SOL    HW121852   4.178   0.771   3.171  0.0612 -0.7995  0.4549
 5574SOL    HW221853   4.261   0.645   3.184  0.5447 -0.4064  1.2016
 5575SOL     OW21854   3.160  10.702   3.734 -0.4964 -0.1978  0.0126
 5575SOL    HW121855   3.251  10.722   3.710 -0.7677  1.5316  0.3739
 5575SOL    HW221856   3.124  10.658   3.657 -0.4329  2.4572 -1.6084
 5576SOL     OW21857   0.539   0.976  10.515 -0.0061  0.4446 -0.0294
 5576SOL    HW121858   0.559   0.989  10.422  0.1055  0.6130  0.0163
 5576SOL    HW221859   0.614   1.015  10.560 -0.1574  0.5427  0.1348
 5577SOL     OW21860   2.396   9.401   8.662  0.5411 -0.3889  0.8773
 5577SOL    HW121861   2.467   9.370   8.606 -0.0210  1.8822 -1.1646
 5577SOL    HW221862   2.328   9.334   8.654  0.9413 -0.6728 -0.1819
 5578SOL     OW21863   9.887   5.289   7.140 -1.0584  0.0302 -0.2387
 5578SOL    HW121864   9.958   5.342   7.177 -1.5021  1.4776 -1.3871
 5578SOL    HW221865   9.893   5.205   7.185  0.1230  0.8211  1.1169
 5579SOL     OW21866   5.255   8.621   0.434  0.2079  0.1424  0.1346
 5579SOL    HW121867   5.270   8.633   0.528  2.4932 -2.9685  0.2703
 5579SOL    HW221868   5.337   8.650   0.393  0.1799 -0.8638 -0.6526
 5580SOL     OW21869   2.803   0.385   8.181  0.5002  0.4519  0.1664
 5580SOL    HW121870   2.843   0.345   8.259  0.6399 -0.4691 -0.3796
 5580SOL    HW221871   2.873   0.439   8.144  0.7057  0.1926  0.1760
 5581SOL     OW21872   8.618   3.250   2.905 -0.0703 -0.1733 -0.0060
 5581SOL    HW121873   8.609   3.307   2.982 -0.1796 -0.0569 -0.1050
 5581SOL    HW221874   8.634   3.163   2.942  2.5860  0.3446  0.1272
 5582SOL     OW21875   4.390   5.258   3.553  0.6530  0.2476  0.4902
 5582SOL    HW121876   4.311   5.309   3.563 -0.0958 -0.8588  0.3308
 5582SOL    HW221877   4.360   5.167   3.555  1.6379 -0.1560 -1.7315
 5583SOL     OW21878   3.359   7.984   4.534 -0.2424 -0.2141 -0.2251
 5583SOL    HW121879   3.376   8.067   4.489 -1.8107  0.4777  0.4446
 5583SOL    HW221880   3.342   8.009   4.625 -1.9827 -1.1396 -0.2788
 5584SOL     OW21881   6.591   5.842   9.968  0.0202 -0.4470  0.2290
 5584SOL    HW121882   6.540   5.767   9.999  0.6806 -0.7137  0.6848
 5584SOL    HW221883   6.543   5.919  10.000 -0.8543 -0.6628 -0.5506
 5585SOL     OW21884   9.419   5.194   0.927  0.0244 -0.1287  0.4028
 5585SOL    HW121885   9.347   5.236   0.881 -0.7033 -1.7367  0.0389
 5585SOL    HW221886   9.379   5.155   1.004  1.3468  3.1014  2.8548
 5586SOL     OW21887   5.881   3.525   4.631 -0.1831  0.3206 -0.2488
 5586SOL    HW121888   5.866   3.532   4.725  0.2604  1.6973 -0.2732
 5586SOL    HW221889   5.952   3.587   4.613 -1.1948  1.0907 -1.7053
 5587SOL     OW21890   7.759   2.014  11.210  0.2456  0.0047  0.1538
 5587SOL    HW121891   7.821   2.006  11.137  1.0734  2.7617  0.4875
 5587SOL    HW221892   7.716   2.098  11.195 -0.8504 -0.2302  1.9031
 5588SOL     OW21893   2.774   5.235   5.792  0.3767  0.3230  0.3211
 5588SOL    HW121894   2.757   5.329   5.793  0.9789  0.4575 -0.7373
 5588SOL    HW221895   2.689   5.194   5.781 -0.1357  0.6469  2.7474
 5589SOL     OW21896   3.980   9.294   4.466  0.3442 -0.3435  0.2840
 5589SOL    HW121897   3.910   9.329   4.412  0.4738  0.4173  0.6118
 5589SOL    HW221898   3.935   9.248   4.537  0.1779 -0.9628 -0.2170
 5590SOL     OW21899   2.743   7.091   0.805 -0.1270  0.2716  0.7202
 5590SOL    HW121900   2.792   7.015   0.773 -0.6412  0.2259  0.0430
 5590SOL    HW221901   2.811   7.150   0.838  0.3747  0.0951  0.0243
 5591SOL     OW21902   2.118  11.240   3.155  0.1942 -0.4697 -0.3110
 5591SOL    HW121903   2.152  11.323   3.188 -1.0182 -0.0001 -0.2240
 5591SOL    HW221904   2.131  11.245   3.060  0.9878 -0.5863 -0.2141
 5592SOL     OW21905   1.041   5.725  10.026  0.5590 -0.0109 -0.5156
 5592SOL    HW121906   1.090   5.776  10.090 -1.5720 -1.8523  2.6677
 5592SOL    HW221907   1.109   5.680   9.976  2.3177  2.7779 -0.8006
 5593SOL     OW21908   3.469   6.460  11.279 -0.2002  0.3083 -0.2873
 5593SOL    HW121909   3.471   6.554  11.293  2.4486  0.2030  0.3402
 5593SOL    HW221910   3.400   6.428  11.337 -0.4954  1.7388  0.1620
 5594SOL     OW21911   5.309   1.998   3.542 -0.5775  0.5880  0.1175
 5594SOL    HW121912   5.386   2.041   3.505 -1.0201 -0.4876 -2.1592
 5594SOL    HW221913   5.343   1.948   3.617  0.3744  2.7069  1.1203
 5595SOL     OW21914   3.598   5.715   6.638 -0.6390 -0.2416  0.3295
 5595SOL    HW121915   3.581   5.786   6.701  2.1776  0.1685  0.6885
 5595SOL    HW221916   3.580   5.635   6.687  0.8483  0.0942  1.4731
 5596SOL     OW21917   8.529   7.978   9.351  0.7245  0.4913 -0.0893
 5596SOL    HW121918   8.509   7.983   9.258 -0.3304 -1.0620  0.0555
 5596SOL    HW221919   8.586   7.902   9.359  0.6707  0.5190  0.5652
 5597SOL     OW21920   5.971   0.581   1.869 -0.0880 -0.0501  0.2400
 5597SOL    HW121921   5.986   0.488   1.849  0.8063  0.1424  0.0053
 5597SOL    HW221922   6.057   0.615   1.893 -0.0376  1.2013 -1.6265
 5598SOL     OW21923   6.379   1.386   4.202 -0.2899  0.0529 -0.2783
 5598SOL    HW121924   6.450   1.331   4.168  0.2231  1.4967 -1.6034
 5598SOL    HW221925   6.316   1.390   4.131  0.3418  2.3156 -0.7501
 5599SOL     OW21926   4.746   1.589   4.805 -0.2839  0.3789  0.0043
 5599SOL    HW121927   4.668   1.593   4.860  0.0803 -1.8385  0.7303
 5599SOL    HW221928   4.715   1.558   4.720 -0.7564  3.2561 -0.9372
 5600SOL     OW21929   5.597   5.160   9.924 -0.3015 -0.2916 -0.1837
 5600SOL    HW121930   5.679   5.169   9.875  0.3052 -1.6046  0.5539
 5600SOL    HW221931   5.528   5.176   9.859  0.5114 -0.4285 -1.0960
 5601SOL     OW21932   7.510   4.672   7.018  0.4669  0.6134  0.1338
 5601SOL    HW121933   7.451   4.729   6.969 -1.9025  0.9493  3.1931
 5601SOL    HW221934   7.485   4.583   6.992  0.0634  0.8190 -0.1761
 5602SOL     OW21935   9.309   2.307   8.595  0.3356  0.5894 -0.0681
 5602SOL    HW121936   9.309   2.370   8.667  0.5474 -0.6835  1.0532
 5602SOL    HW221937   9.362   2.234   8.627 -0.0451 -0.2343 -1.2963
 5603SOL     OW21938   4.322   7.803   3.034  0.3778  0.3311 -0.9722
 5603SOL    HW121939   4.373   7.777   3.110  0.3270 -0.0370 -1.0622
 5603SOL    HW221940   4.386   7.844   2.975  0.9136 -1.6911 -1.8371
 5604SOL     OW21941   6.311   1.329   3.126 -0.4766 -0.9670  0.3433
 5604SOL    HW121942   6.223   1.367   3.130  0.5392  1.4072  1.5790
 5604SOL    HW221943   6.364   1.396   3.081  1.1324 -1.4086  1.5274
 5605SOL     OW21944   1.206   0.964   0.166  0.1660  0.3004  0.0468
 5605SOL    HW121945   1.193   0.871   0.145 -1.2168  0.8364 -1.5474
 5605SOL    HW221946   1.153   0.978   0.245  0.5982 -0.3318  0.4521
 5606SOL     OW21947   3.210  10.311   5.447 -0.3289  0.2754  0.1974
 5606SOL    HW121948   3.135  10.296   5.504  0.4130 -0.9919  0.8537
 5606SOL    HW221949   3.195  10.252   5.373 -0.0902  0.1962  0.2146
 5607SOL     OW21950   1.464   8.185   6.983  0.0152 -0.1647 -0.2205
 5607SOL    HW121951   1.395   8.118   6.990  1.5662 -1.7804  0.0874
 5607SOL    HW221952   1.506   8.167   6.898  0.1875  0.6768 -0.3157
 5608SOL     OW21953   1.668   3.056   0.363  0.4974  0.1638  0.2511
 5608SOL    HW121954   1.661   3.149   0.386  1.2234  0.0032  1.1507
 5608SOL    HW221955   1.577   3.027   0.350  0.2794  1.0337 -0.1950
 5609SOL     OW21956   9.883   0.268   7.981 -0.3071 -0.2052  0.6021
 5609SOL    HW121957   9.826   0.328   8.028  1.4845 -0.5747  3.3721
 5609SOL    HW221958   9.881   0.187   8.032  1.0227 -0.9141 -0.4287
 5610SOL     OW21959   0.656   7.206   1.031 -0.2029 -0.2485 -0.4165
 5610SOL    HW121960   0.597   7.245   1.095  0.6228  0.9051 -0.3342
 5610SOL    HW221961   0.600   7.181   0.958 -0.9572 -0.2783  0.1728
 5611SOL     OW21962   9.863   0.864   2.334 -0.2865 -0.3733 -0.1153
 5611SOL    HW121963   9.857   0.890   2.426  1.4904 -2.0059  0.4898
 5611SOL    HW221964   9.953   0.884   2.308  0.2959 -3.1525 -0.4408
 5612SOL     OW21965   8.501   9.992   4.487  0.2303  0.3717 -0.4255
 5612SOL    HW121966   8.443  10.059   4.449  0.9015  0.8973 -0.5410
 5612SOL    HW221967   8.490   9.916   4.431 -0.4546  0.4203 -0.3643
 5613SOL     OW21968  10.295   6.528   0.005 -0.1357 -0.2221  0.3681
 5613SOL    HW121969  10.369   6.527   0.066 -0.8987 -1.0155  1.3045
 5613SOL    HW221970  10.319   6.464  -0.063  0.4567  0.2269  0.1524
 5614SOL     OW21971   7.386   8.262   5.164  0.1968 -0.1851 -0.1766
 5614SOL    HW121972   7.358   8.325   5.097  2.1445  1.2042  0.2703
 5614SOL    HW221973   7.346   8.294   5.245 -0.2419 -0.5379 -0.2493
 5615SOL     OW21974   9.696  10.235   6.573  0.1438 -0.1360 -0.6717
 5615SOL    HW121975   9.681  10.314   6.521 -3.7842 -1.0792 -1.0990
 5615SOL    HW221976   9.682  10.162   6.512 -0.1938 -1.2197  0.6596
 5616SOL     OW21977   7.347   3.075  10.045  0.6533 -0.4949  0.2209
 5616SOL    HW121978   7.278   3.110   9.987 -0.5114 -1.4747  1.0054
 5616SOL    HW221979   7.342   3.129  10.123 -0.0186 -1.3224  0.7531
 5617SOL     OW21980   1.025   6.414   7.114 -0.4890  0.2008  0.6023
 5617SOL    HW121981   1.040   6.363   7.034 -1.1033 -1.3730  1.4675
 5617SOL    HW221982   0.930   6.422   7.120 -0.5679 -1.5860  2.3112
 5618SOL     OW21983   9.926   4.451   0.936 -0.2060  0.2298 -0.1263
 5618SOL    HW121984   9.885   4.364   0.936 -0.5785  0.4019 -0.6383
 5618SOL    HW221985  10.002   4.441   0.879 -0.6699  0.4251 -0.7972
 5619SOL     OW21986   8.933  10.161  10.162 -0.0309  0.2010 -0.5120
 5619SOL    HW121987   8.894  10.206  10.087  0.8521  2.7467  0.4721
 5619SOL    HW221988   8.988  10.228  10.203 -0.8623 -0.9926  2.6718
 5620SOL     OW21989   5.889   4.414   9.807  0.3084  0.3085 -0.3246
 5620SOL    HW121990   5.945   4.359   9.753 -0.3749 -0.5429 -0.1714
 5620SOL    HW221991   5.948   4.482   9.841  1.8440 -2.0614  1.9517
 5621SOL     OW21992   5.519   3.274   5.526 -0.0207  0.0580 -0.3641
 5621SOL    HW121993   5.464   3.299   5.600  0.8079  1.9446 -0.3507
 5621SOL    HW221994   5.591   3.225   5.566 -0.2850 -0.0868 -0.0649
 5622SOL     OW21995   4.219   0.162   7.663 -0.4324 -0.1457  0.4330
 5622SOL    HW121996   4.224   0.233   7.599  1.1166  0.1790  0.8959
 5622SOL    HW221997   4.197   0.085   7.611 -0.8428  0.4232 -0.2525
 5623SOL     OW21998   8.729   8.274   4.227  0.4417  0.2197  0.4459
 5623SOL    HW121999   8.805   8.233   4.185  0.5284  0.6078  0.2238
 5623SOL    HW222000   8.755   8.365   4.241  0.1323  0.2774  0.6476
 5624SOL     OW22001   7.326  10.191   4.238  0.2265  0.6929 -0.1204
 5624SOL    HW122002   7.276  10.138   4.300 -0.3494 -0.8160 -1.8118
 5624SOL    HW222003   7.403  10.219   4.287 -0.3750 -0.1986  1.3715
 5625SOL     OW22004   3.669   9.890  10.428  0.0971  0.3463 -0.1472
 5625SOL    HW122005   3.584   9.888  10.384  0.3220  1.4050 -0.6519
 5625SOL    HW222006   3.665   9.968  10.484 -0.1478 -0.9260  1.6506
 5626SOL     OW22007   3.954   0.157   0.167 -0.2062  0.4993  0.0770
 5626SOL    HW122008   3.959   0.065   0.142  1.7416  0.3955  0.7906
 5626SOL    HW222009   3.914   0.156   0.254  1.9713  0.1117  1.1169
 5627SOL     OW22010   1.830   9.578   2.606  0.3293  0.1215  0.5419
 5627SOL    HW122011   1.884   9.645   2.564 -0.9487  0.7831 -0.0901
 5627SOL    HW222012   1.760   9.561   2.543  0.3982 -1.5035  0.8847
 5628SOL     OW22013  10.620   1.913   5.569  0.1467  0.3133 -0.5549
 5628SOL    HW122014  10.613   1.998   5.613  0.8828  0.7299 -1.2140
 5628SOL    HW222015  10.702   1.919   5.519  0.6490 -1.1080  0.0746
 5629SOL     OW22016   6.177   6.621   6.125 -0.2013 -0.3528 -0.5389
 5629SOL    HW122017   6.114   6.560   6.163 -1.1475 -0.1532 -1.7584
 5629SOL    HW222018   6.170   6.700   6.180 -1.4797 -0.0998 -1.0689
 5630SOL     OW22019   6.820   5.744   6.631 -0.2391 -0.5215 -0.0145
 5630SOL    HW122020   6.798   5.657   6.598  1.3321 -1.9199  2.4500
 5630SOL    HW222021   6.910   5.758   6.603  0.5577 -1.0443  2.1706
 5631SOL     OW22022   2.192   3.400   4.797  0.1120  0.1847  0.8920
 5631SOL    HW122023   2.185   3.331   4.863  1.5810 -1.7035 -0.8473
 5631SOL    HW222024   2.263   3.455   4.828  0.3926 -0.3522  1.2206
 5632SOL     OW22025   4.897   7.300   8.872  0.0601  0.1592 -0.3172
 5632SOL    HW122026   4.838   7.342   8.809 -0.5484  1.7313  1.2671
 5632SOL    HW222027   4.849   7.223   8.902 -0.7261  0.8321  0.1516
 5633SOL     OW22028   4.277   5.320   0.056  0.0491  0.1403  0.3454
 5633SOL    HW122029   4.183   5.304   0.052  0.5938 -3.1353 -1.1121
 5633SOL    HW222030   4.299   5.355  -0.030  0.5589 -1.7688 -0.3264
 5634SOL     OW22031   0.187   3.756   8.850 -0.4031  0.0960 -0.1601
 5634SOL    HW122032   0.130   3.776   8.775 -0.3175  4.2972  0.7698
 5634SOL    HW222033   0.136   3.783   8.926  1.9405  1.8911  0.8234
 5635SOL     OW22034   9.362   9.581   6.457 -0.3418 -0.3946  0.1508
 5635SOL    HW122035   9.325   9.582   6.546  1.8826  0.6579  1.1126
 5635SOL    HW222036   9.423   9.507   6.458  0.8671  0.5883  0.0127
 5636SOL     OW22037   7.229   2.376   4.614 -0.0615  0.1999  0.0161
 5636SOL    HW122038   7.237   2.374   4.518 -0.2854 -1.3167  0.0183
 5636SOL    HW222039   7.192   2.291   4.636  1.2194  0.0295  1.5670
 5637SOL     OW22040   6.663   6.381  10.610 -0.3534  0.1797  0.4554
 5637SOL    HW122041   6.696   6.380  10.520  0.1420  0.8181  0.6250
 5637SOL    HW222042   6.738   6.355  10.664 -1.1733 -2.1536  0.5433
 5638SOL     OW22043  11.263   6.696   2.556 -0.2306 -0.8604 -0.2046
 5638SOL    HW122044  11.277   6.751   2.633 -1.2977 -0.0870 -0.5434
 5638SOL    HW222045  11.305   6.743   2.484  0.6641 -1.5243 -0.1222
 5639SOL     OW22046   8.940   2.634   2.020 -0.3713 -0.2120  0.1741
 5639SOL    HW122047   8.996   2.682   1.958 -0.1787  0.8032  1.1198
 5639SOL    HW222048   8.851   2.663   1.998 -0.3079  0.0938  0.3163
 5640SOL     OW22049   1.700   7.978   7.782 -0.1504 -0.2737 -0.1786
 5640SOL    HW122050   1.763   7.911   7.754  1.6347  1.6523 -0.9590
 5640SOL    HW222051   1.647   7.994   7.704  0.6355  0.5361 -0.5485
 5641SOL     OW22052  10.953   1.803   3.221 -0.0605  0.5373  0.4654
 5641SOL    HW122053  10.920   1.776   3.135  0.3939  0.3671  0.3434
 5641SOL    HW222054  10.942   1.898   3.222 -0.1931  0.5243  0.2689
 5642SOL     OW22055  10.661   2.469   5.839 -0.1135  0.2364 -0.4036
 5642SOL    HW122056  10.656   2.502   5.750 -2.7206 -0.6578 -0.6341
 5642SOL    HW222057  10.701   2.540   5.889  1.8057  0.5779 -2.3307
 5643SOL     OW22058  10.297   2.059   1.108 -0.1914  0.1158  0.3103
 5643SOL    HW122059  10.345   2.095   1.034 -1.4386  1.5842  0.1769
 5643SOL    HW222060  10.213   2.106   1.107 -1.1227 -1.4916  1.2676
 5644SOL     OW22061   2.255   5.665   5.522 -0.6056  0.4417 -0.0288
 5644SOL    HW122062   2.247   5.672   5.617  0.0227  3.5275 -0.1497
 5644SOL    HW222063   2.167   5.682   5.488 -0.6539  0.1742 -0.0421
 5645SOL     OW22064   6.104   4.710   3.967 -0.1581 -0.3224 -0.8594
 5645SOL    HW122065   6.119   4.714   4.061  1.3164 -1.5582 -1.0315
 5645SOL    HW222066   6.070   4.622   3.951 -2.2440  0.5089 -1.2639
 5646SOL     OW22067   0.844   1.963   3.582  0.4756  0.6229  0.0185
 5646SOL    HW122068   0.759   1.990   3.546  0.0534  1.4721  1.6298
 5646SOL    HW222069   0.900   2.040   3.569  1.4573 -0.4302 -2.3858
 5647SOL     OW22070  10.167   3.315   4.937 -0.1287 -0.2964  0.3806
 5647SOL    HW122071  10.126   3.390   4.980 -1.1764 -1.1699  0.9243
 5647SOL    HW222072  10.141   3.323   4.845 -1.4949 -0.8098  0.7072
 5648SOL     OW22073   8.714   6.899   0.171  0.0514 -0.6675  0.4141
 5648SOL    HW122074   8.667   6.959   0.114  1.4217  0.3125  0.2936
 5648SOL    HW222075   8.801   6.889   0.131  0.2447 -1.7825  1.0744
 5649SOL     OW22076   8.582   3.846   1.335 -0.1615 -0.8949 -0.0782
 5649SOL    HW122077   8.622   3.901   1.269 -0.4507 -0.6447 -0.0434
 5649SOL    HW222078   8.505   3.808   1.292 -0.7142 -0.2319  0.3082
 5650SOL     OW22079   5.188   1.736   9.274 -0.5939  0.7066  0.5462
 5650SOL    HW122080   5.236   1.751   9.355 -0.0080  0.5028  0.2407
 5650SOL    HW222081   5.159   1.645   9.279  0.3394  0.3764  0.0651
 5651SOL     OW22082   1.091   9.362  10.307  0.6791 -0.5437  0.1697
 5651SOL    HW122083   1.173   9.394  10.271  0.3209  0.1051 -0.0829
 5651SOL    HW222084   1.023   9.410  10.259  0.2008  0.7739  2.0989
 5652SOL     OW22085   7.953   1.962   2.405  0.1928  0.3154  0.1475
 5652SOL    HW122086   8.032   2.012   2.426  0.9841  0.1479 -2.2749
 5652SOL    HW222087   7.945   1.969   2.309 -3.0096  0.7555  0.3904
 5653SOL     OW22088   9.257   0.310   2.805  0.3108 -0.6543  0.0945
 5653SOL    HW122089   9.246   0.320   2.899 -2.6973  0.1272 -0.2776
 5653SOL    HW222090   9.244   0.399   2.770  0.0277 -1.1654 -1.1292
 5654SOL     OW22091  10.552   0.249   2.726  0.0689 -0.0761  0.6233
 5654SOL    HW122092  10.473   0.255   2.779  0.0107  2.6342  0.2558
 5654SOL    HW222093  10.561   0.334   2.684  3.1690 -0.3190  0.6286
 5655SOL     OW22094   2.855   0.886   0.175  0.0780 -0.0465  0.1308
 5655SOL    HW122095   2.897   0.906   0.092  0.5367 -1.9980 -0.1303
 5655SOL    HW222096   2.761   0.890   0.157  0.1762 -0.1121 -0.3801
 5656SOL     OW22097   0.348   7.892   1.709 -0.0232  0.2070 -0.1155
 5656SOL    HW122098   0.298   7.954   1.656 -1.0385 -0.2176  0.3233
 5656SOL    HW222099   0.417   7.945   1.750  0.2313  0.6963 -1.1647
 5657SOL     OW22100  11.302   2.187   9.064  0.0797  0.9296  0.3699
 5657SOL    HW122101  11.234   2.204   8.998 -1.7695 -0.3572  1.8664
 5657SOL    HW222102  11.311   2.270   9.111 -0.4369  1.1264  0.1263
 5658SOL     OW22103   0.256   7.949   7.179 -0.4383  0.3854  0.2516
 5658SOL    HW122104   0.243   7.998   7.099 -1.1026  0.5945  0.4840
 5658SOL    HW222105   0.168   7.938   7.216 -0.1987 -0.1557  0.6822
 5659SOL     OW22106   8.766   8.914   7.502  0.2038 -0.7763 -0.0305
 5659SOL    HW122107   8.823   8.953   7.568 -2.4418 -0.9447  2.4505
 5659SOL    HW222108   8.820   8.910   7.423  2.6515  1.7253  1.4351
 5660SOL     OW22109   0.442   8.523   6.553  0.3055  0.2469 -0.3723
 5660SOL    HW122110   0.438   8.602   6.608  1.2997  0.6178 -0.8222
 5660SOL    HW222111   0.535   8.500   6.551  0.1903 -0.1493 -1.3477
 5661SOL     OW22112  11.163   9.910   6.509 -0.3676  0.4580 -0.0749
 5661SOL    HW122113  11.239   9.864   6.474  0.3815  1.8408 -0.2698
 5661SOL    HW222114  11.160   9.993   6.462 -1.5756  0.7307  0.4436
 5662SOL     OW22115   0.660   2.000   6.487  0.0240  0.3710  0.6829
 5662SOL    HW122116   0.718   2.054   6.540 -0.2490  0.7749  0.5670
 5662SOL    HW222117   0.719   1.953   6.427  0.2803  0.3342  0.9622
 5663SOL     OW22118   4.213   1.107   3.860 -0.6378 -0.5791 -0.5123
 5663SOL    HW122119   4.119   1.113   3.878 -0.4875  0.5181 -0.0396
 5663SOL    HW222120   4.248   1.191   3.891  0.3085 -0.4954 -1.7797
 5664SOL     OW22121   0.498  10.957  10.439 -0.1245 -0.5361  0.0353
 5664SOL    HW122122   0.470  10.908  10.516  0.7651 -0.4741  0.4043
 5664SOL    HW222123   0.451  11.040  10.445 -1.0109 -1.0242 -0.1592
 5665SOL     OW22124   2.620   5.116  10.007  0.0214 -0.0438 -0.0258
 5665SOL    HW122125   2.648   5.027  10.030 -0.4120 -0.6711 -1.8780
 5665SOL    HW222126   2.525   5.110   9.999 -0.0739  0.7409  0.4208
 5666SOL     OW22127  10.425   7.497   9.778  0.2064  0.4252 -0.3132
 5666SOL    HW122128  10.350   7.553   9.759 -0.4506 -0.4978 -0.5231
 5666SOL    HW222129  10.440   7.449   9.696 -0.2363 -0.8234  0.3277
 5667SOL     OW22130   5.972   2.008   2.300 -0.3732 -0.5068 -0.3678
 5667SOL    HW122131   5.936   1.956   2.228 -1.9426 -0.6576  0.5095
 5667SOL    HW222132   5.923   1.979   2.377 -0.7278  1.7309  0.2661
 5668SOL     OW22133   3.447   4.564   9.855 -0.5847  0.1548  0.1288
 5668SOL    HW122134   3.504   4.589   9.782 -0.5322 -0.0923  0.0883
 5668SOL    HW222135   3.435   4.470   9.846 -0.6705  0.1419  0.3759
 5669SOL     OW22136  10.126   5.257   6.013 -0.1807 -0.2215  0.0591
 5669SOL    HW122137  10.208   5.271   6.060  0.1095  1.4196 -0.8848
 5669SOL    HW222138  10.064   5.317   6.055 -0.3085  0.1468 -0.6440
 5670SOL     OW22139  10.697   5.874  10.179 -0.7293 -0.0811  0.1622
 5670SOL    HW122140  10.649   5.817  10.119 -1.0040 -0.5547  0.8226
 5670SOL    HW222141  10.653   5.862  10.264  0.2192 -0.1194  0.6604
 5671SOL     OW22142   5.068   6.011   0.567 -0.5288 -0.1735  0.2166
 5671SOL    HW122143   5.057   6.046   0.655 -1.0832 -1.1308  0.5378
 5671SOL    HW222144   4.984   6.028   0.524 -0.4468 -0.1926  0.0496
 5672SOL     OW22145  10.715  10.516   0.956  0.2447  0.0037  0.8163
 5672SOL    HW122146  10.789  10.547   0.904  1.6410 -0.8007  2.2820
 5672SOL    HW222147  10.728  10.555   1.043  0.1224 -1.8586  1.6884
 5673SOL     OW22148   9.847   5.077   2.794  0.4002  0.2252  0.4024
 5673SOL    HW122149   9.908   5.095   2.866 -1.8884  1.3166  2.1373
 5673SOL    HW222150   9.895   5.018   2.736  2.5816 -0.0647  2.4188
 5674SOL     OW22151  10.049   0.430   0.182 -0.5027  0.2237  0.0332
 5674SOL    HW122152  10.051   0.448   0.276  0.2955  2.1125 -0.3149
 5674SOL    HW222153  10.116   0.363   0.169 -1.2118 -0.6668  0.9256
 5675SOL     OW22154   3.196   4.141   5.483  0.5811  0.5736 -0.2123
 5675SOL    HW122155   3.133   4.207   5.513  2.2678  2.3361 -0.4887
 5675SOL    HW222156   3.243   4.116   5.562 -2.2130 -2.7728  0.5266
 5676SOL     OW22157   2.953   2.567  10.012 -0.0287  0.1906  0.5782
 5676SOL    HW122158   2.956   2.611   9.928  0.6935 -2.1287 -0.6645
 5676SOL    HW222159   3.033   2.594  10.057  1.2138 -1.0872 -0.8337
 5677SOL     OW22160   6.376  10.468   7.230 -0.3313  0.7567 -0.7117
 5677SOL    HW122161   6.416  10.386   7.201  1.3222  0.5134  2.0431
 5677SOL    HW222162   6.291  10.471   7.186 -1.1530 -3.2419  0.4172
 5678SOL     OW22163   0.632   4.354   7.549 -0.5612  0.4228 -0.2173
 5678SOL    HW122164   0.602   4.283   7.493 -2.1233 -0.8939  2.2170
 5678SOL    HW222165   0.692   4.313   7.610 -0.8876  1.3345  0.7303
 5679SOL     OW22166   0.326   0.561   0.430  0.5633 -0.4868  0.3254
 5679SOL    HW122167   0.373   0.555   0.513  0.7656  0.1535  0.2615
 5679SOL    HW222168   0.262   0.490   0.433  1.6079 -1.4470  0.3654
 5680SOL     OW22169   7.402   7.328  10.241 -0.0538 -0.0332  0.3985
 5680SOL    HW122170   7.468   7.267  10.207  0.9294  1.1064  0.2119
 5680SOL    HW222171   7.332   7.325  10.176  1.4023  1.4271 -1.3018
 5681SOL     OW22172   7.428   4.790   6.765  0.2956 -0.0361 -0.1040
 5681SOL    HW122173   7.355   4.799   6.704  0.6147 -0.3311 -0.5330
 5681SOL    HW222174   7.473   4.710   6.737  1.2930  0.6186 -0.3952
 5682SOL     OW22175  10.123  10.783   8.885 -0.8128 -0.4088 -0.1521
 5682SOL    HW122176  10.048  10.803   8.830 -0.0997  2.0747 -0.2507
 5682SOL    HW222177  10.152  10.867   8.919  1.5505 -1.3928  0.3889
 5683SOL     OW22178   2.175   7.430   8.691  0.2101  0.1637 -1.1366
 5683SOL    HW122179   2.266   7.431   8.664  0.8606 -0.5644  0.9422
 5683SOL    HW222180   2.131   7.374   8.626  1.8477 -2.1467 -0.3112
 5684SOL     OW22181   3.109   6.474   4.654 -0.6023 -0.1554  0.2839
 5684SOL    HW122182   3.145   6.528   4.584  2.1371 -0.0156  1.7400
 5684SOL    HW222183   3.025   6.515   4.676  0.3255  2.1060 -0.2772
 5685SOL     OW22184   7.025   2.126   5.048 -0.0377  0.3298  0.5942
 5685SOL    HW122185   6.945   2.157   5.005  1.3399 -0.1109 -2.3674
 5685SOL    HW222186   7.026   2.032   5.032  0.6148  0.1885  1.4424
 5686SOL     OW22187   7.197   0.438   7.170 -0.3312  0.1188 -0.3371
 5686SOL    HW122188   7.112   0.483   7.170 -0.8412 -0.8278 -0.8299
 5686SOL    HW222189   7.261   0.508   7.162 -1.2119  0.6018 -3.9602
 5687SOL     OW22190   2.757   8.843   7.612 -0.6972 -0.3336  0.0360
 5687SOL    HW122191   2.760   8.908   7.542  0.9642 -1.0783 -0.6132
 5687SOL    HW222192   2.763   8.895   7.693  1.1108  0.3248 -0.4796
 5688SOL     OW22193   6.629   4.125   8.215 -0.5407  0.3223 -0.7788
 5688SOL    HW122194   6.649   4.033   8.202 -0.2989  0.2408  0.1259
 5688SOL    HW222195   6.565   4.127   8.286  1.2560  0.9715  0.8882
 5689SOL     OW22196   2.917   7.763   8.736 -0.3980  0.3902 -0.2619
 5689SOL    HW122197   2.953   7.678   8.709  0.2053  0.4697  0.2568
 5689SOL    HW222198   2.979   7.827   8.701 -0.6952  0.6003 -0.4014
 5690SOL     OW22199   0.854   4.367   7.331  0.0938 -0.3545  0.3121
 5690SOL    HW122200   0.800   4.382   7.409 -0.4052 -1.9706  0.3063
 5690SOL    HW222201   0.944   4.380   7.361 -0.2126  1.0062  0.6648
 5691SOL     OW22202  10.111  10.116   9.716 -0.2650  0.1356  0.1268
 5691SOL    HW122203  10.098  10.025   9.690  2.1376 -0.2295  0.0442
 5691SOL    HW222204  10.157  10.156   9.642 -1.3497  1.4456  0.1418
 5692SOL     OW22205   9.382   8.884   4.426 -0.3987  0.0658  0.2039
 5692SOL    HW122206   9.464   8.923   4.456 -0.7143 -0.9722  2.5957
 5692SOL    HW222207   9.403   8.842   4.343  1.1537  0.9894  0.1175
 5693SOL     OW22208   3.461   1.146   3.397 -0.2320 -0.4830 -0.3192
 5693SOL    HW122209   3.470   1.242   3.394  2.3413 -0.7385 -1.4967
 5693SOL    HW222210   3.383   1.128   3.345 -0.8394  0.9873  0.0480
 5694SOL     OW22211   7.688   8.811  10.246  0.2835 -0.2117 -0.6903
 5694SOL    HW122212   7.753   8.743  10.261 -0.3780 -0.6817  0.1348
 5694SOL    HW222213   7.709   8.847  10.160  1.5197 -0.4711 -0.5077
 5695SOL     OW22214   6.269   3.632   7.599 -0.0542  0.0369  0.0308
 5695SOL    HW122215   6.287   3.716   7.557 -1.4003 -1.1714 -3.1323
 5695SOL    HW222216   6.343   3.617   7.657  0.0331  3.5508  0.9320
 5696SOL     OW22217   8.058   5.134   6.987  0.4557  0.2864  0.0196
 5696SOL    HW122218   8.020   5.060   7.033  0.4437  0.0265 -0.4102
 5696SOL    HW222219   8.151   5.132   7.010  0.5630 -0.1979 -0.4384
 5697SOL     OW22220  10.024   6.371   4.074  0.3414  0.2329  0.0587
 5697SOL    HW122221  10.119   6.361   4.073  0.3843  0.6284 -0.4582
 5697SOL    HW222222   9.992   6.301   4.018  0.3538  0.3013 -0.0358
 5698SOL     OW22223   2.348   7.744   0.340  0.3239  0.4986  0.1272
 5698SOL    HW122224   2.333   7.758   0.246  0.9471  1.6202  0.1884
 5698SOL    HW222225   2.305   7.660   0.358 -1.8738  1.4146 -0.6400
 5699SOL     OW22226   2.908   7.425   2.133 -0.8966 -0.1675  0.2847
 5699SOL    HW122227   2.959   7.440   2.213 -0.7349  0.4263  0.0777
 5699SOL    HW222228   2.953   7.354   2.089  1.0689  1.7799 -0.9645
 5700SOL     OW22229   4.553   3.473   4.900  0.0129 -0.1342  0.0404
 5700SOL    HW122230   4.621   3.413   4.930  0.8939 -0.8866 -3.2289
 5700SOL    HW222231   4.590   3.514   4.822 -2.6119  0.7373 -0.7963
 5701SOL     OW22232   3.794   7.969  11.264 -0.0710  0.2636 -0.1755
 5701SOL    HW122233   3.767   7.880  11.286 -0.4807  0.2363 -0.7826
 5701SOL    HW222234   3.868   7.957  11.205 -1.2977  0.3076 -1.7361
 5702SOL     OW22235  11.223  10.598   7.164  0.3330 -0.1943 -0.0280
 5702SOL    HW122236  11.289  10.665   7.180 -0.0678  0.3095 -0.4910
 5702SOL    HW222237  11.272  10.515   7.166  1.1285  0.2388 -1.2450
 5703SOL     OW22238   9.689   3.816   5.441 -0.2858  0.2728 -0.4069
 5703SOL    HW122239   9.615   3.872   5.418 -1.4703 -0.7920  0.7032
 5703SOL    HW222240   9.705   3.765   5.361 -2.4019 -1.2576  0.0933
 5704SOL     OW22241   1.005   7.185   6.584  0.3435 -0.5855  0.6513
 5704SOL    HW122242   1.099   7.187   6.602  0.4796 -2.3942  0.3267
 5704SOL    HW222243   0.999   7.197   6.489  0.3051 -1.2019  0.5726
 5705SOL     OW22244   8.683  11.260   5.581  0.2527  0.3434 -0.2400
 5705SOL    HW122245   8.739  11.194   5.541  1.7395  0.8087  1.0076
 5705SOL    HW222246   8.732  11.290   5.658 -1.2493  1.5135  0.3011
 5706SOL     OW22247   7.374   6.290   8.194  0.1699  0.3653  0.2183
 5706SOL    HW122248   7.289   6.333   8.185  0.2691  0.6358  0.5704
 5706SOL    HW222249   7.428   6.328   8.125 -0.5644 -1.2147 -1.2673
 5707SOL     OW22250   0.453   9.998   0.482  0.3341 -0.0947  0.1938
 5707SOL    HW122251   0.362   9.980   0.458  0.6062 -0.8041 -0.3529
 5707SOL    HW222252   0.455  10.092   0.499 -0.4885 -0.0610  0.1535
 5708SOL     OW22253  11.330   8.036   7.282 -0.0414 -0.2728 -0.4358
 5708SOL    HW122254  11.343   8.109   7.221  0.6892 -0.3500 -0.3869
 5708SOL    HW222255  11.237   8.016   7.277 -0.2137  0.5391 -0.5953
 5709SOL     OW22256   6.228   7.807   1.111 -0.0924 -0.0391  0.5246
 5709SOL    HW122257   6.313   7.763   1.103 -0.3188 -0.4035  0.0929
 5709SOL    HW222258   6.200   7.790   1.201  1.2139  1.7602  1.2969
 5710SOL     OW22259   9.203  10.629   9.149  0.6101 -0.5526 -0.5143
 5710SOL    HW122260   9.218  10.596   9.060 -0.1180 -2.6530  0.1260
 5710SOL    HW222261   9.109  10.647   9.153  0.6223 -0.5668 -0.1228
 5711SOL     OW22262   5.485  10.357   4.085  0.3038  0.1668 -0.2383
 5711SOL    HW122263   5.547  10.398   4.026 -0.6230  1.6906 -0.1582
 5711SOL    HW222264   5.536  10.339   4.165  1.1227 -0.4022 -0.8787
 5712SOL     OW22265   2.913   2.987   6.908 -0.1652  0.6412  0.2598
 5712SOL    HW122266   2.838   3.030   6.867  0.2858  0.2471 -0.9882
 5712SOL    HW222267   2.902   3.004   7.002 -1.9195  0.4115  0.1067
 5713SOL     OW22268   7.819   9.775  10.494 -0.4761  0.1603 -0.8760
 5713SOL    HW122269   7.809   9.738  10.406 -1.9873 -0.2758 -0.5509
 5713SOL    HW222270   7.905   9.745  10.523  0.0151  0.2648 -2.1833
 5714SOL     OW22271   1.239   9.029   4.058  0.4652  0.3196 -0.1068
 5714SOL    HW122272   1.232   8.935   4.072  0.4259  0.5292  1.3779
 5714SOL    HW222273   1.152   9.063   4.082  0.5783  0.7656 -0.3188
 5715SOL     OW22274   5.308   3.487   2.630  0.4298  0.3663 -0.2465
 5715SOL    HW122275   5.371   3.507   2.698  1.9502 -0.0878 -1.5070
 5715SOL    HW222276   5.354   3.429   2.570 -1.8322 -1.6260 -0.1184
 5716SOL     OW22277   0.238   4.100   1.590  0.0632  0.4953  0.0254
 5716SOL    HW122278   0.162   4.081   1.535 -0.9071 -0.2586  1.6259
 5716SOL    HW222279   0.308   4.045   1.553 -0.2951  0.7621 -1.0821
 5717SOL     OW22280  11.212   5.428   3.564  0.2337  0.1582  0.1594
 5717SOL    HW122281  11.187   5.367   3.495  0.1738 -0.1054  0.4165
 5717SOL    HW222282  11.130   5.470   3.590  0.3461  0.7222 -0.3734
 5718SOL     OW22283   9.071  10.843  11.230  0.4509  0.1930 -0.2553
 5718SOL    HW122284   9.028  10.802  11.306 -0.3364  0.9562 -0.2764
 5718SOL    HW222285   9.164  10.842  11.251  0.3506 -0.6819  0.1920
 5719SOL     OW22286   0.244   3.373   9.212 -0.2750  0.0807 -0.4397
 5719SOL    HW122287   0.164   3.419   9.185  0.1480 -0.2910 -2.4574
 5719SOL    HW222288   0.220   3.280   9.207  0.2153 -0.0234 -0.8121
 5720SOL     OW22289   6.592   5.837   9.213  0.0606  0.2040  0.6844
 5720SOL    HW122290   6.588   5.807   9.304 -1.5584  1.2207  0.9827
 5720SOL    HW222291   6.608   5.931   9.219  2.1204 -0.0649 -0.1581
 5721SOL     OW22292  10.087   6.056  10.165  0.1656 -0.3754  0.0209
 5721SOL    HW122293  10.027   5.993  10.125 -0.4190 -1.2401  2.1991
 5721SOL    HW222294  10.155   6.002  10.205 -1.2031  0.2142  3.3185
 5722SOL     OW22295   0.890   0.015   6.054  0.3000 -0.4732 -0.0349
 5722SOL    HW122296   0.824  -0.054   6.058 -1.1479  0.6761 -2.6884
 5722SOL    HW222297   0.840   0.095   6.072  1.8647 -0.0359  2.5427
 5723SOL     OW22298   7.210   8.673   9.721 -0.3338  0.2963 -0.0196
 5723SOL    HW122299   7.263   8.736   9.672 -0.0395 -0.7861 -1.0984
 5723SOL    HW222300   7.273   8.622   9.772 -0.2151 -1.5751 -1.9687
 5724SOL     OW22301   5.234   6.433   8.102 -0.3434 -0.3030  0.0778
 5724SOL    HW122302   5.267   6.444   8.013  2.5211  1.3889  1.2576
 5724SOL    HW222303   5.229   6.338   8.114 -1.1828 -0.5393 -2.0225
 5725SOL     OW22304   5.077   4.018   4.967 -0.0463  0.0723  0.1874
 5725SOL    HW122305   5.159   3.981   5.000  0.5423  1.5534  0.4004
 5725SOL    HW222306   5.095   4.035   4.874 -0.6339 -1.0567 -0.1426
 5726SOL     OW22307   3.743   2.542   1.090  0.3814 -0.2001 -0.5284
 5726SOL    HW122308   3.676   2.541   1.021  0.6730  1.7888 -0.8641
 5726SOL    HW222309   3.756   2.450   1.112  0.3062 -0.8727 -3.1565
 5727SOL     OW22310  10.224   2.900   8.787  0.7951  0.0265 -0.5902
 5727SOL    HW122311  10.204   2.870   8.699 -1.0907 -1.0656  0.1712
 5727SOL    HW222312  10.208   2.824   8.843  1.9040  0.7213  0.6912
 5728SOL     OW22313   6.005   5.006   1.875  0.7665 -0.1314  0.3469
 5728SOL    HW122314   6.035   5.032   1.788 -1.7833 -0.1415 -0.5864
 5728SOL    HW222315   5.957   4.924   1.861 -1.4080  0.9079  1.4017
 5729SOL     OW22316   8.491   9.833  10.755  0.0945 -0.9864  0.5039
 5729SOL    HW122317   8.494   9.784  10.673 -1.3441 -0.1122 -0.0876
 5729SOL    HW222318   8.417   9.795  10.803 -0.6708  0.2036  0.2864
 5730SOL     OW22319   8.285   6.571   4.866  0.2755  0.0050  0.1415
 5730SOL    HW122320   8.352   6.518   4.823  0.7584  0.3312  0.4814
 5730SOL    HW222321   8.246   6.513   4.931 -1.0458 -0.7616 -1.2893
 5731SOL     OW22322   5.472   9.435  10.601  0.2265  0.1058 -0.8834
 5731SOL    HW122323   5.554   9.416  10.646 -0.3964 -0.0396  0.2065
 5731SOL    HW222324   5.464   9.365  10.535  0.4472 -0.4891 -0.2823
 5732SOL     OW22325   7.801   6.984   6.472  0.4348  0.2177 -0.0438
 5732SOL    HW122326   7.841   7.038   6.540 -1.4992  0.6594  0.7873
 5732SOL    HW222327   7.776   6.904   6.517 -2.4826  1.2278  0.2158
 5733SOL     OW22328   4.516   1.035   4.890  0.2463  0.0289  0.2802
 5733SOL    HW122329   4.543   1.011   4.979 -0.5780  2.4136  1.1975
 5733SOL    HW222330   4.579   1.102   4.863 -0.6403  0.6547 -0.2217
 5734SOL     OW22331   7.847   1.574   9.957 -0.3101 -0.1192 -0.3940
 5734SOL    HW122332   7.924   1.616   9.918 -0.4891  0.4357 -0.1487
 5734SOL    HW222333   7.782   1.574   9.887 -0.2065 -0.2783 -0.4923
 5735SOL     OW22334   7.494   3.171   1.217 -0.1930  0.0339  0.5167
 5735SOL    HW122335   7.439   3.187   1.294 -0.5187 -2.4077  0.8403
 5735SOL    HW222336   7.477   3.079   1.195  2.0913 -0.1214 -0.7243
 5736SOL     OW22337  10.431   5.291   6.153 -0.0246  0.3238  0.5375
 5736SOL    HW122338  10.448   5.355   6.084 -1.6165 -0.4354 -0.5909
 5736SOL    HW222339  10.495   5.312   6.221  0.5253  2.0974 -0.4835
 5737SOL     OW22340   0.927   6.752   4.028  0.3131  0.2371  0.3192
 5737SOL    HW122341   0.940   6.737   3.935  0.5948  0.7376  0.2772
 5737SOL    HW222342   0.982   6.686   4.072  2.7657  2.1130  0.1500
 5738SOL     OW22343   1.955  10.709   8.132  0.2324 -0.3377  0.4644
 5738SOL    HW122344   1.987  10.714   8.222 -1.6849 -3.1399  1.3600
 5738SOL    HW222345   1.860  10.710   8.140  0.0226 -1.8896 -1.3951
 5739SOL     OW22346   7.436   7.164   2.021 -0.2833 -0.0797 -0.6061
 5739SOL    HW122347   7.369   7.212   2.069  1.8489  1.2715  1.1523
 5739SOL    HW222348   7.389   7.094   1.975 -3.0812  1.9568 -0.9324
 5740SOL     OW22349  11.173   1.274   6.672  0.4170 -0.2190  0.1606
 5740SOL    HW122350  11.223   1.338   6.723  1.0730  2.0336 -3.1436
 5740SOL    HW222351  11.084   1.307   6.672 -0.4126 -2.2728  2.9506
 5741SOL     OW22352  10.283   2.490   3.818 -0.4566 -0.0212  0.4518
 5741SOL    HW122353  10.371   2.513   3.846  1.0817 -1.7233 -2.6870
 5741SOL    HW222354  10.265   2.548   3.744 -0.7306 -1.7012 -0.8407
 5742SOL     OW22355   2.083   9.304   1.691  0.4763  0.0599  0.0549
 5742SOL    HW122356   2.070   9.226   1.745 -1.4954  0.5900  0.3869
 5742SOL    HW222357   2.176   9.301   1.667  1.0209 -1.0148  2.1593
 5743SOL     OW22358   8.969   6.386  10.621  0.1361  0.1032  0.4795
 5743SOL    HW122359   8.889   6.437  10.623  0.3131  0.3457  1.2478
 5743SOL    HW222360   8.955   6.323  10.550 -0.4914  0.5287  0.2202
 5744SOL     OW22361   1.299  10.660   2.837 -0.3296  0.3516  0.1068
 5744SOL    HW122362   1.303  10.663   2.741 -1.5919  2.1731  0.0793
 5744SOL    HW222363   1.231  10.724   2.860  0.0785  0.0532  2.2278
 5745SOL     OW22364   5.800   2.504   3.984 -0.3886 -0.1893  0.2051
 5745SOL    HW122365   5.868   2.469   3.927 -1.0599 -2.4103  0.6927
 5745SOL    HW222366   5.843   2.514   4.069 -0.0386  0.7702 -0.0779
 5746SOL     OW22367   1.960   5.324   4.787  0.3723  0.8245 -0.2880
 5746SOL    HW122368   1.921   5.390   4.730  1.4586  0.6127 -1.3102
 5746SOL    HW222369   2.018   5.274   4.730  0.3501 -0.3541  0.6957
 5747SOL     OW22370   5.470   9.192   5.152 -0.2157 -0.1574  0.0994
 5747SOL    HW122371   5.508   9.110   5.183 -0.6422  0.1707  1.5611
 5747SOL    HW222372   5.484   9.191   5.057  0.6232 -1.4732  0.2197
 5748SOL     OW22373  10.640   3.132   8.920 -0.4783  0.5648  0.1312
 5748SOL    HW122374  10.655   3.103   9.010  1.9651 -1.8941 -0.9665
 5748SOL    HW222375  10.547   3.116   8.904 -0.7653  0.3429  1.9772
 5749SOL     OW22376   3.070   0.170   1.228  0.0212 -0.1624  0.1949
 5749SOL    HW122377   3.082   0.075   1.237 -1.1068 -0.1133  2.7593
 5749SOL    HW222378   3.151   0.201   1.188  0.9388 -2.0491  0.5147
 5750SOL     OW22379   0.883   9.839  10.884  0.1182 -0.2435  0.2527
 5750SOL    HW122380   0.910   9.828  10.793  0.7387  0.2087  0.3803
 5750SOL    HW222381   0.913   9.758  10.927 -0.0445 -0.3920  0.0837
 5751SOL     OW22382   8.909   6.988  11.162  0.2171 -0.1028 -0.1417
 5751SOL    HW122383   8.889   6.985  11.068 -0.7125 -1.3150  0.0795
 5751SOL    HW222384   8.978   6.922  11.173  0.3448  0.0602  0.0130
 5752SOL     OW22385   0.721   6.149  11.087 -0.8169 -0.1485 -0.0702
 5752SOL    HW122386   0.659   6.222  11.084  0.8366  1.3677  1.2630
 5752SOL    HW222387   0.752   6.140  10.997 -1.4120  0.4745 -0.3402
 5753SOL     OW22388   6.106   5.157   3.092  0.0679  0.2715 -0.3196
 5753SOL    HW122389   6.093   5.246   3.123 -1.4322  0.9945 -2.9120
 5753SOL    HW222390   6.100   5.163   2.997  0.4882 -2.5055 -0.5671
 5754SOL     OW22391   4.266   3.220  10.656  0.4230  0.3115 -0.0997
 5754SOL    HW122392   4.318   3.256  10.728 -1.3022 -2.4101  2.6565
 5754SOL    HW222393   4.185   3.271  10.657  1.4122  1.9556 -1.8246
 5755SOL     OW22394   5.493   9.560   3.328  0.2238 -0.0536  0.7081
 5755SOL    HW122395   5.521   9.651   3.321 -0.5900  0.0719 -1.5249
 5755SOL    HW222396   5.406   9.564   3.367  0.8784 -0.0188  2.1967
 5756SOL     OW22397   2.188   9.087   8.980 -0.3341  0.0209  0.4147
 5756SOL    HW122398   2.182   9.170   8.933 -0.9350  0.0221  0.4879
 5756SOL    HW222399   2.189   9.021   8.912  0.9877  0.1314  0.3288
 5757SOL     OW22400   8.299   6.877   6.410  0.4375  0.2700 -0.5461
 5757SOL    HW122401   8.219   6.925   6.390  0.1516  0.5875  1.3196
 5757SOL    HW222402   8.307   6.814   6.338 -1.5371  0.1728 -0.7285
 5758SOL     OW22403  10.632   3.550   1.587 -0.1380 -0.0215 -0.5002
 5758SOL    HW122404  10.596   3.462   1.595  0.5047 -0.3729 -1.4448
 5758SOL    HW222405  10.557   3.608   1.601 -0.5737 -0.7121  0.0577
 5759SOL     OW22406   6.243  11.294   5.753 -0.4541  0.0516  0.2146
 5759SOL    HW122407   6.266  11.219   5.807 -0.2417  0.2529  0.4031
 5759SOL    HW222408   6.189  11.258   5.683 -0.8989 -0.1781  0.6777
 5760SOL     OW22409   3.245   0.583   8.931 -0.7881  0.4815  0.5118
 5760SOL    HW122410   3.287   0.497   8.937  0.1499  0.9558  0.6929
 5760SOL    HW222411   3.316   0.646   8.944 -1.5736  1.2801  0.9878
 5761SOL     OW22412   4.200   8.560   2.526 -0.6512 -0.2082  0.4029
 5761SOL    HW122413   4.244   8.551   2.611  1.1108  0.5097 -0.4010
 5761SOL    HW222414   4.266   8.602   2.470 -1.2893 -1.9310 -1.6966
 5762SOL     OW22415  11.101   4.693   3.820  0.7206 -0.6123  0.8781
 5762SOL    HW122416  11.038   4.629   3.852  0.3386 -0.7594 -0.1509
 5762SOL    HW222417  11.120   4.748   3.896 -1.5868  0.1856  0.9132
 5763SOL     OW22418   5.922   9.989   5.050  0.2840 -0.3966  0.0461
 5763SOL    HW122419   6.013   9.972   5.028  0.2363 -1.3095  0.5220
 5763SOL    HW222420   5.921   9.999   5.145 -0.3516 -2.0372  0.2249
 5764SOL     OW22421   8.239   6.596   1.784  0.3726  0.2486 -0.6071
 5764SOL    HW122422   8.189   6.611   1.864 -0.4082 -0.1698 -1.0021
 5764SOL    HW222423   8.218   6.505   1.761  1.6302 -0.0570 -0.5685
 5765SOL     OW22424   8.467   6.832   8.901  0.1262  0.2680 -0.2326
 5765SOL    HW122425   8.428   6.816   8.815  3.1033  0.0149 -1.6048
 5765SOL    HW222426   8.537   6.766   8.908 -0.7711 -0.4397  2.8797
 5766SOL     OW22427   2.882   1.758   5.394 -0.6528  0.0703 -0.3719
 5766SOL    HW122428   2.882   1.674   5.349 -1.4037 -0.6609  0.9691
 5766SOL    HW222429   2.790   1.780   5.406 -0.4876  0.0471  1.1467
 5767SOL     OW22430   3.299   1.736  11.159 -0.1589 -0.0254 -0.0562
 5767SOL    HW122431   3.299   1.684  11.240 -0.9092  1.0465  0.6376
 5767SOL    HW222432   3.228   1.799  11.171  0.3405  0.7490 -1.1568
 5768SOL     OW22433   1.203   6.337   2.576 -0.2789  0.3545  0.1744
 5768SOL    HW122434   1.256   6.416   2.585  0.8800 -0.2296 -1.3012
 5768SOL    HW222435   1.156   6.349   2.494 -0.4645 -0.2799  0.1842
 5769SOL     OW22436  10.795   4.087   8.572 -1.1732  0.3563 -0.1765
 5769SOL    HW122437  10.753   4.027   8.632 -2.1222 -1.6737 -2.7516
 5769SOL    HW222438  10.724   4.142   8.538 -0.9621  0.2741 -0.7702
 5770SOL     OW22439   9.575   7.341   8.774  0.6236 -0.1772 -0.0297
 5770SOL    HW122440   9.523   7.354   8.695 -0.3259 -0.9389  0.4624
 5770SOL    HW222441   9.665   7.355   8.746  0.6178 -3.7644 -2.0151
 5771SOL     OW22442   9.109   0.844   0.835 -0.9280  0.0572  0.1972
 5771SOL    HW122443   9.089   0.815   0.924  0.1326 -1.8024 -0.1451
 5771SOL    HW222444   9.200   0.873   0.839 -1.0185  0.4034 -0.1905
 5772SOL     OW22445   7.230  10.272   8.954 -0.3061  0.1337 -0.3925
 5772SOL    HW122446   7.191  10.211   9.018 -0.3490 -1.5729 -2.0189
 5772SOL    HW222447   7.284  10.217   8.898  2.5445  2.1396  0.2977
 5773SOL     OW22448   0.960   2.720   2.429 -0.0851 -0.0958  0.1768
 5773SOL    HW122449   0.973   2.809   2.461 -0.2009 -0.0276  0.0374
 5773SOL    HW222450   0.865   2.711   2.421 -0.0727 -0.2256  0.1741
 5774SOL     OW22451   3.991   2.248   0.380  0.7873 -0.2479  0.2402
 5774SOL    HW122452   4.063   2.285   0.329  0.5823 -0.4600 -0.2131
 5774SOL    HW222453   4.024   2.243   0.470  1.0564  0.3862  0.1759
 5775SOL     OW22454   4.044   5.358   8.197  0.3282 -0.2240 -0.6621
 5775SOL    HW122455   4.013   5.268   8.192  0.1152 -0.1431 -0.8312
 5775SOL    HW222456   4.061   5.373   8.290  0.7726 -0.5747 -0.6896
 5776SOL     OW22457   8.396   1.251   0.840 -0.1105  0.1748  0.4690
 5776SOL    HW122458   8.315   1.204   0.859 -0.0777  0.1068  0.4444
 5776SOL    HW222459   8.464   1.201   0.885  0.2067 -0.9787 -1.2330
 5777SOL     OW22460  10.173   4.831   2.162  0.1751  0.1898 -0.0536
 5777SOL    HW122461  10.255   4.783   2.172  0.0636  0.1727  0.7986
 5777SOL    HW222462  10.105   4.766   2.178  0.0088  0.4138  0.1520
 5778SOL     OW22463   9.997   4.164   8.331 -0.1719  0.3352 -0.0248
 5778SOL    HW122464  10.022   4.255   8.343  2.8711 -0.1872 -1.8534
 5778SOL    HW222465  10.048   4.116   8.397  1.0838 -0.3967 -1.4943
 5779SOL     OW22466   8.782   1.326   8.184 -0.1526  0.3701  0.2852
 5779SOL    HW122467   8.856   1.273   8.211  0.7470  1.0957 -0.6927
 5779SOL    HW222468   8.777   1.396   8.250  1.6965  1.8261 -1.0330
 5780SOL     OW22469   9.196   9.700  10.275 -0.2133 -0.1759  0.3052
 5780SOL    HW122470   9.156   9.679  10.359  1.3249  0.0007  1.1054
 5780SOL    HW222471   9.260   9.768  10.294 -0.8136  0.8617 -1.2515
 5781SOL     OW22472   6.578   5.608   6.304 -0.4817  0.0852  0.7377
 5781SOL    HW122473   6.503   5.559   6.338 -1.2058  0.1325 -0.7429
 5781SOL    HW222474   6.563   5.697   6.333 -1.6402  0.3322 -0.5171
 5782SOL     OW22475   2.099   9.152  11.181  0.6091  0.3409 -0.5304
 5782SOL    HW122476   2.048   9.075  11.155  1.2467 -0.7956  1.4506
 5782SOL    HW222477   2.091   9.154  11.276  1.4817  2.1266 -0.4781
 5783SOL     OW22478   6.094   1.145   2.215  0.0988 -0.5311  0.6852
 5783SOL    HW122479   6.033   1.138   2.289  0.7897 -0.6765  1.2521
 5783SOL    HW222480   6.122   1.055   2.198 -0.0881 -0.5024  0.2192
 5784SOL     OW22481   9.589   5.846   5.401 -0.1901  0.3382  0.1146
 5784SOL    HW122482   9.643   5.900   5.344  0.3745 -1.3587 -1.0098
 5784SOL    HW222483   9.514   5.820   5.346 -1.5142  1.6287  1.2664
 5785SOL     OW22484   0.975   8.661   6.360  0.0684  0.0028 -0.0346
 5785SOL    HW122485   0.896   8.609   6.350  1.2602 -1.7789 -0.3730
 5785SOL    HW222486   1.018   8.626   6.438  0.6803  0.7625 -0.0206
 5786SOL     OW22487   8.956   3.545   4.776 -0.3270 -0.0234 -0.6027
 5786SOL    HW122488   8.928   3.567   4.687  0.5115  1.0589 -0.6079
 5786SOL    HW222489   8.906   3.605   4.831  0.7868  0.8254 -0.5026
 5787SOL     OW22490   7.108   9.919   2.885 -0.7963 -0.4117 -0.4304
 5787SOL    HW122491   7.193   9.876   2.873 -1.1111 -0.6292 -2.0841
 5787SOL    HW222492   7.044   9.851   2.865 -1.3219  0.3185 -1.3128
 5788SOL     OW22493   7.522   0.666   5.980  0.1048 -0.5888 -0.0208
 5788SOL    HW122494   7.456   0.636   5.918 -1.1959 -0.6267  1.3437
 5788SOL    HW222495   7.490   0.635   6.065  1.4984  0.0492  0.7518
 5789SOL     OW22496   0.074   1.442   5.246  0.1306 -0.0990 -0.2751
 5789SOL    HW122497   0.147   1.501   5.229  1.0462 -1.6024 -1.7313
 5789SOL    HW222498   0.087   1.370   5.185 -2.6532 -0.3295 -0.6560
 5790SOL     OW22499   0.508   8.143   3.788 -0.3550 -0.3212 -0.0503
 5790SOL    HW122500   0.569   8.185   3.849  0.9799 -0.1925 -1.4455
 5790SOL    HW222501   0.480   8.063   3.833  0.5061 -0.1518  0.7927
 5791SOL     OW22502   1.082   1.004   2.494  0.5660 -0.0730  0.5969
 5791SOL    HW122503   1.168   0.962   2.484  0.2210 -0.8089  0.7112
 5791SOL    HW222504   1.034   0.978   2.415 -0.7403 -2.5132  2.1227
 5792SOL     OW22505   2.216   2.968   1.205  0.2291 -0.2378 -0.3728
 5792SOL    HW122506   2.285   2.936   1.146 -0.4385 -0.8970 -0.8015
 5792SOL    HW222507   2.231   2.921   1.287  1.0718  0.5733 -0.0522
 5793SOL     OW22508   3.049   5.175   2.873 -0.1413  0.8863 -0.5369
 5793SOL    HW122509   2.976   5.136   2.922  0.0586 -0.0406 -0.9623
 5793SOL    HW222510   3.012   5.199   2.789 -0.7056  3.3231  0.3719
 5794SOL     OW22511   1.140   8.951   8.115  0.5448 -0.3017 -0.1014
 5794SOL    HW122512   1.112   9.037   8.084 -0.0711 -0.0452  1.1412
 5794SOL    HW222513   1.233   8.945   8.090  0.2204  0.1342 -1.4376
 5795SOL     OW22514  10.655   0.806   6.704  0.8959 -0.3320  0.1743
 5795SOL    HW122515  10.625   0.828   6.616  0.5241 -0.9185  0.1502
 5795SOL    HW222516  10.741   0.767   6.691  0.8811 -0.3312  0.0775
 5796SOL     OW22517   7.545  11.065   9.124  0.0506  0.2099  0.2600
 5796SOL    HW122518   7.521  11.111   9.205  0.5236  1.7333 -0.4381
 5796SOL    HW222519   7.583  11.133   9.069  1.1879 -1.1377 -0.6470
 5797SOL     OW22520   5.544   2.047   3.052  0.1079  0.5094 -0.2154
 5797SOL    HW122521   5.566   2.130   3.010  2.6411  0.6762  1.3372
 5797SOL    HW222522   5.582   1.981   2.994  0.2477  0.5549 -0.1767
 5798SOL     OW22523   6.814  10.376   7.163  0.7499 -0.4987 -0.0974
 5798SOL    HW122524   6.727  10.405   7.136  0.9500 -1.0288 -1.3403
 5798SOL    HW222525   6.862  10.457   7.178  0.1168 -0.2006  0.3660
 5799SOL     OW22526  10.027  10.584   8.676  0.4995 -0.7515  0.1184
 5799SOL    HW122527   9.997  10.669   8.644  0.6584 -0.3381  1.0520
 5799SOL    HW222528  10.027  10.528   8.598 -1.9109 -0.5605 -0.0427
 5800SOL     OW22529   5.294  10.982   1.235  0.1907  0.2726 -0.0461
 5800SOL    HW122530   5.259  10.980   1.146 -1.9062  0.1089  0.7632
 5800SOL    HW222531   5.284  10.892   1.267  0.4340  0.4571  0.5624
 5801SOL     OW22532  10.714   1.765   8.762  0.3189 -0.1883  0.5050
 5801SOL    HW122533  10.738   1.675   8.782  0.3615 -0.0864  0.9243
 5801SOL    HW222534  10.618   1.764   8.759  0.3179 -0.2410  0.5448
 5802SOL     OW22535   1.240   1.962   2.173  0.7757 -0.0617  0.2893
 5802SOL    HW122536   1.323   1.936   2.134  0.1777  1.0513 -1.8216
 5802SOL    HW222537   1.258   2.047   2.213  1.1651 -0.7842  1.6533
 5803SOL     OW22538  10.508   2.614   8.411  0.0226 -0.2268 -0.5116
 5803SOL    HW122539  10.427   2.645   8.370  1.5366  1.0989 -2.5966
 5803SOL    HW222540  10.479   2.572   8.492 -2.6918  0.8307 -0.8697
 5804SOL     OW22541   5.453   0.086  10.386 -0.6684  0.6627  0.3511
 5804SOL    HW122542   5.388   0.100  10.455 -0.2440  0.5106  0.7852
 5804SOL    HW222543   5.473  -0.008  10.391  0.7295  0.9883  1.2590
 5805SOL     OW22544   9.248   5.047   2.266 -0.4760  0.7043  0.1717
 5805SOL    HW122545   9.331   4.999   2.263 -1.6573 -1.3673 -1.4767
 5805SOL    HW222546   9.207   5.027   2.182 -3.6397 -0.1989  1.8659
 5806SOL     OW22547   9.195   2.350   4.763  0.5242  0.0867  0.6572
 5806SOL    HW122548   9.125   2.288   4.783 -0.2112 -0.2346 -2.5256
 5806SOL    HW222549   9.150   2.432   4.745  0.9793  0.0837 -0.5957
 5807SOL     OW22550   2.235   8.031   7.898 -0.4808 -0.1495 -0.3607
 5807SOL    HW122551   2.311   8.084   7.920  0.9283 -2.3503  0.3164
 5807SOL    HW222552   2.222   8.045   7.804 -0.1211  1.3524 -0.1860
 5808SOL     OW22553   7.817   7.426  10.945 -0.2682 -0.2829 -0.2306
 5808SOL    HW122554   7.750   7.482  10.984 -0.3065 -1.6670  1.7424
 5808SOL    HW222555   7.773   7.384  10.871 -0.8601  0.6500 -0.4162
 5809SOL     OW22556   0.910   8.088   3.265 -0.4603 -0.4979  0.4390
 5809SOL    HW122557   0.952   8.008   3.297  1.7234  0.5304  0.2288
 5809SOL    HW222558   0.916   8.149   3.337 -3.2988 -0.8984  1.0543
 5810SOL     OW22559  10.364   3.242   5.710 -0.6675  0.4075 -0.4982
 5810SOL    HW122560  10.409   3.228   5.626 -0.4487  0.0139 -0.3169
 5810SOL    HW222561  10.434   3.250   5.774 -0.8597 -0.5276 -0.1704
 5811SOL     OW22562   0.538   7.127   0.030  0.1995 -0.1901  0.3178
 5811SOL    HW122563   0.570   7.211  -0.003 -0.0454 -0.4759 -0.6502
 5811SOL    HW222564   0.453   7.115  -0.012  0.3982 -1.1027  0.1610
 5812SOL     OW22565  10.880   0.953   4.643  0.1908 -0.2094  0.6520
 5812SOL    HW122566  10.934   0.877   4.620  1.3149  0.3384  1.4190
 5812SOL    HW222567  10.915   1.025   4.590 -2.2574 -0.6620 -1.6991
 5813SOL     OW22568   5.862   1.075   3.512  0.2221 -0.1024  0.0726
 5813SOL    HW122569   5.895   1.059   3.600 -1.8280 -1.7029  0.5929
 5813SOL    HW222570   5.778   1.118   3.525 -1.3225 -2.6860 -0.9881
 5814SOL     OW22571   4.120   0.048   9.686 -0.2709 -0.2374  0.2457
 5814SOL    HW122572   4.120  -0.013   9.612 -1.9880 -0.3600  0.3313
 5814SOL    HW222573   4.127   0.135   9.646  1.4231 -0.4286  0.0858
 5815SOL     OW22574   4.674   7.206   7.777 -0.0685 -0.0219 -0.2918
 5815SOL    HW122575   4.677   7.219   7.683  1.1799 -0.9380 -0.3987
 5815SOL    HW222576   4.590   7.162   7.793  0.0693 -0.5942 -1.0843
 5816SOL     OW22577  11.296   4.753  10.026 -0.0903  0.2588  0.2582
 5816SOL    HW122578  11.239   4.803  10.086 -1.8326  0.6681 -1.6703
 5816SOL    HW222579  11.239   4.732   9.952  1.2803 -2.5737 -0.0524
 5817SOL     OW22580   3.078   1.557   8.222 -0.9952 -0.1052  0.3874
 5817SOL    HW122581   3.141   1.610   8.174 -1.3203 -0.1433 -0.0849
 5817SOL    HW222582   3.038   1.501   8.156 -0.8752 -0.7240  0.8322
 5818SOL     OW22583   0.983   5.766   6.162 -0.0803  0.0833  0.0769
 5818SOL    HW122584   0.916   5.750   6.229  0.5226 -0.5951  0.5300
 5818SOL    HW222585   1.033   5.685   6.158  0.0153  0.1881 -1.0657
 5819SOL     OW22586   1.756  10.301  10.334  0.1761  0.0639  0.4897
 5819SOL    HW122587   1.670  10.288  10.296  0.6307  0.6867 -0.7851
 5819SOL    HW222588   1.816  10.303  10.259  1.3462 -0.6759  1.3647
 5820SOL     OW22589   3.216   9.613   3.197  0.1559  0.0913  0.5781
 5820SOL    HW122590   3.295   9.610   3.144 -0.2081  0.3971  0.0113
 5820SOL    HW222591   3.220   9.534   3.251  0.5978 -0.1552  0.1862
 5821SOL     OW22592  10.933   4.966   1.420  0.0309  0.2028  0.8696
 5821SOL    HW122593  10.855   4.983   1.471 -0.3689  0.2923  0.2375
 5821SOL    HW222594  10.915   4.883   1.375 -0.0636  0.6605  0.0450
 5822SOL     OW22595   1.170   6.403   7.863  0.0122  0.0894 -0.1133
 5822SOL    HW122596   1.157   6.381   7.955 -1.9471  1.6203  0.0076
 5822SOL    HW222597   1.106   6.349   7.815 -1.1372  1.5559 -0.2734
 5823SOL     OW22598   6.918   4.318   5.672 -0.3483 -0.3104  0.2594
 5823SOL    HW122599   6.856   4.362   5.613 -0.6709 -0.0810  0.7612
 5823SOL    HW222600   6.920   4.374   5.750  2.5181  1.1434 -0.7923
 5824SOL     OW22601   4.767   0.291   0.633  0.4677  0.1685 -0.3050
 5824SOL    HW122602   4.814   0.369   0.602  0.3315  0.9733  1.4218
 5824SOL    HW222603   4.834   0.223   0.637  0.6731  0.3036 -1.4639
 5825SOL     OW22604   0.216   2.367   2.709 -0.1832  0.1215 -0.5171
 5825SOL    HW122605   0.190   2.275   2.721  0.0398  0.2384  0.9142
 5825SOL    HW222606   0.185   2.389   2.621 -3.0043 -0.4152  0.2882
 5826SOL     OW22607   6.543   9.027  11.053 -0.0654 -0.5237 -0.3709
 5826SOL    HW122608   6.575   9.078  11.127 -0.1706 -0.9675 -0.0189
 5826SOL    HW222609   6.596   9.057  10.979  1.3752 -1.4831  0.2615
 5827SOL     OW22610   7.017   1.211   0.730  0.4961 -0.2317  0.1022
 5827SOL    HW122611   7.034   1.302   0.706 -0.2091  0.6044  2.6086
 5827SOL    HW222612   6.963   1.177   0.659 -0.8337  1.8808  0.0490
 5828SOL     OW22613   2.371   1.817   6.806 -0.0836 -0.1520  0.0357
 5828SOL    HW122614   2.390   1.785   6.894  1.9464  2.3663  0.5718
 5828SOL    HW222615   2.344   1.740   6.758  1.0247 -1.9756  2.2514
 5829SOL     OW22616   4.288   3.290   6.675  0.0188 -0.4269  0.0316
 5829SOL    HW122617   4.210   3.258   6.631  0.1717 -1.8350  0.7487
 5829SOL    HW222618   4.259   3.311   6.764 -0.0476  1.2998 -0.3979
 5830SOL     OW22619   4.606   7.726   1.709  0.1565  0.8457  0.0488
 5830SOL    HW122620   4.544   7.672   1.759  1.6860 -2.1414 -1.1415
 5830SOL    HW222621   4.680   7.738   1.769 -0.8283  3.0264  0.8783
 5831SOL     OW22622   1.724   8.577   3.733 -0.3928  0.3035  0.4298
 5831SOL    HW122623   1.786   8.644   3.706 -0.1497 -0.7302 -1.6420
 5831SOL    HW222624   1.654   8.581   3.668 -1.2292 -0.2998  1.2714
 5832SOL     OW22625   7.026   6.270   7.762  0.6578 -0.5169  0.3918
 5832SOL    HW122626   6.970   6.206   7.806  1.6512 -1.6440  0.0353
 5832SOL    HW222627   7.102   6.278   7.820  0.8830 -0.2260  0.0538
 5833SOL     OW22628  10.385   5.476   3.127 -0.5193  0.1305 -0.0548
 5833SOL    HW122629  10.331   5.515   3.059  0.5055  1.2172 -0.2667
 5833SOL    HW222630  10.475   5.484   3.094  0.0266  0.9572  1.5522
 5834SOL     OW22631   0.794   1.698   0.639  0.5541 -1.1767  0.4356
 5834SOL    HW122632   0.836   1.677   0.555 -0.2169  0.1259 -0.2775
 5834SOL    HW222633   0.833   1.636   0.701  0.6776 -2.5564 -1.0004
 5835SOL     OW22634   9.345   9.365   3.582 -0.2890  0.3416  0.6121
 5835SOL    HW122635   9.321   9.455   3.563 -1.2876 -0.5275 -2.5228
 5835SOL    HW222636   9.260   9.321   3.595  0.1627 -0.2797  1.4696
 5836SOL     OW22637   7.645   3.752   8.120  0.1172  0.2189  0.3566
 5836SOL    HW122638   7.688   3.725   8.201 -0.3543  1.2676  0.9560
 5836SOL    HW222639   7.712   3.802   8.073 -0.3840  1.6856  1.2026
 5837SOL     OW22640  10.154   3.174   9.617  0.5099 -0.1114  0.2747
 5837SOL    HW122641  10.226   3.237   9.621  0.8343 -0.3437 -1.3809
 5837SOL    HW222642  10.197   3.090   9.598 -0.2471 -0.0323 -2.0370
 5838SOL     OW22643   4.655   4.632   2.200  0.0355 -0.6028 -0.3939
 5838SOL    HW122644   4.701   4.548   2.194  2.0132  0.4013  0.2341
 5838SOL    HW222645   4.713   4.694   2.156 -0.3228  0.8690  1.1645
 5839SOL     OW22646   4.432   5.574   8.969  0.4164 -0.4069  0.1912
 5839SOL    HW122647   4.472   5.487   8.980  0.5477 -0.4902 -0.9549
 5839SOL    HW222648   4.355   5.558   8.915  1.4769  0.4667 -1.6017
 5840SOL     OW22649   0.623   8.907   7.999  0.1417 -0.2064 -0.2463
 5840SOL    HW122650   0.636   8.865   8.085 -1.8179  0.5430  0.4423
 5840SOL    HW222651   0.632   9.001   8.017 -0.6548 -0.0246 -0.7933
 5841SOL     OW22652   0.665   3.434   4.876  0.0964  0.7902  0.5523
 5841SOL    HW122653   0.616   3.407   4.953 -0.3640  0.3519  0.1052
 5841SOL    HW222654   0.660   3.360   4.816 -0.5008  1.5463 -0.3543
 5842SOL     OW22655   9.437   5.609   7.216 -0.1639 -0.5036  0.0727
 5842SOL    HW122656   9.481   5.548   7.275  0.1938 -1.0137 -0.7107
 5842SOL    HW222657   9.445   5.569   7.129 -2.0518 -0.5602 -0.1181
 5843SOL     OW22658   7.444   6.097   6.860 -0.4046  0.1361  0.2748
 5843SOL    HW122659   7.492   6.068   6.782 -2.2631 -3.5572  0.4043
 5843SOL    HW222660   7.364   6.136   6.825 -0.0898  0.8144  0.2900
 5844SOL     OW22661   7.504  10.006   6.742 -0.1113  0.0237 -0.7778
 5844SOL    HW122662   7.556  10.084   6.762  0.0870 -0.3464  0.2239
 5844SOL    HW222663   7.451  10.030   6.667 -0.1051  1.1511 -0.4256
 5845SOL     OW22664   2.754  10.586   3.640 -0.6765 -0.3720  0.4970
 5845SOL    HW122665   2.811  10.555   3.711 -1.1158  0.9538  1.4717
 5845SOL    HW222666   2.673  10.610   3.685 -0.5773  1.5260 -0.2667
 5846SOL     OW22667   3.182  10.218   9.702  0.2166 -0.1128  0.4270
 5846SOL    HW122668   3.123  10.288   9.729  0.0094 -0.2977  0.4556
 5846SOL    HW222669   3.147  10.189   9.618  0.3572 -0.1180  0.3705
 5847SOL     OW22670   1.352  10.708   5.632 -0.2844 -0.0386  0.1861
 5847SOL    HW122671   1.372  10.620   5.600  0.7078  0.4941 -0.6708
 5847SOL    HW222672   1.372  10.704   5.726 -0.4841 -0.7929  0.2042
 5848SOL     OW22673   5.893   8.806   0.311  0.0362 -0.3333 -0.2504
 5848SOL    HW122674   5.840   8.727   0.319  0.8491 -0.9595 -0.9182
 5848SOL    HW222675   5.944   8.793   0.231  0.3282  0.7768 -0.2575
 5849SOL     OW22676   7.639   0.664   9.584 -0.3034  0.2747  0.1511
 5849SOL    HW122677   7.679   0.747   9.610  0.5676 -0.1432  0.1531
 5849SOL    HW222678   7.704   0.598   9.608 -0.4961 -0.3097 -0.9437
 5850SOL     OW22679   2.539   4.049   2.989 -0.0310  0.3775 -0.3934
 5850SOL    HW122680   2.557   4.110   3.061  1.0946 -0.0818 -0.2830
 5850SOL    HW222681   2.443   4.039   2.990 -0.1920  1.7328 -0.0824
 5851SOL     OW22682   7.481   5.371   4.876  0.2086 -0.0292  0.6248
 5851SOL    HW122683   7.523   5.443   4.830  1.5763 -1.2127 -0.0232
 5851SOL    HW222684   7.423   5.330   4.811 -1.9362  1.5283  1.4817
 5852SOL     OW22685   1.543   3.992   2.087 -0.0641 -0.8668 -0.0958
 5852SOL    HW122686   1.508   3.978   2.175 -1.2242 -1.8370 -0.7012
 5852SOL    HW222687   1.559   3.904   2.053 -2.2027 -0.6160 -1.8627
 5853SOL     OW22688   3.125   4.887   0.403  0.0430 -0.6693  0.2590
 5853SOL    HW122689   3.116   4.892   0.308  0.6533 -0.2666  0.2245
 5853SOL    HW222690   3.082   4.966   0.435  0.8063 -0.2540  0.2586
 5854SOL     OW22691   9.087   7.782   2.456 -0.3952 -0.4583 -0.1036
 5854SOL    HW122692   9.071   7.728   2.378 -0.0687  0.4227 -0.8021
 5854SOL    HW222693   9.020   7.755   2.518  0.6624 -2.7009  0.1198
 5855SOL     OW22694   6.783   9.916   1.229  0.0538 -0.9557 -0.0012
 5855SOL    HW122695   6.833   9.996   1.211 -0.2432 -0.3549  1.7078
 5855SOL    HW222696   6.705   9.947   1.274 -0.4327 -2.1486 -0.0151
 5856SOL     OW22697   8.922   3.232   1.875  0.2058  0.2335 -0.1042
 5856SOL    HW122698   8.874   3.285   1.939  1.5230  1.4351 -0.1017
 5856SOL    HW222699   8.855   3.202   1.814 -0.5490  1.9400 -0.1334
 5857SOL     OW22700   1.971   1.490  10.512  0.6217  0.2911  0.1965
 5857SOL    HW122701   2.052   1.441  10.494  1.9128  2.7422 -0.9474
 5857SOL    HW222702   1.998   1.581  10.508 -1.9811  1.1202  1.1066
 5858SOL     OW22703   2.776   5.565   6.397  0.3807 -0.2784 -0.1798
 5858SOL    HW122704   2.776   5.599   6.486 -0.8903 -0.5754 -0.0622
 5858SOL    HW222705   2.739   5.636   6.344 -1.2617 -1.0489 -0.0913
 5859SOL     OW22706   4.211  10.510  10.452  0.1201 -0.1628  0.0385
 5859SOL    HW122707   4.160  10.588  10.429 -1.4575 -0.9231  0.9180
 5859SOL    HW222708   4.196  10.497  10.545  2.0802 -0.3139  0.3669
 5860SOL     OW22709   9.046   4.588   1.289 -0.4640 -0.4793 -0.8232
 5860SOL    HW122710   8.956   4.584   1.322 -0.5787  1.6314 -0.8287
 5860SOL    HW222711   9.100   4.587   1.368 -0.5957  0.7370 -0.7098
 5861SOL     OW22712   5.315   2.167   8.406  0.1630  0.3891 -0.3598
 5861SOL    HW122713   5.383   2.203   8.463 -2.3786  2.1796  1.6830
 5861SOL    HW222714   5.280   2.244   8.360 -2.3012 -0.0636  0.6913
 5862SOL     OW22715   4.995   1.715   5.309 -0.1323  0.0812 -0.5119
 5862SOL    HW122716   5.039   1.687   5.389 -1.3668 -2.0197 -0.5502
 5862SOL    HW222717   4.989   1.810   5.317  1.7446  0.1144  0.8484
 5863SOL     OW22718   7.403   5.305   1.138 -0.2522  0.2789 -0.2140
 5863SOL    HW122719   7.450   5.222   1.145 -1.7417 -0.6159 -0.5240
 5863SOL    HW222720   7.471   5.370   1.117  0.8920 -0.8898 -0.1774
 5864SOL     OW22721   7.746  10.434   2.162  0.3138  1.1184 -0.0023
 5864SOL    HW122722   7.827  10.444   2.112  0.8268 -0.6276  0.4402
 5864SOL    HW222723   7.701  10.361   2.121 -0.3041  1.0744  0.7373
 5865SOL     OW22724   1.278   4.872   4.162  0.6664  0.5095  0.5719
 5865SOL    HW122725   1.314   4.864   4.250  2.2686 -1.2915 -0.2177
 5865SOL    HW222726   1.344   4.921   4.113  0.0787  0.9443  0.1994
 5866SOL     OW22727   0.236   3.291  10.405 -0.4483 -0.0252 -0.6126
 5866SOL    HW122728   0.324   3.302  10.443 -0.6285  0.3332 -0.2995
 5866SOL    HW222729   0.212   3.201  10.426  0.3649 -0.5331 -1.7874
 5867SOL     OW22730   6.381   7.251   7.608 -0.1361  0.1253  0.5513
 5867SOL    HW122731   6.379   7.317   7.678 -0.8104  0.1032  0.5637
 5867SOL    HW222732   6.426   7.177   7.647  0.0073  0.3260  0.7714
 5868SOL     OW22733  10.593   2.587  10.433  0.6797  0.3729  0.2644
 5868SOL    HW122734  10.541   2.652  10.481  1.2601 -0.0680  1.5153
 5868SOL    HW222735  10.586   2.508  10.486  0.7730 -0.3167 -0.7459
 5869SOL     OW22736   3.560   3.478   3.048  0.4179  0.6115  0.5077
 5869SOL    HW122737   3.637   3.499   2.995  1.3002 -0.4532  1.3526
 5869SOL    HW222738   3.521   3.403   3.004  1.5236 -0.6900  1.7192
 5870SOL     OW22739   2.891   7.916   4.078 -0.4657 -0.3993 -0.4824
 5870SOL    HW122740   2.846   7.967   4.010 -1.3134  0.7398  0.9075
 5870SOL    HW222741   2.920   7.981   4.142  0.2804 -1.4606  0.2779
 5871SOL     OW22742   8.392  11.298   8.623  0.5600 -0.9655 -0.2746
 5871SOL    HW122743   8.324  11.262   8.566 -0.2270  0.4272 -0.2414
 5871SOL    HW222744   8.380  11.393   8.617  0.2612 -0.7986  2.4310
 5872SOL     OW22745   3.310  10.570   3.936  0.6258 -0.0403  0.2545
 5872SOL    HW122746   3.306  10.475   3.925  0.8905 -0.1358  0.9572
 5872SOL    HW222747   3.240  10.604   3.880 -0.6360 -0.7558  1.3732
 5873SOL     OW22748   9.617   7.317   5.441 -0.2926 -0.1538  0.1850
 5873SOL    HW122749   9.538   7.369   5.426  0.0821  0.2433 -0.4244
 5873SOL    HW222750   9.584   7.231   5.468 -0.9850 -0.7060 -2.2621
 5874SOL     OW22751   7.764   3.662   0.502 -0.0022  0.2752  0.5426
 5874SOL    HW122752   7.694   3.721   0.527  0.2799  1.7454 -1.9210
 5874SOL    HW222753   7.843   3.698   0.542  0.2940  2.0776 -1.5421
 5875SOL     OW22754   2.823   1.505   9.481 -0.3407 -0.1213  0.0076
 5875SOL    HW122755   2.878   1.504   9.560 -0.5509 -0.6204  0.1516
 5875SOL    HW222756   2.883   1.526   9.410 -0.1476  0.3326  0.2949
 5876SOL     OW22757   8.084   5.593   6.067 -0.0292 -0.0639 -0.1454
 5876SOL    HW122758   8.029   5.633   5.999 -0.1339  1.5993  0.8744
 5876SOL    HW222759   8.164   5.646   6.067  0.5598 -0.9451  0.0555
 5877SOL     OW22760   1.547   8.677   4.673 -0.3107 -0.1403 -0.2136
 5877SOL    HW122761   1.459   8.711   4.659 -0.0433  0.8531  0.4847
 5877SOL    HW222762   1.605   8.748   4.646  0.2696 -0.4942  0.1013
 5878SOL     OW22763   7.677   9.897   0.151 -0.2167  0.1291  0.6515
 5878SOL    HW122764   7.759   9.938   0.181 -1.1248  0.0378  3.3937
 5878SOL    HW222765   7.677   9.811   0.193 -2.1081  0.4779  1.4148
 5879SOL     OW22766   5.526   2.012   5.651  0.0436 -0.0125 -0.1004
 5879SOL    HW122767   5.471   1.936   5.670 -1.8785  1.5722  0.7976
 5879SOL    HW222768   5.515   2.026   5.557 -1.4934  0.6056  0.1662
 5880SOL     OW22769  11.033  10.699  11.183 -0.6851 -0.0465 -0.0071
 5880SOL    HW122770  10.942  10.729  11.187 -0.1774  2.5103 -4.3485
 5880SOL    HW222771  11.036  10.644  11.105  1.4922 -0.2415  0.2013
 5881SOL     OW22772   4.151   2.907   0.992  0.6442 -0.2679 -0.0165
 5881SOL    HW122773   4.104   2.861   1.061  1.1692 -1.4006 -0.3965
 5881SOL    HW222774   4.089   2.972   0.959 -0.6976 -1.8207 -0.6089
 5882SOL     OW22775   6.987   7.192   0.001 -0.7047  0.0361 -0.0075
 5882SOL    HW122776   6.943   7.111  -0.025  1.1657 -1.1877  0.5541
 5882SOL    HW222777   7.077   7.182  -0.029 -0.1940  1.4716  0.9672
 5883SOL     OW22778   9.573   7.738   5.069  0.0763 -0.3365 -0.1998
 5883SOL    HW122779   9.525   7.816   5.098  0.7837  0.2547 -0.6068
 5883SOL    HW222780   9.544   7.723   4.979  0.7568  0.1099 -0.4977
 5884SOL     OW22781   3.393   0.308   1.871 -0.4732 -0.0230 -0.6322
 5884SOL    HW122782   3.368   0.234   1.816 -2.2040  0.6247 -0.7473
 5884SOL    HW222783   3.311   0.336   1.913  0.3289  1.2087  0.1557
 5885SOL     OW22784   0.085   0.202   0.843  0.1950  0.8255 -0.1456
 5885SOL    HW122785   0.161   0.207   0.785 -0.2844 -0.7306 -0.9158
 5885SOL    HW222786   0.123   0.193   0.931  0.9072  1.2329 -0.4062
 5886SOL     OW22787   7.216   8.872   0.936 -0.4476  0.0319  0.6078
 5886SOL    HW122788   7.125   8.899   0.946 -0.1372  1.6470 -0.6245
 5886SOL    HW222789   7.212   8.783   0.902 -1.5428 -0.3557  1.7339
 5887SOL     OW22790  10.431   1.083  10.648  0.4008  0.3134  0.1666
 5887SOL    HW122791  10.341   1.068  10.676  0.1171  0.2696 -0.7739
 5887SOL    HW222792  10.444   1.177  10.659 -0.2609  0.5668 -1.1673
 5888SOL     OW22793   0.905   6.646  10.490 -0.1252 -0.5348 -0.1569
 5888SOL    HW122794   0.972   6.712  10.509  0.3075 -0.7686 -0.8763
 5888SOL    HW222795   0.838   6.694  10.440 -0.2592 -0.4208  0.1294
 5889SOL     OW22796   7.791   5.304   1.265 -0.4213  0.3999 -0.1525
 5889SOL    HW122797   7.885   5.294   1.280 -0.2119 -0.0640 -1.7077
 5889SOL    HW222798   7.785   5.357   1.185 -1.4717  0.3450 -0.1143
 5890SOL     OW22799   0.256   8.336   1.647 -0.1350  0.2878  0.1723
 5890SOL    HW122800   0.297   8.300   1.568 -1.7286 -0.1051 -0.5025
 5890SOL    HW222801   0.219   8.260   1.692  0.9002  0.4898  1.3964
 5891SOL     OW22802  10.614   0.367  10.482  0.2381 -0.0608  0.6240
 5891SOL    HW122803  10.577   0.352  10.395  2.7372  2.0851 -0.8853
 5891SOL    HW222804  10.632   0.461  10.484  0.4525 -0.1344  3.3860
 5892SOL     OW22805   8.352   8.782   8.687 -0.2216 -0.5454  0.3498
 5892SOL    HW122806   8.315   8.841   8.753 -1.0559 -1.5476  0.7936
 5892SOL    HW222807   8.391   8.711   8.737  2.6061  0.5978 -0.0897
 5893SOL     OW22808   1.563   2.128  10.097  0.1332 -0.4244  0.2823
 5893SOL    HW122809   1.474   2.135  10.063  0.7366 -1.8430 -1.6435
 5893SOL    HW222810   1.614   2.189  10.044  0.8001 -1.5299 -0.3561
 5894SOL     OW22811   6.700   2.295   6.274  0.2892 -0.0858 -0.0140
 5894SOL    HW122812   6.741   2.356   6.336 -0.1677  1.2408 -1.0100
 5894SOL    HW222813   6.773   2.244   6.239  0.9778  1.5594 -1.0046
 5895SOL     OW22814   8.048   0.588   5.983  0.2119  0.0629 -0.4681
 5895SOL    HW122815   7.985   0.519   6.003 -0.5357  0.3166 -1.8742
 5895SOL    HW222816   7.994   0.666   5.968  1.0662  1.0528  1.4325
 5896SOL     OW22817  11.123   2.174   8.202  0.0036  0.0476 -0.0484
 5896SOL    HW122818  11.074   2.214   8.129  1.2186 -1.9601 -2.0217
 5896SOL    HW222819  11.081   2.090   8.216  0.6171 -0.1400  0.6956
 5897SOL     OW22820   8.600   6.995  11.291  0.1384  0.1884 -0.4256
 5897SOL    HW122821   8.643   6.916  11.259 -3.0357 -0.6094 -3.0264
 5897SOL    HW222822   8.608   7.057  11.219 -1.1863  0.7519 -0.0954
 5898SOL     OW22823   1.627   4.215  10.087  0.3214 -0.1912  0.1249
 5898SOL    HW122824   1.626   4.308  10.110  1.1005 -0.8699  3.1669
 5898SOL    HW222825   1.720   4.192  10.088  0.1519 -0.9313 -0.9531
 5899SOL     OW22826   3.390   1.596   1.784 -0.4033  0.2009 -0.1513
 5899SOL    HW122827   3.326   1.664   1.804 -0.7487 -0.1618 -0.0202
 5899SOL    HW222828   3.342   1.531   1.733  0.3411  0.8565 -1.7008
 5900SOL     OW22829  11.236  10.334   0.713  1.0035  0.7071  0.5695
 5900SOL    HW122830  11.275  10.325   0.800  4.4724  0.4514 -0.9320
 5900SOL    HW222831  11.236  10.245   0.677 -0.1462  0.8498  0.2132
 5901SOL     OW22832  10.955   9.795   4.147 -0.0749  0.1066 -0.5336
 5901SOL    HW122833  10.986   9.865   4.091 -1.4790 -0.6697 -2.3544
 5901SOL    HW222834  10.871   9.827   4.181 -0.0769 -0.1410 -0.3007
 5902SOL     OW22835   5.305   9.949   1.680  0.1136 -0.3558  0.1742
 5902SOL    HW122836   5.221   9.904   1.675 -0.9794  1.2521  2.8509
 5902SOL    HW222837   5.332   9.940   1.772  1.1408  2.1307  0.1507
 5903SOL     OW22838   0.334   2.931   7.226 -0.0381  0.3311 -0.3075
 5903SOL    HW122839   0.335   2.855   7.167 -0.1463  0.0056  0.1037
 5903SOL    HW222840   0.256   2.917   7.280 -0.3019  0.9652 -0.5196
 5904SOL     OW22841   4.189   3.848   8.573 -0.2693  0.3137  0.4120
 5904SOL    HW122842   4.259   3.909   8.552 -0.6834  0.2137 -1.2775
 5904SOL    HW222843   4.162   3.873   8.662  0.6514  1.5279  0.3669
 5905SOL     OW22844   8.189  11.312   0.618  0.4784  0.1297  0.4729
 5905SOL    HW122845   8.172  11.218   0.621  2.3517 -0.2814 -0.7643
 5905SOL    HW222846   8.282  11.321   0.639  0.0614  1.8019  1.6733
 5906SOL     OW22847   8.724   3.864   7.352  0.2685 -0.1538  0.4522
 5906SOL    HW122848   8.688   3.786   7.309 -0.0963  1.0822 -1.5801
 5906SOL    HW222849   8.751   3.834   7.438  2.3015 -3.0552 -1.1381
 5907SOL     OW22850   9.178   5.473   5.474 -0.1401  0.4282  0.6925
 5907SOL    HW122851   9.195   5.542   5.410 -0.3823  0.7812  0.9980
 5907SOL    HW222852   9.131   5.405   5.426  0.4983  0.2756  0.2837
 5908SOL     OW22853   0.219   1.629  10.742  0.6754  0.4296  0.2132
 5908SOL    HW122854   0.164   1.673  10.807 -2.3137 -0.9501 -1.2890
 5908SOL    HW222855   0.240   1.545  10.782  1.6891  0.9352  0.7670
 5909SOL     OW22856   8.815   0.912   0.452 -0.5621 -0.2579  0.2743
 5909SOL    HW122857   8.835   0.976   0.384 -3.9347 -0.0299 -0.5819
 5909SOL    HW222858   8.900   0.892   0.492  1.4179 -0.0703 -3.6567
 5910SOL     OW22859   5.288   3.052   2.816  0.6855 -0.2897  0.3615
 5910SOL    HW122860   5.362   3.105   2.845 -0.1610  0.8723  0.4507
 5910SOL    HW222861   5.278   3.073   2.723  2.9264 -3.4504 -0.6464
 5911SOL     OW22862   7.917   5.162   3.054  0.0254  0.3471  0.0542
 5911SOL    HW122863   7.881   5.136   2.969 -3.4177  2.2665  0.7971
 5911SOL    HW222864   7.968   5.241   3.036 -0.5207  0.6275 -0.2760
 5912SOL     OW22865   7.026   7.961   1.337  0.1949  0.3242  0.5575
 5912SOL    HW122866   7.116   7.928   1.335 -0.5776 -2.0844  2.8566
 5912SOL    HW222867   7.000   7.955   1.429 -2.4784  0.6028 -0.1297
 5913SOL     OW22868   6.726   7.677  10.577  0.0419  0.4366  0.0684
 5913SOL    HW122869   6.772   7.611  10.628  0.8478  0.8165 -0.1713
 5913SOL    HW222870   6.679   7.627  10.510  2.5266  0.2856 -1.5831
 5914SOL     OW22871   4.043   1.906   2.863 -0.4306 -0.1324  0.1244
 5914SOL    HW122872   4.082   1.914   2.776  0.0968 -0.0574  0.3636
 5914SOL    HW222873   4.080   1.825   2.899  0.1930  0.3848  0.6878
 5915SOL     OW22874   8.723   7.685   7.171 -0.1681  0.3231 -0.3659
 5915SOL    HW122875   8.761   7.631   7.101  1.5111 -0.9053  1.4340
 5915SOL    HW222876   8.702   7.623   7.241 -0.7879  1.6640  0.6630
 5916SOL     OW22877   1.054  10.613   7.435  0.3951  0.4656 -0.1104
 5916SOL    HW122878   1.095  10.637   7.518 -0.6499  2.1807 -0.0523
 5916SOL    HW222879   1.041  10.697   7.390 -0.3385 -0.3191 -1.3969
 5917SOL     OW22880   4.360   5.931   7.099  0.2656  0.0150  0.1145
 5917SOL    HW122881   4.290   5.888   7.050  0.2573  0.6549 -0.4467
 5917SOL    HW222882   4.386   5.868   7.166 -1.2993  0.0174  0.7450
 5918SOL     OW22883   9.840   3.367   3.604 -0.4064 -0.0636 -0.2824
 5918SOL    HW122884   9.934   3.348   3.596 -0.3427  0.4375 -0.7161
 5918SOL    HW222885   9.831   3.408   3.690  0.0985  1.8901 -1.1569
 5919SOL     OW22886   7.105   2.223  10.598 -0.0189  0.2166  0.0300
 5919SOL    HW122887   7.102   2.128  10.614  1.0496  0.1207 -0.3254
 5919SOL    HW222888   7.018   2.244  10.564  0.6677 -1.1451 -2.7021
 5920SOL     OW22889   6.763   4.522   1.371 -0.1828  0.7431  0.9040
 5920SOL    HW122890   6.822   4.564   1.433  1.7255 -0.7692  0.1540
 5920SOL    HW222891   6.777   4.569   1.289  1.3280 -0.7429  0.2795
 5921SOL     OW22892   6.312  10.687   0.423 -0.4933  0.0229 -0.7539
 5921SOL    HW122893   6.384  10.631   0.394  0.6586  1.0637  0.0374
 5921SOL    HW222894   6.355  10.758   0.471 -2.0658  0.5686 -0.1264
 5922SOL     OW22895   7.067   3.074  11.157  0.9405  0.0861 -0.6120
 5922SOL    HW122896   7.083   3.003  11.095 -0.5762 -3.4697  2.8687
 5922SOL    HW222897   6.976   3.100  11.140  1.9770  2.4003 -2.9468
 5923SOL     OW22898   5.981   6.322   1.279 -0.3661 -0.1562  0.2582
 5923SOL    HW122899   6.054   6.296   1.224 -1.6377  0.8587 -1.9723
 5923SOL    HW222900   5.910   6.262   1.256 -2.3004  3.0721 -2.5745
 5924SOL     OW22901   8.454   5.386   1.820  0.4421 -0.2136 -0.0181
 5924SOL    HW122902   8.502   5.333   1.884 -0.3596 -0.9792 -0.0496
 5924SOL    HW222903   8.500   5.471   1.821  0.6189 -0.3089  1.3564
 5925SOL     OW22904   7.135   4.653   2.364  0.4001  0.2645  0.1493
 5925SOL    HW122905   7.045   4.677   2.343  0.5613  0.3426 -0.4948
 5925SOL    HW222906   7.178   4.736   2.385  0.0902  0.1184  1.4019
 5926SOL     OW22907   0.629   6.373  10.550 -0.7249 -0.3832 -0.1149
 5926SOL    HW122908   0.677   6.292  10.562  0.1231  0.5118  3.0590
 5926SOL    HW222909   0.694   6.435  10.517 -0.7516 -0.2948 -0.0002
 5927SOL     OW22910   4.619   2.001   7.652  0.3852  1.2655 -0.2493
 5927SOL    HW122911   4.615   2.060   7.727  0.4817  0.3154  0.5227
 5927SOL    HW222912   4.685   1.936   7.677 -0.7314  0.0131 -0.4688
 5928SOL     OW22913   2.965   9.451   0.211  0.0793  0.4135  0.0312
 5928SOL    HW122914   2.926   9.473   0.126 -0.7298 -2.7956 -0.5201
 5928SOL    HW222915   3.021   9.375   0.192  0.3170  0.0016  2.2500
 5929SOL     OW22916   7.896   1.059   5.561  0.1888 -0.2705 -0.2854
 5929SOL    HW122917   7.870   0.970   5.585 -0.7216  0.1957  0.4787
 5929SOL    HW222918   7.920   1.052   5.469  1.2213 -1.5411  0.0585
 5930SOL     OW22919   3.669   9.223   1.590 -0.1955 -0.0384 -0.1816
 5930SOL    HW122920   3.577   9.243   1.605  0.4180  1.6955  1.3864
 5930SOL    HW222921   3.676   9.129   1.606 -2.0009 -0.5147 -1.9719
 5931SOL     OW22922   0.062  10.320   3.151 -0.1442 -0.4446 -0.5021
 5931SOL    HW122923   0.119  10.267   3.206  1.5194  2.0041  0.2089
 5931SOL    HW222924  -0.019  10.327   3.202  0.6583  0.1072  0.7343
 5932SOL     OW22925  10.007   1.770   8.182 -0.5072 -0.0492  0.5570
 5932SOL    HW122926   9.933   1.718   8.214 -0.1383  0.1773  1.7968
 5932SOL    HW222927   9.966   1.841   8.133 -1.0451 -0.9792 -0.3650
 5933SOL     OW22928  10.933   9.943   0.481  0.1899 -0.1317 -0.6215
 5933SOL    HW122929  11.004  10.003   0.503  0.3687  0.1014 -1.7842
 5933SOL    HW222930  10.951   9.865   0.533  1.0683  0.0850 -0.5882
 5934SOL     OW22931   2.505   1.784  11.049  0.4184 -0.0837 -0.7511
 5934SOL    HW122932   2.600   1.780  11.033  0.4521 -0.9254 -0.3899
 5934SOL    HW222933   2.483   1.696  11.081 -0.3791  0.2914 -0.2621
 5935SOL     OW22934   3.878   1.452   9.100  0.0085  0.3200 -0.0379
 5935SOL    HW122935   3.882   1.372   9.153  1.6180  0.8492  0.6799
 5935SOL    HW222936   3.926   1.517   9.151 -3.2778  2.4559  0.5279
 5936SOL     OW22937   9.114   3.491   3.584 -0.2982 -0.4523  0.3174
 5936SOL    HW122938   9.136   3.399   3.596  1.4255 -0.2673 -1.1748
 5936SOL    HW222939   9.062   3.492   3.504  1.0035  0.0330 -0.5363
 5937SOL     OW22940   8.015   1.537   8.814  0.4735 -0.6321  0.2436
 5937SOL    HW122941   7.926   1.568   8.834  1.4997  3.8357 -1.5644
 5937SOL    HW222942   8.008   1.505   8.724  1.4057  3.4006 -1.3841
 5938SOL     OW22943   9.732  10.115   9.506 -0.3441 -0.8393 -0.2226
 5938SOL    HW122944   9.797  10.156   9.563  1.2639 -2.5398 -0.7660
 5938SOL    HW222945   9.691  10.048   9.560 -0.8644 -0.5052 -0.2050
 5939SOL     OW22946   1.116   7.898   0.734  0.3029  0.1202 -0.4188
 5939SOL    HW122947   1.118   7.961   0.807  0.0800 -0.2874 -0.0544
 5939SOL    HW222948   1.030   7.856   0.743  1.7100 -2.5188  1.2925
 5940SOL     OW22949   8.456   1.749  10.332  0.8355  0.1674  0.4022
 5940SOL    HW122950   8.387   1.789  10.386 -0.0429 -0.0829 -0.5023
 5940SOL    HW222951   8.530   1.809  10.340 -1.1341  3.2685 -2.6108
 5941SOL     OW22952   8.571   7.931   0.949 -0.5160  0.6040 -0.3305
 5941SOL    HW122953   8.632   7.858   0.940 -2.4323 -0.8663 -1.7869
 5941SOL    HW222954   8.583   7.982   0.869 -3.0457 -1.1823 -1.9186
 5942SOL     OW22955   5.417   2.329   0.272  0.1048 -0.0193 -0.3869
 5942SOL    HW122956   5.348   2.393   0.254  0.2032 -0.2402 -1.6157
 5942SOL    HW222957   5.378   2.245   0.249 -0.0107 -0.4075  1.1835
 5943SOL     OW22958  10.996   0.174   3.631 -0.0356  0.0675  0.3325
 5943SOL    HW122959  11.054   0.184   3.556 -1.6049  0.1046 -0.8861
 5943SOL    HW222960  11.017   0.088   3.667  0.7164  0.0487 -0.1510
 5944SOL     OW22961   3.484   1.982   5.217 -0.3867  0.0047  0.0623
 5944SOL    HW122962   3.419   2.031   5.267  0.2567  0.6134  0.2968
 5944SOL    HW222963   3.434   1.943   5.145 -0.5266  2.7429 -1.3639
 5945SOL     OW22964   8.186   5.646   1.201  0.1017  0.0957 -0.3881
 5945SOL    HW122965   8.152   5.735   1.200  0.0462  0.0679 -0.7615
 5945SOL    HW222966   8.268   5.653   1.250 -0.6350  0.0862  0.8741
 5946SOL     OW22967   5.822   2.744   3.662 -0.6488 -0.3382 -0.4939
 5946SOL    HW122968   5.802   2.689   3.587  1.1430 -5.2291  2.3344
 5946SOL    HW222969   5.746   2.734   3.720 -0.8443  1.1777 -0.4820
 5947SOL     OW22970   1.827   7.888   8.845  0.5689 -0.5908  0.0198
 5947SOL    HW122971   1.894   7.951   8.818  1.5420 -0.9520  1.5239
 5947SOL    HW222972   1.862   7.803   8.821  0.8477 -0.8121  1.1566
 5948SOL     OW22973   2.609   8.126   4.595 -0.0372  0.1413  0.2642
 5948SOL    HW122974   2.602   8.069   4.518 -1.7463 -0.0269  0.5386
 5948SOL    HW222975   2.573   8.210   4.566 -0.6715  0.0842  0.8633
 5949SOL     OW22976   1.243  11.005   2.602  0.4642  0.2028  0.4857
 5949SOL    HW122977   1.174  10.959   2.649  0.0714  2.3777  2.1548
 5949SOL    HW222978   1.320  10.949   2.611 -0.2204 -0.5860  1.6232
 5950SOL     OW22979  10.492   1.278   2.852  0.3305 -0.2617  0.0852
 5950SOL    HW122980  10.584   1.258   2.871 -0.1922 -1.1936  1.7118
 5950SOL    HW222981  10.454   1.301   2.937 -1.5004 -2.2496 -0.1518
 5951SOL     OW22982  10.539   6.697   7.268 -0.4137  0.4475  0.3458
 5951SOL    HW122983  10.589   6.738   7.197 -1.3125 -0.5953 -0.9151
 5951SOL    HW222984  10.492   6.625   7.226 -0.8774 -0.2657  2.0291
 5952SOL     OW22985   4.467   3.190   6.100  0.0935  0.0570  0.1084
 5952SOL    HW122986   4.551   3.237   6.098  0.0036  0.1966 -0.7942
 5952SOL    HW222987   4.421   3.220   6.022 -0.6210 -0.3524  0.3653
 5953SOL     OW22988   4.556   8.076   3.038  0.6060 -0.3169  0.0405
 5953SOL    HW122989   4.635   8.075   2.984  0.7766 -0.9125  0.3007
 5953SOL    HW222990   4.579   8.024   3.115  0.6073  1.1092  1.0304
 5954SOL     OW22991   8.954   4.109   8.526 -0.4289 -0.3034  0.3201
 5954SOL    HW122992   8.921   4.145   8.444  1.7717  1.4464  0.1524
 5954SOL    HW222993   8.925   4.018   8.526 -1.4730 -0.0044 -1.8356
 5955SOL     OW22994   8.552  10.262   3.342 -0.0204  0.1702  0.1061
 5955SOL    HW122995   8.511  10.343   3.372 -0.4789  0.1296 -0.3834
 5955SOL    HW222996   8.493  10.231   3.272 -0.3155 -1.0266  0.8719
 5956SOL     OW22997   9.203  11.000   8.528 -0.3619  0.0560  0.2453
 5956SOL    HW122998   9.188  10.931   8.592  0.1550 -0.8742 -0.6177
 5956SOL    HW222999   9.158  10.971   8.449  0.3669  0.4184 -0.3130
 5957SOL     OW23000   5.465   5.870   1.037 -0.1358 -0.4424 -0.2232
 5957SOL    HW123001   5.530   5.800   1.042 -1.3357 -1.5860 -0.0187
 5957SOL    HW223002   5.396   5.834   0.980 -0.5691  0.7453 -0.4678
 5958SOL     OW23003   0.610  11.165   9.761 -0.2107  0.6584  0.2888
 5958SOL    HW123004   0.569  11.135   9.842  0.3403 -0.6278  0.0993
 5958SOL    HW223005   0.537  11.200   9.709 -0.2974  3.4167  2.1520
 5959SOL     OW23006   4.974   1.278   1.636  0.5395 -0.1354 -0.1050
 5959SOL    HW123007   4.902   1.298   1.577  0.0311  2.7632  1.4316
 5959SOL    HW223008   4.968   1.344   1.705  4.2191 -0.3039  0.4694
 5960SOL     OW23009  10.411   0.161   5.907 -0.3543  0.3014 -0.0732
 5960SOL    HW123010  10.433   0.251   5.930  1.1565 -0.0616  0.0099
 5960SOL    HW223011  10.464   0.108   5.967 -0.7430 -0.6333 -0.5468
 5961SOL     OW23012  10.284  11.248   9.793 -0.0651 -0.6427  0.4369
 5961SOL    HW123013  10.341  11.180   9.831 -1.0589 -1.0486  1.2258
 5961SOL    HW223014  10.262  11.305   9.867 -0.3177 -0.2297  0.0469
 5962SOL     OW23015   2.288   2.629   1.979  0.4892  0.3219  0.0636
 5962SOL    HW123016   2.252   2.601   1.895  3.4105 -0.9816 -0.8183
 5962SOL    HW223017   2.381   2.610   1.972  0.6672 -0.4876  3.9123
 5963SOL     OW23018   0.692   3.364   7.397 -0.1481 -0.0504 -0.1612
 5963SOL    HW123019   0.613   3.315   7.372 -0.0014  0.7260 -2.2538
 5963SOL    HW223020   0.758   3.334   7.335  1.2325 -0.7200  1.6124
 5964SOL     OW23021  10.421   7.152   9.032 -0.0577 -0.2761 -0.6313
 5964SOL    HW123022  10.491   7.206   8.994  0.9941 -1.1636 -0.0024
 5964SOL    HW223023  10.413   7.185   9.122 -0.4215 -0.2055 -0.6893
 5965SOL     OW23024   1.567   3.461   9.304  0.1734  0.0105 -0.2032
 5965SOL    HW123025   1.514   3.389   9.339  0.7989 -0.8784 -1.0646
 5965SOL    HW223026   1.628   3.482   9.374  0.1776 -0.4860 -0.0577
 5966SOL     OW23027   7.683  10.430   6.241  0.5890 -0.1837 -0.6530
 5966SOL    HW123028   7.743  10.439   6.166 -0.3648  0.6819 -1.3257
 5966SOL    HW223029   7.738  10.396   6.312  1.8556  0.5014 -1.2901
 5967SOL     OW23030   6.798   7.767   3.011 -0.1259 -0.0128  0.2674
 5967SOL    HW123031   6.742   7.768   3.089 -0.7751  1.4342 -0.2075
 5967SOL    HW223032   6.751   7.821   2.947  1.5678  0.7703 -0.3242
 5968SOL     OW23033   0.641   5.178  11.000  0.8252 -0.3926  0.2077
 5968SOL    HW123034   0.670   5.217  10.917 -0.8445 -0.0229 -0.2203
 5968SOL    HW223035   0.681   5.232  11.067  0.2069  0.8222 -0.3814
 5969SOL     OW23036   3.089   5.873  11.139  0.0613  0.3646 -0.1697
 5969SOL    HW123037   3.182   5.894  11.137  0.0784  0.7544  2.9771
 5969SOL    HW223038   3.061   5.892  11.228 -2.4367 -2.3253 -0.2783
 5970SOL     OW23039   5.633   4.356   2.651 -0.3977 -0.4700  0.3352
 5970SOL    HW123040   5.649   4.301   2.575 -0.4823  0.5926 -0.4600
 5970SOL    HW223041   5.540   4.340   2.673 -0.7131  0.1639 -0.5413
 5971SOL     OW23042   9.911   1.227   3.745 -0.1711  0.0937 -0.2727
 5971SOL    HW123043   9.883   1.244   3.655  2.1092  2.0208 -0.6762
 5971SOL    HW223044   9.884   1.137   3.762 -1.1575 -0.1040 -2.6879
 5972SOL     OW23045   6.582  10.705   3.553  0.4569 -0.4015 -0.5451
 5972SOL    HW123046   6.617  10.701   3.642  0.4108  0.0582 -0.5050
 5972SOL    HW223047   6.574  10.613   3.526 -3.5887 -0.7359  1.4996
 5973SOL     OW23048  10.914   2.799   5.338  0.3425 -0.1777 -0.4320
 5973SOL    HW123049  10.940   2.738   5.269 -0.9830 -1.7150  0.3882
 5973SOL    HW223050  10.988   2.799   5.400  1.1113  0.4543 -1.3284
 5974SOL     OW23051   1.559   6.540   8.234 -0.2146 -0.3017  0.1143
 5974SOL    HW123052   1.648   6.517   8.262 -0.7870 -0.6524  1.6754
 5974SOL    HW223053   1.531   6.607   8.297 -1.6645 -1.3573  0.6036
 5975SOL     OW23054   2.705   4.577   3.070 -0.1174  0.1617 -0.8358
 5975SOL    HW123055   2.706   4.481   3.071  1.9078  0.1277  2.9311
 5975SOL    HW223056   2.757   4.600   2.993 -0.0079 -1.7550 -1.3696
 5976SOL     OW23057  10.729   8.735   5.426 -0.2411  0.5437  0.2201
 5976SOL    HW123058  10.701   8.728   5.335  1.5159  1.4560 -0.4160
 5976SOL    HW223059  10.690   8.660   5.470 -0.5132 -0.2908 -1.4405
 5977SOL     OW23060   3.962   4.044   8.462 -0.5755  0.8077  0.0632
 5977SOL    HW123061   4.042   4.087   8.494 -0.3404  0.7204 -0.4076
 5977SOL    HW223062   3.991   3.958   8.432 -1.2691 -0.2728  2.3159
 5978SOL     OW23063   0.024   3.406   5.598 -0.0086  0.4741 -0.0379
 5978SOL    HW123064  -0.036   3.365   5.660 -0.0262  0.1377 -0.2758
 5978SOL    HW223065   0.100   3.431   5.651  0.0298  0.0780  0.0913
 5979SOL     OW23066   3.962   9.176  11.099 -0.3159 -0.0748  0.4195
 5979SOL    HW123067   4.037   9.186  11.041 -1.2103 -1.4332 -1.0148
 5979SOL    HW223068   3.905   9.250  11.079 -0.7042 -0.6384 -0.5764
 5980SOL     OW23069   8.326   1.297   7.572 -0.2883  0.1115  0.6140
 5980SOL    HW123070   8.386   1.301   7.646  1.1081 -1.6383 -0.3957
 5980SOL    HW223071   8.376   1.332   7.499 -0.5481 -1.1834 -0.1994
 5981SOL     OW23072   8.036   1.111   8.636 -0.3225 -0.6133  0.0675
 5981SOL    HW123073   8.058   1.114   8.543  1.5250  0.9080  0.5171
 5981SOL    HW223074   7.950   1.070   8.639 -0.9088  0.3405 -2.3990
 5982SOL     OW23075   2.409   5.052   1.898 -0.1023  0.2959  0.5512
 5982SOL    HW123076   2.373   5.063   1.810 -1.9810 -0.2368  1.2265
 5982SOL    HW223077   2.477   5.118   1.905  1.2174 -0.7317 -1.8929
 5983SOL     OW23078   3.903   4.587   1.826  0.1379 -0.2011  0.4559
 5983SOL    HW123079   3.934   4.532   1.898 -0.1358  1.4422  1.8618
 5983SOL    HW223080   3.808   4.589   1.836  0.1280  0.3561  0.2881
 5984SOL     OW23081   0.321  10.299   2.210 -0.4702 -0.9381 -0.6580
 5984SOL    HW123082   0.301  10.389   2.183 -0.4597 -0.1216  1.9394
 5984SOL    HW223083   0.240  10.251   2.192 -0.3792 -0.5101 -2.3404
 5985SOL     OW23084   9.338   1.921  10.154  0.0749  0.1006 -0.1160
 5985SOL    HW123085   9.366   1.973  10.229 -0.2672  0.1235 -0.0018
 5985SOL    HW223086   9.292   1.983  10.097 -1.7439 -0.3939  0.7763
 5986SOL     OW23087   3.108   8.833   0.011 -0.4344 -0.0772  0.3933
 5986SOL    HW123088   3.148   8.901  -0.044 -0.9592 -0.0890 -0.0200
 5986SOL    HW223089   3.173   8.813   0.077  0.0284  0.2814  0.0501
 5987SOL     OW23090   2.190   4.746   5.797  0.6203 -0.5996  0.1276
 5987SOL    HW123091   2.127   4.709   5.734 -1.1675 -0.3033  1.6999
 5987SOL    HW223092   2.183   4.689   5.873  2.3125 -0.5752  0.3067
 5988SOL     OW23093  10.135   1.452   1.288  0.5178 -0.0897 -0.6682
 5988SOL    HW123094  10.173   1.407   1.213  0.7340 -0.0694 -0.5696
 5988SOL    HW223095  10.203   1.511   1.319  0.4125 -0.0618 -0.4850
 5989SOL     OW23096   4.588   3.567   9.760 -0.3413 -0.2376 -0.4329
 5989SOL    HW123097   4.673   3.551   9.800  0.6649 -0.4897 -2.5583
 5989SOL    HW223098   4.608   3.622   9.684 -2.0541 -0.4716 -1.0710
 5990SOL     OW23099   6.895   4.567  10.279 -0.2865  0.3035 -0.2562
 5990SOL    HW123100   6.852   4.539  10.198 -0.6081  1.5261 -0.5190
 5990SOL    HW223101   6.894   4.662  10.275  1.6369  0.3659  0.1686
 5991SOL     OW23102   2.287   1.405   4.832 -0.1003  0.2095 -0.5702
 5991SOL    HW123103   2.203   1.448   4.816  0.0729  1.3307  1.3036
 5991SOL    HW223104   2.272   1.353   4.911  0.3051 -1.5032 -1.5995
 5992SOL     OW23105   4.355   0.146   3.369  0.2174 -0.1891 -0.5132
 5992SOL    HW123106   4.325   0.233   3.342 -0.8238  0.0159  1.2570
 5992SOL    HW223107   4.277   0.090   3.362  0.6817 -0.8153 -0.8269
 5993SOL     OW23108  11.162   1.959   3.389  0.2900  0.0655 -0.2748
 5993SOL    HW123109  11.228   1.891   3.398  0.0439 -0.6351 -3.2828
 5993SOL    HW223110  11.095   1.936   3.454  2.0644 -0.2646  1.4981
 5994SOL     OW23111   6.273   9.653   0.770 -0.7838 -0.2808  0.3329
 5994SOL    HW123112   6.346   9.601   0.737 -1.2795 -0.5349 -0.3910
 5994SOL    HW223113   6.313   9.736   0.795 -0.4425  0.1138 -1.4149
 5995SOL     OW23114   3.505   3.697   7.759 -0.5527  0.7346  0.4553
 5995SOL    HW123115   3.483   3.604   7.763 -2.2137  0.9834 -1.9758
 5995SOL    HW223116   3.557   3.707   7.679  0.2611  1.7873  1.0870
 5996SOL     OW23117   8.218   7.739   2.760 -0.3328  0.5162  0.4017
 5996SOL    HW123118   8.190   7.791   2.685 -3.5383 -0.1718  1.0601
 5996SOL    HW223119   8.144   7.740   2.820  1.3610 -0.7579  2.6064
 5997SOL     OW23120   9.461   2.492   7.141  0.9028 -0.3899  0.2816
 5997SOL    HW123121   9.375   2.533   7.137  0.5812 -1.0798 -0.0629
 5997SOL    HW223122   9.476   2.457   7.053  2.9480  2.4614 -0.5791
 5998SOL     OW23123   7.465   2.614   1.611 -0.0870  0.6160 -0.2149
 5998SOL    HW123124   7.503   2.585   1.694 -0.6496 -1.2046 -0.5912
 5998SOL    HW223125   7.541   2.635   1.557  0.3224 -0.4036 -0.0344
 5999SOL     OW23126  10.358   7.567   9.440  0.0850 -0.0884  0.6865
 5999SOL    HW123127  10.399   7.654   9.442  0.1250 -0.1101  0.8253
 5999SOL    HW223128  10.425   7.509   9.474 -0.3464 -0.0075  1.6688
 6000SOL     OW23129   4.698   7.046   2.715 -0.5087 -0.0333  0.3599
 6000SOL    HW123130   4.627   6.986   2.695 -0.2397 -0.1207 -0.3475
 6000SOL    HW223131   4.746   7.054   2.633 -1.2024  2.0310  0.1234
 6001SOL     OW23132  10.240   8.832   2.342 -0.0143 -0.2919 -0.8504
 6001SOL    HW123133  10.295   8.899   2.301 -0.5508  0.7667  0.1388
 6001SOL    HW223134  10.243   8.852   2.435 -2.1129 -0.1908 -0.7822
 6002SOL     OW23135  10.172  10.111   7.390  0.2758 -0.1063  0.1022
 6002SOL    HW123136  10.086  10.148   7.372  0.2605 -0.2748 -0.1753
 6002SOL    HW223137  10.178  10.036   7.332  0.9360  0.3758 -0.4546
 6003SOL     OW23138   6.521   1.574   4.402  0.8654  0.0792 -0.3264
 6003SOL    HW123139   6.478   1.518   4.337 -0.8559 -0.6945  1.4261
 6003SOL    HW223140   6.484   1.661   4.387  0.4558 -0.1025 -0.3746
 6004SOL     OW23141   7.229   6.221   3.688  0.0593  0.7437 -0.0074
 6004SOL    HW123142   7.222   6.153   3.755  0.3322 -0.7044 -1.3989
 6004SOL    HW223143   7.305   6.195   3.635 -0.7277  1.3103 -1.4496
 6005SOL     OW23144   8.460   9.406   4.427  0.0962  0.5328  0.5081
 6005SOL    HW123145   8.410   9.336   4.468 -2.0544  2.1778  0.7914
 6005SOL    HW223146   8.394   9.471   4.402  1.7612  1.2947 -2.0971
 6006SOL     OW23147   0.438   4.075   5.895 -0.1456 -0.3009 -0.1133
 6006SOL    HW123148   0.431   4.015   5.969  1.5564 -0.7965 -0.3539
 6006SOL    HW223149   0.383   4.036   5.827  2.0405 -2.3272 -0.7597
 6007SOL     OW23150   8.709   5.548   4.382  0.0224 -0.5903 -0.2390
 6007SOL    HW123151   8.670   5.634   4.395  0.6336 -0.3352 -0.0801
 6007SOL    HW223152   8.716   5.540   4.287 -0.6940 -0.7643 -0.2793
 6008SOL     OW23153   9.149   8.772   1.500  0.1655 -0.0127 -0.3767
 6008SOL    HW123154   9.076   8.761   1.439 -0.0992 -0.5062  0.0231
 6008SOL    HW223155   9.138   8.701   1.563  0.6205  0.3055  0.0617
 6009SOL     OW23156   8.076   4.712   4.049  0.3514  0.1981  0.6353
 6009SOL    HW123157   8.083   4.807   4.041  0.3784  0.1591  0.1580
 6009SOL    HW223158   7.992   4.690   4.007 -1.1906  0.3325  3.5435
 6010SOL     OW23159   0.083   9.153  10.338  0.1137  0.2124  0.4476
 6010SOL    HW123160   0.068   9.151  10.432  0.8144 -2.8761  0.5445
 6010SOL    HW223161   0.170   9.192  10.328 -0.3558  1.4034  1.0148
 6011SOL     OW23162   2.198   5.418   7.223  0.1288  0.1676 -0.0833
 6011SOL    HW123163   2.160   5.453   7.303  0.6643  2.9396 -0.9838
 6011SOL    HW223164   2.152   5.336   7.208 -3.3147  1.9023  0.5638
 6012SOL     OW23165   3.468   4.429   3.511  0.0296 -0.2827 -0.0042
 6012SOL    HW123166   3.449   4.337   3.491 -0.7716  0.1955 -1.5425
 6012SOL    HW223167   3.556   4.429   3.548  0.3458 -1.5707 -0.7543
 6013SOL     OW23168   7.485   1.986   8.584 -0.2567 -0.3031  0.2474
 6013SOL    HW123169   7.526   2.008   8.668 -2.9923  0.8325  1.3469
 6013SOL    HW223170   7.444   1.900   8.600  1.6136 -1.4374 -0.8460
 6014SOL     OW23171   6.919   7.559   9.143 -0.2210 -0.5241 -0.0469
 6014SOL    HW123172   6.952   7.617   9.075 -0.6385  0.4374  0.5450
 6014SOL    HW223173   6.995   7.508   9.171  0.5911  1.0242  0.6788
 6015SOL     OW23174   7.850  11.001   0.525  0.1488  0.1238  0.1760
 6015SOL    HW123175   7.846  10.909   0.501 -0.7184  0.2074 -0.0274
 6015SOL    HW223176   7.759  11.026   0.540  0.5269  0.4818  2.0068
 6016SOL     OW23177   2.113   3.774   1.525 -0.7917 -0.0240  0.3011
 6016SOL    HW123178   2.070   3.690   1.509 -1.2148  0.1386  0.5925
 6016SOL    HW223179   2.055   3.839   1.484 -1.0150  0.2308  1.0116
 6017SOL     OW23180   8.815   6.333   8.807 -0.6015  0.4784  0.2341
 6017SOL    HW123181   8.814   6.357   8.714  0.2800  0.8272  0.3063
 6017SOL    HW223182   8.817   6.237   8.807 -0.0291  0.4861 -0.1226
 6018SOL     OW23183   0.843   8.400   2.036  0.0188 -0.0376 -0.1562
 6018SOL    HW123184   0.787   8.473   2.009  0.8497  0.0357 -1.7454
 6018SOL    HW223185   0.895   8.435   2.109 -0.6595  0.4822  0.0784
 6019SOL     OW23186   2.701  10.732   8.809  0.1284  0.0948  0.4740
 6019SOL    HW123187   2.769  10.793   8.836  0.3765 -0.1191  0.3359
 6019SOL    HW223188   2.747  10.649   8.795 -0.1930 -0.1035  0.5876
 6020SOL     OW23189   5.389   8.481   4.416  0.7355  0.0427 -0.5893
 6020SOL    HW123190   5.390   8.409   4.479  0.4139 -0.5827 -1.3081
 6020SOL    HW223191   5.306   8.526   4.432  1.2515  0.7038  0.3500
 6021SOL     OW23192   2.091   5.438   8.957 -0.1902  0.4525 -0.3465
 6021SOL    HW123193   2.041   5.517   8.934 -1.6905 -0.8866 -1.7335
 6021SOL    HW223194   2.058   5.370   8.899  2.8603 -0.6357 -0.8709
 6022SOL     OW23195   7.094   4.703   3.489 -0.5633 -0.0824  0.3555
 6022SOL    HW123196   7.153   4.637   3.526  0.5433  1.1961  0.9295
 6022SOL    HW223197   7.006   4.670   3.507 -0.0224 -1.3470  0.7190
 6023SOL     OW23198   1.715   7.108   3.328 -0.1489 -0.1422  0.1626
 6023SOL    HW123199   1.712   7.170   3.401  0.7005 -1.1046  1.0190
 6023SOL    HW223200   1.788   7.050   3.349 -1.8111 -2.3074  0.0481
 6024SOL     OW23201  10.859  10.030   5.621  0.1634 -0.0412  0.3663
 6024SOL    HW123202  10.784  10.068   5.576 -0.2541  1.2800  2.1216
 6024SOL    HW223203  10.933  10.084   5.594 -0.2606  1.4340  2.0364
 6025SOL     OW23204   3.014   0.719  11.135  0.6925 -0.4225 -0.1747
 6025SOL    HW123205   3.108   0.718  11.117  0.7497 -1.6454  0.1554
 6025SOL    HW223206   2.977   0.660  11.070  0.3791 -1.3860  0.8563
 6026SOL     OW23207   8.327   0.096  10.114 -0.7088  0.3502  0.2085
 6026SOL    HW123208   8.354   0.128  10.028 -1.0939  0.6813  0.2098
 6026SOL    HW223209   8.402   0.114  10.171 -0.4445  0.1057 -0.0645
 6027SOL     OW23210   9.667   1.156   7.752 -0.4455  0.5613  0.1448
 6027SOL    HW123211   9.677   1.062   7.769 -0.0638  0.5673 -0.0618
 6027SOL    HW223212   9.624   1.190   7.831  0.4615  0.4164  0.7044
 6028SOL     OW23213   4.267   7.091   0.484  0.3859 -0.1233 -0.3855
 6028SOL    HW123214   4.245   7.010   0.439  0.5400 -0.3002 -0.1427
 6028SOL    HW223215   4.220   7.086   0.567  0.6228 -0.0941 -0.2506
 6029SOL     OW23216  10.993   8.685   6.876 -0.0459 -0.0446 -0.8101
 6029SOL    HW123217  11.058   8.637   6.927 -2.5928  1.2083  3.8030
 6029SOL    HW223218  10.914   8.632   6.881 -1.2619  1.7406 -0.5651
 6030SOL     OW23219   4.334   3.300   6.972 -0.2196 -0.1193 -0.1640
 6030SOL    HW123220   4.240   3.293   6.989  0.0895  1.0054  2.1306
 6030SOL    HW223221   4.372   3.225   7.018  0.1210  0.0219 -0.2133
 6031SOL     OW23222   9.587   1.689   4.908 -0.3225 -0.0857  0.4012
 6031SOL    HW123223   9.521   1.671   4.975 -1.0758  1.3590  0.0728
 6031SOL    HW223224   9.646   1.752   4.949 -1.8301  2.2334 -0.8656
 6032SOL     OW23225   8.120   3.324   4.173  0.1471  0.1313 -0.2020
 6032SOL    HW123226   8.192   3.387   4.165  0.0037  0.2292 -0.7758
 6032SOL    HW223227   8.081   3.321   4.085 -0.3927 -0.1060  0.0430
 6033SOL     OW23228   3.648   2.247   2.285  0.7404 -0.0448 -0.5046
 6033SOL    HW123229   3.666   2.228   2.377  1.7355 -1.2151 -0.9398
 6033SOL    HW223230   3.567   2.201   2.266  0.1217  0.8241 -0.0135
 6034SOL     OW23231   6.940   9.444   5.412  0.1216 -0.3272  0.4527
 6034SOL    HW123232   6.873   9.378   5.394 -0.6193  0.4004  0.4762
 6034SOL    HW223233   6.895   9.510   5.465  1.0175 -0.1095  0.9561
 6035SOL     OW23234   8.819   1.859   7.742 -0.3155 -0.2515  0.0644
 6035SOL    HW123235   8.729   1.861   7.708 -0.2467  2.2117 -0.0742
 6035SOL    HW223236   8.866   1.804   7.679 -1.3978 -0.3526 -0.6905
 6036SOL     OW23237   5.673   7.109   0.364 -0.5898 -0.0272 -0.2004
 6036SOL    HW123238   5.753   7.154   0.389 -0.1766 -1.5218  1.2150
 6036SOL    HW223239   5.690   7.016   0.381 -2.4442 -0.4257 -0.3408
 6037SOL     OW23240   7.809   6.271   8.517  0.3837  0.2829 -0.0053
 6037SOL    HW123241   7.729   6.272   8.465  0.0550 -0.5297  0.4810
 6037SOL    HW223242   7.804   6.190   8.568  1.0856  0.6751  0.6975
 6038SOL     OW23243   2.063  10.361   4.379  0.0042 -1.0228  0.0488
 6038SOL    HW123244   1.996  10.429   4.371  0.8803  0.1584  2.2193
 6038SOL    HW223245   2.129  10.385   4.314  1.1141  1.2199  1.9278
 6039SOL     OW23246  10.634   6.479   1.041 -0.6651 -0.0943  0.3114
 6039SOL    HW123247  10.693   6.511   1.110  0.5372  0.6568 -1.0471
 6039SOL    HW223248  10.635   6.384   1.051  0.3532 -0.0546  0.6648
 6040SOL     OW23249   5.452   1.804   2.343 -0.2570  0.4968  0.3158
 6040SOL    HW123250   5.370   1.853   2.345  0.3390  1.4980  0.4891
 6040SOL    HW223251   5.499   1.841   2.268  0.3728  0.4751  0.7028
 6041SOL     OW23252   8.585   0.898   4.595 -0.2491 -0.3718 -0.5579
 6041SOL    HW123253   8.549   0.852   4.519 -0.1638 -0.9988 -0.2185
 6041SOL    HW223254   8.639   0.833   4.639 -0.0093  0.0969 -0.1554
 6042SOL     OW23255   7.781   7.709   3.525  0.1404 -0.4859  0.2244
 6042SOL    HW123256   7.709   7.662   3.567  1.2957 -3.2027 -0.7364
 6042SOL    HW223257   7.740   7.789   3.491 -2.4371 -1.9764 -0.2990
 6043SOL     OW23258   8.406   0.034   6.475 -0.4010 -0.4969 -0.1956
 6043SOL    HW123259   8.420   0.116   6.523  1.0475 -0.6563 -0.3061
 6043SOL    HW223260   8.384  -0.030   6.543 -0.9732 -0.1446 -0.0448
 6044SOL     OW23261   8.427   2.441   2.582  0.5278 -0.0843  0.4384
 6044SOL    HW123262   8.449   2.386   2.507  0.0841 -0.9683  0.9461
 6044SOL    HW223263   8.428   2.530   2.547  1.3169 -0.4026 -0.3756
 6045SOL     OW23264   5.123  10.314   3.818  0.9303  0.0935 -0.1454
 6045SOL    HW123265   5.032  10.312   3.787  0.8815 -0.3042  0.0246
 6045SOL    HW223266   5.173  10.342   3.741  0.6482  0.4649 -0.1972
 6046SOL     OW23267   7.445   0.133   1.276  0.3021  0.4629  0.4287
 6046SOL    HW123268   7.410   0.215   1.243 -1.5962 -0.3878  0.3055
 6046SOL    HW223269   7.374   0.096   1.328  1.3230 -0.8643  0.8900
 6047SOL     OW23270   7.782   7.280   8.418 -0.3458  0.4863  0.1965
 6047SOL    HW123271   7.760   7.191   8.389  0.9340  0.1039  0.3345
 6047SOL    HW223272   7.822   7.267   8.504  0.0777  1.1646  0.1070
 6048SOL     OW23273  10.951   7.074  10.308 -0.2711 -0.3769  0.1365
 6048SOL    HW123274  10.875   7.017  10.310 -1.4110  1.0589 -1.1794
 6048SOL    HW223275  11.018   7.027  10.359 -1.6601 -2.1443  0.3687
 6049SOL     OW23276  11.136   6.493   8.606  0.2791  0.2792 -0.7357
 6049SOL    HW123277  11.153   6.453   8.692 -3.4294 -0.3553 -0.2038
 6049SOL    HW223278  11.218   6.482   8.558  1.1984 -2.9004  1.3844
 6050SOL     OW23279   9.181   7.854   7.271 -0.3708 -0.2183 -0.2086
 6050SOL    HW123280   9.235   7.900   7.335  0.2319 -0.8073 -0.2840
 6050SOL    HW223281   9.241   7.829   7.202 -0.9374  0.0081 -0.7893
 6051SOL     OW23282   2.360   2.337   0.570  0.0186 -0.6083  0.0292
 6051SOL    HW123283   2.410   2.260   0.545  0.9158 -0.3093  0.8973
 6051SOL    HW223284   2.416   2.384   0.630 -1.2098 -0.1559  0.8454
 6052SOL     OW23285   7.764   7.614   7.394 -0.1726  0.3609  0.4070
 6052SOL    HW123286   7.836   7.611   7.331 -0.2504  0.7413  0.3001
 6052SOL    HW223287   7.799   7.570   7.471 -0.6725 -1.6429 -0.4887
 6053SOL     OW23288   3.160   5.216   1.588 -0.0425 -0.0540  0.1101
 6053SOL    HW123289   3.072   5.242   1.614  0.1139  1.3864 -0.7444
 6053SOL    HW223290   3.165   5.238   1.495 -0.3021 -4.3107 -1.0103
 6054SOL     OW23291   5.787   8.126   2.384 -0.0953  0.2337  0.1286
 6054SOL    HW123292   5.810   8.141   2.476  0.3536 -0.6650  0.1618
 6054SOL    HW223293   5.767   8.033   2.378 -2.5884  0.7395 -0.1611
 6055SOL     OW23294   6.101   6.171   8.101 -0.1969 -0.0524 -0.0247
 6055SOL    HW123295   6.178   6.115   8.108  0.1021  0.2820 -0.5967
 6055SOL    HW223296   6.082   6.198   8.190  0.9747  0.7139  0.0055
 6056SOL     OW23297   9.252   5.498   4.249  0.1389 -0.3107 -0.8771
 6056SOL    HW123298   9.268   5.414   4.293  0.1612 -0.7622 -1.7256
 6056SOL    HW223299   9.224   5.473   4.161  2.7860  0.5874 -2.0428
 6057SOL     OW23300   6.660   3.766   7.713  0.1040 -0.6133  0.1854
 6057SOL    HW123301   6.701   3.694   7.664 -2.5185 -1.1623 -1.3205
 6057SOL    HW223302   6.718   3.780   7.787  2.7440 -1.6583 -1.5815
 6058SOL     OW23303   3.467   6.557   4.039  0.3491  0.6926 -0.4226
 6058SOL    HW123304   3.501   6.609   4.112  0.7524  1.0412 -0.8590
 6058SOL    HW223305   3.438   6.621   3.975 -1.7990  0.4162  0.2261
 6059SOL     OW23306   1.200   0.815   9.913  0.0356 -0.0897 -0.0566
 6059SOL    HW123307   1.235   0.902   9.893  0.3297 -0.4710 -1.2593
 6059SOL    HW223308   1.141   0.796   9.840  0.9324 -1.4076 -0.4639
 6060SOL     OW23309   2.504   7.091   9.552  0.0231 -0.0339 -0.2607
 6060SOL    HW123310   2.574   7.156   9.541  1.2071 -1.0983  0.6947
 6060SOL    HW223311   2.551   7.007   9.558 -1.2514 -0.6406  1.5456
 6061SOL     OW23312   9.477   6.915   0.069  0.5149 -0.2787  0.1649
 6061SOL    HW123313   9.572   6.923   0.061  0.4251  0.3504 -0.3493
 6061SOL    HW223314   9.446   6.905  -0.021  0.2032 -1.7875  0.4349
 6062SOL     OW23315   4.829   2.240   8.814 -0.2045  0.2686 -0.0390
 6062SOL    HW123316   4.859   2.188   8.739  1.2032 -0.3584  0.9523
 6062SOL    HW223317   4.908   2.260   8.864 -1.1018  0.8609  1.1869
 6063SOL     OW23318   3.170  10.922   1.056 -0.1146 -0.2986  0.2223
 6063SOL    HW123319   3.150  10.894   1.145 -1.0996  0.2372  0.1701
 6063SOL    HW223320   3.169  10.842   1.005 -1.1293 -0.4086  0.4060
 6064SOL     OW23321   2.383  10.414  11.028 -0.1859  0.8337  0.2665
 6064SOL    HW123322   2.420  10.404  10.940 -0.2095  0.3559  0.3056
 6064SOL    HW223323   2.350  10.503  11.031 -0.5633  0.7169 -0.3589
 6065SOL     OW23324   8.126   6.982   2.390  0.0860 -1.0704  0.2261
 6065SOL    HW123325   8.067   7.055   2.370  2.2563  0.5759 -0.4316
 6065SOL    HW223326   8.098   6.952   2.477 -0.0923  1.3509  1.0514
 6066SOL     OW23327   6.953   8.322   5.341  0.1078  0.2202  0.3146
 6066SOL    HW123328   7.015   8.365   5.281  0.0464  0.4770  0.4310
 6066SOL    HW223329   6.983   8.232   5.346  0.4615  0.3376  0.3514
 6067SOL     OW23330   1.301   1.893   2.775 -0.2094  0.0480 -0.2194
 6067SOL    HW123331   1.238   1.954   2.737 -0.4259  0.3091  0.5574
 6067SOL    HW223332   1.345   1.943   2.844  1.8624  0.3201 -1.6944
 6068SOL     OW23333   7.869   7.293   7.361  0.3905  0.7085 -0.0360
 6068SOL    HW123334   7.791   7.334   7.324 -0.2858 -0.2099  0.3722
 6068SOL    HW223335   7.879   7.335   7.447  1.1043  1.7620 -0.6221
 6069SOL     OW23336   5.012   2.849   5.270 -0.1097 -0.2867  0.0037
 6069SOL    HW123337   5.028   2.790   5.197 -0.6890 -0.9970  0.4412
 6069SOL    HW223338   5.041   2.799   5.347 -2.1209 -0.6455  0.5539
 6070SOL     OW23339   9.919   9.284   3.036 -0.3213 -0.2544  0.9123
 6070SOL    HW123340   9.900   9.194   3.008 -2.3131  0.5861 -0.5629
 6070SOL    HW223341   9.849   9.336   2.997  0.9726  1.9872  1.5243
 6071SOL     OW23342   1.749   3.269   6.930  0.4808  0.0680  0.3165
 6071SOL    HW123343   1.688   3.210   6.974  0.1138 -0.4209 -0.8310
 6071SOL    HW223344   1.769   3.336   6.995 -2.6151  1.2134  0.1465
 6072SOL     OW23345   0.204  10.539   0.878  0.2639  0.1294  0.2219
 6072SOL    HW123346   0.285  10.547   0.929  0.8858  3.9649 -1.2724
 6072SOL    HW223347   0.156  10.619   0.897 -1.4057 -0.3321 -1.9387
 6073SOL     OW23348   9.546   6.061   6.529  0.2321 -0.3605 -0.0421
 6073SOL    HW123349   9.580   6.007   6.458 -1.0882 -0.8965 -0.2824
 6073SOL    HW223350   9.510   5.998   6.592 -2.0159  0.2333 -0.6823
 6074SOL     OW23351  11.129   1.741   2.913  0.0492  0.0814 -0.4446
 6074SOL    HW123352  11.189   1.771   2.982  0.3652  0.0551 -0.7073
 6074SOL    HW223353  11.047   1.788   2.931  0.2682  0.4166 -0.3185
 6075SOL     OW23354   0.275   8.189   5.721 -0.0805  0.2936 -0.8941
 6075SOL    HW123355   0.254   8.256   5.655  1.3010 -0.4107 -2.0800
 6075SOL    HW223356   0.370   8.186   5.722 -0.0876  0.0080  0.8841
 6076SOL     OW23357   6.816   0.907   0.938 -0.1685  0.2726 -0.1077
 6076SOL    HW123358   6.779   0.989   0.906  1.1432  1.0022  0.2157
 6076SOL    HW223359   6.824   0.920   1.033  0.8002  0.0840 -0.1602
 6077SOL     OW23360  10.106   0.169   5.471  0.1730 -0.3889  0.1919
 6077SOL    HW123361  10.165   0.149   5.543  1.9236  1.2018 -0.7547
 6077SOL    HW223362  10.108   0.264   5.464 -2.5044 -0.2992  0.1059
 6078SOL     OW23363   7.814   6.030   4.005  0.5837  0.6160 -0.0448
 6078SOL    HW123364   7.741   6.062   3.951  1.5936  2.1847 -0.5130
 6078SOL    HW223365   7.773   5.971   4.068 -0.6746 -1.0357 -2.3263
 6079SOL     OW23366   6.663   8.759   1.097 -0.0515  0.4530  0.3756
 6079SOL    HW123367   6.747   8.737   1.057  0.0244  1.6867 -0.1684
 6079SOL    HW223368   6.612   8.679   1.090  0.6389  0.0785 -0.4591
 6080SOL     OW23369  10.910   1.526   1.415  0.5132 -0.5714 -0.4887
 6080SOL    HW123370  10.828   1.494   1.452  0.8309 -0.2102  0.5563
 6080SOL    HW223371  10.885   1.564   1.331 -0.2833 -1.0658 -0.4853
 6081SOL     OW23372   4.863   2.819   1.592 -0.0104 -0.3468 -0.8105
 6081SOL    HW123373   4.799   2.797   1.524 -0.4858 -3.5851  0.5922
 6081SOL    HW223374   4.818   2.800   1.674  2.1894 -1.0854  0.2625
 6082SOL     OW23375   2.329  10.367   9.109  0.5339 -0.5376 -0.2214
 6082SOL    HW123376   2.334  10.283   9.063  1.7371 -0.5488 -0.0951
 6082SOL    HW223377   2.421  10.390   9.125  0.2087  0.8439 -0.3395
 6083SOL     OW23378  10.290  10.471   0.209  0.1247  0.3384 -0.1614
 6083SOL    HW123379  10.272  10.454   0.116  0.0746 -1.0939  0.0926
 6083SOL    HW223380  10.203  10.473   0.250  0.0957  1.8111 -0.2655
 6084SOL     OW23381  10.299   4.209   3.687 -0.1211  0.0504  0.0217
 6084SOL    HW123382  10.304   4.174   3.776 -2.1118 -2.2495 -0.7036
 6084SOL    HW223383  10.355   4.151   3.635 -1.5147 -0.6376 -0.7584
 6085SOL     OW23384   4.429   5.690   0.544  0.1132 -0.1407 -0.1471
 6085SOL    HW123385   4.459   5.660   0.629 -0.2073 -2.2582 -0.7391
 6085SOL    HW223386   4.412   5.610   0.495 -0.1206  1.0355 -2.0610
 6086SOL     OW23387   0.854   7.050   9.273  0.2120 -0.1997  0.1696
 6086SOL    HW123388   0.826   6.962   9.248  3.0469 -1.8174  2.3076
 6086SOL    HW223389   0.838   7.104   9.196  0.1418 -3.0047 -1.8365
 6087SOL     OW23390  10.592   8.922   7.096 -0.0361 -0.3966  0.2512
 6087SOL    HW123391  10.570   8.895   7.007 -0.8082  1.9437 -0.3203
 6087SOL    HW223392  10.650   8.997   7.085 -1.8217  1.2630  1.6532
 6088SOL     OW23393  10.884   6.366   4.220  0.1338  0.0588 -0.2300
 6088SOL    HW123394  10.851   6.327   4.301 -1.6716 -0.0724 -0.9960
 6088SOL    HW223395  10.944   6.435   4.250 -1.4712  0.8665  1.2755
 6089SOL     OW23396   0.093   0.173   4.534  0.3025 -0.6125 -0.1073
 6089SOL    HW123397   0.043   0.095   4.509 -0.0529 -0.5810  0.4992
 6089SOL    HW223398   0.057   0.198   4.619  0.2825  0.3270 -0.3851
 6090SOL     OW23399  10.223   5.210  10.140 -0.6789 -0.4198  0.0635
 6090SOL    HW123400  10.282   5.209  10.215  0.8657 -2.4963 -1.1180
 6090SOL    HW223401  10.232   5.297  10.103  0.3533 -0.1607  0.9082
 6091SOL     OW23402   1.572   6.559   0.341 -0.8833 -0.2294  0.2170
 6091SOL    HW123403   1.561   6.616   0.417 -0.7962  0.6765 -0.4460
 6091SOL    HW223404   1.638   6.494   0.368  2.1244  2.4532 -0.4024
 6092SOL     OW23405   9.822   0.856  11.038  0.0471  0.8511 -0.4243
 6092SOL    HW123406   9.795   0.917  11.108 -3.7620 -0.4358 -0.6921
 6092SOL    HW223407   9.872   0.789  11.084 -0.7820  1.0438  0.8014
 6093SOL     OW23408   2.120   1.384   8.254 -0.7227 -0.1624  0.8515
 6093SOL    HW123409   2.213   1.396   8.272 -0.3708  1.3182 -1.7067
 6093SOL    HW223410   2.082   1.472   8.266 -1.5300 -0.4408  0.3729
 6094SOL     OW23411   8.183  10.489   0.430 -0.4111  0.8399 -0.6097
 6094SOL    HW123412   8.227  10.405   0.444 -3.0044 -0.5061 -0.2762
 6094SOL    HW223413   8.148  10.483   0.341 -1.4539  1.1570 -0.2278
 6095SOL     OW23414   6.111   9.810   3.247 -0.1373  0.2371 -0.2215
 6095SOL    HW123415   6.179   9.865   3.209 -0.1963  0.6643  0.2807
 6095SOL    HW223416   6.048   9.872   3.284 -0.0459 -0.1613  0.6208
 6096SOL     OW23417   6.842   5.618   2.352 -0.2253 -0.5021  0.1333
 6096SOL    HW123418   6.893   5.552   2.305 -0.7959 -0.7072 -0.2007
 6096SOL    HW223419   6.892   5.699   2.343  0.3517 -0.8317  0.3294
 6097SOL     OW23420   3.946   9.193   5.016  0.1834 -0.0857  0.1667
 6097SOL    HW123421   3.955   9.109   4.969 -0.6399  1.0074 -1.9851
 6097SOL    HW223422   3.880   9.176   5.083  0.6320 -1.3930  0.2944
 6098SOL     OW23423   9.107   8.873   6.999  0.7494  0.2918  0.4410
 6098SOL    HW123424   9.122   8.842   6.910  0.2996  3.4443 -0.8275
 6098SOL    HW223425   9.049   8.808   7.038 -0.1086 -0.4795 -2.0226
 6099SOL     OW23426   1.607   1.476  10.748 -0.2722  0.0300 -0.2232
 6099SOL    HW123427   1.659   1.455  10.670  3.2477 -1.5184  2.3835
 6099SOL    HW223428   1.642   1.560  10.779 -0.2995 -0.2892  0.7082
 6100SOL     OW23429   8.947   7.344   8.081 -0.1182 -0.3855  0.0871
 6100SOL    HW123430   9.032   7.387   8.085 -0.0810 -0.5451  1.1994
 6100SOL    HW223431   8.956   7.278   8.013  0.9241 -0.9801  0.7848
 6101SOL     OW23432   4.054   0.800   8.458 -0.6079  0.1054  0.1470
 6101SOL    HW123433   4.018   0.778   8.372  0.2470 -1.0349  0.0714
 6101SOL    HW223434   3.980   0.838   8.506 -1.3281 -0.1378 -0.7639
 6102SOL     OW23435   9.323   3.598   6.397 -0.0834 -0.4800 -0.2101
 6102SOL    HW123436   9.383   3.542   6.348 -0.8535  0.0836 -1.8227
 6102SOL    HW223437   9.242   3.597   6.347 -0.3185  1.5283  0.0798
 6103SOL     OW23438  10.354   5.734   3.746  0.0060 -0.3539  0.3577
 6103SOL    HW123439  10.353   5.714   3.653  0.2878 -0.5263  0.3909
 6103SOL    HW223440  10.326   5.652   3.788 -0.5130 -0.1553  0.4038
 6104SOL     OW23441   4.693  11.173   6.520 -0.4415 -0.0721 -0.0589
 6104SOL    HW123442   4.690  11.083   6.553 -1.3826  0.1528  0.4840
 6104SOL    HW223443   4.606  11.208   6.539  0.2613  1.2979  0.6658
 6105SOL     OW23444   5.542   8.400  10.341  0.1088  0.9993 -0.0328
 6105SOL    HW123445   5.627   8.443  10.350 -0.1733  1.1706  2.0069
 6105SOL    HW223446   5.539   8.337  10.413 -1.1093  0.3026 -0.6621
 6106SOL     OW23447   1.637   1.358   1.605 -0.3885  0.5513 -0.1704
 6106SOL    HW123448   1.556   1.340   1.653 -0.6404 -0.6360 -1.0210
 6106SOL    HW223449   1.706   1.350   1.670 -0.9981  2.4234  0.7685
 6107SOL     OW23450  10.546   5.952   3.200 -0.1970 -0.2865 -0.4795
 6107SOL    HW123451  10.483   5.983   3.265 -3.0063  1.0583 -3.7312
 6107SOL    HW223452  10.591   6.031   3.170 -0.1373 -0.6765 -1.4340
 6108SOL     OW23453   4.610   5.415   5.286 -0.4808  0.0942 -0.2084
 6108SOL    HW123454   4.561   5.490   5.320 -0.8293  0.0835 -0.6799
 6108SOL    HW223455   4.561   5.388   5.207  0.0983 -0.1188 -0.4966
 6109SOL     OW23456   3.519   4.174  10.177 -0.1584 -0.1890  0.4313
 6109SOL    HW123457   3.506   4.080  10.193  2.9733 -1.2038 -2.5702
 6109SOL    HW223458   3.487   4.188  10.088  0.4323  1.3634  0.4566
 6110SOL     OW23459   8.913   7.967   9.222  0.4089  0.5023 -0.3672
 6110SOL    HW123460   8.903   8.048   9.172  2.2860  0.5721 -0.6596
 6110SOL    HW223461   8.899   7.898   9.157 -0.4063  0.5958 -0.2896
 6111SOL     OW23462   5.940  10.833   4.765  0.0576  0.3931 -0.2798
 6111SOL    HW123463   5.997  10.784   4.823  0.4232  0.9613 -0.1515
 6111SOL    HW223464   5.864  10.776   4.752 -1.2814  1.3210  2.9100
 6112SOL     OW23465   8.422   7.403   0.372  0.0992  0.0766 -0.1013
 6112SOL    HW123466   8.390   7.492   0.382  0.7317  0.2938  0.0233
 6112SOL    HW223467   8.428   7.369   0.462  1.4005  0.4642 -0.0310
 6113SOL     OW23468   5.525   3.403   8.817  0.0584  0.2071 -0.1700
 6113SOL    HW123469   5.589   3.380   8.884 -0.7813 -1.7379 -0.0097
 6113SOL    HW223470   5.540   3.340   8.746 -3.2564 -1.8778  0.8982
 6114SOL     OW23471  10.489   6.879   8.978 -0.1093 -0.4259 -0.0251
 6114SOL    HW123472  10.461   6.855   9.066  1.0632 -0.4435  0.3513
 6114SOL    HW223473  10.466   6.971   8.968  0.6359 -0.1637  0.6597
 6115SOL     OW23474   4.445   7.586   5.015 -0.1821  0.1277 -0.4876
 6115SOL    HW123475   4.396   7.653   5.064  2.9703  0.2270  2.7234
 6115SOL    HW223476   4.414   7.503   5.051 -0.1918  0.0961 -0.5727
 6116SOL     OW23477   5.822   9.852   9.766 -0.2628 -0.0191 -0.1668
 6116SOL    HW123478   5.792   9.818   9.681  0.4801 -1.3625  0.0949
 6116SOL    HW223479   5.906   9.894   9.747 -0.4354  0.3141 -0.2092
 6117SOL     OW23480   9.142   2.681   1.004 -0.5377 -0.6184  0.1242
 6117SOL    HW123481   9.118   2.661   0.914 -0.3119 -1.1140  0.1701
 6117SOL    HW223482   9.236   2.699   1.000 -0.6155 -0.2003  0.1893
 6118SOL     OW23483   1.373   0.195   3.122 -0.0457 -0.3692  0.2672
 6118SOL    HW123484   1.397   0.136   3.193  0.3707  0.6673  1.0006
 6118SOL    HW223485   1.432   0.170   3.050  0.6690 -0.3251  0.8292
 6119SOL     OW23486  10.887   9.499   2.788  0.1194 -0.0235 -0.0030
 6119SOL    HW123487  10.877   9.448   2.708 -3.5174  2.3924 -1.1747
 6119SOL    HW223488  10.851   9.443   2.857  0.2694 -0.7888 -0.5434
 6120SOL     OW23489  10.265   1.531   6.954  0.2803  0.2485 -0.5853
 6120SOL    HW123490  10.233   1.551   6.866 -1.6005  0.5605  0.1318
 6120SOL    HW223491  10.187   1.539   7.009  0.9073 -2.2926  0.7503
 6121SOL     OW23492   4.608   1.855   4.974 -0.1345 -0.1825  0.2261
 6121SOL    HW123493   4.699   1.824   4.966 -0.2868 -0.9824  1.4897
 6121SOL    HW223494   4.614   1.949   4.960  0.6081 -0.4898 -1.7686
 6122SOL     OW23495   6.011   6.847   9.809  0.6366 -0.2739  0.3467
 6122SOL    HW123496   6.002   6.921   9.748  1.2576 -1.7438 -1.5769
 6122SOL    HW223497   6.058   6.884   9.884 -0.2922  1.6171  0.0369
 6123SOL     OW23498   4.429   9.275   1.987  0.9053 -0.0137  0.4012
 6123SOL    HW123499   4.349   9.223   1.984 -0.0526  1.4206  0.6756
 6123SOL    HW223500   4.413   9.340   2.056  2.3210  0.2597  0.4924
 6124SOL     OW23501   1.764   4.639   5.393  0.0269 -0.1064  0.0612
 6124SOL    HW123502   1.822   4.590   5.334 -0.2215 -0.4019  0.0592
 6124SOL    HW223503   1.787   4.730   5.379 -1.6985  0.0123 -2.2958
 6125SOL     OW23504  10.412  10.230   7.385  0.3236  0.0720 -0.4039
 6125SOL    HW123505  10.324  10.202   7.362 -0.0371  1.7535 -1.1446
 6125SOL    HW223506  10.401  10.315   7.426  1.4826 -0.3561  0.8464
 6126SOL     OW23507   9.940   5.356   3.188  0.0645 -0.3573  0.1206
 6126SOL    HW123508  10.031   5.352   3.217  0.2668 -2.0427 -0.7159
 6126SOL    HW223509   9.907   5.267   3.201 -1.2607  0.0735 -0.2534
 6127SOL     OW23510  10.196  10.243   5.205  0.1488  0.4789 -0.2068
 6127SOL    HW123511  10.126  10.182   5.185  1.8684 -2.4568  2.3468
 6127SOL    HW223512  10.162  10.296   5.277  1.0353 -1.9823  2.0922
 6128SOL     OW23513   6.937   3.571   5.357 -0.2597  0.2820 -0.3934
 6128SOL    HW123514   6.991   3.581   5.436  0.4133 -1.5470 -0.6054
 6128SOL    HW223515   6.957   3.484   5.325 -0.2501  1.1476 -2.8236
 6129SOL     OW23516  11.170   3.259   9.750  0.1529  0.0654 -0.0258
 6129SOL    HW123517  11.118   3.187   9.714 -0.2096  0.6667 -0.7037
 6129SOL    HW223518  11.142   3.265   9.841 -1.4230  0.7883 -0.5383
 6130SOL     OW23519  10.187   1.519   0.032 -0.0344  0.0696 -0.2028
 6130SOL    HW123520  10.141   1.447   0.075 -0.8136 -0.1806 -1.4323
 6130SOL    HW223521  10.136   1.537  -0.047 -0.1237  2.2926  0.3122
 6131SOL     OW23522  10.326   7.129   1.152 -0.2368  0.0970 -0.0061
 6131SOL    HW123523  10.340   7.092   1.065 -0.3581  0.1840 -0.0616
 6131SOL    HW223524  10.389   7.201   1.158 -0.6257  0.4544 -0.2354
 6132SOL     OW23525   7.696  10.114   3.754 -0.3668  0.0680  0.1651
 6132SOL    HW123526   7.754  10.068   3.814  0.0750  1.4186  0.8041
 6132SOL    HW223527   7.724  10.085   3.667  0.4725 -0.2105  0.5221
 6133SOL     OW23528   2.259   9.351   8.912 -0.2027  0.3611 -0.6554
 6133SOL    HW123529   2.225   9.421   8.856  2.8020  0.8403 -1.9978
 6133SOL    HW223530   2.328   9.393   8.964  1.3166 -1.4515 -1.1484
 6134SOL     OW23531   1.445   6.279  11.181 -0.3436 -0.1560 -0.7876
 6134SOL    HW123532   1.359   6.241  11.199 -0.8171  0.9562 -0.6272
 6134SOL    HW223533   1.507   6.215  11.215 -1.0896 -1.3546 -1.6613
 6135SOL     OW23534   3.834  11.033   8.273 -0.0742  0.4665 -0.5427
 6135SOL    HW123535   3.846  10.965   8.339 -0.1937  0.6971 -0.2787
 6135SOL    HW223536   3.893  11.103   8.300  0.7803  0.0714 -1.3705
 6136SOL     OW23537   0.861   8.691  10.052 -0.3431 -0.1051  0.1381
 6136SOL    HW123538   0.839   8.737  10.133  0.4978  0.8763 -0.1758
 6136SOL    HW223539   0.889   8.604  10.081  0.1452  0.3043  0.9161
 6137SOL     OW23540   2.566   9.411   9.594 -0.8337 -0.2483 -0.3899
 6137SOL    HW123541   2.531   9.351   9.527  1.7994 -4.4755  1.7762
 6137SOL    HW223542   2.519   9.389   9.673  0.1366  0.5744  0.4278
 6138SOL     OW23543   5.139   0.452  11.203  0.1912 -0.0918  0.2118
 6138SOL    HW123544   5.068   0.476  11.143  0.8190 -1.3064 -1.0375
 6138SOL    HW223545   5.150   0.358  11.191  3.6202  0.4264 -1.4268
 6139SOL     OW23546   9.687   1.376   6.278  0.1268  0.2778  0.2371
 6139SOL    HW123547   9.638   1.352   6.357  1.0181  0.7688  0.9530
 6139SOL    HW223548   9.770   1.328   6.287  0.6430  1.1392  0.1060
 6140SOL     OW23549   0.606   2.890   1.860  0.2551 -0.8657  0.0498
 6140SOL    HW123550   0.513   2.874   1.875  0.2113 -0.4220  0.2581
 6140SOL    HW223551   0.616   2.985   1.869  0.4178 -0.6893 -1.7082
 6141SOL     OW23552   5.674   1.510  10.779  0.2367 -0.3226 -0.2018
 6141SOL    HW123553   5.617   1.564  10.723 -1.4520  0.2142  1.9407
 6141SOL    HW223554   5.724   1.574  10.829 -0.5573 -0.7510  1.1497
 6142SOL     OW23555   7.744   9.268   5.771  0.0438 -0.1478  0.1906
 6142SOL    HW123556   7.663   9.228   5.803  1.0674 -2.6675 -0.3134
 6142SOL    HW223557   7.730   9.281   5.677 -1.1307  2.8179  0.7280
 6143SOL     OW23558   4.379  11.027   2.828 -0.0888 -0.4193  0.4274
 6143SOL    HW123559   4.319  10.968   2.872 -1.2637  1.0576  0.8540
 6143SOL    HW223560   4.333  11.052   2.747  0.7945 -0.8139 -0.2091
 6144SOL     OW23561  11.211   1.473   9.142  0.6109 -0.5092  0.7078
 6144SOL    HW123562  11.150   1.399   9.147 -0.5249  0.4887  1.8385
 6144SOL    HW223563  11.166   1.538   9.089  1.8611 -0.8351 -0.8056
 6145SOL     OW23564   5.300   7.474   4.030  0.4794 -0.2237 -0.5788
 6145SOL    HW123565   5.264   7.560   4.009 -1.0888 -0.3121  1.5658
 6145SOL    HW223566   5.250   7.414   3.974 -0.5677 -0.0204  0.1084
 6146SOL     OW23567   7.879  10.771   3.999 -0.6955 -0.5583 -0.5596
 6146SOL    HW123568   7.813  10.720   3.953  0.1725 -2.7201  0.5217
 6146SOL    HW223569   7.930  10.706   4.048  0.7767  1.2925  0.4363
 6147SOL     OW23570   4.810   5.851   8.423 -0.8900 -0.5440 -0.4358
 6147SOL    HW123571   4.819   5.821   8.333 -1.1721  0.0458 -0.6649
 6147SOL    HW223572   4.716   5.854   8.439 -0.9016  1.2131 -0.7661
 6148SOL     OW23573   5.373   0.683  10.475 -0.1475 -0.2540 -0.4650
 6148SOL    HW123574   5.403   0.722  10.393 -0.4075  0.4333 -0.2377
 6148SOL    HW223575   5.280   0.705  10.479  0.4223  2.0524  1.3142
 6149SOL     OW23576   4.732   0.416   0.892 -0.1458  0.3824 -0.0870
 6149SOL    HW123577   4.705   0.493   0.842 -0.1903  0.1313 -0.4545
 6149SOL    HW223578   4.723   0.343   0.830 -0.2091  0.0686  0.2894
 6150SOL     OW23579  10.942   9.038   8.496  0.1221 -0.2934  0.1717
 6150SOL    HW123580  10.967   9.009   8.408 -1.9805 -0.8711 -0.2526
 6150SOL    HW223581  10.860   8.993   8.514 -0.1462  0.8467  1.9056
 6151SOL     OW23582   9.658  10.036   2.963  0.2783 -0.1172  0.2421
 6151SOL    HW123583   9.739  10.013   2.918  0.6879  0.4759  0.6657
 6151SOL    HW223584   9.590  10.027   2.896  0.7943  0.1068 -0.3203
 6152SOL     OW23585   2.266  10.487   8.136 -0.3844  0.3450  0.3057
 6152SOL    HW123586   2.276  10.411   8.193 -1.3521 -1.4254 -1.8081
 6152SOL    HW223587   2.183  10.473   8.091  0.1806  1.8705 -1.2881
 6153SOL     OW23588   0.731   4.108   8.668  0.4110  0.6632  0.1557
 6153SOL    HW123589   0.700   4.022   8.695 -1.2703  0.9416 -0.8096
 6153SOL    HW223590   0.823   4.110   8.693  0.2230 -1.0596  1.0238
 6154SOL     OW23591   6.049   8.110   6.897 -0.0133 -0.0860 -0.9853
 6154SOL    HW123592   6.036   8.016   6.883 -0.2345 -0.2286  0.0974
 6154SOL    HW223593   6.110   8.115   6.972 -0.8432  0.6316 -0.3490
 6155SOL     OW23594   3.519   3.024   1.948  0.1758  0.0329 -0.1930
 6155SOL    HW123595   3.531   3.077   1.869 -2.5347  2.8670  1.1509
 6155SOL    HW223596   3.565   3.073   2.016 -0.9218 -0.2178  0.7477
 6156SOL     OW23597   6.100   0.558   7.602  0.2349  0.1317 -0.6443
 6156SOL    HW123598   6.095   0.647   7.638 -2.3964  0.5130 -1.8693
 6156SOL    HW223599   6.182   0.558   7.552 -0.1349  2.1435 -1.3121
 6157SOL     OW23600  10.198   6.164   1.064 -0.7708 -0.0680 -0.4710
 6157SOL    HW123601  10.251   6.089   1.093  1.3028  1.3080 -0.5858
 6157SOL    HW223602  10.146   6.130   0.992  0.9179 -1.1530 -1.2180
 6158SOL     OW23603   9.217   3.594   4.795  0.0906  0.2594 -0.3580
 6158SOL    HW123604   9.251   3.527   4.735  0.4016 -0.9423  1.1340
 6158SOL    HW223605   9.124   3.600   4.773 -0.1547 -1.3813  0.1418
 6159SOL     OW23606   2.143  10.310   0.422 -0.1623 -0.1968 -0.2684
 6159SOL    HW123607   2.204  10.241   0.449 -0.4400 -0.8554 -1.3251
 6159SOL    HW223608   2.119  10.353   0.504  0.2474 -1.1602  0.3663
 6160SOL     OW23609   3.834  10.379   8.792 -0.1227  0.4413  0.7492
 6160SOL    HW123610   3.798  10.342   8.712  2.2263  0.3814 -0.3321
 6160SOL    HW223611   3.758  10.396   8.848 -1.6627 -0.8554 -0.9151
 6161SOL     OW23612  10.100   3.770   5.555  0.0104  0.0272  0.8218
 6161SOL    HW123613  10.042   3.703   5.519  0.5811 -0.2880  0.4673
 6161SOL    HW223614  10.053   3.853   5.543 -0.8534 -0.3530  1.6060
 6162SOL     OW23615   8.383   2.273   7.608 -0.0667 -0.0625 -0.3666
 6162SOL    HW123616   8.424   2.192   7.576  0.1403 -0.0180 -0.2159
 6162SOL    HW223617   8.348   2.250   7.694  1.9837  0.6132  0.6699
 6163SOL     OW23618   8.371   4.705   5.013  0.0191 -0.1288  0.5452
 6163SOL    HW123619   8.287   4.659   5.024  0.1461 -0.6638 -0.5731
 6163SOL    HW223620   8.387   4.701   4.919  0.5961  1.2430  0.5848
 6164SOL     OW23621   5.258   1.212   1.505 -0.3886  0.2223  0.0819
 6164SOL    HW123622   5.320   1.198   1.434 -0.1454 -0.1024  0.3595
 6164SOL    HW223623   5.311   1.243   1.578 -0.3162 -1.6441  0.8374
 6165SOL     OW23624   6.790   4.772   4.448 -0.5842 -0.2684  0.5499
 6165SOL    HW123625   6.868   4.717   4.439 -0.7342 -0.4240  0.1610
 6165SOL    HW223626   6.810   4.830   4.521  0.3150  0.3808 -0.1901
 6166SOL     OW23627   7.286   0.345  10.293 -0.3257  0.1509  0.6555
 6166SOL    HW123628   7.271   0.398  10.371  0.7924 -1.5969  2.0985
 6166SOL    HW223629   7.342   0.399  10.238  1.1183  0.3429  2.2767
 6167SOL     OW23630   7.160   2.774   3.842 -0.3757  0.0650  0.2288
 6167SOL    HW123631   7.246   2.750   3.876 -0.4479  0.4259  0.6707
 6167SOL    HW223632   7.180   2.834   3.769 -0.2697  0.8017  0.8527
 6168SOL     OW23633   5.535   2.492   4.456  0.0286  0.7134  0.1095
 6168SOL    HW123634   5.479   2.429   4.410 -0.8415  1.7153 -0.2074
 6168SOL    HW223635   5.596   2.437   4.505 -0.7646 -0.3903 -0.1094
 6169SOL     OW23636   9.638   4.922   1.723  0.1880  0.1285 -0.3272
 6169SOL    HW123637   9.595   4.888   1.644  0.7136 -0.5770 -0.3131
 6169SOL    HW223638   9.638   5.017   1.711 -0.4860  0.0729 -0.7890
 6170SOL     OW23639   1.479   0.035   8.019  0.4081  0.7023 -1.2459
 6170SOL    HW123640   1.476   0.119   8.064  1.2733 -0.2236  0.5787
 6170SOL    HW223641   1.426  -0.023   8.073  0.3633 -0.0983 -2.1404
 6171SOL     OW23642   1.323   3.215   6.510  0.0897  0.5097  0.1254
 6171SOL    HW123643   1.278   3.192   6.428  1.4736  0.9729 -0.7770
 6171SOL    HW223644   1.258   3.197   6.578 -0.5097 -1.4996 -0.9256
 6172SOL     OW23645   8.126   0.181   5.020 -0.3433 -0.1527  0.3980
 6172SOL    HW123646   8.216   0.162   5.046  0.0095  0.0599 -0.6367
 6172SOL    HW223647   8.083   0.095   5.018 -0.0788 -0.2883  0.5648
 6173SOL     OW23648   3.999   1.959   6.124 -0.3213  0.2951 -0.7537
 6173SOL    HW123649   4.067   2.014   6.084 -0.9626  0.5638 -1.4941
 6173SOL    HW223650   4.026   1.950   6.215  1.2424 -0.4519 -1.2716
 6174SOL     OW23651   9.465   9.382   8.147 -0.2519  0.2320  0.0888
 6174SOL    HW123652   9.500   9.370   8.058 -0.5800 -1.0119  0.1191
 6174SOL    HW223653   9.377   9.417   8.133 -0.6290 -0.7773 -0.1094
 6175SOL     OW23654   1.918   8.059   0.632  0.1295 -0.0816  0.0556
 6175SOL    HW123655   1.912   8.035   0.539  0.9036  0.9156 -0.2653
 6175SOL    HW223656   1.831   8.043   0.667 -0.6178  1.0999 -1.2346
 6176SOL     OW23657  10.955   4.564   7.169 -0.0975  0.3332 -0.2301
 6176SOL    HW123658  10.887   4.559   7.236 -1.2925  1.3131 -1.3604
 6176SOL    HW223659  10.928   4.503   7.102 -0.6116  1.7401 -1.3309
 6177SOL     OW23660   2.323  10.851   5.587  0.1906 -0.4643 -0.2563
 6177SOL    HW123661   2.366  10.797   5.520  0.9881  0.5209 -0.5597
 6177SOL    HW223662   2.382  10.848   5.662 -0.3117 -0.9191  0.1206
 6178SOL     OW23663   7.631   3.308   6.206 -0.1213 -0.0491  0.1521
 6178SOL    HW123664   7.713   3.357   6.197  0.3335 -0.2362  2.8661
 6178SOL    HW223665   7.630   3.248   6.131 -0.0690  3.1504 -2.5241
 6179SOL     OW23666   7.356   5.823   3.962  0.5312  0.0123  0.1136
 6179SOL    HW123667   7.421   5.805   4.030  0.7700 -1.3983 -0.4747
 6179SOL    HW223668   7.297   5.748   3.965  0.4432  0.0230 -1.1076
 6180SOL     OW23669   5.559   6.705   2.879  0.0026 -0.0319  0.4376
 6180SOL    HW123670   5.652   6.684   2.880  0.6264  2.5571  1.5861
 6180SOL    HW223671   5.555   6.799   2.898 -2.8049  0.0677 -0.3415
 6181SOL     OW23672   3.738   2.741   9.586  0.1025 -0.1943 -0.1002
 6181SOL    HW123673   3.674   2.767   9.652  1.5492 -0.3535  1.4241
 6181SOL    HW223674   3.740   2.646   9.590  1.0606 -0.1569  0.5030
 6182SOL     OW23675   9.379   6.429   3.922  0.1005 -0.3242  0.3327
 6182SOL    HW123676   9.433   6.470   3.855 -0.7875 -0.2949 -0.3803
 6182SOL    HW223677   9.431   6.435   4.003  0.7702  0.4930 -0.1575
 6183SOL     OW23678   5.838   1.165   7.990  0.5157 -0.1123 -0.3538
 6183SOL    HW123679   5.916   1.155   8.044 -0.0851 -0.5214  0.4416
 6183SOL    HW223680   5.773   1.106   8.029  0.1545 -0.6032 -1.6652
 6184SOL     OW23681   3.087   0.905   7.568 -0.3780 -0.3540  0.1337
 6184SOL    HW123682   3.172   0.940   7.540 -1.0654  1.8723  0.7589
 6184SOL    HW223683   3.029   0.920   7.493 -0.2455 -1.8602 -0.2893
 6185SOL     OW23684   0.311   4.462   1.344  0.0322  0.0146  0.1859
 6185SOL    HW123685   0.248   4.521   1.304 -0.6698  0.3995  1.8087
 6185SOL    HW223686   0.383   4.518   1.373  0.3234 -0.1956 -0.1248
 6186SOL     OW23687   5.249   0.910   3.124 -0.4477 -0.3796  0.4636
 6186SOL    HW123688   5.206   0.933   3.207  1.1601 -0.6588  1.4052
 6186SOL    HW223689   5.281   0.994   3.090  0.9270 -0.5319  1.3214
 6187SOL     OW23690   3.017   2.339   7.665 -0.1971 -0.2300 -0.3983
 6187SOL    HW123691   2.934   2.295   7.648 -0.8685 -0.2357  2.6331
 6187SOL    HW223692   3.012   2.420   7.615 -2.6414  0.4351  0.8554
 6188SOL     OW23693   4.223   0.269   3.962 -0.4634 -0.5467  0.6142
 6188SOL    HW123694   4.161   0.281   3.890  0.1567 -0.8681  0.0090
 6188SOL    HW223695   4.281   0.199   3.931  0.1347 -0.3176  1.2110
 6189SOL     OW23696   7.789  10.838   2.341  0.3489  0.1453  0.7289
 6189SOL    HW123697   7.825  10.797   2.262 -1.0456 -0.8911  0.6202
 6189SOL    HW223698   7.852  10.907   2.363  1.2530 -0.2022 -0.7197
 6190SOL     OW23699   2.507   8.104   7.197 -0.1190  0.3341  0.7985
 6190SOL    HW123700   2.562   8.073   7.268  1.0446  0.2548 -0.1224
 6190SOL    HW223701   2.418   8.087   7.227  0.3929 -0.8908  1.6800
 6191SOL     OW23702   0.422   7.880   5.777 -0.5869 -0.1181  0.1084
 6191SOL    HW123703   0.503   7.929   5.792 -0.8065  0.1524  0.3951
 6191SOL    HW223704   0.420   7.867   5.682 -0.6736  0.6821 -0.0070
 6192SOL     OW23705   8.408   7.155   0.236  0.5999 -0.0945 -0.5482
 6192SOL    HW123706   8.426   7.235   0.285 -2.9529  1.3984 -1.5336
 6192SOL    HW223707   8.320   7.129   0.264 -0.0032 -1.2744 -3.3758
 6193SOL     OW23708   5.690   1.247   1.997 -0.3164 -0.7794 -0.0741
 6193SOL    HW123709   5.663   1.333   1.965  1.6500 -0.5270 -1.1385
 6193SOL    HW223710   5.617   1.189   1.977 -1.0526  0.3486 -0.6919
 6194SOL     OW23711   0.263   3.602   7.042  0.0566 -0.3839  0.3388
 6194SOL    HW123712   0.213   3.625   7.120 -0.8251 -1.1056  0.0017
 6194SOL    HW223713   0.264   3.506   7.042  1.1542 -0.3712  0.1541
 6195SOL     OW23714   0.060   4.471   3.547 -0.0757  0.0536 -0.1121
 6195SOL    HW123715  -0.024   4.511   3.568 -0.8411 -2.1823  1.3330
 6195SOL    HW223716   0.082   4.418   3.624  3.5034  1.8661  0.2535
 6196SOL     OW23717   5.041   2.923   2.030  0.4698 -0.3145 -0.0343
 6196SOL    HW123718   5.059   2.952   2.119  1.3797  1.5216 -0.8020
 6196SOL    HW223719   4.975   2.984   1.998 -0.4235 -1.4453 -0.3636
 6197SOL     OW23720  11.253   0.668   1.048  0.2864  0.1937 -0.6407
 6197SOL    HW123721  11.304   0.655   0.968  0.4791 -4.2351  0.0818
 6197SOL    HW223722  11.181   0.605   1.042  0.1680 -0.0860  2.5086
 6198SOL     OW23723   5.267   3.279  10.079 -0.3392 -0.2651  0.5676
 6198SOL    HW123724   5.246   3.276   9.986 -1.0599 -1.3114  0.7688
 6198SOL    HW223725   5.264   3.373  10.100 -0.0276 -0.0014 -0.4823
 6199SOL     OW23726   7.165   5.192  11.102 -0.0505  0.1926  0.4541
 6199SOL    HW123727   7.213   5.200  11.185 -0.0199  0.3516  0.4210
 6199SOL    HW223728   7.230   5.157  11.041 -0.6319 -1.9410  1.0177
 6200SOL     OW23729   2.764   4.227   7.627  0.0122  0.1116  0.1702
 6200SOL    HW123730   2.752   4.218   7.532 -0.4227 -0.0542  0.2405
 6200SOL    HW223731   2.857   4.246   7.637  0.3223 -1.1446 -0.2066
 6201SOL     OW23732   8.500   0.292   2.304  0.1783  0.4981  0.4084
 6201SOL    HW123733   8.438   0.264   2.236  1.3903  0.9842 -0.9343
 6201SOL    HW223734   8.539   0.211   2.336  0.0029  0.3014  0.1333
 6202SOL     OW23735   9.885   4.729   7.730  0.0530 -0.1494  0.3515
 6202SOL    HW123736   9.873   4.642   7.768 -0.7382 -0.8861 -1.5192
 6202SOL    HW223737   9.905   4.786   7.805 -0.4016 -1.7469  1.7086
 6203SOL     OW23738   2.941   4.549   4.053  0.0971 -0.0249  0.0234
 6203SOL    HW123739   2.912   4.582   4.138  0.1538  1.6846 -0.5903
 6203SOL    HW223740   3.008   4.484   4.073  0.6511  0.9138  1.2561
 6204SOL     OW23741   7.654   5.164   7.107  0.3234  0.4809  0.2130
 6204SOL    HW123742   7.635   5.146   7.015 -0.0326  0.0568  0.3670
 6204SOL    HW223743   7.619   5.252   7.122  1.4024  1.0214 -0.3482
 6205SOL     OW23744   4.018   2.117   5.394  0.0029 -0.0998 -0.2532
 6205SOL    HW123745   4.059   2.044   5.440 -0.5089  0.1588  0.6339
 6205SOL    HW223746   3.969   2.076   5.322  1.4462 -0.4423 -1.0638
 6206SOL     OW23747   7.199   5.020   8.597 -0.0371  0.0958  0.7235
 6206SOL    HW123748   7.215   4.929   8.575 -1.7811 -0.0620  0.0946
 6206SOL    HW223749   7.129   5.018   8.662 -0.0650  0.9820  0.7345
 6207SOL     OW23750   9.429   3.940   5.684  0.0440 -0.3149 -0.1285
 6207SOL    HW123751   9.443   3.990   5.604 -2.0641 -0.1178 -0.4051
 6207SOL    HW223752   9.399   4.005   5.748 -0.3387 -0.8156  0.2075
 6208SOL     OW23753   4.182   9.560  10.099  0.1412  0.1598  0.0848
 6208SOL    HW123754   4.155   9.637  10.148  0.8884  0.4367  0.0626
 6208SOL    HW223755   4.172   9.487  10.160  1.0886  0.5036  0.6573
 6209SOL     OW23756   3.590   8.149  10.803 -0.8492  0.5365  0.5807
 6209SOL    HW123757   3.518   8.124  10.745 -1.1872  0.1805  1.1502
 6209SOL    HW223758   3.601   8.243  10.788 -1.0209  0.4726  0.0356
 6210SOL     OW23759  10.916   9.381   8.295  0.6249  0.1202  0.4464
 6210SOL    HW123760  11.008   9.400   8.315  0.2412  2.0970  0.4221
 6210SOL    HW223761  10.872   9.387   8.380  0.2805  0.6600  0.2302
 6211SOL     OW23762   0.312   7.576   9.592  0.3340 -0.3227  0.7593
 6211SOL    HW123763   0.281   7.491   9.562  0.5920 -0.6811  1.4983
 6211SOL    HW223764   0.248   7.639   9.559  0.3175 -0.7688 -0.0637
 6212SOL     OW23765   3.700   5.600   4.722 -0.4331 -0.2997  0.0046
 6212SOL    HW123766   3.795   5.592   4.712 -0.3650 -0.4225  0.7268
 6212SOL    HW223767   3.685   5.694   4.732 -0.2500 -0.3897  1.1973
 6213SOL     OW23768  11.227   4.148  10.380  0.0840  0.2201 -0.1665
 6213SOL    HW123769  11.153   4.118  10.432 -0.1639  2.8354  1.0937
 6213SOL    HW223770  11.200   4.137  10.289 -1.6255  0.5862  0.2854
 6214SOL     OW23771   2.367   8.074   2.666 -0.0980 -0.4891 -0.2150
 6214SOL    HW123772   2.327   8.120   2.739  2.7219  0.8342  0.5836
 6214SOL    HW223773   2.293   8.043   2.613 -2.1311  2.5272  0.7325
 6215SOL     OW23774   2.289  10.698   9.312 -0.1968 -0.6498  0.1054
 6215SOL    HW123775   2.278  10.775   9.369 -0.8105 -0.1450 -0.6945
 6215SOL    HW223776   2.331  10.733   9.233 -0.6002 -1.1231 -0.3142
 6216SOL     OW23777  10.595   2.928   2.269 -1.0387  0.1026  0.0661
 6216SOL    HW123778  10.537   2.986   2.219 -0.5453  1.0744  0.6139
 6216SOL    HW223779  10.601   2.968   2.356  0.1620 -0.1972  0.1304
 6217SOL     OW23780   3.536   3.104   5.217 -0.7876  0.2670 -0.0581
 6217SOL    HW123781   3.542   3.151   5.299  1.4731 -0.0592  0.0054
 6217SOL    HW223782   3.627   3.093   5.189 -1.4044 -1.6287 -1.4439
 6218SOL     OW23783  10.215   4.423   6.376 -0.1244  0.5812  0.2988
 6218SOL    HW123784  10.236   4.445   6.285  0.0179 -1.1285 -0.1079
 6218SOL    HW223785  10.122   4.441   6.384 -0.7437 -1.8417 -1.0087
 6219SOL     OW23786  10.551   3.222   2.149  0.5074  0.1052 -0.5385
 6219SOL    HW123787  10.469   3.227   2.198 -0.0600 -0.0462 -1.4506
 6219SOL    HW223788  10.613   3.272   2.201 -0.5282  1.4316 -0.5387
 6220SOL     OW23789   6.783   0.470   3.942 -0.5325 -0.2162  0.3057
 6220SOL    HW123790   6.695   0.482   3.907 -0.1794 -0.4351 -0.6576
 6220SOL    HW223791   6.772   0.408   4.014 -1.2001 -0.0265  0.3695
 6221SOL     OW23792   0.423   6.387   8.099 -0.3153  0.6464  0.4400
 6221SOL    HW123793   0.501   6.370   8.153 -0.7886 -2.3957  0.2123
 6221SOL    HW223794   0.349   6.370   8.157 -0.8272 -1.4775 -0.8047
 6222SOL     OW23795   4.638   1.843  10.202  0.1041  0.2782 -0.4678
 6222SOL    HW123796   4.568   1.778  10.190 -0.4967  0.9377 -0.5330
 6222SOL    HW223797   4.682   1.847  10.118 -0.0153  0.1413 -0.5373
 6223SOL     OW23798  10.423   4.144   0.008  0.2817 -0.1558  0.1993
 6223SOL    HW123799  10.477   4.100   0.074 -0.9951 -0.0468  1.3357
 6223SOL    HW223800  10.440   4.237   0.021 -0.3802 -0.1093  0.7329
 6224SOL     OW23801   2.521   0.853   9.692  0.2719  0.7593 -0.3014
 6224SOL    HW123802   2.522   0.781   9.629  0.3829  0.1471  0.3950
 6224SOL    HW223803   2.546   0.813   9.775 -2.0050  1.1250  0.5972
 6225SOL     OW23804   8.415   2.511   9.872 -0.7630 -0.6424  0.2079
 6225SOL    HW123805   8.457   2.430   9.843 -3.5115 -1.7613 -0.7997
 6225SOL    HW223806   8.434   2.574   9.803 -0.5969 -1.0698 -0.1387
 6226SOL     OW23807   4.074   3.369   0.236 -0.3190  0.2501 -0.7234
 6226SOL    HW123808   4.024   3.306   0.184 -0.1382 -0.3308 -0.1984
 6226SOL    HW223809   4.054   3.345   0.327 -0.0188  0.7689 -0.5218
 6227SOL     OW23810   9.961   3.518   2.972 -0.7744 -0.4909  0.5152
 6227SOL    HW123811   9.895   3.463   3.013 -2.1937  0.2578 -0.7272
 6227SOL    HW223812   9.922   3.605   2.970  0.7010  0.1956  0.7611
 6228SOL     OW23813   3.756   7.159   2.855 -0.5017 -0.0967 -0.2987
 6228SOL    HW123814   3.693   7.159   2.784  1.6241 -0.4003 -2.2496
 6228SOL    HW223815   3.804   7.241   2.845  1.7387 -1.4300 -1.0521
 6229SOL     OW23816   0.082  10.232   2.092 -0.0574  0.1053  0.1052
 6229SOL    HW123817   0.014  10.294   2.066 -1.1329 -1.0214  0.1816
 6229SOL    HW223818   0.102  10.182   2.012  0.1551 -0.0553  0.2565
 6230SOL     OW23819   9.957   4.407   5.574 -0.2581 -0.0244 -0.0782
 6230SOL    HW123820   9.925   4.391   5.485 -0.1677 -1.7763  0.2000
 6230SOL    HW223821  10.050   4.384   5.570  0.6821  3.5630 -0.4905
 6231SOL     OW23822   9.341   3.326   8.411  0.0738  0.2693 -0.1449
 6231SOL    HW123823   9.388   3.248   8.441  0.5187 -0.1844 -1.9774
 6231SOL    HW223824   9.277   3.293   8.349 -0.1716  1.3005 -0.4554
 6232SOL     OW23825   7.370   6.412   2.298 -0.2340 -0.9611  0.0756
 6232SOL    HW123826   7.427   6.460   2.358 -2.7243  2.3200 -0.0317
 6232SOL    HW223827   7.410   6.426   2.212  1.0372 -2.1624  0.4507
 6233SOL     OW23828   4.207  10.838  10.940  0.4708  1.0707 -0.2410
 6233SOL    HW123829   4.287  10.786  10.941 -0.2785 -0.1658 -1.2827
 6233SOL    HW223830   4.184  10.845  10.847 -1.6195 -0.2259  0.1358
 6234SOL     OW23831   7.360   8.556   8.526  0.0900  1.3626 -0.0609
 6234SOL    HW123832   7.453   8.542   8.508 -0.2295  1.6932 -2.0042
 6234SOL    HW223833   7.335   8.629   8.469 -1.6479  0.4970 -0.4349
 6235SOL     OW23834   3.679   5.428   0.536  0.0623 -0.6623  0.4534
 6235SOL    HW123835   3.594   5.463   0.564  1.8730  3.9209  0.6217
 6235SOL    HW223836   3.674   5.428   0.441 -0.0917 -0.2163  0.4573
 6236SOL     OW23837   4.416  10.355   5.067 -0.3426  0.3111 -0.0806
 6236SOL    HW123838   4.338  10.394   5.105 -0.0369 -0.5935  1.5314
 6236SOL    HW223839   4.387  10.316   4.985 -1.7703 -0.8204  0.9514
 6237SOL     OW23840   3.036   5.061   1.130 -0.2666  0.1433  0.2381
 6237SOL    HW123841   3.047   4.967   1.145 -1.1946  0.0469  0.3822
 6237SOL    HW223842   3.039   5.070   1.034 -0.7221 -0.1115  0.1966
 6238SOL     OW23843   1.960   9.394   6.145 -0.2262 -0.3964  0.0942
 6238SOL    HW123844   2.015   9.325   6.183 -0.9935 -0.1718  1.6564
 6238SOL    HW223845   1.964   9.465   6.209  0.3004  0.8946 -1.3455
 6239SOL     OW23846   3.654   9.134  10.477 -0.1938  0.4781 -0.2913
 6239SOL    HW123847   3.607   9.083  10.412 -2.0515  1.1069  0.5120
 6239SOL    HW223848   3.585   9.180  10.526  1.1507  0.0593  2.0795
 6240SOL     OW23849  11.159  10.139   7.399  0.0406  0.2829  0.7044
 6240SOL    HW123850  11.086  10.191   7.432  2.4114  3.9785  0.4246
 6240SOL    HW223851  11.146  10.139   7.304  0.5451  1.1911  0.6313
 6241SOL     OW23852   4.528   2.425   6.304  0.6525 -0.2539 -0.4108
 6241SOL    HW123853   4.530   2.330   6.294  1.6144 -0.0524 -2.3357
 6241SOL    HW223854   4.595   2.444   6.370  1.1241 -0.8522 -0.7127
 6242SOL     OW23855   5.733   9.435  10.695  0.0874  0.1489 -0.1181
 6242SOL    HW123856   5.790   9.373  10.740 -0.2106 -1.2493 -1.6131
 6242SOL    HW223857   5.792   9.484  10.637  0.2913  1.1565  0.9154
 6243SOL     OW23858   9.469   5.915   2.063 -0.6542 -0.4604 -0.4441
 6243SOL    HW123859   9.382   5.883   2.086 -1.3700 -0.2878 -2.7888
 6243SOL    HW223860   9.472   6.004   2.098 -1.0167 -0.8281  0.5446
 6244SOL     OW23861   6.400   4.495   1.945  0.3281 -0.2318  0.0386
 6244SOL    HW123862   6.411   4.511   2.039 -1.1562 -1.0178  0.3642
 6244SOL    HW223863   6.410   4.581   1.904 -0.6801  0.3968  1.0854
 6245SOL     OW23864   4.563   4.095  10.218 -0.4094 -0.7121 -0.2038
 6245SOL    HW123865   4.557   4.006  10.254  0.6668 -0.2791  1.0482
 6245SOL    HW223866   4.478   4.108  10.174 -1.7612 -1.2511  2.1431
 6246SOL     OW23867   1.757   5.357   7.316 -0.2546 -0.4951 -0.2743
 6246SOL    HW123868   1.666   5.373   7.344 -0.1391  0.5178 -0.4291
 6246SOL    HW223869   1.763   5.263   7.305 -1.1099 -0.6334  0.3871
 6247SOL     OW23870   1.991   2.082   6.746 -0.2910 -0.3704  0.2836
 6247SOL    HW123871   2.065   2.135   6.776  0.0492 -0.8745  0.3413
 6247SOL    HW223872   1.921   2.145   6.729 -0.2599  0.0000  1.4629
 6248SOL     OW23873   6.921   0.378   9.585  0.7348 -0.3072 -0.3428
 6248SOL    HW123874   6.868   0.432   9.644 -0.5383 -0.4647 -1.3187
 6248SOL    HW223875   6.918   0.291   9.624  0.0918 -0.3624 -0.5104
 6249SOL     OW23876   3.426   7.750  10.146 -0.1483  0.0795  0.0008
 6249SOL    HW123877   3.339   7.777  10.117 -0.6267 -0.4613  0.9243
 6249SOL    HW223878   3.421   7.655  10.151  0.4178  0.0666  0.3229
 6250SOL     OW23879   7.407   1.447   6.824 -0.0604 -0.0245 -0.3407
 6250SOL    HW123880   7.337   1.386   6.849 -0.9091  1.1682  0.2352
 6250SOL    HW223881   7.419   1.433   6.730 -0.3077 -1.0109 -0.2266
 6251SOL     OW23882   2.216   9.857   1.287  0.0090  0.6795 -0.0005
 6251SOL    HW123883   2.227   9.887   1.196  0.4446  1.2935  0.2493
 6251SOL    HW223884   2.134   9.898   1.315 -1.1050 -1.0058 -0.7037
 6252SOL     OW23885   0.941   3.448  11.309  0.4078 -0.6504 -0.5425
 6252SOL    HW123886   1.036   3.456  11.296  0.5140 -0.1130  0.5180
 6252SOL    HW223887   0.916   3.371  11.258  1.3829 -0.6550 -1.0168
 6253SOL     OW23888   6.555  10.821   2.745 -0.6898  0.0502 -0.1327
 6253SOL    HW123889   6.471  10.800   2.703 -1.2601  1.2012  0.4313
 6253SOL    HW223890   6.614  10.751   2.716 -1.4835 -0.0198 -1.6225
 6254SOL     OW23891   0.536  10.555   2.574 -0.8230  0.0698  0.1263
 6254SOL    HW123892   0.481  10.618   2.527 -1.5511  0.2985  1.2456
 6254SOL    HW223893   0.474  10.507   2.630 -0.1339 -0.9472  0.0211
 6255SOL     OW23894   4.362   2.716   5.022  0.1579  0.3304 -0.1746
 6255SOL    HW123895   4.425   2.736   5.092  1.1014 -0.6765 -0.7230
 6255SOL    HW223896   4.317   2.799   5.007  1.1009  0.9803  0.4873
 6256SOL     OW23897  10.119   8.141   6.988  0.6132 -0.5117 -0.3382
 6256SOL    HW123898  10.100   8.142   7.082  0.9074 -0.0883 -0.2820
 6256SOL    HW223899  10.136   8.049   6.968  0.6491 -0.5877  0.0426
 6257SOL     OW23900   3.402   4.065   8.514 -0.6263 -0.2699 -0.3687
 6257SOL    HW123901   3.320   4.050   8.562 -0.6445 -0.0532 -0.3349
 6257SOL    HW223902   3.400   4.158   8.492 -0.2451 -0.2024 -0.1081
 6258SOL     OW23903   6.516   7.785   8.649 -0.3527  0.4084  0.3063
 6258SOL    HW123904   6.606   7.781   8.618 -0.1730 -0.6966  0.9280
 6258SOL    HW223905   6.483   7.868   8.617  1.0930  1.1172  0.6267
 6259SOL     OW23906   9.591  10.609   9.843 -0.7845 -0.2177  0.2046
 6259SOL    HW123907   9.575  10.524   9.802 -0.8251 -0.0254 -0.1799
 6259SOL    HW223908   9.675  10.598   9.888  0.5189  0.3223 -2.0077
 6260SOL     OW23909  10.248   3.362   3.241  0.4919  0.1112  0.3038
 6260SOL    HW123910  10.293   3.442   3.214 -0.8261  0.3924 -1.1010
 6260SOL    HW223911  10.300   3.292   3.202  0.7547  0.3458  0.2267
 6261SOL     OW23912   1.428   3.742   1.721 -0.1563  0.0727 -0.2332
 6261SOL    HW123913   1.470   3.797   1.787  0.2004  0.8375 -1.0758
 6261SOL    HW223914   1.474   3.659   1.724  0.7285  0.5501 -0.4168
 6262SOL     OW23915   6.756  10.309   9.469 -0.0090 -0.2310  0.1276
 6262SOL    HW123916   6.830  10.296   9.410 -2.0201 -2.2539 -2.1156
 6262SOL    HW223917   6.791  10.293   9.556  2.2188 -0.9691 -0.8651
 6263SOL     OW23918   0.050   8.246   7.713 -0.0408  0.5716  0.2101
 6263SOL    HW123919   0.054   8.162   7.667 -0.3663  1.7401 -2.0237
 6263SOL    HW223920   0.119   8.299   7.673 -0.2438  1.5793  1.1715
 6264SOL     OW23921   1.572   4.858   8.732  0.3328 -0.6269 -0.1927
 6264SOL    HW123922   1.510   4.886   8.665 -0.2445 -2.9809 -0.6727
 6264SOL    HW223923   1.522   4.859   8.813  0.4804  0.2939 -0.1112
 6265SOL     OW23924   0.888   4.539   7.702  0.0309  0.1546  0.4654
 6265SOL    HW123925   0.952   4.501   7.762  1.1378  0.2491 -0.6214
 6265SOL    HW223926   0.890   4.633   7.722  1.0704  0.3110 -0.3138
 6266SOL     OW23927   4.980   3.773   5.853 -0.4017  0.3879 -0.2848
 6266SOL    HW123928   5.065   3.782   5.809  0.0880 -0.6660  0.4109
 6266SOL    HW223929   4.918   3.756   5.782  0.5167 -2.1449 -0.5451
 6267SOL     OW23930  10.937   6.638   7.163  0.6584 -0.3157 -0.8573
 6267SOL    HW123931  10.875   6.570   7.134  0.7611 -0.7703 -0.0034
 6267SOL    HW223932  10.888   6.720   7.153  0.1268 -0.6175 -0.7762
 6268SOL     OW23933   7.752   1.480   8.021 -0.0370  0.2549  0.5424
 6268SOL    HW123934   7.821   1.472   7.955 -1.9628  0.2560 -1.5039
 6268SOL    HW223935   7.743   1.574   8.035 -0.3461  0.3058  0.0189
 6269SOL     OW23936   4.149   4.165   2.243 -0.5953  0.1098  0.4792
 6269SOL    HW123937   4.193   4.081   2.250 -2.0725 -0.5748  2.1226
 6269SOL    HW223938   4.191   4.220   2.309 -0.0060  0.4792 -0.2062
 6270SOL     OW23939   0.476   9.482   4.914 -0.4194 -0.0021  0.3054
 6270SOL    HW123940   0.556   9.500   4.864  0.4319  1.0427  1.9769
 6270SOL    HW223941   0.412   9.544   4.879  0.8709  2.4534  2.1011
 6271SOL     OW23942   9.387  10.345   4.193 -0.1958 -0.1070  0.1657
 6271SOL    HW123943   9.302  10.364   4.154 -0.7751 -1.3021  0.8271
 6271SOL    HW223944   9.449  10.393   4.138 -1.2750  0.6800 -0.3936
 6272SOL     OW23945   0.991   0.921   6.887 -0.0064 -0.2173  0.1467
 6272SOL    HW123946   0.898   0.915   6.907 -0.2389  0.8337 -0.5799
 6272SOL    HW223947   1.032   0.858   6.945 -0.9867  0.6325  1.7956
 6273SOL     OW23948   3.971   8.186  11.084  0.2324  0.0423 -0.3083
 6273SOL    HW123949   3.892   8.182  11.138 -1.9346  0.2195 -3.3327
 6273SOL    HW223950   3.994   8.095  11.068 -1.0153 -0.0330 -1.7227
 6274SOL     OW23951   3.240   4.008   2.968  0.3027 -0.4445  0.6642
 6274SOL    HW123952   3.228   4.018   3.063 -3.4073 -2.2559  0.4872
 6274SOL    HW223953   3.193   4.083   2.931  1.0443 -0.1964  0.2275
 6275SOL     OW23954   8.911   0.740   9.259 -0.4798  0.1442  0.4559
 6275SOL    HW123955   8.948   0.668   9.309 -2.4766 -0.2200  1.4612
 6275SOL    HW223956   8.896   0.809   9.324  0.2439  0.9975 -0.2785
 6276SOL     OW23957   7.164   8.670   9.043  0.1052 -0.2461  0.1054
 6276SOL    HW123958   7.112   8.647   9.121 -0.8676 -1.0807 -0.7675
 6276SOL    HW223959   7.102   8.661   8.970  1.6795 -2.1365 -1.0608
 6277SOL     OW23960  11.274   4.522   0.574  0.2521  0.2701  0.0328
 6277SOL    HW123961  11.321   4.476   0.643 -0.0728 -2.0099 -1.2031
 6277SOL    HW223962  11.276   4.461   0.499 -0.7663  2.0054 -1.4483
 6278SOL     OW23963   2.899   7.393   1.001 -0.1366 -0.1284 -0.3600
 6278SOL    HW123964   2.881   7.465   0.941 -2.0795  1.4298  1.9739
 6278SOL    HW223965   2.961   7.430   1.064 -0.8221 -0.5898  0.6041
 6279SOL     OW23966   0.964   9.123   0.279 -0.0146  0.1223  0.4780
 6279SOL    HW123967   0.869   9.111   0.277  0.3686 -3.5890  0.6016
 6279SOL    HW223968   0.992   9.078   0.359  1.5775  3.7370  2.0268
 6280SOL     OW23969   7.162   3.389   0.960  0.5020 -0.2045  0.4804
 6280SOL    HW123970   7.243   3.440   0.969 -0.0825  1.2423 -2.0452
 6280SOL    HW223971   7.126   3.415   0.876 -2.4292 -1.1238  1.3745
 6281SOL     OW23972   3.177   0.569   6.884 -0.3802 -0.1812 -0.2760
 6281SOL    HW123973   3.146   0.632   6.819 -0.6634 -0.1279 -0.0922
 6281SOL    HW223974   3.254   0.528   6.844 -2.3380 -2.3736 -1.9592
 6282SOL     OW23975   3.952   9.555   7.786 -0.4734  0.2446  0.0996
 6282SOL    HW123976   4.020   9.527   7.848 -0.6216  0.8590  0.5482
 6282SOL    HW223977   3.880   9.494   7.800 -0.8596  0.9294  1.1826
 6283SOL     OW23978   3.155   8.203   8.489 -0.3627 -0.2792 -0.1085
 6283SOL    HW123979   3.228   8.165   8.538 -0.1603  1.6006  1.1096
 6283SOL    HW223980   3.175   8.182   8.398 -0.1669 -2.8749  0.4716
 6284SOL     OW23981   4.264   1.847   6.892 -0.3948 -0.3822  0.1915
 6284SOL    HW123982   4.238   1.882   6.807  1.2069 -0.5752 -0.3935
 6284SOL    HW223983   4.185   1.856   6.946 -1.0896  0.8098 -0.9675
 6285SOL     OW23984   1.120   8.510   7.854  0.0015  0.4613 -0.6373
 6285SOL    HW123985   1.208   8.492   7.888 -0.6077 -1.5852 -0.0390
 6285SOL    HW223986   1.115   8.605   7.849  1.1397  0.7388  2.3179
 6286SOL     OW23987   5.956   5.375   5.090 -0.5306 -0.1838 -0.5440
 6286SOL    HW123988   5.944   5.297   5.035  0.7211 -0.7527 -0.0300
 6286SOL    HW223989   6.018   5.429   5.040 -0.9810  0.2423 -0.6452
 6287SOL     OW23990   9.486   5.417   3.460 -0.0768  0.4035 -0.1822
 6287SOL    HW123991   9.397   5.402   3.427 -0.9165  1.1216  1.7170
 6287SOL    HW223992   9.474   5.453   3.548  2.0991 -0.8923  0.7023
 6288SOL     OW23993   8.335   5.391   6.878 -0.5374 -0.1480 -0.1470
 6288SOL    HW123994   8.327   5.302   6.844 -0.6318  0.3911 -1.5371
 6288SOL    HW223995   8.261   5.439   6.841  1.0258  1.2023 -1.6013
 6289SOL     OW23996  10.445   5.827   9.689  0.1448 -0.1580 -0.3554
 6289SOL    HW123997  10.466   5.749   9.741 -3.6307 -1.3250 -0.3841
 6289SOL    HW223998  10.422   5.793   9.602 -0.3009  1.0964 -0.7468
 6290SOL     OW23999   2.142   6.841   3.644 -0.7560 -0.0982  0.1349
 6290SOL    HW124000   2.080   6.838   3.716 -0.6442 -0.1096  0.2308
 6290SOL    HW224001   2.088   6.832   3.565 -1.0931  1.9983  0.1007
 6291SOL     OW24002   9.197   5.570   8.039 -0.1397 -0.5416 -0.0406
 6291SOL    HW124003   9.204   5.663   8.017 -0.2389 -0.1032  1.7269
 6291SOL    HW224004   9.288   5.540   8.044 -0.1211 -0.7759 -1.5158
 6292SOL     OW24005   3.109   8.556  10.022 -0.2586  0.3253 -0.2565
 6292SOL    HW124006   3.166   8.600   9.959  0.3017 -0.7031 -0.4665
 6292SOL    HW224007   3.022   8.559   9.982  0.0661 -0.1862 -1.0139
 6293SOL     OW24008   9.017   1.946   2.804 -0.1108 -0.0622 -0.3569
 6293SOL    HW124009   9.026   1.988   2.718 -1.8501  2.3190  0.5502
 6293SOL    HW224010   9.094   1.974   2.853  0.5004 -0.8063 -0.8840
 6294SOL     OW24011   2.699   5.194   2.901 -0.2040 -0.2924  0.1629
 6294SOL    HW124012   2.628   5.207   2.838 -0.7557 -0.9020  0.6449
 6294SOL    HW224013   2.687   5.104   2.932 -0.2492  0.1639  1.5196
 6295SOL     OW24014   4.460   1.746   2.361  0.5307  0.1789  0.5184
 6295SOL    HW124015   4.488   1.788   2.280 -0.3405  2.7115  1.4744
 6295SOL    HW224016   4.530   1.685   2.382  0.8507 -0.3595 -2.0294
 6296SOL     OW24017   7.095   1.168   7.102 -0.4195 -0.0743  0.0664
 6296SOL    HW124018   7.013   1.120   7.115 -1.6737  2.1960  0.8244
 6296SOL    HW224019   7.097   1.232   7.173  1.9523  0.0365 -0.0343
 6297SOL     OW24020  10.959   0.574   9.983  0.0771  0.7820 -0.2660
 6297SOL    HW124021  10.888   0.548  10.042  0.6275 -0.9863 -0.3694
 6297SOL    HW224022  11.036   0.580  10.039  0.3985  0.0739 -0.6364
 6298SOL     OW24023   4.697   6.644   3.526 -0.1691  0.2654 -0.1849
 6298SOL    HW124024   4.767   6.697   3.488 -1.2301  0.2233 -2.2562
 6298SOL    HW224025   4.659   6.700   3.594 -0.0481  1.4422 -1.0736
 6299SOL     OW24026   1.641   9.007   5.799  0.0915 -0.3703 -0.0367
 6299SOL    HW124027   1.557   8.965   5.816  0.2701 -0.9648 -0.6051
 6299SOL    HW224028   1.682   9.016   5.885  0.3144 -1.9208  0.0355
 6300SOL     OW24029   2.908  10.249   1.178  0.3864  0.6019  0.0091
 6300SOL    HW124030   2.961  10.310   1.126  0.3761  0.0479 -0.6546
 6300SOL    HW224031   2.837  10.222   1.119 -2.4439  3.6903  1.8428
 6301SOL     OW24032   6.059   8.588   1.850 -0.3471 -0.0164  0.0396
 6301SOL    HW124033   6.009   8.620   1.925  0.3863  0.6342  0.2497
 6301SOL    HW224034   5.992   8.570   1.783 -0.6240  4.4380 -1.0228
 6302SOL     OW24035   2.282  10.933   6.421  0.8127 -0.4698  0.2365
 6302SOL    HW124036   2.377  10.943   6.408  1.2545 -1.1899  2.6494
 6302SOL    HW224037   2.255  11.014   6.462 -0.0017  0.5028 -2.1100
 6303SOL     OW24038   5.916   5.677   0.982 -0.5650  0.0964 -0.0585
 6303SOL    HW124039   5.999   5.639   0.952 -0.5686  0.4875 -0.5732
 6303SOL    HW224040   5.916   5.765   0.945 -0.3711  0.7474  1.4487
 6304SOL     OW24041   5.697   8.227   2.138 -0.4161 -0.0362  0.0584
 6304SOL    HW124042   5.750   8.212   2.216 -3.6295 -0.9347  2.1791
 6304SOL    HW224043   5.661   8.315   2.149 -1.3198 -0.3740 -0.0753
 6305SOL     OW24044   7.294   9.217   4.399 -0.0284  0.2793  0.1236
 6305SOL    HW124045   7.314   9.280   4.329  2.5030 -0.1021  0.4613
 6305SOL    HW224046   7.340   9.137   4.373  0.9142  0.1310  2.2005
 6306SOL     OW24047   2.744   3.548   2.719  0.7368 -0.1958 -0.5320
 6306SOL    HW124048   2.692   3.597   2.656  1.2440 -0.7401 -1.3930
 6306SOL    HW224049   2.687   3.477   2.748  0.9812 -0.7671 -1.4430
 6307SOL     OW24050   0.747   3.137   8.552  0.3979  0.1460  0.0003
 6307SOL    HW124051   0.831   3.101   8.525  1.1311  1.1488  0.9096
 6307SOL    HW224052   0.761   3.232   8.552 -0.1669  0.2448  1.9587
 6308SOL     OW24053  10.744   7.330  10.244  0.0326 -0.3285 -0.0440
 6308SOL    HW124054  10.815   7.305  10.302 -1.4148 -1.4746  1.3014
 6308SOL    HW224055  10.778   7.404  10.194  2.3972 -1.3322  0.0353
 6309SOL     OW24056   4.475   9.614   9.747  0.8621  0.3918 -0.4583
 6309SOL    HW124057   4.394   9.585   9.790  1.6968 -0.7699  0.3435
 6309SOL    HW224058   4.456   9.602   9.653 -0.3638  1.3840 -0.3558
 6310SOL     OW24059   8.197   0.140   0.031  0.1503 -0.0380 -0.3455
 6310SOL    HW124060   8.110   0.110   0.004 -0.8052  0.6120  1.9125
 6310SOL    HW224061   8.188   0.235   0.038  0.7322 -0.0685  0.9222
 6311SOL     OW24062   0.761  11.054   0.501 -0.2762  0.7585  0.1224
 6311SOL    HW124063   0.700  11.005   0.446 -0.1637  0.4875  0.2325
 6311SOL    HW224064   0.708  11.083   0.575  0.1644 -1.3337  1.3259
 6312SOL     OW24065   1.296   1.635  11.090 -0.0886 -0.2433 -0.2723
 6312SOL    HW124066   1.264   1.718  11.053  0.7142  0.5728  0.8464
 6312SOL    HW224067   1.219   1.599  11.135  0.1451  0.9793  1.1244
 6313SOL     OW24068   7.856   4.091   4.512  0.3486  0.0819  0.0676
 6313SOL    HW124069   7.902   4.029   4.456  1.1515  0.8329 -0.1184
 6313SOL    HW224070   7.766   4.061   4.513  0.9924 -1.8721  1.0863
 6314SOL     OW24071   6.448   5.929   6.728  0.3361 -0.4537  0.3925
 6314SOL    HW124072   6.506   6.001   6.752 -0.0469 -0.1802  0.5185
 6314SOL    HW224073   6.361   5.969   6.726  0.4900 -0.2244 -2.6063
 6315SOL     OW24074   5.232   3.801   7.907  0.2834  0.2764 -0.9455
 6315SOL    HW124075   5.155   3.857   7.895  1.8528  2.0776 -2.8741
 6315SOL    HW224076   5.275   3.837   7.985  0.8210  1.2163 -1.6715
 6316SOL     OW24077   5.880   2.094  10.152  0.1761  0.4096 -0.2812
 6316SOL    HW124078   5.920   2.181  10.151  0.9174  0.0833 -1.9856
 6316SOL    HW224079   5.787   2.110  10.138  0.4066  0.9128 -1.3198
 6317SOL     OW24080   1.718   5.277   4.862 -0.0339 -0.2127  0.1341
 6317SOL    HW124081   1.725   5.188   4.898  1.4226 -0.1474  0.0455
 6317SOL    HW224082   1.808   5.301   4.840 -0.6878  0.4278 -1.9550
 6318SOL     OW24083   0.046   8.425   9.977 -0.0143  0.0730  0.0880
 6318SOL    HW124084   0.041   8.374   9.896 -1.1099  0.2828  0.0163
 6318SOL    HW224085   0.089   8.506   9.951 -0.1945  0.0617 -0.2516
 6319SOL     OW24086   8.527  10.369   7.951  0.3752 -0.5826 -0.6985
 6319SOL    HW124087   8.605  10.415   7.921  1.0224 -1.4102 -0.3085
 6319SOL    HW224088   8.471  10.363   7.874  0.1848  1.0459 -0.6937
 6320SOL     OW24089   6.220   7.985   8.871  0.5461 -0.1200 -0.4681
 6320SOL    HW124090   6.132   7.952   8.854 -1.1128  2.3712  2.7642
 6320SOL    HW224091   6.275   7.907   8.876 -2.0927 -1.9423  0.8044
 6321SOL     OW24092  11.106   6.746  10.920 -0.0348  0.2516 -0.1268
 6321SOL    HW124093  11.024   6.751  10.871 -0.4808  0.3691  0.6183
 6321SOL    HW224094  11.139   6.836  10.922 -0.2715  0.3353  0.2039
 6322SOL     OW24095   7.626   8.805   8.449  0.3355 -0.3440 -0.2179
 6322SOL    HW124096   7.577   8.773   8.373 -2.3895 -2.3061  2.2882
 6322SOL    HW224097   7.607   8.898   8.452 -3.8239 -1.1352  1.0134
 6323SOL     OW24098   3.938   7.018  10.470 -0.0265  0.3108 -0.9403
 6323SOL    HW124099   3.924   6.926  10.447 -0.3937 -0.4541  2.0696
 6323SOL    HW224100   3.881   7.032  10.546  0.9272  2.6987 -0.6231
 6324SOL     OW24101   0.798   9.945   5.351  0.2005 -0.0535 -0.1999
 6324SOL    HW124102   0.863   9.876   5.366  1.6568  0.9894 -1.5582
 6324SOL    HW224103   0.738   9.908   5.287 -1.7285 -1.7441  2.4568
 6325SOL     OW24104   3.052  11.286   2.878  0.1255 -0.3512  0.2740
 6325SOL    HW124105   3.085  11.309   2.965 -0.0582 -2.3004  0.8815
 6325SOL    HW224106   2.970  11.334   2.869  1.1305  1.4049  0.3741
 6326SOL     OW24107   9.533   9.311  11.294 -0.0373 -0.1433 -0.2223
 6326SOL    HW124108   9.504   9.221  11.280 -0.0345 -0.0804 -0.6361
 6326SOL    HW224109   9.557   9.343  11.206 -0.2534  0.3320 -0.1129
 6327SOL     OW24110   3.889   3.217   0.064 -0.1135  0.5955  0.0580
 6327SOL    HW124111   3.948   3.145   0.041  1.8167  2.0549  0.4424
 6327SOL    HW224112   3.882   3.269  -0.016 -2.7857 -0.8274 -0.7240
 6328SOL     OW24113   3.259   0.199   5.330  0.2698  0.5341 -0.1000
 6328SOL    HW124114   3.248   0.238   5.243 -0.9608  0.3270 -0.0341
 6328SOL    HW224115   3.176   0.155   5.348  0.6936  0.1570  0.9759
 6329SOL     OW24116   9.226  11.051   5.633  0.4672 -0.4114 -0.4277
 6329SOL    HW124117   9.298  11.012   5.683  0.7610 -0.1849 -0.6679
 6329SOL    HW224118   9.171  10.977   5.607 -0.5929 -0.3586  1.6487
 6330SOL     OW24119   8.869   8.895  10.221 -0.3905  0.1059 -0.1308
 6330SOL    HW124120   8.795   8.928  10.272  0.5501  1.3463  0.4290
 6330SOL    HW224121   8.837   8.895  10.130 -1.0826  0.6092  0.1085
 6331SOL     OW24122   5.173   0.640   2.654 -0.1091 -0.8082 -0.2851
 6331SOL    HW124123   5.149   0.552   2.683 -0.9688  0.1404  1.9970
 6331SOL    HW224124   5.094   0.692   2.665  0.6934  0.4986 -0.5355
 6332SOL     OW24125   5.317   5.106  10.727 -0.0238 -0.1685  0.0635
 6332SOL    HW124126   5.347   5.170  10.663 -1.4024  1.4423  0.9785
 6332SOL    HW224127   5.231   5.079  10.696  0.6170 -1.7233 -0.4006
 6333SOL     OW24128   4.151   9.374   0.797  0.3539 -0.1212  0.5654
 6333SOL    HW124129   4.184   9.327   0.720 -0.4427  0.2181  0.0210
 6333SOL    HW224130   4.058   9.353   0.800  0.0628  1.1557  0.5279
 6334SOL     OW24131   4.890   0.135  10.606 -0.5244 -0.0231 -0.3522
 6334SOL    HW124132   4.810   0.108  10.562 -0.6657 -0.1356 -0.0297
 6334SOL    HW224133   4.868   0.133  10.699 -0.4373  0.8819 -0.3043
 6335SOL     OW24134   8.036   4.133   5.078  0.2592 -0.3294  0.4005
 6335SOL    HW124135   8.008   4.051   5.037  0.9561  0.5385 -1.8562
 6335SOL    HW224136   8.081   4.106   5.158  4.5410 -2.4548 -2.5888
 6336SOL     OW24137  11.057   7.805  10.156  0.4180  0.3009 -0.7083
 6336SOL    HW124138  11.033   7.778  10.245  0.4449  0.3210 -0.6944
 6336SOL    HW224139  11.093   7.894  10.168  0.2787  0.3639 -0.7599
 6337SOL     OW24140   5.210   1.636   5.922  0.7587 -0.5635 -0.0243
 6337SOL    HW124141   5.211   1.546   5.889  0.2363 -0.6204  0.1198
 6337SOL    HW224142   5.301   1.654   5.945  1.1487 -0.5166 -1.5264
 6338SOL     OW24143   9.119   3.315   5.101  0.2390 -0.1482  0.4398
 6338SOL    HW124144   9.027   3.313   5.076  0.1546 -1.8633  0.8036
 6338SOL    HW224145   9.133   3.403   5.134 -1.4456 -0.0792  1.0326
 6339SOL     OW24146   2.816   2.056  10.905 -0.5446 -0.1244 -0.0419
 6339SOL    HW124147   2.816   1.971  10.861 -0.9180  0.4976 -1.2510
 6339SOL    HW224148   2.742   2.104  10.867  1.6458  1.9868 -1.8676
 6340SOL     OW24149   8.323   4.565   1.484  0.3976  1.0676  0.4514
 6340SOL    HW124150   8.392   4.533   1.542  2.3610  0.4150 -2.1665
 6340SOL    HW224151   8.355   4.546   1.396 -3.0329  0.9501 -0.8442
 6341SOL     OW24152   9.495   1.386   1.499  0.7096 -0.4715  0.2444
 6341SOL    HW124153   9.452   1.339   1.570  1.0009  0.2922  0.9435
 6341SOL    HW224154   9.476   1.335   1.420  1.7911 -2.2665  1.1048
 6342SOL     OW24155   4.970   1.984   8.962 -0.0794  0.7174 -0.1687
 6342SOL    HW124156   4.882   1.948   8.954  0.3638 -0.2152 -1.0281
 6342SOL    HW224157   5.001   1.955   9.048  0.2223 -0.8759 -0.7964
 6343SOL     OW24158   3.574   4.699  10.727 -0.4510  0.2113  0.3840
 6343SOL    HW124159   3.646   4.656  10.680  0.7936  2.4109  0.1906
 6343SOL    HW224160   3.520   4.627  10.760  2.2363 -1.5247  1.1661
 6344SOL     OW24161  10.480   8.672   2.087 -0.1953  0.2264  0.1624
 6344SOL    HW124162  10.498   8.760   2.056  0.4968  0.7915  2.1092
 6344SOL    HW224163  10.566   8.637   2.112 -0.6519 -0.4119  0.8927
 6345SOL     OW24164   0.271  10.676   9.142 -0.8258 -0.3787  0.2269
 6345SOL    HW124165   0.363  10.689   9.166 -0.2454 -0.1441 -2.0588
 6345SOL    HW224166   0.273  10.606   9.076 -2.2078  0.1374 -0.3783
 6346SOL     OW24167   0.260   2.005  11.287  0.4554 -0.2260  0.1551
 6346SOL    HW124168   0.336   2.064  11.284  1.2749 -0.9136  4.2669
 6346SOL    HW224169   0.186   2.062  11.306  0.2940  0.1125 -1.3704
 6347SOL     OW24170   9.809   1.615   6.712 -0.3083 -0.5450  0.5043
 6347SOL    HW124171   9.789   1.698   6.757  2.1826  0.1551  0.3689
 6347SOL    HW224172   9.879   1.576   6.764  0.3251 -1.3295 -0.9109
 6348SOL     OW24173   1.083   9.376   9.880  0.6206  0.4451  0.1741
 6348SOL    HW124174   1.129   9.341   9.957 -1.2171 -2.3750  0.0630
 6348SOL    HW224175   1.094   9.309   9.813 -1.7321  0.7271 -0.5296
 6349SOL     OW24176   1.609   4.486  10.136 -0.2647 -0.0217  0.0546
 6349SOL    HW124177   1.528   4.508  10.089 -0.5317 -0.5755  0.2428
 6349SOL    HW224178   1.580   4.468  10.225  0.2439  1.0629  0.4502
 6350SOL     OW24179   7.293   2.330   4.359 -0.2925 -0.0701  0.8021
 6350SOL    HW124180   7.300   2.239   4.329  1.4750  0.4046 -0.3071
 6350SOL    HW224181   7.377   2.369   4.336 -1.4247  2.1345  0.2822
 6351SOL     OW24182   3.420   9.128  10.940 -0.1468  0.1358  0.3228
 6351SOL    HW124183   3.400   9.220  10.920 -0.6101  0.0341  0.3161
 6351SOL    HW224184   3.512   9.129  10.964  0.0018  0.5159 -0.2459
 6352SOL     OW24185   4.909   4.783   9.066  0.7635  0.8495 -1.0743
 6352SOL    HW124186   4.845   4.714   9.085  1.7953  0.2738  0.4756
 6352SOL    HW224187   4.879   4.858   9.116  0.1768  1.2366 -1.9909
 6353SOL     OW24188   3.408   3.026   1.168 -0.0347 -0.2519 -0.0905
 6353SOL    HW124189   3.381   2.984   1.087  0.2120 -0.8021  0.1063
 6353SOL    HW224190   3.328   3.031   1.221 -0.2318  0.2728 -0.4388
 6354SOL     OW24191  10.130  10.961   1.192 -0.2712 -0.0652  0.1741
 6354SOL    HW124192  10.180  10.981   1.113 -0.2684  1.0823  0.4527
 6354SOL    HW224193  10.078  10.884   1.169  0.5475 -0.4025 -0.5841
 6355SOL     OW24194   3.952   5.301  10.865  0.1251  0.0103 -0.2847
 6355SOL    HW124195   3.922   5.391  10.854  2.0152  0.6093 -0.6058
 6355SOL    HW224196   3.994   5.300  10.951 -0.1066 -0.6271 -0.1774
 6356SOL     OW24197   6.986   3.997   1.953  0.1134 -0.0425 -0.2819
 6356SOL    HW124198   7.058   3.943   1.985  1.5153  0.8416 -1.8106
 6356SOL    HW224199   6.991   4.077   2.006 -0.5068 -0.4727  0.4261
 6357SOL     OW24200   2.861   7.022   9.765  1.0056  0.1009  0.5101
 6357SOL    HW124201   2.886   7.062   9.848  0.8405  1.0154  0.1217
 6357SOL    HW224202   2.852   7.096   9.704  1.7492 -0.5991 -0.4809
 6358SOL     OW24203  10.669  10.541  10.748  0.2423  0.0581  0.1923
 6358SOL    HW124204  10.744  10.531  10.691  1.1829 -0.8058  1.5542
 6358SOL    HW224205  10.642  10.452  10.768 -2.1676  0.3332 -1.5641
 6359SOL     OW24206   3.463   8.812  10.673  0.5716 -0.0347 -0.1356
 6359SOL    HW124207   3.508   8.799  10.589  2.5726  1.8540  0.5841
 6359SOL    HW224208   3.376   8.844  10.649  0.7664 -0.4936 -1.5163
 6360SOL     OW24209   8.397   5.668   9.754 -0.1275 -0.3258  0.0057
 6360SOL    HW124210   8.382   5.722   9.676  0.9329  0.7890  0.5512
 6360SOL    HW224211   8.400   5.578   9.722 -1.0541  0.0075 -1.0396
 6361SOL     OW24212   3.790   9.723   1.511 -0.0589 -0.0108  0.3158
 6361SOL    HW124213   3.884   9.744   1.518 -0.0376  0.2767 -0.8257
 6361SOL    HW224214   3.789   9.629   1.492  0.0218  0.1008 -0.2541
 6362SOL     OW24215   2.192   4.931   6.783 -0.0539  0.9029  0.1481
 6362SOL    HW124216   2.098   4.914   6.775  0.1818 -0.2031 -0.4501
 6362SOL    HW224217   2.218   4.959   6.695  0.4807 -0.4002 -0.1125
 6363SOL     OW24218   4.530   5.814   1.769 -0.0530 -0.0322 -0.3385
 6363SOL    HW124219   4.622   5.833   1.754  0.1509 -1.1732 -0.5579
 6363SOL    HW224220   4.516   5.728   1.729 -0.7748 -0.6967  1.2905
 6364SOL     OW24221   8.780   0.765   2.244  0.2062  0.4897 -0.0528
 6364SOL    HW124222   8.728   0.802   2.315  1.2137  0.6684  0.5936
 6364SOL    HW224223   8.807   0.841   2.192 -1.7617  0.2499 -1.4978
 6365SOL     OW24224   2.550   6.219   0.318  0.6729  0.1278 -0.4414
 6365SOL    HW124225   2.493   6.176   0.381 -0.7870  0.8042 -1.2539
 6365SOL    HW224226   2.559   6.156   0.246  0.2399  0.3607 -0.7003
 6366SOL     OW24227   1.958   1.427   4.844 -0.5385 -0.0716  0.2460
 6366SOL    HW124228   1.981   1.393   4.931  0.1053 -0.4261 -0.0559
 6366SOL    HW224229   1.889   1.370   4.813 -0.7866  0.0700  0.5366
 6367SOL     OW24230   0.503   9.374   3.680  0.6291  0.1436 -0.0725
 6367SOL    HW124231   0.536   9.354   3.768  0.2598  1.3836  0.3685
 6367SOL    HW224232   0.582   9.385   3.627  0.9092  1.0425  0.5044
 6368SOL     OW24233   8.113   4.945   3.916  0.1955  0.1953 -0.3817
 6368SOL    HW124234   8.198   4.945   3.872  0.9714  0.4210  1.1200
 6368SOL    HW224235   8.050   4.934   3.844  1.4797 -0.0920 -1.4922
 6369SOL     OW24236   1.162   4.062  11.256 -0.1506  0.1036  0.0783
 6369SOL    HW124237   1.248   4.096  11.282 -0.5335  1.9000 -0.9794
 6369SOL    HW224238   1.157   3.977  11.300  2.2070 -0.0829  0.0855
 6370SOL     OW24239   2.738  10.204   4.057 -0.5950 -0.2459  0.2919
 6370SOL    HW124240   2.790  10.168   3.985 -0.3279  0.4583  0.1168
 6370SOL    HW224241   2.654  10.226   4.017 -0.0571  1.2087 -0.0958
 6371SOL     OW24242   0.376   4.551   6.767 -1.1101 -0.5619 -0.0532
 6371SOL    HW124243   0.443   4.575   6.704 -1.5052  0.3968 -0.1274
 6371SOL    HW224244   0.418   4.560   6.852 -1.8900  2.7851  0.0665
 6372SOL     OW24245  10.494   3.981   9.905 -0.0863 -0.1959 -0.2187
 6372SOL    HW124246  10.556   4.033   9.854 -0.0550 -0.1676 -0.1527
 6372SOL    HW224247  10.465   4.040   9.974 -1.7170  0.4548 -1.4305
 6373SOL     OW24248   0.814  11.321   3.779  0.4721 -0.1491 -0.0459
 6373SOL    HW124249   0.908  11.339   3.776  0.8539 -2.1429 -0.7708
 6373SOL    HW224250   0.794  11.282   3.694 -1.4430  2.1114 -0.6845
 6374SOL     OW24251   2.811   1.806   2.410  0.2784  0.2585  0.5279
 6374SOL    HW124252   2.722   1.789   2.379 -0.4768  4.0862  0.3149
 6374SOL    HW224253   2.801   1.833   2.501  1.3113  0.0189  0.7231
 6375SOL     OW24254  10.667   2.752   4.905 -0.1348 -0.2710 -0.2299
 6375SOL    HW124255  10.722   2.830   4.894 -1.2558  0.3586 -1.4646
 6375SOL    HW224256  10.700   2.711   4.985  0.1217  1.7632  0.7430
 6376SOL     OW24257   4.875   3.965  10.163  0.1701  0.6740  0.4704
 6376SOL    HW124258   4.959   3.939  10.199  0.5473 -0.3394 -1.0604
 6376SOL    HW224259   4.834   3.883  10.137 -0.7467  1.2544  0.0506
 6377SOL     OW24260   5.157  11.079   0.135 -0.1260 -0.7310  0.3130
 6377SOL    HW124261   5.190  11.010   0.191  2.1519 -0.1583 -0.2883
 6377SOL    HW224262   5.070  11.098   0.169  0.0341 -2.4622  1.7440
 6378SOL     OW24263   4.464   2.430   9.715  0.2508 -0.4578 -0.0211
 6378SOL    HW124264   4.542   2.386   9.682  1.6991  1.1178  1.1879
 6378SOL    HW224265   4.497   2.510   9.755 -1.9960  0.2176  0.5692
 6379SOL     OW24266   2.249   5.977   6.830  0.5320  0.2024 -0.0585
 6379SOL    HW124267   2.264   5.888   6.863 -0.8394 -0.1215 -0.2837
 6379SOL    HW224268   2.278   5.974   6.739 -2.2548 -0.8499 -0.9628
 6380SOL     OW24269   8.645   4.379   0.247 -0.0579  0.2834 -0.1619
 6380SOL    HW124270   8.669   4.372   0.155 -1.2066  0.9551 -0.5117
 6380SOL    HW224271   8.556   4.345   0.252 -0.2358  0.8347  0.5885
 6381SOL     OW24272   6.462   3.475   8.839  0.5256  0.5056 -0.3871
 6381SOL    HW124273   6.493   3.502   8.753  3.7372 -2.4246 -0.2860
 6381SOL    HW224274   6.515   3.525   8.901  1.3234 -0.5622 -0.1814
 6382SOL     OW24275   3.898   1.248   6.618 -0.1213  0.0298 -0.8374
 6382SOL    HW124276   3.849   1.326   6.643 -2.2827 -0.9607 -1.8527
 6382SOL    HW224277   3.989   1.276   6.618 -0.7116  2.0821  0.5008
 6383SOL     OW24278   9.519   2.905  10.996  0.6418  0.5681 -0.0648
 6383SOL    HW124279   9.425   2.922  10.996  0.4496 -0.4639  0.9027
 6383SOL    HW224280   9.558   2.984  11.033  0.0197  0.3460  1.0939
 6384SOL     OW24281   7.091   6.144   7.336 -0.3904  0.2431  0.2919
 6384SOL    HW124282   7.061   6.220   7.385  0.8145  0.5560  0.5533
 6384SOL    HW224283   7.114   6.079   7.403 -1.4299 -0.3625  0.0710
 6385SOL     OW24284   1.526  10.894   3.847 -0.6135  0.4970  0.5986
 6385SOL    HW124285   1.446  10.936   3.878 -1.2253  0.8660 -1.4110
 6385SOL    HW224286   1.506  10.800   3.848 -0.9882  0.5732  0.3276
 6386SOL     OW24287   4.720   5.302   3.143  0.0525 -0.2125  0.1320
 6386SOL    HW124288   4.661   5.240   3.186 -2.0075 -0.9195 -3.4341
 6386SOL    HW224289   4.674   5.386   3.146 -0.9055 -0.6159 -2.0271
 6387SOL     OW24290   7.445   0.497   2.587  0.0235 -0.8965 -0.6205
 6387SOL    HW124291   7.508   0.428   2.604  0.9392 -0.2810 -1.4706
 6387SOL    HW224292   7.363   0.465   2.626  0.7998 -1.7841  0.3154
 6388SOL     OW24293   2.676   7.986   8.025  0.3102  0.3145  0.5786
 6388SOL    HW124294   2.680   7.953   8.115  0.3086  0.0657  0.4879
 6388SOL    HW224295   2.767   7.996   7.999  0.3738 -2.0783 -0.2856
 6389SOL     OW24296  11.062   9.706   8.285 -0.1330  0.1024 -0.1337
 6389SOL    HW124297  11.100   9.618   8.290 -0.5504 -0.3326 -3.3640
 6389SOL    HW224298  11.134   9.764   8.309  0.5424 -1.0251  0.6705
 6390SOL     OW24299   8.542   4.888   9.409  0.0572  0.1869  0.6228
 6390SOL    HW124300   8.472   4.824   9.396 -0.2910  0.3535  1.6419
 6390SOL    HW224301   8.530   4.951   9.338 -0.3529 -0.2147  0.3333
 6391SOL     OW24302   1.538   8.069   1.241  0.2837 -0.7067  0.7670
 6391SOL    HW124303   1.460   8.053   1.188  1.0156  0.4027 -0.6741
 6391SOL    HW224304   1.506   8.119   1.317 -0.4966 -0.7823  0.4856
 6392SOL     OW24305   4.106  10.248   2.499  0.1158  0.1216  0.1748
 6392SOL    HW124306   4.042  10.317   2.515  1.6874  1.8867 -0.9371
 6392SOL    HW224307   4.090  10.222   2.408  0.8157  0.3951 -0.0272
 6393SOL     OW24308   6.084   7.952   1.876  0.1721  0.3744  0.0492
 6393SOL    HW124309   6.134   8.034   1.876 -1.3441  1.3340 -1.5908
 6393SOL    HW224310   5.998   7.977   1.910  0.4218 -1.0182  1.7297
 6394SOL     OW24311   0.804   1.006   8.309 -0.0410  0.4658  0.1925
 6394SOL    HW124312   0.804   1.101   8.318 -0.7066  0.6218 -1.3322
 6394SOL    HW224313   0.777   0.990   8.218 -2.6843 -1.2360  1.1916
 6395SOL     OW24314   8.865   5.072   0.767  0.0389  0.2646 -0.3042
 6395SOL    HW124315   8.781   5.063   0.811  1.0721  0.8527  1.8541
 6395SOL    HW224316   8.873   5.167   0.751  0.1294  0.1687 -0.8385
 6396SOL     OW24317   1.539   6.196   5.457 -0.0170  0.5664  0.0615
 6396SOL    HW124318   1.519   6.285   5.429  0.1623  0.0929 -1.6419
 6396SOL    HW224319   1.487   6.140   5.400  2.0566 -0.5025 -0.8404
 6397SOL     OW24320   6.350   2.540   8.924  0.2029  0.2274 -0.1765
 6397SOL    HW124321   6.257   2.547   8.946  0.7929 -0.5030  2.6820
 6397SOL    HW224322   6.382   2.630   8.927 -0.2609  0.4089 -0.5513
 6398SOL     OW24323   4.273   4.483   6.092  0.3378 -0.5071 -0.3951
 6398SOL    HW124324   4.265   4.556   6.031 -2.6239  1.1582  1.8215
 6398SOL    HW224325   4.260   4.405   6.038 -1.0412  0.8623 -2.0948
 6399SOL     OW24326   8.846   4.645   8.227 -0.2540 -0.0266  0.0612
 6399SOL    HW124327   8.912   4.612   8.165 -0.4474  2.1174 -1.3079
 6399SOL    HW224328   8.891   4.711   8.278 -1.2266  1.1586 -0.5983
 6400SOL     OW24329   1.205   5.281   4.795  0.5390 -0.4710  0.2481
 6400SOL    HW124330   1.192   5.349   4.862  0.7476  0.1139 -0.3038
 6400SOL    HW224331   1.159   5.314   4.718  1.2491 -0.6200 -0.2405
 6401SOL     OW24332   7.472   7.821   5.613  0.0482 -0.2330  0.0523
 6401SOL    HW124333   7.535   7.878   5.569  0.5498 -0.4475  0.4758
 6401SOL    HW224334   7.388   7.866   5.605  0.7906  1.5853  2.1484
 6402SOL     OW24335   4.022   5.827   1.081 -0.1120 -0.3801 -0.0698
 6402SOL    HW124336   4.014   5.919   1.055  0.2580 -0.6033 -1.0002
 6402SOL    HW224337   4.112   5.803   1.058 -0.0468 -0.8370  0.6351
 6403SOL     OW24338   3.225  10.161   1.746 -0.1016  0.4111  0.0797
 6403SOL    HW124339   3.132  10.138   1.749 -0.2458  0.9343 -0.2192
 6403SOL    HW224340   3.258  10.122   1.665 -1.0564  3.7541 -2.0473
 6404SOL     OW24341   2.365   5.530   5.984  0.0227 -0.0145 -0.0929
 6404SOL    HW124342   2.391   5.585   5.910  0.5640 -2.5439 -1.8669
 6404SOL    HW224343   2.270   5.532   5.982 -0.0226 -1.6752 -2.2028
 6405SOL     OW24344  11.071   3.003   9.659 -0.5103 -0.3987 -0.2975
 6405SOL    HW124345  10.987   2.968   9.630  0.0966  0.1228 -2.7322
 6405SOL    HW224346  11.123   3.012   9.580  1.4720  0.3430  1.0367
 6406SOL     OW24347   7.885   8.277   4.765  0.1870 -0.0141 -0.4241
 6406SOL    HW124348   7.793   8.257   4.781  0.1734 -1.2389 -1.8955
 6406SOL    HW224349   7.889   8.299   4.672  1.5926 -1.3088 -0.6929
 6407SOL     OW24350   2.277   0.705   1.844  0.6567  0.0693  0.1855
 6407SOL    HW124351   2.242   0.701   1.755  0.4541  0.6107  0.2384
 6407SOL    HW224352   2.348   0.642   1.845 -0.5658 -1.3292  0.1824
 6408SOL     OW24353   4.502   6.096   0.025  0.1534  0.1913 -0.3575
 6408SOL    HW124354   4.420   6.047   0.039  0.2469 -0.0190 -0.5353
 6408SOL    HW224355   4.474   6.181  -0.008 -0.0100  0.2407 -0.0964
 6409SOL     OW24356   7.021  10.332   6.947 -0.4313 -0.1852 -0.0186
 6409SOL    HW124357   6.954  10.323   7.016 -0.5120  0.2386 -0.0383
 6409SOL    HW224358   6.993  10.410   6.898  0.1481  0.0679  0.0518
 6410SOL     OW24359   5.543   6.055   6.316  0.4607 -0.5324 -0.1987
 6410SOL    HW124360   5.453   6.023   6.319  0.9444 -1.8321  2.1805
 6410SOL    HW224361   5.571   6.057   6.408  1.4694  3.9564 -0.4697
 6411SOL     OW24362   3.714   1.891   1.338  0.0086 -0.0359  0.8627
 6411SOL    HW124363   3.753   1.818   1.387 -0.5250 -0.7355  0.2496
 6411SOL    HW224364   3.683   1.852   1.256  1.7171  1.2784 -0.4608
 6412SOL     OW24365   4.835   4.508  11.141  0.0086 -0.0793 -0.4333
 6412SOL    HW124366   4.769   4.572  11.115  0.0876  1.0585  2.1061
 6412SOL    HW224367   4.786   4.442  11.190  0.1638 -1.2423 -1.8090
 6413SOL     OW24368   1.788  11.142   2.213  0.6811 -0.5260 -0.1617
 6413SOL    HW124369   1.851  11.184   2.271  0.6727 -0.6270 -0.0780
 6413SOL    HW224370   1.834  11.132   2.130  0.5413  0.0330 -0.3086
 6414SOL     OW24371  10.837   8.191   2.805 -0.9643 -0.6167  0.0230
 6414SOL    HW124372  10.763   8.170   2.748  0.4581  2.6764 -3.2247
 6414SOL    HW224373  10.817   8.276   2.842 -1.1570 -2.0427  3.3900
 6415SOL     OW24374   5.676  10.424   9.239  0.0040 -0.4446 -0.1149
 6415SOL    HW124375   5.755  10.375   9.260  0.2272 -0.7122 -1.5511
 6415SOL    HW224376   5.623  10.363   9.187 -0.6111  0.1378 -0.1784
 6416SOL     OW24377   1.540   4.884   3.472  0.2835 -0.0711 -0.1024
 6416SOL    HW124378   1.514   4.962   3.422 -1.0556 -0.5035 -0.0929
 6416SOL    HW224379   1.585   4.919   3.549  0.9055  0.6486 -0.7780
 6417SOL     OW24380   1.160   2.752   0.646 -0.0965 -0.5555  0.5916
 6417SOL    HW124381   1.142   2.846   0.652  0.4623 -0.4397  0.4701
 6417SOL    HW224382   1.199   2.730   0.730  1.0602 -0.3926  0.1099
 6418SOL     OW24383   0.715   1.926  10.711  0.0157  1.0088 -0.2229
 6418SOL    HW124384   0.796   1.898  10.668 -0.6743 -1.7339  0.1938
 6418SOL    HW224385   0.648   1.918  10.643 -0.8354 -1.9829  0.9170
 6419SOL     OW24386   6.720   8.230   4.033 -0.0085 -0.4497 -0.2360
 6419SOL    HW124387   6.778   8.177   3.978 -1.0619 -2.7511  0.8357
 6419SOL    HW224388   6.776   8.263   4.103  0.6029 -0.3022 -0.7929
 6420SOL     OW24389   9.449  10.050   7.457 -0.0976  0.2492 -0.2227
 6420SOL    HW124390   9.468  10.143   7.446 -0.2355  0.3765  0.6380
 6420SOL    HW224391   9.354  10.046   7.469 -0.0384  0.0424  0.1976
 6421SOL     OW24392   0.959   9.130   7.981  0.1102  0.7121  0.2710
 6421SOL    HW124393   0.904   9.132   7.902 -1.1962  1.8169  1.1847
 6421SOL    HW224394   0.909   9.077   8.044  1.0801 -0.0395  0.4162
 6422SOL     OW24395  10.720   0.031   9.518 -0.1949  0.1402  0.4053
 6422SOL    HW124396  10.639  -0.019   9.525 -0.5608  0.7776  0.7442
 6422SOL    HW224397  10.696   0.111   9.471  0.4683 -0.1791 -0.4942
 6423SOL     OW24398   2.679   3.144   2.978 -0.1558 -0.3547  0.3116
 6423SOL    HW124399   2.760   3.133   3.027  0.8295  0.3430 -1.1326
 6423SOL    HW224400   2.634   3.060   2.986  0.2895 -0.4616  1.8529
 6424SOL     OW24401   9.445  10.510   8.639 -0.4493 -0.1677 -0.7852
 6424SOL    HW124402   9.525  10.505   8.691 -0.8969  0.6734 -0.0068
 6424SOL    HW224403   9.395  10.431   8.663  0.6034 -1.2473 -2.0632
 6425SOL     OW24404   4.440   8.957   5.483 -0.2855  0.1319 -0.1939
 6425SOL    HW124405   4.522   8.943   5.529  0.4582 -0.4009 -1.6420
 6425SOL    HW224406   4.405   9.038   5.521  1.3235  0.8270 -0.1272
 6426SOL     OW24407   8.834  11.058   0.068  0.1525  0.1323  0.1760
 6426SOL    HW124408   8.769  10.996   0.103 -0.9548  0.5995 -1.0173
 6426SOL    HW224409   8.786  11.108   0.002  1.4053  1.3513  0.1738
 6427SOL     OW24410  10.309   8.188   6.150  0.0399  0.1033  0.4947
 6427SOL    HW124411  10.217   8.171   6.170  0.2164 -0.7107  0.6017
 6427SOL    HW224412  10.327   8.137   6.071  0.0112  1.3960 -0.3688
 6428SOL     OW24413   2.421   3.422  11.244 -0.7811  0.3754 -0.1158
 6428SOL    HW124414   2.384   3.335  11.230 -1.2956  0.4630  0.6742
 6428SOL    HW224415   2.362   3.463  11.307 -1.1735  1.7146 -1.3397
 6429SOL     OW24416   9.780   0.471   6.698 -0.2107 -0.2614 -0.0507
 6429SOL    HW124417   9.818   0.494   6.782 -0.2498 -0.6717  0.0788
 6429SOL    HW224418   9.838   0.512   6.633  1.3657 -2.1803  0.0844
 6430SOL     OW24419   4.454   7.049   7.475  0.0236 -0.2789 -0.4115
 6430SOL    HW124420   4.439   7.079   7.385 -0.3533  0.9980  0.0649
 6430SOL    HW224421   4.529   7.100   7.505 -0.7294  0.3344  0.4709
 6431SOL     OW24422   1.363  10.215   0.147  0.3024 -0.9407 -0.0818
 6431SOL    HW124423   1.438  10.202   0.089  1.4870  2.6491  0.5090
 6431SOL    HW224424   1.376  10.151   0.216  1.9801 -1.4657 -0.8380
 6432SOL     OW24425   3.886   7.328   4.324 -0.1811 -0.1940 -0.3234
 6432SOL    HW124426   3.943   7.404   4.311 -2.1396  1.4294  0.1445
 6432SOL    HW224427   3.927   7.278   4.394  0.5573  1.0702  0.1607
 6433SOL     OW24428   9.930   2.718   9.445 -0.1066 -0.4538  0.5319
 6433SOL    HW124429   9.840   2.745   9.465 -0.3333 -1.1283  0.4446
 6433SOL    HW224430   9.920   2.632   9.404  0.5265 -0.1440 -0.2701
 6434SOL     OW24431  10.995   5.210   3.641 -0.0496  0.1353 -0.3005
 6434SOL    HW124432  11.014   5.222   3.548 -3.4930 -0.0119 -1.0990
 6434SOL    HW224433  11.010   5.117   3.657  0.7796  0.2081 -0.6568
 6435SOL     OW24434   8.906   8.545  10.685  0.2572 -0.2964  0.1314
 6435SOL    HW124435   8.811   8.561  10.685  0.7542  2.9908  1.3212
 6435SOL    HW224436   8.916   8.462  10.638 -3.2339 -0.9055  0.3150
 6436SOL     OW24437   4.065   6.408   0.426  0.0134 -0.0758 -0.3237
 6436SOL    HW124438   3.988   6.465   0.434  1.2226  1.3452  1.3928
 6436SOL    HW224439   4.129   6.462   0.378  0.6270 -0.5328 -0.0192
 6437SOL     OW24440   8.793   9.449   1.143  0.7545 -0.1885 -0.1067
 6437SOL    HW124441   8.725   9.469   1.207  0.8720 -0.9457  0.2559
 6437SOL    HW224442   8.745   9.420   1.065  0.6303  0.2664 -0.1999
 6438SOL     OW24443  10.812   7.694   4.467 -0.4551  0.0302  0.5351
 6438SOL    HW124444  10.879   7.665   4.529 -0.0927  0.9533  0.5877
 6438SOL    HW224445  10.816   7.790   4.471  0.9239  0.1552 -2.3260
 6439SOL     OW24446   8.134   8.238   7.475 -0.5678  0.1526 -0.2521
 6439SOL    HW124447   8.180   8.320   7.458  0.4751 -0.4579 -0.4138
 6439SOL    HW224448   8.055   8.244   7.421 -0.9199  1.4007  0.3728
 6440SOL     OW24449   5.622   9.656  10.985  0.1338 -0.3805  0.4174
 6440SOL    HW124450   5.540   9.612  10.961 -0.4232  1.1582 -0.5524
 6440SOL    HW224451   5.667   9.594  11.042  0.1764 -2.9702 -2.3212
 6441SOL     OW24452   8.942   3.461   3.333  0.2364 -0.2230 -0.2962
 6441SOL    HW124453   9.010   3.413   3.285  0.0226  1.3921 -2.2955
 6441SOL    HW224454   8.955   3.552   3.308 -1.6198  0.3224  0.6247
 6442SOL     OW24455   2.668   7.322   3.943 -0.3285 -0.3425 -0.3327
 6442SOL    HW124456   2.669   7.365   3.857 -0.8144  0.3527 -0.0075
 6442SOL    HW224457   2.755   7.284   3.952  0.0040  0.2909 -0.7819
 6443SOL     OW24458   9.264   9.750   8.413 -0.2543 -0.1684  0.1110
 6443SOL    HW124459   9.235   9.760   8.503 -0.5586  0.9017 -0.1033
 6443SOL    HW224460   9.318   9.827   8.396 -0.4477 -0.2114 -0.7143
 6444SOL     OW24461   5.187   1.191   5.459 -0.0932 -0.0541  0.5679
 6444SOL    HW124462   5.106   1.146   5.436 -0.3675  0.1929  1.0429
 6444SOL    HW224463   5.197   1.177   5.553 -0.6702  1.6370  0.8985
 6445SOL     OW24464   5.448   7.097  11.269 -0.3398  0.1168 -0.4960
 6445SOL    HW124465   5.383   7.097  11.199 -1.3765 -2.1653  0.3930
 6445SOL    HW224466   5.400   7.063  11.345  1.9351 -1.7996  0.1224
 6446SOL     OW24467   2.750   4.705   7.112 -0.0906 -0.0790  0.4802
 6446SOL    HW124468   2.824   4.645   7.117 -0.8176 -1.0940 -0.7817
 6446SOL    HW224469   2.745   4.744   7.200  1.2728 -0.7737  0.8825
 6447SOL     OW24470   4.089   5.226   2.142 -0.1119  0.3608 -0.4661
 6447SOL    HW124471   4.120   5.170   2.071  1.7274 -1.2051  1.5281
 6447SOL    HW224472   4.049   5.166   2.205 -0.5956  1.6032  0.4408
 6448SOL     OW24473   2.808   9.404   8.894  0.1141  0.3140 -0.3652
 6448SOL    HW124474   2.837   9.416   8.803  0.8170 -1.8109 -0.4633
 6448SOL    HW224475   2.862   9.465   8.944  0.6992  0.5117 -1.2178
 6449SOL     OW24476   6.164  10.063   1.178  0.2147 -0.9531  0.2692
 6449SOL    HW124477   6.099  10.131   1.193 -1.8846 -2.9226  0.4416
 6449SOL    HW224478   6.180  10.026   1.265  1.2633 -0.7681  0.1652
 6450SOL     OW24479   8.380   7.688   8.580 -0.2486 -0.5460  0.1602
 6450SOL    HW124480   8.347   7.680   8.670 -0.9528 -0.7122 -0.1038
 6450SOL    HW224481   8.404   7.780   8.571 -0.6201 -0.4272  0.3698
 6451SOL     OW24482   3.306  11.111   6.986 -0.3750 -0.5056 -0.1377
 6451SOL    HW124483   3.218  11.104   7.023 -0.1864  0.2421  0.4774
 6451SOL    HW224484   3.314  11.035   6.928 -0.7689 -1.5763  1.1696
 6452SOL     OW24485   7.706   0.760   5.305  0.4576 -0.2936 -0.0886
 6452SOL    HW124486   7.678   0.846   5.337  1.0179 -0.3663  0.5997
 6452SOL    HW224487   7.695   0.701   5.379  2.6565 -0.2735  0.3014
 6453SOL     OW24488   1.855   8.393   5.680  0.1285 -0.1542 -0.7363
 6453SOL    HW124489   1.828   8.430   5.764  0.4710 -1.3041 -0.1060
 6453SOL    HW224490   1.774   8.373   5.634 -0.0581  0.4308 -0.6609
 6454SOL     OW24491   7.059   7.993   9.349  0.1158 -0.0056 -0.0115
 6454SOL    HW124492   7.108   7.965   9.271 -0.7058 -0.6749 -0.2882
 6454SOL    HW224493   6.999   7.921   9.367 -1.4548  1.2148 -0.2457
 6455SOL     OW24494   5.040   1.063   0.235 -0.0425 -0.0533  0.1838
 6455SOL    HW124495   5.015   1.003   0.165 -1.9077  0.0786  0.6979
 6455SOL    HW224496   5.095   1.011   0.293 -0.1290 -0.7334 -0.3397
 6456SOL     OW24497   4.090   7.435  10.281 -0.3285 -0.3370 -0.4335
 6456SOL    HW124498   4.030   7.363  10.298 -1.0822  0.1113 -1.1566
 6456SOL    HW224499   4.104   7.433  10.186 -1.2027  1.1063 -0.6114
 6457SOL     OW24500   1.692   7.069   4.203  0.2361 -0.2346 -0.5095
 6457SOL    HW124501   1.681   7.163   4.211  2.1319 -0.0168 -0.0753
 6457SOL    HW224502   1.606   7.032   4.224 -0.4086  1.3648 -0.2840
 6458SOL     OW24503   7.524  10.151   8.439  0.1168 -0.2936 -0.0862
 6458SOL    HW124504   7.440  10.165   8.395 -0.7553 -1.1672  1.2494
 6458SOL    HW224505   7.536  10.230   8.492  0.3216  0.0044 -0.5770
 6459SOL     OW24506  10.484   1.845   1.162  0.1778  0.2749  0.0076
 6459SOL    HW124507  10.560   1.903   1.163  0.0443  0.4572 -0.3385
 6459SOL    HW224508  10.409   1.904   1.164  0.0455  0.0869  0.6246
 6460SOL     OW24509   6.560   3.333   2.317  0.2279  0.0549 -0.2889
 6460SOL    HW124510   6.568   3.302   2.227  0.8142  0.7749 -0.4917
 6460SOL    HW224511   6.477   3.297   2.348 -0.6010  0.8439 -1.5469
 6461SOL     OW24512   3.971   1.732   2.276  0.9001 -0.4257  0.6879
 6461SOL    HW124513   3.994   1.773   2.192 -2.0244 -0.9501 -0.4406
 6461SOL    HW224514   4.054   1.699   2.310  2.0001 -1.2369 -2.5843
 6462SOL     OW24515   7.929   8.735   4.907  0.6656  0.2069 -0.3817
 6462SOL    HW124516   7.956   8.757   4.996  0.9783 -0.0866 -0.4013
 6462SOL    HW224517   7.844   8.777   4.896  1.2891  1.4587 -0.4471
 6463SOL     OW24518  10.498   4.271   9.148  0.6144  0.1865 -0.3419
 6463SOL    HW124519  10.493   4.229   9.063  0.0949  1.8810 -1.1735
 6463SOL    HW224520  10.419   4.244   9.194 -0.3041  1.1683 -1.3176
 6464SOL     OW24521   3.290   6.054   1.560 -0.0980 -0.5681 -0.3895
 6464SOL    HW124522   3.201   6.066   1.529 -1.0167  0.7054  2.5597
 6464SOL    HW224523   3.341   6.120   1.512 -1.0274 -0.2627 -0.9612
 6465SOL     OW24524   9.715   0.876   8.552  0.6956 -0.2702 -0.3177
 6465SOL    HW124525   9.720   0.802   8.490  3.2825 -0.0006 -0.4870
 6465SOL    HW224526   9.748   0.951   8.502  1.0368  0.3368  0.8129
 6466SOL     OW24527   5.202   8.834   1.463 -0.4320 -0.3194 -0.7682
 6466SOL    HW124528   5.109   8.809   1.468 -0.2296 -1.2133 -1.3956
 6466SOL    HW224529   5.244   8.761   1.418  0.7176 -0.2737  0.2085
 6467SOL     OW24530   3.030   4.884   2.392 -0.2781 -0.1164  0.3500
 6467SOL    HW124531   2.967   4.853   2.458  1.1757 -0.3490  1.6444
 6467SOL    HW224532   3.069   4.804   2.357 -0.3959  0.0483 -0.1676
 6468SOL     OW24533   5.406   2.461   9.511 -0.0840 -0.5133 -0.5069
 6468SOL    HW124534   5.324   2.412   9.506  0.0298 -0.9223  1.3739
 6468SOL    HW224535   5.463   2.408   9.567  0.8518  0.6170 -0.3552
 6469SOL     OW24536   8.004   2.979   5.162 -0.1024 -0.1820  0.1390
 6469SOL    HW124537   7.958   2.899   5.187  0.0914  0.2147  1.8327
 6469SOL    HW224538   7.969   3.001   5.075 -1.9216 -0.7823  0.6996
 6470SOL     OW24539   0.574   5.859   2.570  0.1564  0.0622 -0.0026
 6470SOL    HW124540   0.615   5.806   2.501  0.7450  0.7863 -0.2182
 6470SOL    HW224541   0.596   5.949   2.547  1.4451  0.2452  1.8511
 6471SOL     OW24542   8.418   3.110   6.095 -0.0737  0.1937  0.3313
 6471SOL    HW124543   8.418   3.091   6.189 -0.0725 -0.2900  0.2338
 6471SOL    HW224544   8.446   3.029   6.054  0.3185  0.5266 -0.0673
 6472SOL     OW24545   9.890  10.218   6.057  0.3583  0.4017 -0.1504
 6472SOL    HW124546   9.950  10.266   6.000 -0.6026 -0.0202 -1.5426
 6472SOL    HW224547   9.807  10.265   6.050  0.7336  1.5553  2.5159
 6473SOL     OW24548   5.188   2.838   9.614 -1.0059  0.2290  0.1353
 6473SOL    HW124549   5.108   2.802   9.575 -0.9200  2.4334 -2.2057
 6473SOL    HW224550   5.255   2.825   9.547  0.1257  0.3195  1.2450
 6474SOL     OW24551   8.193   4.555   8.766  0.2053  0.2755 -0.6375
 6474SOL    HW124552   8.194   4.531   8.673 -1.6821 -0.9652 -0.3572
 6474SOL    HW224553   8.115   4.609   8.777 -0.3771 -0.7757  0.5009
 6475SOL     OW24554   1.897   8.328  10.869  0.2926  0.0167  0.4074
 6475SOL    HW124555   1.913   8.356  10.779 -1.7607 -2.3559 -0.7839
 6475SOL    HW224556   1.932   8.239  10.873 -1.5439 -0.6955  1.2895
 6476SOL     OW24557   3.487   2.253   1.351 -0.3905  0.2826  0.7305
 6476SOL    HW124558   3.463   2.163   1.374  1.0506 -0.4951 -0.7826
 6476SOL    HW224559   3.580   2.250   1.331 -0.3134  2.1243  0.6609
 6477SOL     OW24560   2.505   4.517  10.852  0.0300  0.8608  0.2299
 6477SOL    HW124561   2.598   4.498  10.841 -0.0985  0.1506  0.3322
 6477SOL    HW224562   2.499   4.560  10.937  0.0019 -1.0820  1.2384
 6478SOL     OW24563   1.010   8.478  11.287 -0.5759  0.1990  0.1676
 6478SOL    HW124564   1.089   8.516  11.326 -1.2516  0.6163  1.1667
 6478SOL    HW224565   1.020   8.493  11.193  0.0953  1.0993  0.3741
 6479SOL     OW24566   4.023   1.601  10.230 -0.2203 -0.2620 -0.4892
 6479SOL    HW124567   4.051   1.512  10.207 -0.4503 -0.2053 -0.9980
 6479SOL    HW224568   3.980   1.634  10.150  1.5303  1.0014 -0.9250
 6480SOL     OW24569   0.384   8.517   1.056  0.1842  0.2270 -0.3481
 6480SOL    HW124570   0.325   8.535   0.983  0.6809 -1.9702 -1.3434
 6480SOL    HW224571   0.459   8.474   1.016  0.1693 -1.6453  1.5218
 6481SOL     OW24572   7.137   9.842   2.500  0.4128  0.1446 -0.3837
 6481SOL    HW124573   7.086   9.892   2.563 -1.0840 -0.2671 -1.2317
 6481SOL    HW224574   7.101   9.753   2.505  0.2348  0.1164 -1.8326
 6482SOL     OW24575   0.185   4.621   7.593 -0.1979 -0.1373  0.1042
 6482SOL    HW124576   0.125   4.559   7.552  0.4765 -1.2022  0.7083
 6482SOL    HW224577   0.269   4.604   7.551  0.7655 -2.0144  2.6295
 6483SOL     OW24578   4.909   2.940   3.565  0.2095  0.3684 -0.0183
 6483SOL    HW124579   4.849   2.949   3.491  1.0849  0.4433 -0.7182
 6483SOL    HW224580   4.856   2.963   3.642 -0.9577 -0.6399 -0.5172
 6484SOL     OW24581  10.734   8.397   5.167 -0.1696 -0.2112  0.4193
 6484SOL    HW124582  10.756   8.373   5.256  0.3207  0.0061  0.3549
 6484SOL    HW224583  10.670   8.468   5.176  2.3019  2.0630  0.6016
 6485SOL     OW24584   9.069  10.187   9.499 -0.5781 -0.6834 -0.1603
 6485SOL    HW124585   9.117  10.268   9.479  0.7777 -1.3294  0.3916
 6485SOL    HW224586   8.980  10.204   9.468  0.2247  0.1999 -2.0942
 6486SOL     OW24587   1.036   7.688  10.802  0.0461 -0.9101  0.0292
 6486SOL    HW124588   1.003   7.741  10.729 -1.8346 -1.4956  0.4301
 6486SOL    HW224589   1.114   7.735  10.832  1.0195 -0.8147 -2.5300
 6487SOL     OW24590   2.262   9.943   9.620  0.5678 -0.1531 -0.2889
 6487SOL    HW124591   2.314   9.993   9.684  1.5080 -0.7784 -0.5587
 6487SOL    HW224592   2.202  10.007   9.583 -0.2015  0.1637  1.4453
 6488SOL     OW24593   1.582   6.811   4.784  0.1415 -0.4868  0.0110
 6488SOL    HW124594   1.513   6.771   4.731  0.6493  0.8494 -1.7156
 6488SOL    HW224595   1.621   6.877   4.727  0.8406  0.8847  1.9988
 6489SOL     OW24596   0.017   0.530   2.096 -0.4133  0.8187  0.2153
 6489SOL    HW124597   0.087   0.469   2.070 -1.5647 -1.2963  1.9284
 6489SOL    HW224598  -0.008   0.574   2.015  1.8600  0.5150 -0.6923
 6490SOL     OW24599   0.939   5.462   6.484 -0.7145 -0.0052  0.3371
 6490SOL    HW124600   0.990   5.386   6.514 -0.5450  0.1201  0.3704
 6490SOL    HW224601   0.958   5.530   6.548 -0.0484  0.3792 -0.2599
 6491SOL     OW24602   1.269  10.761  10.600 -0.2260  0.5500 -0.7681
 6491SOL    HW124603   1.214  10.803  10.534 -0.4072  0.3269 -0.7589
 6491SOL    HW224604   1.252  10.668  10.590  0.1825  0.4753 -0.7935
 6492SOL     OW24605   8.234   4.548   7.950  0.0269 -0.0624  0.2061
 6492SOL    HW124606   8.198   4.467   7.986 -3.4236  1.6402  0.7559
 6492SOL    HW224607   8.205   4.616   8.011  1.3357  1.8247 -1.2239
 6493SOL     OW24608   1.259  10.452   8.245  0.0767  0.5296 -0.6804
 6493SOL    HW124609   1.214  10.497   8.317  0.9042  2.2066 -1.1781
 6493SOL    HW224610   1.279  10.522   8.182  1.1494 -0.5912 -1.6142
 6494SOL     OW24611   7.855   4.609   9.409 -0.2687  0.8023  0.0276
 6494SOL    HW124612   7.778   4.664   9.391 -0.5370  0.9481  1.5441
 6494SOL    HW224613   7.843   4.580   9.500  0.2558 -1.1520 -0.5030
 6495SOL     OW24614   6.328   3.825   2.243 -0.1229 -0.0058  0.2683
 6495SOL    HW124615   6.261   3.767   2.277  1.9145 -2.4630  0.2522
 6495SOL    HW224616   6.367   3.865   2.321  0.8385 -1.4007  0.5184
 6496SOL     OW24617   7.014  10.950   9.584  0.2731  0.3283  0.5975
 6496SOL    HW124618   6.951  10.952   9.655  0.2045  0.6828  0.5262
 6496SOL    HW224619   7.032  10.857   9.571 -1.1441  0.1466 -0.1945
 6497SOL     OW24620   8.980   4.096   6.223  0.7128 -0.7680  0.0918
 6497SOL    HW124621   8.950   4.135   6.305  0.7106 -0.8911  0.1487
 6497SOL    HW224622   8.913   4.032   6.200 -0.8052  1.3079 -1.5311
 6498SOL     OW24623  10.917  10.967   8.938  0.0572 -0.0306 -1.0585
 6498SOL    HW124624  11.013  10.972   8.935  0.0546  0.6797 -0.1357
 6498SOL    HW224625  10.891  10.968   8.846  0.8776  0.9881 -1.2902
 6499SOL     OW24626   2.095   7.063   9.383  0.1698  0.0144  0.3982
 6499SOL    HW124627   2.029   7.087   9.318 -1.0158 -0.9997  1.2037
 6499SOL    HW224628   2.174   7.110   9.356 -0.4918  0.1328 -1.3808
 6500SOL     OW24629   1.233   8.726   9.530  0.1017  0.4614  0.1171
 6500SOL    HW124630   1.139   8.742   9.523 -0.0289  0.1543  1.1700
 6500SOL    HW224631   1.273   8.794   9.476 -0.7731 -0.1131 -1.2749
 6501SOL     OW24632   8.848   4.853   9.268  0.2420  0.5305  0.5970
 6501SOL    HW124633   8.943   4.840   9.260  0.5913  3.1936 -0.1133
 6501SOL    HW224634   8.834   4.872   9.361  0.5873  1.4700  0.4572
 6502SOL     OW24635  10.077   1.262   2.855  0.7125 -0.3595 -0.2799
 6502SOL    HW124636  10.120   1.325   2.913  1.1979 -0.9351 -0.0013
 6502SOL    HW224637  10.126   1.269   2.773 -1.0574  1.6881 -1.1973
 6503SOL     OW24638   2.775   0.089   6.623  0.3181 -0.1086  0.8075
 6503SOL    HW124639   2.865   0.058   6.635  0.5016 -0.7748 -1.9807
 6503SOL    HW224640   2.731   0.018   6.577 -0.1983  2.2497 -2.5420
 6504SOL     OW24641  11.093  10.149   6.395 -0.3411  0.8180  0.1969
 6504SOL    HW124642  11.069  10.219   6.335 -1.5704 -1.1120 -1.6314
 6504SOL    HW224643  11.015  10.093   6.399  1.5264 -1.9090 -0.5273
 6505SOL     OW24644   9.819  10.504   1.550  0.1770  0.5185 -0.0250
 6505SOL    HW124645   9.757  10.436   1.527  1.4244 -0.3238 -0.9238
 6505SOL    HW224646   9.902  10.477   1.511  1.0814  1.7230  0.9773
 6506SOL     OW24647   9.851   8.436   6.325  0.2191  0.0899 -0.0628
 6506SOL    HW124648   9.920   8.446   6.390  1.3441 -1.2721 -1.0090
 6506SOL    HW224649   9.863   8.510   6.265 -0.3606  0.9313  0.8541
 6507SOL     OW24650   6.943   5.385  11.012  0.3460 -0.8232  0.1160
 6507SOL    HW124651   7.026   5.345  11.038  0.6459 -0.2524  0.0499
 6507SOL    HW224652   6.882   5.364  11.083  0.3182 -1.9611 -0.2313
 6508SOL     OW24653   0.032   5.489   9.648  0.3510  0.2588 -0.0917
 6508SOL    HW124654   0.100   5.470   9.584 -1.9243 -3.0227 -1.7011
 6508SOL    HW224655   0.021   5.407   9.696 -1.6762  1.0560  0.8677
 6509SOL     OW24656   6.229  10.036   4.164 -0.2437 -0.0019 -0.1683
 6509SOL    HW124657   6.234   9.941   4.154 -1.1924 -0.2380  1.4581
 6509SOL    HW224658   6.208  10.050   4.257  0.8009  1.8204 -0.1774
 6510SOL     OW24659   9.733   7.885   5.914 -0.0897  0.6267 -0.5935
 6510SOL    HW124660   9.829   7.882   5.909 -0.0668  0.6143 -0.1911
 6510SOL    HW224661   9.713   7.976   5.934 -0.2141  0.8366 -1.6462
 6511SOL     OW24662   7.272   0.732   8.330 -0.3565 -0.1934  0.0361
 6511SOL    HW124663   7.217   0.808   8.314 -0.7787 -0.7692 -1.3438
 6511SOL    HW224664   7.233   0.662   8.277  1.6054 -0.6332 -0.8989
 6512SOL     OW24665   9.006   7.906   1.611  0.2370 -0.6420 -0.1850
 6512SOL    HW124666   9.009   7.850   1.689 -0.4536  0.7895  0.8804
 6512SOL    HW224667   9.084   7.962   1.618 -0.0868 -0.1768 -0.2643
 6513SOL     OW24668   1.238   6.323  10.588 -0.3984  0.0085 -0.1680
 6513SOL    HW124669   1.267   6.277  10.667  0.8513  0.4997 -0.3253
 6513SOL    HW224670   1.272   6.412  10.599 -2.1902  0.7052 -0.1864
 6514SOL     OW24671   6.364   1.633  10.033 -0.9883 -0.1375  0.1646
 6514SOL    HW124672   6.385   1.550   9.991 -1.2190 -0.3096  0.3922
 6514SOL    HW224673   6.438   1.650  10.091 -0.3814  0.3980 -0.7562
 6515SOL     OW24674   0.667   6.529   9.451  0.0927 -0.1950 -0.2467
 6515SOL    HW124675   0.665   6.482   9.367 -3.1543 -3.0006  1.2953
 6515SOL    HW224676   0.584   6.578   9.452  0.7286  0.8614  0.7771
 6516SOL     OW24677   4.442   0.108   7.910 -0.1191 -0.2323  0.0929
 6516SOL    HW124678   4.388   0.141   7.982 -1.1943 -1.4674 -0.1330
 6516SOL    HW224679   4.383   0.105   7.835  1.0090  1.1159 -0.8823
 6517SOL     OW24680   4.061   8.464   9.107 -0.0671  0.2545  0.1459
 6517SOL    HW124681   4.125   8.534   9.117  0.2528  0.0715 -0.5777
 6517SOL    HW224682   4.110   8.390   9.071 -0.7098  0.1742 -0.5946
 6518SOL     OW24683   7.379  10.010  11.204 -0.1610 -0.2700 -0.2866
 6518SOL    HW124684   7.335   9.959  11.136 -1.4514  0.7023 -0.1996
 6518SOL    HW224685   7.473   9.998  11.186 -0.4748 -0.8260 -1.6366
 6519SOL     OW24686   7.688   2.963   4.454  0.4518  0.6428 -0.6650
 6519SOL    HW124687   7.593   2.966   4.470  0.0911 -1.0590 -2.3375
 6519SOL    HW224688   7.725   2.936   4.538 -0.7852 -1.0896 -0.6414
 6520SOL     OW24689   8.363   8.484   9.097 -0.3266 -0.4587 -0.0738
 6520SOL    HW124690   8.418   8.462   9.172  1.0991  1.4744 -0.5163
 6520SOL    HW224691   8.273   8.475   9.130  0.2727 -0.3082  1.6564
 6521SOL     OW24692   5.252   4.039   8.324 -0.1624 -0.5151 -0.2316
 6521SOL    HW124693   5.221   3.972   8.385  1.9381 -0.3050  1.0989
 6521SOL    HW224694   5.317   3.994   8.270 -0.5155 -0.1693 -0.9405
 6522SOL     OW24695  11.267  10.943   7.382  0.1314  0.3224  0.5565
 6522SOL    HW124696  11.317  10.880   7.329 -0.7823  0.0789 -0.0179
 6522SOL    HW224697  11.211  10.988   7.319 -1.4588 -0.4423  1.4062
 6523SOL     OW24698   1.747   8.669  10.321  0.1140  0.0171 -0.1789
 6523SOL    HW124699   1.724   8.596  10.264  0.7615 -1.0413  0.8825
 6523SOL    HW224700   1.843   8.667  10.324  0.2243  2.0047 -1.5271
 6524SOL     OW24701   8.957   0.013  10.980 -0.5384  0.3164  0.1215
 6524SOL    HW124702   8.908   0.079  11.030 -0.1630 -1.0568  2.3600
 6524SOL    HW224703   8.896  -0.015  10.912 -1.4689  1.4175  0.4817
 6525SOL     OW24704   2.993   0.352   2.913  0.4180  0.1487  0.3257
 6525SOL    HW124705   3.000   0.415   2.984  0.9656 -1.4578  1.7316
 6525SOL    HW224706   3.071   0.298   2.921 -0.5367 -1.3515 -0.2024
 6526SOL     OW24707  11.162   8.501   0.847  0.0850 -0.1557  0.5719
 6526SOL    HW124708  11.081   8.482   0.895  1.3668 -0.1668  2.7909
 6526SOL    HW224709  11.188   8.417   0.809 -2.2184  0.3312 -2.2627
 6527SOL     OW24710   0.605   8.615   2.352 -0.2642  0.0356  0.2143
 6527SOL    HW124711   0.671   8.674   2.389  1.7701 -1.2055 -1.3616
 6527SOL    HW224712   0.625   8.530   2.390  0.5960 -0.8433 -2.1353
 6528SOL     OW24713   2.042   8.141   1.580 -0.7827  0.1724 -0.0371
 6528SOL    HW124714   1.993   8.216   1.549  0.4888  1.9123  2.0380
 6528SOL    HW224715   2.124   8.143   1.531 -0.0055  1.2047  1.2762
 6529SOL     OW24716  10.842   9.306   1.544  0.2105 -0.1091 -0.0604
 6529SOL    HW124717  10.870   9.260   1.465 -1.5282 -3.2792  1.0957
 6529SOL    HW224718  10.902   9.275   1.612 -0.2160  0.2741  0.4957
 6530SOL     OW24719   3.797   3.938   4.867  0.0078  0.0203  0.1985
 6530SOL    HW124720   3.868   3.995   4.896 -0.5491  0.4276  0.7888
 6530SOL    HW224721   3.718   3.991   4.876 -0.3383 -0.3301 -0.7327
 6531SOL     OW24722   3.017   6.345   1.428  0.1880 -0.6907  0.0012
 6531SOL    HW124723   3.008   6.285   1.502 -0.4016 -0.5031  0.0876
 6531SOL    HW224724   3.110   6.341   1.404  0.3277 -0.9429  0.5881
 6532SOL     OW24725  11.041   0.820   0.023  0.0889  0.0386  0.3446
 6532SOL    HW124726  11.068   0.912   0.018  0.2867 -0.0262  0.2297
 6532SOL    HW224727  11.122   0.771   0.032  0.1376 -0.2746 -1.6309
 6533SOL     OW24728   4.707   1.160   5.076  0.2983 -0.4390  0.0773
 6533SOL    HW124729   4.733   1.069   5.058  0.8587 -0.7971  2.5554
 6533SOL    HW224730   4.640   1.153   5.143 -1.1802  0.8907 -1.2420
 6534SOL     OW24731   8.317   5.290   5.553  0.1706  0.5353  0.2965
 6534SOL    HW124732   8.301   5.199   5.580  3.0088 -0.1298 -0.0417
 6534SOL    HW224733   8.337   5.336   5.634 -1.0018  0.8030  0.4371
 6535SOL     OW24734   8.929   1.944   9.014 -0.6659 -0.0005  0.1141
 6535SOL    HW124735   8.943   2.030   8.974  0.1533 -0.7004 -1.1621
 6535SOL    HW224736   8.921   1.961   9.108  0.0965  1.4008 -0.0687
 6536SOL     OW24737   3.273   0.104  11.287  0.4960 -0.2585 -0.0573
 6536SOL    HW124738   3.315   0.153  11.358  1.0813 -2.5611  1.2436
 6536SOL    HW224739   3.255   0.018  11.325  1.8188 -1.9327 -3.0292
 6537SOL     OW24740   1.609   1.365   4.359 -0.4108 -0.3736  0.5522
 6537SOL    HW124741   1.533   1.311   4.335 -2.6931  3.3094 -0.8862
 6537SOL    HW224742   1.670   1.354   4.286 -0.9064 -0.8896  0.2073
 6538SOL     OW24743   4.282   0.368   3.648  0.5847 -1.3234 -0.3323
 6538SOL    HW124744   4.213   0.326   3.596 -0.8868 -1.4031  1.6010
 6538SOL    HW224745   4.325   0.428   3.588 -0.0595 -2.5048 -2.0285
 6539SOL     OW24746   7.639   3.745  10.331 -0.3629  0.1094 -0.1386
 6539SOL    HW124747   7.670   3.835  10.320  1.8540 -0.4377  1.3423
 6539SOL    HW224748   7.553   3.754  10.373 -1.2494  1.5770 -2.1810
 6540SOL     OW24749   6.747   2.058   4.596 -0.0570 -0.3126 -0.1525
 6540SOL    HW124750   6.788   2.031   4.514  1.7426  0.8194  0.3609
 6540SOL    HW224751   6.772   1.989   4.658  0.9522  0.2805  0.1146
 6541SOL     OW24752   2.857   3.909   9.762 -0.3818  0.5143 -0.1340
 6541SOL    HW124753   2.822   3.838   9.707 -0.2025  0.1576  0.2130
 6541SOL    HW224754   2.856   3.986   9.704  1.5102 -0.2511 -1.2151
 6542SOL     OW24755   5.567   7.319   6.511  0.1736  0.0819 -0.4153
 6542SOL    HW124756   5.590   7.317   6.604  0.6841  0.1427 -0.5403
 6542SOL    HW224757   5.560   7.226   6.487 -0.2122  0.0674 -0.2578
 6543SOL     OW24758   7.303  11.163   2.891 -0.1138  0.1885 -0.4851
 6543SOL    HW124759   7.323  11.092   2.830  0.3098 -1.0005  1.0027
 6543SOL    HW224760   7.209  11.154   2.907  0.2436 -1.0600  0.9525
 6544SOL     OW24761  10.342   2.320   0.552 -0.8170  0.1760 -0.2359
 6544SOL    HW124762  10.351   2.238   0.600  0.5030  0.5121  0.1349
 6544SOL    HW224763  10.257   2.315   0.510 -2.4627  0.2656  2.9012
 6545SOL     OW24764   0.520   9.602   2.258 -0.5211  0.2204  0.2273
 6545SOL    HW124765   0.514   9.696   2.243  1.8835  0.6666  1.8177
 6545SOL    HW224766   0.525   9.593   2.353  2.2225 -1.2737 -0.0102
 6546SOL     OW24767   9.552   5.598   8.843 -0.3582 -0.1858 -0.1340
 6546SOL    HW124768   9.613   5.655   8.797  0.2325  0.0113  0.8831
 6546SOL    HW224769   9.487   5.657   8.880  0.4065 -0.1366  1.1540
 6547SOL     OW24770   1.691   2.088   3.319  0.1269 -0.5297 -0.0201
 6547SOL    HW124771   1.681   2.173   3.277  0.5810 -1.2641 -1.6324
 6547SOL    HW224772   1.749   2.105   3.393 -0.4369  0.7105  0.1517
 6548SOL     OW24773   0.194  11.063   3.367 -0.4072 -0.4544  0.2365
 6548SOL    HW124774   0.140  10.984   3.373 -1.1581 -0.1213 -1.5787
 6548SOL    HW224775   0.250  11.048   3.291 -0.9388  0.9615 -0.4605
 6549SOL     OW24776   9.747   6.990  11.088  0.5897  0.8350 -0.6396
 6549SOL    HW124777   9.787   7.068  11.049  0.1569  0.3536 -2.0793
 6549SOL    HW224778   9.653   7.005  11.080  0.4803  1.0714  0.9439
 6550SOL     OW24779   2.124   6.770   5.347  0.2278  0.2036  0.1745
 6550SOL    HW124780   2.094   6.860   5.361 -0.8290 -0.4430  2.2800
 6550SOL    HW224781   2.193   6.758   5.412  0.3639 -0.5057 -0.0966
 6551SOL     OW24782   0.444   6.064  10.093 -0.2033  0.5401  0.2596
 6551SOL    HW124783   0.422   6.074  10.000 -0.5928  0.8303  0.3817
 6551SOL    HW224784   0.457   5.970  10.105 -0.6417  0.4478  0.0184
 6552SOL     OW24785   3.038   1.924   2.239  0.0998 -0.1170  0.2152
 6552SOL    HW124786   3.001   1.990   2.180 -0.1107 -2.1085 -1.9545
 6552SOL    HW224787   2.963   1.894   2.290 -0.3655 -0.6288 -0.7446
 6553SOL     OW24788   8.275  10.995   5.987  0.3703 -0.1926  0.0407
 6553SOL    HW124789   8.308  10.916   5.945 -1.2469 -0.7219 -0.2623
 6553SOL    HW224790   8.187  10.972   6.016  0.0224  1.3804  0.2787
 6554SOL     OW24791  10.879  10.980  10.376 -0.3069 -0.0154  0.0685
 6554SOL    HW124792  10.836  10.967  10.292 -1.7566 -0.9149  0.9200
 6554SOL    HW224793  10.882  10.892  10.415  1.5504  0.1746  0.3901
 6555SOL     OW24794  11.296   1.118   9.978  0.6197 -0.4898 -0.5432
 6555SOL    HW124795  11.249   1.129   9.894 -1.1720 -0.5764  0.4214
 6555SOL    HW224796  11.275   1.198  10.027  1.0018 -0.8067  0.1315
 6556SOL     OW24797   3.665   4.536   0.615 -0.0639  0.0629  0.0467
 6556SOL    HW124798   3.678   4.441   0.622  0.1565 -0.0784 -2.0241
 6556SOL    HW224799   3.657   4.566   0.706 -1.1153 -2.0751  0.6982
 6557SOL     OW24800   0.255   4.018  11.051 -0.2492 -0.0930 -0.2219
 6557SOL    HW124801   0.326   4.026  11.115  0.0922  1.2208 -0.7465
 6557SOL    HW224802   0.222   4.107  11.041 -0.2563 -0.2803 -1.9223
 6558SOL     OW24803   0.341   0.566   9.883 -0.9646  0.9110 -0.4209
 6558SOL    HW124804   0.279   0.636   9.863 -2.1259 -0.0203 -0.2180
 6558SOL    HW224805   0.382   0.593   9.965 -0.9080  1.6761 -0.7011
 6559SOL     OW24806   5.966   0.619   2.767  0.2253 -0.3416 -0.1633
 6559SOL    HW124807   6.007   0.687   2.712 -0.6036  1.9110  1.9089
 6559SOL    HW224808   6.027   0.607   2.840  0.0316 -1.3273 -0.1579
 6560SOL     OW24809   2.946   2.596   9.384 -0.1487  0.7576  0.1549
 6560SOL    HW124810   2.917   2.681   9.418  0.1864  0.6212  0.7866
 6560SOL    HW224811   2.955   2.541   9.461 -2.5709 -0.5418 -0.4329
 6561SOL     OW24812   2.774   1.482   7.487  0.1197  0.4925  0.0941
 6561SOL    HW124813   2.756   1.500   7.580 -0.5825  0.7690 -0.0933
 6561SOL    HW224814   2.868   1.496   7.479  0.3632 -0.5595  0.9951
 6562SOL     OW24815   5.264   6.269   2.671  0.2770 -0.8560 -0.1002
 6562SOL    HW124816   5.351   6.306   2.654  0.1422 -1.1117 -1.4027
 6562SOL    HW224817   5.246   6.214   2.594 -0.9679 -0.9323  0.2330
 6563SOL     OW24818   4.465   1.727   0.574  0.9798 -0.0263 -0.1691
 6563SOL    HW124819   4.527   1.664   0.538 -0.3872 -1.4463 -0.1269
 6563SOL    HW224820   4.415   1.677   0.639 -0.7898  0.8285 -0.8376
 6564SOL     OW24821   2.252   2.992   9.805 -0.7843  0.2507 -0.9308
 6564SOL    HW124822   2.208   2.960   9.726 -1.1561 -0.7002 -0.3544
 6564SOL    HW224823   2.310   3.062   9.774  1.8000 -2.4934 -2.6179
 6565SOL     OW24824   2.591   6.163  11.267  0.8648  0.5693  0.3631
 6565SOL    HW124825   2.597   6.258  11.275 -0.2357  0.6121  0.7655
 6565SOL    HW224826   2.617   6.130  11.354 -0.4246  0.5815  0.7642
 6566SOL     OW24827   0.577   0.346   1.795 -0.2157 -0.1357  0.0157
 6566SOL    HW124828   0.648   0.293   1.758  0.5663 -0.8607  2.4737
 6566SOL    HW224829   0.528   0.377   1.719  2.9705  0.7268 -1.7597
 6567SOL     OW24830   7.297  10.192   8.302 -0.4500 -0.5203 -0.4788
 6567SOL    HW124831   7.237  10.235   8.363 -0.1356  1.6629 -1.6345
 6567SOL    HW224832   7.247  10.187   8.220  0.4310 -0.0223 -1.0516
 6568SOL     OW24833   1.196   7.549  10.520  0.0647 -0.2182 -0.5453
 6568SOL    HW124834   1.232   7.551  10.609  1.9301  1.5457 -1.3055
 6568SOL    HW224835   1.108   7.511  10.531  0.5373 -0.7099  1.9330
 6569SOL     OW24836  10.686   9.688   5.527 -0.4106 -0.2222 -0.3223
 6569SOL    HW124837  10.770   9.643   5.513 -0.9757 -0.5653 -3.0201
 6569SOL    HW224838  10.651   9.650   5.607  1.1793 -1.4054 -0.1650
 6570SOL     OW24839   1.633   7.569   1.304 -0.0480  0.2407 -0.2490
 6570SOL    HW124840   1.628   7.519   1.386 -1.0379  1.2539  0.3280
 6570SOL    HW224841   1.649   7.503   1.237  2.6164 -0.4143  0.9672
 6571SOL     OW24842   2.848  10.041   7.630  0.1840  0.0565  0.3174
 6571SOL    HW124843   2.914   9.976   7.605  0.5354  0.2015  0.8477
 6571SOL    HW224844   2.765  10.000   7.608  0.4985  0.4642 -1.7352
 6572SOL     OW24845   6.587   2.063  10.968 -0.2916  0.3093  0.0403
 6572SOL    HW124846   6.659   2.042  10.908 -0.1813  1.7218 -0.3560
 6572SOL    HW224847   6.592   1.996  11.036  0.1717 -0.7673 -1.0315
 6573SOL     OW24848   7.355  10.924   8.663 -0.3185  0.1989 -0.3781
 6573SOL    HW124849   7.373  10.840   8.621  1.1532  0.3920 -0.1504
 6573SOL    HW224850   7.318  10.979   8.594  1.4327  0.2929 -1.2547
 6574SOL     OW24851  11.332  11.334   1.521  0.0597  0.5637 -0.0756
 6574SOL    HW124852  11.305  11.244   1.499  3.7945 -0.6358 -0.0214
 6574SOL    HW224853  11.273  11.358   1.593 -1.4038 -1.6046 -0.4651
 6575SOL     OW24854   8.869   9.057   4.725 -0.0400  0.2842 -0.0109
 6575SOL    HW124855   8.872   8.980   4.782  0.7012  1.4324  1.5193
 6575SOL    HW224856   8.845   9.129   4.783 -0.3456  1.2830 -1.3634
 6576SOL     OW24857   3.546   3.888   7.062  0.4673 -0.6745  0.1730
 6576SOL    HW124858   3.570   3.977   7.090  2.2612 -1.6132  1.7571
 6576SOL    HW224859   3.468   3.900   7.009  1.1106  1.9453 -0.2694
 6577SOL     OW24860   5.858   2.768   4.327 -0.2035  0.1882  0.2316
 6577SOL    HW124861   5.923   2.768   4.257 -0.5952  0.3394 -0.1356
 6577SOL    HW224862   5.903   2.727   4.402  0.3308  0.3544  0.0047
 6578SOL     OW24863   2.490   0.437  10.519  0.1599 -0.0116 -0.6233
 6578SOL    HW124864   2.458   0.378  10.451  0.6350 -0.2235 -0.6646
 6578SOL    HW224865   2.584   0.444  10.502 -0.2828  2.8571 -2.2642
 6579SOL     OW24866   3.458   0.679   7.098  0.3218  0.0251  0.2539
 6579SOL    HW124867   3.405   0.700   7.021  1.2229 -0.1912 -0.4311
 6579SOL    HW224868   3.461   0.583   7.099 -0.7543 -0.0026  1.2938
 6580SOL     OW24869   4.114  10.540   0.328 -0.2291  0.5901  0.1859
 6580SOL    HW124870   4.152  10.467   0.279 -1.3897 -0.0342  0.1789
 6580SOL    HW224871   4.188  10.581   0.372  0.5115 -0.2640 -0.2428
 6581SOL     OW24872  10.457   4.370   5.641  0.2233 -0.6363  0.2969
 6581SOL    HW124873  10.447   4.389   5.734 -1.6005 -2.7539  0.5594
 6581SOL    HW224874  10.373   4.335   5.614  0.3602  0.9718 -2.4387
 6582SOL     OW24875   8.127   8.453   2.982 -0.1545  0.5206  0.2063
 6582SOL    HW124876   8.155   8.451   2.890 -1.1184  1.4296 -0.1123
 6582SOL    HW224877   8.204   8.426   3.031  0.2389 -0.4180 -0.9040
 6583SOL     OW24878   5.573   7.012   4.747 -0.0688 -0.2199 -0.5022
 6583SOL    HW124879   5.527   6.933   4.719 -2.7576  0.4736  1.6944
 6583SOL    HW224880   5.556   7.017   4.841  1.2606  2.1957 -0.3507
 6584SOL     OW24881   7.269   2.409   8.950 -0.4769  0.0625 -0.3774
 6584SOL    HW124882   7.329   2.336   8.963  0.2996  0.4611 -1.5471
 6584SOL    HW224883   7.313   2.483   8.992 -1.0927 -0.0559  0.4916
 6585SOL     OW24884  11.180   7.812   9.096 -0.1743 -0.1369 -1.0061
 6585SOL    HW124885  11.172   7.781   9.006 -1.2757  2.4165 -1.8139
 6585SOL    HW224886  11.124   7.889   9.101  0.7874  0.4670  1.5576
 6586SOL     OW24887   9.903   1.657  10.840  0.0849  0.1061 -0.2055
 6586SOL    HW124888   9.814   1.686  10.860  1.2648  2.0566  2.5577
 6586SOL    HW224889   9.951   1.738  10.821  1.1018 -1.0013 -2.6214
 6587SOL     OW24890   0.981   4.566   2.816  0.6254  0.2922  0.8754
 6587SOL    HW124891   1.043   4.554   2.744 -0.9492  1.4388 -0.6966
 6587SOL    HW224892   0.959   4.659   2.814  0.6556  0.3822  2.9622
 6588SOL     OW24893   3.035   5.183  10.172 -0.0723 -0.3642 -0.2753
 6588SOL    HW124894   2.956   5.129  10.170 -0.1761 -0.1747 -3.3728
 6588SOL    HW224895   3.106   5.122  10.190 -0.4998 -1.0964 -1.0785
 6589SOL     OW24896   8.240  10.384   2.036 -0.2422 -0.3946 -0.8331
 6589SOL    HW124897   8.334  10.386   2.018  0.2152 -1.3507  1.2667
 6589SOL    HW224898   8.226  10.456   2.098 -1.0435  0.2789 -1.7885
 6590SOL     OW24899   9.549   9.837  10.043  0.5243  0.3415  0.1170
 6590SOL    HW124900   9.541   9.902  10.112 -0.2582 -1.2985  1.6108
 6590SOL    HW224901   9.505   9.876   9.968  1.1044  2.0109  0.6279
 6591SOL     OW24902   4.315   0.413   2.829 -0.4858 -0.4588  0.4114
 6591SOL    HW124903   4.361   0.395   2.911  0.6866  0.0770 -0.1222
 6591SOL    HW224904   4.233   0.453   2.856 -0.1802 -0.4443  1.3349
 6592SOL     OW24905   3.850   8.939   9.466  0.2318 -0.6026 -0.5674
 6592SOL    HW124906   3.808   9.003   9.409  0.6351 -1.3714 -1.7463
 6592SOL    HW224907   3.813   8.955   9.552  0.4884  1.3596 -0.8010
 6593SOL     OW24908   0.734   5.977   3.701  0.2850 -0.3746  0.0723
 6593SOL    HW124909   0.715   5.888   3.673  0.8044 -0.0561 -1.3435
 6593SOL    HW224910   0.667   6.031   3.658  0.8396  0.0705 -0.2527
 6594SOL     OW24911   5.870   4.365   3.486  0.1361  0.4231  0.2876
 6594SOL    HW124912   5.859   4.366   3.391  0.5748  0.1599  0.2325
 6594SOL    HW224913   5.952   4.412   3.501 -0.2725  1.0534  0.5867
 6595SOL     OW24914  10.217  11.151   8.322  0.6741  0.0744  0.2260
 6595SOL    HW124915  10.262  11.174   8.403 -1.7117 -1.1241  1.9580
 6595SOL    HW224916  10.239  11.059   8.308 -0.7691 -0.3617  0.7874
 6596SOL     OW24917   9.779   5.439   7.440  0.3701 -0.6314 -0.1868
 6596SOL    HW124918   9.704   5.399   7.396  0.2484  0.5709 -1.0922
 6596SOL    HW224919   9.771   5.410   7.531 -0.2871 -1.8136 -0.6043
 6597SOL     OW24920  11.250   5.679   8.183  0.7029  0.0327  0.1371
 6597SOL    HW124921  11.339   5.673   8.150  1.2013 -0.4202  1.5524
 6597SOL    HW224922  11.197   5.702   8.106  1.8780 -0.7553 -0.9093
 6598SOL     OW24923   6.694   4.585   2.375  0.9104 -0.5402  0.3033
 6598SOL    HW124924   6.701   4.642   2.298  0.7093 -0.7841  0.1038
 6598SOL    HW224925   6.626   4.626   2.429  2.5650  0.8567  1.4090
 6599SOL     OW24926  11.300  10.659   4.198 -0.6029 -0.4227 -0.5590
 6599SOL    HW124927  11.278  10.751   4.182 -1.2520 -0.0853  1.9545
 6599SOL    HW224928  11.376  10.642   4.142  0.9056  2.3272  0.5416
 6600SOL     OW24929   3.682   6.199  10.464 -0.0836  0.5306  0.0275
 6600SOL    HW124930   3.714   6.140  10.396  0.2744  0.9004 -0.1233
 6600SOL    HW224931   3.590   6.215  10.441  0.2837  1.3811 -0.8793
 6601SOL     OW24932   2.889   2.935   3.535 -0.9355  0.6674  0.3480
 6601SOL    HW124933   2.885   2.890   3.620  1.9348  3.4583  2.0805
 6601SOL    HW224934   2.944   3.012   3.551 -0.1547  1.1858 -4.1459
 6602SOL     OW24935   1.898   6.648   9.322  0.4226 -0.1752  0.5480
 6602SOL    HW124936   1.985   6.674   9.352  1.5757 -1.8449 -1.2550
 6602SOL    HW224937   1.888   6.558   9.352  0.3300 -0.8108 -1.3398
 6603SOL     OW24938   8.472  11.168   5.420 -0.2120 -0.9032  0.3220
 6603SOL    HW124939   8.528  11.195   5.493 -0.3517 -1.6620  0.7108
 6603SOL    HW224940   8.425  11.092   5.452 -0.5173 -1.0499 -0.4533
 6604SOL     OW24941   5.025   2.734   8.217  0.5540  0.1210  0.0430
 6604SOL    HW124942   5.040   2.669   8.286  0.2040 -0.6174 -0.5630
 6604SOL    HW224943   4.944   2.778   8.243 -0.5481 -1.3718 -0.7940
 6605SOL     OW24944  10.666   8.847   2.351 -0.0884  0.3029  0.8941
 6605SOL    HW124945  10.749   8.873   2.310 -0.4639  0.6533  0.3473
 6605SOL    HW224946  10.610   8.823   2.278 -0.1363 -0.9223  1.3335
 6606SOL     OW24947   7.818   9.954   2.230 -0.3145  0.4113  0.1172
 6606SOL    HW124948   7.726   9.958   2.259 -0.5122 -0.3891 -0.4069
 6606SOL    HW224949   7.819  10.004   2.149 -0.3416  0.1759 -0.0270
 6607SOL     OW24950   8.928   9.219   9.422 -0.0949 -0.5243 -0.0626
 6607SOL    HW124951   9.020   9.225   9.398 -0.2449  1.0960 -0.2804
 6607SOL    HW224952   8.925   9.251   9.512 -0.9387  3.0965 -1.2810
 6608SOL     OW24953   8.348   3.988   7.953  0.0747  0.1302 -0.6200
 6608SOL    HW124954   8.373   4.065   7.902  0.3155 -0.3579 -1.2529
 6608SOL    HW224955   8.419   3.977   8.016  0.1316  0.3152 -0.6528
 6609SOL     OW24956   9.096   6.339   8.957  0.0097 -0.3733 -0.1473
 6609SOL    HW124957   9.006   6.369   8.973 -0.5934 -1.7951 -0.8112
 6609SOL    HW224958   9.090   6.244   8.957  1.8437 -0.5167  1.5406
 6610SOL     OW24959   9.540   2.896   8.078 -0.1794 -0.3654 -0.0217
 6610SOL    HW124960   9.595   2.846   8.018 -0.2548 -0.9309  0.3776
 6610SOL    HW224961   9.498   2.830   8.133 -0.5843  0.1145  0.2489
 6611SOL     OW24962   4.856   3.032  11.278 -0.1505 -0.0672  0.4544
 6611SOL    HW124963   4.856   3.068  11.366  2.7034  1.0553  0.0512
 6611SOL    HW224964   4.939   3.061  11.240 -1.1026 -0.9476 -2.4306
 6612SOL     OW24965  10.806   7.606   6.404 -0.4243 -0.3719  0.1347
 6612SOL    HW124966  10.738   7.671   6.388 -0.6332 -0.5785  0.1855
 6612SOL    HW224967  10.772   7.553   6.475 -0.1112 -0.3386  0.3083
 6613SOL     OW24968   2.040  10.016  10.478  0.0888 -0.8333 -0.0401
 6613SOL    HW124969   2.091   9.987  10.402  1.1448 -0.1346  0.3822
 6613SOL    HW224970   2.041   9.941  10.538  1.6264 -0.4494  0.4551
 6614SOL     OW24971   6.118   7.743   5.226 -0.1176  1.0894 -0.2663
 6614SOL    HW124972   6.115   7.667   5.168 -0.6997  0.9872 -0.1078
 6614SOL    HW224973   6.144   7.816   5.170 -0.0711  0.8722 -0.5260
 6615SOL     OW24974   6.297   5.263   1.495  0.0496 -0.4207 -0.1520
 6615SOL    HW124975   6.368   5.219   1.541  0.8112  1.0900  0.1593
 6615SOL    HW224976   6.316   5.250   1.403  0.1691 -0.9082 -0.0563
 6616SOL     OW24977   6.138   8.461   5.710  0.4260 -0.4032 -0.3661
 6616SOL    HW124978   6.089   8.398   5.762 -0.7832 -0.3614 -1.4219
 6616SOL    HW224979   6.102   8.546   5.735  0.8988 -0.2616 -0.1608
 6617SOL     OW24980   8.759   8.761   2.888  0.2380  0.0380  0.4588
 6617SOL    HW124981   8.819   8.831   2.912  1.1527 -0.8816  0.8530
 6617SOL    HW224982   8.673   8.793   2.916  0.8178  0.4516  1.7832
 6618SOL     OW24983   1.057  10.743   9.440  0.4051  0.3450 -0.4502
 6618SOL    HW124984   1.032  10.813   9.379  0.0367  0.7214  0.1308
 6618SOL    HW224985   0.999  10.671   9.418  0.9080  0.1473 -1.1761
 6619SOL     OW24986   1.811   7.309   7.482  0.1141  0.1005  0.7768
 6619SOL    HW124987   1.766   7.275   7.404  0.9166  2.3252 -0.7053
 6619SOL    HW224988   1.751   7.289   7.554 -0.8942 -1.5271 -0.4614
 6620SOL     OW24989   3.251   4.090   7.974 -0.3289  0.3025 -0.1714
 6620SOL    HW124990   3.159   4.100   8.001 -0.8935 -0.3072 -1.7938
 6620SOL    HW224991   3.248   4.024   7.905  1.5186 -0.7122  0.7091
 6621SOL     OW24992   6.932  11.180   8.844  0.4167  0.2704  0.1905
 6621SOL    HW124993   6.945  11.180   8.939  1.6366  0.9649  0.0272
 6621SOL    HW224994   6.856  11.122   8.830 -1.0783  1.8138  1.7425
 6622SOL     OW24995   9.603   5.501   5.167  0.0383 -0.0939  0.0496
 6622SOL    HW124996   9.689   5.526   5.134  0.2214  1.2509  1.4684
 6622SOL    HW224997   9.542   5.562   5.127 -0.0750 -0.1510  0.1300
 6623SOL     OW24998   6.298   9.208   2.271 -0.1593 -0.1533 -0.5085
 6623SOL    HW124999   6.264   9.189   2.359  0.5736  1.0675  0.0529
 6623SOL    HW225000   6.272   9.299   2.254  0.1263 -0.2212 -1.3534
 6624SOL     OW25001   8.160   4.500   1.235  0.5221  0.0878  0.2731
 6624SOL    HW125002   8.240   4.551   1.229  1.8788 -2.0222 -0.1275
 6624SOL    HW225003   8.115   4.535   1.312  2.4639  0.4310  1.2912
 6625SOL     OW25004   9.160   0.980   4.132  0.0990  0.2522 -0.5794
 6625SOL    HW125005   9.175   0.917   4.203 -0.4377  1.2675  0.4354
 6625SOL    HW225006   9.072   1.014   4.148  0.6827  1.8205 -0.7067
 6626SOL     OW25007   2.066   2.753   1.678  0.3557  0.2795  0.2156
 6626SOL    HW125008   2.130   2.814   1.713 -0.8443  0.3651  2.3552
 6626SOL    HW225009   2.056   2.779   1.587  3.3356  0.2418 -0.1695
 6627SOL     OW25010  11.207   6.981   6.360 -0.0160  0.2630 -0.3897
 6627SOL    HW125011  11.274   6.913   6.352  0.0911  0.0354  2.0702
 6627SOL    HW225012  11.149   6.967   6.286 -0.9874 -3.6221  1.0207
 6628SOL     OW25013   4.544   2.663   9.852  0.0931 -0.0744  0.3876
 6628SOL    HW125014   4.635   2.682   9.872  0.4129 -1.6604  0.5453
 6628SOL    HW225015   4.509   2.745   9.817  1.7166  0.3916 -0.1874
 6629SOL     OW25016   9.374   9.624   9.761  0.0621 -0.7758  0.0944
 6629SOL    HW125017   9.389   9.581   9.846  0.4657 -2.0825 -0.6154
 6629SOL    HW225018   9.298   9.578   9.725  0.1800 -0.5273 -0.4623
 6630SOL     OW25019   9.722   7.258   4.267  0.6159  0.1967 -0.2485
 6630SOL    HW125020   9.742   7.178   4.316 -0.3308  0.5632  0.7605
 6630SOL    HW225021   9.767   7.247   4.183 -0.2297 -1.7989 -0.4794
 6631SOL     OW25022   4.846  10.988   6.302  0.1302 -0.3437 -0.5758
 6631SOL    HW125023   4.763  11.016   6.343 -1.0834  0.2699 -3.3318
 6631SOL    HW225024   4.821  10.914   6.246  1.8138 -1.3857  0.0211
 6632SOL     OW25025   4.817   5.898   4.759  0.1260 -0.0418 -0.1382
 6632SOL    HW125026   4.820   5.956   4.683 -0.5695  0.3633  0.1414
 6632SOL    HW225027   4.904   5.856   4.761  0.4159  0.5289 -0.6916
 6633SOL     OW25028   9.039   0.837  11.039  0.2854  0.0590  0.2671
 6633SOL    HW125029   9.064   0.929  11.032  1.9074 -0.4416 -0.8887
 6633SOL    HW225030   9.018   0.811  10.950  0.8659 -0.9515  0.4175
 6634SOL     OW25031   2.271   2.764   8.312 -0.2649 -0.4089  0.2295
 6634SOL    HW125032   2.282   2.687   8.256  1.4727  0.3190 -0.4495
 6634SOL    HW225033   2.348   2.764   8.368 -0.2366  0.8826  0.1903
 6635SOL     OW25034   5.110   2.128   5.892  0.0848 -0.1217  0.1571
 6635SOL    HW125035   5.114   2.065   5.820 -0.6802 -0.6965  0.6114
 6635SOL    HW225036   5.063   2.083   5.962  0.9772  0.3658  1.0951
 6636SOL     OW25037   7.880   0.215   9.690  0.6964 -0.3625  0.0396
 6636SOL    HW125038   7.848   0.136   9.734 -4.3746  0.5229 -1.7504
 6636SOL    HW225039   7.878   0.283   9.757 -2.4217 -0.0802 -0.2872
 6637SOL     OW25040   1.282   6.090   2.412 -0.6286  0.2662 -0.1447
 6637SOL    HW125041   1.272   6.153   2.483 -0.0290 -0.4085  0.5520
 6637SOL    HW225042   1.349   6.128   2.356  0.0003  0.0722  0.4714
 6638SOL     OW25043   1.349   5.332   0.404 -0.2086 -0.3282  0.3153
 6638SOL    HW125044   1.275   5.327   0.343 -1.3063  0.1566  1.5748
 6638SOL    HW225045   1.381   5.422   0.395 -0.5397 -0.1763  0.6410
 6639SOL     OW25046   6.506  11.033  10.042  0.1029 -0.3843 -0.5470
 6639SOL    HW125047   6.550  11.064  10.121 -0.2972 -0.0439 -0.4572
 6639SOL    HW225048   6.555  10.954  10.017  0.9739  0.1698 -0.6375
 6640SOL     OW25049   0.800   9.961   9.748  0.2186  0.2756  0.3090
 6640SOL    HW125050   0.879   9.933   9.703 -0.9232 -1.3056 -0.7583
 6640SOL    HW225051   0.743   9.994   9.678 -0.3835  0.6643  0.9740
 6641SOL     OW25052   0.848  10.872   1.163  0.5083 -0.2799 -0.4050
 6641SOL    HW125053   0.789  10.881   1.088  1.4184 -1.6712 -1.3098
 6641SOL    HW225054   0.929  10.914   1.136  0.2105  0.9427  0.5475
 6642SOL     OW25055   2.433   3.021   0.854 -0.3883  0.2826 -0.2069
 6642SOL    HW125056   2.433   3.055   0.944 -1.4556  2.1739 -0.8971
 6642SOL    HW225057   2.356   2.964   0.850  0.1544 -0.4973  0.3176
 6643SOL     OW25058   6.231   3.049   5.217 -0.4731  0.0415 -0.0510
 6643SOL    HW125059   6.241   3.018   5.307  0.9315 -3.4944 -1.3251
 6643SOL    HW225060   6.149   3.099   5.217 -1.0285 -0.8053  2.9528
 6644SOL     OW25061   0.537   4.511  10.210  0.6410 -0.4247  0.1182
 6644SOL    HW125062   0.599   4.579  10.183 -0.4346  0.2946 -0.6025
 6644SOL    HW225063   0.553   4.498  10.303  1.9335 -0.3109 -0.0862
 6645SOL     OW25064   1.096  11.136  11.246 -0.2158 -0.0816 -0.1544
 6645SOL    HW125065   1.126  11.073  11.181  2.8616  0.4595  0.6714
 6645SOL    HW225066   1.123  11.221  11.212  0.1578  0.3287  1.1239
 6646SOL     OW25067   2.656   6.750   5.834 -0.1769 -0.0432 -0.2464
 6646SOL    HW125068   2.691   6.695   5.763 -1.9041  0.3118 -1.4064
 6646SOL    HW225069   2.567   6.717   5.847 -0.4316  0.9779  0.6285
 6647SOL     OW25070   4.664   9.931  10.580 -0.1630  0.0475  0.1057
 6647SOL    HW125071   4.614   9.925  10.661  0.7040  0.6636  0.6990
 6647SOL    HW225072   4.599   9.942  10.511 -0.7807  1.7961  0.9643
 6648SOL     OW25073   2.221   6.409   8.736 -0.5615 -0.1936  0.4212
 6648SOL    HW125074   2.248   6.481   8.793  0.5485  0.0537 -0.3980
 6648SOL    HW225075   2.126   6.404   8.748 -0.4437  0.3693  1.6815
 6649SOL     OW25076   4.907   1.989   1.987  0.0881  0.4727  0.3839
 6649SOL    HW125077   4.896   1.903   2.028 -0.8777  0.1693 -0.5030
 6649SOL    HW225078   4.826   2.036   2.008  0.3404  0.9428  0.3152
 6650SOL     OW25079  10.400  10.104   9.943  0.2207  0.0620  0.1910
 6650SOL    HW125080  10.379  10.074   9.855  0.2142  0.6826 -0.0162
 6650SOL    HW225081  10.495  10.091   9.951 -0.0441 -1.6895  0.7360
 6651SOL     OW25082   0.235   2.152   4.284 -0.3859  0.3859  0.0272
 6651SOL    HW125083   0.170   2.188   4.345 -0.3978  0.0625  0.2094
 6651SOL    HW225084   0.313   2.138   4.338 -0.0017  1.2516 -0.3056
 6652SOL     OW25085  10.863   8.893  10.688 -0.4057 -0.1793  0.0394
 6652SOL    HW125086  10.794   8.851  10.636 -0.5217  0.1743 -0.0970
 6652SOL    HW225087  10.863   8.846  10.771 -0.0969 -0.8647 -0.3444
 6653SOL     OW25088   3.725   6.416   0.817  0.5328 -0.7270  0.2879
 6653SOL    HW125089   3.794   6.362   0.777  1.3903  0.4341  0.1884
 6653SOL    HW225090   3.706   6.483   0.752 -0.5136 -0.8786  0.4262
 6654SOL     OW25091   7.125   8.913   4.131  0.1491  0.3515  1.2375
 6654SOL    HW125092   7.102   8.997   4.169 -3.0883  0.2897 -0.4482
 6654SOL    HW225093   7.049   8.888   4.078  1.8615 -2.6516  0.0405
 6655SOL     OW25094   3.982   7.629   3.383 -0.0682 -0.3618 -0.2100
 6655SOL    HW125095   3.959   7.717   3.352 -0.1179 -0.5858 -0.8013
 6655SOL    HW225096   4.042   7.595   3.317 -0.3058 -0.9025 -0.1487
 6656SOL     OW25097   7.715   4.498   4.698  0.4819  0.0263 -0.8397
 6656SOL    HW125098   7.679   4.554   4.629  0.3957 -0.7464 -1.4393
 6656SOL    HW225099   7.770   4.556   4.751 -1.0486  1.0522 -0.3620
 6657SOL     OW25100   2.435   8.877  10.672  0.6822 -0.4455  0.0705
 6657SOL    HW125101   2.359   8.932  10.693  1.9632  0.9805  1.0352
 6657SOL    HW225102   2.432   8.867  10.577 -1.0761 -0.9586  0.1569
 6658SOL     OW25103   3.964   8.483   2.330 -0.4679  0.1442 -0.4567
 6658SOL    HW125104   4.034   8.435   2.374 -0.9746 -0.0673  0.1264
 6658SOL    HW225105   4.000   8.571   2.317 -0.8314  0.6835  1.7834
 6659SOL     OW25106   0.001  10.659  10.846  0.3511 -0.0692  0.1178
 6659SOL    HW125107  -0.087  10.623  10.837  1.4523 -2.4052 -1.7900
 6659SOL    HW225108   0.027  10.637  10.936 -0.2743 -1.0781  0.0573
 6660SOL     OW25109   6.521   7.856   3.752 -0.8319 -0.4173  0.0292
 6660SOL    HW125110   6.575   7.871   3.674 -1.1403 -1.5578 -0.4277
 6660SOL    HW225111   6.561   7.909   3.820 -0.1930  0.1274 -0.7557
 6661SOL     OW25112   0.881   8.557   6.760  0.5159 -0.2513 -0.9529
 6661SOL    HW125113   0.841   8.474   6.786 -1.2509  0.7771 -0.2659
 6661SOL    HW225114   0.811   8.605   6.716  1.5738  0.7779 -1.5427
 6662SOL     OW25115  10.066   0.684   1.302 -0.4893 -0.0325 -0.5837
 6662SOL    HW125116  10.053   0.730   1.385 -0.1619  2.9328 -2.1228
 6662SOL    HW225117   9.987   0.701   1.252 -2.0703 -4.4050  0.1846
 6663SOL     OW25118   5.423   3.882   8.631 -0.0861 -0.1239  0.0926
 6663SOL    HW125119   5.333   3.864   8.605 -0.0084  1.1762 -1.1227
 6663SOL    HW225120   5.474   3.808   8.597 -0.5539 -0.3783 -0.0518
 6664SOL     OW25121   1.208   7.386   8.017 -0.0445 -0.1180 -0.0930
 6664SOL    HW125122   1.265   7.463   8.010  0.4912 -0.4472  0.6397
 6664SOL    HW225123   1.119   7.422   8.007  0.1485  0.7123  1.1020
 6665SOL     OW25124   4.250   4.941   8.609  0.0399  0.4366 -0.1946
 6665SOL    HW125125   4.177   4.887   8.642 -0.2180  0.5465 -0.5798
 6665SOL    HW225126   4.208   5.005   8.552  0.4249  0.6078 -0.2857
 6666SOL     OW25127   6.427   5.780   5.924  0.1346  0.3730 -0.1185
 6666SOL    HW125128   6.461   5.693   5.940  0.1589  0.6081  1.1237
 6666SOL    HW225129   6.414   5.818   6.011 -2.4390  0.6145 -0.5571
 6667SOL     OW25130   0.158   2.078   9.217  0.4150  0.1779 -0.1909
 6667SOL    HW125131   0.130   2.071   9.309  1.7780  0.0164  0.2195
 6667SOL    HW225132   0.082   2.116   9.173  0.4253  2.1656  1.3854
 6668SOL     OW25133   5.550   8.077   5.679  0.3691 -0.1392  0.4168
 6668SOL    HW125134   5.539   8.099   5.586 -0.8062  0.5295  0.7055
 6668SOL    HW225135   5.597   7.993   5.678  1.9811  0.7320 -0.7460
 6669SOL     OW25136   7.881   9.708   8.633  0.1373  0.2893  0.1192
 6669SOL    HW125137   7.809   9.771   8.634  0.4868  0.6997 -0.1918
 6669SOL    HW225138   7.934   9.733   8.557  0.2852 -0.3711 -0.0002
 6670SOL     OW25139   5.755   9.264   5.101  0.3602  0.1689  0.0866
 6670SOL    HW125140   5.812   9.193   5.070  0.7266  1.3844 -2.0805
 6670SOL    HW225141   5.697   9.283   5.027 -0.0188  1.8412  0.7953
 6671SOL     OW25142   0.772   5.283   1.604 -0.3923 -0.2916 -0.0798
 6671SOL    HW125143   0.697   5.277   1.663  0.1211  0.2881  0.6527
 6671SOL    HW225144   0.804   5.373   1.615 -1.2481  0.3300 -2.4522
 6672SOL     OW25145   5.099   4.872   8.271 -0.2411  0.2391  0.5957
 6672SOL    HW125146   5.179   4.873   8.323  0.3614  1.6450 -0.3434
 6672SOL    HW225147   5.069   4.781   8.276  0.2535  0.1562  2.6840
 6673SOL     OW25148   0.054   9.360   9.445  0.1242 -0.2299 -0.2563
 6673SOL    HW125149   0.088   9.297   9.509  0.2409 -0.1478 -0.2365
 6673SOL    HW225150  -0.034   9.328   9.425 -0.1043  0.0261  0.3303
 6674SOL     OW25151   2.101   1.771  10.475  0.4527  0.1743 -0.1553
 6674SOL    HW125152   2.138   1.758  10.388  0.6067 -1.2399  0.1188
 6674SOL    HW225153   2.177   1.784  10.532  0.4634 -1.0797  0.1268
 6675SOL     OW25154  10.285   7.163   0.702  0.2444  0.5928  0.2298
 6675SOL    HW125155  10.340   7.113   0.763  1.7986  0.0729 -1.5589
 6675SOL    HW225156  10.208   7.108   0.689  1.0689 -0.4692 -0.2403
 6676SOL     OW25157   6.806   8.280   2.702  0.1558  0.0648  0.2600
 6676SOL    HW125158   6.821   8.243   2.615 -0.3297 -0.3799  0.3602
 6676SOL    HW225159   6.825   8.208   2.762  0.0789  0.2443  0.4992
 6677SOL     OW25160   3.010   1.896   8.406 -0.6716  0.0031 -0.1349
 6677SOL    HW125161   2.949   1.929   8.472 -2.9453 -1.3152 -1.5004
 6677SOL    HW225162   2.998   1.802   8.406 -0.0109 -0.1057 -1.7473
 6678SOL     OW25163  10.177   9.731   8.480 -0.8790 -0.1814 -0.7889
 6678SOL    HW125164  10.089   9.693   8.490 -0.5196 -1.1851 -1.2798
 6678SOL    HW225165  10.170   9.788   8.403 -1.1059 -0.2598 -0.8272
 6679SOL     OW25166   7.074   1.031   6.672  0.0877  0.7516 -0.8403
 6679SOL    HW125167   7.130   0.954   6.675  0.7523  1.1939 -1.8991
 6679SOL    HW225168   7.131   1.101   6.641 -0.3963  1.7757  0.5106
 6680SOL     OW25169   3.968   5.056   6.636  0.1740 -0.9814 -0.3224
 6680SOL    HW125170   3.939   5.058   6.727  0.4446  0.5211 -0.2458
 6680SOL    HW225171   4.052   5.102   6.636 -0.6697  0.6376 -1.5960
 6681SOL     OW25172   8.540   6.447  11.067 -0.0636  0.1709 -0.1155
 6681SOL    HW125173   8.533   6.504  11.143  0.6051 -1.3092  1.0732
 6681SOL    HW225174   8.531   6.359  11.102 -3.7122 -0.4301 -2.2260
 6682SOL     OW25175   5.825   5.609   8.096  0.0509  0.1611 -0.2102
 6682SOL    HW125176   5.759   5.584   8.160 -0.4477  1.2807 -0.2716
 6682SOL    HW225177   5.885   5.665   8.144  0.9576 -0.8368 -0.1611
 6683SOL     OW25178   9.181   1.391  11.082 -0.3156 -0.1965 -0.0991
 6683SOL    HW125179   9.193   1.482  11.110 -0.6132 -0.3980  0.7051
 6683SOL    HW225180   9.269   1.353  11.087 -0.3119 -0.1429  0.2425
 6684SOL     OW25181   5.903   0.656  10.577 -0.5041  0.0332  0.8025
 6684SOL    HW125182   5.837   0.632  10.643 -0.5327 -1.3183  0.3070
 6684SOL    HW225183   5.883   0.600  10.502  0.0603  0.9510 -0.0432
 6685SOL     OW25184   8.872   8.857  11.168  0.2337  0.0352  0.1111
 6685SOL    HW125185   8.785   8.820  11.185 -0.3073  0.8769 -0.7503
 6685SOL    HW225186   8.894   8.904  11.248 -0.2541  0.1033  0.2065
 6686SOL     OW25187   1.637   2.675  10.183  0.4069 -0.1512  0.3731
 6686SOL    HW125188   1.665   2.587  10.208 -1.7535 -1.5861 -2.0356
 6686SOL    HW225189   1.544   2.679  10.207 -0.2295  0.4666 -2.0711
 6687SOL     OW25190   7.511   6.645   6.668 -0.1798  0.4805 -0.3723
 6687SOL    HW125191   7.530   6.728   6.712  2.0953  0.3674 -1.0854
 6687SOL    HW225192   7.494   6.584   6.739  2.2323  0.5970  0.3551
 6688SOL     OW25193   3.454   8.523   0.120  0.3166 -0.1436  0.1970
 6688SOL    HW125194   3.479   8.614   0.101 -1.3287  0.2996  0.1064
 6688SOL    HW225195   3.429   8.524   0.212 -2.1667  0.0719 -0.4476
 6689SOL     OW25196   7.704   8.499   1.638 -0.1686  0.3510 -0.0192
 6689SOL    HW125197   7.703   8.474   1.730 -1.3018  1.2499  0.2160
 6689SOL    HW225198   7.734   8.421   1.592  0.5921 -0.0412  1.1191
 6690SOL     OW25199   8.198   5.717   2.577 -0.2245 -0.4153 -0.3130
 6690SOL    HW125200   8.204   5.745   2.486 -0.2515 -0.7984 -0.4329
 6690SOL    HW225201   8.185   5.622   2.572  3.0188 -0.9252  0.1651
 6691SOL     OW25202   0.921   9.350   8.958  0.0871 -0.6058 -0.1106
 6691SOL    HW125203   0.939   9.310   9.044  0.4031  1.4600  0.8053
 6691SOL    HW225204   1.007   9.364   8.919 -0.0388 -1.0758 -0.5680
 6692SOL     OW25205   7.277   1.515   5.718 -0.2872  0.1049  0.4216
 6692SOL    HW125206   7.190   1.541   5.747 -0.0054  0.1359  1.2700
 6692SOL    HW225207   7.262   1.449   5.651 -1.0007  1.4901 -0.8046
 6693SOL     OW25208   3.875   7.800   1.577  0.0621 -0.2646 -0.0401
 6693SOL    HW125209   3.939   7.846   1.631  0.4530 -1.1980  0.3017
 6693SOL    HW225210   3.792   7.844   1.596  0.3653  0.0476  0.5784
 6694SOL     OW25211   0.428   7.313  11.120 -0.2858  0.1229 -0.0103
 6694SOL    HW125212   0.444   7.219  11.107 -0.6484  0.1154 -0.4350
 6694SOL    HW225213   0.334   7.323  11.102 -0.3807  0.4594  0.6658
 6695SOL     OW25214   2.995   0.803   4.128  0.1203  0.1715 -0.5405
 6695SOL    HW125215   2.932   0.875   4.134  0.8933  0.9922 -2.0259
 6695SOL    HW225216   3.023   0.803   4.036  2.2224 -0.2345  0.0761
 6696SOL     OW25217   3.282   4.049   0.296 -0.1014 -0.1935 -0.7059
 6696SOL    HW125218   3.365   4.081   0.333 -0.7037 -0.8352  1.3027
 6696SOL    HW225219   3.291   3.954   0.296 -1.0599 -0.2959  0.1122
 6697SOL     OW25220   8.843   1.109   4.084 -0.3604 -0.3415  0.1523
 6697SOL    HW125221   8.804   1.114   3.997  0.7941  0.2439 -0.3434
 6697SOL    HW225222   8.899   1.187   4.089  1.6892 -1.8067  0.3811
 6698SOL     OW25223   6.811   8.211   2.445 -0.5717  0.2600  0.3177
 6698SOL    HW125224   6.821   8.300   2.410 -0.4885  1.0619  2.3421
 6698SOL    HW225225   6.887   8.164   2.412  0.0944  1.3034  0.3373
 6699SOL     OW25226   0.964   5.493   3.281 -1.1414  0.3610  0.3458
 6699SOL    HW125227   1.028   5.564   3.273 -1.0186  0.2386  0.2131
 6699SOL    HW225228   1.014   5.420   3.318 -1.4333  0.5560  1.1163
 6700SOL     OW25229   1.796   3.038   1.008 -0.4770  0.0672 -0.3899
 6700SOL    HW125230   1.838   3.100   0.949  0.6628  1.6091  1.9403
 6700SOL    HW225231   1.712   3.079   1.029 -0.5994 -0.1588 -0.4411
 6701SOL     OW25232   9.624   6.911   5.631 -0.3916  0.1418 -0.7757
 6701SOL    HW125233   9.660   6.954   5.554  0.3550 -0.5535 -0.8303
 6701SOL    HW225234   9.650   6.967   5.704  0.3487 -0.0683 -0.8697
 6702SOL     OW25235   6.379   7.794   0.287  0.4161 -0.2297 -0.0455
 6702SOL    HW125236   6.352   7.747   0.366  0.1572 -0.5998 -0.3527
 6702SOL    HW225237   6.370   7.886   0.310  2.1486 -0.2907  0.9968
 6703SOL     OW25238   5.095  10.461   2.184 -0.0372  0.3409  0.6976
 6703SOL    HW125239   5.155  10.450   2.110 -1.2737 -0.3826 -0.2368
 6703SOL    HW225240   5.122  10.394   2.247  0.4106  0.3102  0.4745
 6704SOL     OW25241   5.615   8.545  10.654  0.0140 -0.4136  0.1145
 6704SOL    HW125242   5.557   8.618  10.672 -0.3741 -0.4736 -0.8241
 6704SOL    HW225243   5.657   8.568  10.570 -0.5363 -1.5114 -0.4788
 6705SOL     OW25244   9.580  11.041   7.462 -0.3096 -0.0649 -0.1401
 6705SOL    HW125245   9.619  11.091   7.390 -0.2687 -0.2450 -0.2450
 6705SOL    HW225246   9.490  11.024   7.434 -1.1980  2.3476  1.1182
 6706SOL     OW25247   5.080   6.212   6.058  0.2422  0.2998 -0.1978
 6706SOL    HW125248   4.998   6.214   6.009 -0.1116 -0.5306  0.3559
 6706SOL    HW225249   5.125   6.133   6.027  0.6645  0.5467 -0.2231
 6707SOL     OW25250   8.556  10.943   4.787  0.2960 -0.1599 -0.2455
 6707SOL    HW125251   8.588  10.977   4.704  1.7451 -0.8443  0.0242
 6707SOL    HW225252   8.514  11.018   4.829 -2.5432 -0.3222 -2.5881
 6708SOL     OW25253   0.202   7.234   2.889 -0.0362 -0.3322 -0.0370
 6708SOL    HW125254   0.224   7.303   2.951  2.4196 -1.5338  0.4851
 6708SOL    HW225255   0.134   7.183   2.934 -1.4583  1.3925 -0.2012
 6709SOL     OW25256   4.534   1.521   1.141 -0.4247 -0.2962 -0.6937
 6709SOL    HW125257   4.603   1.458   1.120 -0.2489 -0.2093 -0.3831
 6709SOL    HW225258   4.532   1.523   1.237 -0.5128  0.0796 -0.7014
 6710SOL     OW25259  10.904   6.892   5.193  0.4665 -0.0966 -0.2336
 6710SOL    HW125260  10.925   6.888   5.100  0.1224 -1.1404 -0.2745
 6710SOL    HW225261  10.984   6.863   5.237  0.3200 -0.5130 -0.2419
 6711SOL     OW25262   0.323   6.934  10.339 -0.0510 -0.0248  0.2311
 6711SOL    HW125263   0.256   6.914  10.405  0.7645 -1.2394  0.7150
 6711SOL    HW225264   0.305   6.873  10.267 -0.0394  0.2931 -0.0400
 6712SOL     OW25265  10.922   1.032   0.218 -0.1079  0.5173 -0.2087
 6712SOL    HW125266  10.982   1.101   0.246 -0.0839  0.9463 -1.2628
 6712SOL    HW225267  10.835   1.072   0.224 -0.2360  0.1152  0.6824
 6713SOL     OW25268   1.531   8.021   5.783 -0.0375  1.2780 -0.2979
 6713SOL    HW125269   1.484   7.991   5.705 -0.5992  0.9081  0.1829
 6713SOL    HW225270   1.463   8.027   5.851  1.0019 -1.4805  1.0304
 6714SOL     OW25271   9.102   3.084   1.031  0.0786 -0.0281 -0.2927
 6714SOL    HW125272   9.014   3.120   1.035  0.6241  1.5186 -1.5933
 6714SOL    HW225273   9.090   2.993   1.005 -1.1053  0.2832 -0.8628
 6715SOL     OW25274   5.908   6.882  10.180  0.6166 -0.2347 -0.1529
 6715SOL    HW125275   5.995   6.909  10.150  1.6405  1.1580  3.7813
 6715SOL    HW225276   5.923   6.841  10.265 -2.5714  0.0294  0.6057
 6716SOL     OW25277   9.447   5.282   5.826  0.1608 -0.0545 -0.3696
 6716SOL    HW125278   9.542   5.287   5.817  0.1243 -2.1172 -2.3074
 6716SOL    HW225279   9.433   5.274   5.920  1.8915  0.5228 -0.0398
 6717SOL     OW25280   9.075   5.058   4.591  0.3638  0.2327  0.3039
 6717SOL    HW125281   8.981   5.074   4.585  0.6140  0.9446 -2.0852
 6717SOL    HW225282   9.095   5.003   4.515  1.7228 -0.7807  1.3558
 6718SOL     OW25283   3.616   1.074   4.270 -0.2607  0.8097  0.1062
 6718SOL    HW125284   3.672   1.116   4.336 -1.0992  1.8079  0.2074
 6718SOL    HW225285   3.593   0.990   4.309  0.5194  0.7298  0.4090
 6719SOL     OW25286   1.076   5.672   7.854  0.1899 -0.2625  0.4076
 6719SOL    HW125287   1.090   5.749   7.798  0.8751 -0.9905 -0.4347
 6719SOL    HW225288   0.981   5.664   7.860  0.1109  0.2544 -0.0653
 6720SOL     OW25289   7.399   2.896   7.356 -0.1204 -0.0061  0.5952
 6720SOL    HW125290   7.424   2.871   7.445 -0.3461  0.5044  0.8048
 6720SOL    HW225291   7.454   2.842   7.299  1.0293  0.6739  1.0467
 6721SOL     OW25292   8.313   0.170   9.750 -0.6903 -0.2355 -0.7564
 6721SOL    HW125293   8.360   0.219   9.683 -1.3719 -0.8467 -1.6774
 6721SOL    HW225294   8.231   0.145   9.709 -1.0039 -0.8246  0.2236
 6722SOL     OW25295   8.218  10.022   2.605  0.1958  0.0830 -0.5121
 6722SOL    HW125296   8.265  10.105   2.596 -0.2195  0.4945  0.9007
 6722SOL    HW225297   8.153  10.024   2.535 -0.9845  1.7864  0.5876
 6723SOL     OW25298  10.158   9.212   8.997 -0.0964 -0.3756 -0.1692
 6723SOL    HW125299  10.167   9.261   9.078  0.6126  1.6796 -1.4374
 6723SOL    HW225300  10.241   9.164   8.988 -1.5028 -3.3816  2.0046
 6724SOL     OW25301   7.052   1.138   2.815 -0.1732  0.4700  0.3345
 6724SOL    HW125302   7.061   1.161   2.907 -1.6065 -0.0671  0.6209
 6724SOL    HW225303   7.035   1.220   2.771  1.1463  0.8178  0.4522
 6725SOL     OW25304   5.390   8.417   3.064 -0.1030  0.3346  0.0942
 6725SOL    HW125305   5.372   8.499   3.018 -0.9654  0.3553  0.4706
 6725SOL    HW225306   5.481   8.397   3.042 -0.8739 -0.3126 -2.5985
 6726SOL     OW25307   5.223   9.295   3.784  0.2747  0.1290  0.7095
 6726SOL    HW125308   5.205   9.389   3.787  0.1842  0.1275  0.3143
 6726SOL    HW225309   5.253   9.273   3.872 -1.2776  0.2048  1.2633
 6727SOL     OW25310   0.917   9.458   0.724  0.1917  0.1827  0.1025
 6727SOL    HW125311   0.838   9.412   0.695 -0.4770  0.8664  0.8088
 6727SOL    HW225312   0.896   9.488   0.813  0.8752  1.2318 -0.0782
 6728SOL     OW25313   7.797  10.214   7.117 -0.3741 -0.5339  0.4291
 6728SOL    HW125314   7.753  10.130   7.129 -2.0101  0.0110 -1.4693
 6728SOL    HW225315   7.882  10.203   7.160 -0.2910 -3.3809 -0.3746
 6729SOL     OW25316  10.534   5.526  10.679 -0.0791 -0.1139 -0.4403
 6729SOL    HW125317  10.575   5.595  10.731 -2.8122 -0.8932  2.9251
 6729SOL    HW225318  10.446   5.558  10.661 -0.0825 -1.0688 -2.3459
 6730SOL     OW25319   1.946   0.364   7.063  0.2102 -0.1574 -0.2222
 6730SOL    HW125320   2.040   0.364   7.048  0.1920 -0.7341 -0.3510
 6730SOL    HW225321   1.925   0.455   7.084  0.6855  0.0973 -0.8476
 6731SOL     OW25322  10.829   8.871  11.191  0.8304  0.1218  0.4971
 6731SOL    HW125323  10.809   8.783  11.222  1.3038 -0.9346 -2.0906
 6731SOL    HW225324  10.900   8.859  11.129 -1.9133  1.7565 -3.1389
 6732SOL     OW25325   0.671   8.170   5.324  0.2451 -0.3484  0.0237
 6732SOL    HW125326   0.593   8.123   5.297 -0.6525  1.0053  0.1901
 6732SOL    HW225327   0.649   8.206   5.411  1.1411 -0.1776  0.1925
 6733SOL     OW25328   4.187   1.951   7.749 -0.2230 -0.0259  0.2809
 6733SOL    HW125329   4.259   1.901   7.786  1.3890  2.0485  0.0298
 6733SOL    HW225330   4.118   1.945   7.815 -0.1341 -2.6301  0.1932
 6734SOL     OW25331   0.576   6.372   3.711  0.3802  0.2142 -0.1382
 6734SOL    HW125332   0.582   6.285   3.671 -3.1632 -0.5631  0.8724
 6734SOL    HW225333   0.556   6.430   3.638  1.3346 -0.0152 -0.5947
 6735SOL     OW25334   9.376   7.661   3.086  0.0443  0.9166 -0.0785
 6735SOL    HW125335   9.404   7.572   3.067  0.6535  1.5422 -2.3025
 6735SOL    HW225336   9.416   7.714   3.016 -2.1568  2.6026 -0.1134
 6736SOL     OW25337   1.647   7.298   9.058  0.1615 -0.7801 -0.3386
 6736SOL    HW125338   1.655   7.390   9.084  0.5779 -1.6919  3.0283
 6736SOL    HW225339   1.595   7.300   8.977  0.4794  2.4123 -0.5232
 6737SOL     OW25340   7.146   6.080   5.166  0.0179 -0.1533  0.8209
 6737SOL    HW125341   7.229   6.110   5.204 -0.8060  0.6729  1.9960
 6737SOL    HW225342   7.129   6.140   5.094  0.2848 -0.1250  0.7833
 6738SOL     OW25343  11.115   4.910   3.123  0.0220  0.0102  0.0794
 6738SOL    HW125344  11.163   4.828   3.115  0.0255 -0.1242  1.3556
 6738SOL    HW225345  11.167   4.973   3.074  0.8869 -0.3967  0.4514
 6739SOL     OW25346   0.678   7.881  10.068  0.1206 -0.1131  0.2189
 6739SOL    HW125347   0.604   7.912  10.122 -0.8843 -0.6371 -0.8426
 6739SOL    HW225348   0.641   7.872   9.980  1.6764  0.4249 -0.4994
 6740SOL     OW25349  10.949   3.939   2.641  0.5170  0.0660 -0.3360
 6740SOL    HW125350  11.004   3.867   2.671  1.8898  1.8035  1.4543
 6740SOL    HW225351  10.976   4.014   2.694 -3.0686  1.1647  0.0574
 6741SOL     OW25352   2.854   6.121   2.652  0.0004  0.0002 -0.6538
 6741SOL    HW125353   2.854   6.055   2.721 -1.5784 -0.0943 -0.7149
 6741SOL    HW225354   2.934   6.105   2.602  1.7663  0.7771  1.8010
 6742SOL     OW25355   1.795   4.335   7.895 -0.6226 -0.4781  0.2945
 6742SOL    HW125356   1.714   4.385   7.898 -0.7761 -0.6987 -0.0800
 6742SOL    HW225357   1.780   4.269   7.827 -0.1658 -0.5781  0.2854
 6743SOL     OW25358   9.637   1.819   7.550  0.5379 -0.2843  0.1223
 6743SOL    HW125359   9.651   1.733   7.512  0.0134 -1.0013  1.5174
 6743SOL    HW225360   9.722   1.844   7.586  1.2366  0.7456 -2.1865
 6744SOL     OW25361   8.790   0.284   9.864  0.2085  0.4211 -0.2646
 6744SOL    HW125362   8.868   0.231   9.879 -0.6793 -0.8616 -0.1662
 6744SOL    HW225363   8.824   0.367   9.829  1.4916 -0.6625 -1.6128
 6745SOL     OW25364  10.796   8.692   9.005 -0.7262  0.3126 -0.4027
 6745SOL    HW125365  10.738   8.646   9.066  1.1556 -0.8256  0.5551
 6745SOL    HW225366  10.855   8.743   9.060 -0.4749  1.0813 -1.3604
 6746SOL     OW25367   8.106   3.038   4.137 -0.1289  0.5898  1.0230
 6746SOL    HW125368   8.106   3.010   4.045  1.9236  3.2107  0.1514
 6746SOL    HW225369   8.053   3.117   4.138 -0.8373  0.1026  2.2700
 6747SOL     OW25370   2.803  11.210   5.652  0.1065 -0.2751 -0.3859
 6747SOL    HW125371   2.886  11.165   5.667 -0.2549 -0.7064  0.3629
 6747SOL    HW225372   2.771  11.230   5.740 -0.1308  0.7231 -0.6917
 6748SOL     OW25373   4.982   3.230   1.546  0.3648  0.5350  0.1304
 6748SOL    HW125374   4.887   3.247   1.547  0.8169  3.2013  0.4157
 6748SOL    HW225375   4.991   3.143   1.584 -1.9139  0.5693  0.8216
 6749SOL     OW25376   0.221   7.079   5.769  0.2772 -0.4676  0.1238
 6749SOL    HW125377   0.201   7.146   5.835 -0.9338  0.1253 -0.8301
 6749SOL    HW225378   0.310   7.051   5.790  0.5382  0.9336  0.9612
 6750SOL     OW25379   4.592  11.009   1.715  0.3138 -0.1280 -0.0394
 6750SOL    HW125380   4.663  10.950   1.690 -0.6157 -0.9675 -0.7090
 6750SOL    HW225381   4.575  10.988   1.807  0.2245 -0.6630 -0.1765
 6751SOL     OW25382   8.652   1.963   3.531  0.3472 -0.6218 -0.2002
 6751SOL    HW125383   8.599   1.938   3.455 -1.5484  2.2977  0.0855
 6751SOL    HW225384   8.681   2.052   3.512 -0.9685  0.5321  2.8574
 6752SOL     OW25385  10.946   5.570   3.944 -0.1219  0.1474 -0.1087
 6752SOL    HW125386  11.030   5.591   3.985  0.3059 -0.1474 -0.8190
 6752SOL    HW225387  10.960   5.588   3.851  0.0652 -2.6426 -0.6698
 6753SOL     OW25388   2.283   5.418  10.909  0.7403  0.3075 -0.3753
 6753SOL    HW125389   2.336   5.461  10.841  2.5445 -1.1475  0.0644
 6753SOL    HW225390   2.300   5.324  10.897  1.2628  0.0226  2.1888
 6754SOL     OW25391   6.502   3.323   4.735 -0.1255  0.2341  0.4828
 6754SOL    HW125392   6.527   3.375   4.812 -1.5671 -0.1987  1.2663
 6754SOL    HW225393   6.579   3.325   4.679  1.6745 -1.0574  2.8111
 6755SOL     OW25394   0.610   2.112   1.324  0.3080 -0.4790  0.2572
 6755SOL    HW125395   0.586   2.198   1.358 -2.8670 -0.2446 -2.2820
 6755SOL    HW225396   0.705   2.115   1.313  0.4136  2.1446  1.6555
 6756SOL     OW25397   7.268   5.587   1.436 -0.5784 -0.3056 -0.0097
 6756SOL    HW125398   7.224   5.624   1.359 -0.0705 -1.0318 -0.6506
 6756SOL    HW225399   7.361   5.584   1.411  0.1733  2.9721  2.0026
 6757SOL     OW25400   4.773  10.804   1.683 -0.6715  0.4332  0.0089
 6757SOL    HW125401   4.868  10.818   1.682 -0.8507  1.6678 -1.0310
 6757SOL    HW225402   4.760  10.736   1.749  0.8966  0.5482  0.4683
 6758SOL     OW25403   6.052   6.226   2.883  0.0473  0.0355  0.9569
 6758SOL    HW125404   6.025   6.178   2.805 -0.1478  0.5867  0.6807
 6758SOL    HW225405   6.047   6.318   2.857  1.3200  0.1781  1.1819
 6759SOL     OW25406   4.288   6.864  10.456 -0.4849 -0.0633 -0.0008
 6759SOL    HW125407   4.379   6.839  10.440 -0.3867 -0.7859  1.5842
 6759SOL    HW225408   4.245   6.855  10.371  0.7684 -0.3867 -0.6072
 6760SOL     OW25409   9.190   5.401  10.239 -0.6262 -0.0562 -0.5288
 6760SOL    HW125410   9.258   5.460  10.272  0.4588 -1.7674  0.3463
 6760SOL    HW225411   9.224   5.370  10.155 -0.5112 -0.5662 -0.2978
 6761SOL     OW25412   0.241   9.794   2.347  0.2065 -0.0221  0.0604
 6761SOL    HW125413   0.237   9.703   2.376 -2.7015 -0.1422 -0.5841
 6761SOL    HW225414   0.235   9.790   2.252 -2.3709  0.8964  0.1332
 6762SOL     OW25415  11.275   8.656   2.456  0.7722  0.4329  0.1319
 6762SOL    HW125416  11.338   8.726   2.440 -0.1520  1.0998 -0.7181
 6762SOL    HW225417  11.255   8.621   2.369  1.6530 -1.2832  0.6035
 6763SOL     OW25418   7.053   0.840   0.279 -0.1233  0.2034  0.4892
 6763SOL    HW125419   6.976   0.847   0.335 -0.0058 -0.8172  0.7912
 6763SOL    HW225420   7.127   0.842   0.340 -0.0102 -1.3211  0.4198
 6764SOL     OW25421   6.615   5.683   9.447  0.2100 -0.3688 -0.0856
 6764SOL    HW125422   6.649   5.724   9.525 -1.1517  0.1208  0.2645
 6764SOL    HW225423   6.692   5.648   9.402  0.9705 -0.8928  1.5964
 6765SOL     OW25424   8.042   6.293   2.408 -0.1765  0.3563 -0.4506
 6765SOL    HW125425   8.028   6.382   2.441  0.4783  1.1398 -2.2105
 6765SOL    HW225426   7.957   6.250   2.420 -1.0191  1.7710 -1.2023
 6766SOL     OW25427   8.103   3.263   7.070 -0.3984 -0.1130 -0.1502
 6766SOL    HW125428   8.081   3.335   7.129 -2.1850  0.3055 -1.3135
 6766SOL    HW225429   8.170   3.214   7.118  0.4505  1.9903  0.8891
 6767SOL     OW25430   2.575   3.841   7.840 -0.0751 -0.0737  0.2503
 6767SOL    HW125431   2.585   3.900   7.915 -1.4607 -0.0340  0.4145
 6767SOL    HW225432   2.496   3.872   7.795  0.1552 -0.7478 -0.6365
 6768SOL     OW25433   8.994   4.307   4.535  0.0804  0.2035 -0.0901
 6768SOL    HW125434   9.068   4.260   4.497 -0.4432 -0.8906  0.1992
 6768SOL    HW225435   9.028   4.345   4.616  1.0583  2.0949 -1.3576
 6769SOL     OW25436   2.111   1.271   0.510 -0.0378 -0.4226 -0.0221
 6769SOL    HW125437   2.095   1.251   0.418 -0.5765 -3.1148  0.5979
 6769SOL    HW225438   2.206   1.270   0.519 -0.0101 -1.4993 -0.3127
 6770SOL     OW25439   7.537   4.164   8.601  0.2715 -0.0801  0.1691
 6770SOL    HW125440   7.511   4.164   8.693 -0.1840 -0.8951  0.0415
 6770SOL    HW225441   7.456   4.142   8.554  0.1856  1.5975 -0.5167
 6771SOL     OW25442   1.490   1.930   2.092  0.0875  0.1052  0.0790
 6771SOL    HW125443   1.504   1.985   2.014  0.1418  0.7644  0.5555
 6771SOL    HW225444   1.579   1.910   2.122  0.0704 -0.4096 -0.2089
 6772SOL     OW25445   2.666   1.070  11.161 -0.1046  0.3729  0.3553
 6772SOL    HW125446   2.581   1.074  11.205 -0.5846  1.1549 -0.6248
 6772SOL    HW225447   2.663   0.988  11.111 -0.8609  1.1081 -0.8222
 6773SOL     OW25448   4.792   1.725   3.326  0.3410 -0.1319  0.8533
 6773SOL    HW125449   4.827   1.776   3.399 -0.4038  2.3758 -0.4534
 6773SOL    HW225450   4.702   1.755   3.316  0.2641 -0.8173 -0.7390
 6774SOL     OW25451   1.674   0.422   0.071  0.5063  1.1471  0.1393
 6774SOL    HW125452   1.599   0.480   0.081  0.1402  0.4125  1.7827
 6774SOL    HW225453   1.640   0.335   0.092  1.7311  0.7501  0.5222
 6775SOL     OW25454   9.220   2.608   9.085 -0.2717  0.4719 -0.6319
 6775SOL    HW125455   9.209   2.584   8.993 -1.4901 -0.1309 -0.3413
 6775SOL    HW225456   9.268   2.535   9.123 -0.3358  0.4190 -0.6522
 6776SOL     OW25457   7.952   9.241   7.271 -0.4345  0.1263  0.1403
 6776SOL    HW125458   7.997   9.163   7.238 -0.5481  0.6651 -1.3289
 6776SOL    HW225459   7.989   9.255   7.358 -1.0042 -2.0453  0.7667
 6777SOL     OW25460   6.894  10.547  10.706 -0.2190 -0.0442 -0.0560
 6777SOL    HW125461   6.939  10.587  10.780  0.7820  2.3282 -1.9080
 6777SOL    HW225462   6.942  10.466  10.691  2.0321  1.3364 -0.5506
 6778SOL     OW25463   6.874   2.773  10.399  0.4924 -0.0546  0.5516
 6778SOL    HW125464   6.799   2.825  10.372  1.1901  1.8436  2.1314
 6778SOL    HW225465   6.950   2.819  10.361  1.0170 -0.8165  0.6578
 6779SOL     OW25466   6.116   3.212   7.471  0.6643 -0.3163  0.1859
 6779SOL    HW125467   6.119   3.306   7.451 -1.5843 -0.0775  0.7919
 6779SOL    HW225468   6.123   3.168   7.386  0.4684  0.4393 -0.2255
 6780SOL     OW25469   4.402   8.437   8.989 -0.3947 -0.5733  0.2905
 6780SOL    HW125470   4.364   8.455   8.903  0.4245 -0.2229 -0.0123
 6780SOL    HW225471   4.365   8.353   9.015  0.0337 -1.1206 -0.8174
 6781SOL     OW25472   2.107   5.839   5.841 -0.7515  0.1969 -0.2412
 6781SOL    HW125473   2.199   5.846   5.815 -0.5021 -1.3445  0.1919
 6781SOL    HW225474   2.066   5.917   5.803  0.7499  0.9713 -0.3323
 6782SOL     OW25475   3.277   0.016   9.679 -0.4559  0.0610 -0.2157
 6782SOL    HW125476   3.277  -0.059   9.739 -0.5914 -0.4460 -0.8474
 6782SOL    HW225477   3.366   0.018   9.643 -0.8039 -0.5382 -1.1202
 6783SOL     OW25478   6.411   1.565   0.401 -0.7709  0.0247  0.3973
 6783SOL    HW125479   6.366   1.637   0.445 -0.5099  1.0181 -0.9338
 6783SOL    HW225480   6.341   1.513   0.363 -0.9225  0.1004  0.5705
 6784SOL     OW25481   7.559   2.846   9.706  0.2239  0.0650 -0.1628
 6784SOL    HW125482   7.639   2.881   9.746 -0.2943  0.4083  0.5938
 6784SOL    HW225483   7.497   2.920   9.710  0.4583  0.4024 -2.4553
 6785SOL     OW25484   4.979   2.343   2.585 -0.2310  0.1216  0.4293
 6785SOL    HW125485   5.068   2.366   2.558  0.0484  2.1037  2.8250
 6785SOL    HW225486   4.951   2.416   2.641 -2.7964 -1.1852  0.9526
 6786SOL     OW25487   3.488   7.077   2.995  0.1887 -0.1132  0.0475
 6786SOL    HW125488   3.583   7.078   2.982  0.2682 -1.0395  0.4984
 6786SOL    HW225489   3.451   7.070   2.907  0.5615 -0.4220 -0.0838
 6787SOL     OW25490   8.034   2.059   9.111  0.7518 -0.2805 -0.0804
 6787SOL    HW125491   7.954   2.056   9.058 -0.7868 -0.3132  2.2132
 6787SOL    HW225492   8.042   2.151   9.136  1.1227 -0.3767  0.1461
 6788SOL     OW25493  10.060   7.605   7.761  0.2723 -0.0713  0.2626
 6788SOL    HW125494  10.008   7.663   7.816 -1.0340 -1.2466  0.3029
 6788SOL    HW225495  10.003   7.587   7.686  1.8253  1.0973 -1.2248
 6789SOL     OW25496   5.734   8.389   4.842  0.3383  0.1989 -0.0075
 6789SOL    HW125497   5.725   8.479   4.875  0.3853 -0.1333  0.9380
 6789SOL    HW225498   5.760   8.400   4.751 -0.7074  1.1511 -0.2151
 6790SOL     OW25499  11.156   5.955   4.920  0.3738 -0.3158 -0.1116
 6790SOL    HW125500  11.077   5.908   4.947  1.4238 -2.0078  0.0751
 6790SOL    HW225501  11.228   5.896   4.943  1.7682  1.6405  0.6595
 6791SOL     OW25502   6.264   2.866   0.060 -0.3566 -0.0172 -0.4602
 6791SOL    HW125503   6.264   2.776   0.091 -1.4554 -0.2513 -1.1444
 6791SOL    HW225504   6.251   2.919   0.139  1.1882 -0.4035  0.0659
 6792SOL     OW25505   8.545  10.013   2.516  0.6978 -0.5803  0.3501
 6792SOL    HW125506   8.484  10.014   2.443  0.4200  0.7088  0.5909
 6792SOL    HW225507   8.630   9.991   2.477  0.2810 -1.3673 -0.1288
 6793SOL     OW25508   4.416   0.041  10.593 -0.1729 -0.5108  0.1035
 6793SOL    HW125509   4.338   0.015  10.545  0.4182  2.2644 -2.5774
 6793SOL    HW225510   4.477   0.069  10.524  2.8787 -1.8008  2.1815
 6794SOL     OW25511   2.653   4.784   9.499 -0.0173  0.1153  0.3112
 6794SOL    HW125512   2.560   4.792   9.475  0.2866  0.2997 -0.8477
 6794SOL    HW225513   2.670   4.690   9.494  0.7885  0.3562 -3.2497
 6795SOL     OW25514   6.339   4.416  10.913 -0.2744  0.3110  0.1698
 6795SOL    HW125515   6.341   4.488  10.851  0.5277  0.4187  0.3190
 6795SOL    HW225516   6.415   4.429  10.969  0.4785 -1.2099 -0.4514
 6796SOL     OW25517   7.690   1.803   5.400  0.1364  0.9121 -0.2244
 6796SOL    HW125518   7.722   1.852   5.325  2.5258 -1.2411 -0.6781
 6796SOL    HW225519   7.650   1.725   5.361 -0.6734  0.8843  0.6504
 6797SOL     OW25520   9.382   0.522   7.422 -0.4536  0.3105 -0.0423
 6797SOL    HW125521   9.320   0.588   7.391 -0.4757 -0.4751 -1.7572
 6797SOL    HW225522   9.333   0.440   7.419  0.3209 -0.1497 -0.3235
 6798SOL     OW25523   8.567   1.845   0.944 -0.0590  0.3612 -0.0422
 6798SOL    HW125524   8.553   1.882   0.856  0.9823  0.6221 -0.0952
 6798SOL    HW225525   8.626   1.907   0.987  1.0750 -0.8315  0.1324
 6799SOL     OW25526   1.071   3.903   8.619 -0.4087  0.5243  0.5031
 6799SOL    HW125527   1.066   3.816   8.581  0.5934  0.3311  0.8085
 6799SOL    HW225528   1.076   3.963   8.544 -2.6170  0.4346  0.2582
 6800SOL     OW25529   3.337   8.564   7.767  0.1196  0.5912  0.0594
 6800SOL    HW125530   3.420   8.567   7.719 -0.0934  1.0127 -0.2917
 6800SOL    HW225531   3.334   8.477   7.805  0.4928  0.4008 -0.3433
 6801SOL     OW25532   7.610   5.097   2.107  0.2606 -0.0807  0.0532
 6801SOL    HW125533   7.600   5.175   2.162 -1.3584 -0.2796  0.0590
 6801SOL    HW225534   7.537   5.101   2.046  2.2155  0.2999 -2.3146
 6802SOL     OW25535   5.480   1.275   5.502  0.0436 -0.8152 -0.1183
 6802SOL    HW125536   5.440   1.272   5.416 -0.9990  1.2671  0.2436
 6802SOL    HW225537   5.411   1.307   5.560  1.1465 -0.7637  1.2177
 6803SOL     OW25538   8.569   7.327   6.839  0.2581 -0.0917 -0.0269
 6803SOL    HW125539   8.553   7.249   6.892 -0.1622 -0.6899 -1.0204
 6803SOL    HW225540   8.554   7.298   6.749  0.4422  1.0490 -0.4299
 6804SOL     OW25541   1.234   6.755   5.464  0.3346  0.0608 -0.3983
 6804SOL    HW125542   1.230   6.677   5.408 -0.2041  0.2544 -0.6290
 6804SOL    HW225543   1.281   6.820   5.412  0.1843  0.1110 -0.4714
 6805SOL     OW25544   0.935   0.561   4.713 -0.3528  0.3360  0.1318
 6805SOL    HW125545   0.944   0.649   4.679 -0.2831  0.1102 -0.4378
 6805SOL    HW225546   0.872   0.518   4.654  0.1227 -0.1948 -0.0004
 6806SOL     OW25547  10.868   4.253   0.843  0.3443 -0.1097  0.0813
 6806SOL    HW125548  10.896   4.163   0.861 -1.9221 -0.8221  0.2103
 6806SOL    HW225549  10.949   4.299   0.820  1.4449 -2.3584 -0.7327
 6807SOL     OW25550   8.113   9.009   1.161  0.0815  0.1154 -0.4263
 6807SOL    HW125551   8.079   8.947   1.097  0.4686 -0.9036  0.3535
 6807SOL    HW225552   8.183   8.962   1.205 -0.7516  0.5050  1.3439
 6808SOL     OW25553  10.740   1.809   9.039  0.1878 -0.5542  0.0818
 6808SOL    HW125554  10.827   1.847   9.033  0.0575 -0.2466  0.1101
 6808SOL    HW225555  10.727   1.763   8.956  0.7666 -1.4473  0.4700
 6809SOL     OW25556   4.304   8.345   9.638 -0.1143 -0.2969  0.3109
 6809SOL    HW125557   4.231   8.339   9.699 -1.9296  2.5605 -1.4530
 6809SOL    HW225558   4.327   8.438   9.638  0.6039 -0.4294 -2.4540
 6810SOL     OW25559   8.538   4.553   7.479  0.5684 -0.3526  0.2075
 6810SOL    HW125560   8.504   4.589   7.397  1.4798  0.1877  0.0544
 6810SOL    HW225561   8.620   4.511   7.454  0.5877 -0.6418  0.7572
 6811SOL     OW25562   6.403  10.214   5.776  0.4290  0.4436  0.0928
 6811SOL    HW125563   6.325  10.262   5.747  0.6875  0.5491 -0.4300
 6811SOL    HW225564   6.371  10.157   5.846 -0.5726 -1.0631 -1.5440
 6812SOL     OW25565   8.554   2.022   1.318 -0.3725 -0.1527  0.7110
 6812SOL    HW125566   8.496   1.948   1.302 -0.9137  0.4088  0.0902
 6812SOL    HW225567   8.630   2.006   1.262 -1.5031  0.9343 -1.1425
 6813SOL     OW25568   3.269   8.744   1.865 -0.3362 -0.5849 -0.2596
 6813SOL    HW125569   3.258   8.732   1.771 -0.8769 -2.6517  0.0222
 6813SOL    HW225570   3.231   8.664   1.904 -0.9405  0.6315  1.7514
 6814SOL     OW25571   3.169  11.099   9.533 -0.5572 -0.1002 -0.2030
 6814SOL    HW125572   3.074  11.114   9.529 -0.4333  0.2753 -2.2279
 6814SOL    HW225573   3.196  11.135   9.617 -2.0259  0.8998 -0.1497
 6815SOL     OW25574   7.380   1.657   3.105  0.2312 -0.3688 -0.5997
 6815SOL    HW125575   7.321   1.585   3.085 -0.7180  0.6896 -1.7358
 6815SOL    HW225576   7.468   1.619   3.102 -0.3386 -1.7547  0.1676
 6816SOL     OW25577   2.198   8.861   3.995  0.1835  0.1380  0.4075
 6816SOL    HW125578   2.288   8.832   4.010  0.6580  2.7476  3.3215
 6816SOL    HW225579   2.201   8.956   4.008 -2.7244  0.4959 -0.9756
 6817SOL     OW25580  10.213   2.322   6.493 -0.4879  0.2760 -0.1815
 6817SOL    HW125581  10.280   2.255   6.481 -0.3897  0.1428  1.0851
 6817SOL    HW225582  10.241   2.394   6.436  0.4830  0.0518  0.0085
 6818SOL     OW25583  10.950   9.194   1.323 -0.0730 -0.1272  0.5688
 6818SOL    HW125584  11.028   9.171   1.373  0.8184 -0.9848 -1.1488
 6818SOL    HW225585  10.922   9.111   1.283 -0.5740  0.5884 -0.5860
 6819SOL     OW25586   2.507   8.584   9.777  0.0859 -0.0879 -0.1820
 6819SOL    HW125587   2.508   8.654   9.843  1.0645 -1.1695  0.9721
 6819SOL    HW225588   2.421   8.592   9.735 -1.2959 -0.5052  2.4528
 6820SOL     OW25589   0.985   1.904   1.746 -0.2560  0.2034  0.3959
 6820SOL    HW125590   0.936   1.882   1.826 -0.0804  0.9416  0.7058
 6820SOL    HW225591   1.012   1.994   1.758  2.2326 -0.5592  0.7737
 6821SOL     OW25592   8.126   4.821  10.979 -0.2718 -0.1994  0.0452
 6821SOL    HW125593   8.152   4.820  10.887 -1.2692 -0.0209 -0.2470
 6821SOL    HW225594   8.208   4.830  11.027  0.2229  0.0905 -0.8428
 6822SOL     OW25595   4.016   1.944   7.972 -0.3278 -0.2931  0.4464
 6822SOL    HW125596   3.931   1.935   7.929 -0.5251  1.6939  0.3788
 6822SOL    HW225597   3.998   1.994   8.051  1.0171  1.7508 -0.4875
 6823SOL     OW25598   5.418   5.984   3.592  0.2008 -0.1480  0.3938
 6823SOL    HW125599   5.376   5.960   3.509  1.2516  0.4220 -0.3241
 6823SOL    HW225600   5.352   5.966   3.658  0.0236 -2.4913 -0.3586
 6824SOL     OW25601   4.511   3.057   0.443  0.3055 -0.2486  0.9322
 6824SOL    HW125602   4.552   3.111   0.510 -1.3231  2.4412 -0.1371
 6824SOL    HW225603   4.425   3.097   0.430 -0.1894 -1.9399 -1.3163
 6825SOL     OW25604   7.998   0.971   9.177 -0.0690  0.4568 -0.3907
 6825SOL    HW125605   7.906   0.966   9.148 -1.1515  0.8517  2.7566
 6825SOL    HW225606   8.025   1.059   9.153 -1.0597  0.9095  0.1054
 6826SOL     OW25607   7.692   3.726  10.073  0.2089  0.6374 -0.0718
 6826SOL    HW125608   7.674   3.731  10.166  0.1110  1.1469 -0.1164
 6826SOL    HW225609   7.639   3.796  10.034  0.0902  0.2962 -0.5304
 6827SOL     OW25610   8.046   2.540   5.324 -0.1414  0.1322  0.3827
 6827SOL    HW125611   8.115   2.561   5.261  0.8807 -1.7304  0.8260
 6827SOL    HW225612   8.089   2.481   5.387 -2.2612 -1.3832  0.4374
 6828SOL     OW25613   4.979   0.091   5.653 -0.0295 -0.2127  0.2751
 6828SOL    HW125614   5.040   0.134   5.712  0.5802 -1.0508  0.2476
 6828SOL    HW225615   4.945   0.163   5.598  0.6875  0.2940  0.4888
 6829SOL     OW25616   4.862   6.374   5.452  0.0233 -0.6023 -0.3338
 6829SOL    HW125617   4.857   6.425   5.533  0.4429  0.6657 -1.0928
 6829SOL    HW225618   4.774   6.377   5.415 -0.2248 -1.3675  0.1700
 6830SOL     OW25619   1.401   9.735  10.192  0.1750 -0.5677 -0.2959
 6830SOL    HW125620   1.460   9.735  10.117  1.8982  1.5458  1.0025
 6830SOL    HW225621   1.319   9.771  10.158  1.0965  0.8448 -1.0720
 6831SOL     OW25622   7.588   5.478   0.276  0.1603 -0.3546  0.4661
 6831SOL    HW125623   7.511   5.533   0.261 -0.8216 -1.9196 -0.3428
 6831SOL    HW225624   7.657   5.519   0.225 -0.5708  0.1177 -0.1548
 6832SOL     OW25625  10.327   2.244   6.150  0.0164  0.4693 -0.0384
 6832SOL    HW125626  10.415   2.217   6.123  0.2691 -1.0082  2.1177
 6832SOL    HW225627  10.277   2.163   6.155 -1.7998  1.3960 -2.2167
 6833SOL     OW25628  10.935   4.189   6.017 -0.1902 -0.0095  0.1951
 6833SOL    HW125629  10.995   4.264   6.008  1.1228 -1.4164 -3.8467
 6833SOL    HW225630  10.992   4.117   6.044 -0.3055 -1.0043 -2.1729
 6834SOL     OW25631   4.323   2.840   1.575 -0.1294  0.2119 -0.1571
 6834SOL    HW125632   4.375   2.816   1.499 -0.1497  0.5378 -0.2753
 6834SOL    HW225633   4.386   2.843   1.647 -0.2416 -0.8554 -0.0053
 6835SOL     OW25634  10.079  10.166   8.400 -0.0588 -0.0194 -0.3171
 6835SOL    HW125635  10.015  10.096   8.412  0.6093 -0.8231 -1.2923
 6835SOL    HW225636  10.161  10.130   8.432  0.6406 -0.3137 -2.3494
 6836SOL     OW25637   3.480   7.552   1.029 -0.0129  0.0668 -0.3486
 6836SOL    HW125638   3.388   7.531   1.045 -0.2854  1.0419 -0.6104
 6836SOL    HW225639   3.515   7.475   0.985 -0.5670 -0.5291  0.2379
 6837SOL     OW25640   0.446   2.853   6.228  0.3754 -0.1133  0.3241
 6837SOL    HW125641   0.499   2.868   6.306  0.8872 -0.8829  0.1278
 6837SOL    HW225642   0.509   2.833   6.159 -0.1227 -0.2847 -0.0910
 6838SOL     OW25643   0.788   6.349   8.623 -0.0248  0.0171  0.6280
 6838SOL    HW125644   0.790   6.312   8.712 -1.8893  1.4286  1.2852
 6838SOL    HW225645   0.795   6.273   8.565 -1.9466 -1.2093  1.9704
 6839SOL     OW25646   4.177   9.748   0.728  0.1677 -0.7058 -0.2092
 6839SOL    HW125647   4.206   9.663   0.695 -0.2950 -0.7109 -0.5924
 6839SOL    HW225648   4.107   9.727   0.790  0.4428 -0.6393  0.1276
 6840SOL     OW25649   6.806   4.841   9.003 -0.8337  0.5551  0.4888
 6840SOL    HW125650   6.785   4.846   8.910  0.0693 -0.5816  0.2147
 6840SOL    HW225651   6.721   4.847   9.047 -1.2883  0.8052 -0.4092
 6841SOL     OW25652   8.478   3.494   5.235  0.0474 -0.5426 -0.0091
 6841SOL    HW125653   8.445   3.509   5.147 -1.0184  0.4662  0.5579
 6841SOL    HW225654   8.403   3.460   5.284  0.3416 -0.0377  0.8024
 6842SOL     OW25655   5.807   6.137   7.704  0.1135  0.2608 -0.0937
 6842SOL    HW125656   5.847   6.131   7.790 -1.1073  2.9107  0.7007
 6842SOL    HW225657   5.725   6.088   7.712  0.1799  0.1898  0.1449
 6843SOL     OW25658   9.403   4.654   7.747 -0.5825 -0.6282 -0.2358
 6843SOL    HW125659   9.486   4.673   7.705 -0.8920  0.3103 -0.4321
 6843SOL    HW225660   9.343   4.633   7.675 -0.7247 -0.5012 -0.1557
 6844SOL     OW25661   1.283  10.123   7.300  0.1301 -0.1130 -0.3793
 6844SOL    HW125662   1.373  10.143   7.277 -0.0251  0.8417 -0.1876
 6844SOL    HW225663   1.240  10.209   7.306 -0.3674 -0.4482  1.2324
 6845SOL     OW25664   4.563   5.504   3.285  0.2030  0.1837 -0.0266
 6845SOL    HW125665   4.600   5.463   3.363  1.3190 -0.2602 -0.7809
 6845SOL    HW225666   4.495   5.443   3.256  0.7104 -0.3078 -0.1786
 6846SOL     OW25667   8.783  10.252   2.293  0.1164 -0.1177 -0.6235
 6846SOL    HW125668   8.718  10.318   2.267  0.5848  0.9362  0.8499
 6846SOL    HW225669   8.853  10.302   2.334  1.4668 -1.3395 -1.3938
 6847SOL     OW25670   5.052   7.585   2.892  0.1553 -0.4199  0.0362
 6847SOL    HW125671   5.097   7.646   2.951  0.0885 -0.3182 -0.0193
 6847SOL    HW225672   5.059   7.500   2.936  1.2394 -0.5817 -0.4212
 6848SOL     OW25673  10.164   9.382   9.576 -0.5849  0.0928  0.3039
 6848SOL    HW125674  10.227   9.437   9.530 -1.3121  1.7365  1.2262
 6848SOL    HW225675  10.136   9.435   9.651 -2.3063 -1.0054  0.4602
 6849SOL     OW25676   5.144   2.199   1.331  0.3951 -0.5936 -0.6752
 6849SOL    HW125677   5.068   2.146   1.355  0.6282 -0.2886  0.7817
 6849SOL    HW225678   5.219   2.145   1.356  0.6308  0.5907  1.2585
 6850SOL     OW25679   8.827   1.547  10.298 -0.0841  0.5189  0.0419
 6850SOL    HW125680   8.780   1.464  10.299 -0.0553  0.4925 -0.5318
 6850SOL    HW225681   8.860   1.554  10.209 -0.7968  1.5532 -0.1436
 6851SOL     OW25682   9.702   2.993   6.154 -0.8538 -0.1448  0.1436
 6851SOL    HW125683   9.738   3.044   6.082  1.5362 -0.6110  0.9455
 6851SOL    HW225684   9.733   2.904   6.139 -1.1293 -0.4369  1.2104
 6852SOL     OW25685   1.082   4.640   4.378 -0.4939  0.3429  0.2544
 6852SOL    HW125686   1.157   4.619   4.432 -0.6299 -0.7373  0.0413
 6852SOL    HW225687   1.009   4.649   4.439 -0.6913 -1.0847  0.2598
 6853SOL     OW25688   9.432   6.650   6.538 -0.0912  0.7522  0.4104
 6853SOL    HW125689   9.363   6.692   6.488  0.1358 -0.1880 -0.6961
 6853SOL    HW225690   9.485   6.722   6.572 -0.7194  1.4099 -0.0145
 6854SOL     OW25691   7.326   2.026   3.667 -0.3363  0.1683  0.4547
 6854SOL    HW125692   7.247   2.024   3.614 -0.1020  0.9530  0.0681
 6854SOL    HW225693   7.337   1.936   3.698 -0.8001 -0.1671 -0.3433
 6855SOL     OW25694   6.935   5.752   5.102  0.0638  0.0904  0.4445
 6855SOL    HW125695   6.903   5.826   5.050  3.4787  1.6172  0.4005
 6855SOL    HW225696   6.936   5.784   5.192 -3.2479 -1.6564  1.1887
 6856SOL     OW25697   1.604   1.839   3.277 -0.6419 -0.7784 -0.1802
 6856SOL    HW125698   1.633   1.927   3.300 -0.1793 -1.0913  0.4629
 6856SOL    HW225699   1.519   1.829   3.320 -0.7229 -0.6252 -0.3045
 6857SOL     OW25700   3.188   6.088   2.120  0.2160  0.3922 -0.7196
 6857SOL    HW125701   3.221   6.111   2.207 -0.2887  0.1420 -0.4546
 6857SOL    HW225702   3.263   6.052   2.074  0.0805 -1.1147  0.2192
 6858SOL     OW25703   9.303   0.096   4.129  0.1629 -0.0546 -0.0387
 6858SOL    HW125704   9.268   0.161   4.068  1.6921 -0.0927 -0.9583
 6858SOL    HW225705   9.338   0.148   4.202  0.6495  0.1039 -0.3887
 6859SOL     OW25706   0.689  10.332   2.940 -0.4803 -0.1904 -0.2841
 6859SOL    HW125707   0.649  10.419   2.930  1.0494  0.4134 -1.4137
 6859SOL    HW225708   0.673  10.309   3.031  0.5487  2.0133  0.4939
 6860SOL     OW25709   2.663   5.423   8.437  0.0418  0.3584  0.6332
 6860SOL    HW125710   2.612   5.500   8.415  0.7755  0.3643 -1.1369
 6860SOL    HW225711   2.600   5.351   8.438 -0.6818  0.9859  2.5187
 6861SOL     OW25712   3.491   0.058   5.317  0.5042 -0.3828 -0.2112
 6861SOL    HW125713   3.409   0.097   5.286  1.0408 -0.8034 -2.2420
 6861SOL    HW225714   3.557   0.089   5.255  1.1402 -3.6657 -1.2698
 6862SOL     OW25715  10.871   7.863   0.568 -0.3166 -0.2960  0.4299
 6862SOL    HW125716  10.891   7.837   0.657 -0.3804 -0.5417  0.3719
 6862SOL    HW225717  10.847   7.956   0.575  0.3601 -0.1348  0.5637
 6863SOL     OW25718   2.351   6.276   7.323  0.0893  0.8244  0.4000
 6863SOL    HW125719   2.293   6.265   7.247 -0.2889  1.4660  0.5871
 6863SOL    HW225720   2.422   6.215   7.307 -0.4061  0.3544 -0.0644
 6864SOL     OW25721   5.292   9.587   9.815  0.5277 -0.0012 -0.0166
 6864SOL    HW125722   5.240   9.516   9.853 -0.4908  0.1773 -1.0599
 6864SOL    HW225723   5.312   9.644   9.889 -1.7161  0.5098  0.2377
 6865SOL     OW25724  11.259   3.322  10.830  0.2324  0.1698 -0.9697
 6865SOL    HW125725  11.340   3.297  10.875 -1.5409 -0.9094  1.7743
 6865SOL    HW225726  11.251   3.260  10.758  2.0534  0.5839 -1.5622
 6866SOL     OW25727   0.820  10.121   0.536 -0.4158 -0.3211 -0.3815
 6866SOL    HW125728   0.885  10.150   0.471  0.1324 -0.9208 -0.1030
 6866SOL    HW225729   0.782  10.041   0.498 -2.0374  0.8149 -1.2207
 6867SOL     OW25730   9.970   3.127   5.634  0.1237  0.3659  0.3980
 6867SOL    HW125731  10.037   3.093   5.574 -0.9000 -0.1192 -0.4983
 6867SOL    HW225732  10.016   3.192   5.687  1.4270 -0.3313  0.1529
 6868SOL     OW25733   1.315   0.917   6.678  0.1590 -0.3526 -0.0822
 6868SOL    HW125734   1.379   0.897   6.746  1.0213  0.1581 -0.7283
 6868SOL    HW225735   1.242   0.858   6.695  0.7181 -0.8033  0.7841
 6869SOL     OW25736   8.215   9.069   7.007  0.3829  0.1798 -0.2559
 6869SOL    HW125737   8.209   9.113   6.923 -0.4824  0.3956 -0.0768
 6869SOL    HW225738   8.271   9.126   7.060 -2.0337  1.8907  0.5036
 6870SOL     OW25739  10.374   6.735   0.906 -0.1538  0.0550  0.2238
 6870SOL    HW125740  10.426   6.666   0.865  1.4055  0.7438  1.0301
 6870SOL    HW225741  10.298   6.689   0.942  0.0975 -1.0158 -0.5857
 6871SOL     OW25742   7.363   1.503   4.777 -0.1314  0.0572 -0.4844
 6871SOL    HW125743   7.381   1.483   4.685  0.1513 -2.5927  0.0990
 6871SOL    HW225744   7.435   1.561   4.803  0.4750 -0.1637 -1.6158
 6872SOL     OW25745  10.940   5.292   3.901 -0.1509  0.1398 -0.1670
 6872SOL    HW125746  10.960   5.283   3.808 -1.9640 -0.1711 -0.5508
 6872SOL    HW225747  10.957   5.383   3.921 -1.0081  0.5254 -1.1398
 6873SOL     OW25748   8.571   7.517   9.147 -0.0824  0.2790  0.2862
 6873SOL    HW125749   8.636   7.478   9.089  0.6551  1.0157  0.5987
 6873SOL    HW225750   8.491   7.468   9.130  1.1168 -2.2196  1.5877
 6874SOL     OW25751  10.873  10.700   6.179  1.1902  0.2115  0.1387
 6874SOL    HW125752  10.934  10.680   6.108  1.8937  0.5718  0.6401
 6874SOL    HW225753  10.915  10.771   6.228  0.4871  0.2893  0.6381
 6875SOL     OW25754   8.549   8.471   6.444  0.2941  0.3039 -0.4518
 6875SOL    HW125755   8.570   8.550   6.395 -0.0912 -0.1370 -1.3321
 6875SOL    HW225756   8.539   8.403   6.378  1.5940 -0.7121  0.3586
 6876SOL     OW25757   7.691  10.771   7.753  0.1517  0.1841 -0.5797
 6876SOL    HW125758   7.633  10.743   7.825  2.9796 -1.1053  1.2815
 6876SOL    HW225759   7.690  10.867   7.758  1.2269  0.1101  2.0193
 6877SOL     OW25760   2.620   1.057   3.925  0.0693  0.2359  0.4445
 6877SOL    HW125761   2.550   1.070   3.860  0.6891  0.5873 -0.1624
 6877SOL    HW225762   2.701   1.057   3.873  0.5294 -0.0579  1.1546
 6878SOL     OW25763   7.694   4.527   6.217  0.3819 -0.4604  0.1017
 6878SOL    HW125764   7.775   4.503   6.172  0.3229  2.7231 -1.8322
 6878SOL    HW225765   7.625   4.504   6.155  0.1360  1.4170 -0.3509
 6879SOL     OW25766  10.826   4.567  11.071  0.3065 -0.2371 -0.2279
 6879SOL    HW125767  10.761   4.503  11.100  1.0408 -1.3754 -1.0390
 6879SOL    HW225768  10.890   4.515  11.021  0.8060  1.1662 -1.0661
 6880SOL     OW25769   3.312   6.452   0.376 -0.1043 -0.1585 -0.4434
 6880SOL    HW125770   3.361   6.420   0.300 -0.6231 -0.0376 -0.8341
 6880SOL    HW225771   3.337   6.394   0.448  0.5304 -0.1625 -0.6633
 6881SOL     OW25772   3.044  10.574   3.506 -0.5575  0.0779  0.1080
 6881SOL    HW125773   2.957  10.554   3.542 -0.6180 -0.9469 -0.5755
 6881SOL    HW225774   3.059  10.505   3.441  0.2966  0.8903 -0.5700
 6882SOL     OW25775  11.253   6.296   3.816  0.5031  0.1989 -0.2387
 6882SOL    HW125776  11.323   6.278   3.753  0.4725 -1.0870  0.0708
 6882SOL    HW225777  11.216   6.379   3.787  1.0263  0.0402 -1.4354
 6883SOL     OW25778   4.250  11.171   6.847  0.0938 -0.3139  0.6297
 6883SOL    HW125779   4.223  11.240   6.907  0.6194  0.2246  0.2614
 6883SOL    HW225780   4.339  11.148   6.876  0.5928  0.3863 -0.3161
 6884SOL     OW25781   9.252   7.376  10.191 -0.0638 -0.5694  0.0519
 6884SOL    HW125782   9.267   7.416  10.277  1.1369 -1.9934  0.5321
 6884SOL    HW225783   9.273   7.445  10.129  1.6066 -0.2943  0.8828
 6885SOL     OW25784   2.071   9.845  11.002  0.0736  0.3829 -0.4103
 6885SOL    HW125785   2.075   9.750  10.991 -1.4112  0.4472 -1.5552
 6885SOL    HW225786   2.130   9.863  11.075  0.1986 -1.4412 -0.0490
 6886SOL     OW25787   2.610   7.242   6.963 -0.0709  0.3093  0.0801
 6886SOL    HW125788   2.658   7.235   6.879  0.2441 -0.3926  0.3141
 6886SOL    HW225789   2.664   7.193   7.025 -0.7017  0.1823  0.5278
 6887SOL     OW25790   4.181   0.058   4.160  0.3520 -0.1372  0.2020
 6887SOL    HW125791   4.259   0.006   4.183  0.3638 -0.5655 -0.7838
 6887SOL    HW225792   4.212   0.149   4.161  0.9596 -0.3309 -0.5509
 6888SOL     OW25793   0.181   9.784   1.227  0.1470 -0.3352  0.1405
 6888SOL    HW125794   0.269   9.815   1.207  0.0585  0.6036  1.1526
 6888SOL    HW225795   0.130   9.863   1.241 -0.5086 -0.9027  0.9953
 6889SOL     OW25796   4.235   6.791   3.481  0.0582  0.4305 -0.4103
 6889SOL    HW125797   4.173   6.837   3.424 -0.1463  0.8269  0.1362
 6889SOL    HW225798   4.308   6.852   3.490  1.8538 -1.1391 -3.3777
 6890SOL     OW25799   6.818  10.802   3.442  0.0932  0.0020 -0.2798
 6890SOL    HW125800   6.874  10.749   3.500 -0.3303  0.4046  0.5077
 6890SOL    HW225801   6.729  10.771   3.460 -0.1149  0.6838 -0.1218
 6891SOL     OW25802   0.651   9.180   2.850 -0.0931  0.5106  0.5482
 6891SOL    HW125803   0.688   9.263   2.823  3.5063 -0.0239  3.5164
 6891SOL    HW225804   0.682   9.117   2.784  0.8537  0.7603  0.7603
 6892SOL     OW25805   8.718   7.400  10.818  0.2995 -0.6175  0.2191
 6892SOL    HW125806   8.721   7.481  10.767 -0.6058  0.3188  1.6346
 6892SOL    HW225807   8.798   7.401  10.870 -0.6238  0.2960  1.6302
 6893SOL     OW25808   7.889  11.294  10.740  0.1883 -0.0768  0.1134
 6893SOL    HW125809   7.877  11.253  10.826 -1.6814  0.3953  0.0926
 6893SOL    HW225810   7.801  11.297  10.702  0.6380  1.9110 -0.8155
 6894SOL     OW25811   9.730   4.550   3.428 -0.4292  0.0603 -0.2898
 6894SOL    HW125812   9.695   4.464   3.403 -1.2512  0.5770 -0.9469
 6894SOL    HW225813   9.794   4.531   3.496 -1.5104 -0.9725  0.4507
 6895SOL     OW25814   9.733   6.611   4.780 -0.1440  0.4581 -0.1063
 6895SOL    HW125815   9.694   6.540   4.728  0.4848  0.9500 -1.2796
 6895SOL    HW225816   9.826   6.589   4.783 -0.3154 -0.0526  1.6171
 6896SOL     OW25817   0.373   8.654   4.552 -0.3886  0.4951  0.2255
 6896SOL    HW125818   0.389   8.571   4.508 -1.4039  0.2577  0.2829
 6896SOL    HW225819   0.393   8.720   4.486 -0.6248  0.1786 -0.1650
 6897SOL     OW25820   8.799   3.642   1.906  0.0786  0.0694 -0.0961
 6897SOL    HW125821   8.748   3.623   1.827  0.0816  0.0612 -0.0959
 6897SOL    HW225822   8.779   3.569   1.965 -0.7371  0.6080  0.3089
 6898SOL     OW25823  10.762   0.408   5.147  0.0895  0.0248  0.3187
 6898SOL    HW125824  10.669   0.384   5.146  0.1188 -0.0664 -0.7876
 6898SOL    HW225825  10.795   0.381   5.062  1.2490 -0.3413  0.8701
 6899SOL     OW25826   0.233  10.709  10.506  0.2995  0.2774 -0.3089
 6899SOL    HW125827   0.276  10.663  10.578 -0.0408  1.6547  0.7892
 6899SOL    HW225828   0.158  10.653  10.483  0.6511 -0.3754  0.1206
 6900SOL     OW25829   2.614   8.999   9.803 -0.5208  0.3571 -0.2864
 6900SOL    HW125830   2.532   8.951   9.793 -0.2161 -0.3680  0.7226
 6900SOL    HW225831   2.614   9.030   9.894  1.2733 -1.4104  0.3381
 6901SOL     OW25832   4.784   1.522   0.170  0.1877  0.3190 -0.4011
 6901SOL    HW125833   4.809   1.536   0.262  1.7248 -1.3278 -0.5319
 6901SOL    HW225834   4.689   1.529   0.170  0.1947  0.6626  1.2662
 6902SOL     OW25835   6.086   3.762  10.085 -0.3333  0.2819  0.7309
 6902SOL    HW125836   6.032   3.793  10.012  1.1504 -0.3691 -0.6783
 6902SOL    HW225837   6.068   3.669  10.091 -0.9025  0.4376  1.6155
 6903SOL     OW25838   9.048   5.405   8.200 -0.3951 -0.5252 -0.4301
 6903SOL    HW125839   8.982   5.444   8.257  0.1557 -0.3010  0.0535
 6903SOL    HW225840   9.094   5.479   8.162  1.0463 -0.6925  0.9467
 6904SOL     OW25841  10.140   3.115   0.143 -0.4099 -0.7128 -0.2020
 6904SOL    HW125842  10.083   3.132   0.068  1.2708  0.3193 -1.2802
 6904SOL    HW225843  10.188   3.197   0.155  1.4430 -1.8217  0.1362
 6905SOL     OW25844   4.060   5.246   9.059 -0.1931 -0.1823 -0.3240
 6905SOL    HW125845   3.971   5.259   9.093  0.1096 -0.6010  0.6601
 6905SOL    HW225846   4.055   5.166   9.007 -0.7473  0.6660 -1.5794
 6906SOL     OW25847   6.952   7.206   2.354 -0.3409  0.2298 -0.3213
 6906SOL    HW125848   7.028   7.183   2.301 -0.6065 -0.1167 -0.5509
 6906SOL    HW225849   6.984   7.273   2.414  0.5635 -1.1510  0.7463
 6907SOL     OW25850   7.083   4.104   3.440  0.1744  0.4410  0.5530
 6907SOL    HW125851   7.129   4.148   3.368  2.0306  0.4487  1.7022
 6907SOL    HW225852   7.052   4.022   3.402  3.6588 -0.9020  0.4376
 6908SOL     OW25853   8.428  11.135   4.938 -0.4836  0.3351  0.4048
 6908SOL    HW125854   8.351  11.120   4.884 -0.4277  0.0918  0.3927
 6908SOL    HW225855   8.465  11.218   4.905 -0.1300 -0.1022 -0.3057
 6909SOL     OW25856   2.136   7.247   0.641 -0.0347  0.0360 -0.0535
 6909SOL    HW125857   2.086   7.237   0.560 -1.5828  0.8213  0.7742
 6909SOL    HW225858   2.158   7.340   0.645  2.3855 -0.4630 -0.8930
 6910SOL     OW25859  10.206   0.992  10.141  0.6677 -0.1469 -0.7854
 6910SOL    HW125860  10.277   1.052  10.166 -0.1283 -0.3700  2.1375
 6910SOL    HW225861  10.233   0.907  10.176 -0.6146 -0.4229 -0.4433
 6911SOL     OW25862   0.064  10.301   7.452  0.4654  0.1222 -0.6894
 6911SOL    HW125863  -0.020  10.256   7.436  0.4540  0.2449 -0.9871
 6911SOL    HW225864   0.083  10.345   7.369  0.4193  0.7606 -0.3647
 6912SOL     OW25865   4.071  10.451   8.585 -0.5129  0.0204 -0.5236
 6912SOL    HW125866   3.988  10.431   8.628 -1.4648  0.2873 -2.1820
 6912SOL    HW225867   4.086  10.543   8.605 -0.9191  0.1253 -0.6776
 6913SOL     OW25868   9.966   1.804   8.571 -0.1823 -0.4251 -0.2594
 6913SOL    HW125869   9.984   1.847   8.488 -1.1342  0.6056  0.0447
 6913SOL    HW225870   9.873   1.820   8.586  0.0231 -0.4532  1.0814
 6914SOL     OW25871   6.247  10.860   5.096 -0.0877  0.0952  0.3074
 6914SOL    HW125872   6.295  10.777   5.097  2.0296  1.2294 -2.1449
 6914SOL    HW225873   6.156  10.834   5.111  0.4098 -2.7918 -1.1800
 6915SOL     OW25874   8.100  10.527   2.424 -0.4446 -0.2502 -0.2509
 6915SOL    HW125875   8.095  10.515   2.518  1.5815 -0.5603 -0.1718
 6915SOL    HW225876   8.062  10.447   2.387 -0.7864 -0.3382  0.2863
 6916SOL     OW25877   8.134   2.899  10.770  0.4640 -0.0753 -0.0722
 6916SOL    HW125878   8.166   2.970  10.714 -1.2409  0.8574  0.0833
 6916SOL    HW225879   8.116   2.943  10.854 -0.8105 -0.6549 -0.0430
 6917SOL     OW25880   9.575   6.641   5.771 -0.0192  0.4194  0.4694
 6917SOL    HW125881   9.555   6.735   5.769  0.5692  0.5643  1.0561
 6917SOL    HW225882   9.670   6.637   5.777 -0.1511 -0.1946  2.4096
 6918SOL     OW25883   1.734   2.523   7.682  0.2738 -0.3549 -0.1356
 6918SOL    HW125884   1.743   2.473   7.763  0.2995  0.0078  0.0881
 6918SOL    HW225885   1.651   2.494   7.645 -0.6641  0.8342  0.9714
 6919SOL     OW25886   6.207  10.167   8.023 -0.0707  0.0928 -0.2363
 6919SOL    HW125887   6.294  10.127   8.028  0.1715  0.2415 -2.4932
 6919SOL    HW225888   6.206  10.210   7.937 -2.1567  0.6103  0.0280
 6920SOL     OW25889   9.039   8.114   1.138  0.2756 -0.5334  0.1613
 6920SOL    HW125890   9.081   8.028   1.147 -0.8037 -0.9453  1.4015
 6920SOL    HW225891   8.985   8.123   1.217  0.9108  1.5904  0.3814
 6921SOL     OW25892   1.243   2.639   8.292 -0.1011 -0.9009 -0.3619
 6921SOL    HW125893   1.214   2.724   8.261 -0.7766 -0.3909  1.6010
 6921SOL    HW225894   1.166   2.602   8.336  0.6241 -1.8633  0.1234
 6922SOL     OW25895   8.831   2.978   6.554  0.3517 -0.7329 -0.3243
 6922SOL    HW125896   8.809   2.937   6.638  1.4651  0.7187  0.6810
 6922SOL    HW225897   8.922   3.006   6.564 -0.1826  1.3697 -1.2447
 6923SOL     OW25898   9.996   4.567   1.858 -0.1536 -0.7374 -0.3454
 6923SOL    HW125899  10.027   4.620   1.785 -1.7088  0.8575  0.0960
 6923SOL    HW225900   9.953   4.492   1.817  0.0648 -0.4764 -1.0533
 6924SOL     OW25901   1.198   9.539  10.558  0.2929 -0.3018  0.0476
 6924SOL    HW125902   1.138   9.475  10.519 -0.6814  1.3262 -1.1691
 6924SOL    HW225903   1.260   9.560  10.489  0.5499  0.1489  0.4151
 6925SOL     OW25904   4.587   6.671   4.751  0.4510 -0.3382  0.3174
 6925SOL    HW125905   4.673   6.709   4.771  1.3684 -1.7264 -0.8653
 6925SOL    HW225906   4.560   6.715   4.671 -0.1571  0.4290  0.9413
 6926SOL     OW25907   2.587   3.351   7.996  0.3697 -0.3424 -0.0152
 6926SOL    HW125908   2.682   3.341   8.005  0.4489  0.2244 -0.1858
 6926SOL    HW225909   2.576   3.421   7.931 -0.1745 -1.1429 -0.7935
 6927SOL     OW25910   7.344   8.814   5.617 -0.6179 -0.5471 -0.5087
 6927SOL    HW125911   7.349   8.877   5.545 -0.6451  0.2514  0.1873
 6927SOL    HW225912   7.252   8.815   5.644 -0.4914 -0.4087 -0.0770
 6928SOL     OW25913   9.512   0.031   9.513  0.2208  0.4916  0.0259
 6928SOL    HW125914   9.554   0.107   9.473  1.8113 -0.0314  0.6685
 6928SOL    HW225915   9.519   0.046   9.607  2.0890 -1.2260  0.2108
 6929SOL     OW25916   9.781   5.395   8.683  0.3836  0.1476  0.0955
 6929SOL    HW125917   9.714   5.438   8.629 -0.5649 -0.5826  0.6794
 6929SOL    HW225918   9.807   5.318   8.633  1.3300  0.8253 -0.4712
 6930SOL     OW25919   5.041   0.048  10.905 -0.8296 -0.4244  0.4769
 6930SOL    HW125920   4.963   0.103  10.906 -1.6553 -1.4142 -3.5150
 6930SOL    HW225921   5.007  -0.042  10.906  0.1038 -0.8872 -2.8569
 6931SOL     OW25922   5.647   0.169   8.062 -0.0551 -0.6784 -0.5124
 6931SOL    HW125923   5.593   0.218   8.123 -1.2034  0.4254 -2.3522
 6931SOL    HW225924   5.668   0.232   7.993  1.0799 -1.9241 -1.3246
 6932SOL     OW25925   8.511   2.010   7.981 -0.1376 -0.3985 -0.4717
 6932SOL    HW125926   8.482   2.092   7.941  0.6425  0.7668  1.2886
 6932SOL    HW225927   8.575   2.036   8.046  0.1474 -2.4287  0.1083
 6933SOL     OW25928   2.399   1.323   8.022  0.3144 -0.2753  0.2477
 6933SOL    HW125929   2.395   1.341   8.116  0.1420  0.3296  0.1256
 6933SOL    HW225930   2.311   1.293   8.000  0.0020  0.7782  0.0407
 6934SOL     OW25931   6.297   1.395   5.252 -0.1275  0.0210  0.0285
 6934SOL    HW125932   6.328   1.486   5.261  0.6745  0.2045 -3.6341
 6934SOL    HW225933   6.204   1.403   5.231 -0.4096 -0.0705  1.2567
 6935SOL     OW25934   1.514   3.907   5.114  0.5709  0.7317  0.4512
 6935SOL    HW125935   1.578   3.885   5.182  1.7246 -0.1367 -0.8826
 6935SOL    HW225936   1.488   3.997   5.134  4.7552  2.3644 -0.8928
 6936SOL     OW25937   5.790   5.693  10.832  0.2956  0.1162 -0.3971
 6936SOL    HW125938   5.794   5.602  10.803  1.2879 -0.4002  1.3097
 6936SOL    HW225939   5.699   5.719  10.818  0.2381 -0.7925 -1.8590
 6937SOL     OW25940   6.757  10.201  10.572  0.1965  0.4218 -0.0071
 6937SOL    HW125941   6.742  10.296  10.567  0.5360  0.4926  0.2646
 6937SOL    HW225942   6.846  10.193  10.607 -0.4654 -0.0084  1.6225
 6938SOL     OW25943   1.055   5.147   0.945  0.4113  0.6696 -0.2332
 6938SOL    HW125944   0.976   5.109   0.984  1.0025  0.3825  0.6844
 6938SOL    HW225945   1.085   5.081   0.883  1.2689 -0.2593  1.1433
 6939SOL     OW25946   3.508   9.787   0.584 -0.0542  1.1622 -0.4503
 6939SOL    HW125947   3.507   9.882   0.596 -1.9073  0.9304  1.4776
 6939SOL    HW225948   3.477   9.773   0.494  0.7989  2.3919 -0.9413
 6940SOL     OW25949  10.821   9.690   4.876 -0.0255  0.3286 -0.2404
 6940SOL    HW125950  10.855   9.601   4.878 -0.5444  0.1116 -0.7141
 6940SOL    HW225951  10.726   9.679   4.876 -0.0920  0.8719 -0.5618
 6941SOL     OW25952   1.994   5.646   6.618  0.0989 -0.3879 -0.4089
 6941SOL    HW125953   1.911   5.667   6.575 -1.0387  1.5175  2.5628
 6941SOL    HW225954   2.047   5.724   6.609 -0.1723  0.0688  1.5788
 6942SOL     OW25955   9.956   2.165   5.343  0.4184 -0.2594  0.2665
 6942SOL    HW125956   9.978   2.148   5.252  1.0124  0.3881  0.2817
 6942SOL    HW225957   9.966   2.081   5.387 -3.1441 -1.3581 -0.8759
 6943SOL     OW25958  10.948   2.485  10.556 -0.4493  0.5252 -0.0177
 6943SOL    HW125959  10.952   2.412  10.618 -0.6489  0.8438  0.3743
 6943SOL    HW225960  10.958   2.563  10.610  1.5670  0.7232 -0.6547
 6944SOL     OW25961   9.332   9.483   8.734  0.2465  0.6417  0.4476
 6944SOL    HW125962   9.344   9.520   8.646  0.0214  1.3454  0.7188
 6944SOL    HW225963   9.335   9.388   8.720 -0.2216  0.7467 -0.3830
 6945SOL     OW25964   0.956   3.321   2.732  0.1187  0.0264 -0.0363
 6945SOL    HW125965   0.961   3.346   2.640  1.2117 -1.7786 -0.5033
 6945SOL    HW225966   0.946   3.226   2.730 -1.1166  0.0984  1.6961
 6946SOL     OW25967   9.412   1.323   5.715 -0.1439 -0.1885 -0.5994
 6946SOL    HW125968   9.432   1.239   5.756  0.8356 -0.2842 -1.2531
 6946SOL    HW225969   9.481   1.335   5.650 -0.0299  1.3324 -0.2138
 6947SOL     OW25970  10.710   6.899  10.274 -0.1354 -0.1896 -1.0251
 6947SOL    HW125971  10.638   6.959  10.252 -0.7800 -0.6096 -0.1256
 6947SOL    HW225972  10.666   6.825  10.316  0.6768 -1.1868 -1.9222
 6948SOL     OW25973   1.442   6.291   7.004  0.3224  0.0833  0.3561
 6948SOL    HW125974   1.453   6.341   6.923  2.4543  0.0134  0.5721
 6948SOL    HW225975   1.457   6.200   6.978 -1.5479 -0.2421  0.3514
 6949SOL     OW25976   2.203   7.689   4.444  0.0828 -0.6407 -0.4889
 6949SOL    HW125977   2.265   7.620   4.467 -0.8143 -0.9858  0.9484
 6949SOL    HW225978   2.246   7.770   4.474 -0.5797 -0.9767  1.4625
 6950SOL     OW25979   6.960  11.103  10.343  0.0960 -0.2819 -0.4141
 6950SOL    HW125980   6.869  11.107  10.316 -0.0556 -0.0981  0.1386
 6950SOL    HW225981   6.976  11.185  10.389  0.0620 -1.0556  0.9983
 6951SOL     OW25982   3.076   7.739   0.783  0.6032  0.2279 -0.5517
 6951SOL    HW125983   3.035   7.728   0.697  0.3053 -1.5925 -0.2005
 6951SOL    HW225984   3.169   7.748   0.764  0.6918 -1.5143 -0.9816
 6952SOL     OW25985   1.206   8.664   1.923 -0.2508  0.6683 -0.8449
 6952SOL    HW125986   1.266   8.679   1.850  0.2382 -2.9379 -1.2763
 6952SOL    HW225987   1.256   8.689   2.001  0.3468  1.5733 -1.5088
 6953SOL     OW25988   3.608   3.584   9.979 -0.1083 -0.0382 -0.7866
 6953SOL    HW125989   3.621   3.587  10.074  1.3888 -0.8185 -0.9402
 6953SOL    HW225990   3.597   3.675   9.952  0.4321  0.2658  0.0183
 6954SOL     OW25991   6.969  10.767   8.483 -0.4001  0.2156 -0.7389
 6954SOL    HW125992   6.980  10.673   8.493 -1.8864  0.0313 -0.7291
 6954SOL    HW225993   6.931  10.778   8.396 -1.6857  0.6906 -0.1219
 6955SOL     OW25994   8.430   9.246   3.819 -0.2966 -0.1019  0.3696
 6955SOL    HW125995   8.421   9.155   3.791 -1.7207  0.4221 -0.9229
 6955SOL    HW225996   8.403   9.245   3.911 -0.2733 -0.9859  0.3762
 6956SOL     OW25997   2.521   2.261   4.209 -0.0846  0.3408 -0.6237
 6956SOL    HW125998   2.458   2.262   4.137  0.0123 -1.4355 -0.7678
 6956SOL    HW225999   2.541   2.353   4.226 -1.7477  0.8620 -1.4242
 6957SOL     OW26000   5.694   6.631   5.664 -0.0037  0.5972 -0.3665
 6957SOL    HW126001   5.600   6.616   5.654 -0.3143  1.1725  1.5012
 6957SOL    HW226002   5.717   6.584   5.745  0.7205  2.9412  0.8265
 6958SOL     OW26003   4.778   0.992   1.401 -0.0377  0.0013  0.1531
 6958SOL    HW126004   4.787   0.913   1.455  0.8548 -0.1433 -0.1983
 6958SOL    HW226005   4.861   1.038   1.413 -2.2345  3.2583  4.0553
 6959SOL     OW26006   7.237   2.525   3.150 -0.6117  0.2075  0.0996
 6959SOL    HW126007   7.293   2.495   3.079  0.1929 -0.1888  0.8985
 6959SOL    HW226008   7.156   2.475   3.140 -0.5952  0.3258 -0.6698
 6960SOL     OW26009   6.523   2.313   2.548 -0.3886 -0.2813  0.1614
 6960SOL    HW126010   6.551   2.299   2.638  1.3813  0.7693 -0.1973
 6960SOL    HW226011   6.432   2.342   2.555 -0.3646 -0.5261  1.5855
 6961SOL     OW26012   8.223   4.159   3.325 -0.3785  0.3339  0.0766
 6961SOL    HW126013   8.181   4.144   3.410 -0.2872 -0.8611 -0.0828
 6961SOL    HW226014   8.150   4.162   3.263 -0.4165  0.8020  0.1464
 6962SOL     OW26015   2.627   8.846   2.592  0.0832 -0.0668 -0.1845
 6962SOL    HW126016   2.549   8.857   2.647 -0.2202  0.9987 -0.8320
 6962SOL    HW226017   2.680   8.781   2.640 -0.3586  0.5430  1.1666
 6963SOL     OW26018   4.088   1.454   6.143  0.1531  0.0553 -0.4341
 6963SOL    HW126019   4.072   1.367   6.107 -0.7635  0.0681 -0.0612
 6963SOL    HW226020   4.026   1.463   6.215 -1.7575  2.1025 -2.2696
 6964SOL     OW26021   0.684   6.366   6.855  0.5686 -0.3411  0.4522
 6964SOL    HW126022   0.601   6.322   6.873 -1.0970  1.3092 -2.6573
 6964SOL    HW226023   0.692   6.363   6.759  4.1854 -0.5665  0.6853
 6965SOL     OW26024   4.739   2.809  10.186  0.3199  0.0223 -0.1718
 6965SOL    HW126025   4.727   2.845  10.274  1.0369  3.0730 -1.2892
 6965SOL    HW226026   4.650   2.804  10.150  0.1711  0.2360  0.1613
 6966SOL     OW26027   4.084   6.014   5.737  0.1384 -0.1312 -0.5251
 6966SOL    HW126028   4.041   5.935   5.706  0.0185 -0.2961  0.0566
 6966SOL    HW226029   4.084   6.073   5.662 -1.4196  0.0132 -0.4313
 6967SOL     OW26030   1.622   2.226   2.130  0.1781 -0.4154 -0.2413
 6967SOL    HW126031   1.591   2.210   2.219  0.9800  0.5466  0.2337
 6967SOL    HW226032   1.583   2.311   2.107  0.1444 -0.5644 -0.7274
 6968SOL     OW26033   1.090   7.035   0.688  0.0816 -0.5029  0.2903
 6968SOL    HW126034   1.014   7.065   0.738  0.2595  0.2609  0.1048
 6968SOL    HW226035   1.084   6.939   0.692  0.7784 -0.4828  2.8192
 6969SOL     OW26036   8.273   2.856   2.364  0.1190  0.6233 -0.0889
 6969SOL    HW126037   8.301   2.904   2.442 -3.1188 -0.2810  1.7412
 6969SOL    HW226038   8.199   2.906   2.330 -0.9394 -1.0400 -0.3031
 6970SOL     OW26039   9.757   2.268   1.752 -0.7433  0.1266  0.0930
 6970SOL    HW126040   9.678   2.217   1.770 -2.2104  1.5262 -2.0368
 6970SOL    HW226041   9.778   2.312   1.835 -1.4677 -1.2375  1.0001
 6971SOL     OW26042   3.541   7.111   9.094 -0.3457 -0.5901  0.0301
 6971SOL    HW126043   3.447   7.126   9.108  0.4898  3.2205  2.4921
 6971SOL    HW226044   3.557   7.139   9.004 -1.4048 -0.5354 -0.1524
 6972SOL     OW26045   4.284   3.159   4.970 -0.7304 -0.1873 -0.1350
 6972SOL    HW126046   4.302   3.079   4.921 -0.7349  0.1185 -0.6337
 6972SOL    HW226047   4.342   3.153   5.046  0.5731  0.1712 -1.0673
 6973SOL     OW26048   8.531   6.299   8.045  0.2565 -0.1448  0.0374
 6973SOL    HW126049   8.444   6.305   8.084  0.4882 -0.0608  0.5528
 6973SOL    HW226050   8.531   6.215   8.000  0.5284 -0.9930  1.5927
 6974SOL     OW26051   9.078  10.685  10.554  0.0857 -0.4725  0.2336
 6974SOL    HW126052   8.994  10.652  10.522 -0.4392  1.7338 -0.8113
 6974SOL    HW226053   9.058  10.722  10.640  0.5298 -2.1839  1.0944
 6975SOL     OW26054   0.217  10.880   2.237 -0.4663 -0.5114 -0.6791
 6975SOL    HW126055   0.203  10.974   2.254 -2.6418 -1.0274  0.6855
 6975SOL    HW226056   0.150  10.858   2.172  0.1919 -1.0622 -1.1643
 6976SOL     OW26057   7.424  10.755   9.690 -0.2190  0.0628 -0.9158
 6976SOL    HW126058   7.396  10.696   9.620  0.9605 -2.2725  0.5395
 6976SOL    HW226059   7.502  10.798   9.655 -0.4846 -0.0008 -1.5934
 6977SOL     OW26060   6.171  10.906   7.193 -0.8387 -0.2628 -0.4099
 6977SOL    HW126061   6.130  10.822   7.178  1.2886 -1.8011  1.9129
 6977SOL    HW226062   6.251  10.904   7.141 -1.3400  0.7920 -1.2374
 6978SOL     OW26063   5.557   4.785   8.039  0.1489  0.0441 -0.2833
 6978SOL    HW126064   5.547   4.744   7.953 -0.7881 -1.1559  0.3784
 6978SOL    HW226065   5.645   4.760   8.068 -0.6590 -2.1434  0.4143
 6979SOL     OW26066   1.660   3.010   8.619 -0.2412 -0.3244 -0.4538
 6979SOL    HW126067   1.752   3.038   8.611 -0.2824 -0.0272  0.0823
 6979SOL    HW226068   1.664   2.914   8.613  0.1627 -0.3438  0.0333
 6980SOL     OW26069   0.847   5.676   9.744  0.0907 -0.2507  0.5909
 6980SOL    HW126070   0.788   5.730   9.796 -1.4961 -0.7337 -0.6928
 6980SOL    HW226071   0.852   5.721   9.660 -0.1122 -1.3431 -0.0129
 6981SOL     OW26072  11.011   8.103   8.438  0.4631  0.0194 -0.2494
 6981SOL    HW126073  11.105   8.109   8.454  0.1693  3.3711  0.5875
 6981SOL    HW226074  11.000   8.133   8.348 -0.0297  2.0531  0.4712
 6982SOL     OW26075   9.348  10.618   3.881  0.1704 -0.6759 -0.0145
 6982SOL    HW126076   9.438  10.630   3.851  0.1051 -1.3410 -0.4929
 6982SOL    HW226077   9.330  10.526   3.865 -0.3447 -0.7164  0.7785
 6983SOL     OW26078   7.726   7.003   3.837  0.8443  0.3010  0.5861
 6983SOL    HW126079   7.678   7.022   3.917  0.4264 -1.2236  0.7202
 6983SOL    HW226080   7.673   7.039   3.766 -1.6275 -3.1979  0.5412
 6984SOL     OW26081   5.687   9.415   9.353 -0.3692 -0.7379  0.5100
 6984SOL    HW126082   5.768   9.445   9.394  0.2097 -0.3060 -0.9005
 6984SOL    HW226083   5.624   9.485   9.369  0.2655  0.1055 -0.5796
 6985SOL     OW26084   4.361   8.340  10.890 -0.6463 -0.2887 -0.4056
 6985SOL    HW126085   4.412   8.420  10.898 -1.1365  0.0404 -0.5234
 6985SOL    HW226086   4.425   8.269  10.895 -0.1905  0.1179 -0.5005
 6986SOL     OW26087   5.815   7.678   2.615  0.0862  0.1317 -0.4172
 6986SOL    HW126088   5.903   7.650   2.590  0.1116 -1.1393  1.0575
 6986SOL    HW226089   5.797   7.633   2.697 -1.6459  0.9859 -0.2971
 6987SOL     OW26090   1.551  11.025   6.599  0.1411  0.3680  0.5959
 6987SOL    HW126091   1.636  10.986   6.618  0.1925  0.5493  0.7380
 6987SOL    HW226092   1.528  10.990   6.513  0.4763  0.5139  0.4454
 6988SOL     OW26093   5.295   2.366   5.751  0.1968  0.0266 -0.0582
 6988SOL    HW126094   5.220   2.408   5.793 -0.8885 -3.7041  1.9026
 6988SOL    HW226095   5.337   2.317   5.821  1.4434 -2.0951 -2.2256
 6989SOL     OW26096   5.617   5.967   4.241 -0.0529  0.6748 -0.6888
 6989SOL    HW126097   5.565   5.887   4.229 -0.1581  0.7759 -0.9112
 6989SOL    HW226098   5.553   6.033   4.270  0.1861  0.4536  0.3745
 6990SOL     OW26099   8.865   6.702   3.345 -0.2394 -0.0620 -1.0661
 6990SOL    HW126100   8.855   6.687   3.251  1.1739 -0.4224 -1.1663
 6990SOL    HW226101   8.903   6.790   3.351  0.0510 -0.2003 -0.8508
 6991SOL     OW26102   9.617   5.548   8.528  0.0603 -0.3849 -0.6881
 6991SOL    HW126103   9.651   5.624   8.480 -1.0062  0.2061 -0.5236
 6991SOL    HW226104   9.530   5.576   8.558  0.5220 -0.9374  1.1601
 6992SOL     OW26105   7.306   6.176   4.708 -0.1562 -0.1085 -0.5241
 6992SOL    HW126106   7.308   6.243   4.777  0.9187  0.7011 -1.3259
 6992SOL    HW226107   7.218   6.183   4.671 -0.0219  0.9360 -0.6690
 6993SOL     OW26108   7.966   1.631   3.329 -0.1386 -0.0120  0.3489
 6993SOL    HW126109   8.013   1.560   3.373 -2.2588 -1.2204  0.7503
 6993SOL    HW226110   8.034   1.690   3.299  1.5763 -1.2018  1.7841
 6994SOL     OW26111   0.796   2.384   8.231 -0.0963  0.9482 -0.1379
 6994SOL    HW126112   0.766   2.294   8.229  1.7786  0.2693  1.3002
 6994SOL    HW226113   0.819   2.404   8.140  0.2418 -0.2839 -0.3240
 6995SOL     OW26114   3.344   3.728  11.124 -0.1518  0.4212  0.1489
 6995SOL    HW126115   3.287   3.800  11.151  1.3976  1.4498  0.7628
 6995SOL    HW226116   3.376   3.754  11.038  1.1382  0.9248  0.7714
 6996SOL     OW26117   9.325   4.760   2.964 -0.4422  0.0268  0.7236
 6996SOL    HW126118   9.326   4.806   3.048  0.4894  1.1342  0.1091
 6996SOL    HW226119   9.412   4.721   2.957  0.4966  2.3401 -1.0360
 6997SOL     OW26120  10.450  10.766   9.982 -0.5984  0.0685 -0.5090
 6997SOL    HW126121  10.458  10.845   9.928  0.2670  1.1225  1.1539
 6997SOL    HW226122  10.535  10.722   9.972 -0.5605  0.0904 -0.2713
 6998SOL     OW26123   1.753  10.082   8.106  0.0875 -0.3152 -0.1308
 6998SOL    HW126124   1.710  10.011   8.057  1.2006 -1.3536  0.3761
 6998SOL    HW226125   1.685  10.148   8.116 -1.3634 -1.8639  0.4979
 6999SOL     OW26126   0.343   7.048  10.061  0.5181 -0.3343  0.1762
 6999SOL    HW126127   0.382   7.054  10.148  2.0700 -0.1647 -0.5229
 6999SOL    HW226128   0.284   6.972  10.066  1.9821 -1.4377  0.8347
 7000SOL     OW26129   5.924   5.704   7.778 -0.0201  0.0329  0.3135
 7000SOL    HW126130   5.870   5.773   7.816  0.3632  0.0081  0.9143
 7000SOL    HW226131   5.935   5.640   7.849  1.5888  0.5038  0.5056
 7001SOL     OW26132   1.276   8.487   6.242 -0.6983  0.3627 -0.2599
 7001SOL    HW126133   1.267   8.557   6.307  2.3162  2.1576 -1.6282
 7001SOL    HW226134   1.293   8.408   6.293 -1.3742  1.1620  1.2317
 7002SOL     OW26135   3.223   9.928   7.362  0.4478  0.0538 -0.1059
 7002SOL    HW126136   3.272   9.862   7.412  0.9350  0.6707  0.2513
 7002SOL    HW226137   3.148   9.948   7.417  0.8444  0.5406  0.2629
 7003SOL     OW26138   4.005   1.723   7.657 -0.3196  0.8375 -0.0573
 7003SOL    HW126139   4.042   1.790   7.715  1.0581 -0.1427  0.2299
 7003SOL    HW226140   4.081   1.684   7.614 -1.0012 -1.3006  0.6197
 7004SOL     OW26141   1.119  10.703   5.430 -0.2296  0.2115  0.0724
 7004SOL    HW126142   1.191  10.760   5.458 -0.3445  1.1595 -1.5035
 7004SOL    HW226143   1.090  10.660   5.511  2.3143 -0.4480  0.6861
 7005SOL     OW26144   3.211  10.163  10.267 -0.1380 -0.4074 -0.2063
 7005SOL    HW126145   3.126  10.195  10.237  0.2011  1.4853  0.7709
 7005SOL    HW226146   3.269  10.173  10.191 -0.3546  0.0646 -0.3101
 7006SOL     OW26147   1.622   6.097   1.434  0.1523 -0.3270  0.0599
 7006SOL    HW126148   1.576   6.142   1.363  1.4896 -0.1079 -0.6811
 7006SOL    HW226149   1.681   6.036   1.390  1.7302  0.5315  0.9440
 7007SOL     OW26150   7.888   5.866   0.736 -0.3936  0.1179  0.0105
 7007SOL    HW126151   7.897   5.885   0.643 -0.3335 -0.7936 -0.1748
 7007SOL    HW226152   7.882   5.952   0.778  0.4071  0.5446 -0.7479
 7008SOL     OW26153   1.849   3.867   9.412  0.0783 -0.4599  0.2294
 7008SOL    HW126154   1.922   3.806   9.404 -0.0468 -0.5927  0.0970
 7008SOL    HW226155   1.848   3.892   9.505  0.8180  0.1945  0.0646
 7009SOL     OW26156   5.715   5.271   2.116  0.1020 -0.7228 -0.0323
 7009SOL    HW126157   5.757   5.185   2.114  1.2444 -0.1504 -2.2253
 7009SOL    HW226158   5.780   5.330   2.077 -0.9654  0.9907  0.7510
 7010SOL     OW26159   3.246  10.368  10.926 -0.0623 -0.4163  0.7373
 7010SOL    HW126160   3.328  10.336  10.887  1.3271  1.4743  2.0072
 7010SOL    HW226161   3.235  10.313  11.004 -0.9589 -1.8447 -0.3819
 7011SOL     OW26162   9.668   9.408   5.835 -0.1641  0.2479  0.1427
 7011SOL    HW126163   9.680   9.502   5.842 -0.9464  0.3217  0.5520
 7011SOL    HW226164   9.731   9.371   5.896  1.1424  0.4436 -1.0608
 7012SOL     OW26165   8.834   2.648   2.880  0.6564  0.1992 -0.0816
 7012SOL    HW126166   8.855   2.693   2.962 -0.4364 -0.6025  0.6621
 7012SOL    HW226167   8.918   2.639   2.835  0.9761  2.4142  0.0426
 7013SOL     OW26168   7.711   6.425   1.003  0.3304  0.7536  0.3312
 7013SOL    HW126169   7.657   6.350   1.028 -0.0406  0.9930  0.2514
 7013SOL    HW226170   7.791   6.415   1.055 -0.0077  0.6864  0.8431
 7014SOL     OW26171   9.228   3.260   9.342  0.7356  0.1600  0.5060
 7014SOL    HW126172   9.137   3.288   9.349  0.1978 -1.8964  2.3940
 7014SOL    HW226173   9.254   3.284   9.253 -2.2851 -1.0456 -0.7690
 7015SOL     OW26174   9.777   0.370  10.366 -0.0276 -0.3778  0.3389
 7015SOL    HW126175   9.755   0.321  10.286  1.4198 -2.3459  1.1159
 7015SOL    HW226176   9.730   0.324  10.435 -1.7335  1.6590  0.5967
 7016SOL     OW26177   7.893   7.858   8.966  0.2407 -0.3544 -0.3046
 7016SOL    HW126178   7.812   7.879   8.918  0.5594  1.2950 -0.1563
 7016SOL    HW226179   7.962   7.900   8.915  0.7668  0.0033  0.6963
 7017SOL     OW26180   1.327   5.903  10.152  0.1652  0.0152 -0.1160
 7017SOL    HW126181   1.337   5.998  10.164  1.3579  0.1790 -2.1364
 7017SOL    HW226182   1.401   5.879  10.096  0.0173 -2.1628  0.5942
 7018SOL     OW26183   8.934  11.309   7.191  0.1740  0.0412 -0.1336
 7018SOL    HW126184   8.844  11.294   7.161 -0.1396  1.7902 -0.0995
 7018SOL    HW226185   8.979  11.346   7.115  0.6563 -0.0900  0.0880
 7019SOL     OW26186   5.007  10.474   9.808 -0.3328 -0.9155  0.1836
 7019SOL    HW126187   5.067  10.548   9.814 -3.4667  1.6614  1.5193
 7019SOL    HW226188   5.026  10.421   9.885  1.2430 -0.9952 -0.2388
 7020SOL     OW26189   6.264  11.026   1.858 -0.0901 -0.5879 -0.1120
 7020SOL    HW126190   6.353  11.022   1.894 -0.1621  4.3807  1.0085
 7020SOL    HW226191   6.208  10.999   1.930  0.3126  0.3278  0.5569
 7021SOL     OW26192   1.777   1.431  11.124  0.2884  0.2535  0.5439
 7021SOL    HW126193   1.838   1.501  11.144 -0.4320  0.7826  0.8865
 7021SOL    HW226194   1.693   1.475  11.107 -0.1481 -0.5067  0.6892
 7022SOL     OW26195   7.656  10.437   9.741  0.2998 -0.2429 -0.4262
 7022SOL    HW126196   7.594  10.413   9.672 -2.1473  0.1165  1.6026
 7022SOL    HW226197   7.664  10.532   9.734 -0.2623 -0.1608  0.0415
 7023SOL     OW26198  10.948  11.289   3.354  0.4722  0.3952  0.2403
 7023SOL    HW126199  11.007  11.349   3.307 -1.3669  1.3108 -0.9675
 7023SOL    HW226200  10.862  11.304   3.314 -1.0220  0.6232  3.4103
 7024SOL     OW26201  10.450   5.696   6.193 -0.0414  0.5620  0.3041
 7024SOL    HW126202  10.458   5.736   6.106 -0.4261 -0.3117 -0.1390
 7024SOL    HW226203  10.515   5.625   6.193 -2.6079 -1.8790 -0.6584
 7025SOL     OW26204   5.646   7.053   2.151  0.2546  0.5171  0.3672
 7025SOL    HW126205   5.710   7.087   2.088  1.4169 -1.2737  0.5443
 7025SOL    HW226206   5.650   7.115   2.224  0.4317  1.4383 -0.4159
 7026SOL     OW26207   9.828  10.531   1.258 -0.7428  0.3826  0.1428
 7026SOL    HW126208   9.900  10.472   1.280  0.4785  2.0066  0.5976
 7026SOL    HW226209   9.866  10.592   1.195 -2.5490 -0.5200 -1.8792
 7027SOL     OW26210   0.114   7.969   8.744 -0.3111 -0.6212  0.2508
 7027SOL    HW126211   0.138   7.925   8.663 -1.5361 -1.5543  0.3717
 7027SOL    HW226212   0.033   8.016   8.723  0.0470  0.1506  0.5922
 7028SOL     OW26213   6.181   3.075   7.191  0.1395 -0.2527  0.1207
 7028SOL    HW126214   6.157   3.083   7.099 -1.4666 -0.3681  0.5044
 7028SOL    HW226215   6.275   3.056   7.190 -0.2143 -2.1400 -1.5773
 7029SOL     OW26216   7.735   4.552   1.774  0.3351  0.3371 -0.0890
 7029SOL    HW126217   7.792   4.521   1.845  0.4615  0.3099 -0.2021
 7029SOL    HW226218   7.647   4.531   1.804  0.4281 -0.2205 -0.2067
 7030SOL     OW26219   6.273   1.629   0.725  0.1383  0.0123  0.4809
 7030SOL    HW126220   6.311   1.650   0.811 -1.3736  1.3450  0.8390
 7030SOL    HW226221   6.235   1.542   0.737 -1.1770  0.7146  1.5580
 7031SOL     OW26222   8.597   1.457   2.577 -0.3677  0.0389  0.0347
 7031SOL    HW126223   8.538   1.530   2.560 -0.4397  0.0106  0.1612
 7031SOL    HW226224   8.597   1.447   2.672  1.0955  1.0853  0.1584
 7032SOL     OW26225  10.755   5.031   8.656  0.1356 -0.0246  0.1600
 7032SOL    HW126226  10.793   4.965   8.715  0.2385  1.5185  1.8604
 7032SOL    HW226227  10.686   4.984   8.609 -0.5327 -1.0750  2.1411
 7033SOL     OW26228   5.011  10.406  10.067  0.0571  0.0099 -0.5587
 7033SOL    HW126229   4.984  10.497  10.083  2.6977  0.6612  0.3387
 7033SOL    HW226230   4.962  10.355  10.131  1.0195  1.1920  1.1449
 7034SOL     OW26231  10.898   4.624  10.347 -0.1900  0.6811  0.0644
 7034SOL    HW126232  10.942   4.569  10.412 -1.4952 -0.5855 -0.0887
 7034SOL    HW226233  10.944   4.707  10.351  1.9226 -0.4495  0.2074
 7035SOL     OW26234   6.753   5.551   0.287 -0.3521  0.6340 -0.3952
 7035SOL    HW126235   6.753   5.647   0.289 -1.9557  0.6929 -1.9491
 7035SOL    HW226236   6.668   5.526   0.324 -0.3771 -0.1573 -0.9738
 7036SOL     OW26237   6.459   8.562   8.079 -0.4171 -0.3150  0.0026
 7036SOL    HW126238   6.453   8.585   8.172 -2.7258  3.4570 -1.0024
 7036SOL    HW226239   6.537   8.608   8.048 -0.6319 -0.1668 -0.3188
 7037SOL     OW26240   2.793   7.404   3.383  0.1026  0.2778  0.1188
 7037SOL    HW126241   2.880   7.440   3.368 -0.3815  2.0441  1.3297
 7037SOL    HW226242   2.733   7.474   3.358 -1.0089 -1.0499 -1.0595
 7038SOL     OW26243   1.358  11.087   3.171  0.0266  0.4999 -0.3971
 7038SOL    HW126244   1.298  11.035   3.225 -0.7612 -0.3911 -2.0880
 7038SOL    HW226245   1.352  11.175   3.208 -0.9685  0.0382  0.5866
 7039SOL     OW26246  10.236   0.281   2.471  0.1589 -0.3527 -0.3772
 7039SOL    HW126247  10.281   0.360   2.501 -1.4444  0.7819 -0.8612
 7039SOL    HW226248  10.198   0.305   2.387 -0.9199 -1.4209 -0.2156
 7040SOL     OW26249   4.278   1.356   4.951 -0.4848 -0.6284 -0.4079
 7040SOL    HW126250   4.258   1.397   4.867 -0.1373  0.5040  0.0538
 7040SOL    HW226251   4.290   1.429   5.011  2.3294 -1.3514 -0.0475
 7041SOL     OW26252   7.875   0.789   1.311 -0.1755 -0.0404 -0.9174
 7041SOL    HW126253   7.932   0.818   1.240  1.6782 -0.1182  0.4934
 7041SOL    HW226254   7.923   0.811   1.391 -1.5891 -1.2078  0.2880
 7042SOL     OW26255   5.831   7.599   2.863 -0.2937 -0.0315 -0.2363
 7042SOL    HW126256   5.769   7.627   2.930  0.7054  1.7487 -0.0078
 7042SOL    HW226257   5.917   7.617   2.901  0.3023  0.4119 -1.7421
 7043SOL     OW26258   0.013   1.320   4.476  0.4021  0.2603  0.1076
 7043SOL    HW126259   0.045   1.309   4.565  0.2480  2.6762  0.4735
 7043SOL    HW226260   0.091   1.309   4.421  1.1292  2.0422  0.7557
 7044SOL     OW26261   5.210   1.538  10.561  0.6699  0.4338 -0.3186
 7044SOL    HW126262   5.176   1.555  10.473  0.9080  1.7779 -0.1603
 7044SOL    HW226263   5.131   1.532  10.616  0.5426  0.0513 -0.5406
 7045SOL     OW26264   1.857   4.842   4.694  0.0447  0.1226  0.3629
 7045SOL    HW126265   1.895   4.861   4.608  1.6558 -0.7245  0.8828
 7045SOL    HW226266   1.930   4.851   4.755 -1.1808  1.1542  1.7172
 7046SOL     OW26267   6.013   7.740  10.142  0.3661  0.0886  0.2304
 7046SOL    HW126268   5.925   7.764  10.172  0.3255 -1.2065  1.1523
 7046SOL    HW226269   6.068   7.813  10.170 -0.5668  1.4424 -1.3063
 7047SOL     OW26270   0.201   0.190   1.386  0.0443  0.5489  0.0878
 7047SOL    HW126271   0.149   0.254   1.435  1.6213  1.6873  0.3137
 7047SOL    HW226272   0.162   0.106   1.408 -2.2475  1.4294 -0.4197
 7048SOL     OW26273  10.669   8.438   9.997  0.3569  0.0162 -0.4183
 7048SOL    HW126274  10.625   8.354  10.012 -2.0698  0.5839 -3.7104
 7048SOL    HW226275  10.736   8.418   9.932  1.6948  0.1147  0.9106
 7049SOL     OW26276   2.689   9.383   8.267  0.1649  0.5849 -0.5436
 7049SOL    HW126277   2.780   9.373   8.242  0.6627 -1.1789  1.8265
 7049SOL    HW226278   2.641   9.377   8.185  1.9882 -1.3670 -1.5109
 7050SOL     OW26279   9.986   9.128   9.393 -0.2021 -0.0786 -0.0429
 7050SOL    HW126280   9.916   9.186   9.363 -0.9528 -0.6362  0.6035
 7050SOL    HW226281  10.062   9.151   9.339 -0.9719  0.3186 -0.9612
 7051SOL     OW26282   5.406   8.669   0.846 -0.0319  0.2471  0.2666
 7051SOL    HW126283   5.473   8.681   0.778  0.7805 -0.9241  0.8456
 7051SOL    HW226284   5.419   8.744   0.904  0.0044  0.6540 -0.2581
 7052SOL     OW26285   0.257  10.778   0.002 -0.2857  0.2122 -0.5916
 7052SOL    HW126286   0.214  10.817  -0.073  0.2098  2.0545  0.0597
 7052SOL    HW226287   0.216  10.819   0.078 -0.4203 -1.2457  0.1381
 7053SOL     OW26288   5.493   9.208   0.626  0.5726  0.3763  0.4713
 7053SOL    HW126289   5.412   9.235   0.582 -0.9459 -2.7239  1.2095
 7053SOL    HW226290   5.556   9.195   0.556 -1.3228 -2.8362 -0.7497
 7054SOL     OW26291  10.781  10.320   2.474  0.0896  0.1771  0.0543
 7054SOL    HW126292  10.723  10.245   2.491  1.2137 -0.7381 -0.0961
 7054SOL    HW226293  10.855  10.308   2.533 -0.2712  1.8132  0.8645
 7055SOL     OW26294   4.785   1.902   1.017 -0.4481 -0.0482  0.1444
 7055SOL    HW126295   4.771   1.867   0.929 -0.3744 -0.1176  0.1606
 7055SOL    HW226296   4.707   1.875   1.066 -0.5070  0.0238  0.0904
 7056SOL     OW26297   2.047   0.288   1.840 -0.2006  0.1379 -0.2486
 7056SOL    HW126298   2.094   0.349   1.897 -1.0235  0.2778  0.2892
 7056SOL    HW226299   1.955   0.299   1.864 -0.4241 -0.7749 -0.6696
 7057SOL     OW26300   0.882   0.975   1.385  0.5310  0.5346 -0.3134
 7057SOL    HW126301   0.801   0.942   1.424  0.3608 -0.9614 -1.8997
 7057SOL    HW226302   0.930   1.014   1.459 -0.4366 -0.9506  1.1329
 7058SOL     OW26303   0.067   7.394   9.827 -0.1916 -0.2252 -0.2059
 7058SOL    HW126304  -0.024   7.400   9.796 -0.3898  0.6462  0.5449
 7058SOL    HW226305   0.077   7.467   9.888 -0.3000 -2.8537  3.1013
 7059SOL     OW26306   8.738   5.204   8.201 -0.5951 -0.4791 -0.2340
 7059SOL    HW126307   8.709   5.266   8.134  0.0429 -0.5656 -0.5848
 7059SOL    HW226308   8.657   5.175   8.242 -1.0851 -1.4408 -1.8530
 7060SOL     OW26309   5.056   9.862   2.708 -0.7098 -0.1422  0.4322
 7060SOL    HW126310   5.112   9.879   2.784 -1.2328 -1.9744  1.2672
 7060SOL    HW226311   4.967   9.881   2.740 -0.9729 -1.3352  0.4304
 7061SOL     OW26312   8.886   4.314  10.839 -0.0331  0.2851 -0.2205
 7061SOL    HW126313   8.919   4.401  10.862  1.1180 -0.1762 -0.0963
 7061SOL    HW226314   8.932   4.254  10.897 -1.2661 -0.3622  0.1040
 7062SOL     OW26315   9.942   7.464   0.192 -0.0213 -0.0532  0.6249
 7062SOL    HW126316  10.007   7.400   0.220  0.4838  0.0560 -0.2638
 7062SOL    HW226317   9.994   7.542   0.171 -0.2459 -0.4876 -1.6713
 7063SOL     OW26318   3.968   3.086   6.298  0.2487 -0.3593 -0.3606
 7063SOL    HW126319   3.939   2.998   6.323  0.9612 -0.6420 -0.5382
 7063SOL    HW226320   4.040   3.072   6.237 -1.4258  0.3313 -2.5453
 7064SOL     OW26321  10.601   8.722   8.726  0.0346  0.1803  0.2623
 7064SOL    HW126322  10.575   8.640   8.684 -0.3758  1.0180 -1.1411
 7064SOL    HW226323  10.519   8.767   8.745  0.3137  1.6208 -1.7376
 7065SOL     OW26324   4.522   1.236   9.919  0.5492 -0.2182 -0.0648
 7065SOL    HW126325   4.540   1.260  10.010  1.3752  1.9146 -0.7469
 7065SOL    HW226326   4.565   1.151   9.907 -0.8406 -1.2294  1.9349
 7066SOL     OW26327   9.238   9.158   5.097 -0.4493 -0.3494  0.0061
 7066SOL    HW126328   9.164   9.219   5.099 -1.1698 -1.1910 -0.4648
 7066SOL    HW226329   9.224   9.105   5.019  0.6449 -0.5392 -0.0784
 7067SOL     OW26330   2.320   3.048   5.652  0.3013  0.6270 -0.1324
 7067SOL    HW126331   2.381   3.102   5.601  0.2007  0.5972 -0.2827
 7067SOL    HW226332   2.352   2.958   5.640 -1.0025  0.3630 -1.9311
 7068SOL     OW26333   6.465   1.642   8.873 -0.0280 -0.2082 -0.0768
 7068SOL    HW126334   6.393   1.695   8.907 -0.0111 -0.1337 -0.1562
 7068SOL    HW226335   6.457   1.650   8.777 -0.3805 -0.8234 -0.0985
 7069SOL     OW26336   2.908   0.082   7.447  0.2395  0.0276  0.2244
 7069SOL    HW126337   2.887   0.094   7.539  1.2033 -1.5547  0.6698
 7069SOL    HW226338   3.003   0.075   7.445  0.2435  0.3511 -0.9263
 7070SOL     OW26339   6.561   1.131   8.114 -0.3969  0.4711 -0.3834
 7070SOL    HW126340   6.546   1.059   8.175  1.9667  0.1623 -0.0980
 7070SOL    HW226341   6.604   1.199   8.167 -0.6536  1.2215 -1.1296
 7071SOL     OW26342   7.274   6.220   0.565  0.2077  0.0536 -0.0469
 7071SOL    HW126343   7.358   6.173   0.570  0.6604  1.0508  2.1045
 7071SOL    HW226344   7.287   6.282   0.493  1.2669  0.1095  0.1780
 7072SOL     OW26345   5.083   2.614  10.152 -0.1609 -0.7306  0.1246
 7072SOL    HW126346   4.993   2.595  10.178  0.1481 -0.4066  1.4438
 7072SOL    HW226347   5.115   2.532  10.113 -0.9177 -0.9364 -0.0738
 7073SOL     OW26348  10.842   7.246  11.328  0.2834 -0.0156  0.5111
 7073SOL    HW126349  10.825   7.226  11.420 -0.5311  0.6934  0.5267
 7073SOL    HW226350  10.878   7.335  11.329 -1.2680  0.6534  0.0394
 7074SOL     OW26351   4.439  10.924   5.401  0.3119 -0.2759  0.2979
 7074SOL    HW126352   4.365  10.863   5.399  0.1486 -0.0395 -0.7300
 7074SOL    HW226353   4.507  10.876   5.449 -0.4402 -0.5586  1.0967
 7075SOL     OW26354  11.095   6.116   3.968 -0.0236 -0.1871  0.2800
 7075SOL    HW126355  11.008   6.147   3.940 -0.5050  0.3851  2.3311
 7075SOL    HW226356  11.156   6.169   3.917 -0.8552  3.2838  2.6610
 7076SOL     OW26357   2.496   2.147   5.998 -0.0903 -0.2156 -0.6262
 7076SOL    HW126358   2.451   2.081   6.050 -0.6540  0.6491 -0.0134
 7076SOL    HW226359   2.530   2.210   6.062  0.3852  0.1267 -1.2075
 7077SOL     OW26360   7.680   2.738   3.383 -0.1642 -0.4829  0.5114
 7077SOL    HW126361   7.683   2.697   3.296 -1.3714 -0.4298  0.4408
 7077SOL    HW226362   7.657   2.667   3.442 -4.2005  0.3908  0.1462
 7078SOL     OW26363   2.398   3.680   8.400  0.5425 -0.4227 -0.7521
 7078SOL    HW126364   2.418   3.594   8.437  0.7745 -0.0691 -0.0632
 7078SOL    HW226365   2.306   3.695   8.422  0.3546 -0.7221 -1.3236
 7079SOL     OW26366   0.664   2.051   5.348 -0.6009 -0.4545 -0.7532
 7079SOL    HW126367   0.613   2.128   5.372 -0.3057 -0.1441 -1.1237
 7079SOL    HW226368   0.612   1.977   5.379 -0.3484 -0.0656  0.6463
 7080SOL     OW26369   4.210   9.712   1.783  0.3109 -0.0349 -0.1563
 7080SOL    HW126370   4.280   9.654   1.753 -1.4469 -1.6175 -1.2993
 7080SOL    HW226371   4.201   9.778   1.714 -1.5046 -1.7547 -1.6194
 7081SOL     OW26372   2.827   3.490  11.073 -0.4279 -0.6079  0.0865
 7081SOL    HW126373   2.871   3.556  11.127  1.3865 -1.0790 -0.8097
 7081SOL    HW226374   2.897   3.440  11.032 -1.7504 -0.4272 -2.5403
 7082SOL     OW26375   9.479   2.456  10.122 -0.0545  0.1143 -0.4145
 7082SOL    HW126376   9.454   2.390  10.057 -0.4960  0.8706 -1.0105
 7082SOL    HW226377   9.527   2.522  10.073 -0.4509  0.7272  0.0135
 7083SOL     OW26378   4.012   4.807   8.426  0.8491 -0.6048 -0.3200
 7083SOL    HW126379   4.084   4.789   8.365  0.9611 -0.6053 -0.1871
 7083SOL    HW226380   3.998   4.902   8.418 -0.5380 -0.9049 -1.9149
 7084SOL     OW26381   4.870   0.997   4.164 -0.1455 -0.2124  0.7985
 7084SOL    HW126382   4.965   1.011   4.158  0.1449 -2.1789  0.4068
 7084SOL    HW226383   4.849   0.943   4.088 -1.8922  1.6456 -0.0742
 7085SOL     OW26384   4.886   7.842   9.279 -0.2635 -0.0247  0.2811
 7085SOL    HW126385   4.856   7.894   9.354  1.6162  1.1063  0.2655
 7085SOL    HW226386   4.846   7.756   9.292 -0.8246  0.4740  2.0016
 7086SOL     OW26387   1.625  10.948   4.816 -0.1938  0.4463 -0.2730
 7086SOL    HW126388   1.634  10.872   4.874  0.8371  1.0893  0.4297
 7086SOL    HW226389   1.702  11.002   4.835 -1.1996  1.9514 -0.3385
 7087SOL     OW26390   3.109   7.957   4.760  0.2606  0.5450  0.7722
 7087SOL    HW126391   3.077   7.970   4.670  0.3794 -0.9651  0.5036
 7087SOL    HW226392   3.183   8.017   4.768 -0.2421  1.2607  0.1215
 7088SOL     OW26393   2.929   8.019   7.899  0.0299 -0.1893  0.7614
 7088SOL    HW126394   2.947   8.112   7.885 -0.5258 -0.0276  1.1034
 7088SOL    HW226395   3.003   7.987   7.952  0.3589 -0.0050  0.4091
 7089SOL     OW26396   2.484   1.935   2.188 -0.2017 -0.7269  0.0972
 7089SOL    HW126397   2.559   1.882   2.214 -0.5241 -0.6269  1.2939
 7089SOL    HW226398   2.447   1.889   2.112  1.1305 -0.7029 -0.5749
 7090SOL     OW26399   6.311   2.688   1.435  0.1784  0.0401 -0.0479
 7090SOL    HW126400   6.276   2.629   1.368  1.3439 -0.3367 -0.3354
 7090SOL    HW226401   6.277   2.774   1.411 -0.7037 -0.3398 -0.2062
 7091SOL     OW26402   3.076  10.361   2.399 -0.2612  0.2697  0.3350
 7091SOL    HW126403   3.088  10.321   2.313 -1.3217 -0.3644  0.4746
 7091SOL    HW226404   3.163  10.354   2.440  0.2899  0.7190 -0.7279
 7092SOL     OW26405   6.648   0.720   2.633  0.1291 -0.0275 -0.1206
 7092SOL    HW126406   6.600   0.676   2.703 -0.1964  0.4047 -0.0698
 7092SOL    HW226407   6.648   0.813   2.659 -0.7108  0.2552 -1.1114
 7093SOL     OW26408   2.534   8.355   8.665 -0.5551 -0.4477 -0.1387
 7093SOL    HW126409   2.607   8.375   8.606  0.2123  1.4632  1.3892
 7093SOL    HW226410   2.456   8.378   8.616 -0.1271 -2.0842 -1.6370
 7094SOL     OW26411   8.045   2.338  10.786 -0.0564 -0.3552 -0.0437
 7094SOL    HW126412   8.130   2.373  10.758 -0.8511  0.5316 -1.3961
 7094SOL    HW226413   8.012   2.404  10.847  0.2043 -0.6848  0.4576
 7095SOL     OW26414   8.586   1.206  11.270  0.2016  0.0637 -0.0816
 7095SOL    HW126415   8.590   1.111  11.254  0.2984  0.0582 -0.0263
 7095SOL    HW226416   8.580   1.244  11.182 -1.4704 -0.0663 -0.0409
 7096SOL     OW26417   0.209  11.269   2.946 -0.3167  0.8146  0.0912
 7096SOL    HW126418   0.250  11.333   3.004  0.7966  1.3846 -1.3131
 7096SOL    HW226419   0.175  11.321   2.873  0.4708 -0.1617 -0.9878
 7097SOL     OW26420   6.984   6.087   4.131 -0.4350 -0.4107 -0.0439
 7097SOL    HW126421   7.052   6.066   4.194 -0.7775  0.3283  0.5690
 7097SOL    HW226422   6.909   6.114   4.184 -0.3870  1.2384 -0.7842
 7098SOL     OW26423   7.714   9.798   9.200  0.2611 -0.2568 -0.1730
 7098SOL    HW126424   7.765   9.720   9.179 -0.8693 -0.8071 -0.9101
 7098SOL    HW226425   7.658   9.811   9.124  0.8543  1.6188 -0.3076
 7099SOL     OW26426   1.783   4.144   5.776 -0.1865  0.0899 -0.2059
 7099SOL    HW126427   1.836   4.189   5.710 -0.6020 -0.5517 -0.9816
 7099SOL    HW226428   1.814   4.054   5.774 -0.1269  0.0822  0.5660
 7100SOL     OW26429   9.424   2.957   5.325 -0.4463 -0.5349  0.1629
 7100SOL    HW126430   9.357   3.015   5.289 -0.0334  1.0528  1.8709
 7100SOL    HW226431   9.442   2.894   5.255 -3.3491 -0.6976 -0.5086
 7101SOL     OW26432   6.833   1.562  10.363 -0.0927  0.3360 -0.3262
 7101SOL    HW126433   6.749   1.516  10.358  0.2983 -0.2710 -1.7111
 7101SOL    HW226434   6.893   1.499  10.402 -0.1036  0.4839 -0.0737
 7102SOL     OW26435   4.252   1.687   9.103 -0.0270 -0.2626 -0.0349
 7102SOL    HW126436   4.159   1.698   9.085  0.2174  0.3785 -0.9211
 7102SOL    HW226437   4.254   1.644   9.188 -1.1095  2.7549  1.6135
 7103SOL     OW26438   8.962  10.425   0.151  0.3776 -0.3077  0.6735
 7103SOL    HW126439   9.023  10.449   0.222  0.3728  0.2139  0.4955
 7103SOL    HW226440   8.880  10.406   0.196 -0.0007  1.3088  0.6907
 7104SOL     OW26441   1.416   5.839   8.354  0.2233  0.1162  0.0651
 7104SOL    HW126442   1.340   5.882   8.315 -0.2583 -2.1744 -1.5881
 7104SOL    HW226443   1.449   5.903   8.417 -2.0959  1.8020 -0.3499
 7105SOL     OW26444   2.975   9.201  10.144 -0.4339 -0.2189 -0.1962
 7105SOL    HW126445   2.984   9.268  10.212  0.7386  0.4518 -0.9992
 7105SOL    HW226446   2.925   9.244  10.075  1.3097  0.2410 -1.2127
 7106SOL     OW26447   0.454   4.361   0.165  0.0811 -0.8067  0.0055
 7106SOL    HW126448   0.506   4.315   0.232 -1.5992 -1.2687  1.0296
 7106SOL    HW226449   0.493   4.448   0.160 -1.7189  0.3323  3.9675
 7107SOL     OW26450   7.318  11.056   7.806 -0.1914  0.1489 -0.4465
 7107SOL    HW126451   7.322  10.967   7.772 -0.0600 -0.1647  0.3580
 7107SOL    HW226452   7.409  11.085   7.809 -0.2321  0.2968 -0.6857
 7108SOL     OW26453   0.626   8.605   2.699 -0.2783  0.5926 -0.4920
 7108SOL    HW126454   0.715   8.590   2.668  0.1038  0.2260  0.7641
 7108SOL    HW226455   0.572   8.545   2.648  0.1961  0.7554 -1.1937
 7109SOL     OW26456   9.356   5.730   6.336  0.1761  0.0765  0.0973
 7109SOL    HW126457   9.449   5.749   6.324  0.2312  0.3293  0.8704
 7109SOL    HW226458   9.310   5.797   6.287  0.4070 -0.4734 -0.8745
 7110SOL     OW26459   8.958   8.023   2.790  1.1276 -0.1299  0.1910
 7110SOL    HW126460   8.930   8.103   2.835  0.5818 -0.5200  0.5540
 7110SOL    HW226461   8.952   8.043   2.697  0.9676  0.2385  0.2824
 7111SOL     OW26462   2.459   6.678   8.227  0.1529 -0.5422 -0.0358
 7111SOL    HW126463   2.420   6.607   8.176 -1.8525  1.6933 -1.7176
 7111SOL    HW226464   2.436   6.758   8.180  2.0513  1.2902  1.9929
 7112SOL     OW26465   4.917   5.733   6.907  0.2011 -0.2205 -0.2679
 7112SOL    HW126466   4.889   5.654   6.861  0.6550 -0.9246  0.6340
 7112SOL    HW226467   4.886   5.806   6.853  0.1842 -1.0235 -1.3400
 7113SOL     OW26468   1.441   1.088  10.768  0.5317 -0.3381 -0.1747
 7113SOL    HW126469   1.494   1.022  10.724  2.9386  2.0574 -1.0619
 7113SOL    HW226470   1.414   1.047  10.850 -0.6216 -3.4686 -2.0395
 7114SOL     OW26471   0.052   7.732   5.692  0.1448  0.1495 -0.7315
 7114SOL    HW126472   0.054   7.746   5.597 -1.0377 -0.7097 -0.8967
 7114SOL    HW226473   0.116   7.663   5.707  0.2319  0.1863 -0.9303
 7115SOL     OW26474  10.188   1.395   8.151 -0.0491 -0.3194  0.0392
 7115SOL    HW126475  10.093   1.395   8.150 -0.0518  0.0928  0.3177
 7115SOL    HW226476  10.212   1.307   8.182 -0.3354 -0.3535  0.1622
 7116SOL     OW26477   1.037   7.798   1.668  0.9721 -0.2984 -0.1015
 7116SOL    HW126478   0.959   7.845   1.697  0.4535 -1.0384 -0.2902
 7116SOL    HW226479   1.013   7.705   1.674  1.2379 -0.4820 -1.8485
 7117SOL     OW26480   0.979   6.360   2.862 -0.0404  0.0338 -0.0782
 7117SOL    HW126481   1.042   6.432   2.870 -1.7412  1.9842 -3.0047
 7117SOL    HW226482   0.944   6.348   2.950  1.3185  1.8283  0.7338
 7118SOL     OW26483   6.164   8.261   1.930  0.3166  0.4714  0.6522
 7118SOL    HW126484   6.109   8.241   1.854 -0.8024 -2.3878  2.1389
 7118SOL    HW226485   6.159   8.356   1.939 -0.2702  0.7658 -2.2828
 7119SOL     OW26486   1.354   6.444   1.177  0.5441 -0.4587 -0.0773
 7119SOL    HW126487   1.364   6.530   1.218 -0.4476 -0.8055  0.9001
 7119SOL    HW226488   1.324   6.463   1.088  3.0189  0.3067 -0.7734
 7120SOL     OW26489   7.552   0.548   6.241  0.0260  0.2177 -0.6049
 7120SOL    HW126490   7.498   0.585   6.311  0.2612 -0.5213 -0.0383
 7120SOL    HW226491   7.618   0.615   6.224 -0.2058  0.5187 -0.3221
 7121SOL     OW26492   9.653   0.695   9.221 -0.2131 -0.2521  0.1849
 7121SOL    HW126493   9.567   0.685   9.263 -0.8186  0.8384 -0.7890
 7121SOL    HW226494   9.682   0.782   9.247  1.0399 -0.9827  1.2900
 7122SOL     OW26495   6.607   5.332   9.721  0.5758  0.5752 -0.2834
 7122SOL    HW126496   6.540   5.368   9.778  1.3344  0.9948  0.3588
 7122SOL    HW226497   6.587   5.239   9.715 -1.3472  1.0671 -1.8779
 7123SOL     OW26498   1.821  11.258   6.470  0.0828  0.4644  0.0439
 7123SOL    HW126499   1.903  11.299   6.497  1.5052 -1.9562 -0.3962
 7123SOL    HW226500   1.819  11.175   6.518 -1.3921 -0.1588 -1.0522
 7124SOL     OW26501   8.456   3.668   5.624  0.7143 -0.2289 -0.2181
 7124SOL    HW126502   8.505   3.686   5.704  0.4735 -1.2470  0.1642
 7124SOL    HW226503   8.521   3.631   5.565  1.1277  1.4959 -0.8774
 7125SOL     OW26504   0.122   3.916   1.812  0.0088  0.1690 -0.5344
 7125SOL    HW126505   0.043   3.874   1.846 -0.3889  0.5866 -0.9322
 7125SOL    HW226506   0.110   3.915   1.717  0.0060  1.1721 -0.5443
 7126SOL     OW26507   2.295   1.734   1.560  0.3115  0.0377  0.4031
 7126SOL    HW126508   2.287   1.662   1.498  1.2647  0.4847 -0.2473
 7126SOL    HW226509   2.221   1.723   1.620 -0.6710 -0.3417 -0.8755
 7127SOL     OW26510   6.214   3.891   3.440 -0.6499 -0.1025  0.2004
 7127SOL    HW126511   6.120   3.875   3.445 -0.5708 -0.5948  0.0307
 7127SOL    HW226512   6.226   3.938   3.357 -0.7440 -0.0315  0.2265
 7128SOL     OW26513   7.725   3.281   9.174  0.1111  0.7116  0.0149
 7128SOL    HW126514   7.772   3.329   9.106 -0.2320 -0.9559 -1.4612
 7128SOL    HW226515   7.783   3.207   9.194 -0.4916  0.3473  0.4078
 7129SOL     OW26516   2.867   9.995   9.122  0.3441 -0.3975  0.7992
 7129SOL    HW126517   2.826   9.930   9.065  2.0066  0.3881 -1.4263
 7129SOL    HW226518   2.795  10.035   9.170 -0.9955 -1.8969  0.0697
 7130SOL     OW26519   4.532   5.186   6.171  0.0570  0.4640 -0.3718
 7130SOL    HW126520   4.536   5.121   6.100  2.7775  0.7607 -0.5176
 7130SOL    HW226521   4.559   5.268   6.129  1.4458  0.6862  0.9389
 7131SOL     OW26522   5.315   8.977   3.222 -0.1886  0.3946 -0.5387
 7131SOL    HW126523   5.271   8.993   3.306  0.0150 -0.9162 -0.1683
 7131SOL    HW226524   5.380   8.910   3.242  2.2567  2.5670 -0.9850
 7132SOL     OW26525   3.885   0.940   6.700 -0.4366  0.0198 -0.2714
 7132SOL    HW126526   3.872   1.027   6.663  0.7478 -0.0174 -0.8063
 7132SOL    HW226527   3.844   0.944   6.786  1.9485  1.9990  0.8402
 7133SOL     OW26528   1.917   7.892   4.932  0.4984  0.0546 -0.0504
 7133SOL    HW126529   1.897   7.972   4.982 -1.5108 -0.3373 -0.1734
 7133SOL    HW226530   2.011   7.880   4.943  1.0645  3.0824 -0.9479
 7134SOL     OW26531   1.773   7.911   7.446  0.9731 -0.3346 -0.4628
 7134SOL    HW126532   1.776   7.818   7.467 -1.4814 -0.3370 -0.0701
 7134SOL    HW226533   1.713   7.918   7.372 -1.7778  1.3040  1.8296
 7135SOL     OW26534   1.049   0.246   5.009 -0.1984  0.3932  0.2655
 7135SOL    HW126535   1.077   0.290   4.929  0.2463 -0.0842  0.1612
 7135SOL    HW226536   0.954   0.246   5.005 -0.1764  0.4649 -0.2096
 7136SOL     OW26537   4.399   9.522   9.492 -0.5943  0.5810  0.0533
 7136SOL    HW126538   4.453   9.444   9.477 -1.4546 -0.0468  0.1645
 7136SOL    HW226539   4.399   9.568   9.408 -0.2471  0.3580 -0.0712
 7137SOL     OW26540   9.935   6.476   1.010  0.0851 -0.0420  0.4305
 7137SOL    HW126541   9.943   6.395   1.060  0.3339  0.2729  0.9031
 7137SOL    HW226542   9.841   6.498   1.015  0.3311  0.7041  1.8919
 7138SOL     OW26543   7.789   4.693   3.364 -0.2643 -0.1141  0.0574
 7138SOL    HW126544   7.874   4.688   3.321 -0.8371 -1.3677 -0.9866
 7138SOL    HW226545   7.730   4.726   3.296 -0.8138 -0.2959  0.4424
 7139SOL     OW26546   5.201   7.871   6.894 -0.0495  1.0576  0.0084
 7139SOL    HW126547   5.278   7.858   6.949 -1.1767  0.3913  1.4765
 7139SOL    HW226548   5.162   7.952   6.927 -1.3464  0.0663  0.9821
 7140SOL     OW26549   5.098   4.446   8.477  0.3033 -0.0437 -0.0008
 7140SOL    HW126550   5.067   4.357   8.496  0.7408  0.0312  1.1443
 7140SOL    HW226551   5.120   4.482   8.563  1.6874  0.5888 -0.5987
 7141SOL     OW26552   0.792   8.367  10.616  0.6503 -0.4256 -0.5101
 7141SOL    HW126553   0.838   8.303  10.670  1.7102  1.3871  0.7732
 7141SOL    HW226554   0.800   8.333  10.527  3.5537 -0.6868 -0.1879
 7142SOL     OW26555   4.171  10.618   4.740  0.8188 -0.4407 -0.1922
 7142SOL    HW126556   4.254  10.590   4.702 -0.4945 -0.9987 -2.7653
 7142SOL    HW226557   4.172  10.713   4.733  0.9636 -0.4855 -0.8551
 7143SOL     OW26558   0.102   7.472   9.150 -0.3362 -0.1313 -0.1670
 7143SOL    HW126559   0.014   7.501   9.174 -0.6869  0.2454 -1.8257
 7143SOL    HW226560   0.113   7.502   9.060  1.5161 -0.1335  0.0389
 7144SOL     OW26561  11.321  10.761   9.174  0.3248  0.4616 -0.4400
 7144SOL    HW126562  11.310  10.768   9.269 -0.4381  0.4158 -0.5192
 7144SOL    HW226563  11.415  10.766   9.160  0.4089  0.9528  0.2846
 7145SOL     OW26564   5.676   6.257  10.143  0.0784 -0.0941 -0.0224
 7145SOL    HW126565   5.591   6.244  10.101  0.8528 -0.0705 -1.6049
 7145SOL    HW226566   5.696   6.350  10.129 -0.0170  0.0972  1.0784
 7146SOL     OW26567   7.387   7.045   5.973  0.2706 -0.2961 -0.3546
 7146SOL    HW126568   7.340   6.969   6.008 -0.1881 -0.3017 -0.9763
 7146SOL    HW226569   7.410   7.096   6.050  0.9537 -1.2809  0.1132
 7147SOL     OW26570   8.396   3.691   3.349  0.1855  0.7199 -0.2760
 7147SOL    HW126571   8.360   3.756   3.289 -1.5364  0.7103  0.7297
 7147SOL    HW226572   8.321   3.642   3.381  1.2747 -0.5546  0.4107
 7148SOL     OW26573   4.240   8.545   0.393  0.3246 -0.5668  0.4401
 7148SOL    HW126574   4.249   8.450   0.393  0.5876 -0.5624  2.0149
 7148SOL    HW226575   4.327   8.577   0.370 -0.2159 -0.7171 -1.8825
 7149SOL     OW26576  10.677   3.722  11.335  0.0718  0.5118  0.0544
 7149SOL    HW126577  10.757   3.683  11.371  0.7787  1.2851 -0.6619
 7149SOL    HW226578  10.646   3.658  11.271  0.4147  0.4612 -0.0580
 7150SOL     OW26579   7.673   9.604   8.158  0.2879  0.5596  0.3330
 7150SOL    HW126580   7.742   9.543   8.185  1.3602  2.2153  1.4524
 7150SOL    HW226581   7.659   9.586   8.066  1.4132 -0.5973  0.3854
 7151SOL     OW26582   2.064  10.373   0.671  0.2557  0.0036  0.3345
 7151SOL    HW126583   2.042  10.281   0.686 -0.2918  0.1221  0.2555
 7151SOL    HW226584   2.149  10.385   0.715  1.3249 -1.0602 -1.3995
 7152SOL     OW26585   9.429   3.687   7.764 -0.9537  0.2005  0.4907
 7152SOL    HW126586   9.426   3.782   7.774  0.1795  0.5223 -1.7724
 7152SOL    HW226587   9.352   3.666   7.711  0.7868  0.3775 -2.2191
 7153SOL     OW26588   1.622   2.536   4.487 -0.0038  0.0056 -0.3383
 7153SOL    HW126589   1.685   2.570   4.550  0.2454 -0.1618 -0.4955
 7153SOL    HW226590   1.563   2.482   4.540 -1.0892  1.5813  0.0936
 7154SOL     OW26591   0.702   4.816   3.065  0.2088  0.4115  0.0707
 7154SOL    HW126592   0.677   4.894   3.115  0.5983  0.4394  0.2242
 7154SOL    HW226593   0.629   4.755   3.079  0.0927  0.5958  0.2839
 7155SOL     OW26594   3.867   2.081   8.176 -0.0281  0.2143 -0.2578
 7155SOL    HW126595   3.867   2.039   8.263  1.9044  0.7979  0.0455
 7155SOL    HW226596   3.887   2.172   8.193 -2.6087  0.9816 -1.0817
 7156SOL     OW26597   2.584   0.072   9.438 -0.0671  0.3180 -0.5844
 7156SOL    HW126598   2.662   0.065   9.493  0.0519 -0.4441 -0.8425
 7156SOL    HW226599   2.598   0.149   9.385 -1.4094  2.7456  2.4077
 7157SOL     OW26600   6.508   5.849   7.064 -0.0738  0.4215 -0.4605
 7157SOL    HW126601   6.491   5.791   6.990 -0.3209  2.0473 -1.7269
 7157SOL    HW226602   6.589   5.817   7.102  0.7271  0.3165 -2.2178
 7158SOL     OW26603   4.558   0.969   7.332 -0.2306 -0.1032  0.5581
 7158SOL    HW126604   4.499   1.033   7.293  0.3819 -0.5434 -1.1555
 7158SOL    HW226605   4.572   1.000   7.421 -1.8067  0.8410  0.4937
 7159SOL     OW26606   7.122   6.512   0.971  0.0974 -0.0640  0.0788
 7159SOL    HW126607   7.114   6.422   1.003 -0.3822 -0.0215  0.0884
 7159SOL    HW226608   7.192   6.550   1.024 -0.6543 -0.0074  1.0648
 7160SOL     OW26609  10.243   1.379   9.058  0.1449 -0.1976  0.3942
 7160SOL    HW126610  10.191   1.453   9.090  1.7501  1.5628 -0.9379
 7160SOL    HW226611  10.304   1.361   9.130 -0.5695 -0.5649  0.9174
 7161SOL     OW26612   3.364   3.133   9.130  0.5171 -0.4575 -0.0450
 7161SOL    HW126613   3.450   3.145   9.089  0.5196 -0.0510  0.0727
 7161SOL    HW226614   3.345   3.218   9.169 -0.3765 -0.2496 -0.9117
 7162SOL     OW26615   4.999   3.271   4.977  0.3623  0.5381  0.0189
 7162SOL    HW126616   5.001   3.363   4.951 -1.2236  0.4489 -0.5087
 7162SOL    HW226617   4.996   3.223   4.894 -1.1090  0.1152  0.2937
 7163SOL     OW26618   4.699  10.862   3.150  0.1649 -0.4532  0.1317
 7163SOL    HW126619   4.745  10.946   3.151 -1.7137  0.6312 -1.0048
 7163SOL    HW226620   4.700  10.833   3.241 -1.1745  1.9483  0.9594
 7164SOL     OW26621   2.868   3.969   8.505 -0.2566 -0.2092  0.6864
 7164SOL    HW126622   2.773   3.975   8.495 -0.2529  2.2844  1.7275
 7164SOL    HW226623   2.900   4.058   8.489  1.8553 -0.9050  0.8067
 7165SOL     OW26624   8.345  11.096   3.186 -0.0456 -0.2138  0.4713
 7165SOL    HW126625   8.327  11.069   3.096  1.4899 -1.0949  0.3956
 7165SOL    HW226626   8.369  11.015   3.231 -2.9218 -0.1366  2.2645
 7166SOL     OW26627  11.276   2.896   5.065  0.0349 -0.3314  0.1435
 7166SOL    HW126628  11.370   2.911   5.064  0.1505 -1.0111  0.3335
 7166SOL    HW226629  11.239   2.977   5.101  0.5397 -0.0491  0.0345
 7167SOL     OW26630  10.186   2.168   9.254  0.4364  0.2203  0.4342
 7167SOL    HW126631  10.135   2.096   9.291 -1.6481  0.6775 -1.4619
 7167SOL    HW226632  10.189   2.234   9.323 -1.4915  0.1424  0.6034
 7168SOL     OW26633   9.066  10.224  11.283 -0.2207 -0.2193 -0.2810
 7168SOL    HW126634   9.037  10.299  11.334 -1.0973 -0.1066 -0.9330
 7168SOL    HW226635   8.990  10.199  11.230  0.6772 -0.2651 -1.5889
 7169SOL     OW26636   2.268   7.416   8.267 -0.6354  0.4102  0.3830
 7169SOL    HW126637   2.210   7.492   8.279  1.1445  1.4835  2.4689
 7169SOL    HW226638   2.345   7.451   8.223 -0.5824 -0.5989 -0.3604
 7170SOL     OW26639  11.329   5.535  10.075  0.6207 -0.1419 -0.7143
 7170SOL    HW126640  11.305   5.550  10.166  0.8453  0.5902 -0.7733
 7170SOL    HW226641  11.337   5.440  10.067  2.8362 -0.0903  0.6046
 7171SOL     OW26642   4.565   9.029   9.136 -0.3225  0.1862 -0.2578
 7171SOL    HW126643   4.645   9.072   9.166 -0.7071 -1.6188  3.6531
 7171SOL    HW226644   4.596   8.958   9.080  0.6528  1.3076 -1.1581
 7172SOL     OW26645   5.589   9.243   2.473 -0.0513  0.5045  0.3949
 7172SOL    HW126646   5.664   9.197   2.512 -0.9126 -0.0554  1.4314
 7172SOL    HW226647   5.567   9.311   2.537 -1.0548  0.0151  0.5785
 7173SOL     OW26648   7.986   5.313   7.777  0.2483  0.2165  0.5617
 7173SOL    HW126649   7.916   5.363   7.736  0.3431  0.4913  0.7391
 7173SOL    HW226650   7.957   5.301   7.867  0.0478 -0.3761  0.4213
 7174SOL     OW26651   2.686   1.958   6.914 -0.5081  0.0411  0.7887
 7174SOL    HW126652   2.617   1.892   6.927 -0.2980 -0.3207  0.1015
 7174SOL    HW226653   2.667   1.996   6.829  0.6701 -0.7015  0.1778
 7175SOL     OW26654   7.861   0.761   3.372  0.0994 -0.0499  0.1013
 7175SOL    HW126655   7.811   0.682   3.354  0.3079 -0.4358  1.1515
 7175SOL    HW226656   7.829   0.791   3.458  0.9447  0.2693  0.3111
 7176SOL     OW26657   7.717   7.603   9.074  0.5110  0.4448  0.3847
 7176SOL    HW126658   7.739   7.597   9.167  0.0687  1.3285  0.5469
 7176SOL    HW226659   7.757   7.684   9.044 -3.5913  2.8782  1.0338
 7177SOL     OW26660  11.134   7.376  10.957 -0.6580 -0.0725  0.3152
 7177SOL    HW126661  11.041   7.357  10.967 -0.4774 -0.9558  0.3554
 7177SOL    HW226662  11.162   7.320  10.884 -0.3756  0.9298 -0.3597
 7178SOL     OW26663   8.768   3.975   6.086  0.5306 -0.6339 -0.5976
 7178SOL    HW126664   8.781   3.880   6.098 -0.7322 -0.9361 -1.5223
 7178SOL    HW226665   8.732   3.983   5.998 -1.7645  0.4821  0.4123
 7179SOL     OW26666   3.010   8.349   1.121 -0.3043 -0.0959  0.3574
 7179SOL    HW126667   3.042   8.408   1.188 -0.8384  0.1369  0.4160
 7179SOL    HW226668   3.081   8.287   1.106 -0.0604  0.0560  0.8957
 7180SOL     OW26669   2.952   5.108   3.545  0.2221 -0.0314 -0.1686
 7180SOL    HW126670   2.993   5.070   3.467  0.3854  0.7652 -0.4742
 7180SOL    HW226671   2.987   5.058   3.618  2.3155  1.1316 -0.3547
 7181SOL     OW26672   9.536   1.048   7.505 -0.2585 -0.4455  0.5406
 7181SOL    HW126673   9.573   0.960   7.503  0.1946 -0.2547  0.4460
 7181SOL    HW226674   9.584   1.092   7.575  0.1160 -0.0118  0.0150
 7182SOL     OW26675   0.175   3.144   1.045  0.1355  0.4041  0.0822
 7182SOL    HW126676   0.216   3.228   1.065  0.0271 -0.0087  2.0819
 7182SOL    HW226677   0.085   3.152   1.076  0.4939 -0.9029  1.5383
 7183SOL     OW26678   8.981   6.406   6.166  0.2476  0.2588 -0.0866
 7183SOL    HW126679   8.920   6.394   6.239  0.7104 -0.7437  0.1471
 7183SOL    HW226680   8.925   6.412   6.088 -0.2206  0.8145  0.2894
 7184SOL     OW26681   4.652   1.717  11.226  0.4299 -0.3915  0.4925
 7184SOL    HW126682   4.710   1.649  11.191 -1.6904 -2.1742  0.3520
 7184SOL    HW226683   4.610   1.676  11.302 -1.1577  0.6295  0.1847
 7185SOL     OW26684   6.074   4.352   5.779  0.4383 -0.1869  0.1522
 7185SOL    HW126685   6.119   4.306   5.708  0.3744 -1.5753  0.9882
 7185SOL    HW226686   6.005   4.402   5.735  0.9351 -0.3618 -0.8478
 7186SOL     OW26687   4.557   8.489   1.693 -0.0194 -0.1979  0.2144
 7186SOL    HW126688   4.487   8.522   1.637  0.2957  0.5644  0.2723
 7186SOL    HW226689   4.527   8.401   1.719  0.0626 -0.7807 -1.5621
 7187SOL     OW26690   3.256   0.097   1.752  0.2708 -0.3465  0.2218
 7187SOL    HW126691   3.170   0.096   1.709  0.4087 -0.4924 -0.0567
 7187SOL    HW226692   3.271   0.005   1.776  0.6882 -0.4479 -0.4208
 7188SOL     OW26693   7.131   9.337   3.346  0.8110 -0.4310  0.3582
 7188SOL    HW126694   7.162   9.425   3.322  0.2477 -0.7690 -1.6567
 7188SOL    HW226695   7.209   9.294   3.382  1.6264  0.1916 -0.6126
 7189SOL     OW26696   5.898   3.927   8.970 -0.0280  0.6445  0.1554
 7189SOL    HW126697   5.867   3.901   8.884  0.3647  0.7156 -0.0101
 7189SOL    HW226698   5.893   3.847   9.023 -0.3786  0.6300  0.1017
 7190SOL     OW26699   7.011   5.837   2.256 -0.1517  0.0465  0.4443
 7190SOL    HW126700   7.032   5.868   2.168 -2.6168 -2.3767 -1.0858
 7190SOL    HW226701   7.082   5.776   2.276  0.0863  0.1191 -0.1510
 7191SOL     OW26702   2.732   2.123   4.279 -0.2535 -0.6710 -0.6812
 7191SOL    HW126703   2.658   2.172   4.244 -0.4250  0.6571  1.4682
 7191SOL    HW226704   2.703   2.094   4.365  1.3366 -1.0892 -0.2692
 7192SOL     OW26705   9.855   8.428   9.605 -0.2155  0.5956 -0.3332
 7192SOL    HW126706   9.867   8.363   9.674  1.0206  1.1240 -0.0323
 7192SOL    HW226707   9.943   8.461   9.587 -0.6551  1.2226 -1.4239
 7193SOL     OW26708   8.263   8.241   9.587 -0.4597 -0.0159 -0.1239
 7193SOL    HW126709   8.273   8.184   9.511 -0.2631  0.2418 -0.2925
 7193SOL    HW226710   8.200   8.197   9.643 -1.1379  0.1414 -0.7667
 7194SOL     OW26711   4.495   7.626   9.082 -0.1105 -0.5029 -0.5116
 7194SOL    HW126712   4.409   7.668   9.085 -0.2598 -0.7731 -1.0063
 7194SOL    HW226713   4.479   7.540   9.045  0.4047 -0.4755 -0.8099
 7195SOL     OW26714   0.790   9.316   9.463  0.5345 -0.0802 -0.4145
 7195SOL    HW126715   0.695   9.306   9.467  0.3819  1.2515 -0.7373
 7195SOL    HW226716   0.819   9.247   9.403 -0.1427 -0.9753  0.2729
 7196SOL     OW26717  10.714  10.975   9.411 -0.3005 -0.0222  0.0476
 7196SOL    HW126718  10.645  11.036   9.435  0.0347 -0.0733  1.1600
 7196SOL    HW226719  10.759  11.018   9.338  0.8444  1.7697  1.7460
 7197SOL     OW26720   2.004   0.479   0.890 -0.4746  0.2096  0.1920
 7197SOL    HW126721   1.952   0.415   0.841  0.4685  1.0619 -2.0130
 7197SOL    HW226722   1.999   0.559   0.838  0.2310  1.2761  1.7245
 7198SOL     OW26723   4.270   6.127   1.458 -0.2384 -0.6430  0.1370
 7198SOL    HW126724   4.278   6.158   1.548 -0.5745 -0.5910  0.1475
 7198SOL    HW226725   4.275   6.207   1.405  0.8748 -0.7511  0.0538
 7199SOL     OW26726   7.724   1.533   3.761  0.4252  0.4356 -0.5000
 7199SOL    HW126727   7.671   1.608   3.787  0.5411 -0.2446  1.7360
 7199SOL    HW226728   7.712   1.528   3.666 -2.9123  0.7458 -0.1651
 7200SOL     OW26729   2.301   1.987   1.442  0.1549  0.2858  0.0513
 7200SOL    HW126730   2.361   1.974   1.369  0.3998 -0.0662  0.3183
 7200SOL    HW226731   2.299   1.903   1.487  0.7925  0.8081  1.0488
 7201SOL     OW26732   9.369   6.442   2.722  0.1742  0.7645 -0.1559
 7201SOL    HW126733   9.349   6.408   2.809  0.4201  1.3290  0.1301
 7201SOL    HW226734   9.321   6.525   2.717 -0.2122  0.5028 -0.7385
 7202SOL     OW26735   3.887  11.173   7.803  0.0590  0.0290 -0.1969
 7202SOL    HW126736   3.966  11.204   7.846  1.4967  0.9569 -3.3238
 7202SOL    HW226737   3.840  11.123   7.870  3.1076 -0.2380  1.8108
 7203SOL     OW26738   9.160   4.194   0.296  0.0748  0.3770  0.6711
 7203SOL    HW126739   9.129   4.168   0.383  0.5587 -0.1661  0.6882
 7203SOL    HW226740   9.138   4.287   0.289 -0.3150  0.3302  1.2183
 7204SOL     OW26741   5.244   1.062   8.704 -0.2386  0.1717  0.2296
 7204SOL    HW126742   5.312   1.039   8.640  0.9064  2.9636  0.3811
 7204SOL    HW226743   5.163   1.065   8.652  0.6587  2.2813 -1.1393
 7205SOL     OW26744   3.731   5.061   7.018 -0.0598 -0.2790 -0.4002
 7205SOL    HW126745   3.752   4.971   7.042  0.4010  0.6585  2.9336
 7205SOL    HW226746   3.814   5.098   6.987 -0.2482 -1.0021 -1.7615
 7206SOL     OW26747   8.100   6.135   8.081 -0.1274  0.1150 -0.1359
 7206SOL    HW126748   8.069   6.093   8.001 -1.7000 -1.3960  1.2353
 7206SOL    HW226749   8.025   6.135   8.140  1.0116  1.1595  1.3811
 7207SOL     OW26750   6.737   4.241   6.093 -0.0728  0.4766 -0.1419
 7207SOL    HW126751   6.712   4.320   6.142 -0.0803  0.9376 -0.8730
 7207SOL    HW226752   6.752   4.175   6.160 -0.2262  1.0583  0.4752
 7208SOL     OW26753   0.658   6.209   3.999  0.2962  0.0178 -0.0095
 7208SOL    HW126754   0.655   6.263   4.078 -0.9774 -0.9984  0.6651
 7208SOL    HW226755   0.572   6.167   3.996  1.6883 -2.9589  0.1946
 7209SOL     OW26756   7.181   3.092   9.780  0.6902 -0.4849  0.7210
 7209SOL    HW126757   7.102   3.081   9.728 -0.0357  0.9460  1.4864
 7209SOL    HW226758   7.220   3.005   9.782 -1.6667 -1.5883  1.5760
 7210SOL     OW26759  10.078   6.720   6.718  0.2421 -0.3859  0.2705
 7210SOL    HW126760  10.099   6.628   6.734 -0.4313 -0.6320 -0.2198
 7210SOL    HW226761  10.070   6.758   6.805 -1.2805 -1.2139  0.5228
 7211SOL     OW26762   9.243   3.191   0.664 -0.8365 -0.0962  0.4520
 7211SOL    HW126763   9.256   3.243   0.584 -1.4258  0.6950  0.8602
 7211SOL    HW226764   9.152   3.207   0.688 -0.1149  1.2691  2.3957
 7212SOL     OW26765  10.431   8.524   9.220 -0.3814  0.1081 -0.2159
 7212SOL    HW126766  10.399   8.500   9.133  0.3660  0.6672 -0.6626
 7212SOL    HW226767  10.363   8.581   9.256 -0.7162 -0.1628 -0.4225
 7213SOL     OW26768   8.631   3.653   2.256 -0.0537  0.1384  0.3364
 7213SOL    HW126769   8.645   3.716   2.326  1.1032 -0.2918  0.5126
 7213SOL    HW226770   8.634   3.568   2.300  0.2249 -0.1099 -0.1592
 7214SOL     OW26771   5.137   6.053  10.152  0.1135  0.1802  0.3699
 7214SOL    HW126772   5.092   5.981  10.109 -0.6509  0.4017  0.7907
 7214SOL    HW226773   5.223   6.018  10.175  0.0350 -0.3440 -0.1500
 7215SOL     OW26774   0.295   8.624   8.752 -0.3897 -0.1541  0.3972
 7215SOL    HW126775   0.360   8.554   8.757 -0.1568  0.0393  0.0773
 7215SOL    HW226776   0.274   8.643   8.844 -0.0085 -0.2286  0.5019
 7216SOL     OW26777   4.581   1.305   4.576  0.1646  0.1311 -0.3936
 7216SOL    HW126778   4.489   1.278   4.574 -0.1629  1.0810  1.2790
 7216SOL    HW226779   4.604   1.306   4.669  1.6469  0.6063 -0.7564
 7217SOL     OW26780   4.955   0.537   3.277  0.2260 -0.0856  0.0074
 7217SOL    HW126781   4.975   0.616   3.227 -0.0460  0.5570  0.8960
 7217SOL    HW226782   4.968   0.466   3.215 -0.8678  0.7495 -1.2144
 7218SOL     OW26783   0.764   0.228  11.284  0.0351 -0.9298  0.1728
 7218SOL    HW126784   0.713   0.160  11.329 -1.6468  0.8456  1.0519
 7218SOL    HW226785   0.784   0.292  11.352  1.0322 -0.2089 -0.7709
 7219SOL     OW26786   4.024   7.716   1.349  0.2941 -0.1344 -0.0044
 7219SOL    HW126787   4.026   7.621   1.360 -0.2984 -0.3174 -1.3552
 7219SOL    HW226788   3.967   7.747   1.419 -0.2634 -0.8784 -0.1242
 7220SOL     OW26789   9.534   9.542   6.885 -0.3505 -0.2395  0.2719
 7220SOL    HW126790   9.514   9.635   6.875  0.7670 -0.0590 -0.3969
 7220SOL    HW226791   9.535   9.508   6.795 -3.3002 -1.4691  0.6322
 7221SOL     OW26792   0.324   7.674  10.559  0.0717  0.0433  0.1551
 7221SOL    HW126793   0.273   7.595  10.576  0.5583 -0.6658 -1.4994
 7221SOL    HW226794   0.414   7.649  10.579  0.2785  0.0408 -0.7283
 7222SOL     OW26795   6.713   0.416  10.802 -0.4408 -0.1117  0.1732
 7222SOL    HW126796   6.688   0.491  10.749 -1.1750 -0.6416 -0.2501
 7222SOL    HW226797   6.770   0.364  10.745  0.2389  0.2408  0.5396
 7223SOL     OW26798   4.506   5.449   7.144  0.1371 -0.3388 -0.0882
 7223SOL    HW126799   4.416   5.425   7.163 -0.0717  1.3112  1.1008
 7223SOL    HW226800   4.558   5.377   7.179 -0.6815 -1.0515 -0.3244
 7224SOL     OW26801   4.310   2.138   5.239  0.4487 -0.0243 -0.4868
 7224SOL    HW126802   4.243   2.159   5.174 -0.2043  0.3399  0.2947
 7224SOL    HW226803   4.281   2.056   5.278  1.3377 -0.7417 -1.3137
 7225SOL     OW26804   7.610   9.520   6.334  0.5838 -0.3175 -0.1617
 7225SOL    HW126805   7.583   9.526   6.426  0.1388  1.4080 -0.3820
 7225SOL    HW226806   7.650   9.605   6.316  2.1919 -1.2478 -1.0958
 7226SOL     OW26807   7.077   3.804   4.135  0.3154 -0.0865  0.0660
 7226SOL    HW126808   7.171   3.795   4.116  0.8168  0.4437  2.0841
 7226SOL    HW226809   7.069   3.778   4.227 -1.4839  0.1325 -0.0135
 7227SOL     OW26810   8.807   7.511   0.860 -0.4241  0.1885  0.2554
 7227SOL    HW126811   8.902   7.505   0.851 -0.3837 -2.1649  1.8113
 7227SOL    HW226812   8.774   7.516   0.771  1.1663  1.5223 -0.2802
 7228SOL     OW26813   7.086   7.940   2.534  0.1071  0.3687 -0.2516
 7228SOL    HW126814   7.038   7.932   2.452 -0.7049  1.2970  0.1311
 7228SOL    HW226815   7.163   7.992   2.512 -0.3138  0.9583 -0.3467
 7229SOL     OW26816   1.599   2.305   5.744 -0.3977 -0.6005 -0.6332
 7229SOL    HW126817   1.545   2.352   5.807  0.3286 -0.7890  0.1438
 7229SOL    HW226818   1.539   2.284   5.672 -0.9528  0.6509 -0.5532
 7230SOL     OW26819   4.963   3.015   0.531 -0.4653  0.4136 -0.1892
 7230SOL    HW126820   4.872   3.011   0.504 -1.0839 -0.1113  1.8241
 7230SOL    HW226821   4.964   3.077   0.604  1.3584  2.8529 -2.1926
 7231SOL     OW26822   0.095   9.561   8.002  0.0590  0.1801  0.1348
 7231SOL    HW126823   0.001   9.571   8.016  0.0304  0.9696 -0.6217
 7231SOL    HW226824   0.117   9.628   7.938  1.2440  0.3630  0.7270
 7232SOL     OW26825   0.665  10.328   7.216 -0.1054 -0.0584  0.8634
 7232SOL    HW126826   0.611  10.349   7.139  1.5941  0.1491 -0.2994
 7232SOL    HW226827   0.658  10.233   7.225 -0.3665 -0.0747  0.4964
 7233SOL     OW26828  10.456   0.806   0.117  1.0710 -0.5417 -0.1269
 7233SOL    HW126829  10.435   0.863   0.044 -1.7664 -1.2935  0.0507
 7233SOL    HW226830  10.392   0.828   0.185  2.6900 -0.9092  1.5793
 7234SOL     OW26831   4.348   2.545   2.111  0.1663  0.2287 -0.0483
 7234SOL    HW126832   4.323   2.549   2.203 -0.1274 -0.1267 -0.1144
 7234SOL    HW226833   4.389   2.460   2.100 -0.9453 -0.2542 -0.5358
 7235SOL     OW26834   0.042   4.492  10.082  0.3596  0.0288  0.2248
 7235SOL    HW126835   0.044   4.486  10.177 -2.4679 -1.4257  0.2346
 7235SOL    HW226836   0.007   4.580  10.064 -0.7955 -0.3621  0.5475
 7236SOL     OW26837   9.476   8.022   0.398 -0.2623  0.4607  0.0847
 7236SOL    HW126838   9.528   7.968   0.457  0.4858  0.3544 -0.6608
 7236SOL    HW226839   9.459   8.102   0.448 -1.7476 -0.6171  1.3509
 7237SOL     OW26840   2.167   2.509   0.277  0.8099 -0.4353 -0.3834
 7237SOL    HW126841   2.231   2.503   0.206 -1.5436  1.5338 -2.7979
 7237SOL    HW226842   2.085   2.479   0.238 -0.7431  1.6075  1.1755
 7238SOL     OW26843   0.419   2.464   7.106  0.4583  0.2536  0.0826
 7238SOL    HW126844   0.369   2.383   7.110  1.6121 -0.4119  1.1240
 7238SOL    HW226845   0.353   2.531   7.088 -0.7215 -0.6990  0.7721
 7239SOL     OW26846   2.728   6.730   2.519  0.1593  0.0607 -0.2463
 7239SOL    HW126847   2.709   6.642   2.487  0.2457 -0.0195 -0.0782
 7239SOL    HW226848   2.661   6.746   2.585 -0.4288  0.4898 -0.9468
 7240SOL     OW26849   9.791   3.672   5.231  0.6354 -0.4898  0.8205
 7240SOL    HW126850   9.744   3.599   5.189 -1.2160  2.0077 -1.6610
 7240SOL    HW226851   9.864   3.690   5.172 -0.0361  0.8776  0.3863
 7241SOL     OW26852   8.161   7.513   6.684  0.1496  0.6700 -0.1983
 7241SOL    HW126853   8.217   7.558   6.748  0.1237 -1.9800  1.7879
 7241SOL    HW226854   8.208   7.432   6.664 -2.0093 -0.6405 -0.0620
 7242SOL     OW26855   2.123   3.522  10.082  0.2476  0.1486 -0.0308
 7242SOL    HW126856   2.114   3.491   9.992 -1.0285  0.0508  0.1276
 7242SOL    HW226857   2.126   3.617  10.075  1.0751  0.1082 -0.2539
 7243SOL     OW26858  10.346   4.567   1.392 -0.3719  0.3267 -0.2300
 7243SOL    HW126859  10.363   4.569   1.486 -0.6518 -1.0786 -0.1422
 7243SOL    HW226860  10.407   4.502   1.358  0.1381  1.2497 -1.1111
 7244SOL     OW26861  10.010   5.469   0.435  0.0607  0.2797 -0.1817
 7244SOL    HW126862  10.006   5.382   0.476  0.6377  0.6569  0.6744
 7244SOL    HW226863  10.070   5.458   0.361  1.5489  0.3895  1.0021
 7245SOL     OW26864   6.709  10.502   2.123 -0.2750  0.3512 -0.6761
 7245SOL    HW126865   6.771  10.504   2.196 -1.0991 -0.1389  0.0458
 7245SOL    HW226866   6.683  10.411   2.117 -1.5057  0.6820 -0.4763
 7246SOL     OW26867   3.659   3.785   3.852 -0.1830 -0.1967 -1.0117
 7246SOL    HW126868   3.651   3.727   3.928  0.3922  1.2146  0.1321
 7246SOL    HW226869   3.568   3.807   3.830 -0.3203 -0.0066 -0.2753
 7247SOL     OW26870  10.666   2.353   6.430  0.1758 -0.2478  0.5561
 7247SOL    HW126871  10.642   2.438   6.466  0.3740  1.4497 -3.1683
 7247SOL    HW226872  10.591   2.296   6.451  0.1034  0.7282  3.1793
 7248SOL     OW26873   0.809   0.778   2.850  0.3359 -0.4590  0.3427
 7248SOL    HW126874   0.871   0.705   2.851 -1.8164 -2.3048  0.7331
 7248SOL    HW226875   0.804   0.803   2.758  2.0170  0.0484  0.3646
 7249SOL     OW26876   7.141   3.411   1.841  0.4611  0.4621  0.0538
 7249SOL    HW126877   7.135   3.504   1.865  0.6847  1.1121 -2.2562
 7249SOL    HW226878   7.061   3.372   1.874 -1.3667  2.2485 -2.0254
 7250SOL     OW26879   1.336   1.968   4.713 -0.1043  0.0614  0.8097
 7250SOL    HW126880   1.305   2.053   4.745 -0.3509  0.0601  0.5713
 7250SOL    HW226881   1.418   1.989   4.667  1.0135 -0.1222  2.6728
 7251SOL     OW26882  10.590   3.174  10.606 -0.3092 -0.0108 -0.5818
 7251SOL    HW126883  10.523   3.152  10.671 -1.5807 -0.1646 -1.9399
 7251SOL    HW226884  10.671   3.178  10.657 -1.3951  0.5580  1.1440
 7252SOL     OW26885   1.249   7.167   0.986  0.0935  0.2388  0.4989
 7252SOL    HW126886   1.297   7.109   0.926 -1.0220 -0.4484  0.2662
 7252SOL    HW226887   1.208   7.232   0.929  1.1471  1.1449  0.7417
 7253SOL     OW26888   0.614   0.781   0.839 -0.4691  0.6246  0.5720
 7253SOL    HW126889   0.536   0.771   0.784 -0.9551  0.5892  1.2734
 7253SOL    HW226890   0.584   0.766   0.928  0.0662  1.9312  0.9945
 7254SOL     OW26891  11.112   6.164   9.009  0.1879 -0.3715 -0.3282
 7254SOL    HW126892  11.023   6.146   9.040  0.3598 -1.1006 -0.2424
 7254SOL    HW226893  11.148   6.223   9.075  0.0702 -0.7972  0.1278
 7255SOL     OW26894   1.360  10.955   6.778  0.3591  0.1819  0.4227
 7255SOL    HW126895   1.412  10.996   6.709  0.0475 -0.0709  0.0323
 7255SOL    HW226896   1.407  10.874   6.799  1.0304  0.7865  1.2660
 7256SOL     OW26897   5.445   7.341   1.640 -0.0645  0.5953  0.0535
 7256SOL    HW126898   5.515   7.279   1.656 -0.0456  0.6131  0.0422
 7256SOL    HW226899   5.451   7.361   1.546 -0.8345 -0.3197 -0.2069
 7257SOL     OW26900   7.934   7.001   5.734  0.0432  0.0769 -0.0849
 7257SOL    HW126901   7.896   7.082   5.700  1.7572  1.1324  0.4552
 7257SOL    HW226902   7.885   6.984   5.815 -1.3055 -0.2449 -0.9516
 7258SOL     OW26903   8.438   3.193   5.433 -0.6223 -0.2137  0.5770
 7258SOL    HW126904   8.479   3.211   5.517  0.0441 -1.2103  0.4716
 7258SOL    HW226905   8.345   3.212   5.447 -0.2860  1.0527  1.1059
 7259SOL     OW26906   9.241   4.062   6.168 -0.1652 -0.2127 -0.1126
 7259SOL    HW126907   9.152   4.087   6.193  0.0092 -0.3025  0.6045
 7259SOL    HW226908   9.291   4.068   6.249  0.9754  2.0428 -0.9545
 7260SOL     OW26909   1.273  11.070   7.857  0.3849  0.5468 -0.0102
 7260SOL    HW126910   1.336  11.125   7.811  2.1897 -0.3706  1.3123
 7260SOL    HW226911   1.322  10.992   7.881 -0.9932  0.2126  1.8528
 7261SOL     OW26912   8.686  10.286   4.729 -0.3891 -0.0447 -0.1633
 7261SOL    HW126913   8.714  10.198   4.707  0.8929  0.4447 -0.5327
 7261SOL    HW226914   8.755  10.343   4.694 -1.8567  1.1891 -1.1324
 7262SOL     OW26915   4.983  11.162   9.743  0.0080  0.1402 -0.3467
 7262SOL    HW126916   4.959  11.070   9.758  0.3044  0.1011 -0.0994
 7262SOL    HW226917   4.900  11.208   9.735 -0.1414 -0.1859 -0.6811
 7263SOL     OW26918   5.753   2.291   9.792  0.5851 -0.5617 -0.7538
 7263SOL    HW126919   5.727   2.286   9.700 -2.5862  2.2233 -0.1005
 7263SOL    HW226920   5.678   2.257   9.840  1.0486  0.7024  0.9110
 7264SOL     OW26921   9.946   1.408   8.470  0.1730  0.1348 -0.2105
 7264SOL    HW126922   9.987   1.446   8.392 -1.3625  0.8553 -0.6965
 7264SOL    HW226923   9.951   1.314   8.456 -1.2388  0.2670 -1.8329
 7265SOL     OW26924   0.986   1.777   0.909 -0.1195  0.6276  0.3272
 7265SOL    HW126925   0.941   1.768   0.994 -2.4392  1.2828 -0.7848
 7265SOL    HW226926   0.982   1.871   0.891  1.8320  0.7082  0.2360
 7266SOL     OW26927   8.831   6.495   6.797  0.3553 -0.0902  0.6000
 7266SOL    HW126928   8.905   6.556   6.794  1.2435 -1.2110 -1.5735
 7266SOL    HW226929   8.811   6.478   6.705 -1.8335 -0.7629  1.1831
 7267SOL     OW26930   7.305   7.829  10.988 -0.1726  0.1143  0.2076
 7267SOL    HW126931   7.367   7.873  11.046  0.4832 -0.2352 -0.2222
 7267SOL    HW226932   7.301   7.739  11.020  0.1286 -0.0594 -0.2287
 7268SOL     OW26933   4.575   0.454  10.942 -0.1496  0.1003 -0.4143
 7268SOL    HW126934   4.616   0.428  11.024 -2.5733  0.0713  0.8106
 7268SOL    HW226935   4.551   0.546  10.954 -0.0493  0.2570 -1.3048
 7269SOL     OW26936  10.263   0.842  11.209  0.3480  0.8577 -0.2418
 7269SOL    HW126937  10.193   0.798  11.259  0.2707 -0.7742 -1.7398
 7269SOL    HW226938  10.237   0.934  11.208 -1.5964  0.3393 -0.4199
 7270SOL     OW26939  10.151   9.891   0.318  0.0698 -0.2522 -0.2167
 7270SOL    HW126940  10.185   9.980   0.325 -0.4242 -0.1645  1.3545
 7270SOL    HW226941  10.229   9.836   0.323  0.2597  0.0523  0.3027
 7271SOL     OW26942   7.059   0.729  10.660 -0.1335 -0.0497  0.1133
 7271SOL    HW126943   7.009   0.738  10.741  0.8442 -0.6691  0.7926
 7271SOL    HW226944   7.034   0.806  10.608 -2.1117 -0.5590  0.2444
 7272SOL     OW26945   5.939   7.162   4.341 -0.0140  0.4841  0.2579
 7272SOL    HW126946   5.964   7.091   4.401  1.1529  1.0684  0.4855
 7272SOL    HW226947   5.844   7.168   4.349  0.1175  0.5853  2.1123
 7273SOL     OW26948   2.872  10.638   0.886 -0.3907 -0.0582 -0.1131
 7273SOL    HW126949   2.962  10.662   0.908 -0.0671 -1.4523  0.1428
 7273SOL    HW226950   2.822  10.659   0.965  0.1851 -1.8042  0.7444
 7274SOL     OW26951   7.476   9.417   5.824 -0.2241  1.0961  0.2599
 7274SOL    HW126952   7.450   9.326   5.811  0.9609  0.8731 -0.6391
 7274SOL    HW226953   7.540   9.414   5.896 -2.1628  1.5710  2.0654
 7275SOL     OW26954   2.430  10.947   0.252  0.0269 -0.5742  0.2219
 7275SOL    HW126955   2.409  10.857   0.276 -0.2955 -0.9696 -1.5195
 7275SOL    HW226956   2.519  10.942   0.218 -0.9120 -0.6949 -2.2982
 7276SOL     OW26957   8.612   1.023  10.085  0.0010  0.6597  0.4144
 7276SOL    HW126958   8.667   0.945  10.077 -1.4579 -0.2112 -1.2076
 7276SOL    HW226959   8.625   1.071  10.003 -0.9239  0.9317  0.4193
 7277SOL     OW26960   9.526   6.795   4.996  0.1399  0.1040 -0.8708
 7277SOL    HW126961   9.472   6.827   4.924 -0.0516  0.3938 -0.6004
 7277SOL    HW226962   9.520   6.863   5.063 -1.8829 -1.3720  0.5274
 7278SOL     OW26963   8.753   4.657  10.038  0.5765  0.9188 -0.5841
 7278SOL    HW126964   8.658   4.644  10.031  0.6447 -0.3393  0.6088
 7278SOL    HW226965   8.788   4.569  10.049  1.5918  1.6304  2.2101
 7279SOL     OW26966   8.321   8.787   5.441  0.1138  0.2321 -0.6294
 7279SOL    HW126967   8.279   8.872   5.427  0.7065  0.6693  0.2262
 7279SOL    HW226968   8.259   8.723   5.406 -1.4293  0.8446  0.9539
 7280SOL     OW26969   4.785   4.603   6.510 -0.7265 -0.3910  0.0367
 7280SOL    HW126970   4.854   4.639   6.565 -0.6168  0.7595 -0.8356
 7280SOL    HW226971   4.740   4.680   6.475 -2.2138 -1.1263  0.2957
 7281SOL     OW26972   2.152   5.712   7.807  0.2583  0.5169  0.0438
 7281SOL    HW126973   2.237   5.730   7.768  0.0246 -0.1140 -0.7822
 7281SOL    HW226974   2.172   5.668   7.889  0.7419  0.9571  0.1635
 7282SOL     OW26975   7.956   6.685   5.957 -0.1340  1.0228 -0.4331
 7282SOL    HW126976   7.916   6.759   5.912  1.0298  2.9636  1.5989
 7282SOL    HW226977   7.908   6.679   6.040 -0.7637 -1.0619 -0.9040
 7283SOL     OW26978  10.867   7.377   7.780 -0.0714  0.1490 -0.5777
 7283SOL    HW126979  10.831   7.435   7.713  0.0595  0.4860 -0.3589
 7283SOL    HW226980  10.931   7.431   7.826  0.6421 -0.4264 -0.9017
 7284SOL     OW26981   5.774  10.292   2.754  0.9112 -0.6048 -0.4116
 7284SOL    HW126982   5.705  10.232   2.725  0.6424 -0.1602 -0.6859
 7284SOL    HW226983   5.848  10.272   2.697 -0.2927  1.7725 -2.9221
 7285SOL     OW26984   3.602   0.264  10.183 -0.2045 -0.2423 -0.4014
 7285SOL    HW126985   3.586   0.287  10.274 -0.7840 -0.7173 -0.3845
 7285SOL    HW226986   3.522   0.219  10.154 -0.1527  0.1897 -1.2343
 7286SOL     OW26987   1.624   7.400   2.388 -0.4273 -0.0421  0.8859
 7286SOL    HW126988   1.631   7.350   2.306  0.6164 -0.7401  1.3972
 7286SOL    HW226989   1.606   7.490   2.359  0.5465 -0.1607 -0.1376
 7287SOL     OW26990   0.629   5.300   8.825  0.4227  0.2428  0.5558
 7287SOL    HW126991   0.624   5.390   8.794  0.2973 -0.0038 -0.1510
 7287SOL    HW226992   0.584   5.301   8.910 -2.9587  0.0529 -1.1980
 7288SOL     OW26993   1.290  10.106   8.743  0.4505  0.1209 -0.2242
 7288SOL    HW126994   1.270  10.017   8.773 -0.5019  0.0762 -0.9686
 7288SOL    HW226995   1.278  10.103   8.648  1.7526  0.7038 -0.4135
 7289SOL     OW26996   3.170   1.097   0.639 -0.6885  0.1992  0.2887
 7289SOL    HW126997   3.125   1.023   0.681 -0.5735  0.7644  1.4113
 7289SOL    HW226998   3.262   1.071   0.639 -0.8513 -0.4210 -0.9086
 7290SOL     OW26999   3.315   3.951   3.935 -0.0993  0.0595  0.4490
 7290SOL    HW127000   3.397   3.987   3.970 -0.6330  2.0890 -0.2905
 7290SOL    HW227001   3.254   4.024   3.939 -1.7861 -1.3413  0.6430
 7291SOL     OW27002   7.929  10.824   1.617 -0.0573 -0.0363  0.3474
 7291SOL    HW127003   7.835  10.818   1.636 -0.3083  0.8684 -0.5654
 7291SOL    HW227004   7.933  10.845   1.524  1.0628 -0.3312  0.3226
 7292SOL     OW27005   1.919   3.759   5.874 -0.2103 -0.4798  0.2144
 7292SOL    HW127006   1.951   3.846   5.895 -1.3689 -0.2458  1.0957
 7292SOL    HW227007   1.998   3.708   5.855  0.5023  0.6374  0.1301
 7293SOL     OW27008   7.275   2.168   0.182  0.7790 -0.1857  0.2671
 7293SOL    HW127009   7.259   2.075   0.167  1.0440 -0.2538  0.3962
 7293SOL    HW227010   7.266   2.208   0.095  2.2304 -0.5654 -0.0823
 7294SOL     OW27011   8.920  10.082   2.074 -0.3188  0.4073 -0.8441
 7294SOL    HW127012   8.923  10.111   2.165 -1.5027  0.0914 -0.6937
 7294SOL    HW227013   8.869  10.001   2.076  0.4883 -0.1336 -1.6546
 7295SOL     OW27014   0.626  10.108   1.825 -0.2448  0.3578  0.0856
 7295SOL    HW127015   0.561  10.116   1.755  1.1180 -1.0398 -1.3856
 7295SOL    HW227016   0.616  10.019   1.857  1.1343  0.0296 -0.3587
 7296SOL     OW27017  10.949   0.532   9.137 -0.0283  0.1364  0.1667
 7296SOL    HW127018  10.853   0.533   9.132  0.0137 -0.5266 -1.0444
 7296SOL    HW227019  10.977   0.575   9.056  0.6944  1.7994  1.2874
 7297SOL     OW27020   3.087   9.306   6.149  0.6962 -0.1802 -0.3745
 7297SOL    HW127021   3.130   9.374   6.201 -0.1630  0.5097 -0.5689
 7297SOL    HW227022   3.121   9.317   6.061  1.2216 -0.5697 -0.2235
 7298SOL     OW27023   4.207  10.560   7.806 -0.5928 -0.4183  0.2968
 7298SOL    HW127024   4.222  10.468   7.830  0.7626  0.0622  1.3450
 7298SOL    HW227025   4.293  10.601   7.816 -1.3956  1.1656  0.7195
 7299SOL     OW27026   1.386   8.134   4.602  0.0238 -0.2595 -0.3212
 7299SOL    HW127027   1.292   8.133   4.589  0.0886 -0.1764 -0.7961
 7299SOL    HW227028   1.400   8.082   4.681 -0.5084  0.5345  0.3105
 7300SOL     OW27029   6.341   8.489   3.348 -0.1916  0.0079 -0.1770
 7300SOL    HW127030   6.301   8.450   3.270  0.6559 -0.8398 -0.1961
 7300SOL    HW227031   6.429   8.453   3.350  0.3209  1.2884  0.2854
 7301SOL     OW27032   0.825  10.657   9.361 -0.0209 -0.7380  0.0784
 7301SOL    HW127033   0.777  10.731   9.323  0.6802  0.3219  1.2005
 7301SOL    HW227034   0.756  10.599   9.394 -0.5729 -0.3421 -0.3588
 7302SOL     OW27035   9.137   6.536   6.380 -0.4399  0.4503  0.3010
 7302SOL    HW127036   9.191   6.462   6.407 -0.6122  0.3739  0.4407
 7302SOL    HW227037   9.072   6.499   6.321  0.7862  0.8418 -1.3425
 7303SOL     OW27038   9.792   5.727   4.150  0.3539  0.0493 -0.3774
 7303SOL    HW127039   9.710   5.681   4.171  0.8744 -0.3797  0.7269
 7303SOL    HW227040   9.764   5.818   4.134 -0.5486 -0.4206 -1.6308
 7304SOL     OW27041   0.617   4.300   1.074 -0.3342 -0.5753  0.2580
 7304SOL    HW127042   0.674   4.242   1.124 -0.7201 -0.7052  0.5558
 7304SOL    HW227043   0.649   4.388   1.093 -0.9373 -0.5789  1.3293
 7305SOL     OW27044   2.669   1.121   5.111  0.0787 -0.0469  0.0251
 7305SOL    HW127045   2.680   1.209   5.145  0.6104 -0.0929 -0.0246
 7305SOL    HW227046   2.575   1.104   5.118  0.0689  0.2710  0.6513
 7306SOL     OW27047   4.015   8.789   2.147 -0.2485 -0.6143  0.5393
 7306SOL    HW127048   3.997   8.861   2.087 -1.5973 -0.3306  1.2462
 7306SOL    HW227049   4.015   8.710   2.092  0.1980 -0.1791 -0.0800
 7307SOL     OW27050  10.484   0.802   5.963  0.1851  0.0422  0.0415
 7307SOL    HW127051  10.432   0.874   5.927  1.3092  0.7064 -0.2784
 7307SOL    HW227052  10.441   0.723   5.931  0.2707  0.6105 -1.5217
 7308SOL     OW27053   9.077   7.464   7.694 -0.0387 -0.6408  0.0904
 7308SOL    HW127054   9.008   7.420   7.645 -2.5412  1.4823  1.5883
 7308SOL    HW227055   9.037   7.488   7.777  3.1599 -1.2494  1.8968
 7309SOL     OW27056   8.150   3.571   8.391  0.2186  0.1864 -0.1681
 7309SOL    HW127057   8.236   3.591   8.428 -0.4714 -0.6573  1.9313
 7309SOL    HW227058   8.088   3.610   8.453 -1.0002 -2.6493  0.4467
 7310SOL     OW27059   8.554   6.406   1.835  0.0332  0.1239  0.4706
 7310SOL    HW127060   8.488   6.431   1.900 -1.6803  0.7410 -1.4511
 7310SOL    HW227061   8.609   6.484   1.826 -0.3360  0.3892  0.4684
 7311SOL     OW27062   1.655   9.082  10.278  0.3244  0.0126  0.1571
 7311SOL    HW127063   1.675   9.020  10.348  0.6523 -1.3844 -1.1619
 7311SOL    HW227064   1.740   9.099  10.237  0.3536  1.8992  0.9573
 7312SOL     OW27065   6.182   6.661   3.986 -0.3178 -0.1047  0.2094
 7312SOL    HW127066   6.260   6.685   3.936  1.2146 -1.0367  2.0936
 7312SOL    HW227067   6.172   6.567   3.972  0.8395 -0.6252  2.5347
 7313SOL     OW27068  11.146  10.379   6.542  0.4315 -0.5311 -0.3623
 7313SOL    HW127069  11.116  10.300   6.498 -1.7106  1.2320 -2.1872
 7313SOL    HW227070  11.208  10.420   6.480 -0.5218  0.5656 -0.6169
 7314SOL     OW27071   2.847  10.645   9.115  0.1456  0.0050 -0.1809
 7314SOL    HW127072   2.758  10.611   9.108 -0.7740  1.8994  1.7594
 7314SOL    HW227073   2.836  10.733   9.151  2.7974  0.3772 -0.2153
 7315SOL     OW27074   6.894   9.703   7.981  0.2132  0.5197 -0.3965
 7315SOL    HW127075   6.969   9.762   7.983 -1.0738  2.1901  0.2265
 7315SOL    HW227076   6.883   9.681   7.889  0.9289  0.9744 -0.5925
 7316SOL     OW27077  11.310  10.105   0.499 -0.2319 -0.1487  0.6423
 7316SOL    HW127078  11.238  10.120   0.438 -0.3449  0.0864  0.8323
 7316SOL    HW227079  11.368  10.181   0.487  1.3995 -1.6828 -1.4967
 7317SOL     OW27080   0.583   0.001   4.575  0.4181  0.6562 -0.5272
 7317SOL    HW127081   0.599  -0.070   4.637 -0.6394 -0.5014 -1.5528
 7317SOL    HW227082   0.643  -0.017   4.502 -0.7324  0.1061 -1.3453
 7318SOL     OW27083   4.726   1.469   8.521  0.5439  0.1296 -0.0903
 7318SOL    HW127084   4.654   1.483   8.583 -1.1343  2.1042 -2.3979
 7318SOL    HW227085   4.799   1.518   8.558  0.4975 -1.1712  1.8237
 7319SOL     OW27086   5.206   5.384   4.404 -0.1560  0.0624 -0.0407
 7319SOL    HW127087   5.206   5.297   4.446  0.3618  0.7395  1.4085
 7319SOL    HW227088   5.294   5.418   4.421 -0.3492  0.8662 -0.6355
 7320SOL     OW27089   3.106   6.868   4.970 -0.2103 -0.7885  0.7201
 7320SOL    HW127090   3.183   6.925   4.977 -0.4512 -0.3599 -0.1190
 7320SOL    HW227091   3.141   6.787   4.933  0.0675 -1.0729  1.5825
 7321SOL     OW27092   7.916   0.157   2.805 -0.8952 -0.5215  0.6057
 7321SOL    HW127093   7.838   0.111   2.776 -1.6159 -0.6863  2.7427
 7321SOL    HW227094   7.913   0.152   2.901  1.1029  0.4981  0.7487
 7322SOL     OW27095  10.223   1.968   6.118 -0.2944 -0.0918 -0.1968
 7322SOL    HW127096  10.260   1.884   6.090 -2.4160 -1.1465  0.0566
 7322SOL    HW227097  10.197   1.953   6.209  1.0115  1.4337  0.4407
 7323SOL     OW27098   2.209   0.679   9.901  0.0440  0.6534 -0.2289
 7323SOL    HW127099   2.198   0.767   9.864 -2.5755  0.2080 -0.6015
 7323SOL    HW227100   2.190   0.690   9.994 -2.8340  0.0736 -0.6955
 7324SOL     OW27101   4.586   5.745   4.487  0.2663 -0.2192 -0.2542
 7324SOL    HW127102   4.493   5.770   4.493 -0.0990 -1.4496 -0.6296
 7324SOL    HW227103   4.631   5.826   4.465 -0.5361  0.7155  1.4388
 7325SOL     OW27104   1.462  10.887   2.721 -0.0147 -0.3732  0.4039
 7325SOL    HW127105   1.535  10.911   2.664  0.7873 -1.7485  0.8399
 7325SOL    HW227106   1.480  10.932   2.803  0.2883 -0.6270  0.4762
 7326SOL     OW27107   3.415   0.908  11.055 -0.2517  0.0458  0.3143
 7326SOL    HW127108   3.408   0.986  10.999 -0.4698  2.3930  3.4906
 7326SOL    HW227109   3.361   0.929  11.131 -0.3340 -3.2752  1.2333
 7327SOL     OW27110  10.058   2.732   3.206 -0.1882 -0.9071  0.0656
 7327SOL    HW127111  10.119   2.680   3.154 -1.0935 -0.1850 -1.7422
 7327SOL    HW227112   9.974   2.723   3.160 -1.0247 -0.3400  1.4639
 7328SOL     OW27113   8.987  11.169  10.194 -0.0963 -0.3581  0.0719
 7328SOL    HW127114   9.018  11.175  10.103 -1.8834  0.1675 -0.5105
 7328SOL    HW227115   8.939  11.087  10.197  0.7465 -0.8288  0.7988
 7329SOL     OW27116   7.951   7.083  10.068 -0.4070 -0.0225  0.6914
 7329SOL    HW127117   7.884   7.023  10.102 -2.4973  0.6581 -2.0980
 7329SOL    HW227118   8.000   7.031  10.005 -1.1523  0.6854 -0.4926
 7330SOL     OW27119   4.202   9.631   9.638  0.4978  0.0635  0.1923
 7330SOL    HW127120   4.263   9.583   9.582  0.1496 -0.1581  0.0056
 7330SOL    HW227121   4.238   9.720   9.641  0.4316  0.1173 -0.5071
 7331SOL     OW27122   8.846   8.767   8.549 -0.5109  0.4264  0.0340
 7331SOL    HW127123   8.841   8.827   8.623  1.2038  2.5347 -1.4690
 7331SOL    HW227124   8.764   8.782   8.502 -1.2353 -0.3141  1.0522
 7332SOL     OW27125   6.734   5.354   2.907 -0.0561 -0.2291  0.4357
 7332SOL    HW127126   6.675   5.316   2.843  0.8484 -0.8488 -0.0504
 7332SOL    HW227127   6.684   5.357   2.989 -1.3367  0.8994 -0.3785
 7333SOL     OW27128   2.999   4.036   4.776  0.2848  0.1061  0.2677
 7333SOL    HW127129   3.069   4.051   4.713 -0.6590 -2.5749 -1.5269
 7333SOL    HW227130   2.919   4.060   4.729 -0.1612  1.1703  1.5649
 7334SOL     OW27131   0.199   0.493  11.292 -0.4585 -0.6677  0.0590
 7334SOL    HW127132   0.249   0.563  11.250 -0.9336 -0.5984 -0.3936
 7334SOL    HW227133   0.159   0.535  11.368 -0.3201 -0.5758  0.0819
 7335SOL     OW27134  10.254   4.791   4.762 -0.0500  0.2784  0.3604
 7335SOL    HW127135  10.187   4.777   4.695 -0.0395  0.4901  0.3038
 7335SOL    HW227136  10.288   4.703   4.781  0.2697  0.2637 -0.2539
 7336SOL     OW27137   3.609   2.537   6.081 -0.8028 -0.5920  0.2303
 7336SOL    HW127138   3.523   2.577   6.071 -1.0215 -0.9975  0.4931
 7336SOL    HW227139   3.671   2.606   6.054 -1.1586  0.0225  0.9733
 7337SOL     OW27140  10.208   0.257   5.168  0.2476 -0.2077  0.0923
 7337SOL    HW127141  10.124   0.212   5.178 -0.3398  0.9749  0.5948
 7337SOL    HW227142  10.272   0.198   5.207 -0.5089 -0.6279  0.7050
 7338SOL     OW27143  11.100   8.885   3.387 -0.1619 -0.5986  1.1119
 7338SOL    HW127144  11.137   8.875   3.474  1.9626  0.1619  0.3361
 7338SOL    HW227145  11.126   8.974   3.360 -2.8678  0.0861  0.6635
 7339SOL     OW27146   3.788   3.093   5.106  0.2870  0.0030  0.3103
 7339SOL    HW127147   3.870   3.142   5.106 -1.1624  2.5387 -0.9409
 7339SOL    HW227148   3.743   3.123   5.027 -1.3085 -2.2801  0.3195
 7340SOL     OW27149   1.234   8.349   3.594 -0.4647 -0.2213 -0.3761
 7340SOL    HW127150   1.152   8.387   3.625 -1.1768 -1.0607 -1.2224
 7340SOL    HW227151   1.268   8.414   3.532 -0.2384  0.3371  0.3105
 7341SOL     OW27152   1.224   2.171  10.301 -0.3452  0.2371 -0.5865
 7341SOL    HW127153   1.129   2.159  10.310 -0.1066 -0.7188  1.0001
 7341SOL    HW227154   1.255   2.087  10.267  0.0320  0.1893 -0.1348
 7342SOL     OW27155   0.091   3.784   5.782  0.3234  0.0406 -0.1991
 7342SOL    HW127156   0.185   3.799   5.776 -0.0065  3.2190  1.5983
 7342SOL    HW227157   0.061   3.783   5.691  1.9066  0.3470 -0.7404
 7343SOL     OW27158   9.449   1.312   7.317  0.3529  0.2236  0.5112
 7343SOL    HW127159   9.478   1.233   7.361 -0.2739 -0.1464  0.2723
 7343SOL    HW227160   9.515   1.329   7.250  0.2633 -0.3428  0.2794
 7344SOL     OW27161   7.688   2.167   4.990  0.1291 -0.6737  0.4749
 7344SOL    HW127162   7.633   2.246   4.990  0.3535 -0.5150  0.7368
 7344SOL    HW227163   7.777   2.200   4.973  0.3250 -0.7950  1.2413
 7345SOL     OW27164   5.198   8.945   1.708  0.4870  0.7942  0.1169
 7345SOL    HW127165   5.230   8.902   1.628  0.6472  1.8206 -0.3769
 7345SOL    HW227166   5.111   8.977   1.685 -0.9030 -1.8564  1.4128
 7346SOL     OW27167  10.425   5.212   3.309 -0.6428 -0.1274 -0.1191
 7346SOL    HW127168  10.453   5.303   3.297  0.5510 -0.5208 -0.3450
 7346SOL    HW227169  10.467   5.164   3.238 -0.5109 -1.0131  0.5484
 7347SOL     OW27170   4.762   6.599   0.592  0.4634  0.1820  0.0650
 7347SOL    HW127171   4.724   6.515   0.566 -2.0293  0.7398  1.7214
 7347SOL    HW227172   4.823   6.577   0.663  0.5643 -0.3370 -0.1819
 7348SOL     OW27173   6.599   7.054   5.889 -0.1103  0.2246  0.4382
 7348SOL    HW127174   6.583   7.064   5.795  0.3472 -0.7862  0.2526
 7348SOL    HW227175   6.690   7.025   5.896  0.0242  0.7852  1.2307
 7349SOL     OW27176   8.190   8.513   9.846  0.1784 -0.2695 -0.2780
 7349SOL    HW127177   8.122   8.452   9.818  1.3623 -1.8169  0.1119
 7349SOL    HW227178   8.272   8.471   9.819  1.0288  0.9501  0.3694
 7350SOL     OW27179   9.558   7.151   3.264  0.0648  0.0712  0.0160
 7350SOL    HW127180   9.592   7.131   3.177  1.2429  0.4083  0.3943
 7350SOL    HW227181   9.562   7.246   3.270  0.8671 -0.0024  0.7786
 7351SOL     OW27182   8.773   1.075  10.353 -0.5647 -0.2965  0.3591
 7351SOL    HW127183   8.736   1.162  10.339 -0.7060 -0.4289 -0.1056
 7351SOL    HW227184   8.828   1.084  10.431  0.5587  0.5535 -0.5152
 7352SOL     OW27185   9.900   2.015   0.977 -0.0804  0.4859  0.3454
 7352SOL    HW127186   9.943   1.934   1.003 -1.7327 -0.3032  0.7123
 7352SOL    HW227187   9.865   1.997   0.890 -1.7418  0.2598  1.0321
 7353SOL     OW27188   8.818   2.707   0.639 -0.1375 -0.3923  0.3438
 7353SOL    HW127189   8.792   2.767   0.709  0.7396 -1.3641  1.5285
 7353SOL    HW227190   8.816   2.620   0.680 -0.0445 -1.0148 -0.9601
 7354SOL     OW27191   3.786   3.886   0.253 -0.4565 -0.2498  0.7029
 7354SOL    HW127192   3.828   3.938   0.184 -0.7111  0.2645  0.9277
 7354SOL    HW227193   3.789   3.796   0.221  0.6119 -0.1885  0.6164
 7355SOL     OW27194   4.818   5.805   1.779 -0.1223  0.8533 -0.5918
 7355SOL    HW127195   4.886   5.872   1.787 -1.4932  1.9424  2.7910
 7355SOL    HW227196   4.842   5.739   1.843 -0.1367 -0.7532 -2.1849
 7356SOL     OW27197   9.448   9.793   3.031 -0.2334 -0.4669 -0.3450
 7356SOL    HW127198   9.482   9.836   2.953  1.3482  2.1830  1.7398
 7356SOL    HW227199   9.380   9.851   3.064 -1.1082 -1.7157  0.1093
 7357SOL     OW27200   4.530   0.692  10.565  0.4235  0.4743 -0.1095
 7357SOL    HW127201   4.445   0.717  10.528  0.1291  0.2462  0.4177
 7357SOL    HW227202   4.589   0.763  10.539  0.3316  0.0690 -1.4631
 7358SOL     OW27203   3.798   2.109   8.770 -0.1851  0.2182 -0.4718
 7358SOL    HW127204   3.822   2.116   8.678  0.0396 -0.0491 -0.4362
 7358SOL    HW227205   3.775   2.017   8.782 -0.3788  0.2874 -0.2986
 7359SOL     OW27206   5.941   7.056   4.820  0.3721  0.2457  0.7106
 7359SOL    HW127207   5.930   7.045   4.726 -0.4240 -0.9681  0.9214
 7359SOL    HW227208   5.861   7.100   4.849  0.5478  0.4796  0.8440
 7360SOL     OW27209  10.759   4.642   5.085 -0.3184 -0.3645 -0.4467
 7360SOL    HW127210  10.695   4.659   5.015  0.6803  3.5519 -0.4707
 7360SOL    HW227211  10.843   4.636   5.040  0.0097 -0.3712  0.1614
 7361SOL     OW27212  10.672   6.200   8.495 -0.2723  0.3918 -0.2869
 7361SOL    HW127213  10.762   6.229   8.511 -0.0832  0.7086 -1.7604
 7361SOL    HW227214  10.622   6.282   8.488 -0.4510  0.2533 -0.6458
 7362SOL     OW27215   5.695   1.207   5.670 -0.3656  0.0135 -0.0269
 7362SOL    HW127216   5.712   1.263   5.745 -3.9669 -1.4255  1.9690
 7362SOL    HW227217   5.642   1.261   5.611  0.0321  0.1951 -0.2204
 7363SOL     OW27218   7.523   3.243   3.299 -0.2939  0.4110  0.4942
 7363SOL    HW127219   7.479   3.310   3.247 -0.3773  0.9440  1.2386
 7363SOL    HW227220   7.614   3.273   3.304 -0.1018 -0.0830 -0.0649
 7364SOL     OW27221  10.094   2.852   7.740  0.0526  0.3015  0.2481
 7364SOL    HW127222  10.177   2.829   7.783 -0.7729 -0.1379  1.6527
 7364SOL    HW227223  10.098   2.809   7.655  1.1177 -0.0276  0.4606
 7365SOL     OW27224   4.304   3.751   0.197 -0.0288  0.0733 -0.0615
 7365SOL    HW127225   4.264   3.823   0.246  1.5060  1.3456 -0.6454
 7365SOL    HW227226   4.230   3.698   0.169 -1.2649  1.9424 -0.4508
 7366SOL     OW27227   4.274   0.358  10.351 -0.2986 -0.3102  0.0808
 7366SOL    HW127228   4.237   0.273  10.375  1.1577 -0.8955  0.3069
 7366SOL    HW227229   4.239   0.377  10.264 -1.2462 -0.7785  0.3640
 7367SOL     OW27230   6.258   4.697   4.216 -0.0649  0.0092  0.1377
 7367SOL    HW127231   6.280   4.790   4.213  0.8082 -0.2309 -1.5112
 7367SOL    HW227232   6.341   4.654   4.235 -0.0737 -0.5718 -1.1377
 7368SOL     OW27233   0.501   8.277   2.238 -0.0597 -0.1039  0.5089
 7368SOL    HW127234   0.590   8.299   2.266 -0.3550  0.5961  0.9118
 7368SOL    HW227235   0.448   8.291   2.316 -0.7667  1.0493 -0.1770
 7369SOL     OW27236   9.572  10.570  11.162 -0.4313  0.1334 -0.2206
 7369SOL    HW127237   9.501  10.523  11.118 -0.3202 -0.8331  0.6268
 7369SOL    HW227238   9.611  10.624  11.092 -3.3739  2.3932 -0.2314
 7370SOL     OW27239   3.242  11.053   5.910 -0.4371  0.0512 -0.0317
 7370SOL    HW127240   3.324  11.038   5.862  0.2606  1.4864  0.6855
 7370SOL    HW227241   3.191  10.973   5.894  1.9980 -1.8730  1.3486
 7371SOL     OW27242   7.022   4.730   9.953 -0.4372 -0.7146 -0.1765
 7371SOL    HW127243   7.062   4.738   9.867  1.5558  2.0840  0.9415
 7371SOL    HW227244   6.947   4.789   9.951  0.7696  0.8584  0.6340
 7372SOL     OW27245   9.128   6.167   6.126  0.6078 -0.5056 -0.3064
 7372SOL    HW127246   9.055   6.229   6.139  1.0425 -0.0112 -0.1959
 7372SOL    HW227247   9.206   6.222   6.128  1.0108 -1.0847 -0.0476
 7373SOL     OW27248   8.032   5.030   0.320 -0.1848  0.3923 -0.2793
 7373SOL    HW127249   7.979   5.075   0.254  0.0766  0.7279 -0.2566
 7373SOL    HW227250   8.061   5.099   0.379 -0.4792  0.0774  0.2291
 7374SOL     OW27251   6.295   2.079   3.551 -0.4475 -0.6240 -0.2123
 7374SOL    HW127252   6.250   2.122   3.624 -1.2109  0.9595 -1.5921
 7374SOL    HW227253   6.376   2.129   3.539 -0.8962 -0.1240 -1.2182
 7375SOL     OW27254   6.175  10.162   9.608  0.4179 -0.1678 -0.0732
 7375SOL    HW127255   6.223  10.225   9.554  1.3772  0.9486  1.9854
 7375SOL    HW227256   6.084  10.172   9.582  1.0763 -1.1553 -2.9204
 7376SOL     OW27257   6.422   1.554   1.190 -0.6313 -0.1282  0.4580
 7376SOL    HW127258   6.514   1.537   1.211  0.5416  1.1814 -3.1434
 7376SOL    HW227259   6.391   1.472   1.151  0.3394  0.7096 -2.2273
 7377SOL     OW27260  10.392   6.527   6.004 -0.0977 -0.1306  0.0848
 7377SOL    HW127261  10.423   6.446   6.045 -2.4645 -1.4686 -0.6416
 7377SOL    HW227262  10.414   6.517   5.912  1.0794  0.8140  0.2507
 7378SOL     OW27263   4.019   4.275   3.964  0.2909  0.5333  0.1003
 7378SOL    HW127264   4.045   4.252   4.053 -0.1442 -1.2671 -0.2233
 7378SOL    HW227265   3.927   4.251   3.959 -0.0628  1.9481 -0.4127
 7379SOL     OW27266   1.213   9.945   7.093  0.1364  0.0589  0.0385
 7379SOL    HW127267   1.242   9.859   7.123 -0.6331  0.2610  1.3659
 7379SOL    HW227268   1.226  10.003   7.168 -3.8445  0.1291  0.7579
 7380SOL     OW27269   8.732   4.469   9.025  0.2788 -0.2716 -0.3051
 7380SOL    HW127270   8.808   4.483   8.969  1.6533  0.2948  1.6231
 7380SOL    HW227271   8.713   4.556   9.063 -0.6275 -0.6305  0.0911
 7381SOL     OW27272   4.182  10.680   8.695  0.5454 -0.6932 -0.3147
 7381SOL    HW127273   4.162  10.739   8.768 -0.5412 -0.1983 -1.0064
 7381SOL    HW227274   4.264  10.638   8.721  1.1756  0.8803  0.3375
 7382SOL     OW27275   1.873   4.476   3.619 -0.7595 -0.4906 -0.3821
 7382SOL    HW127276   1.785   4.506   3.598 -1.9952 -2.5859  1.6577
 7382SOL    HW227277   1.861   4.392   3.664  2.3578 -1.9633 -2.0555
 7383SOL     OW27278   0.645   0.647   1.774 -0.3984  0.1293  0.0358
 7383SOL    HW127279   0.612   0.565   1.737 -0.9555  1.2545 -2.0343
 7383SOL    HW227280   0.735   0.653   1.743 -0.1017 -0.0784  0.8473
 7384SOL     OW27281   2.247   6.709   0.604 -0.6655 -0.1853  0.5777
 7384SOL    HW127282   2.277   6.621   0.626  1.1342  0.5174  1.0199
 7384SOL    HW227283   2.236   6.753   0.688 -0.5442  0.3304  0.3254
 7385SOL     OW27284   7.629   3.187  11.146 -0.2396  0.1725  0.4529
 7385SOL    HW127285   7.600   3.279  11.144  3.4461  1.4223  0.7715
 7385SOL    HW227286   7.654   3.172  11.237  2.4367 -0.0258 -0.2737
 7386SOL     OW27287   0.419   4.633   7.423  0.2730  0.2073  0.0347
 7386SOL    HW127288   0.504   4.632   7.466  1.0206  1.8073 -1.3500
 7386SOL    HW227289   0.426   4.701   7.356 -3.0385  2.3749  1.7277
 7387SOL     OW27290   8.340   6.688   2.119 -0.1507 -0.3410 -0.1007
 7387SOL    HW127291   8.403   6.755   2.093  0.8972 -1.7717 -1.3519
 7387SOL    HW227292   8.275   6.735   2.171  0.0298  1.8289 -1.7632
 7388SOL     OW27293   8.839   8.517  10.039  0.4921  0.0736  0.2746
 7388SOL    HW127294   8.832   8.426  10.069 -2.9986 -0.3319 -1.4761
 7388SOL    HW227295   8.876   8.511   9.951  0.1297  0.3401  0.1021
 7389SOL     OW27296   9.301   9.211   4.538  0.2369  0.2109  0.3713
 7389SOL    HW127297   9.216   9.254   4.534  0.1993  0.0668 -0.4690
 7389SOL    HW227298   9.299   9.147   4.468  1.4211  0.9158 -0.3340
 7390SOL     OW27299   9.743   9.441   9.804  0.1171  0.2508 -0.1620
 7390SOL    HW127300   9.825   9.456   9.851  0.2185  2.7163 -1.0686
 7390SOL    HW227301   9.683   9.408   9.871  1.8937 -1.8268  0.4582
 7391SOL     OW27302   4.875  10.305   0.349  0.0096  0.1815 -0.8834
 7391SOL    HW127303   4.859  10.371   0.416  2.3711  1.7191 -1.7424
 7391SOL    HW227304   4.818  10.331   0.276  1.4650  1.7526 -1.4920
 7392SOL     OW27305  10.897   5.448   6.316 -0.4617 -0.1723  0.3579
 7392SOL    HW127306  10.906   5.462   6.222 -2.8934 -0.3321  0.0758
 7392SOL    HW227307  10.987   5.434   6.347  0.4494  0.7459 -1.7807
 7393SOL     OW27308   7.583   6.743   9.436  0.5895  0.4594  0.8366
 7393SOL    HW127309   7.523   6.817   9.421  0.8985  0.7036  0.7982
 7393SOL    HW227310   7.657   6.782   9.483  0.7071  0.1532  0.9001
 7394SOL     OW27311   2.604   6.574   9.720  0.6528 -0.3010  0.1422
 7394SOL    HW127312   2.619   6.496   9.773  0.2589 -0.8938 -0.5991
 7394SOL    HW227313   2.642   6.552   9.634 -1.1494 -0.4138 -0.6451
 7395SOL     OW27314   6.613   1.475   2.654 -0.2717 -0.2530 -0.4252
 7395SOL    HW127315   6.605   1.411   2.724 -0.1452 -1.1446 -1.2091
 7395SOL    HW227316   6.635   1.557   2.698  0.1769 -0.8848  0.5399
 7396SOL     OW27317   9.501   1.515   6.864 -0.3634  0.4378 -0.2532
 7396SOL    HW127318   9.468   1.429   6.838  1.7757 -0.4659 -0.0674
 7396SOL    HW227319   9.551   1.545   6.788 -0.7658  1.3371 -0.1663
 7397SOL     OW27320   5.927   9.402   0.291  0.0823 -0.3066  0.2961
 7397SOL    HW127321   5.840   9.432   0.317 -0.2579 -1.8360  0.9420
 7397SOL    HW227322   5.986   9.441   0.356 -0.0841  0.8234 -0.2070
 7398SOL     OW27323   4.312   1.824   4.445  0.4225  0.0835 -0.5703
 7398SOL    HW127324   4.330   1.735   4.473 -1.0413 -0.1665 -0.3718
 7398SOL    HW227325   4.241   1.853   4.502  0.0542  0.9360 -1.4542
 7399SOL     OW27326   0.312   3.434   7.669 -0.2890 -0.1892  0.3549
 7399SOL    HW127327   0.348   3.354   7.631  2.1915  0.9525  0.2554
 7399SOL    HW227328   0.388   3.486   7.695 -1.8497  0.4271  4.0789
 7400SOL     OW27329   8.331   2.772  10.586  0.2704 -0.7015 -0.0045
 7400SOL    HW127330   8.252   2.763  10.533  0.2627 -1.7059  0.1694
 7400SOL    HW227331   8.309   2.839  10.650 -0.2683 -0.6140 -0.2748
 7401SOL     OW27332   7.550   6.913   3.494  0.1299 -0.5445  0.2584
 7401SOL    HW127333   7.551   6.884   3.402 -2.0594  0.7286 -0.2066
 7401SOL    HW227334   7.574   7.006   3.490  0.4815 -0.5998  1.0276
 7402SOL     OW27335   8.132   5.159   1.629 -0.4200 -0.4129  0.7139
 7402SOL    HW127336   8.132   5.094   1.559 -0.3996 -0.9225  1.1854
 7402SOL    HW227337   8.224   5.183   1.639 -0.8050  2.7714 -2.2895
 7403SOL     OW27338   3.464   9.115   2.840  0.0244  0.9997 -0.2709
 7403SOL    HW127339   3.544   9.151   2.803  0.5326 -0.2676 -0.4314
 7403SOL    HW227340   3.409   9.097   2.764  0.1207  0.6129 -0.2479
 7404SOL     OW27341   1.609   7.031   7.651 -0.3116  0.8634  0.5809
 7404SOL    HW127342   1.646   7.109   7.692  0.7362  0.9389 -0.4894
 7404SOL    HW227343   1.559   6.988   7.721 -0.7536  2.3900  1.2126
 7405SOL     OW27344   4.712   4.796   3.338 -0.1354 -0.1408 -0.1131
 7405SOL    HW127345   4.702   4.887   3.365 -0.3867 -0.5414  1.1581
 7405SOL    HW227346   4.711   4.746   3.420  0.2376 -1.2649 -0.7852
 7406SOL     OW27347   2.307   6.150   8.245 -0.3114  0.3246 -0.4887
 7406SOL    HW127348   2.327   6.139   8.152 -0.5500  0.1783 -0.5239
 7406SOL    HW227349   2.231   6.208   8.247 -0.4818  0.0968 -0.3950
 7407SOL     OW27350   9.246   5.791  10.352  0.6718 -0.0727  0.0415
 7407SOL    HW127351   9.294   5.721  10.396  0.0331  0.2285  1.2608
 7407SOL    HW227352   9.154   5.762  10.354  0.4075  0.7754  0.5226
 7408SOL     OW27353   6.482   0.132   0.523 -0.0697  0.2711  0.2473
 7408SOL    HW127354   6.444   0.047   0.547  0.5208 -0.6751 -1.9814
 7408SOL    HW227355   6.576   0.120   0.537 -0.0476  0.7627  0.5131
 7409SOL     OW27356   0.232   1.436   6.458 -0.0189 -0.1226 -0.0122
 7409SOL    HW127357   0.264   1.525   6.442  1.0437 -0.1942  1.5936
 7409SOL    HW227358   0.146   1.434   6.416  0.2739  1.4054 -0.7465
 7410SOL     OW27359   3.266   7.307  11.262 -0.2757  0.0393 -0.1103
 7410SOL    HW127360   3.171   7.306  11.252 -0.3918  0.9222  0.8049
 7410SOL    HW227361   3.284   7.244  11.331 -0.3030  0.6179  0.4381
 7411SOL     OW27362   2.729   8.876   0.552  0.1359  0.2626  0.1566
 7411SOL    HW127363   2.683   8.837   0.478  0.6949 -0.5953  0.2522
 7411SOL    HW227364   2.705   8.821   0.627 -0.5761  1.2315  0.6485
 7412SOL     OW27365  10.636   7.629   6.136 -0.3035 -0.5219 -0.2143
 7412SOL    HW127366  10.562   7.678   6.101  0.1150 -0.8262 -1.5586
 7412SOL    HW227367  10.600   7.544   6.160 -0.3097 -0.8475 -1.3310
 7413SOL     OW27368   7.452   3.589   3.623 -0.6305  0.5264  0.0243
 7413SOL    HW127369   7.366   3.589   3.666 -0.4661  2.4912  0.4018
 7413SOL    HW227370   7.448   3.664   3.563 -0.0990 -0.9386 -1.8616
 7414SOL     OW27371  11.007   2.221   0.241 -0.3637 -0.4313  0.2519
 7414SOL    HW127372  11.069   2.151   0.222  0.3414 -0.1996  1.6100
 7414SOL    HW227373  11.055   2.281   0.298 -1.4453  0.3747  0.3313
 7415SOL     OW27374   3.830   3.275   9.645 -0.7824 -0.5439 -0.0840
 7415SOL    HW127375   3.925   3.280   9.646 -0.8218  0.9573 -1.6553
 7415SOL    HW227376   3.803   3.303   9.733  0.1874 -0.1948  0.1024
 7416SOL     OW27377   5.851   3.182   7.291  0.6460 -0.2047 -0.4965
 7416SOL    HW127378   5.896   3.103   7.322  0.3255 -0.3743 -0.4595
 7416SOL    HW227379   5.853   3.242   7.365 -0.4078 -0.7305 -0.0270
 7417SOL     OW27380   3.047   9.656   3.462 -0.4194  0.0431 -0.0116
 7417SOL    HW127381   3.059   9.699   3.378  0.0441  1.0017  0.5331
 7417SOL    HW227382   3.096   9.574   3.455  0.1798  0.4362 -0.4398
 7418SOL     OW27383   5.118   1.721   8.208  0.2154  0.2488 -0.4518
 7418SOL    HW127384   5.099   1.806   8.249 -0.3856 -0.7151  1.3257
 7418SOL    HW227385   5.169   1.674   8.274  1.8878 -0.1989 -2.0452
 7419SOL     OW27386   5.954   6.745   2.665  0.2734  0.1610  0.0547
 7419SOL    HW127387   5.924   6.719   2.752 -0.7181  0.9893 -0.0204
 7419SOL    HW227388   5.900   6.821   2.643  0.3471 -0.1821 -1.3804
 7420SOL     OW27389   9.390   9.873  10.378 -0.5434  0.1868 -0.1592
 7420SOL    HW127390   9.467   9.817  10.384 -1.0195 -0.5804 -1.0762
 7420SOL    HW227391   9.372   9.900  10.468  1.8683  1.8292 -0.1457
 7421SOL     OW27392   8.268   0.816  11.243 -0.1903 -0.7059  0.3737
 7421SOL    HW127393   8.327   0.756  11.197  0.2174 -0.6512  0.8160
 7421SOL    HW227394   8.181   0.777  11.233  0.0896 -1.4548  0.7888
 7422SOL     OW27395   1.246   2.921   9.838 -0.5923  0.0959 -0.0788
 7422SOL    HW127396   1.160   2.881   9.844 -0.1693 -0.4936  3.2276
 7422SOL    HW227397   1.232   3.013   9.861 -0.1558 -0.3544  2.1280
 7423SOL     OW27398   4.852   4.344   9.509  0.3921 -0.2221  0.4600
 7423SOL    HW127399   4.838   4.438   9.498 -1.3237 -0.3287  1.4782
 7423SOL    HW227400   4.926   4.338   9.570  0.6745  0.4630  0.1899
 7424SOL     OW27401   0.206   0.321   1.990  0.1938 -0.7299 -0.1841
 7424SOL    HW127402   0.237   0.393   1.936 -3.3319  0.4521 -0.7554
 7424SOL    HW227403   0.209   0.245   1.932 -3.0800  0.4295 -1.9875
 7425SOL     OW27404   5.283   9.318   1.319 -0.2577 -0.0578 -0.1272
 7425SOL    HW127405   5.302   9.397   1.269 -0.6196  0.6734  0.8650
 7425SOL    HW227406   5.368   9.275   1.330 -0.1454 -0.0952 -1.1490
 7426SOL     OW27407   0.451   2.785   8.249  0.2774  0.2007  0.1038
 7426SOL    HW127408   0.532   2.740   8.224  1.5585  2.2800  0.4285
 7426SOL    HW227409   0.398   2.783   8.170  2.1039  1.9479 -1.2112
 7427SOL     OW27410   3.718  10.883  10.448 -0.5415  0.2802  0.8466
 7427SOL    HW127411   3.763  10.932  10.517 -0.6564 -0.1472  1.2259
 7427SOL    HW227412   3.636  10.854  10.487 -1.3360  1.3743  0.0346
 7428SOL     OW27413   1.364   7.079   9.439  0.7010  0.5043 -0.6383
 7428SOL    HW127414   1.364   7.073   9.535  0.3509 -1.2715 -0.7259
 7428SOL    HW227415   1.281   7.121   9.417 -0.3908 -1.4080 -0.2602
 7429SOL     OW27416  11.146   0.963   3.377 -0.1699  0.1561 -0.1396
 7429SOL    HW127417  11.106   0.985   3.461 -0.3959  2.5497 -0.8384
 7429SOL    HW227418  11.090   0.893   3.342 -0.6626 -0.1544  1.2446
 7430SOL     OW27419   9.895   0.111   5.735  0.0721  0.2192  0.0218
 7430SOL    HW127420   9.916   0.204   5.738 -0.2542  0.3499 -1.2690
 7430SOL    HW227421   9.977   0.067   5.759  0.6349  0.8189 -0.7722
 7431SOL     OW27422   7.028   2.610  10.179  0.5800 -0.0915 -0.4692
 7431SOL    HW127423   6.936   2.606  10.203 -0.2131  0.1495 -3.2680
 7431SOL    HW227424   7.047   2.704  10.174 -0.1122 -0.0603 -3.5936
 7432SOL     OW27425   7.970   7.111   8.200 -0.1021  0.4128  0.7497
 7432SOL    HW127426   7.888   7.150   8.172  0.0706  1.0347  1.0909
 7432SOL    HW227427   7.950   7.072   8.286  0.3240  1.9032  1.5529
 7433SOL     OW27428   7.223   0.017   8.320  0.0001  0.1523 -0.0964
 7433SOL    HW127429   7.158  -0.053   8.317  0.0118  0.1115  0.5603
 7433SOL    HW227430   7.280   0.001   8.245 -0.2178 -0.3250 -0.1564
 7434SOL     OW27431   3.023   6.620   8.941 -0.0964 -0.6523 -0.1422
 7434SOL    HW127432   3.028   6.709   8.977  0.6430  0.0897 -2.0350
 7434SOL    HW227433   3.096   6.574   8.982  0.9821  0.2988 -0.9565
 7435SOL     OW27434   8.243   0.735   2.861 -0.5346  0.2208  0.6053
 7435SOL    HW127435   8.184   0.782   2.802 -2.6594  0.1224  2.5886
 7435SOL    HW227436   8.308   0.801   2.887  0.6032  0.1977 -1.9785
 7436SOL     OW27437   3.549   8.645   0.857  0.0182  0.0754  0.0969
 7436SOL    HW127438   3.590   8.627   0.941 -0.7306  0.4592  0.5433
 7436SOL    HW227439   3.589   8.727   0.827  0.9328 -0.5186 -0.3452
 7437SOL     OW27440   5.195   0.863   4.207 -0.1697  0.0863 -0.4221
 7437SOL    HW127441   5.188   0.923   4.133  0.1029 -0.1405 -0.6345
 7437SOL    HW227442   5.118   0.806   4.198  0.6318 -0.8645 -1.3679
 7438SOL     OW27443   2.905   8.787   1.955 -0.6719 -0.2744  0.1883
 7438SOL    HW127444   2.981   8.843   1.943  0.2776 -1.9247 -1.8000
 7438SOL    HW227445   2.838   8.826   1.899 -1.1904  0.9623  1.6493
 7439SOL     OW27446   9.441   6.478   9.443  0.7399  0.2478 -0.3981
 7439SOL    HW127447   9.448   6.435   9.528  1.5004 -0.9094 -1.0406
 7439SOL    HW227448   9.488   6.561   9.454  1.7006 -0.3489  0.0049
 7440SOL     OW27449   1.018   4.805   1.580 -0.6313  0.1977 -0.0439
 7440SOL    HW127450   0.989   4.825   1.669  0.6937  0.6916  0.2838
 7440SOL    HW227451   1.019   4.890   1.536 -1.6661 -0.1039 -0.6405
 7441SOL     OW27452   6.714   4.797   0.714 -0.0735  0.1780  0.0811
 7441SOL    HW127453   6.748   4.795   0.803 -1.2000 -0.0586  0.5074
 7441SOL    HW227454   6.637   4.740   0.716  0.2817 -0.3698 -1.2007
 7442SOL     OW27455   1.016   9.039   7.353 -0.0810  0.1930 -0.4573
 7442SOL    HW127456   0.990   8.980   7.424  0.9347  1.1032  0.6950
 7442SOL    HW227457   1.030   9.123   7.395 -0.7389  1.0809 -1.9671
 7443SOL     OW27458   3.401   8.183   2.730  0.0995  0.4698  0.8448
 7443SOL    HW127459   3.365   8.134   2.657 -1.3188  2.4042  0.1877
 7443SOL    HW227460   3.441   8.260   2.689  1.7956  0.1584  1.8841
 7444SOL     OW27461   8.887   0.363  11.258 -0.0392  0.2775  0.0392
 7444SOL    HW127462   8.838   0.352  11.339 -1.9176  0.5940 -1.0015
 7444SOL    HW227463   8.963   0.415  11.282 -0.5737  0.3619  1.5924
 7445SOL     OW27464   0.909   9.106   8.360 -0.1151 -0.3053  0.0277
 7445SOL    HW127465   0.839   9.167   8.384 -1.1137 -1.0227 -0.9842
 7445SOL    HW227466   0.984   9.162   8.338  0.5978  0.3992  3.9201
 7446SOL     OW27467   1.253   0.596   8.147  0.3474  0.1099  0.0886
 7446SOL    HW127468   1.324   0.626   8.090  0.7498  1.7379  1.3817
 7446SOL    HW227469   1.219   0.677   8.186 -2.2292 -0.6503 -0.5155
 7447SOL     OW27470  10.602   1.907   3.299  0.4864  0.1035  0.1125
 7447SOL    HW127471  10.521   1.857   3.305  0.1792  0.4649 -0.8423
 7447SOL    HW227472  10.613   1.946   3.386  0.9274 -1.8849  0.9766
 7448SOL     OW27473   4.287   4.477   6.527 -0.0127  0.3492 -0.0057
 7448SOL    HW127474   4.259   4.530   6.602  0.9577  1.0762 -0.1365
 7448SOL    HW227475   4.255   4.389   6.546  0.8410  0.3610  1.6327
 7449SOL     OW27476   5.345   1.550   0.550 -0.3057  0.9118  0.3288
 7449SOL    HW127477   5.400   1.536   0.627  0.7661 -1.7987 -0.8680
 7449SOL    HW227478   5.407   1.568   0.479 -1.2430  2.6764 -0.0662
 7450SOL     OW27479   9.750   3.237   5.084  0.1307 -0.0272  0.4998
 7450SOL    HW127480   9.705   3.303   5.136  0.6795 -0.5387  1.6451
 7450SOL    HW227481   9.679   3.186   5.043 -0.2905  0.8837  0.0939
 7451SOL     OW27482   0.777   5.218   8.578  0.0874 -0.2479 -0.0602
 7451SOL    HW127483   0.709   5.226   8.645  0.1964 -1.4978  0.2136
 7451SOL    HW227484   0.810   5.307   8.567 -1.7184  0.4213 -0.3402
 7452SOL     OW27485   7.666  10.648   3.829  0.2613  0.5963  0.0900
 7452SOL    HW127486   7.624  10.689   3.754  1.2714  0.2978 -0.6393
 7452SOL    HW227487   7.662  10.554   3.811  0.6251  0.5292  0.3467
 7453SOL     OW27488   0.652  10.952   5.707  0.3113  0.5244 -0.6422
 7453SOL    HW127489   0.629  11.044   5.723  0.1080  0.3863 -0.1369
 7453SOL    HW227490   0.725  10.957   5.645  1.8753  1.1251  1.2137
 7454SOL     OW27491   7.728   5.595  11.220  0.1820  0.2145  0.1336
 7454SOL    HW127492   7.753   5.687  11.232 -0.9962  0.3864  1.2337
 7454SOL    HW227493   7.641   5.599  11.181  0.3758 -0.4406 -0.3722
 7455SOL     OW27494   3.006   9.475   9.645  0.0224  0.4923 -0.0072
 7455SOL    HW127495   3.090   9.491   9.689  0.7312  0.2140 -1.2398
 7455SOL    HW227496   2.978   9.561   9.614  0.1710  0.4800 -0.1735
 7456SOL     OW27497   7.210   0.098   0.154  0.0040  0.4818 -0.4525
 7456SOL    HW127498   7.116   0.098   0.137 -0.1708 -1.3319  0.4115
 7456SOL    HW227499   7.240   0.011   0.129  1.1727  0.5199  0.7209
 7457SOL     OW27500   0.110   2.595   1.464 -0.1526 -0.4490 -0.1725
 7457SOL    HW127501   0.132   2.543   1.541  1.7179  1.0604  0.3456
 7457SOL    HW227502   0.165   2.559   1.394 -1.3976 -1.4152 -0.6724
 7458SOL     OW27503   0.475   2.505  11.170  0.1425 -0.5419  0.5231
 7458SOL    HW127504   0.459   2.465  11.085 -0.1356 -0.1369  0.3822
 7458SOL    HW227505   0.408   2.467  11.227 -0.6823  0.3653  0.1805
 7459SOL     OW27506   1.970   3.223   9.004 -0.2625 -0.1809 -0.2232
 7459SOL    HW127507   1.978   3.317   8.986  1.4523 -0.6657 -2.1169
 7459SOL    HW227508   1.887   3.215   9.051 -0.3805  2.2975  0.0458
 7460SOL     OW27509   8.686  10.412   9.184 -0.1693 -0.1255  0.1998
 7460SOL    HW127510   8.710  10.379   9.097  1.1236  1.3830 -0.0539
 7460SOL    HW227511   8.707  10.505   9.180  1.5378 -0.3410  2.6658
 7461SOL     OW27512   1.232   4.977  10.379 -0.4741 -0.7704 -0.1035
 7461SOL    HW127513   1.167   4.935  10.435 -2.5696 -0.0510 -1.9659
 7461SOL    HW227514   1.213   4.945  10.291  1.7509 -0.6190 -0.6850
 7462SOL     OW27515   2.739   0.454   4.700 -0.2995 -0.4722  0.6452
 7462SOL    HW127516   2.766   0.473   4.610  1.2443  0.4072  1.2714
 7462SOL    HW227517   2.813   0.405   4.736 -0.8299 -0.6456  1.4967
 7463SOL     OW27518   1.906   7.052   6.074  0.3646  0.3994  0.1478
 7463SOL    HW127519   2.000   7.042   6.086  0.0333 -2.3919  0.7203
 7463SOL    HW227520   1.871   7.066   6.162  0.3372  2.4850 -0.1778
 7464SOL     OW27521   4.240   4.515   0.413  0.4701 -0.2021  0.0959
 7464SOL    HW127522   4.316   4.518   0.472 -0.2928  0.5358  1.0467
 7464SOL    HW227523   4.184   4.587   0.442  0.3056  0.4585 -1.8397
 7465SOL     OW27524   1.113   7.486   0.159 -0.2360  0.2889 -0.4261
 7465SOL    HW127525   1.058   7.468   0.082  1.4753  0.9126 -1.8279
 7465SOL    HW227526   1.176   7.414   0.161  1.4764  1.7152 -1.2792
 7466SOL     OW27527   7.554   0.148   3.977 -0.0779 -0.0849 -0.0588
 7466SOL    HW127528   7.584   0.077   4.033  0.1767 -0.8399 -1.1363
 7466SOL    HW227529   7.479   0.112   3.930 -0.9110  0.8690  0.5255
 7467SOL     OW27530   6.784   3.964   0.019 -0.0054  0.2867 -0.0916
 7467SOL    HW127531   6.697   3.940   0.050 -0.0985 -1.9914 -1.9348
 7467SOL    HW227532   6.841   3.946   0.094 -0.7271 -1.2487  0.1154
 7468SOL     OW27533  10.324   9.436   0.855 -0.7096  0.3924  0.0645
 7468SOL    HW127534  10.386   9.370   0.885 -1.5747  0.0324  1.0946
 7468SOL    HW227535  10.377   9.513   0.836  0.6392 -1.2570 -3.3501
 7469SOL     OW27536  10.857   5.993   6.450 -0.3711  0.1640 -0.1591
 7469SOL    HW127537  10.917   6.038   6.391 -1.4299  2.1580  0.2214
 7469SOL    HW227538  10.796   5.947   6.392  0.6710 -0.7347 -0.5549
 7470SOL     OW27539   1.179   8.618   8.285 -0.0314 -0.2566 -0.1608
 7470SOL    HW127540   1.121   8.542   8.297 -0.0400 -0.4708 -1.4975
 7470SOL    HW227541   1.145   8.661   8.206  1.2503 -0.0226 -0.5842
 7471SOL     OW27542  10.330   4.058  10.841  0.5836 -0.0428 -0.2123
 7471SOL    HW127543  10.313   4.114  10.765 -1.1401 -0.5004 -0.1754
 7471SOL    HW227544  10.424   4.040  10.836  0.9595  1.9657 -0.8236
 7472SOL     OW27545  10.924   5.517   0.886 -0.3005 -0.5188 -0.2341
 7472SOL    HW127546  10.909   5.597   0.937 -0.0185 -0.4204 -0.2983
 7472SOL    HW227547  10.886   5.536   0.800  1.9964  0.5261 -1.0628
 7473SOL     OW27548   3.054   4.166   8.402 -0.4417  0.2228  0.7651
 7473SOL    HW127549   3.076   4.084   8.358  0.1551  0.4937  0.5481
 7473SOL    HW227550   3.139   4.206   8.423 -0.7062  1.3664 -0.2441
 7474SOL     OW27551   8.956   9.303   8.578  0.5309 -0.0912 -0.1914
 7474SOL    HW127552   8.866   9.313   8.546  0.4472  0.9522  0.3511
 7474SOL    HW227553   9.010   9.347   8.513  0.6183 -0.3501 -0.2980
 7475SOL     OW27554   6.055   8.110   0.863 -0.3102 -0.2368 -0.1149
 7475SOL    HW127555   6.143   8.123   0.828 -0.7898  2.6177 -0.3779
 7475SOL    HW227556   6.001   8.092   0.786 -0.7382  2.5937 -0.5346
 7476SOL     OW27557   1.703  10.342   2.163 -0.3407 -0.3621  0.0745
 7476SOL    HW127558   1.629  10.297   2.204 -0.2499 -1.0189 -0.4699
 7476SOL    HW227559   1.667  10.382   2.085 -0.3769  0.3466  0.4532
 7477SOL     OW27560   2.712   5.461   8.042  1.0280 -0.1617  0.6007
 7477SOL    HW127561   2.757   5.511   8.110 -0.4321  0.1617  1.3546
 7477SOL    HW227562   2.627   5.438   8.081  0.0249  0.3408 -1.2416
 7478SOL     OW27563   6.962   0.406   4.319 -0.6280  0.4890  0.4597
 7478SOL    HW127564   6.966   0.325   4.370 -1.6655  0.9783  1.3213
 7478SOL    HW227565   7.048   0.446   4.331  0.2295 -0.9361 -0.7417
 7479SOL     OW27566   7.693   9.248   5.496  0.0977 -0.0361  0.4263
 7479SOL    HW127567   7.673   9.165   5.453  0.2492 -0.0305  0.3443
 7479SOL    HW227568   7.771   9.280   5.451 -1.5326  1.5097 -1.4334
 7480SOL     OW27569   5.846   0.125   8.237 -0.0568  0.6100 -0.2609
 7480SOL    HW127570   5.766   0.148   8.191  0.1903 -1.7368 -1.9510
 7480SOL    HW227571   5.916   0.148   8.176  0.3778 -0.5557 -0.2202
 7481SOL     OW27572   7.199   3.103   7.978  0.3310 -0.5348 -0.4362
 7481SOL    HW127573   7.122   3.149   7.944 -0.1777  0.7255  2.3313
 7481SOL    HW227574   7.273   3.140   7.929 -0.7838 -2.0781 -3.4471
 7482SOL     OW27575   1.208  10.821  10.853  0.4961  0.1797  0.5026
 7482SOL    HW127576   1.229  10.799  10.763  0.5693 -2.1660  1.0521
 7482SOL    HW227577   1.177  10.738  10.891 -1.1372  1.5011  2.1599
 7483SOL     OW27578   8.712   7.684   2.220 -0.2735 -0.0119 -0.3291
 7483SOL    HW127579   8.738   7.625   2.291 -0.7886  1.1901  0.8693
 7483SOL    HW227580   8.735   7.771   2.250 -0.6418  0.5322 -1.5783
 7484SOL     OW27581   5.284   0.163   1.384 -0.0958  0.2435 -0.3742
 7484SOL    HW127582   5.262   0.256   1.391 -0.8377  0.0657 -0.3393
 7484SOL    HW227583   5.349   0.159   1.314 -0.5331  0.7104 -0.8135
 7485SOL     OW27584   1.210   3.935   8.145 -0.4654  0.3375 -0.4842
 7485SOL    HW127585   1.301   3.932   8.172 -0.4405 -0.4819 -0.6360
 7485SOL    HW227586   1.207   3.881   8.066 -0.9993  0.7248 -0.7340
 7486SOL     OW27587  10.627   5.285   6.806 -0.0054  0.4625  0.3076
 7486SOL    HW127588  10.621   5.360   6.746 -0.2684  1.0110  1.0021
 7486SOL    HW227589  10.707   5.239   6.780  0.4418  1.2878  0.1995
 7487SOL     OW27590   3.015  10.400   9.435  0.5016  0.1135  1.0387
 7487SOL    HW127591   3.029  10.423   9.343  0.4792 -0.6147  0.8524
 7487SOL    HW227592   2.931  10.442   9.457 -0.2824 -1.0190  0.2682
 7488SOL     OW27593  10.346   2.778   3.854  0.0007  0.1674  0.2647
 7488SOL    HW127594  10.405   2.853   3.854 -1.2546  1.1645  0.7219
 7488SOL    HW227595  10.279   2.800   3.789 -1.3606  0.2549  1.6604
 7489SOL     OW27596   1.972   6.526   6.012  0.5047  0.3787 -0.2742
 7489SOL    HW127597   1.969   6.596   5.946  0.5023  0.3845 -0.2682
 7489SOL    HW227598   2.048   6.473   5.987 -0.0506 -0.1591 -0.8255
 7490SOL     OW27599  10.208   2.937   1.669  0.3024  0.2242  0.1402
 7490SOL    HW127600  10.132   2.958   1.615 -0.2993 -0.8684  0.5322
 7490SOL    HW227601  10.261   2.878   1.615  2.2471  3.0566 -1.1600
 7491SOL     OW27602  10.674   8.942   8.539  0.5132  0.1761  0.5180
 7491SOL    HW127603  10.690   8.866   8.483  0.5731 -0.5718  1.5323
 7491SOL    HW227604  10.617   8.908   8.608  0.5443  1.0621  0.9727
 7492SOL     OW27605   0.869   0.463   3.856  0.6770  0.1854 -0.3339
 7492SOL    HW127606   0.850   0.512   3.775 -0.9806 -2.1476 -1.4261
 7492SOL    HW227607   0.808   0.500   3.920  0.6889  0.7915 -0.6669
 7493SOL     OW27608   0.488   3.937   1.844  0.0834 -0.1183 -0.5086
 7493SOL    HW127609   0.426   3.979   1.903  1.7582  0.0657  1.1572
 7493SOL    HW227610   0.488   3.993   1.766  0.6707  1.8103  0.8223
 7494SOL     OW27611   9.080   9.296   3.575 -0.0666  0.2859  0.7481
 7494SOL    HW127612   9.002   9.350   3.560 -0.3212  0.3528  2.2915
 7494SOL    HW227613   9.071   9.224   3.512  0.5359  2.2720 -1.6881
 7495SOL     OW27614  11.149   3.878   3.752  0.0630 -0.0899 -0.0494
 7495SOL    HW127615  11.063   3.837   3.764 -0.4305  1.2916  1.2360
 7495SOL    HW227616  11.169   3.916   3.837  2.8811 -2.0798  0.2338
 7496SOL     OW27617   0.854   9.634   2.952 -0.3396  0.0268 -0.6796
 7496SOL    HW127618   0.813   9.623   3.038 -1.0837  0.0056 -1.0360
 7496SOL    HW227619   0.892   9.722   2.955  0.6103 -0.3961  0.0725
 7497SOL     OW27620   0.082   8.575  11.298  0.2343  0.0486 -0.8918
 7497SOL    HW127621   0.113   8.489  11.270  0.7508 -0.1108  0.1358
 7497SOL    HW227622   0.156   8.634  11.282  0.1219  0.1678 -0.9668
 7498SOL     OW27623   3.373   5.250   6.539  0.5771  0.1409  0.4712
 7498SOL    HW127624   3.391   5.344   6.534  1.2330 -0.0525 -1.1025
 7498SOL    HW227625   3.313   5.241   6.612 -0.2681  1.9088  0.0166
 7499SOL     OW27626   7.338   6.695   7.499  0.2610  0.2860 -0.2734
 7499SOL    HW127627   7.265   6.706   7.437 -0.8408  0.9634  1.1184
 7499SOL    HW227628   7.381   6.780   7.502  1.8960 -0.4343 -2.0089
 7500SOL     OW27629   5.465   9.445   1.032 -0.0594  0.1664  0.0406
 7500SOL    HW127630   5.451   9.369   0.975  1.4922  0.2160 -0.4329
 7500SOL    HW227631   5.377   9.472   1.057 -0.7027 -0.8129 -1.0759
 7501SOL     OW27632   8.041  10.685   5.272 -0.0124 -0.1485 -0.6239
 7501SOL    HW127633   8.000  10.750   5.215  1.4591 -0.3333 -1.9252
 7501SOL    HW227634   8.015  10.600   5.235  1.1871 -0.2678 -1.2018
 7502SOL     OW27635  10.476   4.825   7.643  0.2107  0.0757 -0.0657
 7502SOL    HW127636  10.530   4.836   7.565 -1.1479  0.0475 -1.0289
 7502SOL    HW227637  10.538   4.808   7.714  1.3406 -1.8053 -1.4867
 7503SOL     OW27638   5.191  10.639   4.737 -0.0617 -0.1332 -0.0400
 7503SOL    HW127639   5.128  10.572   4.708 -0.9886  0.1948  1.1714
 7503SOL    HW227640   5.208  10.691   4.658  0.0435 -1.2873 -0.7971
 7504SOL     OW27641   3.188   1.018   2.396 -0.2598  0.6556  0.0525
 7504SOL    HW127642   3.136   0.945   2.362 -0.7225  0.3308  1.4128
 7504SOL    HW227643   3.204   1.073   2.320 -0.3931 -0.5680 -0.8905
 7505SOL     OW27644   4.044   9.789  10.204  0.1617 -0.3589 -0.0361
 7505SOL    HW127645   3.963   9.762  10.245 -0.5468  0.6939 -0.7296
 7505SOL    HW227646   4.050   9.883  10.219 -0.1132  0.0523 -2.2898
 7506SOL     OW27647   4.850   4.091   3.283 -0.3179 -0.2452  0.2731
 7506SOL    HW127648   4.768   4.082   3.331  0.0311 -0.9209  0.7474
 7506SOL    HW227649   4.916   4.106   3.351  0.1244 -0.8687 -0.0197
 7507SOL     OW27650   0.403  10.813   0.442 -0.1458 -0.2471 -0.7068
 7507SOL    HW127651   0.487  10.833   0.400  1.4779  0.3065  2.5718
 7507SOL    HW227652   0.352  10.893   0.432  0.6751  0.3012 -0.6526
 7508SOL     OW27653   1.020   7.230   1.156 -0.2284  0.1656 -0.7998
 7508SOL    HW127654   0.984   7.305   1.108  0.6161  0.4850 -0.9469
 7508SOL    HW227655   1.105   7.214   1.115 -0.3918 -0.8582 -0.7451
 7509SOL     OW27656   0.987   3.882   9.119 -0.1933  0.5216 -0.4098
 7509SOL    HW127657   1.048   3.809   9.107  0.0829  0.7621 -0.4842
 7509SOL    HW227658   0.970   3.914   9.031  0.6789  1.3487 -0.2849
 7510SOL     OW27659  10.471   5.391   9.315 -0.5702  0.2266 -0.0583
 7510SOL    HW127660  10.558   5.367   9.283 -0.4288 -1.6775  1.6611
 7510SOL    HW227661  10.423   5.417   9.236  1.3692  0.7487 -1.0993
 7511SOL     OW27662   4.720   5.079   2.594 -0.3607  0.4546  0.8506
 7511SOL    HW127663   4.707   5.169   2.622 -0.2108  0.9566 -0.6500
 7511SOL    HW227664   4.631   5.043   2.588 -0.4261  0.5270  1.3683
 7512SOL     OW27665   4.870   0.462   7.117 -0.5534 -0.6123 -0.1911
 7512SOL    HW127666   4.885   0.368   7.120 -0.4782 -0.6381 -1.2618
 7512SOL    HW227667   4.919   0.496   7.192 -0.3096 -1.3874  0.0044
 7513SOL     OW27668   8.216   4.470   2.241 -0.2275  0.4182  0.0388
 7513SOL    HW127669   8.129   4.468   2.280  0.6263 -1.4816  1.9919
 7513SOL    HW227670   8.238   4.563   2.235 -1.4971  0.8410  1.6018
 7514SOL     OW27671   8.988   0.446   8.130 -0.5496 -0.0131 -0.0620
 7514SOL    HW127672   9.041   0.419   8.055 -2.0945 -1.7863 -0.5471
 7514SOL    HW227673   8.996   0.374   8.193  1.4486  1.8393  1.9063
 7515SOL     OW27674   6.782   5.475   5.183 -0.1873 -0.0383  0.6494
 7515SOL    HW127675   6.863   5.516   5.156  0.7036 -1.9913  0.2584
 7515SOL    HW227676   6.731   5.545   5.223  0.4154  1.8850 -1.8318
 7516SOL     OW27677   6.446   1.868   7.013 -0.1616 -0.3576  0.7566
 7516SOL    HW127678   6.460   1.957   6.980 -0.4976 -0.3286  0.6903
 7516SOL    HW227679   6.503   1.813   6.959 -0.8214 -0.3315  0.0231
 7517SOL     OW27680   2.692   7.837   0.939 -0.1588 -0.5008 -0.6925
 7517SOL    HW127681   2.767   7.884   0.976 -0.4057 -0.0073 -0.8292
 7517SOL    HW227682   2.636   7.905   0.903 -1.6900 -0.6971  1.2171
 7518SOL     OW27683   7.361   5.803   2.778  0.1559  0.1112 -0.4713
 7518SOL    HW127684   7.337   5.874   2.718 -1.7409  0.7064  0.9707
 7518SOL    HW227685   7.286   5.745   2.777  0.5734 -0.4480  0.5107
 7519SOL     OW27686   3.766   8.116   7.675 -0.5611 -0.1062 -0.5043
 7519SOL    HW127687   3.695   8.111   7.610 -3.2284  0.1631  2.2739
 7519SOL    HW227688   3.805   8.028   7.674 -2.3143 -0.9000 -0.5861
 7520SOL     OW27689   6.745   2.605   0.773  0.3211 -0.7686 -0.1737
 7520SOL    HW127690   6.764   2.664   0.846 -1.7399  1.1418 -1.1545
 7520SOL    HW227691   6.831   2.573   0.745  1.3682  0.9019  1.0805
 7521SOL     OW27692   6.695   6.889   1.806 -0.8447 -0.0210  0.3666
 7521SOL    HW127693   6.673   6.981   1.816  0.3408  0.2950  0.1136
 7521SOL    HW227694   6.776   6.878   1.855 -0.6644 -0.8021 -0.0905
 7522SOL     OW27695   2.549   1.340   5.804  0.0573  0.0219  0.6939
 7522SOL    HW127696   2.504   1.262   5.837 -0.1556 -0.4609 -0.6948
 7522SOL    HW227697   2.639   1.312   5.790  0.0918  0.1557  0.6474
 7523SOL     OW27698   1.201   6.415   9.073 -0.3128  0.1978  0.0734
 7523SOL    HW127699   1.106   6.406   9.071 -0.5204  2.1999 -0.0887
 7523SOL    HW227700   1.222   6.461   8.992  0.9384 -1.3172 -0.4925
 7524SOL     OW27701   9.689   7.269   8.467  0.3368 -0.4651  0.2866
 7524SOL    HW127702   9.725   7.205   8.528  3.1548  1.8296  1.1159
 7524SOL    HW227703   9.764   7.322   8.439 -1.5258  1.0502 -2.1403
 7525SOL     OW27704   2.474   7.422   6.013  0.4946  0.1122 -0.6913
 7525SOL    HW127705   2.532   7.350   5.986 -1.3093 -1.1497 -1.3014
 7525SOL    HW227706   2.518   7.501   5.981  0.0578 -1.0820 -4.5576
 7526SOL     OW27707   3.879   5.290   8.795  0.3675  0.1777  0.6772
 7526SOL    HW127708   3.968   5.263   8.773 -0.2710  0.7719 -3.0420
 7526SOL    HW227709   3.888   5.378   8.831  1.2664  0.4873 -0.2793
 7527SOL     OW27710  10.458   3.349   0.884 -0.2424  0.6686  0.6078
 7527SOL    HW127711  10.386   3.408   0.861  0.4167  1.1890 -0.1553
 7527SOL    HW227712  10.478   3.304   0.802  0.3429  0.5804  0.7996
 7528SOL     OW27713   7.762   3.016   3.042 -0.5209 -1.3069  0.4974
 7528SOL    HW127714   7.800   3.102   3.028 -2.0612 -0.7332 -0.3046
 7528SOL    HW227715   7.744   3.013   3.136  1.1527 -1.4620  0.8272
 7529SOL     OW27716   2.647   4.488  10.426 -0.1483 -0.7813  0.1444
 7529SOL    HW127717   2.567   4.468  10.475  0.5826 -0.6574  1.4317
 7529SOL    HW227718   2.718   4.453  10.481  0.8239  1.0519  0.1099
 7530SOL     OW27719   4.956  10.368   3.534  0.2283 -0.1859 -0.3310
 7530SOL    HW127720   4.972  10.274   3.526  1.0531  0.0686 -1.9391
 7530SOL    HW227721   4.876  10.382   3.483 -0.5332 -0.1882  0.8578
 7531SOL     OW27722   9.678   8.264  10.052 -0.4884 -0.6401  0.3237
 7531SOL    HW127723   9.694   8.358  10.043  0.5397 -0.5135  2.8638
 7531SOL    HW227724   9.630   8.256  10.135 -1.4095 -2.2883 -0.3335
 7532SOL     OW27725   8.194   7.401  11.170 -0.6942  0.0947 -0.0415
 7532SOL    HW127726   8.141   7.362  11.101 -1.7595  1.6330 -0.1081
 7532SOL    HW227727   8.157   7.365  11.251 -1.4263  0.6774 -0.1175
 7533SOL     OW27728   1.002   2.642  11.250  0.4676 -0.0878 -0.1691
 7533SOL    HW127729   1.070   2.677  11.308  0.0172  2.7375 -1.2642
 7533SOL    HW227730   1.051   2.600  11.179  1.0602  1.0440 -0.4396
 7534SOL     OW27731   8.322  10.272  11.246 -0.2726  0.0548 -0.3197
 7534SOL    HW127732   8.333  10.238  11.157  1.8230  1.6281 -0.6909
 7534SOL    HW227733   8.249  10.333  11.239  0.6456  1.0657 -1.2405
 7535SOL     OW27734   2.568   1.686  10.573  0.0139 -0.6079 -0.3956
 7535SOL    HW127735   2.619   1.610  10.600 -0.4019 -0.8695 -0.3364
 7535SOL    HW227736   2.627   1.737  10.518  0.3647 -0.8621 -0.2543
 7536SOL     OW27737  10.980   9.246   5.292 -0.0472 -0.2749 -1.0266
 7536SOL    HW127738  11.005   9.187   5.221  0.6258  0.0383 -1.0553
 7536SOL    HW227739  11.057   9.250   5.348 -1.1150 -1.7397  0.5677
 7537SOL     OW27740  10.412   1.176  10.231 -0.8137 -0.3281  0.0157
 7537SOL    HW127741  10.389   1.251  10.286  0.2541  0.2169 -0.2635
 7537SOL    HW227742  10.473   1.124  10.285  0.3817  0.3042 -0.7033
 7538SOL     OW27743   6.106   4.550   5.470  0.6966 -0.0417 -0.6790
 7538SOL    HW127744   6.195   4.583   5.467  0.3409  0.8305 -1.8592
 7538SOL    HW227745   6.075   4.554   5.380 -0.6403 -0.0688 -0.2410
 7539SOL     OW27746   5.929   5.207   0.888 -0.7334  0.1414 -0.4369
 7539SOL    HW127747   5.884   5.201   0.972  2.4225  0.3495  1.3448
 7539SOL    HW227748   5.907   5.126   0.843 -3.3908  0.5463  0.0632
 7540SOL     OW27749   7.521  10.332   7.068  0.0460 -0.5365 -0.0563
 7540SOL    HW127750   7.541  10.260   7.127 -0.3658 -1.4031 -0.9413
 7540SOL    HW227751   7.497  10.405   7.125 -0.9611 -1.5392  0.8281
 7541SOL     OW27752   4.398   9.768   4.700 -0.5728  0.5274  0.0950
 7541SOL    HW127753   4.395   9.864   4.705 -1.1708  0.4309  2.4411
 7541SOL    HW227754   4.489   9.746   4.721 -0.3674  0.5937 -0.7287
 7542SOL     OW27755   3.194   5.570   7.401 -0.3710 -0.2686 -0.0315
 7542SOL    HW127756   3.253   5.517   7.455 -0.7246 -0.4567  0.1725
 7542SOL    HW227757   3.252   5.627   7.351 -0.0435 -0.0556  0.5873
 7543SOL     OW27758   7.700   0.719   6.584  0.2980  0.4684 -0.4434
 7543SOL    HW127759   7.774   0.758   6.537 -0.3450  0.4948 -1.4496
 7543SOL    HW227760   7.718   0.738   6.676  1.3372  0.8315 -0.7106
 7544SOL     OW27761   8.389   9.883  11.079  0.1455 -0.1807  0.6144
 7544SOL    HW127762   8.483   9.869  11.064  0.6157  2.2565  1.0799
 7544SOL    HW227763   8.376   9.977  11.062 -2.4264 -0.6976 -0.5314
 7545SOL     OW27764   8.861   5.007   5.054  0.1988  0.1908  0.3098
 7545SOL    HW127765   8.830   5.085   5.100 -2.9011  0.6517 -2.3367
 7545SOL    HW227766   8.915   5.041   4.982  1.4949 -0.2997  1.0283
 7546SOL     OW27767   6.487   5.539   6.030 -0.0735  0.3096 -0.1744
 7546SOL    HW127768   6.518   5.576   6.113  2.2584  0.3683 -1.0395
 7546SOL    HW227769   6.398   5.511   6.048  0.0921  1.1608  2.1038
 7547SOL     OW27770   7.982   5.428   4.162  0.1896 -0.1436  0.0347
 7547SOL    HW127771   8.035   5.357   4.126 -0.1997 -0.2998 -0.2384
 7547SOL    HW227772   7.940   5.390   4.240  1.5223  0.3849  1.0221
 7548SOL     OW27773   7.078   0.730   0.016  0.0185  0.6534  0.2217
 7548SOL    HW127774   7.053   0.757   0.104  0.1792 -0.6732  0.6815
 7548SOL    HW227775   7.173   0.716   0.021  0.4060  2.6823 -0.7288
 7549SOL     OW27776   2.525   3.538   6.075  0.2382  0.4276  0.9080
 7549SOL    HW127777   2.548   3.609   6.134  1.2810  2.1740 -1.5296
 7549SOL    HW227778   2.522   3.578   5.988 -3.2692 -1.6254 -0.0497
 7550SOL     OW27779   3.988   1.723   9.154  0.0781  0.1852 -0.4447
 7550SOL    HW127780   4.001   1.714   9.248  1.0515  1.7358 -0.4073
 7550SOL    HW227781   3.897   1.752   9.144  0.0383  0.2250  0.0375
 7551SOL     OW27782  10.514   6.507  10.802  0.0743  0.1602 -0.8078
 7551SOL    HW127783  10.470   6.537  10.722 -0.5378 -0.6757 -0.7889
 7551SOL    HW227784  10.491   6.571  10.869 -1.4646 -0.5029 -0.6943
 7552SOL     OW27785   6.845  11.257   2.031 -0.5114 -0.1760 -0.2720
 7552SOL    HW127786   6.873  11.174   1.993  0.0018 -0.1977  0.1564
 7552SOL    HW227787   6.873  11.323   1.967  0.9518 -0.1545  0.3703
 7553SOL     OW27788   6.350   2.142   0.521  0.2271  0.2881 -0.0821
 7553SOL    HW127789   6.369   2.137   0.615  0.6491  0.5326 -0.1564
 7553SOL    HW227790   6.395   2.066   0.484  1.5879  1.2087 -0.3461
 7554SOL     OW27791   9.469   2.121   5.067 -0.2890  0.2596 -0.0526
 7554SOL    HW127792   9.419   2.073   5.001  0.7743  0.3304 -0.9267
 7554SOL    HW227793   9.402   2.164   5.120 -1.2250 -1.6840  0.3743
 7555SOL     OW27794   1.130   7.782   0.085 -0.3615 -0.2124 -0.1454
 7555SOL    HW127795   1.073   7.736   0.147 -0.9581 -0.6246 -0.9941
 7555SOL    HW227796   1.116   7.875   0.103 -0.3202 -0.3309  0.5216
 7556SOL     OW27797   3.335   4.287   9.246 -0.1038  0.3696  0.0939
 7556SOL    HW127798   3.360   4.295   9.154 -2.3049 -0.9692 -0.6746
 7556SOL    HW227799   3.247   4.325   9.250  0.5336  1.7254  1.9622
 7557SOL     OW27800   3.031   2.745   1.114 -0.2626  0.0216  0.3361
 7557SOL    HW127801   2.977   2.721   1.190 -1.4990  0.6940 -0.3105
 7557SOL    HW227802   3.119   2.755   1.150 -0.5061 -1.2938  1.3857
 7558SOL     OW27803   3.304   4.645   1.779  0.2901 -0.0563 -0.2888
 7558SOL    HW127804   3.291   4.598   1.696  1.1062 -0.1363 -0.3744
 7558SOL    HW227805   3.253   4.725   1.769  1.2984  0.4791 -1.3363
 7559SOL     OW27806   6.026   1.663   5.926  0.0299 -0.1995  0.9548
 7559SOL    HW127807   5.936   1.647   5.900  0.6078 -0.1669 -1.1221
 7559SOL    HW227808   6.068   1.577   5.926  1.0858  0.2399 -2.3962
 7560SOL     OW27809   3.838   7.310   0.694 -0.5785 -0.3879 -0.2863
 7560SOL    HW127810   3.829   7.322   0.600 -1.3692 -2.3825 -0.5037
 7560SOL    HW227811   3.795   7.226   0.712 -2.8431  1.2143  2.2742
 7561SOL     OW27812   7.110   3.501   0.454  0.1618 -0.5078  0.2479
 7561SOL    HW127813   7.166   3.579   0.458 -0.0336 -0.4279  2.0866
 7561SOL    HW227814   7.068   3.506   0.369 -1.3687  2.4808  1.0939
 7562SOL     OW27815   2.821   5.591   1.667  0.1449  0.1576 -0.2317
 7562SOL    HW127816   2.899   5.623   1.622 -0.3960  0.2782 -1.0910
 7562SOL    HW227817   2.833   5.496   1.671  0.6563  0.2383  0.2555
 7563SOL     OW27818   3.498   1.781  10.913 -0.0505 -0.5449 -0.1191
 7563SOL    HW127819   3.496   1.845  10.984 -1.8285 -0.1665 -0.4701
 7563SOL    HW227820   3.405   1.765  10.893  0.4095 -0.0417 -2.8760
 7564SOL     OW27821  10.570  11.027   4.713  0.0660 -0.6908  0.0197
 7564SOL    HW127822  10.502  10.987   4.659 -0.8804  0.3707  0.4217
 7564SOL    HW227823  10.652  10.994   4.676 -0.6248 -1.1978 -1.0884
 7565SOL     OW27824   7.989   7.666   4.140  0.0524 -0.5697  0.2616
 7565SOL    HW127825   8.040   7.704   4.068  0.5606 -2.4873 -0.4229
 7565SOL    HW227826   8.044   7.679   4.217 -0.0398  0.5748  0.1502
 7566SOL     OW27827  10.050   7.822   7.032  0.4480 -0.1438  0.3324
 7566SOL    HW127828   9.962   7.817   7.069 -0.1781  0.9023 -0.9847
 7566SOL    HW227829  10.100   7.873   7.096 -0.3231  0.6398  0.3177
 7567SOL     OW27830   9.076   1.021   4.459 -0.0294  0.0787 -0.6031
 7567SOL    HW127831   9.124   0.940   4.443  0.3037  0.4179 -1.3631
 7567SOL    HW227832   9.144   1.083   4.487 -0.3242  0.0205  0.2485
 7568SOL     OW27833   5.002   2.630  11.177  0.2584  0.3870 -0.1807
 7568SOL    HW127834   4.966   2.545  11.204 -0.2605  0.3620 -0.9655
 7568SOL    HW227835   5.053   2.659  11.253  0.1047 -0.4377  0.2409
 7569SOL     OW27836   1.141   6.322   3.451  0.1579  0.5327  0.0899
 7569SOL    HW127837   1.224   6.352   3.486  0.5403 -0.2325 -0.1503
 7569SOL    HW227838   1.085   6.310   3.528  0.9953 -1.1475  0.4706
 7570SOL     OW27839   8.239   4.758   2.263  0.0589  0.0448 -0.1026
 7570SOL    HW127840   8.209   4.844   2.233  0.6126  0.4223  0.4066
 7570SOL    HW227841   8.335   4.765   2.263  0.0888 -0.1977  1.0041
 7571SOL     OW27842   2.652   3.551   4.862  0.0131  0.2987 -0.0751
 7571SOL    HW127843   2.656   3.457   4.884  1.0611  0.5447  0.8412
 7571SOL    HW227844   2.734   3.567   4.814 -1.0654  0.3364 -1.9376
 7572SOL     OW27845   0.171   1.060   4.001  0.1095 -0.5207 -0.3141
 7572SOL    HW127846   0.142   0.987   4.057  0.8645 -0.2806  0.4085
 7572SOL    HW227847   0.133   1.041   3.915  0.2393 -1.7322 -0.1181
 7573SOL     OW27848   8.836   1.927   4.539  0.4538 -0.2960 -0.7302
 7573SOL    HW127849   8.837   2.016   4.575  0.5637 -0.7704  0.4527
 7573SOL    HW227850   8.898   1.930   4.466  2.2632  0.0063  0.7745
 7574SOL     OW27851   6.173   4.638   8.511 -0.2011  0.1911  0.1226
 7574SOL    HW127852   6.078   4.647   8.506 -0.4786 -2.2640  0.4675
 7574SOL    HW227853   6.206   4.728   8.503 -2.5543  1.1325  0.6429
 7575SOL     OW27854   2.810   1.042   3.556  0.0922 -0.0905  0.1539
 7575SOL    HW127855   2.730   0.998   3.526 -0.4857  2.0556 -1.6156
 7575SOL    HW227856   2.780   1.128   3.586  1.6367  0.4362  0.2266
 7576SOL     OW27857   0.643  10.659   1.915  0.0332 -0.0336 -0.1297
 7576SOL    HW127858   0.723  10.617   1.882  0.8777  1.5862 -0.2004
 7576SOL    HW227859   0.596  10.687   1.837 -1.0458 -1.7335 -0.1177
 7577SOL     OW27860   4.478   3.217   9.954  0.2110  0.3667 -0.1784
 7577SOL    HW127861   4.553   3.166   9.987  0.1071 -0.1962 -0.7899
 7577SOL    HW227862   4.427   3.154   9.903  0.6927  1.3515 -1.9131
 7578SOL     OW27863   1.475   8.524   6.074 -0.2046 -0.4997 -0.1792
 7578SOL    HW127864   1.482   8.471   5.995  0.3803 -2.9179  1.4357
 7578SOL    HW227865   1.397   8.490   6.118 -1.6695  2.1515 -0.6318
 7579SOL     OW27866   5.546   3.090  10.199 -0.0488  0.4799 -0.1661
 7579SOL    HW127867   5.536   3.064  10.108  0.3109 -1.4528  0.3206
 7579SOL    HW227868   5.457   3.088  10.235 -0.2736  1.8710 -0.6235
 7580SOL     OW27869   2.851   8.660   2.645 -0.0180  0.6144  0.3663
 7580SOL    HW127870   2.818   8.572   2.662  0.4396  0.4945  0.6282
 7580SOL    HW227871   2.921   8.649   2.581 -0.5480  0.8820 -0.2724
 7581SOL     OW27872   4.094   7.144  10.806 -0.6074  0.5056 -0.1584
 7581SOL    HW127873   4.019   7.197  10.776 -3.0875 -2.6031  0.2514
 7581SOL    HW227874   4.151   7.138  10.730 -1.9531  0.9657 -1.2354
 7582SOL     OW27875   7.564   4.886  11.172  0.3653 -0.9781  0.4764
 7582SOL    HW127876   7.646   4.884  11.221  1.2425  0.0241 -0.9081
 7582SOL    HW227877   7.496   4.894  11.240  1.5782  0.8832  1.5266
 7583SOL     OW27878   0.595   2.243   5.093 -0.3133 -0.2675  0.1357
 7583SOL    HW127879   0.673   2.195   5.123  0.1738  0.8069  0.5996
 7583SOL    HW227880   0.576   2.206   5.007  0.3995 -0.8907  0.2408
 7584SOL     OW27881   5.391   2.733  10.053  0.1931  0.0645  0.2555
 7584SOL    HW127882   5.308   2.756  10.010 -0.1531 -2.0043 -0.2688
 7584SOL    HW227883   5.446   2.810  10.042 -0.6627  0.3944 -2.0091
 7585SOL     OW27884   5.449   0.797   0.566 -0.2801  0.1237 -0.5075
 7585SOL    HW127885   5.446   0.806   0.471 -0.2619 -2.1708 -0.7602
 7585SOL    HW227886   5.537   0.825   0.590 -0.3008  0.7654 -1.1623
 7586SOL     OW27887   5.391   4.960   7.320 -0.4802  0.1469 -0.2022
 7586SOL    HW127888   5.417   4.921   7.236  2.0345  0.0669  0.5560
 7586SOL    HW227889   5.315   4.909   7.348  1.2660 -2.6668 -0.3952
 7587SOL     OW27890   6.939   3.335  10.514  0.3620 -0.0527  0.4700
 7587SOL    HW127891   6.933   3.254  10.565 -0.1271 -1.1075 -1.2092
 7587SOL    HW227892   6.956   3.305  10.425  1.1422  1.7545  0.0066
 7588SOL     OW27893   3.314   4.785   5.043  0.2928 -0.6186  0.6707
 7588SOL    HW127894   3.323   4.829   5.127  1.3655 -0.7124  0.6018
 7588SOL    HW227895   3.236   4.730   5.053  0.1122 -0.2285  1.4167
 7589SOL     OW27896   0.412   1.233   3.694  0.4919 -0.3053 -0.5149
 7589SOL    HW127897   0.424   1.149   3.648 -1.4227 -1.1698  0.5048
 7589SOL    HW227898   0.417   1.210   3.787 -1.8060  0.3950 -0.1885
 7590SOL     OW27899   1.424   6.254   2.286 -0.4726  0.0532 -0.1503
 7590SOL    HW127900   1.354   6.275   2.224  0.1391  1.9636 -0.2235
 7590SOL    HW227901   1.480   6.332   2.286  2.1988 -1.7757 -0.8129
 7591SOL     OW27902   8.450   9.597   4.988 -0.6116  0.6210  0.4659
 7591SOL    HW127903   8.525   9.618   5.044  0.4296  0.1411 -0.7173
 7591SOL    HW227904   8.447   9.670   4.926 -1.4552  0.9041  0.8359
 7592SOL     OW27905   8.803   4.510   1.329  0.7305 -0.2850  0.1637
 7592SOL    HW127906   8.740   4.569   1.369  0.7344 -0.8187  0.9780
 7592SOL    HW227907   8.782   4.424   1.366  1.7346 -0.5192  0.2054
 7593SOL     OW27908  10.612   6.869   2.471  0.5541 -0.1606  0.2141
 7593SOL    HW127909  10.580   6.940   2.527 -1.0646  0.9089 -1.9831
 7593SOL    HW227910  10.645   6.913   2.393  0.6040 -1.7580 -0.6848
 7594SOL     OW27911   5.946   2.663   5.724  0.2609 -0.6059  0.1687
 7594SOL    HW127912   5.961   2.708   5.807 -1.1430 -0.2916  0.2645
 7594SOL    HW227913   5.852   2.644   5.723 -0.6140  3.1640 -3.2007
 7595SOL     OW27914   1.904   0.104   4.507 -0.4779 -0.5422  0.1666
 7595SOL    HW127915   1.968   0.174   4.522 -0.1047 -0.8622  0.0516
 7595SOL    HW227916   1.952   0.023   4.520 -0.6392 -0.8022 -0.7960
 7596SOL     OW27917   6.115   0.800   4.270 -0.0995  0.5086 -0.4096
 7596SOL    HW127918   6.110   0.889   4.305 -2.1792  0.5846 -0.8255
 7596SOL    HW227919   6.024   0.770   4.269  0.1788 -0.3665 -3.5221
 7597SOL     OW27920   2.690   2.018   8.421  0.8925  0.0276 -0.3232
 7597SOL    HW127921   2.727   1.991   8.505 -0.3715  1.3075  0.6545
 7597SOL    HW227922   2.616   2.074   8.444  1.8193  2.1142 -2.2998
 7598SOL     OW27923   2.811   7.733   1.176  0.0157 -0.4967 -0.2865
 7598SOL    HW127924   2.897   7.763   1.146  0.4845 -2.3288 -0.8798
 7598SOL    HW227925   2.751   7.755   1.105 -0.2196  1.7143  0.5612
 7599SOL     OW27926   9.214  10.440   1.057 -0.1642 -0.0937 -0.3048
 7599SOL    HW127927   9.167  10.367   1.097  0.6338 -0.0228  0.7963
 7599SOL    HW227928   9.161  10.517   1.078 -0.8004 -0.2944 -1.1314
 7600SOL     OW27929   2.132   2.436   6.592 -0.2946  0.5403  0.1157
 7600SOL    HW127930   2.141   2.375   6.665  1.9289  3.1677  2.1261
 7600SOL    HW227931   2.057   2.490   6.615 -1.5192 -0.6050 -1.0901
 7601SOL     OW27932   5.429   0.737   9.572 -0.1286  0.0985  0.0421
 7601SOL    HW127933   5.414   0.787   9.653  0.6775  0.4197 -0.0067
 7601SOL    HW227934   5.474   0.658   9.601  0.5554  0.4192 -0.1480
 7602SOL     OW27935   9.547   3.107   4.251 -0.2338  0.0996 -0.3965
 7602SOL    HW127936   9.584   3.030   4.209  0.6291  0.3083 -0.0299
 7602SOL    HW227937   9.461   3.118   4.209 -2.1081 -3.3712  2.3105
 7603SOL     OW27938   8.456   3.361  10.226  0.0157 -0.2169  0.9547
 7603SOL    HW127939   8.381   3.398  10.179  0.9141  0.7090  0.2081
 7603SOL    HW227940   8.522   3.431  10.225  1.2007 -1.3114  0.8443
 7604SOL     OW27941   6.170   1.366   3.706  0.5380 -0.0465  0.3445
 7604SOL    HW127942   6.244   1.376   3.646  0.0916 -1.0041 -0.3801
 7604SOL    HW227943   6.100   1.419   3.666  0.5764  0.2030  0.6044
 7605SOL     OW27944   7.946   8.794   0.384  0.1989  0.0678 -0.7521
 7605SOL    HW127945   8.002   8.737   0.330  0.1062  0.2224 -1.0120
 7605SOL    HW227946   7.997   8.811   0.463 -0.1915 -1.2354 -0.2066
 7606SOL     OW27947   1.831   0.998   7.388 -0.3447  0.3130  0.3212
 7606SOL    HW127948   1.865   0.974   7.302  0.1388  0.6599  0.4129
 7606SOL    HW227949   1.779   1.077   7.372 -0.2225  0.4000  0.3563
 7607SOL     OW27950   2.313   4.666   4.184 -0.4941 -0.0246  0.9314
 7607SOL    HW127951   2.408   4.659   4.183 -0.6515 -2.7444  2.3504
 7607SOL    HW227952   2.290   4.690   4.094  1.5336  1.3256  0.7353
 7608SOL     OW27953  11.263   5.659   1.213 -0.3257  0.1896  0.1496
 7608SOL    HW127954  11.196   5.727   1.219  2.5215  3.2395 -1.0212
 7608SOL    HW227955  11.312   5.666   1.294  1.3469  1.0969 -0.9111
 7609SOL     OW27956   9.666   2.368   6.269  0.3278  0.4499 -0.9492
 7609SOL    HW127957   9.712   2.399   6.191  0.1381  0.6031 -0.9991
 7609SOL    HW227958   9.670   2.273   6.263 -0.4084  0.4570 -1.5676
 7610SOL     OW27959   2.562   2.857   2.275 -0.0111  0.3527  0.5937
 7610SOL    HW127960   2.548   2.882   2.367 -1.2543  2.6666 -0.1642
 7610SOL    HW227961   2.476   2.864   2.235  0.5515 -0.4704 -0.7956
 7611SOL     OW27962   2.761   6.979  10.032 -0.4828  0.1112  0.4957
 7611SOL    HW127963   2.745   6.907   9.970 -1.0828  0.1761  0.5787
 7611SOL    HW227964   2.789   6.936  10.112  0.0950  0.0152  0.2489
 7612SOL     OW27965  10.657   2.473  10.901  0.0050 -0.8619 -0.2334
 7612SOL    HW127966  10.651   2.502  10.992 -0.3471 -1.3389 -0.1049
 7612SOL    HW227967  10.698   2.547  10.855 -2.4690  0.5677 -0.2410
 7613SOL     OW27968   7.903   6.151  10.535 -0.3061 -0.3464  0.2811
 7613SOL    HW127969   7.862   6.105  10.462  0.2782 -0.2458 -0.1135
 7613SOL    HW227970   7.832   6.165  10.597 -0.8457 -0.2826 -0.3407
 7614SOL     OW27971   0.373   7.942   3.920  0.2056  0.0332  0.8262
 7614SOL    HW127972   0.344   7.966   4.008 -0.0816  0.7894  0.5319
 7614SOL    HW227973   0.318   7.867   3.896  0.9978 -0.8370  1.6930
 7615SOL     OW27974   7.684   6.725   8.068 -0.1002 -0.5703 -0.4555
 7615SOL    HW127975   7.708   6.649   8.122 -1.4763 -0.6250  0.0940
 7615SOL    HW227976   7.589   6.726   8.069 -0.1223 -0.0463 -2.1933
 7616SOL     OW27977   2.647   4.051   5.276  0.5474  0.5975  0.0085
 7616SOL    HW127978   2.709   4.100   5.331  0.1330 -0.5110  1.4981
 7616SOL    HW227979   2.629   3.971   5.325 -0.9459  0.2309 -1.0857
 7617SOL     OW27980   0.804   7.198   5.079 -0.2100  0.3996 -0.3454
 7617SOL    HW127981   0.776   7.266   5.140 -1.0618 -0.5339  0.3297
 7617SOL    HW227982   0.854   7.244   5.012  1.3731  1.3499  1.4535
 7618SOL     OW27983   8.434   1.162   0.300  0.0183 -0.4896 -0.3033
 7618SOL    HW127984   8.494   1.237   0.307 -0.8972  0.3246 -1.0057
 7618SOL    HW227985   8.480   1.099   0.245  0.2925  0.0619 -0.7084
 7619SOL     OW27986   3.095   8.232  11.004  0.0466 -0.4313 -0.6564
 7619SOL    HW127987   3.075   8.295  10.936 -3.8766 -0.6635  0.2000
 7619SOL    HW227988   3.124   8.284  11.079 -3.3599  0.4782  0.1138
 7620SOL     OW27989   8.027   9.420   5.723  0.1370 -0.1924 -0.2699
 7620SOL    HW127990   8.060   9.506   5.748  0.5288  0.0467 -1.5756
 7620SOL    HW227991   7.936   9.420   5.753  0.3319  0.4269  0.3235
 7621SOL     OW27992   1.855   6.635   1.695  0.1087 -0.2060 -0.3254
 7621SOL    HW127993   1.780   6.656   1.639 -0.5252 -2.1795 -0.2674
 7621SOL    HW227994   1.823   6.564   1.751  1.5595 -0.0275  0.7385
 7622SOL     OW27995   4.868   4.903   9.370  0.0036 -0.1955  0.4614
 7622SOL    HW127996   4.952   4.938   9.339  0.2632 -0.5715  0.7378
 7622SOL    HW227997   4.866   4.926   9.463  0.2666 -1.0909  0.6912
 7623SOL     OW27998   5.951   0.747   5.556  0.1987  0.7894  0.3720
 7623SOL    HW127999   5.909   0.832   5.569 -0.9115  0.6119 -1.8719
 7623SOL    HW228000   5.881   0.683   5.569  0.2852  0.3806 -1.1068
 7624SOL     OW28001  10.385   5.691   0.723 -0.2317  0.0072  0.1307
 7624SOL    HW128002  10.371   5.626   0.792  0.1468 -0.1497  0.0612
 7624SOL    HW228003  10.419   5.768   0.769  2.8725 -1.0944 -0.2171
 7625SOL     OW28004   3.185   4.686   6.268  0.0854 -0.2143  0.2798
 7625SOL    HW128005   3.253   4.733   6.220  0.4907 -1.6153 -0.5427
 7625SOL    HW228006   3.135   4.639   6.201  0.5342 -2.0338  1.1893
 7626SOL     OW28007   8.911  10.442   9.651 -0.0388 -0.1802  0.2727
 7626SOL    HW128008   8.871  10.424   9.736 -0.3211  0.9032  0.3685
 7626SOL    HW228009   8.977  10.508   9.669  0.3129 -0.3864 -0.2577
 7627SOL     OW28010   8.976   1.919   4.043 -0.1317 -0.2218  0.6413
 7627SOL    HW128011   8.965   2.006   4.005 -1.1045 -0.5648  0.1182
 7627SOL    HW228012   9.058   1.886   4.006  0.6164  0.7614  1.4089
 7628SOL     OW28013   6.743   6.143   5.702  0.1748  0.4532  0.2903
 7628SOL    HW128014   6.703   6.140   5.789 -1.2760 -0.6804 -0.3773
 7628SOL    HW228015   6.735   6.053   5.670  1.7842  0.5923 -0.5487
 7629SOL     OW28016   8.795   6.828   9.421 -0.6109 -0.0992 -0.0042
 7629SOL    HW128017   8.825   6.743   9.387 -0.6025  0.3482 -1.1240
 7629SOL    HW228018   8.727   6.855   9.359 -1.1751  0.3320  0.8095
 7630SOL     OW28019   5.603   1.266   6.527  0.1348 -0.1147 -0.1775
 7630SOL    HW128020   5.530   1.206   6.509 -1.2395  1.8649 -1.3872
 7630SOL    HW228021   5.632   1.242   6.615 -2.5611 -0.3993  0.6899
 7631SOL     OW28022   6.470  10.125   8.075 -0.0179  0.4780 -0.2561
 7631SOL    HW128023   6.490  10.033   8.059  0.5023  0.6069 -0.3492
 7631SOL    HW228024   6.524  10.172   8.012 -0.3157  0.8456 -0.2365
 7632SOL     OW28025   9.192  10.423   4.634 -0.1776 -0.0724 -0.1961
 7632SOL    HW128026   9.250  10.352   4.661 -0.5591 -0.1723  0.3850
 7632SOL    HW228027   9.221  10.447   4.546  0.6816 -0.1793  0.0564
 7633SOL     OW28028   5.561   0.279   1.924  0.5475  0.4767 -0.4403
 7633SOL    HW128029   5.645   0.234   1.914 -0.1448 -0.6477 -1.2828
 7633SOL    HW228030   5.550   0.328   1.843 -0.0686 -0.1768 -0.7629
 7634SOL     OW28031   2.209   3.306   8.100  0.1466  0.5378  0.1623
 7634SOL    HW128032   2.219   3.380   8.039 -1.8870 -0.3146 -1.2713
 7634SOL    HW228033   2.219   3.228   8.045  0.0082 -0.2566  1.2429
 7635SOL     OW28034   5.582   1.765   0.748  0.3336  0.4101 -0.3767
 7635SOL    HW128035   5.564   1.826   0.819  1.1478 -0.7661  0.8778
 7635SOL    HW228036   5.582   1.679   0.790  2.2230 -0.1913 -1.5389
 7636SOL     OW28037   9.382   7.521   1.154  0.3739  0.2038  0.1327
 7636SOL    HW128038   9.476   7.537   1.141  0.7443  0.3603  2.6944
 7636SOL    HW228039   9.339   7.592   1.107  1.5948  0.9351  0.0852
 7637SOL     OW28040   5.761   0.117   1.554 -0.0217 -0.2098 -0.0302
 7637SOL    HW128041   5.835   0.178   1.556  0.5786 -0.9359  0.2520
 7637SOL    HW228042   5.690   0.166   1.513  0.4297  0.7051  0.2716
 7638SOL     OW28043   9.554   7.195  11.302  0.4576 -0.6108 -0.3018
 7638SOL    HW128044   9.634   7.236  11.335  0.5385 -0.7100 -0.3762
 7638SOL    HW228045   9.528   7.135  11.372 -1.2395  1.6318  1.0849
 7639SOL     OW28046   5.597   5.181  11.065 -0.4925  0.1221 -0.4475
 7639SOL    HW128047   5.688   5.151  11.078 -1.0880 -2.0213 -0.9973
 7639SOL    HW228048   5.573   5.221  11.149  0.5252 -0.5014  0.1570
 7640SOL     OW28049   2.688   5.660   7.173  0.0894  0.1354  0.0956
 7640SOL    HW128050   2.670   5.740   7.123  0.9961 -0.1890 -0.7755
 7640SOL    HW228051   2.776   5.673   7.208 -0.3277  0.1257  1.1793
 7641SOL     OW28052   2.882   6.668   5.125  0.2934 -0.1660  0.2452
 7641SOL    HW128053   2.893   6.763   5.133  0.2903 -0.1246 -0.2594
 7641SOL    HW228054   2.970   6.632   5.136  0.0561 -0.2255  2.1894
 7642SOL     OW28055  10.482   2.761   0.805  0.0322 -0.0396  0.4617
 7642SOL    HW128056  10.440   2.688   0.760  0.2526 -0.2997  0.6748
 7642SOL    HW228057  10.443   2.761   0.893  1.2002 -0.9113  0.9925
 7643SOL     OW28058   8.520   1.536   4.075 -0.4224 -0.4084 -0.1772
 7643SOL    HW128059   8.496   1.617   4.120 -0.4476  0.4047 -1.6309
 7643SOL    HW228060   8.468   1.468   4.119 -1.0436  0.4806  0.4859
 7644SOL     OW28061   6.526   0.122   4.978  0.0072 -0.3163 -0.1693
 7644SOL    HW128062   6.521   0.217   4.977 -0.3434 -0.3190  0.6221
 7644SOL    HW228063   6.457   0.095   5.039 -0.8757 -1.1553 -1.5180
 7645SOL     OW28064   5.173   2.730   1.910  0.0639 -0.1313  0.3394
 7645SOL    HW128065   5.242   2.712   1.975 -0.7474  0.1650  1.3022
 7645SOL    HW228066   5.109   2.783   1.957 -0.1736  0.7324 -0.9368
 7646SOL     OW28067   6.618   6.360   7.226 -0.0362 -0.2580  0.5138
 7646SOL    HW128068   6.584   6.330   7.310  1.8245 -1.5509  0.8383
 7646SOL    HW228069   6.543   6.357   7.167 -0.9203 -1.2312  1.6703
 7647SOL     OW28070  10.357   6.853   4.211 -0.4166  0.7807  0.2755
 7647SOL    HW128071  10.378   6.896   4.128  3.4137  1.6392  1.6010
 7647SOL    HW228072  10.423   6.785   4.221 -2.2013 -0.8425  1.5861
 7648SOL     OW28073   6.676   4.323   2.264 -0.3398  0.3002  0.5093
 7648SOL    HW128074   6.675   4.404   2.314 -1.1094  0.4782  0.2083
 7648SOL    HW228075   6.674   4.254   2.330 -0.1811  0.5265  0.7494
 7649SOL     OW28076   1.741   8.048   9.520 -0.5943  0.7032 -0.2632
 7649SOL    HW128077   1.686   7.984   9.474  1.0121  0.6784 -2.2456
 7649SOL    HW228078   1.800   7.995   9.574  0.6445  0.4585 -1.8010
 7650SOL     OW28079   4.317   7.333   0.114 -0.4267  0.2442  0.0850
 7650SOL    HW128080   4.338   7.241   0.126  0.2554  0.6094  1.7695
 7650SOL    HW228081   4.339   7.350   0.022  0.3797 -1.0245  0.0273
 7651SOL     OW28082   3.126   3.870  11.119  0.4278  0.2441 -0.2559
 7651SOL    HW128083   3.140   3.948  11.172 -1.1303  0.1954  0.2820
 7651SOL    HW228084   3.140   3.898  11.029  0.9384  0.8729  0.0177
 7652SOL     OW28085   7.957   7.252   7.778  0.1199 -0.1857  0.0343
 7652SOL    HW128086   7.888   7.193   7.806  1.0953 -0.5094  1.8163
 7652SOL    HW228087   8.023   7.195   7.739 -1.2642  0.2686 -3.1432
 7653SOL     OW28088   3.545   3.481   1.204 -0.0273 -0.2259  0.3365
 7653SOL    HW128089   3.579   3.427   1.275 -0.5950 -1.4741 -0.3354
 7653SOL    HW228090   3.593   3.564   1.213 -0.1911 -0.3043  2.2537
 7654SOL     OW28091   7.934   5.200   2.654  0.6019  0.2738 -0.2297
 7654SOL    HW128092   7.882   5.211   2.574 -0.1904  1.2833  0.4044
 7654SOL    HW228093   7.870   5.207   2.725  1.4314  0.2850  0.5203
 7655SOL     OW28094   4.677   9.560  10.215  0.4698 -0.0651  0.0504
 7655SOL    HW128095   4.757   9.607  10.240  0.1457  1.2737 -1.3685
 7655SOL    HW228096   4.681   9.556  10.120 -0.3145 -1.5289  0.0662
 7656SOL     OW28097   3.049   7.187   9.386  0.1199  0.3022 -0.1445
 7656SOL    HW128098   3.005   7.225   9.311  1.0880 -0.2407 -1.0128
 7656SOL    HW228099   3.066   7.261   9.445 -0.1041  0.8222 -0.7352
 7657SOL     OW28100   2.814  10.573   9.519  0.3746 -0.0939  0.5888
 7657SOL    HW128101   2.867  10.653   9.522  0.3548 -0.0818  0.6514
 7657SOL    HW228102   2.736  10.598   9.470  1.4113 -0.7026 -1.4113
 7658SOL     OW28103   8.101   6.838   0.892 -0.4064 -0.0811  0.2024
 7658SOL    HW128104   8.169   6.806   0.833  0.2510 -2.0875  1.9818
 7658SOL    HW228105   8.125   6.929   0.909  0.3534  0.0049 -1.2405
 7659SOL     OW28106   9.666   9.954   7.160  0.7241 -0.1653  0.2187
 7659SOL    HW128107   9.582   9.920   7.189 -0.0402  1.9248  0.5452
 7659SOL    HW228108   9.669   9.936   7.066  0.1534 -0.7320  0.3111
 7660SOL     OW28109   1.775   6.544   4.123 -0.4773 -0.5158  0.4206
 7660SOL    HW128110   1.717   6.593   4.181 -1.7488 -0.4269 -0.9123
 7660SOL    HW228111   1.844   6.512   4.181 -0.9489  0.7741  1.7338
 7661SOL     OW28112   8.356   9.500   2.509 -0.5294  0.6248 -0.2017
 7661SOL    HW128113   8.313   9.433   2.562  1.1300  0.4074  0.8920
 7661SOL    HW228114   8.433   9.456   2.472  0.1526  1.7150 -0.0989
 7662SOL     OW28115  10.966   7.470   0.048  0.1499 -0.0552 -0.4653
 7662SOL    HW128116  11.019   7.490   0.125 -1.6837 -0.3154  0.9024
 7662SOL    HW228117  10.972   7.548  -0.007 -0.6144  1.1558  1.1547
 7663SOL     OW28118   1.446  10.299   9.384 -0.2320 -0.8845 -0.0611
 7663SOL    HW128119   1.458  10.281   9.291 -0.4103  0.9332 -0.4450
 7663SOL    HW228120   1.356  10.330   9.392  0.6081  1.5763  0.2851
 7664SOL     OW28121   2.028  10.982   7.995 -0.0612 -0.1445  0.2294
 7664SOL    HW128122   1.969  10.922   8.041  1.4091 -2.6115 -0.9842
 7664SOL    HW228123   1.987  10.995   7.909  0.1650 -0.2788  0.1005
 7665SOL     OW28124   9.196   4.777   7.904  0.0074 -0.0322 -0.3136
 7665SOL    HW128125   9.100   4.775   7.910  0.1189 -2.0550  1.5473
 7665SOL    HW228126   9.215   4.735   7.820 -0.7370 -0.2206 -0.3942
 7666SOL     OW28127  11.155   9.389   6.385  0.2721  0.4698  1.1029
 7666SOL    HW128128  11.107   9.470   6.371 -1.0442 -0.4304  0.2639
 7666SOL    HW228129  11.219   9.386   6.313 -0.0318  0.5142  0.8305
 7667SOL     OW28130   7.949   6.087   4.784  0.0023 -0.1361 -0.4058
 7667SOL    HW128131   7.994   6.003   4.781  0.7363  0.2548 -0.7235
 7667SOL    HW228132   7.957   6.116   4.875  2.4064  0.9755 -0.9278
 7668SOL     OW28133   6.350   2.687   0.677  0.3849  0.5890  0.3489
 7668SOL    HW128134   6.381   2.691   0.768 -0.3923  0.1990  0.6398
 7668SOL    HW228135   6.266   2.641   0.683 -0.5568  2.1616 -0.3313
 7669SOL     OW28136   2.852  11.035   0.367  0.4115  0.0044  0.1881
 7669SOL    HW128137   2.796  11.102   0.406 -0.7499 -0.4680 -0.6099
 7669SOL    HW228138   2.888  10.987   0.441  1.2037  1.4648  0.7638
 7670SOL     OW28139   2.785   6.468   2.974  0.4413  0.0163  0.3661
 7670SOL    HW128140   2.782   6.397   3.038 -0.7113 -0.0267  0.2683
 7670SOL    HW228141   2.812   6.426   2.892  1.5341  0.0056  0.7203
 7671SOL     OW28142  10.284   2.125   7.489  0.8755  0.6155 -0.3535
 7671SOL    HW128143  10.341   2.072   7.433 -1.4204 -0.6216 -1.5761
 7671SOL    HW228144  10.257   2.198   7.433 -0.2967  0.1367 -0.4180
 7672SOL     OW28145   5.909   7.529   1.885  0.1039  0.2158 -0.1604
 7672SOL    HW128146   5.961   7.471   1.940  1.5391  1.1365 -0.5231
 7672SOL    HW228147   5.911   7.489   1.798 -2.1455 -1.2253  0.4027
 7673SOL     OW28148  11.140   4.130   4.458  0.3814 -0.4370 -0.1872
 7673SOL    HW128149  11.196   4.175   4.396 -1.7921  1.3747 -0.8891
 7673SOL    HW228150  11.155   4.174   4.542 -1.4181  1.3974 -0.7847
 7674SOL     OW28151   6.336   1.205   7.684 -0.1248  0.4779 -0.1763
 7674SOL    HW128152   6.430   1.184   7.684 -0.5419 -1.4705 -0.4394
 7674SOL    HW228153   6.298   1.144   7.620 -1.8405 -0.0321  1.2981
 7675SOL     OW28154   9.366   9.265   7.027  0.0687 -0.2623  0.0708
 7675SOL    HW128155   9.345   9.300   6.941 -0.9393  2.8322  1.5014
 7675SOL    HW228156   9.440   9.206   7.012  0.7386  1.2293 -2.7279
 7676SOL     OW28157   3.217   6.270   6.620  0.8145 -0.5150  0.1999
 7676SOL    HW128158   3.141   6.249   6.566  0.2824 -2.0361  1.5111
 7676SOL    HW228159   3.290   6.227   6.576  0.5080 -1.1214  0.2831
 7677SOL     OW28160   6.345  10.482   9.256 -0.6836  0.2751 -0.0987
 7677SOL    HW128161   6.320  10.455   9.345  0.1164 -0.2946 -0.0385
 7677SOL    HW228162   6.441  10.475   9.256 -0.6502  0.7141 -0.8713
 7678SOL     OW28163   4.356   2.752   3.298  0.1083  0.1083  0.2456
 7678SOL    HW128164   4.316   2.699   3.367 -0.1460  1.1744  0.9274
 7678SOL    HW228165   4.413   2.691   3.252  0.5265 -0.5506  1.6000
 7679SOL     OW28166   9.558   2.565   8.986 -0.0344  0.1333  0.1130
 7679SOL    HW128167   9.528   2.522   9.066  0.0315 -1.2571 -0.5916
 7679SOL    HW228168   9.614   2.636   9.016  0.7973 -1.0048  1.2777
 7680SOL     OW28169   8.366   3.131   4.296 -0.1581  0.0587 -0.1180
 7680SOL    HW128170   8.292   3.140   4.237  0.6980  0.9469 -1.0877
 7680SOL    HW228171   8.416   3.058   4.262  0.1394  0.3352 -0.2762
 7681SOL     OW28172   3.416   8.386  10.878  0.7372  0.2239  0.2864
 7681SOL    HW128173   3.390   8.421  10.792  0.2542  0.2073  0.4259
 7681SOL    HW228174   3.410   8.461  10.937 -0.4950 -0.1253  0.6269
 7682SOL     OW28175   8.205   0.477   0.001  0.1292  0.1928  0.3223
 7682SOL    HW128176   8.139   0.536  -0.037  0.4262 -0.0019 -0.4953
 7682SOL    HW228177   8.202   0.497   0.095 -0.5342  0.7503  0.1961
 7683SOL     OW28178  10.828   8.851   0.551 -0.2033 -0.5104  0.4745
 7683SOL    HW128179  10.886   8.777   0.566  1.2466  0.9694  2.4931
 7683SOL    HW228180  10.743   8.822   0.585  0.5187 -1.0128  1.8837
 7684SOL     OW28181   8.798   2.219   2.542  0.0514  0.7039  0.3156
 7684SOL    HW128182   8.755   2.171   2.613 -1.8433  0.9419 -0.6254
 7684SOL    HW228183   8.820   2.152   2.478 -1.0430  0.8448 -0.2297
 7685SOL     OW28184   3.837  11.087   8.773  0.0319 -0.7040  0.0055
 7685SOL    HW128185   3.792  11.150   8.828  1.9342  1.4667 -0.8703
 7685SOL    HW228186   3.913  11.058   8.824  0.6672 -0.2234 -0.6490
 7686SOL     OW28187   0.613   4.028   4.489 -0.3474 -0.8106 -0.3354
 7686SOL    HW128188   0.624   4.109   4.538 -2.5025 -1.0667  0.6195
 7686SOL    HW228189   0.607   4.055   4.398  0.0677 -0.0226 -0.1377
 7687SOL     OW28190   0.062   9.770   9.896  0.5022  0.0061  0.0560
 7687SOL    HW128191   0.125   9.781   9.825  0.6539  0.8096  0.3064
 7687SOL    HW228192   0.050   9.676   9.903  0.5565 -0.0822 -0.9717
 7688SOL     OW28193   6.648  10.931  10.751  0.8834  0.9357 -0.5192
 7688SOL    HW128194   6.554  10.949  10.752  0.7080  0.0439 -0.4316
 7688SOL    HW228195   6.672  10.921  10.843  1.3402  2.5013 -0.4467
 7689SOL     OW28196   7.052   2.120   3.043  0.3017  0.1735  0.2994
 7689SOL    HW128197   7.104   2.052   3.000  1.0036 -2.3005  4.8073
 7689SOL    HW228198   7.110   2.156   3.110 -1.8832  1.4915  1.5427
 7690SOL     OW28199  11.118   8.456   3.304  0.2047 -0.9225 -0.3947
 7690SOL    HW128200  11.178   8.480   3.375 -0.4407 -1.7671  0.4521
 7690SOL    HW228201  11.151   8.504   3.228  1.5529 -0.8496  0.2136
 7691SOL     OW28202   5.356   7.569   2.604 -0.1671 -0.1169  0.3057
 7691SOL    HW128203   5.371   7.597   2.514  0.8770 -0.2362  0.4358
 7691SOL    HW228204   5.272   7.523   2.601 -0.1344 -0.1296 -0.6114
 7692SOL     OW28205   3.170   4.150   1.961  0.1595 -0.3178 -0.1342
 7692SOL    HW128206   3.121   4.232   1.952  0.2729 -0.2408 -0.0557
 7692SOL    HW228207   3.216   4.159   2.044  2.2196  0.6293 -1.3389
 7693SOL     OW28208  10.610   1.343   7.854  0.2846 -0.2055 -0.0037
 7693SOL    HW128209  10.694   1.300   7.873 -0.1226 -0.4433  1.3355
 7693SOL    HW228210  10.615   1.426   7.901 -0.0925 -0.0745 -0.1990
 7694SOL     OW28211   3.733   9.930   0.831  1.0772 -0.6203  0.1792
 7694SOL    HW128212   3.809   9.891   0.787  1.4607 -0.1966  0.4572
 7694SOL    HW228213   3.669   9.859   0.836  1.4534 -0.9816 -0.0617
 7695SOL     OW28214   8.383   2.456   0.022  0.0838 -0.9051 -0.1368
 7695SOL    HW128215   8.472   2.456  -0.013  0.1646 -2.4442  0.0172
 7695SOL    HW228216   8.380   2.379   0.079 -0.9826 -0.1762  0.8104
 7696SOL     OW28217   8.502   2.223   7.086 -0.0781 -0.5080 -0.1653
 7696SOL    HW128218   8.437   2.153   7.082 -3.0210  2.1955 -3.1921
 7696SOL    HW228219   8.469   2.283   7.154  1.2940 -0.9350  0.9154
 7697SOL     OW28220   7.839   2.114   3.013  0.4993 -0.2039  0.0931
 7697SOL    HW128221   7.843   2.119   2.918  0.5999  0.6845  0.1413
 7697SOL    HW228222   7.808   2.025   3.031 -2.0587  0.4440 -0.8478
 7698SOL     OW28223  10.990   0.013   4.226  0.4784 -0.4343  0.6200
 7698SOL    HW128224  10.944   0.000   4.143  0.1904  0.1072  0.6955
 7698SOL    HW228225  11.061   0.074   4.205  2.0763 -2.3916  0.1749
 7699SOL     OW28226   1.070   8.530   6.572  0.1604  0.1353 -0.4433
 7699SOL    HW128227   1.014   8.548   6.647 -0.3060  0.3574 -0.8403
 7699SOL    HW228228   1.155   8.507   6.610  0.7226  2.9464  0.1034
 7700SOL     OW28229   9.884   7.289  10.035  0.7350 -0.0993 -0.0516
 7700SOL    HW128230   9.828   7.225  10.080  0.0940 -0.3341 -1.1585
 7700SOL    HW228231   9.836   7.371  10.041  1.7145  0.3601  1.6614
 7701SOL     OW28232   1.223   1.315   1.179  0.1631  0.1073 -0.1655
 7701SOL    HW128233   1.159   1.260   1.135  0.7538 -0.1379 -0.7304
 7701SOL    HW228234   1.186   1.330   1.267 -0.6489 -0.0402 -0.4768
 7702SOL     OW28235   3.591   4.570   9.612 -0.2569  0.2433  0.1512
 7702SOL    HW128236   3.687   4.567   9.614 -0.2995 -0.6135  3.1871
 7702SOL    HW228237   3.567   4.522   9.533  1.8220  1.0168 -0.9832
 7703SOL     OW28238  10.038  10.237   4.823  0.4270 -0.8081  0.6157
 7703SOL    HW128239  10.001  10.155   4.857  1.1142 -1.1855  0.4612
 7703SOL    HW228240  10.001  10.245   4.735 -0.5676 -0.3430  1.0753
 7704SOL     OW28241   5.493   5.193   3.884  0.2194  0.4538  0.0246
 7704SOL    HW128242   5.419   5.153   3.837 -1.0267 -1.2781  3.2471
 7704SOL    HW228243   5.517   5.127   3.950  2.6593  2.2805  1.0264
 7705SOL     OW28244   5.369   2.722   6.959  0.5308 -0.0616  0.6835
 7705SOL    HW128245   5.312   2.694   6.888  0.2570 -0.1906  0.9528
 7705SOL    HW228246   5.311   2.765   7.022  0.8351  0.4235  0.6356
 7706SOL     OW28247   4.730   8.546   0.777  0.2149 -0.2318  0.0170
 7706SOL    HW128248   4.732   8.634   0.814 -1.3176 -0.0371 -0.3423
 7706SOL    HW228249   4.815   8.509   0.799 -0.1288  0.3834  2.4634
 7707SOL     OW28250   7.006   6.116   1.557  0.5759  0.5553  0.5715
 7707SOL    HW128251   6.966   6.184   1.502  0.1952 -2.1500 -2.6784
 7707SOL    HW228252   6.932   6.064   1.587  1.1255 -0.5064  0.1032
 7708SOL     OW28253   0.434  10.330   3.468 -0.5737 -0.0748  0.3938
 7708SOL    HW128254   0.525  10.326   3.500 -0.7813 -2.1686  0.7708
 7708SOL    HW228255   0.405  10.418   3.492  1.3473  0.6195  0.2920
 7709SOL     OW28256   1.034   0.113   9.341  0.1595 -0.7388  0.4018
 7709SOL    HW128257   0.968   0.114   9.410  0.5073 -2.0023  0.7599
 7709SOL    HW228258   1.116   0.130   9.387 -0.0009  1.8305 -0.1687
 7710SOL     OW28259   9.593   5.789   0.750 -0.5756 -0.7787  0.1149
 7710SOL    HW128260   9.681   5.792   0.714  0.0689 -1.6175  1.5641
 7710SOL    HW228261   9.540   5.840   0.689  0.6360 -1.4277 -1.5110
 7711SOL     OW28262   4.474   3.753   7.748 -0.4193 -0.0375  0.1646
 7711SOL    HW128263   4.537   3.740   7.677  0.4252  1.4999  0.6026
 7711SOL    HW228264   4.490   3.681   7.808 -1.6874 -1.8141 -1.5762
 7712SOL     OW28265  10.035   1.553  11.118  0.5350  0.1108  0.1837
 7712SOL    HW128266  10.005   1.481  11.063  0.1144 -1.1445  2.0036
 7712SOL    HW228267  10.001   1.632  11.076  0.6675 -0.7710 -1.6185
 7713SOL     OW28268   0.207  10.159   0.201  0.1712  0.4971 -0.2308
 7713SOL    HW128269   0.228  10.224   0.267 -2.3050  0.3303  0.7871
 7713SOL    HW228270   0.139  10.201   0.147 -0.7269 -0.8393 -0.1750
 7714SOL     OW28271   0.617   7.259   3.303 -0.0558  0.5028  0.0351
 7714SOL    HW128272   0.593   7.200   3.232  1.0877 -0.4300  0.4228
 7714SOL    HW228273   0.536   7.268   3.354 -0.6843  0.6201 -0.9603
 7715SOL     OW28274   7.272   7.636   0.255  0.8602  0.0955  0.1220
 7715SOL    HW128275   7.259   7.629   0.350 -0.6814  2.3000  0.1359
 7715SOL    HW228276   7.220   7.564   0.218  1.3244 -0.6625  0.9511
 7716SOL     OW28277  10.037   8.023   5.571 -0.1586  0.3719  0.5390
 7716SOL    HW128278  10.035   8.078   5.650 -1.5633  1.7897 -0.4295
 7716SOL    HW228279  10.061   7.936   5.603  0.7659  1.2479  2.3184
 7717SOL     OW28280   3.420  10.123   9.524  0.1986  0.1793  0.2129
 7717SOL    HW128281   3.394  10.178   9.450  0.0953  2.0931  1.6470
 7717SOL    HW228282   3.350  10.134   9.588 -0.3169 -2.4386  0.1342
 7718SOL     OW28283   8.691   8.449   8.754 -0.0753 -0.7618  0.0824
 7718SOL    HW128284   8.783   8.464   8.776 -0.4572  0.5499  0.8391
 7718SOL    HW228285   8.679   8.493   8.670  0.0170 -1.0269 -0.0688
 7719SOL     OW28286   9.050   3.134  10.035  0.1056  0.1258 -0.1843
 7719SOL    HW128287   9.053   3.131  10.131  0.3844  1.8302 -0.1337
 7719SOL    HW228288   9.138   3.107  10.008 -0.1802 -1.0428  0.0040
 7720SOL     OW28289   4.629   3.203   5.546 -0.0746  0.1891 -0.0528
 7720SOL    HW128290   4.607   3.139   5.478 -1.0414  2.3501 -1.8087
 7720SOL    HW228291   4.711   3.242   5.516  1.2865 -1.1711  1.7455
 7721SOL     OW28292  11.218   1.563   1.173 -0.2173  0.3532 -0.4395
 7721SOL    HW128293  11.221   1.473   1.204  0.8105 -0.3361 -2.3897
 7721SOL    HW228294  11.129   1.574   1.139 -1.1653  0.9394  2.1428
 7722SOL     OW28295  10.366   3.918   9.054  0.0770 -0.8208 -0.6425
 7722SOL    HW128296  10.370   3.849   9.120 -0.5635 -1.9322 -1.7573
 7722SOL    HW228297  10.276   3.915   9.021  0.6052 -0.8050 -2.1191
 7723SOL     OW28298   9.607  10.730   5.162 -0.1259  0.3172  0.3146
 7723SOL    HW128299   9.663  10.794   5.205  2.1104 -1.0591 -0.4409
 7723SOL    HW228300   9.577  10.773   5.082  0.8181  0.6496  0.1362
 7724SOL     OW28301   9.185   1.819   9.027 -0.1848 -0.6943 -0.0737
 7724SOL    HW128302   9.169   1.728   9.050  0.3533 -0.9702 -0.7601
 7724SOL    HW228303   9.101   1.863   9.041  0.2817 -0.6808  3.1039
 7725SOL     OW28304   2.274   9.985   6.779  0.3043  0.2273 -0.2119
 7725SOL    HW128305   2.340   9.924   6.747 -1.1959 -0.2272 -2.5331
 7725SOL    HW228306   2.207   9.930   6.818  0.9037  0.6593  1.5113
 7726SOL     OW28307   7.431   5.978   8.186 -0.2884  0.3277 -0.6229
 7726SOL    HW128308   7.338   5.956   8.181 -0.1478 -0.2056 -0.9102
 7726SOL    HW228309   7.435   6.071   8.163 -0.7890  0.4525 -0.2298
 7727SOL     OW28310   9.285  10.420   1.410  0.3573 -0.1201  0.3701
 7727SOL    HW128311   9.304  10.474   1.487 -0.1995  1.3313 -0.4925
 7727SOL    HW228312   9.360  10.434   1.353  0.0044  0.0916 -0.0418
 7728SOL     OW28313   5.300   5.929   7.764 -0.0289 -0.0539  0.1141
 7728SOL    HW128314   5.255   5.861   7.814 -0.6432  0.3899  0.1650
 7728SOL    HW228315   5.264   6.011   7.797  1.3850  0.3482  0.7197
 7729SOL     OW28316   4.530   9.289   8.320  0.6731  0.5794  0.4790
 7729SOL    HW128317   4.461   9.244   8.272  2.2743  0.3381 -1.6679
 7729SOL    HW228318   4.575   9.220   8.368 -0.2453  0.6742  1.5000
 7730SOL     OW28319  10.069   6.660   0.013  0.3030  0.0342  0.4262
 7730SOL    HW128320  10.152   6.613   0.003 -0.3322 -1.1613  0.6672
 7730SOL    HW228321  10.068   6.723  -0.058  0.8260 -0.8512 -0.3729
 7731SOL     OW28322   7.150   6.497   3.722 -0.1204  0.7013 -0.8737
 7731SOL    HW128323   7.192   6.411   3.710 -0.6018  0.4209 -0.5774
 7731SOL    HW228324   7.088   6.483   3.793  0.1869  1.4453 -0.4533
 7732SOL     OW28325   3.540   8.523   2.829 -0.0047  0.2185  0.2868
 7732SOL    HW128326   3.624   8.498   2.869 -0.9605 -0.5717  1.8411
 7732SOL    HW228327   3.537   8.473   2.747  2.3949  2.5661 -1.2927
 7733SOL     OW28328   6.681   3.385   5.383 -0.7357 -0.1667 -0.4203
 7733SOL    HW128329   6.681   3.322   5.311  0.7100  0.4168 -0.9377
 7733SOL    HW228330   6.697   3.469   5.341  1.0652  0.0573  0.6671
 7734SOL     OW28331   0.324   8.410   0.762 -0.0091  0.4024  0.1284
 7734SOL    HW128332   0.299   8.325   0.800  0.3006  0.7920  1.2308
 7734SOL    HW228333   0.419   8.410   0.765  0.0075  0.5470 -0.4233
 7735SOL     OW28334   5.865   9.086  10.188  0.5126 -0.4340  0.4312
 7735SOL    HW128335   5.956   9.088  10.157  0.7844 -2.0013  1.0394
 7735SOL    HW228336   5.821   9.025  10.129 -0.9266  2.6762 -1.7753
 7736SOL     OW28337  10.642   7.113   0.841  0.4073 -0.1339 -0.9686
 7736SOL    HW128338  10.693   7.042   0.879  1.3402  1.0149 -0.0031
 7736SOL    HW228339  10.707   7.170   0.799 -0.3606 -0.0297 -2.0321
 7737SOL     OW28340   5.032   3.600   3.730  0.2742  0.3662 -0.1073
 7737SOL    HW128341   5.105   3.573   3.675 -2.5939 -1.3825 -3.2544
 7737SOL    HW228342   5.013   3.523   3.784  1.2624  1.1203  1.3597
 7738SOL     OW28343   6.699   6.611  10.255 -0.1501 -0.3843  0.1926
 7738SOL    HW128344   6.625   6.631  10.312  0.0393 -1.7392  0.9292
 7738SOL    HW228345   6.661   6.593  10.170 -0.5699 -0.0324  0.3063
 7739SOL     OW28346   0.968   4.038   1.063 -0.3108  0.0075 -0.2561
 7739SOL    HW128347   0.968   4.027   0.968 -0.7794  2.8201 -0.6311
 7739SOL    HW228348   1.061   4.036   1.087 -0.2351 -1.6719 -0.6144
 7740SOL     OW28349   9.904   7.730   2.412 -0.0529  0.5449  0.0558
 7740SOL    HW128350   9.987   7.724   2.365 -1.6926 -1.6837 -2.7258
 7740SOL    HW228351   9.918   7.680   2.492  1.3179  0.1837 -0.3931
 7741SOL     OW28352   4.736  10.360   4.671  0.3523  0.0561 -0.5901
 7741SOL    HW128353   4.724  10.300   4.598 -0.2915  0.6706 -0.9881
 7741SOL    HW228354   4.754  10.445   4.630  2.1927 -0.0432 -0.0334
 7742SOL     OW28355   4.240   6.633   3.681 -0.1460  0.6151  0.1724
 7742SOL    HW128356   4.291   6.672   3.752  0.8489 -0.1368 -0.1142
 7742SOL    HW228357   4.252   6.692   3.607  0.4956  0.3096  0.0373
 7743SOL     OW28358   7.272   6.749   3.838  0.2198 -0.3913  0.5760
 7743SOL    HW128359   7.359   6.771   3.804  0.1897 -0.1359  0.6613
 7743SOL    HW228360   7.236   6.686   3.775  0.1133  0.1743  0.0672
 7744SOL     OW28361   4.779   3.427   9.467 -0.1655 -0.2977  0.0135
 7744SOL    HW128362   4.803   3.441   9.559 -0.0078 -2.5623  0.3454
 7744SOL    HW228363   4.733   3.507   9.442 -1.4271 -0.1976  2.4740
 7745SOL     OW28364   8.446   8.324   2.882  0.0848  0.1140 -0.3920
 7745SOL    HW128365   8.454   8.315   2.787 -0.0146  1.1204 -0.5071
 7745SOL    HW228366   8.415   8.239   2.912  2.9218 -1.1774 -0.9148
 7746SOL     OW28367   8.247  10.661   9.627  0.3613  0.3324 -0.1234
 7746SOL    HW128368   8.213  10.584   9.582 -2.3999  1.2091  0.3754
 7746SOL    HW228369   8.281  10.627   9.710 -0.9880 -0.3387  0.1665
 7747SOL     OW28370   3.836   2.946   1.676 -0.1709  0.3303  0.0135
 7747SOL    HW128371   3.909   2.984   1.724  0.6122 -2.0110  0.7545
 7747SOL    HW228372   3.849   2.851   1.683 -3.1608 -0.1403 -0.0278
 7748SOL     OW28373   3.251   5.540   6.743  0.1819 -0.1186  0.1053
 7748SOL    HW128374   3.228   5.480   6.671 -1.6151  0.4549  0.1617
 7748SOL    HW228375   3.171   5.590   6.757  0.5127 -0.2561  2.5612
 7749SOL     OW28376   9.655  10.806   0.635 -0.0151 -0.2014 -0.1220
 7749SOL    HW128377   9.714  10.871   0.673 -0.0011 -0.7460  0.8223
 7749SOL    HW228378   9.710  10.758   0.573  1.2022 -2.1464  2.3253
 7750SOL     OW28379  11.198   9.431   4.495  0.0550  0.3987 -0.5767
 7750SOL    HW128380  11.106   9.454   4.478 -1.0156 -1.8605  1.8722
 7750SOL    HW228381  11.236   9.512   4.530 -0.9569  1.3587 -1.6161
 7751SOL     OW28382   9.185   7.011   6.862 -0.1479 -0.3967  0.2833
 7751SOL    HW128383   9.134   6.982   6.786  0.3175 -0.0338 -0.1735
 7751SOL    HW228384   9.122   7.013   6.934 -0.0789 -3.0687  0.4631
 7752SOL     OW28385   5.935   3.715  10.944 -0.2526 -0.4122 -0.0016
 7752SOL    HW128386   5.914   3.714  10.851 -0.9502  0.4442  0.1355
 7752SOL    HW228387   5.993   3.641  10.957 -0.5636 -0.8376 -1.0250
 7753SOL     OW28388   3.350   3.162   2.805  0.0662  0.7071  0.4503
 7753SOL    HW128389   3.265   3.162   2.848 -0.4119  1.3022 -0.4843
 7753SOL    HW228390   3.330   3.163   2.712  1.0882  1.4106  0.2255
 7754SOL     OW28391   6.972   4.204   6.500 -0.6943 -0.6329  0.0980
 7754SOL    HW128392   6.932   4.120   6.523 -0.1633 -1.1647 -0.9020
 7754SOL    HW228393   7.046   4.213   6.560 -1.0855 -0.6145  0.5755
 7755SOL     OW28394   0.346   6.150   9.351 -0.2290  0.3430  0.0215
 7755SOL    HW128395   0.330   6.058   9.374  1.1968 -0.1828 -0.9682
 7755SOL    HW228396   0.405   6.182   9.419 -1.4818  0.8152  0.8972
 7756SOL     OW28397   1.537   7.738   2.923 -0.6509  0.1809 -0.2670
 7756SOL    HW128398   1.565   7.806   2.984  0.0801 -2.3207  2.2918
 7756SOL    HW228399   1.618   7.710   2.880 -0.7691  0.1640 -0.4764
 7757SOL     OW28400   5.817   6.073   6.750 -0.0127  0.3294 -0.0250
 7757SOL    HW128401   5.805   6.092   6.843  0.5582 -1.1695  0.3673
 7757SOL    HW228402   5.906   6.103   6.731 -0.4325  1.4326 -0.3148
 7758SOL     OW28403   5.283   4.370  11.141  0.3656 -0.4963  0.1739
 7758SOL    HW128404   5.280   4.348  11.048 -0.5453  0.7907 -0.1212
 7758SOL    HW228405   5.192   4.393  11.162  0.4043 -1.6084  1.5865
 7759SOL     OW28406   8.148  10.660   5.839  0.2432  0.6012  0.0728
 7759SOL    HW128407   8.101  10.739   5.812  0.2453  0.2299 -1.0470
 7759SOL    HW228408   8.079  10.595   5.854  0.2304  0.8760  1.1898
 7760SOL     OW28409   2.569   1.797   4.922 -0.4431 -0.5982  0.1386
 7760SOL    HW128410   2.531   1.709   4.922 -1.1646 -0.2940 -0.7361
 7760SOL    HW228411   2.654   1.787   4.879 -0.2500 -0.9768  0.6011
 7761SOL     OW28412   1.414  10.251   4.728 -0.3539  0.6169  0.3267
 7761SOL    HW128413   1.458  10.171   4.757 -0.7391  0.4706  0.5136
 7761SOL    HW228414   1.484  10.307   4.696 -0.1349 -0.0138 -0.3173
 7762SOL     OW28415   9.149   8.741   8.630  0.0578 -0.2106  0.0184
 7762SOL    HW128416   9.069   8.794   8.619  0.0100 -0.5277 -1.2004
 7762SOL    HW228417   9.208   8.772   8.562  0.4349 -1.0034 -0.0162
 7763SOL     OW28418   8.506   0.503   9.745 -0.4380 -0.2209  0.9450
 7763SOL    HW128419   8.579   0.546   9.701 -0.9149 -0.6914 -0.3501
 7763SOL    HW228420   8.430   0.525   9.692 -0.9142 -1.4538  1.0824
 7764SOL     OW28421   9.170   1.109   3.881  0.4902 -0.1607  0.0242
 7764SOL    HW128422   9.246   1.155   3.915 -1.0645  1.8768  0.8748
 7764SOL    HW228423   9.146   1.048   3.950  0.1482  0.6504  0.6316
 7765SOL     OW28424   0.021   5.350   1.512 -0.0009  0.6931  0.1992
 7765SOL    HW128425  -0.049   5.415   1.512  1.1870  1.9915 -1.2098
 7765SOL    HW228426   0.034   5.329   1.419  0.4167 -0.7228  0.5630
 7766SOL     OW28427   7.034   5.028  10.911  0.0871  0.9101 -0.8721
 7766SOL    HW128428   7.063   5.099  10.968 -0.0102 -0.2437  0.6332
 7766SOL    HW228429   7.040   5.065  10.823  0.5349  2.6109 -0.1529
 7767SOL     OW28430   0.042  10.770   0.934  0.2192 -0.1644 -0.0356
 7767SOL    HW128431   0.040  10.836   0.864  1.4650  2.9472  2.7590
 7767SOL    HW228432  -0.048  10.736   0.937  0.2016 -0.5425 -3.2426
 7768SOL     OW28433  10.675   8.904   6.012 -0.4126 -0.0858  0.4232
 7768SOL    HW128434  10.622   8.870   5.939 -1.0515  2.0153 -0.1200
 7768SOL    HW228435  10.674   8.833   6.077  0.0542 -1.9525 -1.5298
 7769SOL     OW28436   5.090   0.309   9.167  0.1658 -1.0414 -0.2413
 7769SOL    HW128437   5.066   0.339   9.079 -0.5473  2.4964  1.0657
 7769SOL    HW228438   5.015   0.257   9.196 -1.7325  1.7092  0.0102
 7770SOL     OW28439  10.729   4.230  11.164 -0.0576 -0.5738  0.2487
 7770SOL    HW128440  10.791   4.269  11.224  0.7378 -0.0884 -0.8693
 7770SOL    HW228441  10.722   4.138  11.192  0.7915 -0.5093  0.6650
 7771SOL     OW28442   2.197   9.229   3.365 -0.2037 -0.1390 -0.4714
 7771SOL    HW128443   2.170   9.145   3.402  1.0170 -0.9045 -1.2500
 7771SOL    HW228444   2.127   9.252   3.304 -1.1690  0.0507  0.7008
 7772SOL     OW28445  10.907   7.301   9.263 -0.2758  0.1792 -0.1869
 7772SOL    HW128446  10.993   7.270   9.236  0.7259  1.5637  1.3205
 7772SOL    HW228447  10.915   7.396   9.266 -1.7617  0.3105  0.3067
 7773SOL     OW28448   1.977   9.993  11.326 -0.0907  0.3167  0.3286
 7773SOL    HW128449   1.978  10.087  11.308  0.7188  0.0296 -1.2294
 7773SOL    HW228450   1.908   9.959  11.270  1.9824 -0.4925 -1.8322
 7774SOL     OW28451   5.201   8.001   9.028  0.2535 -0.1413 -0.1100
 7774SOL    HW128452   5.197   8.015   9.123  2.3921  1.1331 -0.1663
 7774SOL    HW228453   5.115   8.028   8.996  0.0591  0.9574  1.2979
 7775SOL     OW28454   2.332   6.437   0.686 -0.6605 -1.0585 -0.2338
 7775SOL    HW128455   2.295   6.355   0.652 -0.4152 -0.6147 -1.6322
 7775SOL    HW228456   2.325   6.429   0.781 -2.9989 -1.6381 -0.3997
 7776SOL     OW28457   1.253   1.626   3.179 -0.0783 -0.1328 -0.8314
 7776SOL    HW128458   1.191   1.572   3.130 -0.6868 -0.5650  0.3803
 7776SOL    HW228459   1.204   1.707   3.198 -0.9070 -1.1418  1.5784
 7777SOL     OW28460   6.022   9.230   2.462 -0.5537 -0.3864  0.3047
 7777SOL    HW128461   6.021   9.171   2.386  0.3835 -1.2970  0.9829
 7777SOL    HW228462   5.951   9.199   2.518 -2.0668  1.0804 -0.7842
 7778SOL     OW28463   2.356   5.431  10.056  0.2943 -0.4440  0.4777
 7778SOL    HW128464   2.315   5.346  10.040 -1.6911  0.4087  0.8001
 7778SOL    HW228465   2.426   5.412  10.119 -0.1473 -1.8434  0.5793
 7779SOL     OW28466   1.274   2.805   2.782  0.2854 -0.1423 -0.3894
 7779SOL    HW128467   1.283   2.716   2.748  1.0917  0.3933 -1.6016
 7779SOL    HW228468   1.362   2.829   2.810 -0.2028 -0.2427  1.2827
 7780SOL     OW28469   7.888   2.191   3.953  0.4533  0.2973 -0.6655
 7780SOL    HW128470   7.816   2.156   3.901  0.3984  1.3976 -1.3464
 7780SOL    HW228471   7.849   2.208   4.039  0.0395  0.3869 -0.8694
 7781SOL     OW28472   6.518   0.732   0.737  0.1099  0.4119  0.1065
 7781SOL    HW128473   6.475   0.741   0.822  1.5106 -0.4364  0.9294
 7781SOL    HW228474   6.505   0.640   0.714  0.7882  0.3489 -0.0208
 7782SOL     OW28475   3.543   0.509   5.078 -0.3710 -0.4888 -0.1107
 7782SOL    HW128476   3.503   0.561   5.008 -1.4973 -0.1191  0.7829
 7782SOL    HW228477   3.631   0.488   5.046 -0.7424 -0.0182 -1.4706
 7783SOL     OW28478   6.834   6.815   3.782 -0.4938 -0.1863  0.3254
 7783SOL    HW128479   6.808   6.839   3.871  1.3837 -0.6966  1.0380
 7783SOL    HW228480   6.888   6.888   3.753 -0.5835 -0.3174 -0.1720
 7784SOL     OW28481   6.126   0.478  11.240  0.0544  0.0951 -0.4811
 7784SOL    HW128482   6.061   0.480  11.170 -2.3685 -1.6661  1.6076
 7784SOL    HW228483   6.086   0.528  11.311 -0.0492 -2.7969  1.6072
 7785SOL     OW28484   1.539   7.726  11.116  0.1099  0.6578  0.2975
 7785SOL    HW128485   1.487   7.707  11.193  0.7909 -1.5167  0.2475
 7785SOL    HW228486   1.620   7.677  11.128  0.5797  0.9600 -1.3939
 7786SOL     OW28487   5.228   7.721   3.951 -0.3571  0.2452  0.2453
 7786SOL    HW128488   5.302   7.771   3.918  0.1543 -0.5744  0.1461
 7786SOL    HW228489   5.169   7.713   3.876 -0.6814  1.1452  0.4029
 7787SOL     OW28490  11.029   6.213   3.396 -0.3193 -0.1466 -0.3087
 7787SOL    HW128491  10.968   6.218   3.470 -0.7074  2.7311 -0.7468
 7787SOL    HW228492  11.030   6.121   3.371 -2.5300 -0.6517  1.3413
 7788SOL     OW28493   2.225   6.351   2.836 -0.0293 -0.0707 -0.1268
 7788SOL    HW128494   2.204   6.259   2.853 -0.8225 -0.1813 -1.5807
 7788SOL    HW228495   2.169   6.399   2.897  0.4884 -0.5399  0.7387
 7789SOL     OW28496   9.891   3.561   5.499 -0.2412 -0.2076 -0.4210
 7789SOL    HW128497   9.957   3.514   5.449  1.3088  0.5076  0.9157
 7789SOL    HW228498   9.850   3.621   5.436  2.6882  1.7488 -0.5689
 7790SOL     OW28499   4.567   5.305   2.688  0.0233 -0.3757  0.1611
 7790SOL    HW128500   4.507   5.256   2.744 -1.0543  0.1930 -0.4809
 7790SOL    HW228501   4.591   5.382   2.741 -1.3895  0.4210 -0.3303
 7791SOL     OW28502   3.486   6.108   5.375 -0.4974  0.1099  0.8347
 7791SOL    HW128503   3.510   6.126   5.284 -1.3460 -0.5147  0.4723
 7791SOL    HW228504   3.463   6.015   5.376 -2.8117  0.6430  1.1452
 7792SOL     OW28505   6.098   3.438   0.599  0.3500 -0.4775  0.3220
 7792SOL    HW128506   6.040   3.362   0.599  0.8641 -0.8892 -1.3114
 7792SOL    HW228507   6.180   3.406   0.635 -0.1952 -0.0698  1.9646
 7793SOL     OW28508   4.396   5.361  10.841  0.0089 -0.4984  0.1187
 7793SOL    HW128509   4.401   5.456  10.847  0.0630 -0.5943  1.8170
 7793SOL    HW228510   4.379   5.332  10.931  0.3524 -2.1114 -0.3202
 7794SOL     OW28511   6.882   0.342   7.776  0.0706 -0.2636 -0.1869
 7794SOL    HW128512   6.846   0.422   7.737  0.4665 -0.2240 -0.4808
 7794SOL    HW228513   6.844   0.338   7.864 -2.9564 -1.7805 -1.4940
 7795SOL     OW28514   1.639   2.776   3.451  0.0491 -0.1707 -0.5203
 7795SOL    HW128515   1.588   2.695   3.446 -0.0859 -0.0144 -2.3791
 7795SOL    HW228516   1.680   2.774   3.537 -1.2412 -1.4327  0.0845
 7796SOL     OW28517   2.632   9.810   2.787  0.3808 -0.4078  0.4834
 7796SOL    HW128518   2.683   9.729   2.792  1.4198  0.2220  0.2140
 7796SOL    HW228519   2.547   9.782   2.752  0.4585 -1.4978  1.1383
 7797SOL     OW28520   5.227   2.155   4.803 -0.3318 -0.3351 -0.1992
 7797SOL    HW128521   5.162   2.219   4.774  1.6187  1.0884 -1.5361
 7797SOL    HW228522   5.226   2.163   4.899  0.8242  2.7436 -0.3609
 7798SOL     OW28523   3.896   0.826   0.259 -0.0231 -0.1442 -0.4010
 7798SOL    HW128524   3.956   0.900   0.248  0.1576 -0.0446  1.1164
 7798SOL    HW228525   3.809   0.866   0.263  0.0326 -0.0470 -0.1033
 7799SOL     OW28526  10.676  11.034   3.618 -0.6210 -0.4561  0.0221
 7799SOL    HW128527  10.766  11.065   3.624  0.5813 -3.7043  0.2298
 7799SOL    HW228528  10.660  11.025   3.524 -1.1901  1.2880 -0.0622
 7800SOL     OW28529   3.536   6.572   2.136  0.1452  0.4522 -0.2284
 7800SOL    HW128530   3.468   6.525   2.185  0.5951  0.2476  0.2058
 7800SOL    HW228531   3.619   6.535   2.168  0.4759  1.0255 -0.4144
 7801SOL     OW28532   1.410   3.541   7.084  0.0232 -0.1880  0.2961
 7801SOL    HW128533   1.408   3.502   7.172 -2.8721 -1.8184 -0.4062
 7801SOL    HW228534   1.392   3.634   7.098 -2.2378 -0.7537  1.3206
 7802SOL     OW28535   3.305   8.284   7.778 -0.1174 -0.3447 -0.1584
 7802SOL    HW128536   3.213   8.294   7.802  0.7252 -0.5139  3.4370
 7802SOL    HW228537   3.341   8.226   7.845  2.5529 -0.5479 -1.7010
 7803SOL     OW28538   9.265   3.766   5.847 -0.5044  0.2580  0.3847
 7803SOL    HW128539   9.328   3.829   5.812  2.1392 -1.4625  1.8961
 7803SOL    HW228540   9.231   3.721   5.769  0.5851  0.7782 -0.4136
 7804SOL     OW28541   0.569   8.962   4.036  0.5619 -0.1514 -0.1791
 7804SOL    HW128542   0.538   9.032   4.094  2.1435 -0.7266  1.3924
 7804SOL    HW228543   0.649   8.929   4.078  1.2708 -1.1582 -2.2426
 7805SOL     OW28544   2.689   5.790   3.067 -0.5674 -0.1161  0.5242
 7805SOL    HW128545   2.593   5.795   3.067 -0.6732 -1.5306 -0.5175
 7805SOL    HW228546   2.711   5.776   2.974  0.8939  3.9294  0.1814
 7806SOL     OW28547   0.835   8.659   3.209 -0.4522 -0.4248 -0.4910
 7806SOL    HW128548   0.830   8.564   3.224 -0.9592 -0.4190 -0.6154
 7806SOL    HW228549   0.778   8.675   3.134  1.7950 -0.3842 -2.2206
 7807SOL     OW28550  10.231   4.228   5.553 -0.0550 -0.3601 -0.6829
 7807SOL    HW128551  10.253   4.228   5.460  0.0988  0.3878 -0.6486
 7807SOL    HW228552  10.259   4.142   5.584  3.4328  0.7625 -0.4860
 7808SOL     OW28553   3.602   9.895   7.308 -0.4303  0.5350  0.2631
 7808SOL    HW128554   3.572   9.826   7.249 -1.2047  0.4719  0.7176
 7808SOL    HW228555   3.639   9.848   7.383  1.4824  0.6048 -0.6068
 7809SOL     OW28556   4.306   0.780   2.713 -0.4818 -0.3370  0.5120
 7809SOL    HW128557   4.236   0.717   2.695 -0.0399 -0.7360  0.1455
 7809SOL    HW228558   4.286   0.855   2.657 -0.1756 -0.7895 -0.2253
 7810SOL     OW28559   4.406   5.211   4.738  0.6317  0.0361 -0.5602
 7810SOL    HW128560   4.391   5.117   4.730 -1.3732  0.2696  0.1733
 7810SOL    HW228561   4.401   5.229   4.831 -0.6830  1.1177 -0.8247
 7811SOL     OW28562   8.635  10.032   0.808 -0.6218  0.8767 -0.0249
 7811SOL    HW128563   8.666  10.032   0.717  1.3169  0.8129  0.6198
 7811SOL    HW228564   8.570  10.103   0.811 -1.7442 -0.0413 -1.7830
 7812SOL     OW28565   2.504   8.830  10.417 -0.0661  0.5019  0.6325
 7812SOL    HW128566   2.523   8.914  10.374 -0.5210 -0.5599 -1.7445
 7812SOL    HW228567   2.589   8.786  10.421 -0.0208  0.6078  0.8624
 7813SOL     OW28568   1.184   6.218   1.552  0.4175  0.5353 -0.0900
 7813SOL    HW128569   1.188   6.170   1.469 -0.1537 -0.2329  0.3309
 7813SOL    HW228570   1.270   6.205   1.591  0.5794  0.6309 -0.4129
 7814SOL     OW28571   2.510   5.931   6.141 -0.3626 -0.6283  0.4097
 7814SOL    HW128572   2.458   5.977   6.076  0.4552  0.3804  0.4526
 7814SOL    HW228573   2.491   5.976   6.224  1.4825  0.5329  0.2225
 7815SOL     OW28574   9.629   2.943   9.945 -0.0713 -0.5402 -0.5490
 7815SOL    HW128575   9.710   2.913   9.905  0.2895  1.0518 -1.0524
 7815SOL    HW228576   9.573   2.966   9.871 -0.9182 -1.4392 -0.1985
 7816SOL     OW28577   8.412   7.758   1.362 -0.5166 -0.2690  0.1544
 7816SOL    HW128578   8.339   7.705   1.330  0.1877 -1.7939  1.0427
 7816SOL    HW228579   8.448   7.799   1.284 -1.3322 -0.7518 -0.4789
 7817SOL     OW28580   1.034   9.303   4.327  0.0146 -0.2817  0.4206
 7817SOL    HW128581   1.043   9.241   4.254 -0.0939 -0.3456  0.4620
 7817SOL    HW228582   0.953   9.351   4.308  0.4685  0.3346  0.0185
 7818SOL     OW28583   6.660   6.056   0.811  0.0305 -0.6470 -0.1312
 7818SOL    HW128584   6.619   6.001   0.743 -1.6298 -0.0967  0.3889
 7818SOL    HW228585   6.627   6.144   0.792  0.2190 -0.3609  0.8923
 7819SOL     OW28586   4.751   8.163   4.588 -0.0662 -0.1212 -0.1547
 7819SOL    HW128587   4.686   8.180   4.520  0.8678 -0.7481 -1.2136
 7819SOL    HW228588   4.729   8.076   4.622  0.6374 -0.6316 -0.9967
 7820SOL     OW28589   8.680   1.676   3.640 -0.4948  0.4450 -0.2736
 7820SOL    HW128590   8.692   1.629   3.722 -0.2191 -0.0338 -0.5905
 7820SOL    HW228591   8.630   1.616   3.585 -2.0705  1.3807  0.0978
 7821SOL     OW28592   3.586   8.857   4.376 -0.2163 -0.0318  0.3077
 7821SOL    HW128593   3.634   8.780   4.346  2.1087  0.9008  1.5222
 7821SOL    HW228594   3.560   8.836   4.466 -1.2479 -0.1317 -0.0048
 7822SOL     OW28595   5.899  10.313   0.017  0.1676  0.7084  0.1330
 7822SOL    HW128596   5.949  10.395   0.008  0.7763  0.2755 -0.4992
 7822SOL    HW228597   5.809  10.342   0.034  0.0485  1.5405 -1.7377
 7823SOL     OW28598   0.493   3.361   5.674  0.0125 -0.4770 -0.1846
 7823SOL    HW128599   0.494   3.343   5.768 -0.7473 -0.8786 -0.2446
 7823SOL    HW228600   0.477   3.455   5.668  1.9506 -0.1125  0.1091
 7824SOL     OW28601   2.754   1.615   2.630 -0.4308 -0.3435 -0.0605
 7824SOL    HW128602   2.673   1.597   2.679 -1.3226  0.8252 -1.0714
 7824SOL    HW228603   2.796   1.684   2.680 -0.5395 -0.2775 -0.0594
 7825SOL     OW28604   4.151   7.407   8.953 -0.0923 -1.1283  0.5362
 7825SOL    HW128605   4.109   7.409   9.040  0.3055 -0.9570  0.7257
 7825SOL    HW228606   4.144   7.497   8.921  0.0632 -1.1166  0.5353
 7826SOL     OW28607  10.092   2.929   2.980 -0.0979  0.0143 -0.1993
 7826SOL    HW128608  10.089   2.992   3.052  0.9632 -0.9891  0.7457
 7826SOL    HW228609  10.171   2.952   2.930  0.0482 -0.2787 -0.1085
 7827SOL     OW28610   0.028   7.400   4.756 -0.5798 -0.9952 -0.0303
 7827SOL    HW128611   0.027   7.495   4.760  0.2151 -0.8866 -2.0479
 7827SOL    HW228612   0.077   7.374   4.835  0.1391  0.3014 -0.0318
 7828SOL     OW28613   1.518   8.700  10.477  0.8644 -0.0736  0.3291
 7828SOL    HW128614   1.534   8.761  10.549  1.1993 -1.0826  1.1197
 7828SOL    HW228615   1.604   8.687  10.437  0.6441  0.6457 -0.3890
 7829SOL     OW28616   5.871   8.837   5.059  0.3321  0.2626 -0.0259
 7829SOL    HW128617   5.918   8.794   5.131 -0.9838  0.5758  1.0532
 7829SOL    HW228618   5.871   8.930   5.084 -0.1661  0.3671 -0.4111
 7830SOL     OW28619   7.263   6.450   9.501 -0.5166 -0.2569  0.7654
 7830SOL    HW128620   7.336   6.432   9.560  0.2464 -0.1537 -0.1416
 7830SOL    HW228621   7.259   6.545   9.497 -2.0039 -0.2276  2.4079
 7831SOL     OW28622  11.069   2.743  10.321 -0.4933  0.0089 -0.6914
 7831SOL    HW128623  11.008   2.749  10.395 -0.8102 -0.2498 -0.9309
 7831SOL    HW228624  11.062   2.828  10.278  0.4654  0.5428  0.1747
 7832SOL     OW28625  10.843  10.005   6.910  0.0977  0.5242  0.2928
 7832SOL    HW128626  10.922  10.027   6.861  0.0163  0.4665  0.1355
 7832SOL    HW228627  10.812   9.924   6.869 -1.4903  1.9194 -1.3322
 7833SOL     OW28628   9.433   6.864   3.133 -0.4459  0.0896 -0.1799
 7833SOL    HW128629   9.434   6.811   3.053 -0.8278  0.3141 -0.3360
 7833SOL    HW228630   9.450   6.802   3.204 -2.4722 -0.5138 -0.2047
 7834SOL     OW28631   3.799   5.605   6.095 -0.1735 -0.5400  0.2238
 7834SOL    HW128632   3.859   5.569   6.029 -0.4129  2.3070 -1.6714
 7834SOL    HW228633   3.726   5.544   6.096  0.4286 -1.3314 -1.2360
 7835SOL     OW28634   2.160   2.045  10.716 -0.0154 -1.2074  0.0245
 7835SOL    HW128635   2.145   2.033  10.622 -1.7892 -1.1164  0.2849
 7835SOL    HW228636   2.195   1.960  10.745  1.8384 -0.8141 -0.9423
 7836SOL     OW28637   9.461   8.222   5.869 -0.1205  0.3437  0.4188
 7836SOL    HW128638   9.443   8.314   5.849  0.0375 -0.0148 -1.5548
 7836SOL    HW228639   9.433   8.211   5.960 -0.5447  2.2320  0.5445
 7837SOL     OW28640   6.928  10.615   7.917  0.1196 -0.7370  0.4535
 7837SOL    HW128641   7.001  10.554   7.918  0.4305 -0.3825  2.3594
 7837SOL    HW228642   6.934  10.661   8.001 -1.9871 -0.3409  0.4284
 7838SOL     OW28643   6.311   7.697   6.588 -0.0569  0.2515  0.0969
 7838SOL    HW128644   6.298   7.603   6.600 -0.6320  0.4290  0.9259
 7838SOL    HW228645   6.373   7.704   6.516 -1.7077 -0.7255 -1.4650
 7839SOL     OW28646  10.545   1.167   8.978 -0.1596  0.0498  0.3208
 7839SOL    HW128647  10.485   1.095   8.997 -0.6861  1.2633  3.5463
 7839SOL    HW228648  10.502   1.217   8.908 -0.3930 -2.0140 -1.0313
 7840SOL     OW28649   0.228  10.518   0.592 -0.3639 -0.0338  0.0622
 7840SOL    HW128650   0.186  10.510   0.677  0.8118 -1.4895  0.5216
 7840SOL    HW228651   0.300  10.579   0.605 -0.9123  0.6728 -0.1817
 7841SOL     OW28652   9.478   2.085   0.701  0.2689 -0.1740  0.1035
 7841SOL    HW128653   9.432   2.009   0.668  1.8653 -0.2507 -2.0431
 7841SOL    HW228654   9.410   2.151   0.716 -0.6134 -0.5282 -2.2630
 7842SOL     OW28655   5.909   5.563   0.369 -0.3088  0.4320 -0.2826
 7842SOL    HW128656   5.876   5.649   0.394 -0.0574  0.4361  0.0360
 7842SOL    HW228657   5.856   5.538   0.294 -1.7355  0.0099  0.8353
 7843SOL     OW28658   4.806   1.267   2.925 -0.3872 -0.5764 -0.8732
 7843SOL    HW128659   4.732   1.312   2.883 -1.0769 -0.6536  0.2466
 7843SOL    HW228660   4.866   1.338   2.950 -0.4211 -0.4580 -1.1219
 7844SOL     OW28661   5.520   9.821   3.270 -0.4782 -0.1449  0.2013
 7844SOL    HW128662   5.454   9.890   3.279 -1.6732 -1.2671  0.0431
 7844SOL    HW228663   5.542   9.821   3.176  1.4745  1.7995  0.6173
 7845SOL     OW28664   6.948   2.289   5.893 -0.0522  0.9621  0.0541
 7845SOL    HW128665   6.906   2.204   5.905  0.1520  0.6009 -1.6867
 7845SOL    HW228666   6.901   2.347   5.953 -2.4035  0.3633 -1.1596
 7846SOL     OW28667   0.276   0.496   8.569 -0.3978  0.0547 -0.7536
 7846SOL    HW128668   0.332   0.566   8.603 -0.7690 -0.6168  1.3589
 7846SOL    HW228669   0.189   0.516   8.602 -0.4446 -1.5560  0.1836
 7847SOL     OW28670   9.403   4.118   3.540 -0.4401  0.3228  0.1680
 7847SOL    HW128671   9.384   4.024   3.534 -0.0508  0.2513  0.0229
 7847SOL    HW228672   9.393   4.138   3.633 -2.4182  0.5558 -0.0797
 7848SOL     OW28673   2.784   2.381   3.153 -0.1472 -0.8851  0.3812
 7848SOL    HW128674   2.760   2.306   3.097 -2.4519 -0.1161  0.2932
 7848SOL    HW228675   2.701   2.425   3.170  1.1985  1.7100  0.3777
 7849SOL     OW28676   6.818   0.376   7.332  0.0004  0.0449  0.2166
 7849SOL    HW128677   6.838   0.282   7.330 -0.7236 -0.1151  0.0702
 7849SOL    HW228678   6.873   0.414   7.264 -0.4644 -0.4308 -0.4374
 7850SOL     OW28679   0.304   7.279   9.153  0.0414 -0.2049 -0.2862
 7850SOL    HW128680   0.217   7.313   9.130  0.6068  1.1612 -0.4407
 7850SOL    HW228681   0.349   7.354   9.192  1.3539 -0.7571 -0.7370
 7851SOL     OW28682   9.240   4.630   4.802 -0.1937 -0.1854 -0.2322
 7851SOL    HW128683   9.186   4.703   4.773 -0.1175 -0.7432 -1.8382
 7851SOL    HW228684   9.177   4.562   4.827 -0.2600  0.3300  1.0356
 7852SOL     OW28685   4.875   0.806  11.062  0.5859  0.5360  0.4989
 7852SOL    HW128686   4.807   0.798  11.128  0.6327  0.6234  0.5567
 7852SOL    HW228687   4.833   0.853  10.990  0.8075  1.2679  0.8426
 7853SOL     OW28688   0.969   8.510   5.247 -0.0439  0.4903  0.6648
 7853SOL    HW128689   0.903   8.510   5.177  1.2208  0.3132 -0.5520
 7853SOL    HW228690   0.980   8.418   5.270 -0.4368  0.5450  1.0804
 7854SOL     OW28691   2.311   5.023   1.634  0.0845 -0.0663  0.5182
 7854SOL    HW128692   2.394   5.007   1.590  0.2698 -0.8212  1.1269
 7854SOL    HW228693   2.244   4.993   1.572  0.1192  2.8381 -1.0080
 7855SOL     OW28694   2.533   4.158   3.681  0.7947 -1.0819 -0.4236
 7855SOL    HW128695   2.603   4.222   3.689  1.3030 -1.6621 -0.2499
 7855SOL    HW228696   2.560   4.084   3.736  1.3155 -2.4363 -2.4589
 7856SOL     OW28697   4.082   3.524   3.469  0.1074 -0.1124  0.3293
 7856SOL    HW128698   4.034   3.482   3.540  1.2227 -0.1675  1.0791
 7856SOL    HW228699   4.015   3.564   3.414 -0.8928 -1.7467  0.3277
 7857SOL     OW28700   0.255  10.392   6.979  0.5026  0.2925 -0.6580
 7857SOL    HW128701   0.343  10.397   6.944  0.9640  0.6453  0.5345
 7857SOL    HW228702   0.198  10.398   6.903  1.4239  3.0596 -1.1810
 7858SOL     OW28703   1.931   9.729   4.065 -0.3668  0.4866  0.4832
 7858SOL    HW128704   1.928   9.731   4.161 -0.7594 -1.0458  0.5269
 7858SOL    HW228705   2.006   9.673   4.045  1.0609  2.5845 -0.1460
 7859SOL     OW28706   2.342   5.074   3.092  0.0847 -0.0208  0.4620
 7859SOL    HW128707   2.383   5.157   3.115  0.0683  0.5308 -1.3916
 7859SOL    HW228708   2.259   5.074   3.139  0.2134  0.8850  0.6952
 7860SOL     OW28709   3.821   2.866   0.322  0.0599 -0.5302  0.2529
 7860SOL    HW128710   3.803   2.958   0.343  0.6431 -0.4617  0.4811
 7860SOL    HW228711   3.766   2.816   0.382 -0.4421 -0.3312 -0.0379
 7861SOL     OW28712   5.064   5.005   8.892 -0.0635  0.3262 -0.5328
 7861SOL    HW128713   4.996   4.950   8.929  0.9118 -0.1692  0.5762
 7861SOL    HW228714   5.095   4.959   8.814 -0.3921  0.1245 -0.5398
 7862SOL     OW28715   1.392   6.558  11.234  0.0229 -0.1261  0.0908
 7862SOL    HW128716   1.402   6.463  11.226  1.1090 -0.0407  0.2757
 7862SOL    HW228717   1.465   6.594  11.183 -1.2212  0.6324 -1.1690
 7863SOL     OW28718   2.791   6.279   6.594 -0.7469  0.3009 -0.6346
 7863SOL    HW128719   2.829   6.287   6.682 -3.4082  0.1245  0.5863
 7863SOL    HW228720   2.854   6.226   6.546 -0.0134 -1.0530  1.6990
 7864SOL     OW28721   8.701   2.777   6.097 -0.1927 -0.3266 -0.4733
 7864SOL    HW128722   8.711   2.862   6.140  2.1412  0.0995 -1.7699
 7864SOL    HW228723   8.719   2.713   6.165 -1.1685  0.2307  0.3179
 7865SOL     OW28724   3.775   7.772   3.551  0.1565 -0.8790  0.6456
 7865SOL    HW128725   3.755   7.689   3.507 -0.5425 -2.1117  3.2149
 7865SOL    HW228726   3.852   7.805   3.504 -1.3944 -1.4113 -2.4155
 7866SOL     OW28727   6.392  11.127   3.839 -0.2875  0.4250  0.0783
 7866SOL    HW128728   6.352  11.200   3.791 -0.5286 -0.0173 -0.3865
 7866SOL    HW228729   6.378  11.051   3.784  0.8789  0.2003  0.0865
 7867SOL     OW28730   6.281   0.423  10.482 -0.2626  0.7871  0.0460
 7867SOL    HW128731   6.245   0.424  10.570 -1.3240 -0.3357 -0.3675
 7867SOL    HW228732   6.373   0.400  10.493 -1.0050 -2.0307  0.6565
 7868SOL     OW28733   3.536  11.205   8.243  0.1152  0.0602 -0.9164
 7868SOL    HW128734   3.559  11.255   8.321 -0.0683  0.4985 -1.1443
 7868SOL    HW228735   3.532  11.114   8.274 -0.7915  0.3274 -0.2354
 7869SOL     OW28736   7.016   4.522   5.332 -0.0374 -0.0765 -0.0175
 7869SOL    HW128737   6.942   4.533   5.392 -0.2874  0.7182 -0.4663
 7869SOL    HW228738   7.093   4.537   5.387 -0.2427  0.1004  0.2266
 7870SOL     OW28739   0.387   6.402   4.145 -0.4335 -0.0246 -0.0773
 7870SOL    HW128740   0.328   6.330   4.121 -1.4914  0.8170 -0.0428
 7870SOL    HW228741   0.456   6.360   4.195 -1.5468 -0.8979  0.7624
 7871SOL     OW28742   7.379   5.690   0.747 -0.3985  0.3855  0.5170
 7871SOL    HW128743   7.464   5.653   0.722 -0.3976  0.9674 -0.3562
 7871SOL    HW228744   7.362   5.758   0.682 -1.7903 -0.0933  0.3520
 7872SOL     OW28745   0.210   8.041   6.628  0.1097  0.0553  0.2550
 7872SOL    HW128746   0.240   8.109   6.689  1.2416 -0.2763  0.0664
 7872SOL    HW228747   0.255   8.061   6.546 -1.0109  0.1865 -0.3399
 7873SOL     OW28748   3.579   0.100   1.944  0.3487  0.3257 -0.2669
 7873SOL    HW128749   3.546   0.011   1.942 -0.2386  0.5541 -1.2248
 7873SOL    HW228750   3.502   0.156   1.935  0.6663  0.9453  0.7421
 7874SOL     OW28751   4.050   5.291   9.979 -0.1972  0.0972 -0.2931
 7874SOL    HW128752   4.101   5.367  10.007 -0.8089  0.5184 -0.2914
 7874SOL    HW228753   4.103   5.215  10.001  0.4579  0.5363 -0.3686
 7875SOL     OW28754   0.272   1.211   9.359 -0.4783  0.0946 -0.1408
 7875SOL    HW128755   0.207   1.239   9.295  1.3483 -0.1589 -2.1693
 7875SOL    HW228756   0.230   1.141   9.408 -1.1250 -1.2656 -2.6022
 7876SOL     OW28757   3.678   4.652   0.087  0.2901  0.0218  0.7009
 7876SOL    HW128758   3.753   4.710   0.099  0.6161 -0.8713  3.2585
 7876SOL    HW228759   3.619   4.673   0.160  0.2586 -2.5816  1.4717
 7877SOL     OW28760   1.438   0.312   3.433  0.1520  0.4136  1.0347
 7877SOL    HW128761   1.459   0.226   3.468  1.0411  1.0877  2.1697
 7877SOL    HW228762   1.503   0.326   3.364 -0.4977 -0.1555  0.2926
 7878SOL     OW28763   6.592   3.114   2.619  0.1018 -0.6966 -0.1729
 7878SOL    HW128764   6.684   3.137   2.633 -0.2722  0.3242  0.6671
 7878SOL    HW228765   6.593   3.057   2.542  1.1040  1.7990 -2.0424
 7879SOL     OW28766   7.161  11.090   7.081 -0.3863 -0.8615  0.0172
 7879SOL    HW128767   7.232  11.139   7.040 -0.8006 -1.1963 -1.1037
 7879SOL    HW228768   7.112  11.156   7.130  1.7443 -0.9124  2.3132
 7880SOL     OW28769   5.662   7.680   1.430  0.5278 -0.5557 -0.9966
 7880SOL    HW128770   5.578   7.651   1.396  0.7001  0.5548 -2.4144
 7880SOL    HW228771   5.699   7.735   1.360  1.8571 -0.0033  0.1107
 7881SOL     OW28772   6.705   8.937   4.839  0.1076 -0.3282 -0.1270
 7881SOL    HW128773   6.738   8.990   4.767 -0.8550  1.0386  0.4309
 7881SOL    HW228774   6.752   8.853   4.830  0.0707 -0.1439 -2.2620
 7882SOL     OW28775   7.282   1.953   3.139 -0.0880  0.0287  0.0389
 7882SOL    HW128776   7.230   1.924   3.064  1.6286  1.1284 -1.6410
 7882SOL    HW228777   7.349   1.885   3.149  0.7798  0.7729 -0.5998
 7883SOL     OW28778   6.391   7.165  11.020  0.1410 -0.0903  0.5150
 7883SOL    HW128779   6.328   7.160  11.093 -1.0902 -1.1108 -0.6026
 7883SOL    HW228780   6.466   7.213  11.057 -2.5085  3.9664  1.0246
 7884SOL     OW28781   4.924   0.077   3.318  0.1154 -0.1724  0.0298
 7884SOL    HW128782   4.958   0.165   3.335  0.1325  0.0163 -0.9578
 7884SOL    HW228783   4.874   0.086   3.237  0.9339 -1.2820 -0.6131
 7885SOL     OW28784   8.706   9.830   1.246  0.1560 -0.5351 -0.1145
 7885SOL    HW128785   8.799   9.824   1.268  0.4226  0.8180 -0.8506
 7885SOL    HW228786   8.672   9.742   1.261  1.3467 -0.8018  1.0960
 7886SOL     OW28787   1.218   8.312   4.072  0.4193 -0.2411  0.0691
 7886SOL    HW128788   1.136   8.265   4.056  0.0366  0.0392  1.1389
 7886SOL    HW228789   1.260   8.316   3.987 -0.0046 -1.6497 -0.2288
 7887SOL     OW28790   3.021   8.840   0.539  0.4464  0.1414 -0.7155
 7887SOL    HW128791   3.010   8.826   0.633  2.2287  1.0254 -0.3485
 7887SOL    HW228792   2.938   8.814   0.501  0.5616 -2.6496  0.8484
 7888SOL     OW28793  11.269   3.031  10.276  0.4066  0.1777  0.2018
 7888SOL    HW128794  11.254   3.121  10.307  0.5453  0.0882  0.5305
 7888SOL    HW228795  11.181   2.994  10.267  0.4318 -0.5067  2.5978
 7889SOL     OW28796   0.196   3.369   3.533 -0.0621 -0.1276 -0.0505
 7889SOL    HW128797   0.238   3.332   3.611 -1.3098  2.5251  1.9803
 7889SOL    HW228798   0.238   3.325   3.460  3.3608 -0.5208  2.0245
 7890SOL     OW28799   4.800   9.367   2.302  0.0843  0.5127  0.6999
 7890SOL    HW128800   4.835   9.445   2.346  1.1632  0.1438  0.5207
 7890SOL    HW228801   4.871   9.339   2.244 -0.3608 -0.5176  0.6490
 7891SOL     OW28802   9.282   3.553   1.114 -0.1173 -0.3132  0.3461
 7891SOL    HW128803   9.213   3.577   1.052 -0.6785  0.2527  1.1733
 7891SOL    HW228804   9.278   3.457   1.118  0.7441 -0.4442 -1.4021
 7892SOL     OW28805   7.859   7.165  10.589 -0.0354  0.8677  0.4187
 7892SOL    HW128806   7.917   7.241  10.598 -0.1665  0.8143  1.8757
 7892SOL    HW228807   7.793   7.177  10.657 -0.9646  0.2272 -0.3458
 7893SOL     OW28808  10.553   1.669   2.243 -0.5615  0.6277  0.2074
 7893SOL    HW128809  10.616   1.735   2.274  1.4030 -0.4130 -1.4440
 7893SOL    HW228810  10.482   1.720   2.205  0.4677  1.8115 -0.1739
 7894SOL     OW28811   2.841   2.350   7.956  0.5957 -0.8559  0.0963
 7894SOL    HW128812   2.867   2.260   7.979  0.1295 -0.9060  0.4449
 7894SOL    HW228813   2.803   2.341   7.869  2.2204 -0.6912 -0.6479
 7895SOL     OW28814   4.292   1.960   8.482 -0.1337 -0.1442 -0.2998
 7895SOL    HW128815   4.225   2.012   8.526 -0.7344 -0.8856 -0.3201
 7895SOL    HW228816   4.248   1.925   8.404  0.4331 -0.2061 -0.5973
 7896SOL     OW28817   6.485   7.882   9.087  0.5836 -0.2567  0.2341
 7896SOL    HW128818   6.560   7.921   9.043  1.1867 -1.1676  0.4272
 7896SOL    HW228819   6.427   7.854   9.016 -0.7626  2.6472  0.1077
 7897SOL     OW28820   4.000   3.913   9.926  0.1183  0.3589  0.0422
 7897SOL    HW128821   4.090   3.915   9.956  0.1034  0.2446  0.0944
 7897SOL    HW228822   3.998   3.973   9.851 -0.2072  1.9103  1.2752
 7898SOL     OW28823   8.894   7.113   6.853  0.7406 -0.0973  0.2756
 7898SOL    HW128824   8.826   7.045   6.843  2.4061 -1.7759  0.0850
 7898SOL    HW228825   8.968   7.079   6.803  2.6699  0.4175  2.7352
 7899SOL     OW28826   1.526   4.619   5.879 -0.2783 -0.0849 -0.4178
 7899SOL    HW128827   1.522   4.546   5.941 -0.5963 -0.4747 -0.8901
 7899SOL    HW228828   1.619   4.640   5.873 -0.1924 -0.4068 -0.2281
 7900SOL     OW28829   6.240   0.253   8.279 -0.0901  0.0832  0.1324
 7900SOL    HW128830   6.254   0.331   8.226 -0.2235  0.9025  1.3094
 7900SOL    HW228831   6.155   0.220   8.250 -0.3506  0.7583  0.1369
 7901SOL     OW28832   0.913   9.848   3.667  0.6280 -0.8123 -0.0280
 7901SOL    HW128833   0.916   9.931   3.714 -0.0631 -1.2920  0.8893
 7901SOL    HW228834   0.948   9.868   3.580  1.3192  0.2314  0.4791
 7902SOL     OW28835   4.948  10.149   2.877  0.6222 -0.3909 -0.5052
 7902SOL    HW128836   4.961  10.082   2.945  0.9004 -0.7053 -0.8627
 7902SOL    HW228837   4.894  10.216   2.919 -1.1061 -1.6476 -0.6584
 7903SOL     OW28838   1.676   9.790   0.257  0.0653 -0.7221  0.6936
 7903SOL    HW128839   1.686   9.815   0.349 -0.4359 -0.9113  0.8047
 7903SOL    HW228840   1.594   9.740   0.255  0.7465 -1.8221  0.3675
 7904SOL     OW28841   5.240   4.160   5.164  0.0102  0.2190 -0.3351
 7904SOL    HW128842   5.209   4.176   5.075 -0.9557 -1.4058 -0.3072
 7904SOL    HW228843   5.257   4.065   5.167 -1.1652  0.0437  1.5738
 7905SOL     OW28844   8.819   2.203   4.602 -0.2723 -0.7257  0.3859
 7905SOL    HW128845   8.815   2.280   4.545 -0.3071 -0.4881  0.7056
 7905SOL    HW228846   8.728   2.188   4.629 -0.1713 -0.4256  0.9144
 7906SOL     OW28847   0.197   0.645   7.645  0.0671 -0.0807  0.2020
 7906SOL    HW128848   0.124   0.583   7.650  1.8645 -2.3558 -0.9545
 7906SOL    HW228849   0.250   0.627   7.723  2.2401 -2.1987 -1.6941
 7907SOL     OW28850  11.010   5.439  10.964  0.4129  0.5558  0.4605
 7907SOL    HW128851  10.956   5.368  10.998  0.0818  0.6837  0.1932
 7907SOL    HW228852  11.073   5.395  10.906  1.4130  0.2559  1.7525
 7908SOL     OW28853   3.131   6.432   5.999 -0.1707  0.4757  0.4207
 7908SOL    HW128854   3.175   6.428   5.914  0.6164 -0.3932  0.8653
 7908SOL    HW228855   3.077   6.511   5.994  0.3893  0.8016 -0.6296
 7909SOL     OW28856   9.759   4.010   0.153 -0.6389 -0.6468 -0.3252
 7909SOL    HW128857   9.697   3.947   0.191 -0.8663 -0.4730 -0.4062
 7909SOL    HW228858   9.844   3.985   0.189 -0.9679  0.0305  0.9614
 7910SOL     OW28859   4.248   1.168   8.863 -0.4462  0.4767  0.5153
 7910SOL    HW128860   4.210   1.168   8.775  1.5928  0.8375 -0.3978
 7910SOL    HW228861   4.183   1.125   8.918 -1.2451 -0.8180 -1.4117
 7911SOL     OW28862   4.572   5.797   0.335 -0.3826  0.1862 -0.2010
 7911SOL    HW128863   4.537   5.798   0.424  0.4213 -0.3060  0.1214
 7911SOL    HW228864   4.635   5.869   0.334  1.9283 -1.7928  0.5724
 7912SOL     OW28865   3.865   8.681   3.069  0.2600  0.8587 -0.3698
 7912SOL    HW128866   3.867   8.775   3.088  0.4586  0.8542 -0.3609
 7912SOL    HW228867   3.852   8.640   3.154  0.4493  0.8676 -0.3351
 7913SOL     OW28868   0.193  10.663   8.045 -0.1497  0.3258  0.2393
 7913SOL    HW128869   0.271  10.713   8.024 -0.9204  2.2413  1.7284
 7913SOL    HW228870   0.207  10.631   8.134 -1.7427  2.1414  1.1807
 7914SOL     OW28871   1.857   4.598   7.065 -0.1418  0.1542  0.2264
 7914SOL    HW128872   1.886   4.646   7.143  0.7408  0.3859 -0.2358
 7914SOL    HW228873   1.810   4.662   7.013 -2.7763 -0.5518  1.6210
 7915SOL     OW28874   3.192  11.189   0.601  0.5069  0.0698 -0.3559
 7915SOL    HW128875   3.156  11.264   0.555 -2.1651  0.5157  2.2651
 7915SOL    HW228876   3.248  11.227   0.669 -0.8345 -0.2265  0.9622
 7916SOL     OW28877   1.644   8.463  10.161  0.1717  0.3058  0.1793
 7916SOL    HW128878   1.592   8.506  10.093  0.6003 -0.4873 -0.6687
 7916SOL    HW228879   1.705   8.407  10.112  1.8732  1.2801  1.1585
 7917SOL     OW28880   0.782   6.495   2.680  0.0186  0.5175 -0.2257
 7917SOL    HW128881   0.779   6.436   2.605 -0.9633  0.2171  0.0503
 7917SOL    HW228882   0.837   6.449   2.744 -0.9451 -0.2080  0.0840
 7918SOL     OW28883  10.693  10.113   5.045  0.2610  0.0378 -0.3087
 7918SOL    HW128884  10.772  10.077   5.005  1.9698  2.5237  0.6575
 7918SOL    HW228885  10.705  10.097   5.139 -1.6265 -1.8536 -0.3684
 7919SOL     OW28886   7.416   1.681   7.023 -0.9208 -0.4738 -0.0544
 7919SOL    HW128887   7.452   1.635   6.947 -0.6910 -1.3904  0.6071
 7919SOL    HW228888   7.381   1.612   7.079 -1.4407  0.2279  0.4968
 7920SOL     OW28889   7.203   1.232   0.989 -0.3331 -0.4860  0.0813
 7920SOL    HW128890   7.131   1.271   1.037 -0.4023 -0.2299 -0.2256
 7920SOL    HW228891   7.194   1.266   0.900 -0.4818 -1.3217 -0.2305
 7921SOL     OW28892   2.615   8.227   7.743 -0.0490  0.3382 -0.0433
 7921SOL    HW128893   2.601   8.321   7.753 -1.1556  0.0218  1.6152
 7921SOL    HW228894   2.688   8.207   7.802  1.0122  0.3462 -1.3267
 7922SOL     OW28895   2.080   8.395   3.113  0.2821 -0.6158 -0.0708
 7922SOL    HW128896   2.028   8.316   3.126  0.6834 -0.9187 -0.2987
 7922SOL    HW228897   2.018   8.467   3.128 -0.3604 -0.9730 -0.9256
 7923SOL     OW28898   7.510   5.314   6.813 -0.5447 -0.1181  0.0936
 7923SOL    HW128899   7.420   5.312   6.779 -0.8430 -1.1268  0.9129
 7923SOL    HW228900   7.545   5.227   6.793  0.0908  0.1069  0.2126
 7924SOL     OW28901  11.044   3.784   0.934  0.0912  0.1225  0.6154
 7924SOL    HW128902  11.110   3.732   0.888 -1.1059  0.6997 -1.8273
 7924SOL    HW228903  10.999   3.720   0.990  0.8966 -0.7955  0.2407
 7925SOL     OW28904   7.244   1.214   4.515 -0.1879  0.2737 -0.2508
 7925SOL    HW128905   7.328   1.242   4.551 -0.3441  1.1970 -0.5860
 7925SOL    HW228906   7.257   1.215   4.420 -1.0632  2.0422 -0.3753
 7926SOL     OW28907   9.804   5.706   9.139 -0.0651 -0.1987  0.2710
 7926SOL    HW128908   9.708   5.711   9.146 -0.1582 -2.6521  1.4223
 7926SOL    HW228909   9.820   5.650   9.063  0.3769 -1.6436  1.3973
 7927SOL     OW28910   9.107  10.660   8.255 -0.0490 -0.5073  0.9996
 7927SOL    HW128911   9.046  10.594   8.287  0.5418 -0.6193  1.9294
 7927SOL    HW228912   9.184  10.610   8.228  0.8677 -0.1368  2.8114
 7928SOL     OW28913   6.648  10.713   4.432  0.6379 -0.8288 -0.0113
 7928SOL    HW128914   6.692  10.797   4.421  0.8261 -0.9529 -0.2314
 7928SOL    HW228915   6.586  10.708   4.359 -1.2645  0.2776  1.4859
 7929SOL     OW28916   6.052   6.346   9.680 -0.5158  0.1177 -0.5041
 7929SOL    HW128917   5.972   6.300   9.654  1.0399 -1.9545 -1.7070
 7929SOL    HW228918   6.032   6.438   9.663 -2.7065 -0.3484 -0.6207
 7930SOL     OW28919   1.246   9.753   6.649  0.0717 -0.1765 -0.0095
 7930SOL    HW128920   1.287   9.691   6.589  0.5744 -0.2810  0.4433
 7930SOL    HW228921   1.214   9.699   6.721 -1.3028 -0.1639 -0.5790
 7931SOL     OW28922   3.228   2.493   9.240  0.0464 -0.8238  0.6097
 7931SOL    HW128923   3.253   2.556   9.173 -1.1274  0.3807  1.2810
 7931SOL    HW228924   3.154   2.534   9.286 -0.7107 -2.6667  1.0912
 7932SOL     OW28925  10.766   5.785   3.154  0.6324 -0.7390  0.2640
 7932SOL    HW128926  10.764   5.781   3.059 -1.0438 -0.4456  0.2775
 7932SOL    HW228927  10.699   5.850   3.177  2.5375  0.8449  1.5523
 7933SOL     OW28928   7.877  10.922   2.949 -0.1398 -0.0955  0.7096
 7933SOL    HW128929   7.944  10.896   2.886 -0.0137 -0.4024  0.9693
 7933SOL    HW228930   7.841  10.840   2.982 -0.7112  0.0733  0.4995
 7934SOL     OW28931   2.769   7.858   6.719 -0.6887  0.5853  0.4379
 7934SOL    HW128932   2.711   7.811   6.660 -0.2516  0.6556 -0.0498
 7934SOL    HW228933   2.789   7.940   6.674  1.7640 -0.4941 -0.5149
 7935SOL     OW28934   6.100   8.412   9.572 -0.0511 -0.0323  0.4617
 7935SOL    HW128935   6.160   8.422   9.497 -0.4589  0.1693  0.1588
 7935SOL    HW228936   6.083   8.502   9.600  1.4237 -0.1585  1.8682
 7936SOL     OW28937   2.029   0.972   0.569  0.7316 -0.1963 -0.0929
 7936SOL    HW128938   1.970   0.985   0.495  2.2372  1.3443 -1.0757
 7936SOL    HW228939   1.996   1.031   0.637  0.5138 -0.0967 -0.2843
 7937SOL     OW28940   7.322   2.604   0.638 -0.7258 -0.2885  0.1636
 7937SOL    HW128941   7.267   2.650   0.702 -0.1628  1.8642 -0.8573
 7937SOL    HW228942   7.412   2.625   0.665 -0.4132 -2.1789  0.6618
 7938SOL     OW28943   8.708   8.278   2.031 -0.1918 -0.3921 -0.2860
 7938SOL    HW128944   8.741   8.203   1.982 -0.5789 -0.4003 -0.5353
 7938SOL    HW228945   8.708   8.250   2.122 -2.7033 -1.5706 -0.6187
 7939SOL     OW28946   4.603   4.305   1.579  0.1975 -0.2812  0.0697
 7939SOL    HW128947   4.550   4.233   1.614  0.5708 -0.4445  0.3029
 7939SOL    HW228948   4.539   4.375   1.561 -0.2263 -0.8427 -0.6110
 7940SOL     OW28949   5.142   7.529   4.988 -0.5555  0.1234  0.7667
 7940SOL    HW128950   5.135   7.434   4.993 -0.6089  0.0590 -0.3086
 7940SOL    HW228951   5.235   7.546   4.972 -0.3747  0.3087  1.9659
 7941SOL     OW28952  10.475   8.706   2.711  0.3693 -0.6162 -0.0219
 7941SOL    HW128953  10.564   8.722   2.682  0.9928  0.6277  2.4178
 7941SOL    HW228954  10.454   8.619   2.679  2.3578 -0.8175 -0.8262
 7942SOL     OW28955  11.128   9.354   0.471  0.2241  0.4106 -0.1072
 7942SOL    HW128956  11.143   9.267   0.435  0.9289  0.2898  0.4527
 7942SOL    HW228957  11.124   9.340   0.566  2.0854  1.2109  0.1134
 7943SOL     OW28958   8.571   8.600   3.938 -0.0575  0.1132 -0.4807
 7943SOL    HW128959   8.616   8.684   3.930  0.0902  0.2978  1.9433
 7943SOL    HW228960   8.641   8.536   3.949 -0.2722  0.0631  0.6461
 7944SOL     OW28961   8.227   1.854   1.174 -0.1621 -0.0155 -0.0736
 7944SOL    HW128962   8.321   1.837   1.181  0.2323  2.4452  0.9823
 7944SOL    HW228963   8.192   1.833   1.261 -0.4187  0.0839 -0.1517
 7945SOL     OW28964   3.293   2.979   4.039 -0.0837  0.9775 -0.3803
 7945SOL    HW128965   3.379   2.971   4.079 -0.4286 -1.1982 -0.0325
 7945SOL    HW228966   3.304   2.945   3.950 -0.9461 -0.8070  0.1894
 7946SOL     OW28967   4.651   2.362   4.534  0.4243 -0.3099 -0.6933
 7946SOL    HW128968   4.588   2.291   4.522 -0.7349  0.5128  0.3797
 7946SOL    HW228969   4.673   2.360   4.627  1.7049 -0.3567 -0.9944
 7947SOL     OW28970   7.889  11.309   4.598 -0.4378  0.5008 -0.0989
 7947SOL    HW128971   7.978  11.279   4.585 -0.4244  0.4575  0.0890
 7947SOL    HW228972   7.887  11.396   4.558  0.8042  2.2062  3.3090
 7948SOL     OW28973   9.168   7.800   5.243  0.5748  0.5747 -0.3508
 7948SOL    HW128974   9.094   7.845   5.202  0.2720 -0.1712 -0.6214
 7948SOL    HW228975   9.237   7.803   5.177  0.1046 -0.5793 -0.9142
 7949SOL     OW28976   5.484   4.735   9.240 -0.4184  0.6238  0.4184
 7949SOL    HW128977   5.498   4.766   9.150  2.0514 -0.5833  0.3498
 7949SOL    HW228978   5.514   4.808   9.294 -0.0714  0.5962  0.2663
 7950SOL     OW28979   6.327   5.834   3.393 -0.1114  0.3674  0.2431
 7950SOL    HW128980   6.236   5.861   3.406  0.6377  2.9431  0.4175
 7950SOL    HW228981   6.363   5.833   3.482 -0.1645 -1.4506  0.2552
 7951SOL     OW28982   4.627   5.353   3.494 -0.3646 -0.2455 -0.0967
 7951SOL    HW128983   4.542   5.319   3.525  0.5851 -3.6242 -0.9607
 7951SOL    HW228984   4.678   5.366   3.573 -0.4166 -1.9425  0.2461
 7952SOL     OW28985  11.324   1.263   4.804  0.5500 -0.5013  0.1687
 7952SOL    HW128986  11.415   1.276   4.832  0.6548  2.1854 -1.2247
 7952SOL    HW228987  11.272   1.296   4.877  0.7895  2.0962 -0.7571
 7953SOL     OW28988   1.887   8.692   0.143  0.2402 -0.1109  0.1873
 7953SOL    HW128989   1.820   8.637   0.102 -1.1889  0.2605  1.9429
 7953SOL    HW228990   1.905   8.649   0.227  0.9476  0.7349  0.4770
 7954SOL     OW28991  10.430   9.590   6.259 -0.1968  0.0616 -0.1882
 7954SOL    HW128992  10.448   9.683   6.272 -0.5000 -0.1143  1.5770
 7954SOL    HW228993  10.409   9.583   6.166 -0.7969  1.8582 -0.2086
 7955SOL     OW28994   7.949   6.146   9.346  0.1562  0.3245 -0.0002
 7955SOL    HW128995   7.996   6.064   9.331 -0.8612 -0.5378  1.3548
 7955SOL    HW228996   7.870   6.119   9.392  0.7336  2.2406  2.1864
 7956SOL     OW28997   4.580   6.315   1.263  1.0376  0.3724  0.0896
 7956SOL    HW128998   4.614   6.404   1.253 -0.1873  0.8571  0.0902
 7956SOL    HW228999   4.485   6.327   1.271  0.8832 -0.9228  0.2711
 7957SOL     OW29000   3.352   8.803   9.579  0.3512  0.5707  0.1230
 7957SOL    HW129001   3.386   8.713   9.581 -1.1743 -0.0197  0.1548
 7957SOL    HW229002   3.362   8.831   9.488 -0.3220 -0.0921 -0.1586
 7958SOL     OW29003   4.765   4.960   4.757 -0.3523  0.3139  0.1754
 7958SOL    HW129004   4.754   4.925   4.668  0.3344 -1.5849  0.8144
 7958SOL    HW229005   4.810   5.044   4.744 -1.2434  0.5755 -1.3359
 7959SOL     OW29006   4.066  11.168   1.110 -0.0140  0.1977 -0.5112
 7959SOL    HW129007   3.983  11.161   1.064  0.1275  0.2408 -0.7744
 7959SOL    HW229008   4.072  11.087   1.160  0.2081 -0.2209 -1.2034
 7960SOL     OW29009   9.223   4.589   1.537 -0.2903  0.1675 -0.4376
 7960SOL    HW129010   9.295   4.609   1.477  0.8823  0.8690  1.1874
 7960SOL    HW229011   9.258   4.520   1.594  0.4482  3.0700  2.7706
 7961SOL     OW29012   8.071   5.674   5.401  0.0524 -0.6195 -0.6067
 7961SOL    HW129013   8.107   5.736   5.465 -1.4912 -3.0638  2.8299
 7961SOL    HW229014   8.140   5.608   5.390 -0.6465 -1.5731  0.5841
 7962SOL     OW29015   7.860   9.816   1.871 -0.2731  0.4522  0.8372
 7962SOL    HW129016   7.776   9.840   1.831 -0.6896 -0.5624  1.0887
 7962SOL    HW229017   7.837   9.759   1.944  0.6685 -0.4080  0.4785
 7963SOL     OW29018   4.262  10.056   8.988  0.4246  0.3299 -0.4819
 7963SOL    HW129019   4.175  10.093   8.979  0.9252  0.9990 -2.8715
 7963SOL    HW229020   4.313  10.095   8.917  2.6400 -0.1534  0.7774
 7964SOL     OW29021   0.476   1.713   7.247  0.0083  0.1500 -0.4650
 7964SOL    HW129022   0.383   1.710   7.268 -0.3748  1.4461 -1.8478
 7964SOL    HW229023   0.509   1.790   7.293  0.5409 -0.6516  0.5137
 7965SOL     OW29024   8.773   2.798   1.269 -0.1551  0.8450 -0.8662
 7965SOL    HW129025   8.797   2.794   1.361  0.0583  0.5292 -0.9368
 7965SOL    HW229026   8.765   2.892   1.251  3.2303  1.0799 -1.4199
 7966SOL     OW29027   3.114   6.448   9.812 -0.9266 -0.2684 -0.0666
 7966SOL    HW129028   3.188   6.391   9.793 -1.0945 -0.6804  0.5094
 7966SOL    HW229029   3.091   6.486   9.727 -0.7462 -0.9753 -0.4360
 7967SOL     OW29030   9.358   1.168   9.984 -0.1074 -0.1180 -0.2343
 7967SOL    HW129031   9.387   1.149  10.073  0.6667 -1.7963 -0.8202
 7967SOL    HW229032   9.357   1.264   9.978  0.0487 -0.0036  1.4948
 7968SOL     OW29033   6.700   0.087  10.583  0.1534  0.0488 -0.1522
 7968SOL    HW129034   6.753   0.147  10.531  1.3457  0.2133  1.2171
 7968SOL    HW229035   6.704   0.003  10.536 -0.6912  0.7685 -1.5329
 7969SOL     OW29036   3.018  11.007   5.369 -0.0873 -0.2101 -0.1742
 7969SOL    HW129037   2.955  10.969   5.430 -1.5443 -0.4640 -1.7939
 7969SOL    HW229038   3.052  10.932   5.320 -0.3723  0.1969 -0.9967
 7970SOL     OW29039   5.098   5.853   0.163  0.2056 -0.4915 -0.0186
 7970SOL    HW129040   5.129   5.762   0.165  1.0517 -0.1966  0.2108
 7970SOL    HW229041   5.019   5.852   0.217 -0.6686 -1.4132 -1.2502
 7971SOL     OW29042   7.212   8.191  10.760  0.2348  0.6115 -0.1802
 7971SOL    HW129043   7.215   8.178  10.855 -0.3301  2.1718  0.0720
 7971SOL    HW229044   7.198   8.103  10.724 -0.7812  0.1651  1.2539
 7972SOL     OW29045   6.986   1.042   2.196  0.5923 -0.4904 -0.0733
 7972SOL    HW129046   7.045   0.993   2.139 -0.0481  0.0786 -1.2694
 7972SOL    HW229047   6.900   1.003   2.180 -0.1865  1.8711 -2.1474
 7973SOL     OW29048  10.752   5.272   0.027  0.0280  0.0311  0.4743
 7973SOL    HW129049  10.759   5.200   0.090 -0.7301  0.0271  0.5558
 7973SOL    HW229050  10.821   5.255  -0.037  1.7318  0.7659  2.0421
 7974SOL     OW29051   7.748  11.099   8.213 -0.0131 -0.0244 -0.3854
 7974SOL    HW129052   7.733  11.142   8.297  2.4727  2.3792 -1.1358
 7974SOL    HW229053   7.744  11.169   8.148 -2.3532 -1.9017 -2.4179
 7975SOL     OW29054   8.400   4.847   5.693 -0.5334  0.1299 -0.5725
 7975SOL    HW129055   8.491   4.834   5.667 -0.3953  2.0945 -1.1629
 7975SOL    HW229056   8.353   4.774   5.652  0.5033  0.1921 -1.9163
 7976SOL     OW29057   6.527   0.962   5.903 -0.5811 -0.1035  0.3716
 7976SOL    HW129058   6.466   1.022   5.860 -0.1629  0.3959  0.4690
 7976SOL    HW229059   6.551   1.007   5.984  0.5541  0.0838 -0.0599
 7977SOL     OW29060   2.266   7.818  10.985  0.3017  0.1758 -0.2414
 7977SOL    HW129061   2.331   7.749  10.968 -1.1199 -1.0273 -0.9892
 7977SOL    HW229062   2.184   7.770  10.999 -0.9863  1.7558 -2.0611
 7978SOL     OW29063   6.871  10.000   7.813 -0.0781 -0.3183 -0.1927
 7978SOL    HW129064   6.844  10.082   7.771 -1.7654 -0.5982  0.3068
 7978SOL    HW229065   6.959  10.018   7.845  0.4419  0.5596 -2.0421
 7979SOL     OW29066   8.354   6.979   7.547  0.0638  0.4770 -1.1265
 7979SOL    HW129067   8.424   6.915   7.535  0.9575  1.3660 -0.6998
 7979SOL    HW229068   8.354   7.030   7.467 -0.8141 -0.1964 -1.5705
 7980SOL     OW29069   2.566   7.782   2.071  0.6315 -0.1334  0.2719
 7980SOL    HW129070   2.641   7.739   2.031  0.5064  0.2476 -0.3693
 7980SOL    HW229071   2.540   7.850   2.009  0.5645  0.5949  1.0799
 7981SOL     OW29072   8.023   2.586   6.924  0.0784 -0.0653 -0.3015
 7981SOL    HW129073   8.004   2.599   7.017  0.5958 -0.5523 -0.1284
 7981SOL    HW229074   8.108   2.627   6.910  0.6253 -1.1938 -0.2657
 7982SOL     OW29075   8.925   8.313   5.149 -0.1496 -0.1775  0.1695
 7982SOL    HW129076   8.860   8.277   5.089 -0.1594 -0.3355  0.2746
 7982SOL    HW229077   9.008   8.303   5.104 -0.3187  1.0367 -0.4320
 7983SOL     OW29078   9.654   7.787   2.086 -0.4153 -0.0324 -0.1279
 7983SOL    HW129079   9.610   7.713   2.043  0.9303 -2.7060  2.8919
 7983SOL    HW229080   9.740   7.790   2.045 -0.1175 -0.7877  0.4403
 7984SOL     OW29081   9.640   2.534   8.257  0.3353  0.4617 -0.3092
 7984SOL    HW129082   9.703   2.599   8.226  0.6953  0.6437  0.7727
 7984SOL    HW229083   9.627   2.555   8.350 -1.4839  0.5537 -0.5701
 7985SOL     OW29084   9.616   5.472   2.203 -0.2866  0.3464  0.1579
 7985SOL    HW129085   9.682   5.511   2.146  0.4055  0.5743  1.0908
 7985SOL    HW229086   9.631   5.513   2.288  1.1578 -2.6590  1.4556
 7986SOL     OW29087   8.042   7.407   7.998 -0.5308  0.5101  0.1466
 7986SOL    HW129088   8.020   7.500   7.995  0.6752  0.7678 -2.0303
 7986SOL    HW229089   7.982   7.366   7.935  0.0402  0.0718 -0.1245
 7987SOL     OW29090   4.173   7.761   2.149  0.2854  0.4433  0.3127
 7987SOL    HW129091   4.254   7.803   2.122  1.9606 -1.8716  1.5899
 7987SOL    HW229092   4.195   7.713   2.229 -3.0644  2.1639  2.4255
 7988SOL     OW29093   1.231   1.501   8.588  0.5590 -0.4845 -0.4496
 7988SOL    HW129094   1.207   1.500   8.680 -0.2052 -0.9484 -0.6481
 7988SOL    HW229095   1.326   1.487   8.587  0.5994 -0.2606  0.2724
 7989SOL     OW29096   9.519   0.444  10.787  0.0807 -0.0713  0.2980
 7989SOL    HW129097   9.494   0.380  10.855  1.6186  0.1180  1.0473
 7989SOL    HW229098   9.584   0.499  10.829  0.2061  0.7647 -0.9925
 7990SOL     OW29099   5.666   2.111   9.109  0.0584 -0.0709 -0.0502
 7990SOL    HW129100   5.624   2.025   9.110 -1.3622  0.5354 -2.6158
 7990SOL    HW229101   5.699   2.120   9.020  0.8213  1.7511  0.3943
 7991SOL     OW29102   8.951   7.363   2.219 -0.7207  0.3545  0.0147
 7991SOL    HW129103   8.936   7.274   2.252 -2.5168 -0.2754 -2.4446
 7991SOL    HW229104   8.869   7.408   2.234 -0.7932  0.7298 -1.4668
 7992SOL     OW29105   8.478   3.039   6.749  0.7544  0.0715  0.2450
 7992SOL    HW129106   8.538   2.987   6.802  0.3941 -1.0117 -0.4061
 7992SOL    HW229107   8.511   3.031   6.660 -1.5936 -2.3328 -0.4689
 7993SOL     OW29108   4.767   5.595  10.079 -0.1867  0.4555 -0.0948
 7993SOL    HW129109   4.768   5.647   9.998 -1.0533 -0.1505 -0.5028
 7993SOL    HW229110   4.720   5.649  10.142  0.3067  0.8387 -0.0463
 7994SOL     OW29111   0.374   4.489   5.479  0.3373 -0.2950  0.1406
 7994SOL    HW129112   0.349   4.399   5.458 -1.3084  0.0175  0.6553
 7994SOL    HW229113   0.411   4.483   5.567 -1.8617 -0.1694  1.1174
 7995SOL     OW29114   2.466   3.820   2.123  0.2681  0.3729 -0.0072
 7995SOL    HW129115   2.502   3.904   2.151 -0.4824  0.4144  0.8681
 7995SOL    HW229116   2.414   3.840   2.046  1.0254  0.5240 -0.4850
 7996SOL     OW29117   6.816  10.697   0.885  0.9588 -0.2264 -0.4558
 7996SOL    HW129118   6.838  10.622   0.831  0.7565  0.8659 -2.0925
 7996SOL    HW229119   6.723  10.684   0.907  1.1546 -0.8872 -0.0216
 7997SOL     OW29120  10.181   0.932   5.397 -0.8019 -0.0559 -0.3171
 7997SOL    HW129121  10.270   0.926   5.363 -1.6680 -2.8045 -2.3135
 7997SOL    HW229122  10.154   1.022   5.379  0.5616 -0.0196 -2.2858
 7998SOL     OW29123   7.202   1.418   3.048 -0.0545 -0.3150 -0.1905
 7998SOL    HW129124   7.115   1.378   3.047 -0.5857  0.7012  2.2247
 7998SOL    HW229125   7.240   1.395   2.963 -1.7162 -2.8652 -0.2960
 7999SOL     OW29126  10.514   4.258   7.959 -0.3846  0.4434 -0.1773
 7999SOL    HW129127  10.520   4.353   7.970  0.1000  0.3887  0.0625
 7999SOL    HW229128  10.474   4.246   7.873  2.0192  0.8567 -1.3849
 8000SOL     OW29129   3.649   9.045   8.178 -0.6104 -0.0176 -0.5463
 8000SOL    HW129130   3.681   8.967   8.132 -1.1598 -1.0287  0.7165
 8000SOL    HW229131   3.718   9.065   8.241 -1.2702 -0.6072  0.3826
 8001SOL     OW29132   4.588  10.450   8.899  0.5199 -0.5363  0.1528
 8001SOL    HW129133   4.625  10.390   8.833  2.0754 -0.5120  0.9702
 8001SOL    HW229134   4.595  10.536   8.859  1.4314 -0.5245  0.3325
 8002SOL     OW29135   9.849   4.927   2.328 -0.6572 -0.0391  0.3980
 8002SOL    HW129136   9.889   4.877   2.256 -1.6915  1.2275 -1.0917
 8002SOL    HW229137   9.774   4.971   2.287 -0.0914  2.2918  1.8182
 8003SOL     OW29138   2.854   4.953  10.057  0.1571 -0.1065  0.5820
 8003SOL    HW129139   2.859   5.014   9.983 -1.5647  0.3844  0.8609
 8003SOL    HW229140   2.918   4.885  10.035  0.5175  0.6509 -0.8005
 8004SOL     OW29141   1.490   5.217   3.752 -0.0474 -0.2586 -0.1765
 8004SOL    HW129142   1.534   5.140   3.789  0.7667  0.5271  0.5203
 8004SOL    HW229143   1.554   5.255   3.692  0.7224  1.5640  1.7288
 8005SOL     OW29144   2.609   2.152   0.255 -0.1584 -0.0323 -0.1534
 8005SOL    HW129145   2.557   2.164   0.335  0.5407 -0.2635  0.3393
 8005SOL    HW229146   2.673   2.224   0.257 -0.1192 -0.0552 -0.4910
 8006SOL     OW29147   9.543   9.412   0.237  0.1053  0.2690  0.0906
 8006SOL    HW129148   9.497   9.385   0.157 -1.0309  0.8153  0.5482
 8006SOL    HW229149   9.482   9.391   0.307 -0.5205  3.3786  0.5231
 8007SOL     OW29150   4.562   3.575   7.930 -0.4487 -0.1562  0.3721
 8007SOL    HW129151   4.539   3.488   7.898  1.3872 -0.6226  0.2454
 8007SOL    HW229152   4.546   3.570   8.025 -0.6920 -0.5199  0.3155
 8008SOL     OW29153   1.473   1.380   0.692  0.0912  0.0701 -0.1911
 8008SOL    HW129154   1.466   1.475   0.708 -1.4142 -0.1887  0.8910
 8008SOL    HW229155   1.384   1.354   0.666  0.6145 -0.9628 -0.9597
 8009SOL     OW29156   6.944   0.874   6.337 -0.7206  0.3652 -0.7542
 8009SOL    HW129157   6.882   0.905   6.404  1.1613  0.4363  1.0017
 8009SOL    HW229158   7.014   0.939   6.338  1.4007 -1.8990  0.2353
 8010SOL     OW29159   8.495   8.813   7.445 -0.0605 -0.3177  0.6044
 8010SOL    HW129160   8.515   8.722   7.464  0.2622 -0.4651 -0.3922
 8010SOL    HW229161   8.575   8.861   7.466  0.5535 -0.5797 -1.0501
 8011SOL     OW29162   5.105   1.840   0.664 -0.1372  0.1851  0.5321
 8011SOL    HW129163   5.152   1.833   0.581  1.0333 -0.2476  1.2216
 8011SOL    HW229164   5.055   1.921   0.656  0.6779  0.6205 -0.2481
 8012SOL     OW29165   8.082   6.090   8.534 -0.2009 -0.0427 -0.1967
 8012SOL    HW129166   8.142   6.015   8.538 -0.6138 -0.3550  0.2266
 8012SOL    HW229167   7.995   6.051   8.524 -0.4651  0.3545  0.4867
 8013SOL     OW29168   3.834  11.047   4.605 -0.1294 -0.2420 -0.0733
 8013SOL    HW129169   3.823  11.140   4.583 -1.3922 -0.6907 -1.3906
 8013SOL    HW229170   3.902  11.015   4.546 -0.7786 -0.5217 -0.6717
 8014SOL     OW29171   4.980   6.234   1.113 -0.1773  0.0013 -0.1945
 8014SOL    HW129172   4.931   6.174   1.056 -1.4973  0.5159  0.3823
 8014SOL    HW229173   4.933   6.231   1.197 -0.6581  2.3160 -0.3462
 8015SOL     OW29174   6.810   7.458   0.879  0.1303 -0.1463  0.8528
 8015SOL    HW129175   6.871   7.384   0.888 -1.1684 -1.2420  0.7895
 8015SOL    HW229176   6.745   7.428   0.816  1.5109  2.3749 -1.9092
 8016SOL     OW29177  10.149   7.755   5.321  0.9053 -0.6097  0.6790
 8016SOL    HW129178  10.092   7.793   5.254  1.0314 -0.7698  0.4801
 8016SOL    HW229179  10.144   7.661   5.305  1.9170 -0.5756  0.1040
 8017SOL     OW29180   4.162   5.171   4.555 -0.0015  0.6084  0.4514
 8017SOL    HW129181   4.157   5.241   4.490 -0.5358  0.4556  0.3285
 8017SOL    HW229182   4.242   5.190   4.604  0.1867  0.9547  0.0142
 8018SOL     OW29183   4.596  10.670   3.527 -0.1393  0.2232 -0.5520
 8018SOL    HW129184   4.578  10.714   3.444 -1.2526  0.3908 -0.2205
 8018SOL    HW229185   4.595  10.576   3.504  1.0342  0.3106 -1.0135
 8019SOL     OW29186   9.257  10.100   0.419  0.0684 -0.1049 -0.8771
 8019SOL    HW129187   9.294  10.136   0.338 -1.3045  0.7927 -1.1225
 8019SOL    HW229188   9.166  10.131   0.420 -0.4829 -1.6690  0.0691
 8020SOL     OW29189  10.012  10.673   1.085 -0.4275 -0.3747  0.0956
 8020SOL    HW129190  10.001  10.663   0.990 -0.3653  0.0327  0.0459
 8020SOL    HW229191  10.090  10.622   1.105  1.2821  1.8852 -0.5258
 8021SOL     OW29192   0.769   6.858   2.272 -0.0811 -0.2563 -0.2797
 8021SOL    HW129193   0.753   6.765   2.254 -0.6935 -0.1166 -0.4538
 8021SOL    HW229194   0.690   6.888   2.318  0.5606 -0.0817  0.7309
 8022SOL     OW29195   9.151  10.837   9.539 -0.4401  0.1366  0.1242
 8022SOL    HW129196   9.157  10.916   9.593 -1.4400  0.4581 -0.2249
 8022SOL    HW229197   9.156  10.765   9.602  1.9400  0.4364  0.3116
 8023SOL     OW29198   9.373   2.110   1.822 -0.2124  0.7163 -0.1299
 8023SOL    HW129199   9.436   2.045   1.794 -1.2253 -1.2285  1.9004
 8023SOL    HW229200   9.297   2.096   1.766 -0.4280  0.1170  0.3011
 8024SOL     OW29201   2.016  10.044   2.954 -0.5863 -0.2705  0.0269
 8024SOL    HW129202   1.964  10.036   2.873 -1.5605 -1.3456  0.7343
 8024SOL    HW229203   1.963  10.100   3.010  0.3010  0.8394 -0.2346
 8025SOL     OW29204  10.375   8.264   7.046  0.2089 -0.0901  0.2843
 8025SOL    HW129205  10.290   8.240   7.008 -0.0048  0.1377  0.6191
 8025SOL    HW229206  10.353   8.305   7.130  0.6410  0.1613  0.2731
 8026SOL     OW29207  10.970   7.056   7.787  0.1583  0.1519 -0.1409
 8026SOL    HW129208  10.882   7.074   7.821  0.1804 -0.1514  0.0849
 8026SOL    HW229209  11.008   6.995   7.851  0.6472  0.5257 -0.0737
 8027SOL     OW29210   6.933  10.020   8.597  0.2100  0.0827 -0.2894
 8027SOL    HW129211   6.885   9.937   8.603 -3.0627  1.7708 -1.6820
 8027SOL    HW229212   6.937  10.038   8.503  2.3364  0.7218 -0.0924
 8028SOL     OW29213   2.456   3.108   4.248  0.5031  0.0445 -0.4243
 8028SOL    HW129214   2.458   3.016   4.222 -0.0251  0.0301 -0.4004
 8028SOL    HW229215   2.546   3.138   4.233  0.4980 -0.2781 -1.1550
 8029SOL     OW29216  10.740   7.896   6.238  0.3383 -0.7941 -0.5389
 8029SOL    HW129217  10.660   7.945   6.217  0.3315 -1.4375 -2.1154
 8029SOL    HW229218  10.730   7.813   6.192  0.7683 -1.9230  1.3797
 8030SOL     OW29219   6.484   3.514  10.895 -0.2705 -0.0775 -0.4313
 8030SOL    HW129220   6.554   3.511  10.960 -0.0299 -0.2402 -0.6973
 8030SOL    HW229221   6.529   3.520  10.811 -0.5833  2.4669 -0.4778
 8031SOL     OW29222   7.959   2.847   8.179  0.4911  0.3399 -0.0463
 8031SOL    HW129223   7.870   2.814   8.175  0.2982  0.9076 -0.4712
 8031SOL    HW229224   7.974   2.886   8.093  0.9553  0.7377  0.2164
 8032SOL     OW29225   9.570   5.089   2.721  0.0990  0.1974 -0.2909
 8032SOL    HW129226   9.661   5.098   2.749 -0.2575  0.2941  0.8696
 8032SOL    HW229227   9.550   5.171   2.676  0.2860  0.5988  0.3469
 8033SOL     OW29228   7.748  10.272   4.055  0.0966 -0.5486 -0.2244
 8033SOL    HW129229   7.692  10.349   4.044 -0.0615 -0.9741 -2.8194
 8033SOL    HW229230   7.687  10.200   4.071 -0.0296 -0.7429 -1.5013
 8034SOL     OW29231   2.062   8.401   1.051 -1.1339 -0.3144  0.4803
 8034SOL    HW129232   2.016   8.367   1.128  0.6674  0.2036  1.8255
 8034SOL    HW229233   2.027   8.489   1.038 -1.2785 -0.3162  0.8585
 8035SOL     OW29234   5.279   1.190   4.646 -0.4580  0.3960  0.0904
 8035SOL    HW129235   5.365   1.232   4.650 -1.1440  2.0222 -1.3178
 8035SOL    HW229236   5.279   1.142   4.563 -1.0985  0.8808 -0.1998
 8036SOL     OW29237  10.420   8.023  10.383 -0.2420  0.1652 -0.2470
 8036SOL    HW129238  10.388   8.088  10.321 -2.1806 -0.1749  0.3425
 8036SOL    HW229239  10.349   7.958  10.386  0.7871 -0.9129  0.6906
 8037SOL     OW29240   2.130  11.231   4.955  0.0387  0.1841 -0.4355
 8037SOL    HW129241   2.079  11.198   5.029  0.4846 -0.4866 -0.4173
 8037SOL    HW229242   2.085  11.311   4.928  0.4698  1.0023  1.2212
 8038SOL     OW29243   4.800   5.807   2.795 -0.3405  0.0752 -0.1864
 8038SOL    HW129244   4.723   5.857   2.766 -0.2476  0.2124 -0.1982
 8038SOL    HW229245   4.829   5.852   2.874 -0.2214  0.0766 -0.2303
 8039SOL     OW29246   3.084   3.615   1.591 -0.5700 -0.1763 -0.3985
 8039SOL    HW129247   3.155   3.623   1.655 -0.1954  0.6060 -0.8943
 8039SOL    HW229248   3.084   3.523   1.566 -1.2961 -0.6591  1.3785
 8040SOL     OW29249   9.959   6.880   4.524 -0.2783  0.2274 -0.5951
 8040SOL    HW129250  10.034   6.888   4.582 -0.5801 -1.4911  0.0603
 8040SOL    HW229251   9.955   6.787   4.501 -1.2318  0.5721 -1.9282
 8041SOL     OW29252   7.593   5.635   4.159 -0.3151  0.2305 -0.2635
 8041SOL    HW129253   7.672   5.656   4.109  0.4506  1.7802  1.5604
 8041SOL    HW229254   7.607   5.676   4.244 -1.8563 -1.8698  1.0386
 8042SOL     OW29255  10.023   2.340   3.018  0.6493 -0.1199  0.0757
 8042SOL    HW129256   9.948   2.337   2.958  0.3826  0.1946  0.3917
 8042SOL    HW229257   9.992   2.392   3.093  0.6016 -1.4316  0.9877
 8043SOL     OW29258   2.668   0.299   8.736 -0.6714  0.3740  0.3366
 8043SOL    HW129259   2.605   0.287   8.806  1.7264 -0.9276  2.3250
 8043SOL    HW229260   2.720   0.375   8.763 -0.0329  0.1607 -0.2708
 8044SOL     OW29261   2.246   7.379  10.561 -0.3254 -0.4471 -0.4959
 8044SOL    HW129262   2.341   7.368  10.552  0.0732  0.3686  2.1766
 8044SOL    HW229263   2.209   7.302  10.518  1.5127 -0.4821 -2.1003
 8045SOL     OW29264   4.047   3.426   8.985  0.0418 -0.3232 -0.2599
 8045SOL    HW129265   4.073   3.503   8.933  2.1516 -0.2665  0.8042
 8045SOL    HW229266   4.025   3.360   8.920  1.6880  0.0540 -1.2458
 8046SOL     OW29267   6.389   7.194   4.166 -0.1493  0.4925  0.4814
 8046SOL    HW129268   6.384   7.268   4.105  0.3879 -0.0580 -0.2441
 8046SOL    HW229269   6.374   7.117   4.111  2.8745 -0.2213  0.5643
 8047SOL     OW29270   6.227   0.657   1.904  0.1470  0.7500 -0.3196
 8047SOL    HW129271   6.283   0.653   1.981 -0.9922 -1.1391  0.4310
 8047SOL    HW229272   6.269   0.600   1.840  0.9942  2.1726 -1.0675
 8048SOL     OW29273   6.560   4.796   5.934 -0.0271  0.4132 -0.0814
 8048SOL    HW129274   6.487   4.835   5.887  0.1425  0.9358  0.0819
 8048SOL    HW229275   6.589   4.865   5.995 -0.4498 -0.3700  1.0168
 8049SOL     OW29276   5.329  10.777   0.612  0.1391  0.0433 -0.4662
 8049SOL    HW129277   5.415  10.783   0.653  0.1069 -0.2846 -0.3440
 8049SOL    HW229278   5.322  10.685   0.586 -0.6479 -0.2092  0.5821
 8050SOL     OW29279   7.702   7.502   1.895  0.0035 -0.4121  0.0050
 8050SOL    HW129280   7.734   7.501   1.805 -0.4048 -0.1873 -0.1430
 8050SOL    HW229281   7.770   7.549   1.944 -1.8521  3.5135 -0.9929
 8051SOL     OW29282  10.227   6.631   9.304  0.1488  0.2518 -0.1067
 8051SOL    HW129283  10.238   6.549   9.352  2.1721  0.8278  0.4657
 8051SOL    HW229284  10.134   6.652   9.313 -0.3621 -1.8725 -0.1237
 8052SOL     OW29285   0.831   5.359   7.879  0.8703 -0.6048  1.0762
 8052SOL    HW129286   0.846   5.453   7.867 -0.3236 -0.2338  2.3805
 8052SOL    HW229287   0.753   5.340   7.827  1.9760 -1.1885 -0.3908
 8053SOL     OW29288   4.762   8.724  11.214  0.4203  0.2319 -0.0085
 8053SOL    HW129289   4.767   8.724  11.309  1.5006 -1.7949 -0.0336
 8053SOL    HW229290   4.686   8.779  11.193  0.5723  1.2330  1.9774
 8054SOL     OW29291   6.239   2.645   3.817 -0.2469 -0.0320  0.2355
 8054SOL    HW129292   6.278   2.616   3.899 -0.0497 -3.0982 -0.8851
 8054SOL    HW229293   6.154   2.680   3.843 -0.1637 -0.9182  1.7828
 8055SOL     OW29294   6.050   3.656   0.393 -0.3043  0.2235 -0.5166
 8055SOL    HW129295   6.074   3.574   0.436 -0.3651  0.3141 -0.3099
 8055SOL    HW229296   6.095   3.723   0.443 -1.3595  0.4382  0.1639
 8056SOL     OW29297   6.473   0.234   5.524 -0.1205  0.0283  0.1803
 8056SOL    HW129298   6.567   0.249   5.534  0.2511 -2.7033  1.2297
 8056SOL    HW229299   6.437   0.251   5.611 -0.2005 -1.3793  0.4402
 8057SOL     OW29300  10.699   0.557   9.047 -0.1267 -0.0792 -0.8517
 8057SOL    HW129301  10.649   0.501   8.987 -0.4692 -0.5454 -0.1442
 8057SOL    HW229302  10.690   0.645   9.011 -0.1977 -0.3765 -1.5734
 8058SOL     OW29303   4.939   3.262   8.644  0.0228  0.0064  0.1419
 8058SOL    HW129304   4.998   3.189   8.629 -0.6268 -0.0416 -2.4300
 8058SOL    HW229305   4.854   3.232   8.612 -0.5523  1.4020  0.2970
 8059SOL     OW29306   2.980   3.677   4.178  0.1700  0.0840 -0.6163
 8059SOL    HW129307   3.048   3.707   4.118  0.3075  1.2914  0.1263
 8059SOL    HW229308   2.958   3.589   4.148  1.4512  0.0221 -1.3794
 8060SOL     OW29309   3.374   5.748   2.879  0.0709  0.2601 -0.4003
 8060SOL    HW129310   3.300   5.808   2.884 -0.4894 -0.2415 -2.1502
 8060SOL    HW229311   3.450   5.804   2.865 -0.2007  0.6778 -0.2020
 8061SOL     OW29312  10.261   1.901   4.330 -0.0725  0.1397  0.5021
 8061SOL    HW129313  10.306   1.964   4.385  1.7248 -2.4306  2.0824
 8061SOL    HW229314  10.331   1.852   4.287 -1.4290  0.0815 -1.7373
 8062SOL     OW29315   2.772   6.344   7.450 -0.3470 -0.3081  0.3122
 8062SOL    HW129316   2.752   6.311   7.363  0.6222 -0.1977  0.0437
 8062SOL    HW229317   2.865   6.326   7.462 -0.4960 -0.4088  1.3605
 8063SOL     OW29318   4.822   6.314   2.245  0.0403  0.4291 -0.7092
 8063SOL    HW129319   4.837   6.276   2.331  0.4287  1.7191 -0.2000
 8063SOL    HW229320   4.755   6.381   2.258 -1.1693 -0.5415 -1.7359
 8064SOL     OW29321   7.754   3.090   4.048 -0.3807  0.2140 -0.5249
 8064SOL    HW129322   7.679   3.036   4.071 -0.3944  0.5322  0.1811
 8064SOL    HW229323   7.788   3.121   4.132 -0.8987  2.0250 -0.9528
 8065SOL     OW29324   4.563   9.539  11.264 -0.1071  0.5484  0.1613
 8065SOL    HW129325   4.578   9.477  11.193 -0.7577  1.7339 -1.0338
 8065SOL    HW229326   4.469   9.529  11.284  0.4461 -1.0971  2.1362
 8066SOL     OW29327   1.877   2.017   6.366  0.0840  0.2050 -0.6947
 8066SOL    HW129328   1.917   2.015   6.453  1.6030 -0.5101 -1.3914
 8066SOL    HW229329   1.854   1.926   6.348  0.1328  0.2912 -1.2066
 8067SOL     OW29330   1.496   8.356   2.075 -0.0919  0.2923  0.3995
 8067SOL    HW129331   1.531   8.426   2.131  2.1123 -2.0147  2.0154
 8067SOL    HW229332   1.568   8.336   2.015 -1.1859  0.2905 -0.9398
 8068SOL     OW29333   5.447   1.566   8.110 -0.4659  0.0973  0.0766
 8068SOL    HW129334   5.526   1.516   8.130  0.3539  2.3465  2.6474
 8068SOL    HW229335   5.378   1.522   8.160 -0.1466  0.3026  0.6993
 8069SOL     OW29336   0.188   6.396   1.877  0.2538 -0.1676  0.3697
 8069SOL    HW129337   0.186   6.478   1.927  0.7552  0.4920 -0.6757
 8069SOL    HW229338   0.174   6.328   1.943 -4.1719  0.9420  0.7254
 8070SOL     OW29339   0.580   8.994   3.529 -0.2726 -0.6285  0.4607
 8070SOL    HW129340   0.645   8.933   3.494  2.8761 -0.1957  5.0970
 8070SOL    HW229341   0.604   9.078   3.491 -0.0501 -1.0063 -0.2469
 8071SOL     OW29342   4.913   7.929   6.298  0.3958  0.2469  0.8232
 8071SOL    HW129343   4.979   7.947   6.365 -0.5437 -0.2754  1.9067
 8071SOL    HW229344   4.873   7.846   6.326  0.8154 -0.6181 -1.0408
 8072SOL     OW29345   5.458   6.899   3.490 -0.2750  0.1953  0.2892
 8072SOL    HW129346   5.485   6.836   3.423 -1.2892 -0.8759  0.8753
 8072SOL    HW229347   5.534   6.957   3.501  0.4580 -0.5843 -0.6524
 8073SOL     OW29348   3.025   3.414   0.012  0.1182  0.3277  0.1386
 8073SOL    HW129349   3.008   3.505  -0.012 -0.4232  0.5383  1.3075
 8073SOL    HW229350   3.093   3.419   0.079  0.4702 -0.1657 -0.1793
 8074SOL     OW29351   6.547   5.042   3.675 -0.2645 -0.1304  0.2986
 8074SOL    HW129352   6.555   5.127   3.632 -2.1273  0.4339  0.9967
 8074SOL    HW229353   6.572   5.059   3.766  0.3207 -0.5477  0.2151
 8075SOL     OW29354   8.623  10.616   8.834  0.0509  0.5447 -0.3498
 8075SOL    HW129355   8.528  10.626   8.833  0.2023  2.0384 -1.4187
 8075SOL    HW229356   8.656  10.702   8.862  1.1030  0.1698 -0.4230
 8076SOL     OW29357  10.451   2.099   3.149  0.1437  0.1154 -0.3401
 8076SOL    HW129358  10.463   2.011   3.185 -2.6064 -0.5547 -0.9589
 8076SOL    HW229359  10.415   2.151   3.222 -0.9930 -0.0429 -0.7763
 8077SOL     OW29360  10.157   7.193   2.990 -0.0313  0.1890 -0.1143
 8077SOL    HW129361  10.237   7.149   3.021  0.0132  0.6831  0.4788
 8077SOL    HW229362  10.166   7.195   2.895  1.8515  2.4576  0.0648
 8078SOL     OW29363  11.075   4.209   6.324 -0.2049 -1.2226  0.1268
 8078SOL    HW129364  11.034   4.290   6.294  3.1157 -0.1547 -1.8489
 8078SOL    HW229365  11.049   4.202   6.416 -2.0856  1.0773 -0.1617
 8079SOL     OW29366   3.666   4.028   5.737 -0.3037 -0.2025 -0.2692
 8079SOL    HW129367   3.611   4.072   5.802 -2.4535 -0.1547 -2.0689
 8079SOL    HW229368   3.650   3.935   5.752  0.3817 -0.2534  0.2237
 8080SOL     OW29369  10.432   9.444   9.085 -0.1214 -0.1653  0.0265
 8080SOL    HW129370  10.470   9.532   9.090 -0.8190  0.1146  0.5739
 8080SOL    HW229371  10.404   9.435   8.994 -0.8547  0.5336  0.1733
 8081SOL     OW29372   2.853   3.583   5.889  0.5820  0.0639  0.1429
 8081SOL    HW129373   2.766   3.618   5.908 -0.1188 -1.1762 -0.7287
 8081SOL    HW229374   2.838   3.491   5.869  2.2432 -0.4539  1.1364
 8082SOL     OW29375   3.369   3.402   3.765  0.8906  0.4419 -0.1981
 8082SOL    HW129376   3.295   3.343   3.772  0.2852  1.2695  0.5720
 8082SOL    HW229377   3.329   3.489   3.753  1.7126  0.9568  0.6958
 8083SOL     OW29378   7.788   8.645   5.858 -0.1332  0.0265 -0.0585
 8083SOL    HW129379   7.772   8.616   5.768  1.3719 -1.1852  0.0621
 8083SOL    HW229380   7.703   8.681   5.886 -0.3238  1.4562 -2.3210
 8084SOL     OW29381   7.235   0.801   5.124  0.5569 -0.2649 -0.5463
 8084SOL    HW129382   7.292   0.736   5.165 -0.8432 -0.0415  1.8781
 8084SOL    HW229383   7.165   0.814   5.188 -0.5552  1.7242 -2.1257
 8085SOL     OW29384   7.000  10.137   3.237 -0.6555 -0.0491 -0.1639
 8085SOL    HW129385   7.093  10.151   3.253 -0.3329 -1.4073 -0.8020
 8085SOL    HW229386   6.962  10.225   3.241  0.6872  0.5476 -0.1627
 8086SOL     OW29387  10.679   4.367   8.809  0.0753 -0.2006  0.2403
 8086SOL    HW129388  10.763   4.413   8.816 -0.0979  0.2247 -0.3924
 8086SOL    HW229389  10.697   4.280   8.844  0.7040 -0.0166  0.3917
 8087SOL     OW29390  10.808   3.222   8.601 -0.1976 -0.0087 -0.2883
 8087SOL    HW129391  10.793   3.146   8.544 -1.5471 -0.1140  0.1898
 8087SOL    HW229392  10.720   3.252   8.625  0.3344  1.3051  0.0670
 8088SOL     OW29393   0.514   9.808   4.383 -0.3256  0.7556 -0.4851
 8088SOL    HW129394   0.602   9.844   4.370 -0.9140  2.7346  0.8324
 8088SOL    HW229395   0.513   9.782   4.475  0.0405 -2.5793 -1.3716
 8089SOL     OW29396   4.633  10.911   4.171  0.3386  0.0615 -0.9414
 8089SOL    HW129397   4.542  10.932   4.149 -0.1143  0.4965  1.2230
 8089SOL    HW229398   4.626  10.833   4.227  1.2894  0.1129 -0.7440
 8090SOL     OW29399   8.580   5.620   0.103 -0.0061 -0.1895 -0.2107
 8090SOL    HW129400   8.562   5.709   0.133  0.3450  0.0081 -0.5778
 8090SOL    HW229401   8.547   5.618   0.013  0.3462 -0.3081 -0.3395
 8091SOL     OW29402   9.713   4.689   6.176  0.4947 -0.3289  0.3488
 8091SOL    HW129403   9.796   4.692   6.128  1.6131  0.1843  2.2946
 8091SOL    HW229404   9.694   4.781   6.196 -0.2061 -0.5013  0.4938
 8092SOL     OW29405   3.044  11.133   0.885 -0.7636  0.3160 -0.1006
 8092SOL    HW129406   3.068  11.062   0.944 -1.4201  0.1423 -0.0465
 8092SOL    HW229407   3.128  11.169   0.856 -0.4107 -0.9899 -0.7548
 8093SOL     OW29408   0.023   3.244   3.819 -0.3608  0.8205  0.1197
 8093SOL    HW129409  -0.005   3.278   3.904  0.0908  0.2234  0.5182
 8093SOL    HW229410   0.093   3.302   3.791 -0.7183  1.1991  0.0116
 8094SOL     OW29411  10.146   4.295   9.866  0.1901 -0.2534  0.4238
 8094SOL    HW129412  10.149   4.385   9.835 -1.8382 -0.6661 -1.0656
 8094SOL    HW229413  10.215   4.250   9.816  0.0268  0.1084 -0.1362
 8095SOL     OW29414   5.249   7.080  11.072  0.6619  0.3559  0.0846
 8095SOL    HW129415   5.305   7.044  11.003 -0.4676  0.1839 -0.7411
 8095SOL    HW229416   5.208   7.003  11.112  1.6805  0.4145  1.2861
 8096SOL     OW29417   5.489   9.945   3.682 -0.3152 -0.2371 -0.2931
 8096SOL    HW129418   5.441   9.874   3.724  0.4330 -0.3447  0.3979
 8096SOL    HW229419   5.430   9.977   3.614 -2.0919  0.8102  1.6877
 8097SOL     OW29420   6.056   1.951   5.971 -0.0761  0.2776  0.5818
 8097SOL    HW129421   6.126   1.980   5.913  0.2883  0.8681  1.3116
 8097SOL    HW229422   6.052   1.856   5.958 -1.8887  0.7222 -2.4922
 8098SOL     OW29423   2.331   0.685   8.586 -0.4125 -0.2058  0.3144
 8098SOL    HW129424   2.408   0.741   8.574 -0.3695 -0.9369 -3.3507
 8098SOL    HW229425   2.340   0.617   8.519 -3.7164 -0.9072  0.5220
 8099SOL     OW29426  11.157   6.928   5.826  0.3772  0.4079  0.1339
 8099SOL    HW129427  11.225   6.912   5.760  1.5464  2.4610  0.7883
 8099SOL    HW229428  11.203   6.973   5.897 -0.7695 -2.0662  2.5683
 8100SOL     OW29429   1.505   2.880   0.641  0.1851 -0.3127  0.0259
 8100SOL    HW129430   1.450   2.915   0.570 -0.5294  0.3500  0.8819
 8100SOL    HW229431   1.542   2.799   0.606 -2.1505 -1.3025 -0.2355
 8101SOL     OW29432   6.239   0.643  10.318  0.0020  0.1638  0.0819
 8101SOL    HW129433   6.245   0.578  10.388  0.6154 -0.3873 -0.4793
 8101SOL    HW229434   6.231   0.726  10.363 -1.3267 -0.3459  0.8121
 8102SOL     OW29435  10.041   4.424  11.067  1.3060 -0.0597 -0.2168
 8102SOL    HW129436  10.127   4.395  11.037  1.5966 -0.6114  1.0990
 8102SOL    HW229437  10.018   4.363  11.138  0.0513  0.3785 -0.2269
 8103SOL     OW29438   1.411   7.349   6.864 -0.2155  0.3029 -0.0509
 8103SOL    HW129439   1.438   7.341   6.773  0.3075  0.9805  0.0405
 8103SOL    HW229440   1.337   7.410   6.862 -1.7002 -1.4679 -0.2903
 8104SOL     OW29441   4.111   1.061  10.400  0.0902  0.1104 -0.1028
 8104SOL    HW129442   4.077   1.012  10.475 -0.4362 -1.0180 -1.0578
 8104SOL    HW229443   4.181   1.114  10.436  1.3245 -2.0738  0.8001
 8105SOL     OW29444   7.898   8.216  10.950 -0.1561 -0.3092  0.1622
 8105SOL    HW129445   7.978   8.267  10.960 -0.5085  0.2837  0.0153
 8105SOL    HW229446   7.895   8.159  11.026 -0.9209  1.5098  1.5364
 8106SOL     OW29447   1.208   2.744   0.061 -0.2786 -0.1031 -0.0354
 8106SOL    HW129448   1.263   2.718   0.135  0.2010 -1.4276 -0.8546
 8106SOL    HW229449   1.269   2.776  -0.005 -0.6142 -0.0654 -0.3320
 8107SOL     OW29450   5.868   2.581   6.242 -0.2259  0.0011  0.0420
 8107SOL    HW129451   5.922   2.602   6.318 -0.4174 -0.3191  0.2674
 8107SOL    HW229452   5.786   2.550   6.279 -0.8055  1.0877 -0.2990
 8108SOL     OW29453   2.725   1.461   4.754 -0.0840  0.5928 -0.1792
 8108SOL    HW129454   2.798   1.413   4.715 -1.1541  0.0583 -1.5256
 8108SOL    HW229455   2.673   1.394   4.799 -0.2238  0.8445  0.0385
 8109SOL     OW29456  10.340   5.985  11.281  0.1010  0.2916 -0.1036
 8109SOL    HW129457  10.251   6.000  11.251  0.7084  1.2592 -1.4603
 8109SOL    HW229458  10.334   5.989  11.377 -1.2663  0.5346 -0.1902
 8110SOL     OW29459   5.866   4.232   7.121 -0.5946  0.1040 -0.3219
 8110SOL    HW129460   5.875   4.247   7.215 -0.7543  0.0756 -0.3011
 8110SOL    HW229461   5.878   4.318   7.081 -0.4355  0.1003 -0.2823
 8111SOL     OW29462   4.677   3.762  10.540 -0.1209 -0.0715  1.2213
 8111SOL    HW129463   4.707   3.733  10.627 -1.0825 -1.1340  1.2181
 8111SOL    HW229464   4.703   3.691  10.482 -1.2377 -0.2856  0.9718
 8112SOL     OW29465   9.103   6.038   0.284 -0.7228 -0.2938  0.0835
 8112SOL    HW129466   9.161   6.060   0.357 -0.2479  0.6974 -0.5830
 8112SOL    HW229467   9.153   5.975   0.232 -0.0712  0.8793 -0.7176
 8113SOL     OW29468   1.479   6.378  10.381 -0.5357 -0.4295 -0.7900
 8113SOL    HW129469   1.402   6.430  10.361 -0.5712  0.3379  1.2192
 8113SOL    HW229470   1.532   6.381  10.301 -2.8473 -1.4958 -2.4150
 8114SOL     OW29471   8.972   6.631   6.584 -0.3198  0.4698 -0.1958
 8114SOL    HW129472   9.014   6.571   6.523  0.2278  0.3030  0.3458
 8114SOL    HW229473   8.918   6.688   6.528 -0.7163 -0.4158 -0.7241
 8115SOL     OW29474   5.198   0.147   2.052 -0.6612 -0.2256 -0.3934
 8115SOL    HW129475   5.117   0.124   2.097 -0.5726  0.9765  0.4098
 8115SOL    HW229476   5.249   0.066   2.050 -1.3673 -0.6850  0.1819
 8116SOL     OW29477   1.702   0.074   3.934 -0.4366  0.5189 -0.0025
 8116SOL    HW129478   1.690  -0.019   3.953  0.6089  0.4616  0.4052
 8116SOL    HW229479   1.701   0.117   4.019  0.2252  0.7431 -0.1062
 8117SOL     OW29480   5.553   2.177   4.803 -0.0627  0.5345  0.2300
 8117SOL    HW129481   5.472   2.157   4.758  0.4291 -2.2226  0.5045
 8117SOL    HW229482   5.537   2.150   4.894  0.8885  0.7395  0.4645
 8118SOL     OW29483   2.360   8.850   2.044  0.3005 -0.1338  0.4441
 8118SOL    HW129484   2.290   8.906   2.011 -1.7067 -1.0739  2.9618
 8118SOL    HW229485   2.414   8.908   2.097 -0.9362 -0.2462  1.8482
 8119SOL     OW29486  10.445   9.510   4.126  0.4514 -0.0174 -0.1639
 8119SOL    HW129487  10.396   9.593   4.124  0.0802 -0.2290  0.1181
 8119SOL    HW229488  10.514   9.521   4.060 -0.4200  0.0007 -1.0716
 8120SOL     OW29489   8.983   9.635   9.275 -1.2841  0.5868 -0.3694
 8120SOL    HW129490   8.902   9.588   9.257 -0.2601 -1.6916  0.7518
 8120SOL    HW229491   8.984   9.647   9.370 -0.7057  1.3545 -0.4626
 8121SOL     OW29492   9.454   0.358   9.998  0.0444  0.1755 -0.0012
 8121SOL    HW129493   9.407   0.410  10.064 -1.6478 -1.2686 -0.0214
 8121SOL    HW229494   9.387   0.299   9.963  1.3502 -0.2779 -1.7664
 8122SOL     OW29495   5.936   0.367   1.194  0.2265  0.0468 -0.0511
 8122SOL    HW129496   5.908   0.365   1.285  2.0312 -0.4213  0.5024
 8122SOL    HW229497   5.908   0.453   1.162  1.3625  1.0089  1.5203
 8123SOL     OW29498   3.099   2.220   4.631  0.5946  0.3863  0.5049
 8123SOL    HW129499   3.136   2.292   4.581 -0.7251  0.1385 -0.8620
 8123SOL    HW229500   3.075   2.155   4.565  0.4479 -0.6956  1.6046
 8124SOL     OW29501   0.734   4.377  10.512  0.5942  0.0349  0.0653
 8124SOL    HW129502   0.817   4.402  10.472 -0.1070 -1.1331 -2.2520
 8124SOL    HW229503   0.678   4.454  10.502  0.8897  0.2551  0.1279
 8125SOL     OW29504   2.465   2.117   0.989  0.5267  0.1631  0.2275
 8125SOL    HW129505   2.499   2.097   0.902 -1.4330 -1.6509 -0.1696
 8125SOL    HW229506   2.394   2.179   0.973 -0.2085 -0.6058  0.4548
 8126SOL     OW29507   9.885   7.040   9.590 -0.3276 -0.2358  0.1953
 8126SOL    HW129508   9.918   6.952   9.572  0.2045 -0.1651  0.7987
 8126SOL    HW229509   9.800   7.026   9.632  1.2325 -0.5636  3.3609
 8127SOL     OW29510  10.526   9.640   5.318 -0.2006  0.1141  0.3075
 8127SOL    HW129511  10.596   9.651   5.382 -1.6537  0.2834  1.8824
 8127SOL    HW229512  10.448   9.621   5.370 -1.9133  2.5844 -1.2741
 8128SOL     OW29513   2.563   0.835  10.201 -0.3520  0.2891  0.0262
 8128SOL    HW129514   2.474   0.868  10.210 -0.6549  0.8821 -4.0849
 8128SOL    HW229515   2.558   0.743  10.226 -1.7942  0.6231  1.0380
 8129SOL     OW29516  10.051   6.033   6.867 -0.6026  0.1702  0.0273
 8129SOL    HW129517  10.088   6.082   6.941 -2.2149  0.8491  0.4033
 8129SOL    HW229518  10.120   5.971   6.843  1.2899  2.3068 -0.1628
 8130SOL     OW29519   7.787   3.440   1.331 -0.1465 -0.0666 -0.5232
 8130SOL    HW129520   7.807   3.434   1.424 -1.3841  1.2947 -0.1597
 8130SOL    HW229521   7.783   3.349   1.302  1.5690 -0.4733  0.4502
 8131SOL     OW29522   9.715   4.729   1.238 -0.0263  0.4959 -0.0928
 8131SOL    HW129523   9.743   4.820   1.223  0.0414  0.4601 -0.1898
 8131SOL    HW229524   9.793   4.677   1.217  0.1488  0.4557  0.6308
 8132SOL     OW29525  10.257   1.676   8.161  0.7998 -0.3884 -0.3136
 8132SOL    HW129526  10.240   1.582   8.155  0.7243 -0.3478 -0.7330
 8132SOL    HW229527  10.170   1.716   8.164  0.8221 -0.2525 -1.3568
 8133SOL     OW29528  10.533   5.036   7.211 -0.1584  0.6506  0.4629
 8133SOL    HW129529  10.562   5.046   7.120 -0.8187 -0.2857  0.1463
 8133SOL    HW229530  10.469   4.965   7.209 -1.2044  1.5301  1.4314
 8134SOL     OW29531   5.722   7.462  10.994  0.0667 -0.2051  0.2275
 8134SOL    HW129532   5.630   7.436  10.991  0.7546 -2.6906 -1.7319
 8134SOL    HW229533   5.764   7.395  11.048  1.0608 -0.3214 -0.6662
 8135SOL     OW29534   2.002  10.513   6.648 -0.3025 -0.2690  0.1041
 8135SOL    HW129535   2.075  10.574   6.660 -0.3648 -0.0953 -0.3794
 8135SOL    HW229536   2.035  10.429   6.677 -0.3978  0.1050  1.3281
 8136SOL     OW29537  10.329   5.664   0.155 -0.3645  0.5347 -0.6299
 8136SOL    HW129538  10.266   5.592   0.147 -0.1198  0.3366 -0.7971
 8136SOL    HW229539  10.290   5.723   0.219  0.0099 -0.3799  0.4672
 8137SOL     OW29540   1.673   9.398   4.265  0.2795 -0.1731  0.0390
 8137SOL    HW129541   1.750   9.369   4.216 -0.9393 -0.4281 -1.8061
 8137SOL    HW229542   1.681   9.494   4.268  1.5990 -0.3236  1.4755
 8138SOL     OW29543   3.817   4.442   0.161  0.2634 -0.0406 -0.1984
 8138SOL    HW129544   3.908   4.469   0.160  0.2511 -0.0052 -0.3992
 8138SOL    HW229545   3.770   4.514   0.119  0.1850 -0.2063 -0.3941
 8139SOL     OW29546   9.108   6.286   9.318 -0.1040  0.2694  0.1294
 8139SOL    HW129547   9.176   6.344   9.284 -1.6158  1.2856 -1.1948
 8139SOL    HW229548   9.127   6.201   9.279 -0.4630  0.8964 -1.4541
 8140SOL     OW29549   1.749   3.834   7.529  0.2949  0.3098  0.1322
 8140SOL    HW129550   1.707   3.847   7.614  0.0838 -0.4008  0.1399
 8140SOL    HW229551   1.728   3.913   7.479  1.4925  1.3175  1.1716
 8141SOL     OW29552   3.492   8.825   2.805 -0.1114 -0.1823 -0.4558
 8141SOL    HW129553   3.510   8.764   2.877 -0.0608  0.6996  0.2978
 8141SOL    HW229554   3.520   8.910   2.839  0.4287  0.1542 -1.7409
 8142SOL     OW29555   1.527   9.537   8.615 -0.3282  0.3041 -0.2001
 8142SOL    HW129556   1.447   9.518   8.566 -0.1527  1.1067 -0.8061
 8142SOL    HW229557   1.503   9.522   8.706 -0.7160 -1.0050 -0.5070
 8143SOL     OW29558   1.422   1.363   2.043 -0.2571 -0.1264 -0.4393
 8143SOL    HW129559   1.432   1.409   1.959  0.6118  3.3065  1.4764
 8143SOL    HW229560   1.344   1.400   2.082  0.8317  0.2122  1.4457
 8144SOL     OW29561   8.486   4.646   5.254  0.1153  0.4110  0.0677
 8144SOL    HW129562   8.557   4.710   5.257 -0.3691  1.0121 -0.9172
 8144SOL    HW229563   8.447   4.657   5.167  1.3082 -2.6295 -0.9456
 8145SOL     OW29564   0.277   6.027   3.608  0.1653  0.2556  0.4298
 8145SOL    HW129565   0.218   5.953   3.593  0.0546  0.5962 -0.8786
 8145SOL    HW229566   0.220   6.103   3.611  0.3247  0.3405  1.3402
 8146SOL     OW29567   4.927   9.636  10.326 -0.1967  0.1366  0.2099
 8146SOL    HW129568   4.906   9.729  10.329  1.0247  0.3931  1.0640
 8146SOL    HW229569   4.989   9.623  10.397 -1.3943 -1.5937  0.9738
 8147SOL     OW29570   5.913   4.503   6.308  0.3508  0.3698  0.0253
 8147SOL    HW129571   5.877   4.421   6.275  1.0052 -0.1060  0.4872
 8147SOL    HW229572   5.849   4.570   6.282  0.3710 -0.1268 -1.3301
 8148SOL     OW29573   4.926   1.478   7.435 -0.7236 -0.1296  0.0902
 8148SOL    HW129574   4.986   1.498   7.363 -1.0744  0.1183 -0.1388
 8148SOL    HW229575   4.843   1.518   7.409 -0.7397  0.3322  0.8370
 8149SOL     OW29576   1.684   3.782   8.359  0.2417 -0.8455 -0.3062
 8149SOL    HW129577   1.590   3.797   8.365  0.4845  0.7338 -0.0936
 8149SOL    HW229578   1.696   3.735   8.277 -0.6525 -0.1833 -0.8290
 8150SOL     OW29579  10.284   7.526   2.121 -0.1833  0.3608 -0.2716
 8150SOL    HW129580  10.330   7.457   2.074 -2.5494 -0.3256 -1.6661
 8150SOL    HW229581  10.239   7.576   2.052 -0.6106  1.6855  0.9445
 8151SOL     OW29582   7.598   2.246   9.361 -0.1358  0.0835 -0.7057
 8151SOL    HW129583   7.576   2.231   9.269  2.1705  3.1758 -1.8648
 8151SOL    HW229584   7.684   2.206   9.372 -0.1746  0.1734 -0.0634
 8152SOL     OW29585   3.280   6.590   3.431 -0.2017 -0.0734 -0.3642
 8152SOL    HW129586   3.293   6.526   3.501  1.4020 -1.3994 -1.8247
 8152SOL    HW229587   3.368   6.621   3.410 -0.6703  0.3723 -1.7432
 8153SOL     OW29588   4.471   1.211   7.210 -0.1466  0.0527  0.5811
 8153SOL    HW129589   4.462   1.296   7.166  1.6703 -0.3982 -0.7104
 8153SOL    HW229590   4.510   1.232   7.295  0.2788  0.5285  0.2728
 8154SOL     OW29591   5.927   2.824   0.424  0.1814  0.0125 -0.1513
 8154SOL    HW129592   5.980   2.782   0.492 -0.5888 -2.4380 -0.9988
 8154SOL    HW229593   5.925   2.916   0.449  0.5749 -0.6901  2.7197
 8155SOL     OW29594   0.815   1.281   8.805 -0.2770 -0.0860 -0.3781
 8155SOL    HW129595   0.790   1.247   8.890  1.6404 -1.4433 -0.3162
 8155SOL    HW229596   0.819   1.376   8.817 -1.7937 -0.1275  0.5295
 8156SOL     OW29597   5.736   5.973   4.986  0.0652  0.3748  0.0066
 8156SOL    HW129598   5.796   6.034   4.943 -0.3204  0.0164 -1.0476
 8156SOL    HW229599   5.792   5.911   5.032  0.4661  2.3569  2.2876
 8157SOL     OW29600   1.293   5.268   0.762 -0.0966  0.3116  0.4512
 8157SOL    HW129601   1.242   5.194   0.729 -0.1178  0.2220  0.6829
 8157SOL    HW229602   1.374   5.228   0.794 -0.2869  0.3345  0.9698
 8158SOL     OW29603   5.783   6.870   4.182  0.2140  0.1582  0.1164
 8158SOL    HW129604   5.793   6.780   4.211 -0.4233  0.5191  1.4471
 8158SOL    HW229605   5.808   6.868   4.089  1.8965 -1.0557  0.5656
 8159SOL     OW29606   0.606   7.375   8.045  0.1094  0.2144 -0.2204
 8159SOL    HW129607   0.580   7.460   8.082 -0.3614 -0.1320  0.2453
 8159SOL    HW229608   0.647   7.329   8.118  0.5419  0.1157 -0.5274
 8160SOL     OW29609   7.735   5.923   4.268 -0.5230  0.2840 -0.0886
 8160SOL    HW129610   7.643   5.899   4.258 -0.3048 -0.5010 -0.2902
 8160SOL    HW229611   7.741   5.960   4.356 -0.8838 -0.3765  0.2211
 8161SOL     OW29612   5.742   0.909   1.791 -0.1206 -0.5315 -0.3620
 8161SOL    HW129613   5.668   0.927   1.732  0.4435 -1.9654 -1.5414
 8161SOL    HW229614   5.797   0.987   1.785  0.5976 -1.1635 -2.7963
 8162SOL     OW29615   1.348   2.150   8.752  0.5386  0.9462 -0.0166
 8162SOL    HW129616   1.317   2.226   8.803  0.1471  2.3441 -2.2836
 8162SOL    HW229617   1.301   2.156   8.669 -0.5520 -2.6149  0.2727
 8163SOL     OW29618   3.487  11.157   4.675 -0.3338  0.1732 -0.0978
 8163SOL    HW129619   3.482  11.125   4.765  0.5290  2.1776  0.6954
 8163SOL    HW229620   3.562  11.112   4.638 -0.7323 -0.7116  0.1575
 8164SOL     OW29621  11.247   2.548  10.754 -0.5729  0.0093  0.3297
 8164SOL    HW129622  11.250   2.469  10.701  1.1149  0.3475 -0.1098
 8164SOL    HW229623  11.157   2.581  10.744 -0.6292 -0.6116 -1.2953
 8165SOL     OW29624   8.844   5.484   1.261 -0.0318 -0.4800 -0.3010
 8165SOL    HW129625   8.871   5.475   1.170  1.7337  1.3047 -0.0032
 8165SOL    HW229626   8.784   5.559   1.261 -1.2298 -1.4247 -0.2116
 8166SOL     OW29627   4.979  11.197   2.729 -0.3838 -0.0379  0.4330
 8166SOL    HW129628   4.965  11.106   2.758  0.1974 -0.0391  0.7176
 8166SOL    HW229629   4.981  11.248   2.810  0.1276  0.1136  0.3272
 8167SOL     OW29630   5.734   4.350   0.032  0.2993  0.3043 -0.6240
 8167SOL    HW129631   5.786   4.410   0.086 -0.2443  0.7019 -0.5441
 8167SOL    HW229632   5.796   4.280   0.009  1.4490  1.8016 -2.2231
 8168SOL     OW29633   5.861  11.284   2.834  0.3422  0.9203 -0.2614
 8168SOL    HW129634   5.844  11.310   2.743 -0.5743  0.1709 -0.3176
 8168SOL    HW229635   5.774  11.271   2.871  0.7397 -1.1175  0.0286
 8169SOL     OW29636   2.453  10.462   2.760 -0.2328 -0.6643 -0.4448
 8169SOL    HW129637   2.527  10.484   2.818 -0.3839  0.3024 -0.5999
 8169SOL    HW229638   2.384  10.432   2.820 -0.0712 -0.5578 -0.2032
 8170SOL     OW29639   1.585   5.614   2.266  0.3605 -0.2080  0.3907
 8170SOL    HW129640   1.565   5.524   2.293 -0.2304  0.7699  3.4188
 8170SOL    HW229641   1.647   5.604   2.193  1.0517 -3.0365  1.2885
 8171SOL     OW29642   9.327  10.330   3.829  0.6448 -0.2216  0.0387
 8171SOL    HW129643   9.268  10.353   3.757  1.5684 -0.3106 -0.7574
 8171SOL    HW229644   9.310  10.237   3.845  0.9535 -0.3855 -0.5632
 8172SOL     OW29645   9.380   3.730   2.115  0.1620 -0.0508  0.4820
 8172SOL    HW129646   9.315   3.744   2.184  0.1661 -1.6332  0.8423
 8172SOL    HW229647   9.457   3.697   2.161  0.8760  0.8320 -0.0582
 8173SOL     OW29648   5.962   3.907   3.445 -0.0334  0.6601  0.8949
 8173SOL    HW129649   5.903   3.910   3.521 -1.8896  0.7388 -0.5066
 8173SOL    HW229650   5.916   3.957   3.378  0.6248 -1.1617 -0.9327
 8174SOL     OW29651  11.283   8.783   1.619  0.7899 -0.1161 -0.6810
 8174SOL    HW129652  11.222   8.725   1.573  2.0374 -3.3103  1.5154
 8174SOL    HW229653  11.234   8.814   1.695  0.7157  0.3071 -0.8978
 8175SOL     OW29654   8.400   1.227   9.754 -0.3825 -0.6683 -0.0923
 8175SOL    HW129655   8.344   1.220   9.832 -0.4124 -1.4962 -0.1854
 8175SOL    HW229656   8.345   1.269   9.688 -0.5639 -0.5517  0.1322
 8176SOL     OW29657   0.500   5.660   3.878  0.4400  0.2170 -0.1699
 8176SOL    HW129658   0.487   5.566   3.864  0.8932  0.1098  0.1069
 8176SOL    HW229659   0.549   5.690   3.801 -1.5079  0.6437 -1.2700
 8177SOL     OW29660   3.416   4.209  10.624 -0.4961  0.3163  0.2091
 8177SOL    HW129661   3.389   4.117  10.620 -0.9019  0.4202  0.5661
 8177SOL    HW229662   3.357   4.254  10.563 -2.2517  0.8154  2.2442
 8178SOL     OW29663   1.437   6.752   9.721 -0.3311  0.4567  0.1907
 8178SOL    HW129664   1.408   6.715   9.638 -0.2387  2.7985 -0.9014
 8178SOL    HW229665   1.469   6.676   9.771 -0.0177 -0.9143 -2.0348
 8179SOL     OW29666   7.857   2.619   4.724 -0.3207  0.5150  0.2689
 8179SOL    HW129667   7.912   2.605   4.647  2.6732  3.6711  1.7074
 8179SOL    HW229668   7.771   2.643   4.689 -0.2810 -2.4634 -2.0236
 8180SOL     OW29669   8.461   0.959   7.212  0.3986 -0.2434  0.2443
 8180SOL    HW129670   8.417   0.887   7.166 -0.7871  1.7868 -1.8910
 8180SOL    HW229671   8.392   1.023   7.228  1.7928  1.2351  0.4515
 8181SOL     OW29672   0.383   0.071  10.305 -0.1429  0.1325 -0.0474
 8181SOL    HW129673   0.440   0.005  10.265 -0.6258 -0.1688 -0.2562
 8181SOL    HW229674   0.431   0.153  10.298  0.7067 -0.3001  0.7192
 8182SOL     OW29675   5.031   9.155   3.061  0.3247  0.0307  0.4070
 8182SOL    HW129676   4.984   9.174   3.142 -0.0799 -0.2464  0.2338
 8182SOL    HW229677   4.965   9.122   3.001  0.4603  1.0225 -0.3155
 8183SOL     OW29678   9.975   3.325   8.817  0.0157  0.0390  0.1126
 8183SOL    HW129679   9.958   3.238   8.853 -0.1982 -0.1370 -0.4151
 8183SOL    HW229680   9.926   3.327   8.735 -0.1908  0.7511  0.2534
 8184SOL     OW29681   6.672   6.341   6.818  0.1698  0.0317 -0.1577
 8184SOL    HW129682   6.585   6.375   6.838  0.3359  0.1241  0.4189
 8184SOL    HW229683   6.728   6.419   6.816  0.5748 -0.2102  1.2962
 8185SOL     OW29684   9.237   1.635  11.253  0.0777 -0.4167 -0.5180
 8185SOL    HW129685   9.269   1.639  11.344 -1.1243 -1.2879 -0.0421
 8185SOL    HW229686   9.142   1.634  11.261 -0.0352 -2.7045 -1.6784
 8186SOL     OW29687   7.931   3.000   7.370 -0.3512 -0.0141  0.6998
 8186SOL    HW129688   7.851   2.950   7.387 -0.0424 -1.4333 -1.7588
 8186SOL    HW229689   7.900   3.085   7.338 -0.8758  0.2018  1.7806
 8187SOL     OW29690   2.165   4.236   8.752  0.5773  0.1636 -0.3148
 8187SOL    HW129691   2.187   4.175   8.822  0.6304 -2.8510 -2.8437
 8187SOL    HW229692   2.097   4.292   8.790  0.1812 -1.7557  1.9464
 8188SOL     OW29693   0.818   2.023   4.474  0.6492  0.7910  0.2969
 8188SOL    HW129694   0.789   2.009   4.384  0.4507 -2.1227  0.7579
 8188SOL    HW229695   0.868   2.105   4.471 -0.6315  1.5226 -2.1391
 8189SOL     OW29696   9.629  10.092   0.196 -0.1229  0.1157 -0.2411
 8189SOL    HW129697   9.717  10.056   0.207  0.7367  1.9320 -1.0170
 8189SOL    HW229698   9.587  10.034   0.132  0.8044 -0.2577 -0.5133
 8190SOL     OW29699   1.570  10.918   1.995 -0.5157  0.2832 -0.1303
 8190SOL    HW129700   1.653  10.900   2.039  0.5707  2.0174 -1.4163
 8190SOL    HW229701   1.507  10.929   2.067  0.3941 -0.8260  0.8579
 8191SOL     OW29702   8.224   0.950   1.849  0.4859 -0.1405  0.4035
 8191SOL    HW129703   8.277   1.024   1.819 -0.3197 -0.7034 -2.6163
 8191SOL    HW229704   8.139   0.990   1.870  1.5156  0.4973  3.6019
 8192SOL     OW29705   5.931  10.045   0.823 -0.2658  0.3876  0.3984
 8192SOL    HW129706   5.950  10.131   0.861 -0.0191 -0.2073  1.6625
 8192SOL    HW229707   5.923  10.061   0.729 -0.3776  1.8167  0.6408
 8193SOL     OW29708   1.646  10.152   0.711 -0.0874  0.2655  0.4302
 8193SOL    HW129709   1.589  10.147   0.787  0.5562  0.2209  0.9125
 8193SOL    HW229710   1.664  10.061   0.688 -0.2614  0.2780  0.2330
 8194SOL     OW29711  10.293   7.434   4.896 -0.0626  0.5107  0.0955
 8194SOL    HW129712  10.197   7.434   4.892 -0.1194  0.1416  1.1258
 8194SOL    HW229713  10.320   7.485   4.821 -1.0900  1.0115  0.0524
 8195SOL     OW29714   6.159   3.125   9.174  0.4603 -0.0450 -0.6261
 8195SOL    HW129715   6.131   3.095   9.260  4.1012  0.4458  0.8486
 8195SOL    HW229716   6.148   3.220   9.176  0.0305 -0.0876 -0.9102
 8196SOL     OW29717   8.525   7.158   6.060 -0.0714  0.0815  0.4717
 8196SOL    HW129718   8.560   7.245   6.039  1.0366 -0.4931 -0.1447
 8196SOL    HW229719   8.445   7.150   6.009 -1.0434  1.3540  1.7573
 8197SOL     OW29720   9.634   9.044   9.716 -0.4505  0.0926  0.0908
 8197SOL    HW129721   9.641   9.139   9.707  2.0624 -0.1506 -0.6615
 8197SOL    HW229722   9.543   9.025   9.691 -1.0049  2.2987  0.3323
 8198SOL     OW29723   0.351  10.345   8.586 -0.5760  0.4243  0.1980
 8198SOL    HW129724   0.368  10.306   8.501  2.2740  0.0321  0.8973
 8198SOL    HW229725   0.404  10.425   8.588 -0.5737  0.4078  1.6070
 8199SOL     OW29726   4.573  10.237  10.584 -0.1783 -0.0486 -0.8524
 8199SOL    HW129727   4.648  10.295  10.595  0.3096 -0.7883 -0.2255
 8199SOL    HW229728   4.592  10.162  10.640 -1.8978  0.2371  0.1439
 8200SOL     OW29729   9.958   1.136   6.787  0.3094  0.0707  0.4050
 8200SOL    HW129730  10.021   1.208   6.779 -1.1137  1.4523  1.2737
 8200SOL    HW229731   9.925   1.123   6.698  1.2358 -0.1435  0.0839
 8201SOL     OW29732   2.383   9.566   0.460 -0.1657  0.0282 -0.5304
 8201SOL    HW129733   2.368   9.656   0.430 -0.8886  0.0817 -0.0301
 8201SOL    HW229734   2.381   9.572   0.555  2.4867 -0.0890 -0.4389
 8202SOL     OW29735  11.019   9.566   8.614  0.1834 -0.3286  0.0093
 8202SOL    HW129736  11.032   9.471   8.610 -1.7535 -0.6445  0.3497
 8202SOL    HW229737  11.018   9.594   8.523 -0.9503 -0.9172 -0.1725
 8203SOL     OW29738  10.879   0.639   8.829  0.1810  0.2974  0.1150
 8203SOL    HW129739  10.810   0.701   8.851  0.0088 -0.0121  0.4701
 8203SOL    HW229740  10.841   0.553   8.850  0.7526  0.1413  0.5321
 8204SOL     OW29741   1.279   4.736   3.463  0.8359 -0.4008 -0.1892
 8204SOL    HW129742   1.317   4.648   3.453  1.1801 -0.3191  0.3845
 8204SOL    HW229743   1.351   4.796   3.446  0.1613 -0.1863 -2.4553
 8205SOL     OW29744   6.172   1.377   0.660 -0.2275  0.1914  0.3244
 8205SOL    HW129745   6.092   1.384   0.609 -1.2805 -0.0769  1.8824
 8205SOL    HW229746   6.195   1.284   0.656  0.8758  0.5142 -1.3700
 8206SOL     OW29747   8.760   0.892   0.897  0.3524  0.6059  0.1762
 8206SOL    HW129748   8.717   0.908   0.813 -0.7903 -0.2641  0.5754
 8206SOL    HW229749   8.837   0.839   0.875 -0.8076 -0.9637 -0.1620
 8207SOL     OW29750   0.080   7.209   5.574 -0.1935  0.5151 -0.6442
 8207SOL    HW129751   0.137   7.181   5.646  1.7549  2.8828 -1.1823
 8207SOL    HW229752   0.030   7.282   5.610 -3.3703 -1.8845 -0.0133
 8208SOL     OW29753  10.641   5.314   3.604  0.2579  0.2622  0.0571
 8208SOL    HW129754  10.687   5.326   3.687  1.8468  1.6777 -0.9812
 8208SOL    HW229755  10.553   5.286   3.628  0.5581  1.1400  2.2232
 8209SOL     OW29756   1.103   8.004   5.406  0.5825  0.1821  0.2296
 8209SOL    HW129757   1.101   7.911   5.382 -2.0080  0.4181 -0.5921
 8209SOL    HW229758   1.017   8.021   5.444  0.7250  2.4428 -0.4048
 8210SOL     OW29759   4.693   2.585   3.841  0.1120  0.1579 -0.2215
 8210SOL    HW129760   4.641   2.665   3.836  0.2237  0.4215  2.1506
 8210SOL    HW229761   4.763   2.597   3.777 -1.0862  1.0161 -1.4021
 8211SOL     OW29762   2.737   5.761   0.890  0.0145 -0.3154  0.1263
 8211SOL    HW129763   2.740   5.828   0.958  2.2539  0.7272 -0.9374
 8211SOL    HW229764   2.778   5.684   0.929 -1.2380 -0.6103  0.8696
 8212SOL     OW29765   5.111   2.654  10.767 -0.4810 -0.4274 -0.1718
 8212SOL    HW129766   5.155   2.605  10.836 -0.2919  0.9889  0.7239
 8212SOL    HW229767   5.036   2.695  10.810 -0.9091 -0.2964 -1.0160
 8213SOL     OW29768   5.118   9.853   9.089  0.6403 -0.3441  0.3164
 8213SOL    HW129769   5.152   9.883   9.174 -0.5775  0.8326  0.4087
 8213SOL    HW229770   5.023   9.856   9.099  0.4907 -0.5164 -0.9919
 8214SOL     OW29771  10.980   3.017   2.659  0.5253 -0.0774  0.0848
 8214SOL    HW129772  10.909   3.058   2.610  0.7544  0.3651  0.1179
 8214SOL    HW229773  11.055   3.075   2.646  0.2633  0.7274  1.9894
 8215SOL     OW29774   9.570   1.756   3.601  0.0975  0.0188  0.3365
 8215SOL    HW129775   9.477   1.776   3.615  0.2907  1.3940 -0.2904
 8215SOL    HW229776   9.569   1.678   3.547 -0.7352  1.2874 -1.5372
 8216SOL     OW29777   9.881   0.077   4.204  0.5833 -0.1921 -0.3794
 8216SOL    HW129778   9.930   0.003   4.168  0.7593 -0.2556 -0.0181
 8216SOL    HW229779   9.949   0.135   4.238  0.4313  0.0005 -0.4085
 8217SOL     OW29780   2.073   7.899   0.140 -0.1258 -0.3614  0.3798
 8217SOL    HW129781   2.004   7.847   0.100  2.2312 -1.5614 -2.3470
 8217SOL    HW229782   2.095   7.964   0.074 -0.9997  2.2872  2.5986
 8218SOL     OW29783   2.866   5.824   9.315  0.0554  1.1330  0.5139
 8218SOL    HW129784   2.949   5.777   9.323 -1.2852 -1.5179 -0.7821
 8218SOL    HW229785   2.804   5.773   9.367 -1.2485  1.9143 -0.2493
 8219SOL     OW29786   9.141   2.742   1.842  0.1404 -0.1696 -0.2043
 8219SOL    HW129787   9.139   2.675   1.774  1.4575 -0.9400  0.4866
 8219SOL    HW229788   9.127   2.824   1.795  2.4017 -0.5459 -1.6167
 8220SOL     OW29789   6.134   3.138   0.518 -0.2564 -0.3046 -0.5058
 8220SOL    HW129790   6.117   3.183   0.434 -0.7067 -2.9556 -1.8902
 8220SOL    HW229791   6.192   3.198   0.565 -0.3956  1.4902 -2.4951
 8221SOL     OW29792   9.185   6.335   7.101  0.6607  0.3441  0.4529
 8221SOL    HW129793   9.187   6.397   7.173  1.1628  2.0362 -0.9773
 8221SOL    HW229794   9.096   6.340   7.068  0.7249  0.3812  0.2834
 8222SOL     OW29795   2.508   2.314   6.846 -0.7942  0.2421 -0.3114
 8222SOL    HW129796   2.561   2.367   6.907 -0.4528 -0.5270  0.0638
 8222SOL    HW229797   2.439   2.277   6.900 -1.0733  0.3487 -0.5913
 8223SOL     OW29798   0.338   5.458   4.135 -0.6290 -0.3353  0.2053
 8223SOL    HW129799   0.258   5.429   4.092 -1.0900  1.4054 -0.1639
 8223SOL    HW229800   0.406   5.452   4.068 -0.8837  0.1800 -0.1014
 8224SOL     OW29801   0.285   9.820   8.393 -0.3893  0.6533 -0.3862
 8224SOL    HW129802   0.324   9.817   8.481 -1.8280  1.0127  0.2786
 8224SOL    HW229803   0.299   9.732   8.358  1.0529  0.7874 -0.1918
 8225SOL     OW29804  10.106   5.439   7.221  0.0138  0.3839  0.4747
 8225SOL    HW129805  10.076   5.515   7.171 -1.0472 -0.1939  0.2002
 8225SOL    HW229806  10.153   5.476   7.295  0.2994  1.2858 -0.1451
 8226SOL     OW29807   6.444   5.230   3.428 -0.5628 -0.5857  0.4840
 8226SOL    HW129808   6.401   5.293   3.485  0.6097  1.2958 -0.6767
 8226SOL    HW229809   6.537   5.247   3.439 -0.2775 -1.2331 -0.8286
 8227SOL     OW29810   0.240   1.752   8.374 -0.2372  0.0416 -0.0214
 8227SOL    HW129811   0.215   1.765   8.283 -0.2028 -1.2300 -0.2161
 8227SOL    HW229812   0.237   1.657   8.387  1.1308  0.1122  0.9073
 8228SOL     OW29813   4.733  10.201   7.870  0.4433 -0.0304  0.0653
 8228SOL    HW129814   4.712  10.128   7.811  1.5317 -0.8718  0.7035
 8228SOL    HW229815   4.699  10.174   7.955 -1.3516  1.2901 -0.2015
 8229SOL     OW29816   9.984   0.114   8.506 -0.2718  0.3353 -0.2056
 8229SOL    HW129817   9.981   0.210   8.504 -1.7368  0.3181  0.5217
 8229SOL    HW229818  10.037   0.093   8.584  0.7185  0.5506 -0.8152
 8230SOL     OW29819   1.459   2.233   1.622  0.3517  0.4895 -0.4368
 8230SOL    HW129820   1.435   2.249   1.531  0.0013 -1.2123 -0.6634
 8230SOL    HW229821   1.544   2.275   1.633  0.4141  0.6723 -1.5677
 8231SOL     OW29822   6.862   1.758   8.939  0.3361  0.2683 -0.2329
 8231SOL    HW129823   6.945   1.726   8.903 -0.3687  0.6825 -2.3203
 8231SOL    HW229824   6.861   1.851   8.917  0.2994  0.7737  1.7684
 8232SOL     OW29825  10.090  10.928   7.960 -0.4078 -0.4764  0.3745
 8232SOL    HW129826  10.083  11.022   7.945 -1.1929 -0.4711  0.7569
 8232SOL    HW229827  10.184  10.912   7.969 -0.1471  0.0037 -1.3463
 8233SOL     OW29828   7.402   5.950   5.836 -0.2489  0.0092 -0.2052
 8233SOL    HW129829   7.498   5.957   5.838 -0.2644  0.0122  0.6138
 8233SOL    HW229830   7.385   5.860   5.809 -0.0139 -0.0335 -0.2135
 8234SOL     OW29831   7.700   9.337   7.391  0.1770  0.2833 -0.8233
 8234SOL    HW129832   7.647   9.342   7.312  0.1067  1.2323 -0.7286
 8234SOL    HW229833   7.781   9.296   7.363 -0.3112 -0.4777 -1.1336
 8235SOL     OW29834   5.016  10.868   0.004 -0.1786 -0.1055 -0.1303
 8235SOL    HW129835   5.020  10.961   0.026  1.6521  0.4644 -2.5719
 8235SOL    HW229836   5.101  10.834   0.030 -0.5075 -0.8811 -0.0671
 8236SOL     OW29837   3.110   5.485   6.446  0.2756  0.3756 -0.2368
 8236SOL    HW129838   3.061   5.465   6.366 -0.5153  0.3329  0.2508
 8236SOL    HW229839   3.054   5.452   6.517  1.1693  0.0259  0.3094
 8237SOL     OW29840   1.721  10.411   0.037 -0.1211  0.3451  0.0020
 8237SOL    HW129841   1.634  10.451   0.030 -0.3328  0.2019  1.6223
 8237SOL    HW229842   1.709  10.321   0.006 -0.6103  0.2610  0.4246
 8238SOL     OW29843   0.673   0.129   2.982 -0.8498  0.2103 -0.0856
 8238SOL    HW129844   0.748   0.169   2.937 -1.4267  0.9231 -0.4246
 8238SOL    HW229845   0.659   0.046   2.936 -1.4032  0.9132 -1.1995
 8239SOL     OW29846   2.410   1.306   3.908 -0.1838  0.0797 -0.1061
 8239SOL    HW129847   2.485   1.253   3.883  0.7457  1.5345 -0.4747
 8239SOL    HW229848   2.430   1.336   3.996  0.4460  1.7846 -0.8041
 8240SOL     OW29849  10.563   3.622   4.007 -0.2506  0.0289  0.0420
 8240SOL    HW129850  10.615   3.607   4.086  0.3745 -1.1789 -0.5794
 8240SOL    HW229851  10.594   3.556   3.945 -2.5250 -0.7246 -0.3475
 8241SOL     OW29852  10.301   3.138   1.861  0.1433  0.4261  0.1112
 8241SOL    HW129853  10.262   3.219   1.826 -0.3257  0.1191 -0.0753
 8241SOL    HW229854  10.276   3.070   1.798  3.1282  0.6484 -1.4075
 8242SOL     OW29855   2.387   9.534   4.213 -0.0006  0.2585 -0.0574
 8242SOL    HW129856   2.400   9.609   4.154 -0.3826 -0.3997 -1.0032
 8242SOL    HW229857   2.465   9.481   4.202 -0.6512 -0.5279 -0.9837
 8243SOL     OW29858   1.611   8.497   2.527  0.0816 -0.1688 -0.1880
 8243SOL    HW129859   1.569   8.563   2.582  2.3763  0.9430  0.2921
 8243SOL    HW229860   1.576   8.513   2.439 -1.3483 -0.0236  0.3906
 8244SOL     OW29861   1.171   2.819   6.211  0.1195 -0.8317  0.0213
 8244SOL    HW129862   1.240   2.863   6.161 -0.7320  0.6422  0.1127
 8244SOL    HW229863   1.132   2.757   6.149  0.4372 -0.5003 -0.5153
 8245SOL     OW29864   3.009   5.539   4.276 -0.2965 -0.5148  0.0538
 8245SOL    HW129865   3.054   5.557   4.194  0.7765 -1.2447  0.4736
 8245SOL    HW229866   2.921   5.513   4.250  0.4728 -2.1990 -0.9625
 8246SOL     OW29867   6.707   2.618   3.798  0.2470  0.3311 -0.0256
 8246SOL    HW129868   6.626   2.608   3.748 -0.2746 -0.0167  0.8757
 8246SOL    HW229869   6.775   2.578   3.743 -0.3035  0.0328 -0.4877
 8247SOL     OW29870  10.083   8.517   5.899  0.7526  0.3684 -0.0721
 8247SOL    HW129871  10.037   8.536   5.817  0.1571  0.0946  0.1919
 8247SOL    HW229872  10.132   8.437   5.882 -0.2610 -0.3155  0.1805
 8248SOL     OW29873   0.454   1.039   4.381 -0.0773 -0.4445  0.4781
 8248SOL    HW129874   0.504   0.973   4.429 -1.5720  0.3004  3.1405
 8248SOL    HW229875   0.391   1.073   4.445 -0.3801  2.4586 -1.2689
 8249SOL     OW29876   9.581   4.505   6.025 -0.4953 -0.3754 -0.0442
 8249SOL    HW129877   9.510   4.560   5.993 -2.0870 -0.6245  2.8811
 8249SOL    HW229878   9.633   4.563   6.081 -0.0783 -0.9497  0.1676
 8250SOL     OW29879   9.040   2.658   1.254  0.3815 -0.1430 -0.0660
 8250SOL    HW129880   9.084   2.654   1.168  0.9909 -0.8507  0.2692
 8250SOL    HW229881   9.041   2.751   1.277  0.2535  0.0468 -0.8072
 8251SOL     OW29882   8.416   2.407   4.741 -0.1130  0.0779 -0.5547
 8251SOL    HW129883   8.375   2.463   4.807  0.0801  1.7773 -1.8497
 8251SOL    HW229884   8.497   2.376   4.783 -0.7647 -0.1318  0.5652
 8252SOL     OW29885   4.146   1.634   6.470 -0.2821  0.0279  0.4260
 8252SOL    HW129886   4.058   1.600   6.452 -0.3716  0.3359  0.2716
 8252SOL    HW229887   4.205   1.566   6.439 -0.4698 -0.3197  0.8160
 8253SOL     OW29888   8.774   3.648   6.053 -0.1553  0.0299 -0.3530
 8253SOL    HW129889   8.792   3.675   6.142  0.6827  3.3174 -1.4549
 8253SOL    HW229890   8.840   3.581   6.034  1.1391  0.9863  0.7311
 8254SOL     OW29891   4.815   8.690   1.102 -0.1135 -0.1450  0.2156
 8254SOL    HW129892   4.899   8.734   1.112 -0.3296 -0.0008  1.6113
 8254SOL    HW229893   4.787   8.711   1.013  1.5293 -0.5683 -0.4171
 8255SOL     OW29894   7.895   1.822   7.823 -0.0363 -0.0036  0.0764
 8255SOL    HW129895   7.879   1.807   7.917 -3.1431  1.3828 -0.1544
 8255SOL    HW229896   7.918   1.915   7.818 -0.3877  0.0465 -0.5940
 8256SOL     OW29897   7.978   7.655   0.187  0.4648 -0.1445 -0.1808
 8256SOL    HW129898   8.070   7.668   0.210  0.8288 -0.7940 -1.2042
 8256SOL    HW229899   7.931   7.657   0.270  1.3955  0.3055  0.3355
 8257SOL     OW29900   8.295   3.121   7.244 -0.2349 -0.3776 -0.5089
 8257SOL    HW129901   8.264   3.064   7.313 -3.3661  1.3461 -0.4032
 8257SOL    HW229902   8.313   3.062   7.170 -1.0204 -1.7634  0.3887
 8258SOL     OW29903   4.204   8.817   8.943  0.1431 -0.0796 -0.4710
 8258SOL    HW129904   4.225   8.746   9.002 -0.8306 -0.3998 -0.4921
 8258SOL    HW229905   4.249   8.893   8.980 -1.2857 -0.0508  1.2740
 8259SOL     OW29906   3.358   4.673   7.291 -0.4056  0.5517 -0.1277
 8259SOL    HW129907   3.318   4.733   7.228 -0.7300 -0.1089 -0.5584
 8259SOL    HW229908   3.450   4.698   7.293 -0.4843  0.8775 -0.5202
 8260SOL     OW29909   5.816   2.780   8.235  0.3931 -0.3042  0.0797
 8260SOL    HW129910   5.856   2.729   8.165 -0.9878  0.9273 -1.6225
 8260SOL    HW229911   5.800   2.716   8.305  0.8443 -1.7246 -1.1056
 8261SOL     OW29912   5.068   7.635  11.111  0.2038  0.0544 -0.4485
 8261SOL    HW129913   5.117   7.592  11.182  1.0302  1.1871 -0.3214
 8261SOL    HW229914   4.991   7.579  11.099 -0.0030 -0.1192  1.3955
 8262SOL     OW29915   1.094  10.206   6.811  0.2958  0.0139 -0.6630
 8262SOL    HW129916   1.133  10.133   6.763 -0.3404 -0.8074  0.0460
 8262SOL    HW229917   1.160  10.229   6.877  0.4308 -0.0245 -0.7851
 8263SOL     OW29918   5.458  10.504   8.991  0.0987  0.2043 -0.0163
 8263SOL    HW129919   5.402  10.523   9.066  1.1738  0.9441  0.6080
 8263SOL    HW229920   5.543  10.484   9.029  1.2663  2.9099 -1.1495
 8264SOL     OW29921   8.888   9.427  11.182  0.2992  0.2000  0.0210
 8264SOL    HW129922   8.881   9.441  11.088 -1.0141 -0.0881  0.0642
 8264SOL    HW229923   8.942   9.348  11.191  1.4279  0.9098 -0.4429
 8265SOL     OW29924   5.578   0.676   6.028 -0.0805  0.0359  0.2704
 8265SOL    HW129925   5.652   0.734   6.013 -0.1257 -0.5373 -2.4441
 8265SOL    HW229926   5.533   0.712   6.105  1.8907  1.4844  0.7672
 8266SOL     OW29927   6.175   4.042   2.699 -0.0373 -0.6882 -0.1300
 8266SOL    HW129928   6.159   4.090   2.780 -0.7070  0.3621 -0.8821
 8266SOL    HW229929   6.159   3.950   2.722  1.4467 -0.5983  1.3637
 8267SOL     OW29930   8.225   7.325   2.166 -0.0205  0.1521 -0.1158
 8267SOL    HW129931   8.188   7.392   2.223 -0.7284 -3.4480  4.0154
 8267SOL    HW229932   8.158   7.256   2.165  0.8631 -0.7215 -3.7971
 8268SOL     OW29933   2.239   6.743   1.245  0.0039  0.1346 -0.0012
 8268SOL    HW129934   2.306   6.764   1.309  0.3407 -0.6040 -0.0991
 8268SOL    HW229935   2.156   6.760   1.290  0.2529  1.8003 -0.1407
 8269SOL     OW29936   6.810   5.317   4.844  0.8327  0.3711 -0.3597
 8269SOL    HW129937   6.891   5.315   4.794  0.7804  1.9552 -0.5121
 8269SOL    HW229938   6.821   5.389   4.906 -0.8617  1.2461 -1.0599
 8270SOL     OW29939   2.057   9.839   7.491  0.2475  0.5500  0.0695
 8270SOL    HW129940   1.995   9.908   7.469 -0.2345 -0.1237 -0.7388
 8270SOL    HW229941   2.021   9.798   7.570 -0.6509 -0.1999 -0.7122
 8271SOL     OW29942  11.147   5.670  10.941  0.0994 -0.0775  0.3260
 8271SOL    HW129943  11.082   5.601  10.958  0.1068 -0.1780 -0.0539
 8271SOL    HW229944  11.139   5.688  10.848  0.1982  0.3392  0.3970
 8272SOL     OW29945   5.265   8.810  10.237  0.0565 -0.1533 -0.1417
 8272SOL    HW129946   5.224   8.889  10.203  1.0931  0.0406 -0.9728
 8272SOL    HW229947   5.322   8.841  10.308 -1.1029 -0.4106  0.9349
 8273SOL     OW29948   9.222  11.235   6.956  0.0265 -0.0382 -0.6891
 8273SOL    HW129949   9.249  11.304   7.017  0.0566 -0.7038  0.0507
 8273SOL    HW229950   9.132  11.257   6.934 -0.5791 -0.7950  0.9884
 8274SOL     OW29951   0.336   0.079  11.091  0.1055 -0.6579  0.2139
 8274SOL    HW129952   0.390   0.002  11.111  1.6945  0.2626 -0.5020
 8274SOL    HW229953   0.365   0.107  11.005  0.8095  1.8189  1.2162
 8275SOL     OW29954  10.377   6.390   6.538 -0.5034  0.2351 -0.5605
 8275SOL    HW129955  10.345   6.314   6.490 -1.7697  0.2868  0.1950
 8275SOL    HW229956  10.435   6.435   6.476  0.7475 -1.6661 -0.8114
 8276SOL     OW29957   4.169   5.748   9.128 -0.7316  0.1759  0.0749
 8276SOL    HW129958   4.195   5.660   9.157  0.2980  0.9631  1.6127
 8276SOL    HW229959   4.078   5.756   9.157 -1.3638 -0.9707 -1.5079
 8277SOL     OW29960   1.136   7.993   3.587 -0.0144 -0.1021  0.4777
 8277SOL    HW129961   1.080   8.068   3.607 -0.5340  0.4812 -2.7732
 8277SOL    HW229962   1.090   7.918   3.625 -1.4911  0.7577  0.4438
 8278SOL     OW29963   5.623   9.350   2.070  0.6372  0.0871 -0.0513
 8278SOL    HW129964   5.651   9.400   1.994  0.3083  0.9309  0.3660
 8278SOL    HW229965   5.693   9.287   2.085  1.0461  0.4080 -0.6090
 8279SOL     OW29966   9.973   4.601  10.081  0.1765  0.2433  0.4960
 8279SOL    HW129967  10.066   4.623  10.089  0.3733 -0.5354  0.3467
 8279SOL    HW229968   9.952   4.618   9.989  0.2035  0.2745  0.4948
 8280SOL     OW29969   4.829   2.300   0.599 -0.4081 -0.2983 -0.0253
 8280SOL    HW129970   4.750   2.341   0.634 -1.2755  0.1248 -2.4334
 8280SOL    HW229971   4.898   2.364   0.616 -0.5035 -0.7127  2.1731
 8281SOL     OW29972  10.008   9.922   8.079  0.2639 -0.7057  0.1775
 8281SOL    HW129973  10.072   9.991   8.061 -0.7435  0.3330  0.4997
 8281SOL    HW229974   9.971   9.901   7.994 -0.3052  0.0293  0.2413
 8282SOL     OW29975   8.340   7.080   3.637  0.4391  0.4265  1.0071
 8282SOL    HW129976   8.427   7.046   3.656  0.3732  0.4098  1.2801
 8282SOL    HW229977   8.354   7.172   3.617  0.8812 -0.1746 -1.6922
 8283SOL     OW29978   5.483   8.767   9.204 -0.1173 -0.0889 -0.1912
 8283SOL    HW129979   5.522   8.701   9.261  0.9810  0.3724 -0.3875
 8283SOL    HW229980   5.457   8.838   9.263  1.9537  0.8345 -0.3549
 8284SOL     OW29981   3.523   4.356   6.052 -0.1001 -0.6285  0.4841
 8284SOL    HW129982   3.516   4.265   6.022 -0.1509 -0.3450 -0.3801
 8284SOL    HW229983   3.477   4.357   6.136 -1.8729 -0.9681 -0.4432
 8285SOL     OW29984   1.034   3.026  10.430  0.2231 -0.2105  0.4942
 8285SOL    HW129985   1.010   3.010  10.338 -1.0993 -0.5805  0.8928
 8285SOL    HW229986   1.116   2.978  10.442  1.2162  1.1029 -0.9166
 8286SOL     OW29987   4.092  10.840   3.970 -0.0844 -0.2155 -0.2126
 8286SOL    HW129988   4.013  10.838   4.023 -2.4305  1.1164 -3.4594
 8286SOL    HW229989   4.120  10.931   3.972 -0.8910  0.1079 -2.1095
 8287SOL     OW29990   9.900  10.602   4.732 -0.2496 -0.1118 -0.0030
 8287SOL    HW129991   9.942  10.642   4.808 -0.6561 -2.2908  1.4200
 8287SOL    HW229992   9.813  10.641   4.730 -0.4531 -0.4806  1.0445
 8288SOL     OW29993   2.255   1.802   2.051 -0.0907 -0.4007  0.5255
 8288SOL    HW129994   2.236   1.893   2.031 -0.5436 -0.7706 -0.7914
 8288SOL    HW229995   2.177   1.754   2.024  0.5302 -1.2930  0.2713
 8289SOL     OW29996  10.838   3.083  10.742 -0.1019 -0.1204 -0.4460
 8289SOL    HW129997  10.912   3.041  10.698  0.5429 -0.7153  1.1500
 8289SOL    HW229998  10.857   3.177  10.736 -0.3695 -0.1608 -2.0061
 8290SOL     OW29999   2.936   7.981  10.122 -0.2806 -0.7767 -0.1702
 8290SOL    HW130000   2.927   8.072  10.147 -0.5147 -0.4780 -1.3096
 8290SOL    HW230001   2.885   7.932  10.186 -0.9461 -0.0278 -0.1287
 8291SOL     OW30002   5.522   4.761   1.525 -0.2503 -0.5693 -0.5272
 8291SOL    HW130003   5.537   4.851   1.553  2.5748 -1.0472 -0.4010
 8291SOL    HW230004   5.495   4.769   1.433  0.8900  0.3376 -0.7891
 8292SOL     OW30005   2.389   7.847   2.939 -0.0025  0.0923  0.0364
 8292SOL    HW130006   2.299   7.819   2.954 -0.2097 -0.1253 -1.5165
 8292SOL    HW230007   2.440   7.801   3.005 -1.0029  0.1111  0.8386
 8293SOL     OW30008   8.442   2.135   2.139  0.0578 -0.7230  0.4269
 8293SOL    HW130009   8.471   2.114   2.051 -1.1858  0.0472 -0.1725
 8293SOL    HW230010   8.362   2.083   2.152 -0.0998 -0.3760  0.8782
 8294SOL     OW30011   3.617   3.080   1.706  0.6968  0.5572  0.0618
 8294SOL    HW130012   3.704   3.043   1.689  0.5818 -0.1274  0.9158
 8294SOL    HW230013   3.556   3.008   1.685  0.4997  0.0425  2.3024
 8295SOL     OW30014   7.070   0.698   6.925 -0.1368 -0.4009  0.3253
 8295SOL    HW130015   7.089   0.702   7.019 -0.5639 -0.0294  0.3953
 8295SOL    HW230016   7.044   0.608   6.910 -0.0489 -0.4664  0.5604
 8296SOL     OW30017   2.764  10.344   2.791  0.0279  0.5720  0.0664
 8296SOL    HW130018   2.757  10.422   2.735  0.3629  0.6460  0.1305
 8296SOL    HW230019   2.762  10.271   2.729  1.4592  0.6861 -0.1319
 8297SOL     OW30020   8.040   1.542  10.639  0.3392  0.0088  0.3115
 8297SOL    HW130021   8.041   1.451  10.610  1.7361  0.2671 -0.4920
 8297SOL    HW230022   8.084   1.540  10.724 -2.3021 -0.4996  1.7070
 8298SOL     OW30023   3.639   4.619   5.675  0.6040 -1.1707  0.2944
 8298SOL    HW130024   3.652   4.652   5.764  0.2159 -1.3580  0.4215
 8298SOL    HW230025   3.680   4.685   5.619  0.1136 -0.6292  0.5668
 8299SOL     OW30026   4.558   0.534   9.876 -0.1147 -0.6033 -0.1759
 8299SOL    HW130027   4.494   0.602   9.897 -1.1561 -1.7045  0.2897
 8299SOL    HW230028   4.635   0.556   9.929 -1.5166 -1.4677  2.2956
 8300SOL     OW30029   2.196   6.047   9.973  0.3860  0.1919  0.2427
 8300SOL    HW130030   2.193   5.973  10.033  0.0812 -1.7342 -2.0890
 8300SOL    HW230031   2.274   6.031   9.919 -0.6801  0.6273 -1.4487
 8301SOL     OW30032   9.877  10.048   8.758 -0.1463 -0.3177 -0.2525
 8301SOL    HW130033   9.920   9.993   8.824  1.2910 -2.3527 -2.7658
 8301SOL    HW230034   9.917  10.134   8.769  1.5400 -1.1343  0.2149
 8302SOL     OW30035   4.372   4.029   9.320  0.2023  0.0724  0.6198
 8302SOL    HW130036   4.404   4.064   9.237 -0.2349  1.3383  0.9700
 8302SOL    HW230037   4.279   4.054   9.323  0.6184  1.6108  2.2584
 8303SOL     OW30038  11.206   5.059   0.002 -0.4468  0.3106  0.6473
 8303SOL    HW130039  11.224   5.153   0.007  1.5496 -0.0842  1.5345
 8303SOL    HW230040  11.142   5.050  -0.068 -0.0556  2.2527  0.0248
 8304SOL     OW30041   2.954   6.257   9.064  0.0044 -0.0445  0.0637
 8304SOL    HW130042   2.891   6.328   9.066  1.7058  1.4609  1.6228
 8304SOL    HW230043   2.931   6.201   9.138  0.7057  0.7126  0.8654
 8305SOL     OW30044   7.063   9.962   5.095 -0.2070  0.0852 -0.0154
 8305SOL    HW130045   7.055   9.867   5.083 -2.5118  0.4803 -2.1181
 8305SOL    HW230046   7.028   9.978   5.182  1.3634 -1.1147  0.8606
 8306SOL     OW30047   7.919   5.373  10.915  0.0031  0.0418 -0.5246
 8306SOL    HW130048   7.843   5.343  10.866 -0.3799 -1.1643  0.7628
 8306SOL    HW230049   7.970   5.423  10.852 -0.5362 -1.3514 -2.1097
 8307SOL     OW30050  10.497   9.118   8.880 -0.0070  0.5797 -0.3904
 8307SOL    HW130051  10.522   9.202   8.841 -0.0602 -0.5300 -2.9759
 8307SOL    HW230052  10.448   9.074   8.811 -2.0959 -0.6055  1.7873
 8308SOL     OW30053   0.759   1.266   3.762  0.2579  0.1611  0.0491
 8308SOL    HW130054   0.835   1.208   3.770  0.8754  0.9859  0.2756
 8308SOL    HW230055   0.712   1.256   3.844 -0.3094 -0.9372 -0.3965
 8309SOL     OW30056   2.167   9.175  10.273  0.0326  0.0319 -0.4323
 8309SOL    HW130057   2.207   9.137  10.195 -1.8190  1.1266 -1.9901
 8309SOL    HW230058   2.220   9.252  10.293 -0.1014  0.3466 -1.2758
 8310SOL     OW30059   1.837   3.858  10.484  0.2895 -0.0925 -0.3541
 8310SOL    HW130060   1.895   3.843  10.409  1.6253 -1.8583  0.9874
 8310SOL    HW230061   1.862   3.791  10.548 -2.2627  0.0415  0.8486
 8311SOL     OW30062   8.542   5.896   0.150  0.6103  0.1712 -0.0026
 8311SOL    HW130063   8.588   5.934   0.075  1.6008 -0.8511  0.0667
 8311SOL    HW230064   8.571   5.948   0.225  0.0028  0.8839 -0.2705
 8312SOL     OW30065   8.045   4.671   7.325  0.5657  0.2986 -0.1459
 8312SOL    HW130066   8.019   4.736   7.390  2.3583 -0.2509  1.1618
 8312SOL    HW230067   8.038   4.718   7.241  2.3635  2.4119  0.8177
 8313SOL     OW30068   3.706   3.334   9.898 -0.3865 -0.6122  0.1989
 8313SOL    HW130069   3.673   3.423   9.911 -1.3171 -0.8280 -0.6177
 8313SOL    HW230070   3.732   3.305   9.985  3.1295  1.6808  0.0266
 8314SOL     OW30071   5.878   0.624   1.146  0.3169 -0.4440  0.7612
 8314SOL    HW130072   5.824   0.593   1.219 -0.2321 -0.3437  0.3979
 8314SOL    HW230073   5.885   0.718   1.159 -0.8229 -0.2521 -0.0113
 8315SOL     OW30074   1.433   5.498   8.032  0.5069  0.0614  0.3601
 8315SOL    HW130075   1.338   5.499   8.048  0.5874 -2.0253  1.0469
 8315SOL    HW230076   1.459   5.590   8.042 -1.4765  0.7169 -0.1248
 8316SOL     OW30077   2.360   8.636   2.290 -0.0971  0.5605 -0.6344
 8316SOL    HW130078   2.329   8.631   2.381 -0.4180  1.5021 -0.6858
 8316SOL    HW230079   2.454   8.619   2.296 -0.2147  0.0547 -0.1939
 8317SOL     OW30080   1.552   8.901   6.376  0.0292 -0.4572  0.0002
 8317SOL    HW130081   1.493   8.928   6.306  0.1656  1.2362  0.5307
 8317SOL    HW230082   1.640   8.917   6.340  0.1454 -1.1794 -0.0598
 8318SOL     OW30083   6.512   3.337  10.305 -0.2286  0.2228 -0.0561
 8318SOL    HW130084   6.587   3.317  10.250 -1.6601  0.2728 -2.0876
 8318SOL    HW230085   6.509   3.266  10.369  2.1497  0.7952  0.7214
 8319SOL     OW30086   5.156   5.904  11.169  0.3279 -0.2894 -0.2210
 8319SOL    HW130087   5.150   5.911  11.074  1.3216 -2.5295 -0.4815
 8319SOL    HW230088   5.189   5.815  11.184  1.7829  0.6104  2.1334
 8320SOL     OW30089   0.975   7.092   5.370 -0.8051  0.0212 -0.4473
 8320SOL    HW130090   1.019   7.165   5.326 -0.3806 -0.9206 -1.6187
 8320SOL    HW230091   1.009   7.014   5.327 -0.6606 -0.9169  1.3458
 8321SOL     OW30092   4.695   1.888   6.256 -0.2847 -0.5939 -0.2923
 8321SOL    HW130093   4.636   1.813   6.253  0.5523 -1.2435 -0.4209
 8321SOL    HW230094   4.760   1.866   6.323 -0.6736  0.4851  0.4586
 8322SOL     OW30095  10.924   1.285   2.836 -0.4398  0.2266  0.3562
 8322SOL    HW130096  10.977   1.364   2.825 -0.6612  0.5995  1.9590
 8322SOL    HW230097  10.911   1.253   2.746  0.8482  1.2056 -0.1996
 8323SOL     OW30098   7.336   9.585  11.006 -0.1354  0.1133  0.0048
 8323SOL    HW130099   7.277   9.661  11.000  1.2051  1.0515 -1.6020
 8323SOL    HW230100   7.414   9.618  11.050  0.7691 -0.1121 -1.3895
 8324SOL     OW30101   6.188   7.136  11.217 -0.1751  0.0469  0.2998
 8324SOL    HW130102   6.108   7.094  11.185 -0.3509  1.0674 -0.6304
 8324SOL    HW230103   6.164   7.168  11.304 -0.5344 -0.3392  0.3469
 8325SOL     OW30104   1.451   3.888   0.054 -0.5082 -0.0588  0.0889
 8325SOL    HW130105   1.374   3.847   0.093 -1.0683 -0.3373 -1.2885
 8325SOL    HW230106   1.482   3.825  -0.011 -0.4288  0.9941 -0.9184
 8326SOL     OW30107   7.097  11.090  11.034 -0.0421  0.6319  0.2642
 8326SOL    HW130108   7.049  11.146  11.095 -0.9549  0.5042 -0.3210
 8326SOL    HW230109   7.033  11.023  11.007  0.4999  0.3781 -0.4159
 8327SOL     OW30110  10.956   0.627   3.462  0.4921  0.2415  0.3212
 8327SOL    HW130111  10.876   0.639   3.513  0.8430 -0.1163  0.9620
 8327SOL    HW230112  10.948   0.689   3.389 -0.2081  0.4480  0.5735
 8328SOL     OW30113   4.549   8.627  10.529  0.1279 -0.4480 -0.1301
 8328SOL    HW130114   4.542   8.534  10.509 -1.7417 -0.4962  0.6310
 8328SOL    HW230115   4.566   8.630  10.623  0.9319 -0.0301 -0.2815
 8329SOL     OW30116  11.278   4.938   5.307  0.5035  0.1391 -0.3494
 8329SOL    HW130117  11.369   4.930   5.337  0.7176  1.4131 -0.6283
 8329SOL    HW230118  11.281   5.007   5.241 -0.0890 -2.0550 -2.7551
 8330SOL     OW30119   7.652  10.381   3.737 -0.4880 -0.3728  0.1265
 8330SOL    HW130120   7.707  10.372   3.659  0.3200 -0.7550  0.7465
 8330SOL    HW230121   7.646  10.292   3.773 -0.0661 -0.0232  1.0552
 8331SOL     OW30122   1.498  10.092   8.515  0.3321 -0.4048  1.2676
 8331SOL    HW130123   1.465  10.168   8.563  1.4113  3.0264 -3.1953
 8331SOL    HW230124   1.586  10.077   8.550  0.1354  0.4027  2.1175
 8332SOL     OW30125  10.697   8.173   6.175  0.4863  0.4104  0.5682
 8332SOL    HW130126  10.666   8.237   6.110  1.4595  1.1251  0.8025
 8332SOL    HW230127  10.625   8.166   6.238 -0.0977  0.3902 -0.0838
 8333SOL     OW30128   4.378   1.710   8.104  0.0791 -0.0187 -0.1961
 8333SOL    HW130129   4.312   1.766   8.145  0.9782  1.1072 -0.2685
 8333SOL    HW230130   4.422   1.667   8.178  0.4591  0.5944 -0.0657
 8334SOL     OW30131  10.688   1.652   3.200 -0.0082  0.3168 -0.0042
 8334SOL    HW130132  10.745   1.615   3.268  0.8839  0.8972 -0.4294
 8334SOL    HW230133  10.657   1.734   3.237 -0.5195  0.0334  0.1990
 8335SOL     OW30134   8.657   9.929   1.787 -0.1847  0.3323  0.1806
 8335SOL    HW130135   8.562   9.933   1.800 -0.0003  2.4781  1.0799
 8335SOL    HW230136   8.690   9.892   1.869 -0.1950  0.0986  0.0796
 8336SOL     OW30137   1.676   3.216   6.178 -0.1981  0.4287 -0.2456
 8336SOL    HW130138   1.680   3.191   6.086 -1.6408 -0.1313 -0.1719
 8336SOL    HW230139   1.608   3.284   6.182 -0.1549  0.4378  0.3968
 8337SOL     OW30140   3.971   0.764   1.557  0.8693 -0.2173  0.2458
 8337SOL    HW130141   4.022   0.832   1.514  0.7812 -0.7564 -0.7066
 8337SOL    HW230142   3.959   0.796   1.647 -0.0146  1.4955 -0.4683
 8338SOL     OW30143   3.021   4.365   7.049 -0.3260  0.2998  0.6363
 8338SOL    HW130144   3.081   4.293   7.068  0.8667  1.1994  0.2537
 8338SOL    HW230145   2.944   4.346   7.104 -0.0283 -1.2609  0.5361
 8339SOL     OW30146  11.026  11.246   9.252 -0.1361 -0.1677 -0.3778
 8339SOL    HW130147  11.112  11.265   9.214 -0.5255  0.8668 -0.7486
 8339SOL    HW230148  11.006  11.322   9.306 -0.7980 -0.4188 -0.2676
 8340SOL     OW30149   2.093   0.047   9.417 -0.1076  0.4316 -0.5197
 8340SOL    HW130150   2.179   0.068   9.453  0.0779  0.5416 -1.0205
 8340SOL    HW230151   2.063   0.128   9.376 -0.9468  0.7195  0.6308
 8341SOL     OW30152   8.822   0.238   8.775  0.1378 -0.1422 -0.2609
 8341SOL    HW130153   8.836   0.332   8.763 -1.3774  0.0551 -0.5460
 8341SOL    HW230154   8.857   0.199   8.695  1.8591  0.0712  0.3780
 8342SOL     OW30155   1.077  10.017  10.978 -0.6434  0.2372 -0.3465
 8342SOL    HW130156   1.159   9.974  10.952 -0.3439  1.7860 -2.1352
 8342SOL    HW230157   1.008   9.957  10.949 -0.1795 -0.0796 -0.8154
 8343SOL     OW30158   8.809   0.068   8.544 -0.1246  0.0412 -0.5024
 8343SOL    HW130159   8.761   0.039   8.621 -1.3059  3.6130  0.2403
 8343SOL    HW230160   8.788   0.003   8.476  0.4260 -2.7869  1.9650
 8344SOL     OW30161   9.087   7.065   7.115 -0.1396 -0.1323  0.7694
 8344SOL    HW130162   9.180   7.045   7.123 -0.2151 -0.4022  0.9781
 8344SOL    HW230163   9.081   7.158   7.137  0.3148  0.3207 -0.9717
 8345SOL     OW30164   1.325   7.451   6.065 -0.1830  0.0320  0.3001
 8345SOL    HW130165   1.316   7.435   5.971  0.8450 -0.3223  0.2504
 8345SOL    HW230166   1.235   7.462   6.097 -0.5035  0.6682 -0.8086
 8346SOL     OW30167   0.618   4.829  10.980 -0.1953  0.2415  0.2211
 8346SOL    HW130168   0.645   4.752  11.030 -0.2774 -0.8919 -1.4653
 8346SOL    HW230169   0.556   4.795  10.915  1.2104  1.4274 -1.7726
 8347SOL     OW30170   3.392   3.730   3.737  0.2927 -0.0235 -0.3019
 8347SOL    HW130171   3.344   3.805   3.772 -1.7274 -2.0227  1.3614
 8347SOL    HW230172   3.400   3.749   3.643 -1.2466  1.7032 -0.1105
 8348SOL     OW30173  11.213   1.933   3.946  0.0435  0.3859  0.5607
 8348SOL    HW130174  11.214   1.842   3.917 -0.6373  0.0415  1.6194
 8348SOL    HW230175  11.306   1.958   3.948  0.1967 -0.0724 -0.3388
 8349SOL     OW30176   0.155   1.421   4.120  0.2608  0.0062  0.3225
 8349SOL    HW130177   0.221   1.452   4.057 -0.1342 -0.2834 -0.2393
 8349SOL    HW230178   0.111   1.348   4.074 -1.0298  0.7552  0.3573
 8350SOL     OW30179   3.368   2.917   5.124  0.1635  0.4016  0.0688
 8350SOL    HW130180   3.348   2.967   5.045  1.2590 -0.2641 -0.6430
 8350SOL    HW230181   3.435   2.968   5.170  0.5044  0.1270 -0.1185
 8351SOL     OW30182   6.891   9.996   9.442  0.4635 -0.2768  0.3493
 8351SOL    HW130183   6.977  10.010   9.402 -0.0016  0.2640 -0.4814
 8351SOL    HW230184   6.900   9.913   9.489  1.0150 -0.9800 -0.9504
 8352SOL     OW30185   4.020   4.962   3.048  0.1094  0.4058 -0.2951
 8352SOL    HW130186   4.053   4.876   3.075 -0.1137 -0.0693 -1.5238
 8352SOL    HW230187   3.931   4.966   3.083 -0.8737 -0.9908 -2.5335
 8353SOL     OW30188   9.769   5.616   2.062 -0.1533  0.1532  0.1807
 8353SOL    HW130189   9.862   5.601   2.077  0.1840  2.4694  0.5797
 8353SOL    HW230190   9.764   5.651   1.973 -0.3427  2.3858  1.0377
 8354SOL     OW30191   7.865  10.041   3.324  0.7013  0.3784  0.0059
 8354SOL    HW130192   7.906   9.969   3.374  0.5731  0.0092 -0.4162
 8354SOL    HW230193   7.817   9.997   3.254 -0.1196  0.8357  0.2770
 8355SOL     OW30194   4.025   2.678   2.050 -0.2642  0.1118  0.1100
 8355SOL    HW130195   4.073   2.597   2.033 -1.3810 -0.0768 -2.4272
 8355SOL    HW230196   4.093   2.746   2.051  0.4228 -0.5635 -0.0477
 8356SOL     OW30197  10.677   1.803   4.805 -0.4483 -0.4019  0.0783
 8356SOL    HW130198  10.606   1.820   4.866  0.4991  1.8139  0.6183
 8356SOL    HW230199  10.670   1.873   4.740  1.3340 -0.0196  0.2544
 8357SOL     OW30200   8.239   9.431   3.744  0.3034  0.2127 -0.0246
 8357SOL    HW130201   8.227   9.495   3.814  3.3662  1.4356 -0.5581
 8357SOL    HW230202   8.301   9.367   3.780 -1.7953 -1.8381  0.0669
 8358SOL     OW30203   5.882   9.997   1.478 -1.0013  0.0783  0.2136
 8358SOL    HW130204   5.856   9.912   1.441 -0.1551 -0.1048  0.0268
 8358SOL    HW230205   5.848   9.995   1.567 -1.3189 -0.3041  0.0885
 8359SOL     OW30206  11.159   5.896   7.619 -0.0217 -0.1713  0.4331
 8359SOL    HW130207  11.136   5.962   7.685  0.7000 -1.3134  1.8398
 8359SOL    HW230208  11.081   5.840   7.614 -0.6516  0.7904 -0.7922
 8360SOL     OW30209   5.634   8.063   1.442 -0.2250  0.1609  0.4505
 8360SOL    HW130210   5.551   8.057   1.491 -0.5049  2.0832  0.2545
 8360SOL    HW230211   5.689   8.120   1.496  0.6224 -0.3102  0.0902
 8361SOL     OW30212  10.856   7.652   2.726 -0.1551 -0.2530 -0.4457
 8361SOL    HW130213  10.896   7.678   2.809 -1.0296  2.1442 -0.7535
 8361SOL    HW230214  10.906   7.698   2.659 -2.5657  1.8314 -0.9052
 8362SOL     OW30215   3.444   9.914   2.575  0.6619 -0.4834 -0.4722
 8362SOL    HW130216   3.435   9.974   2.502 -0.2358 -0.2489 -0.1715
 8362SOL    HW230217   3.499   9.960   2.639  2.5992 -1.2206 -1.5593
 8363SOL     OW30218  10.739   2.717   8.320 -0.0524  0.2010  0.1723
 8363SOL    HW130219  10.674   2.665   8.368  0.9703 -1.7643 -0.4940
 8363SOL    HW230220  10.760   2.663   8.244  1.6614  1.2502 -0.1049
 8364SOL     OW30221   4.872   2.768   9.888 -0.3231 -0.2011  0.0456
 8364SOL    HW130222   4.963   2.796   9.902 -0.5412  0.2591  0.5590
 8364SOL    HW230223   4.844   2.819   9.812 -0.6235  0.7776  0.7986
 8365SOL     OW30224   9.538   1.982   9.395  0.3137  0.3122  0.1592
 8365SOL    HW130225   9.470   1.965   9.330 -0.2184  2.6811  0.0616
 8365SOL    HW230226   9.491   1.987   9.478  0.7446 -0.7386  0.4820
 8366SOL     OW30227  10.705   9.520   0.965 -0.1346 -0.3758  0.2036
 8366SOL    HW130228  10.771   9.519   1.035  0.0138  1.1646  0.0966
 8366SOL    HW230229  10.650   9.444   0.984  0.8975 -0.9394  1.0342
 8367SOL     OW30230   1.993   8.297   0.083 -0.0167  0.0382 -0.1165
 8367SOL    HW130231   2.022   8.268   0.170  0.7040  0.1040 -0.3339
 8367SOL    HW230232   1.910   8.342   0.100  0.8374  1.3285  0.7440
 8368SOL     OW30233   3.377   4.054   6.726 -0.5310 -0.1937 -0.0394
 8368SOL    HW130234   3.465   4.074   6.695 -0.9034 -0.1295 -1.0788
 8368SOL    HW230235   3.322   4.057   6.647 -1.2919 -1.2106  0.4362
 8369SOL     OW30236   0.347   0.916   1.201 -0.8560  0.7170 -0.3650
 8369SOL    HW130237   0.338   1.011   1.209 -1.1162  0.5746  1.1658
 8369SOL    HW230238   0.279   0.880   1.258  0.7198 -0.3816  0.8677
 8370SOL     OW30239   2.303   3.323   0.806  0.1809  0.0710 -0.7920
 8370SOL    HW130240   2.228   3.303   0.863  0.7012 -0.8880 -0.4372
 8370SOL    HW230241   2.376   3.337   0.867  0.5624 -0.1740 -1.1945
 8371SOL     OW30242   9.276   6.040   8.666  0.5202  0.2703  0.0828
 8371SOL    HW130243   9.337   6.114   8.668  0.2589  0.4500  1.9520
 8371SOL    HW230244   9.190   6.081   8.660  0.3437  0.1557  1.6423
 8372SOL     OW30245   3.658   3.452   8.006 -0.1028  0.2402  0.3092
 8372SOL    HW130246   3.666   3.475   7.913 -0.3998 -0.1037  0.1989
 8372SOL    HW230247   3.714   3.376   8.017 -2.3808 -1.5754 -0.2515
 8373SOL     OW30248   5.932   4.702   4.581  0.2469  0.6216  0.6369
 8373SOL    HW130249   5.980   4.674   4.659 -0.8645 -0.7223  0.8777
 8373SOL    HW230250   5.942   4.629   4.520 -1.8635  0.0599  0.8941
 8374SOL     OW30251   9.748  11.210   8.050  0.3254 -0.2731  0.5243
 8374SOL    HW130252   9.806  11.249   7.985 -0.4535  2.8476  1.6352
 8374SOL    HW230253   9.667  11.193   8.003  0.1418  0.9440  0.3913
 8375SOL     OW30254   7.258   8.615   3.430 -0.2363  0.3316 -0.1289
 8375SOL    HW130255   7.168   8.608   3.397  0.4976 -3.3362 -1.6413
 8375SOL    HW230256   7.308   8.651   3.357  0.5546 -3.4967 -1.6159
 8376SOL     OW30257  10.442  10.538   4.717  0.5478 -0.2106 -0.1583
 8376SOL    HW130258  10.413  10.453   4.750  2.1107 -0.1497  1.5012
 8376SOL    HW230259  10.423  10.535   4.623  0.5230 -2.3773 -0.1245
 8377SOL     OW30260   6.524   1.141   1.353 -0.2103  0.5493  0.1619
 8377SOL    HW130261   6.589   1.106   1.414  0.8266  0.4530 -0.9800
 8377SOL    HW230262   6.554   1.231   1.336 -0.3026  0.4645 -0.4608
 8378SOL     OW30263   6.482   8.720   9.554 -0.0739  0.0459  0.1972
 8378SOL    HW130264   6.567   8.740   9.515  0.6505  0.9072  2.1318
 8378SOL    HW230265   6.419   8.771   9.503  1.1080  2.9508  1.5227
 8379SOL     OW30266   1.078  11.305   0.457  0.4068  0.2425 -0.3389
 8379SOL    HW130267   1.163  11.262   0.448  1.4436  1.8890  1.1048
 8379SOL    HW230268   1.087  11.360   0.535 -1.4779  1.6084 -1.0273
 8380SOL     OW30269  10.783   1.940   9.616  0.0957  0.1216 -0.4544
 8380SOL    HW130270  10.822   2.014   9.661  1.0356 -0.0689 -0.9458
 8380SOL    HW230271  10.836   1.928   9.537  0.4946 -1.6182  0.0442
 8381SOL     OW30272   2.377   4.985   9.336  0.2853 -0.2038  0.0327
 8381SOL    HW130273   2.423   4.923   9.280 -1.4595  0.2826 -2.0183
 8381SOL    HW230274   2.406   5.071   9.306 -0.1902  0.0444  0.2739
 8382SOL     OW30275   4.853   4.606   1.762 -0.1623 -0.2409 -0.1170
 8382SOL    HW130276   4.939   4.642   1.738 -0.9343  1.9296  0.2300
 8382SOL    HW230277   4.858   4.595   1.857 -0.5942  0.8537  0.0423
 8383SOL     OW30278   1.419   5.270   5.896  0.0468 -0.3357  0.2280
 8383SOL    HW130279   1.348   5.334   5.900  0.9438  0.7113 -0.4953
 8383SOL    HW230280   1.442   5.265   5.804  0.2978 -1.3665  0.3376
 8384SOL     OW30281   7.948   4.049   1.577 -0.1663  0.0950 -1.0014
 8384SOL    HW130282   8.015   4.113   1.551 -0.1261 -0.1721 -1.5521
 8384SOL    HW230283   7.882   4.101   1.623  1.3266  0.0955  1.2190
 8385SOL     OW30284   3.921   2.772   7.634  0.3228  0.2526 -0.0770
 8385SOL    HW130285   3.891   2.704   7.574  0.0004  0.1663  0.1779
 8385SOL    HW230286   3.925   2.728   7.720 -0.2620  0.6533  0.1578
 8386SOL     OW30287  10.030  10.078   7.697 -0.1979 -0.6367  0.1304
 8386SOL    HW130288   9.982  10.127   7.764 -1.0368 -1.4654  0.1505
 8386SOL    HW230289  10.102  10.136   7.672 -0.5648  0.1705  0.8985
 8387SOL     OW30290  10.185   7.870  10.329 -0.1044  0.3421 -0.0039
 8387SOL    HW130291  10.114   7.856  10.391 -0.6275 -1.3707 -0.9480
 8387SOL    HW230292  10.152   7.937  10.270 -0.6258  0.1343  0.0458
 8388SOL     OW30293  10.659   5.534  11.004  0.9080  0.2520 -0.2458
 8388SOL    HW130294  10.655   5.444  11.036 -2.1389  0.5353  0.3029
 8388SOL    HW230295  10.673   5.587  11.082 -1.9306  0.5675  0.1152
 8389SOL     OW30296   8.292   0.524   5.642 -0.3534 -0.0128 -0.0109
 8389SOL    HW130297   8.197   0.518   5.652 -0.6547  0.2126 -2.4695
 8389SOL    HW230298   8.323   0.434   5.657 -0.7716  0.1782  2.2009
 8390SOL     OW30299   7.083  10.297  11.287  0.1214  0.4194 -0.4476
 8390SOL    HW130300   7.041  10.363  11.233 -1.8782  1.0938  1.8655
 8390SOL    HW230301   7.043  10.306  11.373  1.1055 -2.5804  0.4179
 8391SOL     OW30302   9.854  10.903   5.027  0.3422  0.0504 -0.1238
 8391SOL    HW130303   9.763  10.913   4.999  0.7942  1.1681 -1.2422
 8391SOL    HW230304   9.861  10.811   5.052 -0.1729 -1.0225 -3.6214
 8392SOL     OW30305   7.667   0.793   6.254 -0.1283 -0.1601 -0.5368
 8392SOL    HW130306   7.749   0.798   6.303 -0.1879 -0.9264 -0.3651
 8392SOL    HW230307   7.675   0.863   6.189  1.6003 -1.5987 -1.9321
 8393SOL     OW30308   9.049   6.863   0.809 -0.2840 -0.3226 -0.4805
 8393SOL    HW130309   9.106   6.909   0.748  0.0727 -1.6571 -1.1730
 8393SOL    HW230310   8.962   6.900   0.794  0.0050  0.1492 -0.9956
 8394SOL     OW30311   2.795   6.256   4.923  0.2040 -0.6051 -0.0742
 8394SOL    HW130312   2.887   6.251   4.949  0.7412  0.1446 -1.8046
 8394SOL    HW230313   2.753   6.184   4.970  1.1289  0.7268  2.8874
 8395SOL     OW30314   4.620   7.177   2.959  0.5340 -0.1030 -0.1624
 8395SOL    HW130315   4.716   7.180   2.960  0.5016  1.9211 -1.3480
 8395SOL    HW230316   4.599   7.117   2.888  0.9091  1.6214 -1.7492
 8396SOL     OW30317   5.037   2.883   7.006 -1.1291 -0.4577 -0.4602
 8396SOL    HW130318   4.950   2.881   7.046 -0.0091  1.0701  2.2929
 8396SOL    HW230319   5.091   2.827   7.063 -0.5775 -2.4484 -2.8877
 8397SOL     OW30320   4.005   1.638   7.163 -0.3267  0.9861  0.1601
 8397SOL    HW130321   4.100   1.625   7.163 -0.6116 -1.4245  1.3032
 8397SOL    HW230322   3.991   1.709   7.100  2.2514  1.6586  0.2705
 8398SOL     OW30323   0.909   4.669  11.305  0.3584  0.4164 -0.1551
 8398SOL    HW130324   0.873   4.733  11.366 -0.0619  0.2309 -0.2041
 8398SOL    HW230325   0.961   4.720  11.244  3.0529  0.3286  1.9634
 8399SOL     OW30326   0.827   5.774   1.348  0.3965 -0.1347  0.1517
 8399SOL    HW130327   0.800   5.766   1.439  1.7919  0.2857  0.6140
 8399SOL    HW230328   0.856   5.686   1.323  2.2714  0.2496  0.8662
 8400SOL     OW30329   5.958   3.915   1.997 -0.2795  0.2331  1.0316
 8400SOL    HW130330   5.991   3.825   2.003  0.6622  0.5359  0.5852
 8400SOL    HW230331   5.963   3.949   2.086 -0.7306 -0.1895  1.2189
 8401SOL     OW30332   2.739   0.398   6.394 -0.0713  0.0352  0.0539
 8401SOL    HW130333   2.724   0.389   6.300 -0.4991 -0.2447  0.1449
 8401SOL    HW230334   2.831   0.424   6.402  0.0953 -0.4054 -0.4188
 8402SOL     OW30335   0.341   1.932  10.594 -0.0466  0.4234 -0.0922
 8402SOL    HW130336   0.255   1.944  10.555 -0.2789  0.2021  0.3374
 8402SOL    HW230337   0.365   1.842  10.572  0.7800  0.9880 -1.5576
 8403SOL     OW30338   8.609   4.383   9.337  0.5388 -0.2983 -0.4601
 8403SOL    HW130339   8.701   4.379   9.309 -0.1210  1.0740 -2.9945
 8403SOL    HW230340   8.577   4.465   9.299 -1.4614 -0.2566  1.2931
 8404SOL     OW30341   2.703   9.111   9.269  0.3026 -0.1148 -0.1192
 8404SOL    HW130342   2.629   9.137   9.214  0.8076  0.8833 -0.3440
 8404SOL    HW230343   2.741   9.193   9.299  0.0374 -0.6456  1.7582
 8405SOL     OW30344   3.006   5.777   1.105  0.5898  0.3855 -0.5011
 8405SOL    HW130345   3.078   5.715   1.118 -1.9847 -2.3086  1.6691
 8405SOL    HW230346   3.024   5.847   1.168  2.2915  0.6916 -1.3050
 8406SOL     OW30347  11.240   8.275   5.670  0.1658 -0.0860  0.3354
 8406SOL    HW130348  11.266   8.203   5.727 -0.2456  0.2337  0.9394
 8406SOL    HW230349  11.148   8.256   5.649 -0.1399  0.5936  1.0210
 8407SOL     OW30350   8.005   8.473   4.238  0.1932 -0.3715 -0.3276
 8407SOL    HW130351   8.039   8.510   4.157  2.3854 -0.1185  0.6679
 8407SOL    HW230352   8.013   8.378   4.226  0.2953 -0.3427 -0.4935
 8408SOL     OW30353   6.531   4.889   6.486  0.1147 -0.0579 -0.0130
 8408SOL    HW130354   6.573   4.856   6.566 -1.4689 -0.7796  0.5418
 8408SOL    HW230355   6.542   4.984   6.491 -2.1277  0.1267  2.3472
 8409SOL     OW30356   8.097   8.359  10.619 -0.3515 -0.2185 -0.3779
 8409SOL    HW130357   8.012   8.317  10.606 -1.8505  2.7514 -0.5613
 8409SOL    HW230358   8.128   8.380  10.531  0.0984 -0.3569 -0.2569
 8410SOL     OW30359   7.951   3.857  10.953 -0.1634  0.3931  0.0555
 8410SOL    HW130360   7.908   3.793  10.897  0.7919 -1.0317  0.9259
 8410SOL    HW230361   8.044   3.838  10.944  0.1225  1.5640  0.4458
 8411SOL     OW30362  10.807   3.871   9.064 -0.4693 -0.1330 -0.2042
 8411SOL    HW130363  10.765   3.842   9.145  0.1724  1.3700  0.6839
 8411SOL    HW230364  10.774   3.812   8.997 -1.0393 -1.3684  1.1526
 8412SOL     OW30365  10.680   1.940   7.902 -0.2129  0.0818 -0.6198
 8412SOL    HW130366  10.679   1.985   7.987 -0.8528  0.8281 -1.0230
 8412SOL    HW230367  10.598   1.965   7.860  0.9293  1.1974 -2.2366
 8413SOL     OW30368   4.076   3.071   2.325  0.4725  0.5654  0.2701
 8413SOL    HW130369   4.032   3.006   2.380  1.3747  0.8968  1.4150
 8413SOL    HW230370   4.085   3.148   2.381  1.1871  0.9983 -0.4246
 8414SOL     OW30371   0.521   6.671   3.505 -0.0680  0.6643  0.3916
 8414SOL    HW130372   0.432   6.700   3.525  0.0808  0.4134  1.4435
 8414SOL    HW230373   0.568   6.680   3.588 -0.4624 -4.2786  1.3158
 8415SOL     OW30374  10.167   8.364   3.568  0.6837 -0.2432  0.1960
 8415SOL    HW130375  10.077   8.357   3.600  0.4746  2.2729  0.2346
 8415SOL    HW230376  10.158   8.380   3.474  1.1352 -0.8931  0.0346
 8416SOL     OW30377   2.803   0.194   7.211 -0.3271 -0.2755  0.3993
 8416SOL    HW130378   2.847   0.124   7.163  0.2880  0.3132  0.0970
 8416SOL    HW230379   2.813   0.170   7.303 -0.0120 -0.5151  0.3037
 8417SOL     OW30380  10.452   3.017   6.188  0.0821 -0.3078  0.0695
 8417SOL    HW130381  10.482   2.991   6.276  0.7580 -0.5302 -0.2200
 8417SOL    HW230382  10.394   3.091   6.204  1.6480  0.8379  0.5713
 8418SOL     OW30383   0.324   2.881   4.278  0.4507  0.0171  0.1987
 8418SOL    HW130384   0.251   2.921   4.230  1.3418 -0.5434 -1.6636
 8418SOL    HW230385   0.345   2.945   4.346 -1.3621  0.4612  0.3741
 8419SOL     OW30386   1.424   8.068   0.346 -0.5192 -0.0808  0.0963
 8419SOL    HW130387   1.507   8.097   0.308 -1.0543  0.8331 -0.4197
 8419SOL    HW230388   1.409   7.982   0.307 -0.3415  0.2182 -0.6607
 8420SOL     OW30389  11.289   7.813   2.779  0.2472 -0.0774  0.1184
 8420SOL    HW130390  11.265   7.875   2.710  0.9182  0.6249  0.5049
 8420SOL    HW230391  11.243   7.733   2.757 -1.6129  0.9196  0.2811
 8421SOL     OW30392  10.005   4.958   2.555 -0.2725  0.0247  0.1194
 8421SOL    HW130393  10.058   4.884   2.525  0.5278 -0.0404  1.5824
 8421SOL    HW230394   9.934   4.966   2.492  1.1290 -0.3237 -1.5136
 8422SOL     OW30395   9.934   1.916   7.336 -0.2554 -0.0229  0.3376
 8422SOL    HW130396   9.894   1.949   7.416  0.1975  3.8912 -0.9073
 8422SOL    HW230397  10.027   1.936   7.346 -0.2266  0.6704 -1.2109
 8423SOL     OW30398   7.421   7.890   9.466  0.3587 -0.1759  0.4236
 8423SOL    HW130399   7.456   7.842   9.542 -0.6742 -0.6970  0.5783
 8423SOL    HW230400   7.360   7.954   9.504  2.1334  1.6649  0.2621
 8424SOL     OW30401   9.425   3.476  10.755  0.4885 -0.5799 -0.0188
 8424SOL    HW130402   9.500   3.463  10.698  0.0534  0.3347 -0.8060
 8424SOL    HW230403   9.455   3.538  10.821  1.1778 -2.0833  1.1190
 8425SOL     OW30404   3.793   1.045   3.289 -0.7058  0.3847 -0.0328
 8425SOL    HW130405   3.796   1.139   3.308 -3.0940 -0.0786  3.0143
 8425SOL    HW230406   3.758   1.040   3.200 -1.4750  2.3659  0.1256
 8426SOL     OW30407   9.468   9.071  11.251  0.0754  0.1834 -0.3160
 8426SOL    HW130408   9.458   9.028  11.336 -1.0944  0.7424 -0.1649
 8426SOL    HW230409   9.413   9.021  11.192  1.5865 -0.7542 -0.9716
 8427SOL     OW30410   6.482   1.108   3.209  0.8223  0.1073  0.5827
 8427SOL    HW130411   6.424   1.171   3.167  0.7002 -0.0283  0.5446
 8427SOL    HW230412   6.428   1.067   3.277 -0.2911 -2.6209 -1.8205
 8428SOL     OW30413   3.955   5.071   8.403 -0.7010 -0.0197  0.5848
 8428SOL    HW130414   3.996   5.130   8.466 -0.2195 -0.4404  0.6748
 8428SOL    HW230415   3.888   5.124   8.360  0.1744  0.7932  0.1865
 8429SOL     OW30416   5.861   5.455   9.293  0.2866 -0.6288 -0.0932
 8429SOL    HW130417   5.774   5.435   9.258 -0.2345 -0.9192  1.3380
 8429SOL    HW230418   5.877   5.545   9.266 -0.1146 -0.8265 -1.0369
 8430SOL     OW30419   7.989   2.055   6.765  0.0251 -0.6993  0.1946
 8430SOL    HW130420   8.044   2.020   6.835  2.6288  0.8690 -1.0058
 8430SOL    HW230421   7.974   2.147   6.790  0.9907 -0.1212 -1.2730
 8431SOL     OW30422   5.693  10.915   8.944 -0.2605  0.4304  0.2690
 8431SOL    HW130423   5.621  10.972   8.914 -0.0827  0.3995 -0.2265
 8431SOL    HW230424   5.706  10.854   8.871 -0.2080 -0.0166  0.6540
 8432SOL     OW30425   2.624   9.254   9.998  0.0860  0.5314 -0.0240
 8432SOL    HW130426   2.715   9.254   9.968  0.6672  1.7435  1.6640
 8432SOL    HW230427   2.594   9.344   9.983 -1.5761 -0.4013 -2.6387
 8433SOL     OW30428   3.351   3.500   4.321  0.1069  0.1316 -0.2594
 8433SOL    HW130429   3.340   3.506   4.226 -0.2580 -2.0472 -0.3637
 8433SOL    HW230430   3.369   3.408   4.338 -0.4099  0.3861  1.8513
 8434SOL     OW30431  11.035   4.926   0.541 -0.0962  0.1060  0.5649
 8434SOL    HW130432  11.069   4.853   0.490 -0.3263 -0.2023  0.8486
 8434SOL    HW230433  11.038   5.000   0.481 -1.5793 -0.5265 -0.3521
 8435SOL     OW30434   5.473   2.043   5.385 -0.3970 -0.3465  0.1457
 8435SOL    HW130435   5.538   2.070   5.320 -0.8172 -0.8735 -0.4925
 8435SOL    HW230436   5.389   2.072   5.349 -0.6761 -1.0274  0.2521
 8436SOL     OW30437   8.138   2.126   1.659  0.2277 -0.0735 -0.0082
 8436SOL    HW130438   8.083   2.204   1.653  1.1977  0.5210 -1.5379
 8436SOL    HW230439   8.190   2.127   1.578  0.9256 -1.7933  0.3939
 8437SOL     OW30440   3.473   9.445   1.681 -0.2448 -0.1229  0.3732
 8437SOL    HW130441   3.469   9.534   1.647  0.7777 -0.4920 -0.7316
 8437SOL    HW230442   3.381   9.418   1.687 -0.5820  1.1688  1.1778
 8438SOL     OW30443   2.789   7.667   7.890  0.2480 -0.3044 -0.2203
 8438SOL    HW130444   2.739   7.661   7.972 -0.1808 -0.4303 -0.4886
 8438SOL    HW230445   2.881   7.661   7.917  0.0482 -2.5048  0.0626
 8439SOL     OW30446   0.619   6.864   7.493 -0.1349  0.5320 -0.2556
 8439SOL    HW130447   0.642   6.772   7.503 -2.6568 -0.0580  0.5871
 8439SOL    HW230448   0.644   6.904   7.577 -2.0928 -0.1205  0.6845
 8440SOL     OW30449   0.617   0.233   7.048 -0.4326 -0.1114  0.2450
 8440SOL    HW130450   0.533   0.226   7.002 -0.5159  0.3591  0.3243
 8440SOL    HW230451   0.682   0.205   6.983 -0.4849  1.1598 -0.3739
 8441SOL     OW30452   8.052   0.961  10.436  0.4896  0.2116  0.8494
 8441SOL    HW130453   8.030   0.872  10.464 -1.9829  0.5015 -0.0618
 8441SOL    HW230454   8.100   0.950  10.354 -0.5975 -0.2719  0.2694
 8442SOL     OW30455  10.030   8.576   9.420  0.8497 -0.4911  0.4095
 8442SOL    HW130456   9.989   8.657   9.389 -1.6665 -0.4273  3.7243
 8442SOL    HW230457  10.015   8.514   9.348  0.3256  1.1918 -0.9951
 8443SOL     OW30458   1.460   4.898   2.535  0.4029  0.2428 -0.0920
 8443SOL    HW130459   1.375   4.861   2.558  0.8425  0.5905  2.2956
 8443SOL    HW230460   1.449   4.933   2.447 -1.7579 -0.2176 -0.0152
 8444SOL     OW30461   0.845   3.322   9.851 -0.2774  0.1363  0.1142
 8444SOL    HW130462   0.805   3.409   9.852 -0.2982  0.1231  0.4029
 8444SOL    HW230463   0.852   3.297   9.943  0.2143  0.0578  0.0610
 8445SOL     OW30464   9.069   6.346   2.727  0.3102  0.3168 -0.4611
 8445SOL    HW130465   9.146   6.327   2.780  0.1087 -1.0003 -0.6273
 8445SOL    HW230466   9.034   6.428   2.764 -0.5921 -1.2709  2.3400
 8446SOL     OW30467   1.053   9.826   0.636 -0.1282  0.0390  0.1518
 8446SOL    HW130468   1.035   9.741   0.593 -0.7464  0.1541  0.1724
 8446SOL    HW230469   1.063   9.887   0.563 -0.8418  0.1706  0.1598
 8447SOL     OW30470   5.524   9.826   3.008  0.2206  0.1301  0.8480
 8447SOL    HW130471   5.480   9.815   2.924 -0.3617  0.4583  1.1051
 8447SOL    HW230472   5.574   9.907   2.998  0.6281 -0.1459  0.6201
 8448SOL     OW30473   1.119   2.113   5.681  0.0923 -0.3521 -0.4967
 8448SOL    HW130474   1.054   2.127   5.612  0.6135  0.0774 -0.9085
 8448SOL    HW230475   1.194   2.073   5.635  0.3937 -0.1762 -0.1553
 8449SOL     OW30476   4.342  11.115   4.691 -0.0750 -0.3681  0.7212
 8449SOL    HW130477   4.322  11.122   4.784 -1.1277  1.9729  0.3495
 8449SOL    HW230478   4.437  11.102   4.688  0.1975  1.0668  2.1018
 8450SOL     OW30479   7.141   0.299   1.400  0.2373  0.3743 -0.3635
 8450SOL    HW130480   7.207   0.296   1.331  1.9835  0.7112  1.2595
 8450SOL    HW230481   7.104   0.211   1.401 -0.1176  0.4813 -1.9907
 8451SOL     OW30482   2.441   5.607   7.396  0.1803 -0.2402  0.1153
 8451SOL    HW130483   2.466   5.593   7.305 -0.8026  1.2499 -0.3963
 8451SOL    HW230484   2.452   5.521   7.437  4.3512 -0.0828 -0.4695
 8452SOL     OW30485   9.881   6.443   8.515 -0.1259 -0.5617  0.4428
 8452SOL    HW130486   9.876   6.369   8.576 -0.5140  0.7048  1.9911
 8452SOL    HW230487   9.931   6.510   8.563 -0.6201  0.5333 -0.5483
 8453SOL     OW30488   7.797   7.812   0.661  0.5749  0.0818 -0.1667
 8453SOL    HW130489   7.796   7.900   0.623 -2.1705  0.2888  0.3023
 8453SOL    HW230490   7.751   7.821   0.744  0.6686 -1.7210  0.0971
 8454SOL     OW30491   4.404   1.357   4.292  0.3417  0.4657 -0.0081
 8454SOL    HW130492   4.481   1.409   4.271  1.5925 -0.5813  1.8733
 8454SOL    HW230493   4.428   1.268   4.266 -0.4208  0.2096  0.1594
 8455SOL     OW30494   5.153   8.048  10.346  0.5124  0.1744 -0.6808
 8455SOL    HW130495   5.090   7.977  10.332  1.8669 -0.9752 -1.0270
 8455SOL    HW230496   5.237   8.012  10.319  1.7098  0.9814  1.8088
 8456SOL     OW30497   8.479   2.553  10.136  0.7824 -0.2460  0.3798
 8456SOL    HW130498   8.506   2.645  10.134 -0.7336  0.2539  1.8221
 8456SOL    HW230499   8.433   2.540  10.053  4.5533 -0.8625 -1.6964
 8457SOL     OW30500   5.534   2.572   7.118 -0.4162 -0.1935 -0.0012
 8457SOL    HW130501   5.515   2.481   7.095 -0.2628 -0.3879  0.6458
 8457SOL    HW230502   5.491   2.624   7.050 -1.9798 -0.6837  0.6051
 8458SOL     OW30503  11.313   3.685   6.015 -0.4874  0.0763 -0.4804
 8458SOL    HW130504  11.349   3.709   5.929 -1.5133 -0.9882 -1.2212
 8458SOL    HW230505  11.331   3.761   6.070  1.1956  0.3263 -1.3360
 8459SOL     OW30506  11.152   1.380   5.024  0.5409 -0.1156 -0.0625
 8459SOL    HW130507  11.150   1.470   5.058  0.0660  0.2979 -1.1299
 8459SOL    HW230508  11.176   1.326   5.099  0.0276  0.8176  0.7859
 8460SOL     OW30509   6.384   4.616  10.427 -0.0627 -0.0732 -0.5948
 8460SOL    HW130510   6.320   4.554  10.391  0.5058 -1.4674  0.7217
 8460SOL    HW230511   6.412   4.668  10.352 -1.0636 -0.9663 -1.6111
 8461SOL     OW30512   9.560   1.683  10.005 -0.1169 -0.7032 -0.1648
 8461SOL    HW130513   9.628   1.740   9.968 -1.4588  0.8346 -0.2986
 8461SOL    HW230514   9.608   1.606  10.035  1.6941  0.3528 -0.2573
 8462SOL     OW30515  10.256   5.737   3.436  0.3108 -0.1768  0.4178
 8462SOL    HW130516  10.180   5.793   3.448  0.6779  0.2585  0.7301
 8462SOL    HW230517  10.323   5.795   3.400  0.5020 -0.5529  0.1572
 8463SOL     OW30518   7.937   5.659   5.817 -0.2910 -0.0239  0.0523
 8463SOL    HW130519   7.887   5.638   5.738 -0.3078 -1.5896  0.4680
 8463SOL    HW230520   8.026   5.677   5.786 -0.4757  0.1180 -0.3956
 8464SOL     OW30521   3.146   3.251   4.153  0.3915  0.5991 -0.4246
 8464SOL    HW130522   3.130   3.292   4.238  0.2127  1.0053 -0.6503
 8464SOL    HW230523   3.206   3.310   4.108 -0.8567  1.2797 -1.2423
 8465SOL     OW30524   6.174   4.717   2.539  0.6589 -0.1611  0.0755
 8465SOL    HW130525   6.098   4.746   2.590 -1.0382 -2.3906 -1.0908
 8465SOL    HW230526   6.147   4.731   2.448  1.9933 -0.1725 -0.3268
 8466SOL     OW30527   2.162   0.361   7.748 -1.0934 -0.0843 -0.1632
 8466SOL    HW130528   2.136   0.322   7.664  5.1732  1.3861 -3.0434
 8466SOL    HW230529   2.206   0.290   7.795  1.2411  0.7912 -0.9987
 8467SOL     OW30530   6.554   4.668   9.144 -0.3413 -0.4647  0.2801
 8467SOL    HW130531   6.633   4.626   9.110 -0.0691  0.5207 -0.3178
 8467SOL    HW230532   6.482   4.629   9.094 -0.0482  0.1204 -0.6077
 8468SOL     OW30533   5.829   1.516   0.358 -0.2913 -0.0988 -0.0502
 8468SOL    HW130534   5.772   1.480   0.290 -0.2256 -1.0114  0.3698
 8468SOL    HW230535   5.889   1.574   0.310  0.0193 -1.0463 -0.8411
 8469SOL     OW30536   7.398   3.768   8.745  0.3877 -0.7710 -0.0224
 8469SOL    HW130537   7.489   3.771   8.713  0.1110 -0.2752 -0.7664
 8469SOL    HW230538   7.357   3.697   8.696 -0.1100  0.1660 -0.9835
 8470SOL     OW30539   8.399   6.201   0.093 -0.1766  0.3801 -0.3808
 8470SOL    HW130540   8.338   6.164   0.157  2.7578 -1.7171  1.3000
 8470SOL    HW230541   8.372   6.163   0.009 -1.9707  0.5388  0.0972
 8471SOL     OW30542  10.314   9.754   4.070  0.4133 -0.8573  0.2895
 8471SOL    HW130543  10.285   9.745   3.980  0.6102  3.1737 -0.2712
 8471SOL    HW230544  10.232   9.759   4.121  0.0948  3.0917 -0.4527
 8472SOL     OW30545  11.074   5.937   9.711  0.2783  0.0234 -0.3733
 8472SOL    HW130546  11.167   5.934   9.689  0.4008 -1.1009  0.2383
 8472SOL    HW230547  11.029   5.913   9.630  0.5356  0.1919 -0.5657
 8473SOL     OW30548   8.829   0.244  10.733  0.3943 -0.0696  0.1091
 8473SOL    HW130549   8.877   0.275  10.810 -1.7179  0.0842  1.4148
 8473SOL    HW230550   8.759   0.309  10.722 -1.1285 -1.7102 -0.0907
 8474SOL     OW30551   3.854   2.954   5.576  0.4443  0.1721 -0.9713
 8474SOL    HW130552   3.906   2.880   5.608  1.6669  1.0477 -0.9137
 8474SOL    HW230553   3.845   2.937   5.482 -1.4207 -1.3442 -0.5413
 8475SOL     OW30554   6.579  10.001   0.024  0.3955  0.4068 -0.4402
 8475SOL    HW130555   6.652  10.031   0.080  0.3210  0.0412 -0.1442
 8475SOL    HW230556   6.577  10.065  -0.047 -0.6562  1.9422  0.9243
 8476SOL     OW30557   0.464  10.212  10.283 -0.0581  0.0721 -0.3021
 8476SOL    HW130558   0.478  10.120  10.258  0.8220 -0.2054  1.1729
 8476SOL    HW230559   0.551  10.249  10.289 -0.3601  0.7019  0.2640
 8477SOL     OW30560   6.536   3.469   8.217  0.2487  0.2012  0.2730
 8477SOL    HW130561   6.623   3.507   8.214  0.6983 -0.5958  2.4545
 8477SOL    HW230562   6.504   3.487   8.306 -0.8731 -1.5269  0.2560
 8478SOL     OW30563   6.648   9.957   7.486  0.0360 -0.2296 -0.1417
 8478SOL    HW130564   6.741   9.977   7.501 -0.2854 -0.1720  1.9676
 8478SOL    HW230565   6.638   9.867   7.515 -0.4081 -0.5019 -1.1326
 8479SOL     OW30566   0.839   1.412   7.048 -0.6061  0.3154 -0.4717
 8479SOL    HW130567   0.811   1.346   6.985  1.3510  0.6975 -1.7838
 8479SOL    HW230568   0.846   1.365   7.131  2.2329 -1.5503 -1.6904
 8480SOL     OW30569   7.882   1.124   4.443  0.3630 -0.0826 -0.7273
 8480SOL    HW130570   7.929   1.076   4.375  0.6480 -0.4296 -0.2813
 8480SOL    HW230571   7.814   1.064   4.473 -0.6553  0.5735 -1.6775
 8481SOL     OW30572   5.767   8.141  10.438  0.1977 -0.1936  0.3365
 8481SOL    HW130573   5.715   8.116  10.361  0.5848  0.5041 -0.1607
 8481SOL    HW230574   5.839   8.194  10.402  1.3790 -1.3292  0.9844
 8482SOL     OW30575   4.851   6.847   4.215 -0.4041 -0.1825  0.2010
 8482SOL    HW130576   4.854   6.885   4.127 -2.9299 -1.0490 -0.3101
 8482SOL    HW230577   4.762   6.865   4.245  0.0490 -1.0239  2.0812
 8483SOL     OW30578   3.804   0.486   4.952 -0.0644  0.4399 -0.2209
 8483SOL    HW130579   3.845   0.570   4.970  0.1265 -0.0751  1.8371
 8483SOL    HW230580   3.745   0.504   4.878  0.4909  2.1973 -0.2679
 8484SOL     OW30581  10.950   3.246   6.059 -0.1682 -0.1443 -0.8066
 8484SOL    HW130582  11.021   3.211   6.113  0.6501 -0.3790 -2.0103
 8484SOL    HW230583  10.953   3.193   5.979 -1.8321 -0.2871 -0.7931
 8485SOL     OW30584   3.402   8.977   3.184 -0.3833 -0.0756 -0.6177
 8485SOL    HW130585   3.372   8.923   3.110 -1.2797  0.8592 -0.9539
 8485SOL    HW230586   3.380   8.925   3.261 -0.7440 -0.4321 -0.9518
 8486SOL     OW30587   7.834   7.555   9.988  0.3553 -0.2007 -0.1958
 8486SOL    HW130588   7.861   7.635   9.944 -1.0385  0.6828  0.5239
 8486SOL    HW230589   7.834   7.489   9.919  0.3580  0.6791 -1.0528
 8487SOL     OW30590   2.528   3.701   3.875 -0.0212 -0.1992 -0.3043
 8487SOL    HW130591   2.548   3.644   3.949  0.0241 -1.4742 -1.2805
 8487SOL    HW230592   2.433   3.713   3.880 -0.1724 -1.2239 -0.7084
 8488SOL     OW30593  10.276   3.061   7.144  0.5913  0.2972  0.8778
 8488SOL    HW130594  10.213   3.128   7.119  1.0899  1.4704  2.6684
 8488SOL    HW230595  10.360   3.094   7.112  0.7761  0.2827  1.3580
 8489SOL     OW30596   9.055   6.872   5.841  0.0014 -0.2044 -0.2235
 8489SOL    HW130597   9.115   6.820   5.894  1.1372  0.5312 -0.7544
 8489SOL    HW230598   9.002   6.919   5.905  0.5837 -0.1969  0.2630
 8490SOL     OW30599   6.344   9.255   6.213 -0.2668 -0.4410  0.1394
 8490SOL    HW130600   6.402   9.280   6.285  1.3392  0.1366 -1.3188
 8490SOL    HW230601   6.301   9.337   6.187  0.8926 -0.1829 -1.0443
 8491SOL     OW30602   3.141   5.016   6.729  0.8461  0.4616  0.0006
 8491SOL    HW130603   3.178   5.026   6.641  0.5240  0.5581 -0.1245
 8491SOL    HW230604   3.122   4.922   6.736 -0.5337  0.6773 -0.6080
 8492SOL     OW30605   0.210   0.259   3.580  0.1092 -0.0708 -0.2022
 8492SOL    HW130606   0.153   0.229   3.651 -0.0629 -1.0292 -0.7406
 8492SOL    HW230607   0.268   0.324   3.621 -0.2296 -0.3515  0.7233
 8493SOL     OW30608   1.073   9.724  11.067  0.0859 -0.0155  0.1656
 8493SOL    HW130609   1.146   9.735  11.006  0.2503 -1.9697 -0.0329
 8493SOL    HW230610   1.104   9.761  11.149  1.8363 -2.0640  0.4654
 8494SOL     OW30611   9.247  10.363   8.376 -0.8793 -0.8446  0.6290
 8494SOL    HW130612   9.201  10.351   8.459 -1.1478 -0.4139  0.5454
 8494SOL    HW230613   9.332  10.323   8.389  0.5861  2.6496  2.4688
 8495SOL     OW30614   7.939  10.520   1.758 -0.5150  0.6213 -0.0057
 8495SOL    HW130615   7.901  10.596   1.714 -2.2874 -0.5588 -0.6057
 8495SOL    HW230616   7.993  10.478   1.691  0.1117  1.0987  0.1955
 8496SOL     OW30617   9.725   6.357  10.813 -0.0290 -0.1242 -0.3496
 8496SOL    HW130618   9.741   6.403  10.730 -1.6119 -0.3235 -0.7940
 8496SOL    HW230619   9.679   6.277  10.787  0.6408 -0.8377  0.6233
 8497SOL     OW30620   3.522   1.248   2.913 -0.2972 -0.7938 -0.2438
 8497SOL    HW130621   3.495   1.298   2.990 -1.1930 -0.7283 -0.5910
 8497SOL    HW230622   3.564   1.170   2.949  0.6978 -0.0158  0.2993
 8498SOL     OW30623   8.601   7.363   0.983  0.4377  0.0356 -0.1060
 8498SOL    HW130624   8.564   7.450   0.971  3.1695  1.4084  0.8729
 8498SOL    HW230625   8.683   7.365   0.934  1.2418 -1.4678  1.1364
 8499SOL     OW30626   9.920   8.126   3.901 -0.6825 -0.7227 -0.0401
 8499SOL    HW130627   9.951   8.104   3.989  0.0652  0.6641  0.0552
 8499SOL    HW230628   9.985   8.087   3.842 -0.8150 -1.0651  0.0402
 8500SOL     OW30629   9.521   5.338   8.860 -0.0879  0.4889  0.5625
 8500SOL    HW130630   9.540   5.426   8.828  0.2754 -0.5652 -2.2461
 8500SOL    HW230631   9.583   5.325   8.932  0.0735  2.3715  0.8095
 8501SOL     OW30632   7.853   5.247   8.079 -0.2308  0.8064 -0.5635
 8501SOL    HW130633   7.773   5.249   8.026 -1.0005 -0.4785  0.5156
 8501SOL    HW230634   7.857   5.157   8.112  0.6505  1.3792  0.9137
 8502SOL     OW30635   6.339   5.728   0.671  0.0992 -0.3439 -0.0875
 8502SOL    HW130636   6.306   5.724   0.581  0.7482 -0.9468 -0.3030
 8502SOL    HW230637   6.296   5.654   0.715  0.1951 -0.3724 -0.0410
 8503SOL     OW30638   9.613   9.936   0.435  0.2547 -0.3964  0.3259
 8503SOL    HW130639   9.577  10.009   0.386 -0.0927  0.3151  1.6119
 8503SOL    HW230640   9.594   9.859   0.382 -0.9622  0.2482 -0.1896
 8504SOL     OW30641   3.770   1.342   6.204  0.2331  0.6015 -0.3743
 8504SOL    HW130642   3.678   1.318   6.201 -0.1604  2.1500 -1.4209
 8504SOL    HW230643   3.788   1.380   6.118  1.0416  3.0759  0.8272
 8505SOL     OW30644   6.722   3.282   4.102 -0.0822 -0.4447 -0.0956
 8505SOL    HW130645   6.652   3.338   4.133  0.8351  0.7604 -0.1436
 8505SOL    HW230646   6.697   3.260   4.012 -0.1341  0.4140 -0.2922
 8506SOL     OW30647   1.115   8.637   0.939 -0.5939 -0.2013  0.1944
 8506SOL    HW130648   1.035   8.586   0.948 -1.4615  1.2051  0.5497
 8506SOL    HW230649   1.087   8.728   0.946  1.1508  0.2802  1.2115
 8507SOL     OW30650   2.483   0.746   3.789 -0.0189 -0.4400 -0.2988
 8507SOL    HW130651   2.467   0.749   3.884  1.8017  1.0704 -0.0000
 8507SOL    HW230652   2.397   0.758   3.749 -0.9407 -2.0105  1.1628
 8508SOL     OW30653   0.428   8.285   9.342  0.4944 -0.3342 -0.2738
 8508SOL    HW130654   0.426   8.190   9.350 -0.5434 -0.2588  0.5698
 8508SOL    HW230655   0.442   8.302   9.249  1.9938 -1.2991 -0.2363
 8509SOL     OW30656   1.166   3.612   6.122  0.4608 -0.8606 -0.2729
 8509SOL    HW130657   1.203   3.528   6.152  1.4261  0.3006  1.9218
 8509SOL    HW230658   1.119   3.646   6.198 -3.1691 -1.1440 -2.2828
 8510SOL     OW30659   9.343   3.537   2.973  0.9216  0.2718  0.0082
 8510SOL    HW130660   9.308   3.465   2.921 -1.4767  1.6353 -0.3403
 8510SOL    HW230661   9.356   3.608   2.910  0.0190  1.2490  0.9118
 8511SOL     OW30662   1.528   4.808   7.414  0.2121 -0.1676 -0.4571
 8511SOL    HW130663   1.536   4.729   7.468 -0.0657 -0.7947 -1.3083
 8511SOL    HW230664   1.457   4.858   7.455  0.1707 -0.5156 -0.0979
 8512SOL     OW30665   2.221   4.110   9.018 -0.8382 -0.0823  0.2258
 8512SOL    HW130666   2.312   4.114   9.048 -0.7964  0.2963  0.0507
 8512SOL    HW230667   2.188   4.028   9.053 -0.3448 -0.3496  0.0664
 8513SOL     OW30668  10.243   8.839   5.906  0.2770 -0.2180  0.4024
 8513SOL    HW130669  10.258   8.806   5.817 -2.4038 -0.4769  0.0135
 8513SOL    HW230670  10.275   8.769   5.963 -0.7029 -1.3561 -0.4010
 8514SOL     OW30671   7.330   6.853  10.599 -0.3553  0.2980 -0.3870
 8514SOL    HW130672   7.373   6.909  10.664 -1.0753  0.9236 -0.4482
 8514SOL    HW230673   7.285   6.914  10.540 -0.5610 -0.3130 -0.8664
 8515SOL     OW30674   6.051  10.696   0.300  0.5673 -0.8112 -0.2329
 8515SOL    HW130675   6.128  10.713   0.354 -0.4939  0.6321  0.8682
 8515SOL    HW230676   5.978  10.732   0.351 -0.7986 -1.9273 -1.3767
 8516SOL     OW30677   6.020   2.556   7.665 -0.1117 -0.0477  0.0632
 8516SOL    HW130678   6.047   2.635   7.712 -0.0247  0.3620 -0.6612
 8516SOL    HW230679   6.059   2.484   7.714  2.5869  0.5362 -1.0953
 8517SOL     OW30680   1.589   7.480   7.700 -0.2767 -0.1441 -0.0956
 8517SOL    HW130681   1.588   7.403   7.757 -0.2982  0.3445  0.5675
 8517SOL    HW230682   1.502   7.518   7.709 -0.1044  0.2401 -0.0358
 8518SOL     OW30683   4.484   1.566   1.384  0.1057  0.5807 -0.3822
 8518SOL    HW130684   4.488   1.522   1.469  1.6595  1.0982 -0.1621
 8518SOL    HW230685   4.451   1.654   1.404 -1.2334  0.1375 -0.5736
 8519SOL     OW30686   5.146  10.010   4.089  0.1740  0.2957 -0.4083
 8519SOL    HW130687   5.219  10.063   4.057  0.0068 -0.6205 -2.3841
 8519SOL    HW230688   5.072  10.034   4.033 -0.4458 -0.4508  0.0733
 8520SOL     OW30689  11.119   5.019   0.790 -0.5356  0.4637 -0.3163
 8520SOL    HW130690  11.094   5.102   0.830 -1.0559 -0.2182  0.8074
 8520SOL    HW230691  11.065   5.013   0.712  0.6171  1.8999 -1.2617
 8521SOL     OW30692   0.164   1.281   2.346  0.2786 -0.0183 -0.0828
 8521SOL    HW130693   0.189   1.193   2.320  0.6315 -0.5875  2.0486
 8521SOL    HW230694   0.090   1.268   2.406 -1.3365  1.2938 -1.7475
 8522SOL     OW30695   3.494   7.005   9.833 -0.4827 -0.1096  0.6266
 8522SOL    HW130696   3.523   6.989   9.923  1.3369  1.1489  0.2941
 8522SOL    HW230697   3.552   6.950   9.780 -1.7715 -1.1017  0.2283
 8523SOL     OW30698   4.557   8.223   1.812  0.4978 -0.3952 -0.1973
 8523SOL    HW130699   4.651   8.237   1.808  0.4574 -0.1299 -0.2278
 8523SOL    HW230700   4.539   8.160   1.742  0.6347 -0.3533 -0.2719
 8524SOL     OW30701   7.873   2.852   9.916  0.4759  0.0300 -0.2971
 8524SOL    HW130702   7.948   2.853   9.975  0.5631 -1.5945 -0.3610
 8524SOL    HW230703   7.799   2.827   9.971 -0.0276  1.6664 -0.2285
 8525SOL     OW30704   8.354   1.460   6.030 -0.1149  0.2657 -0.2189
 8525SOL    HW130705   8.401   1.464   5.947  1.0122  1.8952  0.4741
 8525SOL    HW230706   8.268   1.496   6.010 -0.0020  0.2269 -0.7814
 8526SOL     OW30707   1.023  11.092   5.211  0.2876  0.4104 -0.0926
 8526SOL    HW130708   1.114  11.115   5.227  0.6070  1.3475 -2.9588
 8526SOL    HW230709   0.974  11.172   5.228  0.2507  0.5182 -0.7200
 8527SOL     OW30710   5.198   1.582   4.659  0.2599  0.1760 -0.5212
 8527SOL    HW130711   5.269   1.645   4.660 -0.4024  0.9277 -0.5582
 8527SOL    HW230712   5.241   1.497   4.664  1.1521  0.6301 -0.4775
 8528SOL     OW30713   9.816   6.412  10.025  0.8096  0.6471  0.0411
 8528SOL    HW130714   9.728   6.377  10.010  0.8948  0.7780 -0.8088
 8528SOL    HW230715   9.802   6.502  10.054  0.7261  1.5502 -2.7028
 8529SOL     OW30716   2.785   9.173   1.772  0.2131  0.5989  0.4866
 8529SOL    HW130717   2.881   9.175   1.773  0.2435 -0.8289  1.3541
 8529SOL    HW230718   2.760   9.197   1.862 -0.0935 -4.2218  1.7895
 8530SOL     OW30719   6.108   7.485   8.828  0.4567 -0.3428  0.4626
 8530SOL    HW130720   6.035   7.546   8.835  0.5503 -0.1273 -0.3442
 8530SOL    HW230721   6.122   7.453   8.917 -0.7993 -0.6036  0.5638
 8531SOL     OW30722   3.614   6.360   1.045  0.0646 -0.8464  0.0507
 8531SOL    HW130723   3.519   6.367   1.035  0.2545  2.3258  0.1088
 8531SOL    HW230724   3.649   6.393   0.963  1.1679  1.1938  1.3259
 8532SOL     OW30725   8.134   1.799   6.501  0.0402  0.3600 -0.3350
 8532SOL    HW130726   8.117   1.786   6.594  0.5397 -0.5565 -0.3673
 8532SOL    HW230727   8.225   1.770   6.489 -0.0665  0.3530 -1.1310
 8533SOL     OW30728   1.189   7.508   6.852  0.0131 -0.3463 -0.1966
 8533SOL    HW130729   1.171   7.547   6.938 -1.2328 -0.4173 -0.4209
 8533SOL    HW230730   1.196   7.584   6.793  0.4515 -0.3201 -0.1146
 8534SOL     OW30731   0.485   3.942  10.825  0.4707  0.1257  0.0024
 8534SOL    HW130732   0.419   4.002  10.860  0.8407 -0.2782  1.4463
 8534SOL    HW230733   0.466   3.937  10.731 -0.4201  1.4157  0.0961
 8535SOL     OW30734   9.070   6.779  11.253  0.2836 -0.5336 -0.2348
 8535SOL    HW130735   9.091   6.688  11.233 -0.1662 -0.4008 -1.3610
 8535SOL    HW230736   9.113   6.796  11.337  1.1053 -1.5152 -0.4487
 8536SOL     OW30737   6.747   2.241   4.967  1.0717  0.0408  0.3008
 8536SOL    HW130738   6.788   2.322   4.937  0.0899  0.2145 -0.6198
 8536SOL    HW230739   6.674   2.227   4.906 -0.0595 -0.4123  1.7238
 8537SOL     OW30740   9.655   8.939  11.083 -0.5788 -0.0922  0.0887
 8537SOL    HW130741   9.652   8.855  11.131 -1.9353 -0.2938 -0.3258
 8537SOL    HW230742   9.612   9.001  11.141  1.5926  0.6445  0.9678
 8538SOL     OW30743   0.583   2.051   3.492  0.1210 -0.2410  0.0681
 8538SOL    HW130744   0.595   2.122   3.429 -0.7508 -0.6609 -0.5864
 8538SOL    HW230745   0.496   2.065   3.528 -0.3816 -1.4337 -0.6547
 8539SOL     OW30746   0.364   5.801   0.307  0.2235 -0.0518  0.3515
 8539SOL    HW130747   0.292   5.746   0.338  0.6199 -0.9621 -0.3203
 8539SOL    HW230748   0.428   5.800   0.378 -0.2725  0.4676  0.8032
 8540SOL     OW30749   6.704   9.714   1.014  0.1699  0.0081  0.1288
 8540SOL    HW130750   6.760   9.787   1.042  1.1363 -0.3979 -0.6978
 8540SOL    HW230751   6.691   9.663   1.093 -1.1163  1.4569  0.8803
 8541SOL     OW30752   3.603   6.044   8.790  0.3110 -0.0619 -0.2520
 8541SOL    HW130753   3.670   6.040   8.858 -1.0565 -3.3852  1.0505
 8541SOL    HW230754   3.528   6.087   8.832 -0.4417 -1.8821  0.3720
 8542SOL     OW30755  11.187   5.751  10.394  0.1923 -0.2445  0.1007
 8542SOL    HW130756  11.241   5.830  10.388 -2.8000  1.8769 -0.0872
 8542SOL    HW230757  11.104   5.776  10.352 -1.2515 -3.0907  1.1655
 8543SOL     OW30758   7.477   5.240   8.818 -0.2001 -0.6095  0.3540
 8543SOL    HW130759   7.485   5.326   8.777 -0.6420 -0.6899  0.0910
 8543SOL    HW230760   7.494   5.178   8.747 -1.0757 -0.7520  0.2695
 8544SOL     OW30761   3.613   0.229   7.032  0.5776  0.2554  0.3013
 8544SOL    HW130762   3.600   0.151   7.086 -1.1252  0.7445  0.6080
 8544SOL    HW230763   3.568   0.299   7.078  1.6516  1.3379 -0.2459
 8545SOL     OW30764   1.427   6.213  10.802  0.1691  0.0517  0.2327
 8545SOL    HW130765   1.473   6.237  10.721 -0.3845  1.2476  0.2550
 8545SOL    HW230766   1.481   6.145  10.841 -0.0661 -1.2652 -1.6409
 8546SOL     OW30767   9.791   6.711  10.987  0.4106  0.1130  0.8017
 8546SOL    HW130768   9.879   6.701  10.951 -0.0502  0.1107 -0.3277
 8546SOL    HW230769   9.796   6.791  11.039  0.9937  0.2884  0.4796
 8547SOL     OW30770   8.082   6.634   5.097 -0.0674 -0.2161  0.7325
 8547SOL    HW130771   8.067   6.653   5.004  3.2002  1.0999  0.3892
 8547SOL    HW230772   8.086   6.539   5.101 -4.1649 -0.5097  0.2741
 8548SOL     OW30773  10.324  11.077  11.277 -0.2624  0.1228 -0.2999
 8548SOL    HW130774  10.372  11.094  11.196  0.5361  0.1334  0.1749
 8548SOL    HW230775  10.340  11.153  11.332 -0.7042  0.0593 -0.0785
 8549SOL     OW30776   3.085   5.578   3.603  0.4399 -0.0025 -0.1311
 8549SOL    HW130777   3.043   5.494   3.582  0.0299 -0.2496  1.6396
 8549SOL    HW230778   3.178   5.562   3.589  0.0887  0.2887 -3.2191
 8550SOL     OW30779   0.276   0.178  10.691  0.0973  0.4093 -0.5112
 8550SOL    HW130780   0.232   0.100  10.725 -0.5812  1.0987  0.1953
 8550SOL    HW230781   0.243   0.186  10.601  1.1097 -0.8118 -1.0191
 8551SOL     OW30782   1.215   2.262   2.332  0.4077  0.2589  0.5870
 8551SOL    HW130783   1.125   2.279   2.358  0.4730 -1.1275  1.8401
 8551SOL    HW230784   1.218   2.282   2.239 -0.9540  1.2265  0.7453
 8552SOL     OW30785  10.858   7.189   2.491  0.5265  0.2752  0.3956
 8552SOL    HW130786  10.795   7.165   2.422  1.1061  0.5269 -0.2301
 8552SOL    HW230787  10.873   7.282   2.477 -0.2196  0.5775  1.5892
 8553SOL     OW30788   5.598   5.808   9.243 -0.2630  0.0470 -0.3159
 8553SOL    HW130789   5.510   5.772   9.255 -0.7022  1.0246 -0.5293
 8553SOL    HW230790   5.649   5.771   9.315 -0.8490 -0.5256 -0.1934
 8554SOL     OW30791   2.471   3.833   7.481  0.1517 -0.1811  0.2492
 8554SOL    HW130792   2.447   3.909   7.535  1.3821 -1.0215  2.0347
 8554SOL    HW230793   2.390   3.810   7.435 -0.5177  1.5277  0.5284
 8555SOL     OW30794   9.142   1.616   5.817  0.4808  0.0990 -0.0450
 8555SOL    HW130795   9.105   1.697   5.852 -1.3384 -0.6505 -0.1863
 8555SOL    HW230796   9.091   1.546   5.859  2.5968 -1.0185  0.7553
 8556SOL     OW30797   9.362   3.594   1.639 -0.2172 -0.4027 -0.3378
 8556SOL    HW130798   9.334   3.674   1.683 -1.7711 -1.0378 -0.1386
 8556SOL    HW230799   9.281   3.548   1.619  0.6054 -1.3935 -1.4739
 8557SOL     OW30800   6.348   7.216   9.696  0.1090  0.6345  0.1431
 8557SOL    HW130801   6.304   7.231   9.612 -1.5066  1.7413  1.1478
 8557SOL    HW230802   6.318   7.289   9.752  1.9002  0.4486  1.3892
 8558SOL     OW30803  10.491   5.127   4.660  0.1619  0.3999 -0.2056
 8558SOL    HW130804  10.432   5.197   4.690 -1.1448 -0.5438 -0.5268
 8558SOL    HW230805  10.510   5.150   4.569  1.4802  1.4843  0.3190
 8559SOL     OW30806   1.018   6.239  10.247  0.2703  0.1283  0.6652
 8559SOL    HW130807   1.010   6.259  10.154  0.4261  1.8454  1.0149
 8559SOL    HW230808   1.000   6.321  10.291 -0.0750 -0.7398  2.1740
 8560SOL     OW30809   6.297   2.090  10.476 -0.4846 -0.5272 -0.0981
 8560SOL    HW130810   6.339   2.031  10.538 -0.4110 -0.1860  0.1772
 8560SOL    HW230811   6.337   2.068  10.392  0.6131  0.1196  0.2379
 8561SOL     OW30812   8.133   2.419   3.334  0.1293  0.1871  0.1370
 8561SOL    HW130813   8.205   2.465   3.289  0.3020 -0.9332 -0.7688
 8561SOL    HW230814   8.082   2.488   3.375  1.1495  1.0844 -0.0785
 8562SOL     OW30815   9.578   3.622   3.772  0.0664 -0.5403  0.0238
 8562SOL    HW130816   9.631   3.679   3.716 -0.9149  0.1884 -0.1892
 8562SOL    HW230817   9.499   3.605   3.720 -1.8970  1.9958  2.0216
 8563SOL     OW30818   0.196   5.106  10.877 -0.3541  0.0636  0.3804
 8563SOL    HW130819   0.258   5.176  10.856  0.1087 -0.3877  0.2353
 8563SOL    HW230820   0.117   5.152  10.905  0.2000  0.6386  1.0193
 8564SOL     OW30821   9.276   7.465  10.453  0.4668  0.6818  0.1734
 8564SOL    HW130822   9.226   7.546  10.449 -0.4785  0.0961 -0.1649
 8564SOL    HW230823   9.262   7.432  10.542  0.7326  0.8082  0.2638
 8565SOL     OW30824   1.696  10.710   4.487 -0.1860 -0.1507 -0.3988
 8565SOL    HW130825   1.606  10.678   4.495 -0.9913  2.0282 -0.4537
 8565SOL    HW230826   1.691  10.803   4.509  1.9788  0.0986 -0.8282
 8566SOL     OW30827   4.077   3.341   9.751 -0.2879  1.0162 -0.3307
 8566SOL    HW130828   4.119   3.342   9.837  0.1521  1.3713 -0.5490
 8566SOL    HW230829   4.130   3.399   9.697 -0.1279  0.2278 -1.0497
 8567SOL     OW30830   8.765   7.972   3.644  0.0788 -0.2091 -0.0529
 8567SOL    HW130831   8.767   7.943   3.553 -0.3244  0.1541 -0.1731
 8567SOL    HW230832   8.678   7.949   3.676  0.2715 -0.4757  0.2888
 8568SOL     OW30833   8.305   7.403   2.979  0.4912 -0.4984  0.2841
 8568SOL    HW130834   8.339   7.401   2.889  1.4079 -0.4772  0.6203
 8568SOL    HW230835   8.257   7.486   2.984  0.8748 -0.2512 -0.0344
 8569SOL     OW30836   5.798  10.267   1.448 -0.5091  0.8146  0.0725
 8569SOL    HW130837   5.757  10.255   1.534 -1.9543  1.3150 -0.5338
 8569SOL    HW230838   5.826  10.180   1.422 -2.0078  0.3233  0.0967
 8570SOL     OW30839   3.106   9.048   1.442  0.2086 -0.2003 -0.6886
 8570SOL    HW130840   3.073   9.018   1.526  0.5573  2.1271  0.3143
 8570SOL    HW230841   3.122   9.142   1.454  1.0126  0.0152 -3.1012
 8571SOL     OW30842   2.228  10.197   2.403  0.8627 -0.3324 -0.0660
 8571SOL    HW130843   2.230  10.107   2.435  0.4891 -0.7907 -1.2963
 8571SOL    HW230844   2.192  10.248   2.475  0.3353 -1.2923  0.3539
 8572SOL     OW30845   0.015   5.241   8.674 -0.7034  0.1983  0.1562
 8572SOL    HW130846  -0.008   5.294   8.750  0.5461 -0.3341  0.9293
 8572SOL    HW230847  -0.037   5.161   8.684 -1.6281  0.7240 -0.3347
 8573SOL     OW30848   5.845   4.275   1.817  0.4698 -0.0808  0.1722
 8573SOL    HW130849   5.752   4.253   1.826 -0.1654  1.7834 -1.4234
 8573SOL    HW230850   5.870   4.311   1.902 -0.0461 -1.3045  0.8512
 8574SOL     OW30851  11.254   7.985   9.766 -0.0158  0.2306 -0.1979
 8574SOL    HW130852  11.248   7.894   9.797 -1.6288  0.4924  0.3114
 8574SOL    HW230853  11.330   7.985   9.707 -0.3825 -1.5989 -0.7124
 8575SOL     OW30854   3.738   5.308   8.407  0.2356  0.5385 -0.2555
 8575SOL    HW130855   3.651   5.278   8.431 -0.2862  3.4862  1.6969
 8575SOL    HW230856   3.725   5.363   8.330  0.5220  0.2795 -0.4960
 8576SOL     OW30857   7.855   5.592   4.812 -0.7405 -0.1397  0.1887
 8576SOL    HW130858   7.937   5.548   4.790  0.6790  3.2656 -1.6967
 8576SOL    HW230859   7.861   5.608   4.906  1.1401  0.7963 -0.0834
 8577SOL     OW30860   9.344   7.999   8.272 -0.2485 -0.4075  0.2027
 8577SOL    HW130861   9.422   8.020   8.322 -0.5637  0.9261  0.1499
 8577SOL    HW230862   9.273   7.998   8.336 -0.5329  0.5570 -0.0994
 8578SOL     OW30863   1.041   1.145   1.075  0.5471 -0.2976  0.2689
 8578SOL    HW130864   1.062   1.054   1.095  0.8869 -0.2158  0.2791
 8578SOL    HW230865   0.954   1.141   1.035  1.2206 -0.7854 -1.1663
 8579SOL     OW30866   1.794   5.269   8.698  0.2559  0.3942 -0.1751
 8579SOL    HW130867   1.830   5.193   8.744 -0.6354  0.0734 -0.0120
 8579SOL    HW230868   1.706   5.244   8.673  0.1730  1.1489 -0.6777
 8580SOL     OW30869  11.330   5.280   8.187  0.5554  0.2527  0.3050
 8580SOL    HW130870  11.238   5.259   8.201  0.0131  3.1871  1.2617
 8580SOL    HW230871  11.376   5.228   8.253 -0.5696  0.3815  1.2073
 8581SOL     OW30872   4.208   3.315   3.339 -0.4734  0.1472 -0.7250
 8581SOL    HW130873   4.142   3.310   3.270 -1.7646 -0.8075  0.5461
 8581SOL    HW230874   4.169   3.370   3.406  0.8913  1.3101 -0.8499
 8582SOL     OW30875   5.214   3.799   2.749 -0.1560  0.8313 -0.3951
 8582SOL    HW130876   5.227   3.744   2.826  1.0083 -0.2380 -1.3170
 8582SOL    HW230877   5.134   3.766   2.708  0.3163  0.0737 -0.7217
 8583SOL     OW30878   2.360   4.275   0.256  0.0809 -0.4573  0.4903
 8583SOL    HW130879   2.310   4.320   0.324  1.6228  0.4529  1.0499
 8583SOL    HW230880   2.295   4.252   0.189 -1.1573  0.2278  1.4404
 8584SOL     OW30881   2.774   4.331   4.518  0.3393 -0.3984  0.0897
 8584SOL    HW130882   2.732   4.410   4.484  1.1134  0.0558  0.1829
 8584SOL    HW230883   2.703   4.283   4.561  0.0758  0.8115  1.0645
 8585SOL     OW30884  10.988   2.726   3.739 -0.3972 -0.7213  0.2721
 8585SOL    HW130885  11.079   2.700   3.754  0.5284  1.1602 -1.7718
 8585SOL    HW230886  10.978   2.806   3.790 -1.1626 -1.3386  1.1056
 8586SOL     OW30887   1.400   0.540   5.656  0.0975 -0.3935  0.2375
 8586SOL    HW130888   1.486   0.513   5.622  0.7093  1.3692  0.2902
 8586SOL    HW230889   1.370   0.607   5.595 -2.6682 -3.0791 -1.4728
 8587SOL     OW30890   1.510   4.317   8.894 -0.6822  0.3982  0.4028
 8587SOL    HW130891   1.521   4.412   8.887  4.0764 -0.0510 -0.2852
 8587SOL    HW230892   1.485   4.288   8.806 -2.0563  1.0097  0.5954
 8588SOL     OW30893   3.993  11.044   6.474  0.3492 -0.3164  0.3694
 8588SOL    HW130894   3.997  11.039   6.569 -0.1652 -0.6072  0.3820
 8588SOL    HW230895   4.079  11.074   6.447 -0.1382  1.7590  1.0499
 8589SOL     OW30896   6.208   7.669   2.399  0.2170  0.3459 -0.1175
 8589SOL    HW130897   6.169   7.699   2.317 -0.3680  1.3723  0.5261
 8589SOL    HW230898   6.236   7.749   2.443  1.4807 -0.2679  0.2147
 8590SOL     OW30899   5.241   5.367   3.380 -0.0036 -0.3164 -0.1210
 8590SOL    HW130900   5.288   5.304   3.325  0.0632 -1.0700  0.7891
 8590SOL    HW230901   5.155   5.375   3.339  0.9841  1.2862 -1.9630
 8591SOL     OW30902   2.983   4.071   8.017  0.5032  0.0811 -0.0375
 8591SOL    HW130903   2.926   4.146   8.029  1.6274  1.0478 -0.6920
 8591SOL    HW230904   2.953   4.029   7.937  0.9277  0.7863 -0.5647
 8592SOL     OW30905   5.394   0.397   8.608  0.4622  0.1209  0.0693
 8592SOL    HW130906   5.387   0.439   8.522  1.2774  1.8524  0.8031
 8592SOL    HW230907   5.484   0.364   8.611  0.3117 -0.2863  0.1110
 8593SOL     OW30908   6.033   1.687   5.306 -0.1761 -0.0495 -0.2103
 8593SOL    HW130909   5.996   1.775   5.297 -1.8685 -0.9078 -2.1713
 8593SOL    HW230910   6.000   1.655   5.390 -0.4360  0.7839  0.0046
 8594SOL     OW30911   7.069   4.411   6.907  0.6121  0.6197 -0.3308
 8594SOL    HW130912   7.039   4.406   6.997 -1.8700  0.8895 -1.0910
 8594SOL    HW230913   7.042   4.328   6.868  1.2111  0.7055 -0.9371
 8595SOL     OW30914   8.901   4.991   2.762  0.0005  0.2955  0.3940
 8595SOL    HW130915   8.824   4.974   2.708 -0.8898  1.6375  1.2109
 8595SOL    HW230916   8.974   4.984   2.702 -0.8057 -0.4677 -0.5119
 8596SOL     OW30917  11.333   7.005   6.001  0.4054  0.2973  0.5389
 8596SOL    HW130918  11.315   6.925   6.051  1.2794  1.3090  2.5401
 8596SOL    HW230919  11.426   6.998   5.978  1.1079  1.7360  2.7070
 8597SOL     OW30920   8.018   6.362   0.153 -0.0687  0.1875 -0.3646
 8597SOL    HW130921   8.033   6.268   0.149 -0.8205  0.0624 -0.3560
 8597SOL    HW230922   7.995   6.379   0.245 -0.2767  0.3240 -0.4419
 8598SOL     OW30923   3.581   7.171   4.561 -0.3013  0.2195 -0.5438
 8598SOL    HW130924   3.530   7.129   4.630 -1.1156  2.2889  0.1746
 8598SOL    HW230925   3.672   7.156   4.585 -0.5866 -0.0695  0.3475
 8599SOL     OW30926   5.019   8.197   9.293 -0.2568  0.1813 -0.1092
 8599SOL    HW130927   5.026   8.101   9.296 -1.1000  0.0237 -2.3061
 8599SOL    HW230928   5.107   8.226   9.269 -0.2006 -0.0840 -0.2288
 8600SOL     OW30929   3.451   6.933   5.784 -0.1475  0.1398 -0.6058
 8600SOL    HW130930   3.536   6.899   5.811  0.3597  1.4795 -0.5077
 8600SOL    HW230931   3.444   7.019   5.825 -0.9943  0.5905 -1.6532
 8601SOL     OW30932   0.426   5.591   5.587  1.0753 -0.0522  0.5256
 8601SOL    HW130933   0.333   5.569   5.587  0.9758  0.2391 -1.7277
 8601SOL    HW230934   0.428   5.684   5.610  0.8144 -0.0794  0.6641
 8602SOL     OW30935   2.711   5.360   9.451 -0.2060 -0.2597 -0.0817
 8602SOL    HW130936   2.694   5.266   9.459 -0.4617 -0.0033  2.6515
 8602SOL    HW230937   2.787   5.365   9.392 -1.1651 -2.0693 -1.5199
 8603SOL     OW30938  10.582   3.492   5.304  0.2909 -0.3670 -0.5165
 8603SOL    HW130939  10.595   3.397   5.306 -0.9223 -0.5300 -0.1085
 8603SOL    HW230940  10.600   3.521   5.393  0.4499 -0.2420 -0.5891
 8604SOL     OW30941   0.536   8.620   4.961  0.2688 -0.1328 -0.0170
 8604SOL    HW130942   0.517   8.675   4.884  0.1105 -0.0149  0.1071
 8604SOL    HW230943   0.476   8.546   4.953  1.1602 -0.8001 -0.7161
 8605SOL     OW30944  10.016   4.242   9.592  0.2265  0.5761  0.4802
 8605SOL    HW130945  10.059   4.328   9.594 -0.7312  1.0495  1.3194
 8605SOL    HW230946  10.018   4.212   9.683 -0.4051  0.1939  0.3711
 8606SOL     OW30947   8.853   2.827   5.571  0.0977  0.0678  0.0787
 8606SOL    HW130948   8.803   2.755   5.532 -2.1142  2.1304 -1.0367
 8606SOL    HW230949   8.845   2.898   5.508  3.4279  0.8909  0.5051
 8607SOL     OW30950   1.865   9.176   2.514 -0.2844 -0.8603 -0.2468
 8607SOL    HW130951   1.938   9.233   2.491 -1.1701 -0.2512 -1.6058
 8607SOL    HW230952   1.854   9.188   2.608  1.2597 -0.8413 -0.0573
 8608SOL     OW30953   3.923   8.201   1.421 -0.3159  0.9137 -0.0546
 8608SOL    HW130954   3.941   8.151   1.342  0.6990  1.3749 -0.1113
 8608SOL    HW230955   3.845   8.253   1.399 -0.3825  0.6103 -0.5456
 8609SOL     OW30956   4.723   4.355   5.084  0.0826  0.6808 -0.0885
 8609SOL    HW130957   4.762   4.387   5.003  1.4371 -1.7430 -0.4482
 8609SOL    HW230958   4.783   4.383   5.153  0.4677  0.2088 -0.2341
 8610SOL     OW30959   2.923   1.007   0.886  0.1830  0.0117 -0.0738
 8610SOL    HW130960   2.880   1.022   0.971  2.1136 -2.9509  1.4970
 8610SOL    HW230961   2.861   1.040   0.822 -1.4710  2.0595  2.4635
 8611SOL     OW30962   7.935   8.676   9.984 -0.1227 -0.4693 -0.0365
 8611SOL    HW130963   7.994   8.629  10.042  0.0795  0.8387  0.8462
 8611SOL    HW230964   7.990   8.740   9.940 -0.7138  0.1718  0.1382
 8612SOL     OW30965   5.735   9.798   5.720  0.3716  0.2743 -0.1935
 8612SOL    HW130966   5.761   9.706   5.723 -0.4133  0.0806  0.7587
 8612SOL    HW230967   5.804   9.840   5.668  0.0663 -1.0618 -1.7075
 8613SOL     OW30968   1.286   8.872   0.798  0.1280 -0.7456 -0.3475
 8613SOL    HW130969   1.260   8.896   0.887  0.6073  1.3100 -0.7364
 8613SOL    HW230970   1.209   8.893   0.744 -0.0249 -1.6291 -0.4794
 8614SOL     OW30971   1.391   7.210   4.540  0.1377 -0.8287 -0.8807
 8614SOL    HW130972   1.328   7.141   4.565 -0.5489  0.4539  1.0657
 8614SOL    HW230973   1.366   7.285   4.594  2.7771 -0.0083 -0.7481
 8615SOL     OW30974   9.783   7.466   0.457  0.2456 -0.9874 -0.3889
 8615SOL    HW130975   9.813   7.505   0.375 -0.2488  2.3076  0.9143
 8615SOL    HW230976   9.854   7.408   0.483  1.9584  0.5970 -1.3936
 8616SOL     OW30977   5.440   4.359   0.039  0.3478  0.0807  0.5179
 8616SOL    HW130978   5.531   4.346   0.015 -0.2861 -0.3431 -1.8447
 8616SOL    HW230979   5.391   4.327  -0.037 -1.6925  2.1967  0.8755
 8617SOL     OW30980  10.111   4.427   1.398 -0.1746 -0.0670 -0.0007
 8617SOL    HW130981  10.185   4.467   1.351  1.0177 -1.7229  0.4221
 8617SOL    HW230982  10.149   4.351   1.442 -1.8333 -0.0699  1.4813
 8618SOL     OW30983  11.060   3.853   8.372 -0.8092  0.0901 -0.4958
 8618SOL    HW130984  11.024   3.815   8.453  1.8214 -1.9120 -0.1976
 8618SOL    HW230985  11.110   3.928   8.403  0.4569 -0.8604 -0.2053
 8619SOL     OW30986   7.630   1.978   1.612  0.3874 -0.7398 -0.1065
 8619SOL    HW130987   7.684   2.048   1.649  0.0957 -1.1283  1.0923
 8619SOL    HW230988   7.673   1.897   1.641 -0.4426 -1.0511  0.2895
 8620SOL     OW30989   5.101   4.698   1.700  0.4301  0.2262  0.0831
 8620SOL    HW130990   5.114   4.792   1.701 -1.7617  0.6105 -2.3491
 8620SOL    HW230991   5.136   4.669   1.616  0.5269 -1.0474  0.5416
 8621SOL     OW30992   3.421   9.474   4.095 -0.2656 -0.6822  0.6486
 8621SOL    HW130993   3.373   9.509   4.169 -1.0529 -2.3784  0.9467
 8621SOL    HW230994   3.373   9.395   4.069  1.4632 -1.5488 -0.0194
 8622SOL     OW30995   4.943   1.782  11.240  0.4456 -0.4013 -0.4017
 8622SOL    HW130996   4.855   1.771  11.275  0.4219 -0.2013 -0.3972
 8622SOL    HW230997   4.931   1.800  11.147  0.3150  2.4168  0.0919
 8623SOL     OW30998   9.716   6.782   2.155  0.3314  0.3245 -0.0248
 8623SOL    HW130999   9.639   6.778   2.212  0.3534 -0.6936 -0.0514
 8623SOL    HW231000   9.706   6.707   2.096  1.1107  0.4516 -0.3260
 8624SOL     OW31001   5.684  11.025   9.723 -0.0766  0.2262  0.9571
 8624SOL    HW131002   5.681  10.963   9.796 -0.3856  0.7960  1.4368
 8624SOL    HW231003   5.740  11.096   9.754  1.8774 -0.7326 -0.3314
 8625SOL     OW31004   3.619  10.842   8.810 -0.1616 -0.3183 -0.3270
 8625SOL    HW131005   3.566  10.856   8.731  0.0689  0.6874 -0.3219
 8625SOL    HW231006   3.693  10.903   8.799  0.7216 -1.3347 -0.0947
 8626SOL     OW31007  10.287   9.518   9.390 -0.6546 -0.3230 -0.4471
 8626SOL    HW131008  10.272   9.576   9.316 -1.1423  0.0742 -0.0379
 8626SOL    HW231009  10.373   9.543   9.424 -0.6234 -0.2178 -0.6034
 8627SOL     OW31010   0.991   2.328   5.958 -0.2362  0.2635 -0.1917
 8627SOL    HW131011   0.915   2.348   5.904  0.4809  1.9695 -0.5689
 8627SOL    HW231012   0.957   2.330   6.048 -0.7437  0.5056 -0.3880
 8628SOL     OW31013   0.052  10.357   0.451  0.0558 -0.1103 -0.8274
 8628SOL    HW131014   0.022  10.428   0.395  0.3748 -0.0469 -0.9174
 8628SOL    HW231015   0.110  10.398   0.514 -1.8400  0.1230  0.7878
 8629SOL     OW31016   7.780   2.144   7.729 -0.9960  0.3527  0.4017
 8629SOL    HW131017   7.855   2.139   7.788  0.8200  1.8883 -1.6749
 8629SOL    HW231018   7.763   2.238   7.720 -0.4801  0.2331 -2.3551
 8630SOL     OW31019   6.187   6.218   4.410  1.1840  0.5990 -0.2840
 8630SOL    HW131020   6.159   6.160   4.480 -0.6494  0.8390 -0.8093
 8630SOL    HW231021   6.244   6.282   4.454 -0.0824  0.8568  1.0190
 8631SOL     OW31022   8.921   5.250   5.590 -0.0084 -0.1902  0.5374
 8631SOL    HW131023   8.971   5.209   5.661 -0.7324 -0.5382  0.8530
 8631SOL    HW231024   8.986   5.298   5.540  0.7991 -1.4057  0.3921
 8632SOL     OW31025   7.106   1.654   4.930  0.6966  0.3314 -0.2256
 8632SOL    HW131026   7.059   1.604   4.997 -0.0303  0.8950 -0.3111
 8632SOL    HW231027   7.192   1.611   4.924  0.2376 -0.6286  0.0095
 8633SOL     OW31028   2.520   1.411   3.035  0.0053 -0.4531  0.0732
 8633SOL    HW131029   2.475   1.485   2.995  0.8421 -0.0679 -0.1591
 8633SOL    HW231030   2.572   1.373   2.965 -1.1690 -1.8746 -0.0645
 8634SOL     OW31031   1.798   1.881   0.813 -0.2217 -0.1732  0.1436
 8634SOL    HW131032   1.733   1.913   0.751  0.9556  0.2163 -0.9134
 8634SOL    HW231033   1.855   1.824   0.761  1.1430  0.6377  0.7210
 8635SOL     OW31034   3.351  10.237   2.466 -0.2674 -0.2712 -0.1616
 8635SOL    HW131035   3.373  10.166   2.406 -0.1921  1.1720 -1.9160
 8635SOL    HW231036   3.346  10.196   2.552  1.0847 -2.1334 -0.9364
 8636SOL     OW31037  11.335   6.142   1.507 -0.3597  0.4388  0.4506
 8636SOL    HW131038  11.332   6.236   1.487 -0.8297  0.7637  1.9575
 8636SOL    HW231039  11.429   6.122   1.509 -0.2939  0.4104 -1.8661
 8637SOL     OW31040   3.450   1.257   4.481 -0.1859  0.1821 -0.8475
 8637SOL    HW131041   3.545   1.248   4.493 -0.2926  0.6081  0.3258
 8637SOL    HW231042   3.417   1.168   4.485  0.1196  0.0680 -0.8452
 8638SOL     OW31043   4.095   5.235   1.057 -0.6479  0.0728 -0.2550
 8638SOL    HW131044   4.075   5.306   1.118 -1.7639 -0.2330 -0.2645
 8638SOL    HW231045   4.150   5.175   1.107 -3.0393 -1.1022  1.0546
 8639SOL     OW31046   2.545   3.003   3.805  0.5728 -0.7155 -0.0530
 8639SOL    HW131047   2.496   2.953   3.741 -0.6968  0.7493 -0.2487
 8639SOL    HW231048   2.615   3.045   3.755  0.4154 -0.6799 -0.2410
 8640SOL     OW31049  10.410  10.008   9.258  0.2146 -0.4429  0.1126
 8640SOL    HW131050  10.335  10.009   9.199 -0.4459 -0.0216  0.9656
 8640SOL    HW231051  10.381   9.957   9.334  1.1433 -1.1834 -0.0085
 8641SOL     OW31052   1.309  11.306   9.699  0.4685  0.0574  0.4245
 8641SOL    HW131053   1.245  11.237   9.681  0.3157 -0.0252  1.2353
 8641SOL    HW231054   1.278  11.381   9.649  0.2800 -0.2766  0.0408
 8642SOL     OW31055   7.665  11.028   1.670 -0.5417  0.4649 -0.5461
 8642SOL    HW131056   7.619  10.945   1.658  0.4683 -0.2631  0.6050
 8642SOL    HW231057   7.675  11.061   1.580 -1.6480 -0.2494 -0.9598
 8643SOL     OW31058   4.083   7.235   9.253 -0.1198 -0.6078 -0.5130
 8643SOL    HW131059   4.122   7.322   9.252  0.9550 -1.0318  1.4963
 8643SOL    HW231060   4.138   7.184   9.192 -0.9796  0.1745 -1.9784
 8644SOL     OW31061  11.325   1.834   9.005  0.0292  0.3545  0.4125
 8644SOL    HW131062  11.264   1.882   8.950  0.2211 -1.1580 -1.1782
 8644SOL    HW231063  11.411   1.853   8.966  0.0633 -1.5715 -0.4958
 8645SOL     OW31064   6.625   5.262   6.767 -0.0255  0.0601  0.2099
 8645SOL    HW131065   6.697   5.199   6.772 -1.2754 -1.4551 -0.3761
 8645SOL    HW231066   6.569   5.229   6.697 -0.2989  2.2866 -0.6683
 8646SOL     OW31067   7.958   8.522   3.386  0.2963 -0.6554  0.1784
 8646SOL    HW131068   7.902   8.460   3.340 -0.2800 -0.4493  0.5915
 8646SOL    HW231069   7.909   8.546   3.465  0.4837  0.3707 -0.0019
 8647SOL     OW31070   4.911   4.682  10.413 -0.0554  0.1375 -0.0037
 8647SOL    HW131071   4.889   4.612  10.352  0.2392 -2.5510  2.8862
 8647SOL    HW231072   5.001   4.704  10.393  0.2866 -1.2742 -0.0381
 8648SOL     OW31073   0.996   6.398  10.470  0.4687  0.0531 -0.2661
 8648SOL    HW131074   0.978   6.491  10.475  2.6653  0.6235 -1.8713
 8648SOL    HW231075   1.082   6.388  10.511  1.4247 -0.8311 -2.4044
 8649SOL     OW31076  10.844   8.098   7.003  0.0090 -0.4800 -0.2548
 8649SOL    HW131077  10.816   8.079   7.093 -0.3221 -1.8496 -0.6423
 8649SOL    HW231078  10.936   8.122   7.012 -0.1931  0.0251  0.5287
 8650SOL     OW31079   3.109   1.703   1.037  0.2838  0.1025 -0.6067
 8650SOL    HW131080   3.178   1.769   1.035  2.5380 -2.2061 -1.7627
 8650SOL    HW231081   3.122   1.652   0.957 -0.1718 -2.9597  1.1892
 8651SOL     OW31082   1.929   6.227   4.347  0.4761  0.0272 -0.0044
 8651SOL    HW131083   2.019   6.231   4.381  0.9865  1.0906 -1.4451
 8651SOL    HW231084   1.917   6.135   4.325  0.0997 -0.7256  3.0598
 8652SOL     OW31085   2.648   4.584   4.534 -0.5547  0.2444  0.7534
 8652SOL    HW131086   2.575   4.623   4.583 -0.1519  1.3506  0.4830
 8652SOL    HW231087   2.609   4.560   4.450 -1.0259 -0.8056  1.2650
 8653SOL     OW31088   4.254   6.258  10.054 -0.6320  0.5611  0.1974
 8653SOL    HW131089   4.194   6.323  10.089 -2.4784 -0.7984 -0.3914
 8653SOL    HW231090   4.253   6.272   9.959 -0.2708  0.3228  0.1573
 8654SOL     OW31091   1.058   3.804   7.208 -0.1715 -0.6171  0.2772
 8654SOL    HW131092   1.150   3.792   7.186 -0.1144 -0.0508  0.1836
 8654SOL    HW231093   1.035   3.888   7.167 -0.5609 -0.4559  0.8217
 8655SOL     OW31094   1.427   0.022   1.680 -0.0987  0.1844 -0.1360
 8655SOL    HW131095   1.382  -0.062   1.679  0.6460 -0.2315  0.5314
 8655SOL    HW231096   1.502   0.009   1.622 -0.7844  0.8553 -1.1937
 8656SOL     OW31097   7.414   3.883  10.070 -0.1641  0.0607  0.5465
 8656SOL    HW131098   7.453   3.885   9.983 -0.3798 -1.1931  0.4141
 8656SOL    HW231099   7.406   3.975  10.095 -1.1306  0.4624 -1.2019
 8657SOL     OW31100   0.558   5.203  10.062 -0.4330  0.1075  0.2485
 8657SOL    HW131101   0.648   5.215  10.093 -0.8681  0.9212  1.2215
 8657SOL    HW231102   0.506   5.262  10.117 -1.8813 -2.1548  1.3719
 8658SOL     OW31103   6.834   0.207   1.151 -0.1712 -0.0789 -0.9322
 8658SOL    HW131104   6.881   0.172   1.227 -0.4866 -0.5339 -0.9479
 8658SOL    HW231105   6.886   0.180   1.076 -0.4118 -0.4983 -0.9440
 8659SOL     OW31106   3.180   0.489   7.776 -0.0888  0.7563 -0.2476
 8659SOL    HW131107   3.252   0.459   7.720  0.3718  0.7195  0.3682
 8659SOL    HW231108   3.197   0.450   7.861 -1.2950  0.0595 -0.3111
 8660SOL     OW31109   9.360   0.067   8.501 -0.1720 -0.0251  0.6357
 8660SOL    HW131110   9.359   0.131   8.571  0.8672 -0.1417  0.7759
 8660SOL    HW231111   9.289   0.007   8.521  0.4441 -0.3544  1.8823
 8661SOL     OW31112   5.297   8.341   1.872  0.1292 -0.4848 -0.4177
 8661SOL    HW131113   5.214   8.296   1.857 -0.8834  1.2969 -0.3397
 8661SOL    HW231114   5.355   8.273   1.908 -1.2855 -1.7460 -0.4618
 8662SOL     OW31115   3.016   4.408   4.994  0.0419 -0.0463 -0.1999
 8662SOL    HW131116   3.100   4.362   4.993 -0.3128 -0.6955 -0.4670
 8662SOL    HW231117   3.002   4.435   4.903  0.1451  0.4021 -0.0845
 8663SOL     OW31118   9.586   1.220   5.534  0.3709 -0.5996  0.9921
 8663SOL    HW131119   9.602   1.305   5.493 -0.8634  0.1039  1.9335
 8663SOL    HW231120   9.649   1.161   5.493  1.6630  0.9071  0.7661
 8664SOL     OW31121   6.137   3.946   0.096  0.1805  0.9663  0.1682
 8664SOL    HW131122   6.175   3.858   0.103 -0.4957  0.7416  1.2539
 8664SOL    HW231123   6.154   3.973   0.006 -0.1580 -0.5381 -0.3691
 8665SOL     OW31124   1.316   8.423  10.878 -0.2488 -0.2282 -0.5556
 8665SOL    HW131125   1.380   8.423  10.806  1.2794 -2.0678  0.7291
 8665SOL    HW231126   1.317   8.512  10.911  3.9640 -0.8265  1.3086
 8666SOL     OW31127   5.447  10.294   3.735 -0.2462 -0.0919  1.1543
 8666SOL    HW131128   5.475  10.290   3.644 -0.5116  0.2895  1.0560
 8666SOL    HW231129   5.472  10.382   3.764  0.7228 -0.5523  1.7378
 8667SOL     OW31130   5.492   7.254   3.796  0.2097  0.0839 -0.0459
 8667SOL    HW131131   5.497   7.220   3.886 -0.8927  0.8944  0.3442
 8667SOL    HW231132   5.470   7.178   3.743  0.0145 -0.2435  0.4980
 8668SOL     OW31133   5.900   5.386   2.900 -0.0404 -0.1602 -0.0502
 8668SOL    HW131134   5.867   5.434   2.824  1.1349  0.1272 -0.3967
 8668SOL    HW231135   5.852   5.303   2.899 -0.3456  0.0248 -0.8584
 8669SOL     OW31136   1.732   9.249   5.049  0.7740 -0.1899 -0.3962
 8669SOL    HW131137   1.669   9.188   5.011  0.3849  0.4549 -0.7943
 8669SOL    HW231138   1.759   9.305   4.976  0.9390  0.2742  0.0152
 8670SOL     OW31139   4.334  10.150   0.589  0.1514 -0.1287  0.4045
 8670SOL    HW131140   4.417  10.114   0.621  1.7056  0.1185 -3.1654
 8670SOL    HW231141   4.269  10.082   0.611  1.8089 -1.7318  0.4852
 8671SOL     OW31142  10.786  11.084  11.281  0.1922  0.7453 -0.2104
 8671SOL    HW131143  10.749  10.999  11.255 -1.1271  1.7737 -1.7241
 8671SOL    HW231144  10.829  11.117  11.202  1.0024  1.3561  0.4714
 8672SOL     OW31145   9.167   6.576   0.153 -0.3384 -0.1649 -0.1480
 8672SOL    HW131146   9.242   6.595   0.209  1.6063  0.2020 -2.8477
 8672SOL    HW231147   9.098   6.634   0.186  1.9939  3.0391 -0.6855
 8673SOL     OW31148   1.542   1.099  10.426  0.0221 -0.0479 -0.2782
 8673SOL    HW131149   1.585   1.124  10.508 -1.1576 -0.5371  0.5011
 8673SOL    HW231150   1.611   1.057  10.375  0.0208 -2.7895  1.8309
 8674SOL     OW31151   8.935   5.661   7.350 -0.0109 -0.0555 -0.5808
 8674SOL    HW131152   9.007   5.660   7.413  0.9604 -2.7625 -1.6568
 8674SOL    HW231153   8.856   5.668   7.403  0.9705  1.4700  0.6967
 8675SOL     OW31154   5.244   5.634   3.647  0.1518 -0.1755 -0.0033
 8675SOL    HW131155   5.159   5.635   3.604  0.2087  2.8447 -0.1753
 8675SOL    HW231156   5.227   5.658   3.738  0.7891  0.3746 -0.0190
 8676SOL     OW31157  10.384   2.209  10.597 -0.2185 -0.1157 -0.2885
 8676SOL    HW131158  10.441   2.191  10.672  0.1659  0.5765 -0.4082
 8676SOL    HW231159  10.386   2.129  10.545  0.4146 -0.1906 -0.1459
 8677SOL     OW31160   9.429   0.123   0.693  0.1444 -0.7399  0.1201
 8677SOL    HW131161   9.519   0.117   0.660  0.2208 -1.5278  0.4439
 8677SOL    HW231162   9.377   0.148   0.616  0.6911  0.1027  0.0193
 8678SOL     OW31163   7.036   6.136   4.516  0.1949 -0.2661 -0.1123
 8678SOL    HW131164   7.046   6.230   4.533  0.3108 -0.1299 -0.9242
 8678SOL    HW231165   6.949   6.115   4.548 -0.0892  0.2599 -0.5420
 8679SOL     OW31166  10.811   9.426   1.289 -0.1499  0.0686 -0.3152
 8679SOL    HW131167  10.788   9.432   1.382 -0.7470  2.1240 -0.5759
 8679SOL    HW231168  10.882   9.362   1.286 -0.7063 -0.6653  1.4485
 8680SOL     OW31169   2.978   2.685   9.790  0.3603 -0.1416  0.2939
 8680SOL    HW131170   2.998   2.744   9.717  1.5530  0.1386  0.8429
 8680SOL    HW231171   2.894   2.717   9.824 -0.2620 -0.3336 -1.0079
 8681SOL     OW31172   4.911   3.610   7.566 -0.1311 -0.4606 -0.1808
 8681SOL    HW131173   4.885   3.631   7.656 -1.0336  0.1859 -0.5876
 8681SOL    HW231174   4.926   3.516   7.567  0.3171 -0.3838  0.7659
 8682SOL     OW31175   4.061   5.765   9.979 -0.0813  0.5479 -0.3306
 8682SOL    HW131176   4.046   5.851  10.019  0.3999  0.5078 -0.0675
 8682SOL    HW231177   3.998   5.707  10.021  1.5745  0.1183  1.6352
 8683SOL     OW31178  11.245   2.399   0.769 -0.3303 -0.4898  0.0380
 8683SOL    HW131179  11.299   2.387   0.847  0.4290  2.0603 -0.0619
 8683SOL    HW231180  11.306   2.391   0.696 -0.3870  0.6971 -0.1444
 8684SOL     OW31181   1.281   0.619  10.802  0.6062 -0.2297 -0.3140
 8684SOL    HW131182   1.210   0.555  10.796 -0.4246  0.9382 -0.8478
 8684SOL    HW231183   1.330   0.594  10.880 -1.1706 -0.2815  0.7994
 8685SOL     OW31184   7.697   3.851   6.903  0.1768 -0.4655 -0.8350
 8685SOL    HW131185   7.609   3.864   6.938 -0.1111 -0.4453 -1.5620
 8685SOL    HW231186   7.694   3.765   6.862  0.1018  0.1240 -2.0663
 8686SOL     OW31187  10.031   9.023   3.480  0.4100 -0.4492  0.0922
 8686SOL    HW131188  10.028   8.927   3.477 -2.4265 -0.3965 -0.1352
 8686SOL    HW231189  10.091   9.047   3.409  2.0924 -2.0867  0.9369
 8687SOL     OW31190   3.221   0.602   1.771  0.3263  0.3893 -0.0486
 8687SOL    HW131191   3.243   0.538   1.704  0.6517  1.7631 -1.2772
 8687SOL    HW231192   3.176   0.552   1.839  0.4037 -1.0884 -1.0779
 8688SOL     OW31193   1.562   0.535   5.285 -0.1511 -0.5969  0.0155
 8688SOL    HW131194   1.590   0.503   5.370  0.2702  0.4678  0.2855
 8688SOL    HW231195   1.550   0.630   5.297 -2.4412 -0.7865 -0.4708
 8689SOL     OW31196   6.746   2.311   0.771  0.0012  0.5643 -0.6903
 8689SOL    HW131197   6.697   2.385   0.807 -1.2664 -0.6964  0.2144
 8689SOL    HW231198   6.691   2.235   0.787  1.6384 -0.7018 -0.8732
 8690SOL     OW31199   3.780   7.331   0.434  0.1932  0.3905  0.1987
 8690SOL    HW131200   3.806   7.282   0.356 -0.1128  0.4924  0.0315
 8690SOL    HW231201   3.688   7.309   0.447 -0.1306  1.4347 -0.2711
 8691SOL     OW31202   8.907  10.937   3.962 -0.1837 -0.0460 -0.7578
 8691SOL    HW131203   8.849  10.986   3.904  1.4346  0.3549 -2.0690
 8691SOL    HW231204   8.954  11.004   4.012 -2.9928 -0.4132  2.4949
 8692SOL     OW31205   8.209   6.831   8.999  0.1598 -0.0856  0.0184
 8692SOL    HW131206   8.296   6.861   8.973 -0.1675  1.9430  1.1268
 8692SOL    HW231207   8.159   6.912   9.011 -1.8387 -1.2222 -0.4747
 8693SOL     OW31208   1.017   1.235   8.284 -0.1558 -0.5099  0.0365
 8693SOL    HW131209   0.946   1.233   8.218  0.9687  0.2594 -1.2262
 8693SOL    HW231210   1.086   1.182   8.245  0.8362  0.6364  0.2170
 8694SOL     OW31211   2.751   7.204   3.049  0.0467 -0.0841  0.2569
 8694SOL    HW131212   2.837   7.168   3.069  0.6624  2.1834  1.8603
 8694SOL    HW231213   2.752   7.216   2.954  0.8612 -1.6073  0.0600
 8695SOL     OW31214   1.397   0.907   3.231 -0.1424 -0.1240 -0.0249
 8695SOL    HW131215   1.432   0.994   3.210  2.2033 -0.8336  0.7065
 8695SOL    HW231216   1.426   0.851   3.159  1.1854 -0.9410  1.1064
 8696SOL     OW31217   8.830   9.562   8.145 -0.2514 -0.8391  0.4243
 8696SOL    HW131218   8.784   9.644   8.167 -0.5833 -0.9998  0.3361
 8696SOL    HW231219   8.905   9.560   8.203 -0.8987 -1.0580  1.2653
 8697SOL     OW31220   8.583   9.563   6.666  0.2369  1.0143  0.0853
 8697SOL    HW131221   8.552   9.475   6.645  2.4879  0.3869 -0.7070
 8697SOL    HW231222   8.541   9.620   6.601 -1.6819  0.6254  0.9628
 8698SOL     OW31223   5.430   2.094   8.162 -0.3925  0.0932  0.0809
 8698SOL    HW131224   5.357   2.143   8.124  0.2505  0.9522 -0.0594
 8698SOL    HW231225   5.412   2.091   8.256 -0.9917 -0.3571 -0.0425
 8699SOL     OW31226   5.641   2.419   0.706 -0.1233  0.0251  0.6739
 8699SOL    HW131227   5.657   2.372   0.788 -0.9058 -1.1162  0.1827
 8699SOL    HW231228   5.603   2.502   0.733  0.6148  0.1062  1.5155
 8700SOL     OW31229   2.584   3.823   6.913 -0.0020  0.5562 -0.3084
 8700SOL    HW131230   2.494   3.799   6.893 -0.6954  0.7332  2.4749
 8700SOL    HW231231   2.585   3.919   6.910 -0.0570  0.5756  0.2799
 8701SOL     OW31232   2.499  10.088  10.601  0.1072  0.0846  0.1548
 8701SOL    HW131233   2.416  10.131  10.622  1.5159  1.5314  3.1092
 8701SOL    HW231234   2.475   9.996  10.587 -2.0561  0.5485  0.5411
 8702SOL     OW31235   3.466   2.757   6.847 -0.1399  0.4107 -0.0430
 8702SOL    HW131236   3.392   2.730   6.794  0.3163  0.5251 -0.7428
 8702SOL    HW231237   3.428   2.816   6.913 -0.3364  2.3206 -1.8179
 8703SOL     OW31238   8.447   0.510   2.463  0.5214 -0.0255  0.4703
 8703SOL    HW131239   8.459   0.427   2.416 -0.4083  0.1924 -0.1867
 8703SOL    HW231240   8.354   0.510   2.487  0.2999  1.2058 -0.3103
 8704SOL     OW31241   3.782   3.749   3.152 -0.1558 -0.4221  0.3086
 8704SOL    HW131242   3.858   3.808   3.149 -1.1648  0.8265 -0.9878
 8704SOL    HW231243   3.728   3.774   3.078 -2.1487 -0.9237  1.5395
 8705SOL     OW31244   0.129   8.845   2.766  0.3046  0.3142  0.1990
 8705SOL    HW131245   0.137   8.792   2.687 -1.4371 -4.0420  2.7769
 8705SOL    HW231246   0.199   8.813   2.823  0.1987  1.9201  1.2602
 8706SOL     OW31247   1.015   9.508   9.459  0.0964 -0.8057  0.1129
 8706SOL    HW131248   1.089   9.531   9.516  0.7335  0.8742 -1.3466
 8706SOL    HW231249   0.978   9.429   9.499  3.2070 -2.2123  0.4118
 8707SOL     OW31250  10.384   5.866   4.847  0.4004  0.0275 -0.7292
 8707SOL    HW131251  10.291   5.885   4.835  0.5036  0.8027 -0.3148
 8707SOL    HW231252  10.404   5.893   4.937  1.6703  2.5705 -1.7198
 8708SOL     OW31253   6.725   8.057   9.398  0.1676 -0.4265  0.5172
 8708SOL    HW131254   6.786   7.986   9.418  0.2360 -0.5430 -0.0894
 8708SOL    HW231255   6.770   8.108   9.330  0.9736  1.3394  2.3491
 8709SOL     OW31256   8.817   5.503  10.273  0.7518 -0.1657  0.3021
 8709SOL    HW131257   8.778   5.429  10.319  3.2759 -1.5295  0.3243
 8709SOL    HW231258   8.828   5.473  10.183 -2.7322  1.9563 -0.9481
 8710SOL     OW31259   6.342   2.928   2.376 -0.0304 -0.3523  0.1577
 8710SOL    HW131260   6.436   2.944   2.388 -0.1909  0.7658 -0.0358
 8710SOL    HW231261   6.332   2.834   2.389  0.8785 -0.2349  1.8587
 8711SOL     OW31262   5.290   3.154   2.560 -0.0268  0.0643 -0.0837
 8711SOL    HW131263   5.335   3.234   2.533 -0.4922  0.1384 -0.6649
 8711SOL    HW231264   5.209   3.154   2.509  0.1950 -1.0223 -0.4544
 8712SOL     OW31265   9.699   5.647   1.219 -0.4991 -0.0919  0.4211
 8712SOL    HW131266   9.781   5.696   1.220 -1.0434  0.8140  2.6502
 8712SOL    HW231267   9.663   5.664   1.131  0.7060  1.1739  0.1440
 8713SOL     OW31268   0.270   0.249   0.040  0.2596 -0.1749  0.1471
 8713SOL    HW131269   0.255   0.178  -0.022  0.4797 -0.6641  0.6475
 8713SOL    HW231270   0.258   0.329  -0.011  2.6616 -0.5480 -1.0956
 8714SOL     OW31271   6.036   6.065  11.101 -0.1406  0.0081 -0.0930
 8714SOL    HW131272   5.983   6.144  11.088 -2.5187 -1.3834  0.8419
 8714SOL    HW231273   6.038   6.052  11.195 -1.2862 -2.0178 -0.3164
 8715SOL     OW31274   9.867   4.177   3.588 -0.1747 -0.4107  0.0362
 8715SOL    HW131275   9.942   4.181   3.529 -0.6059 -2.3377 -0.7026
 8715SOL    HW231276   9.899   4.130   3.665 -0.3654 -0.3856  0.1326
 8716SOL     OW31277   7.895   5.489   4.522  0.4328 -0.5769 -0.2592
 8716SOL    HW131278   7.878   5.417   4.461  0.4976 -0.4075 -0.4756
 8716SOL    HW231279   7.808   5.515   4.553  0.3780 -0.4359 -0.5371
 8717SOL     OW31280  10.112   3.342   3.484  0.0149  1.0346  1.0262
 8717SOL    HW131281  10.074   3.427   3.505 -2.0638  0.5166 -0.4211
 8717SOL    HW231282  10.166   3.358   3.407  0.1675  1.1849  1.1658
 8718SOL     OW31283  10.105   9.161   8.042 -0.7362 -0.9240 -0.3483
 8718SOL    HW131284  10.084   9.092   7.979 -1.4248 -1.4870  0.4841
 8718SOL    HW231285  10.020   9.187   8.078 -0.4515  0.1671 -0.4568
 8719SOL     OW31286   3.410   5.899   3.784 -0.1710 -0.0017  0.0583
 8719SOL    HW131287   3.352   5.851   3.843  0.5904 -1.4902 -0.3806
 8719SOL    HW231288   3.484   5.925   3.839 -1.4710  2.3881  0.7528
 8720SOL     OW31289   2.411  10.428   1.127  0.3929 -0.2131 -0.6682
 8720SOL    HW131290   2.318  10.432   1.149  0.9248  0.9926  1.5124
 8720SOL    HW231291   2.436  10.338   1.145  0.0415 -0.0894  0.4921
 8721SOL     OW31292   0.047   4.373   9.218  0.1469  0.5875 -0.7058
 8721SOL    HW131293  -0.009   4.318   9.272 -0.7290  1.2319 -0.9593
 8721SOL    HW231294  -0.010   4.403   9.148  0.2199  3.0267  0.2495
 8722SOL     OW31295   9.112   3.902   0.918  0.0888  0.0539  0.3266
 8722SOL    HW131296   9.198   3.936   0.941  0.9254 -0.8102 -1.4278
 8722SOL    HW231297   9.063   3.903   1.000  2.1003 -0.3958  1.5686
 8723SOL     OW31298   2.016   4.104   1.126  0.6747 -0.3612  0.3228
 8723SOL    HW131299   1.947   4.157   1.167  0.8426  1.1202 -1.2470
 8723SOL    HW231300   2.089   4.164   1.116  1.7045 -1.5453  0.6361
 8724SOL     OW31301   7.817   2.588   2.793 -0.8736  0.5079 -0.7848
 8724SOL    HW131302   7.890   2.553   2.845 -0.2687 -0.1470 -2.0588
 8724SOL    HW231303   7.834   2.683   2.791 -0.3646  0.4248 -0.6206
 8725SOL     OW31304   6.880   3.027   2.917 -0.2583  0.0402 -0.3157
 8725SOL    HW131305   6.889   2.998   2.827 -1.4884 -0.7788 -0.1910
 8725SOL    HW231306   6.895   3.121   2.914 -0.1116 -0.0143 -1.3519
 8726SOL     OW31307   5.682   4.378   5.630  1.0703  0.1821  0.4227
 8726SOL    HW131308   5.744   4.451   5.627  0.6687  0.5172  0.1485
 8726SOL    HW231309   5.737   4.300   5.630  1.4768  0.4611 -0.5656
 8727SOL     OW31310   7.548   8.998   3.997 -0.1381 -0.2015 -0.2060
 8727SOL    HW131311   7.539   9.042   3.912 -1.5339 -0.2732 -0.1041
 8727SOL    HW231312   7.614   9.050   4.044 -0.1354  0.4561 -0.9303
 8728SOL     OW31313   0.940   7.520   1.676  0.4939  0.2982 -0.1093
 8728SOL    HW131314   0.877   7.453   1.649  2.5926 -2.4010  1.3959
 8728SOL    HW231315   1.001   7.527   1.602 -0.0066  0.9331 -0.4673
 8729SOL     OW31316   5.663   5.117   3.123 -0.6715 -0.1047 -0.0554
 8729SOL    HW131317   5.690   5.123   3.031 -1.7980  0.8908 -0.3398
 8729SOL    HW231318   5.726   5.171   3.170 -0.2628 -0.3834 -0.2772
 8730SOL     OW31319  10.452   3.985   3.960  0.3172 -0.1974  0.3023
 8730SOL    HW131320  10.478   3.989   4.052  0.1456 -1.2022  0.4067
 8730SOL    HW231321  10.522   3.935   3.918 -0.5362 -1.3666  0.2479
 8731SOL     OW31322   6.108   0.238   2.635 -0.2624 -0.1565  0.0874
 8731SOL    HW131323   6.098   0.324   2.594 -3.3527  0.2192  1.4903
 8731SOL    HW231324   6.087   0.176   2.566 -0.3017  0.2831 -0.2966
 8732SOL     OW31325   1.849   2.792   4.575 -0.0836 -0.0422 -0.0339
 8732SOL    HW131326   1.820   2.858   4.512 -1.4196 -2.6744 -2.2736
 8732SOL    HW231327   1.937   2.821   4.602  0.7407  0.8931 -3.4977
 8733SOL     OW31328   3.590   5.261   9.051  0.1192  0.6192 -0.0264
 8733SOL    HW131329   3.622   5.233   8.965  1.3363  1.1871  0.2389
 8733SOL    HW231330   3.504   5.300   9.033  0.3959  0.7879 -0.9885
 8734SOL     OW31331   2.893   5.652  10.177  0.3253 -0.3201  0.4120
 8734SOL    HW131332   2.847   5.633  10.095 -0.0113  1.3144  0.2050
 8734SOL    HW231333   2.936   5.736  10.162  0.5529 -0.1735  1.7910
 8735SOL     OW31334   2.433   6.683  10.408  0.1940 -0.6282 -0.5970
 8735SOL    HW131335   2.418   6.591  10.387  0.8745 -1.0581  0.7278
 8735SOL    HW231336   2.345   6.722  10.412 -0.2752 -1.8256  1.4521
 8736SOL     OW31337   3.278   4.695   2.672 -0.2007  0.0390  0.3916
 8736SOL    HW131338   3.252   4.777   2.715 -2.3448  0.6695 -1.9835
 8736SOL    HW231339   3.208   4.634   2.692  0.3661 -0.6032  0.4264
 8737SOL     OW31340   6.911   7.977   8.795 -0.3701  0.1590 -0.7492
 8737SOL    HW131341   6.872   8.015   8.716 -1.5307 -0.9927 -0.7423
 8737SOL    HW231342   6.961   8.049   8.833 -0.1093  0.8316 -2.3216
 8738SOL     OW31343   5.376   0.062   9.101  0.3725  0.4922  0.0013
 8738SOL    HW131344   5.287   0.028   9.097  0.2080  0.8581  0.5675
 8738SOL    HW231345   5.412   0.025   9.182  0.9353 -0.1317 -0.5224
 8739SOL     OW31346   3.944   1.781  11.179  0.1318  0.1760 -0.3863
 8739SOL    HW131347   3.890   1.735  11.115 -0.7336  0.7371 -0.0713
 8739SOL    HW231348   3.919   1.743  11.264  1.6361 -0.9145 -0.4213
 8740SOL     OW31349   1.498   7.196   0.424  0.3040  0.5970  0.0326
 8740SOL    HW131350   1.450   7.279   0.433  0.2245  0.3532  1.9306
 8740SOL    HW231351   1.432   7.128   0.439  0.4083  0.1619 -1.3512
 8741SOL     OW31352   0.310   5.472   0.563 -0.4936  0.2381  0.0399
 8741SOL    HW131353   0.285   5.515   0.481  0.4139  2.7744  1.0351
 8741SOL    HW231354   0.230   5.474   0.616 -0.4319  0.7512  0.1119
 8742SOL     OW31355   7.982   3.114   5.735  0.0181  0.0330 -0.1680
 8742SOL    HW131356   7.897   3.121   5.692 -1.2089  0.0663  2.1463
 8742SOL    HW231357   8.021   3.035   5.698 -1.5152 -0.6014 -0.4803
 8743SOL     OW31358   5.636   4.359   8.184 -0.5052  0.2483  0.6152
 8743SOL    HW131359   5.584   4.307   8.245 -0.2401  0.6712  1.2069
 8743SOL    HW231360   5.571   4.405   8.130 -0.7425  0.0965  0.7725
 8744SOL     OW31361   1.124   6.008   5.414 -0.2902 -0.6228 -0.2596
 8744SOL    HW131362   1.072   6.085   5.435  1.5119  1.6386 -3.7146
 8744SOL    HW231363   1.206   6.019   5.463 -1.0596 -1.7128  1.3109
 8745SOL     OW31364   2.223   4.014   0.087  0.7912  0.3567  0.0271
 8745SOL    HW131365   2.189   4.104   0.084 -2.9324 -0.8244  2.8763
 8745SOL    HW231366   2.195   3.976   0.004 -2.2492  0.3800  0.9781
 8746SOL     OW31367   2.905   3.184   7.929 -0.2534  0.2350  0.1833
 8746SOL    HW131368   2.893   3.089   7.924  2.6572 -0.2140  0.7495
 8746SOL    HW231369   2.870   3.208   8.014 -0.3507 -0.4307  0.3346
 8747SOL     OW31370   9.056  10.510   2.717 -0.0683 -0.3685 -0.5689
 8747SOL    HW131371   9.139  10.462   2.709 -1.0961 -2.1411 -0.8179
 8747SOL    HW231372   9.028  10.496   2.807 -0.0650  0.3084 -0.4578
 8748SOL     OW31373  10.728   3.428   4.146  0.2830  0.0557 -0.2990
 8748SOL    HW131374  10.657   3.366   4.131  0.1306  0.2469 -0.3590
 8748SOL    HW231375  10.773   3.394   4.224 -0.1668  0.2038  0.0270
 8749SOL     OW31376   5.105   1.274   7.563 -0.4099 -0.1876 -0.2719
 8749SOL    HW131377   5.022   1.312   7.534 -0.6866  1.5926  2.6666
 8749SOL    HW231378   5.080   1.200   7.619  0.0432 -1.3063 -1.5312
 8750SOL     OW31379   6.230   5.865   7.091  0.4217 -0.1020  0.2639
 8750SOL    HW131380   6.204   5.872   7.182 -1.0726  1.8637 -0.2894
 8750SOL    HW231381   6.324   5.847   7.094  0.8714  2.4507  2.1401
 8751SOL     OW31382   4.288  10.547   2.989 -0.7743 -0.1818 -0.3466
 8751SOL    HW131383   4.336  10.474   2.950  1.1152 -0.4131  2.2226
 8751SOL    HW231384   4.250  10.510   3.069 -0.3945  1.4452  0.6097
 8752SOL     OW31385   1.145   3.927   7.508  0.5432 -0.5768 -0.2138
 8752SOL    HW131386   1.204   3.854   7.526 -1.9988 -2.3959  0.9362
 8752SOL    HW231387   1.133   3.927   7.413  2.5335 -0.0395 -0.4858
 8753SOL     OW31388  11.135   9.244   2.671 -0.0859  0.5892  0.1411
 8753SOL    HW131389  11.190   9.275   2.743  2.2395 -1.2004 -0.7763
 8753SOL    HW231390  11.088   9.169   2.707  0.4811  0.1859  0.0639
 8754SOL     OW31391   9.730   6.038   5.266 -0.5109  0.2293 -0.2604
 8754SOL    HW131392   9.726   6.010   5.175  0.6648 -2.3179  0.4354
 8754SOL    HW231393   9.679   6.120   5.269 -0.2288  0.5326 -3.2396
 8755SOL     OW31394   7.691  10.879   8.883  0.3849 -0.1117 -0.4182
 8755SOL    HW131395   7.660  10.789   8.876 -2.1980  0.7308 -0.3886
 8755SOL    HW231396   7.616  10.927   8.918  1.6512  2.0866 -0.6622
 8756SOL     OW31397  10.316   8.377   9.564  0.1709 -0.1541 -0.3975
 8756SOL    HW131398  10.409   8.399   9.561  0.1404 -0.2939 -2.6301
 8756SOL    HW231399  10.271   8.461   9.572  0.4517 -0.0505  0.1180
 8757SOL     OW31400   9.131   3.757   7.856  0.4822 -0.6538  0.1827
 8757SOL    HW131401   9.093   3.675   7.887 -1.1534  0.0629  0.1279
 8757SOL    HW231402   9.108   3.760   7.763 -1.1942  0.7836  0.6174
 8758SOL     OW31403   1.569   0.436   1.653 -0.0447 -0.5608  0.0469
 8758SOL    HW131404   1.563   0.531   1.649  3.1029 -0.1304  2.9763
 8758SOL    HW231405   1.513   0.412   1.727  0.8438 -0.7767  0.6463
 8759SOL     OW31406  11.181   1.280   5.293 -0.4779 -0.6790 -0.6213
 8759SOL    HW131407  11.109   1.309   5.350  0.0815 -1.3499  0.4373
 8759SOL    HW231408  11.246   1.349   5.301 -1.4716  0.5204 -2.5095
 8760SOL     OW31409   3.418   3.828   5.105 -0.1839 -0.5335 -0.2351
 8760SOL    HW131410   3.425   3.885   5.028 -2.3891 -0.7234 -0.6030
 8760SOL    HW231411   3.454   3.880   5.177 -0.7460  0.7585 -0.8668
 8761SOL     OW31412   5.411   1.242   4.035 -0.1754  0.1105 -0.6353
 8761SOL    HW131413   5.428   1.179   3.965 -0.2644 -1.7476  0.9643
 8761SOL    HW231414   5.478   1.224   4.100 -0.4583  1.4145  0.0386
 8762SOL     OW31415   0.030  11.185   8.165 -0.6104 -0.3155  0.0292
 8762SOL    HW131416   0.122  11.192   8.188 -0.7957  0.0492  0.6763
 8762SOL    HW231417   0.021  11.097   8.128 -0.2955 -0.8969  1.3282
 8763SOL     OW31418   7.313   3.170   4.473 -0.1362 -0.3110  0.7952
 8763SOL    HW131419   7.325   3.075   4.471  0.3385 -0.2647  1.2066
 8763SOL    HW231420   7.381   3.203   4.414  0.4077 -0.1687  1.4887
 8764SOL     OW31421   6.401   7.715   2.113  0.4562  0.3169  0.6438
 8764SOL    HW131422   6.410   7.790   2.055  0.9075  0.6586  1.1425
 8764SOL    HW231423   6.335   7.660   2.072  1.4101  0.1086 -0.6525
 8765SOL     OW31424   6.095   4.903  11.164 -0.0169 -0.4594  0.0447
 8765SOL    HW131425   6.055   4.887  11.079  0.8145 -0.5332 -0.3372
 8765SOL    HW231426   6.021   4.914  11.224 -0.6152  0.3074 -0.8201
 8766SOL     OW31427   5.058   2.487   7.550 -0.2474  0.2864  0.8195
 8766SOL    HW131428   5.130   2.445   7.503 -0.4888  0.1733  0.5509
 8766SOL    HW231429   5.064   2.454   7.639 -0.4918 -0.3918  0.5857
 8767SOL     OW31430  11.133  10.229   9.227  1.1094 -0.1828  0.0196
 8767SOL    HW131431  11.228  10.235   9.243  1.1268  1.4288 -0.5317
 8767SOL    HW231432  11.125  10.164   9.158  1.9201  0.3411 -0.5869
 8768SOL     OW31433  10.377   4.525   1.080  0.1812 -0.5354 -0.1064
 8768SOL    HW131434  10.430   4.502   1.156 -0.4197  0.6294  0.6805
 8768SOL    HW231435  10.323   4.447   1.064 -1.3440  0.0026  2.1104
 8769SOL     OW31436   8.223   8.029   7.843 -0.1984  0.1086  0.6570
 8769SOL    HW131437   8.304   8.059   7.802 -0.7406 -1.3810 -1.6652
 8769SOL    HW231438   8.251   7.983   7.922  1.0417  1.5524  1.0704
 8770SOL     OW31439   2.777   4.377   3.637  0.5149 -0.3237  0.6682
 8770SOL    HW131440   2.848   4.437   3.660 -0.5463  1.2323  0.0165
 8770SOL    HW231441   2.807   4.334   3.557 -0.1657  1.9826 -0.8939
 8771SOL     OW31442   3.007   3.625   6.901 -0.7096 -0.2613 -0.5507
 8771SOL    HW131443   3.070   3.632   6.972  0.0251 -2.2415 -0.9679
 8771SOL    HW231444   3.038   3.687   6.835 -0.2242  0.0835  0.0058
 8772SOL     OW31445   0.977   5.999   8.910  0.2013 -0.7625 -0.3899
 8772SOL    HW131446   0.974   6.094   8.918  2.9528 -0.4849 -1.9906
 8772SOL    HW231447   0.922   5.978   8.835  0.3925 -0.3180 -0.6535
 8773SOL     OW31448   1.566   3.999   1.092  0.1124  0.0062 -0.2066
 8773SOL    HW131449   1.600   3.974   1.177 -0.1648  0.7197  0.1120
 8773SOL    HW231450   1.556   3.916   1.045 -0.2269 -0.4319  0.6341
 8774SOL     OW31451   2.197   4.577   6.466  0.1743  0.2180 -0.1096
 8774SOL    HW131452   2.234   4.639   6.402  0.0446  1.3994  0.9347
 8774SOL    HW231453   2.102   4.589   6.459  0.1257 -0.2820 -0.3140
 8775SOL     OW31454   1.437   8.917   2.447  0.0993 -0.0288 -0.5698
 8775SOL    HW131455   1.430   8.997   2.497  0.5830  0.0156 -0.5726
 8775SOL    HW231456   1.531   8.906   2.430  0.0017 -0.3700 -0.9266
 8776SOL     OW31457   4.907   8.732   3.239  0.1758  0.0834  0.1995
 8776SOL    HW131458   4.927   8.639   3.249  0.8629  0.2926  0.8757
 8776SOL    HW231459   4.927   8.770   3.325 -4.2896  0.1302  1.3902
 8777SOL     OW31460   2.650   5.009   8.400 -0.4051  0.2801  0.0519
 8777SOL    HW131461   2.636   4.914   8.397 -1.2879  0.4044  0.0648
 8777SOL    HW231462   2.575   5.045   8.352  0.0585  0.9569 -0.1596
 8778SOL     OW31463   8.945   1.439  10.945 -0.0687  0.2329  0.2393
 8778SOL    HW131464   9.013   1.462  11.008 -1.2198  1.3975  1.0870
 8778SOL    HW231465   8.970   1.485  10.864 -1.0717  2.6179  1.2347
 8779SOL     OW31466   0.718   1.249   0.690 -0.2885  0.5998  0.0462
 8779SOL    HW131467   0.737   1.254   0.597 -1.6726  0.3554 -0.2664
 8779SOL    HW231468   0.645   1.187   0.696  0.6617 -0.4224  1.4138
 8780SOL     OW31469   1.646   7.854   9.326 -0.3642 -0.0940 -0.5305
 8780SOL    HW131470   1.555   7.827   9.320 -0.4569  0.1482 -0.2220
 8780SOL    HW231471   1.668   7.886   9.238 -0.3648 -0.8088 -0.7969
 8781SOL     OW31472   4.389   7.024   1.317 -0.0146 -0.5699 -0.5667
 8781SOL    HW131473   4.359   6.994   1.403  1.9991  2.4993  1.2903
 8781SOL    HW231474   4.451   6.957   1.288 -1.6045 -2.2330 -0.2417
 8782SOL     OW31475   1.014   9.516   5.913 -0.3718 -0.2791 -0.7163
 8782SOL    HW131476   1.029   9.565   5.832  0.4811 -0.1132 -0.4588
 8782SOL    HW231477   1.053   9.570   5.982 -1.1069 -0.4144 -0.1898
 8783SOL     OW31478   4.984   1.337   0.403 -0.8942  0.5461  0.3716
 8783SOL    HW131479   5.033   1.417   0.382  0.5869 -0.0110  1.6070
 8783SOL    HW231480   4.987   1.285   0.323 -0.3995  0.9799  0.1059
 8784SOL     OW31481   9.431   1.205   0.292  0.2581  0.4771  0.5701
 8784SOL    HW131482   9.525   1.224   0.298 -0.0353  1.8923  1.0145
 8784SOL    HW231483   9.395   1.241   0.373 -0.7600  0.5171  0.0974
 8785SOL     OW31484  10.274   5.181   6.534 -0.4922  0.4102 -0.3768
 8785SOL    HW131485  10.242   5.206   6.620 -0.6863 -2.1118  0.3081
 8785SOL    HW231486  10.214   5.112   6.504  1.5844 -1.2007 -1.0070
 8786SOL     OW31487   9.072   1.853  10.360 -0.0717  0.6457  0.5681
 8786SOL    HW131488   9.020   1.905  10.298 -0.0630  0.8378  0.7233
 8786SOL    HW231489   9.031   1.870  10.445  0.7766  1.4716  0.8166
 8787SOL     OW31490   6.512  11.195   9.745  0.1179  0.5722  0.0295
 8787SOL    HW131491   6.543  11.126   9.686 -2.7768 -0.2392 -0.5777
 8787SOL    HW231492   6.498  11.151   9.829 -1.5045  0.4716 -0.2927
 8788SOL     OW31493   3.564   5.117   6.268 -0.6143 -0.0117  0.2480
 8788SOL    HW131494   3.541   5.203   6.234 -1.0076 -0.3596 -0.3999
 8788SOL    HW231495   3.656   5.105   6.245 -0.5230  0.2931  0.4618
 8789SOL     OW31496   3.987   3.808   5.641  0.2541  0.0720 -0.6062
 8789SOL    HW131497   3.936   3.823   5.562 -0.3270  0.0958 -0.2266
 8789SOL    HW231498   4.012   3.716   5.637 -2.1482 -0.6608  0.5691
 8790SOL     OW31499   6.502   7.701   3.351 -0.2747  0.1220 -0.4823
 8790SOL    HW131500   6.516   7.781   3.300  0.4862  0.6542  0.5388
 8790SOL    HW231501   6.417   7.714   3.393 -0.2254  0.3241 -0.4460
 8791SOL     OW31502   9.203   9.624   5.722 -0.2536 -0.2402 -0.8135
 8791SOL    HW131503   9.163   9.574   5.793  0.1475 -0.9582 -1.0935
 8791SOL    HW231504   9.174   9.581   5.642  1.1317 -0.8320 -1.0229
 8792SOL     OW31505   7.801   6.268   1.928  0.1143 -0.4566  0.2003
 8792SOL    HW131506   7.753   6.234   1.853  1.8399  0.3571 -1.3289
 8792SOL    HW231507   7.795   6.199   1.994  2.4527 -3.2888 -2.3597
 8793SOL     OW31508   0.188   2.317  10.826  1.1842  0.2506 -0.1337
 8793SOL    HW131509   0.164   2.308  10.733  0.5311  1.8876 -0.1384
 8793SOL    HW231510   0.200   2.227  10.856 -0.4624 -0.4066 -1.3341
 8794SOL     OW31511   5.091   2.850   7.983 -0.3644  0.7638  0.3329
 8794SOL    HW131512   5.186   2.839   7.993 -0.4324 -0.6852 -0.4930
 8794SOL    HW231513   5.054   2.819   8.065 -0.1684  0.6350  0.3724
 8795SOL     OW31514   0.323   5.924   3.076  0.6172  0.7410 -0.6643
 8795SOL    HW131515   0.350   5.832   3.080  0.0002  0.4420 -2.7583
 8795SOL    HW231516   0.255   5.932   3.143  0.2377 -0.4751 -0.9026
 8796SOL     OW31517  11.041  11.302  10.569 -0.1555  0.4510 -0.0404
 8796SOL    HW131518  11.096  11.266  10.500 -0.1195 -0.3115  0.3877
 8796SOL    HW231519  10.978  11.233  10.590  0.2572  0.4165  1.1474
 8797SOL     OW31520   6.563   2.266   3.496 -0.0034 -0.1560 -0.5899
 8797SOL    HW131521   6.630   2.215   3.451  0.3301 -0.8112  0.6507
 8797SOL    HW231522   6.601   2.289   3.580 -1.0709  0.0479 -0.1469
 8798SOL     OW31523   2.609   7.213   9.843  0.5870 -0.9156 -0.3433
 8798SOL    HW131524   2.656   7.130   9.836  0.1141 -1.1445 -0.8446
 8798SOL    HW231525   2.517   7.190   9.827  0.6841 -0.0239 -2.3027
 8799SOL     OW31526   2.886   0.152  10.536 -0.5028 -0.1301  0.1640
 8799SOL    HW131527   2.799   0.167  10.497 -0.0082 -0.1390 -0.9712
 8799SOL    HW231528   2.892   0.217  10.605 -1.1415  0.3373 -0.2065
 8800SOL     OW31529   8.306   4.647   0.411 -0.6111  0.6446  0.1252
 8800SOL    HW131530   8.243   4.719   0.411 -0.9294  0.4082 -2.3919
 8800SOL    HW231531   8.316   4.624   0.319  1.0759 -1.1592  0.7257
 8801SOL     OW31532   8.210  10.324   5.419  0.1276  0.3240 -0.0312
 8801SOL    HW131533   8.141  10.261   5.439 -1.0015  1.3378 -0.6131
 8801SOL    HW231534   8.180  10.368   5.339  1.0519  1.3450  0.1604
 8802SOL     OW31535   0.682   3.033   5.111 -0.2722 -0.5199  0.2925
 8802SOL    HW131536   0.644   3.088   5.043  1.5518  0.2530 -0.1309
 8802SOL    HW231537   0.612   2.973   5.135 -0.7538 -1.2244 -2.7051
 8803SOL     OW31538   8.402   6.528   0.292 -0.1381 -0.2272 -0.0632
 8803SOL    HW131539   8.486   6.554   0.254 -0.7012  1.4691 -0.1763
 8803SOL    HW231540   8.344   6.517   0.217 -0.5031  0.3962  0.1238
 8804SOL     OW31541   4.873   3.140   0.222 -0.2988  0.1942  0.0469
 8804SOL    HW131542   4.791   3.169   0.263  0.3774 -0.0208  1.5975
 8804SOL    HW231543   4.887   3.052   0.257  1.3692  0.8046  0.9811
 8805SOL     OW31544   8.936   4.699   2.101 -0.0598 -0.1788  0.3926
 8805SOL    HW131545   8.970   4.618   2.063 -0.7171  0.7009 -2.2053
 8805SOL    HW231546   9.001   4.765   2.079 -1.1387  0.6219 -0.4752
 8806SOL     OW31547  11.226   7.132   4.973  0.0226 -0.2349  0.1706
 8806SOL    HW131548  11.269   7.193   5.033  0.5705 -1.1033  0.6891
 8806SOL    HW231549  11.149   7.102   5.021 -0.9703  1.0264 -0.6048
 8807SOL     OW31550   7.185   8.225   0.781  0.8837  0.2866 -0.1715
 8807SOL    HW131551   7.241   8.247   0.856 -0.3025 -0.6415  1.0222
 8807SOL    HW231552   7.122   8.297   0.777 -0.3666 -0.6976  1.0827
 8808SOL     OW31553   9.004   2.523  10.838  0.2800  0.1378 -0.0138
 8808SOL    HW131554   9.086   2.520  10.887  0.2623 -0.0614  0.0050
 8808SOL    HW231555   8.980   2.431  10.826  1.2724  0.0979 -2.0290
 8809SOL     OW31556   3.896   3.473   5.780  1.0569  0.3682  0.3663
 8809SOL    HW131557   3.845   3.469   5.861 -0.2688 -0.9315 -0.5156
 8809SOL    HW231558   3.977   3.426   5.800  0.8809  0.3505  1.0322
 8810SOL     OW31559   6.618   4.309   8.864 -0.2081  0.1311 -0.5255
 8810SOL    HW131560   6.557   4.275   8.930  0.3709 -0.2637 -0.1864
 8810SOL    HW231561   6.679   4.236   8.848 -0.1311  0.3429 -1.2396
 8811SOL     OW31562   4.351   2.807   3.589 -0.7387 -0.6392  0.5484
 8811SOL    HW131563   4.355   2.715   3.564 -0.6189 -0.8300  1.2561
 8811SOL    HW231564   4.282   2.810   3.656 -0.6496 -0.2381  0.6204
 8812SOL     OW31565   3.926   1.477   5.717  0.1923 -0.2082  0.0997
 8812SOL    HW131566   3.888   1.407   5.770 -0.4985  1.6281  2.1172
 8812SOL    HW231567   3.973   1.432   5.648  0.3322 -2.6840  1.7483
 8813SOL     OW31568   2.767   7.396   9.964  0.2884  0.0252  0.1786
 8813SOL    HW131569   2.840   7.341   9.992  0.3851  0.5410  0.9569
 8813SOL    HW231570   2.698   7.334   9.941  1.7860 -0.5584 -2.9685
 8814SOL     OW31571   5.609   1.227  11.230 -0.3120 -0.5228  0.2185
 8814SOL    HW131572   5.701   1.198  11.228  0.0278  0.5931 -1.1513
 8814SOL    HW231573   5.605   1.299  11.166 -2.2199 -0.7835  0.0139
 8815SOL     OW31574  10.458   4.635   1.691 -0.8327 -0.0526 -0.4628
 8815SOL    HW131575  10.450   4.597   1.778 -0.3585  0.3277 -0.2520
 8815SOL    HW231576  10.551   4.628   1.670 -0.7430  0.9685 -0.4288
 8816SOL     OW31577   9.486   3.791   3.095  0.2264 -0.1702 -0.0871
 8816SOL    HW131578   9.517   3.735   3.024  2.4837  1.5076 -0.4623
 8816SOL    HW231579   9.559   3.796   3.156  0.0017  2.1962  0.0328
 8817SOL     OW31580  10.217   9.055  10.627  0.0278  0.0527  0.2995
 8817SOL    HW131581  10.304   9.070  10.664  1.0138 -2.1163 -1.0354
 8817SOL    HW231582  10.218   9.103  10.544  0.1797 -0.4308  0.0154
 8818SOL     OW31583  11.045   6.296   6.134 -0.0254 -0.5772 -0.2602
 8818SOL    HW131584  11.056   6.341   6.218  1.5434  0.6395 -1.0698
 8818SOL    HW231585  11.040   6.204   6.156  3.1265 -0.5001  1.0128
 8819SOL     OW31586  10.192   3.455   2.133  0.2984  0.6157 -0.3740
 8819SOL    HW131587  10.270   3.509   2.144  0.8274 -0.1731 -0.2099
 8819SOL    HW231588  10.221   3.366   2.152 -0.7593  0.3772  0.2011
 8820SOL     OW31589   8.998   7.531   5.616 -0.0881  0.5838  1.3695
 8820SOL    HW131590   8.911   7.553   5.581 -0.9493 -0.6672  2.6708
 8820SOL    HW231591   9.017   7.445   5.577  0.1965  0.4877  1.7223
 8821SOL     OW31592   6.673   4.155   6.910 -0.4643 -0.4158 -0.3265
 8821SOL    HW131593   6.607   4.166   6.842 -0.7526  0.1421  0.0360
 8821SOL    HW231594   6.720   4.075   6.886 -0.5095 -0.1822 -1.2179
 8822SOL     OW31595   8.364   7.589   7.883 -0.5453  0.0014 -0.1493
 8822SOL    HW131596   8.456   7.599   7.861 -0.3354 -0.2087  0.6226
 8822SOL    HW231597   8.350   7.494   7.884 -0.7464  0.0310 -0.1876
 8823SOL     OW31598   6.802   7.158   9.049  0.0088  0.3617  0.2666
 8823SOL    HW131599   6.876   7.186   9.103  0.3040 -0.1306  0.1264
 8823SOL    HW231600   6.742   7.116   9.111  0.2395  0.0060  0.2535
 8824SOL     OW31601   3.294   9.027   7.688 -0.0860 -0.2816 -0.4249
 8824SOL    HW131602   3.370   8.996   7.640 -0.4223 -1.1052 -0.4319
 8824SOL    HW231603   3.273   8.957   7.750 -0.1604  0.4165  0.3583
 8825SOL     OW31604   5.105   3.722   2.087  0.1689 -0.4581 -0.0326
 8825SOL    HW131605   5.043   3.706   2.158  0.6665 -2.2008  0.0424
 8825SOL    HW231606   5.188   3.688   2.120 -0.0861 -3.6291 -2.3142
 8826SOL     OW31607  10.898   3.876   5.380 -0.2359 -0.4026 -0.1319
 8826SOL    HW131608  10.917   3.784   5.396  0.9411 -0.3854 -1.3246
 8826SOL    HW231609  10.982   3.914   5.353 -0.7335  0.9873  0.1917
 8827SOL     OW31610   2.466   3.184   9.859  0.1881 -0.3342  0.3823
 8827SOL    HW131611   2.418   3.220   9.933 -1.2341 -1.8889  0.2491
 8827SOL    HW231612   2.554   3.167   9.893  0.1891  1.0378  1.0812
 8828SOL     OW31613   8.926   6.022   6.784  0.5222  0.1224 -0.0208
 8828SOL    HW131614   8.844   5.980   6.758  1.1153 -0.8467 -0.3785
 8828SOL    HW231615   8.955   6.069   6.705  0.5012  0.1596 -0.0064
 8829SOL     OW31616   0.171   4.670   3.868 -0.7684  0.1944 -0.1287
 8829SOL    HW131617   0.187   4.619   3.788 -0.0050  0.2229  0.0050
 8829SOL    HW231618   0.166   4.761   3.837  0.2126  0.2783 -0.0580
 8830SOL     OW31619   8.102   0.464   7.324 -0.0302  0.6928 -0.7043
 8830SOL    HW131620   8.168   0.396   7.337 -1.5379 -0.6321  0.1597
 8830SOL    HW231621   8.139   0.542   7.365  1.4156  0.2368 -1.1076
 8831SOL     OW31622   6.605   8.080   1.229 -0.0682 -0.2126 -0.0787
 8831SOL    HW131623   6.612   8.052   1.138  2.6517 -0.2848  0.0873
 8831SOL    HW231624   6.557   8.163   1.226 -1.5944 -1.1223 -1.3596
 8832SOL     OW31625   3.075   5.080   7.010 -0.3536  0.1977  0.6040
 8832SOL    HW131626   2.981   5.099   7.010 -0.2314  0.8035  0.7554
 8832SOL    HW231627   3.102   5.096   6.919 -0.3592  0.2068  0.6043
 8833SOL     OW31628   7.687  10.834   1.044 -0.6609 -0.3762  0.3502
 8833SOL    HW131629   7.736  10.821   0.962 -1.1681 -1.2590  0.1831
 8833SOL    HW231630   7.662  10.746   1.072  1.4711 -0.2809  2.6864
 8834SOL     OW31631   1.082   0.116  10.345 -0.1918  0.0332  0.0279
 8834SOL    HW131632   1.158   0.174  10.345 -1.5170  1.8980 -1.6713
 8834SOL    HW231633   1.012   0.169  10.385 -1.3405 -0.4993 -1.2194
 8835SOL     OW31634   8.719   9.716  10.245 -0.1721 -0.3470  0.2169
 8835SOL    HW131635   8.762   9.778  10.187 -0.5465 -0.5017 -0.2332
 8835SOL    HW231636   8.694   9.768  10.321  1.7458 -0.4878  0.9552
 8836SOL     OW31637   1.950   7.454  10.669 -0.6578 -0.3855  0.7490
 8836SOL    HW131638   2.011   7.452  10.743  1.7073  0.3839 -1.0946
 8836SOL    HW231639   2.007   7.451  10.592 -2.9372  1.2338 -1.0500
 8837SOL     OW31640   4.354  10.442   9.480  0.4353 -0.4625 -0.6871
 8837SOL    HW131641   4.297  10.512   9.513  0.7196 -1.2450  1.5462
 8837SOL    HW231642   4.423  10.488   9.433 -0.0735  0.7049 -0.3092
 8838SOL     OW31643   2.148   8.950   9.229 -0.0083  0.8902  0.3790
 8838SOL    HW131644   2.071   8.913   9.185 -0.9561  2.3470  0.7702
 8838SOL    HW231645   2.183   9.013   9.166 -0.1877  1.5211  0.9069
 8839SOL     OW31646   3.153   3.205  10.228 -0.2690  0.2645  0.0422
 8839SOL    HW131647   3.091   3.159  10.284 -0.2602 -0.3957 -0.4741
 8839SOL    HW231648   3.140   3.298  10.248 -0.9262  0.0898  0.4458
 8840SOL     OW31649   2.002   4.930   9.488 -0.4316  0.0804  0.0722
 8840SOL    HW131650   1.925   4.920   9.543  1.3012 -0.0800  2.5127
 8840SOL    HW231651   2.012   5.025   9.477 -0.8447  0.1083 -0.0571
 8841SOL     OW31652   9.428   0.963   3.289 -0.6692  0.4190  0.2135
 8841SOL    HW131653   9.436   1.025   3.362 -0.2102 -0.4898  0.9431
 8841SOL    HW231654   9.334   0.959   3.271 -0.8331  0.3245  1.0444
 8842SOL     OW31655   7.910   1.476   1.907 -0.7546 -0.9109  0.4811
 8842SOL    HW131656   7.885   1.550   1.961 -0.8316 -0.9702  0.5272
 8842SOL    HW231657   7.993   1.445   1.945 -0.6882 -0.8087  0.4215
 8843SOL     OW31658   1.661   1.845   7.393  0.2542  0.2553  0.0517
 8843SOL    HW131659   1.624   1.809   7.312 -0.0117 -0.4842  0.4887
 8843SOL    HW231660   1.753   1.820   7.390  0.3563  0.6567 -0.2521
 8844SOL     OW31661   2.281   9.379  11.200  0.1634  0.2491 -0.3285
 8844SOL    HW131662   2.221   9.453  11.210  1.6391  1.5169 -0.6699
 8844SOL    HW231663   2.224   9.302  11.192 -1.4295  1.5255 -1.5008
 8845SOL     OW31664   8.167   1.980   6.299  0.4230  0.0930  0.0975
 8845SOL    HW131665   8.136   1.940   6.380  0.7425 -0.0879  0.1325
 8845SOL    HW231666   8.173   1.906   6.238 -1.6841  0.5176 -0.6614
 8846SOL     OW31667   3.259   1.698   4.311  0.2390  0.5963 -0.2862
 8846SOL    HW131668   3.183   1.752   4.292 -1.7681 -0.5191  3.8937
 8846SOL    HW231669   3.232   1.610   4.287  0.1331  0.1969  1.2220
 8847SOL     OW31670   1.196   8.497   0.679 -0.2781  0.2986  0.3351
 8847SOL    HW131671   1.180   8.493   0.773 -0.1073 -0.7238  0.3283
 8847SOL    HW231672   1.158   8.416   0.645  1.7936 -0.5129 -0.1477
 8848SOL     OW31673  10.947   4.214   0.512 -0.0982 -0.1076  0.1455
 8848SOL    HW131674  10.958   4.176   0.599 -2.3134  0.1137  0.5594
 8848SOL    HW231675  10.890   4.290   0.525  0.8231  0.8633 -1.2785
 8849SOL     OW31676   0.277   9.702   0.662 -0.0631 -0.1613 -0.6408
 8849SOL    HW131677   0.270   9.647   0.741 -2.1076  3.1240  1.5766
 8849SOL    HW231678   0.200   9.680   0.611  0.0822 -0.6426 -0.6630
 8850SOL     OW31679   9.786  11.148   4.423  0.7343  0.7035 -0.2013
 8850SOL    HW131680   9.705  11.102   4.400  1.3219 -1.1440  1.2831
 8850SOL    HW231681   9.850  11.115   4.361  0.8720  0.4475  0.0775
 8851SOL     OW31682   0.449   7.036   7.841 -0.2149 -0.0888 -0.3897
 8851SOL    HW131683   0.413   7.035   7.752  2.1681  0.6283 -1.4048
 8851SOL    HW231684   0.391   7.095   7.890 -1.7340 -0.7385 -1.3819
 8852SOL     OW31685   3.442   1.088   6.984 -0.3454 -0.4025  0.1521
 8852SOL    HW131686   3.521   1.039   7.008 -1.6398 -2.4089  0.3486
 8852SOL    HW231687   3.437   1.158   7.049  2.2087  0.8105 -0.8707
 8853SOL     OW31688   9.730   4.358   5.319  0.0309  0.8125  0.0858
 8853SOL    HW131689   9.751   4.279   5.269 -1.5961  1.3191 -1.4329
 8853SOL    HW231690   9.775   4.428   5.273 -1.4376  1.2763 -0.6557
 8854SOL     OW31691   6.964  11.169   3.701  0.3863  0.3295 -0.2952
 8854SOL    HW131692   7.057  11.177   3.719  0.4454 -0.2510 -0.3406
 8854SOL    HW231693   6.959  11.129   3.614  0.0963 -0.1676 -0.0524
 8855SOL     OW31694   0.746   8.231   2.666  0.3764  0.3304  0.1736
 8855SOL    HW131695   0.780   8.143   2.674 -2.6433 -0.8621  0.6417
 8855SOL    HW231696   0.699   8.246   2.748  1.5704  2.7112  0.4634
 8856SOL     OW31697   4.025   6.451   8.434  0.0903  0.3008  0.4893
 8856SOL    HW131698   4.023   6.366   8.478  0.2699  0.3599  0.6129
 8856SOL    HW231699   3.934   6.468   8.411  0.2978 -0.8154 -1.2663
 8857SOL     OW31700   1.566  10.029   5.767 -0.7719 -0.2860 -0.4372
 8857SOL    HW131701   1.588  10.105   5.713 -0.2117  0.2716  0.5631
 8857SOL    HW231702   1.572  10.061   5.857 -0.9824 -1.3954 -0.0240
 8858SOL     OW31703   6.625   9.081   2.788  0.2127 -0.0460 -0.1497
 8858SOL    HW131704   6.583   8.995   2.792  0.5426 -0.2871 -1.6602
 8858SOL    HW231705   6.558   9.142   2.819 -1.0382 -0.5067 -1.8716
 8859SOL     OW31706  11.117   0.895   9.420 -0.5292  0.6767 -0.3819
 8859SOL    HW131707  11.141   0.837   9.348 -0.1237  0.0087  0.2938
 8859SOL    HW231708  11.026   0.871   9.440 -0.0737 -0.3283  0.4815
 8860SOL     OW31709   0.408   4.806   7.231 -0.4138 -0.7355 -0.3456
 8860SOL    HW131710   0.343   4.845   7.173 -0.5519  0.3691  0.5430
 8860SOL    HW231711   0.490   4.812   7.182 -0.6474 -0.4277 -0.7049
 8861SOL     OW31712   5.476   5.836   5.004 -0.2127  0.1826  0.1559
 8861SOL    HW131713   5.538   5.909   5.005 -0.9037  0.7598  1.3108
 8861SOL    HW231714   5.446   5.828   5.094 -0.2029 -1.4974  0.0367
 8862SOL     OW31715   8.061   1.902   3.230 -0.6359 -0.0119  0.2760
 8862SOL    HW131716   8.102   1.988   3.219  1.5437 -0.9052  1.1293
 8862SOL    HW231717   8.071   1.860   3.144 -0.6277  0.1473  0.1995
 8863SOL     OW31718   6.372   0.071   2.532  0.5026 -0.3345 -0.0071
 8863SOL    HW131719   6.407   0.011   2.466 -0.8611 -1.4411  0.2485
 8863SOL    HW231720   6.434   0.066   2.604  0.3141 -1.6001  0.0823
 8864SOL     OW31721   0.736   7.844   2.464  0.2946  0.0965 -0.2287
 8864SOL    HW131722   0.790   7.818   2.538 -0.2327 -0.3999 -0.0203
 8864SOL    HW231723   0.768   7.932   2.441 -0.7014  0.9977  1.6917
 8865SOL     OW31724   4.546   1.796   7.011  0.2175 -0.1870  0.0936
 8865SOL    HW131725   4.473   1.811   6.952  0.2775  1.0225  0.3120
 8865SOL    HW231726   4.624   1.802   6.955  0.4099  3.1707  0.6319
 8866SOL     OW31727   0.241   6.794   0.482 -0.9860 -0.3177 -0.5491
 8866SOL    HW131728   0.173   6.805   0.416 -0.8056  0.5442 -0.5874
 8866SOL    HW231729   0.195   6.806   0.566 -0.8026  0.6536 -0.5885
 8867SOL     OW31730  10.578   3.222   5.497 -0.4274  0.5420 -0.2237
 8867SOL    HW131731  10.625   3.154   5.545  1.1558  0.3319 -2.0067
 8867SOL    HW231732  10.554   3.181   5.414 -2.7853  1.0117  0.1934
 8868SOL     OW31733   0.628   6.014   1.862 -0.0517  0.0202 -0.3454
 8868SOL    HW131734   0.660   6.051   1.781  0.6684 -0.3387 -0.2297
 8868SOL    HW231735   0.551   5.963   1.837 -0.2266  0.4582 -0.6968
 8869SOL     OW31736   5.146   9.249   0.681  0.2432  0.2916  0.1032
 8869SOL    HW131737   5.052   9.239   0.692  0.5246 -2.2338  0.5529
 8869SOL    HW231738   5.168   9.195   0.605  1.3801  0.4526  0.3009
 8870SOL     OW31739   3.949   1.833   8.819 -0.1260  0.1126  0.0476
 8870SOL    HW131740   3.986   1.744   8.824 -0.5790 -0.1222 -0.7286
 8870SOL    HW231741   3.964   1.860   8.729 -2.8168 -0.4260 -0.6114
 8871SOL     OW31742   9.206   5.314   9.647 -0.1475  0.2270 -0.3929
 8871SOL    HW131743   9.176   5.388   9.595  0.5831 -0.5291 -1.9304
 8871SOL    HW231744   9.134   5.251   9.644  0.1268 -0.0618 -0.9968
 8872SOL     OW31745   5.800   5.422   9.558 -0.1809 -0.6829  0.0750
 8872SOL    HW131746   5.893   5.434   9.581  0.0717  0.4252 -1.4386
 8872SOL    HW231747   5.797   5.437   9.464 -1.9445 -0.5072  0.1518
 8873SOL     OW31748   9.096  10.813   5.526  0.4948  0.3327  0.2069
 8873SOL    HW131749   9.021  10.787   5.579 -0.5733 -0.4180 -1.6168
 8873SOL    HW231750   9.076  10.780   5.438  2.1349  1.6705 -0.7087
 8874SOL     OW31751   8.636   3.906   1.611  0.1684  0.2970 -0.5758
 8874SOL    HW131752   8.667   3.874   1.526  0.6633  1.1335 -0.7084
 8874SOL    HW231753   8.541   3.909   1.602  0.0582 -1.6801 -0.3774
 8875SOL     OW31754   4.513   9.399   8.777  0.6478 -0.7479  0.3518
 8875SOL    HW131755   4.581   9.424   8.715 -1.6205  2.6002 -0.9256
 8875SOL    HW231756   4.451   9.347   8.726 -2.1813  3.5509 -0.8365
 8876SOL     OW31757  10.561   2.958   5.422  0.2167  0.5628 -0.4435
 8876SOL    HW131758  10.576   2.890   5.356  1.8609 -1.5658  2.0197
 8876SOL    HW231759  10.481   2.931   5.467 -0.1762  1.2952 -0.6950
 8877SOL     OW31760   3.725   4.150   3.630 -0.3292  0.5442  0.6316
 8877SOL    HW131761   3.745   4.093   3.705 -0.0071 -1.0634 -0.6551
 8877SOL    HW231762   3.640   4.119   3.599  0.2551  0.1514 -0.6236
 8878SOL     OW31763   0.237   3.489   5.749  0.1165 -0.3668 -0.5655
 8878SOL    HW131764   0.265   3.578   5.768  0.5275 -0.8170  1.1057
 8878SOL    HW231765   0.294   3.434   5.804 -0.3855 -1.6267 -1.2722
 8879SOL     OW31766   8.318   5.720   7.863  0.1887 -0.0377  0.2238
 8879SOL    HW131767   8.254   5.791   7.868 -0.2327 -0.5563  3.7008
 8879SOL    HW231768   8.269   5.645   7.829 -0.2006  0.4330 -0.2591
 8880SOL     OW31769   1.159   6.223   6.924  0.1516 -0.3088  0.3793
 8880SOL    HW131770   1.089   6.205   6.861  0.1202  0.6245  0.1435
 8880SOL    HW231771   1.234   6.173   6.892  0.4063  0.8936 -0.9136
 8881SOL     OW31772   4.332   4.735   8.825 -0.1630 -0.4192 -0.3660
 8881SOL    HW131773   4.313   4.787   8.747  0.2181 -1.3759 -1.1066
 8881SOL    HW231774   4.421   4.760   8.849  0.0122 -0.7021 -0.7096
 8882SOL     OW31775   0.772   9.275   5.021 -0.5644  0.3540  0.4706
 8882SOL    HW131776   0.836   9.339   4.987  0.1527 -0.5112  0.1718
 8882SOL    HW231777   0.766   9.209   4.952 -1.3582  0.1360  0.7514
 8883SOL     OW31778   7.903   4.114   8.751 -0.4074 -0.0009 -0.2570
 8883SOL    HW131779   7.892   4.132   8.658  1.0179 -1.4256 -0.7109
 8883SOL    HW231780   7.817   4.081   8.779 -0.2466 -1.5198 -1.5276
 8884SOL     OW31781   7.569   4.348   7.064 -0.3233 -1.1538  0.0703
 8884SOL    HW131782   7.607   4.388   6.987 -1.0484 -1.4153 -0.4305
 8884SOL    HW231783   7.619   4.268   7.077 -2.0284 -2.6045 -1.8504
 8885SOL     OW31784   8.605  11.192   3.519 -0.4418 -0.2013  0.4904
 8885SOL    HW131785   8.534  11.255   3.508  0.1869  0.3524 -0.5114
 8885SOL    HW231786   8.677  11.229   3.468 -0.8107 -2.9132 -2.1283
 8886SOL     OW31787   5.645   8.562   3.765 -0.0067  0.2545 -0.0475
 8886SOL    HW131788   5.710   8.493   3.781  0.4295  0.6324 -0.1971
 8886SOL    HW231789   5.579   8.519   3.710 -0.3398 -0.3853  0.8319
 8887SOL     OW31790   7.666   2.378   7.393  0.4652 -0.1681  0.3740
 8887SOL    HW131791   7.654   2.471   7.413  1.0356  0.0147 -0.0885
 8887SOL    HW231792   7.586   2.336   7.423 -0.0739  0.5734  0.0040
 8888SOL     OW31793   7.839   0.510   6.788  0.8780  0.1997 -0.0548
 8888SOL    HW131794   7.904   0.513   6.717  1.7704 -1.8763  0.6488
 8888SOL    HW231795   7.763   0.468   6.749  1.5293 -1.3575  0.3206
 8889SOL     OW31796   9.228   3.904   9.874  0.0539  0.6007 -0.1134
 8889SOL    HW131797   9.271   3.823   9.899  1.1695 -0.1916 -4.2358
 8889SOL    HW231798   9.293   3.972   9.890 -0.3095  0.5130  1.8166
 8890SOL     OW31799   2.343   1.438   5.682 -0.2057 -0.0118 -0.2483
 8890SOL    HW131800   2.410   1.424   5.750  0.0784  1.0375 -0.3120
 8890SOL    HW231801   2.271   1.481   5.728  0.0916  0.9334 -0.6546
 8891SOL     OW31802   1.320   2.918  11.227  0.0253 -0.2518 -0.1206
 8891SOL    HW131803   1.288   2.865  11.153 -0.8023  3.1290 -2.3226
 8891SOL    HW231804   1.241   2.960  11.261  0.9034  1.1122  0.2647
 8892SOL     OW31805   1.985   4.689   1.285 -0.3740 -0.4719  0.2363
 8892SOL    HW131806   1.990   4.680   1.380 -0.4789  2.0143  0.5169
 8892SOL    HW231807   1.929   4.617   1.257 -2.5281  0.3042  2.3633
 8893SOL     OW31808   0.413   0.994   4.107  0.2283 -0.1298 -0.1285
 8893SOL    HW131809   0.439   1.029   4.193 -1.5940  1.9646 -0.3806
 8893SOL    HW231810   0.320   1.016   4.100  0.4994  0.2702 -2.9036
 8894SOL     OW31811   7.097   5.723   3.341  0.0322 -0.5021  0.0849
 8894SOL    HW131812   7.100   5.759   3.429 -0.1730  0.7315 -0.3909
 8894SOL    HW231813   7.030   5.776   3.296 -0.4414 -1.6303 -0.5801
 8895SOL     OW31814  10.380   7.581   1.087  0.5759  0.0482  0.0418
 8895SOL    HW131815  10.321   7.571   1.162  1.2737 -1.8223  0.3567
 8895SOL    HW231816  10.330   7.633   1.024 -1.7558 -2.1813 -0.0315
 8896SOL     OW31817   5.667  10.195   8.907 -0.4478  0.2442  0.4426
 8896SOL    HW131818   5.667  10.254   8.832  0.5048  0.2224  0.4224
 8896SOL    HW231819   5.755  10.158   8.909 -0.8694 -0.7836  0.7696
 8897SOL     OW31820   7.365   5.682   0.262 -0.5725  0.8791  0.4590
 8897SOL    HW131821   7.345   5.774   0.241 -2.4680  0.4825  0.4922
 8897SOL    HW231822   7.342   5.634   0.182 -0.1223  0.3501  0.6424
 8898SOL     OW31823   3.974   6.625   4.028  0.1827 -0.3953 -0.8130
 8898SOL    HW131824   4.068   6.639   4.025 -0.0326  1.2275 -0.7890
 8898SOL    HW231825   3.937   6.703   3.985 -1.1144 -1.2673 -1.3166
 8899SOL     OW31826   6.772   4.071   8.834  0.2030  0.1780 -0.5361
 8899SOL    HW131827   6.795   4.068   8.741 -0.0276  1.7547 -0.6498
 8899SOL    HW231828   6.849   4.108   8.876  0.1007 -0.0346 -0.1592
 8900SOL     OW31829   1.823   3.549   0.700 -0.0386 -0.2695  0.6233
 8900SOL    HW131830   1.900   3.557   0.757  0.3204 -1.5787  0.3348
 8900SOL    HW231831   1.776   3.632   0.713  0.0160 -0.5436  2.8574
 8901SOL     OW31832   0.617   3.160   2.423  0.2255 -0.2067  0.7059
 8901SOL    HW131833   0.570   3.089   2.379 -0.1353 -0.1726  1.0284
 8901SOL    HW231834   0.660   3.118   2.497  1.6011 -0.4310 -0.2116
 8902SOL     OW31835   7.015   9.099   1.557  0.5668  0.0766  0.2829
 8902SOL    HW131836   6.987   9.011   1.584 -0.0558 -0.3156 -1.5259
 8902SOL    HW231837   6.948   9.127   1.494  1.8704  0.9760 -0.7382
 8903SOL     OW31838   6.621   6.956  11.075 -0.3273 -0.0660 -0.1415
 8903SOL    HW131839   6.552   7.021  11.062 -0.8573 -0.7422 -0.7464
 8903SOL    HW231840   6.609   6.894  11.003  1.7135  0.4957 -0.9872
 8904SOL     OW31841   9.254   3.928   0.103  0.2328  0.7120 -0.0181
 8904SOL    HW131842   9.244   3.978   0.184  0.9251  1.1680 -0.2148
 8904SOL    HW231843   9.290   3.844   0.131 -1.0433  0.2731  0.3258
 8905SOL     OW31844   2.417   9.380   2.829  0.0003  0.9880 -0.6178
 8905SOL    HW131845   2.506   9.410   2.847  0.3247 -0.3697  0.1545
 8905SOL    HW231846   2.373   9.456   2.790  0.5735  2.6611  1.9000
 8906SOL     OW31847   3.069   8.783   3.503 -0.3313 -0.0346  0.3168
 8906SOL    HW131848   3.060   8.742   3.589 -1.3464  0.3180  0.3840
 8906SOL    HW231849   3.047   8.714   3.440 -0.1576 -0.1307  0.3626
 8907SOL     OW31850   8.464   3.049   9.231 -0.5013 -0.1476 -0.1377
 8907SOL    HW131851   8.484   3.032   9.138 -2.3021  1.4297 -0.8511
 8907SOL    HW231852   8.498   3.137   9.247 -2.9192  0.8269 -0.1857
 8908SOL     OW31853  11.185   8.900   0.441 -0.4886 -0.3733 -0.5980
 8908SOL    HW131854  11.272   8.885   0.477  0.1841  0.9737 -1.6395
 8908SOL    HW231855  11.172   8.827   0.380 -1.2977 -2.1945  1.6808
 8909SOL     OW31856   1.483   8.399   1.770  0.1939 -0.0796  0.6670
 8909SOL    HW131857   1.446   8.479   1.732 -2.3187 -0.3895  2.3944
 8909SOL    HW231858   1.544   8.368   1.703  0.6691  2.8600 -0.3615
 8910SOL     OW31859  11.310   4.507   3.279  0.4069  0.1128 -0.1787
 8910SOL    HW131860  11.307   4.474   3.369  0.4101 -0.8017 -0.5089
 8910SOL    HW231861  11.364   4.443   3.233  0.7518  0.8069 -0.7411
 8911SOL     OW31862   0.129   2.452   0.976  0.4420 -0.5677 -0.7882
 8911SOL    HW131863   0.105   2.539   1.009 -2.0023 -1.1510 -0.9379
 8911SOL    HW231864   0.140   2.399   1.055 -1.3447 -0.9291 -0.7598
 8912SOL     OW31865   1.455   6.045   6.544  0.4910 -0.0673 -0.1995
 8912SOL    HW131866   1.523   6.113   6.539 -0.4416  0.8843  0.0388
 8912SOL    HW231867   1.504   5.964   6.561  1.7301  0.3022 -1.9564
 8913SOL     OW31868   2.714   5.360   2.476  0.0388  0.0578 -0.1003
 8913SOL    HW131869   2.649   5.303   2.434  0.0430  0.2017 -0.3003
 8913SOL    HW231870   2.670   5.445   2.484  0.5253  0.4082 -1.0710
 8914SOL     OW31871  11.070   3.770   5.734  0.2850  0.3413  0.4850
 8914SOL    HW131872  10.977   3.773   5.755  0.5217  0.4516  1.5690
 8914SOL    HW231873  11.081   3.693   5.678 -0.5747  0.7678 -0.2788
 8915SOL     OW31874   4.425   8.674   6.776  0.3209 -0.0402 -0.2489
 8915SOL    HW131875   4.434   8.712   6.689  0.3130  0.1666 -0.1608
 8915SOL    HW231876   4.332   8.652   6.785  0.4438 -0.7068 -0.5569
 8916SOL     OW31877   0.761   4.011   6.984  0.4439 -0.3245 -0.0874
 8916SOL    HW131878   0.668   4.028   6.998  0.1709 -2.7739  1.1741
 8916SOL    HW231879   0.771   4.012   6.888 -0.8674 -0.1223 -0.2344
 8917SOL     OW31880   8.683   7.832   5.824 -0.1112  0.3267  0.2670
 8917SOL    HW131881   8.697   7.796   5.736  0.5314  0.6519  0.2370
 8917SOL    HW231882   8.753   7.794   5.877  0.2630  1.1363  0.3523
 8918SOL     OW31883   3.462  10.738   2.435  0.2605  0.3682 -0.1210
 8918SOL    HW131884   3.481  10.749   2.342 -1.8029 -1.0098 -0.7390
 8918SOL    HW231885   3.457  10.643   2.448  0.7099  0.5372  1.4474
 8919SOL     OW31886   7.567   4.629   8.253 -0.2417  0.0325  0.4484
 8919SOL    HW131887   7.638   4.665   8.201  0.9996 -2.1716  0.5510
 8919SOL    HW231888   7.608   4.564   8.310 -2.3441 -1.6231  0.1944
 8920SOL     OW31889   2.742   2.659  10.658  0.1086 -0.0633  0.4132
 8920SOL    HW131890   2.650   2.638  10.676  0.1310  0.0461  0.6557
 8920SOL    HW231891   2.789   2.628  10.735 -0.0034  1.9954  1.3602
 8921SOL     OW31892   6.061   7.299   2.640  0.2029  0.3463  0.0471
 8921SOL    HW131893   6.038   7.209   2.616 -1.5061  0.4673  1.1206
 8921SOL    HW231894   6.130   7.289   2.706 -1.3006 -0.2773  1.5752
 8922SOL     OW31895   7.648   1.454   1.249  0.2677 -0.4209  0.6493
 8922SOL    HW131896   7.728   1.499   1.273  0.3659 -0.1515 -0.1691
 8922SOL    HW231897   7.639   1.469   1.155 -1.4413  0.6611  0.9636
 8923SOL     OW31898   2.348   0.755   5.921 -0.8122 -0.2355  0.1663
 8923SOL    HW131899   2.281   0.713   5.975  0.1326 -0.1906  1.3936
 8923SOL    HW231900   2.411   0.791   5.984 -0.5543  1.2774 -0.9187
 8924SOL     OW31901   9.608   9.714   8.197  0.6547  0.4192 -0.1805
 8924SOL    HW131902   9.589   9.681   8.285 -1.6239 -0.0487 -0.8170
 8924SOL    HW231903   9.669   9.650   8.161  0.1680 -0.3951  0.4091
 8925SOL     OW31904  10.802   1.060   0.537  0.2835  0.3597  0.3654
 8925SOL    HW131905  10.769   0.994   0.476 -2.2532  1.5843  0.3436
 8925SOL    HW231906  10.841   1.010   0.608  2.9762 -1.1086 -2.0517
 8926SOL     OW31907   5.039   9.998   5.210 -0.1911 -0.2332  0.3552
 8926SOL    HW131908   4.989  10.072   5.176  1.2405  0.9203  0.7082
 8926SOL    HW231909   5.091   9.968   5.135  0.7982  0.4744  0.7392
 8927SOL     OW31910   6.905   9.156  11.204  0.0154  0.1566  0.3746
 8927SOL    HW131911   6.943   9.180  11.120  2.1517 -1.2724  0.9093
 8927SOL    HW231912   6.818   9.196  11.203  1.3560  3.2267 -1.0069
 8928SOL     OW31913   5.120   4.918  11.159  0.3380 -0.0299  0.2465
 8928SOL    HW131914   5.122   4.876  11.073 -0.4307  1.0268 -0.3039
 8928SOL    HW231915   5.094   4.848  11.219 -2.2280 -0.0648 -0.8388
 8929SOL     OW31916   1.177   0.172   6.781 -0.4307  0.4762  0.1655
 8929SOL    HW131917   1.173   0.169   6.685 -0.3244  0.3351  0.1652
 8929SOL    HW231918   1.115   0.240   6.805 -1.0271 -0.0210  0.0363
 8930SOL     OW31919   1.286   6.043   4.196 -0.4152 -0.0400 -0.5067
 8930SOL    HW131920   1.237   6.083   4.124 -0.3565  3.7919  1.4599
 8930SOL    HW231921   1.378   6.060   4.175 -0.3601  0.3923  0.0763
 8931SOL     OW31922  10.187  10.453  10.650 -0.1962 -0.5707  0.2104
 8931SOL    HW131923  10.209  10.527  10.593 -0.7035 -0.1149  0.6048
 8931SOL    HW231924  10.239  10.381  10.615  0.6968  0.0936  0.1293
 8932SOL     OW31925   7.561   3.909   1.632  0.1795  0.1146  0.0447
 8932SOL    HW131926   7.465   3.911   1.637  0.2372  2.4378  0.8770
 8932SOL    HW231927   7.579   3.906   1.538 -0.6951 -1.3507 -0.0966
 8933SOL     OW31928   0.346   6.452   5.662 -0.2583  0.1494 -0.2083
 8933SOL    HW131929   0.321   6.367   5.697  1.1886  0.4864  1.7090
 8933SOL    HW231930   0.266   6.504   5.664 -0.8367 -0.7313 -0.1251
 8934SOL     OW31931  10.176  10.736   8.200 -0.3696 -0.8213 -0.2063
 8934SOL    HW131932  10.096  10.782   8.176 -1.1714 -1.5990  0.9181
 8934SOL    HW231933  10.235  10.806   8.231 -0.5842 -0.2423 -1.0910
 8935SOL     OW31934   3.884  11.304   2.193 -0.3261 -1.1007 -0.1963
 8935SOL    HW131935   3.874  11.390   2.234 -1.6773 -1.4862  0.2729
 8935SOL    HW231936   3.870  11.321   2.099  1.0311 -0.5339 -0.3138
 8936SOL     OW31937   9.190   7.529   8.954 -0.4937 -0.5505 -0.2214
 8936SOL    HW131938   9.253   7.560   8.888  0.4641  1.8588  1.7426
 8936SOL    HW231939   9.235   7.458   8.999 -0.5062 -1.0808 -1.0278
 8937SOL     OW31940   5.663   0.460   8.542 -0.0384 -0.2786  0.3478
 8937SOL    HW131941   5.674   0.529   8.607 -1.4695 -0.1325  0.4544
 8937SOL    HW231942   5.685   0.502   8.458  1.3738 -0.3474  0.6750
 8938SOL     OW31943   8.100   5.779   9.918 -0.5780  0.2939  0.4820
 8938SOL    HW131944   8.164   5.821   9.974 -0.3264 -0.7659  0.9946
 8938SOL    HW231945   8.107   5.686   9.938 -1.5328  0.0581 -0.2196
 8939SOL     OW31946  10.490   6.220  10.945 -0.2861  0.6511  0.8713
 8939SOL    HW131947  10.397   6.200  10.959 -0.5131  0.6284 -0.5916
 8939SOL    HW231948  10.490   6.286  10.876  0.8801 -1.4853 -1.2602
 8940SOL     OW31949   2.805   2.453   0.833  0.7334  0.2034 -0.0101
 8940SOL    HW131950   2.827   2.360   0.826 -0.7552 -0.1958  0.4915
 8940SOL    HW231951   2.770   2.476   0.747  1.2010  0.3331 -0.1679
 8941SOL     OW31952   3.262   2.006   7.454 -0.4389  0.1298 -0.4274
 8941SOL    HW131953   3.193   1.958   7.501 -0.7957 -0.8758 -1.9593
 8941SOL    HW231954   3.215   2.060   7.390  0.0008  2.0365  0.7923
 8942SOL     OW31955   7.100   9.752   0.553  0.7770 -0.0451 -0.0194
 8942SOL    HW131956   7.154   9.741   0.475 -0.1665 -2.0952 -0.4003
 8942SOL    HW231957   7.155   9.721   0.625  1.1058  0.4597 -0.0515
 8943SOL     OW31958   9.874   2.110   9.878 -0.0219  0.2811  0.4092
 8943SOL    HW131959   9.948   2.101   9.818  1.3562 -0.5645  2.2205
 8943SOL    HW231960   9.853   2.204   9.875  2.8908  1.0526  1.9213
 8944SOL     OW31961  11.208   7.367   5.625 -0.6379 -0.2823 -0.4853
 8944SOL    HW131962  11.237   7.418   5.550 -1.0749 -0.1061 -0.5388
 8944SOL    HW231963  11.142   7.308   5.590 -0.7838 -0.2575 -0.2599
 8945SOL     OW31964   6.551   7.490   3.771  0.6096  0.8572  0.0210
 8945SOL    HW131965   6.600   7.496   3.690  0.6603 -0.2715 -0.0358
 8945SOL    HW231966   6.617   7.495   3.840  0.5178  2.3389  0.0087
 8946SOL     OW31967   3.035   3.767   8.438  0.1631  0.1241 -0.0410
 8946SOL    HW131968   2.964   3.813   8.484  0.1291  0.1311 -0.1011
 8946SOL    HW231969   3.044   3.814   8.355 -0.1214 -0.2034 -0.2586
 8947SOL     OW31970   9.355   6.652  10.629 -0.2174 -0.3910  0.4183
 8947SOL    HW131971   9.436   6.698  10.607  0.5931 -1.7159  0.5396
 8947SOL    HW231972   9.364   6.629  10.721 -1.0645  0.0927  0.6311
 8948SOL     OW31973   8.010   4.639   1.025  0.2871 -0.2415 -0.0972
 8948SOL    HW131974   8.028   4.576   1.095 -0.3658 -2.1934 -1.6593
 8948SOL    HW231975   8.050   4.721   1.056 -1.6577 -0.5235  3.4472
 8949SOL     OW31976   9.383   0.988  11.097  0.5899 -0.1028 -0.1001
 8949SOL    HW131977   9.335   0.935  11.033 -0.0554  0.4290 -0.0533
 8949SOL    HW231978   9.357   0.952  11.182  0.9579 -0.3932 -0.1097
 8950SOL     OW31979   9.489   3.636   8.177  0.4813  0.0578 -0.2540
 8950SOL    HW131980   9.543   3.712   8.157  1.1912 -0.7071 -1.2956
 8950SOL    HW231981   9.524   3.603   8.260  1.3920 -0.2206 -0.7380
 8951SOL     OW31982   4.204   8.225   9.059 -0.1997  0.0992  0.1842
 8951SOL    HW131983   4.185   8.188   9.145 -2.2184  1.7937  0.5336
 8951SOL    HW231984   4.210   8.149   9.001 -3.9514 -0.8834  0.9158
 8952SOL     OW31985  11.010   3.261   2.298 -0.0294 -0.2818  0.2089
 8952SOL    HW131986  11.060   3.261   2.379 -1.0091 -0.8261  0.8116
 8952SOL    HW231987  10.930   3.308   2.318  0.8192  1.8347 -1.1421
 8953SOL     OW31988   7.822  11.147   6.391 -0.1091 -0.2106  0.0445
 8953SOL    HW131989   7.740  11.188   6.420  0.7794 -0.1570  2.6145
 8953SOL    HW231990   7.871  11.219   6.350 -0.4904  0.2355  0.3617
 8954SOL     OW31991   2.892   3.894   0.338  0.3860  0.1497 -0.3258
 8954SOL    HW131992   2.816   3.857   0.294 -0.2723  2.8381 -1.5324
 8954SOL    HW231993   2.967   3.846   0.302 -0.5456 -1.1615 -0.5667
 8955SOL     OW31994   7.296   0.601   3.678  0.3665 -0.6244  0.2525
 8955SOL    HW131995   7.279   0.662   3.749  0.1112  0.1938 -0.4986
 8955SOL    HW231996   7.350   0.533   3.717  0.9563  0.2667  1.0256
 8956SOL     OW31997   1.577   4.387  10.390  0.3144  0.7255 -0.0801
 8956SOL    HW131998   1.567   4.294  10.413  1.1546  0.4341 -0.8259
 8956SOL    HW231999   1.669   4.406  10.410 -0.1695  1.7409  1.2242
 8957SOL     OW32000  11.334   0.923   2.489 -0.0492  0.1499 -0.1371
 8957SOL    HW132001  11.382   0.861   2.544 -1.1784 -1.8522 -1.3372
 8957SOL    HW232002  11.359   1.009   2.522  2.3404 -0.9124  0.9139
 8958SOL     OW32003   8.492   7.385   2.105 -0.0269  0.2703  0.1407
 8958SOL    HW132004   8.404   7.401   2.072  0.1324 -0.8244 -0.8582
 8958SOL    HW232005   8.503   7.290   2.097  0.9550  0.3124  0.9772
 8959SOL     OW32006   7.599   6.158   0.576  0.1706 -0.0268  0.1001
 8959SOL    HW132007   7.623   6.079   0.526  0.3069  0.6849 -0.9785
 8959SOL    HW232008   7.642   6.229   0.530  0.7202  0.5900  1.5745
 8960SOL     OW32009  10.427   9.666   7.081  0.0016  0.4877 -0.4527
 8960SOL    HW132010  10.343   9.662   7.035  0.7084  2.7121 -2.0529
 8960SOL    HW232011  10.492   9.659   7.011  1.1283  0.3011  0.6100
 8961SOL     OW32012   0.292   2.978   3.763  0.0026  0.2657  0.1990
 8961SOL    HW132013   0.363   2.918   3.788 -0.6002 -0.3687  0.4015
 8961SOL    HW232014   0.215   2.922   3.755 -0.2233  0.7484 -1.2429
 8962SOL     OW32015   6.823   2.143   7.767 -0.0140  0.2869 -0.0787
 8962SOL    HW132016   6.787   2.124   7.680  0.4421 -2.3598  0.2513
 8962SOL    HW232017   6.916   2.159   7.751 -0.5038  2.9422 -0.4270
 8963SOL     OW32018   0.794   6.964  10.564  0.0516 -0.3013 -0.0520
 8963SOL    HW132019   0.844   6.906  10.620 -2.1033  0.1845  2.4856
 8963SOL    HW232020   0.845   6.970  10.483  3.3228 -0.8987  1.8862
 8964SOL     OW32021   2.326   1.742   2.505 -0.3953  0.2084 -0.1632
 8964SOL    HW132022   2.277   1.803   2.561  0.1971  0.9947 -0.4840
 8964SOL    HW232023   2.260   1.698   2.453 -0.7950  0.9170 -0.2555
 8965SOL     OW32024   0.831   9.720   1.775  0.3328  0.3190 -0.1351
 8965SOL    HW132025   0.790   9.687   1.695  0.4703  0.8354 -0.4205
 8965SOL    HW232026   0.909   9.664   1.786 -0.3003 -0.4943  0.2707
 8966SOL     OW32027   4.407   2.724   7.326 -0.0681  0.6345 -0.4316
 8966SOL    HW132028   4.457   2.805   7.334  0.0167  0.5069  0.3230
 8966SOL    HW232029   4.455   2.660   7.378 -0.6384  0.3368 -0.2636
 8967SOL     OW32030   0.340   3.663   0.904  0.1999  0.3535 -0.3870
 8967SOL    HW132031   0.430   3.691   0.886  0.1830  0.7608  0.1479
 8967SOL    HW232032   0.346   3.614   0.986 -0.1687  0.9432 -0.0090
 8968SOL     OW32033   2.275   0.231   0.495 -0.3439 -0.1519 -0.1580
 8968SOL    HW132034   2.249   0.213   0.585  0.3540  1.0374  0.2961
 8968SOL    HW232035   2.358   0.185   0.485 -0.1593  0.1483 -0.0201
 8969SOL     OW32036   8.240   8.351   2.490 -0.3438 -0.0682 -0.1340
 8969SOL    HW132037   8.222   8.265   2.527 -0.1979 -0.2908 -0.5720
 8969SOL    HW232038   8.194   8.352   2.406  1.4598 -0.5547 -1.1477
 8970SOL     OW32039   6.877   3.310   1.633 -0.0819  1.0623  0.3762
 8970SOL    HW132040   6.938   3.242   1.661  0.0265  1.3339  0.8121
 8970SOL    HW232041   6.846   3.281   1.548  0.4155  0.7626  0.2932
 8971SOL     OW32042   5.849   6.642   4.576 -0.6137 -0.0703  0.0540
 8971SOL    HW132043   5.831   6.616   4.485 -1.3603  0.3588  0.0779
 8971SOL    HW232044   5.944   6.632   4.585 -0.5220 -0.0183 -0.8050
 8972SOL     OW32045   9.030   2.712   8.516  0.4190 -0.0301  1.0074
 8972SOL    HW132046   9.000   2.801   8.496  0.2571 -0.1043  0.9200
 8972SOL    HW232047   9.006   2.661   8.439  1.9269  0.1739  0.3831
 8973SOL     OW32048   5.986   7.384  11.158  0.1826  0.1490 -0.3924
 8973SOL    HW132049   6.006   7.291  11.157  1.4505  0.3553  2.3400
 8973SOL    HW232050   6.051   7.423  11.098  1.9061 -0.3429  1.1034
 8974SOL     OW32051   3.401   0.974   3.075  0.4441  0.6529 -0.0903
 8974SOL    HW132052   3.362   0.999   3.158 -0.0178  1.6720 -0.6040
 8974SOL    HW232053   3.326   0.955   3.018  0.7179  1.4935 -0.7418
 8975SOL     OW32054   4.585   7.973   8.783 -0.2775  0.0358  0.2500
 8975SOL    HW132055   4.620   7.884   8.785 -0.4294 -0.0608 -1.0210
 8975SOL    HW232056   4.651   8.024   8.735  0.2089  0.7958  1.7051
 8976SOL     OW32057   0.853   3.379   9.573 -0.4891 -0.4334 -0.0185
 8976SOL    HW132058   0.898   3.464   9.571 -2.9411  0.8619 -1.3498
 8976SOL    HW232059   0.818   3.373   9.662 -1.1124  0.3703 -0.2069
 8977SOL     OW32060   7.378   6.975   0.486  0.2444  0.2199  0.1616
 8977SOL    HW132061   7.329   6.918   0.426  0.7111 -0.6638  0.6035
 8977SOL    HW232062   7.408   6.916   0.556  0.0866  1.1597  1.0271
 8978SOL     OW32063   5.892   7.864   5.388  0.4762 -0.0768 -0.1318
 8978SOL    HW132064   5.920   7.809   5.314  1.0901  1.7874 -1.3203
 8978SOL    HW232065   5.887   7.804   5.462 -0.0606 -1.9801 -1.6631
 8979SOL     OW32066  10.826   3.749   1.252 -0.1616 -0.2900 -0.2597
 8979SOL    HW132067  10.856   3.679   1.193 -0.1885 -0.9204  0.4571
 8979SOL    HW232068  10.855   3.720   1.339 -0.0534  0.6666  0.0230
 8980SOL     OW32069  10.203   2.385   9.443  0.0263 -1.0032  0.0385
 8980SOL    HW132070  10.293   2.391   9.477  0.1818 -0.0151 -0.5314
 8980SOL    HW232071  10.164   2.469   9.465  0.6910  0.4187 -3.7892
 8981SOL     OW32072   5.635  10.987  10.630  0.4393 -0.2800  0.1402
 8981SOL    HW132073   5.622  10.899  10.667  2.5640 -0.8309 -0.3206
 8981SOL    HW232074   5.550  11.029  10.638 -0.3423 -2.0042  1.3901
 8982SOL     OW32075   5.776   3.740  10.326  0.4507  0.7851  0.5276
 8982SOL    HW132076   5.753   3.800  10.255 -0.8400 -0.2654  0.0471
 8982SOL    HW232077   5.770   3.793  10.405  1.1197  1.7615 -0.0580
 8983SOL     OW32078  11.162   4.264   1.585 -0.0857 -0.3386  0.2893
 8983SOL    HW132079  11.142   4.221   1.502 -0.9316  0.3793  0.1060
 8983SOL    HW232080  11.223   4.334   1.562 -1.2891  0.6734  0.0410
 8984SOL     OW32081   5.968   5.411   7.205 -0.0797  0.0092 -0.3047
 8984SOL    HW132082   5.934   5.444   7.121  0.7411 -1.4342 -1.2072
 8984SOL    HW232083   5.889   5.393   7.256 -0.5713  2.1644 -0.2499
 8985SOL     OW32084   4.174   7.904   4.404 -0.6207 -0.2450  0.5410
 8985SOL    HW132085   4.145   7.956   4.330  0.1121  1.2823  1.3010
 8985SOL    HW232086   4.096   7.893   4.458 -0.5942  0.8100  0.8032
 8986SOL     OW32087   4.051   7.510   5.104 -0.3586 -0.4249  0.2395
 8986SOL    HW132088   4.019   7.549   5.022 -1.3343  1.5768  1.5515
 8986SOL    HW232089   4.120   7.449   5.076 -0.9479 -0.0593 -2.0980
 8987SOL     OW32090   5.774  10.628   0.206  0.2703 -0.3397  0.2312
 8987SOL    HW132091   5.868  10.621   0.218  0.1335 -1.4090  0.7146
 8987SOL    HW232092   5.739  10.546   0.240 -1.0423  0.9588  2.1673
 8988SOL     OW32093   0.323   0.873   0.452 -0.0257  0.2334  0.2390
 8988SOL    HW132094   0.322   0.891   0.546  3.1702  1.5135  0.0878
 8988SOL    HW232095   0.327   0.778   0.445 -1.7875  0.0512  1.3319
 8989SOL     OW32096   8.433   1.146   4.830 -0.0789  0.2076 -0.1843
 8989SOL    HW132097   8.519   1.112   4.854  0.0403  0.4439 -0.2774
 8989SOL    HW232098   8.443   1.177   4.740 -0.5308 -0.7022 -0.5526
 8990SOL     OW32099   7.800   8.956   3.320 -0.0680 -0.9679 -0.2922
 8990SOL    HW132100   7.877   8.909   3.288  0.1523 -1.3717  0.7979
 8990SOL    HW232101   7.835   9.039   3.352  0.2285 -1.9451  2.0229
 8991SOL     OW32102   3.991   6.538   3.722 -0.1100  0.2928 -0.3664
 8991SOL    HW132103   4.082   6.567   3.723 -0.5386  1.6530  1.4136
 8991SOL    HW232104   3.943   6.611   3.683 -0.3113 -0.9901 -2.6683
 8992SOL     OW32105   9.960   2.584   5.541 -0.2776 -0.5829 -0.3845
 8992SOL    HW132106   9.865   2.589   5.553 -0.2346 -0.4496 -0.1093
 8992SOL    HW232107   9.972   2.517   5.474 -0.6440  0.3715 -1.4176
 8993SOL     OW32108   4.317   2.802   4.201 -0.1657 -0.1907 -0.2347
 8993SOL    HW132109   4.301   2.709   4.216 -0.6397 -0.1492 -0.4660
 8993SOL    HW232110   4.272   2.822   4.119 -0.2216  0.2815 -0.0944
 8994SOL     OW32111   4.012   3.956   0.038 -0.2714  0.3746 -0.1863
 8994SOL    HW132112   3.966   3.901  -0.024  1.9042  0.8295 -2.2826
 8994SOL    HW232113   4.102   3.922   0.039  0.2426  1.6671  1.1408
 8995SOL     OW32114   0.070   8.783   0.551  0.8629 -0.1792  0.3474
 8995SOL    HW132115   0.068   8.729   0.630  1.1874  0.9571  1.1488
 8995SOL    HW232116   0.093   8.723   0.481  1.4260 -1.0433  1.2644
 8996SOL     OW32117   2.580   9.480   2.096 -0.1719  0.2628 -0.3813
 8996SOL    HW132118   2.656   9.538   2.097 -0.4348  0.6077 -0.4947
 8996SOL    HW232119   2.524   9.512   2.166 -0.2261  0.0234 -0.3127
 8997SOL     OW32120   9.818   4.741   1.652  0.2550  0.3082 -0.0661
 8997SOL    HW132121   9.765   4.819   1.667 -0.4292 -0.4480  1.6077
 8997SOL    HW232122   9.755   4.675   1.621  0.4311 -0.2147  0.6728
 8998SOL     OW32123   3.597   3.848   7.348  0.2755  0.2208  0.1100
 8998SOL    HW132124   3.590   3.852   7.253 -4.5264  0.9045  0.3674
 8998SOL    HW232125   3.605   3.755   7.368 -1.8322 -0.2095 -0.8974
 8999SOL     OW32126   6.094   2.564   8.517 -0.3680 -0.3004  0.2208
 8999SOL    HW132127   6.146   2.638   8.548  0.0904 -0.1851 -0.8193
 8999SOL    HW232128   6.131   2.488   8.563  0.1121 -0.0897  0.1819
 9000SOL     OW32129   0.799   5.014   0.984 -0.3125 -0.2886 -0.2753
 9000SOL    HW132130   0.833   4.983   0.899  1.2255  0.8892 -0.1060
 9000SOL    HW232131   0.783   4.934   1.033  0.7810 -0.9323 -0.9299
 9001SOL     OW32132   6.709   7.666   9.258 -0.3532  0.2719 -0.9273
 9001SOL    HW132133   6.698   7.722   9.181  0.5973 -1.9168 -2.7043
 9001SOL    HW232134   6.791   7.620   9.242 -1.0386 -1.5022  0.5727
 9002SOL     OW32135   1.328   4.684   2.814 -0.6412 -0.3565  0.7949
 9002SOL    HW132136   1.395   4.712   2.752 -0.2580  3.0838  2.6545
 9002SOL    HW232137   1.246   4.689   2.764  0.1721 -2.3911 -0.8179
 9003SOL     OW32138   1.531   2.160  10.785 -0.4033 -0.6113  0.4552
 9003SOL    HW132139   1.556   2.240  10.831  2.4187 -0.4384 -1.2595
 9003SOL    HW232140   1.463   2.187  10.724 -0.0733  0.3174  0.4945
 9004SOL     OW32141   8.588   1.780   5.840  0.2965 -0.1037 -0.2654
 9004SOL    HW132142   8.633   1.782   5.924 -0.0238 -2.4124 -0.0004
 9004SOL    HW232143   8.495   1.792   5.863  0.4069  1.1622 -0.4732
 9005SOL     OW32144   6.239   2.053   1.056  0.1990  0.2710  0.2493
 9005SOL    HW132145   6.281   1.980   1.102  1.4146 -0.2580 -1.6682
 9005SOL    HW232146   6.296   2.128   1.071  0.0779  0.3319  0.4111
 9006SOL     OW32147   1.319   4.548   8.604 -0.2799 -0.2400  0.0292
 9006SOL    HW132148   1.349   4.588   8.523  0.6941  1.4796  1.1914
 9006SOL    HW232149   1.399   4.516   8.646 -0.2729  2.0198  1.9114
 9007SOL     OW32150   3.640   5.059   4.213 -0.3724  0.1281 -0.2009
 9007SOL    HW132151   3.582   5.096   4.147 -0.8382  1.0766  0.7146
 9007SOL    HW232152   3.646   5.128   4.280  1.7779  0.0116 -0.2636
 9008SOL     OW32153   0.199   6.365   0.754 -0.6735 -0.2394  0.4621
 9008SOL    HW132154   0.249   6.377   0.835  0.2812 -1.9903  0.1586
 9008SOL    HW232155   0.242   6.424   0.691 -0.0842 -0.4381  0.6736
 9009SOL     OW32156  10.452  10.415   1.510  0.0377  0.2708 -0.5924
 9009SOL    HW132157  10.392  10.347   1.542  1.4864 -0.5315  0.4965
 9009SOL    HW232158  10.398  10.469   1.453 -1.0722 -1.9816 -1.7576
 9010SOL     OW32159   3.853   5.378   5.753 -0.3499  0.0788  0.0750
 9010SOL    HW132160   3.922   5.325   5.794  0.4671  1.1174  0.0354
 9010SOL    HW232161   3.787   5.387   5.821  0.8208  1.4515  1.0469
 9011SOL     OW32162   5.520   5.167   6.141 -0.2143 -0.0576 -0.6414
 9011SOL    HW132163   5.528   5.181   6.047 -1.6826 -0.0433 -0.7757
 9011SOL    HW232164   5.428   5.187   6.161  0.5198  1.7791  1.1071
 9012SOL     OW32165   7.353   9.135  10.321 -0.4965  0.1938  0.3165
 9012SOL    HW132166   7.302   9.204  10.277  0.5576 -0.9471 -2.7998
 9012SOL    HW232167   7.444   9.154  10.297 -0.0733 -1.4438  0.6209
 9013SOL     OW32168   2.359   8.620  10.810 -0.0932  0.0730 -0.3187
 9013SOL    HW132169   2.405   8.699  10.782  0.7526  0.4528  2.0513
 9013SOL    HW232170   2.269   8.649  10.828 -0.0050  0.3243 -0.2833
 9014SOL     OW32171   3.302  10.857   4.868  0.3045  0.3878  0.0424
 9014SOL    HW132172   3.255  10.799   4.927  1.0853 -0.8556 -0.5512
 9014SOL    HW232173   3.325  10.802   4.793  0.6257  1.5797 -0.7452
 9015SOL     OW32174   0.045  10.408   6.770  0.2228  0.5781 -0.3017
 9015SOL    HW132175   0.033  10.355   6.692  0.0737  0.8888 -0.4909
 9015SOL    HW232176  -0.042  10.412   6.810  0.1383  1.0460 -0.5257
 9016SOL     OW32177   1.312   9.348   1.027  0.4473 -0.0210 -0.2506
 9016SOL    HW132178   1.274   9.432   0.999  0.2522 -0.1496 -0.3769
 9016SOL    HW232179   1.342   9.307   0.946 -0.1845 -0.4278 -0.2849
 9017SOL     OW32180   6.030   2.548   4.925  0.3898 -0.0124  0.8073
 9017SOL    HW132181   6.091   2.497   4.871 -0.6861  0.7320 -1.1535
 9017SOL    HW232182   6.035   2.636   4.889  0.9805  0.9124  3.1138
 9018SOL     OW32183   6.717   1.745  10.490 -0.1162 -0.2388 -0.0573
 9018SOL    HW132184   6.775   1.684  10.444  0.1205  0.0997 -0.2133
 9018SOL    HW232185   6.769   1.825  10.499 -0.8389  0.3244 -0.8806
 9019SOL     OW32186   8.653   7.137   1.287 -0.3955 -0.6930  0.0645
 9019SOL    HW132187   8.687   7.094   1.365 -0.4836 -0.4324  0.2437
 9019SOL    HW232188   8.705   7.217   1.278 -0.4134 -0.7003 -0.1214
 9020SOL     OW32189   1.911   6.031  10.106  0.1931 -0.4441  0.3038
 9020SOL    HW132190   1.981   5.995  10.052  1.2681  1.7112  0.2079
 9020SOL    HW232191   1.923   6.125  10.102 -1.2466 -0.1327  2.2695
 9021SOL     OW32192   7.775   0.808   8.348  0.4161 -0.5621  0.5722
 9021SOL    HW132193   7.761   0.846   8.435 -0.7796 -0.7415  0.4681
 9021SOL    HW232194   7.689   0.774   8.323  0.5175  0.3727 -1.0966
 9022SOL     OW32195   8.871   8.312  10.538 -0.0175  0.2272 -0.0603
 9022SOL    HW132196   8.790   8.312  10.486 -0.5719  2.3038  0.7451
 9022SOL    HW232197   8.871   8.226  10.580 -1.6949  0.0986 -0.2468
 9023SOL     OW32198   8.375   0.370  10.655  0.0830 -0.5102  0.0857
 9023SOL    HW132199   8.286   0.388  10.623  0.0813  0.0490  0.4030
 9023SOL    HW232200   8.418   0.328  10.581  0.1575  1.0184 -0.7573
 9024SOL     OW32201   3.904   4.300   2.227  0.0342 -0.0742  0.3450
 9024SOL    HW132202   3.982   4.257   2.262 -0.2633 -0.3001  0.7302
 9024SOL    HW232203   3.831   4.255   2.268 -0.3374 -0.7877 -1.0671
 9025SOL     OW32204   3.620  10.344   8.233  0.4612  0.2390 -0.6134
 9025SOL    HW132205   3.594  10.284   8.163  0.5202 -1.2392  0.6067
 9025SOL    HW232206   3.688  10.398   8.194  1.3181 -1.3509 -1.3588
 9026SOL     OW32207   8.494   1.420   2.210 -0.0911  0.1156 -0.9780
 9026SOL    HW132208   8.530   1.369   2.137  0.3555 -1.9335  0.6266
 9026SOL    HW232209   8.571   1.455   2.254 -0.2321 -0.8123  0.0213
 9027SOL     OW32210   3.103   2.180   4.149 -0.2685  0.4669  0.2828
 9027SOL    HW132211   3.047   2.130   4.090  0.3753  1.5896 -1.3138
 9027SOL    HW232212   3.190   2.174   4.110  0.1523  1.2574  1.0904
 9028SOL     OW32213   7.802   2.437   7.912 -0.1446 -0.6747  0.6098
 9028SOL    HW132214   7.831   2.485   7.989 -0.4316 -0.3782  0.5366
 9028SOL    HW232215   7.846   2.480   7.839  0.1108 -0.9409  0.6068
 9029SOL     OW32216  11.250   9.128   7.229 -0.3232  0.9501 -0.0923
 9029SOL    HW132217  11.276   9.220   7.229  0.5275  0.7327  1.4438
 9029SOL    HW232218  11.242   9.105   7.136  0.1530  2.3730 -0.4957
 9030SOL     OW32219   3.962   6.263   9.678 -0.1803  0.0055 -0.4317
 9030SOL    HW132220   3.958   6.174   9.642  0.7523  0.0833 -0.7415
 9030SOL    HW232221   3.926   6.254   9.767  2.2230 -1.2035  0.4959
 9031SOL     OW32222   7.135   7.159   9.726 -0.1578  0.4849  0.0578
 9031SOL    HW132223   7.064   7.193   9.780 -0.4600 -0.5339  0.3009
 9031SOL    HW232224   7.102   7.077   9.691  0.0932  1.0429 -1.5434
 9032SOL     OW32225   5.078   4.131   1.271  0.2502 -0.2292  0.1240
 9032SOL    HW132226   5.170   4.130   1.242  1.1047  1.4670  2.6158
 9032SOL    HW232227   5.054   4.224   1.269 -1.5638 -0.7041 -0.8961
 9033SOL     OW32228  10.040   6.215   0.459 -0.4509  0.2278 -0.1612
 9033SOL    HW132229  10.006   6.179   0.377  1.9225  1.3089 -1.6740
 9033SOL    HW232230  10.127   6.176   0.469 -0.7307  0.0495  1.9061
 9034SOL     OW32231   8.788   5.177   7.886  0.9808 -0.2808  0.0708
 9034SOL    HW132232   8.738   5.096   7.884  0.0956  0.2638  0.0699
 9034SOL    HW232233   8.784   5.210   7.796  0.0371  0.5545  0.4173
 9035SOL     OW32234   7.451   7.795   8.543  0.0047  0.8808  0.5253
 9035SOL    HW132235   7.443   7.831   8.455  0.7285  0.2197  0.1874
 9035SOL    HW232236   7.496   7.711   8.531  0.3044  0.8899  1.5487
 9036SOL     OW32237   5.055   3.431   0.458  1.2207  0.3089 -0.7669
 9036SOL    HW132238   5.003   3.454   0.381  2.5761  1.7469 -1.2738
 9036SOL    HW232239   5.115   3.363   0.427  0.1460 -0.8484 -0.3558
 9037SOL     OW32240   2.550   8.417  10.517  0.5833  0.3632 -0.4569
 9037SOL    HW132241   2.591   8.374  10.592  0.6383  1.5303  0.1838
 9037SOL    HW232242   2.456   8.412  10.536  0.6192  1.0469 -0.0987
 9038SOL     OW32243   7.988  10.677  11.289 -0.5493 -0.1175 -0.5756
 9038SOL    HW132244   8.084  10.678  11.286 -0.5557 -0.4485 -1.0071
 9038SOL    HW232245   7.966  10.707  11.377 -0.0592  0.3236 -0.6037
 9039SOL     OW32246   5.209   0.542  10.084 -0.1149  0.3045 -0.1208
 9039SOL    HW132247   5.257   0.578  10.159 -0.9222 -1.1312  1.1172
 9039SOL    HW232248   5.144   0.484  10.123 -1.7642  0.9403 -1.8629
 9040SOL     OW32249   1.164   8.195  10.875 -0.0047 -0.1121  0.1716
 9040SOL    HW132250   1.141   8.172  10.965  1.3734  1.4444  0.9451
 9040SOL    HW232251   1.222   8.270  10.884  1.8791 -1.2760 -1.9415
 9041SOL     OW32252   8.526   4.023   7.181 -0.1939 -0.5853 -0.3677
 9041SOL    HW132253   8.595   4.009   7.245  1.1199 -0.4761 -1.7262
 9041SOL    HW232254   8.489   4.108   7.203  0.0727 -0.6599  0.3822
 9042SOL     OW32255   8.036  11.224   4.314 -0.5887 -0.2615 -0.0221
 9042SOL    HW132256   8.107  11.270   4.360 -1.2679 -0.3061  1.0931
 9042SOL    HW232257   8.077  11.147   4.277  0.4161  0.8405 -1.2695
 9043SOL     OW32258   3.404   3.206   1.496 -0.1082  0.0068  0.2358
 9043SOL    HW132259   3.490   3.243   1.478  0.3244 -0.5815  1.0837
 9043SOL    HW232260   3.399   3.200   1.591 -1.4637  0.9127  0.2436
 9044SOL     OW32261  10.047   9.104   6.281 -0.5788 -0.1530 -0.2331
 9044SOL    HW132262  10.108   9.170   6.311  0.0864 -0.8696  0.0010
 9044SOL    HW232263   9.960   9.141   6.299 -0.2133  0.6733 -0.1755
 9045SOL     OW32264   0.059  10.195   9.210  0.0698 -0.2560  0.0274
 9045SOL    HW132265   0.129  10.237   9.261  0.5368 -1.0747  0.0690
 9045SOL    HW232266   0.104  10.129   9.157 -0.6711 -0.7728  0.0335
 9046SOL     OW32267   0.500   3.736   8.353  0.5814  1.0067  0.6195
 9046SOL    HW132268   0.457   3.806   8.403 -0.2485  0.2398  0.9846
 9046SOL    HW232269   0.503   3.769   8.263  2.7106  2.7062  1.2441
 9047SOL     OW32270   5.319   9.366   4.782 -0.7904  0.2061  0.1322
 9047SOL    HW132271   5.257   9.392   4.849 -0.9076 -1.3374  0.6424
 9047SOL    HW232272   5.296   9.419   4.705 -1.3263  1.2035  0.9779
 9048SOL     OW32273   6.111   1.591   4.433 -0.0139  0.5708 -0.3636
 9048SOL    HW132274   6.042   1.581   4.367  0.5481  0.7733 -0.9843
 9048SOL    HW232275   6.152   1.505   4.436 -0.7767  0.2273  0.5571
 9049SOL     OW32276   7.391   0.668   8.697  0.4256  0.1344 -0.0240
 9049SOL    HW132277   7.452   0.719   8.750  1.9629  0.4036 -1.9930
 9049SOL    HW232278   7.305   0.703   8.718  0.9305 -0.1105  2.6512
 9050SOL     OW32279   1.552   9.737   7.351 -0.4216  0.3090  0.0547
 9050SOL    HW132280   1.604   9.656   7.350 -1.0476 -0.1168  1.1408
 9050SOL    HW232281   1.596   9.793   7.416  0.7012  1.3112 -1.5483
 9051SOL     OW32282   6.386  10.963   8.048 -0.2856  0.0961 -0.0522
 9051SOL    HW132283   6.383  10.897   7.979  3.1810  0.4409 -0.6321
 9051SOL    HW232284   6.344  10.920   8.123  0.8710 -2.3696 -0.7565
 9052SOL     OW32285   0.779   3.952   2.306  0.0544  0.5288 -0.0030
 9052SOL    HW132286   0.788   3.960   2.211  0.1118  0.7168  0.0197
 9052SOL    HW232287   0.743   4.036   2.334 -1.3353 -0.0414 -0.0340
 9053SOL     OW32288   2.783   3.165   4.690  0.3035 -0.2073 -0.5096
 9053SOL    HW132289   2.788   3.211   4.606 -0.6925  1.3845  0.2820
 9053SOL    HW232290   2.691   3.173   4.716  0.6544 -0.4933  0.8415
 9054SOL     OW32291  10.668   2.143   4.095  0.3136  0.6623 -0.0200
 9054SOL    HW132292  10.632   2.226   4.124  0.8360  1.4262 -1.5012
 9054SOL    HW232293  10.757   2.141   4.130  0.2765  0.6931  0.0767
 9055SOL     OW32294   8.233   9.486   6.840  0.2962 -0.1166 -0.0270
 9055SOL    HW132295   8.197   9.530   6.917 -0.2015 -2.3507  1.0575
 9055SOL    HW232296   8.285   9.553   6.796 -1.2530  1.8114  1.0180
 9056SOL     OW32297  11.163  11.076   3.993  0.1897 -0.1805 -0.0477
 9056SOL    HW132298  11.222  11.028   4.051 -1.6702 -1.2708  1.0027
 9056SOL    HW232299  11.214  11.152   3.965  2.7884 -2.1361 -0.8436
 9057SOL     OW32300   5.718   2.817   5.086 -0.2199  0.0724  0.0059
 9057SOL    HW132301   5.738   2.726   5.109 -0.0117 -0.0028 -0.4501
 9057SOL    HW232302   5.631   2.814   5.047 -0.4769  0.1657  0.5679
 9058SOL     OW32303   2.020  11.284  11.050  0.1486  0.3621  0.2408
 9058SOL    HW132304   2.062  11.266  11.134  1.8666 -1.8001 -1.0058
 9058SOL    HW232305   2.091  11.318  10.995 -0.7358  0.8371 -0.6144
 9059SOL     OW32306   1.637   9.530   7.999 -0.1808  0.8143 -0.0278
 9059SOL    HW132307   1.633   9.610   8.052  2.3982 -0.0748  1.6261
 9059SOL    HW232308   1.711   9.482   8.035 -0.9586 -1.7882 -1.7820
 9060SOL     OW32309   3.852   3.989  10.344 -0.2092 -0.3136  0.2777
 9060SOL    HW132310   3.853   4.042  10.264 -0.4279 -1.3163 -0.4069
 9060SOL    HW232311   3.770   4.013  10.388  0.5536  1.2293  0.8963
 9061SOL     OW32312   6.307   5.467   0.279 -0.1263 -0.2378 -0.3872
 9061SOL    HW132313   6.234   5.407   0.297 -0.5975  0.4684  0.1110
 9061SOL    HW232314   6.331   5.502   0.365  0.6986 -0.3471 -0.5680
 9062SOL     OW32315   3.853   4.626   8.905  0.3289  0.0992 -0.3010
 9062SOL    HW132316   3.764   4.624   8.871  0.4006  0.9585 -0.5451
 9062SOL    HW232317   3.905   4.582   8.838  0.1839  0.1425 -0.4406
 9063SOL     OW32318   6.784  11.097   1.620  0.0076  0.1215  0.1305
 9063SOL    HW132319   6.753  11.021   1.572  1.2037 -0.0794 -0.3383
 9063SOL    HW232320   6.705  11.148   1.638 -0.6566 -0.6590 -0.5400
 9064SOL     OW32321   9.129   2.322   1.074  0.1590  0.3273 -0.5045
 9064SOL    HW132322   9.112   2.416   1.071  0.0016  0.3397  0.5508
 9064SOL    HW232323   9.055   2.282   1.029  0.1840  0.7030 -0.8757
 9065SOL     OW32324  10.209   2.521   3.080 -0.0016  0.3231  0.3301
 9065SOL    HW132325  10.167   2.447   3.036  1.6330 -0.3724 -0.0985
 9065SOL    HW232326  10.258   2.566   3.010 -1.4997  2.1993  0.4504
 9066SOL     OW32327   8.467   8.244   2.623  0.0566  0.1894 -0.1069
 9066SOL    HW132328   8.394   8.296   2.590  0.8374  0.4460 -1.4618
 9066SOL    HW232329   8.456   8.158   2.583 -0.7988 -0.4815  1.5286
 9067SOL     OW32330   9.300  10.659   4.733  0.3214  0.1228 -0.8063
 9067SOL    HW132331   9.264  10.584   4.685  0.6169  0.2489 -1.2322
 9067SOL    HW232332   9.394  10.644   4.733  0.3120  0.0285 -0.0914
 9068SOL     OW32333  11.206   0.715   9.219  0.2967 -0.1970 -0.7085
 9068SOL    HW132334  11.294   0.679   9.213  0.1937 -0.5508 -0.1233
 9068SOL    HW232335  11.148   0.642   9.196 -0.0332 -1.1488  2.7928
 9069SOL     OW32336   7.532   1.290   3.831  0.2531  0.0248  0.7052
 9069SOL    HW132337   7.562   1.243   3.909 -1.1232  0.3198  1.4185
 9069SOL    HW232338   7.445   1.322   3.854 -1.6168 -2.6975 -2.0531
 9070SOL     OW32339   1.811   1.133   9.844 -0.7020 -0.2712 -0.8968
 9070SOL    HW132340   1.743   1.196   9.820 -0.3767 -0.3770 -2.1220
 9070SOL    HW232341   1.805   1.064   9.778 -1.6227 -1.9879  0.9313
 9071SOL     OW32342   2.477   0.386   1.510 -0.0800 -0.1612 -0.8957
 9071SOL    HW132343   2.521   0.304   1.533  0.0844 -0.5080 -2.4153
 9071SOL    HW232344   2.393   0.382   1.556 -0.5129 -1.6509 -1.7950
 9072SOL     OW32345   5.340   6.406   4.431 -0.2335  0.0316 -0.9945
 9072SOL    HW132346   5.270   6.406   4.496 -1.2655 -2.5062 -2.0321
 9072SOL    HW232347   5.328   6.488   4.383  0.6684  2.0381  2.0587
 9073SOL     OW32348   9.983   5.792   2.161 -0.1114  0.1185 -0.3739
 9073SOL    HW132349   9.964   5.884   2.179 -0.9540  0.2259 -1.7530
 9073SOL    HW232350   9.987   5.752   2.248 -2.2772  0.9845  0.1829
 9074SOL     OW32351   0.177   7.891   4.120 -0.4416  0.0942  0.1370
 9074SOL    HW132352   0.124   7.920   4.194  1.4220  0.6585  1.2697
 9074SOL    HW232353   0.114   7.848   4.062 -1.4994 -3.3917  3.5610
 9075SOL     OW32354   1.281   1.975   6.134  0.9462 -0.0932  0.0692
 9075SOL    HW132355   1.194   2.006   6.108  0.0326 -1.0652  1.8487
 9075SOL    HW232356   1.335   1.987   6.056 -0.9829 -0.2665 -1.3398
 9076SOL     OW32357   6.193   6.303   5.431 -0.2998 -0.1784 -0.0596
 9076SOL    HW132358   6.119   6.284   5.488 -0.4060  1.0118  0.2125
 9076SOL    HW232359   6.181   6.394   5.405  0.8051 -0.1224 -0.4146
 9077SOL     OW32360   3.350   8.591   6.644 -0.2292 -0.2228 -0.2099
 9077SOL    HW132361   3.330   8.506   6.685  0.2411 -0.0988  0.2987
 9077SOL    HW232362   3.360   8.571   6.551 -0.8621 -0.5967 -0.1984
 9078SOL     OW32363   2.534   7.749  10.600  0.3128  0.0278 -0.2884
 9078SOL    HW132364   2.451   7.768  10.644 -0.1063 -1.2282 -0.5131
 9078SOL    HW232365   2.510   7.692  10.528  1.5023 -1.2290  0.2929
 9079SOL     OW32366  10.908   3.800   3.912  0.3614 -0.5306  0.4033
 9079SOL    HW132367  10.828   3.799   3.860  0.0647 -3.4435  0.7927
 9079SOL    HW232368  10.882   3.762   3.996  1.4449  1.5617  1.7019
 9080SOL     OW32369   9.982   1.542   5.202  0.0040 -0.1626  0.5004
 9080SOL    HW132370  10.060   1.598   5.214 -0.8542  1.3093 -0.6581
 9080SOL    HW232371   9.946   1.534   5.290  2.1630 -1.9230  1.2767
 9081SOL     OW32372   1.070   3.427   6.428 -0.3813  0.0450 -0.6229
 9081SOL    HW132373   1.062   3.517   6.396  0.9976  0.4144  0.0113
 9081SOL    HW232374   1.065   3.373   6.349  2.2123  0.8952 -1.4396
 9082SOL     OW32375  10.660   6.584   6.100  0.0040 -0.5992  0.1400
 9082SOL    HW132376  10.584   6.570   6.043  0.9549 -2.1503 -0.7939
 9082SOL    HW232377  10.735   6.585   6.040  0.6475  1.8347  0.9580
 9083SOL     OW32378   7.047   6.533   8.570  0.0711  0.2144  0.3141
 9083SOL    HW132379   7.107   6.524   8.496  1.8639 -0.1354  1.7825
 9083SOL    HW232380   7.053   6.625   8.595 -0.3008  0.2634  0.2236
 9084SOL     OW32381   1.034   3.691   2.172  0.4396 -0.0293  0.0633
 9084SOL    HW132382   1.004   3.643   2.249  0.1894 -0.3620 -0.2396
 9084SOL    HW232383   0.954   3.722   2.130  0.6039  0.7237  0.3006
 9085SOL     OW32384  11.047   7.530   8.348 -0.1142  0.1229 -0.1057
 9085SOL    HW132385  11.072   7.606   8.295 -1.0121 -0.1144 -0.8924
 9085SOL    HW232386  11.014   7.467   8.284 -0.5994 -0.4223  0.6790
 9086SOL     OW32387  10.774   9.405   4.254 -0.0840 -0.1265  0.2230
 9086SOL    HW132388  10.841   9.407   4.187  2.8509 -0.1703  3.0273
 9086SOL    HW232389  10.703   9.353   4.216  1.3497  0.0960 -2.8903
 9087SOL     OW32390   8.976   1.829   0.147  0.1087 -0.0540  0.2411
 9087SOL    HW132391   9.053   1.786   0.182  0.0439  1.0693  1.8217
 9087SOL    HW232392   9.011   1.892   0.084  0.3767 -0.5888 -0.1453
 9088SOL     OW32393   6.528   1.716  10.236  0.0950  0.1901 -0.1065
 9088SOL    HW132394   6.590   1.788  10.236 -1.4686  1.6070  1.8005
 9088SOL    HW232395   6.551   1.664  10.313 -0.0566 -0.2147 -0.3331
 9089SOL     OW32396  10.570   9.270   9.576 -0.3611 -0.0733 -0.4737
 9089SOL    HW132397  10.510   9.270   9.650 -0.3160  0.8123 -0.4378
 9089SOL    HW232398  10.519   9.306   9.504  0.0808  0.5628 -0.4735
 9090SOL     OW32399   6.039   5.485   4.809 -0.0684  0.1467  0.5360
 9090SOL    HW132400   6.013   5.577   4.815  1.4383  0.6256 -0.1482
 9090SOL    HW232401   6.123   5.486   4.764  0.5395 -1.4835  1.5671
 9091SOL     OW32402   9.608   7.362   0.789 -0.2698  0.4944 -0.2629
 9091SOL    HW132403   9.628   7.326   0.876 -0.3203  0.8185 -0.1129
 9091SOL    HW232404   9.654   7.446   0.788 -2.1382  1.5415  0.3292
 9092SOL     OW32405   7.859   1.231   3.262  0.1838 -0.4138  0.3738
 9092SOL    HW132406   7.916   1.296   3.302  0.1109 -0.7845  1.1031
 9092SOL    HW232407   7.907   1.149   3.269 -0.0181 -0.5561  0.0983
 9093SOL     OW32408   0.875   4.144   8.058  0.0931  0.1172 -0.0924
 9093SOL    HW132409   0.816   4.201   8.009 -0.3469  0.5023  0.8738
 9093SOL    HW232410   0.831   4.058   8.056 -1.1309  0.6759  1.6654
 9094SOL     OW32411   5.036   6.947  10.820 -0.2236 -0.0679  0.3046
 9094SOL    HW132412   4.988   6.999  10.885  0.8242  1.7250 -0.2990
 9094SOL    HW232413   5.124   6.939  10.857 -0.1597 -0.7326  0.0146
 9095SOL     OW32414  10.977  10.993   6.173  0.0152 -0.1343 -0.0600
 9095SOL    HW132415  11.047  11.015   6.111  0.3819 -0.0146  0.4019
 9095SOL    HW232416  11.008  11.025   6.257 -0.4284 -0.4268  0.2153
 9096SOL     OW32417   0.844   7.984   5.460  0.1976 -0.4487  0.1685
 9096SOL    HW132418   0.873   7.896   5.437  0.6479 -0.3413  0.3032
 9096SOL    HW232419   0.779   8.007   5.394 -0.6012 -1.2366  0.6691
 9097SOL     OW32420   5.825   6.678   2.902 -0.5492  0.3926 -0.2687
 9097SOL    HW132421   5.862   6.592   2.922  0.3471  0.6715 -0.6915
 9097SOL    HW232422   5.830   6.726   2.985 -1.0200  0.0496 -0.0410
 9098SOL     OW32423   8.835   8.647   3.278  0.2815  0.2379  0.6147
 9098SOL    HW132424   8.832   8.738   3.248 -0.6238  0.4771  1.3959
 9098SOL    HW232425   8.905   8.645   3.343 -0.1218  0.5351  1.0670
 9099SOL     OW32426   8.375   6.971  10.287 -0.5136 -0.1285 -0.0749
 9099SOL    HW132427   8.385   7.041  10.351 -1.1408 -1.6416  1.7287
 9099SOL    HW232428   8.281   6.966  10.270 -0.5299 -0.9253  0.2505
 9100SOL     OW32429  10.311   1.438   3.353 -0.0070 -0.2013  0.3886
 9100SOL    HW132430  10.219   1.428   3.328  0.1861 -1.8256  0.2879
 9100SOL    HW232431  10.331   1.361   3.406  1.5704 -0.4148 -0.4530
 9101SOL     OW32432   5.948   8.802   3.807 -0.1750 -0.3525 -0.1123
 9101SOL    HW132433   5.961   8.816   3.714  0.0618  3.4789  0.3831
 9101SOL    HW232434   5.854   8.784   3.816 -0.6226  1.3743 -0.9498
 9102SOL     OW32435   1.700   0.785   6.649  0.0244  0.4000  0.4288
 9102SOL    HW132436   1.627   0.792   6.710 -0.9582 -0.3727 -0.6410
 9102SOL    HW232437   1.671   0.721   6.584  1.8995 -0.3839  0.3395
 9103SOL     OW32438   4.435   9.295   0.295 -0.4569 -0.5095 -0.5158
 9103SOL    HW132439   4.476   9.249   0.369 -1.9360  0.3260  0.8696
 9103SOL    HW232440   4.468   9.250   0.217  2.4774 -0.3328  0.5677
 9104SOL     OW32441   8.820   6.785   7.293  0.0371 -0.1736  0.1220
 9104SOL    HW132442   8.763   6.854   7.328  1.1478  0.7835  0.0299
 9104SOL    HW232443   8.799   6.781   7.200 -0.2915 -0.2388  0.1957
 9105SOL     OW32444   4.116   8.708   3.902 -0.6085  0.3935  0.7397
 9105SOL    HW132445   4.044   8.764   3.872 -0.7977 -0.4356 -0.3608
 9105SOL    HW232446   4.152   8.669   3.823  1.9850  1.8623  1.1201
 9106SOL     OW32447  10.249   3.653   0.489  0.5386 -0.4755  0.3726
 9106SOL    HW132448  10.162   3.614   0.493  1.0116 -1.8107 -1.5217
 9106SOL    HW232449  10.244   3.712   0.413  1.2180 -0.4076  0.3840
 9107SOL     OW32450   7.121  11.077   5.367 -0.1056 -1.0523  0.4743
 9107SOL    HW132451   7.054  11.140   5.340  0.5693 -0.5997 -0.1497
 9107SOL    HW232452   7.078  11.023   5.433 -1.4321 -1.4455 -0.6860
 9108SOL     OW32453   3.481  11.010  11.200 -0.0879 -0.0860 -0.3205
 9108SOL    HW132454   3.572  11.039  11.201 -0.4473  1.0969  1.2617
 9108SOL    HW232455   3.470  10.961  11.282 -0.9331  0.0029 -0.3711
 9109SOL     OW32456  10.014   8.073   0.082 -0.8114  0.0013 -0.0960
 9109SOL    HW132457  10.080   8.076   0.152 -2.0505 -2.8342  1.2668
 9109SOL    HW232458   9.936   8.112   0.121 -1.0662 -0.1733 -0.4347
 9110SOL     OW32459   2.613   8.069   0.554 -0.4652  0.4307  0.7346
 9110SOL    HW132460   2.637   8.161   0.541  1.5296 -0.0654  0.7604
 9110SOL    HW232461   2.618   8.056   0.649  1.1453 -0.1727  0.5879
 9111SOL     OW32462   6.570   3.683   0.992  0.2287 -0.0680  0.0404
 9111SOL    HW132463   6.547   3.622   1.062  0.6967  2.1668  2.1987
 9111SOL    HW232464   6.513   3.758   1.005  0.7164  0.6214 -1.6421
 9112SOL     OW32465   2.677   7.800   7.313  0.1485 -0.0712  0.0113
 9112SOL    HW132466   2.681   7.895   7.319 -0.0522  0.1094 -2.1309
 9112SOL    HW232467   2.765   7.770   7.337 -0.1171  0.5666  1.8161
 9113SOL     OW32468  10.953   7.354   7.259 -0.3022  0.0372  0.0164
 9113SOL    HW132469  11.033   7.396   7.228 -1.1588  0.1273 -2.1577
 9113SOL    HW232470  10.887   7.423   7.255 -0.6977 -0.2846  0.9174
 9114SOL     OW32471   9.674   8.544   4.437  0.1551  0.4691 -0.4784
 9114SOL    HW132472   9.704   8.575   4.522 -1.5340  1.9460 -0.3880
 9114SOL    HW232473   9.586   8.512   4.453 -0.1722  0.7563 -1.6688
 9115SOL     OW32474   7.748   0.613   7.792  0.0952 -0.6583  0.0451
 9115SOL    HW132475   7.810   0.660   7.848  0.5164 -1.8144  0.5656
 9115SOL    HW232476   7.797   0.593   7.713 -0.5421  1.0961 -0.8207
 9116SOL     OW32477   1.687   0.982  11.052 -0.5974 -0.9580 -0.3278
 9116SOL    HW132478   1.654   1.071  11.044  0.5753 -0.4804  0.0801
 9116SOL    HW232479   1.764   0.989  11.108 -0.8382 -2.3162  0.2007
 9117SOL     OW32480   9.162   2.206   3.817 -0.0188  0.3386  0.0776
 9117SOL    HW132481   9.246   2.161   3.826  0.4907  1.4457  0.8736
 9117SOL    HW232482   9.135   2.187   3.727  2.1887  1.8670 -0.9654
 9118SOL     OW32483   0.744   7.582   4.678  0.1673 -0.2106  0.2258
 9118SOL    HW132484   0.779   7.510   4.626  2.1888  1.2941 -0.6079
 9118SOL    HW232485   0.682   7.626   4.619  2.4812  1.5140 -1.0653
 9119SOL     OW32486  10.940   1.788   6.989 -0.3615 -0.1100 -0.4182
 9119SOL    HW132487  10.908   1.878   6.976  1.7623  0.5420 -1.3995
 9119SOL    HW232488  10.951   1.781   7.084 -2.5512 -0.0779 -0.1335
 9120SOL     OW32489  10.924   4.313   4.338 -0.3760  0.0674 -0.4409
 9120SOL    HW132490  10.828   4.313   4.348 -0.2442  0.3094  0.8732
 9120SOL    HW232491  10.952   4.236   4.386 -0.1611 -1.9163 -3.5813
 9121SOL     OW32492   3.741   4.984   9.839 -0.0689  0.5498 -0.6369
 9121SOL    HW132493   3.706   4.905   9.882 -0.1124  0.4804 -0.7986
 9121SOL    HW232494   3.671   5.011   9.779  0.0409  0.5741 -0.7533
 9122SOL     OW32495   2.467   8.090   3.634 -0.5883 -0.5070 -0.8882
 9122SOL    HW132496   2.393   8.137   3.672  0.7124 -0.2648  1.3981
 9122SOL    HW232497   2.450   7.998   3.653 -0.7059 -0.5304 -1.1029
 9123SOL     OW32498  11.211   9.821   1.663  0.3805 -0.2435  0.2694
 9123SOL    HW132499  11.230   9.779   1.579  0.1720  0.7717 -0.2869
 9123SOL    HW232500  11.287   9.800   1.718  1.7459  1.2630 -0.9993
 9124SOL     OW32501   4.177   9.835   0.457 -0.0703 -0.2744  0.5927
 9124SOL    HW132502   4.234   9.790   0.394 -1.4235  0.2460 -1.0265
 9124SOL    HW232503   4.199   9.795   0.541  0.5987 -2.1429 -0.4375
 9125SOL     OW32504   2.017   4.340   1.624  0.1752  0.4857 -0.0902
 9125SOL    HW132505   2.083   4.331   1.554  1.0679 -1.7149  0.9775
 9125SOL    HW232506   2.064   4.381   1.696 -0.1503  0.7174 -0.0092
 9126SOL     OW32507   3.736   9.847  10.782 -0.5657 -0.0457 -0.3448
 9126SOL    HW132508   3.701   9.769  10.738 -0.5920 -1.6529  2.3428
 9126SOL    HW232509   3.820   9.864  10.738 -0.7385 -1.3744 -1.2292
 9127SOL     OW32510   0.732   2.672   7.359  0.0897  0.2403  0.2985
 9127SOL    HW132511   0.693   2.634   7.279  0.0414 -1.8501  1.2771
 9127SOL    HW232512   0.680   2.636   7.430  0.0635  2.1927  1.2888
 9128SOL     OW32513  10.719   3.810   1.850 -0.3252 -0.4366  0.0762
 9128SOL    HW132514  10.784   3.741   1.840 -1.2509 -1.4718  1.1196
 9128SOL    HW232515  10.723   3.833   1.943  1.2755  2.2135 -0.6016
 9129SOL     OW32516   3.438  11.266   6.510  0.7625  0.0140  0.5281
 9129SOL    HW132517   3.414  11.303   6.426 -1.0743 -0.7065  0.7153
 9129SOL    HW232518   3.357  11.226   6.543  1.6107 -0.2761  2.3287
 9130SOL     OW32519  10.997   5.030   7.705  0.3065  0.1519  0.0330
 9130SOL    HW132520  10.989   4.975   7.783 -0.1430 -2.4595 -1.7939
 9130SOL    HW232521  11.091   5.031   7.686  0.1553 -1.5020 -0.9322
 9131SOL     OW32522   1.542   3.632   9.849  0.1771 -0.3389 -0.1815
 9131SOL    HW132523   1.534   3.716   9.804  0.1544 -0.0712  0.3162
 9131SOL    HW232524   1.537   3.654   9.942  0.1189 -0.8980 -0.0503
 9132SOL     OW32525   1.970   5.537   2.462  0.4708  0.0852 -0.1355
 9132SOL    HW132526   1.896   5.581   2.504  0.6217 -0.2147  0.4612
 9132SOL    HW232527   1.939   5.447   2.448  0.8316 -0.1269  0.4120
 9133SOL     OW32528   9.069   6.616   0.650 -0.4274 -0.3840  0.2327
 9133SOL    HW132529   8.993   6.662   0.615 -0.2267 -0.6026 -0.5194
 9133SOL    HW232530   9.090   6.660   0.732 -0.7459  0.3163 -0.0664
 9134SOL     OW32531   0.589   5.802   9.208  0.5998  0.0375  0.0323
 9134SOL    HW132532   0.601   5.896   9.201  1.5117 -0.1773 -1.5391
 9134SOL    HW232533   0.659   5.764   9.155  0.8358 -1.5500  1.4250
 9135SOL     OW32534   3.896   2.730   8.988 -0.2919 -0.7656 -0.0638
 9135SOL    HW132535   3.905   2.658   8.925  1.7516 -1.7892  1.3772
 9135SOL    HW232536   3.884   2.808   8.933 -1.8379 -2.0831 -1.6437
 9136SOL     OW32537   6.474   4.568   8.901  0.1442 -0.1343  0.5946
 9136SOL    HW132538   6.490   4.659   8.876  1.6476 -0.2786  1.0088
 9136SOL    HW232539   6.403   4.540   8.843  0.4652  0.9478 -0.3457
 9137SOL     OW32540  11.182   8.593  11.128  0.0062  0.3957 -0.4302
 9137SOL    HW132541  11.176   8.516  11.072 -3.5228 -0.4449  0.9470
 9137SOL    HW232542  11.252   8.574  11.190 -0.9242 -1.7904 -0.0272
 9138SOL     OW32543   4.973  10.692   2.792  0.0987  0.0743  0.1279
 9138SOL    HW132544   4.946  10.622   2.733 -1.6828  1.6516 -0.9776
 9138SOL    HW232545   4.915  10.684   2.868 -0.5362  0.7257 -0.2811
 9139SOL     OW32546   0.357  10.036   4.260 -0.5093  0.1255  0.3626
 9139SOL    HW132547   0.277  10.048   4.311 -0.2275  0.4277  0.7351
 9139SOL    HW232548   0.392   9.952   4.290  0.4318  0.9958  1.7281
 9140SOL     OW32549   1.064   7.066   1.786 -0.4781  0.9899 -0.1294
 9140SOL    HW132550   0.991   7.029   1.835  1.1134  0.4550  1.8544
 9140SOL    HW232551   1.113   7.118   1.850  1.6515  0.2415 -1.0895
 9141SOL     OW32552  10.129   9.354   1.039 -0.4418  0.7820 -0.2784
 9141SOL    HW132553  10.081   9.431   1.009 -0.3347  1.0618  0.2646
 9141SOL    HW232554  10.221   9.375   1.021 -0.4052  0.8160 -0.0522
 9142SOL     OW32555   8.079   1.842   9.619 -0.0863 -0.3316  0.3815
 9142SOL    HW132556   8.145   1.911   9.619  0.0507 -0.4525 -0.4652
 9142SOL    HW232557   8.081   1.806   9.530 -0.1762 -1.4100  0.7987
 9143SOL     OW32558   8.760   6.606   4.859 -0.4467  0.1345 -0.3130
 9143SOL    HW132559   8.729   6.685   4.905 -1.5414 -0.8892  0.7639
 9143SOL    HW232560   8.739   6.623   4.767  0.6868  1.7214 -0.3074
 9144SOL     OW32561   1.121   2.214   1.584 -0.3112 -0.5880  0.5971
 9144SOL    HW132562   1.198   2.250   1.539 -0.5782 -1.9475 -1.0085
 9144SOL    HW232563   1.127   2.248   1.673  0.5664  1.6802 -0.2984
 9145SOL     OW32564   7.601  10.241   2.021  0.0509  0.2302 -0.0153
 9145SOL    HW132565   7.639  10.155   2.005 -0.5724 -0.3093  1.3341
 9145SOL    HW232566   7.523  10.223   2.074  0.3269  1.6862  0.9109
 9146SOL     OW32567   1.605  10.520   1.185  0.7098 -0.0917 -0.1709
 9146SOL    HW132568   1.519  10.482   1.164  0.8997  0.8842 -2.9513
 9146SOL    HW232569   1.593  10.561   1.271 -2.2826  1.9675 -1.5018
 9147SOL     OW32570   3.822   2.049  11.055 -0.3197 -0.3151  0.1674
 9147SOL    HW132571   3.844   1.959  11.080  0.8096  0.1379  0.8448
 9147SOL    HW232572   3.726   2.051  11.055 -0.3681 -1.7126 -0.5845
 9148SOL     OW32573   6.375   6.524   9.687  0.2038  0.2525  0.4663
 9148SOL    HW132574   6.321   6.520   9.766  0.2857 -0.6470  0.4832
 9148SOL    HW232575   6.377   6.617   9.664  0.5149  0.5807  1.7529
 9149SOL     OW32576   2.413   3.202   7.148  0.2698  0.2148  0.3449
 9149SOL    HW132577   2.499   3.218   7.187 -0.2420  0.8748  1.2036
 9149SOL    HW232578   2.404   3.269   7.081  0.4153  0.1498  0.2590
 9150SOL     OW32579   7.839   6.880   4.997 -0.2631 -0.4394 -0.7586
 9150SOL    HW132580   7.844   6.828   4.917  1.3925  2.1817 -2.4020
 9150SOL    HW232581   7.751   6.917   4.997 -1.0181 -2.1425 -0.2098
 9151SOL     OW32582   7.242   4.516   2.130 -0.7139  0.0348  0.4850
 9151SOL    HW132583   7.279   4.428   2.125 -0.8473 -0.1087  1.7760
 9151SOL    HW232584   7.198   4.518   2.215  0.9124  1.9542  1.3303
 9152SOL     OW32585   1.684   6.632   5.464 -0.2025 -0.4438 -0.2791
 9152SOL    HW132586   1.779   6.631   5.468 -0.1753 -2.4168 -0.8366
 9152SOL    HW232587   1.663   6.690   5.391  0.5147  1.1492  0.7681
 9153SOL     OW32588   9.191   8.930   9.444 -0.4265 -0.6296 -0.0373
 9153SOL    HW132589   9.156   8.914   9.531  0.3961 -0.4229  0.3370
 9153SOL    HW232590   9.150   8.864   9.389 -1.5365 -0.2751  0.3592
 9154SOL     OW32591   8.252   5.177   3.530  0.0477 -0.0706  0.1963
 9154SOL    HW132592   8.221   5.249   3.585  1.4815  1.1725 -0.5887
 9154SOL    HW232593   8.348   5.180   3.539  0.1226 -1.8317  0.1014
 9155SOL     OW32594   6.724   9.754  11.075 -0.0215  0.1715 -0.1514
 9155SOL    HW132595   6.680   9.711  11.001 -2.5729  1.2655  0.6774
 9155SOL    HW232596   6.750   9.839  11.040 -0.0172  0.1638 -0.1695
 9156SOL     OW32597   9.165   2.559   1.632  0.5566  0.6104 -0.3009
 9156SOL    HW132598   9.089   2.531   1.581 -1.2013  3.2428  0.7724
 9156SOL    HW232599   9.225   2.596   1.567 -0.5484  1.5708 -0.7955
 9157SOL     OW32600   4.962   1.696   4.594 -0.0123  0.0987  0.0921
 9157SOL    HW132601   5.047   1.684   4.634 -0.0853 -0.1293  0.1802
 9157SOL    HW232602   4.900   1.693   4.667 -0.0429  0.8924  0.0994
 9158SOL     OW32603   7.903   5.287   4.356  0.4951  0.0478 -0.5379
 9158SOL    HW132604   7.951   5.216   4.398 -1.7410 -0.2420  1.6595
 9158SOL    HW232605   7.825   5.244   4.319 -0.7334  1.2554  0.5614
 9159SOL     OW32606   6.230   6.514   8.411 -0.0763  0.1673  0.1681
 9159SOL    HW132607   6.134   6.512   8.414 -0.0446 -0.0005  1.1712
 9159SOL    HW232608   6.256   6.540   8.499  0.8403 -1.0625  0.2635
 9160SOL     OW32609   0.738   3.289   5.849 -0.3299 -0.0077 -0.0857
 9160SOL    HW132610   0.785   3.345   5.787  0.6044  0.2309  0.8315
 9160SOL    HW232611   0.728   3.342   5.928  0.6485 -1.1311  0.8221
 9161SOL     OW32612   3.950   6.766  10.379 -0.3066 -1.0446 -0.3175
 9161SOL    HW132613   3.939   6.695  10.442 -0.0814 -0.7488  0.0543
 9161SOL    HW232614   4.012   6.730  10.314  1.4825 -0.4378  1.0202
 9162SOL     OW32615   4.697   9.447  10.793 -0.4402  0.2726 -0.4752
 9162SOL    HW132616   4.691   9.466  10.700  0.5165  1.3195 -0.3388
 9162SOL    HW232617   4.735   9.526  10.831 -0.1658 -0.4087  0.6969
 9163SOL     OW32618   8.116   1.025   9.633  0.2586  0.1409 -0.3521
 9163SOL    HW132619   8.155   1.105   9.600  1.6238 -1.4123 -2.6845
 9163SOL    HW232620   8.163   1.007   9.715 -0.2784  1.8318  0.3546
 9164SOL     OW32621   9.259   4.163  10.983  0.5167 -0.0481 -0.0830
 9164SOL    HW132622   9.238   4.075  10.951  0.9910  0.4388 -1.8129
 9164SOL    HW232623   9.222   4.221  10.917  0.1501  1.0537  1.0888
 9165SOL     OW32624  10.061   0.850   1.994  0.1096 -0.0096  0.0499
 9165SOL    HW132625  10.065   0.917   2.062  0.4304 -0.7718  0.7963
 9165SOL    HW232626  10.002   0.784   2.030 -0.3530 -0.0459 -0.7582
 9166SOL     OW32627  10.343   2.641   2.869  0.1881  0.0323 -0.3497
 9166SOL    HW132628  10.379   2.613   2.785 -0.2083 -0.4440 -0.3633
 9166SOL    HW232629  10.403   2.709   2.900  0.0857  0.5266 -1.2330
 9167SOL     OW32630   6.811   3.888   0.879  0.0957 -0.7338  0.0309
 9167SOL    HW132631   6.888   3.887   0.936 -1.2124  2.1787  1.9808
 9167SOL    HW232632   6.748   3.831   0.923  0.6255 -1.9482 -0.7894
 9168SOL     OW32633   9.101   8.649   6.826 -0.0259 -0.2276 -0.4793
 9168SOL    HW132634   9.016   8.665   6.868  0.1077 -0.0457 -0.2759
 9168SOL    HW232635   9.079   8.628   6.735 -0.2994 -0.3436 -0.3875
 9169SOL     OW32636   8.651   1.182   9.856 -0.5438 -0.2755  0.5548
 9169SOL    HW132637   8.716   1.209   9.792 -1.1958  1.4855  0.6081
 9169SOL    HW232638   8.567   1.200   9.814 -1.0477 -3.4286  0.0890
 9170SOL     OW32639   9.438   6.655   6.072  0.0381 -0.6913 -0.1700
 9170SOL    HW132640   9.514   6.624   6.123 -1.4251 -0.9360  1.9464
 9170SOL    HW232641   9.469   6.657   5.982  2.8153  0.0054  0.7484
 9171SOL     OW32642   4.789   9.076   2.477  0.2069 -0.0404  0.3264
 9171SOL    HW132643   4.705   9.122   2.469  0.1491  0.1677  1.9067
 9171SOL    HW232644   4.771   9.006   2.540  1.3427  0.3077  1.0376
 9172SOL     OW32645   7.818   3.518   8.162 -0.1188 -0.1934 -0.3864
 9172SOL    HW132646   7.803   3.449   8.226  2.4807 -0.3497  0.0960
 9172SOL    HW232647   7.837   3.471   8.081 -0.7779 -0.0076 -0.6551
 9173SOL     OW32648   3.377  10.643   9.458  0.1847 -0.2043 -0.3246
 9173SOL    HW132649   3.449  10.623   9.518  0.3504  0.0972 -0.4191
 9173SOL    HW232650   3.298  10.617   9.505  0.2539  0.8196  0.3654
 9174SOL     OW32651   7.411   9.010   3.004  0.3599 -0.2615  0.5414
 9174SOL    HW132652   7.464   8.931   3.017  0.9544  0.3001  1.5510
 9174SOL    HW232653   7.445   9.073   3.067  2.1957  1.9714 -2.5423
 9175SOL     OW32654   2.027  10.482   3.530  0.1905  0.4880 -0.4695
 9175SOL    HW132655   1.974  10.421   3.477  0.0426  1.5113 -1.5113
 9175SOL    HW232656   1.972  10.560   3.538 -0.8552 -0.4983  3.3032
 9176SOL     OW32657   9.473   5.418   5.538  0.2734  0.2158  0.6166
 9176SOL    HW132658   9.404   5.451   5.481  1.1130 -1.8712 -1.7210
 9176SOL    HW232659   9.429   5.357   5.598 -0.1748  0.1746  0.2474
 9177SOL     OW32660  11.175   9.773   0.232  0.3583 -0.1283 -0.2137
 9177SOL    HW132661  11.110   9.745   0.297 -0.2908 -1.0952 -1.2701
 9177SOL    HW232662  11.259   9.746   0.270  0.1344  0.7835  0.9762
 9178SOL     OW32663   0.553   1.771   9.599 -0.7701 -0.2805  0.7214
 9178SOL    HW132664   0.473   1.822   9.617 -0.4052  0.2851  0.7714
 9178SOL    HW232665   0.606   1.783   9.678 -0.7869 -0.9558  0.8385
 9179SOL     OW32666   9.781   3.628   4.476 -0.2397 -0.0317 -0.1364
 9179SOL    HW132667   9.703   3.606   4.425  0.4537 -1.0513 -0.7869
 9179SOL    HW232668   9.759   3.710   4.520 -1.5689 -0.1621 -0.5378
 9180SOL     OW32669   7.338   8.413   0.454 -0.2747 -0.7359 -0.3048
 9180SOL    HW132670   7.245   8.397   0.470 -0.2000 -0.8602  0.0110
 9180SOL    HW232671   7.344   8.508   0.440 -0.0721 -0.2983  2.4129
 9181SOL     OW32672   5.260   4.328  10.572 -0.3412 -0.3364 -0.6801
 9181SOL    HW132673   5.182   4.294  10.616  1.1362 -2.2058  0.5521
 9181SOL    HW232674   5.288   4.403  10.625 -1.2785  0.3647 -1.1468
 9182SOL     OW32675   4.812   6.005   9.793  0.5658  0.1850  0.2722
 9182SOL    HW132676   4.747   6.071   9.818  1.4523  1.3273 -0.4046
 9182SOL    HW232677   4.828   6.022   9.701  1.0061 -0.8115  0.1685
 9183SOL     OW32678   1.458   7.474   9.403 -0.1185  0.3183 -0.1294
 9183SOL    HW132679   1.485   7.383   9.415 -0.4430  0.1323 -0.7816
 9183SOL    HW232680   1.535   7.516   9.364  0.1630  0.4156  0.5164
 9184SOL     OW32681   9.189   1.499   7.308 -0.5106 -0.4097 -0.2491
 9184SOL    HW132682   9.148   1.473   7.391  0.6114 -1.4102  0.0007
 9184SOL    HW232683   9.264   1.441   7.299  0.0934  0.5278 -1.3654
 9185SOL     OW32684   0.283   1.919   2.582  0.8602  0.7084 -0.0529
 9185SOL    HW132685   0.218   1.927   2.652  0.3951 -0.7882 -0.2806
 9185SOL    HW232686   0.367   1.931   2.625  0.5126  0.9746  0.5542
 9186SOL     OW32687   0.722   5.984   0.740  0.2532  0.4354 -0.0155
 9186SOL    HW132688   0.718   6.079   0.735  2.4127  0.7387  2.6217
 9186SOL    HW232689   0.636   5.958   0.772 -0.5623  1.4224 -1.3612
 9187SOL     OW32690   2.318   3.458   1.620 -0.1829 -0.8291 -0.1339
 9187SOL    HW132691   2.364   3.541   1.611 -0.0525 -0.9672 -0.7937
 9187SOL    HW232692   2.322   3.419   1.532 -2.3298 -0.4399 -0.4332
 9188SOL     OW32693   1.292   0.450   2.514  0.4031 -0.5293 -0.1762
 9188SOL    HW132694   1.279   0.540   2.546  0.8029 -0.7132  0.5158
 9188SOL    HW232695   1.382   0.429   2.537 -0.3137 -1.8388  1.5411
 9189SOL     OW32696  10.122   8.671   7.942 -0.2851 -0.5490  0.3192
 9189SOL    HW132697  10.095   8.753   7.899 -1.6344 -0.5258  1.1620
 9189SOL    HW232698  10.172   8.700   8.018 -1.4124 -0.4638  1.0476
 9190SOL     OW32699   6.637   0.761   7.410  0.2915  0.9373 -0.4930
 9190SOL    HW132700   6.599   0.825   7.469  0.3739  0.2129  0.3597
 9190SOL    HW232701   6.563   0.734   7.354  0.2920  1.8637 -0.9439
 9191SOL     OW32702   0.340  10.262   9.062 -0.4850 -0.5742 -0.3865
 9191SOL    HW132703   0.341  10.352   9.028 -0.3046 -0.5135 -0.2230
 9191SOL    HW232704   0.307  10.210   8.990 -2.3664 -0.1268  0.1132
 9192SOL     OW32705  10.605   7.871  11.103  0.3315  0.5917  0.1499
 9192SOL    HW132706  10.667   7.837  11.038  1.2998  0.3052  1.2060
 9192SOL    HW232707  10.615   7.966  11.097  0.3709  0.5685 -0.1648
 9193SOL     OW32708   1.484  10.534   5.284  0.0984 -0.7976  0.2508
 9193SOL    HW132709   1.451  10.458   5.235 -0.4267  0.2216 -1.0213
 9193SOL    HW232710   1.521  10.497   5.364 -1.8153 -2.2203  0.5077
 9194SOL     OW32711   6.553   4.447   3.865  0.4698 -0.0173 -0.3543
 9194SOL    HW132712   6.586   4.535   3.881  2.0083 -0.7939  0.7699
 9194SOL    HW232713   6.630   4.391   3.869 -0.6136 -1.5202 -0.2801
 9195SOL     OW32714   6.761   5.646   0.583 -0.0524  0.0084 -0.3866
 9195SOL    HW132715   6.729   5.582   0.648 -1.7268  0.7507 -0.4402
 9195SOL    HW232716   6.834   5.602   0.540  1.1603 -0.4673  2.0559
 9196SOL     OW32717   3.403  11.029   7.599  0.0947 -0.2628 -0.2621
 9196SOL    HW132718   3.310  11.043   7.616  0.4451  1.7503  0.0796
 9196SOL    HW232719   3.429  10.962   7.663 -0.5634  1.0268  1.4120
 9197SOL     OW32720  11.168   8.613  10.705 -0.1847  0.1820  0.1068
 9197SOL    HW132721  11.077   8.597  10.732  0.2772 -0.2548  1.4515
 9197SOL    HW232722  11.197   8.528  10.670  0.1736 -0.1098  1.0887
 9198SOL     OW32723   3.675  10.797   1.529  0.0574  0.2667 -0.0898
 9198SOL    HW132724   3.742  10.737   1.497 -0.3553  0.3475 -1.1040
 9198SOL    HW232725   3.724  10.862   1.580  0.7230  0.1768 -0.6078
 9199SOL     OW32726   6.801   4.963   2.809 -0.6366  0.5024 -0.3599
 9199SOL    HW132727   6.892   4.993   2.803 -0.9308  1.2557 -0.9767
 9199SOL    HW232728   6.748   5.041   2.792 -1.3984 -0.4359 -2.4051
 9200SOL     OW32729   3.042   5.867   0.829 -0.4788  0.0618  0.5434
 9200SOL    HW132730   3.137   5.876   0.830 -0.2991 -1.7278  1.3354
 9200SOL    HW232731   3.021   5.823   0.911 -1.9007 -0.3451 -0.0203
 9201SOL     OW32732   9.279   1.799   7.270  0.6505 -0.0398  0.4874
 9201SOL    HW132733   9.341   1.736   7.234 -0.7295 -0.8935 -0.4456
 9201SOL    HW232734   9.274   1.777   7.363 -0.1599 -1.6092  0.0833
 9202SOL     OW32735   1.829   9.180   2.786  0.1145 -0.0197  0.3666
 9202SOL    HW132736   1.874   9.127   2.852 -1.1718 -0.1081  1.1717
 9202SOL    HW232737   1.868   9.267   2.796  0.2717 -0.1475  0.8997
 9203SOL     OW32738   4.534   9.416   6.721 -0.3497 -0.8090  0.5405
 9203SOL    HW132739   4.583   9.434   6.802  1.6574  0.5576 -0.9391
 9203SOL    HW232740   4.483   9.495   6.706 -0.8511 -1.1308  0.5416
 9204SOL     OW32741   5.632   7.292   6.774 -0.3197  0.4697 -0.2607
 9204SOL    HW132742   5.573   7.291   6.849  1.1061  1.1133  0.9077
 9204SOL    HW232743   5.680   7.375   6.782  1.7594 -0.6783 -0.3234
 9205SOL     OW32744   4.663  10.416   1.176 -0.0425  0.3372  0.2034
 9205SOL    HW132745   4.684  10.488   1.237 -0.3074 -0.3453  1.1115
 9205SOL    HW232746   4.741  10.360   1.178 -0.0309  0.3454 -0.1294
 9206SOL     OW32747   9.960   6.704   1.412  0.2840  0.0901 -0.0851
 9206SOL    HW132748  10.028   6.641   1.388 -0.3964 -1.1208  1.0714
 9206SOL    HW232749   9.884   6.650   1.431 -0.4528  1.3095  0.4797
 9207SOL     OW32750   4.877   5.866  11.293 -0.2239  0.1563  0.0214
 9207SOL    HW132751   4.960   5.862  11.244  0.2138  1.1629  0.6751
 9207SOL    HW232752   4.898   5.831  11.379 -0.2028  1.4442  0.5519
 9208SOL     OW32753  10.944   9.607   5.789  0.0554 -0.1893 -0.2845
 9208SOL    HW132754  11.019   9.651   5.828  0.6787  1.2712 -3.0519
 9208SOL    HW232755  10.981   9.530   5.745  0.0921  0.9742 -2.3477
 9209SOL     OW32756   8.843   0.761   2.865 -0.1452  0.0750 -0.1591
 9209SOL    HW132757   8.870   0.679   2.906  0.9079  0.8853  0.7964
 9209SOL    HW232758   8.891   0.765   2.783  0.7392  0.3103  0.3647
 9210SOL     OW32759   9.749   6.968   6.338 -0.1853  0.2533 -0.4272
 9210SOL    HW132760   9.716   7.034   6.399 -0.4031  0.2140 -0.5008
 9210SOL    HW232761   9.766   6.891   6.393 -0.3412  0.2308 -0.4087
 9211SOL     OW32762   8.707   3.279   6.190 -0.2466 -0.3354  0.3699
 9211SOL    HW132763   8.623   3.325   6.197 -0.1519 -0.0276 -0.4350
 9211SOL    HW232764   8.734   3.293   6.099  1.0150  0.1560  0.8156
 9212SOL     OW32765   6.381   2.334   0.794 -0.1610 -0.1341  0.4040
 9212SOL    HW132766   6.311   2.400   0.792  0.1144  0.1532  0.1981
 9212SOL    HW232767   6.436   2.355   0.718  0.0142 -0.5070  0.4257
 9213SOL     OW32768   8.840   3.808   3.629  0.5237  0.0855  0.4666
 9213SOL    HW132769   8.786   3.822   3.552  1.9347 -1.1806 -0.7906
 9213SOL    HW232770   8.929   3.797   3.594  1.0874 -1.1285  2.2026
 9214SOL     OW32771   2.763   6.003   6.090  0.2372 -0.2756 -0.0408
 9214SOL    HW132772   2.817   6.040   6.160 -0.9715  0.7212  0.3646
 9214SOL    HW232773   2.728   5.922   6.127 -1.0685  0.6626  0.8270
 9215SOL     OW32774   3.318   2.891   9.239  0.4228 -0.2712 -0.0514
 9215SOL    HW132775   3.278   2.835   9.174 -1.0146  1.5923 -0.8281
 9215SOL    HW232776   3.353   2.965   9.189  3.2080 -0.9227  0.8191
 9216SOL     OW32777   0.351   2.349   3.582 -0.1195  0.1785  0.1953
 9216SOL    HW132778   0.356   2.330   3.488 -0.5815  0.1141  0.1860
 9216SOL    HW232779   0.354   2.263   3.624  1.9326  0.2776  0.3205
 9217SOL     OW32780   9.745   2.734   5.729 -0.7542  0.6627  0.1661
 9217SOL    HW132781   9.662   2.686   5.736 -1.1959  1.3572 -0.2839
 9217SOL    HW232782   9.740   2.778   5.645  0.7313 -0.4970 -0.5314
 9218SOL     OW32783   0.991   3.043   7.905  0.2446  0.7705  0.3615
 9218SOL    HW132784   0.966   2.976   7.841  1.6058 -0.5279  1.1702
 9218SOL    HW232785   0.909   3.089   7.925 -0.8347 -1.1080  0.3308
 9219SOL     OW32786   3.163   9.697   2.312  0.0087 -0.4172 -0.4481
 9219SOL    HW132787   3.239   9.693   2.371 -2.3745  0.1849  2.8254
 9219SOL    HW232788   3.182   9.771   2.254  1.0297  1.0800  1.7079
 9220SOL     OW32789   1.986  10.948   5.748  0.2758 -0.6600  0.4360
 9220SOL    HW132790   1.939  10.888   5.690 -0.3471  0.0859  0.1660
 9220SOL    HW232791   1.982  10.905   5.834 -2.8978  0.4222  0.9228
 9221SOL     OW32792   1.380   3.885   2.798 -0.0791 -0.0660  0.4210
 9221SOL    HW132793   1.354   3.910   2.710 -0.7878 -2.3383 -0.0302
 9221SOL    HW232794   1.459   3.937   2.815 -1.1084  1.9254 -0.7332
 9222SOL     OW32795   7.039   2.274   6.768  0.3895 -0.1223 -0.3720
 9222SOL    HW132796   7.058   2.192   6.721  2.3347 -0.4388  0.9251
 9222SOL    HW232797   6.946   2.289   6.752  0.3506 -1.7777 -1.8996
 9223SOL     OW32798   1.799   9.036   1.167  0.3243  0.0660  0.3478
 9223SOL    HW132799   1.814   9.102   1.234 -0.8495  1.3876 -0.6357
 9223SOL    HW232800   1.868   9.050   1.103  0.7881 -0.4608  0.7315
 9224SOL     OW32801   7.122   7.204  11.085 -0.0595 -0.2095 -0.1861
 9224SOL    HW132802   7.202   7.155  11.069  0.4670  0.8821 -0.9417
 9224SOL    HW232803   7.054   7.156  11.037 -0.0938 -1.8088  1.4372
 9225SOL     OW32804   7.085   3.776   0.640 -0.1618  0.2172 -0.1083
 9225SOL    HW132805   7.047   3.856   0.605 -1.0543  0.4810  1.4440
 9225SOL    HW232806   7.166   3.764   0.590 -0.2549  1.8221 -0.6566
 9226SOL     OW32807   4.626   6.651   0.096 -0.2731 -0.3000 -0.1976
 9226SOL    HW132808   4.656   6.734   0.133  0.3915 -1.0706  1.0104
 9226SOL    HW232809   4.649   6.657   0.003  0.8236  0.3892  0.1022
 9227SOL     OW32810   2.820  10.279   6.946  0.4020  0.3129 -0.2027
 9227SOL    HW132811   2.774  10.314   7.022 -1.3004  1.0083 -1.5167
 9227SOL    HW232812   2.853  10.194   6.974 -1.9799 -0.3538  0.6815
 9228SOL     OW32813   1.675   2.392   1.582 -0.0474 -0.3890 -0.3563
 9228SOL    HW132814   1.618   2.441   1.523 -1.4562 -0.3050  1.0497
 9228SOL    HW232815   1.762   2.428   1.567 -0.8337  1.5354 -0.4197
 9229SOL     OW32816   8.910   9.224   5.731 -0.2665  0.3703  0.4052
 9229SOL    HW132817   8.866   9.155   5.682  0.7009 -0.9322  1.3296
 9229SOL    HW232818   8.882   9.211   5.822 -1.4326  2.2792  0.3639
 9230SOL     OW32819   9.959   2.689   4.043  0.3487 -0.5790 -0.3562
 9230SOL    HW132820  10.051   2.709   4.064  0.0155  0.2818  0.3473
 9230SOL    HW232821   9.954   2.594   4.043  1.0754 -0.6272  0.4041
 9231SOL     OW32822   3.910   9.358   2.616  0.0824  0.1666  0.0107
 9231SOL    HW132823   3.935   9.266   2.616 -2.5194 -0.5961  2.2808
 9231SOL    HW232824   3.895   9.378   2.524 -2.1937 -2.5536 -0.2916
 9232SOL     OW32825   0.314   3.531   6.390 -0.4555  0.0378  0.6413
 9232SOL    HW132826   0.296   3.475   6.466 -1.9259 -0.0968  0.2059
 9232SOL    HW232827   0.333   3.616   6.428 -1.2014 -0.0255  1.1842
 9233SOL     OW32828   6.041   8.020   1.447  0.4890  0.2402  0.5331
 9233SOL    HW132829   6.026   7.944   1.504 -1.2653 -0.9238 -1.4005
 9233SOL    HW232830   6.106   7.989   1.384 -1.7796 -0.4124 -1.5540
 9234SOL     OW32831   1.101   4.028   6.998  0.3027  0.2134  0.0208
 9234SOL    HW132832   1.179   4.082   7.013  0.1963  0.6415 -0.9218
 9234SOL    HW232833   1.031   4.091   6.978 -0.1666 -0.1939  0.3516
 9235SOL     OW32834   2.089   5.490   6.050 -0.3142 -0.5175  0.2455
 9235SOL    HW132835   2.025   5.516   6.116 -0.8721 -1.7812  0.2120
 9235SOL    HW232836   2.082   5.395   6.045 -0.1351 -0.4704 -1.4881
 9236SOL     OW32837   2.183   8.263   2.055  0.0087 -0.0176 -0.2238
 9236SOL    HW132838   2.162   8.244   1.964  0.2516  3.3413 -1.0360
 9236SOL    HW232839   2.274   8.294   2.053  0.5548 -1.3683  1.4038
 9237SOL     OW32840   8.052   8.904   5.993 -0.5372  0.7788  0.1643
 9237SOL    HW132841   7.996   8.939   5.923  0.9378 -0.2540 -1.5809
 9237SOL    HW232842   8.117   8.972   6.008  0.4172  0.1222 -0.9731
 9238SOL     OW32843   8.956   7.371   6.905  0.4022 -0.3470 -0.7315
 9238SOL    HW132844   8.930   7.280   6.899  1.5184 -0.7571  0.2971
 9238SOL    HW232845   9.032   7.378   6.848  2.2847 -0.8589  1.6246
 9239SOL     OW32846   1.066   6.704   4.550 -0.0623  0.1060  0.0986
 9239SOL    HW132847   1.100   6.620   4.521 -2.2779 -0.9801  0.5502
 9239SOL    HW232848   1.053   6.754   4.469  2.8200  0.6705 -0.0590
 9240SOL     OW32849   2.645   0.588   5.974 -0.6406 -0.4920 -0.3695
 9240SOL    HW132850   2.593   0.554   6.047 -0.0014  0.1394  0.3896
 9240SOL    HW232851   2.666   0.511   5.922 -0.1365 -1.1287  0.7409
 9241SOL     OW32852   5.337   8.649   2.945 -0.4026  0.3623  0.7457
 9241SOL    HW132853   5.407   8.698   2.902  0.5591  0.7968  2.7332
 9241SOL    HW232854   5.271   8.715   2.966 -0.7213  0.2077  0.2329
 9242SOL     OW32855   0.445  10.457   6.581  0.0524  0.3976  0.0408
 9242SOL    HW132856   0.484  10.433   6.665 -0.2177  0.8232  0.2907
 9242SOL    HW232857   0.417  10.548   6.593 -0.3251  0.3386 -0.3838
 9243SOL     OW32858   0.962   2.948   2.224  0.0700 -0.2211 -0.1646
 9243SOL    HW132859   0.875   2.919   2.196 -1.0569  2.5292  0.2664
 9243SOL    HW232860   0.958   2.952   2.319  0.4439  0.5305 -0.1707
 9244SOL     OW32861   6.261   2.358   0.232 -0.4529 -0.4524  0.6201
 9244SOL    HW132862   6.244   2.371   0.325  0.2709 -0.0125  0.6962
 9244SOL    HW232863   6.325   2.287   0.228  1.8276  1.5266  0.6403
 9245SOL     OW32864   8.604   7.531   2.632  0.4055  0.2463  0.2890
 9245SOL    HW132865   8.514   7.535   2.601  0.6426 -0.2100 -0.4770
 9245SOL    HW232866   8.597   7.500   2.723 -0.2997  1.7724  0.7632
 9246SOL     OW32867   2.126   5.330   8.206 -0.5912 -0.0901  0.4242
 9246SOL    HW132868   2.075   5.257   8.173 -0.3185  0.0774 -0.3806
 9246SOL    HW232869   2.071   5.407   8.191  0.5013  0.2845 -1.8582
 9247SOL     OW32870   0.014   3.186   7.742 -0.2927 -0.0102  0.2261
 9247SOL    HW132871  -0.020   3.144   7.822  1.5131 -0.3969  0.8218
 9247SOL    HW232872   0.043   3.113   7.687  0.3937  0.3347  0.1206
 9248SOL     OW32873   4.468   4.315   3.886 -0.1976 -0.5020 -0.4478
 9248SOL    HW132874   4.537   4.373   3.852 -1.2151  0.5031 -0.8544
 9248SOL    HW232875   4.497   4.227   3.862  1.8193 -0.2649  0.9544
 9249SOL     OW32876   9.387   1.025   2.896  0.1498  0.1613 -0.1140
 9249SOL    HW132877   9.332   1.050   2.970  0.1510 -1.5725  0.4820
 9249SOL    HW232878   9.325   1.005   2.826  0.0840 -0.1029  0.0202
 9250SOL     OW32879   5.331   4.158   8.748 -0.1430  0.6548 -0.0793
 9250SOL    HW132880   5.237   4.141   8.753  0.2214 -0.9927  1.7194
 9250SOL    HW232881   5.368   4.076   8.716  0.9097  0.4075  1.6886
 9251SOL     OW32882   5.830   0.543  10.328  0.0705  0.3846  0.2027
 9251SOL    HW132883   5.823   0.518  10.235  1.0322 -0.3167  0.3158
 9251SOL    HW232884   5.809   0.463  10.376  0.5220  0.4952  0.5868
 9252SOL     OW32885   0.949   7.950  10.070 -0.1026 -0.1631  0.0091
 9252SOL    HW132886   0.859   7.917  10.073  0.8822 -3.3605 -2.9481
 9252SOL    HW232887   0.941   8.041  10.045 -2.5583 -0.2458  0.4176
 9253SOL     OW32888   1.580   2.335  10.457 -0.3310  0.4221 -0.0455
 9253SOL    HW132889   1.655   2.367  10.407 -1.9925  1.3156 -2.0696
 9253SOL    HW232890   1.577   2.241  10.440  1.4531  0.0318  1.6395
 9254SOL     OW32891   4.590   3.179   0.703  0.3445 -0.2467  0.0368
 9254SOL    HW132892   4.495   3.168   0.705 -0.0519  2.5887 -0.6746
 9254SOL    HW232893   4.618   3.159   0.792 -1.1774  0.7783  0.7722
 9255SOL     OW32894   1.748   6.170   6.366 -0.8256  0.0171  0.1673
 9255SOL    HW132895   1.697   6.244   6.400 -0.7059 -0.0004  0.3809
 9255SOL    HW232896   1.833   6.178   6.408 -0.7282 -0.0928 -0.0102
 9256SOL     OW32897   2.963   8.622   0.035 -0.9502 -0.3155 -0.1128
 9256SOL    HW132898   2.878   8.665   0.022 -0.0423  1.9808  1.1458
 9256SOL    HW232899   3.026   8.694   0.036  1.1947 -2.0986 -2.3205
 9257SOL     OW32900   1.602   9.856   5.330 -0.2332 -0.0152  0.9255
 9257SOL    HW132901   1.530   9.803   5.296  0.1679 -0.7305  1.1931
 9257SOL    HW232902   1.673   9.794   5.346  0.4721  0.6966  0.5992
 9258SOL     OW32903   6.375   7.779  10.013  0.0422  0.3290 -0.2932
 9258SOL    HW132904   6.384   7.701  10.069  0.7900  0.8155  0.2786
 9258SOL    HW232905   6.285   7.775   9.981  0.1303 -0.8777 -0.4249
 9259SOL     OW32906   2.084  10.025   2.573 -0.5288 -0.4320  0.4223
 9259SOL    HW132907   2.070  10.120   2.581 -3.7828 -0.7919 -0.0315
 9259SOL    HW232908   2.015   9.987   2.629  0.8210 -2.5398  0.6971
 9260SOL     OW32909   9.281   9.038   3.527 -0.2635 -0.2304 -0.4340
 9260SOL    HW132910   9.300   8.944   3.526  1.2642  0.0589  0.0498
 9260SOL    HW232911   9.211   9.049   3.462  0.0658 -1.5934 -1.0456
 9261SOL     OW32912   9.640   3.753   5.712  0.1756 -0.2978 -0.4780
 9261SOL    HW132913   9.563   3.809   5.726 -1.0157 -1.6495 -1.5457
 9261SOL    HW232914   9.662   3.766   5.620  0.0522 -1.3768 -0.6620
 9262SOL     OW32915   7.593   8.730   5.000  0.6055 -0.4155  0.6426
 9262SOL    HW132916   7.595   8.658   4.937 -0.9271 -1.8486  2.1944
 9262SOL    HW232917   7.559   8.690   5.080  0.6842  1.8268  1.8062
 9263SOL     OW32918   5.347   1.273  10.747 -0.3666  0.5254  0.5241
 9263SOL    HW132919   5.411   1.210  10.781 -1.5649  0.3001  2.4139
 9263SOL    HW232920   5.276   1.220  10.713 -0.0872  0.8098 -0.5273
 9264SOL     OW32921   3.628   5.322   0.792  0.1835  0.0745 -0.2921
 9264SOL    HW132922   3.629   5.326   0.696  0.1060 -0.9199 -0.3401
 9264SOL    HW232923   3.718   5.342   0.818  0.8848 -2.3605 -0.7083
 9265SOL     OW32924  10.727   7.283   8.082  0.2882 -0.1948  0.3706
 9265SOL    HW132925  10.659   7.272   8.015 -0.5075 -0.8516  1.2647
 9265SOL    HW232926  10.748   7.194   8.110 -0.6285  0.1225  2.1840
 9266SOL     OW32927   7.329   8.598   2.378 -0.5289 -0.0116 -0.3444
 9266SOL    HW132928   7.325   8.548   2.459  1.3545  0.8769  0.3211
 9266SOL    HW232929   7.407   8.653   2.387 -0.4620  0.3190 -2.6214
 9267SOL     OW32930   5.214   0.383  10.862  0.0944 -0.2588  0.1808
 9267SOL    HW132931   5.172   0.460  10.900  0.9623 -0.2318  1.1260
 9267SOL    HW232932   5.155   0.355  10.792 -0.2483  1.2326 -0.1418
 9268SOL     OW32933   5.997  10.240   3.621 -0.0417 -0.5648  0.3075
 9268SOL    HW132934   5.999  10.147   3.642  0.2564 -0.7490 -0.5029
 9268SOL    HW232935   5.907  10.256   3.593 -0.1054 -0.5964  0.4906
 9269SOL     OW32936   8.967  10.144   3.475  0.1062  0.7919 -0.4089
 9269SOL    HW132937   8.919  10.225   3.458  0.3068  0.6969 -1.4429
 9269SOL    HW232938   9.058  10.172   3.486  0.0214  0.8196  0.2899
 9270SOL     OW32939   4.376   6.954   2.454  0.4444 -0.6586  0.2120
 9270SOL    HW132940   4.333   6.935   2.370  0.9254 -1.3832  0.1288
 9270SOL    HW232941   4.321   6.913   2.519  0.7024 -1.0958  0.1535
 9271SOL     OW32942   7.120   2.164   7.752  0.3688  0.3877  0.1569
 9271SOL    HW132943   7.174   2.085   7.753  0.5292  0.4394 -1.6149
 9271SOL    HW232944   7.180   2.236   7.769  0.5464  0.2767  0.0013
 9272SOL     OW32945   9.451   9.018   6.217 -0.2865 -0.2321 -0.2030
 9272SOL    HW132946   9.385   9.082   6.243  2.1750  2.4696 -0.3951
 9272SOL    HW232947   9.477   8.976   6.299 -1.0432 -0.1308  0.0911
 9273SOL     OW32948   5.607  11.191   1.504 -0.1171 -0.0380 -0.2334
 9273SOL    HW132949   5.610  11.262   1.440  1.3946 -0.2434 -0.3986
 9273SOL    HW232950   5.513  11.172   1.513 -0.3774  0.1628 -2.1765
 9274SOL     OW32951  10.764   3.259   2.996 -0.0399  0.2338 -0.3158
 9274SOL    HW132952  10.747   3.171   3.030 -4.2668  0.7721 -0.6915
 9274SOL    HW232953  10.692   3.276   2.935  1.7606  3.2234 -1.7564
 9275SOL     OW32954   2.865   6.223   3.528 -0.6372  0.0986 -0.2980
 9275SOL    HW132955   2.890   6.160   3.596 -2.8990 -2.0325 -1.3514
 9275SOL    HW232956   2.776   6.249   3.550 -1.0450  0.1306 -1.8888
 9276SOL     OW32957   3.935   2.638   2.293 -0.1204  0.3477  0.2503
 9276SOL    HW132958   3.964   2.658   2.204 -3.8490 -1.7489 -1.5610
 9276SOL    HW232959   3.974   2.553   2.312  2.2067  1.6322  1.4297
 9277SOL     OW32960   0.260   7.951   0.114  0.5204 -0.1713  0.2601
 9277SOL    HW132961   0.212   7.992   0.186  2.0826  0.0083  1.2215
 9277SOL    HW232962   0.323   7.893   0.157  2.3601  0.9250 -0.8753
 9278SOL     OW32963   5.940   2.255   5.896 -0.0369  0.3247  0.1608
 9278SOL    HW132964   5.881   2.254   5.821 -1.0217  3.1808  0.8451
 9278SOL    HW232965   5.883   2.236   5.971  0.7172 -1.2152  0.3733
 9279SOL     OW32966   4.685  11.026   6.052 -0.4377 -0.6012 -0.0426
 9279SOL    HW132967   4.605  11.059   6.094  0.0624  0.7362 -0.1319
 9279SOL    HW232968   4.713  10.954   6.109 -0.6517  0.1676  1.0634
 9280SOL     OW32969   3.681   0.782   2.583 -0.0187  0.1766 -0.1189
 9280SOL    HW132970   3.669   0.696   2.545  1.2251 -0.1164  0.1334
 9280SOL    HW232971   3.748   0.824   2.529  0.7980  0.2499  0.9249
 9281SOL     OW32972   2.112   0.957   8.196  0.0698 -0.0080 -0.2853
 9281SOL    HW132973   2.105   0.875   8.244  0.8696  1.0192  1.6634
 9281SOL    HW232974   2.048   1.015   8.238  0.6576  0.8672 -0.5843
 9282SOL     OW32975   2.310   1.391  10.942  1.0847  0.3606 -0.0114
 9282SOL    HW132976   2.322   1.448  11.018 -0.6017  1.4973 -0.5812
 9282SOL    HW232977   2.281   1.449  10.872 -0.8421 -1.1945 -0.5443
 9283SOL     OW32978   6.682   9.310  10.269  0.4185 -0.4909 -0.4517
 9283SOL    HW132979   6.618   9.357  10.215 -1.8471 -1.4261  1.3184
 9283SOL    HW232980   6.659   9.218  10.257  1.4830 -0.8391  0.1720
 9284SOL     OW32981   1.319   1.992  11.219  0.6712 -0.1297  0.6647
 9284SOL    HW132982   1.287   2.039  11.142 -0.7966 -1.8584  0.1977
 9284SOL    HW232983   1.393   2.045  11.250  0.2519  1.4532 -0.9589
 9285SOL     OW32984   0.823   9.222   4.747 -0.1253 -0.4775 -0.3012
 9285SOL    HW132985   0.760   9.281   4.704  0.1647  0.9160  1.1305
 9285SOL    HW232986   0.909   9.255   4.720  0.0659  0.5587  1.4877
 9286SOL     OW32987   1.813   8.902   4.360  0.1314 -0.3929 -0.1180
 9286SOL    HW132988   1.767   8.960   4.299  0.5577  1.0324  0.9018
 9286SOL    HW232989   1.859   8.961   4.419 -0.5354 -1.7473  1.8003
 9287SOL     OW32990   0.534   2.099   3.064  0.2531  0.8543 -0.4197
 9287SOL    HW132991   0.611   2.061   3.020  0.8861  0.8139  0.6926
 9287SOL    HW232992   0.516   2.180   3.016  0.6592  0.5938 -1.0229
 9288SOL     OW32993   8.434   3.002   3.306  0.4452  0.0264  0.5287
 9288SOL    HW132994   8.377   2.956   3.368  2.3410  0.2371  2.5034
 9288SOL    HW232995   8.410   3.094   3.316  0.3216  0.0003  0.4777
 9289SOL     OW32996   6.247   3.186   6.384 -0.1073  0.5156  0.1014
 9289SOL    HW132997   6.177   3.160   6.444 -0.6790  2.4012  0.2878
 9289SOL    HW232998   6.202   3.222   6.308  0.6421 -0.2568 -0.7196
 9290SOL     OW32999   7.345   5.859   8.651 -0.0579 -0.5485 -0.9880
 9290SOL    HW133000   7.351   5.946   8.690 -0.2968 -1.4239  1.0791
 9290SOL    HW233001   7.422   5.812   8.685 -0.2269 -1.3052 -1.6386
 9291SOL     OW33002   2.540   3.108   1.141  0.2046 -0.3054 -0.0154
 9291SOL    HW133003   2.598   3.146   1.207 -0.5239  0.6058  0.1054
 9291SOL    HW233004   2.503   3.030   1.182 -0.2186  0.2377  0.6366
 9292SOL     OW33005   3.592  10.272   1.816  0.2478  0.0533 -0.0093
 9292SOL    HW133006   3.669  10.325   1.836  1.1598 -0.9950 -0.6009
 9292SOL    HW233007   3.527  10.334   1.784  0.5135  1.0820  1.4017
 9293SOL     OW33008   6.742   9.286   5.379  0.0039  0.2242  0.0065
 9293SOL    HW133009   6.690   9.255   5.454  1.7003 -0.3077  0.9871
 9293SOL    HW233010   6.677   9.313   5.315 -1.4919  0.3201  1.5227
 9294SOL     OW33011   6.864   9.061   2.941  0.3186 -0.3153 -0.7227
 9294SOL    HW133012   6.802   9.101   2.880  1.0504  0.4096 -1.0014
 9294SOL    HW233013   6.950   9.079   2.903  0.7228 -0.8423 -0.0597
 9295SOL     OW33014   9.462   2.010  10.852  0.0396  0.0239 -0.0034
 9295SOL    HW133015   9.445   2.002  10.946 -0.1738  0.1575 -0.0320
 9295SOL    HW233016   9.509   2.093  10.843  0.0113  0.0374 -0.0233
 9296SOL     OW33017   9.918   7.063   7.582 -0.2419 -0.4542  0.4180
 9296SOL    HW133018   9.862   6.986   7.576  0.6552 -1.0425 -0.5471
 9296SOL    HW233019   9.976   7.057   7.506  1.1254  0.1430  1.3917
 9297SOL     OW33020   6.952   6.318   2.182 -0.1878 -0.3588  0.1309
 9297SOL    HW133021   7.039   6.287   2.208 -0.2070 -2.7992 -2.4459
 9297SOL    HW233022   6.967   6.365   2.101 -1.1654  0.0181  0.1643
 9298SOL     OW33023   7.755   3.065   5.509 -0.4794 -0.2076 -0.5026
 9298SOL    HW133024   7.776   3.143   5.458 -1.9890  0.9345  0.5718
 9298SOL    HW233025   7.669   3.084   5.548  0.0756 -1.5433  1.4499
 9299SOL     OW33026   8.054   5.896   6.735 -0.1768 -0.4091 -0.3089
 9299SOL    HW133027   8.121   5.882   6.668  0.0197 -1.4728  0.0938
 9299SOL    HW233028   7.971   5.888   6.689 -0.0432 -1.2672 -0.4125
 9300SOL     OW33029   3.378   6.155  10.900  0.3555 -0.6254  0.2817
 9300SOL    HW133030   3.349   6.147  10.809 -3.1146 -0.8642  1.3543
 9300SOL    HW233031   3.419   6.242  10.904 -1.0408  0.1210 -1.1262
 9301SOL     OW33032  10.774   8.755   8.097  0.3619  0.2582 -0.2755
 9301SOL    HW133033  10.714   8.745   8.022  2.2236 -1.5389 -1.5891
 9301SOL    HW233034  10.858   8.777   8.057  1.4745 -1.1014  1.2582
 9302SOL     OW33035   2.284   0.752   6.879  0.2623  0.1529 -0.6657
 9302SOL    HW133036   2.254   0.804   6.954  0.3092 -1.1381  0.2668
 9302SOL    HW233037   2.365   0.712   6.909  1.2534  1.0676 -2.0604
 9303SOL     OW33038   8.805   4.717   6.721 -0.1482 -0.0116  0.4242
 9303SOL    HW133039   8.720   4.703   6.763 -0.2737 -1.3695 -0.2639
 9303SOL    HW233040   8.795   4.801   6.676 -1.1942 -0.2527  0.1907
 9304SOL     OW33041   5.692   1.686   5.616 -0.5659 -0.6181  0.2599
 9304SOL    HW133042   5.621   1.747   5.596 -0.1278 -0.5198 -1.0423
 9304SOL    HW233043   5.762   1.741   5.652 -0.6240 -0.5159  0.2153
 9305SOL     OW33044   8.980  10.717   3.335  0.1470  0.0890  0.1072
 9305SOL    HW133045   8.898  10.672   3.356  0.0791  0.3834  0.4860
 9305SOL    HW233046   8.998  10.694   3.244 -0.0518 -0.4458  0.2040
 9306SOL     OW33047   6.243   7.752   0.554  0.8819  0.1261  0.0571
 9306SOL    HW133048   6.228   7.658   0.542  0.5798  0.3149 -1.0694
 9306SOL    HW233049   6.250   7.763   0.649  1.4568 -1.1158  0.1718
 9307SOL     OW33050  10.794   1.559   0.109  0.5241  0.0475 -0.2313
 9307SOL    HW133051  10.756   1.516   0.185  0.0438  2.8313  1.1733
 9307SOL    HW233052  10.835   1.488   0.059 -2.3601 -2.3414  0.6606
 9308SOL     OW33053   9.905   0.400  11.260  0.1251  0.5699  0.0692
 9308SOL    HW133054   9.880   0.310  11.280 -0.9511  0.7941 -0.2332
 9308SOL    HW233055   9.970   0.423  11.326 -2.0438  0.6998  2.2044
 9309SOL     OW33056   5.362   9.652   2.578 -0.0502 -0.3502 -0.2017
 9309SOL    HW133057   5.395   9.573   2.622 -1.1337  0.9674  3.1599
 9309SOL    HW233058   5.269   9.656   2.603 -0.3149  1.3008 -1.3734
 9310SOL     OW33059   8.752   0.216   5.510  0.1841 -0.0127 -0.0172
 9310SOL    HW133060   8.701   0.270   5.449 -0.7732 -0.1866  0.6181
 9310SOL    HW233061   8.700   0.136   5.520  0.6169 -0.2155  0.5798
 9311SOL     OW33062   7.653  10.590   1.149  0.0230  0.3203  0.1809
 9311SOL    HW133063   7.606  10.586   1.232  0.0028 -0.3461  0.1399
 9311SOL    HW233064   7.589  10.562   1.084 -0.1594  1.4734 -0.1446
 9312SOL     OW33065   1.714   0.424   8.590 -0.4958 -0.3476 -0.0473
 9312SOL    HW133066   1.806   0.434   8.615 -0.6853 -0.1749  0.6113
 9312SOL    HW233067   1.689   0.508   8.552 -0.3606 -0.4157 -0.2824
 9313SOL     OW33068   9.309   4.428   7.940 -0.1612 -0.4010  0.0881
 9313SOL    HW133069   9.311   4.499   7.875  0.0487  0.8088  1.3841
 9313SOL    HW233070   9.369   4.457   8.009 -3.6305  0.4414  2.9416
 9314SOL     OW33071   8.890   1.179   1.487  0.2608  0.4321  0.3078
 9314SOL    HW133072   8.819   1.141   1.436 -0.5468 -1.1105  2.4712
 9314SOL    HW233073   8.864   1.165   1.578  2.5584  1.3301  1.1461
 9315SOL     OW33074   8.302   5.689   8.359  0.0061 -0.0141 -0.0116
 9315SOL    HW133075   8.354   5.720   8.433  0.4518  2.1269 -1.2109
 9315SOL    HW233076   8.213   5.719   8.377  0.2213  0.9912 -0.6169
 9316SOL     OW33077   4.891   7.072  11.247  0.4358 -0.2625 -0.7559
 9316SOL    HW133078   4.962   7.127  11.213  0.4824 -0.3811 -0.8509
 9316SOL    HW233079   4.847   7.127  11.312  0.6211 -0.1910 -0.6895
 9317SOL     OW33080   7.229   8.399   8.716 -0.0400 -0.7041 -0.0557
 9317SOL    HW133081   7.277   8.458   8.658  0.0296  1.4071  2.0580
 9317SOL    HW233082   7.293   8.369   8.779 -1.3074  1.8699  2.5813
 9318SOL     OW33083  11.194   3.272  10.363  0.2678  0.0468  0.0666
 9318SOL    HW133084  11.217   3.312  10.279 -0.2714 -0.8639 -0.5184
 9318SOL    HW233085  11.119   3.323  10.394 -0.6042 -0.6884 -0.8152
 9319SOL     OW33086  10.104   6.372   0.679 -0.5102  0.2183  0.7000
 9319SOL    HW133087  10.181   6.382   0.622 -2.1677  2.4948 -1.2650
 9319SOL    HW233088  10.070   6.285   0.658  0.7827 -0.2707  0.6050
 9320SOL     OW33089   8.188  10.459   7.938 -0.0330 -0.3193  0.0631
 9320SOL    HW133090   8.238  10.511   7.874  2.7474 -3.5742 -0.5323
 9320SOL    HW233091   8.176  10.374   7.896 -0.6641 -1.6112  2.7517
 9321SOL     OW33092   0.593   6.121   2.214 -0.1426  0.4188 -0.8416
 9321SOL    HW133093   0.504   6.105   2.182 -0.2782  0.3969 -0.4477
 9321SOL    HW233094   0.583   6.134   2.308  0.0389  2.1935 -1.0570
 9322SOL     OW33095   6.347   8.806   2.467  0.1609  0.2103 -0.2430
 9322SOL    HW133096   6.437   8.778   2.449 -0.2306 -0.6747 -0.8638
 9322SOL    HW233097   6.351   8.848   2.553  0.9673 -0.8021  0.2214
 9323SOL     OW33098   0.583   7.539  10.047 -0.0957  0.1899 -0.6129
 9323SOL    HW133099   0.653   7.524   9.984  1.3744 -2.1240  1.4842
 9323SOL    HW233100   0.503   7.542   9.994  1.1744 -0.9309 -2.6432
 9324SOL     OW33101  11.320   9.466   4.080  0.2269  0.7453 -0.0147
 9324SOL    HW133102  11.232   9.482   4.048 -0.3860  0.1475  1.3480
 9324SOL    HW233103  11.311   9.460   4.175  1.6740  0.2859  0.1162
 9325SOL     OW33104   5.241  10.991   4.609  0.0082  0.5107  0.0198
 9325SOL    HW133105   5.202  11.030   4.531  0.0305 -1.2360 -0.8812
 9325SOL    HW233106   5.334  10.982   4.588 -0.0985 -0.5846 -0.0303
 9326SOL     OW33107   0.872   5.881   4.836  0.7420 -0.2690 -0.6714
 9326SOL    HW133108   0.786   5.920   4.846  1.9682  2.0803  1.1489
 9326SOL    HW233109   0.856   5.787   4.830 -1.7084 -0.1802  3.0786
 9327SOL     OW33110   6.282   9.256  10.974 -0.3239 -0.2057 -0.1818
 9327SOL    HW133111   6.265   9.163  10.989  0.4682 -0.5661 -1.4530
 9327SOL    HW233112   6.307   9.290  11.060 -1.3340 -0.9935  0.4405
 9328SOL     OW33113   5.782   5.258   8.071 -0.1248 -0.3955  0.5059
 9328SOL    HW133114   5.802   5.304   7.989 -0.9556 -0.5503  0.2100
 9328SOL    HW233115   5.796   5.166   8.050 -0.4765 -0.4471  0.4913
 9329SOL     OW33116   8.486   0.917   7.595  0.0098 -0.1906  0.3654
 9329SOL    HW133117   8.427   0.932   7.669 -2.4909  2.6557 -2.0586
 9329SOL    HW233118   8.461   0.830   7.562  1.5720 -1.7674  3.1018
 9330SOL     OW33119   4.519   0.898   6.620  0.1557  0.2675  0.2149
 9330SOL    HW133120   4.529   0.980   6.570  1.1002  1.0562  1.6404
 9330SOL    HW233121   4.566   0.833   6.568 -1.5141  0.3920 -1.4721
 9331SOL     OW33122   8.589   9.029  10.417  0.4486 -0.3140  0.3007
 9331SOL    HW133123   8.585   9.016  10.511 -0.9061 -1.8627  0.0509
 9331SOL    HW233124   8.591   9.124  10.406  0.7577 -0.1294  1.8848
 9332SOL     OW33125   0.199   4.633   4.474 -0.1434  0.8766  0.0757
 9332SOL    HW133126   0.121   4.593   4.436  0.2264  0.5401 -0.3318
 9332SOL    HW233127   0.271   4.606   4.417  0.4196  0.3506  1.0134
 9333SOL     OW33128   8.238   2.124   1.274 -0.0451 -0.3231  0.0620
 9333SOL    HW133129   8.213   2.037   1.244 -2.5362  0.4962 -0.3688
 9333SOL    HW233130   8.273   2.168   1.197 -0.8257 -0.2193 -0.2339
 9334SOL     OW33131   4.710   3.042   4.682 -0.4134  0.0687 -0.1713
 9334SOL    HW133132   4.679   2.979   4.618 -0.5497 -0.9949  0.9363
 9334SOL    HW233133   4.635   3.099   4.698  0.5531  2.4563 -3.4219
 9335SOL     OW33134   5.587   2.670   4.282 -0.2339 -0.6409  0.2663
 9335SOL    HW133135   5.583   2.590   4.335 -0.3450 -0.9151 -0.1485
 9335SOL    HW233136   5.680   2.693   4.279 -0.1542 -0.9946  0.0337
 9336SOL     OW33137  10.071   8.179   9.402  0.0525  0.3269 -0.2461
 9336SOL    HW133138  10.040   8.253   9.349  0.0487 -0.1130 -0.8627
 9336SOL    HW233139  10.161   8.166   9.373 -0.0393 -0.0913 -0.3402
 9337SOL     OW33140   9.680   5.996   4.148  0.1106 -0.3628 -0.6119
 9337SOL    HW133141   9.623   6.046   4.090  1.1189  1.3019 -0.2035
 9337SOL    HW233142   9.624   5.974   4.223  0.6016  3.4173  0.9614
 9338SOL     OW33143   7.874   5.558   0.124 -0.2336 -0.2154 -0.5413
 9338SOL    HW133144   7.822   5.584   0.047 -0.0120 -0.5405 -0.7987
 9338SOL    HW233145   7.956   5.605   0.114 -1.2093  1.8563  0.8853
 9339SOL     OW33146   6.373   5.505  10.280 -0.4550 -0.3319  0.5028
 9339SOL    HW133147   6.430   5.552  10.341  1.0113 -1.2976 -0.0968
 9339SOL    HW233148   6.396   5.413  10.292 -0.2572 -0.5356 -1.4031
 9340SOL     OW33149   2.769  11.182   8.467 -0.1619 -0.4418 -0.0800
 9340SOL    HW133150   2.774  11.250   8.534 -0.7111 -0.9823  0.5137
 9340SOL    HW233151   2.777  11.230   8.384 -0.7478  0.3676  0.3215
 9341SOL     OW33152   7.304  10.461   9.254 -0.2348 -0.0168  0.1443
 9341SOL    HW133153   7.338  10.372   9.242 -2.0052 -0.8368  0.9513
 9341SOL    HW233154   7.215  10.448   9.286  0.2584  2.0749  2.4615
 9342SOL     OW33155  11.198   4.534   1.950  0.1366 -0.2600 -0.2031
 9342SOL    HW133156  11.102   4.528   1.946 -0.1016  1.9589  0.9153
 9342SOL    HW233157  11.220   4.511   2.040  0.6788 -0.9812 -0.5169
 9343SOL     OW33158   9.215   1.598   1.339 -0.1472  0.7608 -0.0831
 9343SOL    HW133159   9.157   1.543   1.393  0.1355  0.2628 -0.2875
 9343SOL    HW233160   9.288   1.619   1.397  0.1181  0.2914 -0.2455
 9344SOL     OW33161   3.366   0.852   1.544 -0.2928  0.4657  0.7346
 9344SOL    HW133162   3.331   0.884   1.627 -0.6156 -1.5291  1.4150
 9344SOL    HW233163   3.422   0.778   1.569 -0.8606 -0.5272 -0.8507
 9345SOL     OW33164   6.999   6.418   4.632  0.0301 -0.6609  0.5036
 9345SOL    HW133165   7.073   6.471   4.602 -0.3687 -0.7121 -0.5543
 9345SOL    HW233166   6.922   6.457   4.591 -0.3043 -1.8512 -0.0116
 9346SOL     OW33167   7.866  10.241   0.051  0.4277  0.2762 -0.3972
 9346SOL    HW133168   7.887  10.303  -0.019  0.7847  1.8788  1.1001
 9346SOL    HW233169   7.840  10.295   0.125  0.0887 -1.3904  0.7398
 9347SOL     OW33170   0.654   0.137   2.402  0.7352 -0.6245 -0.0979
 9347SOL    HW133171   0.718   0.115   2.470  1.5560  0.2020 -0.5986
 9347SOL    HW233172   0.706   0.164   2.327 -0.1801 -1.1403 -0.9405
 9348SOL     OW33173   9.000   0.573   2.235 -0.3885  0.1237 -0.1569
 9348SOL    HW133174   9.007   0.554   2.142 -1.7524  0.4572 -0.3382
 9348SOL    HW233175   8.926   0.633   2.242 -0.4271 -0.0566  1.1559
 9349SOL     OW33176   2.358   3.900   5.999  0.3683 -0.0918 -0.9590
 9349SOL    HW133177   2.305   3.964   6.047 -2.8237 -1.8259 -2.0008
 9349SOL    HW233178   2.378   3.943   5.916  1.8251  1.1018 -0.0148
 9350SOL     OW33179   2.942   5.184   0.778 -0.0313 -0.9703  0.5847
 9350SOL    HW133180   2.977   5.273   0.780 -2.1425 -0.0546 -0.9376
 9350SOL    HW233181   2.856   5.191   0.818 -1.6706 -1.6013 -2.6738
 9351SOL     OW33182   2.380   3.201   7.906 -0.1328  0.0341  0.6017
 9351SOL    HW133183   2.438   3.261   7.951 -1.0181  1.4871 -0.1576
 9351SOL    HW233184   2.421   3.186   7.821  0.1322 -0.5279  0.8216
 9352SOL     OW33185   4.916   2.185   2.978  0.2548 -0.5070 -0.3616
 9352SOL    HW133186   4.872   2.126   3.039 -1.7032 -0.8664 -2.0983
 9352SOL    HW233187   4.906   2.272   3.018 -0.6014 -0.8013  0.0797
 9353SOL     OW33188   9.711   8.970   8.910 -0.5562  0.3135  0.8090
 9353SOL    HW133189   9.616   8.972   8.922 -1.2914 -0.7444 -3.8219
 9353SOL    HW233190   9.730   9.047   8.857  0.7585 -0.8452 -0.4588
 9354SOL     OW33191   4.696   7.518   0.723  0.2115 -0.2995 -0.9429
 9354SOL    HW133192   4.771   7.574   0.743  0.3174 -0.1690 -1.6660
 9354SOL    HW233193   4.692   7.455   0.795 -1.0191  1.7709  0.8649
 9355SOL     OW33194   0.111   9.224   3.391  0.6393  0.6962  0.1227
 9355SOL    HW133195   0.158   9.141   3.391  0.7970  0.7882 -0.3002
 9355SOL    HW233196   0.150   9.273   3.464 -1.2505 -0.6088  2.1002
 9356SOL     OW33197   1.380   3.018   0.396 -0.7471 -0.3539  0.6878
 9356SOL    HW133198   1.330   3.023   0.314 -0.7405 -0.4335  0.6783
 9356SOL    HW233199   1.379   3.107   0.431 -0.1119 -0.1580  0.2214
 9357SOL     OW33200   9.778   1.558   9.588 -0.8267 -0.2128  0.0313
 9357SOL    HW133201   9.790   1.501   9.664 -1.1848  0.2538  0.4419
 9357SOL    HW233202   9.684   1.559   9.573 -0.8176  0.2518  0.0050
 9358SOL     OW33203   1.151   8.378   1.933 -0.3393 -0.0586  0.6250
 9358SOL    HW133204   1.223   8.361   1.872 -0.6199  1.9322 -0.3096
 9358SOL    HW233205   1.161   8.470   1.957 -1.4873 -0.2587  1.9298
 9359SOL     OW33206   1.225   6.688  10.764  0.6636  0.2602 -0.6032
 9359SOL    HW133207   1.169   6.623  10.808  2.3691 -0.2374  0.9110
 9359SOL    HW233208   1.263   6.739  10.836  3.2577 -0.3513 -1.4800
 9360SOL     OW33209   5.817   8.566   4.133  0.6039  0.3878  0.2588
 9360SOL    HW133210   5.733   8.523   4.148  0.4466  0.8262  0.6588
 9360SOL    HW233211   5.869   8.544   4.211  1.2690 -0.8477 -0.5205
 9361SOL     OW33212   2.464   7.034   6.159  0.6434 -0.1019  0.1493
 9361SOL    HW133213   2.490   7.126   6.159  1.1888 -0.2553  0.5646
 9361SOL    HW233214   2.544   6.987   6.135  0.4558 -0.4949  0.3019
 9362SOL     OW33215   2.348   7.088   8.812 -0.0533  0.2583  0.5622
 9362SOL    HW133216   2.359   7.043   8.728 -0.4124 -0.1160  0.7100
 9362SOL    HW233217   2.385   7.175   8.798  2.3548 -0.6983  0.8310
 9363SOL     OW33218   0.229   6.577   2.413 -0.5942 -0.2598 -0.5575
 9363SOL    HW133219   0.231   6.498   2.469 -1.3855 -1.1459 -1.7528
 9363SOL    HW233220   0.310   6.622   2.433  0.6092 -2.1719 -0.9498
 9364SOL     OW33221   4.074   2.023   9.931 -0.2923 -0.6223  0.4771
 9364SOL    HW133222   4.016   2.038   9.857  0.8840  1.0581 -0.1448
 9364SOL    HW233223   4.043   2.084   9.998  0.9719  0.5467  0.0071
 9365SOL     OW33224   1.560   3.974  10.829 -0.3844 -0.5205  0.2132
 9365SOL    HW133225   1.511   4.053  10.851  0.8621  0.2226  0.3566
 9365SOL    HW233226   1.522   3.945  10.746 -1.1220 -0.0090  0.3609
 9366SOL     OW33227   1.890   6.313  10.103  0.2088 -0.4851  0.4540
 9366SOL    HW133228   1.967   6.355  10.140  0.3884 -1.7286  1.5198
 9366SOL    HW233229   1.842   6.279  10.178 -0.5412 -1.1542 -0.3129
 9367SOL     OW33230   8.432   2.133  10.450  0.0047 -0.2011  0.0534
 9367SOL    HW133231   8.476   2.166  10.528  0.6246  1.2424 -0.8799
 9367SOL    HW233232   8.405   2.211  10.402 -4.9201 -0.9881  1.2543
 9368SOL     OW33233   3.399   5.131   7.737 -0.3364  0.5452  0.3043
 9368SOL    HW133234   3.360   5.064   7.794  0.6140  0.3926  0.7961
 9368SOL    HW233235   3.458   5.082   7.679 -0.8538  0.7724 -0.4160
 9369SOL     OW33236   1.157  10.749   7.100  0.2594 -0.0853  0.2338
 9369SOL    HW133237   1.186  10.714   7.016 -0.8181  2.4762 -1.2908
 9369SOL    HW233238   1.074  10.706   7.117 -0.1654  0.3483 -0.7034
 9370SOL     OW33239   5.741   2.320   8.382  0.1135  0.0940  0.6248
 9370SOL    HW133240   5.686   2.274   8.444  1.4847  0.2946  2.0143
 9370SOL    HW233241   5.719   2.281   8.297 -0.0467 -1.8443  1.5353
 9371SOL     OW33242   2.177  11.015   8.934  0.2035  0.2158 -0.2848
 9371SOL    HW133243   2.182  11.111   8.929  1.5381  0.1068 -1.0523
 9371SOL    HW233244   2.264  10.988   8.964 -0.4515 -0.7106  0.8449
 9372SOL     OW33245   1.765   1.389   4.127  0.2398 -0.0954 -0.5655
 9372SOL    HW133246   1.734   1.397   4.036  2.7192  0.2204 -1.4065
 9372SOL    HW233247   1.860   1.394   4.121  0.4113  0.7134  2.1494
 9373SOL     OW33248   1.369   7.021   0.718 -0.3982 -0.5350  0.3045
 9373SOL    HW133249   1.422   7.013   0.639 -0.9463  0.1825 -0.1428
 9373SOL    HW233250   1.280   7.036   0.686 -0.6522 -0.4263  1.0570
 9374SOL     OW33251   9.618   8.590   2.858  0.2712 -0.0955  0.4591
 9374SOL    HW133252   9.590   8.535   2.785  0.9213  1.5686 -1.0449
 9374SOL    HW233253   9.701   8.628   2.830  0.9668 -0.1068  2.4123
 9375SOL     OW33254   3.605   0.710  11.277 -0.1123 -0.1600 -0.7376
 9375SOL    HW133255   3.631   0.646  11.210 -1.0297  0.1275 -1.3886
 9375SOL    HW233256   3.576   0.786  11.227 -0.8830  0.0335 -0.0132
 9376SOL     OW33257   3.800   2.718  10.519 -0.2605 -0.3741  0.3394
 9376SOL    HW133258   3.885   2.684  10.545 -0.5459 -0.7857  0.7572
 9376SOL    HW233259   3.802   2.718  10.423  0.5086  0.4065  0.3505
 9377SOL     OW33260   9.936   2.260   8.217  0.0769  0.0644 -0.0333
 9377SOL    HW133261  10.023   2.300   8.226 -0.1409  0.3689  0.6836
 9377SOL    HW233262   9.953   2.167   8.204  0.4311 -0.1628  2.0371
 9378SOL     OW33263   7.992   6.097   0.372 -0.1557 -0.3494 -0.2289
 9378SOL    HW133264   7.949   6.081   0.288  0.6019 -0.6455 -0.5607
 9378SOL    HW233265   7.978   6.017   0.423  0.2666 -0.5668 -0.4521
 9379SOL     OW33266   4.579   2.149   6.262  0.2324 -0.1210 -0.1585
 9379SOL    HW133267   4.624   2.185   6.186  0.6058  0.8039  0.4883
 9379SOL    HW233268   4.639   2.082   6.296  1.1093  1.0669  0.6642
 9380SOL     OW33269   0.195   5.158   5.221  0.2932 -0.1683  0.3733
 9380SOL    HW133270   0.125   5.222   5.235 -0.3532 -0.9221  0.6609
 9380SOL    HW233271   0.219   5.168   5.129  0.1077  0.3929  0.3828
 9381SOL     OW33272   4.609   0.678   8.373  0.1888  0.5886  0.3327
 9381SOL    HW133273   4.633   0.728   8.451  1.3006 -0.4221  0.6503
 9381SOL    HW233274   4.523   0.713   8.348 -1.3552 -0.8081  3.4549
 9382SOL     OW33275   9.099   3.481   1.528  0.1846 -0.1273  0.1040
 9382SOL    HW133276   9.005   3.464   1.528  0.0793  0.4678  1.1194
 9382SOL    HW233277   9.111   3.547   1.460 -0.1870  0.1480  0.3083
 9383SOL     OW33278   2.280   4.656   5.011  1.2261 -0.4720  0.6405
 9383SOL    HW133279   2.342   4.711   4.965  1.0537 -1.3906 -0.7206
 9383SOL    HW233280   2.318   4.568   5.007  0.7583 -0.7227  1.4493
 9384SOL     OW33281  10.008   1.657   9.866  0.3798  0.3784 -0.1816
 9384SOL    HW133282   9.964   1.599   9.804  0.1383  1.9492 -1.5356
 9384SOL    HW233283   9.953   1.657   9.944  0.3072 -1.0659 -0.2298
 9385SOL     OW33284   4.360   3.263  10.956  0.2481 -0.0935 -0.0971
 9385SOL    HW133285   4.274   3.298  10.931 -0.2986 -0.1738  1.5865
 9385SOL    HW233286   4.354   3.251  11.051  2.7025  1.4563  0.2943
 9386SOL     OW33287   8.354   1.511   4.618 -0.3801 -0.6469 -0.2601
 9386SOL    HW133288   8.411   1.457   4.673 -0.8556  0.7414  1.6925
 9386SOL    HW233289   8.413   1.578   4.581 -0.4408 -0.1666  0.4873
 9387SOL     OW33290   3.437   1.172   9.015  0.4732 -0.3308  0.4081
 9387SOL    HW133291   3.352   1.132   9.034 -0.8209  1.9849 -0.2773
 9387SOL    HW233292   3.419   1.233   8.943  2.1695  2.1667  2.0310
 9388SOL     OW33293   2.374   2.070   2.733  0.4139 -0.2922  0.4106
 9388SOL    HW133294   2.378   1.976   2.748  0.1082 -0.6834 -1.7478
 9388SOL    HW233295   2.293   2.098   2.776 -0.2881 -1.2932 -0.2409
 9389SOL     OW33296   0.760   7.712   4.961 -0.2575 -0.1194 -0.0194
 9389SOL    HW133297   0.693   7.742   5.023 -0.1457  0.3443 -0.1213
 9389SOL    HW233298   0.711   7.690   4.882 -0.8016 -3.8384  1.2880
 9390SOL     OW33299   0.568   1.616   5.013 -0.8906 -0.2290  0.3422
 9390SOL    HW133300   0.546   1.709   5.018 -1.0078 -0.2930  1.1103
 9390SOL    HW233301   0.629   1.609   4.940  0.0278  0.6296  1.0209
 9391SOL     OW33302   0.702   3.080   2.681 -0.0874 -0.0676 -0.0882
 9391SOL    HW133303   0.731   2.989   2.674 -1.5481 -0.5123 -0.5324
 9391SOL    HW233304   0.626   3.077   2.738  1.9632  1.3854  2.9002
 9392SOL     OW33305   8.628   4.968   7.880  0.1798  0.4225 -0.0099
 9392SOL    HW133306   8.568   4.905   7.840  0.5834  0.2906 -0.4001
 9392SOL    HW233307   8.648   4.930   7.966  0.1350  0.2023 -0.0972
 9393SOL     OW33308   1.905   6.814   0.480 -0.3266 -0.8027 -0.0123
 9393SOL    HW133309   1.930   6.727   0.508 -0.5280 -0.1407  2.3045
 9393SOL    HW233310   1.840   6.799   0.411 -1.5717 -2.4831  1.4778
 9394SOL     OW33311   9.157   9.848   1.948 -0.2113  0.2468  0.6058
 9394SOL    HW133312   9.130   9.866   2.037  1.1973  2.2851  0.6719
 9394SOL    HW233313   9.135   9.927   1.899 -0.3092 -0.5596 -0.7042
 9395SOL     OW33314   5.152   2.443   0.295 -0.2405 -0.5010  0.0766
 9395SOL    HW133315   5.078   2.387   0.316 -1.6398  0.9722 -0.7866
 9395SOL    HW233316   5.176   2.484   0.378 -0.3558 -1.0152  0.3657
 9396SOL     OW33317   6.933   0.618   8.144 -0.3484 -0.7429  0.1736
 9396SOL    HW133318   7.002   0.573   8.192  0.1109  0.0377  0.2520
 9396SOL    HW233319   6.871   0.646   8.212 -1.7501 -3.1238 -0.0660
 9397SOL     OW33320   8.141   1.393   2.885  0.0355 -0.5587  0.5438
 9397SOL    HW133321   8.066   1.333   2.889  0.7105 -1.7570 -2.8072
 9397SOL    HW233322   8.217   1.336   2.887  0.8310  0.5500  2.3332
 9398SOL     OW33323   6.140   1.125  11.240 -0.3550  0.7120 -0.4926
 9398SOL    HW133324   6.186   1.116  11.323  0.6010 -1.0576 -1.1801
 9398SOL    HW233325   6.155   1.216  11.214 -0.1010  1.0914  0.9336
 9399SOL     OW33326   4.136   4.657  10.895 -0.3593 -0.6015 -0.8462
 9399SOL    HW133327   4.167   4.570  10.921  1.7135  0.6207  0.9713
 9399SOL    HW233328   4.191   4.680  10.820  0.8091  0.1049  0.1915
 9400SOL     OW33329   9.752   2.944   5.188 -0.2784 -0.5644  0.5990
 9400SOL    HW133330   9.658   2.957   5.179 -0.0421  1.8921  1.5019
 9400SOL    HW233331   9.792   3.024   5.153  1.2831  0.5937  4.7284
 9401SOL     OW33332   8.145   5.915   7.920  0.1173  0.1461 -0.4417
 9401SOL    HW133333   8.094   5.921   7.839 -0.3847  0.4838 -0.1062
 9401SOL    HW233334   8.100   5.849   7.972  0.6387 -0.3116 -0.5789
 9402SOL     OW33335   6.873   5.405   5.459 -0.0303  0.3396  0.4120
 9402SOL    HW133336   6.849   5.492   5.489 -2.1258  0.5139 -1.6190
 9402SOL    HW233337   6.792   5.354   5.466  0.6743 -0.8983 -0.2782
 9403SOL     OW33338   8.467   9.504  10.310 -0.3690 -0.7567 -0.2935
 9403SOL    HW133339   8.470   9.516  10.215 -0.8934 -1.0881 -0.3509
 9403SOL    HW233340   8.375   9.487  10.329  0.0143 -2.6260  0.0295
 9404SOL     OW33341   6.109   9.775   4.608 -0.0961 -0.9594 -0.0699
 9404SOL    HW133342   6.172   9.742   4.672  0.5256  2.1801  1.0473
 9404SOL    HW233343   6.024   9.758   4.648  0.1951 -1.7296  0.2238
 9405SOL     OW33344   5.975   6.417   8.292 -0.3320 -0.3312  0.6136
 9405SOL    HW133345   6.021   6.342   8.328 -0.5961 -1.8134 -2.0024
 9405SOL    HW233346   6.022   6.438   8.212 -2.1792  0.2270 -0.3615
 9406SOL     OW33347   3.751   6.454   2.260  0.2148 -0.0677  0.8344
 9406SOL    HW133348   3.833   6.495   2.236 -0.1279 -0.0868 -0.3794
 9406SOL    HW233349   3.771   6.405   2.340  1.8740 -1.6672 -0.5357
 9407SOL     OW33350   4.849   1.341  11.312 -0.4039 -0.4824  0.5836
 9407SOL    HW133351   4.808   1.400  11.375 -1.7367 -0.7291 -0.0363
 9407SOL    HW233352   4.942   1.342  11.335 -0.6799  0.4699  1.6966
 9408SOL     OW33353   9.338   0.719   2.681  0.2304 -0.0025  0.2696
 9408SOL    HW133354   9.292   0.647   2.723  0.3776 -0.2922 -0.0611
 9408SOL    HW233355   9.409   0.677   2.632 -0.2816  0.2653 -0.7317
 9409SOL     OW33356  10.271   4.891   9.991  0.1430  0.8568 -0.3622
 9409SOL    HW133357  10.263   4.806   9.948 -0.3842  1.3050 -1.1828
 9409SOL    HW233358  10.181   4.914  10.013  0.2839  1.2053 -0.1541
 9410SOL     OW33359   9.416   6.116  11.089 -0.1208  0.2013 -0.2917
 9410SOL    HW133360   9.509   6.098  11.098 -0.0751  0.6677  0.2275
 9410SOL    HW233361   9.381   6.108  11.178 -0.7987 -1.1549 -0.6685
 9411SOL     OW33362   4.469   9.553   4.426  0.3829  0.4410 -0.1386
 9411SOL    HW133363   4.403   9.529   4.492 -0.2221  0.0657 -0.8720
 9411SOL    HW233364   4.552   9.550   4.473 -0.0566  0.2816  0.6351
 9412SOL     OW33365   2.222   2.860   0.810 -0.0971 -0.4116 -0.0571
 9412SOL    HW133366   2.138   2.822   0.835 -0.3919  0.6015  0.5607
 9412SOL    HW233367   2.203   2.911   0.731  0.4265 -2.0411 -1.2443
 9413SOL     OW33368  10.533   7.765   1.472 -0.7418  0.3948  0.0201
 9413SOL    HW133369  10.476   7.695   1.504 -0.6670  0.0526 -0.5941
 9413SOL    HW233370  10.496   7.845   1.509 -0.3424 -0.0498  1.4035
 9414SOL     OW33371   9.481  10.452   6.616  0.3015 -0.5457  0.1907
 9414SOL    HW133372   9.478  10.536   6.570 -2.5644 -1.0841 -0.7582
 9414SOL    HW233373   9.570  10.446   6.651  1.2672  1.7919 -1.7365
 9415SOL     OW33374  10.757  10.276   7.820  0.1973  0.8027  0.6049
 9415SOL    HW133375  10.725  10.254   7.908  0.4679  0.5465  0.6419
 9415SOL    HW233376  10.852  10.262   7.825  0.0407 -0.6428 -0.1416
 9416SOL     OW33377   3.793   6.288   6.897  0.1067  0.1138 -0.2169
 9416SOL    HW133378   3.832   6.336   6.823 -0.6771 -0.5424 -1.0686
 9416SOL    HW233379   3.704   6.324   6.904 -0.0845 -0.3855 -0.0925
 9417SOL     OW33380   2.171   0.052   7.108  0.5512  0.0411  0.5124
 9417SOL    HW133381   2.189   0.018   7.196 -0.1991  3.1038  1.9254
 9417SOL    HW233382   2.249   0.031   7.058  2.2933  0.9321  2.7723
 9418SOL     OW33383   6.359   4.388   8.066  0.0206  0.3727 -0.5786
 9418SOL    HW133384   6.333   4.308   8.021 -0.5179  0.8090 -1.0647
 9418SOL    HW233385   6.433   4.363   8.120 -0.4939 -0.5727 -0.3101
 9419SOL     OW33386   4.473   4.455   1.123 -0.1121 -0.0033 -0.3250
 9419SOL    HW133387   4.492   4.498   1.039  0.1750  1.6250  0.5521
 9419SOL    HW233388   4.552   4.406   1.143 -0.4363 -0.9696 -1.3300
 9420SOL     OW33389   5.096   2.249  10.401  0.9687  0.2015  0.7158
 9420SOL    HW133390   5.047   2.212  10.474  1.3293  1.1552  1.4406
 9420SOL    HW233391   5.043   2.228  10.324 -0.4839  1.0327  1.4647
 9421SOL     OW33392   1.207   7.929   2.116  0.3600  0.2633 -0.0631
 9421SOL    HW133393   1.257   7.893   2.043  1.1471  1.0035  0.1040
 9421SOL    HW233394   1.222   8.024   2.111  0.4644  0.3080  1.1006
 9422SOL     OW33395   5.088   8.324   0.995  0.8490 -0.6891  0.5457
 9422SOL    HW133396   5.021   8.372   1.042 -0.1373 -0.5322 -0.9809
 9422SOL    HW233397   5.168   8.377   1.006  0.4600 -0.2680  1.3739
 9423SOL     OW33398   5.427   2.318   5.987 -0.7020 -0.5522  0.2467
 9423SOL    HW133399   5.403   2.225   5.988 -1.6166 -0.3131  0.1848
 9423SOL    HW233400   5.410   2.348   6.077  0.1103 -0.5682  0.4163
 9424SOL     OW33401  10.297   9.118   3.638  0.0459  0.4893  0.8578
 9424SOL    HW133402  10.202   9.124   3.635 -0.1426 -2.2728  0.6150
 9424SOL    HW233403  10.318   9.112   3.731  0.0281  1.2066  0.9178
 9425SOL     OW33404   2.290   6.539   2.511  0.5339  0.3756  0.0476
 9425SOL    HW133405   2.251   6.568   2.593  1.5489  1.3209  0.2143
 9425SOL    HW233406   2.362   6.600   2.497 -0.1363  0.7469 -1.9649
 9426SOL     OW33407   7.785   8.599   2.874  0.1185  0.3287  0.1954
 9426SOL    HW133408   7.799   8.570   2.964  0.0501 -1.4139 -0.3423
 9426SOL    HW233409   7.747   8.686   2.883  1.3853  0.7477  1.8290
 9427SOL     OW33410   5.611   6.762   2.179  0.0306  0.0832 -0.6279
 9427SOL    HW133411   5.640   6.853   2.174  1.4843 -0.2821  0.8644
 9427SOL    HW233412   5.574   6.753   2.267  0.8521 -1.0442 -0.3855
 9428SOL     OW33413   1.866  10.037   6.594 -0.3322 -0.7180  0.5041
 9428SOL    HW133414   1.791   9.979   6.578 -0.0400 -0.8951 -0.2173
 9428SOL    HW233415   1.841  10.086   6.672 -0.3644 -2.1933  1.4515
 9429SOL     OW33416   6.505   9.891   2.187  0.6618  0.2730  0.5303
 9429SOL    HW133417   6.463   9.971   2.156 -2.1499 -0.8488  1.2707
 9429SOL    HW233418   6.563   9.865   2.115  1.0115  2.5299 -0.0337
 9430SOL     OW33419   0.775   1.311   4.223 -0.6679 -0.1360  0.5197
 9430SOL    HW133420   0.758   1.290   4.132  1.0984  0.3582  0.0533
 9430SOL    HW233421   0.854   1.365   4.221 -1.2942  0.8956  2.2371
 9431SOL     OW33422   6.066   6.062   6.235 -0.2114 -0.1078  0.6776
 9431SOL    HW133423   6.083   5.990   6.175 -0.8274  1.4101 -1.3691
 9431SOL    HW233424   5.977   6.045   6.268 -1.1115  0.6712 -1.2507
 9432SOL     OW33425   5.727   1.343   4.889  0.0527 -0.0872  0.3480
 9432SOL    HW133426   5.814   1.381   4.901 -0.1778  0.7001 -0.3801
 9432SOL    HW233427   5.742   1.263   4.837  0.2529  0.5322 -0.5551
 9433SOL     OW33428   4.470   3.638   9.270 -0.3052 -0.0281  0.1251
 9433SOL    HW133429   4.397   3.581   9.246  0.8956 -1.3214 -0.5832
 9433SOL    HW233430   4.486   3.691   9.192  0.8653 -1.2691 -0.5266
 9434SOL     OW33431   0.578  10.148   2.291 -0.3609 -0.3375 -0.0295
 9434SOL    HW133432   0.644  10.217   2.303 -0.5329  0.4295 -2.9483
 9434SOL    HW233433   0.504  10.194   2.249 -0.8135 -2.1154 -1.2284
 9435SOL     OW33434   4.074   6.676   9.025  0.6314  0.4562  0.6723
 9435SOL    HW133435   4.102   6.756   9.069  1.5647  0.6172 -0.1822
 9435SOL    HW233436   4.087   6.694   8.932 -0.8290 -0.0609  0.3561
 9436SOL     OW33437   8.504   2.837   9.408 -0.0354 -0.3230  0.0804
 9436SOL    HW133438   8.574   2.885   9.453  0.7546 -1.3988  0.0223
 9436SOL    HW233439   8.477   2.896   9.337  1.9810 -0.5557 -0.9392
 9437SOL     OW33440  10.536   8.595   3.378  0.3146  0.7447 -0.2854
 9437SOL    HW133441  10.504   8.667   3.432  0.1890  0.6355 -0.2164
 9437SOL    HW233442  10.529   8.628   3.288  0.6158  0.9605 -0.2282
 9438SOL     OW33443  10.321   8.092   4.926  0.1627  0.1581 -0.7475
 9438SOL    HW133444  10.374   8.108   5.004 -0.7777 -0.1043 -0.0473
 9438SOL    HW233445  10.237   8.133   4.945  0.2095  0.8579 -1.9839
 9439SOL     OW33446  11.225  11.115   9.854  0.5812  0.0016 -0.0905
 9439SOL    HW133447  11.293  11.180   9.836 -1.4429  2.1373 -0.2852
 9439SOL    HW233448  11.143  11.164   9.849 -0.8460 -1.9680  2.5735
 9440SOL     OW33449   4.636   9.760   4.800 -0.3231  0.1633  0.9012
 9440SOL    HW133450   4.727   9.772   4.772  0.1170 -0.7216  1.9463
 9440SOL    HW233451   4.629   9.811   4.881 -1.1523  1.3760  0.0893
 9441SOL     OW33452   3.113   2.715   4.587  0.0415 -0.1293 -0.5470
 9441SOL    HW133453   3.134   2.683   4.675 -2.3829  1.7656  0.8004
 9441SOL    HW233454   3.096   2.809   4.600  1.2510  0.5138 -3.3474
 9442SOL     OW33455   6.448   3.277   0.888 -0.2685  0.2111 -0.0482
 9442SOL    HW133456   6.376   3.251   0.831 -0.5650 -0.0668  0.4540
 9442SOL    HW233457   6.492   3.348   0.840 -0.5473  0.0135 -0.5957
 9443SOL     OW33458   6.316   1.919   5.822  0.0614  0.3737 -0.5501
 9443SOL    HW133459   6.316   1.834   5.778 -0.7347  0.4095 -0.6334
 9443SOL    HW233460   6.389   1.915   5.883 -0.1925 -0.5077 -0.2945
 9444SOL     OW33461   2.808   4.217  11.253 -0.2261  0.7551 -0.5021
 9444SOL    HW133462   2.729   4.191  11.301  0.3352  1.2879  0.7291
 9444SOL    HW233463   2.824   4.307  11.281  0.4737  0.8626 -1.2260
 9445SOL     OW33464   2.181   9.112   7.890  0.0005 -0.3201 -0.0649
 9445SOL    HW133465   2.177   9.121   7.985 -1.5499 -1.7151  0.0401
 9445SOL    HW233466   2.234   9.185   7.860 -0.1942  0.6044  1.8085
 9446SOL     OW33467   4.974  11.258   8.758  0.0939  0.4383 -0.2341
 9446SOL    HW133468   4.921  11.179   8.763  0.7320  0.0756  1.1221
 9446SOL    HW233469   4.934  11.310   8.688 -0.8452 -0.6955 -0.5510
 9447SOL     OW33470   9.087   5.584  10.039  0.5922 -0.9617  0.5043
 9447SOL    HW133471   8.991   5.576  10.031  0.4891  0.4971  0.2041
 9447SOL    HW233472   9.112   5.507  10.089 -1.1290  0.2111  3.3103
 9448SOL     OW33473   4.883   7.085   3.960 -0.0299  0.5551  0.1351
 9448SOL    HW133474   4.830   7.122   4.031  0.1667  0.0000  0.5770
 9448SOL    HW233475   4.839   7.114   3.880 -1.2781 -0.2906  0.4922
 9449SOL     OW33476  11.086   4.227   1.217 -0.8164 -0.6673  0.7947
 9449SOL    HW133477  11.088   4.132   1.219  0.4709 -0.6366  1.4341
 9449SOL    HW233478  11.174   4.253   1.190 -1.2053  0.3330  0.4552
 9450SOL     OW33479   4.050   3.637   1.913  0.0240  0.5243  0.3634
 9450SOL    HW133480   4.119   3.617   1.850 -0.4830  0.1138 -0.0694
 9450SOL    HW233481   3.981   3.574   1.894 -1.1340  1.9407 -0.2688
 9451SOL     OW33482   9.845   1.561   7.220  0.0241  0.1231  0.0597
 9451SOL    HW133483   9.867   1.644   7.177 -0.7334  0.5433  0.4637
 9451SOL    HW233484   9.928   1.515   7.229  0.7161  1.5888  1.4202
 9452SOL     OW33485  10.308   4.147   9.739 -0.3062 -0.1796 -0.1771
 9452SOL    HW133486  10.317   4.142   9.643  0.1882 -0.5870 -0.1132
 9452SOL    HW233487  10.345   4.064   9.770  2.3857  1.2391  0.5549
 9453SOL     OW33488   3.320   2.064  10.912 -0.4454  0.0190 -0.1708
 9453SOL    HW133489   3.320   2.120  10.989  1.2085  1.1345 -0.9637
 9453SOL    HW233490   3.245   2.006  10.924 -1.6584  1.8349  1.0627
 9454SOL     OW33491  10.974   0.465   0.457 -0.0584  0.2363  0.1845
 9454SOL    HW133492  10.964   0.370   0.458  0.6513  0.1544 -0.2972
 9454SOL    HW233493  10.962   0.489   0.365 -0.0837  0.5920  0.2813
 9455SOL     OW33494   6.601   6.739   6.596  0.0250 -0.5492  0.1304
 9455SOL    HW133495   6.535   6.749   6.527  0.8126 -1.5714 -0.7814
 9455SOL    HW233496   6.625   6.647   6.593  1.8813 -0.0839  0.0924
 9456SOL     OW33497   0.071   5.310   3.704  0.3459  0.0133  0.7938
 9456SOL    HW133498   0.016   5.363   3.647  1.0198  0.2652  0.3714
 9456SOL    HW233499   0.011   5.248   3.745 -0.1477 -0.1483 -0.1666
 9457SOL     OW33500   1.499   3.356   8.940 -0.4880  0.3264  0.6537
 9457SOL    HW133501   1.498   3.274   8.989  1.2639  1.0069  1.8758
 9457SOL    HW233502   1.527   3.331   8.852 -1.6799 -0.6117  0.5167
 9458SOL     OW33503   3.698   5.297   4.366  0.6790  0.5805 -0.4243
 9458SOL    HW133504   3.650   5.367   4.412 -0.1376  0.2228 -0.7207
 9458SOL    HW233505   3.715   5.232   4.434 -1.2170 -0.3096 -0.7558
 9459SOL     OW33506   1.947   6.944   3.038 -0.1523 -0.6322 -0.2849
 9459SOL    HW133507   2.029   6.973   2.999 -0.5957  0.1986 -0.6054
 9459SOL    HW233508   1.884   7.014   3.018 -0.5433 -0.4914  1.3717
 9460SOL     OW33509   6.738   8.647   4.804 -0.0355 -0.2497  1.0445
 9460SOL    HW133510   6.819   8.649   4.753 -1.1863 -0.9323 -0.8502
 9460SOL    HW233511   6.685   8.580   4.762 -2.1150  1.1049  1.4620
 9461SOL     OW33512   1.938   0.513   0.140  0.0396 -0.0155 -0.2231
 9461SOL    HW133513   1.852   0.483   0.108 -0.3519  1.1334 -0.2824
 9461SOL    HW233514   1.968   0.575   0.073 -0.0704  1.2171  0.8426
 9462SOL     OW33515   6.860   5.836   0.831 -0.1291  0.2892 -0.2750
 9462SOL    HW133516   6.802   5.843   0.755  0.7174  1.2854 -0.8368
 9462SOL    HW233517   6.948   5.838   0.795  0.3201 -3.4320  0.3769
 9463SOL     OW33518   2.792   3.584   8.783  0.0039 -0.2900  0.1392
 9463SOL    HW133519   2.879   3.625   8.778 -0.5780  0.9026 -0.5481
 9463SOL    HW233520   2.734   3.655   8.811 -0.4444 -1.5530  2.5858
 9464SOL     OW33521   6.933   9.573   0.372  0.0037 -0.0512 -0.7003
 9464SOL    HW133522   7.001   9.507   0.357 -0.7249 -0.6955 -1.1937
 9464SOL    HW233523   6.967   9.626   0.445 -0.5823 -2.6152  1.5221
 9465SOL     OW33524   7.743   3.784   3.555 -0.5457 -0.2931 -0.2190
 9465SOL    HW133525   7.720   3.852   3.492  0.5246  0.7168  0.4838
 9465SOL    HW233526   7.729   3.824   3.641  0.7216 -0.7339  0.2014
 9466SOL     OW33527   9.527   4.821   4.550  0.5850 -0.0209  0.2519
 9466SOL    HW133528   9.523   4.733   4.585 -2.0761 -0.2640 -0.5194
 9466SOL    HW233529   9.503   4.878   4.623  2.4625  0.1144  0.7937
 9467SOL     OW33530   8.647   2.018   6.778 -0.0981 -0.2797 -0.4932
 9467SOL    HW133531   8.742   2.031   6.777 -0.0997 -0.2052 -2.1731
 9467SOL    HW233532   8.633   1.951   6.844  1.1323 -0.2717 -0.2074
 9468SOL     OW33533   0.227   5.349   6.280  0.7092 -0.2795  0.5535
 9468SOL    HW133534   0.203   5.301   6.201 -1.1220 -1.1701  1.6350
 9468SOL    HW233535   0.249   5.281   6.344 -1.0244  0.3253  1.8235
 9469SOL     OW33536  11.285   8.514   5.749 -0.3644 -0.3798  0.1538
 9469SOL    HW133537  11.263   8.422   5.732  1.5057 -1.2588  2.3548
 9469SOL    HW233538  11.207   8.550   5.791 -0.1185 -1.6960  1.7757
 9470SOL     OW33539   3.752   2.482   3.743  0.4932 -0.1159  0.5891
 9470SOL    HW133540   3.682   2.529   3.698  1.1815 -0.4265 -0.8384
 9470SOL    HW233541   3.707   2.414   3.794 -0.1839 -1.2380 -1.4375
 9471SOL     OW33542  11.316  10.227   5.173  0.6006  0.1392 -0.1346
 9471SOL    HW133543  11.400  10.270   5.187  0.4932 -0.0393  1.0548
 9471SOL    HW233544  11.255  10.298   5.156  1.1456  0.2223 -1.8510
 9472SOL     OW33545   3.205   9.063   2.639 -0.0167 -0.5176 -0.5364
 9472SOL    HW133546   3.201   8.969   2.655 -1.1201 -0.3626  0.1398
 9472SOL    HW233547   3.113   9.090   2.631  0.2067  0.8095  1.1039
 9473SOL     OW33548  10.374   2.095   1.755 -0.5346 -0.0996 -0.0353
 9473SOL    HW133549  10.341   2.005   1.757  0.4880 -0.5060 -1.0314
 9473SOL    HW233550  10.455   2.090   1.704 -0.7563  1.4788 -0.5760
 9474SOL     OW33551   9.727   4.490   5.706  0.8045  0.3027  0.6332
 9474SOL    HW133552   9.763   4.452   5.785 -0.3374 -1.3337  0.3974
 9474SOL    HW233553   9.798   4.486   5.642  1.2923  0.3498  1.1776
 9475SOL     OW33554  11.288   3.309   7.477 -0.5023 -0.2575  0.1818
 9475SOL    HW133555  11.311   3.279   7.566 -2.4462 -4.6309 -0.6510
 9475SOL    HW233556  11.362   3.281   7.423 -0.5958 -0.1008 -0.0259
 9476SOL     OW33557   8.427   3.494   1.176  0.9426 -0.0415 -0.5272
 9476SOL    HW133558   8.359   3.445   1.130  0.7390 -1.7113  1.4821
 9476SOL    HW233559   8.383   3.574   1.205 -0.4328 -1.4549  1.4283
 9477SOL     OW33560   6.451   7.505   8.215  0.4120 -0.0476 -0.3320
 9477SOL    HW133561   6.490   7.419   8.200  1.0801  0.3541 -0.8928
 9477SOL    HW233562   6.525   7.561   8.240 -0.1375  0.1722  0.8482
 9478SOL     OW33563   0.001   4.557   4.079 -0.5958 -0.0435 -0.7045
 9478SOL    HW133564  -0.068   4.618   4.054  0.4681  2.2282  1.6084
 9478SOL    HW233565   0.078   4.587   4.030 -1.1214 -2.4691 -3.1530
 9479SOL     OW33566   7.542   6.509   6.904  0.0754  0.4320 -0.2760
 9479SOL    HW133567   7.620   6.482   6.952  0.0850  1.1155  0.0911
 9479SOL    HW233568   7.475   6.444   6.928  0.3522  0.2084 -0.1099
 9480SOL     OW33569   1.660   7.562   4.814 -0.2674 -0.5786 -0.0126
 9480SOL    HW133570   1.667   7.653   4.843 -0.4432 -0.8332  0.8267
 9480SOL    HW233571   1.567   7.550   4.794  0.0172 -0.0881 -1.7481
 9481SOL     OW33572  10.388   2.442   2.517 -0.1088 -0.5669 -0.3269
 9481SOL    HW133573  10.310   2.451   2.570  0.1010 -0.9477  0.0524
 9481SOL    HW233574  10.385   2.515   2.455 -0.8114 -0.6383 -0.3780
 9482SOL     OW33575   9.448   3.203   3.482  0.4169 -0.1383 -0.0208
 9482SOL    HW133576   9.530   3.166   3.515  1.3117  0.0925 -1.9054
 9482SOL    HW233577   9.444   3.173   3.391 -0.4293  1.7799 -0.6298
 9483SOL     OW33578   4.371   4.389   2.809 -0.1491 -0.0561  0.0621
 9483SOL    HW133579   4.304   4.370   2.743 -1.9208 -0.2339  1.8539
 9483SOL    HW233580   4.321   4.424   2.884  2.0988  3.1273  0.1835
 9484SOL     OW33581   7.892   7.318   1.094 -0.1666  0.3237 -0.5075
 9484SOL    HW133582   7.840   7.281   1.023 -2.1032 -0.9087  1.5105
 9484SOL    HW233583   7.830   7.370   1.145  1.5357  2.5023 -0.5757
 9485SOL     OW33584   9.495   1.758   0.755 -0.1927 -0.0217 -0.1667
 9485SOL    HW133585   9.454   1.800   0.830 -0.0899  2.7374 -1.5988
 9485SOL    HW233586   9.424   1.708   0.714 -1.1249  1.3107 -0.2215
 9486SOL     OW33587   3.450   5.357   2.657  0.0298 -0.2069 -0.2738
 9486SOL    HW133588   3.467   5.361   2.752  0.5129 -0.8154 -0.3304
 9486SOL    HW233589   3.523   5.406   2.618 -0.8982  1.2081 -0.2616
 9487SOL     OW33590  10.681   5.829   4.901 -0.3950 -0.1518 -0.1515
 9487SOL    HW133591  10.719   5.897   4.846 -0.6293  0.9292  0.9772
 9487SOL    HW233592  10.589   5.855   4.911 -0.1895  0.0625  1.2970
 9488SOL     OW33593   4.693   2.643   0.435 -0.1330 -0.4990 -0.5973
 9488SOL    HW133594   4.690   2.599   0.520  0.5355  0.1484 -0.2389
 9488SOL    HW233595   4.679   2.572   0.371 -1.1450 -0.9077  0.0626
 9489SOL     OW33596   5.747   3.031   6.884  0.3128 -0.0672  0.0859
 9489SOL    HW133597   5.805   3.104   6.904  1.9879 -1.7247  1.4953
 9489SOL    HW233598   5.738   3.032   6.789  0.0916  2.1183  0.1175
 9490SOL     OW33599   8.574   5.373   6.969  0.1148  0.0887  0.1194
 9490SOL    HW133600   8.487   5.380   6.932 -0.7607 -1.4875  1.8297
 9490SOL    HW233601   8.601   5.464   6.984 -1.4088  0.5601  0.0178
 9491SOL     OW33602   5.355   2.789   3.229 -0.0436  0.5113 -0.6746
 9491SOL    HW133603   5.417   2.836   3.174  0.5339  0.4842 -0.0432
 9491SOL    HW233604   5.269   2.817   3.198  0.2815  0.5801 -1.5196
 9492SOL     OW33605   6.726   6.315   3.076  0.6222  0.2076  0.2906
 9492SOL    HW133606   6.706   6.391   3.022 -2.7936 -1.0350 -0.3201
 9492SOL    HW233607   6.643   6.290   3.115  1.8806 -2.5557  1.3783
 9493SOL     OW33608  10.225   0.368   3.445 -0.2331 -0.4010  0.1033
 9493SOL    HW133609  10.147   0.313   3.445 -0.2455 -0.4028 -1.0175
 9493SOL    HW233610  10.276   0.338   3.369  0.3653  0.2701  0.2281
 9494SOL     OW33611   1.005   1.691   2.237 -0.9452 -0.3529 -0.2875
 9494SOL    HW133612   1.031   1.651   2.320  2.0048 -0.7419 -1.3452
 9494SOL    HW233613   0.927   1.742   2.259  0.9910  1.3179  3.2397
 9495SOL     OW33614   9.514   6.680  10.243  0.0322  0.1277 -0.5674
 9495SOL    HW133615   9.483   6.605  10.294 -0.0190 -0.0361 -0.8370
 9495SOL    HW233616   9.488   6.757  10.294  1.1417 -0.0675  0.3014
 9496SOL     OW33617   8.266   0.559   0.854 -0.1519 -0.3966  0.1691
 9496SOL    HW133618   8.345   0.594   0.895  0.0128  0.1025 -0.5711
 9496SOL    HW233619   8.200   0.627   0.869 -0.7357 -1.2707  1.7221
 9497SOL     OW33620   6.788   1.608   9.792  0.1653 -0.4024 -0.1128
 9497SOL    HW133621   6.745   1.664   9.855 -1.6504 -2.6543  0.7237
 9497SOL    HW233622   6.873   1.587   9.831  1.1030  2.1163 -0.6855
 9498SOL     OW33623   0.238   5.996   1.647  0.1067 -0.5026  0.6748
 9498SOL    HW133624   0.211   6.002   1.739 -0.5032 -0.9052  0.5228
 9498SOL    HW233625   0.218   5.906   1.622 -0.5438 -0.1492 -0.1040
 9499SOL     OW33626   0.362   3.398   1.147  0.9720 -0.2840 -0.2283
 9499SOL    HW133627   0.447   3.438   1.166  1.6511 -1.4534 -0.7183
 9499SOL    HW233628   0.357   3.324   1.208 -0.3743  0.6699  0.8486
 9500SOL     OW33629   6.423   2.175   9.820 -0.1051 -0.2889  0.6603
 9500SOL    HW133630   6.376   2.092   9.828 -0.5167 -0.0118  1.1641
 9500SOL    HW233631   6.403   2.221   9.901  0.8105 -0.0484  0.7509
 9501SOL     OW33632   9.639   6.228   0.280  0.3078 -0.0214  0.6147
 9501SOL    HW133633   9.650   6.241   0.186 -0.6474  1.5230  0.6992
 9501SOL    HW233634   9.707   6.165   0.304  0.1012 -0.9820 -1.2327
 9502SOL     OW33635  10.169   1.894  10.136 -0.1891  0.4258 -0.2693
 9502SOL    HW133636  10.200   1.841  10.063 -0.9795  1.4434 -1.3767
 9502SOL    HW233637  10.247   1.913  10.187  0.1550 -1.5410 -0.0098
 9503SOL     OW33638   4.176   5.463   9.191 -0.0700  0.2799 -0.0902
 9503SOL    HW133639   4.241   5.406   9.232  0.9122  0.9673 -0.6935
 9503SOL    HW233640   4.158   5.422   9.107  0.4372  0.7192 -0.4112
 9504SOL     OW33641   6.624   1.854  11.119 -0.1469  0.1449  0.0424
 9504SOL    HW133642   6.708   1.809  11.115 -0.4060 -0.2386 -1.3420
 9504SOL    HW233643   6.566   1.802  11.063 -1.3308  0.3609  1.0335
 9505SOL     OW33644   7.086   0.159   7.733 -0.1007 -0.4985 -0.7509
 9505SOL    HW133645   7.152   0.170   7.801 -0.8625 -2.7012  0.4003
 9505SOL    HW233646   7.026   0.232   7.745  0.8522  0.2247 -0.3332
 9506SOL     OW33647   6.051   5.544  10.821 -0.2432 -0.1902 -0.5268
 9506SOL    HW133648   6.048   5.580  10.732 -2.3181 -0.2762 -0.5229
 9506SOL    HW233649   5.978   5.483  10.824 -0.9132  0.6760  1.6005
 9507SOL     OW33650   2.786   2.607   5.838  0.5986  0.0545  0.6347
 9507SOL    HW133651   2.710   2.650   5.877  0.5023  0.4617  0.0146
 9507SOL    HW233652   2.794   2.648   5.752  0.4709 -1.1944  0.0129
 9508SOL     OW33653   0.562  10.346   9.923  0.6363 -0.1619 -0.4846
 9508SOL    HW133654   0.616  10.267   9.934  0.6741  0.0786  1.1976
 9508SOL    HW233655   0.472  10.316   9.936  0.6683  0.0910  0.4009
 9509SOL     OW33656   1.493  10.012   4.881 -0.1408 -0.1483  0.1416
 9509SOL    HW133657   1.444  10.063   4.945 -1.2904 -0.3461 -0.5718
 9509SOL    HW233658   1.569   9.979   4.929  0.2258  1.6067  0.7984
 9510SOL     OW33659   7.441   0.488   3.048 -0.3391  0.0102  0.5697
 9510SOL    HW133660   7.430   0.523   2.960 -3.1898 -1.0137  0.4638
 9510SOL    HW233661   7.441   0.393   3.036 -0.6990 -0.1305  1.6607
 9511SOL     OW33662   8.140   2.216   6.199 -0.0351 -0.4233 -0.3296
 9511SOL    HW133663   8.150   2.129   6.237  1.3438 -0.2220 -0.2233
 9511SOL    HW233664   8.057   2.248   6.235  0.2051 -1.0757  0.8422
 9512SOL     OW33665   4.564   2.594   4.419  0.0260 -0.3052  0.1959
 9512SOL    HW133666   4.627   2.592   4.347  0.5311 -1.1602  0.6513
 9512SOL    HW233667   4.591   2.522   4.476  0.5944  1.3198  2.0502
 9513SOL     OW33668   4.919   4.017   7.589 -0.0736  0.1733  0.0526
 9513SOL    HW133669   4.855   4.072   7.544 -2.0357 -2.0587  0.0288
 9513SOL    HW233670   4.867   3.953   7.636  2.1411 -2.4231 -0.8763
 9514SOL     OW33671   1.810   4.708   7.818 -0.0520  0.0183  0.4743
 9514SOL    HW133672   1.744   4.777   7.808  0.2540  0.1856 -0.3864
 9514SOL    HW233673   1.807   4.686   7.911 -0.3714  0.9799  0.6961
 9515SOL     OW33674   0.599   2.525   0.154  0.4748 -0.0282  0.2148
 9515SOL    HW133675   0.573   2.594   0.094 -0.5453 -0.5969 -0.0096
 9515SOL    HW233676   0.681   2.491   0.117  1.2880  1.4297  0.6487
 9516SOL     OW33677   7.241   8.702   3.714 -0.2518 -0.2266 -0.3105
 9516SOL    HW133678   7.190   8.698   3.795 -0.7841  0.5571 -0.5972
 9516SOL    HW233679   7.193   8.646   3.653  0.6142 -1.5047  0.1537
 9517SOL     OW33680   9.809  10.892   7.433  0.2929  0.3186  0.2158
 9517SOL    HW133681   9.855  10.975   7.429 -0.5975  0.8522  0.9874
 9517SOL    HW233682   9.718  10.915   7.452  0.0105 -0.8199  0.3138
 9518SOL     OW33683   5.020   1.978   3.684 -0.6578  0.1898 -0.0649
 9518SOL    HW133684   4.996   2.032   3.759 -0.4658  1.1849 -0.7037
 9518SOL    HW233685   5.085   1.917   3.718  1.7564  2.6479 -0.0670
 9519SOL     OW33686   4.871   0.687   5.723  0.3923 -0.0787 -0.2216
 9519SOL    HW133687   4.864   0.780   5.743  2.3036 -0.1155  0.6910
 9519SOL    HW233688   4.785   0.652   5.744  0.1734  1.1801  1.0396
 9520SOL     OW33689   4.063   1.946   4.079 -0.7237 -0.4184  0.3461
 9520SOL    HW133690   3.990   1.936   4.140 -0.9810 -2.1989 -0.2356
 9520SOL    HW233691   4.079   1.858   4.044  0.2400  0.3382 -1.2200
 9521SOL     OW33692   1.034   1.086   4.015  0.1079  0.2148  0.1525
 9521SOL    HW133693   0.985   1.006   3.997  0.8100 -0.3105  0.5787
 9521SOL    HW233694   1.039   1.090   4.110  3.2723 -1.2005  0.0957
 9522SOL     OW33695   6.585   8.478   0.951 -0.3576  0.5129 -0.8233
 9522SOL    HW133696   6.535   8.399   0.972 -2.4899  1.6769 -1.3632
 9522SOL    HW233697   6.675   8.455   0.971 -1.4149 -0.6764  3.0576
 9523SOL     OW33698   1.237   3.816   0.932  0.1219  0.2987 -0.1630
 9523SOL    HW133699   1.298   3.822   1.006  0.5539 -0.8148 -0.4133
 9523SOL    HW233700   1.222   3.906   0.906  1.1580  0.6254  0.3330
 9524SOL     OW33701   0.547   1.061   6.730 -0.2718  0.3241 -0.6011
 9524SOL    HW133702   0.500   0.985   6.695 -0.0025  0.0484 -0.3716
 9524SOL    HW233703   0.613   1.081   6.663 -0.2828  0.2971 -0.6198
 9525SOL     OW33704   9.949   7.631  10.897  0.3045 -0.2945 -0.7791
 9525SOL    HW133705   9.950   7.586  10.813  0.0671  0.4244 -1.1753
 9525SOL    HW233706   9.856   7.646  10.915  0.3439 -0.6483 -0.2792
 9526SOL     OW33707   7.444   2.784   5.411  0.2010  0.1758 -0.3476
 9526SOL    HW133708   7.425   2.815   5.322  1.9309  0.9878 -0.4458
 9526SOL    HW233709   7.358   2.778   5.453 -0.6712 -0.6281 -2.2042
 9527SOL     OW33710   8.720   2.199   5.419  0.1520 -0.1070 -0.5048
 9527SOL    HW133711   8.695   2.123   5.366 -0.9332 -1.5583  2.0298
 9527SOL    HW233712   8.813   2.186   5.437 -0.9092 -3.1186  3.4086
 9528SOL     OW33713  10.632   0.686   7.396  0.4652 -0.2113  0.5715
 9528SOL    HW133714  10.696   0.755   7.413  0.4949 -0.0888 -0.0140
 9528SOL    HW233715  10.554   0.712   7.446  0.8039 -0.2624  1.1294
 9529SOL     OW33716  10.980   1.512   8.421 -0.1064 -0.1608 -0.1779
 9529SOL    HW133717  11.009   1.550   8.504 -0.3544 -2.9655  1.2697
 9529SOL    HW233718  11.059   1.506   8.368  0.3070  0.3637  0.3752
 9530SOL     OW33719   2.983   6.529   1.663  0.2241 -0.0490 -0.5276
 9530SOL    HW133720   3.018   6.466   1.601  2.9747  0.7960  0.1053
 9530SOL    HW233721   3.037   6.607   1.652 -0.8329  0.9699  1.1883
 9531SOL     OW33722   5.573   0.336   7.449 -0.0567 -0.3719 -0.2194
 9531SOL    HW133723   5.628   0.365   7.521 -0.3177  1.1429 -0.6117
 9531SOL    HW233724   5.621   0.360   7.370 -0.9903  0.4558 -0.5573
 9532SOL     OW33725   6.329   3.653   4.031  0.2060 -0.2628  0.1111
 9532SOL    HW133726   6.312   3.681   4.121  0.5999 -0.4790  0.2566
 9532SOL    HW233727   6.417   3.686   4.012  0.6160 -1.2817  0.2337
 9533SOL     OW33728   5.288  10.259  11.304 -0.1047  0.2050 -0.4688
 9533SOL    HW133729   5.290  10.355  11.299  0.4872  0.0846 -2.9680
 9533SOL    HW233730   5.198  10.239  11.330 -0.1886  1.4164  0.2604
 9534SOL     OW33731   2.062   5.445   0.873  0.5561  0.5020  0.4932
 9534SOL    HW133732   2.117   5.510   0.917  1.1830  0.8571 -0.8055
 9534SOL    HW233733   2.106   5.362   0.889  0.8813  0.6519  0.3583
 9535SOL     OW33734   2.046   6.091   2.079 -0.0798  0.5537  0.0004
 9535SOL    HW133735   1.973   6.125   2.130 -0.2516  0.4923 -0.2019
 9535SOL    HW233736   2.035   5.996   2.080 -0.7216  0.6075 -1.0877
 9536SOL     OW33737   0.900   7.017   2.027  0.2557 -0.2312  0.3894
 9536SOL    HW133738   0.873   7.104   2.056 -0.9198 -0.3671 -0.2791
 9536SOL    HW233739   0.898   6.964   2.106 -1.3369 -0.2054  0.3820
 9537SOL     OW33740   0.802   8.958   4.730  0.2969  0.4970  0.0718
 9537SOL    HW133741   0.775   9.049   4.737  0.8529  0.6345  0.4123
 9537SOL    HW233742   0.892   8.962   4.697  0.8802  0.1301  1.5752
 9538SOL     OW33743   8.711   4.129   9.476 -0.2634  0.2015  0.1652
 9538SOL    HW133744   8.725   4.153   9.568 -0.3342  1.1111 -0.0571
 9538SOL    HW233745   8.689   4.212   9.433 -0.1540 -0.2118 -0.6883
 9539SOL     OW33746   4.717   1.990   2.364  0.1124 -0.5172 -0.6399
 9539SOL    HW133747   4.796   2.044   2.363 -0.0931 -0.1841  0.1774
 9539SOL    HW233748   4.711   1.959   2.455 -1.3644  0.4631 -0.3755
 9540SOL     OW33749   8.208   9.935   5.533  0.2050  0.1294  0.2174
 9540SOL    HW133750   8.267   9.999   5.493 -1.2075  0.2116 -1.7948
 9540SOL    HW233751   8.260   9.855   5.539  0.2711 -0.0592 -2.3714
 9541SOL     OW33752  10.214   4.574   1.988  0.1300  0.2069  0.2784
 9541SOL    HW133753  10.219   4.482   2.014  0.4462  0.0662 -0.2756
 9541SOL    HW233754  10.130   4.581   1.942 -0.6440  0.5563  1.7019
 9542SOL     OW33755   4.540   2.678   5.567  0.4771 -0.4153 -0.4871
 9542SOL    HW133756   4.580   2.600   5.527  5.2063  0.3172  2.3535
 9542SOL    HW233757   4.515   2.649   5.655  1.9507  1.1048  0.4559
 9543SOL     OW33758   6.488   1.054   7.064  0.4347  0.0581  0.4377
 9543SOL    HW133759   6.472   0.959   7.063 -1.6862  0.3977  0.2069
 9543SOL    HW233760   6.475   1.082   6.973  0.2823  0.6902  0.6515
 9544SOL     OW33761   4.086   5.296   3.989  0.4563  0.0758 -0.0130
 9544SOL    HW133762   4.025   5.266   4.057  1.1725  0.2301  0.7027
 9544SOL    HW233763   4.029   5.329   3.920 -0.3517 -2.2600 -0.5170
 9545SOL     OW33764   4.749   2.328   6.681 -0.2950  0.5213  0.0308
 9545SOL    HW133765   4.654   2.339   6.683 -0.4148 -0.7664  2.7318
 9545SOL    HW233766   4.775   2.321   6.773  2.3394  0.1605 -0.6979
 9546SOL     OW33767  10.223   1.268   5.910  0.2010  0.4943  0.5057
 9546SOL    HW133768  10.224   1.331   5.838  0.9948 -1.0092 -0.8327
 9546SOL    HW233769  10.248   1.319   5.987 -3.1678  2.6757  0.2153
 9547SOL     OW33770   2.780  10.554   6.211  0.2657  0.4169  0.3221
 9547SOL    HW133771   2.725  10.513   6.278 -0.5864 -2.1357 -1.8491
 9547SOL    HW233772   2.723  10.618   6.170 -0.6269 -1.1107 -0.8638
 9548SOL     OW33773   4.893   3.364   5.737 -0.2323 -0.2834 -0.2990
 9548SOL    HW133774   4.890   3.441   5.681 -1.1926 -0.4493 -0.4893
 9548SOL    HW233775   4.937   3.297   5.685 -1.0179 -0.4028 -0.8080
 9549SOL     OW33776   1.920   1.710   7.394 -0.2073  0.8106 -0.0295
 9549SOL    HW133777   1.954   1.621   7.400  1.3705  1.3078 -1.3339
 9549SOL    HW233778   1.997   1.767   7.400 -1.3093  2.1846  2.1939
 9550SOL     OW33779   5.230   3.817   2.320  0.1636 -0.2592  0.1568
 9550SOL    HW133780   5.311   3.852   2.356 -0.0021  0.2430  0.0412
 9550SOL    HW233781   5.225   3.728   2.355 -0.3567  0.4540  1.9480
 9551SOL     OW33782   7.660   6.272   2.222 -1.2334 -0.1242 -0.0957
 9551SOL    HW133783   7.640   6.262   2.315  1.8652  0.5707  0.7009
 9551SOL    HW233784   7.648   6.184   2.185 -0.7825 -0.7902  1.3186
 9552SOL     OW33785   7.811  10.145   8.232  0.1053 -0.4302 -1.1985
 9552SOL    HW133786   7.905  10.152   8.247 -0.1098  0.2766 -0.1400
 9552SOL    HW233787   7.799  10.058   8.194  0.9571 -1.3190  0.5133
 9553SOL     OW33788   4.092   0.050   6.489 -0.3881  0.3581 -0.0227
 9553SOL    HW133789   4.118   0.079   6.576  1.3286 -0.3629 -0.2682
 9553SOL    HW233790   4.004   0.015   6.500 -0.2401  0.4314  1.3911
 9554SOL     OW33791   9.793   2.561  10.337  0.8842  0.5263  0.4663
 9554SOL    HW133792   9.789   2.488  10.399  1.5970  0.0321 -0.0671
 9554SOL    HW233793   9.703   2.594  10.334  0.7622  0.3049  1.4609
 9555SOL     OW33794   5.257   6.955   9.331 -0.7366  0.3047  0.1324
 9555SOL    HW133795   5.317   6.984   9.400 -1.5023 -0.8459  1.2989
 9555SOL    HW233796   5.172   6.951   9.373 -0.6202 -3.9079  0.1697
 9556SOL     OW33797   8.163   2.129   3.979  0.3987  0.0151 -0.3686
 9556SOL    HW133798   8.232   2.148   3.915  0.5905  1.8250  0.3634
 9556SOL    HW233799   8.084   2.169   3.942 -0.2577 -1.9173 -1.1285
 9557SOL     OW33800   9.866   4.560   0.238  0.1387 -0.2793 -0.1507
 9557SOL    HW133801   9.894   4.650   0.260 -0.7258  0.0681 -0.4789
 9557SOL    HW233802   9.925   4.505   0.289  1.0503  0.4648 -0.3742
 9558SOL     OW33803   1.399   6.376   6.441 -0.2488  0.0925  0.1699
 9558SOL    HW133804   1.356   6.441   6.496  0.6941 -0.6498  1.8137
 9558SOL    HW233805   1.347   6.297   6.452  0.0489 -0.1073  0.1578
 9559SOL     OW33806   0.687   4.529   0.249 -0.4531  0.6303 -0.0469
 9559SOL    HW133807   0.647   4.543   0.163  1.0253 -0.2317 -0.9051
 9559SOL    HW233808   0.676   4.612   0.295 -0.3459  1.4394 -1.4546
 9560SOL     OW33809   5.213   2.565   5.917 -0.2217 -0.1498 -0.4678
 9560SOL    HW133810   5.288   2.535   5.970 -0.1488 -0.7551 -0.9213
 9560SOL    HW233811   5.239   2.652   5.888 -0.2033  0.1393  0.3833
 9561SOL     OW33812   6.261  11.104   0.571  0.6043  0.0347  0.1707
 9561SOL    HW133813   6.182  11.067   0.531  1.5124 -0.4888 -1.1758
 9561SOL    HW233814   6.232  11.187   0.609 -1.0366 -1.0824  1.4753
 9562SOL     OW33815   8.938  11.316   4.248  0.2079 -0.1493  0.0771
 9562SOL    HW133816   8.943  11.364   4.165  0.3132 -1.1901 -0.5259
 9562SOL    HW233817   8.874  11.365   4.300 -0.1201  0.3120 -0.7489
 9563SOL     OW33818   7.236   7.859   9.873  0.2847 -0.2994 -0.3839
 9563SOL    HW133819   7.315   7.806   9.857  0.0917 -0.5364 -0.5500
 9563SOL    HW233820   7.242   7.931   9.811 -1.2908 -2.0940 -2.7215
 9564SOL     OW33821   7.839   1.797  10.139  0.0978  0.8613  0.2295
 9564SOL    HW133822   7.866   1.710  10.110  1.8016  0.3318  3.1191
 9564SOL    HW233823   7.908   1.824  10.199 -0.6098  4.0757 -0.3284
 9565SOL     OW33824   0.846  10.931   4.910  0.2058  0.5744 -0.0363
 9565SOL    HW133825   0.873  10.896   4.995  0.9432  0.0358 -0.4911
 9565SOL    HW233826   0.759  10.893   4.895  0.6886 -0.4825 -0.1856
 9566SOL     OW33827   8.328   1.040   6.336 -0.1380  0.0942  0.2814
 9566SOL    HW133828   8.326   0.983   6.259 -1.3309 -0.2749  0.5715
 9566SOL    HW233829   8.379   1.116   6.308  1.4502 -1.0948 -0.1155
 9567SOL     OW33830   0.304   4.318   9.344  0.3180  0.0604 -0.7928
 9567SOL    HW133831   0.221   4.346   9.306  0.5584  0.0396 -1.3393
 9567SOL    HW233832   0.346   4.399   9.371 -0.8023 -0.0694  1.4289
 9568SOL     OW33833   1.472  10.340   2.772  0.2092  0.1036  0.0275
 9568SOL    HW133834   1.420  10.327   2.851 -1.9926  0.0378 -1.3846
 9568SOL    HW233835   1.494  10.433   2.773  0.7207 -0.0160  1.0027
 9569SOL     OW33836   8.785   2.401   6.016  0.6070  0.1290 -0.0308
 9569SOL    HW133837   8.835   2.335   6.064 -0.9842  0.1954  1.7501
 9569SOL    HW233838   8.850   2.467   5.992  1.5799 -0.3532  1.2286
 9570SOL     OW33839   8.995   4.604   6.956  0.2145 -0.1476 -0.3868
 9570SOL    HW133840   8.969   4.677   6.900  0.6415 -0.3945 -0.9050
 9570SOL    HW233841   8.920   4.591   7.013 -0.5452 -0.4232 -1.4384
 9571SOL     OW33842  10.055  10.822   8.492 -0.3607 -0.0374 -0.1931
 9571SOL    HW133843  10.067  10.902   8.543  1.3527 -0.9094  0.8236
 9571SOL    HW233844  10.010  10.851   8.413  0.2158  1.9395  0.1648
 9572SOL     OW33845   0.146   6.798   0.746 -0.2655  0.5309  0.1857
 9572SOL    HW133846   0.171   6.808   0.838 -1.5824  2.1276  0.3868
 9572SOL    HW233847   0.063   6.750   0.749 -0.0407  0.1098 -0.2146
 9573SOL     OW33848   1.004   9.363   4.596  0.2295  0.2025 -0.1527
 9573SOL    HW133849   1.092   9.391   4.623  0.3286 -0.3140  0.0606
 9573SOL    HW233850   1.019   9.319   4.512  0.6187 -2.7299  1.4005
 9574SOL     OW33851   0.244   3.673   0.008 -0.1897  0.3701  0.5646
 9574SOL    HW133852   0.261   3.731   0.082 -0.5329  1.0321  0.1278
 9574SOL    HW233853   0.190   3.725  -0.051 -0.9723 -0.5820  0.4254
 9575SOL     OW33854  10.846   4.877   4.471 -0.0717 -0.4606 -0.0229
 9575SOL    HW133855  10.752   4.886   4.489 -0.2465 -0.5758 -0.8414
 9575SOL    HW233856  10.850   4.822   4.392  0.5701  2.0789 -1.8033
 9576SOL     OW33857   8.663   5.093   5.603 -0.2117 -0.0370 -0.8891
 9576SOL    HW133858   8.739   5.150   5.613  0.4630 -1.0744  0.0397
 9576SOL    HW233859   8.596   5.132   5.659  0.0329  0.2193 -0.7780
 9577SOL     OW33860   2.005   6.200   8.583 -0.0114  0.2689 -0.1205
 9577SOL    HW133861   2.091   6.241   8.585  0.4914 -0.8325  1.4194
 9577SOL    HW233862   1.951   6.260   8.531  1.7840  0.7282 -1.4848
 9578SOL     OW33863   3.639   9.766   9.627  0.1680 -0.3934  0.3869
 9578SOL    HW133864   3.592   9.699   9.677 -0.0078  0.9704  2.0876
 9578SOL    HW233865   3.730   9.739   9.630  0.0846 -0.6122  0.9915
 9579SOL     OW33866   2.009   4.982   0.705 -0.2189 -0.1147  0.2956
 9579SOL    HW133867   2.091   5.020   0.674 -0.3066  0.5570  0.8667
 9579SOL    HW233868   1.949   4.989   0.630  0.4316 -1.2195 -0.3370
 9580SOL     OW33869   0.884   4.321   0.239  0.9120 -0.0482 -0.1383
 9580SOL    HW133870   0.828   4.393   0.268  0.6308 -0.2182 -0.2591
 9580SOL    HW233871   0.827   4.266   0.185  1.0902 -0.4304  0.0592
 9581SOL     OW33872  10.438   3.074   0.023  0.3537  0.3805  0.2054
 9581SOL    HW133873  10.351   3.075   0.061  0.5120  1.6553  0.5475
 9581SOL    HW233874  10.441   2.993  -0.028 -0.2534 -0.8170  1.9851
 9582SOL     OW33875   2.029   5.312  11.255 -0.5955 -0.5883  0.5374
 9582SOL    HW133876   2.101   5.342  11.310  0.1232 -0.2477 -0.5535
 9582SOL    HW233877   1.950   5.341  11.300 -0.0548 -1.1731  1.8694
 9583SOL     OW33878   7.133   5.358   5.374 -0.3592  0.4965  0.3331
 9583SOL    HW133879   7.139   5.428   5.309 -1.8322  1.2786  1.0001
 9583SOL    HW233880   7.049   5.374   5.418 -0.9876 -2.0127  0.1239
 9584SOL     OW33881   9.888   1.601   4.936 -0.3559 -0.2919  0.0322
 9584SOL    HW133882   9.921   1.572   5.022 -1.2726 -0.6802  0.2648
 9584SOL    HW233883   9.814   1.658   4.957  0.4575  0.9618 -0.4704
 9585SOL     OW33884  10.006   8.425   7.848 -0.2607 -0.4259  0.3273
 9585SOL    HW133885  10.056   8.500   7.879  2.4813 -1.6643 -0.8849
 9585SOL    HW233886   9.986   8.445   7.756  1.4180 -1.6058 -0.3169
 9586SOL     OW33887   3.327   3.031   4.877 -0.5309 -0.2711  0.6081
 9586SOL    HW133888   3.235   3.059   4.875  0.3971  2.9755  0.1267
 9586SOL    HW233889   3.335   2.969   4.805 -2.0282  0.4971 -0.2456
 9587SOL     OW33890   7.456   6.125   3.489  0.1036  0.3768 -0.3714
 9587SOL    HW133891   7.476   6.172   3.408 -0.5269  0.2790 -0.5859
 9587SOL    HW233892   7.538   6.083   3.513  0.3113  0.4625 -0.9269
 9588SOL     OW33893   1.603   9.773  11.162  0.1644  0.4301  0.5150
 9588SOL    HW133894   1.639   9.835  11.099 -1.7939 -0.0473 -1.0967
 9588SOL    HW233895   1.558   9.707  11.109  1.2870 -1.8192  2.2425
 9589SOL     OW33896   2.586   4.108   8.030  0.4734 -0.5734 -0.0516
 9589SOL    HW133897   2.496   4.094   8.057 -0.6106  0.1186 -3.1644
 9589SOL    HW233898   2.616   4.181   8.083 -0.9060 -0.5785  0.7493
 9590SOL     OW33899   6.202   4.893   5.488 -0.0271  0.1198  0.6481
 9590SOL    HW133900   6.173   4.900   5.397  1.4268  1.6845  0.2673
 9590SOL    HW233901   6.248   4.809   5.492  2.4695  1.3721 -0.8486
 9591SOL     OW33902   2.422   3.700   1.572 -0.2370  0.3165 -0.4073
 9591SOL    HW133903   2.332   3.707   1.542 -1.6069 -0.9165  3.1749
 9591SOL    HW233904   2.465   3.779   1.538 -2.6716  0.9977 -2.0000
 9592SOL     OW33905  10.696   0.396   4.067 -0.6082 -0.0458  0.5116
 9592SOL    HW133906  10.745   0.374   3.988 -1.1775  0.1119  0.1107
 9592SOL    HW233907  10.747   0.466   4.108 -1.0486  0.8451 -0.4560
 9593SOL     OW33908  10.074   1.823   8.944 -0.1650 -0.1996 -0.7283
 9593SOL    HW133909  10.120   1.776   8.874  0.6235 -2.4637  1.2685
 9593SOL    HW233910  10.141   1.878   8.985 -0.3642  0.2292 -0.9701
 9594SOL     OW33911   2.643   4.296   6.275  0.0336  0.0066  0.3650
 9594SOL    HW133912   2.611   4.353   6.346 -0.2724  1.2116 -0.7124
 9594SOL    HW233913   2.640   4.208   6.312 -1.1003  0.5024  1.5175
 9595SOL     OW33914   9.456   5.902   6.729 -0.4782 -0.3032  0.3296
 9595SOL    HW133915   9.487   5.968   6.791 -0.5046 -1.2642  1.3625
 9595SOL    HW233916   9.363   5.890   6.751 -0.0000 -2.0977  1.4152
 9596SOL     OW33917   1.629   0.714   2.833 -0.6435 -0.2319 -0.0514
 9596SOL    HW133918   1.586   0.628   2.840  0.5460 -0.8993 -0.6955
 9596SOL    HW233919   1.573   0.764   2.774 -1.6521 -0.3713  0.7739
 9597SOL     OW33920   7.665  11.190   8.483 -0.4814  0.1375 -0.8254
 9597SOL    HW133921   7.671  11.117   8.544  0.5631 -1.2742 -2.5788
 9597SOL    HW233922   7.698  11.265   8.533 -1.3205 -0.6049  0.8976
 9598SOL     OW33923   3.825   4.403   1.114  0.6401 -0.1793 -0.2576
 9598SOL    HW133924   3.753   4.460   1.087  0.2965 -1.2892 -1.7723
 9598SOL    HW233925   3.901   4.460   1.118  0.0106  0.6735 -0.3408
 9599SOL     OW33926   8.678   6.350   4.924 -0.0944  0.0050 -0.7225
 9599SOL    HW133927   8.745   6.307   4.978  0.0017  0.4895 -0.4576
 9599SOL    HW233928   8.715   6.436   4.905 -1.3944  0.9270  0.8574
 9600SOL     OW33929   3.076   0.568   5.422  0.1188  0.2152  0.3333
 9600SOL    HW133930   3.156   0.587   5.373  0.3409  0.8321  0.9109
 9600SOL    HW233931   3.016   0.533   5.358  0.2318  1.4918 -0.4966
 9601SOL     OW33932   7.175   4.446   4.972  0.5740  0.0864 -0.6099
 9601SOL    HW133933   7.092   4.399   4.985  1.7168 -1.4343  1.4961
 9601SOL    HW233934   7.152   4.538   4.979 -1.0060 -0.3010 -0.4556
 9602SOL     OW33935   6.640   2.546  10.480 -0.5770  0.2530  0.3204
 9602SOL    HW133936   6.729   2.558  10.515 -0.8684 -1.7244  1.8138
 9602SOL    HW233937   6.640   2.457  10.446 -1.3578  0.9921 -1.6603
 9603SOL     OW33938   9.433  11.313   2.121  0.1344  0.4019 -0.7210
 9603SOL    HW133939   9.456  11.340   2.210 -0.5120  0.3102 -0.5208
 9603SOL    HW233940   9.483  11.372   2.065  0.1045  0.8437 -0.2916
 9604SOL     OW33941  11.018   4.479   6.233 -0.7395  0.0435 -0.0148
 9604SOL    HW133942  10.984   4.568   6.220 -1.5254 -0.1472  0.6586
 9604SOL    HW233943  11.063   4.458   6.152 -0.5723  1.0522 -0.1922
 9605SOL     OW33944   4.318  11.169   1.898 -0.3576  0.6947 -0.0428
 9605SOL    HW133945   4.364  11.203   1.820 -0.8275  0.8588 -0.2507
 9605SOL    HW233946   4.249  11.233   1.914 -0.5813  0.3900  0.2029
 9606SOL     OW33947   6.466  10.367  10.641  0.0469  0.0284  0.0631
 9606SOL    HW133948   6.387  10.408  10.677 -1.0958 -0.4479 -1.7882
 9606SOL    HW233949   6.440  10.276  10.625  1.4176 -0.4926  0.7258
 9607SOL     OW33950   7.891   2.432   5.959  0.2849 -0.3617  0.7580
 9607SOL    HW133951   7.883   2.475   5.873 -0.9090  0.3910  1.2430
 9607SOL    HW233952   7.974   2.464   5.994  0.4506 -0.1441  0.1708
 9608SOL     OW33953   8.777   1.476   4.915  0.1527  0.8012 -0.7854
 9608SOL    HW133954   8.749   1.514   4.998  1.0096  0.1794 -0.2023
 9608SOL    HW233955   8.818   1.393   4.939 -1.8235 -0.5838 -2.0642
 9609SOL     OW33956   6.842   0.296   6.637  0.3610 -0.2069  0.2052
 9609SOL    HW133957   6.772   0.243   6.598 -0.0239  0.4408  0.0008
 9609SOL    HW233958   6.823   0.385   6.608  1.7350 -0.1473 -0.4985
 9610SOL     OW33959  10.816   6.280   3.974 -0.2299  0.1282  0.1974
 9610SOL    HW133960  10.756   6.212   4.008 -0.0080 -0.0274  0.2804
 9610SOL    HW233961  10.843   6.329   4.052 -1.0276  0.8289  0.0355
 9611SOL     OW33962   0.784   2.998   3.829  0.5700 -0.0953 -0.1169
 9611SOL    HW133963   0.695   2.966   3.816  0.1803  0.7743  0.4074
 9611SOL    HW233964   0.839   2.934   3.783 -0.2712 -0.9792  0.0902
 9612SOL     OW33965   4.685   3.039   5.284 -0.4556  0.1901  0.5030
 9612SOL    HW133966   4.710   2.980   5.356  0.2065  1.6112  1.4586
 9612SOL    HW233967   4.764   3.047   5.231 -0.1645  1.2242  1.0882
 9613SOL     OW33968   3.704   3.671   5.672  0.2892  0.2618  0.3525
 9613SOL    HW133969   3.671   3.674   5.581  0.0203  1.1653  0.4734
 9613SOL    HW233970   3.792   3.634   5.664  0.4778  0.8348 -0.3465
 9614SOL     OW33971   0.813   2.068   6.697  0.3854 -0.8741  0.1502
 9614SOL    HW133972   0.905   2.047   6.683  0.4096 -1.4441  1.0786
 9614SOL    HW233973   0.799   2.053   6.791 -0.5878 -0.5512  0.0655
 9615SOL     OW33974  10.146   1.322   6.744  0.0116 -0.4939 -0.2979
 9615SOL    HW133975  10.217   1.272   6.784  0.2390 -0.1092 -0.2118
 9615SOL    HW233976  10.188   1.371   6.673 -0.0812  0.0747  0.0344
 9616SOL     OW33977   4.048   2.724   6.190  0.0154 -0.1131  0.5610
 9616SOL    HW133978   4.118   2.781   6.222  0.8579 -1.3397  0.9884
 9616SOL    HW233979   3.987   2.717   6.264  0.8843 -1.2510  1.2063
 9617SOL     OW33980   4.271   8.887   5.251  0.2006 -0.0630  0.4238
 9617SOL    HW133981   4.328   8.916   5.322  1.1091 -0.3010 -0.2023
 9617SOL    HW233982   4.184   8.883   5.290  0.3339  1.8751  0.9581
 9618SOL     OW33983   6.152  10.528  10.675  0.3458  0.3341  0.3979
 9618SOL    HW133984   6.215  10.593  10.642 -1.7567  1.1773 -2.1385
 9618SOL    HW233985   6.151  10.541  10.769  2.2062  1.9061  0.2333
 9619SOL     OW33986   0.920  11.099   9.673  0.0120  0.0804  0.0317
 9619SOL    HW133987   0.954  11.032   9.731  0.1874  0.4810  0.3905
 9619SOL    HW233988   0.992  11.117   9.612 -0.1226 -0.2371 -0.2220
 9620SOL     OW33989   0.786   6.638   9.676 -0.1277  0.1627  0.0443
 9620SOL    HW133990   0.745   6.610   9.595  0.1501 -0.8988  0.2622
 9620SOL    HW233991   0.855   6.699   9.649 -0.8686  0.8096 -0.4177
 9621SOL     OW33992   7.749   7.671   1.547  0.2671 -0.1091 -0.2936
 9621SOL    HW133993   7.835   7.689   1.510 -0.5956  1.0283 -1.7935
 9621SOL    HW233994   7.722   7.754   1.587  0.1140 -0.6319  0.7196
 9622SOL     OW33995   8.624   1.898   7.104  0.1448  0.0469 -0.5446
 9622SOL    HW133996   8.661   1.978   7.142  1.2602 -0.8873  0.4066
 9622SOL    HW233997   8.530   1.909   7.111  0.2998  0.3724  1.5683
 9623SOL     OW33998  10.876   1.783   2.951  0.2488 -0.1772 -0.4310
 9623SOL    HW133999  10.840   1.867   2.924  0.1787 -0.7033 -2.0099
 9623SOL    HW234000  10.816   1.718   2.916  0.3333 -0.8981  0.7363
 9624SOL     OW34001   4.202   5.078  11.174 -0.2172 -0.5022 -0.6371
 9624SOL    HW134002   4.176   5.084  11.266 -0.5864  0.7731 -0.8197
 9624SOL    HW234003   4.138   5.131  11.127  1.8594  1.5466 -1.2387
 9625SOL     OW34004   5.622   1.488   8.380 -0.2617  0.3034 -0.7312
 9625SOL    HW134005   5.598   1.566   8.431  0.7752  0.8421 -1.0522
 9625SOL    HW234006   5.545   1.431   8.386 -0.8075  1.0976 -0.0034
 9626SOL     OW34007   5.958  10.470   4.643  0.3574  0.2739 -0.1395
 9626SOL    HW134008   6.040  10.488   4.689  0.5905 -1.0008 -0.0357
 9626SOL    HW234009   5.963  10.522   4.563 -0.2336  2.8482  1.4176
 9627SOL     OW34010  10.881   5.644   2.277 -0.3368 -0.6589  0.0854
 9627SOL    HW134011  10.960   5.695   2.256 -0.8812  0.5504  0.9391
 9627SOL    HW234012  10.910   5.580   2.342 -0.1054 -0.1141  0.5124
 9628SOL     OW34013   5.037   4.400   2.520 -0.2969 -0.1051 -0.4207
 9628SOL    HW134014   4.954   4.442   2.501 -0.1394 -0.1359 -1.1777
 9628SOL    HW234015   5.014   4.307   2.533 -0.6062  0.1490  1.0016
 9629SOL     OW34016   7.969   2.869   9.484  0.2555  0.5199  1.3780
 9629SOL    HW134017   8.062   2.882   9.502  0.5735  0.5612 -0.1744
 9629SOL    HW234018   7.924   2.904   9.560  1.5018  0.7771  2.0078
 9630SOL     OW34019   4.813   3.593   8.471  0.2429 -0.1352 -0.6364
 9630SOL    HW134020   4.787   3.605   8.379  2.8329  1.8040 -1.2070
 9630SOL    HW234021   4.901   3.555   8.465 -0.3297 -1.7933  1.1061
 9631SOL     OW34022   3.502   5.166   3.447  0.5141 -0.0516  0.0118
 9631SOL    HW134023   3.462   5.169   3.361  1.3767  3.1512 -0.3709
 9631SOL    HW234024   3.428   5.168   3.508 -0.0284  1.9428 -0.6753
 9632SOL     OW34025   8.633   1.107   7.350  0.4369 -0.1558 -0.3601
 9632SOL    HW134026   8.590   1.057   7.419  1.6889 -0.2022  0.3976
 9632SOL    HW234027   8.620   1.055   7.271  1.6005 -1.6216  0.3934
 9633SOL     OW34028  11.124   0.391   9.296  0.3871  0.3378  0.0115
 9633SOL    HW134029  11.046   0.420   9.249 -0.4396 -0.3874  0.9011
 9633SOL    HW234030  11.094   0.317   9.349  1.1180  1.4802  2.1197
 9634SOL     OW34031   5.366   9.711   3.781  0.0619 -0.0878 -0.1856
 9634SOL    HW134032   5.276   9.679   3.774  0.6660 -1.7352 -0.8503
 9634SOL    HW234033   5.369   9.758   3.864 -1.2400 -0.6058  0.1628
 9635SOL     OW34034   9.737   1.989  10.384 -0.8066  0.0829 -0.5786
 9635SOL    HW134035   9.798   1.916  10.389 -1.0185 -0.1621 -1.4110
 9635SOL    HW234036   9.718   2.011  10.475  1.2034  0.7571 -0.3140
 9636SOL     OW34037   4.458  11.202   6.187  0.0174 -0.1280 -0.2307
 9636SOL    HW134038   4.491  11.239   6.105  2.1879  1.0365  1.1064
 9636SOL    HW234039   4.437  11.278   6.241  2.6239 -0.7588  1.8116
 9637SOL     OW34040   2.476   0.364   4.613 -0.1989 -0.2847  0.4982
 9637SOL    HW134041   2.558   0.405   4.641 -0.3691  0.0154  0.5595
 9637SOL    HW234042   2.455   0.303   4.684  0.0694 -0.5032  0.3937
 9638SOL     OW34043   3.435   0.140   9.226  0.0277  0.1012 -0.5296
 9638SOL    HW134044   3.410   0.153   9.318  2.5762  2.8095 -0.1351
 9638SOL    HW234045   3.502   0.071   9.230  1.2554  1.2899 -0.1258
 9639SOL     OW34046  10.204   7.107  10.685  0.4282 -0.2739 -0.2151
 9639SOL    HW134047  10.292   7.125  10.719  0.5705 -1.3822  0.0183
 9639SOL    HW234048  10.174   7.031  10.735 -0.0761 -0.8204 -1.3306
 9640SOL     OW34049  10.946   5.641   5.663  0.9046 -0.2935  0.0560
 9640SOL    HW134050  11.010   5.569   5.663  0.4547 -0.7124  1.3034
 9640SOL    HW234051  10.923   5.652   5.571  2.4822 -0.3930 -0.3710
 9641SOL     OW34052   1.975   2.744   5.065  0.2100 -0.7235  0.8140
 9641SOL    HW134053   1.928   2.735   5.148  0.9547  1.6411  1.5428
 9641SOL    HW234054   2.067   2.729   5.087  0.3682 -0.4210  0.3767
 9642SOL     OW34055   2.432   0.260  10.304 -0.6824 -0.3288  0.3599
 9642SOL    HW134056   2.362   0.197  10.321 -3.0023  2.4445  1.5662
 9642SOL    HW234057   2.407   0.302  10.221 -0.4181  0.6088  0.7438
 9643SOL     OW34058   0.275   4.162   4.402  0.4223  0.7908  0.4895
 9643SOL    HW134059   0.305   4.176   4.492  0.3738  0.6707  0.5249
 9643SOL    HW234060   0.348   4.191   4.348  0.7435  0.1671  0.5815
 9644SOL     OW34061   2.117   3.592   4.172 -0.0292 -0.1060  0.1370
 9644SOL    HW134062   2.178   3.604   4.245 -1.0266 -1.2586  1.1694
 9644SOL    HW234063   2.171   3.555   4.102  0.4230 -1.3312  1.1186
 9645SOL     OW34064   7.764   1.337   9.205  0.1224 -0.3135  0.1696
 9645SOL    HW134065   7.731   1.415   9.250  0.6672 -0.6309  1.1303
 9645SOL    HW234066   7.800   1.371   9.123 -1.2724  0.2183 -0.2400
 9646SOL     OW34067   5.390   3.194   7.384 -0.4313 -0.4759 -0.4119
 9646SOL    HW134068   5.311   3.143   7.401  0.7924 -2.5768 -0.9234
 9646SOL    HW234069   5.435   3.148   7.313  0.4719  1.5819 -1.2306
 9647SOL     OW34070   7.956  10.158   8.814 -0.0938  0.0703  0.1153
 9647SOL    HW134071   7.903  10.098   8.866 -0.7343 -0.4754 -1.1773
 9647SOL    HW234072   7.983  10.226   8.877 -1.4472 -0.2049  1.0045
 9648SOL     OW34073   3.274   3.088   2.048  0.6442 -0.0644  0.1765
 9648SOL    HW134074   3.329   3.101   2.126  1.7862  0.4500 -0.7087
 9648SOL    HW234075   3.184   3.098   2.080  1.1136  0.2779  1.4007
 9649SOL     OW34076   9.740   3.259   1.037  0.6343 -0.0586  0.3380
 9649SOL    HW134077   9.707   3.211   0.961  1.3067 -0.1901  0.1301
 9649SOL    HW234078   9.740   3.194   1.108  0.2555 -0.0048  0.3887
 9650SOL     OW34079   7.218   8.308   9.582 -0.5416 -0.6405  0.7820
 9650SOL    HW134080   7.133   8.343   9.609 -0.3512  1.7713 -1.5285
 9650SOL    HW234081   7.279   8.335   9.651 -1.4704 -1.6104  1.9941
 9651SOL     OW34082  10.349   9.014   9.811 -0.3333 -0.3289  0.0476
 9651SOL    HW134083  10.269   9.034   9.762 -1.0268 -0.8244  0.9565
 9651SOL    HW234084  10.415   8.999   9.743 -0.5348  1.8919 -0.6897
 9652SOL     OW34085   3.892  11.067  10.567 -0.8105 -0.1933  0.1519
 9652SOL    HW134086   3.940  11.133  10.617 -1.0624 -0.1115  0.2867
 9652SOL    HW234087   3.959  11.024  10.514 -0.9940  1.8772 -1.8694
 9653SOL     OW34088   5.747   4.714   6.268 -0.1639 -0.0169  0.1470
 9653SOL    HW134089   5.817   4.778   6.273  1.6909 -1.9129 -0.9692
 9653SOL    HW234090   5.721   4.714   6.176  0.4205 -1.4545 -0.0229
 9654SOL     OW34091   6.516   3.178   7.838  0.3858  0.0696  0.1385
 9654SOL    HW134092   6.436   3.210   7.796  0.2280 -0.7639 -0.2109
 9654SOL    HW234093   6.486   3.137   7.919  0.1109 -2.7827 -1.3452
 9655SOL     OW34094   8.811   2.019   1.884 -0.0635  0.1480 -0.0437
 9655SOL    HW134095   8.809   2.036   1.978 -0.9715  1.6637 -0.3102
 9655SOL    HW234096   8.790   1.926   1.875  0.1499 -0.0297  1.2560
 9656SOL     OW34097  10.305   2.463  10.653  0.3157  0.4459 -0.2052
 9656SOL    HW134098  10.327   2.371  10.637  1.0011  0.5571  0.0894
 9656SOL    HW234099  10.230   2.479  10.596 -1.6373 -1.1009  1.8638
 9657SOL     OW34100   2.813   4.799   1.091 -0.6004 -0.2578 -0.0118
 9657SOL    HW134101   2.852   4.763   1.170 -0.4047 -0.6280 -0.2780
 9657SOL    HW234102   2.765   4.877   1.121  0.8448  0.5566  0.2370
 9658SOL     OW34103   5.155   8.238   0.600 -0.0202  0.0151 -0.1055
 9658SOL    HW134104   5.146   8.150   0.561 -1.7637  0.4569 -0.7314
 9658SOL    HW234105   5.238   8.270   0.566  0.1620 -1.0129 -0.6584
 9659SOL     OW34106  10.070   0.093   4.801  0.0376  0.1499  0.5095
 9659SOL    HW134107  10.013   0.024   4.768 -0.0185  0.4078  0.0688
 9659SOL    HW234108  10.131   0.048   4.860 -1.6783  0.1183  2.3106
 9660SOL     OW34109   5.973   8.250   0.452  0.1196 -0.4622 -0.1243
 9660SOL    HW134110   6.004   8.181   0.511  2.3922  0.4656 -0.1885
 9660SOL    HW234111   5.939   8.318   0.510  2.0402  0.3012  0.1571
 9661SOL     OW34112   9.061   1.512   4.632 -0.1135  0.0977  0.0956
 9661SOL    HW134113   9.091   1.468   4.552  1.4032 -1.5810  1.5368
 9661SOL    HW234114   8.983   1.464   4.658 -0.0697  0.0507  0.1400
 9662SOL     OW34115   6.014   9.597   9.724  0.2644  0.4795  0.7140
 9662SOL    HW134116   6.076   9.530   9.693  2.1258  2.1823  0.6014
 9662SOL    HW234117   6.017   9.664   9.655 -1.3318  0.8280  0.9793
 9663SOL     OW34118   2.394   2.632   7.455 -0.2019  0.6258  0.0805
 9663SOL    HW134119   2.428   2.576   7.385  0.0525  0.9484 -0.0506
 9663SOL    HW234120   2.316   2.586   7.485 -0.9625  1.0466 -1.1820
 9664SOL     OW34121   4.985   5.614   3.577  0.2517 -0.1286 -0.4817
 9664SOL    HW134122   4.979   5.530   3.532  1.0163 -0.2387 -0.3767
 9664SOL    HW234123   4.903   5.620   3.626  0.0451 -0.6561 -0.7530
 9665SOL     OW34124   2.402   0.549   2.509  0.1866 -0.1306 -0.7913
 9665SOL    HW134125   2.314   0.559   2.546  0.8249 -0.9101  1.0293
 9665SOL    HW234126   2.460   0.570   2.582  1.5100  0.0991 -1.9052
 9666SOL     OW34127   7.023   0.064   5.888 -0.1830 -0.3467  0.1464
 9666SOL    HW134128   6.935   0.102   5.889 -0.3413 -0.5328 -2.2715
 9666SOL    HW234129   7.072   0.116   5.951 -1.8163  0.3020  0.9200
 9667SOL     OW34130   0.295   2.942   8.425  0.3869 -0.8404  0.1813
 9667SOL    HW134131   0.364   2.900   8.374  0.0805 -0.6629 -0.3841
 9667SOL    HW234132   0.321   3.034   8.429  1.1927 -1.1156  1.6409
 9668SOL     OW34133   2.319   0.230   6.089 -0.5722 -0.2770  0.1358
 9668SOL    HW134134   2.339   0.244   6.181  1.1148 -0.6699 -0.1427
 9668SOL    HW234135   2.260   0.301   6.065  1.5286  1.7074  0.7227
 9669SOL     OW34136   0.917   4.821   7.758 -0.3480  0.2026 -0.0043
 9669SOL    HW134137   0.932   4.891   7.694 -0.3057  0.1718 -0.0274
 9669SOL    HW234138   0.903   4.866   7.841  0.0464  0.2217  0.0504
 9670SOL     OW34139   2.492   8.352   4.470  0.0917  0.2032  0.0981
 9670SOL    HW134140   2.493   8.293   4.394 -1.2354  0.2276  0.0506
 9670SOL    HW234141   2.463   8.436   4.434  1.0386  0.6502  0.3483
 9671SOL     OW34142   9.898   0.491   0.929 -0.0474  0.1041 -0.6362
 9671SOL    HW134143   9.871   0.471   1.019  2.9635  0.5860  0.4383
 9671SOL    HW234144   9.871   0.582   0.916 -1.8859 -0.4421 -0.8085
 9672SOL     OW34145   4.334   3.989   0.893  0.8858  0.7207  0.1433
 9672SOL    HW134146   4.317   4.045   0.969 -0.7492  1.9738 -1.1029
 9672SOL    HW234147   4.430   3.989   0.884  1.0681  0.9577  1.8787
 9673SOL     OW34148   1.570   5.293  11.071  0.6789  0.0890 -0.3888
 9673SOL    HW134149   1.627   5.216  11.072 -1.1469 -1.3035 -0.1384
 9673SOL    HW234150   1.535   5.295  10.982 -0.5914 -0.3804  0.0905
 9674SOL     OW34151   7.087   0.577   1.768  0.1870 -0.2328  0.3124
 9674SOL    HW134152   7.092   0.647   1.703  0.8346  0.2507  0.8782
 9674SOL    HW234153   7.132   0.503   1.727  0.2047 -0.0690  0.0345
 9675SOL     OW34154   4.656   0.013   1.632 -0.4702  0.0835 -0.2226
 9675SOL    HW134155   4.707  -0.040   1.693 -1.4189 -0.1295  0.3839
 9675SOL    HW234156   4.719   0.078   1.599  0.6331 -1.2566 -0.7918
 9676SOL     OW34157  10.312   0.193   8.353  0.0216 -0.1603 -0.1943
 9676SOL    HW134158  10.385   0.135   8.330 -0.2156 -0.4557 -0.2139
 9676SOL    HW234159  10.234   0.145   8.323 -0.1930  0.0626  0.0100
 9677SOL     OW34160   1.446   1.172   4.892  0.4329 -0.2777 -0.0391
 9677SOL    HW134161   1.418   1.173   4.801  2.1191 -1.4719 -0.6039
 9677SOL    HW234162   1.469   1.262   4.911  2.6960 -0.4672 -1.6789
 9678SOL     OW34163   2.911   5.424   9.283  0.0377  0.5470 -0.3197
 9678SOL    HW134164   2.891   5.482   9.209 -0.8763 -0.3214 -0.7677
 9678SOL    HW234165   3.005   5.407   9.276 -0.0017  0.6547 -1.1612
 9679SOL     OW34166   6.021  10.840   5.477 -0.0258 -0.1956  0.6662
 9679SOL    HW134167   5.943  10.895   5.472  0.5600  0.6983  1.2384
 9679SOL    HW234168   6.030  10.803   5.390  0.0091  1.2258  0.0545
 9680SOL     OW34169   3.952   1.505   2.455  0.3690 -0.5511 -0.1223
 9680SOL    HW134170   3.898   1.582   2.473 -1.0723 -1.2852 -1.1860
 9680SOL    HW234171   4.017   1.535   2.391 -0.3637 -0.2776 -0.7482
 9681SOL     OW34172   9.204   3.480   0.685  0.0283 -0.2517  0.4554
 9681SOL    HW134173   9.281   3.460   0.739  0.9953 -0.9698 -1.1666
 9681SOL    HW234174   9.137   3.418   0.715  0.7004 -0.9502  0.5166
 9682SOL     OW34175   4.653   6.984   2.416  0.0508 -0.4039 -0.1091
 9682SOL    HW134176   4.560   6.986   2.439 -0.4250 -1.5803 -1.8559
 9682SOL    HW234177   4.655   6.977   2.321  1.9445  0.1425 -0.1414
 9683SOL     OW34178   6.306   2.644   2.975  0.0552  0.3955 -0.0470
 9683SOL    HW134179   6.228   2.696   2.955  0.0115  0.4393  0.2333
 9683SOL    HW234180   6.291   2.561   2.930  0.1843  0.6740 -0.6008
 9684SOL     OW34181   8.957  10.221   5.837 -0.1054 -0.3422 -0.4459
 9684SOL    HW134182   9.027  10.201   5.775  2.1908  1.3596  1.4981
 9684SOL    HW234183   8.876  10.197   5.791  1.5247  0.6864 -4.0037
 9685SOL     OW34184   1.727   6.885   8.431 -0.2421  0.1821  0.1489
 9685SOL    HW134185   1.700   6.879   8.522 -3.0380 -0.6862 -0.7010
 9685SOL    HW234186   1.659   6.840   8.382  1.1722  0.6951 -2.3968
 9686SOL     OW34187   5.080   0.037   7.083  0.1560  0.5860 -0.3031
 9686SOL    HW134188   5.148   0.048   7.149  0.1409 -3.4325  0.5112
 9686SOL    HW234189   5.126   0.006   7.006 -0.1225  3.1681 -1.5729
 9687SOL     OW34190   0.001  11.051   1.177  0.1106 -0.0785 -0.1576
 9687SOL    HW134191   0.032  10.964   1.200  0.1409  0.6258  2.6804
 9687SOL    HW234192   0.074  11.091   1.129  0.7648 -0.9861  0.0732
 9688SOL     OW34193   3.275   0.930   4.768  0.5322 -0.0938  0.5156
 9688SOL    HW134194   3.329   1.004   4.740  0.6524 -0.2531  0.3224
 9688SOL    HW234195   3.325   0.853   4.743  1.1810 -0.2511  2.2563
 9689SOL     OW34196   0.038   4.012   4.051  0.3557  0.0595 -0.1192
 9689SOL    HW134197  -0.045   3.969   4.072 -0.1614  1.2543  0.3762
 9689SOL    HW234198   0.025   4.047   3.963 -0.2521  1.5651  0.5397
 9690SOL     OW34199   6.614   6.981   5.293  0.5220  0.1218  0.1556
 9690SOL    HW134200   6.567   7.062   5.314  1.9567  1.0460 -0.0616
 9690SOL    HW234201   6.598   6.967   5.200  2.2201  1.5057 -0.3713
 9691SOL     OW34202   0.279   2.976   3.063 -0.3068 -0.4301 -0.1207
 9691SOL    HW134203   0.326   2.901   3.100 -0.3451 -0.5578 -0.3233
 9691SOL    HW234204   0.347   3.037   3.035 -0.2675 -0.5051 -0.1894
 9692SOL     OW34205   4.169   9.812   2.995 -0.4027  0.2921  0.0274
 9692SOL    HW134206   4.255   9.790   3.031 -1.6798 -0.6924  2.6192
 9692SOL    HW234207   4.163   9.759   2.915  0.8362 -0.7075  0.5614
 9693SOL     OW34208   8.442   0.953   8.197  0.1530 -0.1302 -0.0391
 9693SOL    HW134209   8.410   0.975   8.284 -0.4443  0.5762 -0.4366
 9693SOL    HW234210   8.440   0.857   8.195  0.4118 -0.1624  0.8088
 9694SOL     OW34211   0.329   7.624   6.301  0.9032  0.0852  0.2306
 9694SOL    HW134212   0.267   7.697   6.288  0.4267  0.1182  2.5147
 9694SOL    HW234213   0.412   7.667   6.324  1.9787  0.0630 -3.3371
 9695SOL     OW34214   2.235   6.321   6.250  0.7214 -0.4517  0.4116
 9695SOL    HW134215   2.247   6.394   6.310 -1.6047 -1.2287  1.8850
 9695SOL    HW234216   2.140   6.317   6.236  0.8475 -2.9539  0.1010
 9696SOL     OW34217   5.988   5.833   5.651  0.2692  0.6406  0.3360
 9696SOL    HW134218   6.042   5.893   5.600 -0.5242  0.4802 -0.7176
 9696SOL    HW234219   6.044   5.757   5.666  1.1872  1.5414  1.4505
 9697SOL     OW34220   9.033   7.349   1.966 -0.1908  0.0894 -0.2254
 9697SOL    HW134221   9.072   7.436   1.961  0.7230 -0.3517 -0.7073
 9697SOL    HW234222   9.005   7.341   2.057 -0.0330  0.7710 -0.1122
 9698SOL     OW34223  11.137  10.542   2.440  0.0781 -0.0258  0.3052
 9698SOL    HW134224  11.067  10.594   2.400  0.9613  1.3855  0.5598
 9698SOL    HW234225  11.094  10.461   2.468 -0.9449 -0.2100 -1.7404
 9699SOL     OW34226   1.638   5.174  10.537 -0.1897 -0.2235  0.2910
 9699SOL    HW134227   1.718   5.144  10.494 -0.7800 -1.6812  0.1715
 9699SOL    HW234228   1.571   5.170  10.469 -0.4275  0.7579  0.4581
 9700SOL     OW34229   5.947   3.199   1.657 -0.0901  0.2117 -0.0424
 9700SOL    HW134230   5.962   3.151   1.739 -0.4074  1.1232  0.5608
 9700SOL    HW234231   6.034   3.209   1.619  0.0167 -0.5285  0.0066
 9701SOL     OW34232   3.191   5.969   2.937 -0.0760  0.3021  0.4664
 9701SOL    HW134233   3.177   5.915   3.014 -2.9498  2.6598  1.6717
 9701SOL    HW234234   3.110   5.961   2.886  0.0582  2.2218 -0.0937
 9702SOL     OW34235  10.595   8.565   1.758  0.1799  0.4110  0.5932
 9702SOL    HW134236  10.532   8.636   1.748  0.1642  0.4506  0.9635
 9702SOL    HW234237  10.597   8.523   1.672  0.6386  1.2259  0.1996
 9703SOL     OW34238   5.567   2.994   1.243  0.2106 -0.4237  0.0209
 9703SOL    HW134239   5.557   2.900   1.257 -0.0895 -0.0983  2.1048
 9703SOL    HW234240   5.492   3.018   1.189 -0.3204 -1.2046  0.3909
 9704SOL     OW34241   4.041   1.388   2.835  0.2552 -0.4719  0.4013
 9704SOL    HW134242   3.946   1.391   2.825  0.2255 -0.3815  0.6913
 9704SOL    HW234243   4.057   1.310   2.887  0.2200  0.3308  1.6458
 9705SOL     OW34244   8.174   0.346   1.600  0.4423  0.0086  0.5209
 9705SOL    HW134245   8.250   0.343   1.542 -0.2829 -1.3141 -0.4138
 9705SOL    HW234246   8.209   0.371   1.685  2.0063 -1.0946  0.2337
 9706SOL     OW34247   4.202   6.104   8.694 -0.3784  0.3150  0.4470
 9706SOL    HW134248   4.120   6.141   8.727 -1.4225 -0.7229 -0.9417
 9706SOL    HW234249   4.185   6.010   8.687  0.7337  0.1666 -0.4131
 9707SOL     OW34250   5.011   3.494   0.802  0.2616 -0.6442  0.4037
 9707SOL    HW134251   5.003   3.529   0.891 -1.3524  1.7991 -0.6413
 9707SOL    HW234252   4.930   3.444   0.790 -0.6275  0.9767 -0.4822
 9708SOL     OW34253   0.294   3.677   2.875  0.1982  0.0869 -0.6275
 9708SOL    HW134254   0.380   3.637   2.859 -0.4748 -2.1086  1.0503
 9708SOL    HW234255   0.314   3.758   2.922  1.2177 -2.7128  4.1022
 9709SOL     OW34256   0.214   5.807   0.712 -0.0395  0.2545  0.4813
 9709SOL    HW134257   0.176   5.885   0.672 -1.0346 -0.5770 -0.2053
 9709SOL    HW234258   0.149   5.780   0.777 -0.3111 -0.7801 -0.2224
 9710SOL     OW34259   2.825  11.258   5.361  0.2173  0.4170  0.0588
 9710SOL    HW134260   2.865  11.172   5.348  0.0975  0.2869  0.5408
 9710SOL    HW234261   2.807  11.262   5.455  1.8209  1.6576  0.3446
 9711SOL     OW34262   6.685  11.025   5.241 -0.0157 -0.2557  0.2132
 9711SOL    HW134263   6.642  11.068   5.315 -2.1705  0.3477 -1.3236
 9711SOL    HW234264   6.694  11.094   5.176  1.5315 -0.8682 -0.2323
 9712SOL     OW34265   0.710  10.913   4.366 -0.1793 -0.3084 -0.5541
 9712SOL    HW134266   0.757  10.963   4.433 -1.0526 -0.3175  0.0742
 9712SOL    HW234267   0.718  10.822   4.394 -0.5919 -0.3072 -0.4285
 9713SOL     OW34268  10.448   6.783   4.517  0.0096  0.1843 -0.4950
 9713SOL    HW134269  10.538   6.772   4.545 -0.1272 -1.6093 -0.6527
 9713SOL    HW234270  10.446   6.747   4.428 -1.5577 -3.0135  0.7534
 9714SOL     OW34271   5.011   4.379  10.733  0.1301  0.1328 -0.0545
 9714SOL    HW134272   4.989   4.472  10.728  0.9980  0.3559  0.1913
 9714SOL    HW234273   4.970   4.340  10.655  1.6673  1.1224 -1.3868
 9715SOL     OW34274   8.941   2.859  10.146 -0.0300 -0.3796 -0.2037
 9715SOL    HW134275   8.898   2.870  10.230  1.0544  0.6752  0.2251
 9715SOL    HW234276   8.985   2.774  10.152 -0.5810 -0.6512  0.0034
 9716SOL     OW34277   6.115   0.284   7.085 -1.3356  0.2190 -0.2793
 9716SOL    HW134278   6.179   0.240   7.029  1.2436  1.4853  1.5893
 9716SOL    HW234279   6.056   0.214   7.114  1.8250 -1.8192  1.4950
 9717SOL     OW34280   6.506   6.046   3.806  0.1700 -0.1028  0.1311
 9717SOL    HW134281   6.535   6.062   3.716 -1.7602  0.7090 -0.3859
 9717SOL    HW234282   6.432   5.985   3.796 -0.9532  1.0920  1.0378
 9718SOL     OW34283   0.239   4.059   2.001  0.5724  0.2015 -0.2121
 9718SOL    HW134284   0.172   4.117   2.038  0.3917  0.3768 -0.8053
 9718SOL    HW234285   0.191   4.004   1.938  0.7332 -0.6222  0.3758
 9719SOL     OW34286   0.584   4.156  10.411 -0.2735 -0.1252 -0.1442
 9719SOL    HW134287   0.622   4.175  10.325 -0.5317 -1.4907 -0.5632
 9719SOL    HW234288   0.594   4.238  10.460 -1.1404  1.0116 -1.8317
 9720SOL     OW34289   9.163   3.665   4.198 -0.5920 -0.3326 -0.1842
 9720SOL    HW134290   9.182   3.572   4.187 -0.5622 -0.2756 -0.6361
 9720SOL    HW234291   9.161   3.679   4.293  1.2032 -0.4173 -0.1099
 9721SOL     OW34292   7.446   7.528   0.470  0.0945 -0.0530  0.1272
 9721SOL    HW134293   7.533   7.494   0.492 -0.3333 -0.9441  0.4789
 9721SOL    HW234294   7.461   7.619   0.443  0.9193  0.4094  2.0328
 9722SOL     OW34295   0.834   8.236  10.345 -0.3408  0.1755  0.2123
 9722SOL    HW134296   0.918   8.261  10.306 -1.5161 -1.7498 -3.8446
 9722SOL    HW234297   0.850   8.150  10.384 -0.2546  0.1366  0.0907
 9723SOL     OW34298  10.742   1.338   3.028 -0.0215  0.0960  0.1577
 9723SOL    HW134299  10.700   1.393   2.962 -0.5179 -1.9693 -1.3083
 9723SOL    HW234300  10.828   1.319   2.992 -0.6196 -1.7555 -0.3286
 9724SOL     OW34301   2.489   0.866   1.121  0.0125  0.9556 -0.0672
 9724SOL    HW134302   2.485   0.913   1.038 -3.1845 -1.5926 -1.4741
 9724SOL    HW234303   2.416   0.901   1.172 -0.7403 -0.5050 -0.0928
 9725SOL     OW34304   8.803   5.708   2.858 -0.0983  0.3798  0.0124
 9725SOL    HW134305   8.743   5.638   2.884  0.2491 -0.0185 -0.2586
 9725SOL    HW234306   8.748   5.787   2.858 -0.2654  0.2798  1.2883
 9726SOL     OW34307   3.896   8.376   0.131  0.0869  0.0811 -0.1870
 9726SOL    HW134308   3.855   8.337   0.054  0.6030 -1.2785  0.2097
 9726SOL    HW234309   3.975   8.324   0.145 -0.0382  0.2661  1.2929
 9727SOL     OW34310  11.146   7.216  10.733  0.3215  0.5598 -0.6286
 9727SOL    HW134311  11.073   7.176  10.686  0.6096 -2.1380  1.1146
 9727SOL    HW234312  11.212   7.232  10.666 -1.7007  2.7522 -2.1791
 9728SOL     OW34313   5.261   3.041  10.213 -0.5293 -0.4553  0.4629
 9728SOL    HW134314   5.179   2.992  10.206 -1.0244  0.4869 -0.5283
 9728SOL    HW234315   5.248   3.118  10.157  1.3560 -0.7487 -0.4150
 9729SOL     OW34316   1.388   2.959   4.207  0.2612 -0.3635  0.0282
 9729SOL    HW134317   1.457   2.902   4.242 -0.9892 -2.1538 -0.3441
 9729SOL    HW234318   1.314   2.946   4.265 -0.4809 -0.1546 -0.8592
 9730SOL     OW34319   1.993   5.473   7.407 -0.3012  0.1828 -0.0360
 9730SOL    HW134320   1.917   5.425   7.376  1.0974 -3.7743  2.3953
 9730SOL    HW234321   1.966   5.512   7.490  0.2719 -1.2418  0.8395
 9731SOL     OW34322  11.049   9.964   9.010 -0.0330  0.5815 -0.6566
 9731SOL    HW134323  11.090   9.919   8.936 -1.6193  0.2935 -1.3790
 9731SOL    HW234324  11.054   9.900   9.081 -2.4715 -0.8875 -1.7386
 9732SOL     OW34325   7.901   1.572   6.546 -0.0482 -0.0942  0.0855
 9732SOL    HW134326   7.841   1.640   6.576  1.1008  1.2690 -0.6159
 9732SOL    HW234327   7.984   1.618   6.532  0.5149 -1.4634 -1.2523
 9733SOL     OW34328   3.461   1.087   8.102  0.0292  0.8113  0.2555
 9733SOL    HW134329   3.543   1.129   8.078  0.1522 -0.6923 -2.0305
 9733SOL    HW234330   3.487   1.009   8.151  0.0437 -0.2530 -1.3984
 9734SOL     OW34331   3.532   5.564   3.015 -0.3975  0.4698 -0.0045
 9734SOL    HW134332   3.469   5.636   3.013 -0.4153  0.4665  0.3309
 9734SOL    HW234333   3.617   5.607   3.005 -0.4085  0.5370  0.1866
 9735SOL     OW34334   5.050   8.430   0.404 -0.2609  0.3388 -0.1931
 9735SOL    HW134335   5.087   8.366   0.464  0.1801  0.5606 -0.2299
 9735SOL    HW234336   5.097   8.511   0.423 -0.0584  0.3905 -0.8954
 9736SOL     OW34337   9.816   7.152   9.346 -0.2198 -0.0703 -0.2937
 9736SOL    HW134338   9.740   7.094   9.338 -0.5312  0.1284  1.0838
 9736SOL    HW234339   9.825   7.165   9.440  1.1708  0.3820 -0.4912
 9737SOL     OW34340   3.001   3.441   2.988  0.9160  0.7316  0.3675
 9737SOL    HW134341   3.079   3.497   2.981 -0.0490  2.0726  0.3174
 9737SOL    HW234342   2.930   3.495   2.954  0.4669 -1.5952 -2.6006
 9738SOL     OW34343   6.482   0.382  11.071  0.1753 -0.0088  0.2341
 9738SOL    HW134344   6.576   0.365  11.078  0.0470 -0.0951  2.0649
 9738SOL    HW234345   6.459   0.418  11.157 -1.4836 -0.0902 -0.1790
 9739SOL     OW34346   7.071   5.705   1.206  0.0066  0.2401 -0.4940
 9739SOL    HW134347   7.122   5.694   1.126  0.3648  0.0854 -0.2458
 9739SOL    HW234348   6.986   5.737   1.177  0.5979  1.5101 -0.8176
 9740SOL     OW34349   3.849   1.565   7.512  0.2047  0.4051 -0.2774
 9740SOL    HW134350   3.867   1.644   7.563 -1.1329  0.7464 -0.3097
 9740SOL    HW234351   3.935   1.535   7.484  0.8260  1.1898  0.7170
 9741SOL     OW34352   1.345   0.905   7.394  0.0468  0.3127  0.0744
 9741SOL    HW134353   1.404   0.918   7.319 -1.4459  0.4335 -1.1022
 9741SOL    HW234354   1.395   0.938   7.469  0.3777  3.1887 -1.3041
 9742SOL     OW34355   8.280   8.810  10.788  0.0265  0.4219  0.0569
 9742SOL    HW134356   8.314   8.817  10.877  0.0976  1.2203 -0.0226
 9742SOL    HW234357   8.185   8.803  10.798  0.1482 -1.1867  0.2583
 9743SOL     OW34358   6.301   8.552   1.219  0.2866  0.8061  0.0606
 9743SOL    HW134359   6.228   8.508   1.262  1.4840 -1.7259 -0.3927
 9743SOL    HW234360   6.331   8.617   1.283 -0.3013 -0.3778  1.5702
 9744SOL     OW34361   3.919   4.912  10.525 -0.1253  0.1094 -0.1002
 9744SOL    HW134362   3.910   4.967  10.602 -2.0789  0.3078 -0.4362
 9744SOL    HW234363   3.899   4.824  10.557  1.1240 -0.1235  0.0461
 9745SOL     OW34364   2.244   7.996  11.268  0.1762  0.4544 -0.1607
 9745SOL    HW134365   2.242   7.904  11.240 -0.5146  0.3818  0.0981
 9745SOL    HW234366   2.329   8.007  11.311  1.1016  0.4813 -1.9787
 9746SOL     OW34367   0.964   7.732   6.241  0.3488 -0.1290 -0.9313
 9746SOL    HW134368   1.039   7.777   6.282  0.7680 -0.0958 -1.7270
 9746SOL    HW234369   0.899   7.801   6.228  0.0700 -0.2035 -0.0059
 9747SOL     OW34370   4.845   9.272   1.739  0.3888 -0.0332  0.2475
 9747SOL    HW134371   4.862   9.340   1.805  1.2654 -0.3765  0.3790
 9747SOL    HW234372   4.931   9.235   1.721 -0.2185 -1.7844  0.8938
 9748SOL     OW34373   2.558   9.636   3.027 -0.1831 -0.4674 -0.0685
 9748SOL    HW134374   2.581   9.722   3.063 -0.0128 -0.4167 -0.2965
 9748SOL    HW234375   2.503   9.656   2.952 -0.6500 -0.5764  0.2464
 9749SOL     OW34376   7.793   7.519   0.013 -0.0267 -0.3807 -0.1919
 9749SOL    HW134377   7.820   7.432   0.040 -0.7711 -0.5105  0.1364
 9749SOL    HW234378   7.840   7.578   0.072 -2.7746 -0.6978  2.4745
 9750SOL     OW34379   8.632   3.444   4.895 -0.1845 -0.0128  0.0096
 9750SOL    HW134380   8.702   3.397   4.941 -0.7061 -1.0257 -0.2392
 9750SOL    HW234381   8.673   3.472   4.813 -0.8964 -3.1191 -1.4413
 9751SOL     OW34382   5.535   1.849   9.063 -0.1436  0.6017 -0.0703
 9751SOL    HW134383   5.514   1.787   8.992  1.0188  0.3453 -0.2026
 9751SOL    HW234384   5.479   1.822   9.135 -1.4997  0.9962 -0.9572
 9752SOL     OW34385   9.256   0.677  10.213  0.2655 -0.7502 -0.1914
 9752SOL    HW134386   9.254   0.737  10.288  0.9291  0.7324 -1.3250
 9752SOL    HW234387   9.198   0.605  10.238  0.5421 -0.3177  1.7709
 9753SOL     OW34388   0.098   3.840   2.649 -0.4915 -0.0193 -0.4496
 9753SOL    HW134389   0.086   3.830   2.555  0.0963 -0.4591 -0.4763
 9753SOL    HW234390   0.043   3.916   2.672 -2.1936 -1.1006 -0.8161
 9754SOL     OW34391   9.952   4.500   6.432  0.6003 -0.7784 -0.6768
 9754SOL    HW134392   9.885   4.441   6.397  0.7343 -1.6584  0.5215
 9754SOL    HW234393   9.917   4.527   6.517  1.6204 -0.9815 -0.1915
 9755SOL     OW34394   6.915   7.405   6.174 -0.4961 -0.0767 -0.1765
 9755SOL    HW134395   6.894   7.472   6.109 -2.1111 -0.0704  0.3366
 9755SOL    HW234396   6.848   7.416   6.242 -0.5290 -1.9332  0.1175
 9756SOL     OW34397   3.974  10.645   6.578  0.2562 -0.2380 -0.2467
 9756SOL    HW134398   3.910  10.664   6.647  1.1494 -1.6917  0.9912
 9756SOL    HW234399   3.957  10.554   6.554  0.1602  0.1569 -1.7545
 9757SOL     OW34400   5.892   0.816   0.844 -0.5506  0.2195  0.4200
 9757SOL    HW134401   5.957   0.751   0.821  0.1599  0.5057  1.5849
 9757SOL    HW234402   5.907   0.833   0.937 -1.9853  0.6182  0.5911
 9758SOL     OW34403   6.962   2.167   6.203 -0.0034 -0.1675 -0.6179
 9758SOL    HW134404   6.964   2.080   6.162 -0.2905  0.4376 -1.9271
 9758SOL    HW234405   7.054   2.186   6.223  0.2433 -0.1076 -1.7631
 9759SOL     OW34406   9.976   3.708   1.875  0.0171  0.2554 -0.2406
 9759SOL    HW134407   9.953   3.658   1.953 -0.4667 -0.9857 -1.1659
 9759SOL    HW234408  10.057   3.753   1.898  0.7694 -1.3974  0.4359
 9760SOL     OW34409   5.310   2.968   6.195 -0.3159 -0.1162  0.4025
 9760SOL    HW134410   5.349   3.051   6.221  0.6769 -1.2440  2.6614
 9760SOL    HW234411   5.220   2.971   6.229 -1.1946  1.1164 -1.9110
 9761SOL     OW34412   1.096   5.342   7.742 -0.0729  0.3116  0.2556
 9761SOL    HW134413   1.099   5.433   7.713 -0.3744 -0.2605 -1.6670
 9761SOL    HW234414   1.010   5.332   7.781 -0.2145  0.7370  0.0568
 9762SOL     OW34415   6.226  10.702   3.722 -0.6041 -0.2217 -0.0771
 9762SOL    HW134416   6.193  10.639   3.659 -1.6436 -0.8999  1.1115
 9762SOL    HW234417   6.268  10.648   3.789 -0.6197  0.4006  0.4366
 9763SOL     OW34418   6.050   1.020   2.533  0.4645 -0.0860 -0.1458
 9763SOL    HW134419   5.994   1.096   2.519 -0.1189 -0.4843 -0.0236
 9763SOL    HW234420   6.135   1.056   2.557  1.0560  0.5738 -3.1333
 9764SOL     OW34421   8.579   8.824   6.666  0.4426  0.2006 -0.5056
 9764SOL    HW134422   8.667   8.787   6.668  0.2723 -0.1941 -0.1012
 9764SOL    HW234423   8.538   8.792   6.747 -0.5311 -0.7851 -1.3782
 9765SOL     OW34424   2.156   6.426   5.347  0.2470 -0.1564 -0.6128
 9765SOL    HW134425   2.157   6.383   5.262 -0.2302 -1.5743  0.0852
 9765SOL    HW234426   2.197   6.511   5.331  1.6613 -1.0568 -1.8948
 9766SOL     OW34427   1.527   0.249   9.408 -0.4242 -0.7499  0.3529
 9766SOL    HW134428   1.603   0.237   9.351 -0.4759 -1.1306  0.3622
 9766SOL    HW234429   1.537   0.338   9.443 -0.9154 -0.1574 -1.0069
 9767SOL     OW34430  10.557   1.239   8.212 -0.4352  0.4092 -0.6606
 9767SOL    HW134431  10.523   1.301   8.277 -1.9287 -2.1214  1.0379
 9767SOL    HW234432  10.649   1.264   8.202 -1.0084  2.9405 -0.0983
 9768SOL     OW34433   0.208   0.981   1.913 -1.1270  0.0918 -0.3080
 9768SOL    HW134434   0.129   0.993   1.966 -0.9749  1.3529 -0.3349
 9768SOL    HW234435   0.269   1.047   1.947 -0.4067 -0.2677 -0.8878
 9769SOL     OW34436   0.708   9.701   8.163 -0.2276 -0.4214 -0.2327
 9769SOL    HW134437   0.674   9.691   8.074 -0.7747 -0.2781 -0.0415
 9769SOL    HW234438   0.757   9.783   8.160  0.1805 -0.6714 -0.5319
 9770SOL     OW34439   0.412   5.468   2.137  0.0072  0.1696  0.2024
 9770SOL    HW134440   0.373   5.513   2.213  1.7209  0.4842  0.9103
 9770SOL    HW234441   0.453   5.390   2.175  0.7966  0.2863 -0.4226
 9771SOL     OW34442   5.900   9.370   2.883 -0.4218  0.5085  0.2830
 9771SOL    HW134443   5.842   9.411   2.946 -1.0242 -0.0139  0.0767
 9771SOL    HW234444   5.934   9.443   2.830  1.5976  1.1744  2.4110
 9772SOL     OW34445   1.830  11.242   7.679 -0.7540  0.0939  0.3322
 9772SOL    HW134446   1.918  11.279   7.667 -1.5721  2.0448  0.0912
 9772SOL    HW234447   1.791  11.297   7.747 -1.9235 -0.5091  0.1531
 9773SOL     OW34448   6.382   5.756   8.906  0.4177 -0.1970 -0.1341
 9773SOL    HW134449   6.325   5.708   8.966  0.3939 -0.4435 -0.3526
 9773SOL    HW234450   6.469   5.719   8.920  0.5187  0.1665  0.1857
 9774SOL     OW34451   7.035   2.124   4.037 -0.2497  0.1804 -0.4569
 9774SOL    HW134452   6.948   2.084   4.042 -1.4970  2.8223 -0.3091
 9774SOL    HW234453   7.052   2.133   3.943 -0.2048 -0.1614 -0.4819
 9775SOL     OW34454   8.972   8.214   8.553 -0.0731 -0.4028 -1.1806
 9775SOL    HW134455   8.939   8.298   8.519 -0.2268 -0.1859 -0.4979
 9775SOL    HW234456   9.066   8.230   8.568 -0.3286  0.0073  0.0367
 9776SOL     OW34457   3.363   3.414  10.787  0.4387 -0.0267  0.1664
 9776SOL    HW134458   3.455   3.402  10.813  0.7715 -0.8051 -1.3478
 9776SOL    HW234459   3.327   3.325  10.783 -0.0848  0.2043 -0.3222
 9777SOL     OW34460   7.505   7.804   4.924  0.7804  0.0677 -0.1884
 9777SOL    HW134461   7.590   7.848   4.929  0.8490 -0.0998  0.1078
 9777SOL    HW234462   7.445   7.862   4.970  0.7271  0.2058 -0.4327
 9778SOL     OW34463  10.251  10.494   1.072 -0.4835  0.3037  0.2722
 9778SOL    HW134464  10.260  10.401   1.091 -0.2281  0.4504  0.8873
 9778SOL    HW234465  10.274  10.502   0.979  0.7475 -0.0586  0.5385
 9779SOL     OW34466   9.272   7.214   0.967 -0.5050 -0.0672 -0.2486
 9779SOL    HW134467   9.317   7.216   1.051 -1.3704  1.8490  0.1836
 9779SOL    HW234468   9.179   7.206   0.989 -0.6990 -0.0618 -1.0332
 9780SOL     OW34469   1.025   5.508   0.135  0.7422 -0.2039 -0.9858
 9780SOL    HW134470   0.948   5.450   0.134 -1.2642  2.3997 -1.5849
 9780SOL    HW234471   1.099   5.448   0.147 -1.5041 -2.5951  1.7649
 9781SOL     OW34472   8.788   0.164   0.610 -0.1958  0.2425 -0.2747
 9781SOL    HW134473   8.816   0.171   0.701 -1.4771 -1.4026  0.2821
 9781SOL    HW234474   8.769   0.253   0.583 -1.1886  0.5956  1.5338
 9782SOL     OW34475   8.182   9.457   4.680  0.3250  0.3167 -0.4781
 9782SOL    HW134476   8.237   9.535   4.685 -1.3762  1.4961  0.7511
 9782SOL    HW234477   8.129   9.470   4.601  0.5158  0.1010 -0.6389
 9783SOL     OW34478   6.714   0.228   3.358 -0.3580 -0.4647 -0.7901
 9783SOL    HW134479   6.774   0.175   3.412 -0.4705  1.1537  0.9916
 9783SOL    HW234480   6.659   0.164   3.313  0.0876 -1.8937  0.6375
 9784SOL     OW34481   7.613   9.393   4.181 -0.1916  0.5168  0.2753
 9784SOL    HW134482   7.605   9.488   4.171 -2.3557  0.4458  1.0598
 9784SOL    HW234483   7.609   9.379   4.276 -0.8623 -0.4150  0.1156
 9785SOL     OW34484   1.321   3.688   3.398 -0.5107  0.2291  0.5740
 9785SOL    HW134485   1.271   3.716   3.474 -0.9181 -0.3992  0.5379
 9785SOL    HW234486   1.361   3.605   3.424 -2.2741 -1.0109 -0.5812
 9786SOL     OW34487   1.604   4.113   5.980  0.6894 -0.1373  0.6729
 9786SOL    HW134488   1.554   4.047   5.931 -1.0740  2.1536 -0.7369
 9786SOL    HW234489   1.675   4.138   5.920 -0.2218  1.1428  0.1080
 9787SOL     OW34490   0.525   3.230  10.079  0.1007 -0.4770  0.1821
 9787SOL    HW134491   0.525   3.255   9.987 -0.3874 -0.1712  0.2656
 9787SOL    HW234492   0.477   3.147  10.082 -1.0111  0.1689  0.3376
 9788SOL     OW34493   9.181   0.636   5.964 -0.4823 -0.1167  0.0271
 9788SOL    HW134494   9.092   0.621   5.932  0.0260 -1.4590 -0.8200
 9788SOL    HW234495   9.169   0.691   6.041 -2.0228  0.0029 -0.2639
 9789SOL     OW34496   8.251   0.900   5.779 -0.1007 -0.1922 -0.2950
 9789SOL    HW134497   8.312   0.951   5.725 -1.3996  0.8309 -0.8442
 9789SOL    HW234498   8.305   0.833   5.821  1.5474  1.2862 -0.0215
 9790SOL     OW34499   2.822   5.766   1.871  0.3777 -0.1535 -0.2336
 9790SOL    HW134500   2.888   5.815   1.823  0.6035 -0.5054 -0.2858
 9790SOL    HW234501   2.829   5.676   1.837 -0.2143 -0.1634 -0.3354
 9791SOL     OW34502   9.860   0.697   9.710  0.1325  0.2541 -0.4956
 9791SOL    HW134503   9.930   0.672   9.772 -0.3095 -2.8922 -1.1575
 9791SOL    HW234504   9.784   0.646   9.739 -0.5926  0.1704 -2.5112
 9792SOL     OW34505   8.813   3.032   5.072  0.1425 -0.0185  0.0791
 9792SOL    HW134506   8.867   3.040   4.993  0.7817  0.2877  0.5412
 9792SOL    HW234507   8.749   2.963   5.051  0.9766 -0.6797 -0.3294
 9793SOL     OW34508   7.974  10.226   5.973  0.0188 -0.2270  0.7705
 9793SOL    HW134509   7.911  10.157   5.949  1.9184 -1.9071  0.4880
 9793SOL    HW234510   8.042  10.180   6.023 -1.2086  2.2983  5.0140
 9794SOL     OW34511   6.050   0.442   5.852  0.0159 -0.1648 -0.7212
 9794SOL    HW134512   6.086   0.399   5.930  0.1583 -0.5294 -0.9878
 9794SOL    HW234513   6.019   0.526   5.884  1.1859  0.1903 -0.5059
 9795SOL     OW34514   3.399  11.237   1.509  0.5136  0.0335  0.0413
 9795SOL    HW134515   3.307  11.236   1.535  0.4165 -0.4889 -0.3072
 9795SOL    HW234516   3.443  11.182   1.574  0.4443 -0.3967 -0.2740
 9796SOL     OW34517   0.061   3.302   8.156 -0.0482 -0.1846 -0.1367
 9796SOL    HW134518   0.062   3.212   8.125  0.9665 -0.6927  1.3447
 9796SOL    HW234519  -0.032   3.325   8.162 -0.2868 -0.5665 -2.0732
 9797SOL     OW34520   1.421   7.022   1.728 -0.2626 -0.1850 -0.1261
 9797SOL    HW134521   1.509   7.019   1.766 -0.2315  1.4096 -0.0501
 9797SOL    HW234522   1.365   6.981   1.793  0.0746  0.8929  0.8564
 9798SOL     OW34523   5.032   1.092   1.418 -0.3756 -0.2776  0.2257
 9798SOL    HW134524   5.035   1.140   1.335 -0.3871 -0.0846  0.3392
 9798SOL    HW234525   5.105   1.126   1.469 -0.6456 -0.0753  0.4755
 9799SOL     OW34526  10.487   1.829   5.049  0.1317 -0.3249  0.2355
 9799SOL    HW134527  10.467   1.913   5.089 -2.1877 -1.2540  1.1252
 9799SOL    HW234528  10.542   1.784   5.113 -1.6826 -0.9128  1.4113
 9800SOL     OW34529   0.107   9.398   7.629 -0.0691 -0.3674  0.6470
 9800SOL    HW134530   0.097   9.317   7.678  0.9301 -0.7668  0.2062
 9800SOL    HW234531   0.074   9.378   7.542  1.9878 -0.8998 -0.0339
 9801SOL     OW34532   5.213   1.666   5.477  0.0604 -0.2960  0.0467
 9801SOL    HW134533   5.239   1.641   5.566  0.6895  1.1870  0.3044
 9801SOL    HW234534   5.289   1.646   5.423  0.4201  0.6550  0.1880
 9802SOL     OW34535   7.934   5.787   2.806  0.0810 -0.0535 -0.1881
 9802SOL    HW134536   7.940   5.841   2.728  2.1252 -0.8447 -0.6023
 9802SOL    HW234537   7.852   5.814   2.848 -2.3530 -1.4052 -3.8896
 9803SOL     OW34538   3.423   5.014   9.828 -0.0995 -0.1543 -0.2772
 9803SOL    HW134539   3.477   4.959   9.772 -0.4739  0.0987 -0.8953
 9803SOL    HW234540   3.406   4.961   9.905  2.7299  0.5252  0.8632
 9804SOL     OW34541   5.560   5.226   7.341 -0.0786  0.1403  0.3135
 9804SOL    HW134542   5.507   5.148   7.359  0.3391 -0.2246 -0.0170
 9804SOL    HW234543   5.525   5.261   7.259  1.9496 -1.6647 -1.3729
 9805SOL     OW34544   9.552   2.231   0.291  0.5167 -0.2146  0.0683
 9805SOL    HW134545   9.506   2.298   0.342 -0.1650 -0.0097 -0.8020
 9805SOL    HW234546   9.621   2.199   0.350 -0.2853 -0.0193  1.1334
 9806SOL     OW34547   3.748   3.148   2.094 -0.0287 -0.4867  0.4130
 9806SOL    HW134548   3.767   3.125   2.185  2.1507 -0.8559 -0.0945
 9806SOL    HW234549   3.763   3.243   2.090  1.0025 -0.6564  0.1837
 9807SOL     OW34550   7.724   0.484   2.809  0.2482  0.1647 -0.8659
 9807SOL    HW134551   7.659   0.498   2.878 -0.8244 -3.1073 -1.1200
 9807SOL    HW234552   7.807   0.510   2.848 -0.7547  1.2574  0.5954
 9808SOL     OW34553   3.111   9.263   9.505 -0.0797  0.0202 -0.3835
 9808SOL    HW134554   3.041   9.319   9.538  0.3775  1.3018 -1.5367
 9808SOL    HW234555   3.191   9.300   9.540  0.2125 -0.0365 -0.9765
 9809SOL     OW34556   7.804   9.256   1.692  0.1337 -0.2828  0.5030
 9809SOL    HW134557   7.860   9.329   1.720  1.2172 -1.3200  1.0985
 9809SOL    HW234558   7.716   9.293   1.689  1.0340  1.7764 -1.9285
 9810SOL     OW34559   9.819   2.106  10.652 -0.1171  0.0839 -0.2753
 9810SOL    HW134560   9.839   2.194  10.620  0.2144 -0.0504 -0.4349
 9810SOL    HW234561   9.743   2.118  10.709  1.0520  0.7414  1.1529
 9811SOL     OW34562   9.084   8.728  10.548  0.0497 -0.4504  0.5752
 9811SOL    HW134563   9.035   8.687  10.619  0.2964  0.7791  1.4530
 9811SOL    HW234564   9.065   8.821  10.555 -0.7278 -0.4108 -1.5824
 9812SOL     OW34565   5.078   7.640  10.805 -0.0324  0.2041 -0.0652
 9812SOL    HW134566   5.072   7.620  10.898 -0.0371  0.6184  0.0224
 9812SOL    HW234567   5.171   7.629  10.785 -0.0387  0.0692 -0.0204
 9813SOL     OW34568   7.878   0.608   7.524 -0.0473 -0.1130 -0.4371
 9813SOL    HW134569   7.973   0.596   7.525  0.1632  1.3830 -1.4434
 9813SOL    HW234570   7.849   0.569   7.441 -0.2411 -0.0001 -0.4234
 9814SOL     OW34571   9.607   2.111   3.129 -0.0362  0.3837  0.3292
 9814SOL    HW134572   9.574   2.091   3.042 -0.5666 -1.7567  0.9800
 9814SOL    HW234573   9.699   2.084   3.127 -0.2092 -0.2507  0.5910
 9815SOL     OW34574  11.215   0.230   8.075  0.3447 -0.2134 -0.2798
 9815SOL    HW134575  11.197   0.293   8.005  1.1236 -0.0266 -0.3114
 9815SOL    HW234576  11.257   0.282   8.144  1.6499 -0.8379 -0.5959
 9816SOL     OW34577   6.057   8.579  10.030 -0.3992 -0.0091  0.0966
 9816SOL    HW134578   6.090   8.510  10.088 -0.6412  0.3901  0.7166
 9816SOL    HW234579   6.128   8.596   9.969 -0.6059 -1.3376 -0.5356
 9817SOL     OW34580   1.317   5.134  10.660  0.0577  0.1596  0.0615
 9817SOL    HW134581   1.296   5.042  10.679 -2.0949  0.7253  0.4471
 9817SOL    HW234582   1.252   5.161  10.595  1.0675  1.2545 -0.5251
 9818SOL     OW34583  10.374   8.567   5.326 -0.2423  0.4820  0.6981
 9818SOL    HW134584  10.451   8.525   5.364 -0.8517 -1.1834  0.0930
 9818SOL    HW234585  10.409   8.626   5.260  0.5956  0.7431  1.3658
 9819SOL     OW34586  11.142   1.678   9.634 -0.3018  0.5358 -0.2353
 9819SOL    HW134587  11.095   1.735   9.573 -1.2840  0.7941  0.7458
 9819SOL    HW234588  11.165   1.601   9.583 -0.6351  0.9888 -1.0704
 9820SOL     OW34589   7.255   8.639   1.916  0.0301  0.2334  0.5693
 9820SOL    HW134590   7.280   8.725   1.881 -0.2404  0.6028  1.2848
 9820SOL    HW234591   7.308   8.629   1.995  1.0404 -0.8406 -0.2248
 9821SOL     OW34592   8.242   2.070   4.539  0.1343 -0.0532  0.4504
 9821SOL    HW134593   8.276   2.135   4.477  1.8287 -0.7018  0.6853
 9821SOL    HW234594   8.152   2.055   4.509 -0.2207  2.2067  0.2515
 9822SOL     OW34595   8.268   5.374   7.544 -0.3429  0.1348 -1.0137
 9822SOL    HW134596   8.333   5.438   7.516 -1.4505  0.9888 -1.6611
 9822SOL    HW234597   8.311   5.289   7.532  1.4125  0.7741  0.6132
 9823SOL     OW34598   8.461   9.060   3.469 -0.8457 -0.2741 -0.1464
 9823SOL    HW134599   8.414   9.091   3.391 -1.1507 -0.5177 -0.0603
 9823SOL    HW234600   8.551   9.089   3.456 -0.6173 -1.4089 -1.1876
 9824SOL     OW34601   2.437   5.642   6.624  0.0289  0.0650  0.1848
 9824SOL    HW134602   2.390   5.559   6.627 -2.8116  1.6524  1.1372
 9824SOL    HW234603   2.466   5.657   6.714 -0.1674  0.4915  0.1801
 9825SOL     OW34604   1.740   0.316   3.776 -0.7630  0.5809  0.8104
 9825SOL    HW134605   1.650   0.330   3.806 -2.3405 -1.2049 -2.7815
 9825SOL    HW234606   1.765   0.232   3.813 -1.8537 -0.5296 -0.9331
 9826SOL     OW34607   0.637   2.652   5.597 -0.2986  0.2185 -0.1840
 9826SOL    HW134608   0.686   2.645   5.678 -1.6989 -0.7758  0.6063
 9826SOL    HW234609   0.601   2.740   5.598 -0.3002  0.2142  0.2744
 9827SOL     OW34610   8.078   8.688   7.459 -0.6417 -0.0026  0.4825
 9827SOL    HW134611   8.137   8.764   7.461  0.3894 -0.7964  0.7869
 9827SOL    HW234612   8.098   8.640   7.539 -0.6353 -1.0747 -0.1446
 9828SOL     OW34613   8.193   7.556   0.893 -0.3274 -0.0137  0.0370
 9828SOL    HW134614   8.112   7.555   0.842 -1.1656 -2.6501  1.3233
 9828SOL    HW234615   8.163   7.559   0.984  1.0461  0.3655  0.4730
 9829SOL     OW34616   8.173   2.257   0.674 -0.2257 -0.1875 -0.3586
 9829SOL    HW134617   8.140   2.289   0.590 -1.2009 -0.1731  0.0241
 9829SOL    HW234618   8.107   2.283   0.737  0.6969  0.1430  0.4789
 9830SOL     OW34619   2.353   1.674   0.700 -0.2450  0.3575 -0.0181
 9830SOL    HW134620   2.299   1.734   0.750  0.9092  0.7116  0.8065
 9830SOL    HW234621   2.414   1.637   0.764 -0.8288 -1.5759 -0.5319
 9831SOL     OW34622  10.990   5.886   0.213 -0.3285  0.3008  0.1199
 9831SOL    HW134623  10.923   5.951   0.193 -0.7309 -0.1185  0.1039
 9831SOL    HW234624  11.038   5.922   0.287 -2.2244 -0.5841  1.8207
 9832SOL     OW34625  11.241   5.199   2.710 -0.2999 -0.3093 -0.7498
 9832SOL    HW134626  11.323   5.197   2.661 -0.5611 -1.3105 -1.1634
 9832SOL    HW234627  11.200   5.282   2.686  0.3070 -0.0852 -1.0129
 9833SOL     OW34628  10.549   4.316  10.986  0.3049  0.0480 -0.1761
 9833SOL    HW134629  10.562   4.257  10.912  2.0359  1.9099 -1.4171
 9833SOL    HW234630  10.596   4.275  11.058  1.0543 -0.3767 -0.8931
 9834SOL     OW34631   5.860   8.507   1.677 -0.0336 -0.2932 -0.3546
 9834SOL    HW134632   5.799   8.524   1.749  0.4200 -0.4122  0.0542
 9834SOL    HW234633   5.803   8.493   1.601 -0.4737  1.7059 -0.4250
 9835SOL     OW34634   2.029   7.406   5.034 -0.3231 -0.9173 -0.2691
 9835SOL    HW134635   2.006   7.335   4.975 -0.1222 -0.0964 -1.3510
 9835SOL    HW234636   1.952   7.419   5.089 -1.2113 -0.4131 -1.6286
 9836SOL     OW34637  10.297   6.350   1.556 -0.1369  0.4803 -0.2768
 9836SOL    HW134638  10.257   6.329   1.641  2.1374 -0.4570  0.6118
 9836SOL    HW234639  10.303   6.266   1.511  3.6885 -0.0366  0.9387
 9837SOL     OW34640   8.704   7.065   3.087  0.0090 -0.4146  0.4832
 9837SOL    HW134641   8.735   7.131   3.026 -2.8533 -1.2715 -2.0256
 9837SOL    HW234642   8.664   7.115   3.158 -1.3206  0.5816 -0.9356
 9838SOL     OW34643   1.693   5.926  10.264  0.0793  0.2218 -0.0116
 9838SOL    HW134644   1.776   5.924  10.216  0.6182 -0.1745  0.9392
 9838SOL    HW234645   1.628   5.897  10.199  1.1189 -2.5811  0.1276
 9839SOL     OW34646   5.289   3.190   9.492 -0.1419 -0.3177  0.5629
 9839SOL    HW134647   5.200   3.169   9.520  0.0781 -0.9250  0.8197
 9839SOL    HW234648   5.318   3.111   9.445  0.6255 -0.5241  1.3648
 9840SOL     OW34649   2.892   8.275   8.555  0.0711 -0.2563  0.2670
 9840SOL    HW134650   2.980   8.238   8.547  0.3836  0.5139  0.1792
 9840SOL    HW234651   2.889   8.347   8.492 -0.7140 -0.4469  0.0699
 9841SOL     OW34652   0.739   1.676   7.054  0.4933 -0.5997 -0.6173
 9841SOL    HW134653   0.800   1.609   7.026  0.3402 -0.2966 -1.6910
 9841SOL    HW234654   0.792   1.755   7.063  0.2817 -0.3514 -1.4874
 9842SOL     OW34655   3.840   9.399   2.988  0.3165 -0.3592 -0.2588
 9842SOL    HW134656   3.864   9.482   2.945 -1.5274  0.0618 -0.5374
 9842SOL    HW234657   3.829   9.422   3.080 -2.7096  0.3266 -0.7196
 9843SOL     OW34658   6.621   4.784   5.626 -0.0069 -0.3952 -0.4165
 9843SOL    HW134659   6.597   4.722   5.695 -2.8624 -0.4435 -1.3536
 9843SOL    HW234660   6.714   4.803   5.640 -0.0594 -1.9350  2.1889
 9844SOL     OW34661   4.769   6.097   0.041  0.1766  0.2695  0.1011
 9844SOL    HW134662   4.809   6.014   0.014  0.8581 -0.2800  2.6982
 9844SOL    HW234663   4.676   6.087   0.017  0.5846 -0.5049 -1.2175
 9845SOL     OW34664   5.632   4.094   0.218  1.1174  0.1292 -0.0337
 9845SOL    HW134665   5.656   4.152   0.291  1.5975 -0.1012 -0.0047
 9845SOL    HW234666   5.715   4.055   0.191  0.9227  0.1416 -0.6446
 9846SOL     OW34667   7.845   3.382   7.922 -0.7961  0.1928  0.2557
 9846SOL    HW134668   7.819   3.291   7.910 -2.6720  0.6674  0.6514
 9846SOL    HW234669   7.900   3.401   7.845 -1.0135 -1.0313 -0.2151
 9847SOL     OW34670   7.560   1.947   7.567 -0.3236 -0.7106 -0.5046
 9847SOL    HW134671   7.585   2.039   7.561 -1.6494 -0.3153 -0.3191
 9847SOL    HW234672   7.529   1.924   7.480  0.6951 -1.1958 -0.7398
 9848SOL     OW34673   6.659   7.449   2.920  0.1533  0.5562 -0.2076
 9848SOL    HW134674   6.602   7.523   2.904  0.6226  0.9547 -0.0548
 9848SOL    HW234675   6.649   7.431   3.014  0.3511  0.6848 -0.1626
 9849SOL     OW34676   5.328   5.954   3.333 -0.6117 -0.2841 -0.0078
 9849SOL    HW134677   5.332   5.903   3.251  1.3370 -0.2156  0.0312
 9849SOL    HW234678   5.239   5.939   3.365 -2.1115  1.3321 -3.1834
 9850SOL     OW34679   8.726   9.338   3.362  0.6458  0.2344  0.1110
 9850SOL    HW134680   8.653   9.396   3.382 -0.3294 -1.0904  0.4635
 9850SOL    HW234681   8.732   9.340   3.266 -1.5531 -1.6313 -0.1197
 9851SOL     OW34682   6.924   5.753   5.396 -0.6131  0.5847 -0.2069
 9851SOL    HW134683   6.985   5.680   5.389 -0.6057  0.7115 -1.8294
 9851SOL    HW234684   6.977   5.826   5.428 -0.3488  0.1941  0.2503
 9852SOL     OW34685   8.065   4.733   3.256  0.2170  0.7899 -0.5710
 9852SOL    HW134686   8.150   4.695   3.276 -0.4809 -0.0660  0.8545
 9852SOL    HW234687   8.061   4.813   3.308  0.5429  1.3500 -1.3996
 9853SOL     OW34688   6.324   0.359   0.459  0.1763 -0.0230 -0.0188
 9853SOL    HW134689   6.381   0.285   0.482  1.5492  0.3517 -2.0455
 9853SOL    HW234690   6.252   0.319   0.410 -0.3540 -0.2905  0.9749
 9854SOL     OW34691   1.269   3.044   7.707 -0.5120  0.5790 -0.4610
 9854SOL    HW134692   1.200   2.978   7.711 -1.1291  1.2649  0.5105
 9854SOL    HW234693   1.294   3.048   7.614 -1.9044  0.4571 -0.8450
 9855SOL     OW34694   2.733   0.391   9.354  0.2687  0.2762  0.0796
 9855SOL    HW134695   2.785   0.414   9.431 -3.1943  2.4605  1.8910
 9855SOL    HW234696   2.738   0.468   9.298 -0.1474  0.0753 -0.2375
 9856SOL     OW34697   3.501   5.014   9.182  0.2884 -0.0514 -0.1747
 9856SOL    HW134698   3.524   5.098   9.143  1.6292 -0.6631 -0.6992
 9856SOL    HW234699   3.446   5.038   9.257 -1.2190  1.1843 -1.6222
 9857SOL     OW34700   8.675   2.247   3.482  0.3437  0.0308  0.7587
 9857SOL    HW134701   8.679   2.321   3.543  1.4838  1.0205 -0.4687
 9857SOL    HW234702   8.705   2.284   3.399 -1.0129 -1.3358 -0.3626
 9858SOL     OW34703   3.331   8.769   3.355  0.1854  0.5823  0.0795
 9858SOL    HW134704   3.352   8.770   3.448 -0.3656  1.6195  0.1983
 9858SOL    HW234705   3.246   8.726   3.350  1.1288 -1.3050 -0.1539
 9859SOL     OW34706   8.667   7.425   6.383 -0.4667 -0.2764  0.1486
 9859SOL    HW134707   8.672   7.502   6.326 -0.2868 -0.1318  0.3570
 9859SOL    HW234708   8.629   7.458   6.465  2.8301  0.3686  1.5120
 9860SOL     OW34709   1.369   0.102   9.096 -0.3574 -0.2403  0.2714
 9860SOL    HW134710   1.318   0.058   9.028  1.1989 -0.8426 -0.5416
 9860SOL    HW234711   1.431   0.157   9.047 -1.0288  1.4248  1.2481
 9861SOL     OW34712   3.979   8.729   4.496 -1.0269  0.1483  0.1041
 9861SOL    HW134713   4.056   8.769   4.454 -0.4274  1.0235  1.9902
 9861SOL    HW234714   3.924   8.700   4.423  0.5688  0.5264 -1.2719
 9862SOL     OW34715   9.866   8.369   8.390 -0.1017  0.8288 -0.5017
 9862SOL    HW134716   9.806   8.314   8.441  0.2527  1.6700  0.8321
 9862SOL    HW234717   9.924   8.408   8.455  1.9408  0.0110 -1.7561
 9863SOL     OW34718   8.407   7.894   5.759 -0.2031  0.5120  0.4301
 9863SOL    HW134719   8.382   7.806   5.789  1.4112  0.4263  1.5337
 9863SOL    HW234720   8.502   7.891   5.752 -0.1314  2.2216  0.5942
 9864SOL     OW34721   4.765  10.619   4.536  0.0097  0.3964 -0.7194
 9864SOL    HW134722   4.828  10.677   4.493  0.3349  1.6986  1.4830
 9864SOL    HW234723   4.743  10.663   4.618  1.4741 -3.2884  1.7945
 9865SOL     OW34724   3.081   5.256   7.863  0.2861 -0.0850 -0.0535
 9865SOL    HW134725   3.076   5.352   7.857  2.5124  0.0758  0.2313
 9865SOL    HW234726   3.174   5.238   7.878 -0.2788 -2.2485  0.9995
 9866SOL     OW34727   8.308   9.720   8.447 -0.2623 -0.4414  0.1285
 9866SOL    HW134728   8.348   9.788   8.501  0.4705 -0.3490 -0.5272
 9866SOL    HW234729   8.314   9.640   8.500  3.0075 -0.9614 -0.9048
 9867SOL     OW34730   6.070   3.448   6.492 -0.0636  0.5658 -0.2947
 9867SOL    HW134731   6.076   3.542   6.510 -1.1118  0.0581  3.1816
 9867SOL    HW234732   6.109   3.406   6.569 -1.5031 -1.8435 -0.8039
 9868SOL     OW34733   8.450   6.783   1.795  0.0229  0.3931 -0.2177
 9868SOL    HW134734   8.368   6.733   1.788  0.0875  0.3063 -0.3723
 9868SOL    HW234735   8.424   6.873   1.773 -0.0501  0.3832 -0.1734
 9869SOL     OW34736   7.389   4.865   0.129  0.6408 -0.4754  0.0339
 9869SOL    HW134737   7.303   4.822   0.125 -0.1508  1.1258 -0.8882
 9869SOL    HW234738   7.411   4.865   0.223 -1.5972  1.3621  0.6148
 9870SOL     OW34739   9.924   1.204   7.319  0.0703 -0.3008 -0.2538
 9870SOL    HW134740  10.001   1.231   7.369  0.6694 -1.3366 -0.6138
 9870SOL    HW234741   9.948   1.221   7.227 -1.4059  2.5696 -0.1625
 9871SOL     OW34742   3.105   6.854   5.366 -0.0296 -0.3063  0.2714
 9871SOL    HW134743   3.133   6.770   5.402  0.4368 -0.6459 -0.8733
 9871SOL    HW234744   3.153   6.919   5.418  1.2804 -0.8159 -0.2903
 9872SOL     OW34745   9.011   6.002   0.712  0.2890  0.3263 -0.1870
 9872SOL    HW134746   9.102   5.983   0.730  0.5094  1.0440 -0.5204
 9872SOL    HW234747   8.964   5.977   0.792  0.5828 -1.3576 -0.5142
 9873SOL     OW34748   7.964   5.850   6.395  0.8058 -0.4338  0.4457
 9873SOL    HW134749   7.912   5.770   6.385 -2.2958  1.6476 -1.0973
 9873SOL    HW234750   7.909   5.909   6.446  2.2510  1.3885 -0.0259
 9874SOL     OW34751   8.413   2.399   4.471  0.1029  0.5314 -0.0874
 9874SOL    HW134752   8.400   2.401   4.566 -0.3911 -1.9201 -0.0766
 9874SOL    HW234753   8.470   2.323   4.456  1.8804  2.1040 -1.5860
 9875SOL     OW34754   7.308   5.596   8.272  0.0563 -0.2505  0.1665
 9875SOL    HW134755   7.368   5.526   8.246  0.5849  0.1890  0.1934
 9875SOL    HW234756   7.238   5.552   8.321  0.2942 -0.7787  0.0246
 9876SOL     OW34757   6.298   0.406   1.764 -0.3961 -0.1892 -0.2367
 9876SOL    HW134758   6.390   0.382   1.774 -0.2065  0.8626  0.6282
 9876SOL    HW234759   6.258   0.384   1.847 -1.1502 -1.5903 -0.9640
 9877SOL     OW34760  11.022   4.885   7.916 -0.0260 -0.0188 -0.3935
 9877SOL    HW134761  11.025   4.789   7.908 -0.3593 -0.0150 -0.5984
 9877SOL    HW234762  11.104   4.915   7.877 -1.2263 -0.0600 -3.0562
 9878SOL     OW34763   3.870   1.058   8.234 -0.0412  0.1503  0.7187
 9878SOL    HW134764   3.954   1.014   8.219 -0.2497 -0.4541  1.3138
 9878SOL    HW234765   3.811   1.020   8.168 -0.3978 -0.9660  1.6638
 9879SOL     OW34766   5.639   9.167   3.363  0.2446 -0.4747  0.4500
 9879SOL    HW134767   5.686   9.249   3.381  0.9369 -0.9405  0.7747
 9879SOL    HW234768   5.601   9.143   3.447 -1.3324  0.3559  0.0101
 9880SOL     OW34769   1.325   7.434   3.016  0.1106  0.5479  0.7040
 9880SOL    HW134770   1.310   7.522   2.984 -1.6880  1.2485  3.2768
 9880SOL    HW234771   1.255   7.419   3.080  1.9843 -1.6798  2.3457
 9881SOL     OW34772   6.406   4.101   8.673 -0.3733  0.0112 -0.2934
 9881SOL    HW134773   6.314   4.084   8.653 -0.8614  1.8721  0.2619
 9881SOL    HW234774   6.422   4.054   8.755 -0.7844 -0.4185 -0.4546
 9882SOL     OW34775   6.099   1.666   7.206  0.1098  0.2282 -0.1511
 9882SOL    HW134776   6.086   1.606   7.132  0.0553 -0.3252  0.3035
 9882SOL    HW234777   6.068   1.751   7.174 -1.8902 -0.4449 -0.0563
 9883SOL     OW34778   1.748   6.906   0.686  0.4389  0.3513  0.1699
 9883SOL    HW134779   1.785   6.841   0.745  0.0623  0.5673  0.6519
 9883SOL    HW234780   1.811   6.913   0.614  0.7917 -0.0725  0.4411
 9884SOL     OW34781   0.429   1.826   6.247 -0.2187 -0.0317 -0.0374
 9884SOL    HW134782   0.482   1.754   6.214 -0.5089 -0.7327  0.9995
 9884SOL    HW234783   0.467   1.904   6.206  1.2190 -0.5836  0.1898
 9885SOL     OW34784   5.992   1.827   4.147  0.1497 -0.3166 -0.0215
 9885SOL    HW134785   5.951   1.841   4.232 -2.1215 -0.7929 -1.0183
 9885SOL    HW234786   5.920   1.827   4.084  1.9193  1.3924 -2.1410
 9886SOL     OW34787   4.665   9.051   1.018  0.2360 -0.4141  0.0724
 9886SOL    HW134788   4.666   9.147   1.015  0.6182 -0.3924  0.7789
 9886SOL    HW234789   4.719   9.029   1.094  1.4775 -1.2259 -1.0124
 9887SOL     OW34790   4.630   6.661   9.192  0.1073  0.0682  0.6672
 9887SOL    HW134791   4.585   6.581   9.218  0.2944 -0.2978 -0.1260
 9887SOL    HW234792   4.577   6.697   9.121 -0.4712  1.1281  1.6204
 9888SOL     OW34793   1.362   9.420  10.766  0.0184 -0.2890  0.3361
 9888SOL    HW134794   1.361   9.327  10.788 -1.5487 -0.4190 -0.1838
 9888SOL    HW234795   1.290   9.430  10.704 -0.2097  1.3734  0.8456
 9889SOL     OW34796   1.061   6.410   9.783  0.0508 -0.4635 -0.2272
 9889SOL    HW134797   1.119   6.371   9.718  0.9522 -0.7571  0.7425
 9889SOL    HW234798   1.003   6.339   9.810  0.0389 -0.4813 -0.2988
 9890SOL     OW34799   7.820   4.044   3.755 -0.6550  0.0368  0.4178
 9890SOL    HW134800   7.897   4.085   3.793  0.2811  1.3193 -2.6966
 9890SOL    HW234801   7.746   4.084   3.801  0.4712 -0.6039  2.8437
 9891SOL     OW34802   7.483   8.049   3.533 -0.5580  0.4875  0.0704
 9891SOL    HW134803   7.405   8.021   3.580 -0.3084  0.7787  0.6613
 9891SOL    HW234804   7.503   8.136   3.567 -0.6547  0.9050 -0.9285
 9892SOL     OW34805  10.323   7.551   4.190 -0.3157  0.6134  0.0083
 9892SOL    HW134806  10.258   7.484   4.213  0.9848  0.1486  2.4873
 9892SOL    HW234807  10.404   7.502   4.176 -0.1753  1.3224 -1.7315
 9893SOL     OW34808   2.418   7.472   1.714  0.0431  0.0593 -0.0845
 9893SOL    HW134809   2.355   7.503   1.779 -0.4845  0.2628 -0.6944
 9893SOL    HW234810   2.367   7.459   1.634  0.9066  1.0018 -0.8108
 9894SOL     OW34811   4.968   2.347   3.734 -0.3131  0.3434  0.1610
 9894SOL    HW134812   4.983   2.273   3.793  0.0263 -0.4107 -0.8369
 9894SOL    HW234813   4.884   2.326   3.691  0.1329  0.1679 -0.6414
 9895SOL     OW34814   4.207   2.492   7.517 -0.4837 -0.3669  0.6595
 9895SOL    HW134815   4.138   2.435   7.482 -0.7356  0.5698 -0.4033
 9895SOL    HW234816   4.288   2.455   7.483 -0.4454 -1.4225  1.8434
 9896SOL     OW34817   7.573  10.145   6.156  0.4511  0.0710  0.3329
 9896SOL    HW134818   7.517  10.206   6.204 -0.8535 -1.8110  1.2617
 9896SOL    HW234819   7.634  10.111   6.221  0.0338 -0.9248  0.2130
 9897SOL     OW34820  11.290   0.568   2.559  0.1479  0.3623 -1.2648
 9897SOL    HW134821  11.370   0.613   2.532  0.9153 -0.0917  0.1795
 9897SOL    HW234822  11.304   0.477   2.534  1.2661 -0.2485  1.3880
 9898SOL     OW34823   0.840   2.768   6.273 -0.1415 -0.5529  0.5868
 9898SOL    HW134824   0.860   2.862   6.279 -0.1137 -0.4036 -1.3657
 9898SOL    HW234825   0.768   2.763   6.210 -1.3351 -1.7247  1.9979
 9899SOL     OW34826   2.936   8.498   8.376  1.0712  0.2887 -0.0900
 9899SOL    HW134827   2.869   8.561   8.349  1.7597  1.0507 -0.0479
 9899SOL    HW234828   3.010   8.552   8.405  1.0338 -0.5257  1.5677
 9900SOL     OW34829   8.234   3.788   9.604  0.3408 -0.1832  0.6089
 9900SOL    HW134830   8.269   3.843   9.533  2.1360  1.0977  2.4253
 9900SOL    HW234831   8.146   3.822   9.618  1.1594  1.8093  1.1888
 9901SOL     OW34832   4.050   6.033   4.556  0.3674  0.2087  0.1856
 9901SOL    HW134833   4.035   5.964   4.621 -2.0185 -0.1599 -0.7061
 9901SOL    HW234834   4.065   6.112   4.608  0.5050 -0.4834  1.2123
 9902SOL     OW34835  10.809   0.158   7.409 -0.5921  0.2828 -0.0262
 9902SOL    HW134836  10.758   0.237   7.389 -0.9537 -0.0228 -0.3074
 9902SOL    HW234837  10.899   0.189   7.418 -0.7629  0.7563  0.0460
 9903SOL     OW34838  10.022  11.249   0.581  0.0484 -0.5348  0.1093
 9903SOL    HW134839  10.000  11.158   0.562  0.7102 -0.8963  1.0275
 9903SOL    HW234840  10.005  11.296   0.499  0.2137 -1.5754 -0.5228
 9904SOL     OW34841   7.685  11.158   6.045  0.5509  0.1368 -0.2962
 9904SOL    HW134842   7.756  11.217   6.069  0.9855 -0.1873 -0.7644
 9904SOL    HW234843   7.674  11.171   5.951 -0.8887  1.1324 -0.0128
 9905SOL     OW34844   7.740   8.560   7.260 -0.3608 -0.2093 -0.3236
 9905SOL    HW134845   7.725   8.466   7.249 -1.3242 -0.1846  0.6833
 9905SOL    HW234846   7.655   8.600   7.244 -0.9279  0.1385  3.0975
 9906SOL     OW34847   2.827   6.341   4.158  0.0909  0.3274 -0.0636
 9906SOL    HW134848   2.868   6.425   4.178  0.6926 -0.0161  0.1563
 9906SOL    HW234849   2.770   6.359   4.083 -0.9450  1.2738  0.9278
 9907SOL     OW34850   8.653   5.990   1.953  0.0548 -0.1300 -0.0690
 9907SOL    HW134851   8.586   5.928   1.925  1.1707 -1.7053  0.5967
 9907SOL    HW234852   8.605   6.063   1.991 -1.2989 -0.8476 -0.3743
 9908SOL     OW34853   5.274   9.025   3.932  0.2083  0.1201  0.2236
 9908SOL    HW134854   5.312   9.108   3.961  1.6288 -0.7284  0.8871
 9908SOL    HW234855   5.282   8.968   4.009  1.6262 -1.3841 -1.0197
 9909SOL     OW34856   9.046   2.043  11.328  0.1114 -0.5059  0.2646
 9909SOL    HW134857   9.086   2.102  11.392 -0.7675 -0.8245  1.1097
 9909SOL    HW234858   8.963   2.085  11.305 -1.0743 -1.9740  1.7525
 9910SOL     OW34859   7.506   7.849   8.259 -0.0369  0.9036  0.1811
 9910SOL    HW134860   7.542   7.933   8.234  0.8606  0.3177 -0.5289
 9910SOL    HW234861   7.460   7.818   8.181  1.2837 -0.1412 -0.1865
 9911SOL     OW34862   3.072  10.589   6.840  0.2298  0.5080  0.1056
 9911SOL    HW134863   3.137  10.520   6.852  0.0633  0.3045 -0.1573
 9911SOL    HW234864   3.119  10.670   6.864  0.4117  0.3033  0.4484
 9912SOL     OW34865   0.861   7.989   9.313 -0.5568 -0.3915 -0.3641
 9912SOL    HW134866   0.847   7.898   9.286  1.4781 -1.4099  1.8550
 9912SOL    HW234867   0.954   8.004   9.300 -1.2149  2.1158 -2.7143
 9913SOL     OW34868   0.352   1.468   0.227 -0.1197  0.4262  0.2464
 9913SOL    HW134869   0.400   1.417   0.292 -0.0054  1.5601  1.0508
 9913SOL    HW234870   0.383   1.434   0.143 -0.5499 -1.3160  0.7561
 9914SOL     OW34871   3.792   6.270   5.245 -0.2005  0.0735 -0.1565
 9914SOL    HW134872   3.774   6.355   5.204 -1.0535  0.6231  1.2999
 9914SOL    HW234873   3.756   6.206   5.183 -1.7482  0.8988 -0.1437
 9915SOL     OW34874   9.152  10.108   8.193  0.2479  0.1852 -0.5413
 9915SOL    HW134875   9.137  10.128   8.285  1.5208 -1.4442  0.0485
 9915SOL    HW234876   9.244  10.131   8.178  0.9408 -2.4144 -0.5700
 9916SOL     OW34877   9.130   3.378   5.698  0.0002  0.3530 -0.0152
 9916SOL    HW134878   9.151   3.293   5.737  0.2436  0.8651  0.9857
 9916SOL    HW234879   9.215   3.411   5.666 -0.3239 -0.4178 -1.6953
 9917SOL     OW34880   5.680   2.626   0.963  0.2529 -0.3782 -0.1622
 9917SOL    HW134881   5.598   2.627   0.914 -1.8002  1.3998  3.1269
 9917SOL    HW234882   5.684   2.713   1.004  2.7622 -1.1555  1.3192
 9918SOL     OW34883   4.398  11.125   9.560 -0.4782 -0.1401 -0.2450
 9918SOL    HW134884   4.341  11.185   9.513 -1.3015 -0.4711  0.3181
 9918SOL    HW234885   4.485  11.137   9.520 -0.7446  1.0301 -0.4798
 9919SOL     OW34886  10.833   9.363   9.539 -0.0209 -0.0982 -0.4714
 9919SOL    HW134887  10.848   9.327   9.451  0.2120 -1.5864  0.1523
 9919SOL    HW234888  10.743   9.338   9.560  0.8548 -2.3709  0.8627
 9920SOL     OW34889  10.349   0.928   3.035  0.0911  0.3851  0.0897
 9920SOL    HW134890  10.380   1.012   3.068  2.3033 -0.5082  0.3358
 9920SOL    HW234891  10.297   0.892   3.107 -2.7926  2.4863 -0.8271
 9921SOL     OW34892   0.799   6.058   8.204 -0.3097  0.0079  0.5246
 9921SOL    HW134893   0.786   5.964   8.213  0.4431 -0.2031 -0.5375
 9921SOL    HW234894   0.712   6.092   8.181 -0.5916 -0.4178  0.9466
 9922SOL     OW34895   8.136   9.053  10.528 -0.0733 -0.2620 -0.2352
 9922SOL    HW134896   8.156   9.053  10.621  0.5976  1.5862 -0.3601
 9922SOL    HW234897   8.219   9.077  10.486 -0.5889 -0.2349 -1.2632
 9923SOL     OW34898   9.824   9.587   2.003  0.2984 -0.3355  0.8830
 9923SOL    HW134899   9.872   9.542   2.072  0.1065  1.8315  2.4884
 9923SOL    HW234900   9.870   9.671   1.993 -0.6077  0.0067 -0.5536
 9924SOL     OW34901   3.390   1.042   5.142  0.4420  0.1143 -0.6831
 9924SOL    HW134902   3.358   1.040   5.233  0.4447  2.5968 -0.5968
 9924SOL    HW234903   3.360   1.126   5.108  1.4984 -0.2608 -2.6181
 9925SOL     OW34904   4.030   0.744   6.439 -0.2357  0.0749 -0.0927
 9925SOL    HW134905   3.967   0.696   6.492  0.8249 -0.1052  1.0198
 9925SOL    HW234906   4.018   0.836   6.463  0.2166 -0.0026  0.4168
 9926SOL     OW34907   0.845   8.869   9.854  0.6179 -0.3872 -0.5195
 9926SOL    HW134908   0.821   8.795   9.910 -3.2407 -0.6858 -2.3853
 9926SOL    HW234909   0.848   8.944   9.914  0.7368 -1.3891  0.7539
 9927SOL     OW34910   9.034  10.906   8.337 -0.2182 -0.4417 -0.2685
 9927SOL    HW134911   9.026  10.951   8.253 -1.4212  0.6130  0.4004
 9927SOL    HW234912   9.079  10.824   8.316  0.1239  0.1264 -1.8212
 9928SOL     OW34913   6.896  10.895   7.226  0.2726 -0.2285 -0.0116
 9928SOL    HW134914   6.969  10.923   7.281  0.1568  0.6043 -0.2723
 9928SOL    HW234915   6.871  10.974   7.178  0.0098 -0.8105 -0.8456
 9929SOL     OW34916   4.011   7.438  10.000  0.4481  0.0190 -0.2492
 9929SOL    HW134917   4.067   7.481   9.935 -0.9225  2.0153 -0.1690
 9929SOL    HW234918   3.952   7.383   9.949 -0.2904  1.1918 -0.6767
 9930SOL     OW34919   0.068   4.905   8.455  0.2306  0.7303  0.2494
 9930SOL    HW134920   0.095   4.882   8.544 -2.0152  1.1827  1.0681
 9930SOL    HW234921   0.064   4.822   8.409  1.6486  0.5182  0.4776
 9931SOL     OW34922   6.755   8.199  10.207  0.0715  0.1331  0.2876
 9931SOL    HW134923   6.783   8.260  10.274  2.1032 -0.8854  0.4072
 9931SOL    HW234924   6.731   8.254  10.132 -0.1323  1.1671  1.1125
 9932SOL     OW34925  10.746   7.980   4.432 -0.3928  0.1805  0.4141
 9932SOL    HW134926  10.652   7.995   4.438 -0.2862  1.3512 -0.7192
 9932SOL    HW234927  10.774   7.967   4.523 -2.1087 -3.2076  0.5364
 9933SOL     OW34928   8.316   7.306   3.869  0.0559  0.3355  0.3174
 9933SOL    HW134929   8.289   7.297   3.778 -0.2771  0.8670  0.3631
 9933SOL    HW234930   8.345   7.218   3.894  2.6129  0.7648 -1.0684
 9934SOL     OW34931   0.701   3.221  11.208 -0.1446  0.2862 -0.1010
 9934SOL    HW134932   0.753   3.144  11.187 -0.3528  0.6803 -2.1667
 9934SOL    HW234933   0.680   3.211  11.301  0.4437 -1.7742 -0.1605
 9935SOL     OW34934   4.727   3.402   2.916 -0.0060 -0.3133  0.4947
 9935SOL    HW134935   4.704   3.411   3.008  0.3929  2.4683  0.3792
 9935SOL    HW234936   4.661   3.454   2.870  0.3120 -0.9623 -0.7219
 9936SOL     OW34937   4.492   6.347   2.164  0.0139 -0.1133  0.2106
 9936SOL    HW134938   4.481   6.370   2.072 -1.2533 -1.4415  0.0240
 9936SOL    HW234939   4.543   6.419   2.200 -1.4181  1.5405 -1.0115
 9937SOL     OW34940   2.525   9.972   4.623  0.0710  0.2323 -0.3814
 9937SOL    HW134941   2.432   9.954   4.613  0.0660  0.5135 -0.8549
 9937SOL    HW234942   2.533  10.067   4.610  0.6693 -0.0648 -2.2339
 9938SOL     OW34943   6.546   2.180   8.603 -0.4299  0.3041 -0.3656
 9938SOL    HW134944   6.566   2.221   8.687 -0.3217 -1.4583  0.5072
 9938SOL    HW234945   6.628   2.185   8.554 -0.4593  1.2368 -0.3190
 9939SOL     OW34946   3.933  11.207   9.471  0.0615 -0.0397 -0.1605
 9939SOL    HW134947   3.887  11.258   9.538 -1.3702  0.1244 -1.2542
 9939SOL    HW234948   3.890  11.121   9.473  0.1794 -0.1087 -0.7227
 9940SOL     OW34949   3.867   7.722  10.433  0.0031 -0.0152 -0.1637
 9940SOL    HW134950   3.953   7.682  10.447  0.2569  0.6423  0.1993
 9940SOL    HW234951   3.879   7.778  10.357 -0.3244 -0.5430 -0.6088
 9941SOL     OW34952   2.039  11.173   1.803  0.0833  0.5146  0.2557
 9941SOL    HW134953   2.108  11.111   1.779  0.6314  0.3916  2.1104
 9941SOL    HW234954   2.081  11.259   1.797 -0.1512  0.5813 -0.4824
 9942SOL     OW34955   3.935   0.788   1.844 -0.3955 -0.1400 -0.0515
 9942SOL    HW134956   4.024   0.762   1.871 -0.4294 -0.6335 -0.4161
 9942SOL    HW234957   3.880   0.713   1.867 -0.9318  0.6538  1.3197
 9943SOL     OW34958  10.999   6.500   1.841  0.1557 -0.0658 -0.0415
 9943SOL    HW134959  11.090   6.471   1.840  0.2188 -0.2976  3.6045
 9943SOL    HW234960  10.954   6.434   1.893 -2.3169 -0.4223 -2.5422
 9944SOL     OW34961   6.343  11.297  10.263 -0.4796 -0.0665  0.3560
 9944SOL    HW134962   6.299  11.369  10.217 -0.2678  0.2066  0.5752
 9944SOL    HW234963   6.310  11.218  10.221  0.0350  0.2006 -0.5445
 9945SOL     OW34964  11.264   6.001   8.293  0.3745 -0.0727 -1.3359
 9945SOL    HW134965  11.280   6.089   8.325 -0.4730  0.5527 -2.6106
 9945SOL    HW234966  11.299   5.944   8.362  0.7403  1.2398 -0.4150
 9946SOL     OW34967   1.846   2.850   1.807  0.1881  0.3708  0.0090
 9946SOL    HW134968   1.928   2.828   1.762  0.1774  0.4569 -0.0530
 9946SOL    HW234969   1.852   2.804   1.891  0.1415  0.0919 -0.1404
 9947SOL     OW34970   6.740   2.149   8.213  0.1649 -0.0369 -0.6239
 9947SOL    HW134971   6.730   2.227   8.159 -1.4021  0.3805  0.2362
 9947SOL    HW234972   6.778   2.181   8.295 -0.9549 -0.0796 -0.0757
 9948SOL     OW34973   3.886   5.549   3.694  0.6203  0.4605  0.2835
 9948SOL    HW134974   3.877   5.644   3.685 -1.6410  0.5304  2.7524
 9948SOL    HW234975   3.829   5.513   3.626  0.4971  0.8825  0.1639
 9949SOL     OW34976   2.037   1.702   6.557 -0.5700 -0.8728  0.0501
 9949SOL    HW134977   1.977   1.684   6.484  1.2718  0.0792 -1.7522
 9949SOL    HW234978   2.063   1.793   6.544 -0.6919 -0.4962  2.2990
 9950SOL     OW34979   5.126   8.424  10.337  0.0440  0.1358  0.2441
 9950SOL    HW134980   5.181   8.389  10.267 -1.7681 -0.2354 -1.0499
 9950SOL    HW234981   5.170   8.399  10.418  1.4930 -0.5843 -0.7469
 9951SOL     OW34982   1.489   5.435   7.670 -0.4927  0.1046 -0.0660
 9951SOL    HW134983   1.448   5.372   7.728  0.3362 -1.5346 -1.2335
 9951SOL    HW234984   1.546   5.487   7.727  1.8430 -2.7733  0.3181
 9952SOL     OW34985   5.923   4.693  10.854 -0.2644  0.3725  0.6278
 9952SOL    HW134986   6.004   4.648  10.829 -0.0211  2.6648 -3.0279
 9952SOL    HW234987   5.853   4.639  10.818 -0.1807  0.5172  0.2478
 9953SOL     OW34988   5.086   5.560   0.072 -0.6152 -0.4797 -0.1463
 9953SOL    HW134989   5.018   5.510   0.118  0.7115 -0.8633  1.4108
 9953SOL    HW234990   5.067   5.545  -0.021 -1.9845 -1.5071  0.2833
 9954SOL     OW34991   9.520   0.646   5.845 -0.1792  0.2833  0.0366
 9954SOL    HW134992   9.427   0.626   5.838 -0.2582  0.6640 -0.0273
 9954SOL    HW234993   9.563   0.561   5.856 -0.6387  0.1897  1.2344
 9955SOL     OW34994   0.930   6.911  11.122 -0.4878 -0.0185 -0.3033
 9955SOL    HW134995   0.990   6.838  11.138 -0.8158 -0.2656 -0.1942
 9955SOL    HW234996   0.980   6.972  11.068 -0.2907 -0.4334 -0.5911
 9956SOL     OW34997   3.176   3.182   3.843 -0.3671 -0.0637  0.0988
 9956SOL    HW134998   3.221   3.134   3.912 -1.2906  1.7451  1.9916
 9956SOL    HW234999   3.087   3.147   3.844 -0.4751  0.2064  0.0465
 9957SOL     OW35000  10.728  11.105   1.389  0.0811 -0.4050 -0.3017
 9957SOL    HW135001  10.712  11.134   1.299  0.6150 -1.6987 -0.8263
 9957SOL    HW235002  10.757  11.014   1.380  0.7100 -0.3575  1.1451
 9958SOL     OW35003   5.486   7.622   9.127 -0.1692  0.2931  0.2544
 9958SOL    HW135004   5.539   7.698   9.106  0.2959 -0.0551  0.1600
 9958SOL    HW235005   5.449   7.641   9.213 -0.4649  0.8466  0.0068
 9959SOL     OW35006   7.276   6.737   3.126  0.0062  0.3591 -0.4445
 9959SOL    HW135007   7.266   6.654   3.079  1.9824  0.1432 -0.5205
 9959SOL    HW235008   7.186   6.770   3.136 -0.8107 -1.8245 -0.3243
 9960SOL     OW35009   5.904   4.499   7.104 -0.2112 -0.4909 -0.1311
 9960SOL    HW135010   5.998   4.504   7.090 -0.3667 -0.7115 -1.3577
 9960SOL    HW235011   5.867   4.561   7.040 -0.9078 -0.5843  0.1729
 9961SOL     OW35012   3.389   2.346   1.838  0.4943  0.6663  0.0021
 9961SOL    HW135013   3.427   2.307   1.916 -2.0286 -0.1135  0.8997
 9961SOL    HW235014   3.382   2.274   1.775  0.1125  0.7002  0.0025
 9962SOL     OW35015   9.080   2.162   9.758 -0.0104  0.4304 -1.0217
 9962SOL    HW135016   9.038   2.209   9.830  1.4814  1.0171 -0.5227
 9962SOL    HW235017   9.146   2.222   9.724  0.2208 -0.3557 -2.0052
 9963SOL     OW35018   4.333   3.333   0.987  0.7798 -0.2987  0.1500
 9963SOL    HW135019   4.404   3.278   1.020  0.2398  0.1596  2.1183
 9963SOL    HW235020   4.363   3.423   1.001  0.1732 -0.0974  0.1752
 9964SOL     OW35021   6.257   3.682   0.843 -0.6923  0.2795 -0.7163
 9964SOL    HW135022   6.297   3.637   0.917 -1.7737 -0.8787 -0.8273
 9964SOL    HW235023   6.323   3.746   0.816  0.2811 -0.2552  0.3464
 9965SOL     OW35024   8.664  10.876   8.946  0.4540  0.0532  0.1107
 9965SOL    HW135025   8.634  10.961   8.914  1.0959  0.5462  0.7872
 9965SOL    HW235026   8.740  10.896   9.000  0.4477 -0.9276  0.5033
 9966SOL     OW35027   6.978  10.396   1.993 -0.3075 -0.0922  0.4840
 9966SOL    HW135028   6.990  10.302   1.977 -2.5319 -0.9361  3.4558
 9966SOL    HW235029   6.962  10.403   2.087 -1.5437  3.1438  0.1058
 9967SOL     OW35030   0.331   2.066   3.232  0.0738 -0.1465 -0.4119
 9967SOL    HW135031   0.339   2.155   3.266 -0.6847 -0.0524 -0.4549
 9967SOL    HW235032   0.410   2.052   3.181  0.5655  0.2161  0.2495
 9968SOL     OW35033   1.501   6.240   7.266 -0.0177  0.2870 -0.2548
 9968SOL    HW135034   1.496   6.284   7.181  0.0301  1.5591  0.3892
 9968SOL    HW235035   1.412   6.244   7.300  0.1394  0.5474  0.1314
 9969SOL     OW35036   2.759   5.107   1.985 -0.4564 -0.0936 -0.5417
 9969SOL    HW135037   2.794   5.036   1.931  0.7790 -0.1396  0.3005
 9969SOL    HW235038   2.717   5.166   1.922  1.5718  0.2046 -1.6635
 9970SOL     OW35039   1.251   9.871   8.828 -0.1668 -0.3528 -0.4705
 9970SOL    HW135040   1.232   9.791   8.875  1.0775 -0.9862 -1.0156
 9970SOL    HW235041   1.317   9.846   8.763  0.5452  1.1889 -0.3675
 9971SOL     OW35042   5.563   9.722   0.115  0.1592  0.2182 -0.5916
 9971SOL    HW135043   5.488   9.738   0.172  1.3513 -2.7497  1.9658
 9971SOL    HW235044   5.526   9.704   0.029 -2.0925 -1.7230  0.7514
 9972SOL     OW35045   4.549   1.147   3.437  0.6221 -0.5818 -0.2510
 9972SOL    HW135046   4.498   1.070   3.412  0.0992 -0.2234 -0.2925
 9972SOL    HW235047   4.564   1.194   3.355  1.5760 -1.0157 -0.3354
 9973SOL     OW35048   0.830   0.876   8.730  0.5119  0.7570 -0.0494
 9973SOL    HW135049   0.869   0.932   8.798 -0.1185  0.4620  0.5616
 9973SOL    HW235050   0.859   0.788   8.752 -0.6278  0.5058  0.5237
 9974SOL     OW35051   7.233  10.625   0.947  0.3058 -0.3161  0.5760
 9974SOL    HW135052   7.188  10.682   1.010  1.0666 -0.8618  1.6242
 9974SOL    HW235053   7.250  10.681   0.872  0.8757  0.7970  1.5239
 9975SOL     OW35054  10.249   0.226   4.545 -0.3355  0.4006  0.2519
 9975SOL    HW135055  10.205   0.219   4.630 -0.8267  0.2803 -0.0081
 9975SOL    HW235056  10.235   0.141   4.504  1.0785 -0.0199  0.6079
 9976SOL     OW35057   6.828  10.668   2.776 -0.2337  0.0358  0.1523
 9976SOL    HW135058   6.915  10.658   2.813  0.5430 -1.6107 -2.0205
 9976SOL    HW235059   6.838  10.647   2.683 -2.5024  2.0758 -0.6274
 9977SOL     OW35060   7.393   5.609  10.710  0.6227 -0.1919  0.3116
 9977SOL    HW135061   7.381   5.534  10.769  0.3764 -2.8051 -2.9145
 9977SOL    HW235062   7.318   5.606  10.651  0.5769  2.6950  0.1409
 9978SOL     OW35063   7.106   0.075   4.803  0.3400 -0.0597  0.1699
 9978SOL    HW135064   7.155   0.039   4.729  0.3968  1.6972 -0.6691
 9978SOL    HW235065   7.110   0.007   4.871  2.6136 -0.5538 -0.4523
 9979SOL     OW35066   3.078   7.205   0.882 -0.1489  0.1457 -0.2951
 9979SOL    HW135067   3.044   7.294   0.870 -1.6606 -0.3360  0.3959
 9979SOL    HW235068   3.031   7.171   0.958  0.9773 -0.9864 -0.0925
 9980SOL     OW35069   7.728  10.384   8.324  0.1042  0.2240  0.4853
 9980SOL    HW135070   7.743  10.296   8.288 -0.5425 -0.0611  0.9023
 9980SOL    HW235071   7.816  10.420   8.337  0.3568 -0.0652 -0.4108
 9981SOL     OW35072   8.581   4.181   7.833  0.5795 -0.2059 -0.3596
 9981SOL    HW135073   8.554   4.273   7.835 -0.5770 -0.5210  3.1370
 9981SOL    HW235074   8.565   4.153   7.743 -0.8815  2.4924 -1.0152
 9982SOL     OW35075   5.263  10.062   3.194  0.0496 -0.1624 -0.4647
 9982SOL    HW135076   5.260  10.138   3.252 -1.8309 -0.3860 -0.2636
 9982SOL    HW235077   5.352  10.065   3.156  0.1230  1.9245 -0.1956
 9983SOL     OW35078   2.062   2.834   4.122 -0.7085  0.5257 -0.4064
 9983SOL    HW135079   2.154   2.817   4.102 -0.9267 -0.9006 -0.2721
 9983SOL    HW235080   2.053   2.929   4.117  0.9632  0.7339  0.4233
 9984SOL     OW35081  11.259   7.339   7.200  0.3059  0.6041 -0.2573
 9984SOL    HW135082  11.213   7.260   7.173  1.8805 -0.4706  0.0977
 9984SOL    HW235083  11.259   7.395   7.123 -0.0157 -0.1402 -0.8010
 9985SOL     OW35084  10.262   2.797   7.216  0.6408  0.3445 -0.0073
 9985SOL    HW135085  10.254   2.885   7.178  0.3681  0.0235 -0.7031
 9985SOL    HW235086  10.185   2.751   7.186 -0.2804  0.4801  2.0795
 9986SOL     OW35087   7.757   5.046   5.250  0.2685 -0.7861 -0.4668
 9986SOL    HW135088   7.813   5.118   5.277 -0.1981 -0.2283 -0.9911
 9986SOL    HW235089   7.739   5.062   5.157  0.2265 -1.6143 -0.6113
 9987SOL     OW35090   5.783   8.872   0.011  0.1878 -0.7014  0.1469
 9987SOL    HW135091   5.859   8.885   0.067  0.7044 -1.2158 -0.4347
 9987SOL    HW235092   5.796   8.933  -0.061 -0.3013 -0.2920  0.4020
 9988SOL     OW35093   4.467   5.776   8.142  0.2573  0.6892 -0.2861
 9988SOL    HW135094   4.442   5.804   8.230 -1.7390  1.5903 -1.1033
 9988SOL    HW235095   4.548   5.727   8.154  1.2111  2.7075  1.7882
 9989SOL     OW35096  10.024   5.826   6.156  0.0749 -0.0687  0.2057
 9989SOL    HW135097  10.031   5.732   6.168 -1.8932 -0.2941 -0.3456
 9989SOL    HW235098  10.000   5.838   6.064  1.1298  1.0265  0.0483
 9990SOL     OW35099  10.020   7.966   7.690 -0.2203  0.6852  0.0653
 9990SOL    HW135100  10.065   8.041   7.726  0.1624  0.5905 -0.2130
 9990SOL    HW235101   9.975   7.927   7.764 -1.1780  1.7215  0.0414
 9991SOL     OW35102  11.136  10.859   9.953  0.4167 -0.0220  0.1060
 9991SOL    HW135103  11.123  10.792   9.886  1.0122  1.2230 -1.2723
 9991SOL    HW235104  11.143  10.941   9.904  3.0168  0.6532  1.5154
 9992SOL     OW35105   0.220   5.384   0.941 -0.2402 -0.0995 -0.1712
 9992SOL    HW135106   0.161   5.308   0.951  1.5180 -1.2481  1.8674
 9992SOL    HW235107   0.271   5.365   0.862 -0.9706 -0.2038 -0.6265
 9993SOL     OW35108   4.226   8.772   9.764 -0.9721 -0.3602  0.2544
 9993SOL    HW135109   4.204   8.818   9.683 -0.8090  0.0825  0.4592
 9993SOL    HW235110   4.232   8.842   9.830 -1.6824 -0.7754  0.7672
 9994SOL     OW35111  11.042   4.381   7.867  0.4718  0.9097  0.2120
 9994SOL    HW135112  11.085   4.335   7.939  2.5886  1.3122 -0.7609
 9994SOL    HW235113  11.032   4.315   7.799  0.5901  1.1213 -0.0070
 9995SOL     OW35114  10.473   6.484   6.856 -0.1524  0.3625  0.0804
 9995SOL    HW135115  10.430   6.424   6.796 -0.7939  0.1247  0.7687
 9995SOL    HW235116  10.433   6.569   6.838  0.4287  0.5013 -0.5722
 9996SOL     OW35117   9.790   5.894   3.152 -0.3609 -0.4102 -0.1304
 9996SOL    HW135118   9.842   5.821   3.187 -0.9939 -1.3486 -1.1099
 9996SOL    HW235119   9.744   5.857   3.077 -1.9379  0.5747  0.3177
 9997SOL     OW35120   5.092   3.103   9.180  0.4178  0.2827  0.3996
 9997SOL    HW135121   5.036   3.160   9.233  0.4280  0.8569 -0.2020
 9997SOL    HW235122   5.045   3.020   9.176  1.1836 -0.3047  2.6779
 9998SOL     OW35123   7.871   3.497   6.295 -0.0447  0.0734 -0.2103
 9998SOL    HW135124   7.919   3.415   6.285 -0.4133 -0.1646 -0.0193
 9998SOL    HW235125   7.889   3.524   6.385  0.5920  0.5280 -0.4698
 9999SOL     OW35126   8.218   0.493   4.693  0.1800 -0.3504  0.0074
 9999SOL    HW135127   8.209   0.588   4.684  0.2697 -0.3236  0.1941
 9999SOL    HW235128   8.194   0.475   4.784 -0.1317 -0.5430 -0.1115
10000SOL     OW35129   3.847   1.716  10.671  0.3298  0.1672 -0.2352
10000SOL    HW135130   3.875   1.629  10.645 -1.2334 -0.6866  0.8566
10000SOL    HW235131   3.768   1.732  10.620  1.8815  1.9366 -2.1825
10001SOL     OW35132  10.371   7.146   4.803 -0.2744  0.2250 -0.1052
10001SOL    HW135133  10.414   7.067   4.835  0.3465  0.2931 -0.7478
10001SOL    HW235134  10.278   7.125   4.804 -0.2147 -0.0353  1.0146
10002SOL     OW35135   6.108   5.930   1.073 -0.9081  0.2855  0.1471
10002SOL    HW135136   6.182   5.873   1.090 -1.8212 -1.3078 -1.0960
10002SOL    HW235137   6.135   5.983   0.997 -0.3668  0.9886  0.8168
10003SOL     OW35138   5.877   9.360   0.691  0.3645 -0.1995  0.1957
10003SOL    HW135139   5.816   9.421   0.732 -0.2621 -1.0081  0.4840
10003SOL    HW235140   5.959   9.372   0.739 -0.4572 -1.3770  1.9366
10004SOL     OW35141   4.402   0.909   3.929 -0.1909  0.4849 -0.3149
10004SOL    HW135142   4.466   0.970   3.892  0.1481 -0.5440 -1.4360
10004SOL    HW235143   4.318   0.956   3.921 -0.0188  0.5668 -1.7241
10005SOL     OW35144   2.276   6.574   7.688  0.1104 -0.7911 -0.7415
10005SOL    HW135145   2.221   6.508   7.730  1.3747 -1.4533 -0.1099
10005SOL    HW235146   2.299   6.536   7.603  1.3986 -1.4819 -0.1018
10006SOL     OW35147   8.172   3.914   8.339 -0.0235  0.1182 -0.0978
10006SOL    HW135148   8.139   3.965   8.413  0.4722  0.0198  0.1969
10006SOL    HW235149   8.238   3.856   8.378 -1.0925 -1.2596 -0.3013
10007SOL     OW35150   9.357   8.371   5.505 -0.6059  0.2525 -0.8557
10007SOL    HW135151   9.396   8.291   5.540 -0.9435 -0.3297 -1.7908
10007SOL    HW235152   9.431   8.424   5.476 -0.2502  1.2071  1.6644
10008SOL     OW35153   0.640   9.660   7.594 -0.1622  0.0473 -0.3161
10008SOL    HW135154   0.632   9.575   7.551  0.7123 -0.4908  0.5586
10008SOL    HW235155   0.733   9.682   7.589 -0.7939  2.3622 -3.1247
10009SOL     OW35156   9.598   7.183   6.933 -0.1330  0.5949 -0.8673
10009SOL    HW135157   9.635   7.137   7.009 -0.5190  0.8188 -0.5393
10009SOL    HW235158   9.575   7.114   6.872 -1.2993  0.3001 -0.1097
10010SOL     OW35159  10.082   2.731   0.896 -0.2328 -0.2188 -0.2102
10010SOL    HW135160  10.075   2.640   0.923 -0.7588  0.3804  1.6988
10010SOL    HW235161  10.160   2.764   0.939 -0.3338  0.3751 -0.4680
10011SOL     OW35162   5.131   9.921   5.618 -0.3362  0.1883 -0.0890
10011SOL    HW135163   5.100   9.881   5.699  0.0407 -1.5564 -0.7859
10011SOL    HW235164   5.192   9.989   5.647 -0.4908 -0.1655  1.0907
10012SOL     OW35165   0.470   5.237   5.213 -0.5357 -0.2133  0.1935
10012SOL    HW135166   0.375   5.232   5.207 -0.4920 -2.3189  0.8624
10012SOL    HW235167   0.499   5.146   5.216  1.5401  0.3899 -0.4386
10013SOL     OW35168   5.116   5.617  10.961 -0.3945  0.0420  0.2068
10013SOL    HW135169   5.084   5.707  10.957 -0.8311 -0.1483 -0.6495
10013SOL    HW235170   5.036   5.563  10.961 -0.1107 -0.3787 -0.3224
10014SOL     OW35171   2.042   1.942   8.575  0.5817  0.0491 -0.5300
10014SOL    HW135172   1.957   1.985   8.574 -0.7100 -2.2840  2.1877
10014SOL    HW235173   2.101   2.006   8.614 -0.5473  0.6262  0.2679
10015SOL     OW35174   2.430   5.878   5.099 -0.2743  0.1765  0.5255
10015SOL    HW135175   2.478   5.940   5.154  2.2981  0.1987 -1.6387
10015SOL    HW235176   2.477   5.879   5.016 -1.3038 -3.2919 -0.1570
10016SOL     OW35177   7.117  10.598   2.368 -0.4881  0.7935  0.3899
10016SOL    HW135178   7.070  10.522   2.333  0.1726 -0.3295  1.9174
10016SOL    HW235179   7.202  10.563   2.396  0.0302  2.2063  0.6166
10017SOL     OW35180   5.484   0.984   1.677 -0.0220 -0.1143  0.2716
10017SOL    HW135181   5.468   1.078   1.686 -0.1103  0.0979 -1.7699
10017SOL    HW235182   5.400   0.943   1.698 -1.0752  0.5148 -2.4664
10018SOL     OW35183   3.133   3.695   0.439 -0.3732 -0.3325 -0.0043
10018SOL    HW135184   3.223   3.728   0.431 -0.3581  0.1002  1.6772
10018SOL    HW235185   3.134   3.641   0.518 -1.7756  0.3292  0.4854
10019SOL     OW35186   2.355   3.348  10.081  0.2275 -0.2733  0.1444
10019SOL    HW135187   2.284   3.411  10.064 -0.6913 -0.7803  1.9681
10019SOL    HW235188   2.324   3.297  10.156  1.4395 -2.1894 -0.6294
10020SOL     OW35189   2.118   4.532   9.584 -0.4536  0.1131 -0.0801
10020SOL    HW135190   2.209   4.563   9.579  0.1943 -1.8133 -0.7658
10020SOL    HW235191   2.126   4.438   9.605 -2.3225  0.1829  1.1050
10021SOL     OW35192   4.707   8.718   1.379 -0.1267  0.3002 -0.0033
10021SOL    HW135193   4.724   8.710   1.285  0.2331  0.6595  0.0328
10021SOL    HW235194   4.620   8.758   1.384 -0.6585 -0.8185 -0.1833
10022SOL     OW35195   1.727   6.564   7.529 -0.1900  0.0992  0.0315
10022SOL    HW135196   1.665   6.616   7.478 -0.3298  0.0746  0.1757
10022SOL    HW235197   1.684   6.479   7.540 -0.1002  0.0580  0.0679
10023SOL     OW35198   7.155   1.031   5.317  0.2808  0.0543  0.7120
10023SOL    HW135199   7.242   1.013   5.354  0.9567 -2.1720 -1.8322
10023SOL    HW235200   7.170   1.098   5.251 -0.2673  1.0589  1.5926
10024SOL     OW35201   2.213  10.391   9.578  0.4964 -0.0503 -0.1076
10024SOL    HW135202   2.173  10.304   9.573  2.0257 -0.6726 -2.9685
10024SOL    HW235203   2.161  10.445   9.520  1.9312 -0.1168 -1.4968
10025SOL     OW35204   3.238   9.180   4.276 -0.3124 -0.3926  0.3182
10025SOL    HW135205   3.150   9.151   4.301 -0.5223  0.3971  0.5305
10025SOL    HW235206   3.282   9.199   4.359  0.0563 -0.7715  0.2116
10026SOL     OW35207  10.752   5.098   4.704  0.3816 -0.0833  0.7471
10026SOL    HW135208  10.660   5.118   4.690  0.2640 -0.7923  0.4808
10026SOL    HW235209  10.755   5.063   4.793 -0.0654 -2.7514 -0.2508
10027SOL     OW35210   4.676   8.920  10.035  0.3734  0.4223 -0.3449
10027SOL    HW135211   4.756   8.973  10.032 -0.7159  2.1019 -0.5214
10027SOL    HW235212   4.669   8.892  10.126  0.5014  1.3100 -0.0556
10028SOL     OW35213   7.631  11.045   1.368  0.1928 -0.9158 -0.2058
10028SOL    HW135214   7.644  11.132   1.331 -0.6276 -0.7880 -0.2189
10028SOL    HW235215   7.545  11.018   1.334 -1.4996  0.0227  3.1720
10029SOL     OW35216   4.130   4.075   9.060 -0.0430  0.6434  0.0198
10029SOL    HW135217   4.040   4.056   9.033 -0.3023  0.9539  0.6392
10029SOL    HW235218   4.126   4.078   9.155  1.1055 -1.6703  0.1840
10030SOL     OW35219   3.769   8.714   2.683  0.6317  0.3130  0.1784
10030SOL    HW135220   3.677   8.731   2.663  0.8183  0.6194 -0.4219
10030SOL    HW235221   3.784   8.761   2.766  0.2586  0.2989  0.2547
10031SOL     OW35222  10.397   6.159   5.802 -0.1618  0.3323  0.1803
10031SOL    HW135223  10.409   6.246   5.763  0.8477  0.9498  1.8157
10031SOL    HW235224  10.463   6.104   5.758 -1.3703  0.1462 -1.4758
10032SOL     OW35225   3.098   3.806  10.507 -0.2910 -0.8745  0.1124
10032SOL    HW135226   3.112   3.750  10.583 -0.7549 -0.4249  0.5305
10032SOL    HW235227   3.127   3.753  10.433 -0.6384 -1.6346  0.5123
10033SOL     OW35228   3.423   6.205   8.282 -0.7684 -0.4797  0.2685
10033SOL    HW135229   3.468   6.167   8.207  0.4331  1.3857  0.0324
10033SOL    HW235230   3.336   6.227   8.249 -1.3302 -2.5691  0.2896
10034SOL     OW35231   8.971   1.811   2.506  0.0346  0.0629 -0.2389
10034SOL    HW135232   9.013   1.728   2.487  0.5980  0.3911 -0.4386
10034SOL    HW235233   8.929   1.837   2.424 -1.3031 -0.6907  0.2001
10035SOL     OW35234   5.761   5.278   1.106 -0.8936 -0.0058 -0.0756
10035SOL    HW135235   5.699   5.223   1.153 -2.4035  1.3061 -0.4848
10035SOL    HW235236   5.707   5.338   1.055  0.6914 -0.6471 -2.6495
10036SOL     OW35237   9.782   9.916  11.019 -0.0202 -0.1925  0.0441
10036SOL    HW135238   9.810   9.836  10.975  0.9093  0.4223 -0.4841
10036SOL    HW235239   9.856   9.941  11.074 -0.5617 -0.0577  0.7272
10037SOL     OW35240   7.059   8.411  10.159  0.0581 -0.1062  0.3420
10037SOL    HW135241   6.996   8.401  10.231  0.5028  0.7319  0.8537
10037SOL    HW235242   7.145   8.400  10.200  0.3880  1.7833  0.2159
10038SOL     OW35243   6.767   9.939   4.130 -0.4109 -0.3421 -0.0466
10038SOL    HW135244   6.722   9.951   4.214 -1.4580 -0.2606 -0.6088
10038SOL    HW235245   6.758   9.846   4.111 -1.6094 -0.0775 -0.8500
10039SOL     OW35246   8.490   7.416  10.488 -0.3092  0.5133  0.3275
10039SOL    HW135247   8.482   7.402  10.393 -1.6905 -0.1572  0.5357
10039SOL    HW235248   8.543   7.496  10.496  0.8808 -0.1183 -0.9906
10040SOL     OW35249   8.953   8.902   3.194  0.5724 -0.2667  0.4375
10040SOL    HW135250   9.039   8.871   3.164  1.8729  2.1969  1.4511
10040SOL    HW235251   8.910   8.933   3.115 -0.4229 -3.6833 -0.4710
10041SOL     OW35252   6.794   9.979  10.914  0.0842  0.5491  0.4780
10041SOL    HW135253   6.834  10.048  10.968  0.1354  3.0226 -2.5150
10041SOL    HW235254   6.716  10.020  10.877  0.7477 -0.5376 -2.3114
10042SOL     OW35255   6.176   8.112   9.933 -0.4353  0.0519 -0.4445
10042SOL    HW135256   6.234   8.074   9.999 -1.6434 -1.9964 -0.5467
10042SOL    HW235257   6.126   8.179   9.981  0.7440  0.5991  0.0392
10043SOL     OW35258   7.778   7.645   9.340 -0.4557  0.2464  0.0890
10043SOL    HW135259   7.773   7.607   9.428 -0.0761 -3.2081 -1.2906
10043SOL    HW235260   7.872   7.650   9.322 -0.5534 -0.2000 -0.5647
10044SOL     OW35261   6.702   2.946   0.709 -0.4809 -0.1955  0.6156
10044SOL    HW135262   6.783   2.975   0.667 -0.6599  1.7269  1.5528
10044SOL    HW235263   6.687   2.859   0.673  1.1551  0.0572 -0.7676
10045SOL     OW35264   9.446   6.223   4.736 -0.6108 -0.0439  0.1973
10045SOL    HW135265   9.370   6.223   4.678 -1.1577  2.9752  0.8042
10045SOL    HW235266   9.424   6.287   4.804  1.5421 -0.8088  1.6485
10046SOL     OW35267   0.634   4.611   9.524 -0.4355 -0.0065 -0.5616
10046SOL    HW135268   0.613   4.673   9.454 -1.7242  1.5254  1.1280
10046SOL    HW235269   0.729   4.608   9.526 -0.3655  1.6085 -0.9626
10047SOL     OW35270   0.123   0.963   0.169  0.0556  0.1822 -0.5142
10047SOL    HW135271   0.116   1.030   0.237  0.2692  0.9433 -1.2386
10047SOL    HW235272   0.216   0.964   0.145 -0.1773  0.5024 -1.4098
10048SOL     OW35273   9.459   7.820   2.862  0.1957  0.4783 -0.1347
10048SOL    HW135274   9.507   7.875   2.800  0.9117 -2.1987 -2.0364
10048SOL    HW235275   9.378   7.798   2.816  0.8713 -1.7924 -0.2945
10049SOL     OW35276  10.354   4.791   5.195  0.3065 -0.1378 -0.0178
10049SOL    HW135277  10.408   4.837   5.131 -0.8911  3.7136  1.6223
10049SOL    HW235278  10.414   4.730   5.238  2.3169  0.9776 -1.2060
10050SOL     OW35279   0.313   5.596   3.169 -0.7677  0.4842  0.0251
10050SOL    HW135280   0.340   5.515   3.126 -0.6030  0.9485 -0.7607
10050SOL    HW235281   0.383   5.613   3.232  0.6821  1.5320 -1.8096
10051SOL     OW35282   2.107   1.962   6.509  0.3960 -0.1631 -0.8650
10051SOL    HW135283   2.142   1.961   6.598 -0.3327 -1.8747 -0.5795
10051SOL    HW235284   2.132   2.048   6.475 -0.3408  0.9990  1.3802
10052SOL     OW35285   0.252   8.486   1.305 -0.2242 -0.2492 -0.0693
10052SOL    HW135286   0.302   8.481   1.223 -1.5758 -1.0748 -0.8581
10052SOL    HW235287   0.308   8.442   1.370  0.3738 -0.5689 -0.7941
10053SOL     OW35288   5.152   5.416   2.100 -0.2439  0.5956 -0.1774
10053SOL    HW135289   5.200   5.379   2.174 -0.2811  0.1698 -0.3662
10053SOL    HW235290   5.172   5.509   2.103 -0.4103  0.6097  0.4915
10054SOL     OW35291   4.360   3.015   3.181  0.1163  0.0468 -0.0839
10054SOL    HW135292   4.415   3.016   3.103 -0.5031 -2.4519 -0.5825
10054SOL    HW235293   4.381   2.933   3.225 -0.3374  0.9210  1.8063
10055SOL     OW35294  10.610   2.637  10.147 -0.3067  0.3705  0.2907
10055SOL    HW135295  10.628   2.556  10.195  0.9322 -1.1058 -2.5831
10055SOL    HW235296  10.565   2.693  10.211  0.6656 -1.7808  2.9409
10056SOL     OW35297  10.924  11.050   1.952  0.1039  0.3063 -0.0252
10056SOL    HW135298  10.835  11.084   1.956  0.5196  1.3542  0.4753
10056SOL    HW235299  10.945  11.027   2.042  0.1736 -0.3640 -0.2120
10057SOL     OW35300  11.079   8.892   5.834  0.4316  0.3305 -0.0640
10057SOL    HW135301  11.034   8.952   5.894 -0.0539 -0.6480  0.5581
10057SOL    HW235302  11.009   8.859   5.777  0.6889  0.2921 -0.3549
10058SOL     OW35303   1.018   2.638   4.006 -0.6683  0.3335  0.1579
10058SOL    HW135304   1.024   2.727   4.041 -0.6078  0.0219  0.9585
10058SOL    HW235305   1.079   2.637   3.932  1.0797  0.3191  1.5539
10059SOL     OW35306   1.776  10.805   9.906  0.7221  0.6222 -0.6637
10059SOL    HW135307   1.848  10.862   9.880 -0.0453  1.5098 -0.8234
10059SOL    HW235308   1.728  10.788   9.826  1.7178 -1.3850 -0.8974
10060SOL     OW35309   4.497   8.414   7.854  0.4056  0.0723 -0.1064
10060SOL    HW135310   4.446   8.334   7.840  1.0653 -0.5422  0.8676
10060SOL    HW235311   4.436   8.476   7.892  0.3311 -0.6148  0.9236
10061SOL     OW35312   8.891   6.108  10.514 -0.2886 -0.0217 -0.2227
10061SOL    HW135313   8.798   6.098  10.492 -0.2769  0.9712 -0.7503
10061SOL    HW235314   8.933   6.129  10.430  0.0802  1.6657  0.3665
10062SOL     OW35315   6.585   9.273   2.390  0.2389  0.4975  0.1767
10062SOL    HW135316   6.533   9.305   2.464  2.0704  0.1220  1.6537
10062SOL    HW235317   6.580   9.344   2.325 -2.2263  0.3912  0.2195
10063SOL     OW35318  10.836   6.661   4.417 -0.0366 -0.2812  0.3455
10063SOL    HW135319  10.810   6.745   4.379  0.1050 -0.5582 -0.3914
10063SOL    HW235320  10.760   6.632   4.467 -0.6744 -0.4739 -0.7228
10064SOL     OW35321   6.798   5.840   6.883 -0.0952 -0.1878  0.0563
10064SOL    HW135322   6.845   5.923   6.879  2.3021 -1.4815  0.5150
10064SOL    HW235323   6.783   5.817   6.792  1.5278 -0.4948 -0.1468
10065SOL     OW35324   4.938   8.872   9.128 -0.3050  0.2205 -0.0206
10065SOL    HW135325   4.894   8.861   9.212 -0.1974  1.4259  0.1940
10065SOL    HW235326   5.017   8.922   9.148 -0.3802  0.6790 -0.8701
10066SOL     OW35327   7.420   9.294   2.575  0.2233  0.8061  0.1838
10066SOL    HW135328   7.446   9.203   2.560  0.4512  0.7142  1.1093
10066SOL    HW235329   7.384   9.322   2.491  2.0847  0.5162 -0.7627
10067SOL     OW35330   6.063  10.730   9.756 -0.1070 -0.6539 -0.4957
10067SOL    HW135331   6.151  10.692   9.762  0.3141 -0.1377 -2.9674
10067SOL    HW235332   6.047  10.768   9.842  1.8019 -1.3629  0.1899
10068SOL     OW35333   1.733   5.117   1.748 -0.2724  0.0746  0.1469
10068SOL    HW135334   1.790   5.111   1.825  1.7356  0.2787 -1.2739
10068SOL    HW235335   1.740   5.030   1.708  0.4595  0.6492 -0.9930
10069SOL     OW35336   0.214   3.494   3.195  0.0975  0.8247 -0.5168
10069SOL    HW135337   0.133   3.448   3.218 -0.2411  0.6041 -2.0484
10069SOL    HW235338   0.222   3.564   3.259 -0.6246  0.0389  0.4361
10070SOL     OW35339   3.442   1.293  11.221  0.5094 -0.2062 -0.3530
10070SOL    HW135340   3.534   1.305  11.199  0.1994 -1.3985 -2.4994
10070SOL    HW235341   3.397   1.364  11.176  0.3988  0.4744  0.8340
10071SOL     OW35342  10.773   4.388   3.549 -0.0872  0.2158  0.3438
10071SOL    HW135343  10.817   4.332   3.486  0.5775 -0.1296  1.1070
10071SOL    HW235344  10.788   4.477   3.517 -0.3465  0.0143 -0.3549
10072SOL     OW35345   0.010   1.268   9.675  0.4402 -0.2499 -0.4737
10072SOL    HW135346  -0.083   1.245   9.670 -0.2483  2.6377 -2.1459
10072SOL    HW235347   0.021   1.303   9.764  0.1302 -1.2262 -0.0382
10073SOL     OW35348   7.075   4.811  10.546 -0.4655 -0.4756 -0.0753
10073SOL    HW135349   7.004   4.875  10.543  0.3355  0.3723 -1.8545
10073SOL    HW235350   7.034   4.731  10.577 -2.1684  0.0446 -0.9182
10074SOL     OW35351   6.813   4.494   0.662 -0.1808  0.4379  0.3352
10074SOL    HW135352   6.826   4.536   0.748 -0.4987 -0.0679  0.6335
10074SOL    HW235353   6.806   4.567   0.601 -2.9320  0.8914  1.1386
10075SOL     OW35354  10.207   6.852   4.611 -0.0936  0.1874 -0.4314
10075SOL    HW135355  10.227   6.817   4.698  0.2184  0.2344 -0.4855
10075SOL    HW235356  10.285   6.835   4.559  0.5719  2.1161 -0.1144
10076SOL     OW35357  10.250   1.561   8.433 -0.0803  0.0723  0.1345
10076SOL    HW135358  10.248   1.634   8.371  0.7363  0.3604  0.4414
10076SOL    HW235359  10.228   1.600   8.517 -1.4522 -0.3677 -0.0111
10077SOL     OW35360   8.228   7.157   4.683 -0.4527 -0.1271  0.1567
10077SOL    HW135361   8.279   7.198   4.752 -0.5037  1.3706 -0.6722
10077SOL    HW235362   8.137   7.174   4.708 -0.4537  1.4435 -0.8725
10078SOL     OW35363   0.981   1.342   0.482 -0.0205 -0.2484 -0.6432
10078SOL    HW135364   0.964   1.257   0.523  0.9575  0.1921  0.7253
10078SOL    HW235365   0.907   1.357   0.424 -1.9266 -0.4636  1.6827
10079SOL     OW35366   8.775   2.835   8.460  0.1576  0.3037 -0.1131
10079SOL    HW135367   8.696   2.786   8.437 -0.7340  1.8989 -0.5201
10079SOL    HW235368   8.787   2.896   8.387  1.1079  0.8606  0.5033
10080SOL     OW35369   4.575   4.083   7.926  0.0821 -0.1037 -0.4656
10080SOL    HW135370   4.554   4.050   7.839  0.2446 -0.1954 -0.4705
10080SOL    HW235371   4.495   4.070   7.977  0.1250 -0.4499 -0.4845
10081SOL     OW35372   8.820   2.830   4.690  0.3528  0.1800 -0.0593
10081SOL    HW135373   8.766   2.756   4.718 -0.5251  0.4732 -0.9689
10081SOL    HW235374   8.820   2.890   4.764  2.7576 -1.6230  1.5113
10082SOL     OW35375   3.015   8.980   2.934 -0.0644  0.4874  0.0319
10082SOL    HW135376   2.961   8.937   2.868  0.1414 -1.0915  0.8548
10082SOL    HW235377   2.953   9.008   3.002  0.0366 -0.5515  0.5651
10083SOL     OW35378   0.528   3.088   8.368  0.7358 -0.6107 -0.0466
10083SOL    HW135379   0.589   3.098   8.440  0.5787 -0.9599  0.1363
10083SOL    HW235380   0.575   3.034   8.304  0.6054 -0.9149  0.1127
10084SOL     OW35381   2.604   0.365   0.945 -0.5389 -0.0356  0.5214
10084SOL    HW135382   2.545   0.357   0.870  0.0058 -0.2932  0.1130
10084SOL    HW235383   2.603   0.279   0.986 -1.0077  0.1695  0.9402
10085SOL     OW35384   3.422   0.457   3.917 -0.0450  0.0780  0.1248
10085SOL    HW135385   3.516   0.446   3.931 -0.0523  2.2374  2.2098
10085SOL    HW235386   3.414   0.485   3.825  1.2774 -0.6349 -0.2170
10086SOL     OW35387   2.777   0.844   5.136  0.0614 -0.2157  0.1612
10086SOL    HW135388   2.754   0.919   5.191 -1.1784 -0.2052 -0.3517
10086SOL    HW235389   2.865   0.864   5.105  0.8714 -0.3471  2.3237
10087SOL     OW35390   7.185   0.924   2.679  0.1268  0.4258 -0.1140
10087SOL    HW135391   7.149   1.004   2.716 -0.6024  0.7437 -1.4730
10087SOL    HW235392   7.224   0.878   2.754 -2.1318  0.5787  1.1937
10088SOL     OW35393   1.566   4.824   7.889 -0.5474 -0.0229  0.5574
10088SOL    HW135394   1.569   4.916   7.916 -0.5043  0.2709 -0.4090
10088SOL    HW235395   1.473   4.805   7.879 -0.5797 -0.2389  1.2653
10089SOL     OW35396   7.246  10.298   7.733 -0.1829 -0.3963  0.0547
10089SOL    HW135397   7.217  10.252   7.812  0.5035  0.5839  0.9010
10089SOL    HW235398   7.312  10.360   7.765 -1.6847  1.7851 -0.9114
10090SOL     OW35399  10.116   3.902   8.972 -0.2968 -0.0056 -0.0535
10090SOL    HW135400  10.067   3.831   9.013 -0.2842 -0.5901 -1.0384
10090SOL    HW235401  10.050   3.950   8.921 -0.2309  0.4483  0.2857
10091SOL     OW35402   8.067   7.694   0.641 -0.1094 -0.0214 -0.0933
10091SOL    HW135403   7.988   7.730   0.682 -1.2946 -2.6939  0.1013
10091SOL    HW235404   8.088   7.756   0.571 -0.2682  2.6233  2.1262
10092SOL     OW35405   4.959   2.681   5.051 -0.0217  0.4317  0.0188
10092SOL    HW135406   5.036   2.670   4.995  0.0397  0.4533  0.0978
10092SOL    HW235407   4.911   2.753   5.013  0.0877  0.5306  0.0677
10093SOL     OW35408   8.184   0.718  10.163  0.2970  0.1823  0.0605
10093SOL    HW135409   8.245   0.672  10.106  0.1530  0.9189 -0.6870
10093SOL    HW235410   8.192   0.673  10.247  2.7802  1.0423  0.3248
10094SOL     OW35411   3.346   8.164   3.780  0.0676  0.1910 -0.5903
10094SOL    HW135412   3.384   8.088   3.825 -2.7728 -1.2506 -0.5478
10094SOL    HW235413   3.347   8.140   3.687 -1.5992 -0.2621 -0.4989
10095SOL     OW35414  11.318  10.115   4.094 -0.4081  0.0988 -0.7869
10095SOL    HW135415  11.316  10.210   4.101 -1.4831  0.0807 -0.8168
10095SOL    HW235416  11.408  10.095   4.069 -0.2454  1.1205 -1.0330
10096SOL     OW35417   0.418  10.094   0.070  0.3698  0.2420  0.0258
10096SOL    HW135418   0.379  10.035   0.005  1.5615 -1.0493  0.4671
10096SOL    HW235419   0.343  10.122   0.123 -0.2794 -0.5071 -0.4715
10097SOL     OW35420   7.572   6.345   5.645 -0.3538  0.0456  0.1595
10097SOL    HW135421   7.577   6.407   5.572  3.4615 -2.0583 -1.5268
10097SOL    HW235422   7.517   6.274   5.611 -0.3041  0.0234  0.1256
10098SOL     OW35423   1.874   4.583  11.269 -0.2662  0.6449 -0.1211
10098SOL    HW135424   1.843   4.636  11.343 -0.7627 -0.4891  0.4831
10098SOL    HW235425   1.932   4.519  11.309  0.1674  0.5878 -0.8358
10099SOL     OW35426   4.141  10.002   3.606  0.0458  0.5051  0.1133
10099SOL    HW135427   4.049  10.028   3.599 -0.7707 -1.9847  1.2964
10099SOL    HW235428   4.150   9.927   3.547  0.9931 -0.1251  1.0351
10100SOL     OW35429   9.036  10.918   1.746  0.0958  0.1392  0.4997
10100SOL    HW135430   9.120  10.888   1.782  0.8183  0.7763 -0.5860
10100SOL    HW235431   9.043  11.014   1.748 -0.5353  0.1917  0.2306
10101SOL     OW35432   1.063   3.457   9.193 -0.3685  0.0305 -0.0510
10101SOL    HW135433   0.991   3.464   9.255 -0.2569 -0.8972  0.1923
10101SOL    HW235434   1.131   3.410   9.240  0.3295  0.7348 -0.3442
10102SOL     OW35435   1.699   8.780   2.220  0.3692  0.0567 -0.3341
10102SOL    HW135436   1.788   8.789   2.185  0.9071 -2.2248  0.4118
10102SOL    HW235437   1.681   8.865   2.262  1.7860  0.8844 -1.3605
10103SOL     OW35438   0.303   7.108   5.069 -0.6215  0.1317 -0.4071
10103SOL    HW135439   0.398   7.115   5.076 -0.6879 -0.4080  1.3266
10103SOL    HW235440   0.274   7.194   5.040  0.1759  1.1234  1.6693
10104SOL     OW35441   9.402  10.273   9.280 -0.3187 -0.4372 -0.3225
10104SOL    HW135442   9.447  10.311   9.355  0.0506  0.7847 -1.1456
10104SOL    HW235443   9.457  10.200   9.253 -0.3389 -0.7463  0.4436
10105SOL     OW35444   9.305   8.209   5.134  0.0675 -0.0609 -0.3527
10105SOL    HW135445   9.374   8.275   5.143 -0.3529  0.4319 -0.7044
10105SOL    HW235446   9.335   8.154   5.061  1.0190 -1.0174  0.7505
10106SOL     OW35447   5.485   0.753   8.868 -0.0940 -0.3535  0.4135
10106SOL    HW135448   5.434   0.693   8.922 -1.9787  0.0300 -0.8865
10106SOL    HW235449   5.461   0.840   8.899 -1.0404 -0.1396 -0.8861
10107SOL     OW35450   3.601   2.376   7.851  0.4404 -0.2489  0.0974
10107SOL    HW135451   3.564   2.287   7.855  3.1954 -1.3956  1.1391
10107SOL    HW235452   3.610   2.402   7.943 -3.1300  2.3868 -0.1797
10108SOL     OW35453  10.780   0.520   6.437 -0.1184  0.2973  0.6766
10108SOL    HW135454  10.734   0.486   6.514 -0.2465 -0.2764  0.3466
10108SOL    HW235455  10.716   0.515   6.366  0.1785  0.3067  0.4075
10109SOL     OW35456  10.995   5.467   2.473  0.5594 -0.1090 -0.3700
10109SOL    HW135457  10.939   5.393   2.495  0.0791 -0.3595 -2.3782
10109SOL    HW235458  11.080   5.445   2.511 -0.4381 -0.1192  1.9319
10110SOL     OW35459   0.295   6.248   2.637 -0.0915  0.3138  0.5843
10110SOL    HW135460   0.350   6.318   2.671 -0.9051  0.6621  1.2274
10110SOL    HW235461   0.275   6.194   2.714  2.8583 -2.2990 -0.3745
10111SOL     OW35462   7.663   0.977   3.233  0.2261  0.1576  0.4693
10111SOL    HW135463   7.594   0.913   3.216 -0.5437  0.8829  0.8618
10111SOL    HW235464   7.744   0.926   3.233 -0.0093 -0.3315 -2.6223
10112SOL     OW35465   1.553   3.042   6.557 -0.5995 -0.1884  0.0345
10112SOL    HW135466   1.524   3.129   6.529  1.3067  1.0151  1.5871
10112SOL    HW235467   1.476   3.003   6.598 -1.5416  0.6824 -0.8794
10113SOL     OW35468   2.653   1.935   8.087 -0.0622  0.1412 -0.2411
10113SOL    HW135469   2.679   1.860   8.141 -0.4589  1.1489  1.3687
10113SOL    HW235470   2.564   1.956   8.117  1.4280  3.6232  2.0012
10114SOL     OW35471  10.998   4.036   5.723  0.0157  0.5459  0.4394
10114SOL    HW135472  11.053   4.093   5.778  1.6306 -1.0211  0.4923
10114SOL    HW235473  11.035   3.949   5.735 -0.2736  0.0095 -2.2872
10115SOL     OW35474   7.849   2.280   3.457 -0.1595 -0.1219  0.0145
10115SOL    HW135475   7.867   2.374   3.467 -1.0592 -0.1798  2.6610
10115SOL    HW235476   7.920   2.237   3.506 -0.2265 -0.7947 -0.4752
10116SOL     OW35477   4.644   0.413   6.635  0.1104 -0.4169 -0.3857
10116SOL    HW135478   4.712   0.447   6.577  0.2476  0.1484  0.1015
10116SOL    HW235479   4.598   0.347   6.582 -0.2523  0.6267 -1.3908
10117SOL     OW35480   0.739   9.297   5.391 -0.0304 -0.3010  0.0791
10117SOL    HW135481   0.740   9.355   5.467 -0.1447 -2.3535  1.7283
10117SOL    HW235482   0.648   9.266   5.386 -0.1679  0.3275 -1.2926
10118SOL     OW35483   7.087  11.154   6.629  0.4492  0.3009  0.4528
10118SOL    HW135484   7.082  11.244   6.660 -0.0671  0.0592  1.0751
10118SOL    HW235485   7.153  11.156   6.560  0.0497  1.2550  0.0989
10119SOL     OW35486   4.457  10.705   3.239  0.0547 -0.8808 -0.3815
10119SOL    HW135487   4.401  10.781   3.230  0.3797 -0.5356  0.4069
10119SOL    HW235488   4.539  10.730   3.196  0.2516 -0.6841  0.1043
10120SOL     OW35489   1.450   6.201   1.243 -0.2870 -0.4545 -0.2355
10120SOL    HW135490   1.423   6.290   1.223 -1.8544 -0.3601  2.0370
10120SOL    HW235491   1.370   6.158   1.275  0.9182 -1.9976  0.8547
10121SOL     OW35492   4.189   6.388   0.002  0.0372 -0.4914 -0.1410
10121SOL    HW135493   4.131   6.312  -0.003  0.9595 -1.2261  0.2037
10121SOL    HW235494   4.151   6.442   0.071 -0.1856 -1.0291  0.1682
10122SOL     OW35495   6.309   9.474   4.533 -0.3623  0.1786 -0.0736
10122SOL    HW135496   6.350   9.538   4.475  0.7888 -1.1148 -0.6799
10122SOL    HW235497   6.263   9.414   4.475 -0.1980 -0.4309  0.4228
10123SOL     OW35498   3.891   4.028   0.645 -0.0399  0.8027  0.1801
10123SOL    HW135499   3.934   4.030   0.730  0.8119  0.7899 -0.2505
10123SOL    HW235500   3.962   4.031   0.581 -0.6680  0.7507 -0.5353
10124SOL     OW35501   4.248   5.944   8.985 -0.5531 -0.4912  0.0910
10124SOL    HW135502   4.232   5.863   9.034  1.5569 -0.5204  0.8159
10124SOL    HW235503   4.179   5.946   8.919 -1.9239 -1.7763  1.4290
10125SOL     OW35504  10.500   0.947   0.508  0.0931 -0.7470  0.1809
10125SOL    HW135505  10.449   1.016   0.550 -1.5330 -0.9897 -1.3470
10125SOL    HW235506  10.532   0.894   0.581 -2.8907 -1.3003  1.1742
10126SOL     OW35507   6.775   5.100   9.581 -0.0534  0.1811  0.5102
10126SOL    HW135508   6.703   5.069   9.637 -0.4694  1.2516  0.5817
10126SOL    HW235509   6.816   5.020   9.548  0.2602 -0.4838  2.4336
10127SOL     OW35510   1.359   0.093   0.871  0.5603  0.0745  0.0692
10127SOL    HW135511   1.400   0.014   0.836  0.7683 -0.6972  1.9520
10127SOL    HW235512   1.352   0.076   0.965 -0.2101  1.9441  0.3736
10128SOL     OW35513   0.323   7.587   0.024 -0.3239 -0.4132  0.0925
10128SOL    HW135514   0.418   7.596   0.017  0.1191 -3.6144  1.4734
10128SOL    HW235515   0.290   7.615  -0.062  1.8689  0.3976 -0.5069
10129SOL     OW35516   3.018   4.134   9.319  0.1460  0.7425  0.2673
10129SOL    HW135517   2.983   4.072   9.384  0.1335 -1.3327 -1.6393
10129SOL    HW235518   3.111   4.141   9.339  0.5044 -1.2706 -0.4898
10130SOL     OW35519   0.370   8.823   6.268 -0.4397 -0.2202  0.0004
10130SOL    HW135520   0.359   8.903   6.216  1.6186 -0.2726 -0.5510
10130SOL    HW235521   0.426   8.850   6.341 -0.4204 -0.9708  0.2613
10131SOL     OW35522   4.250   5.970   9.484 -0.4444  0.0802  0.1940
10131SOL    HW135523   4.281   5.881   9.496 -2.3875 -0.6479  0.0015
10131SOL    HW235524   4.324   6.025   9.511  0.4027 -1.5716  1.3241
10132SOL     OW35525   6.504   4.914  10.700 -0.1825 -0.2308 -0.5597
10132SOL    HW135526   6.522   5.007  10.710 -0.2005 -0.1995 -0.8192
10132SOL    HW235527   6.416   4.903  10.737 -0.4053 -0.0472 -1.0238
10133SOL     OW35528   7.389   8.556   9.890 -0.3424 -0.4456 -0.0630
10133SOL    HW135529   7.466   8.613   9.898 -1.4311  1.0995 -0.4114
10133SOL    HW235530   7.321   8.601   9.940 -1.9667 -0.0632 -2.5302
10134SOL     OW35531   9.637   7.011   9.773  0.2562 -0.3262  0.6324
10134SOL    HW135532   9.611   6.976   9.859 -0.3553 -0.2066  0.5014
10134SOL    HW235533   9.559   6.999   9.719  0.9639 -1.3005 -0.1818
10135SOL     OW35534   0.167   1.134   7.651  0.0321 -0.4534  0.6725
10135SOL    HW135535   0.189   1.050   7.612 -0.6770 -0.6144  0.6028
10135SOL    HW235536   0.199   1.199   7.588  0.2613 -0.6769  0.5571
10136SOL     OW35537   1.425   3.380   1.836  0.0152 -0.2471  0.6734
10136SOL    HW135538   1.415   3.287   1.853  0.6612 -0.2649  0.9769
10136SOL    HW235539   1.393   3.423   1.915 -0.9314 -0.1856  0.2601
10137SOL     OW35540   0.694   5.387   6.357 -0.7318  0.4596 -0.0342
10137SOL    HW135541   0.665   5.434   6.279 -0.9141 -0.1664 -0.3536
10137SOL    HW235542   0.786   5.410   6.368 -0.2931 -0.6288 -1.3166
10138SOL     OW35543   0.917   0.142   4.587  0.1359  0.0896 -0.0941
10138SOL    HW135544   0.871   0.141   4.670  0.6736 -2.6725  0.2079
10138SOL    HW235545   0.850   0.120   4.522 -0.1038  1.4537 -0.3447
10139SOL     OW35546   5.454   5.728   5.679  0.5604 -0.1164  0.1641
10139SOL    HW135547   5.447   5.632   5.677 -0.4872 -0.0554  0.5679
10139SOL    HW235548   5.544   5.746   5.653  1.0275 -1.2487  0.9788
10140SOL     OW35549   1.861   1.455   5.776 -0.3654  0.0923  0.1279
10140SOL    HW135550   1.845   1.548   5.793 -0.5171 -0.2011  1.6050
10140SOL    HW235551   1.774   1.416   5.769 -0.3217  0.2605 -1.7459
10141SOL     OW35552  11.270   3.750   1.934 -0.1025 -0.0915  0.1691
10141SOL    HW135553  11.181   3.733   1.904  0.0158 -0.1967 -0.1245
10141SOL    HW235554  11.315   3.666   1.929 -0.2237 -0.2221  1.1417
10142SOL     OW35555   3.725   5.274   7.914  0.2055 -0.7537 -0.3353
10142SOL    HW135556   3.670   5.346   7.883  0.3781 -0.2770  0.4652
10142SOL    HW235557   3.663   5.204   7.935 -0.2118  0.2197  1.7707
10143SOL     OW35558   0.816   5.278   0.718  0.0943  0.4546 -0.3754
10143SOL    HW135559   0.835   5.251   0.808  1.8054 -2.5056 -1.5636
10143SOL    HW235560   0.723   5.303   0.719  0.1071  0.5284  2.1925
10144SOL     OW35561   9.951   6.016   6.362  0.2453 -0.5268 -0.0097
10144SOL    HW135562  10.024   5.989   6.418 -0.7873 -1.5837  0.8687
10144SOL    HW235563   9.951   5.952   6.291  0.8968  0.1804 -0.6531
10145SOL     OW35564   6.233   2.366  10.728  0.2809  0.2149 -0.5242
10145SOL    HW135565   6.309   2.312  10.749  0.2474  0.2784 -0.2413
10145SOL    HW235566   6.254   2.404  10.643 -0.0136 -0.8259 -1.0764
10146SOL     OW35567   2.460   1.053   2.595  0.2758  0.6672 -0.0907
10146SOL    HW135568   2.439   1.022   2.507  2.2590  0.5179 -0.5443
10146SOL    HW235569   2.469   1.148   2.586 -0.8530  0.8166  0.2514
10147SOL     OW35570   0.813   6.457   1.557 -0.0421  0.1143 -0.2838
10147SOL    HW135571   0.862   6.539   1.557  1.3070 -0.6738 -1.7128
10147SOL    HW235572   0.843   6.411   1.636 -0.7616  0.9491  0.4891
10148SOL     OW35573   0.681   1.274   4.693 -0.0593  0.2006  0.5882
10148SOL    HW135574   0.764   1.320   4.678  0.6033 -0.8462  0.9577
10148SOL    HW235575   0.702   1.208   4.759 -1.2383  0.0584  0.8278
10149SOL     OW35576   1.304   8.536   3.393  0.4725 -0.2341 -0.2292
10149SOL    HW135577   1.325   8.627   3.415  0.6822 -0.1615 -0.7167
10149SOL    HW235578   1.240   8.542   3.322 -0.6999 -0.4621  0.8032
10150SOL     OW35579   5.798   3.097   9.302 -0.0460 -0.0734 -0.0172
10150SOL    HW135580   5.753   3.181   9.287 -0.1178 -0.1033  0.0319
10150SOL    HW235581   5.888   3.122   9.324 -0.1112 -0.0014  0.1737
10151SOL     OW35582   3.257   1.612   0.065  0.1287  0.2876 -0.2096
10151SOL    HW135583   3.295   1.536   0.108 -1.0687 -0.6613 -0.8046
10151SOL    HW235584   3.296   1.687   0.110  1.3157 -0.6676  0.3760
10152SOL     OW35585  11.248   7.188   6.540  0.8922  0.7422 -0.2029
10152SOL    HW135586  11.269   7.259   6.479 -0.4231  0.6699 -0.7722
10152SOL    HW235587  11.231   7.112   6.483 -1.9836  1.0877  0.0936
10153SOL     OW35588   4.288   0.199   4.580 -0.1008  0.1424 -0.2697
10153SOL    HW135589   4.310   0.132   4.645  0.6102 -0.4074 -1.0783
10153SOL    HW235590   4.278   0.280   4.632 -0.9494 -0.5678  0.7029
10154SOL     OW35591   1.637   0.589   2.362 -0.0353 -0.1526 -0.2912
10154SOL    HW135592   1.578   0.618   2.292 -0.8342 -3.1248 -0.9224
10154SOL    HW235593   1.705   0.657   2.366 -1.3746  1.3409 -2.2185
10155SOL     OW35594   5.642   1.259   4.187  0.0171  0.5168 -0.6396
10155SOL    HW135595   5.700   1.311   4.244  2.2399 -1.8899 -0.6469
10155SOL    HW235596   5.674   1.276   4.099 -1.1799  1.4604 -0.9058
10156SOL     OW35597   3.067   2.996  10.058  0.3636 -0.3200  0.1590
10156SOL    HW135598   3.074   3.077  10.109 -0.9013  0.3274 -0.6658
10156SOL    HW235599   3.038   2.930  10.120 -1.8305  0.6132  0.1672
10157SOL     OW35600   2.274   4.956   0.937 -0.0065  0.0213 -0.6258
10157SOL    HW135601   2.240   5.040   0.967  0.7018  0.3002 -0.5719
10157SOL    HW235602   2.224   4.890   0.985  1.5269  0.4613  1.7011
10158SOL     OW35603   5.955   0.329  10.719  0.0776  0.0948 -0.1651
10158SOL    HW135604   5.934   0.336  10.813 -0.0188 -0.5999 -0.1328
10158SOL    HW235605   6.040   0.372  10.711 -0.7536  1.8137 -0.0775
10159SOL     OW35606  11.243   3.404   9.438 -0.1066  0.4233 -0.0607
10159SOL    HW135607  11.303   3.460   9.390  1.4126 -0.3220  0.9480
10159SOL    HW235608  11.270   3.412   9.530 -0.3293 -1.3867  0.1890
10160SOL     OW35609   5.513   0.995   7.376  0.2797 -0.3258 -0.2822
10160SOL    HW135610   5.427   0.958   7.354  0.3062  0.1578 -1.2106
10160SOL    HW235611   5.492   1.079   7.418  0.2511 -0.9565  1.0044
10161SOL     OW35612   9.840  10.230   9.704  0.9700 -0.3895 -0.4232
10161SOL    HW135613   9.815  10.229   9.796 -0.9602  0.4581 -0.9093
10161SOL    HW235614   9.922  10.181   9.701  0.4842 -1.3919  1.5745
10162SOL     OW35615   7.068  11.108   4.894 -0.0427 -0.1595  0.0380
10162SOL    HW135616   7.153  11.084   4.856 -0.8661 -1.4978 -1.0044
10162SOL    HW235617   7.059  11.050   4.970 -0.5508 -0.8746 -0.5578
10163SOL     OW35618   5.809   2.137   1.404 -0.4135  0.1880 -1.0492
10163SOL    HW135619   5.800   2.210   1.465 -0.6530 -1.4266  0.9046
10163SOL    HW235620   5.896   2.149   1.365 -0.3689  1.3698 -0.6104
10164SOL     OW35621   9.169   1.114   3.066 -0.5646  0.2079  0.3953
10164SOL    HW135622   9.088   1.074   3.034 -0.3703 -0.6463  0.9441
10164SOL    HW235623   9.143   1.164   3.144 -0.3819 -1.0376  1.2711
10165SOL     OW35624   6.017   8.856   4.067  0.6366 -0.8511  0.0726
10165SOL    HW135625   5.956   8.925   4.095  0.8264 -1.5250  2.2555
10165SOL    HW235626   6.001   8.847   3.973 -1.0214  0.5629  0.1810
10166SOL     OW35627   0.838   5.220  10.145  0.6114 -0.2874 -0.3406
10166SOL    HW135628   0.855   5.152  10.079 -0.2166 -0.8145 -0.0253
10166SOL    HW235629   0.892   5.294  10.117  2.0908 -1.3105 -0.2985
10167SOL     OW35630   7.075  10.854   6.927 -0.1510  0.0348  0.0166
10167SOL    HW135631   7.143  10.786   6.927  0.0085  0.1804 -1.0608
10167SOL    HW235632   7.109  10.922   6.984  0.0395 -0.4578  0.4936
10168SOL     OW35633   1.914   5.877   8.955  0.4054  0.6536 -0.5737
10168SOL    HW135634   1.911   5.922   8.871 -0.1545  1.8576  0.0741
10168SOL    HW235635   1.834   5.906   9.000  1.1743  0.7600  0.7392
10169SOL     OW35636   8.069   6.319   0.731 -0.0111  0.7207 -0.1277
10169SOL    HW135637   8.006   6.267   0.782  0.9806 -1.3532 -0.9514
10169SOL    HW235638   8.133   6.349   0.795 -1.3284  2.1209  0.5781
10170SOL     OW35639   7.777   8.921   5.576  0.3715 -0.1534  0.1850
10170SOL    HW135640   7.733   8.894   5.657 -0.6310  1.2184  0.1103
10170SOL    HW235641   7.719   8.891   5.506  1.2141 -1.2934 -0.0360
10171SOL     OW35642   2.487   9.059   2.160 -0.3082 -0.2710  1.1036
10171SOL    HW135643   2.457   9.142   2.198 -2.0478  0.3707 -1.5343
10171SOL    HW235644   2.527   9.084   2.076  0.2039 -1.9942  0.8163
10172SOL     OW35645   1.023   0.744   4.518 -0.4311  0.1555 -0.3943
10172SOL    HW135646   1.118   0.733   4.524 -0.3076  0.4958 -1.7140
10172SOL    HW235647   1.004   0.820   4.573 -0.2019 -1.1254  1.5140
10173SOL     OW35648   2.972   5.326   1.938  0.5594  0.0749 -0.3300
10173SOL    HW135649   2.894   5.324   1.882 -0.2538  1.2768  0.7098
10173SOL    HW235650   2.951   5.269   2.011  0.1052  1.4130  0.6126
10174SOL     OW35651   9.616   5.201   3.602  0.2283  0.0865 -0.1927
10174SOL    HW135652   9.585   5.263   3.668 -0.2939 -0.2074 -0.1644
10174SOL    HW235653   9.586   5.238   3.519  0.8354  0.4268 -0.2649
10175SOL     OW35654  10.253   0.278   9.503 -0.1600 -0.0119  0.2562
10175SOL    HW135655  10.345   0.294   9.523 -0.4863  0.9511  0.9958
10175SOL    HW235656  10.254   0.196   9.454  1.0749 -0.1031  0.4055
10176SOL     OW35657  10.945   6.268   8.246  0.5336 -0.0899  0.3094
10176SOL    HW135658  10.999   6.242   8.320  1.5438 -2.3277 -1.1584
10176SOL    HW235659  10.932   6.187   8.196  0.0717  1.4114 -2.0852
10177SOL     OW35660   7.145   7.588   1.272  0.2674  0.6788 -0.1401
10177SOL    HW135661   7.169   7.649   1.341  1.4998  0.1155 -0.0638
10177SOL    HW235662   7.223   7.535   1.258 -0.9045 -1.1828  0.1239
10178SOL     OW35663   3.717   4.899   8.737 -0.1132  0.0112  0.2016
10178SOL    HW135664   3.662   4.872   8.810  0.6629  0.3667  0.9320
10178SOL    HW235665   3.707   4.994   8.732  0.7999  0.1402  0.6574
10179SOL     OW35666   9.327   0.478   1.972 -0.5367 -1.0872  0.8973
10179SOL    HW135667   9.397   0.425   2.009 -1.3137 -3.1502 -0.4854
10179SOL    HW235668   9.287   0.521   2.048  1.1302 -1.2050  1.8689
10180SOL     OW35669   6.840   7.454   0.401 -0.3037 -0.3197  0.1181
10180SOL    HW135670   6.791   7.524   0.444 -0.7694 -1.0460  0.8005
10180SOL    HW235671   6.843   7.384   0.466  1.4303 -0.3908 -0.0215
10181SOL     OW35672   1.338   7.540   0.333  0.2681 -0.0909  0.2928
10181SOL    HW135673   1.267   7.563   0.274 -1.4692 -0.5978  2.1223
10181SOL    HW235674   1.412   7.594   0.305 -0.3343 -0.7328 -2.6587
10182SOL     OW35675   8.723   2.694  10.359 -0.3382 -0.0547  0.7411
10182SOL    HW135676   8.641   2.719  10.402 -0.4589  0.0177  0.4762
10182SOL    HW235677   8.785   2.763  10.382 -0.4633  0.0972  0.6256
10183SOL     OW35678   0.027   6.631   7.353 -0.3180 -0.6677  0.2095
10183SOL    HW135679   0.034   6.698   7.421 -0.0487 -0.8554  0.3723
10183SOL    HW235680  -0.064   6.634   7.326  0.1772  1.2950 -1.3659
10184SOL     OW35681   8.863   9.891   4.399  0.4550  0.0295 -0.1895
10184SOL    HW135682   8.888   9.980   4.425  1.1580 -0.2126 -0.0472
10184SOL    HW235683   8.847   9.897   4.305 -0.7135  0.5897  0.0303
10185SOL     OW35684   5.622   3.761   2.840 -0.0897  0.0339  0.1622
10185SOL    HW135685   5.614   3.833   2.777  0.4670 -0.6459 -0.7100
10185SOL    HW235686   5.709   3.724   2.822 -0.9008 -1.6794 -0.3055
10186SOL     OW35687   8.839   8.575   6.242 -0.0370  0.3989 -0.0124
10186SOL    HW135688   8.760   8.591   6.190  0.8787  0.1311 -1.5007
10186SOL    HW235689   8.872   8.662   6.264 -0.7413  0.5136  0.6259
10187SOL     OW35690  11.149   7.213   2.831  0.2326  0.1673  0.0432
10187SOL    HW135691  11.151   7.305   2.804 -1.0949 -0.0973 -0.9881
10187SOL    HW235692  11.156   7.164   2.749 -1.0413 -0.6426  0.4067
10188SOL     OW35693   5.639   0.183   5.688 -0.2057 -0.5601 -0.1254
10188SOL    HW135694   5.714   0.166   5.629 -0.4115 -2.2056  0.0741
10188SOL    HW235695   5.656   0.128   5.764 -0.7585  0.3684  0.6643
10189SOL     OW35696   0.683   4.192   6.179 -0.5958  0.1947 -0.7056
10189SOL    HW135697   0.692   4.153   6.093 -0.0817  0.1212 -0.6168
10189SOL    HW235698   0.592   4.174   6.205 -0.4928 -0.5276 -0.8593
10190SOL     OW35699   8.008   8.074   7.666  0.4050  0.0393 -0.1696
10190SOL    HW135700   8.049   8.129   7.600  1.2850  1.9814  1.9134
10190SOL    HW235701   8.078   8.057   7.730 -0.4466 -1.6853  0.3295
10191SOL     OW35702   2.780   5.233   7.878 -0.1853  0.4659 -0.1030
10191SOL    HW135703   2.791   5.296   7.950 -1.0219  1.3523 -0.7434
10191SOL    HW235704   2.869   5.199   7.863  0.4406  2.1713 -0.3547
10192SOL     OW35705   6.985   7.904   5.384  0.1774  0.6137 -0.3709
10192SOL    HW135706   7.044   7.867   5.450 -1.1066  1.0919  1.1030
10192SOL    HW235707   6.957   7.829   5.332  0.1980  0.0090  0.4778
10193SOL     OW35708   6.265   8.120   9.135  0.5285 -0.0532 -0.5908
10193SOL    HW135709   6.251   8.045   9.193 -4.0167  1.5178  0.5235
10193SOL    HW235710   6.251   8.085   9.047  2.6565 -1.3694 -0.4595
10194SOL     OW35711   7.934   4.150   9.571  0.1376 -0.4885  0.4557
10194SOL    HW135712   8.023   4.171   9.598  0.0160 -0.2232  0.6550
10194SOL    HW235713   7.878   4.203   9.629 -0.1280  0.3576 -0.5458
10195SOL     OW35714   1.488   4.814  10.377  0.2352  0.0736  0.1696
10195SOL    HW135715   1.507   4.799  10.469 -2.6526 -0.9202  0.6333
10195SOL    HW235716   1.433   4.892  10.375 -0.7925 -0.6595 -0.6028
10196SOL     OW35717   9.589   6.489   9.052  0.4462 -0.1454 -0.3357
10196SOL    HW135718   9.641   6.480   9.132  3.1217  2.0066 -1.7587
10196SOL    HW235719   9.607   6.408   9.003 -0.8033 -1.2390  0.9510
10197SOL     OW35720  10.132   7.339   5.292  0.2984 -0.1863  0.7115
10197SOL    HW135721  10.038   7.338   5.275  0.5628 -2.2276 -0.8821
10197SOL    HW235722  10.157   7.246   5.297  2.7715  0.2198 -2.3988
10198SOL     OW35723   7.551  10.555   5.329  0.1262  0.6697  0.0579
10198SOL    HW135724   7.477  10.593   5.377 -0.0837  1.4349 -0.8553
10198SOL    HW235725   7.604  10.630   5.304  1.0280  0.1461  0.3995
10199SOL     OW35726   1.642   5.728   3.831  0.0104  0.5116  0.1531
10199SOL    HW135727   1.609   5.745   3.743 -0.2470 -0.7103  0.0113
10199SOL    HW235728   1.720   5.783   3.839  1.6072 -1.4192 -1.8075
10200SOL     OW35729   3.523   6.713   4.696 -0.5427  0.0893 -0.7022
10200SOL    HW135730   3.437   6.755   4.690 -0.0686  1.5395  1.8553
10200SOL    HW235731   3.531   6.662   4.616 -2.6027  2.2012 -2.3173
10201SOL     OW35732   5.188   1.530   6.828 -0.1754 -0.2986  0.0047
10201SOL    HW135733   5.266   1.477   6.812 -0.5770 -0.5074 -1.3497
10201SOL    HW235734   5.121   1.467   6.855 -1.2086 -0.8177 -3.4953
10202SOL     OW35735   9.142  10.369   9.198 -0.8371 -0.3105 -0.4344
10202SOL    HW135736   9.170  10.460   9.196 -1.5843 -0.0882 -2.5681
10202SOL    HW235737   9.222  10.319   9.212 -0.2109  0.6164 -0.6782
10203SOL     OW35738   4.780   1.844   0.394  0.0570 -0.1545  0.2545
10203SOL    HW135739   4.694   1.874   0.423  0.4551 -0.7419  2.1673
10203SOL    HW235740   4.778   1.749   0.408  1.2128 -0.0950  0.8918
10204SOL     OW35741   0.897  10.378   4.214 -0.6998 -0.3755  0.4814
10204SOL    HW135742   0.917  10.417   4.299  0.5764  1.3785 -0.5854
10204SOL    HW235743   0.807  10.403   4.196 -0.9681 -0.7468  1.3100
10205SOL     OW35744   7.199  10.699   3.456  0.0470 -0.6012 -0.0930
10205SOL    HW135745   7.278  10.672   3.409 -0.2464  1.8174 -2.0743
10205SOL    HW235746   7.149  10.618   3.468  1.9450 -1.8619 -0.4649
10206SOL     OW35747   7.754   2.978   1.114  0.5007  0.0637  0.0273
10206SOL    HW135748   7.766   2.892   1.154 -0.2179 -0.0946 -0.0965
10206SOL    HW235749   7.842   3.003   1.085  1.2773  0.7364  2.8193
10207SOL     OW35750   0.833   3.615   7.359 -0.3640  0.0458 -0.7665
10207SOL    HW135751   0.786   3.541   7.399  0.2050  0.1977  0.2023
10207SOL    HW235752   0.775   3.645   7.289 -1.1292 -0.5781 -0.4120
10208SOL     OW35753   9.011   7.913   6.454  0.1825 -0.5179 -0.1774
10208SOL    HW135754   8.925   7.932   6.418  0.3591  1.0509  0.1776
10208SOL    HW235755   9.027   7.822   6.432 -1.8308 -1.0001  0.2769
10209SOL     OW35756   2.725   3.808   9.171  0.3854  0.1248  0.7430
10209SOL    HW135757   2.741   3.832   9.080 -0.4836  0.3368  0.6433
10209SOL    HW235758   2.714   3.713   9.169 -0.2235  0.1978  0.5359
10210SOL     OW35759  10.285   1.410   5.311  0.1826  0.1989  0.3755
10210SOL    HW135760  10.379   1.413   5.329  0.1101  0.9059  0.6533
10210SOL    HW235761  10.267   1.490   5.263 -0.4976  0.6837  1.4096
10211SOL     OW35762   6.834   7.853   5.832 -0.1263  0.3104  0.3856
10211SOL    HW135763   6.926   7.875   5.820 -0.0882  0.0544  0.1902
10211SOL    HW235764   6.802   7.915   5.898  0.2031  0.3537  0.5038
10212SOL     OW35765   5.123   1.639   2.579 -0.1719  0.1628  0.2480
10212SOL    HW135766   5.077   1.723   2.584 -0.0487  0.3301 -1.1882
10212SOL    HW235767   5.127   1.620   2.485  0.5998 -1.0077  0.5153
10213SOL     OW35768   5.272   1.325  10.175  0.7195 -0.2621  0.6439
10213SOL    HW135769   5.280   1.245  10.122  0.7235 -0.0965  0.3969
10213SOL    HW235770   5.359   1.363  10.174  0.9210 -0.6790  1.4298
10214SOL     OW35771   3.444   0.133   2.505  0.6481 -0.3995 -0.2920
10214SOL    HW135772   3.377   0.093   2.560 -0.6338  0.5100 -1.1596
10214SOL    HW235773   3.462   0.067   2.437 -1.8762  0.6408 -2.0540
10215SOL     OW35774   4.860   1.428   7.798  0.1889  0.2244 -0.2968
10215SOL    HW135775   4.780   1.473   7.772 -1.7981 -3.4297 -0.7982
10215SOL    HW235776   4.847   1.409   7.891 -0.7084 -2.4975 -0.9126
10216SOL     OW35777  10.908   8.667   1.531 -0.4113  0.0478  0.3077
10216SOL    HW135778  10.902   8.571   1.527 -0.2420  0.0805 -0.9736
10216SOL    HW235779  10.891   8.688   1.622  1.4556 -1.3533  1.0006
10217SOL     OW35780   9.142   9.755   0.159 -0.4827  0.3719 -0.6079
10217SOL    HW135781   9.077   9.741   0.089 -0.3763  1.9078 -1.0390
10217SOL    HW235782   9.225   9.764   0.113 -0.0980 -0.5759 -0.1220
10218SOL     OW35783   8.566   1.484   5.554 -0.1575 -0.4714 -0.2256
10218SOL    HW135784   8.654   1.485   5.593 -0.2394  0.2763 -0.0482
10218SOL    HW235785   8.533   1.396   5.572 -0.1061 -0.2098  1.2116
10219SOL     OW35786  10.513   6.119   4.198  0.3644 -0.6772 -0.8550
10219SOL    HW135787  10.534   6.026   4.187  0.5089 -0.8619  0.8309
10219SOL    HW235788  10.439   6.119   4.258  0.4220  0.3069 -0.7866
10220SOL     OW35789   5.993   1.629   1.895  0.5604  0.1479  0.0298
10220SOL    HW135790   5.951   1.679   1.825  0.0401  0.3412  0.4758
10220SOL    HW235791   6.038   1.558   1.850  2.2623  1.6607 -0.6976
10221SOL     OW35792   3.945   5.996   8.887  0.3042  0.6857  0.3043
10221SOL    HW135793   3.952   6.088   8.859 -0.0068  0.4360 -0.6354
10221SOL    HW235794   3.903   5.952   8.812 -0.1434 -0.0952  1.0064
10222SOL     OW35795   7.979   5.267   5.333 -0.0103 -0.6498 -0.1001
10222SOL    HW135796   8.025   5.192   5.370  0.4495 -0.5440 -0.4594
10222SOL    HW235797   7.950   5.318   5.408 -0.8774 -1.5173  0.1737
10223SOL     OW35798   4.606   1.011   9.024 -0.0034 -0.0649  0.8729
10223SOL    HW135799   4.578   1.003   8.933 -0.2810 -4.9485  1.2399
10223SOL    HW235800   4.528   1.041   9.071 -0.5634  0.0997 -0.1486
10224SOL     OW35801   2.130  10.705   7.387  0.0936  0.5940 -0.1098
10224SOL    HW135802   2.137  10.695   7.292 -0.1842  0.1053 -0.0841
10224SOL    HW235803   2.161  10.794   7.405  1.3135  0.2564 -0.5189
10225SOL     OW35804   0.304   7.806   0.997 -0.1463 -0.0423 -0.2557
10225SOL    HW135805   0.370   7.738   0.986  0.1114  0.0467  0.7300
10225SOL    HW235806   0.272   7.795   1.087  1.3149  2.3821  0.6097
10226SOL     OW35807  11.079   3.790   3.243 -0.2397 -0.4930 -0.2876
10226SOL    HW135808  11.009   3.752   3.295  0.6034 -1.9561 -0.1977
10226SOL    HW235809  11.150   3.726   3.248  0.9852  0.8059 -0.6424
10227SOL     OW35810   8.473   8.473   9.371  0.2735 -0.7749  0.1418
10227SOL    HW135811   8.503   8.382   9.368  0.4762 -0.6901 -0.6567
10227SOL    HW235812   8.521   8.512   9.444  2.3031 -0.5769 -1.2673
10228SOL     OW35813   7.020   4.538   9.102  0.4424  0.5285 -0.3824
10228SOL    HW135814   6.997   4.465   9.158  0.7599 -0.4476 -1.4909
10228SOL    HW235815   7.090   4.504   9.046 -1.9467  0.4673 -3.4653
10229SOL     OW35816   5.337   4.200   1.230 -0.0772 -0.1497 -0.2546
10229SOL    HW135817   5.396   4.147   1.284 -0.2695  0.5179  0.6346
10229SOL    HW235818   5.394   4.261   1.183  0.2794 -2.0916 -2.4105
10230SOL     OW35819   0.456   7.049  11.086 -0.4858 -0.7934 -0.1206
10230SOL    HW135820   0.548   7.025  11.074 -0.0584  0.9612 -0.6286
10230SOL    HW235821   0.409   7.000  11.019  0.4228  0.1981 -1.5146
10231SOL     OW35822   9.485   8.078  10.202 -0.0933  0.2571 -0.2542
10231SOL    HW135823   9.436   8.081  10.120 -0.9869  0.7764  0.2841
10231SOL    HW235824   9.461   7.994  10.241  2.0381 -0.9756 -1.5416
10232SOL     OW35825  10.141   5.255   7.994  0.1460  0.1779  0.4756
10232SOL    HW135826  10.151   5.247   7.899  1.0913 -0.2931  0.6018
10232SOL    HW235827  10.218   5.305   8.022 -0.3159  0.6237  0.9519
10233SOL     OW35828   9.248   4.942   4.342  0.0798 -0.1581 -0.1179
10233SOL    HW135829   9.204   4.915   4.262  0.1229  0.9153 -0.5205
10233SOL    HW235830   9.336   4.905   4.335  0.3330  0.5811 -0.9393
10234SOL     OW35831   1.872   7.472   6.850 -0.0127  0.2462  0.0205
10234SOL    HW135832   1.940   7.518   6.801  0.6891  0.5171  1.2360
10234SOL    HW235833   1.791   7.492   6.803  0.8609 -1.0003 -2.1108
10235SOL     OW35834   1.802   0.949   6.444 -0.4471 -0.4194  0.8842
10235SOL    HW135835   1.764   0.883   6.503  1.2970 -1.3895  0.9777
10235SOL    HW235836   1.859   1.001   6.500 -2.2621  1.5601  0.9125
10236SOL     OW35837   8.564   6.854   2.731  0.0584 -1.0268 -0.5567
10236SOL    HW135838   8.572   6.846   2.826  0.5834 -0.5589 -0.5624
10236SOL    HW235839   8.596   6.771   2.697 -2.6464 -2.2768 -0.2048
10237SOL     OW35840   6.834   9.811   2.566  0.5195  0.1964  0.0690
10237SOL    HW135841   6.803   9.877   2.627  1.4992  0.9381 -0.2153
10237SOL    HW235842   6.765   9.803   2.501 -0.3580 -0.3202  1.0459
10238SOL     OW35843   9.868   9.277   0.870 -0.1368 -0.0234 -0.0653
10238SOL    HW135844   9.860   9.282   0.966  1.0510 -0.9091  0.0914
10238SOL    HW235845   9.890   9.185   0.853 -1.3311 -0.1054 -1.2741
10239SOL     OW35846   5.131   0.844   5.651 -0.0601  0.1082  0.0731
10239SOL    HW135847   5.037   0.836   5.666 -0.3708  0.5169 -1.4836
10239SOL    HW235848   5.139   0.846   5.555  1.4713  0.7208  0.2014
10240SOL     OW35849   2.181   3.613   5.312  0.2376  0.0963 -0.0933
10240SOL    HW135850   2.158   3.632   5.403  0.3668 -1.7575  0.3419
10240SOL    HW235851   2.098   3.591   5.270  0.5089 -1.5501  0.2126
10241SOL     OW35852   6.373   8.101   2.227  0.3033  0.0587 -0.1258
10241SOL    HW135853   6.423   8.153   2.163 -1.1615  1.4684 -0.1406
10241SOL    HW235854   6.282   8.119   2.207 -0.1910  1.2761  2.9506
10242SOL     OW35855   3.683   9.266  10.129 -0.6032  0.3525 -1.0207
10242SOL    HW135856   3.763   9.316  10.119  0.9164 -2.1098 -1.5432
10242SOL    HW235857   3.712   9.178  10.152 -3.0898 -0.8531 -2.2419
10243SOL     OW35858   1.775   0.209   9.276 -0.1076  0.0022  0.0838
10243SOL    HW135859   1.842   0.275   9.293  0.4913 -0.3761 -0.7577
10243SOL    HW235860   1.801   0.169   9.193 -0.5839 -1.1233  0.4586
10244SOL     OW35861   7.981   4.429   2.362 -0.1841  0.3950 -0.6423
10244SOL    HW135862   7.900   4.379   2.371  0.6870 -0.9955 -0.3478
10244SOL    HW235863   7.965   4.510   2.409 -1.8413  0.6515 -1.6378
10245SOL     OW35864   5.196   1.973   8.754 -0.7287  0.0672  0.2256
10245SOL    HW135865   5.182   1.947   8.845 -1.7189 -0.6914 -0.1369
10245SOL    HW235866   5.251   2.051   8.759 -1.3219  0.4031  1.5009
10246SOL     OW35867   8.912   0.904   7.386 -0.5298  0.3128 -0.3003
10246SOL    HW135868   8.897   0.810   7.401 -2.3270  0.3158 -1.7955
10246SOL    HW235869   8.862   0.947   7.455 -2.9679  0.1896 -1.8877
10247SOL     OW35870   4.796   9.874   2.798  0.3219  0.5775  0.1800
10247SOL    HW135871   4.709   9.911   2.785 -0.0736 -0.7347 -0.8982
10247SOL    HW235872   4.782   9.795   2.850  0.5225 -1.3076 -2.5561
10248SOL     OW35873   0.869   8.063   0.257  0.2342 -0.1829 -0.5309
10248SOL    HW135874   0.840   8.136   0.311 -2.2020 -0.8147 -0.9230
10248SOL    HW235875   0.889   7.993   0.320  0.1239 -0.0034 -0.2968
10249SOL     OW35876   2.271   6.245   4.398  0.1147 -0.4616  0.6004
10249SOL    HW135877   2.227   6.273   4.317  1.3028  1.1344  0.4803
10249SOL    HW235878   2.330   6.318   4.419  0.4326 -1.2407  2.4437
10250SOL     OW35879   0.378   1.441   8.128 -0.0057 -0.1612  0.2091
10250SOL    HW135880   0.416   1.511   8.075  0.3391 -0.9074 -0.5423
10250SOL    HW235881   0.349   1.375   8.064  0.8398 -1.2820  0.9575
10251SOL     OW35882   1.424   8.577   6.929  0.2127 -0.5095 -0.2234
10251SOL    HW135883   1.344   8.533   6.957  0.0405 -0.2040 -0.2423
10251SOL    HW235884   1.417   8.582   6.834  0.2786 -0.5230 -0.2294
10252SOL     OW35885   6.863   4.059   9.931 -0.4975 -0.2504  0.2078
10252SOL    HW135886   6.799   4.099   9.991 -0.7687  0.4959 -0.5709
10252SOL    HW235887   6.819   3.980   9.899  0.1470 -1.3557  1.9578
10253SOL     OW35888   1.176   8.047   7.596 -0.0157  0.0094  0.4850
10253SOL    HW135889   1.233   8.107   7.643 -0.1653  0.4238  0.1458
10253SOL    HW235890   1.176   8.080   7.506 -0.0639 -0.5253  0.2851
10254SOL     OW35891   4.545   6.303   5.697  0.1133 -0.3433 -0.0694
10254SOL    HW135892   4.483   6.260   5.638  1.4655 -1.5439 -0.6543
10254SOL    HW235893   4.575   6.380   5.649 -1.5552  0.7447  0.5719
10255SOL     OW35894   2.490   3.908   8.804  0.6894  0.0154  0.0236
10255SOL    HW135895   2.467   3.975   8.739  0.6853  1.1683  1.2107
10255SOL    HW235896   2.582   3.889   8.787  0.1676 -1.1802 -1.6460
10256SOL     OW35897   3.746   1.572   4.453 -0.1299 -0.3603 -0.1060
10256SOL    HW135898   3.706   1.498   4.499 -1.0921  0.6286  0.6948
10256SOL    HW235899   3.672   1.618   4.413  0.3674  0.5904  0.0397
10257SOL     OW35900  10.403   8.750   1.063  0.1226  0.1861 -0.3540
10257SOL    HW135901  10.437   8.730   1.150  0.4086  1.0825 -0.2596
10257SOL    HW235902  10.418   8.669   1.013 -0.1653 -0.3771  0.4560
10258SOL     OW35903   7.184   6.738   9.850 -0.0463 -0.5640 -0.1580
10258SOL    HW135904   7.256   6.744   9.786  0.2521  0.6844  0.2756
10258SOL    HW235905   7.228   6.739   9.935 -0.6739  2.6623  0.1764
10259SOL     OW35906   5.148   8.447   6.676 -0.4729  0.4381  0.5506
10259SOL    HW135907   5.102   8.437   6.760  0.1300  3.5407  1.3123
10259SOL    HW235908   5.240   8.460   6.700  0.1424 -1.4209 -0.7515
10260SOL     OW35909   1.734   5.031   3.601  0.5094 -0.1983 -0.3707
10260SOL    HW135910   1.795   4.960   3.584 -0.3830 -0.8216 -1.0425
10260SOL    HW235911   1.695   5.011   3.686  1.1143  0.1057 -0.0249
10261SOL     OW35912   4.973   6.084   3.758  0.2345 -0.1182 -0.3677
10261SOL    HW135913   4.881   6.063   3.740  0.7391 -1.0687 -1.8894
10261SOL    HW235914   4.987   6.053   3.847 -0.7637 -0.4936 -0.3317
10262SOL     OW35915   3.338   3.107   7.511 -0.2227  0.2360  0.4547
10262SOL    HW135916   3.392   3.183   7.491 -2.0628  1.8866  1.6296
10262SOL    HW235917   3.337   3.102   7.606 -0.0312 -1.3297  0.3873
10263SOL     OW35918   6.563   5.648   5.582 -0.0422  0.3091 -0.0409
10263SOL    HW135919   6.498   5.579   5.597 -1.4496  1.8215  0.8349
10263SOL    HW235920   6.643   5.615   5.623 -0.6452 -0.8841  0.1909
10264SOL     OW35921   3.509   5.347  10.137  0.4966  0.4434 -0.2254
10264SOL    HW135922   3.447   5.340  10.065  1.8310 -1.4547 -1.2391
10264SOL    HW235923   3.593   5.319  10.100  1.5601  1.0873  1.6149
10265SOL     OW35924   6.023   6.062   0.729 -0.4362  0.1424 -0.3512
10265SOL    HW135925   6.026   6.158   0.720 -2.1899  0.4845  2.1331
10265SOL    HW235926   6.109   6.039   0.764 -0.6017  1.0360  0.6838
10266SOL     OW35927   7.088   0.059   4.044  0.0803 -0.0010 -0.3575
10266SOL    HW135928   7.106   0.050   4.138  2.5776  1.8502 -0.6026
10266SOL    HW235929   7.125  -0.020   4.005  0.6138  0.0557  0.0256
10267SOL     OW35930   4.446   7.777   1.488 -0.3845  0.0938  0.2814
10267SOL    HW135931   4.492   7.768   1.571 -0.7996  0.3668  0.5456
10267SOL    HW235932   4.388   7.701   1.484  1.2167 -1.0974 -0.7866
10268SOL     OW35933   1.634   3.112  10.978  0.2734  0.1499  0.2724
10268SOL    HW135934   1.567   3.164  11.023 -0.4529 -0.1822 -0.4009
10268SOL    HW235935   1.700   3.176  10.951  1.6339  0.1319  3.3584
10269SOL     OW35936   0.753   4.191   0.875  0.2261 -0.0247  0.2151
10269SOL    HW135937   0.753   4.256   0.805  0.2708 -1.5452 -1.2244
10269SOL    HW235938   0.695   4.228   0.942 -0.7526  0.9268 -1.1317
10270SOL     OW35939   3.623   3.671   8.647 -0.0607  0.4408  0.2549
10270SOL    HW135940   3.537   3.646   8.612 -0.4347  0.6452  1.0012
10270SOL    HW235941   3.641   3.756   8.608  0.5378 -0.3201 -1.1413
10271SOL     OW35942   1.643   4.729   2.618  0.3807  0.2322  0.6630
10271SOL    HW135943   1.723   4.740   2.567  0.7228 -0.8937  0.9395
10271SOL    HW235944   1.582   4.793   2.582  1.1777  0.6195 -0.0088
10272SOL     OW35945   8.736   5.375   7.397 -0.4015  0.0500  0.0393
10272SOL    HW135946   8.812   5.322   7.375 -0.7206 -1.1711  1.7295
10272SOL    HW235947   8.666   5.341   7.341  0.4680  1.6856 -2.0569
10273SOL     OW35948   1.373   0.131   4.359 -0.0660 -0.2580 -0.0771
10273SOL    HW135949   1.314   0.128   4.434  2.0457  0.0923  1.6399
10273SOL    HW235950   1.459   0.112   4.396  1.1374  0.8142 -2.2847
10274SOL     OW35951   5.273   2.858   3.910 -0.5345  0.2980 -0.0235
10274SOL    HW135952   5.275   2.772   3.951  1.4556 -0.3041 -1.2907
10274SOL    HW235953   5.212   2.848   3.836  0.9260 -0.5295 -1.1510
10275SOL     OW35954   0.458   9.248   5.410 -0.1941  0.3047  0.1513
10275SOL    HW135955   0.393   9.272   5.476 -0.2672  0.0843  0.1582
10275SOL    HW235956   0.448   9.315   5.342  0.2765  0.8652  0.6280
10276SOL     OW35957  11.268   8.784   6.112 -0.1416  0.1471  0.5366
10276SOL    HW135958  11.187   8.756   6.070 -1.0454  3.1567  0.1195
10276SOL    HW235959  11.337   8.756   6.052 -1.0301 -0.5041 -0.1860
10277SOL     OW35960   0.453  10.535   3.175 -0.5924  0.2283  0.1156
10277SOL    HW135961   0.482  10.564   3.088 -0.7888  0.4836  0.1383
10277SOL    HW235962   0.441  10.615   3.225  1.3903  0.0224  0.9790
10278SOL     OW35963   1.498   2.730   1.248 -0.6675  0.1385 -0.3004
10278SOL    HW135964   1.507   2.732   1.153 -0.2856 -0.3227 -0.2747
10278SOL    HW235965   1.539   2.812   1.277 -0.5999  0.1821 -0.5175
10279SOL     OW35966   8.727  11.035   4.563  0.1206  0.3408 -0.0662
10279SOL    HW135967   8.777  11.063   4.640 -0.2572 -1.4418  0.8596
10279SOL    HW235968   8.763  10.949   4.541 -0.5925  0.3130 -1.1479
10280SOL     OW35969  10.645   1.847   6.748 -0.7350 -0.1746  0.0350
10280SOL    HW135970  10.608   1.935   6.744 -0.7199 -0.1238  0.8674
10280SOL    HW235971  10.620   1.814   6.834  0.8158 -0.2845  0.4652
10281SOL     OW35972   1.895   7.007   1.343 -0.6226 -0.1449  0.3454
10281SOL    HW135973   1.984   7.003   1.378 -0.6764  2.2815  0.8083
10281SOL    HW235974   1.899   7.075   1.276 -1.9910 -0.4718 -0.0795
10282SOL     OW35975   2.296   0.836   2.741 -0.0376  0.2293  0.0414
10282SOL    HW135976   2.363   0.780   2.781  1.4288  1.8446 -0.0786
10282SOL    HW235977   2.347   0.904   2.695 -1.7640  1.1877 -0.4759
10283SOL     OW35978   8.175   4.638   8.202  0.1330 -1.0809 -1.0777
10283SOL    HW135979   8.225   4.584   8.264  0.7249  0.2783 -0.3467
10283SOL    HW235980   8.088   4.643   8.240  1.1940  2.0631  1.2106
10284SOL     OW35981   0.911   0.363   3.200 -0.0094  0.1490  0.0534
10284SOL    HW135982   0.965   0.288   3.174 -0.8003 -0.5188  0.2904
10284SOL    HW235983   0.973   0.435   3.209  0.9217 -0.7172  0.7990
10285SOL     OW35984   8.796   8.577   2.698  0.3835 -0.2461 -0.1053
10285SOL    HW135985   8.769   8.621   2.618  1.0246 -1.6222 -1.1031
10285SOL    HW235986   8.791   8.644   2.766 -2.8367  0.2429 -0.7686
10286SOL     OW35987   5.372   0.157   0.007  0.1350  0.6765 -0.3325
10286SOL    HW135988   5.379   0.066   0.034 -1.2045  0.7525  0.2837
10286SOL    HW235989   5.302   0.159  -0.058  1.1773  1.0304 -1.4675
10287SOL     OW35990   8.320   9.596   1.321  0.4544 -0.1636 -0.4932
10287SOL    HW135991   8.295   9.508   1.291 -0.0848 -0.4030  0.6193
10287SOL    HW235992   8.281   9.603   1.408 -0.7130  1.7338 -1.1499
10288SOL     OW35993   2.202   3.792   2.274  0.0457 -0.2528 -0.2320
10288SOL    HW135994   2.189   3.841   2.355  1.4459 -2.1106  1.1458
10288SOL    HW235995   2.276   3.836   2.231  1.9334 -1.7047  1.4697
10289SOL     OW35996   6.384   0.810   1.653 -0.2084  0.4987 -0.2805
10289SOL    HW135997   6.442   0.885   1.639 -0.6942  0.3966 -3.2127
10289SOL    HW235998   6.439   0.734   1.638 -0.3039  0.3178  0.2837
10290SOL     OW35999   3.486   5.480   3.312  0.0428  0.1067 -0.6288
10290SOL    HW136000   3.530   5.407   3.269 -0.9113 -1.4068  0.9008
10290SOL    HW236001   3.408   5.496   3.260 -0.5905 -1.0546 -0.0557
10291SOL     OW36002   7.547   6.029   0.262  0.2615 -0.0380  0.1187
10291SOL    HW136003   7.459   6.015   0.229 -0.2379  2.5105  0.2501
10291SOL    HW236004   7.600   5.963   0.217 -1.3087 -0.1193 -1.6870
10292SOL     OW36005   3.627   5.599   2.607  0.1901  0.5436  0.2818
10292SOL    HW136006   3.720   5.594   2.585 -0.0087  0.8945 -0.6765
10292SOL    HW236007   3.623   5.664   2.677  0.7494  0.0081  0.8077
10293SOL     OW36008   0.735   1.544   2.179 -0.4021  0.3283 -0.1740
10293SOL    HW136009   0.821   1.563   2.218 -1.1599 -0.6011  2.0022
10293SOL    HW236010   0.687   1.626   2.187 -0.3960  0.2744  0.4611
10294SOL     OW36011   2.324   8.031   9.367  0.1690  0.3470 -0.4742
10294SOL    HW136012   2.360   8.047   9.454  1.4640 -1.2088 -0.6948
10294SOL    HW236013   2.387   8.071   9.307  0.7468 -1.0299 -0.8027
10295SOL     OW36014   3.738  11.168  10.990  0.4210  0.0180 -0.3686
10295SOL    HW136015   3.756  11.251  10.946  0.0073 -0.2477 -1.0486
10295SOL    HW236016   3.708  11.193  11.077 -2.2270  0.6787 -1.4349
10296SOL     OW36017   9.028   8.885   8.011 -0.1124  0.6811  0.7908
10296SOL    HW136018   9.082   8.940   7.955  0.5200 -0.0075  0.7143
10296SOL    HW236019   9.047   8.915   8.100 -0.0988  0.8818  0.7191
10297SOL     OW36020   4.729   3.074   2.204 -0.4508 -0.3190 -0.5587
10297SOL    HW136021   4.762   2.989   2.175 -1.2422 -1.3010  1.3551
10297SOL    HW236022   4.652   3.088   2.149  1.1223  0.3915 -2.6599
10298SOL     OW36023   1.766   0.578  10.850 -0.0766  0.4293  0.0205
10298SOL    HW136024   1.678   0.611  10.830 -0.5989 -0.8443  0.1394
10298SOL    HW236025   1.824   0.624  10.789 -0.8609  1.0775 -0.2432
10299SOL     OW36026   0.162  10.769  10.174  0.0229 -0.5704 -0.3568
10299SOL    HW136027   0.201  10.838  10.228 -1.5176 -0.0068  0.0483
10299SOL    HW236028   0.227  10.699  10.175 -0.6637 -1.2412  3.6051
10300SOL     OW36029   4.161   8.868   8.671  0.2066 -0.0290  0.2297
10300SOL    HW136030   4.171   8.845   8.764 -0.8351  0.4698  0.4812
10300SOL    HW236031   4.237   8.923   8.652  0.4829 -0.2153  0.7644
10301SOL     OW36032   7.160   7.745   2.699  0.0445 -0.0068 -0.1295
10301SOL    HW136033   7.176   7.673   2.638  0.9155  0.1528 -0.1030
10301SOL    HW236034   7.159   7.823   2.644  0.9121  0.1469  0.0654
10302SOL     OW36035  10.626  10.309  11.309 -0.3109  0.0060 -0.3604
10302SOL    HW136036  10.619  10.400  11.337  1.4082  0.6716 -1.9773
10302SOL    HW236037  10.636  10.259  11.391 -1.4987  1.2272  0.5470
10303SOL     OW36038   7.351   3.994   8.496 -0.1188  0.5352 -0.2297
10303SOL    HW136039   7.268   3.976   8.541 -1.3321 -0.0699 -2.6286
10303SOL    HW236040   7.371   3.913   8.449  1.3446  0.9940 -0.4069
10304SOL     OW36041   8.164  10.815  10.496  0.2043 -0.0613  0.3653
10304SOL    HW136042   8.086  10.869  10.514  0.5689  1.2313 -1.8364
10304SOL    HW236043   8.229  10.877  10.462  2.1784 -1.1616  2.0260
10305SOL     OW36044  11.215   9.944   5.901 -0.4996 -0.2702 -0.2011
10305SOL    HW136045  11.178   9.963   5.815  1.0988 -0.4666 -0.9417
10305SOL    HW236046  11.220   9.848   5.904 -0.2927 -0.2530  0.0158
10306SOL     OW36047   8.441   0.296   6.839  0.2099 -0.0231  0.0163
10306SOL    HW136048   8.370   0.348   6.875 -0.0313 -1.0133  1.0086
10306SOL    HW236049   8.467   0.342   6.760 -0.2689  1.3693  0.6540
10307SOL     OW36050   4.904   7.329  10.636  0.3326 -0.2901 -0.1507
10307SOL    HW136051   4.957   7.390  10.583  0.4849  0.5873  0.9771
10307SOL    HW236052   4.816   7.335  10.599  0.3973  0.4587 -0.1938
10308SOL     OW36053   7.240   0.375   1.638 -0.1005  0.0419 -0.1524
10308SOL    HW136054   7.208   0.339   1.555  0.4340 -1.7314  0.4004
10308SOL    HW236055   7.311   0.433   1.612 -0.1870 -0.1989 -0.9658
10309SOL     OW36056  10.561  10.722   5.044 -0.0768 -1.0327  0.4875
10309SOL    HW136057  10.603  10.773   5.113 -0.0681  0.6512 -0.7615
10309SOL    HW236058  10.469  10.747   5.049 -0.2279 -1.5602  0.4302
10310SOL     OW36059   3.152   8.717   1.607  0.2385 -0.5765  0.0681
10310SOL    HW136060   3.203   8.795   1.587  0.1415 -0.5763 -0.1877
10310SOL    HW236061   3.061   8.742   1.589  0.0790 -0.3914  1.0970
10311SOL     OW36062   5.889   9.851  10.419 -0.1252 -0.0707  0.2687
10311SOL    HW136063   5.843   9.793  10.480  0.8860 -0.5886  0.5445
10311SOL    HW236064   5.821   9.879  10.358 -0.7497 -1.1010  0.4674
10312SOL     OW36065   2.423   6.130   6.329 -0.2331 -0.3490 -0.0310
10312SOL    HW136066   2.499   6.185   6.311  0.0116 -0.3781  0.8947
10312SOL    HW236067   2.348   6.186   6.312  0.0036 -0.0533 -0.0937
10313SOL     OW36068   0.168   6.192   4.470 -0.2976  0.3430 -0.0609
10313SOL    HW136069   0.111   6.130   4.424 -0.9835  1.9744 -1.4614
10313SOL    HW236070   0.108   6.251   4.514  0.3595  0.0112  1.2883
10314SOL     OW36071   1.966   7.722   5.656  0.0413  0.2627  0.0165
10314SOL    HW136072   2.032   7.653   5.664  0.7573  1.0148  0.6259
10314SOL    HW236073   1.909   7.692   5.585 -0.2271 -1.4348  0.9104
10315SOL     OW36074   9.903   3.063   9.953 -0.0307  0.4956 -0.1837
10315SOL    HW136075   9.883   3.151   9.984  1.1584  1.3442 -1.7307
10315SOL    HW236076   9.898   3.070   9.857  0.2086 -1.0965 -0.3261
10316SOL     OW36077   5.209   2.745   7.159  0.0813 -0.6103 -0.6275
10316SOL    HW136078   5.203   2.770   7.251 -1.6365  0.7588 -1.0985
10316SOL    HW236079   5.219   2.650   7.161 -1.1120 -0.7213  0.9440
10317SOL     OW36080   4.465   5.641   9.993  0.0806  0.4745  0.2866
10317SOL    HW136081   4.543   5.621   9.942 -0.7523 -0.9666 -0.4317
10317SOL    HW236082   4.392   5.622   9.934 -0.8498  0.3629  1.4635
10318SOL     OW36083   4.505   5.473  10.212 -0.0643 -0.3625 -0.4030
10318SOL    HW136084   4.566   5.512  10.275  0.1714 -1.9508  0.3689
10318SOL    HW236085   4.493   5.541  10.145  1.4026  0.5095  0.2026
10319SOL     OW36086   6.268   4.150   7.950 -0.3757 -0.2704 -0.3708
10319SOL    HW136087   6.195   4.124   7.894 -0.1854 -2.7992  0.4793
10319SOL    HW236088   6.333   4.081   7.938  1.3273  1.2497 -0.0855
10320SOL     OW36089   4.104  11.287   8.080  0.0235  0.0996 -0.2424
10320SOL    HW136090   4.136  11.225   8.016  0.5762  0.5644 -0.4173
10320SOL    HW236091   4.072  11.361   8.029  1.0953  0.7673  0.0319
10321SOL     OW36092   9.326   8.285   1.860 -0.3291  0.2610 -0.4942
10321SOL    HW136093   9.267   8.279   1.785  2.1389 -1.0764 -2.4309
10321SOL    HW236094   9.414   8.281   1.821  1.0215  0.2062  2.4319
10322SOL     OW36095  11.296   9.064   8.404 -0.2532 -0.6224  0.2101
10322SOL    HW136096  11.306   9.079   8.498 -0.3698  0.0789  0.1156
10322SOL    HW236097  11.379   9.024   8.377 -0.2653 -0.9321  0.6308
10323SOL     OW36098   5.374   4.259   2.704  0.8265 -0.0896  0.1618
10323SOL    HW136099   5.307   4.326   2.689  0.7963  0.2489  1.7468
10323SOL    HW236100   5.343   4.183   2.654 -0.4309  0.2621  0.3800
10324SOL     OW36101   8.002   6.568   2.422  0.5635  0.5834  0.0160
10324SOL    HW136102   7.995   6.593   2.329 -0.7511  0.1283 -0.0215
10324SOL    HW236103   8.094   6.584   2.444  1.5757 -1.9549 -2.1185
10325SOL     OW36104   2.494   4.139   9.049 -0.0057  0.2761 -0.8540
10325SOL    HW136105   2.488   4.099   8.962  0.3200 -0.8371 -0.3739
10325SOL    HW236106   2.583   4.175   9.052 -0.4282  1.3885 -1.4272
10326SOL     OW36107   0.471   9.724  11.179 -0.1412 -0.0215  0.4162
10326SOL    HW136108   0.434   9.808  11.203 -0.0091  0.6345 -1.6130
10326SOL    HW236109   0.486   9.729  11.085 -0.6685 -2.5262  0.1500
10327SOL     OW36110   0.130   1.659   9.924  0.2167  0.1003 -0.3038
10327SOL    HW136111   0.117   1.566   9.940 -1.9700  0.4388 -0.0286
10327SOL    HW236112   0.225   1.669   9.917  0.5567 -1.8942  1.1731
10328SOL     OW36113   0.034   2.995   6.123  0.0009 -0.2394 -0.5272
10328SOL    HW136114   0.018   2.935   6.050  1.7758 -1.3745 -0.0243
10328SOL    HW236115   0.076   2.941   6.189  0.4101  1.2764  0.4709
10329SOL     OW36116   0.272   7.293  10.783 -0.2036 -0.4360  0.0169
10329SOL    HW136117   0.269   7.205  10.745  0.2535 -0.4791  0.0716
10329SOL    HW236118   0.246   7.282  10.874  0.4691 -0.6160  0.1917
10330SOL     OW36119   1.280   0.452   3.045  0.3840  0.2131  0.3294
10330SOL    HW136120   1.221   0.501   3.102  0.2765  0.4055  0.0542
10330SOL    HW236121   1.282   0.364   3.082 -1.2630 -0.1994 -0.5131
10331SOL     OW36122  10.024   9.319   0.470 -0.3236 -0.4327  0.8329
10331SOL    HW136123  10.070   9.327   0.554  3.3630 -0.5218 -1.0852
10331SOL    HW236124  10.050   9.234   0.436  1.4940  1.2025 -2.1578
10332SOL     OW36125   7.147   6.250   1.115 -0.1727 -1.0724 -0.1094
10332SOL    HW136126   7.168   6.286   1.201  0.5731  2.2691 -1.5905
10332SOL    HW236127   7.065   6.203   1.127  0.2577 -1.1986  2.5516
10333SOL     OW36128   9.093  11.300   8.532 -0.0181 -0.0962 -0.0075
10333SOL    HW136129   9.027  11.355   8.490 -1.5857  0.0695  2.6209
10333SOL    HW236130   9.062  11.210   8.519  0.3816 -0.1464 -0.6505
10334SOL     OW36131   8.629   3.487   3.095  0.5740 -0.0403  0.0484
10334SOL    HW136132   8.539   3.514   3.077  0.6729  1.1616  1.2691
10334SOL    HW236133   8.683   3.547   3.042  0.7211  0.6917  1.0175
10335SOL     OW36134   6.797  10.492   8.244 -0.5312 -0.5619 -0.3152
10335SOL    HW136135   6.820  10.585   8.238 -0.2454 -0.5586  0.7758
10335SOL    HW236136   6.715  10.490   8.293 -0.3672 -0.9012 -0.0485
10336SOL     OW36137   0.516   1.630   8.541  0.1213 -0.2552 -0.7402
10336SOL    HW136138   0.443   1.596   8.594 -0.5305 -0.4434 -1.7519
10336SOL    HW236139   0.515   1.576   8.461  0.8083  0.3402 -1.1571
10337SOL     OW36140   9.061   6.412   9.545  0.4594  0.6652 -0.7392
10337SOL    HW136141   9.124   6.368   9.603 -0.1684 -0.4074 -0.8648
10337SOL    HW236142   9.068   6.365   9.462 -0.6202  0.4510 -0.7095
10338SOL     OW36143   5.271   1.285   2.865 -0.0458  0.5436 -0.1236
10338SOL    HW136144   5.235   1.250   2.947  1.8453  1.3791  1.1000
10338SOL    HW236145   5.332   1.219   2.835  1.8939  1.7647  1.0337
10339SOL     OW36146   7.978   9.709  10.959  0.0464  0.0998 -0.0706
10339SOL    HW136147   7.884   9.717  10.944 -0.0106 -0.2596  0.0851
10339SOL    HW236148   8.002   9.628  10.914  0.4873  0.7964 -1.0755
10340SOL     OW36149   0.920   5.976   9.591 -0.0971 -0.0923 -0.4146
10340SOL    HW136150   1.006   5.938   9.572 -0.1613  0.2185 -1.3546
10340SOL    HW236151   0.894   6.019   9.509 -0.4563  1.1236  0.3193
10341SOL     OW36152   6.987   8.635   8.557  0.6095  0.2046 -0.7868
10341SOL    HW136153   6.898   8.667   8.541 -0.3575 -1.9441 -0.0271
10341SOL    HW236154   7.001   8.650   8.650  1.1824  0.8824 -0.9848
10342SOL     OW36155  10.671   9.075  11.051  0.2319  0.1863 -0.2142
10342SOL    HW136156  10.713   8.993  11.078 -1.8877 -1.4072 -1.5834
10342SOL    HW236157  10.712   9.142  11.105  3.3248 -1.5158 -0.3134
10343SOL     OW36158   4.790   3.728   0.888  0.8609  0.2333 -0.2615
10343SOL    HW136159   4.747   3.767   0.812  0.3996  1.0145  0.3927
10343SOL    HW236160   4.735   3.653   0.911  0.1112  0.9435  0.2748
10344SOL     OW36161   6.162   6.121   7.764 -0.1196 -0.0320  0.5741
10344SOL    HW136162   6.117   6.134   7.681 -1.5870 -0.8138  1.2351
10344SOL    HW236163   6.110   6.171   7.827  1.4788  1.2902  0.9031
10345SOL     OW36164   0.909   4.588   9.719 -0.0980  0.6851  0.1378
10345SOL    HW136165   1.003   4.590   9.704 -0.2346  1.3442 -0.6881
10345SOL    HW236166   0.880   4.506   9.681 -0.0642  1.1684 -0.9646
10346SOL     OW36167   7.367  10.112   0.974 -0.2026  0.0386  0.5901
10346SOL    HW136168   7.433  10.175   0.946 -1.1567  1.9712  2.5099
10346SOL    HW236169   7.403  10.074   1.055  0.5082 -2.1481 -0.7217
10347SOL     OW36170   7.786   2.224  10.758  0.5380 -0.3711 -0.5675
10347SOL    HW136171   7.879   2.229  10.778  0.5312 -1.6438 -0.1205
10347SOL    HW236172   7.744   2.285  10.818  0.9903 -0.5872 -0.0293
10348SOL     OW36173   4.606  10.710   8.817 -0.1656 -0.0948  0.4832
10348SOL    HW136174   4.601  10.700   8.722 -0.7824  1.0854  0.3765
10348SOL    HW236175   4.522  10.749   8.841 -0.0980 -0.5866  1.5413
10349SOL     OW36176  10.297   7.270   9.251  0.1385  0.7713  0.3028
10349SOL    HW136177  10.315   7.205   9.320 -1.3875 -1.9716 -1.8092
10349SOL    HW236178  10.207   7.297   9.267 -0.0237  0.5708 -0.3006
10350SOL     OW36179   7.518   6.925  10.869  0.3671  0.5524  0.4092
10350SOL    HW136180   7.604   6.890  10.890  1.3049  1.6159 -1.4682
10350SOL    HW236181   7.517   7.012  10.909  0.2056  0.5667  0.3738
10351SOL     OW36182   0.564   7.858  10.849 -0.0992  0.6078 -0.5893
10351SOL    HW136183   0.617   7.937  10.851 -1.6478  1.6765 -0.8154
10351SOL    HW236184   0.557   7.830  10.940  1.5756 -0.0557 -0.6483
10352SOL     OW36185   1.019   9.359   8.258  0.4226  0.4344  0.2025
10352SOL    HW136186   1.085   9.372   8.191 -0.9989  2.5808 -0.8561
10352SOL    HW236187   1.021   9.440   8.309 -0.4055 -0.0663  1.0486
10353SOL     OW36188   5.406   8.139   0.156  0.3617  0.1174  0.2047
10353SOL    HW136189   5.460   8.218   0.154  0.2024  0.2044 -1.9211
10353SOL    HW236190   5.470   8.067   0.152  0.4214  0.1788  0.0340
10354SOL     OW36191   4.554   3.452   4.433 -0.0096  0.0333 -0.4641
10354SOL    HW136192   4.558   3.365   4.395 -1.3756  0.1987 -1.0019
10354SOL    HW236193   4.481   3.448   4.494  1.0998  0.2654  0.9118
10355SOL     OW36194  10.211   0.029   9.351  0.0782 -0.2270 -0.0332
10355SOL    HW136195  10.116   0.040   9.343  0.0695  0.0275  0.4104
10355SOL    HW236196  10.221  -0.045   9.412  0.1662 -0.2230 -0.0436
10356SOL     OW36197   0.919   9.725   9.971 -0.2734  0.5908  0.3759
10356SOL    HW136198   0.889   9.660   9.908  1.3091 -1.5738  1.7789
10356SOL    HW236199   0.859   9.799   9.960 -2.2605 -1.1969 -1.0761
10357SOL     OW36200  11.154   3.546   9.895 -0.1836 -0.0978 -0.4635
10357SOL    HW136201  11.120   3.512   9.811  0.4753  0.5646 -1.0054
10357SOL    HW236202  11.075   3.564   9.946 -0.6443  0.9215 -1.5181
10358SOL     OW36203   3.675   1.412   3.875 -0.0885  0.4838  0.2809
10358SOL    HW136204   3.753   1.411   3.819  0.6746  1.7959  1.3086
10358SOL    HW236205   3.664   1.321   3.902  0.1312  0.0101 -1.1718
10359SOL     OW36206   0.191   8.136   1.261 -0.0124 -0.0983 -0.0860
10359SOL    HW136207   0.170   8.050   1.298  0.2857 -0.8112 -1.5465
10359SOL    HW236208   0.109   8.166   1.223 -0.1957  0.4129  0.7067
10360SOL     OW36209   4.550   0.675  11.123 -0.9803 -0.6168 -0.0792
10360SOL    HW136210   4.460   0.654  11.147 -1.4302  0.8622 -0.3672
10360SOL    HW236211   4.552   0.771  11.122 -0.1536 -0.6273 -2.7866
10361SOL     OW36212   9.363   7.642   5.896 -0.1777  0.3915  0.4667
10361SOL    HW136213   9.447   7.621   5.937  0.1963  1.4172  0.2318
10361SOL    HW236214   9.358   7.584   5.821 -0.2773 -0.5887  1.2170
10362SOL     OW36215   9.541   0.243   4.851 -0.1922 -0.3198 -0.2466
10362SOL    HW136216   9.566   0.216   4.763 -0.0840 -0.9191 -0.0350
10362SOL    HW236217   9.578   0.176   4.908 -0.4532 -0.0557  0.2382
10363SOL     OW36218   2.257   3.517   7.796 -0.0609 -0.5474  0.0434
10363SOL    HW136219   2.335   3.547   7.843 -0.2429  0.4630 -0.2985
10363SOL    HW236220   2.291   3.452   7.734  0.1815 -1.8836  1.5376
10364SOL     OW36221  10.536   0.333   0.198  0.7055  0.4090 -0.0695
10364SOL    HW136222  10.582   0.285   0.268 -0.8364 -0.7797  0.1632
10364SOL    HW236223  10.546   0.425   0.221  0.3670  0.0375  1.6420
10365SOL     OW36224  11.172   3.093   3.106 -0.0272  0.4097 -0.2489
10365SOL    HW136225  11.122   3.155   3.052  1.5372  4.0151  2.2508
10365SOL    HW236226  11.236   3.055   3.046 -0.7422  1.5371 -1.7617
10366SOL     OW36227  11.236   6.066  10.118  0.3808  0.0950 -0.0413
10366SOL    HW136228  11.224   6.153  10.155  0.4173  0.9744 -2.0500
10366SOL    HW236229  11.331   6.053  10.118  0.4819  0.7242 -1.1823
10367SOL     OW36230   5.483   3.918   5.817 -0.5659 -0.0635 -0.2804
10367SOL    HW136231   5.559   3.936   5.871 -1.6434 -0.4207  1.3935
10367SOL    HW236232   5.506   3.839   5.768  0.0872 -0.2401  0.3045
10368SOL     OW36233   8.899   4.907   0.254 -0.0984  0.5446 -0.5776
10368SOL    HW136234   8.938   4.993   0.240  0.9877 -0.0576 -1.3122
10368SOL    HW236235   8.869   4.909   0.345  0.7302  1.3902 -0.3158
10369SOL     OW36236   9.523   8.735   1.091 -0.1030 -0.0063  0.3441
10369SOL    HW136237   9.489   8.668   1.032 -0.6391  0.5432  0.0143
10369SOL    HW236238   9.581   8.788   1.036  0.4817 -0.3309  0.6546
10370SOL     OW36239   1.133   7.327   5.313  0.2147  0.0490 -0.1555
10370SOL    HW136240   1.185   7.337   5.393  0.5079  4.1978 -0.7760
10370SOL    HW236241   1.184   7.372   5.246 -2.3295  0.7729 -1.6353
10371SOL     OW36242   2.982   2.334   0.604 -0.2279 -0.3973  0.4290
10371SOL    HW136243   2.902   2.284   0.620  0.1804 -2.0801 -2.4935
10371SOL    HW236244   3.009   2.364   0.691 -0.7430 -4.8587  2.2415
10372SOL     OW36245   8.534   1.189   3.339  0.0901 -0.0300 -0.2427
10372SOL    HW136246   8.473   1.189   3.413  0.4159  1.9152  0.0454
10372SOL    HW236247   8.479   1.175   3.262 -0.7113  1.5494  0.0362
10373SOL     OW36248   9.958   1.276   6.350 -0.1590  0.6232  0.0869
10373SOL    HW136249   9.949   1.224   6.429  2.4513  1.1993  0.7864
10373SOL    HW236250  10.017   1.226   6.294 -0.3534  1.1970 -0.6544
10374SOL     OW36251   2.722   8.259   9.457  0.3952  0.2227  0.4759
10374SOL    HW136252   2.649   8.204   9.485  2.3312 -1.4191  2.5483
10374SOL    HW236253   2.696   8.348   9.481 -1.3321 -0.2096  0.2534
10375SOL     OW36254   6.724   7.419   6.369 -0.1067 -0.2289 -0.0468
10375SOL    HW136255   6.633   7.420   6.340 -0.2634  0.3820  0.4557
10375SOL    HW236256   6.731   7.492   6.430  0.1907 -1.5638  1.5415
10376SOL     OW36257   7.109   1.646   1.966 -0.1281 -0.1466 -0.3431
10376SOL    HW136258   7.164   1.647   2.044 -1.6141  1.6705  0.7520
10376SOL    HW236259   7.023   1.674   1.998 -0.9549 -0.1542 -2.4982
10377SOL     OW36260   9.470   0.655   3.822  0.2430  0.0305 -0.0290
10377SOL    HW136261   9.401   0.696   3.771  1.4662  1.2306 -0.7584
10377SOL    HW236262   9.477   0.708   3.901 -0.0999 -0.4673  0.3358
10378SOL     OW36263   8.382   8.643   8.271 -0.2680  0.0243  0.0848
10378SOL    HW136264   8.396   8.735   8.248 -1.0435 -0.1205 -0.9807
10378SOL    HW236265   8.333   8.646   8.353 -3.9602  0.6420 -2.0136
10379SOL     OW36266   5.159   7.145   0.392  0.8222  0.2134 -0.2343
10379SOL    HW136267   5.068   7.142   0.363  0.8584  0.7343 -0.4049
10379SOL    HW236268   5.181   7.238   0.392  0.9360  0.1854  1.1213
10380SOL     OW36269   9.775  10.357   9.109  0.1642  0.2766  0.0869
10380SOL    HW136270   9.685  10.389   9.102  0.1435  0.5169  1.3797
10380SOL    HW236271   9.826  10.421   9.059 -0.6042 -0.9042 -2.2495
10381SOL     OW36272  10.710   6.928   4.043 -0.3894 -0.1705  0.8242
10381SOL    HW136273  10.742   6.949   4.131  0.6295  1.2947  0.1314
10381SOL    HW236274  10.643   6.994   4.025 -0.3411 -0.2388  0.3747
10382SOL     OW36275   9.549  10.086   5.069 -0.1161  0.1404  0.4267
10382SOL    HW136276   9.627  10.125   5.108  0.7049 -0.2200 -0.8027
10382SOL    HW236277   9.476  10.133   5.108  0.7862  1.8399  0.1298
10383SOL     OW36278   4.572   4.654   4.729 -0.6640  0.0892  0.1284
10383SOL    HW136279   4.568   4.647   4.634  0.0533 -0.6275  0.1488
10383SOL    HW236280   4.493   4.609   4.759 -0.9749  0.4576 -0.1323
10384SOL     OW36281   1.806   1.883   5.602  0.0374  0.2674  0.5331
10384SOL    HW136282   1.830   1.921   5.517  1.6265  0.5994  1.1151
10384SOL    HW236283   1.890   1.864   5.644 -0.7487 -0.6859  1.6789
10385SOL     OW36284  11.185  10.265  10.324 -0.1941 -0.5414  0.2615
10385SOL    HW136285  11.130  10.189  10.346  0.8797 -1.0726  1.1708
10385SOL    HW236286  11.224  10.242  10.240  0.1602 -1.0139  0.5517
10386SOL     OW36287   4.415   0.764   1.977  0.2001  0.1348 -0.2613
10386SOL    HW136288   4.455   0.819   2.044 -1.4985  1.4249 -0.2696
10386SOL    HW236289   4.479   0.694   1.961  1.4829  0.9491  1.2382
10387SOL     OW36290   7.798   3.504   4.114  0.3098 -0.7746 -0.4876
10387SOL    HW136291   7.860   3.431   4.126 -0.1300 -0.7406  2.4421
10387SOL    HW236292   7.737   3.473   4.047  0.7816 -2.6760 -0.0701
10388SOL     OW36293   5.365   0.079   5.251  0.2597  0.4287  0.5904
10388SOL    HW136294   5.400   0.080   5.340  1.2443  0.3285  0.2100
10388SOL    HW236295   5.270   0.083   5.263  0.3726  0.2115  1.6495
10389SOL     OW36296   9.661   0.948   1.016 -0.1981 -0.3183 -0.2221
10389SOL    HW136297   9.584   0.995   0.984  0.1828 -1.1278 -2.4292
10389SOL    HW236298   9.731   0.973   0.956  0.8749 -0.8869  0.7570
10390SOL     OW36299   3.284  10.084   0.932  0.4846 -0.3848  0.5730
10390SOL    HW136300   3.260  10.174   0.910 -0.1835 -0.4723  0.9219
10390SOL    HW236301   3.218  10.031   0.888  1.0239 -0.7168  0.1666
10391SOL     OW36302   9.324   3.653   3.284 -0.3407 -1.0934  0.3025
10391SOL    HW136303   9.401   3.616   3.328 -0.0056  0.0519  0.6883
10391SOL    HW236304   9.357   3.683   3.200 -0.3718 -0.6316  0.4542
10392SOL     OW36305   9.316   2.971  10.265  0.5788  0.2294  0.0462
10392SOL    HW136306   9.409   2.993  10.268  0.6843 -0.2335  0.1988
10392SOL    HW236307   9.314   2.876  10.275 -0.0335  0.4443  2.1336
10393SOL     OW36308  10.571  10.562   5.611 -0.1930  0.7981  0.2988
10393SOL    HW136309  10.587  10.571   5.705 -1.7549 -0.1983  0.6797
10393SOL    HW236310  10.489  10.512   5.605 -0.5524  1.5561 -1.5836
10394SOL     OW36311   8.472   7.407  11.178  0.2249 -0.1047 -0.3573
10394SOL    HW136312   8.380   7.393  11.201  0.6655  0.0680  1.6126
10394SOL    HW236313   8.509   7.319  11.173  0.1338 -0.1460 -0.3185
10395SOL     OW36314   2.032  11.012   2.711 -0.0198  0.7390 -0.2611
10395SOL    HW136315   2.071  11.075   2.772  1.0453  0.2259 -0.4065
10395SOL    HW236316   1.980  11.066   2.652 -0.7978  1.2763  0.8893
10396SOL     OW36317   2.533  10.445   7.455  0.2854  0.0294  0.3361
10396SOL    HW136318   2.514  10.352   7.450 -0.4042  0.1223  1.1607
10396SOL    HW236319   2.449  10.486   7.474  0.3963  0.9277 -1.0225
10397SOL     OW36320   0.724   0.597   3.234 -0.1001  0.0777 -0.2560
10397SOL    HW136321   0.754   0.680   3.197 -0.0698  0.4685  0.6405
10397SOL    HW236322   0.801   0.540   3.230 -0.1868  0.0124 -1.0946
10398SOL     OW36323   4.573   5.670   0.782 -0.4123  0.2003 -0.8300
10398SOL    HW136324   4.644   5.727   0.755  0.5718 -0.9070 -0.6244
10398SOL    HW236325   4.615   5.586   0.803 -1.2931  0.5229  2.6768
10399SOL     OW36326   0.395   0.007   7.272  0.4937  0.5107  0.0215
10399SOL    HW136327   0.448  -0.040   7.207  1.5465  0.8826  0.6048
10399SOL    HW236328   0.396   0.098   7.242 -1.3338  0.2416 -0.9663
10400SOL     OW36329   6.308   0.972   1.400  0.0154 -0.1612  0.1911
10400SOL    HW136330   6.260   0.987   1.319 -0.5524 -0.7640  0.4029
10400SOL    HW236331   6.399   0.989   1.378 -0.1798  0.0268 -0.4811
10401SOL     OW36332  10.466   4.981   1.569 -0.5248  0.2347  0.1327
10401SOL    HW136333  10.389   4.928   1.586 -1.4873  1.4232 -0.4544
10401SOL    HW236334  10.448   5.023   1.484  0.4786  1.0159  0.2933
10402SOL     OW36335   9.370   6.413   6.870  0.1706 -0.5217 -0.3932
10402SOL    HW136336   9.300   6.376   6.924  1.0841 -1.4512  0.1712
10402SOL    HW236337   9.328   6.486   6.824 -1.5398 -1.9159 -1.1349
10403SOL     OW36338   0.975   7.515   9.538  0.1186  0.4959  0.5648
10403SOL    HW136339   0.921   7.591   9.556 -1.0835 -0.9038  3.1196
10403SOL    HW236340   1.020   7.497   9.620  0.9408 -1.0974 -0.2026
10404SOL     OW36341   7.311   8.125   5.772  0.2524 -0.2608  0.2511
10404SOL    HW136342   7.270   8.211   5.764 -0.7505 -0.8067 -0.5161
10404SOL    HW236343   7.242   8.063   5.748  1.5085 -1.1989 -1.0146
10405SOL     OW36344   3.980   0.772   7.807  0.2140  0.0210 -0.0400
10405SOL    HW136345   3.990   0.684   7.772  0.9994  0.1792 -0.2299
10405SOL    HW236346   4.067   0.793   7.842  0.6380  1.5339 -1.8969
10406SOL     OW36347   5.302   7.395   4.724 -0.8406  0.0927  0.0085
10406SOL    HW136348   5.348   7.338   4.663  0.9186  0.9204  0.5304
10406SOL    HW236349   5.238   7.338   4.767 -0.7075 -0.9392 -1.1391
10407SOL     OW36350   4.846  10.743   8.200  0.2694  0.0811 -0.4815
10407SOL    HW136351   4.789  10.666   8.208 -1.3993  1.4404  1.3840
10407SOL    HW236352   4.934  10.709   8.217 -0.3972 -1.5021 -0.0515
10408SOL     OW36353   5.056   2.595   7.880 -0.1493  0.2472  0.2829
10408SOL    HW136354   5.143   2.582   7.918  0.7812 -0.0186 -1.8407
10408SOL    HW236355   5.044   2.690   7.878  1.1685  0.4047 -1.6664
10409SOL     OW36356   0.146   8.965   9.774 -0.2240 -0.3809  0.0789
10409SOL    HW136357   0.080   8.992   9.838 -0.5896  0.2664 -0.5754
10409SOL    HW236358   0.229   8.981   9.818 -0.4595  0.8406  0.0808
10410SOL     OW36359   8.667   9.618   8.491  0.6852 -0.2958  0.1438
10410SOL    HW136360   8.743   9.669   8.518 -0.3180  0.1679  2.1816
10410SOL    HW236361   8.677   9.533   8.535 -0.1221 -0.1191  0.6892
10411SOL     OW36362   3.233   1.542   5.051  0.0864 -0.1591 -0.4062
10411SOL    HW136363   3.204   1.539   4.960 -1.0461 -1.6656 -0.0167
10411SOL    HW236364   3.181   1.612   5.091  0.4926  0.4145 -0.8742
10412SOL     OW36365  10.704   4.459   7.260 -0.2189  0.2842  0.0881
10412SOL    HW136366  10.765   4.392   7.290  1.0380  1.4345  0.1818
10412SOL    HW236367  10.618   4.419   7.269  0.6047 -1.9980 -1.6991
10413SOL     OW36368  10.366   2.241   7.116 -0.3723  0.1283  0.2265
10413SOL    HW136369  10.310   2.267   7.043 -0.7550  1.5740  1.0288
10413SOL    HW236370  10.315   2.261   7.194  0.7150  0.1557  0.9394
10414SOL     OW36371   2.703   5.602   2.799 -0.4982  0.5534  0.3043
10414SOL    HW136372   2.625   5.586   2.746 -1.3515  0.0456  1.7081
10414SOL    HW236373   2.718   5.697   2.792 -0.3036  0.4374 -1.2202
10415SOL     OW36374   1.583   1.281   3.336  0.0135  0.0640  0.1796
10415SOL    HW136375   1.534   1.253   3.258 -0.4324  0.3207  0.3664
10415SOL    HW236376   1.673   1.291   3.305 -0.0105 -0.6077 -0.1235
10416SOL     OW36377   5.918  10.952   0.191 -0.1528  0.0226 -0.1399
10416SOL    HW136378   5.930  11.044   0.215  0.2402 -0.2377  0.6750
10416SOL    HW236379   5.915  10.952   0.095 -3.4961  1.2950 -0.1054
10417SOL     OW36380   3.686   2.124   2.007 -0.2753  0.9924 -0.3164
10417SOL    HW136381   3.606   2.155   2.050  0.3651  2.8928 -0.4213
10417SOL    HW236382   3.732   2.204   1.982  2.5444 -0.0344  1.3699
10418SOL     OW36383   4.284   7.091  10.999 -0.5783 -0.8611  0.0901
10418SOL    HW136384   4.273   7.004  11.038 -0.7485  0.1122  2.3095
10418SOL    HW236385   4.212   7.099  10.937 -2.3088 -1.1995  1.9881
10419SOL     OW36386  11.282   3.978   5.031 -0.0360  0.5350 -0.9611
10419SOL    HW136387  11.370   3.998   5.061  0.1678 -1.8494  0.1708
10419SOL    HW236388  11.293   3.935   4.946 -0.1143  0.3469 -0.8772
10420SOL     OW36389   0.568   0.872   8.398 -0.1394 -0.4163 -0.4699
10420SOL    HW136390   0.566   0.915   8.483 -0.8128 -1.3878  0.0120
10420SOL    HW236391   0.637   0.917   8.350 -0.6717  1.0363  0.1099
10421SOL     OW36392   1.121   4.634   5.949  0.3225 -0.3896  0.4508
10421SOL    HW136393   1.173   4.683   6.013  0.2613  0.8749 -0.4481
10421SOL    HW236394   1.031   4.664   5.963  0.3044 -0.1239 -0.1954
10422SOL     OW36395   9.684   3.966   1.906  0.1154 -0.2173  0.6044
10422SOL    HW136396   9.671   4.061   1.906 -0.8067 -0.3375  1.8177
10422SOL    HW236397   9.724   3.947   1.991 -0.5744 -1.0219  0.7543
10423SOL     OW36398  10.246  11.110   5.724  0.0150 -0.2225 -0.5122
10423SOL    HW136399  10.216  11.019   5.722 -0.0911 -0.2224  0.8880
10423SOL    HW236400  10.241  11.138   5.633 -4.0122 -0.3163 -0.4227
10424SOL     OW36401   7.184   5.577  10.539  0.2935 -0.1823  0.5296
10424SOL    HW136402   7.142   5.518  10.602  2.6178 -2.6236 -0.1579
10424SOL    HW236403   7.173   5.534  10.454  1.3936  0.7241 -0.0820
10425SOL     OW36404   6.171   1.377   8.497  0.6291 -0.1997  0.1030
10425SOL    HW136405   6.135   1.457   8.535 -0.2577 -0.1797 -0.7681
10425SOL    HW236406   6.105   1.348   8.434  1.6153 -0.8057 -0.6702
10426SOL     OW36407  10.492   1.274   1.766  0.3761  0.7827  0.5914
10426SOL    HW136408  10.418   1.274   1.827  0.8729 -0.7008  1.2178
10426SOL    HW236409  10.486   1.189   1.722  0.6005  1.4403 -0.7313
10427SOL     OW36410   0.716   5.123   8.254  0.8428  0.0741  0.0571
10427SOL    HW136411   0.692   5.146   8.344  0.9352  0.9915 -0.1473
10427SOL    HW236412   0.656   5.174   8.200  2.4291  1.4862 -0.4430
10428SOL     OW36413  10.142   8.073   4.574 -0.1108  0.3907 -0.0819
10428SOL    HW136414  10.119   8.154   4.529 -1.2910  1.5281  2.4438
10428SOL    HW236415  10.081   8.008   4.539 -1.1445  1.3077 -0.0198
10429SOL     OW36416   9.234   1.010   6.763  0.0404 -0.0459  0.2992
10429SOL    HW136417   9.298   0.972   6.704  1.5026  1.7774  0.6800
10429SOL    HW236418   9.249   0.967   6.847  0.9848  0.5894  0.4611
10430SOL     OW36419   0.615   2.079   3.805  0.3774  0.0126  0.3219
10430SOL    HW136420   0.676   2.053   3.874  0.1874  0.6823  0.7485
10430SOL    HW236421   0.663   2.065   3.723  1.1850  0.7534  0.6652
10431SOL     OW36422   3.336   4.406   0.941 -0.0176 -0.1804  0.1198
10431SOL    HW136423   3.305   4.492   0.969  0.1212  0.4889 -1.7418
10431SOL    HW236424   3.264   4.371   0.887 -0.4892 -1.6644  1.6613
10432SOL     OW36425   5.646   2.044  11.329 -0.2913 -0.1729  0.0184
10432SOL    HW136426   5.642   2.022  11.236 -0.1310  0.5641 -0.1662
10432SOL    HW236427   5.678   2.134  11.331  1.0216 -0.6469  0.8436
10433SOL     OW36428   6.469   4.404   8.484  0.0377  0.5930 -0.0539
10433SOL    HW136429   6.375   4.400   8.465  0.5581  0.1573 -2.7950
10433SOL    HW236430   6.484   4.335   8.549 -1.0346 -1.4665 -1.9285
10434SOL     OW36431   1.735   1.248   4.701 -0.4401  0.3653 -0.1959
10434SOL    HW136432   1.747   1.179   4.766 -0.5674  0.4959 -0.0331
10434SOL    HW236433   1.688   1.206   4.629 -2.1230  0.7115  0.6736
10435SOL     OW36434   7.791  10.405   7.861  0.5411  0.2984  0.3268
10435SOL    HW136435   7.813  10.403   7.768  0.0338  0.6853  0.1946
10435SOL    HW236436   7.760  10.316   7.881 -1.6932  0.8501 -0.4668
10436SOL     OW36437   2.973   0.787   9.182 -0.5752 -0.2210  0.4049
10436SOL    HW136438   2.971   0.855   9.249  1.9702  0.8668 -0.5461
10436SOL    HW236439   3.032   0.720   9.217 -0.2047 -0.2284 -0.2208
10437SOL     OW36440   3.354   5.862   7.396  0.6832 -0.0948  0.1393
10437SOL    HW136441   3.299   5.927   7.354  0.4392 -1.0473 -1.0266
10437SOL    HW236442   3.326   5.862   7.488  0.8925  1.6336  0.2153
10438SOL     OW36443   8.360   4.954   3.775  0.1900  0.1107 -0.3161
10438SOL    HW136444   8.360   5.048   3.762 -0.2447  0.0520 -0.7751
10438SOL    HW236445   8.415   4.919   3.704 -0.3615 -0.0432 -0.6705
10439SOL     OW36446   3.132   3.058  11.243  0.0677 -0.5594 -0.6270
10439SOL    HW136447   3.045   3.080  11.275 -0.4544 -3.4687  0.0542
10439SOL    HW236448   3.189   3.076  11.318  0.0907  1.3651 -1.0788
10440SOL     OW36449   9.490   8.387   5.118  0.4878  0.0739  0.0439
10440SOL    HW136450   9.484   8.482   5.116  0.4957  0.0520 -2.2928
10440SOL    HW236451   9.579   8.368   5.088 -0.2894 -0.7371 -1.7761
10441SOL     OW36452   5.334   9.127   4.597 -0.6712 -0.6023 -0.4309
10441SOL    HW136453   5.351   9.217   4.627  1.4510 -0.5229 -1.7729
10441SOL    HW236454   5.262   9.135   4.535 -1.2926 -0.0094  0.3506
10442SOL     OW36455   2.143   4.828  11.272 -0.1793 -0.2044 -0.1025
10442SOL    HW136456   2.106   4.754  11.225  0.6754 -2.7209  3.0252
10442SOL    HW236457   2.236   4.826  11.251 -0.3547  0.8119 -1.0339
10443SOL     OW36458   1.508   8.863   9.201 -0.4632  0.2690 -0.1039
10443SOL    HW136459   1.524   8.879   9.294 -1.9690 -4.0929  1.0372
10443SOL    HW236460   1.412   8.865   9.193 -0.4514 -2.0967 -0.9730
10444SOL     OW36461   7.091   6.449   3.277  0.5628 -0.1393 -0.0121
10444SOL    HW136462   7.138   6.376   3.315  1.0075  1.1117  1.9095
10444SOL    HW236463   7.060   6.417   3.192  1.1763 -2.3609  0.5885
10445SOL     OW36464   2.974   8.729   8.551 -0.0676  0.0689 -0.6496
10445SOL    HW136465   2.998   8.821   8.553  0.0076  0.0313  0.9478
10445SOL    HW236466   2.963   8.705   8.643 -0.2779 -1.4621 -1.0549
10446SOL     OW36467  10.574   6.553   4.043 -0.4257 -0.0142  0.0643
10446SOL    HW136468  10.493   6.603   4.035 -1.9670 -2.1981  1.5872
10446SOL    HW236469  10.586   6.512   3.957 -1.4000 -0.3668  0.0947
10447SOL     OW36470   4.580   7.200   4.504  0.6255 -0.2357  0.2322
10447SOL    HW136471   4.649   7.254   4.463  1.2807  0.0563  1.6754
10447SOL    HW236472   4.550   7.142   4.434  1.4025  0.5642 -0.7812
10448SOL     OW36473   7.638   9.868   8.675  0.0126  0.0352  0.1756
10448SOL    HW136474   7.548   9.838   8.663  0.4351 -1.1591 -0.0724
10448SOL    HW236475   7.657   9.918   8.596 -0.1178 -0.4990 -0.1947
10449SOL     OW36476   6.650   0.875   3.756 -0.0131  0.3970 -0.2623
10449SOL    HW136477   6.688   0.788   3.752  3.1852  1.5138  3.0320
10449SOL    HW236478   6.606   0.879   3.840  0.7233  2.2507  0.0742
10450SOL     OW36479   2.412   0.074   1.758  0.5578 -0.0329  0.3436
10450SOL    HW136480   2.317   0.072   1.762  0.5682 -0.5641  0.3891
10450SOL    HW236481   2.438   0.127   1.834  0.2350  1.7939 -0.8049
10451SOL     OW36482   3.161   0.240   6.415 -0.3368  0.1013  0.4536
10451SOL    HW136483   3.120   0.213   6.497 -0.9142  0.6197  0.3414
10451SOL    HW236484   3.237   0.292   6.442  1.5250 -2.6663  0.6793
10452SOL     OW36485   3.469   3.407   6.557  0.2755 -0.0578 -0.1227
10452SOL    HW136486   3.434   3.394   6.469  1.3799  2.5174 -0.9889
10452SOL    HW236487   3.419   3.481   6.592 -0.8473 -1.6837  1.8392
10453SOL     OW36488  11.251   5.019   4.271  0.2674  0.2523  0.0142
10453SOL    HW136489  11.278   5.104   4.236 -1.4300  0.5930 -0.5509
10453SOL    HW236490  11.332   4.979   4.302  1.0927  2.0711  0.2841
10454SOL     OW36491   2.693   8.263   1.119 -0.1568 -0.2930  0.4435
10454SOL    HW136492   2.741   8.328   1.169  0.2389 -0.1506 -0.1223
10454SOL    HW236493   2.602   8.290   1.125  0.2196  1.5170 -1.5641
10455SOL     OW36494   0.524   4.153   7.020 -0.5452 -0.1302 -0.1879
10455SOL    HW136495   0.609   4.189   7.047 -1.1247  0.9507  0.1958
10455SOL    HW236496   0.493   4.212   6.952 -1.1494 -0.3469 -0.1034
10456SOL     OW36497  10.456   1.402   0.959  0.4506 -1.0611  1.2208
10456SOL    HW136498  10.427   1.493   0.963  2.3514 -0.4329  0.9797
10456SOL    HW236499  10.491   1.391   0.871 -0.4935 -2.2825  0.9668
10457SOL     OW36500   5.881   5.620   1.260 -0.2397 -0.4620  0.7575
10457SOL    HW136501   5.976   5.612   1.268  0.0367  1.3641 -0.4112
10457SOL    HW236502   5.866   5.631   1.166 -1.6040 -0.6734  0.9468
10458SOL     OW36503   3.675   1.492   4.729 -0.9091  0.0539  0.2722
10458SOL    HW136504   3.614   1.434   4.774 -2.1194  0.7974 -0.3552
10458SOL    HW236505   3.760   1.475   4.769 -1.2819 -1.9635  0.2612
10459SOL     OW36506   7.211   7.936   8.130  0.0446  0.2472  0.2566
10459SOL    HW136507   7.266   7.862   8.105 -0.0830  0.1073  0.3958
10459SOL    HW236508   7.253   8.011   8.087 -1.6712 -0.3604 -2.5880
10460SOL     OW36509   9.626   9.032   4.499 -0.2357 -0.2610 -0.6965
10460SOL    HW136510   9.699   8.983   4.462  0.2038 -0.7362  0.7901
10460SOL    HW236511   9.634   9.119   4.460  1.0936 -0.3261 -0.5935
10461SOL     OW36512   3.676   0.090   1.469  0.0583 -0.0946  0.4650
10461SOL    HW136513   3.718   0.162   1.515  0.7626 -0.7765  0.8957
10461SOL    HW236514   3.585   0.119   1.457  0.7997  1.6593 -1.0744
10462SOL     OW36515   5.447   8.160   9.644 -0.6356 -0.0205  0.2031
10462SOL    HW136516   5.498   8.240   9.650 -0.6221 -0.0162  0.0126
10462SOL    HW236517   5.367   8.180   9.692 -0.3740 -0.0934  0.6744
10463SOL     OW36518   6.984   6.735  10.526  0.0139 -0.5801  0.3504
10463SOL    HW136519   6.988   6.798  10.598 -1.1693 -2.6147  2.2563
10463SOL    HW236520   7.072   6.700  10.519  0.4989  0.7016 -0.2321
10464SOL     OW36521   2.518   2.232   2.580 -0.4211  0.7313 -0.5829
10464SOL    HW136522   2.586   2.290   2.613  0.1215  0.1738 -0.7126
10464SOL    HW236523   2.468   2.207   2.657 -0.9653  1.7535 -0.5894
10465SOL     OW36524   4.368   3.507   8.689 -0.4385  0.2999  0.2761
10465SOL    HW136525   4.294   3.552   8.731 -1.3284  1.0637 -2.0275
10465SOL    HW236526   4.418   3.578   8.649  1.6720 -0.1995  1.9287
10466SOL     OW36527   4.796   9.878  10.949  0.4745  1.0690 -0.0304
10466SOL    HW136528   4.791   9.802  10.891 -0.3192  1.8433 -0.9950
10466SOL    HW236529   4.740   9.856  11.023 -1.5382  1.5744 -1.3436
10467SOL     OW36530   8.223  10.800   1.454  0.2775 -0.2049 -0.1397
10467SOL    HW136531   8.264  10.792   1.368  0.4843  1.1220 -0.1784
10467SOL    HW236532   8.130  10.786   1.437  0.3708 -0.3778 -0.5141
10468SOL     OW36533   8.399   9.227   7.156  0.3905 -0.0479  0.3140
10468SOL    HW136534   8.455   9.297   7.120  0.7430 -0.9727 -0.9830
10468SOL    HW236535   8.397   9.244   7.250  0.4246  1.7502  0.0085
10469SOL     OW36536  10.667   2.801   3.931  0.1500 -0.4906 -0.1408
10469SOL    HW136537  10.572   2.811   3.932  0.4342  2.6111 -0.1391
10469SOL    HW236538  10.688   2.756   4.013 -1.0887  1.1815  1.1131
10470SOL     OW36539  11.208   9.280   1.463  0.4974 -0.0757 -0.5554
10470SOL    HW136540  11.296   9.254   1.434  0.5018 -0.9823  0.2617
10470SOL    HW236541  11.222   9.318   1.549  0.0710 -0.3555 -0.3616
10471SOL     OW36542   1.753   2.460   8.909 -0.0717 -0.3571 -0.2238
10471SOL    HW136543   1.766   2.461   9.004  0.5844 -0.2514 -0.3121
10471SOL    HW236544   1.667   2.501   8.896 -0.3739 -0.7932  0.3538
10472SOL     OW36545   0.867  11.135   2.721 -0.0840  1.0450  0.1970
10472SOL    HW136546   0.797  11.186   2.763 -0.0195  0.5977  0.8511
10472SOL    HW236547   0.933  11.124   2.789 -0.3983 -0.4950  0.2748
10473SOL     OW36548   3.296  10.698   7.002 -0.0687  0.5073 -0.6453
10473SOL    HW136549   3.325  10.715   7.092  1.2177  0.2138 -0.9934
10473SOL    HW236550   3.295  10.602   6.995  3.8011  0.5065 -2.1629
10474SOL     OW36551   8.195   7.870   6.174  0.6261  0.0965  0.4082
10474SOL    HW136552   8.133   7.845   6.243  0.5323 -1.3191 -0.1922
10474SOL    HW236553   8.145   7.866   6.093  1.3148 -0.3509  0.0020
10475SOL     OW36554   4.444  10.711   8.026  0.9289 -0.2076 -0.2979
10475SOL    HW136555   4.427  10.626   8.066 -1.6994 -0.2509 -1.3532
10475SOL    HW236556   4.440  10.694   7.932  0.6637  1.0157 -0.5200
10476SOL     OW36557  10.533   4.880   8.495  0.1013  0.0112  0.3423
10476SOL    HW136558  10.546   4.828   8.415 -0.0246  0.7886 -0.1825
10476SOL    HW236559  10.490   4.819   8.556 -0.0777 -0.4921 -0.2813
10477SOL     OW36560   0.933   5.424   7.218  0.2326  0.1441  0.5794
10477SOL    HW136561   0.958   5.391   7.304 -1.2747 -1.8108  0.3149
10477SOL    HW236562   0.860   5.483   7.235 -0.6558 -0.9300  0.6050
10478SOL     OW36563   6.225   0.510   4.393 -0.3825  0.1648 -0.6574
10478SOL    HW136564   6.304   0.459   4.375 -0.7552 -0.4141 -0.6551
10478SOL    HW236565   6.252   0.573   4.459  0.6882  1.5192 -2.3504
10479SOL     OW36566   9.324   2.431   1.853 -0.4005 -0.5069 -0.1490
10479SOL    HW136567   9.335   2.338   1.835 -1.0910 -0.8445  1.0817
10479SOL    HW236568   9.271   2.464   1.780 -1.0562 -1.3062 -0.0424
10480SOL     OW36569   1.863   0.452   4.517 -0.0022 -0.6002  0.2853
10480SOL    HW136570   1.909   0.368   4.525 -0.2438 -0.6410  1.3074
10480SOL    HW236571   1.854   0.483   4.606 -1.3358 -0.2547  0.0430
10481SOL     OW36572   0.062   6.778   0.295 -0.7957 -0.0624 -0.7396
10481SOL    HW136573  -0.008   6.817   0.348 -0.3804 -0.4686  0.1192
10481SOL    HW236574   0.079   6.843   0.226  0.1124  1.4504  0.8646
10482SOL     OW36575   2.234  10.451   8.428 -0.0982 -0.1678 -0.0938
10482SOL    HW136576   2.254  10.366   8.391  2.4469  0.6209 -0.5972
10482SOL    HW236577   2.279  10.452   8.513  0.6241  1.0053 -0.4809
10483SOL     OW36578   1.559   2.792   5.015 -0.9615  0.3354  0.1168
10483SOL    HW136579   1.466   2.769   5.026 -0.7502 -2.3572 -2.9404
10483SOL    HW236580   1.580   2.765   4.926  2.2151  3.0535 -0.0459
10484SOL     OW36581   1.047   6.534   4.924 -0.1437 -0.2580 -0.7245
10484SOL    HW136582   1.000   6.607   4.883  0.7047  0.3497 -0.6373
10484SOL    HW236583   1.099   6.496   4.853 -0.0422 -0.3269 -0.6127
10485SOL     OW36584   6.894   8.795   5.242  1.0451 -0.5130 -0.4513
10485SOL    HW136585   6.815   8.786   5.188  0.6950  0.0005 -0.0228
10485SOL    HW236586   6.867   8.767   5.329  1.5327 -1.0428 -0.4682
10486SOL     OW36587   2.585   2.678   7.977 -0.2931  0.6992  0.3746
10486SOL    HW136588   2.620   2.751   7.925  0.7581  1.4696  2.1330
10486SOL    HW236589   2.490   2.684   7.965 -0.1468  1.6825 -0.3831
10487SOL     OW36590   1.531   6.793   5.054  0.1198  0.2033 -0.3965
10487SOL    HW136591   1.435   6.800   5.053  0.2710  2.6616 -0.5164
10487SOL    HW236592   1.557   6.807   4.963  0.5896 -0.5580 -0.3784
10488SOL     OW36593   3.716   3.575   0.474  0.1062  0.1901  0.2202
10488SOL    HW136594   3.652   3.548   0.539  0.5694 -0.0794  0.5727
10488SOL    HW236595   3.713   3.670   0.474 -1.0267  0.1605 -0.5117
10489SOL     OW36596   3.378   2.565   5.705 -0.0675  0.7098 -0.4976
10489SOL    HW136597   3.391   2.471   5.710 -0.7866  0.5352 -1.7168
10489SOL    HW236598   3.286   2.578   5.729  0.1901  1.1647  0.2652
10490SOL     OW36599   4.775   5.647   7.546  0.2934 -0.1291  1.2639
10490SOL    HW136600   4.735   5.730   7.571 -0.2477 -0.3367  1.0946
10490SOL    HW236601   4.735   5.625   7.461 -0.6110 -1.2486  1.9627
10491SOL     OW36602   2.012   5.791   5.161 -0.0297 -0.2520  0.1741
10491SOL    HW136603   2.021   5.701   5.130  2.9266 -0.8409  2.4947
10491SOL    HW236604   1.938   5.789   5.221 -0.8561 -0.8163 -0.8531
10492SOL     OW36605   8.141  10.092   2.175 -0.2593 -0.0852  0.1229
10492SOL    HW136606   8.079  10.098   2.102 -0.7450 -1.0429  0.4553
10492SOL    HW236607   8.171  10.001   2.175  0.2186  0.0667  0.7310
10493SOL     OW36608   5.382   1.747   8.661 -0.0995 -0.3419 -0.5420
10493SOL    HW136609   5.428   1.693   8.725  1.7710 -0.0451 -1.6015
10493SOL    HW236610   5.335   1.811   8.713  0.0917 -1.1151  0.5963
10494SOL     OW36611   8.922   6.999  10.859 -0.4594 -0.3279  0.2172
10494SOL    HW136612   8.830   7.026  10.847 -0.9780 -1.9841  0.3347
10494SOL    HW236613   8.925   6.909  10.827  1.2050 -0.1925 -0.0319
10495SOL     OW36614  10.693  10.406   2.170  0.0752  0.1184 -0.5282
10495SOL    HW136615  10.744  10.431   2.247  0.9932 -1.0176 -0.7593
10495SOL    HW236616  10.742  10.442   2.096  1.5920 -2.5958 -0.8875
10496SOL     OW36617   0.521   6.155   8.915 -0.0799 -0.2701 -0.1245
10496SOL    HW136618   0.481   6.070   8.931 -2.1772  0.8588  0.8396
10496SOL    HW236619   0.450   6.209   8.880  0.7970  1.5474  0.8068
10497SOL     OW36620   7.973   7.696   3.342  0.5842  0.5185  0.3974
10497SOL    HW136621   8.019   7.777   3.322  0.7578  0.3579  0.1552
10497SOL    HW236622   7.916   7.719   3.416  0.8176  0.7957  0.4915
10498SOL     OW36623   3.581   2.444   2.707  0.0777  0.1555 -0.4623
10498SOL    HW136624   3.653   2.495   2.669 -1.0451 -0.4042 -3.5122
10498SOL    HW236625   3.523   2.510   2.745  0.6680  0.8242 -0.7086
10499SOL     OW36626   1.566   6.518   3.162  0.0330  0.5839  0.2083
10499SOL    HW136627   1.653   6.539   3.197  0.3708  1.0273 -0.8885
10499SOL    HW236628   1.571   6.541   3.069 -0.6297 -1.2665 -0.2999
10500SOL     OW36629   8.495  10.836   6.633  0.2878  0.1319  0.0941
10500SOL    HW136630   8.423  10.897   6.620  0.4512 -0.0417 -1.6770
10500SOL    HW236631   8.569  10.875   6.587  1.2116  0.0858  1.5055
10501SOL     OW36632   4.398   2.057   7.271 -0.0799  0.4346 -0.0009
10501SOL    HW136633   4.353   2.070   7.355 -1.7561  0.7399 -0.9279
10501SOL    HW236634   4.342   2.100   7.207  0.2296 -1.4270 -1.5632
10502SOL     OW36635   7.796   4.743   1.599 -0.5324  0.6712  0.1285
10502SOL    HW136636   7.861   4.798   1.644  0.5759 -0.6505  0.1620
10502SOL    HW236637   7.748   4.700   1.670 -1.0294  1.1539  0.0906
10503SOL     OW36638   6.734   2.730   4.039  0.3315 -0.1850  0.3525
10503SOL    HW136639   6.733   2.692   3.951 -0.0129 -0.5094  0.4964
10503SOL    HW236640   6.778   2.815   4.028 -2.2508  1.0769 -0.6578
10504SOL     OW36641   8.187   6.274   7.039 -0.1364  0.4553 -0.2147
10504SOL    HW136642   8.237   6.320   6.972  0.8951  0.6749  0.6814
10504SOL    HW236643   8.222   6.308   7.122 -0.6176 -0.6176  0.4355
10505SOL     OW36644   6.737   1.475   1.739  0.0498  0.2097  0.1052
10505SOL    HW136645   6.670   1.542   1.754  0.5130  0.6962 -0.0037
10505SOL    HW236646   6.780   1.464   1.824 -0.3914 -0.3492  0.2601
10506SOL     OW36647   8.413   0.743   3.177 -0.2501 -0.9750 -0.3005
10506SOL    HW136648   8.357   0.710   3.248  0.7523 -0.7807  0.6015
10506SOL    HW236649   8.463   0.666   3.149  1.7319 -0.3784  1.4672
10507SOL     OW36650   1.303   2.981   1.357 -0.4123  0.0768  0.3985
10507SOL    HW136651   1.368   3.051   1.361  0.7950 -1.0515  0.6934
10507SOL    HW236652   1.296   2.959   1.264 -0.1341 -0.0224  0.4018
10508SOL     OW36653  11.291   4.911   7.767 -0.6422 -0.5231  0.0971
10508SOL    HW136654  11.281   4.892   7.673  1.4637 -1.9495  0.1226
10508SOL    HW236655  11.342   4.837   7.801 -0.1030  0.7295  2.0714
10509SOL     OW36656  11.171   3.693   1.502  0.3602 -0.5293 -0.4499
10509SOL    HW136657  11.135   3.610   1.533 -0.2922  0.1888  0.7175
10509SOL    HW236658  11.095   3.748   1.484  0.7917 -0.1445 -1.1478
10510SOL     OW36659   7.168   9.500   0.689  0.5502 -0.2362 -0.0243
10510SOL    HW136660   7.095   9.473   0.745 -1.8641  1.7306 -2.1044
10510SOL    HW236661   7.181   9.427   0.629 -2.1027  0.7682 -1.9011
10511SOL     OW36662   7.755   3.706   9.232 -0.0061  0.2018  0.0239
10511SOL    HW136663   7.812   3.752   9.170 -0.2951  2.0392  1.1211
10511SOL    HW236664   7.815   3.674   9.300 -0.0586  0.5780  0.2448
10512SOL     OW36665  10.998   9.605   0.397  0.3179 -0.1066 -0.1111
10512SOL    HW136666  11.035   9.518   0.412 -1.0367 -0.5908  0.5535
10512SOL    HW236667  10.997   9.647   0.483  0.0396  0.1843 -0.2530
10513SOL     OW36668   7.192   8.185   1.605 -0.2077 -0.2862 -0.1097
10513SOL    HW136669   7.176   8.228   1.521  1.1381 -1.3475 -0.9147
10513SOL    HW236670   7.145   8.240   1.669  0.0481  1.3987 -1.3352
10514SOL     OW36671  10.799   4.012   2.411  0.4018  0.6065  0.1659
10514SOL    HW136672  10.860   3.998   2.484  1.8019  2.2574 -0.6649
10514SOL    HW236673  10.753   3.929   2.403  1.4266 -0.1593  1.8347
10515SOL     OW36674   6.575   4.112   9.781 -1.1669  0.2750 -0.1277
10515SOL    HW136675   6.510   4.083   9.717 -0.8923  1.5287 -0.9811
10515SOL    HW236676   6.638   4.040   9.785 -0.8022  0.4706 -1.8062
10516SOL     OW36677   7.667   7.363   1.285  0.4453  0.5196 -0.1165
10516SOL    HW136678   7.619   7.400   1.359  1.5492 -0.5418  1.1398
10516SOL    HW236679   7.675   7.270   1.305  0.7104  0.1999 -1.6067
10517SOL     OW36680   1.841   8.068   2.864  0.1656 -0.3042  0.6066
10517SOL    HW136681   1.922   8.073   2.812  1.0458  0.5419  2.0336
10517SOL    HW236682   1.771   8.077   2.799  1.2059 -1.0215 -0.6411
10518SOL     OW36683   8.893  10.439   4.595 -0.1311 -0.4334  0.4469
10518SOL    HW136684   8.874  10.516   4.648  0.9141 -1.2844  2.0903
10518SOL    HW236685   8.988  10.429   4.602 -0.3313 -2.2218  0.7304
10519SOL     OW36686   3.759   5.483   3.466  0.3892 -0.3596 -0.2297
10519SOL    HW136687   3.740   5.433   3.386  1.1062  0.5884 -1.0060
10519SOL    HW236688   3.685   5.542   3.475 -0.8677 -2.1034  1.1479
10520SOL     OW36689   2.421   5.556  10.719  0.4077  0.5480  0.3856
10520SOL    HW136690   2.425   5.650  10.738  2.6068  0.7095 -0.6839
10520SOL    HW236691   2.496   5.519  10.765  0.0502 -0.5521  0.0944
10521SOL     OW36692   1.086   0.795   3.140 -0.0513 -0.4486  0.3176
10521SOL    HW136693   1.018   0.861   3.126 -0.0835 -0.6229 -0.3591
10521SOL    HW236694   1.158   0.822   3.083  1.6272  1.3609  3.1452
10522SOL     OW36695   5.428  11.187   9.862 -0.1604  0.6499  0.2593
10522SOL    HW136696   5.400  11.129   9.933 -1.6488  1.6515  0.5218
10522SOL    HW236697   5.514  11.218   9.888 -0.8437  1.2835  1.8095
10523SOL     OW36698   0.381   5.460   8.614  0.1270 -0.2559  0.1403
10523SOL    HW136699   0.355   5.530   8.554  0.2401  0.7045  1.1935
10523SOL    HW236700   0.443   5.502   8.674  0.4160 -1.3310  0.6066
10524SOL     OW36701   8.755   3.723   7.911 -0.0772  0.4693 -0.1507
10524SOL    HW136702   8.768   3.782   7.985  0.6898  0.4637 -0.2736
10524SOL    HW236703   8.672   3.679   7.929 -0.0141  0.6482  0.5851
10525SOL     OW36704   7.071   0.609   9.530  0.3329 -0.3328 -0.7594
10525SOL    HW136705   7.015   0.532   9.536  1.4176 -1.0267  0.9251
10525SOL    HW236706   7.160   0.574   9.534  0.8348  1.0258  0.8777
10526SOL     OW36707   5.749   7.272   1.349  0.2279  0.1268 -0.3297
10526SOL    HW136708   5.828   7.323   1.359  0.7942 -0.5259 -1.3545
10526SOL    HW236709   5.759   7.199   1.411 -0.7352  1.4093  1.3809
10527SOL     OW36710   3.933   8.901   8.392  0.1833  0.3257  0.1452
10527SOL    HW136711   3.839   8.916   8.383  0.6001  1.3078 -4.2443
10527SOL    HW236712   3.941   8.810   8.418 -2.0074  1.1274  3.8948
10528SOL     OW36713   5.653  10.099   4.301  0.3736  0.1499 -0.3005
10528SOL    HW136714   5.646  10.187   4.337 -1.8458 -0.1844  0.1745
10528SOL    HW236715   5.617  10.105   4.213 -0.4572 -0.4032 -0.0117
10529SOL     OW36716   8.875   4.036   0.173 -0.4633 -0.2587  0.1860
10529SOL    HW136717   8.854   4.049   0.080 -1.4667 -0.4465  0.3816
10529SOL    HW236718   8.966   4.005   0.173 -0.8210 -1.3491 -0.8115
10530SOL     OW36719   1.626   3.819   1.373  0.3120  0.0709  0.2955
10530SOL    HW136720   1.575   3.863   1.441  1.3024 -1.7013  2.2510
10530SOL    HW236721   1.560   3.782   1.314 -0.6166 -0.0203  1.3628
10531SOL     OW36722   9.134   2.896   6.019  0.7636 -0.5572 -0.1564
10531SOL    HW136723   9.155   2.811   6.057  1.8039  0.0366  0.6113
10531SOL    HW236724   9.038   2.898   6.016  0.6499 -0.6851  2.3321
10532SOL     OW36725   3.990   0.366   4.108 -0.0371  0.3238 -0.5605
10532SOL    HW136726   4.050   0.435   4.082 -0.2028  0.5657 -0.3057
10532SOL    HW236727   4.033   0.285   4.079  0.0350  0.5492 -1.0808
10533SOL     OW36728   2.413   7.831   3.680 -0.1579  0.1172 -0.1909
10533SOL    HW136729   2.399   7.843   3.774 -0.3299  1.0009 -0.3225
10533SOL    HW236730   2.332   7.790   3.649 -0.4346  0.5889 -0.0945
10534SOL     OW36731   1.493   7.945  10.172  0.3784  0.3230  0.4642
10534SOL    HW136732   1.452   7.991  10.099  1.8924  0.4778 -0.3246
10534SOL    HW236733   1.477   7.852  10.156 -1.2585  0.4731  1.1726
10535SOL     OW36734   8.521   2.897  10.407  0.0355  0.0240 -0.3144
10535SOL    HW136735   8.470   2.861  10.479  0.0606 -2.4644 -1.4931
10535SOL    HW236736   8.553   2.981  10.440 -1.3130 -0.3184  1.9551
10536SOL     OW36737  10.561   2.030   9.072  0.0527 -0.6829 -0.3532
10536SOL    HW136738  10.570   1.950   9.019  0.5427 -0.9859  0.1862
10536SOL    HW236739  10.650   2.049   9.102 -0.0677  0.0535 -0.4556
10537SOL     OW36740   0.922   2.616   9.401 -0.6115 -0.3285  0.4711
10537SOL    HW136741   0.975   2.597   9.479  0.7982 -1.2596 -0.6907
10537SOL    HW236742   0.890   2.705   9.415  1.4466  0.3467  1.0958
10538SOL     OW36743   0.260   5.594  11.197 -0.0296 -0.2271  0.3050
10538SOL    HW136744   0.258   5.500  11.179  1.2746 -0.3285  0.6580
10538SOL    HW236745   0.223   5.634  11.118 -0.0223 -1.0081 -0.0948
10539SOL     OW36746   7.541  10.255   6.491 -0.2160  0.5828  0.4711
10539SOL    HW136747   7.551  10.305   6.572 -0.4458  0.9173  0.2955
10539SOL    HW236748   7.460  10.288   6.452 -1.3918 -1.2673  1.2991
10540SOL     OW36749   5.305   4.995   7.757 -0.0031 -0.3323 -0.0124
10540SOL    HW136750   5.351   5.079   7.769 -1.2214  0.3361  0.1259
10540SOL    HW236751   5.291   4.963   7.846 -1.2151  0.2670  0.0269
10541SOL     OW36752   2.713   6.988   4.448 -0.0021 -0.0495 -0.5188
10541SOL    HW136753   2.632   7.014   4.492  0.6380 -0.1709  0.7558
10541SOL    HW236754   2.714   6.893   4.452  2.6819  0.0044  4.1980
10542SOL     OW36755   1.323   8.314   2.404  0.3958  0.0187  0.3805
10542SOL    HW136756   1.386   8.357   2.346 -2.2655 -0.0900 -2.6647
10542SOL    HW236757   1.340   8.220   2.393  0.0187  0.0034 -0.0738
10543SOL     OW36758   8.046   6.706   7.046 -0.7426 -0.1809  0.6380
10543SOL    HW136759   7.969   6.760   7.062  1.7038  3.3898  0.9750
10543SOL    HW236760   8.030   6.625   7.095 -5.0709 -0.3591 -0.9166
10544SOL     OW36761   3.715   2.652   7.826  0.3950  0.0212  0.1039
10544SOL    HW136762   3.770   2.633   7.902 -0.8617  1.0882  1.3179
10544SOL    HW236763   3.668   2.570   7.809  1.5626 -0.5777 -0.2937
10545SOL     OW36764  10.161   0.293   7.989  0.0220 -0.0481 -0.0677
10545SOL    HW136765  10.143   0.384   7.966 -0.1810  0.3296  1.5226
10545SOL    HW236766  10.075   0.251   7.992  0.1478 -0.3897 -1.1824
10546SOL     OW36767   7.927   2.137   8.727 -0.0654 -0.5367 -0.2186
10546SOL    HW136768   7.925   2.083   8.649 -1.1407  1.2408 -1.4516
10546SOL    HW236769   7.881   2.217   8.703  1.6099  1.0129  1.5018
10547SOL     OW36770   2.429   4.499  11.243 -1.0631 -0.4217  0.3054
10547SOL    HW136771   2.446   4.589  11.271 -0.7665  0.0299 -1.2377
10547SOL    HW236772   2.486   4.445  11.298  0.0588  0.4865  0.0631
10548SOL     OW36773   5.969   3.023   2.222 -0.2164  0.5210 -0.2537
10548SOL    HW136774   5.924   2.939   2.208  0.6167  0.4485 -2.6845
10548SOL    HW236775   5.963   3.038   2.316  0.0738 -2.5275  0.2947
10549SOL     OW36776   2.049   4.321  11.093 -0.2890  0.0711  0.5814
10549SOL    HW136777   2.126   4.265  11.087  1.3951  2.4161 -0.7500
10549SOL    HW236778   1.975   4.261  11.097  1.5188 -2.2249  0.3128
10550SOL     OW36779   3.820   8.005   5.447  0.0693 -0.3042 -1.0594
10550SOL    HW136780   3.854   7.918   5.468  1.2223  0.0627 -1.3899
10550SOL    HW236781   3.852   8.023   5.358  0.8933  0.9856 -0.5168
10551SOL     OW36782   5.806   9.409   3.623  0.7181  0.3426  0.9239
10551SOL    HW136783   5.722   9.404   3.670 -0.1406 -1.3437 -0.7084
10551SOL    HW236784   5.781   9.422   3.531  2.2748  0.3722  0.4934
10552SOL     OW36785   8.164   8.074   1.405  0.6740  0.4063  0.3688
10552SOL    HW136786   8.218   8.085   1.327  0.0043 -0.9552 -0.2969
10552SOL    HW236787   8.092   8.137   1.394  1.0768  0.8592  0.3311
10553SOL     OW36788   7.846  10.837   5.637 -0.3723  0.4433 -0.2019
10553SOL    HW136789   7.850  10.845   5.732 -2.9800  0.5766 -0.0556
10553SOL    HW236790   7.752  10.838   5.617  0.0457 -2.0555 -2.5594
10554SOL     OW36791   9.043   7.586  10.668  0.0833  0.1406 -0.2959
10554SOL    HW136792   9.008   7.531  10.738  0.3405  1.7833  1.1442
10554SOL    HW236793   8.983   7.571  10.594  0.3834 -2.3507 -0.0826
10555SOL     OW36794   5.571   5.367   0.923 -0.1280  0.1406 -0.0150
10555SOL    HW136795   5.491   5.398   0.881 -0.6173 -0.5934  0.3604
10555SOL    HW236796   5.559   5.272   0.931  1.2267 -0.1219 -0.8925
10556SOL     OW36797   6.002   0.763   9.770  0.4912 -0.0523 -0.0840
10556SOL    HW136798   6.006   0.749   9.865  0.3218 -0.2510 -0.1055
10556SOL    HW236799   6.088   0.799   9.748  0.3405  0.5041  0.2268
10557SOL     OW36800   7.668   7.243   6.005 -0.2761 -0.2537 -0.1317
10557SOL    HW136801   7.762   7.233   6.019 -0.7568 -0.8357  3.0910
10557SOL    HW236802   7.642   7.163   5.959  0.6008 -0.6320  0.0278
10558SOL     OW36803   7.551  10.075   4.090  0.2712  0.4757 -0.3498
10558SOL    HW136804   7.464  10.083   4.129  1.1394  1.8445  1.3273
10558SOL    HW236805   7.551   9.987   4.052 -1.5512  0.1351  0.3614
10559SOL     OW36806   0.654   0.117   1.035  0.5336 -0.2462  0.4416
10559SOL    HW136807   0.672   0.156   0.950 -2.0173 -0.4365 -0.2300
10559SOL    HW236808   0.699   0.033   1.034  1.8876  0.4771 -0.0524
10560SOL     OW36809   9.082   4.819   7.614 -0.0360 -0.1626  0.0636
10560SOL    HW136810   9.037   4.870   7.546  0.6180 -0.0488 -0.2901
10560SOL    HW236811   9.024   4.825   7.690 -0.1315  0.8450 -0.0732
10561SOL     OW36812   9.014   0.722   6.877  0.1880 -0.1277  0.2550
10561SOL    HW136813   9.050   0.763   6.956 -0.3771  1.1391 -0.1208
10561SOL    HW236814   9.031   0.629   6.888  1.3416  0.1808  1.2375
10562SOL     OW36815   7.069   1.690   0.269 -0.9086 -0.1434  0.0258
10562SOL    HW136816   7.115   1.637   0.334  1.9299 -0.0737 -1.8352
10562SOL    HW236817   7.101   1.779   0.284 -0.5300 -0.0688 -1.1986
10563SOL     OW36818  10.130   5.860   4.484 -0.1277  0.0296  0.3408
10563SOL    HW136819  10.102   5.951   4.487 -2.2260 -0.4939 -1.7302
10563SOL    HW236820  10.130   5.832   4.575 -1.6598  1.4835  0.8126
10564SOL     OW36821   3.192   2.247   9.597 -0.0651  0.4590 -0.4451
10564SOL    HW136822   3.203   2.336   9.563  2.0955 -0.3356 -1.9038
10564SOL    HW236823   3.213   2.255   9.690 -3.1672  2.0776  0.1949
10565SOL     OW36824   2.204   5.920   2.665  0.3377 -0.0145 -0.4499
10565SOL    HW136825   2.262   5.883   2.598  0.0388  0.8079 -1.1682
10565SOL    HW236826   2.118   5.923   2.623  0.1282  0.4197  0.0105
10566SOL     OW36827   3.227   3.775   8.079 -0.3064  0.4026  0.1308
10566SOL    HW136828   3.233   3.821   7.996 -0.4337 -1.1318 -0.7461
10566SOL    HW236829   3.148   3.721   8.071  0.0852 -0.3054  0.9698
10567SOL     OW36830   3.452  10.482   2.351  0.5432 -0.5413 -0.4829
10567SOL    HW136831   3.422  10.507   2.264  1.4733  0.4446 -0.5228
10567SOL    HW236832   3.419  10.393   2.362  0.1912 -0.5800 -1.7314
10568SOL     OW36833   4.322   4.045   2.766 -0.1740 -0.1993  0.3648
10568SOL    HW136834   4.264   4.120   2.757 -0.4938 -0.3968  0.7789
10568SOL    HW236835   4.395   4.077   2.818  0.7163  0.4016 -1.2156
10569SOL     OW36836   3.883   7.734   5.471 -0.4812  0.3535  0.2147
10569SOL    HW136837   3.918   7.719   5.559 -0.9537 -0.4478  0.2686
10569SOL    HW236838   3.876   7.646   5.433  0.5101  0.7510 -0.9259
10570SOL     OW36839   0.985   3.614   9.586 -0.0058 -0.1495 -0.7184
10570SOL    HW136840   0.925   3.686   9.605 -0.1957 -0.4887  0.0167
10570SOL    HW236841   1.068   3.657   9.567  0.5402  0.2014  2.2284
10571SOL     OW36842   1.880  10.331  10.087  0.4836  0.6685  0.0818
10571SOL    HW136843   1.891  10.306   9.995  0.5553  0.5832  0.1134
10571SOL    HW236844   1.866  10.426  10.084  0.5245  0.6716 -0.0144
10572SOL     OW36845   7.689   1.218   5.636 -0.2859  0.2264 -0.1627
10572SOL    HW136846   7.658   1.269   5.561 -1.3594 -1.4640 -0.9013
10572SOL    HW236847   7.764   1.168   5.603 -1.3571 -1.2571 -0.4109
10573SOL     OW36848  10.616   2.500   1.952  0.0249  0.1573 -0.4033
10573SOL    HW136849  10.576   2.585   1.971  1.2178  0.6339 -0.0244
10573SOL    HW236850  10.561   2.438   2.000 -0.2914  0.8001  0.0879
10574SOL     OW36851   9.629   0.794   5.639  0.5117  0.0860 -0.1994
10574SOL    HW136852   9.575   0.740   5.695  0.8000 -0.3352 -0.3224
10574SOL    HW236853   9.593   0.782   5.551  1.0776 -0.5425 -0.3469
10575SOL     OW36854   3.693   2.658   2.501 -0.7055 -0.0542  0.3204
10575SOL    HW136855   3.783   2.682   2.479 -1.4421  1.5687 -0.9361
10575SOL    HW236856   3.662   2.607   2.426 -1.5182  1.1690 -0.1955
10576SOL     OW36857  10.032   1.961   2.820  0.4133 -0.3862 -0.0797
10576SOL    HW136858  10.033   2.013   2.739  1.2952  1.0865  0.8458
10576SOL    HW236859  10.099   2.002   2.875  0.0914 -1.6145  1.2494
10577SOL     OW36860   3.284   6.149   2.434 -0.4434 -0.0367  0.5869
10577SOL    HW136861   3.278   6.061   2.472  0.6974  0.1425  1.1996
10577SOL    HW236862   3.370   6.181   2.461  1.1440 -0.5449 -3.5005
10578SOL     OW36863   5.850   8.929   2.794 -0.4392 -0.6064  0.1084
10578SOL    HW136864   5.843   8.928   2.890  0.9092  2.3802  0.3064
10578SOL    HW236865   5.936   8.892   2.777  0.9664  2.4126  0.3433
10579SOL     OW36866   1.392   7.828   4.258 -0.5950  0.1617  0.4561
10579SOL    HW136867   1.438   7.885   4.321  0.3591 -1.3693  1.1784
10579SOL    HW236868   1.417   7.862   4.172  0.5791  0.3904  0.8705
10580SOL     OW36869  10.648   5.598   3.296 -0.4911  0.1633  0.3068
10580SOL    HW136870  10.681   5.661   3.232 -0.9398  0.1672  0.0708
10580SOL    HW236871  10.568   5.563   3.255 -1.5796  1.2199  1.4655
10581SOL     OW36872  10.329   2.670   3.566  0.3969 -0.5623  0.0194
10581SOL    HW136873  10.246   2.680   3.519 -0.1459 -1.6839  0.7207
10581SOL    HW236874  10.373   2.754   3.555 -1.4011  0.4981  0.7239
10582SOL     OW36875   2.773   0.100  10.131  0.1877  0.1215  0.0661
10582SOL    HW136876   2.684   0.103  10.095  0.0887 -2.1190  0.0946
10582SOL    HW236877   2.830   0.107  10.054 -0.0273 -3.4551 -0.5109
10583SOL     OW36878   8.134   1.935   8.048 -0.3285  0.1370 -0.3743
10583SOL    HW136879   8.056   1.910   8.098  0.8879  0.8490  1.9208
10583SOL    HW236880   8.185   1.854   8.041 -1.0923 -0.2536 -1.5946
10584SOL     OW36881   8.056   0.995   7.996 -0.3137 -0.0707 -0.0340
10584SOL    HW136882   8.114   0.964   7.926 -1.2092 -0.2772 -0.6817
10584SOL    HW236883   8.083   1.085   8.011  0.9462 -0.5135  0.4541
10585SOL     OW36884   8.286   5.124  10.884  0.5149 -0.3222 -0.6831
10585SOL    HW136885   8.256   5.093  10.969 -2.0101  1.1365 -1.0044
10585SOL    HW236886   8.262   5.216  10.882  1.5117 -0.0745 -2.5635
10586SOL     OW36887   7.594  10.728   5.961 -0.1192  0.1779 -0.8230
10586SOL    HW136888   7.590  10.635   5.939  1.3834 -0.1225  0.0857
10586SOL    HW236889   7.593  10.731   6.057  0.3447  1.0477 -0.8326
10587SOL     OW36890   2.958  10.296   3.645  0.1500 -0.0004  0.1600
10587SOL    HW136891   2.866  10.308   3.621 -0.5373 -1.4095  1.9851
10587SOL    HW236892   2.979  10.371   3.700 -0.0572  0.0150  0.2152
10588SOL     OW36893   5.324   5.057   0.742  0.1255  0.1398  0.1413
10588SOL    HW136894   5.415   5.059   0.770  0.3685 -1.0585 -0.5232
10588SOL    HW236895   5.282   4.997   0.803  0.4044 -1.5481 -1.2954
10589SOL     OW36896   3.514  10.806  11.010 -0.6178  0.5158  0.2996
10589SOL    HW136897   3.570  10.740  11.052 -0.1367 -0.1820 -1.3813
10589SOL    HW236898   3.482  10.860  11.082  0.7315 -0.2310  1.4846
10590SOL     OW36899   6.078   2.961   7.620 -0.3886 -0.0997  0.3854
10590SOL    HW136900   6.042   2.999   7.540  0.9634  0.8184  0.1860
10590SOL    HW236901   6.041   3.014   7.690  0.8192  1.1007  0.1568
10591SOL     OW36902   6.491   7.681   5.127  0.1009  0.0935  0.1538
10591SOL    HW136903   6.469   7.771   5.150 -1.3526 -0.9438  2.9803
10591SOL    HW236904   6.427   7.658   5.059  0.7307  1.2844 -0.8701
10592SOL     OW36905   1.422   6.215   1.845 -0.0823 -0.1095  0.3193
10592SOL    HW136906   1.371   6.168   1.911 -3.4516  1.2838 -1.1944
10592SOL    HW236907   1.433   6.152   1.774 -0.4012 -0.1415  0.2992
10593SOL     OW36908   5.021   4.973   6.219 -0.5861 -0.1338 -0.3263
10593SOL    HW136909   5.056   4.993   6.132 -1.0075 -0.0244 -0.4698
10593SOL    HW236910   5.014   4.877   6.220  0.4353 -0.2142 -0.0176
10594SOL     OW36911   4.472   3.044   0.107  0.2906  0.3630  0.4049
10594SOL    HW136912   4.423   2.965   0.131 -0.7906  1.2311  1.0690
10594SOL    HW236913   4.508   3.077   0.189  1.1542  0.3036  0.0614
10595SOL     OW36914   2.491   6.483   4.385 -0.0291  0.0922  0.2046
10595SOL    HW136915   2.484   6.575   4.410  0.6708 -0.0679  0.9989
10595SOL    HW236916   2.545   6.443   4.453  2.1379 -0.2982 -1.6646
10596SOL     OW36917  10.108   3.072   0.907  0.0859  0.1681 -0.2160
10596SOL    HW136918  10.048   3.032   0.970 -0.4297  0.3888 -0.5690
10596SOL    HW236919  10.191   3.077   0.954 -0.0021 -0.7420  0.0434
10597SOL     OW36920   5.271   6.228   1.084  0.6958  0.2556 -0.1501
10597SOL    HW136921   5.182   6.245   1.053  0.9076  2.4366  0.2953
10597SOL    HW236922   5.319   6.196   1.007 -0.3909 -0.6197 -0.4646
10598SOL     OW36923  10.798   6.892   8.593 -0.4431 -0.7432 -0.1260
10598SOL    HW136924  10.815   6.805   8.630  0.7025  0.4711  2.3301
10598SOL    HW236925  10.874   6.911   8.538 -0.0841 -0.7975  0.3425
10599SOL     OW36926   9.739   7.529   6.300  0.1292 -0.2988  0.0746
10599SOL    HW136927   9.691   7.454   6.265  0.2485 -0.2038 -0.2930
10599SOL    HW236928   9.820   7.532   6.248  0.5350 -0.4611  0.6940
10600SOL     OW36929   4.417   1.094   4.409 -0.0272  0.0592 -0.8383
10600SOL    HW136930   4.326   1.064   4.404 -0.5817  1.4929  0.1978
10600SOL    HW236931   4.434   1.100   4.503 -0.1823  3.6449 -0.9975
10601SOL     OW36932   4.795   6.694  10.476  0.3935  0.3876  0.2366
10601SOL    HW136933   4.779   6.740  10.559  1.8661 -0.2573  0.9120
10601SOL    HW236934   4.770   6.603  10.494  2.9699 -0.2561  0.7563
10602SOL     OW36935   0.633  10.424   4.152  0.1819 -0.4528 -0.1335
10602SOL    HW136936   0.602  10.392   4.067  0.8813 -0.6292 -0.3263
10602SOL    HW236937   0.565  10.397   4.213 -0.2411 -0.4865 -0.6091
10603SOL     OW36938   3.561   1.875   1.095  0.4148  0.2692 -0.2794
10603SOL    HW136939   3.564   1.828   1.012 -1.0646  3.0147 -1.9241
10603SOL    HW236940   3.468   1.882   1.116  0.6284  2.2401  0.0601
10604SOL     OW36941   2.763  10.673   1.468 -0.7574  0.1632 -0.3450
10604SOL    HW136942   2.844  10.647   1.425 -0.3751  1.9231 -0.7186
10604SOL    HW236943   2.697  10.613   1.432  0.5251 -1.9976  0.7828
10605SOL     OW36944   4.924   2.041   9.359  0.0236 -0.8447  0.0426
10605SOL    HW136945   4.997   1.988   9.391  0.5876 -0.4756 -0.6110
10605SOL    HW236946   4.877   1.985   9.298  1.9338  0.1059 -2.3914
10606SOL     OW36947   8.988   0.819   7.697 -0.5825  0.1485  0.2893
10606SOL    HW136948   8.965   0.726   7.693 -1.7012  0.2081  3.7959
10606SOL    HW236949   8.904   0.864   7.683 -0.4158  0.5862  0.7094
10607SOL     OW36950   7.227  10.419   1.258  0.4988  0.4306  0.4529
10607SOL    HW136951   7.150  10.465   1.292  1.0297  1.3126  0.4966
10607SOL    HW236952   7.192  10.356   1.196 -0.3888 -0.3638  1.7378
10608SOL     OW36953   6.187   6.335   1.655 -0.7170  0.0697  0.0885
10608SOL    HW136954   6.221   6.423   1.667 -0.9053  0.2620 -0.7548
10608SOL    HW236955   6.196   6.318   1.561 -0.1242 -1.0389  0.3297
10609SOL     OW36956   6.438  10.532   2.288  0.5531 -0.3441  0.3567
10609SOL    HW136957   6.347  10.505   2.275  0.1987  0.8279  0.3482
10609SOL    HW236958   6.487  10.450   2.286 -0.4688 -0.9699  0.0901
10610SOL     OW36959  11.198   5.680   0.708  0.4388 -0.2680 -0.1646
10610SOL    HW136960  11.117   5.730   0.697 -0.2095 -0.8019  2.0313
10610SOL    HW236961  11.237   5.715   0.788  1.1841 -1.6408  0.0831
10611SOL     OW36962   2.348   8.693   8.121  0.2933 -0.8509 -0.1371
10611SOL    HW136963   2.319   8.744   8.197  1.5672  0.3160 -0.4192
10611SOL    HW236964   2.360   8.758   8.051 -0.9738 -1.9223 -1.3879
10612SOL     OW36965   9.370   6.327   0.098 -0.9703  0.1299  0.1952
10612SOL    HW136966   9.359   6.258   0.163 -1.4108 -1.4639 -1.5433
10612SOL    HW236967   9.464   6.344   0.097 -0.7708 -0.9211  0.1893
10613SOL     OW36968   7.303   4.886  10.722 -0.0225 -0.4424 -0.1028
10613SOL    HW136969   7.378   4.909  10.667  1.2554 -0.7067  1.4827
10613SOL    HW236970   7.232   4.869  10.660  1.4007 -0.8204 -1.6671
10614SOL     OW36971   5.671   0.637   8.294 -0.0669 -1.0618  0.2011
10614SOL    HW136972   5.651   0.585   8.216  0.5003 -2.2367  0.8414
10614SOL    HW236973   5.730   0.706   8.262 -1.5877 -0.1949 -0.8290
10615SOL     OW36974   8.946   7.436  10.953 -0.0243 -1.0297  0.1457
10615SOL    HW136975   8.904   7.423  11.038  0.9898 -1.2279  0.6265
10615SOL    HW236976   9.014   7.368  10.948  1.4176  0.3784  0.1532
10616SOL     OW36977   5.563   6.815  11.271 -0.0572 -0.1651  0.2488
10616SOL    HW136978   5.481   6.765  11.263  0.6602 -1.2473 -0.4901
10616SOL    HW236979   5.588   6.836  11.181 -0.2922  1.4637  0.5487
10617SOL     OW36980  10.500   7.946   0.117  0.8108 -0.4387 -0.2376
10617SOL    HW136981  10.552   7.996   0.180  1.0477 -0.6601 -0.2501
10617SOL    HW236982  10.565   7.911   0.055  0.3793  1.3554 -1.7266
10618SOL     OW36983   8.997  10.377   2.451  0.2464 -0.2665  0.2418
10618SOL    HW136984   8.999  10.458   2.503 -0.0531  0.3144 -0.6488
10618SOL    HW236985   9.081  10.377   2.405  0.0244 -0.1868 -0.1682
10619SOL     OW36986   5.970   7.836   8.856  0.4775  0.2596 -0.2537
10619SOL    HW136987   5.901   7.897   8.830  1.8940  1.5456 -1.1028
10619SOL    HW236988   5.932   7.749   8.843 -1.3635  0.9424  0.4086
10620SOL     OW36989   9.831  10.217   1.014 -0.0276  0.3405  0.3478
10620SOL    HW136990   9.822  10.200   1.108 -0.8901 -0.2500  0.1649
10620SOL    HW236991   9.741  10.215   0.980  0.2866  0.4263 -0.5096
10621SOL     OW36992   2.705   0.454   7.133 -0.1571 -0.3751  0.5193
10621SOL    HW136993   2.739   0.365   7.142  0.6043 -0.0579  0.8027
10621SOL    HW236994   2.777   0.504   7.094 -1.0042 -0.1535 -0.7881
10622SOL     OW36995   2.621   7.162   1.345  0.0467 -0.3682 -0.0618
10622SOL    HW136996   2.642   7.214   1.267  1.8762 -1.1689 -0.1091
10622SOL    HW236997   2.649   7.073   1.323  0.8623 -0.5433  1.6281
10623SOL     OW36998   2.853   2.942   0.581  0.4568 -0.1730  0.6526
10623SOL    HW136999   2.868   2.933   0.675  0.6066 -2.2670  0.4325
10623SOL    HW237000   2.795   2.870   0.558  0.0611  0.5856 -0.7913
10624SOL     OW37001   5.101   1.073   7.273 -0.1161 -0.2720  0.3600
10624SOL    HW137002   5.013   1.045   7.251 -0.0244  0.5008 -1.0398
10624SOL    HW237003   5.098   1.168   7.270  0.0468 -0.1153  3.2489
10625SOL     OW37004   2.061   7.816   3.268  0.0977 -0.0013  0.3527
10625SOL    HW137005   2.102   7.818   3.355 -1.1522  1.4487  0.9314
10625SOL    HW237006   2.004   7.739   3.271  0.5142 -0.3027  0.6024
10626SOL     OW37007   7.453   5.941   7.480 -0.0516  0.0605  0.4624
10626SOL    HW137008   7.427   5.864   7.430  0.3160  0.7436 -0.7931
10626SOL    HW237009   7.426   6.016   7.427  3.0642  0.7934 -0.1773
10627SOL     OW37010   3.418   0.391   9.114  0.2220 -0.4960  0.0448
10627SOL    HW137011   3.506   0.383   9.078  0.8839  0.3539  1.4134
10627SOL    HW237012   3.403   0.309   9.161  0.4423 -0.4894  0.1264
10628SOL     OW37013   5.442   5.003   1.064 -0.3438 -0.0131 -0.0653
10628SOL    HW137014   5.409   4.919   1.032  0.4187 -0.3697  0.0770
10628SOL    HW237015   5.491   4.981   1.144  1.2252  0.3423 -0.9015
10629SOL     OW37016   1.323   2.158   0.222 -0.0671  0.0220  0.8736
10629SOL    HW137017   1.335   2.095   0.151  0.7697  1.1797 -0.0415
10629SOL    HW237018   1.286   2.107   0.294  1.4594 -1.7081  0.4762
10630SOL     OW37019   5.912   1.677   8.436  0.4457  0.3112 -0.2438
10630SOL    HW137020   5.839   1.629   8.396 -0.3555  1.0876  0.2618
10630SOL    HW237021   5.960   1.714   8.363 -0.5575  1.0660 -0.5348
10631SOL     OW37022   7.774   6.732   3.457  0.1793  0.0590 -0.7025
10631SOL    HW137023   7.710   6.784   3.408 -2.0201 -0.3818  1.6106
10631SOL    HW237024   7.743   6.642   3.450  0.8618 -0.2395 -0.0043
10632SOL     OW37025   4.127   2.461   6.136  0.1091  0.0206  0.2169
10632SOL    HW137026   4.139   2.420   6.221 -1.6675  0.3665  0.6468
10632SOL    HW237027   4.132   2.555   6.153 -0.6342  0.1002  0.0036
10633SOL     OW37028   5.286   5.237   8.164 -0.3416  0.0362 -0.7009
10633SOL    HW137029   5.194   5.228   8.188 -0.1091 -1.3443 -0.2346
10633SOL    HW237030   5.331   5.172   8.219  1.1189  1.8428  0.2789
10634SOL     OW37031   9.990   4.685   8.736  0.7339  0.0040 -0.0581
10634SOL    HW137032  10.016   4.607   8.687 -1.0742 -0.2454 -0.6408
10634SOL    HW237033  10.013   4.665   8.827  0.3882 -1.1656 -0.2214
10635SOL     OW37034  10.487   6.717   8.211 -0.3656 -0.1525 -0.6376
10635SOL    HW137035  10.424   6.718   8.283  1.2880 -1.2017  0.8809
10635SOL    HW237036  10.563   6.763   8.245  0.5627 -0.9556 -1.5867
10636SOL     OW37037  10.796  10.215   2.844  0.1316 -0.2537  0.4057
10636SOL    HW137038  10.864  10.148   2.853  0.5168 -0.0988 -1.2042
10636SOL    HW237039  10.827  10.272   2.773 -1.5288  0.0026 -0.1420
10637SOL     OW37040   2.178   0.640   5.266 -0.6833 -0.1785 -0.4721
10637SOL    HW137041   2.097   0.636   5.215 -0.4420 -0.0746 -0.8665
10637SOL    HW237042   2.178   0.558   5.316 -2.0773  0.7847  1.1556
10638SOL     OW37043   3.499   5.275   9.797  0.5010 -0.4808 -0.2614
10638SOL    HW137044   3.445   5.200   9.821 -1.3779  0.2937 -1.9571
10638SOL    HW237045   3.581   5.237   9.767 -0.2459 -1.8224 -0.6223
10639SOL     OW37046   5.973   7.216   3.072 -0.0468 -0.1161  0.4402
10639SOL    HW137047   5.920   7.260   3.006 -0.4735 -0.1984  0.7187
10639SOL    HW237048   5.909   7.174   3.130  0.3254 -0.2448  0.7663
10640SOL     OW37049   1.805   9.025   0.770  0.0967 -0.0543  0.3923
10640SOL    HW137050   1.818   9.072   0.688 -0.3483 -0.0528  0.3160
10640SOL    HW237051   1.847   8.940   0.757 -2.7898 -1.3571 -1.0756
10641SOL     OW37052   7.776   7.508   2.969 -0.1888  0.1168  0.0826
10641SOL    HW137053   7.778   7.573   3.039 -1.0031  0.7713 -0.4968
10641SOL    HW237054   7.781   7.424   3.014 -0.9533  0.5313  0.9428
10642SOL     OW37055   9.393   5.796   8.954 -0.9382  0.3461 -0.1542
10642SOL    HW137056   9.438   5.880   8.946 -0.2531 -0.0572 -0.6288
10642SOL    HW237057   9.312   5.808   8.904 -0.0015  0.1563 -1.7504
10643SOL     OW37058   7.509   0.694  10.793  0.0152 -0.5105 -0.0389
10643SOL    HW137059   7.502   0.633  10.719 -1.7211  1.1615 -1.3103
10643SOL    HW237060   7.443   0.664  10.855 -1.5816  0.6678 -1.1356
10644SOL     OW37061  10.936  10.529   1.996 -0.2527  0.2946  0.3923
10644SOL    HW137062  10.915  10.592   1.926  0.0566 -1.5016 -1.3584
10644SOL    HW237063  11.016  10.564   2.035 -0.4685  1.3669 -0.0918
10645SOL     OW37064   9.361   7.718   7.535  0.3411  0.2919  0.3769
10645SOL    HW137065   9.277   7.759   7.558  1.6545  2.4440  1.4510
10645SOL    HW237066   9.414   7.789   7.499  2.0598 -0.8308  0.6331
10646SOL     OW37067   1.954   4.654   5.625  0.2118  0.0853 -0.2264
10646SOL    HW137068   2.018   4.615   5.565  0.1474  0.4504 -0.5394
10646SOL    HW237069   1.888   4.692   5.567  1.4830  2.7231 -0.0442
10647SOL     OW37070   6.724  11.055   3.770 -0.1936  0.7693  0.2349
10647SOL    HW137071   6.656  11.091   3.713  0.6106  3.3599  0.8468
10647SOL    HW237072   6.805  11.095   3.739  0.6928 -0.2354  1.2054
10648SOL     OW37073   3.694   6.031   2.218  0.0715  0.0975 -0.1914
10648SOL    HW137074   3.676   5.954   2.163  0.3555  0.0042 -0.1515
10648SOL    HW237075   3.721   5.995   2.302  0.8186  0.2453 -0.3713
10649SOL     OW37076   6.975   5.763   0.334 -0.0192 -0.1101 -0.9026
10649SOL    HW137077   6.982   5.833   0.270  0.3502 -0.7140 -1.5375
10649SOL    HW237078   7.017   5.688   0.292 -0.9887 -0.8915 -0.5041
10650SOL     OW37079  10.651   5.274  11.110 -0.5294 -0.0995  0.7130
10650SOL    HW137080  10.657   5.262  11.204  0.4381  0.5680  0.7431
10650SOL    HW237081  10.677   5.189  11.073 -2.8839 -1.0172  1.0536
10651SOL     OW37082  10.266   0.859   0.325  0.1654  0.2075  0.6866
10651SOL    HW137083  10.242   0.951   0.340  0.5371  0.1430  1.7018
10651SOL    HW237084  10.346   0.847   0.376 -0.1744 -0.8329  0.9731
10652SOL     OW37085   6.055   9.019   4.464 -0.0876  0.1943 -0.0344
10652SOL    HW137086   5.987   9.060   4.517  0.2451  1.9279 -0.9052
10652SOL    HW237087   6.087   8.946   4.518 -0.6189  1.1376  1.5950
10653SOL     OW37088   7.663   6.111   8.873  0.0403  0.0983  0.5576
10653SOL    HW137089   7.728   6.131   8.940 -1.0278 -0.3358  1.7545
10653SOL    HW237090   7.595   6.177   8.885 -1.0362 -1.0972  1.1277
10654SOL     OW37091   5.917  11.020   5.001 -0.4743 -0.0636 -0.2799
10654SOL    HW137092   5.855  11.090   5.024 -1.8484 -1.1262 -0.6625
10654SOL    HW237093   5.867  10.962   4.944  0.3857 -1.8233  0.7280
10655SOL     OW37094   8.596   9.559   0.787  0.3752  0.0491 -0.0631
10655SOL    HW137095   8.635   9.638   0.824  0.0229  0.1155  0.1701
10655SOL    HW237096   8.600   9.495   0.859  0.1469  0.0271 -0.0693
10656SOL     OW37097   9.278   7.949   4.428  0.5823 -0.0425 -0.5268
10656SOL    HW137098   9.320   7.867   4.405 -0.3830 -0.1298 -2.0040
10656SOL    HW237099   9.281   8.001   4.348 -0.0783  0.8208 -0.0019
10657SOL     OW37100   0.733   7.944  10.578  0.1154 -0.5637 -0.0176
10657SOL    HW137101   0.827   7.955  10.586  0.0748  0.2347 -0.5379
10657SOL    HW237102   0.721   7.857  10.540  0.5824 -1.2503  1.3590
10658SOL     OW37103   9.610   0.351   5.224  0.2639  0.1138 -0.3674
10658SOL    HW137104   9.558   0.408   5.282 -1.3190 -0.1023 -1.5351
10658SOL    HW237105   9.640   0.408   5.154  0.8623  0.0558 -0.1557
10659SOL     OW37106   1.395   2.756   7.290 -0.6668 -0.0333 -0.4528
10659SOL    HW137107   1.313   2.734   7.245  0.1232 -0.7331 -1.5993
10659SOL    HW237108   1.390   2.711   7.374 -0.4617 -2.0239 -1.4754
10660SOL     OW37109   7.621   0.008   4.445 -0.1772  0.1974 -0.0800
10660SOL    HW137110   7.563  -0.064   4.420  0.1615 -0.4153  0.8409
10660SOL    HW237111   7.691   0.007   4.379  0.4642 -1.1026  0.5881
10661SOL     OW37112   1.385   2.794   0.858  0.0397 -0.3352  0.6014
10661SOL    HW137113   1.458   2.753   0.906  1.2902  0.7468 -0.3411
10661SOL    HW237114   1.428   2.848   0.792 -1.6328  0.6117  0.2779
10662SOL     OW37115   6.322   3.007  10.901  0.0850  0.2359 -0.1813
10662SOL    HW137116   6.263   2.943  10.862  0.7249  0.1775 -1.0716
10662SOL    HW237117   6.316   2.991  10.995 -0.1434 -0.7993 -0.3617
10663SOL     OW37118  11.140   9.275   9.416  0.0161 -0.1750  0.0194
10663SOL    HW137119  11.123   9.259   9.508 -1.4716  1.3755  0.0250
10663SOL    HW237120  11.055   9.267   9.374  0.3445  1.1031 -0.9288
10664SOL     OW37121   8.410   6.069   8.709 -0.0168 -0.6926 -0.3148
10664SOL    HW137122   8.418   6.117   8.627 -2.0934 -1.4935 -1.0385
10664SOL    HW237123   8.358   5.992   8.687 -0.5242 -0.9778  1.7243
10665SOL     OW37124  10.618   0.805   0.738 -0.0087  0.2069 -0.0983
10665SOL    HW137125  10.553   0.769   0.799 -2.9776  0.7989 -2.7637
10665SOL    HW237126  10.680   0.852   0.793 -1.5923 -0.7945  2.6020
10666SOL     OW37127   5.937  11.268   1.100 -0.3931  0.2674 -0.5167
10666SOL    HW137128   5.868  11.205   1.081 -0.3479  0.5520 -1.6682
10666SOL    HW237129   5.953  11.259   1.194  0.5872 -2.4217 -0.9182
10667SOL     OW37130   6.607   4.625   9.419  0.0330  0.1569  0.1028
10667SOL    HW137131   6.621   4.660   9.331  0.1456  2.2122  0.9138
10667SOL    HW237132   6.585   4.533   9.405 -0.1012  0.4974 -2.0781
10668SOL     OW37133   7.703   9.957   8.427  0.4014  0.3235 -0.4920
10668SOL    HW137134   7.691   9.919   8.340 -0.1044  0.7536 -0.6119
10668SOL    HW237135   7.644  10.032   8.429  0.0127 -0.0010  0.4199
10669SOL     OW37136   6.346   6.291   7.116  0.0062  0.3476  0.0705
10669SOL    HW137137   6.404   6.234   7.065  0.6478 -0.0224  1.1956
10669SOL    HW237138   6.263   6.290   7.068  1.6078  2.8949 -2.9749
10670SOL     OW37139   8.759   8.331   0.264  0.4641 -0.5956 -0.2062
10670SOL    HW137140   8.771   8.426   0.270 -0.3305 -0.5876  1.2955
10670SOL    HW237141   8.820   8.304   0.195  0.7593  0.9875 -0.5837
10671SOL     OW37142   1.195   6.678   8.225  0.2256  0.5017  0.6360
10671SOL    HW137143   1.265   6.737   8.198 -0.9525  1.3148 -0.7479
10671SOL    HW237144   1.120   6.735   8.240 -0.1341 -0.3526  2.1412
10672SOL     OW37145   1.947   4.663   3.067 -0.0745  0.9772  0.3342
10672SOL    HW137146   2.004   4.586   3.079  1.0725  1.7614  0.0077
10672SOL    HW237147   1.881   4.634   3.005  2.1543  1.1781 -2.2109
10673SOL     OW37148   8.919   7.709   2.672  0.4613 -0.1788  0.4320
10673SOL    HW137149   8.928   7.763   2.750 -1.2747 -0.3528  0.7602
10673SOL    HW237150   8.865   7.762   2.613  1.3590 -0.2521 -0.4689
10674SOL     OW37151   5.875   6.024   7.966  0.0625  0.3652  0.3010
10674SOL    HW137152   5.946   6.050   8.025 -1.0282 -0.0135  1.8331
10674SOL    HW237153   5.801   6.006   8.025 -0.8455 -0.7294 -1.1473
10675SOL     OW37154   2.663   4.301  10.118  0.5737  0.2114 -0.4290
10675SOL    HW137155   2.615   4.250  10.184  2.8868 -0.9784  0.3984
10675SOL    HW237156   2.598   4.360  10.081 -0.8354  0.8151  2.8311
10676SOL     OW37157   2.370   6.175   0.570  0.2730 -0.2383  0.2819
10676SOL    HW137158   2.415   6.139   0.646  1.8452 -0.0093 -0.5314
10676SOL    HW237159   2.278   6.148   0.581  0.6941 -1.1071  1.6948
10677SOL     OW37160   3.539   6.805   3.859  0.0286  0.1680  0.6657
10677SOL    HW137161   3.485   6.842   3.789 -0.7143 -0.1807  1.0425
10677SOL    HW237162   3.601   6.747   3.813 -0.7981 -0.4685  0.3344
10678SOL     OW37163   9.601  10.887   2.071  0.4363  0.2923 -0.1126
10678SOL    HW137164   9.648  10.942   2.134  0.3592 -0.3497  0.4968
10678SOL    HW237165   9.575  10.948   2.002 -2.3504  1.6462  2.0158
10679SOL     OW37166   1.698   9.916   5.056 -0.7069  0.2490 -0.2044
10679SOL    HW137167   1.679   9.911   5.149 -0.0634  1.0325 -0.0209
10679SOL    HW237168   1.760   9.846   5.040  0.8718  1.4928  0.4013
10680SOL     OW37169   4.710  11.285  10.529  0.0948 -0.1731  0.5864
10680SOL    HW137170   4.660  11.246  10.458 -0.1656  0.3992  0.4476
10680SOL    HW237171   4.730  11.212  10.587 -1.1796 -0.3643  0.8042
10681SOL     OW37172   8.186   0.362  11.094 -0.2219  0.4715 -0.6097
10681SOL    HW137173   8.234   0.401  11.167  0.1047  0.5567 -0.8705
10681SOL    HW237174   8.254   0.326  11.037 -0.5275 -0.5723 -0.3181
10682SOL     OW37175   7.979   4.883   1.311 -0.3215 -0.4102 -0.1186
10682SOL    HW137176   7.993   4.909   1.220  1.7363 -0.6672  0.1098
10682SOL    HW237177   7.914   4.946   1.344 -1.5089 -0.6666 -1.8985
10683SOL     OW37178   8.201  11.026   4.220  0.1672 -0.0973  0.7556
10683SOL    HW137179   8.228  10.962   4.286  0.1803 -0.3746  0.4798
10683SOL    HW237180   8.233  10.991   4.137 -2.6610 -1.3964  0.1479
10684SOL     OW37181   3.518   5.284   2.354  0.1200 -0.0593  0.0127
10684SOL    HW137182   3.561   5.199   2.362 -1.0481 -0.6248  0.4459
10684SOL    HW237183   3.427   5.267   2.378 -0.2398  1.2112 -0.4056
10685SOL     OW37184  10.784   3.404   5.546 -0.1753  0.6864 -0.4574
10685SOL    HW137185  10.709   3.363   5.503 -0.4810 -0.6232  1.2718
10685SOL    HW237186  10.755   3.420   5.635  0.7994  2.4194 -0.4181
10686SOL     OW37187   0.779   7.264   7.797  0.4245  0.0844  0.2473
10686SOL    HW137188   0.688   7.294   7.788  0.0335 -0.6088  1.7277
10686SOL    HW237189   0.789   7.198   7.728 -0.3758 -0.2263  0.4166
10687SOL     OW37190   9.187   7.482   8.064  0.0066  0.0930 -0.3048
10687SOL    HW137191   9.244   7.466   7.989  1.0012  0.7702  0.2931
10687SOL    HW237192   9.175   7.577   8.065  0.8413  0.1973  0.9930
10688SOL     OW37193   8.954   0.714   6.392 -0.3021 -0.1243 -0.2248
10688SOL    HW137194   8.989   0.783   6.448 -0.7673 -0.6544  0.7180
10688SOL    HW237195   9.004   0.721   6.311 -0.1326  1.1193 -0.0178
10689SOL     OW37196   6.259   4.412   9.980 -0.4540 -0.1276 -0.5749
10689SOL    HW137197   6.169   4.416   9.946 -0.8967  0.3475  0.6310
10689SOL    HW237198   6.271   4.321  10.006 -0.4836 -0.2584 -1.0247
10690SOL     OW37199   2.795  10.116   4.307 -0.1844 -0.3687  0.3383
10690SOL    HW137200   2.779  10.202   4.346 -3.3880 -1.6813  2.1386
10690SOL    HW237201   2.761  10.124   4.217  2.0653  0.9860 -0.4498
10691SOL     OW37202   8.940   5.578   3.495  0.4834 -0.4504 -0.4870
10691SOL    HW137203   8.932   5.578   3.399  1.2361 -0.4647 -0.5534
10691SOL    HW237204   8.994   5.655   3.514  0.5944 -0.6220 -0.0988
10692SOL     OW37205   6.946   3.301   2.896 -0.6381  0.6729 -0.4346
10692SOL    HW137206   6.928   3.392   2.871 -1.9427  1.2395  2.3926
10692SOL    HW237207   7.034   3.304   2.934 -2.2733  1.6033  3.4612
10693SOL     OW37208   7.445   5.328   7.368  0.4700  0.3820  0.2392
10693SOL    HW137209   7.460   5.401   7.308 -2.7270  2.1429  1.4543
10693SOL    HW237210   7.413   5.257   7.312 -2.0202  1.8537 -0.2770
10694SOL     OW37211   4.507   2.954   8.604 -0.6588  0.1935  0.0301
10694SOL    HW137212   4.505   3.050   8.612 -0.8263  0.1052  1.2955
10694SOL    HW237213   4.598   2.931   8.620 -0.4943  0.1786 -0.8973
10695SOL     OW37214   1.417   1.022   0.923 -0.1852  0.2343 -0.3539
10695SOL    HW137215   1.366   0.953   0.966  0.1896 -1.9861 -3.3109
10695SOL    HW237216   1.439   1.083   0.994 -2.4472 -1.4826  1.9340
10696SOL     OW37217   4.029   3.679   4.847 -0.5029 -0.1424  0.0763
10696SOL    HW137218   3.938   3.708   4.855 -1.0295 -1.7164  0.0114
10696SOL    HW237219   4.071   3.747   4.795 -1.9081  0.0920 -0.7961
10697SOL     OW37220   4.176  10.287   3.658  0.1465  0.6716 -0.3240
10697SOL    HW137221   4.088  10.293   3.621 -0.4247  0.1583  0.9289
10697SOL    HW237222   4.199  10.194   3.649  0.7216  0.8863 -1.0322
10698SOL     OW37223   9.563  10.726   2.923  0.4210  0.3982  0.7884
10698SOL    HW137224   9.591  10.816   2.943  0.6570  0.9571 -1.8488
10698SOL    HW237225   9.470  10.724   2.947  0.8180  0.8073  2.4500
10699SOL     OW37226   7.949   0.429  10.443  0.0886  0.1416 -0.0359
10699SOL    HW137227   7.867   0.381  10.451  0.3542  0.0010  1.9709
10699SOL    HW237228   7.975   0.416  10.352 -1.6643 -0.5233 -0.4716
10700SOL     OW37229   9.019   4.493   8.052  0.0316 -0.3281 -0.0080
10700SOL    HW137230   9.103   4.477   8.010  0.6779 -1.2852  1.6000
10700SOL    HW237231   8.954   4.457   7.992  0.8849 -0.9298 -0.5679
10701SOL     OW37232   7.075  10.127  10.291  0.1820 -0.0339 -0.4769
10701SOL    HW137233   7.170  10.116  10.298  0.3699  1.9500  0.1417
10701SOL    HW237234   7.062  10.184  10.216 -0.6094 -1.2435 -1.2952
10702SOL     OW37235  10.594  10.105   6.683 -0.0921  0.2976  0.0872
10702SOL    HW137236  10.532  10.163   6.638 -1.1672 -0.9326 -0.0275
10702SOL    HW237237  10.617  10.153   6.763  2.0472  2.6195 -1.8354
10703SOL     OW37238   1.299   1.321  10.978 -0.4259 -0.1629  0.0267
10703SOL    HW137239   1.321   1.386  10.911  0.2229  0.3849  0.7533
10703SOL    HW237240   1.248   1.255  10.932  1.3980 -0.6362 -1.3564
10704SOL     OW37241   4.880   5.303   4.426  0.0322 -0.2475 -0.0088
10704SOL    HW137242   4.877   5.352   4.344  0.0699  1.5666  1.0500
10704SOL    HW237243   4.790   5.307   4.460 -0.0260 -1.1490 -0.0613
10705SOL     OW37244   4.294   6.116   9.215  0.2677 -0.2165  0.3354
10705SOL    HW137245   4.213   6.167   9.216 -0.2003 -0.9414  2.4172
10705SOL    HW237246   4.288   6.063   9.136  0.0387  1.8052 -1.0353
10706SOL     OW37247   4.399   8.972   4.752  0.2180 -0.2257 -0.3583
10706SOL    HW137248   4.473   9.008   4.704 -0.3050  1.6645  0.2349
10706SOL    HW237249   4.330   9.037   4.743 -0.5610 -0.8001  1.2185
10707SOL     OW37250   9.640   7.230   1.030  0.1323 -0.4235  0.5102
10707SOL    HW137251   9.608   7.142   1.049 -0.3737  0.0889  2.0347
10707SOL    HW237252   9.598   7.287   1.095  1.2552  0.8028  0.1961
10708SOL     OW37253   6.770   8.703   1.368  0.9176 -0.8428 -0.1493
10708SOL    HW137254   6.830   8.766   1.327 -0.2729  0.0358 -0.5642
10708SOL    HW237255   6.754   8.638   1.301  2.7352 -2.0141  0.5235
10709SOL     OW37256   6.773   5.214  10.330 -0.0414 -0.0544  0.2196
10709SOL    HW137257   6.782   5.291  10.387  0.2218 -0.3587  0.5951
10709SOL    HW237258   6.679   5.207  10.312  0.2855  2.7362 -3.1298
10710SOL     OW37259   9.858   5.142   6.878  0.2209  0.5065 -0.0190
10710SOL    HW137260   9.836   5.202   6.950  0.0572 -0.0641  0.4130
10710SOL    HW237261   9.953   5.149   6.870  0.0527  1.9128 -0.9437
10711SOL     OW37262   5.576   3.394   1.504  0.1117  0.4077 -0.2088
10711SOL    HW137263   5.638   3.344   1.452 -0.5677 -0.2782 -0.3665
10711SOL    HW237264   5.494   3.389   1.455 -0.4337  0.0888  0.7154
10712SOL     OW37265   7.723   0.448   0.747  0.3062  0.8440  0.4473
10712SOL    HW137266   7.729   0.443   0.843 -0.4056  1.2171  0.5159
10712SOL    HW237267   7.736   0.541   0.727 -1.6579  1.1238  0.3518
10713SOL     OW37268   3.766   4.715   6.804  0.1763  0.4919 -0.4569
10713SOL    HW137269   3.760   4.716   6.708  1.6966 -2.0208 -0.6454
10713SOL    HW237270   3.853   4.750   6.822 -0.5750  2.0986  0.0879
10714SOL     OW37271   9.200   9.588  10.820  0.1350 -0.1290 -0.2785
10714SOL    HW137272   9.196   9.504  10.865 -2.6756 -0.0867 -0.3361
10714SOL    HW237273   9.223   9.566  10.729 -0.8181 -0.8568 -0.3491
10715SOL     OW37274   3.509   6.840   9.383  0.4278  0.1466 -1.0777
10715SOL    HW137275   3.429   6.884   9.410  0.5647 -0.5831  0.5536
10715SOL    HW237276   3.517   6.766   9.443  2.1569  0.0404 -1.4212
10716SOL     OW37277   6.024  10.539   1.071  0.0894 -0.0148  0.1100
10716SOL    HW137278   5.986  10.625   1.052  1.0746  0.2712 -0.6059
10716SOL    HW237279   6.114  10.558   1.099 -0.1736 -0.7004  1.4912
10717SOL     OW37280   0.231   2.493   6.236 -0.5324  0.0293  0.8657
10717SOL    HW137281   0.151   2.457   6.197 -0.0443 -0.1653  0.0440
10717SOL    HW237282   0.217   2.588   6.237  0.0992  0.1654 -1.2464
10718SOL     OW37283  11.053  11.302   7.732  0.1006  0.4295 -0.1080
10718SOL    HW137284  11.096  11.319   7.816 -1.6275  0.2252  0.8433
10718SOL    HW237285  11.082  11.214   7.708  0.9556  0.6637  0.0360
10719SOL     OW37286   4.379   5.555   6.529  0.3780 -0.4376 -0.0877
10719SOL    HW137287   4.425   5.498   6.590  0.7170 -0.3151 -0.2286
10719SOL    HW237288   4.315   5.498   6.486 -0.1755 -0.4241  0.7045
10720SOL     OW37289   6.652   1.624   5.096 -0.4433 -0.1716 -0.2552
10720SOL    HW137290   6.720   1.686   5.069 -0.4804 -1.1613 -2.7421
10720SOL    HW237291   6.581   1.637   5.034 -0.2928 -2.9381 -1.0853
10721SOL     OW37292   9.547   4.677   7.043  0.2798 -0.6087  0.5058
10721SOL    HW137293   9.558   4.595   6.996  2.0777  0.5246 -1.1280
10721SOL    HW237294   9.605   4.670   7.118 -1.5641 -1.8767  1.8322
10722SOL     OW37295   6.172   6.792  11.281 -1.0852 -0.3526 -0.0926
10722SOL    HW137296   6.118   6.733  11.334 -1.3064 -0.5084 -0.4809
10722SOL    HW237297   6.193   6.865  11.339  0.5660 -1.5862  0.9019
10723SOL     OW37298   1.058   2.281  10.594 -0.3115  0.4141  0.0922
10723SOL    HW137299   1.017   2.355  10.638 -3.9160 -1.6807  0.5040
10723SOL    HW237300   1.002   2.265  10.518 -0.0737 -2.3546  0.4532
10724SOL     OW37301   9.150  11.252   5.364  0.2148  0.5244  0.4059
10724SOL    HW137302   9.074  11.220   5.316  1.1092 -1.8825  0.4916
10724SOL    HW237303   9.212  11.280   5.296 -0.1311  1.0214  0.2948
10725SOL     OW37304   3.112   3.932   9.709  0.2802  0.4209  0.6923
10725SOL    HW137305   3.142   3.941   9.800 -0.0961  0.1500  0.8465
10725SOL    HW237306   3.018   3.912   9.717  0.0646  1.2300  0.2172
10726SOL     OW37307   0.743   6.652   8.292 -0.3718  0.4437 -0.3431
10726SOL    HW137308   0.824   6.644   8.342 -2.3419 -0.6623  2.8165
10726SOL    HW237309   0.703   6.733   8.324 -1.7893 -0.4162  0.1016
10727SOL     OW37310   5.446   8.860   4.667 -0.0388  0.0679  0.1314
10727SOL    HW137311   5.437   8.797   4.596  2.0682 -0.8956  0.6733
10727SOL    HW237312   5.408   8.941   4.633 -0.2169 -0.7298 -1.6077
10728SOL     OW37313   6.247   7.601   6.289 -0.1205 -0.9078 -0.1707
10728SOL    HW137314   6.181   7.597   6.358  1.2194 -2.3789  1.0630
10728SOL    HW237315   6.225   7.529   6.231  0.7611 -1.8092  0.5961
10729SOL     OW37316   5.873   0.472  10.086  0.0061  0.0086 -0.0748
10729SOL    HW137317   5.855   0.378  10.091  0.1145 -0.1949 -2.9359
10729SOL    HW237318   5.820   0.503  10.013  0.6421  2.0205  0.2963
10730SOL     OW37319   0.392   1.787   4.801 -0.4976  0.4874 -0.3020
10730SOL    HW137320   0.472   1.763   4.754 -0.3671 -1.1370  0.6782
10730SOL    HW237321   0.422   1.846   4.870 -0.4660  1.6151 -1.2692
10731SOL     OW37322   4.346   9.474   2.664 -0.0899  0.5047 -0.8690
10731SOL    HW137323   4.414   9.506   2.724 -0.7709 -0.0956  0.2411
10731SOL    HW237324   4.335   9.544   2.601  2.0423  0.3563 -1.4644
10732SOL     OW37325   2.452   4.808   1.415 -0.8520  0.1133  0.5627
10732SOL    HW137326   2.495   4.888   1.447 -1.3381  0.2622  0.8362
10732SOL    HW237327   2.364   4.835   1.392 -0.0678  0.3622 -2.3972
10733SOL     OW37328   1.447  10.895   5.151 -0.3407  0.3300  0.5736
10733SOL    HW137329   1.519  10.856   5.101 -0.1438  0.0956  1.0386
10733SOL    HW237330   1.456  10.858   5.239 -1.6363 -0.5040  0.3725
10734SOL     OW37331   1.159   1.055  10.618  0.2504 -0.2562 -0.4019
10734SOL    HW137332   1.148   0.960  10.615 -0.5226 -0.1997  0.5130
10734SOL    HW237333   1.165   1.075  10.711 -2.5589  0.9113 -0.4173
10735SOL     OW37334   9.370   8.820   4.694 -0.0187  0.4173  0.6294
10735SOL    HW137335   9.462   8.805   4.719 -0.0940 -1.7744 -0.2980
10735SOL    HW237336   9.373   8.828   4.599 -0.7814  0.3401  0.6013
10736SOL     OW37337   6.413   5.979  10.723 -0.1764  0.0064  0.1870
10736SOL    HW137338   6.326   5.955  10.756 -0.3085  0.4629  0.1623
10736SOL    HW237339   6.397   6.050  10.661  0.4510  1.6563  1.9058
10737SOL     OW37340  10.882   5.172   8.398  0.5315 -0.3777 -0.1878
10737SOL    HW137341  10.870   5.077   8.398 -0.3309 -0.2999 -2.7147
10737SOL    HW237342  10.954   5.187   8.460  1.5669 -2.7759 -0.7465
10738SOL     OW37343   8.623   2.553   9.525  0.8368 -0.2350  0.0242
10738SOL    HW137344   8.640   2.620   9.459 -1.2429 -0.1998 -0.5069
10738SOL    HW237345   8.553   2.590   9.578 -0.5106 -2.0893 -0.4339
10739SOL     OW37346   6.643   6.970   7.339  0.8069  0.1174  0.0940
10739SOL    HW137347   6.697   6.924   7.275  0.2792 -0.9491  0.3948
10739SOL    HW237348   6.591   6.901   7.380 -3.1209  1.4482 -2.3720
10740SOL     OW37349   8.693   6.677  10.732  0.3757  0.3965  0.5223
10740SOL    HW137350   8.710   6.601  10.677  0.3839  1.0081 -0.3329
10740SOL    HW237351   8.613   6.716  10.695  0.0732  0.4951  1.2761
10741SOL     OW37352   1.871   2.383   4.273 -0.0641  0.7015 -0.0007
10741SOL    HW137353   1.864   2.478   4.275 -1.5444  0.6412 -1.5896
10741SOL    HW237354   1.938   2.366   4.206  1.5267  0.6566  1.5615
10742SOL     OW37355   9.727   9.195   0.212 -0.6360  0.0275 -1.1731
10742SOL    HW137356   9.670   9.158   0.280 -0.7991  2.2733 -0.0493
10742SOL    HW237357   9.688   9.280   0.193  0.9785  0.5525 -2.1487
10743SOL     OW37358   7.646   9.976   1.970 -0.3474 -0.2703  0.5330
10743SOL    HW137359   7.592   9.941   1.899 -1.9824  1.6408  0.7913
10743SOL    HW237360   7.601   9.948   2.050 -0.4367  0.5084  0.7609
10744SOL     OW37361   1.323   4.893   5.024 -0.1552 -1.2266  0.4220
10744SOL    HW137362   1.384   4.932   5.086  0.9414  0.3290 -1.5522
10744SOL    HW237363   1.340   4.799   5.030  0.5492 -1.0267  1.8223
10745SOL     OW37364   2.824   0.945   7.722 -0.0312 -0.4244 -0.4321
10745SOL    HW137365   2.755   0.898   7.675  2.1924 -2.2415 -1.9888
10745SOL    HW237366   2.793   1.036   7.726 -2.7379 -1.2928 -0.5756
10746SOL     OW37367   2.132   8.415   7.215 -0.0148  0.2294 -0.1111
10746SOL    HW137368   2.199   8.452   7.157  0.0465 -1.9992 -1.5086
10746SOL    HW237369   2.091   8.492   7.256  0.7111  1.8127 -2.2428
10747SOL     OW37370   8.245   0.701   1.196  0.1118  0.2483 -0.1471
10747SOL    HW137371   8.326   0.670   1.237 -0.0166 -1.1271 -0.9368
10747SOL    HW237372   8.274   0.768   1.133  0.4739  0.9636  0.7564
10748SOL     OW37373   7.096   6.326   6.247 -0.7833 -0.0514  0.3102
10748SOL    HW137374   7.015   6.366   6.218 -0.8796 -0.8230 -0.4695
10748SOL    HW237375   7.119   6.264   6.179  0.9653  0.8449  0.0552
10749SOL     OW37376   9.292   7.075   1.722 -0.3170  0.7774  0.0712
10749SOL    HW137377   9.294   7.095   1.628 -0.6727  2.4944  0.4093
10749SOL    HW237378   9.340   6.993   1.730 -2.6936 -0.8834 -1.9564
10750SOL     OW37379   2.982   9.455  10.316  0.1032 -0.0137  0.0206
10750SOL    HW137380   3.065   9.454  10.364  0.6672  1.1202 -0.9251
10750SOL    HW237381   2.941   9.538  10.341 -0.8262 -0.6256  0.5885
10751SOL     OW37382   7.020   5.315   2.956 -0.0402 -0.5821  0.2464
10751SOL    HW137383   6.925   5.315   2.948 -0.1673 -0.2097  1.5604
10751SOL    HW237384   7.052   5.325   2.867 -1.2348 -0.7639 -0.2100
10752SOL     OW37385   2.146   6.046   6.139  0.1545  0.1478  0.7061
10752SOL    HW137386   2.150   6.114   6.206  1.4595  0.1913  0.5942
10752SOL    HW237387   2.232   6.048   6.097 -1.4103  1.7790 -2.6167
10753SOL     OW37388   0.902   7.459   5.424  0.6788  0.4148 -0.3803
10753SOL    HW137389   0.836   7.445   5.356 -0.5896  0.2317  0.8576
10753SOL    HW237390   0.976   7.404   5.397 -0.2857 -0.6261 -0.9646
10754SOL     OW37391   6.938   6.051   1.073 -0.4004  0.3162  0.4621
10754SOL    HW137392   6.864   6.069   1.015  0.5816 -0.8296 -1.1762
10754SOL    HW237393   6.939   5.956   1.081  1.9934  0.1835 -1.0149
10755SOL     OW37394   2.882   2.109   8.905  0.9242  0.0719  0.0784
10755SOL    HW137395   2.948   2.171   8.875 -0.0483  0.4058 -1.3548
10755SOL    HW237396   2.853   2.144   8.990  1.0967  1.0246 -0.2544
10756SOL     OW37397   5.084   3.388   7.048 -0.4108 -0.0055  0.3323
10756SOL    HW137398   5.148   3.359   6.984  1.2222 -0.2542  2.0364
10756SOL    HW237399   5.056   3.308   7.092  1.1551  0.5174  2.3501
10757SOL     OW37400  11.244   6.998   4.732 -0.3066  0.2797 -0.3291
10757SOL    HW137401  11.209   7.068   4.676 -1.2930  0.4264  0.4570
10757SOL    HW237402  11.244   7.036   4.820  0.8356 -0.0969 -0.1659
10758SOL     OW37403   3.610   3.611   5.152 -0.2498  0.4111  0.4362
10758SOL    HW137404   3.551   3.678   5.118 -0.1517  0.1469 -0.2479
10758SOL    HW237405   3.648   3.569   5.075  1.1476  0.8455  0.8725
10759SOL     OW37406   4.794   7.574  11.087 -0.6630  0.3039 -0.4688
10759SOL    HW137407   4.768   7.579  11.179  0.0805  0.7924 -0.2836
10759SOL    HW237408   4.784   7.663  11.055 -0.8990  0.1365 -0.8630
10760SOL     OW37409   0.448   1.118   3.269  0.5322 -0.1309 -0.4279
10760SOL    HW137410   0.377   1.116   3.205 -0.5943  2.3617  0.6729
10760SOL    HW237411   0.449   1.030   3.308 -3.9049  0.6178  1.6022
10761SOL     OW37412   3.138   3.517   8.454 -1.0277 -0.1526 -0.3033
10761SOL    HW137413   3.100   3.605   8.454 -1.0717 -0.1718 -0.3092
10761SOL    HW237414   3.107   3.477   8.535  1.5504  0.9241  1.2815
10762SOL     OW37415   7.152   8.537   5.207  0.7266 -0.0515 -0.1142
10762SOL    HW137416   7.136   8.497   5.122 -2.3237 -2.0331  1.2827
10762SOL    HW237417   7.090   8.610   5.212  1.1516  0.2878  0.2226
10763SOL     OW37418  11.317   8.864   7.821  0.1685  0.0271  0.1775
10763SOL    HW137419  11.338   8.772   7.806 -0.5376 -0.0472 -0.3832
10763SOL    HW237420  11.229   8.862   7.860 -0.0136  0.4888 -0.2138
10764SOL     OW37421   1.867   7.442   7.116 -0.0822 -0.5345  0.0939
10764SOL    HW137422   1.821   7.361   7.139 -0.1836 -0.6849 -0.6424
10764SOL    HW237423   1.873   7.441   7.020  1.3930 -0.4737  0.1703
10765SOL     OW37424   7.584   0.757   1.344 -0.5413 -0.1226  0.1891
10765SOL    HW137425   7.588   0.747   1.439 -0.0761 -1.2561  0.0575
10765SOL    HW237426   7.664   0.805   1.322 -0.5955  0.0459  0.3614
10766SOL     OW37427   3.039   4.364   3.788  0.6129 -0.1896 -0.7163
10766SOL    HW137428   3.082   4.389   3.870  2.0411 -1.2194 -1.1202
10766SOL    HW237429   3.045   4.442   3.733  0.4871  0.2020 -0.1749
10767SOL     OW37430   4.854   3.771   4.018  1.0384  0.7019  0.0055
10767SOL    HW137431   4.846   3.848   3.962 -0.6274  0.5575  0.0309
10767SOL    HW237432   4.789   3.710   3.985  3.7078 -1.5587 -1.3364
10768SOL     OW37433   2.752  11.119  10.113 -0.1417  0.4246 -0.2161
10768SOL    HW137434   2.736  11.133  10.020  1.4474  0.7570 -0.4559
10768SOL    HW237435   2.821  11.182  10.135 -0.3899  0.2420  1.1536
10769SOL     OW37436   5.871   0.772   7.328  0.5188 -0.6442 -0.4560
10769SOL    HW137437   5.911   0.762   7.414  0.4564  1.8777 -0.0968
10769SOL    HW237438   5.945   0.777   7.267  0.6041 -0.9634 -0.3782
10770SOL     OW37439   5.924   7.141   0.514  0.1788 -0.0861  0.1231
10770SOL    HW137440   5.937   7.191   0.595 -1.2507  1.7139 -0.7260
10770SOL    HW237441   5.909   7.052   0.544 -0.7489  0.6277  1.8788
10771SOL     OW37442   0.582   1.296   1.106 -0.1221 -0.1922 -0.1467
10771SOL    HW137443   0.665   1.277   1.149 -0.4945 -0.4291  0.4794
10771SOL    HW237444   0.520   1.234   1.145 -1.1287  1.5638  1.1298
10772SOL     OW37445   9.620  10.516   8.216  0.3903  0.2514 -0.1176
10772SOL    HW137446   9.639  10.501   8.309 -0.7240  0.3092  0.1278
10772SOL    HW237447   9.706  10.521   8.175  0.8872 -1.2665  0.6727
10773SOL     OW37448   5.128   6.439   9.559  0.0628  0.1240  0.2928
10773SOL    HW137449   5.202   6.493   9.587 -0.6552  2.2053 -1.6416
10773SOL    HW237450   5.059   6.501   9.538 -1.5441 -1.6765  0.0479
10774SOL     OW37451   1.218   4.738   6.284 -0.0667  0.1388  0.2952
10774SOL    HW137452   1.252   4.673   6.346  0.8566 -1.1475 -1.5162
10774SOL    HW237453   1.266   4.721   6.203 -0.9080  2.1181 -0.6380
10775SOL     OW37454   9.648   5.722   3.900  0.1750 -0.3375  0.5488
10775SOL    HW137455   9.712   5.653   3.915  1.6950  0.9006 -0.0491
10775SOL    HW237456   9.580   5.707   3.965  2.0686 -0.5048  2.5365
10776SOL     OW37457   5.991   3.652  10.609 -0.1151  0.1001 -0.1704
10776SOL    HW137458   6.072   3.610  10.580  1.0850  1.2245  1.4468
10776SOL    HW237459   5.923   3.586  10.595  1.2283 -1.2186 -0.6102
10777SOL     OW37460   7.689   5.734   7.781  0.0832  0.3507 -0.3331
10777SOL    HW137461   7.611   5.788   7.783 -0.3822 -0.3330  0.3587
10777SOL    HW237462   7.742   5.765   7.855  0.0836  0.2522 -0.2923
10778SOL     OW37463   9.127  10.394   4.120  0.1273  0.0760  0.3109
10778SOL    HW137464   9.098  10.459   4.057 -0.2790 -0.0500  0.3656
10778SOL    HW237465   9.052  10.336   4.132  0.6799 -0.7650 -0.1982
10779SOL     OW37466   5.984  10.242   2.549 -0.1708 -0.4785  0.3079
10779SOL    HW137467   6.080  10.243   2.542 -0.0265  0.0893  2.1297
10779SOL    HW237468   5.956  10.320   2.502  0.2956 -0.3689  0.2063
10780SOL     OW37469   1.228  10.703   2.543  0.5982  0.1651  0.4012
10780SOL    HW137470   1.139  10.732   2.524  1.0766  0.8252 -0.9333
10780SOL    HW237471   1.238  10.622   2.492  0.1075 -0.9869  2.1167
10781SOL     OW37472  10.381   7.193   3.482  0.0857  0.0387  0.4402
10781SOL    HW137473  10.415   7.281   3.468  0.0511  0.0900  0.6880
10781SOL    HW237474  10.302   7.205   3.535 -1.1288  0.0470 -1.3182
10782SOL     OW37475   6.579   9.330   0.503 -0.0029 -0.1017 -0.1151
10782SOL    HW137476   6.493   9.295   0.523 -1.3457  1.5282 -2.8411
10782SOL    HW237477   6.587   9.324   0.408  2.1301  1.4455 -0.0772
10783SOL     OW37478   5.763   8.888   5.411 -0.4527 -0.0505  0.4649
10783SOL    HW137479   5.692   8.864   5.351 -0.8197  0.2011  0.7961
10783SOL    HW237480   5.780   8.980   5.391 -0.2680 -0.0897  0.4409
10784SOL     OW37481   9.067   1.150  10.716 -0.2343  0.2616 -0.4913
10784SOL    HW137482   9.157   1.163  10.687  0.0655 -0.9678 -0.1466
10784SOL    HW237483   9.073   1.145  10.812 -0.2056 -2.9520 -0.5937
10785SOL     OW37484   7.327   0.106   3.860 -0.1859  0.3515 -0.2034
10785SOL    HW137485   7.268   0.037   3.829 -0.4068  1.0044 -1.2573
10785SOL    HW237486   7.273   0.161   3.917 -0.0020 -0.3508  0.6620
10786SOL     OW37487   7.534   6.027   0.811 -0.4650  0.0175  0.1396
10786SOL    HW137488   7.549   6.082   0.734 -0.3083 -0.6328 -0.2898
10786SOL    HW237489   7.447   6.054   0.842 -0.3219  0.6218  0.0213
10787SOL     OW37490   1.165  10.648  11.283 -0.0422 -0.9775 -0.6173
10787SOL    HW137491   1.190  10.740  11.274  0.7482 -0.8267  2.6510
10787SOL    HW237492   1.248  10.601  11.286 -0.4209 -1.6664 -0.8463
10788SOL     OW37493   3.629   1.946   1.817  0.1720 -0.4555 -0.1491
10788SOL    HW137494   3.644   2.000   1.894 -0.1043  0.3999 -0.6916
10788SOL    HW237495   3.715   1.908   1.797  0.2755 -0.5544  0.4736
10789SOL     OW37496   6.514   9.439  10.088  0.4833  0.0200  0.3874
10789SOL    HW137497   6.513   9.470   9.998 -0.2448  0.5124  0.5604
10789SOL    HW237498   6.437   9.479  10.129  2.2814  1.9651  1.9613
10790SOL     OW37499   7.397   5.695   4.450 -0.4505 -0.6253 -0.2383
10790SOL    HW137500   7.383   5.771   4.505 -0.7371 -0.0738 -1.0589
10790SOL    HW237501   7.454   5.638   4.501  0.9214  0.7707 -0.1881
10791SOL     OW37502   7.486  10.470   7.542  0.1374 -0.4962 -0.0353
10791SOL    HW137503   7.573  10.474   7.502  0.3036  0.8581  0.4403
10791SOL    HW237504   7.500  10.491   7.634 -0.6707 -0.4148  0.0753
10792SOL     OW37505   6.082   2.716   9.555  0.5441  0.2654 -0.5061
10792SOL    HW137506   6.003   2.683   9.511  0.2377 -0.6420  0.6863
10792SOL    HW237507   6.153   2.663   9.520  0.7770  1.6301 -2.1932
10793SOL     OW37508   2.389   8.423   3.841 -0.5512 -0.5996  0.0009
10793SOL    HW137509   2.316   8.477   3.872 -2.2212 -1.6770 -1.9324
10793SOL    HW237510   2.393   8.440   3.747  2.3307  0.1303  0.2048
10794SOL     OW37511   9.670   7.240   7.846  0.6225 -0.4721 -0.4948
10794SOL    HW137512   9.626   7.162   7.881 -0.0906 -0.5822 -1.6036
10794SOL    HW237513   9.665   7.304   7.916  0.4592 -1.1441  0.1191
10795SOL     OW37514  11.051  11.139  11.112 -0.6750 -0.0081 -0.2964
10795SOL    HW137515  11.043  11.115  11.020 -2.1134 -1.1452  0.1102
10795SOL    HW237516  11.098  11.065  11.152  0.4732  0.7448 -0.2033
10796SOL     OW37517   9.506   3.108  10.623  0.7777  0.1636  1.0816
10796SOL    HW137518   9.516   3.022  10.584 -1.7238 -0.8715  2.6105
10796SOL    HW237519   9.579   3.114  10.685  0.2025 -1.4486  1.9512
10797SOL     OW37520   1.424   5.778   0.822  0.4955 -0.1104  0.0901
10797SOL    HW137521   1.336   5.757   0.792  0.1295  0.0581  1.0204
10797SOL    HW237522   1.434   5.729   0.904  0.8482  0.7361  0.5629
10798SOL     OW37523   5.035   5.398   2.518 -0.1096 -0.6869 -0.8891
10798SOL    HW137524   4.952   5.399   2.469  0.1511  0.8635 -1.3206
10798SOL    HW237525   5.018   5.341   2.592 -2.1680  1.0453  0.0381
10799SOL     OW37526   0.841   1.922   8.820 -0.4560  0.2584  0.1310
10799SOL    HW137527   0.759   1.873   8.822 -0.9167  1.0701  1.7649
10799SOL    HW237528   0.904   1.865   8.865 -1.0608  1.2441  2.2916
10800SOL     OW37529   8.021   8.215   4.212 -0.8745  0.4594 -0.5514
10800SOL    HW137530   7.974   8.201   4.130 -1.4987  2.3133 -0.5363
10800SOL    HW237531   7.969   8.167   4.277 -0.7575 -0.4494 -1.1174
10801SOL     OW37532  11.191   4.230   5.176  0.8479 -0.6173  0.0746
10801SOL    HW137533  11.141   4.195   5.250  1.2262 -0.1953  0.5368
10801SOL    HW237534  11.264   4.170   5.165 -0.4589 -1.9713 -1.4422
10802SOL     OW37535   2.487  10.590   8.900 -0.0563  0.1755  0.8595
10802SOL    HW137536   2.569  10.635   8.881  0.4761 -1.0062  0.2893
10802SOL    HW237537   2.419  10.647   8.865  0.5587  0.8837  0.8090
10803SOL     OW37538  10.346   6.653   1.598 -0.0822 -0.3880  0.0732
10803SOL    HW137539  10.265   6.704   1.598  0.9823  1.3365 -0.7641
10803SOL    HW237540  10.325   6.576   1.544 -1.0494  0.2424 -0.4665
10804SOL     OW37541   3.634   0.904   0.279 -0.4038  0.3524 -0.0153
10804SOL    HW137542   3.567   0.854   0.324 -0.3417  2.0785  2.0924
10804SOL    HW237543   3.587   0.950   0.209 -1.5405  1.9030  1.7230
10805SOL     OW37544   4.811   6.674   4.944  0.3207  0.1913 -0.3897
10805SOL    HW137545   4.871   6.602   4.926  1.4617  1.2177 -0.7367
10805SOL    HW237546   4.860   6.753   4.921 -0.7913  1.1036  0.3140
10806SOL     OW37547   7.836   9.101   8.005 -0.2145  0.9582  0.0461
10806SOL    HW137548   7.848   9.173   8.067  1.3569  0.4430  0.3599
10806SOL    HW237549   7.816   9.025   8.060 -0.7696  0.9147 -0.2132
10807SOL     OW37550   8.184   1.629   2.728  0.2629 -0.2726  0.2514
10807SOL    HW137551   8.170   1.550   2.781  0.5358 -0.5618 -0.1068
10807SOL    HW237552   8.119   1.622   2.658  1.3356 -0.9856 -0.6945
10808SOL     OW37553  10.642   9.524   7.908  0.1051  0.1135  0.0370
10808SOL    HW137554  10.664   9.576   7.985  0.7029 -0.6498  0.3871
10808SOL    HW237555  10.718   9.468   7.894 -0.7292 -1.0240 -0.0373
10809SOL     OW37556   0.128   6.266   3.633  0.3497 -0.1596 -0.5498
10809SOL    HW137557   0.146   6.318   3.555 -1.3681  1.3067  0.0103
10809SOL    HW237558   0.187   6.300   3.700 -0.5373  0.8653 -0.2788
10810SOL     OW37559   1.471   0.306   1.921  0.2568 -0.6721  0.2180
10810SOL    HW137560   1.473   0.328   2.014 -1.5147  0.3447  0.0423
10810SOL    HW237561   1.468   0.210   1.919  2.0310 -0.7547  1.1548
10811SOL     OW37562   8.720   7.540   5.558 -0.0649  0.1462 -0.0626
10811SOL    HW137563   8.678   7.520   5.475 -0.7144 -0.1972  0.3444
10811SOL    HW237564   8.709   7.635   5.569 -1.3175 -0.0495  0.3641
10812SOL     OW37565   5.792   4.078   4.646 -0.3817  0.1664  0.0885
10812SOL    HW137566   5.711   4.027   4.643  0.4900 -1.1661 -1.2377
10812SOL    HW237567   5.803   4.110   4.556 -0.4868  2.0439  0.7135
10813SOL     OW37568   1.266   0.839   5.496  0.4743  0.1589 -0.6353
10813SOL    HW137569   1.242   0.750   5.468 -0.1782 -0.2219  1.0745
10813SOL    HW237570   1.199   0.895   5.455 -1.0493 -0.4899  0.9117
10814SOL     OW37571   3.279   3.941   0.664  0.9535 -0.2545 -0.0226
10814SOL    HW137572   3.326   4.004   0.718  1.6645  0.7139 -1.7264
10814SOL    HW237573   3.247   3.992   0.590 -1.4116 -1.2246  0.2746
10815SOL     OW37574   6.764  11.085   7.518 -0.0329  0.2065 -0.1267
10815SOL    HW137575   6.725  11.119   7.437 -0.0261  1.7910  0.5096
10815SOL    HW237576   6.820  11.156   7.549  0.0903 -0.4439  1.1871
10816SOL     OW37577   1.079   4.520   0.142 -0.0300 -0.5605 -0.1564
10816SOL    HW137578   1.037   4.572   0.074 -0.0052 -0.1879  0.1156
10816SOL    HW237579   1.019   4.447   0.156  0.1454 -0.8405 -0.8429
10817SOL     OW37580   5.280   2.596   0.493 -0.1608 -0.5101 -0.4142
10817SOL    HW137581   5.231   2.661   0.543  0.2733  0.3332 -1.0720
10817SOL    HW237582   5.342   2.647   0.441  0.9209 -1.5164 -0.1394
10818SOL     OW37583   8.059   2.527   7.510 -0.2832  0.0508 -0.1940
10818SOL    HW137584   8.076   2.437   7.483 -1.4720  0.3123 -1.8415
10818SOL    HW237585   8.003   2.563   7.442 -0.3534  1.8500  0.7804
10819SOL     OW37586   4.548  11.316   1.161  0.1549 -0.4791 -0.2614
10819SOL    HW137587   4.464  11.314   1.114 -0.2909 -0.7109  0.5460
10819SOL    HW237588   4.545  11.397   1.212 -0.2687 -1.2847  1.0235
10820SOL     OW37589   9.994   4.934   7.871 -0.1796  0.5509 -0.0840
10820SOL    HW137590   9.955   4.989   7.939  0.4475  1.9560 -0.8509
10820SOL    HW237591   9.971   4.977   7.789  0.7077 -0.0859 -0.6703
10821SOL     OW37592   6.459   5.643   7.711 -0.2072  0.2152  0.0523
10821SOL    HW137593   6.439   5.560   7.668  1.8431 -0.4145  0.2437
10821SOL    HW237594   6.434   5.710   7.648 -0.1435 -0.5983 -0.8507
10822SOL     OW37595   6.715   5.878   2.548  0.5938  0.0014  1.0825
10822SOL    HW137596   6.803   5.886   2.585  1.6469  0.4068 -1.4132
10822SOL    HW237597   6.714   5.793   2.504 -0.5864 -0.4195  1.8976
10823SOL     OW37598   0.571   2.712   8.615 -0.1735 -0.2102  0.1782
10823SOL    HW137599   0.532   2.625   8.620 -0.0329 -0.1857  1.7516
10823SOL    HW237600   0.497   2.772   8.623 -0.1698 -0.1747 -0.0414
10824SOL     OW37601   6.629   9.050  10.253  0.5669 -0.2000 -0.1931
10824SOL    HW137602   6.635   9.011  10.166  0.3242  1.1036 -0.8089
10824SOL    HW237603   6.545   9.019  10.287  0.1024  0.2609 -0.9109
10825SOL     OW37604   7.128   2.063   6.588  0.4417 -0.1911  0.5806
10825SOL    HW137605   7.060   1.997   6.579  0.4793 -0.1226 -0.2835
10825SOL    HW237606   7.181   2.053   6.509  1.5431 -0.3737  1.3352
10826SOL     OW37607   6.989   1.238   9.203  0.4686  0.2975 -0.2232
10826SOL    HW137608   7.068   1.288   9.227  1.0116  0.1013 -1.5607
10826SOL    HW237609   6.922   1.305   9.190  0.2912  0.4391  1.3535
10827SOL     OW37610   0.340   1.188   6.387 -0.1148 -0.1779 -0.0287
10827SOL    HW137611   0.293   1.262   6.425 -0.1359 -0.4870  0.5457
10827SOL    HW237612   0.421   1.226   6.353 -0.0922  0.0961  0.3286
10828SOL     OW37613   3.069   3.265  10.628  0.8173 -0.5009 -0.4504
10828SOL    HW137614   3.145   3.222  10.668  1.1848  0.3858 -0.1988
10828SOL    HW237615   3.023   3.306  10.701  2.2619  2.3350 -1.1056
10829SOL     OW37616   4.808   6.228   3.486  0.3461  0.8116  0.6957
10829SOL    HW137617   4.899   6.199   3.478  0.0716  0.0741  0.1111
10829SOL    HW237618   4.765   6.159   3.536 -0.0493  0.8046  0.3471
10830SOL     OW37619   8.545   7.940   2.865  0.1148 -0.9310  0.3135
10830SOL    HW137620   8.610   7.898   2.921 -1.6293 -2.0071  1.6045
10830SOL    HW237621   8.475   7.966   2.926 -0.1677  1.2131 -0.8712
10831SOL     OW37622  10.405   2.143   4.718  0.5439  0.5220 -0.2752
10831SOL    HW137623  10.457   2.194   4.780 -0.4575  0.5817  0.5390
10831SOL    HW237624  10.341   2.205   4.684  1.2813  0.5609 -1.6000
10832SOL     OW37625   2.146   9.690   4.272 -0.4149 -0.4634 -0.1757
10832SOL    HW137626   2.107   9.696   4.359 -3.6483  0.8882 -1.6177
10832SOL    HW237627   2.204   9.614   4.277 -1.7319 -1.3580  2.6953
10833SOL     OW37628   6.586  10.792   7.616  0.3902 -0.1988 -0.5144
10833SOL    HW137629   6.580  10.790   7.521 -1.8126  2.6011 -0.5322
10833SOL    HW237630   6.680  10.800   7.635  0.8196 -0.5457 -2.4495
10834SOL     OW37631   7.550   1.425   8.614 -0.4948  0.1890  0.2814
10834SOL    HW137632   7.477   1.447   8.672  0.2447  2.9090  0.2293
10834SOL    HW237633   7.531   1.471   8.532  0.8258  0.2299 -0.0217
10835SOL     OW37634   0.674   5.490  10.258  0.3503 -0.2564  0.6744
10835SOL    HW137635   0.765   5.503  10.285  0.6742 -0.1087 -0.4426
10835SOL    HW237636   0.637   5.432  10.324  1.0493  0.2759  1.5396
10836SOL     OW37637   8.794   6.842   7.625  0.7546  0.2970  0.0057
10836SOL    HW137638   8.742   6.923   7.618 -1.2659 -1.0200 -0.5874
10836SOL    HW237639   8.883   6.873   7.644 -0.4326  2.5841  2.1645
10837SOL     OW37640   8.042   8.922   0.912  0.4060 -0.1797 -0.0689
10837SOL    HW137641   8.044   8.856   0.842 -2.9348 -0.7390  0.2765
10837SOL    HW237642   8.109   8.986   0.887  0.5288 -1.3230 -2.8204
10838SOL     OW37643   4.296   4.574   5.242 -0.3942  0.3934 -0.0959
10838SOL    HW137644   4.279   4.543   5.331  1.2134 -0.7243 -0.1728
10838SOL    HW237645   4.321   4.665   5.252  0.9435 -0.0647  0.7052
10839SOL     OW37646   4.881   3.434   0.090  0.0362 -0.1331  0.0748
10839SOL    HW137647   4.788   3.430   0.065  0.2733 -0.9417 -0.7032
10839SOL    HW237648   4.901   3.346   0.122 -0.1956  0.8099  2.9670
10840SOL     OW37649   8.224   6.977   7.907 -0.1510  0.7943  0.1331
10840SOL    HW137650   8.200   7.010   7.994  1.8646  1.5340  0.4245
10840SOL    HW237651   8.316   6.952   7.915 -0.1762  0.0748 -1.5689
10841SOL     OW37652   3.241   8.401   1.429 -0.2341  0.8789 -0.0672
10841SOL    HW137653   3.308   8.338   1.403 -0.2408  0.7491  0.2261
10841SOL    HW237654   3.205   8.365   1.510 -1.8983  0.0234 -1.1542
10842SOL     OW37655   5.454   0.532   7.126  0.0556 -0.0658  0.2432
10842SOL    HW137656   5.485   0.590   7.196 -0.1201  0.7028 -0.3044
10842SOL    HW237657   5.446   0.447   7.168  0.7406  0.2062  0.9593
10843SOL     OW37658   8.342   5.495   3.301 -0.1193  0.6118  0.1169
10843SOL    HW137659   8.412   5.476   3.239  0.8852  0.4507  1.2904
10843SOL    HW237660   8.292   5.414   3.308 -1.9589  1.4391 -2.6159
10844SOL     OW37661   9.507   3.756   0.554 -0.0827  0.6615  0.4730
10844SOL    HW137662   9.521   3.682   0.613 -0.9345 -0.2657 -0.4732
10844SOL    HW237663   9.462   3.821   0.608  1.4814  0.8572  1.5607
10845SOL     OW37664   8.627   7.037   9.881  0.0854 -0.3361  0.1478
10845SOL    HW137665   8.672   7.119   9.864  0.0191 -0.6835 -1.9060
10845SOL    HW237666   8.607   7.038   9.975  1.3677  1.3165  0.4118
10846SOL     OW37667   8.304   3.781   7.770  0.4664  0.0842  0.1111
10846SOL    HW137668   8.324   3.848   7.836  1.0789 -0.1789  0.1886
10846SOL    HW237669   8.223   3.740   7.803  1.2780 -0.6773  1.1860
10847SOL     OW37670   8.537   9.468  10.900 -0.0036  0.2156 -0.4094
10847SOL    HW137671   8.451   9.500  10.871 -0.1044  1.9535  1.6580
10847SOL    HW237672   8.527   9.373  10.906 -1.5056  0.3183 -1.0558
10848SOL     OW37673   6.150   8.244  11.273 -0.4059 -0.1284  0.6496
10848SOL    HW137674   6.124   8.282  11.189  1.8921  1.2545  0.5082
10848SOL    HW237675   6.072   8.198  11.304 -2.4777  2.4642 -0.4889
10849SOL     OW37676   8.539   2.510   8.391  0.1348 -0.2495 -0.0351
10849SOL    HW137677   8.515   2.601   8.411  0.6044 -0.0551 -0.3446
10849SOL    HW237678   8.495   2.491   8.308  0.2943 -0.1984 -0.1325
10850SOL     OW37679   8.273   9.718   0.476 -0.4305 -0.0369 -0.4255
10850SOL    HW137680   8.354   9.720   0.426 -1.1400  2.0957 -1.5615
10850SOL    HW237681   8.295   9.759   0.559 -0.0773 -0.4593 -0.3104
10851SOL     OW37682   9.755   4.719   2.512  1.0564 -0.1359 -0.8682
10851SOL    HW137683   9.662   4.740   2.522  1.5101  1.2320  0.5370
10851SOL    HW237684   9.785   4.775   2.440  1.1253  0.4545 -0.3783
10852SOL     OW37685  10.385   7.970   1.585 -0.5564 -0.5390  0.0424
10852SOL    HW137686  10.305   7.946   1.633 -1.4782  0.9523 -0.7187
10852SOL    HW237687  10.354   8.005   1.502  0.8887  0.2743 -0.1751
10853SOL     OW37688   0.446  10.249   8.358  0.1941 -0.3871  0.3625
10853SOL    HW137689   0.436  10.283   8.269  0.9724  1.5233  0.9767
10853SOL    HW237690   0.535  10.215   8.360  0.9782  1.5943  1.0244
10854SOL     OW37691   0.654   2.283   6.374  0.1839  0.2134 -0.2443
10854SOL    HW137692   0.593   2.250   6.439  0.1917 -0.3583 -0.5209
10854SOL    HW237693   0.671   2.374   6.400 -0.0684  0.0906  0.3559
10855SOL     OW37694   2.150   9.358   3.605  0.3284 -0.0513 -0.4291
10855SOL    HW137695   2.184   9.326   3.522  0.7474  0.3787 -0.4305
10855SOL    HW237696   2.127   9.279   3.655 -1.6121 -0.2788 -1.6297
10856SOL     OW37697   3.305   9.927   4.914  0.5968 -0.1095 -0.0889
10856SOL    HW137698   3.246   9.985   4.961 -1.7135 -2.8674  0.5250
10856SOL    HW237699   3.343   9.870   4.981  1.0922 -0.8040 -0.9332
10857SOL     OW37700   9.846   1.204   4.336 -0.0953  0.2835  0.5365
10857SOL    HW137701   9.913   1.214   4.268 -1.2351 -1.6725 -0.9574
10857SOL    HW237702   9.847   1.110   4.356 -1.6315  0.4156  1.2572
10858SOL     OW37703  10.004   8.512   8.608 -0.0720  0.2158  0.1299
10858SOL    HW137704   9.999   8.509   8.704  0.1929 -0.8684  0.1125
10858SOL    HW237705  10.097   8.527   8.590 -0.2265  1.1073  0.0538
10859SOL     OW37706   9.756   9.055   3.869  0.1631 -0.3315 -0.3177
10859SOL    HW137707   9.757   9.102   3.786 -1.2825 -0.7415 -0.5812
10859SOL    HW237708   9.790   8.968   3.848 -0.7734 -0.6382 -0.6351
10860SOL     OW37709  11.299   3.579  10.851 -0.0445  0.5828  0.0776
10860SOL    HW137710  11.302   3.591  10.757 -1.0446  0.7884  0.0673
10860SOL    HW237711  11.271   3.488  10.863  0.4922  0.4300  0.1721
10861SOL     OW37712   2.948   4.376   8.084 -0.4788  0.3638 -1.1267
10861SOL    HW137713   3.034   4.347   8.114 -1.3383 -1.5515 -0.3853
10861SOL    HW237714   2.963   4.410   7.996  0.9538 -0.4715 -1.2169
10862SOL     OW37715   1.484   4.713   2.232 -0.1005  0.2666  0.1835
10862SOL    HW137716   1.454   4.642   2.176 -0.3864  0.8260 -0.3849
10862SOL    HW237717   1.579   4.703   2.235 -0.3414 -1.7075  2.2643
10863SOL     OW37718   8.086   2.036   3.677 -0.4395 -0.7057  0.2565
10863SOL    HW137719   8.134   1.959   3.648  0.3841 -0.0976 -0.0485
10863SOL    HW237720   8.031   2.060   3.603  0.3285 -0.2011 -0.1556
10864SOL     OW37721   4.262   3.469   7.523 -0.0405  0.2921  0.7883
10864SOL    HW137722   4.234   3.425   7.603 -1.4988 -0.8226 -0.2902
10864SOL    HW237723   4.241   3.561   7.537 -0.4626  0.0739  1.6248
10865SOL     OW37724   4.714   0.456   5.635  0.2748 -0.0989 -0.0704
10865SOL    HW137725   4.765   0.429   5.712  0.2952 -1.0638 -0.4128
10865SOL    HW237726   4.637   0.400   5.637 -0.6880  1.2317  0.3395
10866SOL     OW37727  10.843   1.253   9.437  0.3351  0.2237 -0.0738
10866SOL    HW137728  10.862   1.209   9.520 -1.5013 -1.7963 -0.6616
10866SOL    HW237729  10.922   1.239   9.384  1.4402  1.3688  1.2407
10867SOL     OW37730  10.166   9.332   3.093 -0.3483  0.5585 -0.2057
10867SOL    HW137731  10.190   9.408   3.040 -1.0329  1.2244  0.4288
10867SOL    HW237732  10.081   9.306   3.059 -0.5883  0.7203  0.2752
10868SOL     OW37733   1.211   8.984  11.297 -0.6599 -0.2158  0.2209
10868SOL    HW137734   1.186   9.067  11.338 -0.9982  0.1498 -0.7170
10868SOL    HW237735   1.266   9.010  11.222 -0.6083 -0.8441  0.0412
10869SOL     OW37736   9.324   3.640   8.705  0.1037 -0.1721 -0.1988
10869SOL    HW137737   9.414   3.648   8.736  0.4673 -1.5502 -0.8816
10869SOL    HW237738   9.310   3.720   8.652  0.9512 -0.0061 -0.1751
10870SOL     OW37739   2.664   5.473   2.057 -0.1761  0.2173 -0.1091
10870SOL    HW137740   2.575   5.503   2.074 -0.4367 -0.7671  0.3409
10870SOL    HW237741   2.652   5.394   2.005  0.4993  1.0691 -1.5663
10871SOL     OW37742   7.981   3.786   6.594 -0.2179  0.4596 -0.1168
10871SOL    HW137743   8.076   3.781   6.600 -0.2102 -1.4854 -1.3539
10871SOL    HW237744   7.963   3.877   6.568  1.1559  1.3942  2.0898
10872SOL     OW37745  10.808   5.594   8.108 -0.1859  0.1586 -0.0147
10872SOL    HW137746  10.765   5.675   8.134 -0.6128 -0.1781  0.3580
10872SOL    HW237747  10.737   5.529   8.105  0.1729 -0.2346 -0.1416
10873SOL     OW37748  10.838   6.203   3.629  0.7868 -0.1617 -0.2747
10873SOL    HW137749  10.831   6.120   3.674  1.5447  0.1034  0.3298
10873SOL    HW237750  10.838   6.269   3.698 -1.3795  0.4519 -0.8057
10874SOL     OW37751   0.397   3.851   6.909  0.6839  0.0053 -0.7943
10874SOL    HW137752   0.348   3.933   6.897 -0.3777 -0.5435 -0.3130
10874SOL    HW237753   0.374   3.822   6.997  1.2847 -0.6679 -0.8543
10875SOL     OW37754  10.668   5.556   9.147  0.4213  0.3092  0.4565
10875SOL    HW137755  10.659   5.480   9.090  0.7816 -0.1586  1.0217
10875SOL    HW237756  10.584   5.561   9.194 -0.1420  1.1098 -0.6153
10876SOL     OW37757   4.119   4.014  10.417 -0.2534  0.2366 -0.2263
10876SOL    HW137758   4.027   4.000  10.391 -0.0422  0.7970 -1.2944
10876SOL    HW237759   4.117   4.014  10.512 -1.0969 -1.5569 -0.2273
10877SOL     OW37760  11.272   3.600   0.010 -0.2365  0.4745  0.2489
10877SOL    HW137761  11.187   3.601  -0.034  0.9911  1.3003 -2.1815
10877SOL    HW237762  11.332   3.559  -0.052  0.8447 -1.6698  2.6013
10878SOL     OW37763   7.254   1.879   7.727  0.5632 -0.1298  0.3494
10878SOL    HW137764   7.162   1.871   7.702  0.7091 -0.8477  0.0357
10878SOL    HW237765   7.302   1.881   7.644  0.7518  1.3740  0.4753
10879SOL     OW37766   1.526   0.278   8.208 -0.2638  0.3469 -0.0623
10879SOL    HW137767   1.601   0.337   8.220  0.1815 -0.0945 -0.6268
10879SOL    HW237768   1.533   0.216   8.280 -0.1066  0.3299 -0.0917
10880SOL     OW37769   5.554   5.252   3.512 -0.2504 -0.4290  0.0790
10880SOL    HW137770   5.638   5.210   3.528 -0.7664 -1.4574  0.1531
10880SOL    HW237771   5.567   5.343   3.538  0.4818 -0.8559  1.2435
10881SOL     OW37772   2.660   5.525   0.194 -0.4972  0.6162 -0.2553
10881SOL    HW137773   2.680   5.444   0.146  0.1724 -0.7622  2.2540
10881SOL    HW237774   2.564   5.524   0.201 -0.4660 -0.2032  0.1624
10882SOL     OW37775   4.441   1.548  10.428  0.0864  0.1266 -0.5467
10882SOL    HW137776   4.427   1.642  10.416 -0.2906  0.0827 -0.4455
10882SOL    HW237777   4.447   1.513  10.340 -0.7578  0.0956 -0.5906
10883SOL     OW37778   2.740  11.038   7.117 -0.5209 -0.7464  0.1797
10883SOL    HW137779   2.736  11.125   7.157  0.1152  0.2068 -1.7256
10883SOL    HW237780   2.750  10.978   7.190  3.6282  1.1487  1.3571
10884SOL     OW37781   3.037   4.549   2.800  0.3778  0.3361  0.1959
10884SOL    HW137782   3.092   4.520   2.873  0.9589 -2.7252 -1.3671
10884SOL    HW237783   2.960   4.492   2.803  0.1487  0.5477 -1.2149
10885SOL     OW37784   0.231   2.963   2.522  0.1116  0.0799 -0.3323
10885SOL    HW137785   0.149   3.004   2.550 -1.0485 -2.5478  0.2632
10885SOL    HW237786   0.206   2.875   2.494  2.7050 -0.7089 -0.3547
10886SOL     OW37787   8.090   9.980  11.053 -0.1646  0.1364  0.7689
10886SOL    HW137788   8.057   9.890  11.047 -1.3959  0.5682  1.0147
10886SOL    HW237789   8.173   9.978  11.005 -1.2568 -0.6146 -1.1057
10887SOL     OW37790   2.470   9.676   0.978 -0.1185 -0.6638  0.4231
10887SOL    HW137791   2.476   9.621   1.056  0.1951 -0.8496  0.2669
10887SOL    HW237792   2.437   9.617   0.909 -0.1873 -0.5531  0.3613
10888SOL     OW37793   7.004   2.303   1.037 -0.2146  0.2817 -0.5357
10888SOL    HW137794   7.021   2.292   0.943  1.2005 -3.2164  0.0673
10888SOL    HW237795   7.056   2.380   1.061  0.3355  0.5204 -2.3947
10889SOL     OW37796   6.311   4.911   2.137 -0.5050  0.2882 -0.1710
10889SOL    HW137797   6.377   4.957   2.085 -0.4262 -1.3587 -1.6045
10889SOL    HW237798   6.242   4.975   2.151 -0.6737  0.7027 -2.6278
10890SOL     OW37799   0.983   5.056   0.121  0.2774 -0.7163 -0.2833
10890SOL    HW137800   1.012   5.045   0.030  0.6868 -2.4145  0.0372
10890SOL    HW237801   1.062   5.078   0.169  0.4439 -1.8440 -0.0119
10891SOL     OW37802   1.066   8.346   3.117 -0.0611 -0.0870  0.1307
10891SOL    HW137803   1.063   8.282   3.046  0.8538  0.1928 -0.1626
10891SOL    HW237804   0.978   8.344   3.155 -0.8393  0.4672 -1.6175
10892SOL     OW37805   7.657  11.033   3.782  0.6244  0.3060  0.1857
10892SOL    HW137806   7.611  11.030   3.866  1.3112 -1.8000  0.5158
10892SOL    HW237807   7.733  11.088   3.799  0.2917  0.6211  0.6898
10893SOL     OW37808   2.358   8.362   4.722  0.2341  0.4739 -0.2965
10893SOL    HW137809   2.400   8.365   4.636  0.0134  0.4292 -0.4053
10893SOL    HW237810   2.361   8.452   4.753  0.4271  0.4687 -0.2953
10894SOL     OW37811   0.972   7.113   7.929 -0.0798 -0.5940  0.5125
10894SOL    HW137812   1.019   7.081   7.852 -2.7601  0.1243 -1.5015
10894SOL    HW237813   0.968   7.208   7.917  0.2348 -0.3826  1.9926
10895SOL     OW37814   4.152   5.387   6.516  0.7758 -0.4026  0.5271
10895SOL    HW137815   4.194   5.301   6.521 -0.5960 -1.1067  0.0623
10895SOL    HW237816   4.103   5.395   6.597  0.5805 -0.2353  0.3934
10896SOL     OW37817  10.606   3.742   0.722  0.3006  0.2261 -0.1368
10896SOL    HW137818  10.577   3.651   0.721 -1.0268  0.6325  0.1368
10896SOL    HW237819  10.571   3.779   0.641 -1.7408  1.2619  1.1919
10897SOL     OW37820   3.178   8.792  11.053 -0.2729 -0.0224 -0.5208
10897SOL    HW137821   3.088   8.758  11.053 -1.0866  2.0817 -1.8904
10897SOL    HW237822   3.176   8.864  11.115  1.0247 -1.3077  1.0452
10898SOL     OW37823   5.994   0.736  10.049  0.2102 -0.3666 -0.7164
10898SOL    HW137824   5.988   0.793  10.125  3.2332 -0.7564 -0.1221
10898SOL    HW237825   5.936   0.663  10.070  0.8962 -0.4063  1.1689
10899SOL     OW37826   0.562   0.525   4.714 -0.4820  0.0269 -0.2253
10899SOL    HW137827   0.537   0.434   4.732 -0.2079 -0.3491 -1.6469
10899SOL    HW237828   0.654   0.519   4.687  0.0031  0.9265  1.1893
10900SOL     OW37829   7.534  11.076   2.166 -0.1609 -0.3721  0.0317
10900SOL    HW137830   7.576  11.157   2.194 -0.0376 -0.5198  0.2704
10900SOL    HW237831   7.574  11.057   2.081  1.0227 -1.0686  0.7352
10901SOL     OW37832   6.453   8.230  10.396  0.3534 -0.0792  0.1398
10901SOL    HW137833   6.436   8.149  10.349 -2.4720 -0.0918  1.0733
10901SOL    HW237834   6.510   8.204  10.469 -0.6381 -1.2503  0.5053
10902SOL     OW37835   8.148   0.200   8.281 -0.0858 -0.4937  0.0258
10902SOL    HW137836   8.134   0.262   8.352 -0.0763 -2.6752  1.9963
10902SOL    HW237837   8.060   0.166   8.262  0.0036 -0.3959 -0.5721
10903SOL     OW37838   2.605   6.715   8.726  0.1863  0.3035 -0.4815
10903SOL    HW137839   2.588   6.631   8.684 -0.1638  0.9161 -1.5934
10903SOL    HW237840   2.593   6.698   8.819  0.7342 -1.0178 -0.6471
10904SOL     OW37841   6.169   1.627   9.853  0.3655  0.0548 -0.5171
10904SOL    HW137842   6.240   1.639   9.790  1.5042  0.0026  0.7348
10904SOL    HW237843   6.210   1.639   9.938 -0.7632 -1.7342  0.3111
10905SOL     OW37844   9.824   1.313   2.826 -0.0536  0.5164 -0.5536
10905SOL    HW137845   9.772   1.233   2.829  0.0662  0.3996 -1.4217
10905SOL    HW237846   9.913   1.285   2.846 -0.2346  0.6360  0.4224
10906SOL     OW37847   7.030   2.151   8.327  0.1884 -0.5028 -0.2397
10906SOL    HW137848   7.048   2.240   8.358 -1.9085  0.0803 -0.5951
10906SOL    HW237849   7.045   2.156   8.232 -1.0288 -0.1943 -0.4338
10907SOL     OW37850   8.311   3.678   1.964  0.1485  0.0673  0.3906
10907SOL    HW137851   8.270   3.599   1.930  1.9535 -1.5970  1.9315
10907SOL    HW237852   8.293   3.745   1.898  2.2095 -2.6273 -3.0800
10908SOL     OW37853   4.961  11.320   2.103  0.1836 -0.0072 -0.4321
10908SOL    HW137854   4.918  11.294   2.022  0.5058  0.8876 -0.9084
10908SOL    HW237855   4.911  11.278   2.172 -0.1426 -0.7147 -1.0953
10909SOL     OW37856   8.825   8.735   6.645  0.3720 -0.1592 -0.5218
10909SOL    HW137857   8.885   8.683   6.592  0.6849 -0.7338  0.3720
10909SOL    HW237858   8.837   8.701   6.734  1.6525  2.4025  0.3493
10910SOL     OW37859   4.714   3.901   5.912 -0.6227 -0.3432 -0.3514
10910SOL    HW137860   4.748   3.815   5.936  1.9916  0.4909 -0.8650
10910SOL    HW237861   4.733   3.957   5.987  0.8853  0.5558 -1.3609
10911SOL     OW37862   5.577   3.826   1.572 -0.2058 -0.2736 -0.1727
10911SOL    HW137863   5.614   3.782   1.496  0.8085  0.3878 -0.0749
10911SOL    HW237864   5.565   3.757   1.637  1.3415 -0.4373 -0.0333
10912SOL     OW37865   1.854   1.696   5.931  0.3379  0.4762 -0.1915
10912SOL    HW137866   1.794   1.675   6.002  2.8701  0.6516  2.1001
10912SOL    HW237867   1.858   1.792   5.931  0.1205  0.4847 -0.7579
10913SOL     OW37868   0.100   4.265   6.574 -0.1417 -0.0593 -0.0017
10913SOL    HW137869   0.191   4.244   6.595  0.7731  1.2467 -2.5168
10913SOL    HW237870   0.049   4.216   6.639  2.3851  0.5076  2.5275
10914SOL     OW37871   3.172   0.395   5.971 -0.6374  0.3440 -0.2223
10914SOL    HW137872   3.090   0.445   5.976 -0.7334  0.2554 -0.8742
10914SOL    HW237873   3.240   0.457   5.996 -0.7900  0.7212 -0.7323
10915SOL     OW37874   2.708  10.765   8.505 -0.1238  0.5454 -0.5237
10915SOL    HW137875   2.629  10.801   8.465 -1.1762 -2.9583 -1.8080
10915SOL    HW237876   2.679  10.730   8.589  0.2060 -0.0441 -0.6509
10916SOL     OW37877   9.437   8.156   6.141 -0.9300 -0.2241  0.2126
10916SOL    HW137878   9.501   8.095   6.178 -1.4185  0.3591  2.0495
10916SOL    HW237879   9.352   8.116   6.158 -1.2383  0.8291  1.2012
10917SOL     OW37880  10.324   1.432   7.865 -0.5275 -0.8043  0.1109
10917SOL    HW137881  10.402   1.392   7.904 -0.2397 -0.0200  0.3573
10917SOL    HW237882  10.255   1.416   7.929  0.1141  1.1632  1.3319
10918SOL     OW37883   3.320   6.069   0.677 -0.1311  0.3164  0.4720
10918SOL    HW137884   3.374   6.145   0.656 -1.9075  1.4444 -0.0250
10918SOL    HW237885   3.246   6.104   0.727 -2.0955 -0.7774 -1.5908
10919SOL     OW37886   6.043   9.140   2.907  0.3218 -0.0954  0.1277
10919SOL    HW137887   5.986   9.216   2.903 -0.1758 -0.5063 -0.5715
10919SOL    HW237888   6.047   9.118   3.001 -0.0196  0.4069  0.2622
10920SOL     OW37889   3.141  10.020   7.125  0.0088 -0.1119 -0.0585
10920SOL    HW137890   3.179  10.107   7.114  0.3931 -0.2809 -0.0693
10920SOL    HW237891   3.177   9.988   7.207  0.9581 -0.8146 -0.7362
10921SOL     OW37892   8.497   8.976   5.669  0.1068  0.4376 -0.2898
10921SOL    HW137893   8.416   8.956   5.716  1.9870 -3.3130  1.5309
10921SOL    HW237894   8.533   9.052   5.716  0.4254 -1.3744  2.4768
10922SOL     OW37895   0.621   0.947   7.574 -0.4553  0.7924 -0.0254
10922SOL    HW137896   0.639   0.953   7.480 -2.4508 -0.0680 -0.4743
10922SOL    HW237897   0.526   0.941   7.580 -0.3092  0.3584  2.0285
10923SOL     OW37898   2.256   4.137   5.260 -0.0904  0.0506 -0.3519
10923SOL    HW137899   2.334   4.148   5.206  0.4679 -0.9974  0.2266
10923SOL    HW237900   2.256   4.045   5.284 -0.3176  0.5101  1.4606
10924SOL     OW37901  10.870   8.670  10.861  0.5551  0.2574 -0.5975
10924SOL    HW137902  10.779   8.671  10.888  0.7851  1.1303  0.1851
10924SOL    HW237903  10.914   8.615  10.926  0.1922 -2.1996 -2.3664
10925SOL     OW37904   9.625   6.966   1.919 -0.0513  0.3314  0.2477
10925SOL    HW137905   9.674   6.908   1.977 -0.3708  0.4865  0.6764
10925SOL    HW237906   9.690   7.027   1.884  0.2274 -0.0749  0.0531
10926SOL     OW37907   7.239   9.004   2.293 -0.0458 -0.6191 -0.4032
10926SOL    HW137908   7.164   9.055   2.323 -0.3978 -0.3685 -1.6495
10926SOL    HW237909   7.242   8.929   2.352 -0.5788 -0.0457  0.3674
10927SOL     OW37910   6.310   0.731   4.109  1.1223  0.2580 -0.1661
10927SOL    HW137911   6.250   0.738   4.183 -0.1891  0.7515 -1.2599
10927SOL    HW237912   6.329   0.637   4.102  0.0176  0.0346 -0.1723
10928SOL     OW37913   9.839   8.817   5.486 -0.6481  0.1175  0.2439
10928SOL    HW137914   9.916   8.873   5.473  1.4644 -2.6965  0.2325
10928SOL    HW237915   9.848   8.748   5.420 -2.4123 -1.0494  1.1828
10929SOL     OW37916   4.644   1.271   3.210 -0.2792  0.3359 -0.4780
10929SOL    HW137917   4.659   1.209   3.140  2.3881 -0.6521  0.9073
10929SOL    HW237918   4.648   1.357   3.168 -3.2264 -0.3475 -2.2613
10930SOL     OW37919   7.542   8.911   8.139 -0.0186  0.3249 -0.0391
10930SOL    HW137920   7.636   8.897   8.122  0.2214  0.2434  1.2882
10930SOL    HW237921   7.508   8.823   8.154 -0.4647  0.2842 -1.2522
10931SOL     OW37922   0.692   0.274   9.386  0.3015  0.7226  0.3130
10931SOL    HW137923   0.635   0.340   9.425  1.3518  2.1953 -0.5802
10931SOL    HW237924   0.676   0.280   9.292  0.8582  0.1415  0.1738
10932SOL     OW37925   8.586   4.681   2.733  0.4190  0.1720 -0.1344
10932SOL    HW137926   8.647   4.650   2.800 -2.8175 -2.8819  1.5873
10932SOL    HW237927   8.565   4.771   2.759  0.9444 -0.2083  1.6844
10933SOL     OW37928   8.092   3.575   6.964 -0.5827 -0.1439  0.0742
10933SOL    HW137929   8.032   3.523   6.910 -0.8369  0.1356  0.0915
10933SOL    HW237930   8.036   3.636   7.011 -0.1421  1.1365 -1.0239
10934SOL     OW37931   4.193   0.070   6.743 -0.1042  0.0864 -0.1104
10934SOL    HW137932   4.280   0.100   6.770 -0.5934  0.7171  0.7989
10934SOL    HW237933   4.195  -0.024   6.758  0.0190  0.2675  1.0572
10935SOL     OW37934   2.805   9.446   7.949  0.1293 -0.4626 -0.5148
10935SOL    HW137935   2.742   9.448   8.020  1.7004  2.4552  0.9021
10935SOL    HW237936   2.887   9.419   7.991  0.7314 -0.2448 -1.5327
10936SOL     OW37937   6.348   9.971   2.492 -0.5553 -0.8100 -0.3574
10936SOL    HW137938   6.345   9.884   2.451 -0.6178 -0.5894 -0.8249
10936SOL    HW237939   6.372   9.953   2.583  0.4220 -1.2525 -0.6833
10937SOL     OW37940  11.268  11.032   7.832 -0.1447 -0.0224 -0.8265
10937SOL    HW137941  11.332  11.099   7.855 -1.1307  0.7705 -0.3366
10937SOL    HW237942  11.266  11.032   7.736  0.0670  0.4388 -0.8299
10938SOL     OW37943   1.345   4.569  10.324 -0.3733  0.3128  0.1601
10938SOL    HW137944   1.405   4.494  10.328  0.6279  0.8981 -2.6657
10938SOL    HW237945   1.403   4.644  10.312 -1.5655  1.0944 -0.7301
10939SOL     OW37946   1.622  10.265   5.626  0.6389  0.0087  0.0122
10939SOL    HW137947   1.539  10.311   5.618  0.2718 -0.6602 -0.0118
10939SOL    HW237948   1.672  10.291   5.548  1.2896  2.0785  1.0606
10940SOL     OW37949   9.320   7.158   6.330 -0.0405  0.0271 -0.7966
10940SOL    HW137950   9.399   7.167   6.383 -0.1244  1.2990 -0.8885
10940SOL    HW237951   9.316   7.064   6.309  0.2790 -0.4028  0.9802
10941SOL     OW37952   7.286   3.543   6.406  0.2105 -0.4436  0.6422
10941SOL    HW137953   7.207   3.588   6.377  0.4234 -0.0490  0.6754
10941SOL    HW237954   7.338   3.532   6.327  0.4208 -0.1055  0.7322
10942SOL     OW37955   1.959   9.008   7.054  0.1348  0.0421  0.5008
10942SOL    HW137956   2.018   9.070   7.012  0.8249  0.9327  2.6979
10942SOL    HW237957   1.881   9.007   6.999  0.2030  2.7167  0.3130
10943SOL     OW37958   1.123   0.788   1.718  0.0283  0.1736 -0.0838
10943SOL    HW137959   1.161   0.841   1.788  0.9909  2.5754 -2.3685
10943SOL    HW237960   1.194   0.778   1.654 -0.8601 -1.9127 -0.8077
10944SOL     OW37961   5.949   0.705   5.930 -0.2224  0.4393 -0.4491
10944SOL    HW137962   5.881   0.690   5.864 -1.0081 -1.4616  0.7192
10944SOL    HW237963   6.010   0.765   5.889 -0.9862 -0.2655 -2.7016
10945SOL     OW37964   7.132   5.380   7.033  0.1181  0.0735  0.0639
10945SOL    HW137965   7.220   5.419   7.027 -0.2489  0.8723 -0.2091
10945SOL    HW237966   7.121   5.360   7.126  1.5709 -2.3557 -0.2441
10946SOL     OW37967  10.790   7.499   7.496 -0.0756 -0.2579  0.5837
10946SOL    HW137968  10.738   7.574   7.525  1.3249  1.3642 -0.9666
10946SOL    HW237969  10.787   7.503   7.401  2.8887 -0.0987  0.4433
10947SOL     OW37970   0.818   8.859   8.722  0.8780 -0.3283 -0.1872
10947SOL    HW137971   0.746   8.834   8.664  2.3202 -1.5656 -1.4949
10947SOL    HW237972   0.814   8.955   8.725 -1.3797 -0.4167  0.5302
10948SOL     OW37973   2.146  10.504   6.961  0.0331  0.3254 -0.3634
10948SOL    HW137974   2.057  10.495   6.994 -0.0555 -1.7441 -1.0641
10948SOL    HW237975   2.172  10.593   6.984 -1.7261  0.4989  1.0162
10949SOL     OW37976   1.192   2.339   9.626  0.0872 -0.0779 -0.6765
10949SOL    HW137977   1.123   2.292   9.673  0.0184 -0.4609 -1.1580
10949SOL    HW237978   1.269   2.330   9.683 -0.1758  0.0775 -0.2935
10950SOL     OW37979   9.821   3.980   2.398 -0.1225  0.4254 -0.1822
10950SOL    HW137980   9.726   3.976   2.414 -0.3813 -0.1533 -1.7627
10950SOL    HW237981   9.847   4.065   2.432 -0.9042 -0.1146  1.8255
10951SOL     OW37982   8.320   9.292   0.321 -0.8560 -0.2705  0.1217
10951SOL    HW137983   8.249   9.323   0.377 -0.1626 -2.4312  2.2899
10951SOL    HW237984   8.276   9.251   0.246 -1.8325  0.6649  0.1773
10952SOL     OW37985   3.933   8.513   1.916  0.0222  0.6449  0.5212
10952SOL    HW137986   4.012   8.555   1.882 -0.4156 -1.0145 -2.8099
10952SOL    HW237987   3.861   8.559   1.874 -0.5209 -1.9623 -1.5452
10953SOL     OW37988   4.265   7.011   1.050 -0.7349  0.3636  0.4079
10953SOL    HW137989   4.265   7.041   1.141 -0.8966 -0.5091  0.7054
10953SOL    HW237990   4.307   6.924   1.054  3.0976  2.0312 -0.9216
10954SOL     OW37991   8.039   4.048   7.262 -0.0080  0.5139  0.0258
10954SOL    HW137992   8.019   4.141   7.251 -0.0587  0.5301  0.2588
10954SOL    HW237993   8.117   4.034   7.208  0.9621  1.0378  1.2898
10955SOL     OW37994   1.686   7.813   5.960  0.4691 -0.8080 -0.0936
10955SOL    HW137995   1.677   7.718   5.969 -2.3119 -0.6037 -0.2006
10955SOL    HW237996   1.599   7.843   5.931  1.2010  1.8051  0.2590
10956SOL     OW37997   1.805   6.701  10.534  0.4594 -0.1947 -0.0582
10956SOL    HW137998   1.776   6.733  10.449 -1.0195 -0.7251  0.2357
10956SOL    HW237999   1.877   6.760  10.558 -0.8990  1.6733 -0.4330
10957SOL     OW38000   7.850   9.292   0.399 -0.7711  0.1355 -0.5725
10957SOL    HW138001   7.809   9.210   0.373  0.3809 -0.0675 -1.8304
10957SOL    HW238002   7.791   9.360   0.366 -0.7639 -0.1690 -1.2208
10958SOL     OW38003   2.596   1.940   9.530 -0.6037  0.0424  0.0805
10958SOL    HW138004   2.520   1.934   9.589 -0.1645  1.6028  0.8296
10958SOL    HW238005   2.568   2.003   9.462 -0.8585 -1.2273 -1.0055
10959SOL     OW38006   2.812   4.151  10.979  0.1763 -0.4623  0.1522
10959SOL    HW138007   2.872   4.223  10.961  2.0707 -1.7565  1.0647
10959SOL    HW238008   2.774   4.173  11.064 -1.7928  1.0806 -1.0865
10960SOL     OW38009   4.549  11.192   9.889  0.1416  0.3182 -0.2589
10960SOL    HW138010   4.525  11.263   9.948 -0.3230 -0.0308 -0.0241
10960SOL    HW238011   4.466  11.164   9.851  0.0136 -1.7016  1.4575
10961SOL     OW38012   6.484   8.588   9.284 -0.2970  0.5792 -0.5111
10961SOL    HW138013   6.456   8.497   9.280  1.7110 -0.0503 -0.7572
10961SOL    HW238014   6.403   8.638   9.282 -1.3024 -1.0919 -3.5276
10962SOL     OW38015   1.187   0.708   2.563 -0.1620  0.6048  0.4950
10962SOL    HW138016   1.099   0.680   2.539  0.5610  0.3505 -1.9774
10962SOL    HW238017   1.203   0.669   2.649 -1.3908 -1.6831 -0.2953
10963SOL     OW38018   6.018   8.994   9.784 -0.4120  0.0377 -0.6202
10963SOL    HW138019   5.939   9.045   9.764  0.3887  1.2460 -0.7296
10963SOL    HW238020   6.026   8.932   9.712  0.1130  1.5689 -1.9077
10964SOL     OW38021   3.639   5.807   6.185  0.2437  0.3493 -0.0490
10964SOL    HW138022   3.692   5.728   6.171  0.3243  0.2444  0.8077
10964SOL    HW238023   3.703   5.874   6.210  0.1014  0.5219 -0.1518
10965SOL     OW38024   4.279   4.176   3.652 -0.5325 -0.4076 -0.2863
10965SOL    HW138025   4.308   4.144   3.737 -1.1091  1.7932  0.7707
10965SOL    HW238026   4.232   4.103   3.613 -1.3203 -1.0442  1.8090
10966SOL     OW38027   4.112   3.390  10.027  0.5609  0.5706 -0.2549
10966SOL    HW138028   4.191   3.388  10.081  0.2181  0.6469  0.2504
10966SOL    HW238029   4.052   3.446  10.074 -0.3333 -0.6847  0.1203
10967SOL     OW38030   4.875   3.359   2.616  0.1305  0.2562  0.0480
10967SOL    HW138031   4.859   3.320   2.530 -0.7861 -1.6502  1.0537
10967SOL    HW238032   4.799   3.415   2.632  0.9294  1.6731 -0.9176
10968SOL     OW38033   5.556   4.466   1.995  0.2897 -0.4684  0.1629
10968SOL    HW138034   5.463   4.481   1.980  0.2356 -1.9311 -1.1686
10968SOL    HW238035   5.598   4.548   1.970 -0.5598 -0.1316 -0.1661
10969SOL     OW38036   4.489   8.360   0.481  0.2102  0.4990  0.0649
10969SOL    HW138037   4.415   8.306   0.455  0.2666  0.0831  0.7598
10969SOL    HW238038   4.529   8.387   0.399 -1.3109  1.5593 -0.3504
10970SOL     OW38039   0.931   4.863  10.686  0.1534 -0.3679  0.4986
10970SOL    HW138040   0.918   4.805  10.611  1.3811  0.7306 -0.6052
10970SOL    HW238041   0.849   4.913  10.693  0.1644 -0.2290 -0.3354
10971SOL     OW38042   2.087  10.375   5.258 -0.3316 -0.2671  0.1898
10971SOL    HW138043   1.996  10.354   5.237  0.0732 -1.1540 -0.7150
10971SOL    HW238044   2.102  10.337   5.344 -0.5312 -0.9890 -0.0930
10972SOL     OW38045   6.538   6.182   5.364 -0.4894  0.0802 -0.0992
10972SOL    HW138046   6.522   6.269   5.400  0.0125  0.7263 -1.4030
10972SOL    HW238047   6.487   6.123   5.420  0.1687  1.0609  1.5535
10973SOL     OW38048   9.404   7.094   2.552 -0.0909 -0.1919  0.1538
10973SOL    HW138049   9.496   7.121   2.548 -1.3117  4.8153  2.3088
10973SOL    HW238050   9.363   7.136   2.477 -1.1698 -0.0094  0.8368
10974SOL     OW38051   9.615   3.535   6.110 -0.5074  0.2683  0.0070
10974SOL    HW138052   9.523   3.535   6.085 -1.0722  0.8724  2.0001
10974SOL    HW238053   9.646   3.623   6.089  0.0089 -0.3693 -1.9850
10975SOL     OW38054   0.290   5.125   7.634 -0.5056  0.1706  0.2586
10975SOL    HW138055   0.306   5.036   7.604  0.0228  0.6049 -0.8082
10975SOL    HW238056   0.231   5.116   7.709  2.1457 -1.2910  2.2432
10976SOL     OW38057  10.313   7.511   0.027  0.4942  0.1168  0.4238
10976SOL    HW138058  10.349   7.600   0.031  1.8760 -0.4240  0.1853
10976SOL    HW238059  10.267   7.508  -0.058 -1.0996  1.1509  1.2085
10977SOL     OW38060   2.701   1.397   7.236  0.4084  0.5877 -0.1961
10977SOL    HW138061   2.725   1.435   7.320  1.1071 -0.2981  0.0144
10977SOL    HW238062   2.701   1.470   7.175  3.4540  0.6801 -0.1639
10978SOL     OW38063   2.866   8.600   3.262  0.1758 -0.0166  0.2003
10978SOL    HW138064   2.796   8.556   3.309  0.7934  0.4159  1.5355
10978SOL    HW238065   2.944   8.590   3.317  0.7749  1.0108 -0.4305
10979SOL     OW38066   2.853   2.179   0.805 -0.3381 -0.2960  0.0098
10979SOL    HW138067   2.871   2.099   0.854  1.4406  0.4193  0.5899
10979SOL    HW238068   2.870   2.156   0.713  1.1876 -0.3336  0.2830
10980SOL     OW38069   1.283   2.574   2.655 -1.2282 -0.1672  0.0690
10980SOL    HW138070   1.348   2.505   2.646 -0.5227  0.3200  1.3105
10980SOL    HW238071   1.208   2.542   2.605 -1.4082 -2.4583  1.6971
10981SOL     OW38072  10.720   1.784  11.023 -0.3617 -0.5754  0.7155
10981SOL    HW138073  10.790   1.827  11.072 -0.0134 -1.6528  1.1646
10981SOL    HW238074  10.678   1.855  10.974  0.9063  0.1015  0.6061
10982SOL     OW38075  10.369   4.676   8.649  0.0365 -0.2029  0.1059
10982SOL    HW138076  10.414   4.593   8.659  0.3632 -0.0108  0.2209
10982SOL    HW238077  10.346   4.702   8.738  1.9291  0.9409  0.2883
10983SOL     OW38078   5.112   6.846  11.143  0.8290 -0.0892 -0.4689
10983SOL    HW138079   5.064   6.765  11.164  0.1462  0.5487  0.4764
10983SOL    HW238080   5.172   6.821  11.073  0.6159 -1.4191 -0.1875
10984SOL     OW38081   2.011   3.928   3.744 -0.0033 -0.3051  0.3010
10984SOL    HW138082   2.058   3.986   3.803  0.9227  0.7152 -1.3999
10984SOL    HW238083   1.991   3.850   3.797 -0.8534  1.3452  2.4672
10985SOL     OW38084   4.474   5.096   8.287 -0.5623 -0.2643 -0.7336
10985SOL    HW138085   4.390   5.063   8.256 -1.5619  0.6263  1.0013
10985SOL    HW238086   4.457   5.186   8.315  0.8665 -0.2022 -0.0084
10986SOL     OW38087  10.496   7.285   3.912  0.4328 -0.6487 -0.3349
10986SOL    HW138088  10.566   7.339   3.951  0.1572  2.2928 -3.5994
10986SOL    HW238089  10.541   7.231   3.847 -0.0718 -0.0318 -1.2049
10987SOL     OW38090   7.183   0.582   7.778  0.0521 -0.1539  0.1064
10987SOL    HW138091   7.215   0.581   7.688  0.7618  0.4545  0.3476
10987SOL    HW238092   7.189   0.491   7.807  3.1034  0.1775  0.6767
10988SOL     OW38093   9.022   1.701   3.728  0.3549 -0.3385 -0.9740
10988SOL    HW138094   8.961   1.767   3.760  2.8047  1.6453 -0.3273
10988SOL    HW238095   8.997   1.688   3.636 -0.6997  0.7971 -0.8574
10989SOL     OW38096   9.943   7.169   5.640 -0.3002  0.0862 -0.5704
10989SOL    HW138097  10.025   7.144   5.598  0.8065  1.7788  0.5141
10989SOL    HW238098   9.967   7.186   5.731 -1.9794  0.0031 -0.0914
10990SOL     OW38099   9.090   4.489  11.021  0.3613  0.5161 -0.7745
10990SOL    HW138100   9.126   4.564  10.973  0.8124  2.3411  2.2616
10990SOL    HW238101   9.167   4.446  11.059 -0.0201 -0.6271 -1.2857
10991SOL     OW38102   2.086   0.290   4.608  0.2399 -0.1596  0.3985
10991SOL    HW138103   2.128   0.376   4.601 -0.4727  0.2159  0.6564
10991SOL    HW238104   2.094   0.267   4.700 -0.7411  0.2406  0.5915
10992SOL     OW38105   5.137   7.781   2.603  0.7079 -0.5924  0.0236
10992SOL    HW138106   5.216   7.734   2.631 -0.1963 -1.9682  0.3394
10992SOL    HW238107   5.067   7.715   2.608 -0.5162  0.6816  0.0506
10993SOL     OW38108   0.592   5.029   7.602  0.1349 -0.1683 -0.1840
10993SOL    HW138109   0.543   4.960   7.559  0.2045  0.5657 -1.4730
10993SOL    HW238110   0.564   5.026   7.693  0.2406 -1.9653 -0.1996
10994SOL     OW38111  11.280   8.260   3.072 -0.2340  0.0227  0.0339
10994SOL    HW138112  11.231   8.333   3.033 -0.6283  0.5315  1.4505
10994SOL    HW238113  11.257   8.184   3.019 -1.1144  0.6248 -0.4505
10995SOL     OW38114   6.039   3.502   7.986  0.1483  0.1626 -0.0592
10995SOL    HW138115   6.035   3.537   7.897  1.0531  0.5880  0.0591
10995SOL    HW238116   6.133   3.487   8.001 -0.0076  0.0252  0.7910
10996SOL     OW38117   3.568   9.272   3.581 -0.6390 -0.0371 -0.2603
10996SOL    HW138118   3.517   9.192   3.590  1.9738 -1.6844  0.5867
10996SOL    HW238119   3.559   9.296   3.488 -2.9814 -0.2074 -0.0939
10997SOL     OW38120   0.077   0.790   2.242 -0.4259 -0.3871 -0.1713
10997SOL    HW138121   0.032   0.831   2.316 -0.2311  0.3888 -0.4776
10997SOL    HW238122   0.016   0.723   2.211  0.7909 -2.8574  2.6235
10998SOL     OW38123  10.081   5.036   9.596 -0.0973  0.0987 -0.3676
10998SOL    HW138124  10.167   4.999   9.574  0.3806  1.9738 -1.8410
10998SOL    HW238125  10.035   4.966   9.641  1.9227 -1.2061 -0.2728
10999SOL     OW38126   5.281   0.751   5.004 -0.3470 -0.0941 -0.1091
10999SOL    HW138127   5.317   0.804   4.933  0.7135 -0.5275  0.1011
10999SOL    HW238128   5.355   0.700   5.036 -1.0287 -0.5923  0.6926
11000SOL     OW38129  10.412  11.190   6.418 -0.3003  0.3558  0.5547
11000SOL    HW138130  10.390  11.129   6.348 -1.6711  2.4802 -0.9196
11000SOL    HW238131  10.495  11.157   6.453 -0.2001 -1.4207 -1.2484
11001SOL     OW38132   4.209   5.942   3.277  0.2073  0.3295  0.2678
11001SOL    HW138133   4.177   6.029   3.298 -0.2458  0.5839 -1.4744
11001SOL    HW238134   4.190   5.930   3.184 -0.5293 -1.9507  0.6648
11002SOL     OW38135   0.403   3.914   3.247 -0.0777 -0.7391  0.1629
11002SOL    HW138136   0.424   4.006   3.233 -1.7581 -0.3986 -0.3469
11002SOL    HW238137   0.447   3.891   3.329 -1.0919  1.0282  1.2390
11003SOL     OW38138   8.511   6.674   7.703  0.5102  0.7101 -0.0780
11003SOL    HW138139   8.469   6.618   7.638  0.4706  1.8705 -1.0593
11003SOL    HW238140   8.576   6.617   7.745 -1.0901 -0.7293  0.5493
11004SOL     OW38141   6.897   3.539   7.844  0.6561  0.2017  0.1097
11004SOL    HW138142   6.962   3.543   7.773 -1.0201 -2.5646 -1.6847
11004SOL    HW238143   6.817   3.507   7.801 -0.8345 -0.0862  2.9848
11005SOL     OW38144  10.645  10.218   6.928 -0.1857  0.1554 -0.5627
11005SOL    HW138145  10.720  10.276   6.923  0.0713 -0.3149 -2.7024
11005SOL    HW238146  10.682  10.132   6.950  0.0297 -0.2403 -2.3655
11006SOL     OW38147   4.628   0.662   8.683  0.5810 -0.6301 -0.4010
11006SOL    HW138148   4.677   0.581   8.665  0.9546 -0.5671  0.2973
11006SOL    HW238149   4.676   0.702   8.756  1.0232  0.7625 -1.4564
11007SOL     OW38150   3.882   0.688   6.226 -0.3310  0.3290  0.8325
11007SOL    HW138151   3.953   0.720   6.281 -0.7812  1.1019  0.9567
11007SOL    HW238152   3.870   0.756   6.160  0.5150 -0.7930 -0.5047
11008SOL     OW38153   0.962   4.195  10.679  0.7373  0.4346  0.5476
11008SOL    HW138154   0.923   4.203  10.592 -0.6971 -0.2414  1.1080
11008SOL    HW238155   0.978   4.101  10.690 -0.1204  0.3795  1.4321
11009SOL     OW38156   3.364   7.467   2.139 -0.0265  0.0423 -0.4557
11009SOL    HW138157   3.271   7.460   2.160 -0.0756 -0.9381 -0.9616
11009SOL    HW238158   3.408   7.457   2.223 -0.3431 -0.4526 -0.3471
11010SOL     OW38159   5.737   1.253   5.253 -0.1959  0.2118 -0.0231
11010SOL    HW138160   5.727   1.329   5.197 -2.0623 -0.8681 -1.1928
11010SOL    HW238161   5.719   1.286   5.341  0.6806  1.4571 -0.2897
11011SOL     OW38162  10.539   8.139  11.094 -0.1082  0.4216 -0.6590
11011SOL    HW138163  10.553   8.189  11.175 -0.3448  0.4282 -0.6188
11011SOL    HW238164  10.443   8.136  11.085 -0.1149 -0.6099 -0.2997
11012SOL     OW38165   2.150  11.138   8.595  0.7212 -0.1943 -0.2846
11012SOL    HW138166   2.073  11.171   8.641 -0.4205 -2.6929 -0.3105
11012SOL    HW238167   2.133  11.156   8.503  0.5277 -0.0604 -0.2239
11013SOL     OW38168   9.853   2.068   3.006  0.4478 -0.9556 -0.3619
11013SOL    HW138169   9.883   2.009   2.936  0.2906  0.9351 -2.0718
11013SOL    HW238170   9.860   2.155   2.968  2.4052  0.3131  2.7457
11014SOL     OW38171   2.167  10.806   2.852  0.3618 -0.2122  0.1732
11014SOL    HW138172   2.087  10.849   2.820  0.5762 -0.5302 -0.7979
11014SOL    HW238173   2.135  10.743   2.918 -0.1555 -0.0931  0.0409
11015SOL     OW38174   9.141  10.769   8.726 -0.0928  0.1352 -0.1762
11015SOL    HW138175   9.101  10.699   8.675 -0.2366  0.6003 -0.7170
11015SOL    HW238176   9.206  10.726   8.781  0.6375 -0.2842 -1.3469
11016SOL     OW38177   3.788   1.485   6.708 -0.0392 -0.0095 -0.2447
11016SOL    HW138178   3.869   1.529   6.733  0.8384 -0.7096 -1.7063
11016SOL    HW238179   3.742   1.549   6.653  0.2918 -0.1666 -0.7166
11017SOL     OW38180   0.338  10.529   3.782 -0.1213  0.1371  0.1010
11017SOL    HW138181   0.316  10.551   3.692  2.0782 -0.3446 -0.5933
11017SOL    HW238182   0.281  10.456   3.805 -0.6058  0.1937 -0.9409
11018SOL     OW38183   4.426   6.474   1.595 -0.6742 -0.2784  0.2514
11018SOL    HW138184   4.357   6.461   1.659 -1.3948  1.2485 -0.1691
11018SOL    HW238185   4.408   6.561   1.558  0.2189 -0.7586 -1.3872
11019SOL     OW38186   6.460   8.684   1.447  0.4159  0.6924  0.1005
11019SOL    HW138187   6.555   8.689   1.440  0.2412  2.0839 -1.8665
11019SOL    HW238188   6.442   8.688   1.541  2.2217  1.9976  0.4096
11020SOL     OW38189   8.466   1.090  10.574  0.7304  0.3989 -0.3489
11020SOL    HW138190   8.380   1.131  10.575 -0.0371 -1.1799  1.2897
11020SOL    HW238191   8.524   1.156  10.611  0.4103  1.7621 -2.1719
11021SOL     OW38192   6.112   0.903   0.554  0.7357  0.3338 -0.2004
11021SOL    HW138193   6.128   0.818   0.595  1.6150  0.4630 -0.2655
11021SOL    HW238194   6.019   0.903   0.534  0.4235  0.0033  1.2022
11022SOL     OW38195   7.261  11.331   4.588  0.1228 -0.1543 -0.0837
11022SOL    HW138196   7.268  11.279   4.508 -0.8002 -1.1043  0.4403
11022SOL    HW238197   7.326  11.400   4.577  0.1638 -0.4012 -1.5576
11023SOL     OW38198   4.049   3.248   6.499 -0.4771  0.4485 -0.3045
11023SOL    HW138199   3.969   3.203   6.526 -0.6692  0.7237 -0.4055
11023SOL    HW238200   4.071   3.211   6.414 -0.9736  0.9703 -0.6651
11024SOL     OW38201   8.621   6.372   7.457 -0.1355 -0.1888  0.0991
11024SOL    HW138202   8.623   6.428   7.380 -0.2699  1.4607  1.2719
11024SOL    HW238203   8.533   6.335   7.458 -0.2706  0.1207 -0.3164
11025SOL     OW38204   9.159   9.585   1.629 -0.8701 -0.1422 -0.2401
11025SOL    HW138205   9.253   9.597   1.618 -0.7826  0.1469  0.7428
11025SOL    HW238206   9.120   9.633   1.557 -0.2416 -0.8330 -1.0500
11026SOL     OW38207   1.864   5.913   7.428 -0.1658 -0.6825  0.7999
11026SOL    HW138208   1.849   5.979   7.360  0.2811 -1.1478  0.2408
11026SOL    HW238209   1.959   5.907   7.435 -0.1735 -2.4622 -0.3347
11027SOL     OW38210   7.020   0.398   2.185  0.5062  0.4005  0.5636
11027SOL    HW138211   7.058   0.311   2.195  3.2740  1.4915  0.0077
11027SOL    HW238212   6.990   0.422   2.273 -0.5559 -1.2141  0.6526
11028SOL     OW38213   6.341   6.714   9.496 -0.6148 -0.7187 -0.3135
11028SOL    HW138214   6.251   6.744   9.482  0.0211  0.9807 -0.8860
11028SOL    HW238215   6.392   6.759   9.429  0.9100 -0.4097  1.0117
11029SOL     OW38216   4.858  11.038   5.579  0.2657 -0.1507  0.8755
11029SOL    HW138217   4.914  11.004   5.649  1.1329 -0.8383 -0.1376
11029SOL    HW238218   4.904  11.014   5.498 -1.1803 -0.1544  0.0482
11030SOL     OW38219   1.513  11.060  11.123  0.5019  1.3506 -0.2052
11030SOL    HW138220   1.573  11.027  11.189 -0.2975 -0.1288 -0.1916
11030SOL    HW238221   1.564  11.124  11.073  2.0882  0.0968 -0.2221
11031SOL     OW38222   7.225   4.117   5.233 -0.0588 -0.5531  0.4201
11031SOL    HW138223   7.147   4.156   5.270 -1.3419 -1.1767 -1.5477
11031SOL    HW238224   7.215   4.126   5.139  2.3737 -0.4058  0.1301
11032SOL     OW38225   5.499   2.408   7.582  0.5283  0.9407 -0.0764
11032SOL    HW138226   5.528   2.476   7.642  0.6623 -1.7039  2.9644
11032SOL    HW238227   5.579   2.365   7.553  0.2449 -0.2458  0.8663
11033SOL     OW38228   4.619   2.842   4.497 -0.0986  0.5225  0.5727
11033SOL    HW138229   4.620   2.751   4.469  1.3937  0.7830 -0.3302
11033SOL    HW238230   4.532   2.874   4.473 -0.9515 -0.8855  1.7255
11034SOL     OW38231   9.146   4.132   2.385  0.2492  0.1127 -0.4161
11034SOL    HW138232   9.089   4.117   2.310 -0.2532  0.1213 -0.0401
11034SOL    HW238233   9.202   4.206   2.359  1.5894 -1.2904 -1.6281
11035SOL     OW38234   4.147  10.727   5.033 -0.4553  0.2711 -0.0049
11035SOL    HW138235   4.082  10.727   4.963  0.8687 -3.2779 -1.3367
11035SOL    HW238236   4.202  10.804   5.014 -0.8494  0.0496 -2.1673
11036SOL     OW38237   1.671   3.450  10.929  0.0120 -0.7713  0.4629
11036SOL    HW138238   1.605   3.479  10.867  1.0530 -0.9544 -0.7473
11036SOL    HW238239   1.700   3.531  10.972 -2.2990 -0.8864  2.3601
11037SOL     OW38240  11.180  10.646   3.815  0.1422 -0.4991  0.4828
11037SOL    HW138241  11.240  10.719   3.798 -1.5380  0.5691 -1.0236
11037SOL    HW238242  11.093  10.686   3.813 -0.6526 -2.0998  2.2849
11038SOL     OW38243   1.947   6.636   5.522 -0.6949 -0.3982 -0.3482
11038SOL    HW138244   1.974   6.565   5.579 -0.7414  0.2684  0.5147
11038SOL    HW238245   2.025   6.656   5.470 -0.4363 -0.5321 -0.0153
11039SOL     OW38246   9.891   8.860   0.332  0.1035  0.4704 -0.3434
11039SOL    HW138247   9.857   8.820   0.251  0.4409  0.4988 -0.5009
11039SOL    HW238248   9.813   8.878   0.384 -0.0444 -0.6019 -0.1757
11040SOL     OW38249   8.151   1.864   4.940 -0.2060  0.0940  0.1162
11040SOL    HW138250   8.081   1.855   5.004  0.3659 -0.3231  0.6888
11040SOL    HW238251   8.207   1.788   4.955  0.2178  0.2782 -0.5206
11041SOL     OW38252   3.606   0.838   3.401  0.2864 -0.3673  0.5433
11041SOL    HW138253   3.612   0.933   3.393  0.1516 -0.4782 -1.0729
11041SOL    HW238254   3.513   0.821   3.416  0.1984 -0.2871  0.0971
11042SOL     OW38255   5.210   4.183   9.374 -0.7050  0.0119  0.1455
11042SOL    HW138256   5.237   4.238   9.448  0.8356 -0.1216 -0.3038
11042SOL    HW238257   5.234   4.094   9.401 -1.5577 -0.2242  0.1240
11043SOL     OW38258   6.475   0.170   5.986 -0.2038 -0.6585 -0.2239
11043SOL    HW138259   6.509   0.083   6.008  0.7166 -0.3721 -0.5141
11043SOL    HW238260   6.526   0.230   6.041 -0.3263 -0.2362 -0.5708
11044SOL     OW38261   5.424   0.095   5.523  0.7297  0.3051  0.1857
11044SOL    HW138262   5.444   0.012   5.481  0.4829  1.1620 -1.6685
11044SOL    HW238263   5.494   0.107   5.587  1.1522 -0.9850 -0.0254
11045SOL     OW38264   1.331   2.409  10.368  0.1169 -0.2091  0.4054
11045SOL    HW138265   1.296   2.322  10.349  0.9231  0.0400 -2.4943
11045SOL    HW238266   1.405   2.392  10.427 -0.1045 -1.4294  0.3510
11046SOL     OW38267   3.159  11.057   0.231 -0.3108 -0.2453 -0.1563
11046SOL    HW138268   3.128  11.106   0.307  0.8459 -0.4080  0.4229
11046SOL    HW238269   3.219  10.992   0.266  1.7927  0.9691 -1.3879
11047SOL     OW38270   1.118   3.063   3.386 -0.0344  0.2386 -0.2667
11047SOL    HW138271   1.196   3.077   3.440  0.3305 -3.4742  0.2897
11047SOL    HW238272   1.152   3.048   3.298 -0.1008 -1.1280 -0.0725
11048SOL     OW38273   0.600  10.048   5.502  0.1828 -0.1113 -0.2343
11048SOL    HW138274   0.681  10.025   5.456  0.6154 -0.4823  0.7213
11048SOL    HW238275   0.600   9.994   5.580 -1.7561 -1.2334 -0.9837
11049SOL     OW38276   8.325  11.022   7.743  0.2396  0.0572  0.2575
11049SOL    HW138277   8.230  11.020   7.737  0.3178  1.0604 -1.6532
11049SOL    HW238278   8.347  11.115   7.747  1.0921 -0.1902  1.9067
11050SOL     OW38279  10.228   5.565   4.232  0.1896 -0.0027 -0.5281
11050SOL    HW138280  10.213   5.560   4.138 -1.5987 -0.1029 -0.2441
11050SOL    HW238281  10.146   5.599   4.268  0.4650 -1.0372  1.1128
11051SOL     OW38282   9.719   1.743   0.499  0.1246 -0.3236  0.2712
11051SOL    HW138283   9.787   1.698   0.549  0.8380  1.2602  0.7590
11051SOL    HW238284   9.640   1.734   0.552  0.3491 -0.6833  0.5457
11052SOL     OW38285   8.931   6.582   7.419 -0.1427 -0.1871  0.1354
11052SOL    HW138286   8.889   6.646   7.361 -1.3486 -0.9185  0.1896
11052SOL    HW238287   8.981   6.636   7.481 -0.1694  0.6574 -0.5605
11053SOL     OW38288  10.406   3.295   9.636 -0.1393  0.2646  0.1326
11053SOL    HW138289  10.489   3.302   9.589 -0.7406 -0.2991 -1.0371
11053SOL    HW238290  10.425   3.328   9.724  1.9852 -2.2454  0.6769
11054SOL     OW38291   1.498   2.045   7.002  0.4410 -0.2522 -0.1723
11054SOL    HW138292   1.489   2.073   7.093  1.1544  1.5600 -0.6456
11054SOL    HW238293   1.568   1.980   7.004 -0.4250 -1.1750  0.7605
11055SOL     OW38294   1.385   1.636   2.755 -0.3463 -0.0377 -0.5343
11055SOL    HW138295   1.352   1.722   2.778  2.0998  0.6118  0.7723
11055SOL    HW238296   1.367   1.627   2.661 -1.8178  1.3188 -0.3929
11056SOL     OW38297   0.627   9.282   8.379 -0.5227  0.1186 -0.4094
11056SOL    HW138298   0.564   9.306   8.312 -1.4497 -3.0814 -0.7921
11056SOL    HW238299   0.599   9.195   8.408  3.3892 -1.1660 -0.2036
11057SOL     OW38300   5.116   6.532   8.594 -1.2904 -0.3596 -0.3450
11057SOL    HW138301   5.072   6.531   8.679  0.1171 -0.2474  0.4047
11057SOL    HW238302   5.125   6.440   8.570  0.7675 -0.5390  0.9605
11058SOL     OW38303   6.173  10.623   4.785 -0.6466 -0.4432  0.2679
11058SOL    HW138304   6.225  10.594   4.859 -1.1507 -1.4326  0.2367
11058SOL    HW238305   6.217  10.702   4.754 -0.2002 -0.2620  1.3538
11059SOL     OW38306  10.749   1.134   5.498 -0.0713 -0.2967  0.6482
11059SOL    HW138307  10.672   1.168   5.545  0.6663  0.7944  1.1059
11059SOL    HW238308  10.772   1.204   5.437 -2.0246 -2.3963 -2.5785
11060SOL     OW38309   0.715   4.256   4.600  0.0051  0.5691  0.4258
11060SOL    HW138310   0.683   4.342   4.573  2.0954  1.0893 -0.5068
11060SOL    HW238311   0.759   4.272   4.683 -0.1920  0.2742  0.5873
11061SOL     OW38312   9.055   0.132   7.564 -0.3140  0.3354 -0.2882
11061SOL    HW138313   8.986   0.081   7.522  1.2198 -1.6435 -0.4861
11061SOL    HW238314   9.135   0.081   7.549  0.8431  1.4647  1.8262
11062SOL     OW38315   0.115  10.502   9.885 -0.2135 -0.6112  0.0013
11062SOL    HW138316   0.148  10.531   9.970  1.1910 -0.0964 -0.7051
11062SOL    HW238317   0.131  10.575   9.826 -0.9181 -1.0752 -0.7823
11063SOL     OW38318   8.046   4.659   6.866  0.0980 -0.1189 -0.5987
11063SOL    HW138319   7.993   4.642   6.788  0.8469  1.2392 -1.4323
11063SOL    HW238320   8.133   4.681   6.831  0.9196 -1.2407  0.7026
11064SOL     OW38321   4.916   9.189   0.508 -0.1548  0.7364  0.0414
11064SOL    HW138322   4.984   9.183   0.441 -0.5975  0.1094 -0.3612
11064SOL    HW238323   4.901   9.099   0.536 -1.1982  0.8002 -0.2613
11065SOL     OW38324   2.593   6.585   5.575 -0.0222  0.4995  0.0169
11065SOL    HW138325   2.560   6.516   5.516  0.1636  0.4748 -0.0596
11065SOL    HW238326   2.688   6.570   5.577 -0.1532 -0.2569  1.2831
11066SOL     OW38327   3.255   3.030   0.606  0.1543 -0.8492 -0.0878
11066SOL    HW138328   3.212   2.945   0.609  0.3074 -0.8896  1.1477
11066SOL    HW238329   3.234   3.071   0.690  1.7179 -0.4755  0.1349
11067SOL     OW38330   8.526   8.512   0.024 -0.8642 -0.0707  0.1341
11067SOL    HW138331   8.616   8.512  -0.008 -0.5515 -0.2705  1.0206
11067SOL    HW238332   8.473   8.526  -0.055 -0.0419  0.4728 -0.3266
11068SOL     OW38333  11.278   1.980   6.393 -0.3633 -0.5524  0.0820
11068SOL    HW138334  11.208   1.929   6.353  0.1654 -0.1362 -1.3948
11068SOL    HW238335  11.347   1.982   6.328  0.7631 -0.3688  1.2535
11069SOL     OW38336   4.304   9.446  11.244 -0.2496  0.2273 -0.0790
11069SOL    HW138337   4.234   9.501  11.278  0.1325  0.2773  0.6270
11069SOL    HW238338   4.296   9.454  11.149 -1.1966  0.2362 -0.0029
11070SOL     OW38339   3.662   5.637   5.852  0.8047  0.7941 -0.2175
11070SOL    HW138340   3.659   5.569   5.920 -1.2351 -0.5372 -1.6074
11070SOL    HW238341   3.717   5.705   5.890  1.5962 -0.9302  1.8574
11071SOL     OW38342   9.559   3.911   8.285  0.0070  0.7544 -0.3956
11071SOL    HW138343   9.628   3.873   8.231  0.3532 -0.5615  0.9349
11071SOL    HW238344   9.600   3.986   8.328  0.2157  0.7827 -0.6448
11072SOL     OW38345   2.649   3.135   8.321 -0.0064  0.0154  0.7201
11072SOL    HW138346   2.623   3.077   8.393  0.6388 -2.1351 -0.7433
11072SOL    HW238347   2.702   3.080   8.264  0.4786  2.0246 -0.8035
11073SOL     OW38348  11.010   4.242  10.112  0.7636  0.2086  0.1134
11073SOL    HW138349  11.038   4.284  10.031 -0.8899  1.8553  0.3560
11073SOL    HW238350  10.927   4.200  10.089 -0.0797  1.3075  1.1365
11074SOL     OW38351  10.653   2.717   1.213  0.0131 -0.2746 -0.6168
11074SOL    HW138352  10.702   2.776   1.156 -1.3702  0.9262 -0.6066
11074SOL    HW238353  10.565   2.713   1.174 -1.0624  0.8490  1.5515
11075SOL     OW38354   1.253   1.723   5.306  0.0644  0.1661 -0.1370
11075SOL    HW138355   1.314   1.672   5.359  0.7825  0.9950 -0.1558
11075SOL    HW238356   1.284   1.713   5.216 -1.4620 -1.6709 -0.4849
11076SOL     OW38357   3.015   3.096   2.122 -0.0561 -0.9648 -0.3608
11076SOL    HW138358   2.974   3.021   2.165  0.3468 -0.4517  0.9237
11076SOL    HW238359   2.942   3.153   2.099 -0.2269 -0.9989  0.1019
11077SOL     OW38360   6.262   8.350   0.646 -0.2324 -0.1661  0.4013
11077SOL    HW138361   6.324   8.422   0.638 -0.8883  0.2716 -0.8318
11077SOL    HW238362   6.182   8.391   0.680 -0.3909 -0.4264  0.3454
11078SOL     OW38363   1.769   4.653   5.833 -0.1907 -0.0387 -0.5246
11078SOL    HW138364   1.840   4.613   5.783 -0.8040 -1.2619 -0.4346
11078SOL    HW238365   1.809   4.730   5.874  0.5589  0.4382 -2.1053
11079SOL     OW38366   9.092   6.337   3.170  0.3182 -0.5332 -0.1460
11079SOL    HW138367   9.025   6.349   3.103 -1.0320  1.4008  1.5146
11079SOL    HW238368   9.047   6.292   3.241  1.2842 -0.9489  0.2071
11080SOL     OW38369   3.497   7.636   8.913  0.3383 -0.4456 -0.1941
11080SOL    HW138370   3.558   7.593   8.973 -0.4250 -1.9370 -0.4709
11080SOL    HW238371   3.458   7.565   8.862  0.3621  0.7204 -1.9046
11081SOL     OW38372  10.680   0.430   7.419 -0.3611 -0.0057  0.3284
11081SOL    HW138373  10.657   0.519   7.391 -0.3844  0.3797  1.5743
11081SOL    HW238374  10.596   0.386   7.428 -0.3066 -0.5882 -1.6232
11082SOL     OW38375   6.516   1.946   5.538  0.6007 -0.2287 -0.8595
11082SOL    HW138376   6.561   1.881   5.591  3.0303  1.2132 -1.0883
11082SOL    HW238377   6.500   1.903   5.454  1.5421 -0.7838 -0.7580
11083SOL     OW38378   5.102   6.815   3.225  0.5552 -0.3961 -0.8313
11083SOL    HW138379   5.170   6.790   3.162  2.5726 -0.3173  1.2358
11083SOL    HW238380   5.126   6.903   3.253 -0.7037 -0.1633 -0.4443
11084SOL     OW38381   2.659   4.952   5.934 -0.0227  0.3120  0.2128
11084SOL    HW138382   2.592   4.901   5.981 -1.9303  1.6739 -0.9908
11084SOL    HW238383   2.620   4.972   5.850  1.7041  1.6396 -0.3033
11085SOL     OW38384   9.103   6.271   0.030 -0.7340 -0.1293 -1.0317
11085SOL    HW138385   9.008   6.287   0.031 -0.9264 -1.2145 -0.2275
11085SOL    HW238386   9.113   6.185   0.072  0.2078 -2.2461 -5.2360
11086SOL     OW38387   6.641   6.565   2.974  0.3233 -0.1614 -0.3738
11086SOL    HW138388   6.656   6.633   3.038  0.7998 -1.4451  0.9088
11086SOL    HW238389   6.549   6.540   2.986  0.5721 -0.8001  0.2056
11087SOL     OW38390   2.654   1.248  10.298  0.2333  0.0278  0.6148
11087SOL    HW138391   2.703   1.195  10.360 -0.9400  1.4694  2.8719
11087SOL    HW238392   2.593   1.187  10.257 -1.9837 -0.2803  4.0787
11088SOL     OW38393   1.041   6.120   2.710  0.6652  0.0847  0.5191
11088SOL    HW138394   1.051   6.096   2.617  2.2800 -0.4056  0.7884
11088SOL    HW238395   1.034   6.215   2.710  2.7602  0.2795  0.0073
11089SOL     OW38396   1.621   7.211   9.436 -0.5828  0.3522  0.1020
11089SOL    HW138397   1.687   7.203   9.367 -0.1497  0.0752  0.5535
11089SOL    HW238398   1.545   7.163   9.401 -0.0578 -0.5572  0.2028
11090SOL     OW38399   9.953   8.178   2.178 -0.9272  0.4719 -0.8650
11090SOL    HW138400   9.880   8.170   2.118 -1.7360  0.7751  0.0654
11090SOL    HW238401  10.005   8.251   2.143 -1.0643  0.2497 -1.5280
11091SOL     OW38402   4.688   1.294   5.646 -0.4447  0.3173 -0.0483
11091SOL    HW138403   4.719   1.377   5.611  0.0565  0.0164 -0.3295
11091SOL    HW238404   4.600   1.284   5.611 -0.2875  0.4577 -0.4862
11092SOL     OW38405   9.581  10.625   1.628 -0.1576  0.2881  0.1848
11092SOL    HW138406   9.576  10.633   1.723  1.8291 -0.9787  0.4357
11092SOL    HW238407   9.663  10.578   1.613 -0.1962  0.9415 -2.1850
11093SOL     OW38408   0.724   2.197   1.985  0.1166 -0.4517 -0.5027
11093SOL    HW138409   0.807   2.230   1.949 -0.5929  1.8601 -0.1145
11093SOL    HW238410   0.716   2.109   1.949  1.8680 -0.0449 -1.9951
11094SOL     OW38411   5.764   5.130   0.117  0.2892  0.6319 -0.1186
11094SOL    HW138412   5.688   5.092   0.161  0.1736  0.8066 -0.1700
11094SOL    HW238413   5.731   5.208   0.074  0.9779  2.0178  1.8162
11095SOL     OW38414   0.787   2.485   5.457 -0.4682  0.4911 -0.0708
11095SOL    HW138415   0.772   2.517   5.368 -1.5375  0.7370  0.1884
11095SOL    HW238416   0.734   2.542   5.512 -1.0228 -0.6198  0.5672
11096SOL     OW38417   4.746   8.206   2.089 -0.1365 -0.1660 -0.1531
11096SOL    HW138418   4.834   8.232   2.115  0.3238 -2.8106  1.0843
11096SOL    HW238419   4.692   8.283   2.107  1.5287  0.7120  1.2650
11097SOL     OW38420   6.817   6.884   7.129 -0.0975  0.2270  0.0649
11097SOL    HW138421   6.835   6.792   7.145 -1.6195  0.3255  2.6810
11097SOL    HW238422   6.761   6.885   7.052  0.1574 -1.0018 -0.1434
11098SOL     OW38423   5.707   5.670   3.153 -0.0595  0.4314 -0.1077
11098SOL    HW138424   5.663   5.592   3.186 -0.9330  0.4970 -1.1015
11098SOL    HW238425   5.719   5.725   3.231 -2.0916  0.5736  0.1505
11099SOL     OW38426   1.859   6.603   8.189 -0.1769 -0.5142  0.1551
11099SOL    HW138427   1.922   6.661   8.145 -1.0708  1.2901  1.2204
11099SOL    HW238428   1.905   6.519   8.196  2.4450  0.9987  1.6878
11100SOL     OW38429  10.036   9.280  10.491  0.4741 -0.6642 -0.4461
11100SOL    HW138430   9.977   9.313  10.559 -1.1898 -2.1935 -1.1123
11100SOL    HW238431  10.072   9.359  10.450 -0.9638  0.2900  0.0987
11101SOL     OW38432   6.614   8.787   3.685 -0.4419 -0.6118  0.5149
11101SOL    HW138433   6.686   8.726   3.700  1.7806  1.1716 -2.3736
11101SOL    HW238434   6.553   8.739   3.628  0.1712 -0.9343  0.1338
11102SOL     OW38435   6.324   8.561   5.539 -0.0565 -0.1558 -0.1942
11102SOL    HW138436   6.360   8.496   5.478  0.0677 -2.1905  1.9832
11102SOL    HW238437   6.259   8.513   5.590 -2.2564  2.2405 -0.6224
11103SOL     OW38438   6.941   6.718  10.267  0.6426  0.0155 -0.6289
11103SOL    HW138439   6.863   6.662  10.263  1.2611 -0.8191 -1.1747
11103SOL    HW238440   6.950   6.740  10.359 -1.2509  1.5657 -0.7788
11104SOL     OW38441   7.056   8.199   8.900 -0.3905  0.3897  0.3200
11104SOL    HW138442   7.076   8.267   8.835  0.7694 -0.4336 -0.1843
11104SOL    HW238443   7.012   8.247   8.971  1.7783  1.9402  0.6508
11105SOL     OW38444   8.704   2.624   1.087  0.2298 -0.4640  0.1666
11105SOL    HW138445   8.742   2.684   1.151  1.4382  0.0521 -1.0124
11105SOL    HW238446   8.709   2.538   1.129 -1.2676  0.1899  1.7528
11106SOL     OW38447   1.504   3.386   6.298  0.1852 -0.0831  0.1927
11106SOL    HW138448   1.503   3.481   6.296 -2.2980  0.0115  3.1005
11106SOL    HW238449   1.498   3.363   6.390  1.4318 -3.1001 -0.3914
11107SOL     OW38450   4.283   0.505   2.554  0.2477  0.6261  0.1194
11107SOL    HW138451   4.305   0.439   2.619 -0.2401  0.0561 -0.2917
11107SOL    HW238452   4.189   0.496   2.540  0.0440  1.8694  0.5643
11108SOL     OW38453   2.078   0.368  11.094  0.1695  0.1277 -0.0745
11108SOL    HW138454   2.063   0.455  11.131 -0.1038  0.0456  0.0167
11108SOL    HW238455   1.994   0.323  11.105  0.4368 -0.2932  0.2820
11109SOL     OW38456   6.570   6.143   8.755  0.5436 -0.2181  0.2829
11109SOL    HW138457   6.542   6.233   8.767 -2.1471 -0.7705 -1.4399
11109SOL    HW238458   6.533   6.095   8.829  2.1396  0.1022  1.3051
11110SOL     OW38459  10.924   0.325   9.645 -0.3220  0.4346 -0.6016
11110SOL    HW138460  10.982   0.266   9.693  1.4082  2.0114 -0.7196
11110SOL    HW238461  10.844   0.327   9.698  0.6508  0.1941  0.9112
11111SOL     OW38462   4.040   0.779  10.912  0.3772 -0.1021  0.0271
11111SOL    HW138463   4.000   0.695  10.935  1.2022 -1.1462 -2.2082
11111SOL    HW238464   4.133   0.759  10.903  0.6555  1.1758  0.0120
11112SOL     OW38465   1.601   2.659   9.869  0.5024  0.2322  0.5538
11112SOL    HW138466   1.668   2.673   9.935  0.5446  0.1585  0.5256
11112SOL    HW238467   1.518   2.658   9.918  0.3262  2.4355  0.3492
11113SOL     OW38468   9.219   9.874   2.375 -0.1736 -0.2432 -0.5337
11113SOL    HW138469   9.207   9.968   2.356  1.0669 -0.1032 -0.6328
11113SOL    HW238470   9.130   9.839   2.377 -0.6595  0.9745 -0.3206
11114SOL     OW38471   7.627   3.649   5.173 -0.0090 -0.2629  0.1352
11114SOL    HW138472   7.544   3.609   5.200  0.7894 -1.7456  0.4639
11114SOL    HW238473   7.632   3.636   5.079 -0.0652 -0.3300  0.1424
11115SOL     OW38474   6.504   6.596   4.946 -0.6199 -0.1183  0.5952
11115SOL    HW138475   6.554   6.638   4.876 -0.5882 -0.1522  0.5981
11115SOL    HW238476   6.561   6.527   4.978  0.1682  1.1380  1.9764
11116SOL     OW38477   3.373   5.635  11.290  0.2644  0.6849 -0.2811
11116SOL    HW138478   3.302   5.675  11.339  0.6727  2.1176 -0.8110
11116SOL    HW238479   3.441   5.703  11.287  1.0210 -0.0891 -1.1138
11117SOL     OW38480   9.386  11.018   6.594 -0.3738  0.1318  0.7088
11117SOL    HW138481   9.315  11.000   6.533  0.1451  0.0612  0.1226
11117SOL    HW238482   9.350  10.997   6.680 -0.4609 -1.7016  0.2376
11118SOL     OW38483   6.732   2.772   5.816  0.2727  0.1916  0.5998
11118SOL    HW138484   6.742   2.717   5.894 -1.3314  1.1836  1.5262
11118SOL    HW238485   6.670   2.839   5.842 -1.7718 -0.5643 -2.1522
11119SOL     OW38486   5.802   0.452   9.260  0.2607  0.0369  0.0142
11119SOL    HW138487   5.791   0.427   9.168  1.0094  2.8583 -0.8884
11119SOL    HW238488   5.713   0.471   9.290  0.1051 -0.1370 -0.3292
11120SOL     OW38489   3.619  10.722   7.996 -0.0629 -0.3519 -0.3125
11120SOL    HW138490   3.528  10.704   8.021 -0.1895 -0.3744 -0.7805
11120SOL    HW238491   3.671  10.684   8.067 -0.4099 -0.5092 -0.1367
11121SOL     OW38492  10.701   0.594   2.514  0.1516  0.3113  0.2874
11121SOL    HW138493  10.677   0.541   2.590 -0.4461 -0.1668 -0.2247
11121SOL    HW238494  10.686   0.684   2.541 -0.4271  0.1207  0.6095
11122SOL     OW38495   8.612   3.510   9.064  0.8370 -0.2767  0.2594
11122SOL    HW138496   8.579   3.562   9.138 -0.7368 -1.9036  0.7502
11122SOL    HW238497   8.625   3.574   8.994 -1.2203  0.7909  0.7862
11123SOL     OW38498   9.358   2.151   8.187 -0.1765  0.1044  0.1967
11123SOL    HW138499   9.436   2.205   8.190  0.3261 -0.6037 -0.1355
11123SOL    HW238500   9.380   2.074   8.238 -0.6015 -0.1680 -0.0297
11124SOL     OW38501   2.828   4.118   9.595 -0.4644 -0.6690  0.0835
11124SOL    HW138502   2.863   4.204   9.574  1.3562 -1.8579 -2.0714
11124SOL    HW238503   2.734   4.125   9.577  0.0317  0.2393 -2.4018
11125SOL     OW38504  11.037   0.135   3.175 -0.0010  0.3481 -0.1300
11125SOL    HW138505  11.063   0.152   3.084 -1.2788 -2.7934 -1.1745
11125SOL    HW238506  10.957   0.186   3.187  0.0677  0.6357 -0.8674
11126SOL     OW38507   5.113  10.912   0.550 -0.2054 -0.1274 -0.1544
11126SOL    HW138508   5.028  10.874   0.574  0.1586 -0.8010  0.0883
11126SOL    HW238509   5.176  10.862   0.601  0.3148  0.5504 -0.1376
11127SOL     OW38510   6.935   5.570   4.924  0.1744  0.4001  0.0295
11127SOL    HW138511   6.928   5.650   4.975 -1.1509  0.3879 -0.1223
11127SOL    HW238512   6.993   5.592   4.852  2.4097  0.3085  1.7372
11128SOL     OW38513   0.836   2.853   2.793  0.0239  0.2345  0.4965
11128SOL    HW138514   0.927   2.882   2.801 -0.2424  0.9414  0.9894
11128SOL    HW238515   0.798   2.869   2.880 -0.5311 -0.2117  0.3423
11129SOL     OW38516   5.891   5.312  10.536 -0.3372 -0.5232 -0.5344
11129SOL    HW138517   5.970   5.287  10.490  0.7690  0.9032  0.5050
11129SOL    HW238518   5.899   5.407  10.546 -0.4584 -0.7782  2.6165
11130SOL     OW38519   6.293   2.439   2.569  0.0299  0.2640  0.0658
11130SOL    HW138520   6.282   2.490   2.650  0.2334 -0.3432  0.4766
11130SOL    HW238521   6.206   2.403   2.552  0.2121 -0.4250  0.5655
11131SOL     OW38522   9.612   2.638  11.277  0.3099 -0.1339  0.2481
11131SOL    HW138523   9.578   2.590  11.353  0.0148  0.8369  0.7273
11131SOL    HW238524   9.599   2.578  11.203 -0.6912 -0.5142  0.7326
11132SOL     OW38525   0.344   2.170   7.824  0.6329  0.1945 -0.1042
11132SOL    HW138526   0.273   2.140   7.879  1.1438  1.1428  1.1031
11132SOL    HW238527   0.418   2.113   7.846  0.8385  0.5746  0.1867
11133SOL     OW38528   1.106   1.890   7.293 -0.6640 -0.1964 -0.9113
11133SOL    HW138529   1.185   1.839   7.274  1.0589  2.2144 -0.5140
11133SOL    HW238530   1.079   1.860   7.380 -1.0471 -2.0284 -1.6294
11134SOL     OW38531   0.469   9.233   1.761 -0.5371  0.5026 -0.4020
11134SOL    HW138532   0.471   9.213   1.667 -0.1269 -2.1090  0.1249
11134SOL    HW238533   0.548   9.193   1.796 -0.9637  0.9787  1.1694
11135SOL     OW38534   0.468   3.230   6.643  0.2928  0.3654  0.5832
11135SOL    HW138535   0.441   3.197   6.558  0.9453 -1.7930  1.1790
11135SOL    HW238536   0.423   3.314   6.652 -1.0669 -0.1530 -1.1782
11136SOL     OW38537   2.174   6.739   7.934  0.2172  0.5380 -0.2881
11136SOL    HW138538   2.249   6.720   7.878 -0.4582 -0.2467 -0.9518
11136SOL    HW238539   2.123   6.657   7.934  1.2411 -0.1975  3.1238
11137SOL     OW38540   9.953   6.718   3.337  0.2443  0.0203  0.0502
11137SOL    HW138541   9.929   6.790   3.279 -0.6848 -0.8916 -0.7289
11137SOL    HW238542   9.994   6.760   3.412 -1.5350  1.4598  0.2477
11138SOL     OW38543   6.798   2.519   2.372  0.1821  0.4557  0.7919
11138SOL    HW138544   6.789   2.441   2.428  2.0062 -0.2797  0.1037
11138SOL    HW238545   6.883   2.556   2.396 -0.0904  1.5005  0.1881
11139SOL     OW38546   6.709   9.535   5.598 -0.1053  0.3635 -0.0042
11139SOL    HW138547   6.724   9.618   5.644 -2.5090  0.6734  0.2742
11139SOL    HW238548   6.739   9.469   5.660  1.7232  0.9979 -0.1779
11140SOL     OW38549   9.886   1.593   1.288 -0.2500  0.4807 -0.6395
11140SOL    HW138550   9.965   1.540   1.300 -0.4811  0.4355  0.8395
11140SOL    HW238551   9.816   1.529   1.276 -0.4017  0.4679  0.3077
11141SOL     OW38552   5.195   8.566   0.727 -0.2081 -0.4871  0.1796
11141SOL    HW138553   5.279   8.596   0.762  0.0070  0.3807 -1.0312
11141SOL    HW238554   5.218   8.494   0.667 -0.6067 -2.2232  2.0729
11142SOL     OW38555   1.774  10.120   9.308  0.0084  0.0452  0.3559
11142SOL    HW138556   1.692  10.095   9.266  1.5876  0.2005 -2.9320
11142SOL    HW238557   1.809  10.190   9.253  3.5415 -1.6567  0.3061
11143SOL     OW38558   3.118   2.419   4.304 -0.7365  0.8124 -0.3400
11143SOL    HW138559   3.154   2.354   4.243 -2.3444 -0.8012  0.3910
11143SOL    HW238560   3.026   2.429   4.277 -1.1945  0.8427  1.1655
11144SOL     OW38561   0.339   4.998   4.367  0.2188 -0.1069 -0.7163
11144SOL    HW138562   0.321   4.986   4.274 -0.4634  1.9529 -0.8864
11144SOL    HW238563   0.263   4.960   4.411  0.5502 -1.1013 -1.0051
11145SOL     OW38564   1.261   3.221   5.642  0.3746 -0.6215  0.0956
11145SOL    HW138565   1.348   3.189   5.666  0.1312 -2.9501 -1.8446
11145SOL    HW238566   1.277   3.299   5.590  1.2568 -0.4069  0.6869
11146SOL     OW38567   9.558   0.371   2.839  0.3264  0.3293  0.6047
11146SOL    HW138568   9.569   0.287   2.882  1.8220 -1.4852 -3.0684
11146SOL    HW238569   9.484   0.412   2.884 -0.5613 -3.0201  2.3459
11147SOL     OW38570   6.149   2.460   5.401  0.0790  0.5275 -0.3069
11147SOL    HW138571   6.079   2.462   5.335 -1.4401 -0.0420  1.2707
11147SOL    HW238572   6.212   2.397   5.366 -0.8364  0.0361 -1.1111
11148SOL     OW38573   1.353  10.453   1.160 -0.4789 -0.0260  0.1658
11148SOL    HW138574   1.343  10.367   1.119  0.3290  0.6784 -1.5647
11148SOL    HW238575   1.298  10.511   1.108  1.7636  1.1785 -0.9101
11149SOL     OW38576   2.420   9.188   3.610 -0.6674  0.0752 -0.2461
11149SOL    HW138577   2.480   9.166   3.539  2.0252 -0.0325  1.9806
11149SOL    HW238578   2.392   9.277   3.591  0.9267  0.4610 -0.8934
11150SOL     OW38579   9.342   5.154   3.796 -0.6236  0.1092  0.3108
11150SOL    HW138580   9.402   5.089   3.761 -0.2745  1.5809 -1.9464
11150SOL    HW238581   9.390   5.237   3.789 -1.9095  0.9251  0.9911
11151SOL     OW38582   8.276   5.566   6.520 -0.0367  0.3411 -0.0152
11151SOL    HW138583   8.299   5.473   6.525 -1.7618 -0.0194  1.9112
11151SOL    HW238584   8.181   5.567   6.527 -0.0203  2.2523  0.0252
11152SOL     OW38585  10.628   0.796   1.664  0.5178  0.3467 -0.2939
11152SOL    HW138586  10.685   0.744   1.608  0.6109  1.6599 -1.4536
11152SOL    HW238587  10.556   0.737   1.687  0.7698 -0.3833 -1.3518
11153SOL     OW38588   3.374   2.334   2.444  0.1496 -0.4097 -0.5165
11153SOL    HW138589   3.417   2.291   2.519  0.3661  1.9202  0.7563
11153SOL    HW238590   3.320   2.402   2.484  0.5247  1.0898 -2.5103
11154SOL     OW38591   4.152   2.594   5.165  0.3162 -0.1196  0.5885
11154SOL    HW138592   4.234   2.631   5.134 -0.8128  1.8340 -0.1139
11154SOL    HW238593   4.148   2.619   5.258  0.8638 -0.8774  0.8222
11155SOL     OW38594   0.001   8.805  10.739 -0.7468  0.3134 -0.4951
11155SOL    HW138595   0.001   8.800  10.834  0.9344 -1.4884 -0.5491
11155SOL    HW238596  -0.059   8.736  10.711 -0.3441  0.0701 -0.7594
11156SOL     OW38597   7.397  11.271   3.129 -0.2469 -0.0446  0.0859
11156SOL    HW138598   7.430  11.199   3.183  0.1596 -0.4108 -0.6519
11156SOL    HW238599   7.370  11.230   3.047  1.3839  0.8237 -0.9179
11157SOL     OW38600   4.128   2.099   5.713  0.3564 -0.6826 -0.3202
11157SOL    HW138601   4.103   2.115   5.804  0.9041  0.6092 -0.3847
11157SOL    HW238602   4.151   2.006   5.711 -1.8593 -1.2764  0.3248
11158SOL     OW38603   4.164   6.531   3.405 -0.3153 -0.5195 -0.5391
11158SOL    HW138604   4.112   6.545   3.325  0.1146  1.2283 -0.5264
11158SOL    HW238605   4.188   6.619   3.434 -0.2374 -1.1474  1.3829
11159SOL     OW38606   8.820   2.732   7.816 -0.5865 -0.1840 -0.0683
11159SOL    HW138607   8.837   2.713   7.908 -4.2805  2.7557  1.3346
11159SOL    HW238608   8.777   2.653   7.783  0.9003 -1.3180  0.6488
11160SOL     OW38609   3.120  10.580   9.628 -0.2255  0.0756  0.6252
11160SOL    HW138610   3.082  10.529   9.700 -0.0729 -0.4887  0.3133
11160SOL    HW238611   3.118  10.519   9.553 -0.5351  0.7068  0.1145
11161SOL     OW38612   8.318   6.316  10.080  0.2791 -0.1161  0.0821
11161SOL    HW138613   8.341   6.390  10.024  2.0235 -0.6238  0.0716
11161SOL    HW238614   8.391   6.255  10.068 -1.1861 -1.8839  0.0090
11162SOL     OW38615   4.634   9.991  10.257  0.5257  0.4823 -0.6204
11162SOL    HW138616   4.613   9.930  10.186  2.8184 -1.5882  0.4318
11162SOL    HW238617   4.611  10.077  10.222 -2.4695 -0.9140 -2.2470
11163SOL     OW38618   0.281   7.051   9.523  0.0174 -0.3092 -0.0460
11163SOL    HW138619   0.256   6.960   9.506  0.0894 -0.6773  1.6592
11163SOL    HW238620   0.211   7.085   9.579  1.5600 -0.3090  1.9609
11164SOL     OW38621   2.201   6.704   5.844  0.1288  0.5381 -0.3224
11164SOL    HW138622   2.125   6.750   5.881 -0.9926 -2.0692  0.6939
11164SOL    HW238623   2.259   6.689   5.919  0.7089  0.6774 -0.7380
11165SOL     OW38624   1.878  11.122  10.446 -0.2763  0.3861  0.1263
11165SOL    HW138625   1.848  11.036  10.416  0.5908 -0.3143  1.2610
11165SOL    HW238626   1.861  11.180  10.371  0.2882 -1.0086 -1.1151
11166SOL     OW38627   6.869   4.346   7.421 -0.4350 -0.4062  0.1666
11166SOL    HW138628   6.785   4.334   7.464 -0.2817  1.5657  1.0778
11166SOL    HW238629   6.934   4.334   7.491 -0.0746  0.4953 -0.0046
11167SOL     OW38630   4.437   7.863  10.138 -0.0443 -0.1650  0.4972
11167SOL    HW138631   4.363   7.913  10.174  0.7874  1.0880  0.4800
11167SOL    HW238632   4.404   7.773  10.133 -1.8499  0.5216 -0.2947
11168SOL     OW38633   2.025   3.583   9.384 -0.0864 -0.0515 -0.0960
11168SOL    HW138634   2.090   3.628   9.437 -1.2487  0.4315  0.9299
11168SOL    HW238635   2.077   3.539   9.316  1.2608  0.7434  0.3898
11169SOL     OW38636   6.583   3.725   4.015 -0.0612  0.9078  0.0889
11169SOL    HW138637   6.642   3.677   4.073 -0.4211  1.7426  1.1716
11169SOL    HW238638   6.624   3.720   3.929  0.0670 -1.0795  0.2301
11170SOL     OW38639   9.321   8.385   0.271 -0.0113 -0.2449  0.2432
11170SOL    HW138640   9.266   8.309   0.252 -0.2264  0.4407 -1.9717
11170SOL    HW238641   9.329   8.430   0.188  0.5334  1.9171  1.4420
11171SOL     OW38642   3.260  10.106   8.867 -0.2371 -0.2176  0.2183
11171SOL    HW138643   3.207  10.034   8.903  1.4385 -1.0820  1.0488
11171SOL    HW238644   3.309  10.066   8.795 -1.6953  0.9041 -1.4087
11172SOL     OW38645   2.650   0.140  10.368 -0.5702  0.2798 -0.0464
11172SOL    HW138646   2.573   0.183  10.332 -1.9322 -1.2030  1.0161
11172SOL    HW238647   2.705   0.120  10.292 -1.6063  0.6438 -0.8974
11173SOL     OW38648   3.904   0.717   5.016  0.1665  0.4833  0.1032
11173SOL    HW138649   3.891   0.763   4.933  0.4764 -0.1040 -0.2744
11173SOL    HW238650   3.913   0.787   5.081 -3.2858  0.9700  0.1683
11174SOL     OW38651   4.557   0.552   6.858  0.5908 -0.2329 -0.2176
11174SOL    HW138652   4.632   0.598   6.895  1.2122 -0.4343 -1.2126
11174SOL    HW238653   4.595   0.484   6.802 -0.3226 -1.3342  0.4688
11175SOL     OW38654   6.807   3.701   2.351 -0.5926 -0.3191 -0.4625
11175SOL    HW138655   6.863   3.717   2.276 -0.6034  1.0113 -0.1867
11175SOL    HW238656   6.857   3.730   2.427 -0.8602 -1.0016 -0.0081
11176SOL     OW38657   2.531   3.768   6.210 -0.0662  0.4845  0.0159
11176SOL    HW138658   2.490   3.834   6.154  0.0857 -0.1113 -0.8032
11176SOL    HW238659   2.462   3.741   6.270 -0.3746  0.7659 -0.2117
11177SOL     OW38660   0.630   7.555   3.949  0.1270  0.0229 -0.0637
11177SOL    HW138661   0.653   7.606   4.027 -1.0006  0.3340  0.0695
11177SOL    HW238662   0.707   7.499   3.934  2.9606  4.2093 -2.3328
11178SOL     OW38663   7.019   1.647   7.053 -0.5251 -0.1885 -0.3073
11178SOL    HW138664   7.040   1.554   7.047 -1.3700 -0.4210  0.2242
11178SOL    HW238665   7.033   1.681   6.964 -0.8376 -0.9501 -0.6476
11179SOL     OW38666  10.358   1.192   6.851 -0.4144 -0.8121  0.2865
11179SOL    HW138667  10.417   1.180   6.777  0.1272  4.1025 -0.2618
11179SOL    HW238668  10.413   1.186   6.929  0.1567  0.2798 -0.0384
11180SOL     OW38669   7.721   1.994   5.191 -0.0473  0.6023 -0.3411
11180SOL    HW138670   7.627   2.004   5.209  0.2209  2.1500  0.2309
11180SOL    HW238671   7.734   2.035   5.106 -0.2857 -1.7084 -1.5379
11181SOL     OW38672   6.342   9.915   0.790 -0.5035  0.2593  0.0237
11181SOL    HW138673   6.413   9.968   0.753  0.0116 -0.0938  0.5026
11181SOL    HW238674   6.264   9.945   0.744 -0.0284  0.5736 -0.5876
11182SOL     OW38675   1.419   6.148   5.190 -0.2675  0.5361  0.1038
11182SOL    HW138676   1.344   6.112   5.143  0.0623  1.4871 -1.1830
11182SOL    HW238677   1.467   6.198   5.123  1.3406  0.1809  0.9763
11183SOL     OW38678   1.028   8.417   2.753 -0.0966 -0.2985  0.0157
11183SOL    HW138679   1.025   8.326   2.723 -0.6220  0.0883 -1.1271
11183SOL    HW238680   1.120   8.443   2.741 -0.2179 -0.2766 -0.8659
11184SOL     OW38681   8.798   1.352   9.170 -0.0506 -0.5669 -0.4383
11184SOL    HW138682   8.776   1.446   9.170  0.3321 -0.4726  0.1722
11184SOL    HW238683   8.795   1.327   9.078  2.8190  0.7412 -0.9310
11185SOL     OW38684   7.513   3.171   7.613  0.4235  0.7884  0.3433
11185SOL    HW138685   7.541   3.093   7.660  0.4239  0.3583 -0.3611
11185SOL    HW238686   7.419   3.159   7.599  0.9436 -0.4930 -2.3490
11186SOL     OW38687   0.084  11.280   0.084  0.0080  0.2094 -0.5967
11186SOL    HW138688  -0.008  11.277   0.058 -0.5943 -2.0362  1.5564
11186SOL    HW238689   0.089  11.351   0.148 -0.1360  0.6511 -1.0788
11187SOL     OW38690   8.002   6.296  10.213 -0.0276 -0.0956  0.0628
11187SOL    HW138691   8.043   6.245  10.283 -1.3191 -1.7173 -0.3188
11187SOL    HW238692   7.979   6.231  10.146  1.1762  1.4268 -1.8834
11188SOL     OW38693   5.861   5.580   3.875  0.3208 -0.0772  0.5642
11188SOL    HW138694   5.830   5.627   3.798 -0.7877 -0.6125  0.6712
11188SOL    HW238695   5.818   5.495   3.870 -0.7734  0.3301  2.4395
11189SOL     OW38696  10.229   1.444   3.041 -0.0321  0.5549  0.6872
11189SOL    HW138697  10.215   1.464   3.134  1.0174  0.2478  0.9248
11189SOL    HW238698  10.299   1.504   3.014 -0.7739  1.0779 -0.0736
11190SOL     OW38699  10.734   9.288   6.814 -0.3581 -0.1352  0.6318
11190SOL    HW138700  10.664   9.248   6.763 -0.0580 -0.8511  0.7768
11190SOL    HW238701  10.768   9.358   6.758 -0.9287 -0.0344  0.4081
11191SOL     OW38702   9.788   3.272   7.541  0.0741  0.0616  0.0331
11191SOL    HW138703   9.714   3.331   7.559  1.2271  1.0444  1.6943
11191SOL    HW238704   9.790   3.213   7.617  0.4306 -0.5472 -0.4474
11192SOL     OW38705   1.343   1.553   8.244 -0.5662  0.2421  0.2422
11192SOL    HW138706   1.257   1.587   8.268 -1.1344 -0.9786 -0.0370
11192SOL    HW238707   1.367   1.494   8.315  0.6120  1.5233  0.9449
11193SOL     OW38708   2.830   9.601   2.048 -0.1340 -0.2921 -0.3790
11193SOL    HW138709   2.871   9.683   2.021  0.3308 -0.3914  0.0250
11193SOL    HW238710   2.858   9.588   2.139 -1.5972 -0.0148  0.1319
11194SOL     OW38711   0.575   5.821   0.518 -0.0804 -0.2320  0.2130
11194SOL    HW138712   0.600   5.730   0.531 -1.5006 -0.7812 -0.8148
11194SOL    HW238713   0.554   5.853   0.605  0.1110 -0.9758  0.5360
11195SOL     OW38714   2.172   8.550   5.198  0.2233  0.2096 -0.3495
11195SOL    HW138715   2.108   8.584   5.135 -1.2753 -0.4895  0.7427
11195SOL    HW238716   2.177   8.617   5.266 -1.6821 -1.0433  1.0982
11196SOL     OW38717   8.312   8.399   8.627  0.1269  0.0950  0.3757
11196SOL    HW138718   8.369   8.440   8.562 -2.1253 -1.7148 -2.8762
11196SOL    HW238719   8.301   8.466   8.694  0.0200  3.2390 -2.6229
11197SOL     OW38720   1.947   4.035   2.813 -0.3625  0.5163  0.3817
11197SOL    HW138721   1.880   3.979   2.774  0.7569  0.6658 -1.8449
11197SOL    HW238722   2.022   3.976   2.825  0.5074  1.2777 -1.1076
11198SOL     OW38723   3.056   8.644   2.462  0.4722 -0.1593  0.2851
11198SOL    HW138724   3.000   8.635   2.385  1.6106  0.0845 -0.5945
11198SOL    HW238725   3.137   8.683   2.428  1.1203 -0.3770  1.5476
11199SOL     OW38726   9.481   6.202   2.057  0.0801  0.1692 -0.1753
11199SOL    HW138727   9.394   6.237   2.074  0.4129  0.4837  0.8761
11199SOL    HW238728   9.523   6.197   2.143  1.6015  1.3465 -0.8148
11200SOL     OW38729   6.663   8.461   9.890 -0.0950 -0.3277  0.1032
11200SOL    HW138730   6.619   8.522   9.949  0.1076 -0.3356  0.2626
11200SOL    HW238731   6.610   8.462   9.810 -0.2447 -0.1511  0.2044
11201SOL     OW38732   0.445   4.838   9.652 -0.2358  0.0657  0.1791
11201SOL    HW138733   0.525   4.852   9.601 -0.6913  1.5792 -0.1630
11201SOL    HW238734   0.449   4.904   9.722 -1.3212  0.3792 -0.0355
11202SOL     OW38735   9.028   0.154   2.697 -0.1529 -0.0692 -0.0245
11202SOL    HW138736   9.006   0.175   2.606 -0.4370 -1.6076 -0.3152
11202SOL    HW238737   9.103   0.210   2.717  0.1394  0.0074 -1.3265
11203SOL     OW38738   5.176   4.016   9.909  0.1092  0.3443 -0.1099
11203SOL    HW138739   5.123   4.023   9.830 -0.3205  1.2974  0.2600
11203SOL    HW238740   5.256   4.064   9.890 -0.3240  1.2354  0.3095
11204SOL     OW38741   0.240   4.622  11.183  0.0194 -0.2830 -0.1645
11204SOL    HW138742   0.209   4.642  11.094  2.2825  0.9847 -0.7227
11204SOL    HW238743   0.276   4.705  11.214 -0.9459 -0.6737  2.0586
11205SOL     OW38744   5.118   2.100   7.507  0.3382  0.3222  0.4017
11205SOL    HW138745   5.059   2.063   7.442 -0.7007  0.8673  1.0107
11205SOL    HW238746   5.140   2.026   7.564  0.3991  0.0757  0.0591
11206SOL     OW38747   3.592   9.618  10.694 -0.1175  0.1254  0.2716
11206SOL    HW138748   3.529   9.631  10.764  0.3241 -0.8983  0.8776
11206SOL    HW238749   3.558   9.668  10.620 -0.3181  1.6404  1.3775
11207SOL     OW38750   7.295   3.382  10.599  0.2562 -0.3759  0.4294
11207SOL    HW138751   7.237   3.457  10.584 -0.2689 -1.0072 -0.8217
11207SOL    HW238752   7.330   3.361  10.512  0.8993 -1.1728  0.8735
11208SOL     OW38753   1.673   0.308   3.294  0.0450  0.2958 -0.6714
11208SOL    HW138754   1.739   0.260   3.244  3.0183  2.7194  0.7343
11208SOL    HW238755   1.715   0.325   3.379 -2.4778  1.7654  0.3482
11209SOL     OW38756   7.422   9.154   6.833 -0.5607 -0.3340  0.5695
11209SOL    HW138757   7.413   9.224   6.897  0.9803  0.5274 -0.1419
11209SOL    HW238758   7.492   9.183   6.775  0.0968 -2.4381  0.2553
11210SOL     OW38759  10.875   7.215   3.593 -0.0745  0.2137  0.3254
11210SOL    HW138760  10.958   7.176   3.563 -0.2484 -0.8519  1.2032
11210SOL    HW238761  10.883   7.307   3.569  1.7708  0.3156  1.2295
11211SOL     OW38762   5.788   5.008   7.944 -0.3678 -0.5625  0.1184
11211SOL    HW138763   5.807   4.927   7.990  0.1198  0.2749  1.4163
11211SOL    HW238764   5.856   5.013   7.876 -1.5486 -2.1736 -1.2294
11212SOL     OW38765   8.353   3.809   1.563  0.2395 -0.2726 -0.1705
11212SOL    HW138766   8.302   3.890   1.554  2.2347  1.2841  1.7767
11212SOL    HW238767   8.295   3.750   1.610 -1.7860 -0.5465 -2.8797
11213SOL     OW38768   6.245   4.820  10.228  0.0371 -0.4500  0.0315
11213SOL    HW138769   6.304   4.840  10.300 -0.7104 -0.6469  0.7133
11213SOL    HW238770   6.175   4.885  10.236  0.0479 -0.3548 -0.6310
11214SOL     OW38771   3.838   6.109   0.204  0.1690  0.2000  0.2503
11214SOL    HW138772   3.897   6.139   0.134  1.4200 -0.5711  0.9652
11214SOL    HW238773   3.835   6.014   0.193 -0.1568  0.1438  0.8370
11215SOL     OW38774   2.442  11.281   1.233  0.0768 -0.1145 -0.0776
11215SOL    HW138775   2.399  11.367   1.228 -2.1541 -1.2069 -0.0652
11215SOL    HW238776   2.411  11.235   1.155 -1.3974 -2.1085  1.6645
11216SOL     OW38777   0.768   0.197   8.980  0.4792  0.2591  0.0455
11216SOL    HW138778   0.729   0.151   8.906  2.3131 -1.5120  0.1387
11216SOL    HW238779   0.696   0.249   9.017 -1.6265 -2.4133 -0.1503
11217SOL     OW38780   7.155   1.310   3.498  0.7385  0.3481 -0.3875
11217SOL    HW138781   7.220   1.253   3.541  0.3633 -0.6409 -1.1177
11217SOL    HW238782   7.206   1.365   3.439  1.0157  0.2412 -0.2489
11218SOL     OW38783   6.936  10.630   4.145  0.7510  0.3531 -0.2019
11218SOL    HW138784   6.925  10.677   4.228 -2.3139  0.5065 -0.6305
11218SOL    HW238785   6.999  10.560   4.164  0.7970  0.9648  1.9835
11219SOL     OW38786   6.121   7.719   1.724  0.1241  0.3312 -0.1254
11219SOL    HW138787   6.031   7.702   1.693  0.7086 -0.1889 -1.5915
11219SOL    HW238788   6.113   7.799   1.776 -1.1450  0.4873 -0.5243
11220SOL     OW38789   6.472   2.971   6.094 -0.0391  0.6136 -0.0549
11220SOL    HW138790   6.505   2.903   6.153  1.3861 -0.0659 -1.5692
11220SOL    HW238791   6.384   2.942   6.070  0.8081 -1.0586 -1.2070
11221SOL     OW38792   2.049   5.389   4.411  0.6437  0.2022  0.0684
11221SOL    HW138793   1.990   5.315   4.425 -0.7042  0.9858 -1.3110
11221SOL    HW238794   2.107   5.388   4.488 -1.5862 -0.2131  1.8094
11222SOL     OW38795   3.868  10.810   4.139  0.0509  0.5708  0.4833
11222SOL    HW138796   3.857  10.768   4.224 -0.3108  0.6860  0.4921
11222SOL    HW238797   3.839  10.744   4.076  1.8570 -0.1294  0.3503
11223SOL     OW38798   4.062   6.758   2.428 -0.1284  0.2740  0.9005
11223SOL    HW138799   4.105   6.708   2.497  0.1094  0.0318  0.5731
11223SOL    HW238800   4.132   6.780   2.367 -0.4721 -0.1410  0.3524
11224SOL     OW38801   2.385   1.694   6.280 -0.0627  0.1536  0.2815
11224SOL    HW138802   2.419   1.676   6.367  0.2417  1.4104  0.4424
11224SOL    HW238803   2.463   1.705   6.226 -0.2562 -1.4813 -0.3387
11225SOL     OW38804   2.248   4.543   6.969  0.2867  0.2391  0.5674
11225SOL    HW138805   2.172   4.597   6.992 -0.3950 -0.2639 -0.4812
11225SOL    HW238806   2.258   4.555   6.875 -0.4039 -2.1362  0.1628
11226SOL     OW38807   5.437   7.039   9.534 -0.3679 -0.5679  0.7362
11226SOL    HW138808   5.405   7.038   9.624 -0.9213 -0.1549  0.5474
11226SOL    HW238809   5.510   6.976   9.533  0.6955  0.6392  1.8427
11227SOL     OW38810   4.807   6.460   3.348  0.2030 -0.3293  0.1750
11227SOL    HW138811   4.805   6.376   3.394 -1.2986 -0.8064 -0.7628
11227SOL    HW238812   4.746   6.515   3.397  0.4800 -0.0580  0.2210
11228SOL     OW38813   8.553   0.659   2.643 -0.5720 -0.3230  0.3785
11228SOL    HW138814   8.515   0.645   2.556 -0.3729 -0.1584  0.2674
11228SOL    HW238815   8.627   0.599   2.646  0.3154  0.7359 -0.1196
11229SOL     OW38816   2.685   7.084   2.580  0.0523  0.4619  0.1341
11229SOL    HW138817   2.777   7.087   2.554  0.2080 -0.9790  0.5097
11229SOL    HW238818   2.636   7.082   2.498  0.3223  1.8138 -0.0708
11230SOL     OW38819   6.163   4.833   6.156 -0.4969 -0.5367  0.1465
11230SOL    HW138820   6.256   4.841   6.177 -0.5300 -1.7760  0.7927
11230SOL    HW238821   6.162   4.804   6.065 -0.2854  0.6804 -0.2584
11231SOL     OW38822  10.132   9.439   6.128  0.6120  0.2438 -0.1604
11231SOL    HW138823  10.092   9.442   6.041  0.1118  1.4833  0.0893
11231SOL    HW238824  10.226   9.437   6.112  0.4932 -1.6344 -0.7469
11232SOL     OW38825   5.243   0.986   0.043 -0.0245 -0.0423  0.5435
11232SOL    HW138826   5.276   0.952  -0.040 -1.0349 -0.8296  0.4518
11232SOL    HW238827   5.184   0.918   0.076 -0.3999  0.6835  1.4233
11233SOL     OW38828   7.902   3.354   8.977  0.4714  0.2369  0.7736
11233SOL    HW138829   7.937   3.383   8.892 -1.5395  2.5744  0.6733
11233SOL    HW238830   7.905   3.258   8.973  2.5328  0.3353 -1.0059
11234SOL     OW38831  10.056   8.475   6.515  0.0114 -0.0748  0.4249
11234SOL    HW138832  10.134   8.487   6.461 -0.3711  0.3421 -0.0360
11234SOL    HW238833  10.082   8.410   6.580  0.2055 -1.1854 -0.7652
11235SOL     OW38834   1.618   6.566  10.154 -0.5933 -0.0863  0.1276
11235SOL    HW138835   1.620   6.582  10.060  0.1730 -1.6169 -0.1385
11235SOL    HW238836   1.543   6.617  10.186  0.6851  2.5242 -0.8801
11236SOL     OW38837   2.761   4.476  10.831  0.2264 -0.5461 -0.5572
11236SOL    HW138838   2.817   4.417  10.881  1.7796  0.5792 -0.9130
11236SOL    HW238839   2.822   4.524  10.775 -1.2551 -0.2699 -1.9690
11237SOL     OW38840   2.577   7.197   8.150 -0.1352 -0.4164  0.4232
11237SOL    HW138841   2.541   7.193   8.061 -0.7826 -0.5027  0.6832
11237SOL    HW238842   2.580   7.290   8.171  1.4767 -0.3044 -0.2648
11238SOL     OW38843   3.231   4.305  11.049 -0.0065  0.2663  0.2338
11238SOL    HW138844   3.299   4.325  10.984  1.3298  0.9744  1.8151
11238SOL    HW238845   3.260   4.222  11.087  1.2416  1.6937  2.5101
11239SOL     OW38846   1.656   0.995   3.353 -0.9209 -0.2282 -0.6357
11239SOL    HW138847   1.583   1.056   3.350 -1.2247 -0.6861 -3.3894
11239SOL    HW238848   1.619   0.911   3.328 -0.0267 -1.1117  0.8737
11240SOL     OW38849   7.665   3.258   3.866  0.1569 -0.2803  0.1482
11240SOL    HW138850   7.619   3.209   3.798  1.1331 -0.1466 -0.6225
11240SOL    HW238851   7.695   3.191   3.927 -0.2167 -0.4582  0.1399
11241SOL     OW38852   0.874   0.916   4.700  0.1284 -1.1689  0.6345
11241SOL    HW138853   0.958   0.959   4.718  0.1796 -0.3160 -1.5087
11241SOL    HW238854   0.812   0.960   4.757  0.4800  0.6983 -0.3714
11242SOL     OW38855   1.560   3.499  10.520 -0.1233  0.3466 -0.2165
11242SOL    HW138856   1.496   3.543  10.464 -0.3425 -0.8298 -0.9078
11242SOL    HW238857   1.555   3.546  10.604  0.7995  2.6335 -1.4034
11243SOL     OW38858  11.334   7.559   2.495  0.1322  0.2450 -0.6234
11243SOL    HW138859  11.362   7.479   2.450  1.0361  1.1270 -1.6569
11243SOL    HW238860  11.410   7.618   2.489  0.2646  0.4286  1.9874
11244SOL     OW38861   8.304   1.613   0.515 -0.0579 -0.1901  0.1814
11244SOL    HW138862   8.298   1.696   0.563 -1.2507 -0.5589  0.7133
11244SOL    HW238863   8.275   1.547   0.579 -0.5393 -0.8286 -0.6923
11245SOL     OW38864   6.863  10.293   5.862 -0.3163  0.4141 -0.0661
11245SOL    HW138865   6.838  10.201   5.857 -1.4338  0.7631 -0.9523
11245SOL    HW238866   6.782  10.339   5.884  0.2580  1.1842  0.4917
11246SOL     OW38867   9.323   9.240   8.539  0.4869 -0.1102 -0.5812
11246SOL    HW138868   9.284   9.165   8.585  2.5903 -0.7888  0.1565
11246SOL    HW238869   9.414   9.215   8.526  1.1442  2.1839 -0.6339
11247SOL     OW38870  10.638   4.889   3.064  0.0977 -0.5539 -0.3360
11247SOL    HW138871  10.702   4.839   3.115  0.5598  0.2529 -0.1171
11247SOL    HW238872  10.601   4.825   3.004 -0.6667 -1.6016  1.2022
11248SOL     OW38873   4.484   1.801   0.148  0.5404 -0.3657  0.0201
11248SOL    HW138874   4.440   1.833   0.227  1.0518 -0.6644  0.4238
11248SOL    HW238875   4.562   1.856   0.141  0.1746  0.0826 -0.6316
11249SOL     OW38876   1.967   9.408   5.263  0.5937 -0.0152 -0.4436
11249SOL    HW138877   2.029   9.401   5.190  1.0994 -0.0381 -0.0099
11249SOL    HW238878   1.919   9.325   5.260  2.2273 -1.0495  0.6986
11250SOL     OW38879   1.880   6.478   0.007 -0.1914 -0.1149  0.0268
11250SOL    HW138880   1.805   6.515   0.054  1.1435  0.3536  1.8202
11250SOL    HW238881   1.842   6.411  -0.050 -2.0901  0.8191  0.1676
11251SOL     OW38882   7.570   4.594   9.294 -0.1597  0.1896  0.4632
11251SOL    HW138883   7.569   4.581   9.388 -2.2393  0.6169  0.5182
11251SOL    HW238884   7.548   4.508   9.257 -3.3396  0.9110  0.5224
11252SOL     OW38885   0.298   4.354   4.029  0.0890 -0.7470  0.3052
11252SOL    HW138886   0.310   4.446   4.054 -1.4013 -0.9147  1.7357
11252SOL    HW238887   0.205   4.336   4.047  0.2519 -2.4036 -0.4018
11253SOL     OW38888   9.948   5.668   3.006 -0.3034 -0.2424  0.1081
11253SOL    HW138889   9.940   5.631   3.094 -0.6540 -2.8543 -0.9789
11253SOL    HW238890  10.034   5.711   3.006 -1.1452  1.5327  2.3202
11254SOL     OW38891   1.835   8.319   3.418  0.3825 -0.0476 -0.3638
11254SOL    HW138892   1.761   8.373   3.446 -0.7262 -1.3561 -0.6985
11254SOL    HW238893   1.826   8.315   3.322  1.6312  0.8291 -0.5317
11255SOL     OW38894   4.369  10.994   9.820  0.2966 -0.1579 -0.7958
11255SOL    HW138895   4.393  10.987   9.728  1.0654  2.0673 -0.8012
11255SOL    HW238896   4.276  11.018   9.819  0.5800  0.9992 -1.0564
11256SOL     OW38897   8.274  10.800   9.339 -0.5389  0.2453 -0.7747
11256SOL    HW138898   8.370  10.805   9.337 -0.4068 -0.3902  2.0899
11256SOL    HW238899   8.254  10.711   9.308 -0.1744  0.1430 -0.7183
11257SOL     OW38900   2.409   9.761   1.788  0.0504 -0.4522  0.2041
11257SOL    HW138901   2.364   9.839   1.821 -1.1312  0.1431 -2.6970
11257SOL    HW238902   2.346   9.719   1.730  1.8964 -1.7057 -0.9604
11258SOL     OW38903   1.110  10.763   7.849 -0.5980  0.3328  0.7073
11258SOL    HW138904   1.117  10.844   7.799  0.1018  0.0464  0.3335
11258SOL    HW238905   1.163  10.700   7.800 -2.0450 -0.6595  0.3726
11259SOL     OW38906   0.545   7.472   5.010 -0.7115 -0.3299  0.0771
11259SOL    HW138907   0.466   7.469   5.065  0.2269  0.2659  1.4860
11259SOL    HW238908   0.520   7.527   4.936 -1.2633  0.8916  1.1395
11260SOL     OW38909   3.279   6.186   4.096  0.3043  0.3498  0.1321
11260SOL    HW138910   3.290   6.099   4.134 -0.5702  0.8679  1.6089
11260SOL    HW238911   3.264   6.169   4.002  1.3507 -0.9992  0.1986
11261SOL     OW38912   5.711   3.788   5.012 -0.1177  0.0797  0.4806
11261SOL    HW138913   5.625   3.758   4.982 -0.1865 -0.1476  0.9065
11261SOL    HW238914   5.738   3.850   4.945 -0.3091 -0.3630 -0.0177
11262SOL     OW38915   5.881   9.714   3.636 -0.0666 -0.0434  0.1541
11262SOL    HW138916   5.861   9.763   3.556 -0.9413 -0.3104  0.2022
11262SOL    HW238917   5.802   9.724   3.690 -1.1339 -3.2951 -0.7068
11263SOL     OW38918   1.594   0.103  10.132  0.7949  0.2514  0.0377
11263SOL    HW138919   1.522   0.165  10.121  1.5648  1.0404 -0.5908
11263SOL    HW238920   1.551   0.019  10.148 -0.2631  0.6118 -0.8748
11264SOL     OW38921   2.183   1.281   1.094 -0.4042 -0.0558 -0.5080
11264SOL    HW138922   2.178   1.272   0.999  0.1694 -0.9768 -0.4540
11264SOL    HW238923   2.152   1.198   1.128  1.3728 -0.5079  0.0577
11265SOL     OW38924   7.404   4.472   5.166  0.5409  0.1434 -0.5015
11265SOL    HW138925   7.337   4.435   5.108  0.2648  0.5985 -0.4794
11265SOL    HW238926   7.383   4.565   5.170  1.7206  0.4480 -1.2060
11266SOL     OW38927   1.448   0.465   9.606  0.3907 -0.9269  0.3029
11266SOL    HW138928   1.358   0.454   9.639  0.0690  0.1797 -0.2124
11266SOL    HW238929   1.503   0.452   9.684 -0.4168  2.9475  1.6313
11267SOL     OW38930   7.668   9.654   7.544  0.3760  0.2352  0.5735
11267SOL    HW138931   7.695   9.648   7.452 -0.9235  1.0829  0.1258
11267SOL    HW238932   7.707   9.736   7.575  0.2147  0.3123  0.5732
11268SOL     OW38933   2.691   4.656   5.962 -0.4550  0.1937 -0.1644
11268SOL    HW138934   2.638   4.726   6.000 -0.1492  0.3237  0.0259
11268SOL    HW238935   2.633   4.613   5.899 -1.1742 -0.4143  0.8950
11269SOL     OW38936   3.146   3.998   5.905 -0.2647  0.0972 -0.1235
11269SOL    HW138937   3.173   3.976   5.816 -0.0921 -2.1656  0.4641
11269SOL    HW238938   3.206   3.949   5.961 -1.6747 -0.0936  1.2309
11270SOL     OW38939   1.238  11.225   8.935  0.0848 -0.0132 -0.0602
11270SOL    HW138940   1.173  11.252   8.871  0.6443 -0.8202 -0.9799
11270SOL    HW238941   1.251  11.132   8.919  1.8961  0.2536 -0.2904
11271SOL     OW38942   1.027   0.681   0.521 -0.0464  0.8704 -0.0126
11271SOL    HW138943   1.106   0.627   0.510 -0.2790  0.3334  0.8840
11271SOL    HW238944   1.058   0.771   0.507  0.1314  0.4369 -2.5662
11272SOL     OW38945   0.049   6.282   6.663  0.5259 -0.6954 -0.3845
11272SOL    HW138946   0.008   6.267   6.578  1.1330 -1.4007 -0.5613
11272SOL    HW238947   0.067   6.194   6.697  2.6059 -0.4063 -0.6645
11273SOL     OW38948   4.259   2.251   2.508 -0.1494  0.4358 -0.4320
11273SOL    HW138949   4.286   2.244   2.416 -0.8752 -1.4992 -0.5316
11273SOL    HW238950   4.273   2.163   2.542 -1.7631  0.6437  0.7923
11274SOL     OW38951  10.920   6.232   0.255 -0.2938  0.3262 -0.0507
11274SOL    HW138952  11.000   6.255   0.302 -0.9232  0.6170  0.8780
11274SOL    HW238953  10.862   6.307   0.267 -0.8024  0.0162 -0.5214
11275SOL     OW38954   4.603   0.541   1.552  0.0324 -0.3764 -0.6299
11275SOL    HW138955   4.565   0.551   1.464 -1.2068 -0.7085 -0.1521
11275SOL    HW238956   4.666   0.470   1.543  0.7883  0.3876 -1.5181
11276SOL     OW38957   2.000  10.192   7.045 -0.2247 -0.1734 -0.2164
11276SOL    HW138958   2.052  10.120   7.012 -0.7760 -0.6560 -0.0355
11276SOL    HW238959   1.912  10.156   7.055 -0.5996  0.6306 -0.5343
11277SOL     OW38960   6.275   3.329  10.961 -0.1387 -0.7779  0.0066
11277SOL    HW138961   6.328   3.388  10.907  0.2757  1.7725  3.0600
11277SOL    HW238962   6.338   3.272  11.005 -0.2001 -0.3779  0.6184
11278SOL     OW38963   5.419   4.267   8.341 -0.3339 -0.0568 -0.3634
11278SOL    HW138964   5.387   4.353   8.368  1.4463  0.7560 -0.7368
11278SOL    HW238965   5.341   4.218   8.317 -1.3425  1.5731 -0.4443
11279SOL     OW38966   1.789  10.363   8.974 -0.0700  0.0040  0.0174
11279SOL    HW138967   1.801  10.445   9.022 -0.1920  0.7410 -1.1775
11279SOL    HW238968   1.792  10.389   8.882 -2.1840 -1.0223 -0.3823
11280SOL     OW38969   5.834   0.195   9.027 -0.3754 -0.3930 -0.2815
11280SOL    HW138970   5.845   0.196   8.932  3.0601 -2.3752  0.0018
11280SOL    HW238971   5.819   0.103   9.048  1.6070 -0.3870  1.2952
11281SOL     OW38972   2.677   0.329   6.644 -0.1801 -0.1402 -0.1315
11281SOL    HW138973   2.698   0.236   6.657 -2.3191 -0.5835  0.3536
11281SOL    HW238974   2.696   0.345   6.551  0.5259 -0.9572 -0.1359
11282SOL     OW38975   8.107   7.966   5.005 -0.2141 -0.1627  0.0483
11282SOL    HW138976   8.068   7.894   4.955  0.1880 -0.2248 -0.1750
11282SOL    HW238977   8.118   8.037   4.941  0.8073 -0.4279 -0.0808
11283SOL     OW38978   6.843   5.401   8.830 -0.4161  0.1562 -0.1246
11283SOL    HW138979   6.847   5.434   8.740  1.1037 -0.6621 -0.3907
11283SOL    HW238980   6.934   5.404   8.860 -0.6072 -1.4523  0.6746
11284SOL     OW38981  10.507   1.262   7.592 -0.0136  0.3210  0.2417
11284SOL    HW138982  10.506   1.322   7.667  0.5133 -0.0747  0.5690
11284SOL    HW238983  10.448   1.302   7.528 -1.0979  0.2532  1.1844
11285SOL     OW38984   6.667   1.431  10.895  0.4035  0.3599 -0.6679
11285SOL    HW138985   6.741   1.413  10.836  1.3342  1.0165  0.2774
11285SOL    HW238986   6.684   1.379  10.973 -1.3882 -1.3395 -1.3650
11286SOL     OW38987   0.575   6.490   3.310  0.2536  0.0805  0.2079
11286SOL    HW138988   0.541   6.551   3.376 -0.1542  1.5393 -1.3079
11286SOL    HW238989   0.665   6.473   3.338  0.0790  0.6456  1.1684
11287SOL     OW38990   4.774   5.697  10.690  0.3382  0.2643  0.1403
11287SOL    HW138991   4.781   5.648  10.772  0.8714  1.0982  0.5989
11287SOL    HW238992   4.824   5.645  10.627  0.4083 -0.0831  0.4774
11288SOL     OW38993   5.980   1.858  10.045  0.6740 -0.7838  0.2150
11288SOL    HW138994   5.928   1.846   9.966  0.7875  1.5361 -0.2337
11288SOL    HW238995   5.950   1.941  10.081  0.7649 -1.7115  2.5181
11289SOL     OW38996  11.250   9.450   3.731  0.5563  0.4389 -0.7175
11289SOL    HW138997  11.269   9.376   3.789  0.2378 -1.0385 -2.4674
11289SOL    HW238998  11.320   9.513   3.749  0.3423  0.1112  1.4234
11290SOL     OW38999   9.995   3.146   7.407 -0.1911 -0.5620  0.0114
11290SOL    HW139000  10.079   3.175   7.443 -0.8489 -0.9543  1.9175
11290SOL    HW239001   9.930   3.175   7.472 -1.5765  0.0785 -1.6190
11291SOL     OW39002   3.010   6.111   1.578 -0.3505  0.4049 -0.4747
11291SOL    HW139003   2.922   6.126   1.613 -0.8737  0.4407 -1.7935
11291SOL    HW239004   3.046   6.041   1.633 -0.1677  2.2316  1.8210
11292SOL     OW39005   4.873   6.877   7.901  0.2455 -0.0591  0.8302
11292SOL    HW139006   4.888   6.943   7.833 -0.8860  0.2858  0.9073
11292SOL    HW239007   4.921   6.910   7.977  0.6407  0.0870  0.5228
11293SOL     OW39008   1.666   4.669   6.875  0.2820  0.5223 -0.2747
11293SOL    HW139009   1.633   4.582   6.897  1.3018  0.6169  1.6963
11293SOL    HW239010   1.601   4.729   6.912  1.4327  0.6552  1.6084
11294SOL     OW39011   2.547   8.918  11.115 -0.1032 -0.5846  0.4210
11294SOL    HW139012   2.523   8.968  11.037 -0.4920 -1.9511 -0.3363
11294SOL    HW239013   2.474   8.934  11.176  0.4999  0.9928  0.7736
11295SOL     OW39014  11.285   6.387   9.178 -0.0837 -0.8079  0.6273
11295SOL    HW139015  11.332   6.347   9.251 -0.5344 -0.4377  1.1303
11295SOL    HW239016  11.210   6.430   9.219  0.0770  0.0502  0.0304
11296SOL     OW39017   7.317   2.536   7.309 -0.0448  0.0773  0.4559
11296SOL    HW139018   7.317   2.441   7.321 -1.5327 -0.4347 -2.7920
11296SOL    HW239019   7.399   2.555   7.264  0.5745  0.4282  1.7343
11297SOL     OW39020   8.904   6.030   0.067 -0.9614 -0.0015 -0.5086
11297SOL    HW139021   8.916   6.038   0.161 -1.2589  0.1076 -0.4791
11297SOL    HW239022   8.824   6.081   0.048 -0.5130  0.5627 -0.9180
11298SOL     OW39023   2.478  10.051   7.036  0.2489  0.3573  0.6667
11298SOL    HW139024   2.391  10.012   7.033 -0.0423  0.9880  0.7252
11298SOL    HW239025   2.538   9.977   7.033 -0.2546  0.0034 -1.5697
11299SOL     OW39026   7.494   1.250   9.417  0.1278 -0.0226  0.1830
11299SOL    HW139027   7.560   1.253   9.486  0.0455 -1.2554  0.3240
11299SOL    HW239028   7.542   1.229   9.337 -0.3348 -2.9996  0.6440
11300SOL     OW39029   6.732   5.932   2.856  0.0505 -0.3333 -0.7483
11300SOL    HW139030   6.713   5.850   2.812  0.0287 -1.5677  1.4903
11300SOL    HW239031   6.800   5.909   2.920 -0.2374  1.3034  0.1659
11301SOL     OW39032   4.947   4.320   3.871  0.6438  0.1077 -0.5506
11301SOL    HW139033   5.028   4.280   3.903 -0.9707 -2.9155 -0.1761
11301SOL    HW239034   4.913   4.370   3.945 -0.0221 -2.0871  0.6570
11302SOL     OW39035   5.733   4.355   4.777 -0.2719 -0.3695 -0.1111
11302SOL    HW139036   5.760   4.264   4.761 -0.3392 -0.2474 -0.9370
11302SOL    HW239037   5.705   4.387   4.691 -0.6503  0.3009  0.2585
11303SOL     OW39038   2.876   7.927   3.039 -0.6470 -0.0399 -0.1524
11303SOL    HW139039   2.823   7.899   3.114 -1.3045  0.7815 -0.3016
11303SOL    HW239040   2.876   8.023   3.044  0.8801 -0.0292 -0.1267
11304SOL     OW39041   3.397   5.829   8.485 -0.4624 -0.3493  0.0582
11304SOL    HW139042   3.423   5.920   8.500  3.8570 -1.2017 -1.5689
11304SOL    HW239043   3.424   5.811   8.395 -1.5160 -3.2032  0.2657
11305SOL     OW39044   7.092   1.520   9.202  0.3439 -0.0532 -0.2220
11305SOL    HW139045   7.091   1.554   9.291  1.2092  0.3576 -0.3648
11305SOL    HW239046   7.000   1.510   9.179  0.1124  0.1798  0.5880
11306SOL     OW39047   3.712   0.349   0.139 -0.2332 -0.3108  0.5137
11306SOL    HW139048   3.764   0.417   0.181  0.2841 -0.7527  0.5959
11306SOL    HW239049   3.764   0.269   0.149  0.3337 -0.2605 -1.7583
11307SOL     OW39050   9.881   1.081   6.533  0.1870 -0.2943  0.0817
11307SOL    HW139051   9.930   1.006   6.497  1.0106 -0.5657  1.6834
11307SOL    HW239052   9.791   1.050   6.539  0.2340 -0.6040 -0.7468
11308SOL     OW39053   7.262   4.273   5.978  0.1278 -0.0437 -0.3515
11308SOL    HW139054   7.205   4.205   6.013 -1.2355  1.6599  0.8729
11308SOL    HW239055   7.257   4.263   5.883 -0.7289 -1.0983 -0.1997
11309SOL     OW39056  11.180   8.379  10.947  0.3110 -0.2294 -0.1819
11309SOL    HW139057  11.104   8.386  10.890  1.0509 -0.3439 -1.2046
11309SOL    HW239058  11.244   8.330  10.895  0.9372 -0.4810  0.8120
11310SOL     OW39059   8.314   7.459   0.136 -0.7021  0.0579 -0.5255
11310SOL    HW139060   8.370   7.515   0.083 -1.7357  0.7554 -0.8853
11310SOL    HW239061   8.368   7.436   0.212  0.0637  0.7182 -0.8674
11311SOL     OW39062   7.013   7.704   8.290 -0.2060  0.0981 -0.6232
11311SOL    HW139063   7.104   7.716   8.265 -0.2851 -0.5954 -1.2656
11311SOL    HW239064   6.990   7.785   8.335  0.4450  0.6786 -1.3077
11312SOL     OW39065   6.538   2.042  11.273  0.3325  0.5722 -0.7020
11312SOL    HW139066   6.572   1.973  11.217 -0.8655 -0.9316  0.3658
11312SOL    HW239067   6.616   2.085  11.308  1.0844  1.0829 -2.9226
11313SOL     OW39068   1.236   7.069   1.350  0.0358  0.1547 -0.4873
11313SOL    HW139069   1.203   7.065   1.260  0.6203 -0.4460 -0.6767
11313SOL    HW239070   1.188   7.142   1.390 -0.8464 -0.1161 -1.0324
11314SOL     OW39071   0.581   1.638   2.903 -0.0701  0.1714  0.0367
11314SOL    HW139072   0.575   1.543   2.908  1.0528  0.1106  0.4028
11314SOL    HW239073   0.538   1.669   2.983 -0.8818  0.0010 -0.3231
11315SOL     OW39074   9.076   3.697   0.603 -0.0082 -0.8234 -0.8545
11315SOL    HW139075   9.129   3.626   0.639 -1.5239 -1.6482 -0.2154
11315SOL    HW239076   9.102   3.774   0.653 -0.4013 -1.4935  0.3963
11316SOL     OW39077   1.286   0.149   9.465 -0.3158 -0.1522  0.0839
11316SOL    HW139078   1.352   0.215   9.443 -0.0572 -0.4169  0.0538
11316SOL    HW239079   1.337   0.073   9.492 -0.5952 -0.6175 -0.6620
11317SOL     OW39080   4.140   2.930   9.160  0.0658 -0.1261 -0.2956
11317SOL    HW139081   4.056   2.909   9.199  0.2808 -0.6213 -0.1044
11317SOL    HW239082   4.150   3.024   9.176 -0.7076  0.0490 -0.8223
11318SOL     OW39083   6.566   2.535   4.886  0.2847  0.0956 -0.0774
11318SOL    HW139084   6.540   2.527   4.794  0.8153  0.4289 -0.2563
11318SOL    HW239085   6.514   2.469   4.931 -0.8499  0.7137 -0.4485
11319SOL     OW39086   2.927  11.307  10.308 -0.3730  0.1934 -0.4385
11319SOL    HW139087   2.951  11.369  10.377 -0.4268 -0.7496  0.4550
11319SOL    HW239088   2.911  11.361  10.231 -1.5312  1.4020  0.6093
11320SOL     OW39089   5.217   0.228   5.718 -0.4604  0.0222 -0.0317
11320SOL    HW139090   5.260   0.174   5.653  1.1609  1.9292 -0.5805
11320SOL    HW239091   5.261   0.206   5.800  0.2601  0.5971 -0.2684
11321SOL     OW39092   7.074   4.830   2.615  0.0360 -0.4304 -0.0224
11321SOL    HW139093   6.987   4.819   2.576  0.0563  0.1714 -0.2559
11321SOL    HW239094   7.063   4.903   2.676  1.0400  1.6121 -2.1924
11322SOL     OW39095   5.447   7.200   8.980  0.1671  0.1324 -0.3046
11322SOL    HW139096   5.361   7.198   8.939  0.8331 -0.4875 -1.6833
11322SOL    HW239097   5.450   7.121   9.034  0.1924 -0.2629 -0.8910
11323SOL     OW39098   8.666   0.547   2.135 -0.2902  0.4564 -0.0218
11323SOL    HW139099   8.693   0.627   2.180 -1.4823  0.3091  0.9850
11323SOL    HW239100   8.649   0.484   2.206  1.2192 -0.8735 -0.8279
11324SOL     OW39101   9.675   0.955   5.105 -0.5824 -0.0030  0.3483
11324SOL    HW139102   9.759   0.952   5.151  0.3187  0.3276 -1.2332
11324SOL    HW239103   9.674   0.876   5.052 -1.6692 -0.4462  1.0286
11325SOL     OW39104   9.308   9.620   4.000 -0.4785  0.2128  0.5223
11325SOL    HW139105   9.271   9.543   3.957  1.6077 -0.4382 -0.1838
11325SOL    HW239106   9.289   9.607   4.093 -0.7937 -0.7794  0.3243
11326SOL     OW39107   8.976   8.604   0.735  0.6286 -0.4126  0.0763
11326SOL    HW139108   8.969   8.676   0.672  1.8628 -0.8790 -0.6170
11326SOL    HW239109   8.888   8.593   0.769  0.5864  2.0096  0.8317
11327SOL     OW39110   9.964  10.960   4.740 -0.2506 -0.2047 -0.4238
11327SOL    HW139111  10.017  10.934   4.665  0.1472  1.2386 -0.6522
11327SOL    HW239112   9.880  10.916   4.727  0.9156 -2.6756  0.0395
11328SOL     OW39113   2.383  10.864  10.621 -0.1840  0.2563  0.2317
11328SOL    HW139114   2.300  10.864  10.667 -0.0052 -1.4863  0.5668
11328SOL    HW239115   2.401  10.957  10.604 -2.1339  0.6481  0.2260
11329SOL     OW39116   4.739  10.609   7.903  0.3547  0.0822 -0.1180
11329SOL    HW139117   4.674  10.650   7.846  1.2888 -1.0429 -2.0465
11329SOL    HW239118   4.694  10.598   7.987 -1.0983  1.6259 -0.6755
11330SOL     OW39119   5.739   8.553   3.264 -0.3253  0.3023 -0.1816
11330SOL    HW139120   5.726   8.585   3.353  0.6189  1.2060 -0.3644
11330SOL    HW239121   5.712   8.625   3.208 -0.2429 -0.0097 -0.6284
11331SOL     OW39122   9.196   3.822   3.926 -0.1281 -0.9336  0.7216
11331SOL    HW139123   9.102   3.844   3.924  0.3592  2.0500  3.8254
11331SOL    HW239124   9.201   3.743   3.981 -0.8809 -1.5119 -0.0370
11332SOL     OW39125   1.414   5.649   8.701 -0.4577 -0.7099  0.0616
11332SOL    HW139126   1.337   5.670   8.649 -0.8875 -0.6291  0.7341
11332SOL    HW239127   1.396   5.686   8.787  0.8293  0.3488 -0.1072
11333SOL     OW39128   8.238   9.827   2.170 -0.0514 -0.2232  0.2361
11333SOL    HW139129   8.295   9.760   2.134  0.6945  0.3243  0.3864
11333SOL    HW239130   8.246   9.817   2.265 -0.0744 -0.0412  0.2582
11334SOL     OW39131   0.897   4.062   7.224  0.5131  0.1701  0.0756
11334SOL    HW139132   0.896   4.158   7.220  2.5308  0.2871  1.5526
11334SOL    HW239133   0.857   4.034   7.142 -0.3252  2.2858 -0.2580
11335SOL     OW39134   9.216   3.357  10.513  0.1870  0.3564 -0.3009
11335SOL    HW139135   9.178   3.399  10.590  0.2221  0.4072 -0.3120
11335SOL    HW239136   9.306   3.338  10.538  0.0861  0.0208 -0.1926
11336SOL     OW39137   0.390   4.820   3.685 -0.0474 -0.2654  0.7552
11336SOL    HW139138   0.374   4.846   3.776 -1.2508  0.5435  0.3228
11336SOL    HW239139   0.324   4.866   3.635  1.4636  0.3514 -0.7090
11337SOL     OW39140   1.965   1.836  11.042 -0.5543  0.1962  0.8274
11337SOL    HW139141   1.870   1.851  11.039 -0.4367  0.5947 -1.2909
11337SOL    HW239142   2.003   1.923  11.056 -0.3839  0.4219 -0.9741
11338SOL     OW39143   5.347   3.149   6.727  0.6232  0.1075  0.0117
11338SOL    HW139144   5.296   3.199   6.664 -0.6171 -0.3417  0.6552
11338SOL    HW239145   5.400   3.089   6.672 -0.4694 -0.3081 -0.6064
11339SOL     OW39146   5.714   7.406   8.707  0.1459  0.3495 -0.2531
11339SOL    HW139147   5.704   7.397   8.612 -1.2199 -2.2650  0.0666
11339SOL    HW239148   5.664   7.332   8.743 -0.2515  1.8939  2.5423
11340SOL     OW39149   3.872   9.744   4.709  0.7204 -0.2586 -0.2842
11340SOL    HW139150   3.925   9.683   4.657 -0.3078 -2.3347  1.0326
11340SOL    HW239151   3.900   9.730   4.799 -0.4544  0.2644  0.1707
11341SOL     OW39152  10.459   2.109   0.915 -0.2944  0.5881  0.1736
11341SOL    HW139153  10.447   2.068   0.829 -1.6027 -0.5361  0.8682
11341SOL    HW239154  10.508   2.190   0.897  1.3652 -0.7239 -1.3525
11342SOL     OW39155   2.752   1.566   8.891  0.0387 -0.1865  0.2032
11342SOL    HW139156   2.680   1.546   8.951 -1.8097  1.2222 -1.4748
11342SOL    HW239157   2.762   1.661   8.897 -1.6352  0.2836 -3.2640
11343SOL     OW39158   5.555   2.005   6.505 -0.8685 -0.1339 -0.5125
11343SOL    HW139159   5.464   1.986   6.529  0.1724 -0.7213  3.3429
11343SOL    HW239160   5.592   1.920   6.484 -1.0777  0.0556 -1.6780
11344SOL     OW39161  10.908   2.256   8.710 -0.3037 -0.3555 -0.0538
11344SOL    HW139162  10.843   2.250   8.640 -0.0216  0.7815 -0.4285
11344SOL    HW239163  10.907   2.170   8.751 -2.9642  0.0600  0.8015
11345SOL     OW39164   0.131   2.953  11.213  0.2179 -0.2353  1.0185
11345SOL    HW139165   0.204   2.907  11.171  0.7686  2.1173 -0.7228
11345SOL    HW239166   0.151   2.952  11.306  1.8563 -0.6934  0.6641
11346SOL     OW39167   9.260   4.494   6.958 -0.0040  0.3315 -0.2975
11346SOL    HW139168   9.171   4.529   6.949 -0.8516 -1.5222  0.4377
11346SOL    HW239169   9.254   4.406   6.920  1.8016  0.5863 -1.2118
11347SOL     OW39170   9.571   4.413   0.848 -0.1206  0.1277 -0.8210
11347SOL    HW139171   9.644   4.353   0.861  0.1919  0.7386  0.3126
11347SOL    HW239172   9.510   4.392   0.919 -0.9424 -0.2327 -1.6315
11348SOL     OW39173   7.886   3.104   0.296 -0.1139 -0.2989 -0.0215
11348SOL    HW139174   7.928   3.182   0.334 -0.5772  0.1034 -0.3226
11348SOL    HW239175   7.946   3.075   0.228 -0.1031  0.0071 -0.1467
11349SOL     OW39176   7.838   3.742   1.772  0.1307 -0.8936  0.1616
11349SOL    HW139177   7.748   3.774   1.775  0.2446 -0.6329  0.9281
11349SOL    HW239178   7.884   3.796   1.837  0.9016 -0.8163 -0.4557
11350SOL     OW39179   6.944  10.608   7.119 -0.0048 -0.3223 -0.5233
11350SOL    HW139180   6.947  10.686   7.175  1.8511 -1.5560  1.1463
11350SOL    HW239181   6.895  10.637   7.042 -2.2174  1.5545  1.4849
11351SOL     OW39182   9.765   4.140   0.386  0.2058  0.1340 -0.0255
11351SOL    HW139183   9.820   4.214   0.361 -0.1354  0.4422  0.1273
11351SOL    HW239184   9.736   4.102   0.303 -0.3437  0.7160 -0.1054
11352SOL     OW39185   1.048   8.997   8.589 -0.5985  0.0417 -0.8956
11352SOL    HW139186   0.971   8.968   8.638 -0.2453 -0.9493 -0.9173
11352SOL    HW239187   1.016   9.007   8.499 -0.6692 -0.5433 -0.9412
11353SOL     OW39188   3.059  10.549   1.613 -0.7376 -0.2592 -0.1279
11353SOL    HW139189   3.091  10.639   1.609  0.1309 -0.5605 -0.0643
11353SOL    HW239190   3.018  10.534   1.528 -1.0647  0.2574 -0.0634
11354SOL     OW39191   4.815  10.478   8.482 -0.2471 -0.1517  0.0453
11354SOL    HW139192   4.746  10.536   8.516 -0.6314 -1.8609  2.2926
11354SOL    HW239193   4.790  10.461   8.391 -1.5710  1.0473  0.1684
11355SOL     OW39194   1.137   6.113  10.443 -0.1878  0.0445  0.3116
11355SOL    HW139195   1.160   6.189  10.498 -0.8973  1.3269 -1.1178
11355SOL    HW239196   1.080   6.150  10.375 -1.4612 -1.9825  0.2403
11356SOL     OW39197   6.804   5.773   1.096  0.3312  0.0871  0.3248
11356SOL    HW139198   6.807   5.677   1.102 -1.4313 -0.0245 -0.3263
11356SOL    HW239199   6.764   5.790   1.011 -0.8240  1.3806  1.1188
11357SOL     OW39200   8.490   9.280   6.611  0.3181 -0.2252 -0.1247
11357SOL    HW139201   8.512   9.246   6.525 -1.7409 -0.0129 -0.7707
11357SOL    HW239202   8.566   9.260   6.665  2.8783  2.2038 -2.6618
11358SOL     OW39203   8.080   3.136   9.905 -0.0895 -0.7977  0.3042
11358SOL    HW139204   8.125   3.131   9.989 -1.6774  1.8395  1.3794
11358SOL    HW239205   8.057   3.228   9.895 -0.7854 -1.2158 -2.5891
11359SOL     OW39206  10.705   4.185  10.280 -0.4765 -0.3593 -0.9384
11359SOL    HW139207  10.750   4.166  10.198 -0.7391 -1.9244 -0.7384
11359SOL    HW239208  10.687   4.099  10.318 -0.0250  0.3645  0.9465
11360SOL     OW39209   2.987   0.928   8.936  0.7354 -0.3877 -0.5983
11360SOL    HW139210   2.993   0.894   9.025 -0.0757  0.1027 -0.3535
11360SOL    HW239211   2.960   0.853   8.883 -1.3830 -0.0718 -0.0052
11361SOL     OW39212   6.633   1.418   8.803 -0.3061 -0.6098  0.1604
11361SOL    HW139213   6.613   1.509   8.825  0.2340 -0.5847  0.5430
11361SOL    HW239214   6.548   1.379   8.786 -0.6265 -0.2989  1.0089
11362SOL     OW39215   0.817   6.273   9.933  0.1136  0.2171 -0.0459
11362SOL    HW139216   0.874   6.201   9.960 -0.3399  0.6778  2.2243
11362SOL    HW239217   0.752   6.232   9.876  1.3915 -0.7078 -0.8403
11363SOL     OW39218   8.406   5.719   2.992 -0.0844 -0.3040 -0.0325
11363SOL    HW139219   8.320   5.745   3.026 -0.2782 -0.8574 -0.0972
11363SOL    HW239220   8.456   5.694   3.069  0.9214  2.5795  0.3013
11364SOL     OW39221   6.288   0.355   3.073 -0.6733  0.4564 -0.1154
11364SOL    HW139222   6.223   0.418   3.043 -0.4549  0.3762 -0.7557
11364SOL    HW239223   6.325   0.395   3.152 -0.2456  1.3101 -0.7464
11365SOL     OW39224   0.967  10.320  10.673  0.0745  0.2200 -0.7626
11365SOL    HW139225   0.899  10.381  10.644 -1.4902 -0.9830  0.3212
11365SOL    HW239226   0.948  10.303  10.765  2.1156  0.2063 -0.3072
11366SOL     OW39227   7.949   4.947   3.639  0.7134 -0.3620  0.3174
11366SOL    HW139228   8.011   4.931   3.567  1.3124 -1.7608  1.1289
11366SOL    HW239229   7.895   4.869   3.642 -1.6670  1.1794 -0.8985
11367SOL     OW39230   7.323   9.490   1.746 -0.1559 -0.0729 -0.9264
11367SOL    HW139231   7.240   9.526   1.777  0.2476  0.8327 -0.8877
11367SOL    HW239232   7.317   9.396   1.764 -1.0328  0.0401 -0.6232
11368SOL     OW39233   8.049   4.667   2.989 -0.3476  0.3511 -0.4510
11368SOL    HW139234   8.101   4.733   2.943  1.5796 -1.6160 -1.1722
11368SOL    HW239235   8.053   4.693   3.081  2.5387 -0.1369 -0.3914
11369SOL     OW39236  10.464   3.314   4.761  0.4169  0.1671 -0.8951
11369SOL    HW139237  10.388   3.267   4.727  1.7130  0.4811 -4.3894
11369SOL    HW239238  10.532   3.247   4.770  0.7043  0.4466 -0.9412
11370SOL     OW39239   1.298   2.348   1.805  0.3823  0.0067  0.2071
11370SOL    HW139240   1.324   2.298   1.728 -0.8900  2.0394 -1.5965
11370SOL    HW239241   1.295   2.439   1.775 -1.6054  0.6558  2.2294
11371SOL     OW39242   4.779   7.725  10.529  0.5237 -0.1964 -0.3596
11371SOL    HW139243   4.841   7.653  10.536 -1.2721 -1.6368  1.2476
11371SOL    HW239244   4.830   7.804  10.548  2.2015 -1.1711 -0.7821
11372SOL     OW39245   0.073   3.648   9.859 -0.3207 -0.2440 -0.2371
11372SOL    HW139246   0.098   3.716   9.922  1.3873 -1.5419  0.5422
11372SOL    HW239247  -0.021   3.636   9.872 -0.6860  2.1326 -0.5757
11373SOL     OW39248   4.261   3.925   2.271 -0.2346 -0.2902  0.1938
11373SOL    HW139249   4.233   3.861   2.205 -2.2740  0.1097  0.6306
11373SOL    HW239250   4.214   3.899   2.350  2.4940 -1.0036  1.6186
11374SOL     OW39251  10.092   6.455   6.746 -0.0502 -0.2952 -1.0451
11374SOL    HW139252  10.172   6.404   6.756  1.2521  1.4023 -2.3530
11374SOL    HW239253  10.023   6.390   6.732  1.0845 -1.7768  0.1786
11375SOL     OW39254   4.824   6.622   8.697  0.0590  0.1579  0.3289
11375SOL    HW139255   4.746   6.571   8.719 -0.2416  0.3425 -0.2935
11375SOL    HW239256   4.885   6.605   8.768 -0.8727  0.6920  1.2635
11376SOL     OW39257  10.859   5.153   6.786 -0.4665  0.2641 -0.1035
11376SOL    HW139258  10.942   5.162   6.740  0.1686  1.2596  1.1897
11376SOL    HW239259  10.882   5.109   6.869 -1.3989 -0.4404 -0.2115
11377SOL     OW39260   4.784   9.137  10.966  0.3382 -0.4006  0.1018
11377SOL    HW139261   4.735   9.188  11.031 -0.5496 -0.6089 -0.3969
11377SOL    HW239262   4.720   9.115  10.899  1.8924  2.4166 -2.4413
11378SOL     OW39263   6.801  10.914   8.869 -0.3323  0.4839 -0.1856
11378SOL    HW139264   6.809  10.830   8.824 -0.1692  1.3089 -1.7242
11378SOL    HW239265   6.890  10.935   8.897  0.3610  1.9947 -3.2648
11379SOL     OW39266   0.142   6.900   7.893  0.0944 -0.4476  0.3352
11379SOL    HW139267   0.181   6.858   7.817  1.8967 -1.5375  1.8155
11379SOL    HW239268   0.099   6.829   7.941 -0.6317  0.1461  0.5776
11380SOL     OW39269   1.987   7.894   7.195 -0.5247  0.2361 -0.5171
11380SOL    HW139270   1.896   7.913   7.219 -0.7859 -2.4488  0.8237
11380SOL    HW239271   2.038   7.962   7.239 -1.5044 -1.2389  3.0526
11381SOL     OW39272   7.551   4.758   4.803  0.2660  0.0847  0.0250
11381SOL    HW139273   7.505   4.678   4.777 -0.4750  0.4018  0.3450
11381SOL    HW239274   7.615   4.771   4.733 -1.1770  0.4803 -1.2610
11382SOL     OW39275   4.498   8.922   2.903 -0.1156  0.2023  0.7165
11382SOL    HW139276   4.505   8.830   2.928 -1.6209 -0.3123 -0.6729
11382SOL    HW239277   4.429   8.957   2.960  1.0817  0.7355  1.8835
11383SOL     OW39278   1.465   3.177   3.330 -0.4943 -0.0466 -0.4670
11383SOL    HW139279   1.482   3.093   3.288 -1.9732 -0.4153 -0.3611
11383SOL    HW239280   1.429   3.154   3.416 -1.0505  0.6952 -0.5004
11384SOL     OW39281   2.244   6.435   1.345 -0.1941 -0.2247 -0.5251
11384SOL    HW139282   2.188   6.460   1.418 -1.5580 -1.5621 -1.0860
11384SOL    HW239283   2.333   6.449   1.377 -0.7786 -0.6281  1.3233
11385SOL     OW39284   8.884  10.273   8.603 -0.0802 -0.3376 -0.2758
11385SOL    HW139285   8.858  10.240   8.689  0.3029 -2.1894 -0.8446
11385SOL    HW239286   8.960  10.220   8.579  1.1641  1.6308 -0.8199
11386SOL     OW39287   3.605   6.146  11.328 -0.2940 -0.3261 -0.2355
11386SOL    HW139288   3.629   6.200  11.403  0.2312 -0.0732 -0.5879
11386SOL    HW239289   3.521   6.183  11.298  1.1373  1.7174 -1.8460
11387SOL     OW39290   9.995   7.940   9.257  0.2900 -0.1364 -0.8320
11387SOL    HW139291  10.008   7.988   9.339 -0.9861 -1.2056  0.0252
11387SOL    HW239292  10.077   7.893   9.243  0.2839 -0.4595  0.1837
11388SOL     OW39293   6.442   3.003  11.192  0.6170 -0.0985  0.1329
11388SOL    HW139294   6.521   2.989  11.243  0.8829 -1.3837 -0.6232
11388SOL    HW239295   6.377   2.944  11.231  1.0050 -1.5641 -1.3961
11389SOL     OW39296   2.637   0.158   0.518  0.0690 -0.3230 -0.5121
11389SOL    HW139297   2.620   0.197   0.604 -0.7807  1.0262 -1.2676
11389SOL    HW239298   2.708   0.211   0.482 -2.0212  1.4671 -2.1187
11390SOL     OW39299   2.220   8.216   4.118 -0.0967  0.2378 -0.0736
11390SOL    HW139300   2.194   8.131   4.081 -0.5233  0.5576 -0.5131
11390SOL    HW239301   2.138   8.259   4.141  0.0926  0.7348 -0.3087
11391SOL     OW39302   9.565   7.568  10.335 -0.0760 -0.5654 -0.0116
11391SOL    HW139303   9.512   7.586  10.413 -0.1644 -0.6575 -0.0496
11391SOL    HW239304   9.632   7.636  10.335  0.2675 -0.9071  0.4525
11392SOL     OW39305  10.307   0.443   6.959 -0.0899  0.6480 -0.1426
11392SOL    HW139306  10.400   0.425   6.949  0.5636  2.6266  1.9824
11392SOL    HW239307  10.299   0.538   6.950 -2.0773  0.3898 -1.4639
11393SOL     OW39308  11.052   4.934   3.651 -0.1826  0.2567 -0.1090
11393SOL    HW139309  11.042   4.935   3.556  1.2252 -2.5391 -0.3524
11393SOL    HW239310  11.071   4.842   3.672 -0.6210  0.7972  2.8926
11394SOL     OW39311   4.983   2.984   6.524 -0.5677  0.2520  0.4398
11394SOL    HW139312   5.042   3.005   6.597  1.6787  0.5779 -1.4101
11394SOL    HW239313   5.025   2.910   6.480 -2.7429 -0.9911  0.4198
11395SOL     OW39314  10.875   0.391  10.843 -0.1583  0.2090  0.5902
11395SOL    HW139315  10.814   0.433  10.903  0.1370  0.2243  0.8755
11395SOL    HW239316  10.864   0.297  10.860  0.8548  0.2642  1.5632
11396SOL     OW39317   7.012  10.697   0.078  0.1655  0.5798 -0.8612
11396SOL    HW139318   7.088  10.688   0.020  0.5515  0.2175 -0.2936
11396SOL    HW239319   7.046  10.738   0.157  0.2443 -1.7855  0.3572
11397SOL     OW39320   9.390   1.938   5.729 -0.0155  0.9073  0.1344
11397SOL    HW139321   9.312   1.992   5.713  0.6329  1.5215 -1.0247
11397SOL    HW239322   9.447   1.994   5.782  0.7605  1.4707 -1.2744
11398SOL     OW39323   3.541   2.083   2.912 -0.8509  0.0261  0.0022
11398SOL    HW139324   3.501   2.003   2.946 -0.0236 -0.0459  0.8238
11398SOL    HW239325   3.583   2.123   2.988 -1.8260  1.6008 -0.2475
11399SOL     OW39326   5.807   9.771   1.350  0.0074 -0.0155  0.2653
11399SOL    HW139327   5.745   9.698   1.355  0.6457 -0.5013  1.3166
11399SOL    HW239328   5.888   9.732   1.316 -0.8714  1.0501 -3.2835
11400SOL     OW39329   7.663   5.852   3.181  0.4500 -0.8467 -0.1106
11400SOL    HW139330   7.740   5.900   3.212  0.9602 -1.1590 -0.8708
11400SOL    HW239331   7.666   5.862   3.086 -0.4211 -0.9135 -0.1510
11401SOL     OW39332  10.182  11.078   1.433  0.4775  0.1019  0.1365
11401SOL    HW139333  10.275  11.100   1.429  0.5838 -0.3555  0.0231
11401SOL    HW239334  10.167  11.023   1.356  0.4719 -1.1338  0.9948
11402SOL     OW39335  10.659   4.473   3.799 -0.2556 -0.0897 -0.8426
11402SOL    HW139336  10.726   4.434   3.744  0.2499  1.1611 -1.1214
11402SOL    HW239337  10.631   4.402   3.857  1.5004 -0.5494 -0.5378
11403SOL     OW39338   8.389   3.886   9.922  0.0100  0.0962  0.3078
11403SOL    HW139339   8.427   3.806   9.886  0.0366 -0.0246  0.6070
11403SOL    HW239340   8.458   3.923   9.976  0.1448  0.5425 -0.1655
11404SOL     OW39341   5.594   7.419  10.536  0.2353  0.3176 -0.3888
11404SOL    HW139342   5.536   7.470  10.593 -1.0795 -1.5156 -0.0446
11404SOL    HW239343   5.622   7.346  10.590 -1.3382 -1.6710 -2.1689
11405SOL     OW39344   2.564   2.270  11.173  0.2360 -0.4166 -0.2336
11405SOL    HW139345   2.631   2.286  11.239 -0.2922 -0.6621  0.3697
11405SOL    HW239346   2.579   2.337  11.106  2.5435 -1.9035 -1.2567
11406SOL     OW39347   2.078   3.067   5.888  0.2140  0.0059  0.0576
11406SOL    HW139348   2.148   3.100   5.832  1.5589 -0.9233  1.1542
11406SOL    HW239349   2.089   2.972   5.888 -1.6077 -0.2327 -0.4608
11407SOL     OW39350   3.889   8.232   1.995 -0.1827 -0.4929  0.1521
11407SOL    HW139351   3.949   8.159   2.008  0.3164 -0.0254  0.5342
11407SOL    HW239352   3.945   8.302   1.959 -0.4546  0.0237  0.7287
11408SOL     OW39353   3.262  10.524  10.097 -0.0693 -0.5387  0.4858
11408SOL    HW139354   3.347  10.567  10.111 -1.0222  1.5919 -0.0647
11408SOL    HW239355   3.202  10.570  10.156 -1.1815 -0.8973 -0.3498
11409SOL     OW39356   9.028   4.200  10.450  0.7785  0.3757  0.4294
11409SOL    HW139357   8.958   4.169  10.508  0.7986  0.6928  0.6237
11409SOL    HW239358   9.108   4.165  10.488  0.7240  0.0001  0.1980
11410SOL     OW39359   6.580   2.169   9.096  0.3089 -0.1429  0.3570
11410SOL    HW139360   6.502   2.116   9.109 -0.6525  0.7895 -1.5183
11410SOL    HW239361   6.653   2.108   9.110 -0.7572 -1.3965  0.5194
11411SOL     OW39362   2.576   6.003   9.528 -0.8174 -0.2562 -0.1146
11411SOL    HW139363   2.523   6.022   9.450 -0.4935 -1.2231 -0.5770
11411SOL    HW239364   2.523   5.944   9.580 -1.0714  0.4633  0.4591
11412SOL     OW39365   9.396   6.904  10.840 -0.2881  0.2203  0.1456
11412SOL    HW139366   9.312   6.878  10.880  0.5568 -0.1428  1.7113
11412SOL    HW239367   9.441   6.953  10.908  0.1873  1.6853 -1.1865
11413SOL     OW39368   3.918  11.218   3.246 -0.1859 -0.2930  0.1124
11413SOL    HW139369   3.882  11.172   3.170  2.3228 -1.6646 -0.3115
11413SOL    HW239370   3.861  11.195   3.318 -0.5497 -1.8581 -0.6641
11414SOL     OW39371  10.050   2.156   3.628  0.3780  0.1292  0.1039
11414SOL    HW139372   9.968   2.172   3.582  0.8630  0.0978 -0.7865
11414SOL    HW239373  10.111   2.126   3.560  1.5448  1.5855  0.4737
11415SOL     OW39374   5.994   4.055   0.405 -0.4037 -0.2964  0.3220
11415SOL    HW139375   5.935   4.019   0.471 -1.2278  1.1679  0.3825
11415SOL    HW239376   5.954   4.031   0.322  0.2235 -1.4533  0.3426
11416SOL     OW39377   4.196   2.611   0.929 -0.2747  0.1332  0.2261
11416SOL    HW139378   4.276   2.662   0.912 -0.3590 -0.4786 -2.2298
11416SOL    HW239379   4.227   2.523   0.947 -0.3263  0.1973  0.6252
11417SOL     OW39380   0.881   4.273   2.505 -0.2272 -0.3536  0.4017
11417SOL    HW139381   0.970   4.302   2.485 -0.8876  1.2708 -0.2624
11417SOL    HW239382   0.879   4.268   2.601  0.8330 -1.2697  0.3865
11418SOL     OW39383   6.773   4.391   2.002 -0.3205 -0.3857  0.5975
11418SOL    HW139384   6.745   4.358   2.088 -1.1408 -1.4682 -0.0789
11418SOL    HW239385   6.754   4.484   2.006 -0.5540 -0.4599  1.5237
11419SOL     OW39386   2.890   9.871   1.950  0.3978  0.1719  0.0891
11419SOL    HW139387   2.799   9.859   1.976  0.9803 -0.0974  2.0397
11419SOL    HW239388   2.885   9.924   1.871 -1.4673 -0.1090 -0.0028
11420SOL     OW39389   3.400   3.403   6.266 -0.3619  0.1424  0.4863
11420SOL    HW139390   3.431   3.463   6.198  0.0182  0.1477  0.6648
11420SOL    HW239391   3.333   3.351   6.222  0.4445 -0.4053 -0.1371
11421SOL     OW39392   2.176   8.311   4.495 -0.1986 -0.3500 -0.1311
11421SOL    HW139393   2.113   8.365   4.543  0.8849  0.9140 -0.0744
11421SOL    HW239394   2.246   8.295   4.559  0.7007  0.3621 -0.9161
11422SOL     OW39395   8.411   5.613  10.666  0.0019 -0.2316  0.4192
11422SOL    HW139396   8.452   5.654  10.743  0.1788 -0.0594  0.2324
11422SOL    HW239397   8.466   5.536  10.648  0.7974  0.5201 -0.4027
11423SOL     OW39398   8.637   8.587  10.536  0.4109  0.2148 -0.0913
11423SOL    HW139399   8.646   8.526  10.462  1.0026 -0.6698  0.6918
11423SOL    HW239400   8.568   8.549  10.590  1.1254 -0.0536  0.6569
11424SOL     OW39401   7.526   1.692   4.873 -0.4661 -0.6292 -0.0143
11424SOL    HW139402   7.620   1.678   4.888 -0.2797  0.3348 -0.2548
11424SOL    HW239403   7.519   1.784   4.850 -1.6665 -0.3318  1.4673
11425SOL     OW39404   7.994   7.538   8.955  0.0410  0.6087  0.3909
11425SOL    HW139405   7.903   7.554   8.928  0.5195  1.9887 -0.4958
11425SOL    HW239406   7.996   7.566   9.046 -0.5162  0.2397  0.5198
11426SOL     OW39407   3.916   6.315  11.175 -0.7403 -0.7336 -0.0303
11426SOL    HW139408   3.822   6.330  11.163 -0.6671 -0.2523 -0.0429
11426SOL    HW239409   3.956   6.359  11.099 -0.4881 -0.7007  0.1222
11427SOL     OW39410   0.968   8.928   3.820  0.0262  0.4604  0.1477
11427SOL    HW139411   0.922   8.853   3.858  1.0531 -0.3726 -0.2538
11427SOL    HW239412   0.899   8.978   3.776 -0.8514  0.3882  1.4036
11428SOL     OW39413   4.113   0.295   9.598 -0.4227 -0.0659 -0.3075
11428SOL    HW139414   4.141   0.376   9.642 -1.4453  1.0019 -1.6082
11428SOL    HW239415   4.189   0.270   9.546 -0.9462  1.4466 -1.8491
11429SOL     OW39416   3.853  11.191   0.937 -0.1208  0.2257  0.1362
11429SOL    HW139417   3.904  11.183   0.857 -0.6733  1.3978 -0.3414
11429SOL    HW239418   3.764  11.211   0.907 -0.3884  0.3999  1.0269
11430SOL     OW39419   6.175  11.183   5.512  0.3524 -0.3711 -0.5627
11430SOL    HW139420   6.219  11.267   5.504  3.1611 -1.5707  1.3429
11430SOL    HW239421   6.167  11.150   5.423 -0.7945  1.8791 -1.3232
11431SOL     OW39422   3.193   1.309   5.688  0.3105  0.1144 -0.4621
11431SOL    HW139423   3.228   1.381   5.740  1.4988 -1.1469  0.5552
11431SOL    HW239424   3.192   1.342   5.598  2.8768  0.6812 -0.3187
11432SOL     OW39425   2.373   9.941   1.511 -0.1417 -0.0159  0.0464
11432SOL    HW139426   2.318   9.895   1.447  0.2936 -0.0247 -0.3218
11432SOL    HW239427   2.434   9.875   1.543  0.8007  0.4089 -0.8370
11433SOL     OW39428  11.027   6.212   1.218  0.2169 -0.4068  0.0341
11433SOL    HW139429  11.093   6.281   1.218 -1.4407  1.2448 -1.7448
11433SOL    HW239430  10.944   6.258   1.231 -0.7002 -2.3522  1.3645
11434SOL     OW39431  11.299   7.883   9.451  0.2113  0.6038 -0.0759
11434SOL    HW139432  11.214   7.845   9.429  0.6350 -0.7122  0.5063
11434SOL    HW239433  11.362   7.815   9.427  0.9681  0.8702  1.1229
11435SOL     OW39434   7.045   2.575   6.182 -0.1929 -0.0981 -0.7585
11435SOL    HW139435   7.123   2.626   6.201 -1.1339  1.6298 -1.4138
11435SOL    HW239436   7.009   2.615   6.103 -3.3137  1.0260  1.1393
11436SOL     OW39437   8.669  10.007   4.694 -0.0432 -0.5116  0.0335
11436SOL    HW139438   8.674   9.932   4.753  1.2272 -0.9777 -0.6356
11436SOL    HW239439   8.598   9.986   4.634 -1.6403  0.1532  1.6114
11437SOL     OW39440   9.968   1.454   1.621 -0.1897 -0.3777 -0.4198
11437SOL    HW139441   9.962   1.517   1.693  0.5376 -0.7156 -0.0622
11437SOL    HW239442  10.047   1.479   1.573  1.6502 -2.6827  1.3340
11438SOL     OW39443   8.408   8.582   6.732 -0.0380 -0.4656 -0.2434
11438SOL    HW139444   8.497   8.562   6.703  0.0893 -0.6188  0.2550
11438SOL    HW239445   8.418   8.618   6.820 -0.4230  0.0132 -0.3872
11439SOL     OW39446   0.167  10.836   1.175  0.1152  0.1403 -0.1174
11439SOL    HW139447   0.248  10.867   1.134 -0.1805  0.9418 -0.0945
11439SOL    HW239448   0.115  10.800   1.103  0.6981 -0.8391 -0.0625
11440SOL     OW39449   0.741   2.340   2.782 -0.2249  0.0852  0.5156
11440SOL    HW139450   0.792   2.267   2.744 -0.9442 -0.6391  0.9359
11440SOL    HW239451   0.750   2.411   2.718 -0.4481 -0.7421 -0.4445
11441SOL     OW39452   0.506   4.616   0.036 -0.4564  0.2708 -0.3324
11441SOL    HW139453   0.433   4.678   0.044  2.6002  3.8337  1.9786
11441SOL    HW239454   0.537   4.628  -0.054 -1.7038 -0.0755 -0.8175
11442SOL     OW39455  10.436   5.941   5.102 -0.3013 -0.2107  0.3510
11442SOL    HW139456  10.404   6.013   5.156 -0.3758  0.4479 -0.5626
11442SOL    HW239457  10.475   5.880   5.165 -0.7737  0.3359  1.1875
11443SOL     OW39458   2.261   4.754   7.990 -0.0283  0.6724  0.2311
11443SOL    HW139459   2.284   4.682   7.932 -1.0368 -0.8565  1.6646
11443SOL    HW239460   2.274   4.833   7.938  0.7965 -0.5657 -1.4685
11444SOL     OW39461   8.787   8.879   9.967 -0.1821 -0.5204 -0.1174
11444SOL    HW139462   8.735   8.812   9.923 -1.1624 -0.3623  0.7865
11444SOL    HW239463   8.809   8.942   9.898 -1.2407 -0.5499 -0.4823
11445SOL     OW39464   9.540  10.202  10.021  0.3950 -0.1313 -0.1759
11445SOL    HW139465   9.480  10.207  10.096  1.1983  2.1250  0.3660
11445SOL    HW239466   9.488  10.163   9.951 -1.6606  1.5854  0.3277
11446SOL     OW39467   8.613   3.085   7.730  0.0063 -0.6140  0.0007
11446SOL    HW139468   8.700   3.074   7.767 -0.2523  0.1903  0.8573
11446SOL    HW239469   8.611   3.175   7.697 -0.7807 -0.3556  0.7398
11447SOL     OW39470   8.492   9.228   1.711  0.5523  0.6287 -0.5268
11447SOL    HW139471   8.493   9.184   1.796  0.3996 -0.5679 -1.1306
11447SOL    HW239472   8.401   9.254   1.699  0.6948  1.3636 -0.0448
11448SOL     OW39473  10.986   7.313   8.206 -0.2641  0.2640 -0.4368
11448SOL    HW139474  10.906   7.312   8.154  0.1843  1.3393 -1.1549
11448SOL    HW239475  11.051   7.269   8.152 -0.1001  0.3100 -0.2775
11449SOL     OW39476   8.423  11.103   6.611  0.3215 -0.3204 -0.5381
11449SOL    HW139477   8.400  11.113   6.704 -0.3636  0.4160 -0.7838
11449SOL    HW239478   8.519  11.100   6.611  0.3183 -0.7920  0.2369
11450SOL     OW39479  10.737   4.258   4.832  0.6338 -0.4895  0.0612
11450SOL    HW139480  10.797   4.188   4.856 -2.6072 -3.0915  1.1071
11450SOL    HW239481  10.698   4.285   4.915  1.8404  2.6689 -0.3183
11451SOL     OW39482   7.763   3.295   8.632  0.3286 -0.2009 -0.4035
11451SOL    HW139483   7.732   3.369   8.685 -0.4564  0.2458 -1.4563
11451SOL    HW239484   7.804   3.236   8.695  1.7661  1.5430  0.3281
11452SOL     OW39485   9.417  10.665   4.163  0.3495 -0.1914  0.3220
11452SOL    HW139486   9.474  10.652   4.240  1.3337  1.0793 -0.1760
11452SOL    HW239487   9.459  10.614   4.094  0.5252  0.2092  0.1313
11453SOL     OW39488   8.841   9.588   6.794 -0.4424  0.6374  0.2892
11453SOL    HW139489   8.880   9.530   6.728 -1.6916 -1.0022  0.9697
11453SOL    HW239490   8.750   9.599   6.767 -0.5625  1.2160  0.9003
11454SOL     OW39491   7.115   5.560   7.346  0.0614 -0.1237 -0.2519
11454SOL    HW139492   7.025   5.593   7.349 -0.0713 -0.5571  1.1602
11454SOL    HW239493   7.105   5.467   7.325  0.2101 -0.0411 -0.6795
11455SOL     OW39494   3.151   0.722   8.522  0.4145 -0.1172 -0.0490
11455SOL    HW139495   3.239   0.692   8.500 -1.1882 -3.6037 -2.1323
11455SOL    HW239496   3.129   0.785   8.453  0.2997 -1.2576 -1.0644
11456SOL     OW39497  11.075   9.280   3.587  0.9086 -0.2449  0.0270
11456SOL    HW139498  11.152   9.336   3.591  0.1909  0.6093  3.2119
11456SOL    HW239499  11.106   9.194   3.615  1.4999 -0.8989 -2.5318
11457SOL     OW39500   4.472   6.432   6.908  0.7637  0.1152  0.0261
11457SOL    HW139501   4.470   6.388   6.993 -0.8163 -0.6183 -0.3750
11457SOL    HW239502   4.531   6.378   6.855  1.4471  0.3562  0.5390
11458SOL     OW39503   9.522  11.067   3.910  0.4895  0.3967 -0.0844
11458SOL    HW139504   9.512  11.017   3.829  2.1455 -0.4375  0.1896
11458SOL    HW239505   9.615  11.089   3.912  0.4085  0.6386  1.4476
11459SOL     OW39506   6.952   0.680   3.668  0.5798 -0.3327  0.0177
11459SOL    HW139507   6.982   0.674   3.759  3.1672 -0.0602 -0.7812
11459SOL    HW239508   6.944   0.590   3.639 -0.9611 -0.4401  0.7060
11460SOL     OW39509   4.197   1.079   9.820  0.2211 -0.4829 -0.3151
11460SOL    HW139510   4.223   1.140   9.889 -1.2132  0.1862 -0.3474
11460SOL    HW239511   4.108   1.052   9.844  0.5164 -1.9084 -0.7633
11461SOL     OW39512   7.256   6.163   0.900 -0.3660  0.1009 -0.3575
11461SOL    HW139513   7.203   6.096   0.857 -0.5480 -0.2528  0.4187
11461SOL    HW239514   7.200   6.197   0.970  0.4796 -0.3686  0.5573
11462SOL     OW39515   1.639   2.018   5.777 -0.0896  0.3571 -0.2896
11462SOL    HW139516   1.647   2.113   5.765 -1.0115  0.5697  0.6681
11462SOL    HW239517   1.688   1.981   5.704  0.6465  1.5689 -0.4398
11463SOL     OW39518   3.067   1.190   6.754 -0.0628  0.1476 -0.0351
11463SOL    HW139519   2.989   1.154   6.797 -0.6787  1.8408  0.3079
11463SOL    HW239520   3.051   1.178   6.661 -0.4244 -0.1381  0.0614
11464SOL     OW39521   3.199   2.101   9.231 -0.1050  0.0394  0.2149
11464SOL    HW139522   3.284   2.093   9.276  0.2226  0.7968 -0.2567
11464SOL    HW239523   3.215   2.166   9.162 -1.4773  1.3640  1.1108
11465SOL     OW39524   8.586   6.914   9.224  0.1845  0.7512  0.0505
11465SOL    HW139525   8.612   6.829   9.186  0.7374  0.1737  1.6963
11465SOL    HW239526   8.511   6.893   9.279  1.5757  0.9730  2.0771
11466SOL     OW39527  10.011  10.193   9.280  0.1181 -0.1648 -0.2668
11466SOL    HW139528  10.037  10.136   9.207 -2.0282 -0.4407 -0.8528
11466SOL    HW239529   9.950  10.256   9.241  0.4959  0.9257  0.8968
11467SOL     OW39530   8.038   1.021   1.598  0.0754  0.0598  0.0983
11467SOL    HW139531   8.084   0.952   1.549 -0.1613  0.4231 -0.6526
11467SOL    HW239532   7.994   0.975   1.669 -0.6584 -0.6600 -0.8139
11468SOL     OW39533   4.938   8.247   1.804  0.5317 -0.3403 -0.4907
11468SOL    HW139534   4.996   8.294   1.746  0.2341  1.1176  0.3670
11468SOL    HW239535   4.851   8.258   1.766  0.2893  0.9101  0.3964
11469SOL     OW39536   1.176   2.756   5.283  0.1003  0.1045 -0.3353
11469SOL    HW139537   1.096   2.799   5.314  0.4556  1.1549 -0.8522
11469SOL    HW239538   1.148   2.706   5.206 -0.1167  0.2360 -0.3428
11470SOL     OW39539   0.818   7.581   1.920 -0.3460 -0.1030 -0.3732
11470SOL    HW139540   0.852   7.551   1.836  1.0101 -2.8837  1.1044
11470SOL    HW239541   0.872   7.656   1.942 -0.0207  0.0005 -1.4861
11471SOL     OW39542   1.734   9.951   4.104 -0.0748  0.6693  0.9537
11471SOL    HW139543   1.644   9.955   4.069 -0.3736  0.3207  1.6717
11471SOL    HW239544   1.766   9.866   4.076  0.2406  1.0360  0.1979
11472SOL     OW39545   3.084   2.676  10.276  0.0655  0.2498 -0.4791
11472SOL    HW139546   3.171   2.638  10.286 -0.1453 -0.2911 -0.7176
11472SOL    HW239547   3.026   2.620  10.327 -0.2353  0.2741 -0.7877
11473SOL     OW39548   4.699   4.801   6.092 -0.1684 -0.0613 -0.4799
11473SOL    HW139549   4.656   4.883   6.069 -1.6819 -0.9636 -0.9320
11473SOL    HW239550   4.665   4.737   6.030  0.2691 -1.2365  0.4662
11474SOL     OW39551   6.202   4.809   9.506 -0.4410 -0.2692 -0.2768
11474SOL    HW139552   6.281   4.849   9.541 -0.8259  0.1190  0.1640
11474SOL    HW239553   6.229   4.721   9.478  0.5406  0.4969 -1.7922
11475SOL     OW39554  10.700   1.523   4.953  0.0345  0.0554 -0.5047
11475SOL    HW139555  10.696   1.607   4.907 -0.1806 -0.0181 -0.6222
11475SOL    HW239556  10.766   1.473   4.906  0.4534  0.3049 -0.1899
11476SOL     OW39557   4.164   6.195   8.187  0.0709  0.3310 -0.1800
11476SOL    HW139558   4.198   6.115   8.148 -0.3047  0.1980 -0.2462
11476SOL    HW239559   4.069   6.186   8.181  0.0306  1.1877 -1.0124
11477SOL     OW39560   6.813   6.224   9.181  0.4645  0.3306 -0.6339
11477SOL    HW139561   6.813   6.158   9.251 -1.4881  0.2585 -0.6603
11477SOL    HW239562   6.881   6.195   9.121  1.9780  0.2347  1.0719
11478SOL     OW39563   7.146   8.970   2.869 -0.1706  0.1470  0.5182
11478SOL    HW139564   7.147   9.058   2.830 -0.5289 -0.1891 -0.2555
11478SOL    HW239565   7.227   8.966   2.920  0.4303  0.5043 -0.3924
11479SOL     OW39566   2.500   4.565   3.564 -0.5659 -0.4907  0.5191
11479SOL    HW139567   2.432   4.498   3.570 -0.9404  0.0975  3.4783
11479SOL    HW239568   2.580   4.521   3.590 -0.0917 -0.7084 -1.1992
11480SOL     OW39569  10.884   0.045   8.559 -0.0645  0.2541  0.4857
11480SOL    HW139570  10.944   0.047   8.484 -0.6177 -1.5565 -0.0415
11480SOL    HW239571  10.836   0.128   8.553  1.1828  0.9505 -0.0869
11481SOL     OW39572   8.770   6.133   6.000 -0.0001 -0.0696 -0.3314
11481SOL    HW139573   8.794   6.072   6.069 -0.2482 -0.1101 -0.2843
11481SOL    HW239574   8.687   6.101   5.966  0.2365 -0.1851 -0.8043
11482SOL     OW39575   8.723   3.063   1.260  0.4526  0.0363 -0.1352
11482SOL    HW139576   8.795   3.108   1.303  0.4546  0.0902 -0.1967
11482SOL    HW239577   8.677   3.131   1.212  0.7378 -0.1124 -0.6176
11483SOL     OW39578   6.316   4.918   4.924  0.7344  0.2455  0.3388
11483SOL    HW139579   6.307   4.867   4.843 -0.8429 -1.5920  1.6063
11483SOL    HW239580   6.242   4.978   4.923  1.5805  1.3054 -0.2853
11484SOL     OW39581   2.497   2.197  10.319  0.2546  0.3130 -0.0058
11484SOL    HW139582   2.587   2.211  10.288  0.3647  0.2938  0.3005
11484SOL    HW239583   2.453   2.151  10.248  0.7919 -0.6637  0.2910
11485SOL     OW39584   1.975   9.797   2.436 -0.1845  0.1455  0.5098
11485SOL    HW139585   1.994   9.891   2.428  0.1432 -0.0132 -0.5798
11485SOL    HW239586   1.919   9.778   2.361 -0.3666 -0.5061  0.8112
11486SOL     OW39587   3.358   0.269   0.265  0.0741 -0.2169  0.5719
11486SOL    HW139588   3.292   0.337   0.279  0.1577 -0.1702  0.7388
11486SOL    HW239589   3.412   0.302   0.193  0.1997 -0.0442  0.7465
11487SOL     OW39590   1.155   2.439   7.302 -0.0210  0.4863 -0.4071
11487SOL    HW139591   1.130   2.347   7.313 -2.1444  0.8798 -1.5492
11487SOL    HW239592   1.147   2.477   7.390 -0.7140 -0.0678 -0.2277
11488SOL     OW39593   6.858   5.651   9.266  0.5111  0.0751 -0.0779
11488SOL    HW139594   6.899   5.704   9.198 -0.2692  2.6590  1.3676
11488SOL    HW239595   6.797   5.595   9.219  0.8874  0.9369 -1.6378
11489SOL     OW39596   6.573   9.631   2.446  0.1257  0.4580 -0.2230
11489SOL    HW139597   6.634   9.614   2.518 -0.1781  0.4226  0.0255
11489SOL    HW239598   6.611   9.583   2.372 -1.0526 -1.8721  0.6314
11490SOL     OW39599   9.817  11.200   4.947  0.3579 -0.2467  0.0642
11490SOL    HW139600   9.853  11.115   4.973 -2.1325 -1.8896 -1.6320
11490SOL    HW239601   9.862  11.221   4.866  1.7230  0.5836  1.0196
11491SOL     OW39602  10.897   2.891   4.515  0.3389 -0.0919 -0.4777
11491SOL    HW139603  10.875   2.935   4.433  0.4215  1.2683  0.1981
11491SOL    HW239604  10.818   2.843   4.538  0.6108 -1.1725 -1.7834
11492SOL     OW39605   6.175   4.875   1.456  0.4805  0.0284 -0.6100
11492SOL    HW139606   6.137   4.788   1.471  0.8255 -0.2504 -1.2978
11492SOL    HW239607   6.110   4.936   1.489 -0.9855 -0.3938 -2.5681
11493SOL     OW39608   2.815   0.017   5.095  0.4024 -0.0544  0.2310
11493SOL    HW139609   2.786   0.013   5.187  0.1265  1.2257  0.2170
11493SOL    HW239610   2.904   0.052   5.099  0.5539 -0.4190  0.0401
11494SOL     OW39611   9.714   1.882   9.894  0.7111  0.3162  0.1015
11494SOL    HW139612   9.761   1.861   9.975  0.4017  0.9598  0.4566
11494SOL    HW239613   9.753   1.964   9.864 -0.5538  1.1873  0.7263
11495SOL     OW39614   0.426   6.041  10.612 -0.3545 -0.0068 -0.0100
11495SOL    HW139615   0.377   6.077  10.538 -0.3201  0.0533 -0.0026
11495SOL    HW239616   0.491   5.983  10.573  0.2030  0.6595 -0.0677
11496SOL     OW39617   3.892   4.721   3.530  0.1391  0.3322 -0.3852
11496SOL    HW139618   3.972   4.703   3.580  1.8712  0.5193 -2.9722
11496SOL    HW239619   3.835   4.647   3.549  1.7749 -0.9040 -0.1307
11497SOL     OW39620  11.258   8.346   4.061 -0.0430 -0.5990  0.0997
11497SOL    HW139621  11.266   8.271   4.119 -2.0852  0.2143  1.4847
11497SOL    HW239622  11.344   8.389   4.065 -0.1429 -0.5733  2.5038
11498SOL     OW39623   3.566   3.735  11.332 -0.2099 -0.7645  0.6316
11498SOL    HW139624   3.647   3.769  11.294 -0.8657  1.5107  1.2080
11498SOL    HW239625   3.514   3.706  11.258 -0.0940  0.5140  0.0573
11499SOL     OW39626  10.531   4.924   8.920 -0.3234 -0.2475 -0.1115
11499SOL    HW139627  10.505   4.873   8.997 -1.2265  2.0188  1.1339
11499SOL    HW239628  10.457   4.981   8.903  1.0755  1.3973 -0.8286
11500SOL     OW39629   4.034   4.962   3.427  0.1161 -0.5037 -0.5313
11500SOL    HW139630   3.994   4.897   3.486  0.6156  1.6053  2.2585
11500SOL    HW239631   3.994   4.945   3.342 -2.1284 -2.3910  0.8243
11501SOL     OW39632   2.907   3.444   0.995  0.1309  0.4499  0.3750
11501SOL    HW139633   2.973   3.406   1.053  1.6924 -0.0599 -1.6965
11501SOL    HW239634   2.893   3.533   1.030  2.7248  0.9656  0.2065
11502SOL     OW39635   9.015   4.194   1.276  0.1477  0.3477  0.3399
11502SOL    HW139636   9.097   4.148   1.256  0.0816 -0.2650  1.4008
11502SOL    HW239637   9.036   4.286   1.264  1.5015  0.3302  2.2234
11503SOL     OW39638   4.834   0.174  11.151  0.0696  0.0852 -0.0150
11503SOL    HW139639   4.825   0.148  11.059  0.7777  0.3017 -0.1432
11503SOL    HW239640   4.787   0.258  11.157  0.9470  0.6116 -0.4224
11504SOL     OW39641   4.004   0.825   3.198  0.1344  0.4227 -0.6999
11504SOL    HW139642   4.003   0.880   3.276 -0.1238 -1.6049  0.7922
11504SOL    HW239643   3.932   0.764   3.211  0.2551 -0.1139 -2.4076
11505SOL     OW39644   0.558  10.608   4.714 -0.3159 -0.3300  0.4243
11505SOL    HW139645   0.616  10.532   4.704 -0.7672 -0.7861  1.1708
11505SOL    HW239646   0.504  10.607   4.635  0.0371 -0.4754  0.1813
11506SOL     OW39647   2.070   3.186   1.851 -0.2591  0.5071 -0.0822
11506SOL    HW139648   2.139   3.183   1.917 -1.0199 -0.9530  0.6673
11506SOL    HW239649   2.115   3.211   1.770  1.3740 -1.6521  0.1261
11507SOL     OW39650   2.608   6.250   3.627  0.2703 -0.4080  0.3360
11507SOL    HW139651   2.536   6.186   3.626 -0.0355 -0.0670  0.4863
11507SOL    HW239652   2.619   6.272   3.720 -1.5413  1.9016  0.0468
11508SOL     OW39653  10.893   6.649   8.589 -0.1138  0.2305  0.3753
11508SOL    HW139654  10.890   6.680   8.498  0.0846 -1.5430 -0.2550
11508SOL    HW239655  10.985   6.632   8.606 -0.3582 -1.3264  0.2312
11509SOL     OW39656   2.297   1.585  11.143 -0.1890 -0.0760 -0.2716
11509SOL    HW139657   2.294   1.507  11.197 -0.5140 -0.4482 -0.8164
11509SOL    HW239658   2.207   1.597  11.113  0.0621 -0.1227 -1.0652
11510SOL     OW39659   8.580  11.079   2.962  0.3461  0.0773  0.3866
11510SOL    HW139660   8.492  11.044   2.952  0.6991 -0.7097 -0.0079
11510SOL    HW239661   8.600  11.119   2.877  0.8848 -0.9473  0.0229
11511SOL     OW39662   2.468   0.530   1.771 -0.0900 -0.2140  0.4038
11511SOL    HW139663   2.546   0.475   1.778  1.3528  1.7026  0.0136
11511SOL    HW239664   2.433   0.512   1.684  1.8915  1.3888 -0.7636
11512SOL     OW39665   4.472   6.917   2.771 -0.3667  0.5772 -0.2229
11512SOL    HW139666   4.431   6.832   2.764 -0.7841  0.8098 -0.6491
11512SOL    HW239667   4.400   6.979   2.775 -0.0983  0.7624  2.4939
11513SOL     OW39668   4.357   2.522   4.049 -0.2037  1.0582 -0.3466
11513SOL    HW139669   4.324   2.494   3.964 -0.1253  0.5796 -0.2208
11513SOL    HW239670   4.425   2.587   4.028 -1.3449  2.1884 -0.5919
11514SOL     OW39671  10.702   3.940   5.177 -0.1465  0.3169  0.6129
11514SOL    HW139672  10.782   3.913   5.223  0.2629 -1.6922 -1.2267
11514SOL    HW239673  10.633   3.932   5.244  0.7468 -0.6113  1.4500
11515SOL     OW39674  10.687   2.061   8.127  0.6681 -0.1737  0.5197
11515SOL    HW139675  10.619   2.060   8.194 -0.5431  1.5716 -0.6303
11515SOL    HW239676  10.769   2.052   8.176 -0.3282 -1.3343  2.0077
11516SOL     OW39677   6.746   0.891   8.648 -0.4778 -0.3691  0.4695
11516SOL    HW139678   6.772   0.904   8.739 -1.3566  0.1117  0.6604
11516SOL    HW239679   6.775   0.971   8.603 -0.2769 -0.4928  0.3795
11517SOL     OW39680   8.086   7.675   4.634 -0.2179  0.2649 -0.3835
11517SOL    HW139681   8.179   7.667   4.657 -0.0423  1.2406 -0.6945
11517SOL    HW239682   8.048   7.728   4.704 -0.8498 -1.3119  0.4759
11518SOL     OW39683   1.932   0.832   4.635 -0.1094  0.2744 -0.0979
11518SOL    HW139684   1.974   0.817   4.719 -0.0753 -1.9307 -0.4719
11518SOL    HW239685   1.841   0.802   4.648  0.2875 -1.5342 -1.2342
11519SOL     OW39686   3.891   5.744   0.833  0.4235  0.5492  0.7500
11519SOL    HW139687   3.911   5.819   0.777 -0.9462  0.5297  0.2168
11519SOL    HW239688   3.953   5.751   0.906 -0.8778  3.2251  1.6506
11520SOL     OW39689  11.261   0.331   1.145  0.3019 -0.2311 -0.2262
11520SOL    HW139690  11.200   0.295   1.209  0.7694  1.1035  1.0182
11520SOL    HW239691  11.206   0.354   1.070 -0.7760  1.0329  0.9053
11521SOL     OW39692   4.558   6.357   3.493 -0.6950 -0.0001  0.1919
11521SOL    HW139693   4.601   6.439   3.516 -2.2158  0.7825  0.3716
11521SOL    HW239694   4.621   6.289   3.514 -0.3582  0.9863  2.4744
11522SOL     OW39695   2.960   1.903   7.839  0.3668  0.5139  0.0396
11522SOL    HW139696   2.864   1.911   7.837  0.3419  0.2383  0.1324
11522SOL    HW239697   2.976   1.811   7.859  0.6464  0.9387  1.8114
11523SOL     OW39698   2.050  11.157   9.605  0.3048 -0.2213  0.3653
11523SOL    HW139699   2.062  11.213   9.529  1.7126 -0.2172  0.5870
11523SOL    HW239700   2.067  11.213   9.680 -1.0071 -0.2429  0.6911
11524SOL     OW39701   1.449   8.332  11.112 -0.6459 -0.6511 -0.3270
11524SOL    HW139702   1.516   8.296  11.054  1.8653 -0.4870  2.4180
11524SOL    HW239703   1.398   8.390  11.055 -0.0416 -2.6434 -3.0215
11525SOL     OW39704   9.444   4.938   3.619  0.1399  0.0797 -0.3362
11525SOL    HW139705   9.396   4.858   3.600  0.5738 -0.1051 -0.6811
11525SOL    HW239706   9.520   4.934   3.560 -0.4675  1.3310 -1.2081
11526SOL     OW39707   1.717   0.372   4.168  0.3830  0.0891 -0.2763
11526SOL    HW139708   1.741   0.463   4.184 -0.5721  0.1900  0.6416
11526SOL    HW239709   1.798   0.323   4.178  0.6195  0.6727  0.6858
11527SOL     OW39710   4.401   6.146   4.573 -0.3484 -0.3335 -0.2286
11527SOL    HW139711   4.323   6.202   4.568 -0.2062 -0.2010 -0.9748
11527SOL    HW239712   4.450   6.181   4.647 -1.2199 -0.6973  0.5310
11528SOL     OW39713  10.488   4.973  10.143  0.0720  0.2996  0.5257
11528SOL    HW139714  10.409   4.974  10.090  1.0708  0.4401 -1.0007
11528SOL    HW239715  10.546   4.910  10.099  1.0718  0.7446  1.1810
11529SOL     OW39716   4.044   3.821   4.091  0.6185 -0.3797  0.4635
11529SOL    HW139717   3.971   3.767   4.060  1.0338 -0.0445 -1.1559
11529SOL    HW239718   4.115   3.759   4.106  0.2938 -0.5937  1.1369
11530SOL     OW39719   8.773   4.315   4.719 -0.2590 -0.0300  0.0780
11530SOL    HW139720   8.831   4.292   4.646 -0.6303 -0.8804  0.0404
11530SOL    HW239721   8.810   4.396   4.754 -0.0798  0.3902 -1.0560
11531SOL     OW39722   2.320   4.612   7.237  0.4867 -0.0145  0.0522
11531SOL    HW139723   2.349   4.558   7.163  0.6532  0.6898 -0.4045
11531SOL    HW239724   2.317   4.552   7.311  0.2091 -0.7585 -0.5509
11532SOL     OW39725   9.947   0.635  11.154  0.1078  0.2793  0.8174
11532SOL    HW139726   9.930   0.545  11.181 -1.7163  0.4333  0.2983
11532SOL    HW239727  10.030   0.631  11.107  0.0689 -1.1298  0.8434
11533SOL     OW39728   2.218   3.210   9.585 -0.6361  0.5744 -0.2082
11533SOL    HW139729   2.125   3.233   9.586 -0.7155  0.2349  0.1392
11533SOL    HW239730   2.224   3.140   9.520 -0.4857  1.1725 -0.8452
11534SOL     OW39731   6.390   4.928   3.949  0.4362 -0.3735  0.2869
11534SOL    HW139732   6.333   4.952   4.022  0.3193 -0.1072  0.1073
11534SOL    HW239733   6.332   4.887   3.886  0.5937 -0.9245  0.4894
11535SOL     OW39734  10.821   5.437   3.447 -0.1622  0.0532  0.6235
11535SOL    HW139735  10.756   5.399   3.506 -0.2183 -3.4679 -1.5965
11535SOL    HW239736  10.769   5.487   3.384 -0.7630 -2.3359 -0.8407
11536SOL     OW39737   2.128   4.652   8.244  0.2039  0.4458 -0.1972
11536SOL    HW139738   2.154   4.693   8.162 -1.1351  2.0343  0.1527
11536SOL    HW239739   2.110   4.725   8.303 -2.6420 -0.6394  0.3275
11537SOL     OW39740   6.044   6.550   4.363 -0.5570  0.0462 -0.0706
11537SOL    HW139741   6.100   6.557   4.440 -1.8163  0.9848  0.7764
11537SOL    HW239742   6.106   6.540   4.290  0.7270  1.0211  0.8496
11538SOL     OW39743  10.212   7.829   4.964  0.4857 -0.4707  0.4551
11538SOL    HW139744  10.279   7.762   4.970  0.6562 -0.1528  2.1516
11538SOL    HW239745  10.258   7.907   4.933  0.7451 -0.4556  0.8881
11539SOL     OW39746   2.595  11.056   4.135 -0.0380  0.3812  0.0455
11539SOL    HW139747   2.675  11.075   4.184  0.3819  2.6063 -1.4489
11539SOL    HW239748   2.524  11.082   4.194  0.4084  1.0996  0.2736
11540SOL     OW39749   5.960   6.435  10.836  0.3140  0.0451 -0.0812
11540SOL    HW139750   6.030   6.456  10.898 -0.9044  1.6362  0.7837
11540SOL    HW239751   5.993   6.463  10.751  1.3529 -0.6729  0.0736
11541SOL     OW39752   5.895   2.346   0.299 -0.5101 -0.1906  0.5621
11541SOL    HW139753   5.918   2.265   0.344  0.1645 -0.3848 -0.1138
11541SOL    HW239754   5.806   2.366   0.329 -1.6738 -2.5198 -1.1723
11542SOL     OW39755   7.025   6.501   5.012  0.0770  0.1033 -0.2675
11542SOL    HW139756   7.079   6.482   5.089  0.7081  0.3344 -0.6427
11542SOL    HW239757   6.965   6.570   5.041  0.1539  0.0200  0.0874
11543SOL     OW39758   5.504  10.818   5.946 -0.0602  0.0785 -0.1813
11543SOL    HW139759   5.590  10.836   5.987 -0.6873  0.2984  1.0754
11543SOL    HW239760   5.442  10.864   6.002 -1.0782 -0.7143 -0.6543
11544SOL     OW39761  10.137   1.488   4.925 -0.7843 -0.0316 -0.5592
11544SOL    HW139762  10.064   1.550   4.919 -0.0180  1.1522  1.9366
11544SOL    HW239763  10.203   1.533   4.978  0.5682 -2.2365 -0.3072
11545SOL     OW39764   3.765   2.233   5.855 -0.4076  0.0652 -0.1558
11545SOL    HW139765   3.799   2.246   5.944  0.5109 -0.7123 -0.3853
11545SOL    HW239766   3.673   2.258   5.861 -0.0974  1.0125  0.7711
11546SOL     OW39767   0.298  10.546  10.096 -0.1659  0.3489 -0.0150
11546SOL    HW139768   0.259  10.461  10.115 -2.1687  1.1410 -0.4551
11546SOL    HW239769   0.354  10.564  10.172 -0.9235 -0.6513  0.7939
11547SOL     OW39770   3.377   0.096   4.402 -0.4787  0.0637  0.1350
11547SOL    HW139771   3.470   0.096   4.425 -0.9102  1.5255  2.0601
11547SOL    HW239772   3.372   0.142   4.318  0.5281  0.0630  0.0771
11548SOL     OW39773   2.866   8.527   1.025 -0.5406  0.1691  0.4748
11548SOL    HW139774   2.885   8.515   0.932 -0.6901 -0.2262  0.4959
11548SOL    HW239775   2.918   8.460   1.069 -0.5177  0.3153  0.6719
11549SOL     OW39776   7.470   4.613   4.474 -0.4554  0.6639  0.0184
11549SOL    HW139777   7.483   4.706   4.456 -0.7604  0.5863 -0.6225
11549SOL    HW239778   7.543   4.569   4.430  0.8451  0.7472  2.0247
11550SOL     OW39779   3.889   2.044   2.294 -0.5578  0.3061 -0.0103
11550SOL    HW139780   3.817   2.095   2.258  0.0168  1.2935  0.2270
11550SOL    HW239781   3.965   2.101   2.287  0.1514 -0.6127  0.0245
11551SOL     OW39782   1.483   7.739   3.362 -0.3107 -1.0572  0.5459
11551SOL    HW139783   1.542   7.782   3.423 -1.0121 -0.8986  1.1282
11551SOL    HW239784   1.520   7.755   3.275  0.9104 -1.6232  0.9626
11552SOL     OW39785   5.602  11.106  11.059 -0.2185 -0.4561  0.1256
11552SOL    HW139786   5.690  11.094  11.022 -0.3358 -0.1387 -0.2606
11552SOL    HW239787   5.562  11.019  11.053 -0.5669 -0.2125 -1.3604
11553SOL     OW39788   8.398   1.009   8.462  0.0477  0.0535 -0.2568
11553SOL    HW139789   8.315   1.056   8.451  0.7967  1.0303 -2.0332
11553SOL    HW239790   8.388   0.960   8.543 -2.4744 -0.2631 -0.7402
11554SOL     OW39791   0.981   4.356   1.071 -0.4694 -0.0044 -0.4642
11554SOL    HW139792   0.991   4.262   1.083  0.6210  0.3905  2.1488
11554SOL    HW239793   0.899   4.378   1.117  0.7355  0.6929  1.4259
11555SOL     OW39794   1.180   7.567   9.085  0.1688 -0.1198 -0.1408
11555SOL    HW139795   1.129   7.647   9.078  1.0299  0.5056  0.6958
11555SOL    HW239796   1.185   7.549   9.179  2.4286  0.4338 -0.1353
11556SOL     OW39797   0.518   8.731   9.085  0.3857 -0.1132  0.0979
11556SOL    HW139798   0.423   8.726   9.092  0.3203  1.9133  0.8415
11556SOL    HW239799   0.535   8.746   8.992  0.0984 -2.6045 -0.3799
11557SOL     OW39800   2.990   8.793   1.069  0.1035 -0.2787  0.3838
11557SOL    HW139801   2.946   8.717   1.104  1.1877 -0.8570  0.4993
11557SOL    HW239802   2.986   8.858   1.139  1.1793 -1.0061  1.1330
11558SOL     OW39803   6.957   5.857   2.652 -0.4532 -0.9793  0.0393
11558SOL    HW139804   7.026   5.791   2.657 -2.1397 -2.7797  0.1229
11558SOL    HW239805   6.950   5.891   2.741  0.1687 -0.9411  0.0766
11559SOL     OW39806   7.555   4.246   1.931 -0.3783 -0.0266  0.0008
11559SOL    HW139807   7.502   4.325   1.934 -0.7587 -0.2941  0.3859
11559SOL    HW239808   7.640   4.273   1.968 -0.8840 -0.0780  1.2360
11560SOL     OW39809   6.053   2.114   0.450  0.0319  0.0772 -0.3422
11560SOL    HW139810   6.069   2.042   0.389  2.3069  0.1000  0.1646
11560SOL    HW239811   6.140   2.134   0.486 -1.4048 -0.8741  3.9616
11561SOL     OW39812   7.743  10.847   4.524  0.2270  0.5280  0.3842
11561SOL    HW139813   7.822  10.900   4.522 -0.2015  1.1695  0.4216
11561SOL    HW239814   7.772  10.760   4.495  1.0035  0.6733  0.7173
11562SOL     OW39815   4.940   1.753   6.037  0.1935 -0.1634  0.2334
11562SOL    HW139816   4.933   1.693   5.963 -0.4625 -1.5127  1.3460
11562SOL    HW239817   4.941   1.695   6.114  0.2077  1.2288  1.2994
11563SOL     OW39818   0.324   7.796   3.631 -0.0180  0.2350 -0.4517
11563SOL    HW139819   0.414   7.773   3.653  0.5252 -0.1813 -2.9884
11563SOL    HW239820   0.328   7.887   3.603 -0.2281 -0.0094 -1.3071
11564SOL     OW39821   3.162   3.117   6.959 -0.0979 -0.6374  0.1650
11564SOL    HW139822   3.076   3.087   6.930  0.0184  1.0202 -2.0086
11564SOL    HW239823   3.151   3.211   6.973  1.0583 -0.6282  1.1257
11565SOL     OW39824   6.446   1.047   8.891  0.5387 -0.2826 -0.0724
11565SOL    HW139825   6.451   1.081   8.801 -0.0230  1.7842  0.6641
11565SOL    HW239826   6.357   1.013   8.899  0.3541  0.2138 -0.0442
11566SOL     OW39827   3.333   5.627   2.602  0.1431  0.0415 -0.2782
11566SOL    HW139828   3.325   5.538   2.637  0.9167  0.5191  1.1749
11566SOL    HW239829   3.412   5.624   2.548 -0.7953 -0.5827 -1.6422
11567SOL     OW39830   0.582   9.691   0.595  0.2535 -0.3085  0.1824
11567SOL    HW139831   0.490   9.715   0.585  0.4413  0.4905  0.3320
11567SOL    HW239832   0.581   9.599   0.621 -0.5360 -0.0448  1.0800
11568SOL     OW39833   1.019   7.230   6.301  0.0202 -0.0450  0.0399
11568SOL    HW139834   0.955   7.201   6.236  0.2736  0.1797 -0.3145
11568SOL    HW239835   1.091   7.168   6.292  1.7454  2.1929 -2.5914
11569SOL     OW39836   8.887   7.209   4.308 -0.4288  0.2056 -0.1603
11569SOL    HW139837   8.975   7.243   4.288 -0.0253 -0.8381 -0.1586
11569SOL    HW239838   8.878   7.131   4.254 -0.2708 -1.2658  1.8738
11570SOL     OW39839   6.737  10.660   6.925  0.2848 -0.4373  0.3223
11570SOL    HW139840   6.671  10.708   6.876  2.2819  0.7922 -1.2544
11570SOL    HW239841   6.696  10.642   7.010 -1.4229  1.8193  0.0180
11571SOL     OW39842   8.444   4.669  10.001 -0.4703 -1.0762  0.5211
11571SOL    HW139843   8.378   4.722   9.957  0.0634 -0.4474  0.4630
11571SOL    HW239844   8.458   4.595   9.942  0.0085 -0.4022 -0.2419
11572SOL     OW39845   1.624   5.303   2.900 -0.0024  0.6229  0.3746
11572SOL    HW139846   1.570   5.381   2.886  0.6124  0.7676 -1.3891
11572SOL    HW239847   1.588   5.238   2.840  1.1574  0.4092 -0.1012
11573SOL     OW39848   4.473   4.890   2.628  0.3051 -0.2215  0.5829
11573SOL    HW139849   4.493   4.810   2.580  0.0463  0.5422 -0.8309
11573SOL    HW239850   4.526   4.885   2.707  1.7625 -0.8749 -0.4225
11574SOL     OW39851   1.745   6.315   4.003 -0.4001  0.4849 -0.8164
11574SOL    HW139852   1.823   6.312   3.948 -0.2295  1.0430 -0.6021
11574SOL    HW239853   1.758   6.391   4.060 -0.4343 -0.2620  0.2039
11575SOL     OW39854   7.577   2.643   0.737  0.5839  0.2851 -0.4765
11575SOL    HW139855   7.627   2.707   0.686  0.1115  0.2100 -1.0393
11575SOL    HW239856   7.593   2.559   0.694 -0.5072  0.3492 -1.0442
11576SOL     OW39857  10.431   1.676   5.500  0.0071 -0.1728 -0.0634
11576SOL    HW139858  10.457   1.756   5.546  2.1334 -0.6591 -0.3448
11576SOL    HW239859  10.445   1.606   5.563 -1.6959 -0.3639  0.1288
11577SOL     OW39860   6.561   4.513  11.131  0.0131  0.3679 -0.2101
11577SOL    HW139861   6.619   4.487  11.059 -0.2548 -0.8000 -0.0200
11577SOL    HW239862   6.557   4.608  11.125 -0.3349  0.2752 -2.0158
11578SOL     OW39863   6.788   3.974   5.617 -0.5735  0.2010 -0.3150
11578SOL    HW139864   6.751   3.976   5.529 -0.2804 -0.2546 -0.4474
11578SOL    HW239865   6.711   3.962   5.674 -0.5169 -2.1066 -0.6784
11579SOL     OW39866   6.209   0.272   8.872  0.1431  0.5930  0.3071
11579SOL    HW139867   6.180   0.342   8.812  0.8194  1.5794  1.1068
11579SOL    HW239868   6.182   0.303   8.959  1.2633  0.3071  0.7693
11580SOL     OW39869  10.306   1.862   4.664 -0.0186 -0.3492  0.9074
11580SOL    HW139870  10.210   1.861   4.661 -0.0248 -0.3585  1.1116
11580SOL    HW239871  10.327   1.946   4.706  0.1288  0.8682 -1.5193
11581SOL     OW39872   9.309   0.508   9.616  0.0715  0.5553 -0.3904
11581SOL    HW139873   9.247   0.447   9.576  0.9364  0.3760 -1.4955
11581SOL    HW239874   9.292   0.592   9.574  0.2277  0.6181 -0.3289
11582SOL     OW39875   3.685   0.787  10.178  0.3313 -0.5778  0.1892
11582SOL    HW139876   3.735   0.804  10.098  0.7496 -1.1226  0.3350
11582SOL    HW239877   3.747   0.805  10.249  0.0718 -0.4549  0.3856
11583SOL     OW39878   0.192   8.692   5.050  0.4190 -0.2097  0.6565
11583SOL    HW139879   0.180   8.650   4.965 -0.0331 -1.8181  1.5023
11583SOL    HW239880   0.121   8.657   5.104 -0.1366  1.8551  1.3169
11584SOL     OW39881   9.455   7.326   1.536  0.5695  0.1444 -0.0052
11584SOL    HW139882   9.532   7.292   1.582  0.0023 -0.0946  0.7725
11584SOL    HW239883   9.418   7.391   1.596 -0.0993 -0.0675 -0.1916
11585SOL     OW39884  10.847   4.750  10.669 -0.1696  0.4243 -0.1788
11585SOL    HW139885  10.827   4.658  10.683 -0.7745  0.4416 -0.8869
11585SOL    HW239886  10.850   4.788  10.757  0.1117 -0.2777  0.1117
11586SOL     OW39887   6.548   1.904   0.414  0.2471  0.0829 -0.0100
11586SOL    HW139888   6.526   1.908   0.321  2.7902 -0.5653 -0.6950
11586SOL    HW239889   6.471   1.865   0.456 -0.1814 -1.4134 -2.1328
11587SOL     OW39890   8.637   3.999   8.646 -0.0256 -0.0480 -0.2173
11587SOL    HW139891   8.711   3.958   8.600  0.0228 -0.7744  0.4992
11587SOL    HW239892   8.613   4.073   8.591  0.0123 -0.9251 -1.4417
11588SOL     OW39893   0.972   5.099   1.543  0.7474 -0.0430 -0.2307
11588SOL    HW139894   0.995   5.135   1.458 -1.7160  0.1574 -0.8436
11588SOL    HW239895   0.896   5.150   1.572  1.3300 -0.3228  1.9385
11589SOL     OW39896   2.928  10.593   7.091 -0.2803  0.3931 -0.3267
11589SOL    HW139897   2.995  10.582   7.024 -1.5684  0.2338 -1.5902
11589SOL    HW239898   2.916  10.505   7.127  1.5263  0.7358  1.2373
11590SOL     OW39899  10.399   7.029   4.013  0.7460  0.2495 -0.1308
11590SOL    HW139900  10.413   7.124   4.004 -0.6924  0.8012  2.6817
11590SOL    HW239901  10.373   7.000   3.926 -2.6790  3.1910 -0.2215
11591SOL     OW39902   7.239   9.748   5.258 -0.4920 -0.5338 -0.3179
11591SOL    HW139903   7.176   9.708   5.319 -0.5608  0.7158  0.4441
11591SOL    HW239904   7.202   9.732   5.171 -1.4468 -0.5269  0.0822
11592SOL     OW39905   1.535  10.712   1.767  0.0532  0.3723  0.0377
11592SOL    HW139906   1.443  10.700   1.743 -0.0305 -0.1683  0.6054
11592SOL    HW239907   1.534  10.783   1.832 -0.0284 -0.0024  0.4480
11593SOL     OW39908  10.608   0.963   3.307 -0.3303 -0.5994  0.5791
11593SOL    HW139909  10.526   0.920   3.283  0.0411 -0.6926 -0.5367
11593SOL    HW239910  10.666   0.948   3.233  0.0643  1.1245  0.5240
11594SOL     OW39911   9.014   0.524   9.929 -0.2468  0.3072 -0.6172
11594SOL    HW139912   8.959   0.528  10.007 -1.6023  0.8638 -1.5907
11594SOL    HW239913   9.017   0.614   9.896 -0.4919 -0.0922 -1.7561
11595SOL     OW39914   4.141   3.974   1.517  0.4075  0.0873  0.0902
11595SOL    HW139915   4.173   3.896   1.562 -0.5824 -0.4838 -0.1887
11595SOL    HW239916   4.097   4.024   1.586  1.1268  0.4517  0.2895
11596SOL     OW39917   0.125   2.630  11.242  0.5349  0.1378 -0.4747
11596SOL    HW139918   0.101   2.611  11.151 -1.2309 -0.4831  0.1011
11596SOL    HW239919   0.183   2.558  11.267  0.6797  0.0784 -0.9759
11597SOL     OW39920   9.770   5.954   3.798 -0.3087 -0.2755 -1.4466
11597SOL    HW139921   9.859   5.947   3.765  0.2229  0.3452 -0.2000
11597SOL    HW239922   9.746   5.865   3.823 -0.8830 -0.8337 -3.8596
11598SOL     OW39923   4.170   4.965   2.746 -0.1678 -0.0949 -0.0424
11598SOL    HW139924   4.093   4.914   2.720  1.7156 -3.1175 -0.0174
11598SOL    HW239925   4.214   4.909   2.810  2.6083  1.0524 -0.8713
11599SOL     OW39926   1.195   1.921   3.835 -0.4144 -0.2917 -0.1730
11599SOL    HW139927   1.257   1.870   3.887 -0.5702  0.2223  0.5133
11599SOL    HW239928   1.112   1.874   3.845  0.1062 -1.6757 -2.0765
11600SOL     OW39929   0.794   2.203  10.033  0.3510  1.1357  0.3353
11600SOL    HW139930   0.709   2.203  10.076  1.3927  0.1274  2.4577
11600SOL    HW239931   0.782   2.259   9.956 -2.2081  1.0026  0.5987
11601SOL     OW39932   3.772   8.728   7.550  0.0994  0.1588  0.4531
11601SOL    HW139933   3.783   8.823   7.549 -0.7889  0.2724  1.1715
11601SOL    HW239934   3.833   8.697   7.616  2.0439  0.0068 -1.3806
11602SOL     OW39935  10.761   7.274   9.666 -0.0696  0.1734 -0.3252
11602SOL    HW139936  10.790   7.357   9.704 -0.2901  0.0205  0.1822
11602SOL    HW239937  10.728   7.224   9.741  2.7781 -1.5597 -0.1600
11603SOL     OW39938   8.535   2.413   4.049  0.2719  0.4839 -0.2961
11603SOL    HW139939   8.536   2.350   4.122  0.8795 -0.3968 -1.0459
11603SOL    HW239940   8.473   2.481   4.076  0.7008  0.3107  1.1668
11604SOL     OW39941   9.245   6.908   0.640  0.7349 -0.0791  0.6622
11604SOL    HW139942   9.313   6.939   0.581 -0.4180 -0.3274 -0.8248
11604SOL    HW239943   9.179   6.870   0.583 -0.7121  0.2671  2.0630
11605SOL     OW39944   4.706   9.208  10.259  0.0453  0.0898  0.4109
11605SOL    HW139945   4.762   9.131  10.269 -0.3037 -0.2324 -0.1121
11605SOL    HW239946   4.767   9.281  10.252  0.4154 -0.2760 -0.2935
11606SOL     OW39947   3.806   6.603  11.120  0.0462  0.2087  0.2394
11606SOL    HW139948   3.753   6.525  11.136  0.8672 -0.3329  0.3982
11606SOL    HW239949   3.748   6.664  11.075 -0.0912 -1.2060 -1.5529
11607SOL     OW39950   2.563   6.714   0.763 -0.4999  0.0345  0.4562
11607SOL    HW139951   2.648   6.731   0.804 -0.2294  0.5342 -0.3123
11607SOL    HW239952   2.515   6.665   0.830  1.1042 -2.0396  0.1757
11608SOL     OW39953   6.403   6.481   0.458  0.2439  0.0098  0.4216
11608SOL    HW139954   6.399   6.484   0.362  1.0564 -0.2923  0.3687
11608SOL    HW239955   6.319   6.444   0.485  1.0858 -2.5641 -0.3334
11609SOL     OW39956   6.563   0.713   7.808  0.2215  0.0846  0.6321
11609SOL    HW139957   6.651   0.729   7.842  1.2348 -0.4406 -1.7024
11609SOL    HW239958   6.559   0.618   7.794  0.8970  0.5838 -3.4743
11610SOL     OW39959   0.599   5.382   2.592  0.0490  0.4378  0.0126
11610SOL    HW139960   0.562   5.295   2.607 -0.8708  0.8846  0.4028
11610SOL    HW239961   0.679   5.366   2.542 -1.0168 -0.5192 -1.4535
11611SOL     OW39962   9.508   6.511   5.092  0.2477 -0.0326  0.2407
11611SOL    HW139963   9.547   6.580   5.038 -0.1928 -0.2999 -0.4221
11611SOL    HW239964   9.440   6.473   5.037  0.3316 -0.8435  0.6955
11612SOL     OW39965   1.757   2.396   8.211  0.4378  0.5501 -0.1716
11612SOL    HW139966   1.810   2.316   8.210 -1.1507 -0.5434  0.7207
11612SOL    HW239967   1.820   2.467   8.201  1.8752 -0.8114 -1.0471
11613SOL     OW39968   4.407  10.870   8.894 -0.1877  0.5528 -0.0448
11613SOL    HW139969   4.333  10.901   8.841 -1.4439 -0.3728  1.1182
11613SOL    HW239970   4.373  10.871   8.984  0.3626 -2.3695  0.2263
11614SOL     OW39971   1.055   7.068   9.039 -0.7384  0.3346 -0.0258
11614SOL    HW139972   1.042   7.161   9.055  0.5306  0.7991 -1.5902
11614SOL    HW239973   1.015   7.052   8.954  1.4295  0.0576 -1.0347
11615SOL     OW39974   4.686   4.235   6.169 -0.4688  0.0129  0.7001
11615SOL    HW139975   4.778   4.215   6.150 -0.8557  0.1965 -1.4935
11615SOL    HW239976   4.688   4.287   6.249  1.0714 -3.0306  2.7271
11616SOL     OW39977   6.198   2.307   9.619 -0.2867  0.2866 -0.5232
11616SOL    HW139978   6.136   2.330   9.688  1.9897  2.0165  1.0200
11616SOL    HW239979   6.245   2.230   9.652 -0.5604 -0.0932 -1.0142
11617SOL     OW39980   5.898   0.363   0.051 -0.0777 -0.4735  0.5148
11617SOL    HW139981   5.817   0.322   0.022 -0.7987  1.7296 -0.6353
11617SOL    HW239982   5.965   0.330  -0.009  0.0042 -2.6856  1.7755
11618SOL     OW39983   2.632   0.570   8.053  0.0815  0.0176  0.0407
11618SOL    HW139984   2.633   0.533   7.964  2.4388  1.9610 -0.7802
11618SOL    HW239985   2.678   0.505   8.106 -0.9865 -0.9677 -0.1905
11619SOL     OW39986   3.547   3.710   6.433  0.1071  0.2588 -0.9080
11619SOL    HW139987   3.530   3.729   6.525  0.1809 -0.2464 -0.7917
11619SOL    HW239988   3.636   3.675   6.431  1.0367  2.5498 -1.4723
11620SOL     OW39989   5.099   9.714   0.036  0.2194  0.3238  0.0609
11620SOL    HW139990   5.004   9.703   0.034  0.3034 -0.2080 -1.7273
11620SOL    HW239991   5.115   9.771   0.111 -1.4462 -0.2198  0.8518
11621SOL     OW39992   1.741   7.960   9.084  0.3349  0.0446  0.0171
11621SOL    HW139993   1.708   8.050   9.077 -0.5317 -0.1144  1.6124
11621SOL    HW239994   1.776   7.940   8.997  3.1732  2.9212  0.3912
11622SOL     OW39995   6.465   3.074   8.362 -0.2140 -0.7241 -0.7587
11622SOL    HW139996   6.505   3.140   8.305 -1.8164 -0.2656 -1.3713
11622SOL    HW239997   6.414   3.123   8.425  2.1391 -1.1943  1.6367
11623SOL     OW39998   4.637   7.960   4.720  0.1470 -0.3697  0.1977
11623SOL    HW139999   4.552   7.987   4.755  0.4109 -0.9122  1.2828
11623SOL    HW240000   4.667   7.891   4.779  2.2807  1.2337  1.0678
11624SOL     OW40001   1.101   8.031   0.147 -0.3831  0.4346 -0.2455
11624SOL    HW140002   1.026   8.075   0.186  0.0261  0.3001  0.6960
11624SOL    HW240003   1.157   8.102   0.117  0.2268  0.5665  1.1765
11625SOL     OW40004   3.396   2.863   7.835  0.7581  0.4073 -0.1915
11625SOL    HW140005   3.344   2.802   7.887 -0.5293  0.5537 -1.2884
11625SOL    HW240006   3.435   2.809   7.767 -0.9766  0.8842 -1.6129
11626SOL     OW40007  11.334   3.259   5.110 -0.2266  0.6652 -0.3777
11626SOL    HW140008  11.365   3.279   5.198 -0.9541  0.6954 -0.1318
11626SOL    HW240009  11.398   3.195   5.077  0.1509  0.7951  0.0943
11627SOL     OW40010  10.544   2.547   6.102 -0.0802 -0.3176 -0.1164
11627SOL    HW140011  10.632   2.584   6.102 -0.4709  0.6404  0.4359
11627SOL    HW240012  10.535   2.503   6.017  0.0082  1.8025 -1.2463
11628SOL     OW40013   5.158   6.169   9.533 -0.2434  0.0780  0.6354
11628SOL    HW140014   5.136   6.151   9.624  0.4218  0.8645  0.9667
11628SOL    HW240015   5.153   6.264   9.525 -1.2172 -0.0459 -0.4030
11629SOL     OW40016  10.366  11.196   3.366 -0.3241 -0.0910  0.5615
11629SOL    HW140017  10.438  11.133   3.369 -0.5620 -0.3080  2.8125
11629SOL    HW240018  10.294  11.149   3.324  0.2853 -0.4532 -0.0865
11630SOL     OW40019   1.938   2.344  10.089 -0.1927 -0.4002 -0.7935
11630SOL    HW140020   1.995   2.420  10.083 -0.4856 -0.1097  0.0680
11630SOL    HW240021   1.988   2.280  10.139 -1.1310  0.3498  1.1611
11631SOL     OW40022   0.910   1.155  10.203 -0.2209 -0.1594 -0.0305
11631SOL    HW140023   0.921   1.096  10.128 -0.4528 -2.8052  1.9304
11631SOL    HW240024   0.981   1.219  10.194  1.1658 -1.8234 -1.2584
11632SOL     OW40025   3.184   3.976   1.182  0.0926 -0.0926 -0.4555
11632SOL    HW140026   3.248   3.931   1.127  1.4288 -0.6659  1.5513
11632SOL    HW240027   3.140   4.036   1.122  0.6221 -1.6310 -2.4311
11633SOL     OW40028   1.349   2.702   9.020  0.0299  0.3139  0.5717
11633SOL    HW140029   1.299   2.669   9.095  0.1189 -0.1386  0.4334
11633SOL    HW240030   1.298   2.777   8.989  0.3632  0.9389  1.5122
11634SOL     OW40031   7.958   3.415   2.082  0.2191 -0.5400 -0.2780
11634SOL    HW140032   7.905   3.486   2.047 -1.2007 -1.4350  0.0096
11634SOL    HW240033   8.011   3.456   2.150  0.7027  0.5802 -1.3173
11635SOL     OW40034   3.524   2.162   7.109 -0.1446 -0.1515  0.2876
11635SOL    HW140035   3.471   2.241   7.100 -0.4223 -0.3260  0.3699
11635SOL    HW240036   3.593   2.172   7.044  0.6667  0.8386  1.2745
11636SOL     OW40037   2.005   0.080   1.117 -0.0569 -0.7523  0.3065
11636SOL    HW140038   2.007   0.127   1.033  1.1826  0.1477  0.8323
11636SOL    HW240039   1.977  -0.009   1.093 -0.3875 -0.3290 -0.9646
11637SOL     OW40040   4.009   2.542  10.579  0.1139 -0.7891  0.1163
11637SOL    HW140041   3.939   2.478  10.595 -0.1234 -0.0989  1.9946
11637SOL    HW240042   4.047   2.558  10.665  1.1522  0.4898 -0.5640
11638SOL     OW40043   6.602   2.990   1.211  0.0580 -0.2549  0.1278
11638SOL    HW140044   6.592   3.005   1.117 -1.5711  0.9449  0.4654
11638SOL    HW240045   6.692   2.959   1.221  0.9003  1.5231 -1.6132
11639SOL     OW40046   5.805   6.618   4.281  0.5513 -0.4312 -0.0785
11639SOL    HW140047   5.750   6.562   4.226  0.4279 -0.4749  0.0914
11639SOL    HW240048   5.892   6.577   4.277  1.2518  1.1594 -2.5683
11640SOL     OW40049   1.118   6.674  11.134  0.3672  0.1597 -0.5882
11640SOL    HW140050   1.162   6.591  11.154 -0.1102 -0.5423 -2.4222
11640SOL    HW240051   1.083   6.663  11.046 -0.5189  1.9783 -0.4922
11641SOL     OW40052   0.823   8.628   1.776  0.1046 -0.1146  0.5731
11641SOL    HW140053   0.796   8.695   1.713 -0.5914 -0.5628  0.3914
11641SOL    HW240054   0.865   8.561   1.722 -1.7399 -1.1653  0.3912
11642SOL     OW40055   7.412  11.301  10.293  0.8090  0.5819  0.2405
11642SOL    HW140056   7.456  11.259  10.367 -1.1303 -0.5597  0.7898
11642SOL    HW240057   7.364  11.374  10.331 -0.3322 -0.1100  0.1683
11643SOL     OW40058  10.015   2.528   1.443  0.0988  0.0696 -0.6115
11643SOL    HW140059  10.003   2.581   1.522 -1.5493 -0.5513 -0.4271
11643SOL    HW240060  10.091   2.473   1.462 -0.0595  0.1878  0.4122
11644SOL     OW40061   7.806   3.295   8.346  0.4259  0.2556 -0.1748
11644SOL    HW140062   7.775   3.316   8.434  1.1405  1.7200 -0.2717
11644SOL    HW240063   7.871   3.226   8.360  1.3641  1.2664  0.5615
11645SOL     OW40064   9.055  10.056   0.180  0.0108  0.0525 -0.4173
11645SOL    HW140065   8.990   9.995   0.144 -0.8879  0.2901  0.7637
11645SOL    HW240066   9.080  10.111   0.106  0.2757 -1.2646 -1.3182
11646SOL     OW40067   3.799   9.003   0.509 -0.5032  0.6691  0.5173
11646SOL    HW140068   3.781   9.042   0.423 -1.8134 -0.4272  0.2688
11646SOL    HW240069   3.715   9.005   0.554 -0.5715 -1.7227  0.5387
11647SOL     OW40070   0.058   5.816   2.973  0.2027 -0.1155  0.0524
11647SOL    HW140071   0.110   5.765   2.911 -1.3341 -0.2294 -1.1502
11647SOL    HW240072  -0.017   5.847   2.923 -0.9310  0.0237  1.7874
11648SOL     OW40073  10.946   7.888  10.715 -0.3578 -0.0182 -0.8404
11648SOL    HW140074  10.932   7.813  10.773  0.2150  0.8882  0.4997
11648SOL    HW240075  10.860   7.931  10.711 -0.8042 -0.9884 -1.9822
11649SOL     OW40076   9.590  10.693   6.138 -0.0005  0.4986 -0.2807
11649SOL    HW140077   9.517  10.631   6.131  0.5215 -0.1095 -0.4055
11649SOL    HW240078   9.622  10.682   6.227  1.3530 -0.8670 -0.9025
11650SOL     OW40079   5.996  10.899   4.306  0.3454 -0.0308 -0.0916
11650SOL    HW140080   6.089  10.910   4.283  0.8121  0.4039  1.8827
11650SOL    HW240081   5.969  10.820   4.259  1.3355  0.5977 -1.7706
11651SOL     OW40082   3.047   0.221  11.153 -0.0276  0.3867  0.0678
11651SOL    HW140083   3.076   0.267  11.232 -1.2675  0.4972  0.4751
11651SOL    HW240084   3.109   0.149  11.143  0.3479  0.5766  0.9497
11652SOL     OW40085   3.254   0.820  10.458 -0.4033 -0.5456  0.0079
11652SOL    HW140086   3.280   0.810  10.549 -1.1404  0.4071  0.3335
11652SOL    HW240087   3.163   0.849  10.462  0.0278  1.0208 -0.9697
11653SOL     OW40088   9.856   4.625   2.747 -0.1178  0.2898 -0.3164
11653SOL    HW140089   9.861   4.697   2.810 -0.5090 -1.1590  1.4333
11653SOL    HW240090   9.832   4.666   2.664  1.0650  2.3282  0.3331
11654SOL     OW40091   1.598   3.369   0.885  0.4344  0.5672  0.4874
11654SOL    HW140092   1.551   3.419   0.820  0.7094  0.2857  0.0666
11654SOL    HW240093   1.558   3.282   0.883  0.5180  0.5245  0.6066
11655SOL     OW40094   8.293   9.286   1.262  0.1915  0.0329  0.0830
11655SOL    HW140095   8.329   9.214   1.210  1.3551  0.3464  0.4449
11655SOL    HW240096   8.198   9.279   1.250  0.2699 -1.8940  0.5671
11656SOL     OW40097   9.465   2.459   3.466 -0.0696  0.0052 -0.0131
11656SOL    HW140098   9.557   2.481   3.482 -0.6054  0.5773  2.5585
11656SOL    HW240099   9.440   2.512   3.391  1.8857 -0.6850 -1.1970
11657SOL     OW40100   7.149   0.730   8.765 -0.3621 -0.0475 -0.9209
11657SOL    HW140101   7.099   0.749   8.686 -0.1484 -0.6159 -1.1974
11657SOL    HW240102   7.168   0.815   8.803 -0.6017  0.2219 -1.4033
11658SOL     OW40103   4.663   0.460   7.796 -0.1089  0.3012  0.2604
11658SOL    HW140104   4.728   0.412   7.848 -0.4617  0.2649  0.6732
11658SOL    HW240105   4.682   0.552   7.813  1.1004  0.3290 -1.1928
11659SOL     OW40106  10.523   1.957   2.175 -0.2419  0.3891  0.7494
11659SOL    HW140107  10.433   1.983   2.158 -0.0220  1.5417  1.3056
11659SOL    HW240108  10.562   1.947   2.088 -0.6051  0.9710  0.5168
11660SOL     OW40109   2.278  10.097   5.262 -0.6662  0.0704 -0.5971
11660SOL    HW140110   2.299  10.045   5.184  0.7195 -2.2615  1.2568
11660SOL    HW240111   2.194  10.063   5.291 -0.9743  0.6356 -0.8317
11661SOL     OW40112   5.135   5.563   8.693  0.0236 -0.8763  0.0498
11661SOL    HW140113   5.216   5.542   8.645 -1.0150 -2.6155 -0.9919
11661SOL    HW240114   5.065   5.546   8.631 -1.2545 -1.2757  1.5731
11662SOL     OW40115   6.596   7.224   9.848  0.4964 -0.3336  0.0929
11662SOL    HW140116   6.614   7.304   9.800  1.3242  0.1167  1.1433
11662SOL    HW240117   6.552   7.167   9.785  1.7333  0.1726 -1.2312
11663SOL     OW40118   0.179   6.881   4.915 -0.8724 -0.4525 -0.6812
11663SOL    HW140119   0.187   6.898   4.821 -0.5655  0.5552 -0.4787
11663SOL    HW240120   0.232   6.950   4.957  0.1086 -1.7092  0.1771
11664SOL     OW40121  10.454   1.320   2.287 -0.2326  0.0577  0.6419
11664SOL    HW140122  10.537   1.327   2.241 -0.3954  0.9347  0.4748
11664SOL    HW240123  10.474   1.269   2.365  0.0117 -1.5412 -0.4512
11665SOL     OW40124   0.250  11.128   7.396 -0.3167 -0.5727 -0.4344
11665SOL    HW140125   0.169  11.161   7.435  0.2351 -0.7836  0.9228
11665SOL    HW240126   0.293  11.206   7.359  0.0048 -0.0648  0.9658
11666SOL     OW40127   1.200   5.476   0.623 -0.0389  0.0568 -0.7414
11666SOL    HW140128   1.253   5.440   0.553  0.5302  0.2795 -0.4329
11666SOL    HW240129   1.215   5.418   0.697 -0.2880  0.0749 -0.6748
11667SOL     OW40130   9.101   1.030   5.472 -0.0486 -0.0079 -0.3054
11667SOL    HW140131   9.120   1.017   5.379 -1.1782 -1.7257 -0.3128
11667SOL    HW240132   9.008   1.053   5.474 -0.1472 -0.4785  0.4313
11668SOL     OW40133   1.891   4.809   3.303  1.0338 -0.3200 -0.1998
11668SOL    HW140134   1.896   4.766   3.218  1.4139  0.5089 -0.6012
11668SOL    HW240135   1.831   4.754   3.354  1.5271 -1.3313 -0.6887
11669SOL     OW40136   5.980   2.864   6.247 -0.0895  0.3616  0.1515
11669SOL    HW140137   5.995   2.844   6.339 -0.9756 -0.5235  0.1113
11669SOL    HW240138   5.886   2.874   6.239 -0.1364 -0.6853 -0.8657
11670SOL     OW40139  10.883   8.360   4.124  0.2883  0.6206 -0.0577
11670SOL    HW140140  10.827   8.371   4.201  2.6077  0.1489  1.7807
11670SOL    HW240141  10.892   8.448   4.088 -0.7566  0.8602  0.2593
11671SOL     OW40142   5.518   2.550   3.178  0.3624  0.1917 -0.2145
11671SOL    HW140143   5.588   2.590   3.126  0.1058 -0.7001 -1.2610
11671SOL    HW240144   5.478   2.624   3.225  0.8920  0.9427 -0.9337
11672SOL     OW40145  10.929   5.460   6.759 -0.1257 -0.5350  0.0035
11672SOL    HW140146  10.922   5.471   6.854 -0.6487  0.4041 -0.1332
11672SOL    HW240147  10.948   5.367   6.747 -0.8241 -0.8203  0.9909
11673SOL     OW40148  10.537   7.702   2.783 -0.1671 -0.2833  0.0330
11673SOL    HW140149  10.626   7.727   2.759 -0.7380  1.4145 -0.4376
11673SOL    HW240150  10.548   7.631   2.846  1.4655 -1.2199 -1.2680
11674SOL     OW40151   2.217   4.460   4.598  0.3538 -0.5703 -0.3957
11674SOL    HW140152   2.264   4.537   4.630 -0.6828  0.4433 -1.2584
11674SOL    HW240153   2.232   4.461   4.503  1.7307 -2.3902 -0.2100
11675SOL     OW40154   1.644   3.123   5.409  0.3262 -0.1092 -0.1130
11675SOL    HW140155   1.631   3.040   5.364  1.0685 -0.4168  0.2463
11675SOL    HW240156   1.716   3.166   5.362  1.3834 -0.6123  1.0201
11676SOL     OW40157  10.345   1.602   0.362 -0.3988  0.0828  0.1626
11676SOL    HW140158  10.315   1.673   0.305  0.1409 -0.7276 -1.1455
11676SOL    HW240159  10.386   1.647   0.436 -0.7496  1.1392 -0.2714
11677SOL     OW40160   1.239   5.051   9.099 -0.2287  0.1457 -0.9586
11677SOL    HW140161   1.301   5.029   9.030  0.2256 -0.3122 -0.4110
11677SOL    HW240162   1.233   5.147   9.096  0.6447  0.2082 -0.8992
11678SOL     OW40163   6.423   2.496   9.811 -0.5002 -0.1700 -0.2698
11678SOL    HW140164   6.385   2.424   9.861 -0.5181 -1.0608 -1.5585
11678SOL    HW240165   6.372   2.500   9.730  0.8705 -0.1126 -1.1612
11679SOL     OW40166   1.044   4.730   8.834 -0.2920  0.2927 -0.2719
11679SOL    HW140167   1.048   4.824   8.817  2.5211  0.4185  0.7492
11679SOL    HW240168   1.001   4.723   8.920  1.5673  0.8401  0.7401
11680SOL     OW40169   1.460   3.645   5.099  0.3048  0.0624  0.6386
11680SOL    HW140170   1.531   3.615   5.043 -0.5143  0.3301 -0.5685
11680SOL    HW240171   1.464   3.741   5.095 -1.0694  0.0840 -0.6883
11681SOL     OW40172  10.492   3.795   0.967  0.2597 -0.2972 -0.2029
11681SOL    HW140173  10.545   3.774   0.890  0.5255 -1.5046  0.2977
11681SOL    HW240174  10.407   3.820   0.932  0.1641 -1.5318 -0.8518
11682SOL     OW40175   1.367   3.598  10.326 -0.4535 -0.2724  0.0032
11682SOL    HW140176   1.353   3.527  10.264 -0.6177 -0.1180 -0.1378
11682SOL    HW240177   1.283   3.610  10.370 -0.5683  0.1694 -0.3318
11683SOL     OW40178   8.977  10.594   3.836  0.0956  0.4445  0.6787
11683SOL    HW140179   8.953  10.660   3.902 -1.3478 -0.2404  0.8752
11683SOL    HW240180   8.905  10.597   3.773 -0.0487 -1.0007  0.7503
11684SOL     OW40181   1.434   9.364   9.462  0.1218  0.1810  0.3971
11684SOL    HW140182   1.345   9.330   9.454 -0.1446  0.9185  0.1743
11684SOL    HW240183   1.429   9.430   9.532  0.2820  0.9113 -0.2727
11685SOL     OW40184   1.153   5.664   4.992 -0.5740  0.6767 -0.4832
11685SOL    HW140185   1.217   5.732   5.012 -2.2438  2.1281  0.1031
11685SOL    HW240186   1.167   5.644   4.900  0.2327  1.5304 -0.5547
11686SOL     OW40187   9.790   3.600   8.254 -0.3940 -0.0459  0.3157
11686SOL    HW140188   9.847   3.536   8.212 -1.1215  0.3025 -1.2233
11686SOL    HW240189   9.786   3.673   8.192 -2.8538 -0.2498  0.2018
11687SOL     OW40190   2.965   2.028   5.003  0.2613 -0.2814 -0.1409
11687SOL    HW140191   2.982   2.109   5.052 -1.9107  1.2381 -1.8112
11687SOL    HW240192   2.884   1.993   5.041 -0.3861 -0.1202 -1.3603
11688SOL     OW40193   4.134   4.807   0.474 -0.2696  0.2717 -0.0940
11688SOL    HW140194   4.167   4.898   0.476 -0.2785  0.2648  0.9121
11688SOL    HW240195   4.041   4.815   0.493  0.0044 -0.0484  1.4919
11689SOL     OW40196   6.477   1.456  11.133 -0.0385  0.0858 -0.2151
11689SOL    HW140197   6.477   1.360  11.131  1.5661  0.0845 -2.1492
11689SOL    HW240198   6.567   1.480  11.155 -0.3974  1.1531  0.1248
11690SOL     OW40199   8.798   2.044   5.981 -1.0142  0.2460  0.2958
11690SOL    HW140200   8.828   2.107   6.047  0.7983 -1.3019  0.9731
11690SOL    HW240201   8.792   1.961   6.028 -0.7157 -0.6710 -1.2537
11691SOL     OW40202   2.827   3.770   6.161 -0.1443 -0.3903 -0.0660
11691SOL    HW140203   2.824   3.821   6.080 -0.4718  0.4518  0.4704
11691SOL    HW240204   2.736   3.765   6.189  0.0333 -0.2181  0.5337
11692SOL     OW40205   8.849   0.210   2.213 -0.0375  0.0659  0.8598
11692SOL    HW140206   8.756   0.192   2.228  0.0584  0.2075  1.6427
11692SOL    HW240207   8.871   0.159   2.135 -0.9480  0.6054  0.2432
11693SOL     OW40208   7.915   0.487   8.844  0.0052 -0.0422  0.0559
11693SOL    HW140209   7.823   0.461   8.844  0.7796 -2.9233 -0.2702
11693SOL    HW240210   7.924   0.541   8.765 -1.3038 -0.1650 -0.1903
11694SOL     OW40211   6.067   2.301   0.932  0.1910 -0.5287 -0.0823
11694SOL    HW140212   5.992   2.357   0.952 -0.1092 -1.3259  1.0683
11694SOL    HW240213   6.113   2.346   0.861 -1.3229  0.0096 -0.7306
11695SOL     OW40214   5.201   2.993   4.913 -0.1093  0.3689 -0.2708
11695SOL    HW140215   5.172   2.931   4.846 -0.7911  0.2383  0.1344
11695SOL    HW240216   5.276   3.038   4.874  0.7493 -1.1025 -0.3642
11696SOL     OW40217   1.320   9.647   9.236 -0.1813 -0.8866  0.1684
11696SOL    HW140218   1.355   9.640   9.325 -0.4083  0.7986  0.4072
11696SOL    HW240219   1.244   9.589   9.235  0.2229 -1.4339  0.8605
11697SOL     OW40220   7.664   4.921   5.995  0.0055 -0.1366 -0.3958
11697SOL    HW140221   7.754   4.889   5.986  0.6347  1.5590 -0.2446
11697SOL    HW240222   7.658   4.954   6.085 -0.8009 -0.3395 -0.3676
11698SOL     OW40223   9.295   4.359   2.395  0.2870  0.3645  0.4695
11698SOL    HW140224   9.368   4.376   2.335  2.0085 -2.1304  1.7341
11698SOL    HW240225   9.336   4.353   2.481 -1.2809 -1.7684  1.1242
11699SOL     OW40226   2.146   5.819   1.768  0.0492 -0.3920 -0.0593
11699SOL    HW140227   2.115   5.829   1.679 -0.0257  1.2438  0.1296
11699SOL    HW240228   2.067   5.817   1.822  0.1019 -1.1666  0.0011
11700SOL     OW40229   8.986   2.433   3.332 -0.0938 -0.4239  0.0074
11700SOL    HW140230   8.897   2.398   3.333 -0.9711  1.6764 -1.4038
11700SOL    HW240231   8.988   2.491   3.257  2.8208 -1.2546 -0.6196
11701SOL     OW40232   0.711   9.625   1.302 -0.0358  0.4222 -0.3351
11701SOL    HW140233   0.746   9.558   1.361  0.1108  0.1330 -0.7464
11701SOL    HW240234   0.671   9.575   1.230 -0.8400  0.7557 -0.1285
11702SOL     OW40235   3.636   1.790   8.825 -0.2781  0.0693 -0.1373
11702SOL    HW140236   3.725   1.778   8.791 -0.1012 -0.7111  0.5667
11702SOL    HW240237   3.632   1.731   8.900 -1.4137  0.0659 -0.1989
11703SOL     OW40238  10.369   0.994   4.187 -0.1786 -0.3924 -0.2890
11703SOL    HW140239  10.307   0.982   4.114 -1.9058  0.5045  0.9919
11703SOL    HW240240  10.340   1.074   4.231  1.2732 -0.5283  0.9663
11704SOL     OW40241   6.823   1.429   4.704 -0.0449 -0.1572  0.1562
11704SOL    HW140242   6.746   1.378   4.677  1.5002 -1.4559 -1.8976
11704SOL    HW240243   6.867   1.372   4.767  0.7052 -0.5990 -0.7619
11705SOL     OW40244   0.104   2.131   5.219 -0.2973  0.2115 -0.0270
11705SOL    HW140245   0.024   2.173   5.250 -1.2315  0.0693 -2.1426
11705SOL    HW240246   0.073   2.059   5.164  1.2812 -0.1073 -0.5211
11706SOL     OW40247   7.296   0.200   6.939  0.2490 -0.6677 -0.0615
11706SOL    HW140248   7.385   0.232   6.950  0.2207 -0.4802 -0.3569
11706SOL    HW240249   7.288   0.184   6.845 -0.6940  1.2747 -0.3470
11707SOL     OW40250   5.109   5.506   0.795  0.2632  0.0025  0.1436
11707SOL    HW140251   5.071   5.589   0.768  0.7353 -0.1514 -1.0609
11707SOL    HW240252   5.034   5.454   0.826 -0.1602  0.5636  0.0621
11708SOL     OW40253   3.029   1.171  10.435  0.3351  0.6837 -0.2760
11708SOL    HW140254   3.029   1.181  10.340 -0.6782  0.4651 -0.3074
11708SOL    HW240255   3.087   1.241  10.466  0.8052  0.6493 -1.0559
11709SOL     OW40256   3.915   9.021   9.904 -0.2131  0.5582 -0.1238
11709SOL    HW140257   4.008   9.002   9.908 -0.3265  0.1753  0.6969
11709SOL    HW240258   3.891   9.048   9.993 -1.2872 -1.2741  0.1549
11710SOL     OW40259   3.974  10.046  11.004  0.3119 -0.5297  0.2840
11710SOL    HW140260   3.880  10.027  10.997  0.3944 -1.1309  0.7664
11710SOL    HW240261   3.979  10.141  11.007 -0.3325 -0.5097  0.8675
11711SOL     OW40262   7.122   6.785   4.053 -0.2313 -0.1321 -0.2745
11711SOL    HW140263   7.181   6.779   3.978 -0.3521  0.2753 -0.4033
11711SOL    HW240264   7.176   6.762   4.129  0.2623  0.8517 -0.3140
11712SOL     OW40265   8.627   0.611  10.481  0.0133 -0.6869 -0.4211
11712SOL    HW140266   8.643   0.584  10.571 -0.8410  0.2063 -0.0010
11712SOL    HW240267   8.580   0.537  10.441 -1.5908 -0.1737  0.4922
11713SOL     OW40268   2.023  10.656  11.129 -0.5738 -0.2729  0.0613
11713SOL    HW140269   1.957  10.711  11.086 -0.6332 -0.3019  0.1152
11713SOL    HW240270   2.038  10.584  11.068  0.0530  0.1974 -0.3416
11714SOL     OW40271   4.401   4.467   1.884  0.4119 -0.0061 -0.5228
11714SOL    HW140272   4.487   4.510   1.881  0.6174 -0.5397 -3.8759
11714SOL    HW240273   4.421   4.375   1.900  0.5256 -0.2367 -1.9481
11715SOL     OW40274   9.829   4.274   4.887  0.2660 -0.2078 -0.3472
11715SOL    HW140275   9.923   4.270   4.872 -0.0161  0.0429 -2.4129
11715SOL    HW240276   9.790   4.240   4.806 -1.4147  0.4146  0.1600
11716SOL     OW40277  10.977   0.898   5.940 -0.9164 -0.1548  0.0280
11716SOL    HW140278  11.067   0.930   5.950 -0.7997 -0.3408 -0.4133
11716SOL    HW240279  10.976   0.857   5.854 -1.5173  0.1428 -0.1077
11717SOL     OW40280   3.013   6.241  10.498  0.5065 -0.1800  0.2234
11717SOL    HW140281   3.014   6.290  10.580 -3.4918  0.5308 -0.0238
11717SOL    HW240282   3.011   6.309  10.430  2.5028 -0.7673 -0.4599
11718SOL     OW40283   0.191   3.101   9.238 -0.7968  0.1422  0.0270
11718SOL    HW140284   0.180   3.111   9.333  0.9739 -2.3719  0.5442
11718SOL    HW240285   0.240   3.019   9.228 -0.2024  0.8186 -3.0334
11719SOL     OW40286   4.195   5.456   3.346 -0.6113  0.0577 -0.1497
11719SOL    HW140287   4.131   5.397   3.306 -1.2577  0.4348  0.3020
11719SOL    HW240288   4.193   5.433   3.439 -1.3350  1.2124  0.1314
11720SOL     OW40289  11.085   2.684   7.858 -0.2835  0.1956  0.7235
11720SOL    HW140290  11.095   2.770   7.817 -1.0713 -0.8111 -1.7039
11720SOL    HW240291  11.172   2.644   7.852 -0.6766 -0.4416 -1.2316
11721SOL     OW40292   9.628   7.894   1.686  0.3047  0.0513  0.1706
11721SOL    HW140293   9.546   7.897   1.735 -0.4171 -1.3168 -0.8915
11721SOL    HW240294   9.612   7.947   1.608 -0.5868 -2.5171 -1.4510
11722SOL     OW40295   5.933   5.298   7.699 -0.1380  0.6682 -0.3819
11722SOL    HW140296   5.880   5.304   7.619 -0.8651  1.7208  0.1625
11722SOL    HW240297   5.877   5.335   7.767 -0.1389 -1.7340  0.9430
11723SOL     OW40298   4.018   6.949   8.810  0.1266  0.2964 -0.2432
11723SOL    HW140299   4.084   6.944   8.740  1.5353  1.2348  0.9825
11723SOL    HW240300   3.979   7.036   8.799  0.2827  0.4071  0.0736
11724SOL     OW40301   4.531   5.838   5.227  0.1232  0.2442  0.0963
11724SOL    HW140302   4.576   5.840   5.311 -2.1702 -1.5824  1.4371
11724SOL    HW240303   4.581   5.776   5.174  1.1908  0.8972  0.3340
11725SOL     OW40304   0.021   7.381   1.760 -0.0160 -0.0952 -0.1351
11725SOL    HW140305   0.027   7.290   1.787 -0.0488 -0.2578 -0.6803
11725SOL    HW240306   0.037   7.431   1.840 -1.6815 -0.5739  0.5151
11726SOL     OW40307   7.867   3.282   3.075  0.5077 -0.1835  0.2625
11726SOL    HW140308   7.912   3.341   3.014 -0.1339  0.0598  0.0197
11726SOL    HW240309   7.860   3.332   3.156  0.3918 -0.1041  0.2032
11727SOL     OW40310   5.748   3.416   9.805  0.1759  0.2759 -0.3232
11727SOL    HW140311   5.840   3.391   9.804  0.2172  0.1558  2.4889
11727SOL    HW240312   5.719   3.399   9.895 -2.7654 -0.2829 -1.3041
11728SOL     OW40313  11.249   9.086   0.797 -0.2074 -0.3402  0.4623
11728SOL    HW140314  11.301   9.067   0.719 -0.2175  1.3460  0.0224
11728SOL    HW240315  11.158   9.073   0.770 -0.3386  2.0068 -0.3853
11729SOL     OW40316   4.751   9.367   4.397 -0.3613  0.0487 -0.0829
11729SOL    HW140317   4.834   9.413   4.386 -0.4910  0.6960  1.4601
11729SOL    HW240318   4.737   9.365   4.492 -1.2900 -1.5250 -0.2335
11730SOL     OW40319   8.773   5.113   1.135  0.0944 -0.2281 -0.2734
11730SOL    HW140320   8.797   5.198   1.098  0.6836 -0.6608 -0.8858
11730SOL    HW240321   8.678   5.116   1.144  0.2184  0.9373  0.7932
11731SOL     OW40322   7.892   7.522   6.602 -0.3416 -0.0565 -0.0890
11731SOL    HW140323   7.863   7.435   6.573 -1.3652 -0.3139  1.6283
11731SOL    HW240324   7.985   7.511   6.620 -0.1963 -0.4742 -1.0090
11732SOL     OW40325  11.209   3.674   7.409  0.3575 -0.1754 -0.9768
11732SOL    HW140326  11.276   3.675   7.477 -0.3466  0.8062 -0.2828
11732SOL    HW240327  11.131   3.642   7.453 -0.3429  1.3418 -1.0711
11733SOL     OW40328   2.419   0.171   4.422  0.5367  0.7048  0.4399
11733SOL    HW140329   2.327   0.186   4.402  0.0437 -1.0271  1.3436
11733SOL    HW240330   2.440   0.236   4.489  0.2020  1.6156 -0.3215
11734SOL     OW40331   9.018   8.394   3.652  0.0059 -0.4086  0.1227
11734SOL    HW140332   9.063   8.348   3.723  1.6717  0.5449 -0.2861
11734SOL    HW240333   9.010   8.329   3.582  0.5412 -0.6620  0.2925
11735SOL     OW40334   9.066   7.849   1.016  0.2270  0.2179 -0.6122
11735SOL    HW140335   9.047   7.791   1.089  2.0715  1.7690  1.1743
11735SOL    HW240336   8.985   7.853   0.966 -0.9054 -1.2745  1.0678
11736SOL     OW40337  10.891   2.169   1.983  0.2398  0.1710  0.1286
11736SOL    HW140338  10.796   2.171   1.978  0.2888 -0.0209 -0.8489
11736SOL    HW240339  10.911   2.203   2.071 -0.7541 -0.6326  0.6752
11737SOL     OW40340   5.581   9.334   4.878  0.0637 -0.5272 -0.2277
11737SOL    HW140341   5.487   9.328   4.862  0.1255 -0.4969 -0.6171
11737SOL    HW240342   5.620   9.338   4.790  0.3257  1.0753 -0.0512
11738SOL     OW40343   6.280   8.930   1.554 -0.3928  0.1848 -0.0517
11738SOL    HW140344   6.375   8.937   1.549 -0.3293 -0.9052 -0.4552
11738SOL    HW240345   6.258   8.965   1.640  0.3356  0.7777 -0.1006
11739SOL     OW40346   4.030   7.131   9.513 -0.1834 -0.0450  0.5993
11739SOL    HW140347   3.957   7.181   9.550 -1.8691 -2.0953  0.1007
11739SOL    HW240348   4.029   7.153   9.420  0.3291  0.5024  0.7174
11740SOL     OW40349   9.258   5.824   9.709 -0.2718  0.2108 -0.5722
11740SOL    HW140350   9.187   5.762   9.723 -0.9973  1.1186 -0.1404
11740SOL    HW240351   9.221   5.909   9.736  0.7176  0.8121 -1.0797
11741SOL     OW40352   4.567   9.183   0.079 -0.0494 -0.8302 -0.1210
11741SOL    HW140353   4.652   9.172   0.034 -0.0797 -1.6051  0.0166
11741SOL    HW240354   4.509   9.218   0.011  0.4300 -0.1038 -0.1655
11742SOL     OW40355   0.437   7.889   4.212  0.1985  0.0287  0.1047
11742SOL    HW140356   0.465   7.812   4.261  1.0078  0.4035  0.2379
11742SOL    HW240357   0.352   7.864   4.175  0.5005 -0.9668  0.0564
11743SOL     OW40358   8.012   5.743   8.339  0.1019  0.2266  0.8041
11743SOL    HW140359   7.988   5.696   8.419  1.6569 -2.6139 -0.3141
11743SOL    HW240360   7.969   5.828   8.347 -1.8245 -0.9269  3.4997
11744SOL     OW40361   2.151   0.089   5.826  0.5629  0.1722 -0.1442
11744SOL    HW140362   2.161   0.143   5.905 -0.5470 -0.5091  0.4628
11744SOL    HW240363   2.216   0.125   5.765  0.8918  1.2112  0.7931
11745SOL     OW40364   0.126   0.527   5.973  0.0330 -0.0496  0.3945
11745SOL    HW140365   0.178   0.451   5.999  0.4459  0.9112  2.4083
11745SOL    HW240366   0.051   0.489   5.926  0.0862 -1.7063  1.6164
11746SOL     OW40367   1.106   3.023   2.761  0.5695 -0.5784 -0.1868
11746SOL    HW140368   1.157   2.947   2.788  0.8556  0.2419  1.6547
11746SOL    HW240369   1.153   3.098   2.799 -0.9363  0.3316 -0.0696
11747SOL     OW40370   2.358   5.771   8.557 -0.1857 -0.3324  0.2113
11747SOL    HW140371   2.293   5.726   8.611 -1.2627 -1.0207 -1.6330
11747SOL    HW240372   2.307   5.825   8.497  0.9934  0.2761 -0.2651
11748SOL     OW40373   0.317   9.750   5.074 -0.1559  0.1399  0.1862
11748SOL    HW140374   0.271   9.829   5.104 -1.9110 -1.8633  3.0360
11748SOL    HW240375   0.302   9.747   4.980 -1.1986  2.4755  0.2431
11749SOL     OW40376   1.294   6.722   7.401  0.2778  0.4292 -0.6346
11749SOL    HW140377   1.246   6.800   7.370 -2.3173 -0.4555  0.9624
11749SOL    HW240378   1.270   6.653   7.340  0.9478  0.4055 -0.8704
11750SOL     OW40379   7.774   2.694   1.200 -0.8887 -0.0127  0.7220
11750SOL    HW140380   7.704   2.669   1.139 -2.3167  1.3875  1.7411
11750SOL    HW240381   7.752   2.648   1.281 -0.1160 -0.2799  0.7839
11751SOL     OW40382   9.271   3.708  11.240 -0.2577  0.5699 -0.6185
11751SOL    HW140383   9.338   3.733  11.176  1.1152  1.7799  1.2644
11751SOL    HW240384   9.235   3.791  11.272  0.4275  0.0336  1.5954
11752SOL     OW40385   6.184   1.081   8.879  0.4067 -0.0798 -0.0973
11752SOL    HW140386   6.115   1.041   8.932  0.0861  0.2934 -0.2378
11752SOL    HW240387   6.138   1.138   8.819  0.8522  0.3097 -0.0670
11753SOL     OW40388   2.450   6.816  11.059 -0.1540  0.3444 -0.0464
11753SOL    HW140389   2.441   6.786  10.969 -1.4282 -0.2754  0.2685
11753SOL    HW240390   2.423   6.741  11.112  1.0651  0.5395  0.8612
11754SOL     OW40391   4.189   4.489   9.806 -0.0159 -0.5207 -0.1920
11754SOL    HW140392   4.174   4.575   9.845 -3.2900 -1.3076  0.4658
11754SOL    HW240393   4.147   4.494   9.720  1.5968 -0.8407 -1.0288
11755SOL     OW40394   8.715   8.538   0.769  0.3118 -0.8241 -0.1872
11755SOL    HW140395   8.699   8.464   0.827 -1.0148 -0.2818  0.1619
11755SOL    HW240396   8.630   8.553   0.727  0.0946  1.6217  1.0784
11756SOL     OW40397   3.710   2.924   9.066  0.0773 -0.0330 -0.5875
11756SOL    HW140398   3.768   2.864   9.113  0.2679 -0.7077 -1.6703
11756SOL    HW240399   3.625   2.880   9.066  0.5581 -0.9843 -2.6469
11757SOL     OW40400   3.812   1.817   9.648 -0.7802  0.1652 -0.2862
11757SOL    HW140401   3.831   1.901   9.689 -1.9740  0.5360 -0.4567
11757SOL    HW240402   3.762   1.768   9.713 -0.8804 -0.0547 -0.5237
11758SOL     OW40403   8.799   0.733   6.072  0.9010 -0.0380 -0.1602
11758SOL    HW140404   8.770   0.656   6.121  0.7133 -0.8874 -1.5740
11758SOL    HW240405   8.864   0.700   6.010  2.7936  1.3859  1.0031
11759SOL     OW40406   5.327   4.921   4.368  0.1144  0.5040 -0.0768
11759SOL    HW140407   5.327   4.876   4.284  1.0575  0.1726  0.1008
11759SOL    HW240408   5.412   4.965   4.373 -0.3351  1.3529  0.2610
11760SOL     OW40409   0.203   1.893   5.507  0.1901 -0.2162 -0.1465
11760SOL    HW140410   0.234   1.866   5.594  1.2992 -0.1504 -0.5212
11760SOL    HW240411   0.119   1.848   5.497  0.4056 -0.8051  0.6510
11761SOL     OW40412   1.952  10.920   4.699 -0.1999  0.8805 -0.2442
11761SOL    HW140413   1.899  10.848   4.732  0.2549  0.2996 -0.7634
11761SOL    HW240414   2.006  10.881   4.630  1.0744  1.4101  0.4343
11762SOL     OW40415   6.385   8.585   8.372  0.5255  0.0198 -0.2073
11762SOL    HW140416   6.392   8.611   8.464  0.7162  0.0327 -0.2240
11762SOL    HW240417   6.299   8.615   8.345  0.1924 -0.5948  0.1591
11763SOL     OW40418   9.390   1.115   8.227 -0.5850 -0.4230 -0.2057
11763SOL    HW140419   9.464   1.105   8.287 -0.3389  0.9966 -0.2401
11763SOL    HW240420   9.368   1.026   8.200  1.4483 -0.8268 -0.5957
11764SOL     OW40421   6.696   2.139   1.569  0.0228  0.2625 -0.1799
11764SOL    HW140422   6.752   2.064   1.588  0.2795  0.4253 -0.2897
11764SOL    HW240423   6.677   2.132   1.475 -0.0597  0.2609 -0.1630
11765SOL     OW40424   5.144   2.205   9.318  0.0624 -0.2099 -0.0392
11765SOL    HW140425   5.122   2.256   9.395 -0.4818 -1.9096  0.9649
11765SOL    HW240426   5.075   2.138   9.314 -0.7530  0.7278 -2.8189
11766SOL     OW40427   6.369   1.018  10.193 -0.2269 -0.7338 -0.2072
11766SOL    HW140428   6.379   0.926  10.217  1.3321 -0.5256 -0.0478
11766SOL    HW240429   6.335   1.017  10.104 -1.3640 -1.4641  0.2190
11767SOL     OW40430   7.996   9.225   5.503  0.2161 -0.6780 -0.1785
11767SOL    HW140431   7.977   9.201   5.594 -2.0450  0.3288 -0.3651
11767SOL    HW240432   8.029   9.315   5.509 -1.0361 -0.1943 -0.4516
11768SOL     OW40433   5.917   3.214   4.610 -0.0179  0.0239 -0.0403
11768SOL    HW140434   5.906   3.309   4.620  0.7750  0.1409 -0.2622
11768SOL    HW240435   5.868   3.194   4.529 -1.2433  0.0360  0.6830
11769SOL     OW40436   2.751   2.241   5.061 -0.0011  0.0558 -0.6540
11769SOL    HW140437   2.693   2.182   5.012 -0.8596  0.0902  0.3043
11769SOL    HW240438   2.781   2.304   4.996 -2.1877  0.9104 -0.8853
11770SOL     OW40439   7.505  10.138   8.122  0.1941  0.0353  0.2141
11770SOL    HW140440   7.428  10.188   8.149  0.9486  1.2562  0.0903
11770SOL    HW240441   7.577  10.175   8.172  0.5455 -1.8254  1.1350
11771SOL     OW40442   9.780   4.483   2.374 -0.2094 -0.8924 -0.0201
11771SOL    HW140443   9.869   4.496   2.342 -0.6788 -0.8477 -1.3092
11771SOL    HW240444   9.754   4.569   2.408 -0.7869 -0.1627 -2.2323
11772SOL     OW40445   5.411   9.496   3.077 -0.2094  0.5342 -0.3220
11772SOL    HW140446   5.426   9.496   3.171  0.2284  1.4714 -0.3801
11772SOL    HW240447   5.354   9.421   3.061  0.2884 -0.0344  0.5903
11773SOL     OW40448   1.801   1.678   2.226 -0.6767 -0.1685 -0.1036
11773SOL    HW140449   1.780   1.629   2.147 -2.1819  1.0745 -0.5055
11773SOL    HW240450   1.808   1.769   2.197  0.5088  0.0740  0.8953
11774SOL     OW40451   2.610  11.049   5.917  0.0937 -0.0905  0.2235
11774SOL    HW140452   2.647  10.992   5.850 -0.9654  0.0657 -0.5182
11774SOL    HW240453   2.664  11.128   5.915  0.6752 -0.4903  0.2464
11775SOL     OW40454   8.932   3.771  11.328  0.2577  0.4415 -0.0697
11775SOL    HW140455   8.930   3.822  11.247 -0.5812  1.2032  0.4180
11775SOL    HW240456   8.970   3.687  11.302 -0.4106  0.5094 -1.3561
11776SOL     OW40457   4.190   3.750   7.558 -0.1974 -0.7539 -0.0090
11776SOL    HW140458   4.135   3.772   7.633 -0.0164  0.3650 -0.2035
11776SOL    HW240459   4.149   3.794   7.484 -0.2841 -1.7249 -0.5509
11777SOL     OW40460  10.252   8.121  11.228  0.0467  0.0634  0.5158
11777SOL    HW140461  10.275   8.039  11.185  0.8896  0.0886  0.9142
11777SOL    HW240462  10.163   8.106  11.262 -0.5488 -0.0118 -1.0482
11778SOL     OW40463   8.452   5.918  10.846 -0.5715 -0.2023  0.4473
11778SOL    HW140464   8.412   5.899  10.761  0.4284  0.3011 -0.1402
11778SOL    HW240465   8.492   5.835  10.872  0.5896  0.0809 -0.3823
11779SOL     OW40466   9.961   8.059   6.432 -0.1027 -0.4281  0.2590
11779SOL    HW140467  10.045   8.024   6.463  0.2075  0.5128  0.5159
11779SOL    HW240468   9.950   8.141   6.480 -0.2410  0.4038 -1.1455
11780SOL     OW40469   1.495   2.906   2.091 -0.4576  0.1867  0.0744
11780SOL    HW140470   1.546   2.854   2.153  0.5687  0.9895 -0.0841
11780SOL    HW240471   1.406   2.873   2.099 -0.1325 -0.4242  1.2134
11781SOL     OW40472  10.661  10.517   8.168 -0.6237  0.6313  0.2767
11781SOL    HW140473  10.653  10.596   8.113  0.6838  0.0839 -0.7315
11781SOL    HW240474  10.755  10.506   8.180 -0.7049 -1.5934 -0.8299
11782SOL     OW40475   2.788  11.175   8.058 -0.2475  0.1686  0.1220
11782SOL    HW140476   2.699  11.142   8.053 -0.4196  0.7667 -1.0071
11782SOL    HW240477   2.794  11.218   8.144 -0.4281 -1.5782  1.0144
11783SOL     OW40478  10.345   3.366   8.012 -0.3150 -0.1055  0.2086
11783SOL    HW140479  10.433   3.344   7.983 -0.0222  0.0549  0.9631
11783SOL    HW240480  10.323   3.446   7.965  1.3338  1.8582  2.6692
11784SOL     OW40481   3.952   8.770   8.066 -0.3494  0.2506 -0.6940
11784SOL    HW140482   4.010   8.703   8.102  1.1627  1.7626 -0.2363
11784SOL    HW240483   3.878   8.772   8.126 -0.6532 -1.3389 -0.9882
11785SOL     OW40484   1.478  10.483   0.202 -0.0374  0.1540 -0.2678
11785SOL    HW140485   1.455  10.396   0.168  0.3258 -0.4708  1.0624
11785SOL    HW240486   1.422  10.493   0.279 -0.1797  1.1644 -0.5060
11786SOL     OW40487   1.768   8.056   1.085  0.4235  0.4578 -0.2329
11786SOL    HW140488   1.846   8.008   1.113  0.4381 -0.0680 -1.1771
11786SOL    HW240489   1.696   8.013   1.131  0.3258 -1.0716 -1.7715
11787SOL     OW40490   9.873   7.490   8.933 -0.2990 -0.8386  0.0044
11787SOL    HW140491   9.824   7.470   9.013 -0.5871 -1.1375 -0.2407
11787SOL    HW240492   9.956   7.444   8.945  0.2778  0.4001  0.8070
11788SOL     OW40493   0.179   9.352   3.892 -0.2059 -0.0532 -0.7456
11788SOL    HW140494   0.236   9.385   3.962  0.9780 -1.8451 -0.8282
11788SOL    HW240495   0.104   9.315   3.938  0.4180 -0.9417 -0.4416
11789SOL     OW40496   3.167   2.234   2.187 -0.4090  0.3073  0.4207
11789SOL    HW140497   3.083   2.276   2.169 -1.1420 -1.6440 -0.8413
11789SOL    HW240498   3.156   2.194   2.273 -1.2021 -0.9499 -0.2502
11790SOL     OW40499   3.434   6.240   4.495 -0.8439  0.1887 -0.2524
11790SOL    HW140500   3.348   6.282   4.496 -1.2862 -0.7167  0.1334
11790SOL    HW240501   3.417   6.149   4.519  0.0936 -0.2360 -1.1264
11791SOL     OW40502   5.205   7.519  10.208  0.5423  0.6814 -0.1769
11791SOL    HW140503   5.183   7.582  10.140  0.6353  1.0837  0.1637
11791SOL    HW240504   5.273   7.463  10.168 -1.1625 -0.6580 -1.2694
11792SOL     OW40505  10.011   9.567   7.024 -0.0232 -0.0265  0.3675
11792SOL    HW140506   9.926   9.603   7.049 -0.7483 -1.1787 -0.4026
11792SOL    HW240507  10.029   9.499   7.090 -1.7016 -2.7170 -1.8284
11793SOL     OW40508   7.486   5.324   2.864  0.0153  0.2753  0.1242
11793SOL    HW140509   7.453   5.348   2.950  0.2854 -1.3838  0.7052
11793SOL    HW240510   7.414   5.275   2.823  0.7011 -0.8940  0.2966
11794SOL     OW40511   7.130  10.384  10.325 -0.7223 -0.4393 -0.3566
11794SOL    HW140512   7.045  10.427  10.315 -1.3765 -2.0893 -1.9396
11794SOL    HW240513   7.110  10.300  10.366  0.4133  0.0811  1.3350
11795SOL     OW40514  10.779   9.732   2.370 -0.0173  0.3919  0.0570
11795SOL    HW140515  10.805   9.806   2.426  0.8944 -0.3931  0.6758
11795SOL    HW240516  10.754   9.773   2.287 -0.1586  1.4605  0.6130
11796SOL     OW40517   0.894   1.576   5.167 -0.4370 -0.2683  0.4437
11796SOL    HW140518   0.936   1.573   5.252  0.8545  2.2920 -0.0612
11796SOL    HW240519   0.832   1.648   5.173 -0.7534 -0.4431 -0.6014
11797SOL     OW40520   8.927   1.715   9.748  0.1523  0.4669 -0.5357
11797SOL    HW140521   9.012   1.749   9.719 -1.0561  2.1304 -2.2456
11797SOL    HW240522   8.884   1.791   9.788  0.2030 -0.8391  2.1010
11798SOL     OW40523   8.911   7.885  10.470  0.0616 -0.0176 -0.1200
11798SOL    HW140524   8.877   7.945  10.537  1.7867 -0.3737  1.0977
11798SOL    HW240525   8.858   7.806  10.480 -0.8589  0.5555 -0.3720
11799SOL     OW40526   6.525   8.054   3.972 -0.3118  0.2030 -0.4379
11799SOL    HW140527   6.444   8.105   3.968 -2.0065 -2.0662  2.7904
11799SOL    HW240528   6.592   8.118   3.999 -1.8861  1.2383  1.1041
11800SOL     OW40529  10.169   8.680   4.637  0.3408 -0.7088 -1.0545
11800SOL    HW140530  10.200   8.667   4.726  1.6295 -0.7691 -1.5112
11800SOL    HW240531  10.086   8.632   4.634  0.6544 -1.3273 -0.1161
11801SOL     OW40532   0.926   5.320   0.452  0.9523  0.5678 -0.2269
11801SOL    HW140533   0.894   5.342   0.539  0.9733  1.4177 -0.4311
11801SOL    HW240534   0.848   5.323   0.396  0.9426  0.0499 -0.2480
11802SOL     OW40535   9.645  10.671   7.116 -0.7470 -0.7550 -0.7379
11802SOL    HW140536   9.614  10.619   7.043  0.3849 -1.6484 -0.5860
11802SOL    HW240537   9.677  10.607   7.180  0.5706  0.1127 -0.5186
11803SOL     OW40538   0.359   7.159   6.987  0.3768  0.2237  0.8224
11803SOL    HW140539   0.396   7.240   7.020 -1.1450  0.9024  0.9036
11803SOL    HW240540   0.292   7.135   7.051  1.0962 -1.3274  1.0206
11804SOL     OW40541   1.567  10.109   7.410 -0.5913 -0.0570  0.1258
11804SOL    HW140542   1.640  10.159   7.447 -1.7873  0.8792  1.2905
11804SOL    HW240543   1.505  10.101   7.483 -1.6682 -0.7869 -0.8606
11805SOL     OW40544  10.807   3.450  11.312 -0.0295  0.3486  0.4970
11805SOL    HW140545  10.823   3.440  11.406 -0.6065  0.2845  0.5905
11805SOL    HW240546  10.738   3.386  11.293  1.2828 -0.8382 -0.2972
11806SOL     OW40547   0.615   0.798   6.360  0.1986  0.0919 -0.1852
11806SOL    HW140548   0.527   0.809   6.324 -0.7992 -1.7446  1.6137
11806SOL    HW240549   0.643   0.712   6.330  0.4121 -0.3347  1.2281
11807SOL     OW40550   5.477   8.544   9.407  0.8637  0.0542 -0.1715
11807SOL    HW140551   5.418   8.507   9.341 -1.7825 -0.3228  2.2663
11807SOL    HW240552   5.545   8.477   9.418  0.3631 -0.6512 -1.2850
11808SOL     OW40553   5.146  10.671   5.436 -0.3478  0.4113 -0.0190
11808SOL    HW140554   5.112  10.633   5.356 -1.2092  2.5986 -0.7310
11808SOL    HW240555   5.182  10.755   5.409  2.1079 -0.1307  1.3937
11809SOL     OW40556   1.445   0.651  10.159  0.3190 -0.1891 -0.4298
11809SOL    HW140557   1.403   0.737  10.160  0.6788 -0.0096 -0.8224
11809SOL    HW240558   1.398   0.602  10.091  1.2892  0.2834 -1.4460
11810SOL     OW40559   7.092   4.812   3.049 -0.7068  0.1775 -0.3277
11810SOL    HW140560   7.180   4.796   3.015 -0.5608 -1.2749  0.6921
11810SOL    HW240561   7.106   4.841   3.139 -1.2536  0.5536 -0.3564
11811SOL     OW40562   7.747   1.805   6.036  0.1839 -0.4523 -0.2586
11811SOL    HW140563   7.750   1.868   6.108  1.9558 -0.7205 -0.0597
11811SOL    HW240564   7.704   1.728   6.073 -1.3997  0.4027 -0.3117
11812SOL     OW40565   0.914   5.787   0.649 -0.9024 -0.1526 -0.0146
11812SOL    HW140566   0.856   5.863   0.650 -0.9455 -0.1885  0.5849
11812SOL    HW240567   0.923   5.765   0.556 -0.8534  0.6086 -0.1950
11813SOL     OW40568   8.847   2.038   9.688  0.0365  0.5828 -0.0395
11813SOL    HW140569   8.930   2.083   9.707 -0.3133  0.7406  1.1482
11813SOL    HW240570   8.870   1.974   9.620  1.1003  0.7315  0.1649
11814SOL     OW40571   3.295   4.335   8.392 -0.2828 -0.2834  0.2225
11814SOL    HW140572   3.305   4.295   8.306 -0.7699 -1.9391  0.9130
11814SOL    HW240573   3.381   4.373   8.410 -0.4095  0.7647 -1.3166
11815SOL     OW40574   8.422   2.119   5.552 -0.1552  0.0675 -0.1618
11815SOL    HW140575   8.471   2.137   5.633  0.1019 -0.2712 -0.2428
11815SOL    HW240576   8.488   2.089   5.490 -0.5125 -0.7035 -0.1761
11816SOL     OW40577  10.591   6.294   0.532 -0.2228 -0.8343  0.1924
11816SOL    HW140578  10.620   6.336   0.451  0.2119  0.3596  0.9612
11816SOL    HW240579  10.661   6.310   0.594 -1.3185 -0.2628  1.3012
11817SOL     OW40580  11.106   9.773   9.194 -0.6798 -0.3846 -0.0975
11817SOL    HW140581  11.187   9.816   9.220  0.0239 -0.2165 -2.4256
11817SOL    HW240582  11.122   9.680   9.207  0.3330 -0.4453 -1.6056
11818SOL     OW40583   2.076   8.871   1.453  0.1142 -0.1955  0.5602
11818SOL    HW140584   2.001   8.905   1.502  1.2535  1.5543  1.1635
11818SOL    HW240585   2.060   8.899   1.363 -1.6390 -2.8154  0.0037
11819SOL     OW40586   7.331   2.621  10.366  0.0826  0.2630  0.3206
11819SOL    HW140587   7.370   2.698  10.325  2.1216 -0.9598 -0.1080
11819SOL    HW240588   7.350   2.632  10.460  1.0916 -0.0853  0.1712
11820SOL     OW40589   7.917   4.277   0.284  0.1074 -0.1466 -0.0310
11820SOL    HW140590   7.963   4.270   0.201  0.1655 -0.2557  0.0108
11820SOL    HW240591   7.916   4.189   0.320  0.1262 -0.0917  0.1075
11821SOL     OW40592   8.085  10.441   6.826 -0.1519 -0.2635  0.4018
11821SOL    HW140593   8.085  10.370   6.762  1.9919  0.4782 -0.4925
11821SOL    HW240594   8.031  10.510   6.786  0.1083 -0.3059 -0.0304
11822SOL     OW40595   7.557   7.085   4.278 -0.5679  0.3023  0.3874
11822SOL    HW140596   7.642   7.114   4.312 -0.5107 -1.6797  2.0093
11822SOL    HW240597   7.511   7.051   4.354 -2.2213 -0.0872 -0.7630
11823SOL     OW40598   1.650   0.086   6.984  0.0515 -0.0025 -0.3141
11823SOL    HW140599   1.558   0.097   6.957  0.2792  2.2024 -0.3409
11823SOL    HW240600   1.666  -0.008   6.977 -2.3585 -0.4909  0.1953
11824SOL     OW40601   3.721   5.193   5.301  0.0148  0.4524 -0.3330
11824SOL    HW140602   3.796   5.137   5.323 -0.7433  0.4757  2.5172
11824SOL    HW240603   3.714   5.187   5.206  1.3109 -2.5646 -0.3073
11825SOL     OW40604   3.756   5.280  10.603 -0.3481  0.7638 -0.3099
11825SOL    HW140605   3.724   5.218  10.669 -1.1868  0.5549 -0.8994
11825SOL    HW240606   3.851   5.281  10.615 -0.4866  0.6966  0.8675
11826SOL     OW40607   9.079   2.182   0.255 -0.3558 -0.1478  0.3135
11826SOL    HW140608   9.060   2.254   0.315  1.0973  1.0996 -0.7234
11826SOL    HW240609   9.154   2.211   0.204  0.9835 -2.8496  0.6490
11827SOL     OW40610   8.524  11.106   2.688  0.1569  0.7733  0.5600
11827SOL    HW140611   8.485  11.188   2.659  0.7664  1.4720  1.6538
11827SOL    HW240612   8.455  11.041   2.677 -0.6498  1.6175  0.5915
11828SOL     OW40613   5.007   7.456   2.041 -0.1357  0.3040  0.2519
11828SOL    HW140614   5.054   7.406   1.974 -1.0022 -2.6207  1.7473
11828SOL    HW240615   5.062   7.448   2.119 -0.3938  1.5554  0.5664
11829SOL     OW40616   3.376   9.856   1.818  0.2739 -0.2601  0.0712
11829SOL    HW140617   3.468   9.832   1.803  0.2375  1.0087 -2.3914
11829SOL    HW240618   3.377   9.952   1.822 -1.1010 -0.1826 -1.1989
11830SOL     OW40619   1.549   0.700   0.120  0.5007  0.1789  0.1682
11830SOL    HW140620   1.488   0.713   0.047  0.9889  0.7147 -0.1497
11830SOL    HW240621   1.616   0.766   0.107  1.9456 -1.3427 -0.3223
11831SOL     OW40622   3.353   8.397   9.776 -0.1125 -0.3881 -0.1596
11831SOL    HW140623   3.435   8.365   9.813 -0.3421 -1.1947 -0.3450
11831SOL    HW240624   3.287   8.334   9.804 -0.3759 -0.7357 -1.5005
11832SOL     OW40625   0.042   2.258   4.464  0.0292 -0.3414  0.3360
11832SOL    HW140626   0.070   2.345   4.489  0.9596 -0.1809 -1.1851
11832SOL    HW240627  -0.054   2.261   4.469  0.0598  0.7561  0.3178
11833SOL     OW40628   0.186   1.742   4.547 -0.0163  0.2753 -0.3336
11833SOL    HW140629   0.177   1.675   4.615 -0.5134 -0.3750 -1.0345
11833SOL    HW240630   0.181   1.694   4.465  1.1659  0.9896 -0.8315
11834SOL     OW40631   6.676   4.706  10.565  0.1297  0.4963  0.3112
11834SOL    HW140632   6.631   4.700  10.481  0.9880  2.4484 -0.3251
11834SOL    HW240633   6.632   4.779  10.610 -0.5695 -0.7567  1.7392
11835SOL     OW40634   5.382  10.704   7.636  0.1091 -0.2597 -0.3521
11835SOL    HW140635   5.338  10.642   7.694 -0.1965  0.0942 -0.2054
11835SOL    HW240636   5.439  10.755   7.694 -0.2559  0.1471 -0.3460
11836SOL     OW40637   3.370   9.970   4.029  0.3235 -0.5951  0.1396
11836SOL    HW140638   3.417   9.894   3.993  0.8151  0.9713 -2.6351
11836SOL    HW240639   3.306   9.992   3.962 -0.8172  0.5673  1.5871
11837SOL     OW40640   7.750   2.189   2.508 -0.6557 -0.2734 -0.7337
11837SOL    HW140641   7.771   2.096   2.508 -1.4469 -0.4668  0.2840
11837SOL    HW240642   7.665   2.195   2.463 -1.0107 -0.1521 -0.0556
11838SOL     OW40643   7.713   2.966   6.016 -0.4216  0.1163 -0.3747
11838SOL    HW140644   7.628   2.968   5.972  1.0584 -1.4955 -3.4765
11838SOL    HW240645   7.751   3.052   5.998 -0.2843 -0.1462 -1.3897
11839SOL     OW40646   6.711   7.153   1.890 -0.2236  0.1662 -0.3478
11839SOL    HW140647   6.739   7.242   1.910 -0.7841  0.4602 -0.8747
11839SOL    HW240648   6.635   7.138   1.946 -1.6716  0.9194 -2.0441
11840SOL     OW40649   6.684   1.626   3.658 -0.1906 -0.0766  0.4627
11840SOL    HW140650   6.593   1.650   3.673 -1.1612 -2.0783 -1.8579
11840SOL    HW240651   6.725   1.705   3.623 -0.9858  0.8401  1.5695
11841SOL     OW40652   6.272   0.670   8.512  0.2527 -0.1448 -0.2947
11841SOL    HW140653   6.364   0.664   8.535  0.6404 -0.2587 -1.8647
11841SOL    HW240654   6.237   0.583   8.532  0.2982  0.1365  1.0525
11842SOL     OW40655  10.235   3.986   5.688 -0.0568  0.1881  0.6507
11842SOL    HW140656  10.198   3.905   5.652 -2.1690 -0.0514  3.2237
11842SOL    HW240657  10.327   3.965   5.705  0.2972 -0.5244 -2.0032
11843SOL     OW40658   5.665  10.480   1.858 -0.8954  0.3018  0.3853
11843SOL    HW140659   5.670  10.562   1.809 -0.2460  0.8213  1.3051
11843SOL    HW240660   5.627  10.417   1.797 -1.2252  1.2456 -0.3824
11844SOL     OW40661   6.509   5.243   5.740 -0.3901  0.0217  0.3567
11844SOL    HW140662   6.468   5.220   5.823 -2.2394 -0.8187 -0.7682
11844SOL    HW240663   6.508   5.163   5.689 -4.2039  1.7325 -2.4817
11845SOL     OW40664   6.884   9.492   9.798 -0.7656  0.0299 -0.2208
11845SOL    HW140665   6.956   9.538   9.841 -0.6080  0.3270 -0.7958
11845SOL    HW240666   6.865   9.418   9.856 -1.2081  0.9787  0.8584
11846SOL     OW40667   2.497   6.920   8.024  0.1625  0.0205 -0.0846
11846SOL    HW140668   2.472   6.862   7.952 -1.1165 -0.7255  0.9401
11846SOL    HW240669   2.441   6.997   8.013  3.8613  2.4408 -3.1560
11847SOL     OW40670   1.199   2.595   2.126  0.0379 -0.5818 -0.7286
11847SOL    HW140671   1.219   2.592   2.220  1.3230  1.6126 -0.8955
11847SOL    HW240672   1.216   2.506   2.095  1.1199 -0.9402  0.8277
11848SOL     OW40673   4.932   3.665   5.592  1.0701  0.3806  0.0611
11848SOL    HW140674   4.994   3.737   5.587  0.9644  0.3774 -2.0493
11848SOL    HW240675   4.914   3.643   5.500 -0.9801 -0.5211  0.6412
11849SOL     OW40676   5.185   0.874   0.387  0.5088 -0.2949  0.0594
11849SOL    HW140677   5.195   0.799   0.445  0.7876 -1.3416 -1.3346
11849SOL    HW240678   5.261   0.869   0.328 -0.8051 -0.3615 -1.6539
11850SOL     OW40679   4.637   4.926   6.857 -0.4154  0.1239  0.2236
11850SOL    HW140680   4.707   4.876   6.816 -0.6121 -0.4898  0.6256
11850SOL    HW240681   4.582   4.860   6.899 -1.2830  0.5863 -0.1634
11851SOL     OW40682   0.244   0.264   5.359 -0.2686 -0.9638  0.2835
11851SOL    HW140683   0.247   0.305   5.445 -0.7084  1.8646 -0.9749
11851SOL    HW240684   0.171   0.202   5.363 -0.0667 -1.0906  2.0337
11852SOL     OW40685   6.593   6.581   6.254 -0.2978  0.3957 -0.4108
11852SOL    HW140686   6.616   6.533   6.333 -0.8104 -0.4301 -0.7673
11852SOL    HW240687   6.506   6.617   6.272 -0.0514  0.9223 -0.2683
11853SOL     OW40688   6.267   6.733   2.736  0.4357 -0.1093  0.1473
11853SOL    HW140689   6.354   6.755   2.771 -0.2350  0.2637  1.6429
11853SOL    HW240690   6.278   6.645   2.700  1.3351 -0.2486  0.7277
11854SOL     OW40691   6.653   9.245  11.187 -0.1205  0.1845  0.5657
11854SOL    HW140692   6.573   9.295  11.167 -0.3733 -0.6786 -0.6510
11854SOL    HW240693   6.688   9.287  11.266 -2.4762 -0.2412  1.8959
11855SOL     OW40694   0.856   0.379   1.716 -0.2033 -0.7682 -0.5779
11855SOL    HW140695   0.876   0.364   1.623 -0.4627 -1.5172 -0.5109
11855SOL    HW240696   0.915   0.321   1.763 -0.5570 -0.8948 -0.2925
11856SOL     OW40697   6.281   7.304   1.894  0.0978  0.1189 -0.1307
11856SOL    HW140698   6.290   7.259   1.978  1.2274 -1.1591 -0.9171
11856SOL    HW240699   6.214   7.254   1.847  1.0953 -0.5360 -0.8653
11857SOL     OW40700   0.993   6.657  10.171  0.3334  0.0489 -0.2357
11857SOL    HW140701   0.915   6.603  10.180  0.6117 -0.2701  0.2833
11857SOL    HW240702   0.962   6.736  10.125  0.1226 -0.9456 -1.8509
11858SOL     OW40703   3.416  10.762   3.644 -0.4061  0.2506 -0.5826
11858SOL    HW140704   3.490  10.776   3.703 -1.0646  0.6420  0.1555
11858SOL    HW240705   3.419  10.837   3.585 -1.0535  1.0201  0.3427
11859SOL     OW40706   7.893   5.548   2.514 -0.1247  0.6044 -0.3797
11859SOL    HW140707   7.953   5.509   2.451 -0.6701  2.2060 -1.9335
11859SOL    HW240708   7.945   5.558   2.594  0.9684 -0.2114 -0.9718
11860SOL     OW40709   0.355   5.016   8.789  0.5795 -0.3075  0.3179
11860SOL    HW140710   0.334   5.064   8.709  0.8560 -0.1151  0.3610
11860SOL    HW240711   0.329   5.076   8.860  1.9302  0.2276  0.3727
11861SOL     OW40712   0.556   1.531   0.552 -0.0478 -0.4227 -0.1110
11861SOL    HW140713   0.500   1.598   0.591  0.4774 -0.9232  1.5427
11861SOL    HW240714   0.639   1.538   0.599  0.7279 -0.7987 -1.4005
11862SOL     OW40715   9.657   7.111   3.523 -0.2721 -0.5554 -0.3117
11862SOL    HW140716   9.573   7.067   3.522  1.1966 -3.4803 -1.8225
11862SOL    HW240717   9.687   7.108   3.432  1.4178  0.5013  0.1807
11863SOL     OW40718   2.173   4.303   0.817  0.0637  0.0035 -0.4014
11863SOL    HW140719   2.220   4.300   0.900  0.2511 -0.6840 -0.5269
11863SOL    HW240720   2.089   4.262   0.835 -0.1416  0.4351 -0.3913
11864SOL     OW40721   2.868  10.241   6.678 -0.0791  0.1972 -0.2345
11864SOL    HW140722   2.918  10.300   6.622  0.7319  1.1858  1.4985
11864SOL    HW240723   2.845  10.293   6.754 -0.0855 -1.4760  0.9428
11865SOL     OW40724   0.163   4.047  10.684  0.2781  0.5914  0.7867
11865SOL    HW140725   0.172   4.118  10.749  1.3176  1.7435 -0.5807
11865SOL    HW240726   0.243   4.052  10.632  0.0406 -1.1662  0.2344
11866SOL     OW40727   7.867   2.527  10.146 -0.0288 -0.2383  0.1394
11866SOL    HW140728   7.853   2.449  10.094  0.1739  0.0318 -0.3209
11866SOL    HW240729   7.793   2.584  10.125 -1.1732 -1.0381  1.8575
11867SOL     OW40730  10.491  10.964   1.613  0.5592  0.0428 -0.1769
11867SOL    HW140731  10.489  10.943   1.706  1.4535  0.9903  0.0659
11867SOL    HW240732  10.474  11.058   1.609 -1.5771 -0.3343 -1.1268
11868SOL     OW40733   1.517   1.535  10.324  0.2715 -0.1428 -0.3093
11868SOL    HW140734   1.595   1.497  10.364  0.3053 -0.8106 -1.0042
11868SOL    HW240735   1.485   1.598  10.389 -0.3534 -2.0613  1.2664
11869SOL     OW40736   3.374   7.202   1.177 -0.1756  0.3983  0.5023
11869SOL    HW140737   3.367   7.242   1.091  1.5366 -0.4833 -0.0645
11869SOL    HW240738   3.302   7.139   1.180 -1.1951  1.5446  0.3412
11870SOL     OW40739  10.167   9.545   0.420  0.2263 -0.2087 -0.1566
11870SOL    HW140740  10.107   9.612   0.453  1.4875  0.6964  0.3304
11870SOL    HW240741  10.128   9.462   0.448 -0.3073  0.4128  0.9782
11871SOL     OW40742   7.903   7.623   5.222  0.4118 -0.2625  0.6139
11871SOL    HW140743   7.815   7.651   5.248 -0.0968 -0.3348 -0.9902
11871SOL    HW240744   7.960   7.657   5.290 -0.8941 -0.4764  1.8476
11872SOL     OW40745   8.501   4.804   3.573 -0.2200  0.2168  0.4302
11872SOL    HW140746   8.518   4.716   3.539  0.4281 -1.1642  4.1130
11872SOL    HW240747   8.566   4.859   3.529  0.8107 -1.5293 -0.3007
11873SOL     OW40748   5.480  10.900  10.018 -0.4197  0.1578  0.4072
11873SOL    HW140749   5.470  10.874  10.109  0.6492 -4.4679 -0.6612
11873SOL    HW240750   5.573  10.892  10.000 -0.5125  1.7274 -0.9327
11874SOL     OW40751  10.721  10.035   5.902 -0.8819 -0.1303  0.0541
11874SOL    HW140752  10.663  10.015   5.828 -0.1319  0.1533 -0.6182
11874SOL    HW240753  10.799  10.072   5.861 -0.1008 -0.7920  0.9248
11875SOL     OW40754   7.624   8.776   9.212  0.1576 -0.0464 -0.0793
11875SOL    HW140755   7.646   8.685   9.228  1.4609  0.0838 -1.0495
11875SOL    HW240756   7.708   8.819   9.193 -0.5379  1.1455 -0.5676
11876SOL     OW40757  10.885  10.557   2.369 -0.1790  0.7177  0.3146
11876SOL    HW140758  10.825  10.609   2.422 -0.9796 -0.1712  0.2750
11876SOL    HW240759  10.867  10.466   2.393  0.3337  0.3778 -0.5498
11877SOL     OW40760   0.464   8.049   9.832 -0.0466 -0.0881  0.1453
11877SOL    HW140761   0.390   7.989   9.824 -0.8008  0.8216  0.2175
11877SOL    HW240762   0.489   8.069   9.742  0.8133 -1.2491  0.1232
11878SOL     OW40763   0.805   5.999   5.642  0.3146 -0.1192 -0.0163
11878SOL    HW140764   0.852   5.915   5.645 -1.0718 -0.9596 -0.8465
11878SOL    HW240765   0.870   6.061   5.608  0.9444 -1.1807 -0.8200
11879SOL     OW40766   9.675   1.322   9.343 -0.3591 -0.3641  0.3260
11879SOL    HW140767   9.699   1.405   9.304 -0.7326 -0.6088 -0.4366
11879SOL    HW240768   9.688   1.258   9.273 -0.4593 -0.8870  0.7828
11880SOL     OW40769  10.463   1.266   8.626  0.1639  0.4905  0.2754
11880SOL    HW140770  10.500   1.335   8.681 -0.0167  0.2502  0.6956
11880SOL    HW240771  10.466   1.188   8.680 -0.5424  0.3767  0.1467
11881SOL     OW40772   7.971   7.276  11.098 -0.0708  0.0130  0.4555
11881SOL    HW140773   7.917   7.316  11.030  0.6999 -0.4716 -0.4598
11881SOL    HW240774   7.915   7.209  11.137 -0.3169 -0.1275 -0.1320
11882SOL     OW40775   4.153   4.140  11.174 -0.5143 -0.5469  0.4759
11882SOL    HW140776   4.130   4.214  11.231  3.4710  0.6176  0.7536
11882SOL    HW240777   4.188   4.074  11.233  0.7420 -0.5773 -0.2870
11883SOL     OW40778   0.759   3.869   0.531  0.3907  0.1805 -0.0174
11883SOL    HW140779   0.676   3.914   0.515  0.1742 -0.1204  0.2619
11883SOL    HW240780   0.819   3.908   0.467  0.3116  1.1627  0.4885
11884SOL     OW40781  10.605  10.144   3.052 -0.1243 -0.0309  0.3334
11884SOL    HW140782  10.652  10.186   2.979  0.9783 -1.2794  0.3183
11884SOL    HW240783  10.599  10.213   3.119 -0.1518  0.7796 -0.4898
11885SOL     OW40784   0.051   9.198   8.654  0.1878 -0.1483 -0.3721
11885SOL    HW140785   0.058   9.269   8.590 -1.9471  0.9073  0.5269
11885SOL    HW240786   0.084   9.237   8.735 -0.8333 -0.2371  0.0834
11886SOL     OW40787   8.004   6.763  10.091  0.6997 -0.0799  0.0811
11886SOL    HW140788   8.024   6.804  10.007 -0.2546 -0.7347 -0.4820
11886SOL    HW240789   7.947   6.827  10.135 -0.6145 -0.6936 -0.7066
11887SOL     OW40790   5.880   4.485   1.611  0.6304  0.2815 -0.4597
11887SOL    HW140791   5.819   4.550   1.646  0.6225  0.3079 -0.5216
11887SOL    HW240792   5.899   4.427   1.685  0.3942  0.1717 -0.4858
11888SOL     OW40793   0.942   8.834   8.246 -0.4349  0.1350  0.0011
11888SOL    HW140794   1.013   8.890   8.214  0.3001  0.4729  2.1419
11888SOL    HW240795   0.878   8.895   8.282 -0.9684 -0.2581 -0.2891
11889SOL     OW40796   1.958   0.981   6.024  0.0076  1.1101 -0.5538
11889SOL    HW140797   2.051   0.966   6.044  0.0458  2.8969  0.7001
11889SOL    HW240798   1.955   0.985   5.928  1.4398  2.2540 -0.5671
11890SOL     OW40799   6.070   4.323   1.141 -0.5055  0.0852 -0.4940
11890SOL    HW140800   6.026   4.331   1.057 -0.6207 -0.7400 -0.5241
11890SOL    HW240801   6.074   4.412   1.176 -2.3600  0.1598 -0.4202
11891SOL     OW40802   7.792   2.089  10.519  0.0578  0.1039 -0.0563
11891SOL    HW140803   7.852   2.148  10.474 -0.2771  0.5335  0.0473
11891SOL    HW240804   7.777   2.131  10.604  0.5156 -0.5873  0.3640
11892SOL     OW40805   7.140   3.500   9.615  1.0454 -0.0836  0.6392
11892SOL    HW140806   7.180   3.426   9.569 -0.6692  0.2812 -1.5102
11892SOL    HW240807   7.202   3.571   9.603  0.1882  0.2697 -2.0130
11893SOL     OW40808   5.509   0.287   6.915 -0.2082 -0.4256  0.6096
11893SOL    HW140809   5.578   0.348   6.891  0.4388 -2.2391 -2.3910
11893SOL    HW240810   5.505   0.291   7.010  0.1055  3.9073  0.5058
11894SOL     OW40811   2.237   3.891   6.345 -0.4652 -0.1349  0.9951
11894SOL    HW140812   2.154   3.887   6.393 -1.7304 -0.8587 -1.1794
11894SOL    HW240813   2.220   3.843   6.263  1.9386  0.1682  0.2743
11895SOL     OW40814   9.749   8.105   4.583  0.3491 -0.1368  0.4287
11895SOL    HW140815   9.771   8.164   4.511  0.5078 -1.4387 -0.6005
11895SOL    HW240816   9.804   8.133   4.656  0.9022  0.5625 -0.2581
11896SOL     OW40817   2.173   7.694   8.807 -0.0041 -0.1525 -0.6331
11896SOL    HW140818   2.205   7.754   8.740 -0.7192  0.8743 -0.0732
11896SOL    HW240819   2.179   7.607   8.767 -0.2965  0.4318 -1.9619
11897SOL     OW40820   0.870  10.764  11.247  0.3502  0.9559  0.8411
11897SOL    HW140821   0.893  10.835  11.307 -0.2999  1.8478  0.0554
11897SOL    HW240822   0.889  10.799  11.160  2.2579 -0.7006  0.5683
11898SOL     OW40823   9.275   1.732  10.473 -0.1498  0.0585  0.1469
11898SOL    HW140824   9.196   1.762  10.427 -0.0700 -0.9891 -0.6862
11898SOL    HW240825   9.310   1.812  10.514 -0.3761  0.9587 -1.3625
11899SOL     OW40826  10.315   3.204   0.461 -0.0604  0.3250  0.2694
11899SOL    HW140827  10.348   3.115   0.467 -0.3937  0.1754 -0.1197
11899SOL    HW240828  10.393   3.258   0.446  0.1273  0.0871  0.3959
11900SOL     OW40829   9.003   6.607   8.940 -0.4931  0.3488  0.3122
11900SOL    HW140830   9.054   6.529   8.920 -0.5331  0.5389 -0.5663
11900SOL    HW240831   8.914   6.574   8.956 -0.1821  0.0598  1.4522
11901SOL     OW40832   0.160   7.343  11.013  0.0222 -0.5797 -0.4144
11901SOL    HW140833   0.104   7.353  11.090 -0.2849  1.5080 -0.8542
11901SOL    HW240834   0.186   7.433  10.991  1.7376 -1.3327 -1.5479
11902SOL     OW40835   3.226   5.073   7.496  0.1706 -0.2179 -0.6597
11902SOL    HW140836   3.207   5.158   7.458 -1.2463 -0.6791 -0.9822
11902SOL    HW240837   3.321   5.074   7.510  0.3238  0.9622 -1.7215
11903SOL     OW40838   3.310   4.549  10.784  0.1267  0.1345 -0.7169
11903SOL    HW140839   3.333   4.461  10.812  0.8404  0.1272 -1.3122
11903SOL    HW240840   3.231   4.538  10.732 -1.9390  0.2799  2.2192
11904SOL     OW40841   3.858   1.058   7.928 -0.4485  0.3458 -0.3570
11904SOL    HW140842   3.834   0.982   7.876 -0.1632 -0.7930  1.1408
11904SOL    HW240843   3.947   1.079   7.899 -0.4853  0.0393 -0.7016
11905SOL     OW40844   9.958   8.470   7.548  0.5278  0.4364  0.0588
11905SOL    HW140845   9.863   8.476   7.560  0.3203  0.0370 -1.3660
11905SOL    HW240846   9.974   8.509   7.463  1.5777 -0.0685  0.0286
11906SOL     OW40847   2.677   7.578   7.589 -0.4969  0.4914  0.3363
11906SOL    HW140848   2.725   7.558   7.509  1.1244  2.9583  0.6249
11906SOL    HW240849   2.743   7.612   7.649 -2.3664  2.7367  1.2078
11907SOL     OW40850  10.042   4.752   8.322 -0.2581 -0.1530 -0.1522
11907SOL    HW140851  10.120   4.737   8.269  0.2975  0.2665  0.5327
11907SOL    HW240852  10.076   4.783   8.407 -0.9903 -3.4166  1.3954
11908SOL     OW40853   3.408   6.127   8.567 -0.1704  0.0658  0.7057
11908SOL    HW140854   3.332   6.174   8.599 -1.6327 -2.4170  0.9822
11908SOL    HW240855   3.448   6.090   8.646  1.0504  0.9294  0.5107
11909SOL     OW40856  10.810   1.514   9.534 -0.0593 -0.1405  0.1725
11909SOL    HW140857  10.858   1.544   9.457 -0.9347  1.3566  0.1803
11909SOL    HW240858  10.795   1.421   9.518 -0.7475  0.2677 -1.7713
11910SOL     OW40859   9.594   5.754   6.960 -0.2913  0.1256 -0.5296
11910SOL    HW140860   9.659   5.805   6.913  0.4039 -0.1207  0.1450
11910SOL    HW240861   9.591   5.670   6.915  1.1309 -0.4860  0.4612
11911SOL     OW40862   4.597   6.848   4.552  0.3693  0.5579 -0.3305
11911SOL    HW140863   4.582   6.873   4.460 -0.0770  0.1602 -0.3668
11911SOL    HW240864   4.678   6.894   4.576  0.4592  0.7094 -0.9048
11912SOL     OW40865  10.736   0.674   3.610  0.3023 -0.2445  0.2615
11912SOL    HW140866  10.747   0.669   3.705 -3.2557  0.9653  0.8321
11912SOL    HW240867  10.744   0.768   3.590  1.3365 -0.5293 -0.6792
11913SOL     OW40868   0.547   8.699   6.096  0.1545 -0.3074  0.3036
11913SOL    HW140869   0.470   8.716   6.151  0.2597  0.4587  0.2279
11913SOL    HW240870   0.516   8.637   6.030 -1.1079  1.9101 -1.2491
11914SOL     OW40871   4.328   0.839   4.767 -0.2519 -0.3508  0.4557
11914SOL    HW140872   4.391   0.868   4.833  0.7999  0.2551 -0.7913
11914SOL    HW240873   4.259   0.906   4.769  0.3868  0.3204  0.0808
11915SOL     OW40874   0.702   7.312  10.886  0.0344  0.3747 -0.8562
11915SOL    HW140875   0.787   7.353  10.868  0.1827  1.2964  1.6856
11915SOL    HW240876   0.669   7.287  10.800  4.0151 -2.3182 -1.7527
11916SOL     OW40877   2.595   2.462  10.989 -0.3032  0.1739  0.4017
11916SOL    HW140878   2.568   2.457  10.897 -0.7704 -0.3532  0.5657
11916SOL    HW240879   2.670   2.522  10.989 -0.5358  0.4657 -0.2681
11917SOL     OW40880   9.600   8.090   8.138 -0.0667 -0.0879 -0.5503
11917SOL    HW140881   9.594   8.174   8.183  0.9957 -0.2932  0.0008
11917SOL    HW240882   9.511   8.055   8.140 -0.3168  0.5692  0.1045
11918SOL     OW40883   4.414   2.666   6.297 -0.7140  0.3178  0.2035
11918SOL    HW140884   4.454   2.580   6.306 -0.5698  0.4209  0.5578
11918SOL    HW240885   4.472   2.714   6.238 -0.6158  0.2831  0.2725
11919SOL     OW40886   1.615   6.098  11.290  0.7743 -0.4782 -0.3626
11919SOL    HW140887   1.539   6.045  11.266  0.5030 -0.2423 -0.0278
11919SOL    HW240888   1.630   6.078  11.382 -0.3511  1.2620  0.2386
11920SOL     OW40889   1.356   4.817   9.795  0.0866 -0.5518  0.2370
11920SOL    HW140890   1.292   4.882   9.823  0.9407 -0.3350  1.7453
11920SOL    HW240891   1.423   4.867   9.748 -0.0520 -0.5684  0.0191
11921SOL     OW40892   1.590   3.235   3.953 -0.4176  0.7051 -0.2369
11921SOL    HW140893   1.675   3.264   3.987 -0.1559  0.7048 -0.8876
11921SOL    HW240894   1.540   3.210   4.031  0.0644  1.0143  0.1720
11922SOL     OW40895   9.816   0.952   3.755  0.0810  0.2616 -0.1336
11922SOL    HW140896   9.759   0.932   3.681 -2.3114  2.0840  1.1594
11922SOL    HW240897   9.790   0.890   3.823  0.8865 -0.0594 -0.1032
11923SOL     OW40898   6.349   5.148   0.249 -0.0842  0.4328 -0.1913
11923SOL    HW140899   6.347   5.062   0.292  1.1803 -0.0456 -1.0541
11923SOL    HW240900   6.429   5.189   0.280  0.5355  0.3234 -1.6086
11924SOL     OW40901   8.286   6.500   3.397  0.1193 -0.3205 -0.6048
11924SOL    HW140902   8.290   6.413   3.357 -1.1293 -0.6594 -0.0224
11924SOL    HW240903   8.293   6.561   3.323 -1.4869 -0.9386 -1.3044
11925SOL     OW40904   7.976   3.968  10.210 -0.1077  0.2508  0.0743
11925SOL    HW140905   8.018   3.999  10.130  1.4305  0.4229  0.9189
11925SOL    HW240906   8.049   3.940  10.266 -1.1711 -0.1958  1.2773
11926SOL     OW40907   1.599   3.749   1.932 -0.2793  0.1146 -0.3819
11926SOL    HW140908   1.690   3.752   1.902 -0.8228 -1.7702 -2.3203
11926SOL    HW240909   1.593   3.668   1.983 -0.1994  1.6589  2.2078
11927SOL     OW40910   1.314   1.738   7.719  0.1651 -0.0499  0.2476
11927SOL    HW140911   1.311   1.776   7.807  0.2120 -1.5526  0.9016
11927SOL    HW240912   1.236   1.773   7.675  1.0482  2.0846  0.2863
11928SOL     OW40913   9.839   2.002   7.722 -0.0169  0.0233  0.4915
11928SOL    HW140914   9.829   2.055   7.801 -4.3032 -0.5964  0.4886
11928SOL    HW240915   9.875   1.919   7.754 -1.0583  0.0265  1.7500
11929SOL     OW40916   9.995   2.177   1.637 -0.2107 -0.0095  0.1275
11929SOL    HW140917   9.914   2.223   1.659 -0.6509 -0.1757 -1.1450
11929SOL    HW240918  10.043   2.172   1.721 -2.3865 -1.6832  1.3203
11930SOL     OW40919   0.846   5.617   4.819  0.0340 -0.0744  0.0484
11930SOL    HW140920   0.926   5.571   4.791  0.5348  0.7089  0.1767
11930SOL    HW240921   0.831   5.585   4.908  0.8172  0.5582  0.4241
11931SOL     OW40922   4.144   5.380   6.846  0.5363  0.1671  0.4964
11931SOL    HW140923   4.170   5.441   6.915 -0.3739 -0.1509  1.1447
11931SOL    HW240924   4.052   5.401   6.830  0.6079 -0.0989 -0.2673
11932SOL     OW40925  10.151   6.018   3.187 -0.4727  0.1949 -0.1473
11932SOL    HW140926  10.231   6.071   3.194  0.4909 -1.2593 -0.0260
11932SOL    HW240927  10.122   6.007   3.278 -0.1528 -0.2850 -0.1057
11933SOL     OW40928   8.662  11.331   9.485  0.3901  0.1602 -0.0031
11933SOL    HW140929   8.731  11.269   9.511 -0.8799 -0.6295  1.5347
11933SOL    HW240930   8.651  11.387   9.562 -1.5324 -0.4964  0.2224
11934SOL     OW40931   6.361   0.110   6.663 -0.4343  0.3845 -0.0022
11934SOL    HW140932   6.434   0.078   6.611  0.8276  2.1819  0.6505
11934SOL    HW240933   6.292   0.045   6.649  1.0227 -0.9393 -1.1986
11935SOL     OW40934   1.867   7.877  11.023  0.0141  0.2176 -0.2737
11935SOL    HW140935   1.851   7.785  11.004 -1.1747  0.6790 -1.6318
11935SOL    HW240936   1.849   7.886  11.116 -1.0753 -0.6932 -0.3764
11936SOL     OW40937   3.715   0.666   5.849  0.2498  0.3724  0.3618
11936SOL    HW140938   3.679   0.752   5.869  0.9965  0.9970 -0.9201
11936SOL    HW240939   3.644   0.619   5.805 -0.1869  0.2851  1.1444
11937SOL     OW40940   7.466   8.461   7.698  0.2570 -0.3037  0.9855
11937SOL    HW140941   7.515   8.392   7.654  0.8690  0.0735  1.0740
11937SOL    HW240942   7.448   8.426   7.785 -1.8271 -1.4557  0.1373
11938SOL     OW40943  10.129   8.127   9.022 -0.1135  0.2150  0.4037
11938SOL    HW140944  10.149   8.123   9.115 -1.5235 -1.3344  0.6691
11938SOL    HW240945  10.096   8.040   9.000 -2.2487  1.3011 -0.9558
11939SOL     OW40946   2.100   2.183  10.243  0.2874  0.1640  0.2604
11939SOL    HW140947   2.118   2.154  10.332  1.8888  0.4321  0.0355
11939SOL    HW240948   2.143   2.119  10.187 -0.0400  0.4356 -0.3141
11940SOL     OW40949  10.781  10.901   4.630  0.4983  0.3751 -0.0897
11940SOL    HW140950  10.770  10.863   4.542  0.0671  0.7938 -0.2213
11940SOL    HW240951  10.876  10.914   4.639  0.7451 -1.5932  0.3325
11941SOL     OW40952   4.108   2.009   1.796 -0.4256  0.1733  0.8347
11941SOL    HW140953   4.198   2.029   1.771 -0.6311 -1.7935 -1.6920
11941SOL    HW240954   4.057   2.084   1.765  0.0553  0.2049  0.1001
11942SOL     OW40955   3.763   2.863   2.106  0.2031 -0.3960  0.3008
11942SOL    HW140956   3.759   2.906   2.192 -1.0063 -0.0058  0.0482
11942SOL    HW240957   3.720   2.923   2.046  1.1472 -0.6200 -0.6141
11943SOL     OW40958   2.958   0.414   9.631 -0.2888  0.0169 -0.2110
11943SOL    HW140959   2.987   0.333   9.589 -0.4158 -1.4962  2.4611
11943SOL    HW240960   3.028   0.434   9.694 -1.6866  0.2337  1.3154
11944SOL     OW40961   6.457  10.113   3.976 -0.0926 -0.0006 -0.5018
11944SOL    HW140962   6.497  10.192   4.013 -2.7938  1.7141 -1.1415
11944SOL    HW240963   6.388  10.089   4.038 -0.4965 -0.7800 -1.2413
11945SOL     OW40964   3.435  10.470   3.523  0.1341  0.1898 -0.0396
11945SOL    HW140965   3.379  10.428   3.588  0.3926 -0.9615 -0.5357
11945SOL    HW240966   3.471  10.547   3.567 -1.2086  0.4950  0.5287
11946SOL     OW40967   1.552   8.972   3.748  0.2594  0.2105  0.2028
11946SOL    HW140968   1.517   9.057   3.774  0.3948  0.4641 -0.4282
11946SOL    HW240969   1.504   8.908   3.800 -0.3062  0.6344  0.1937
11947SOL     OW40970   5.820   5.170   4.934  0.1200 -0.0917  0.7681
11947SOL    HW140971   5.794   5.097   4.877  2.3001 -1.4614  1.4780
11947SOL    HW240972   5.743   5.184   4.990 -0.8695 -0.8374 -0.3669
11948SOL     OW40973   4.402   8.220   1.198  0.3620 -0.1281 -0.2788
11948SOL    HW140974   4.403   8.127   1.221  2.2588  0.0752  0.5129
11948SOL    HW240975   4.423   8.222   1.104  0.4519 -0.4826 -0.2670
11949SOL     OW40976   3.874   2.108   1.431 -0.1574  0.1496 -0.0122
11949SOL    HW140977   3.816   2.032   1.424  0.0487 -0.1426  1.3252
11949SOL    HW240978   3.960   2.075   1.404  0.1722 -0.3932  1.6855
11950SOL     OW40979   3.513   0.610  10.366  0.6292 -0.0468 -0.1465
11950SOL    HW140980   3.533   0.523  10.401  0.0122 -0.4754 -0.8621
11950SOL    HW240981   3.525   0.669  10.441  0.0789 -0.8613  0.5954
11951SOL     OW40982   6.881   0.545  11.274 -0.2483  0.2232  0.4321
11951SOL    HW140983   6.843   0.492  11.344 -0.8022  1.6034  1.2204
11951SOL    HW240984   6.946   0.600  11.319 -0.0895  0.6080 -0.2625
11952SOL     OW40985   8.354   6.608   1.476 -0.2654  0.3366 -0.0417
11952SOL    HW140986   8.372   6.608   1.570 -1.0505 -0.3437  0.1134
11952SOL    HW240987   8.299   6.531   1.462 -1.0364  1.0277 -0.8950
11953SOL     OW40988   0.947   5.463   2.754 -0.0038 -0.3448 -0.1938
11953SOL    HW140989   0.911   5.435   2.670  1.3383  0.5493 -1.0947
11953SOL    HW240990   0.892   5.536   2.781 -0.1579 -0.3341 -0.5304
11954SOL     OW40991   0.088   4.344   5.576  0.0009  0.1476  0.0229
11954SOL    HW140992   0.123   4.392   5.651  0.0854  0.7153 -0.3812
11954SOL    HW240993   0.069   4.411   5.511  0.3700 -0.3854 -0.6422
11955SOL     OW40994   7.606   0.098   5.775 -0.5514  0.0575 -0.4397
11955SOL    HW140995   7.654   0.143   5.705 -1.2525  0.4860 -0.6483
11955SOL    HW240996   7.662   0.025   5.800 -0.1724  0.0707 -1.2610
11956SOL     OW40997  10.595   1.702  11.249  0.2539 -0.9468 -0.3472
11956SOL    HW140998  10.637   1.752  11.180 -0.9623  2.1754  1.0538
11956SOL    HW240999  10.665   1.683  11.312  0.6689 -0.7443 -0.7503
11957SOL     OW41000   3.379   1.119  10.909  0.0207 -0.2475  0.5548
11957SOL    HW141001   3.412   1.162  10.830  3.1699 -0.2662  1.8274
11957SOL    HW241002   3.316   1.182  10.945  1.3312  1.4083  0.0384
11958SOL     OW41003   7.302   5.158  11.334 -0.3408 -0.1016 -0.2951
11958SOL    HW141004   7.276   5.191  11.420 -0.4424 -1.5574  0.2556
11958SOL    HW241005   7.334   5.069  11.351  0.1452 -0.2132 -1.6868
11959SOL     OW41006   5.086   4.594   3.586 -0.1607  0.3583 -0.3620
11959SOL    HW141007   5.143   4.649   3.532  0.1767 -0.3102 -0.6872
11959SOL    HW241008   5.030   4.656   3.633  1.3446  1.0497  0.5276
11960SOL     OW41009   8.202   3.081   9.259  0.2644  0.1174  0.8962
11960SOL    HW141010   8.182   3.154   9.318  3.0562  0.0139  2.0886
11960SOL    HW241011   8.294   3.060   9.278  0.5024 -1.5350 -1.7822
11961SOL     OW41012   9.581   9.144   1.381 -0.0318 -0.1583  0.1925
11961SOL    HW141013   9.523   9.113   1.311  0.4570 -0.3521 -0.1303
11961SOL    HW241014   9.533   9.126   1.462 -0.7121  0.2971 -0.0990
11962SOL     OW41015   3.839   1.440  10.990 -0.0478 -0.0647  0.9432
11962SOL    HW141016   3.776   1.429  11.062 -0.4497 -0.0402  0.5979
11962SOL    HW241017   3.822   1.528  10.957  0.0032 -0.1495  0.6934
11963SOL     OW41018  10.733   0.794   4.994  0.2892  0.1545 -0.0260
11963SOL    HW141019  10.749   0.805   5.088 -1.5506 -0.9715  0.4517
11963SOL    HW241020  10.644   0.758   4.989  0.1989  0.6087 -2.2217
11964SOL     OW41021   7.476   5.071   5.293 -0.3260  0.4806 -0.1955
11964SOL    HW141022   7.481   5.147   5.351 -0.2277  0.9765 -0.8454
11964SOL    HW241023   7.562   5.030   5.301 -0.2659  0.6234 -0.0917
11965SOL     OW41024   2.907   1.179   8.702  0.5486  0.2775 -0.1616
11965SOL    HW141025   2.946   1.114   8.761  0.5604  0.7168  0.3242
11965SOL    HW241026   2.852   1.128   8.643 -0.1287 -0.0812  0.7773
11966SOL     OW41027   8.596   3.369   9.641  0.0220 -0.7108  0.4459
11966SOL    HW141028   8.616   3.367   9.734  0.1674  1.2940  0.4719
11966SOL    HW241029   8.651   3.438   9.605  0.8634 -2.2692 -1.3612
11967SOL     OW41030   1.904   5.078   1.938 -0.3741 -0.0255 -0.1429
11967SOL    HW141031   1.922   4.990   1.971 -1.2994  0.1316  0.8275
11967SOL    HW241032   1.931   5.136   2.010  0.5526  0.5072 -0.9088
11968SOL     OW41033   5.021   6.867   4.839  0.1286  0.1738 -0.8874
11968SOL    HW141034   5.045   6.899   4.926  2.0162  0.4100 -1.4612
11968SOL    HW241035   5.098   6.818   4.810 -0.9476 -0.9450 -1.9299
11969SOL     OW41036   7.045   8.765  10.299 -0.2125  0.1902  0.2486
11969SOL    HW141037   7.089   8.697  10.350  1.0912  0.0103 -1.0790
11969SOL    HW241038   7.080   8.847  10.335 -0.7838  0.1331  0.9531
11970SOL     OW41039   8.029  11.103   8.648  0.1408 -0.0399 -0.2880
11970SOL    HW141040   7.955  11.087   8.591  0.4749 -0.4430 -0.6091
11970SOL    HW241041   8.078  11.174   8.605 -2.4195  3.3993  2.1296
11971SOL     OW41042   0.455   2.055   8.847 -0.1230  0.3460  0.6397
11971SOL    HW141043   0.380   2.114   8.856 -0.5885 -0.1340 -0.0365
11971SOL    HW241044   0.531   2.113   8.840 -0.3880  0.8329  1.6480
11972SOL     OW41045   5.306   5.750   1.369 -0.1693  0.2506 -0.3691
11972SOL    HW141046   5.270   5.807   1.301  0.4671  2.0196  0.7428
11972SOL    HW241047   5.350   5.680   1.320  0.1047  1.3815 -1.7921
11973SOL     OW41048   5.393   2.484   1.966 -0.0832  0.1742 -0.0050
11973SOL    HW141049   5.393   2.407   2.024  0.6571 -0.2901 -0.6082
11973SOL    HW241050   5.309   2.481   1.921 -1.5954  1.7471  2.6142
11974SOL     OW41051  11.316  10.303   5.501 -0.1538  0.1177  0.0126
11974SOL    HW141052  11.357  10.217   5.513 -0.8788 -0.0323  1.5438
11974SOL    HW241053  11.334  10.350   5.582 -1.3353  0.7414 -0.0688
11975SOL     OW41054   2.218   1.670   3.568  0.6536  0.2139 -0.0710
11975SOL    HW141055   2.198   1.597   3.510  2.0336 -0.8030  0.7144
11975SOL    HW241056   2.305   1.699   3.540 -0.1932  2.0699 -0.8852
11976SOL     OW41057  10.281   9.107   5.995 -0.0212  0.1466 -0.0709
11976SOL    HW141058  10.266   9.019   5.961  0.9413 -0.3846  0.8347
11976SOL    HW241059  10.364   9.134   5.956 -0.5884  0.8716 -0.7715
11977SOL     OW41060   0.528   8.353   7.759  0.0274  0.2229 -0.3926
11977SOL    HW141061   0.619   8.365   7.731  0.8728  2.1074  2.9730
11977SOL    HW241062   0.530   8.277   7.817 -0.0291  1.8723  1.8101
11978SOL     OW41063   8.396   2.650   6.963 -0.0014 -0.4327  0.3437
11978SOL    HW141064   8.392   2.672   6.870  1.5611 -1.2455  0.0740
11978SOL    HW241065   8.372   2.557   6.966  0.0875 -0.4410  0.7330
11979SOL     OW41066   7.061   3.165   3.750 -0.1877  0.0522  0.3463
11979SOL    HW141067   7.109   3.101   3.698  0.6581 -0.0361  1.2336
11979SOL    HW241068   7.128   3.210   3.801 -1.0114  0.1590  1.3398
11980SOL     OW41069   7.814   0.819   7.207  0.0873 -0.1180  0.1020
11980SOL    HW141070   7.748   0.754   7.231 -0.2510  0.3077  0.3431
11980SOL    HW241071   7.847   0.790   7.122 -1.4563  0.4284 -0.7208
11981SOL     OW41072   6.061   5.201   4.584 -0.1593 -0.3315  0.1499
11981SOL    HW141073   6.013   5.120   4.568  1.0484 -0.7724 -1.4300
11981SOL    HW241074   6.088   5.196   4.675 -0.0611 -1.7423  0.0493
11982SOL     OW41075   1.698   4.010   0.456 -0.2566 -0.1802 -0.3609
11982SOL    HW141076   1.706   3.995   0.362  0.6854 -1.3000 -0.1136
11982SOL    HW241077   1.782   4.048   0.482 -0.7123  0.6508 -0.0577
11983SOL     OW41078   5.765  10.367   8.127 -0.0129 -0.1746  0.1627
11983SOL    HW141079   5.820  10.423   8.073  0.5904  0.4880  1.4332
11983SOL    HW241080   5.689  10.347   8.072 -0.2512  1.9103 -0.3199
11984SOL     OW41081   9.190   6.731   5.022 -0.1723 -0.2675  0.1594
11984SOL    HW141082   9.213   6.659   4.963  0.0638 -0.0153 -0.0565
11984SOL    HW241083   9.120   6.696   5.077  0.4285 -0.8870  0.5248
11985SOL     OW41084   0.252   6.027   2.815  0.2198 -0.4799  0.3592
11985SOL    HW141085   0.221   5.955   2.761 -0.2238 -0.5996  0.7653
11985SOL    HW241086   0.303   5.985   2.885 -0.5417 -0.4524  0.9399
11986SOL     OW41087   3.206   3.953   3.583 -0.4727  0.4662  0.6145
11986SOL    HW141088   3.143   3.992   3.644 -0.9644  2.2113 -0.9629
11986SOL    HW241089   3.269   4.023   3.565  0.2133 -0.3256 -0.1146
11987SOL     OW41090   7.237   6.479   2.960 -0.1844  0.2159  0.2331
11987SOL    HW141091   7.143   6.478   2.978 -0.4836  0.3602 -1.2756
11987SOL    HW241092   7.244   6.484   2.865  1.3542  1.2359  0.3670
11988SOL     OW41093   0.014   7.440  10.210 -0.3203  0.1848 -0.3940
11988SOL    HW141094  -0.065   7.475  10.167 -0.5729 -1.8824 -1.6975
11988SOL    HW241095   0.086   7.489  10.170 -0.9569  2.7710  1.4973
11989SOL     OW41096   4.463   1.134   0.453  0.0261 -0.0259 -0.2469
11989SOL    HW141097   4.369   1.120   0.440 -0.2100  0.8417  0.5214
11989SOL    HW241098   4.501   1.120   0.366 -0.4742 -3.0387 -0.0317
11990SOL     OW41099   2.460   4.342   6.970 -0.2182 -0.0785  0.0518
11990SOL    HW141100   2.461   4.298   6.885  1.6129  1.5783 -0.8385
11990SOL    HW241101   2.406   4.420   6.957  1.6954  1.2586 -0.2303
11991SOL     OW41102  10.405   9.678   3.552  0.0146 -0.4468 -0.3078
11991SOL    HW141103  10.490   9.654   3.589  0.2955 -0.1121 -0.7322
11991SOL    HW241104  10.371   9.744   3.613  1.9297  2.5438 -2.3302
11992SOL     OW41105   9.344   4.469   4.204  0.6254 -0.6729  0.3063
11992SOL    HW141106   9.433   4.475   4.240  0.4014 -1.5501  1.0182
11992SOL    HW241107   9.289   4.511   4.270  0.3318 -1.4246  0.5431
11993SOL     OW41108   8.428   3.326   7.012 -0.2271  0.2166 -0.0711
11993SOL    HW141109   8.388   3.395   7.065 -0.3782 -0.9506  1.3736
11993SOL    HW241110   8.407   3.349   6.922 -2.4870  0.6909  0.5394
11994SOL     OW41111   4.340   1.536  11.147 -0.3535 -0.2397  0.5481
11994SOL    HW141112   4.368   1.589  11.072  0.4239 -0.9305  0.3465
11994SOL    HW241113   4.351   1.594  11.222 -0.8805  0.3687  0.1679
11995SOL     OW41114   6.875  10.659   7.614 -0.0886 -0.1921 -0.7359
11995SOL    HW141115   6.898  10.638   7.705 -0.6074 -0.0916 -0.5765
11995SOL    HW241116   6.821  10.585   7.586 -1.1351  0.4701 -0.4821
11996SOL     OW41117   5.779   0.334   0.769 -0.1149  0.1707  0.3129
11996SOL    HW141118   5.837   0.282   0.825 -1.5569  0.4152  2.0769
11996SOL    HW241119   5.758   0.276   0.696 -0.8802 -1.3936  1.7351
11997SOL     OW41120   6.883   3.312   4.913  0.2261  0.1106 -0.6294
11997SOL    HW141121   6.888   3.387   4.854  1.1999 -0.8044 -1.7143
11997SOL    HW241122   6.943   3.248   4.877 -1.1491 -1.5039 -0.1360
11998SOL     OW41123   5.641   7.144  11.048 -0.2888  0.3585 -0.2834
11998SOL    HW141124   5.589   7.192  11.113 -2.0152 -0.7760 -0.8045
11998SOL    HW241125   5.649   7.056  11.084  2.1695  0.7628  0.2657
11999SOL     OW41126   1.566   8.374   6.689  0.2010 -0.1701 -0.5969
11999SOL    HW141127   1.623   8.299   6.707  0.0897 -0.0963  0.1004
11999SOL    HW241128   1.477   8.340   6.702  0.2233  0.6021  1.7985
12000SOL     OW41129   0.829   9.459   0.985  0.3014 -0.3381  0.4962
12000SOL    HW141130   0.806   9.376   1.026  0.5862  0.1275  1.6369
12000SOL    HW241131   0.761   9.520   1.014 -1.4520 -0.7762 -2.5447
12001SOL     OW41132   5.221   3.331   0.807 -0.0568 -0.2289 -0.7058
12001SOL    HW141133   5.266   3.326   0.722  0.2946  0.0228 -0.5375
12001SOL    HW241134   5.153   3.397   0.795 -0.0088 -0.1943 -0.7920
12002SOL     OW41135  10.907   7.999   2.394  0.1772 -0.1679 -0.0220
12002SOL    HW141136  10.943   8.046   2.469  2.0761 -0.8631 -0.4570
12002SOL    HW241137  10.963   8.026   2.321 -1.9860  0.9279 -1.3083
12003SOL     OW41138   7.745   7.370   4.257  0.5994  0.1822 -0.3379
12003SOL    HW141139   7.758   7.296   4.197  0.5610  1.1035 -1.4922
12003SOL    HW241140   7.826   7.374   4.307  0.5630 -0.7090 -0.1940
12004SOL     OW41141   5.768   6.167   5.719  0.4547  0.3553  0.1446
12004SOL    HW141142   5.726   6.220   5.787 -0.3246 -0.3601  0.2246
12004SOL    HW241143   5.727   6.081   5.727 -0.3863  0.5388 -1.8932
12005SOL     OW41144  11.025   5.703   7.998  0.2170 -0.1467 -0.0703
12005SOL    HW141145  10.952   5.651   8.031 -0.1794 -1.0628 -2.3151
12005SOL    HW241146  10.987   5.789   7.980  0.3615  0.2582  1.5049
12006SOL     OW41147   8.467   5.479   4.933 -0.2554 -0.2362 -0.2096
12006SOL    HW141148   8.483   5.403   4.878  0.5584 -1.1170  1.2058
12006SOL    HW241149   8.378   5.467   4.967 -0.4519 -0.1043 -0.6749
12007SOL     OW41150   0.280   5.538   5.912  0.3209 -0.2776  0.7614
12007SOL    HW141151   0.367   5.501   5.896  0.0952 -0.7799  0.6756
12007SOL    HW241152   0.295   5.609   5.975  0.6457 -1.0757  1.5997
12008SOL     OW41153  11.209   3.050   4.527 -0.0789  0.1120 -0.3138
12008SOL    HW141154  11.172   3.022   4.610  0.9383  1.0934  0.4794
12008SOL    HW241155  11.287   2.995   4.515  0.1597  0.4332 -0.2694
12009SOL     OW41156  10.889   1.767   5.502 -0.4950  0.1621  0.5931
12009SOL    HW141157  10.898   1.860   5.481  0.1399  0.0712  0.4708
12009SOL    HW241158  10.959   1.750   5.565 -0.8415 -0.1472  0.8937
12010SOL     OW41159   4.664   7.559   4.136  0.0210  0.3058  0.4235
12010SOL    HW141160   4.582   7.574   4.089  0.4731 -0.7451 -0.6991
12010SOL    HW241161   4.677   7.640   4.186 -1.1857  0.8746 -0.1506
12011SOL     OW41162   4.231   9.187   4.755 -0.2199 -0.3396  0.1016
12011SOL    HW141163   4.139   9.177   4.732 -0.5048  0.6444  0.7671
12011SOL    HW241164   4.248   9.281   4.745  0.4721 -0.3816  0.8182
12012SOL     OW41165   6.611   1.483   0.547 -0.1128 -0.4027 -0.6799
12012SOL    HW141166   6.625   1.553   0.610  1.4130 -0.3960 -1.0087
12012SOL    HW241167   6.535   1.511   0.495  0.0091  0.6332 -0.3006
12013SOL     OW41168  11.249   8.940   1.018  0.0818 -0.1046 -0.3687
12013SOL    HW141169  11.237   9.010   1.083  0.8137 -0.3491  0.0360
12013SOL    HW241170  11.278   8.985   0.939  0.0214  0.1019 -0.2733
12014SOL     OW41171   0.430   7.367   7.833  0.5076  0.3954 -0.3947
12014SOL    HW141172   0.340   7.363   7.865  0.0828 -0.5504 -1.6672
12014SOL    HW241173   0.483   7.379   7.912 -0.6378 -0.3176  0.4987
12015SOL     OW41174   7.585   2.111   6.287  0.1776 -0.5794 -0.2316
12015SOL    HW141175   7.610   2.193   6.244  0.6195 -0.9535 -0.6967
12015SOL    HW241176   7.662   2.054   6.276 -0.1562 -1.0775  0.0185
12016SOL     OW41177   6.278   3.216   4.413  0.7425 -0.0510 -0.5105
12016SOL    HW141178   6.215   3.189   4.347  1.8156 -2.2202 -0.6894
12016SOL    HW241179   6.266   3.155   4.485  0.9626  1.0435  0.4702
12017SOL     OW41180   1.450   3.446   7.327 -0.2793  0.1803  0.5157
12017SOL    HW141181   1.374   3.435   7.385 -0.6353  2.4090  0.5183
12017SOL    HW241182   1.498   3.363   7.335 -1.6922 -0.5380  1.9802
12018SOL     OW41183   2.259   3.334   8.895 -0.7079  0.7120  0.6818
12018SOL    HW141184   2.342   3.336   8.942 -0.7181 -0.2142  0.7503
12018SOL    HW241185   2.246   3.242   8.872 -1.2246  0.9935 -0.1989
12019SOL     OW41186   8.694   5.391   6.008  0.1760 -0.1254  0.3970
12019SOL    HW141187   8.777   5.345   5.999 -0.1094 -0.3055 -1.5707
12019SOL    HW241188   8.709   5.453   6.079  2.1636  0.1921 -0.2575
12020SOL     OW41189   8.074   2.081   4.791 -0.5280  0.1823  0.2358
12020SOL    HW141190   8.118   1.999   4.809  2.3870  1.3309 -1.2361
12020SOL    HW241191   8.021   2.099   4.869  0.5066 -1.9756  1.4513
12021SOL     OW41192   9.351   8.906  10.665 -0.0002  0.1703  0.3980
12021SOL    HW141193   9.434   8.885  10.707  1.3661 -0.2764 -2.4222
12021SOL    HW241194   9.289   8.844  10.703  1.5797 -1.4274  0.4161
12022SOL     OW41195   0.440   2.346   2.920 -0.4245  0.4738  0.2566
12022SOL    HW141196   0.423   2.370   2.829 -1.6604  1.7319  0.8098
12022SOL    HW241197   0.494   2.417   2.954  0.4386 -0.2298  0.3845
12023SOL     OW41198   0.833  10.849   3.333 -0.3824  0.4146 -0.0648
12023SOL    HW141199   0.738  10.851   3.341 -0.3569 -0.5611  0.4598
12023SOL    HW241200   0.859  10.762   3.362  0.7477  0.9640  0.6594
12024SOL     OW41201   3.521   9.941   1.376 -0.2131  0.2299  0.2251
12024SOL    HW141202   3.610   9.964   1.401 -0.2039  0.0532  0.3574
12024SOL    HW241203   3.514   9.968   1.284 -0.1080  0.4837  0.2929
12025SOL     OW41204   9.444   7.876   3.723 -0.4972 -0.6833 -0.3102
12025SOL    HW141205   9.434   7.818   3.798  0.3418 -1.5056 -0.8280
12025SOL    HW241206   9.521   7.929   3.744  0.3502 -1.6087 -1.0286
12026SOL     OW41207   6.789   7.776   4.493  0.0858 -0.0569  0.8417
12026SOL    HW141208   6.856   7.729   4.443 -0.2010 -0.6434  1.0153
12026SOL    HW241209   6.767   7.852   4.438  0.6105 -0.0686  0.6097
12027SOL     OW41210  10.824   4.792   5.474  0.5261  0.2857  0.2098
12027SOL    HW141211  10.905   4.778   5.426 -0.8871  0.0321 -2.1978
12027SOL    HW241212  10.756   4.755   5.418 -1.4925  2.3089  1.2077
12028SOL     OW41213  10.057   7.040  10.976 -0.3498  0.3174  0.5247
12028SOL    HW141214  10.027   6.989  10.901  1.5314 -1.2210  0.7829
12028SOL    HW241215   9.981   7.092  11.002 -1.8306 -1.1863 -0.7092
12029SOL     OW41216   4.514   2.227   5.383 -0.3808 -0.0754 -0.3517
12029SOL    HW141217   4.495   2.161   5.450 -0.8968  0.6580  0.2384
12029SOL    HW241218   4.443   2.218   5.320 -2.2727  2.0296  1.3700
12030SOL     OW41219   6.829   9.326   0.614  0.5248 -0.1020  0.1450
12030SOL    HW141220   6.893   9.282   0.558 -0.5902 -0.9862 -0.4563
12030SOL    HW241221   6.750   9.333   0.560 -0.2916 -0.1867  1.3086
12031SOL     OW41222   3.528   9.716   8.590 -0.1073  0.3779 -0.1859
12031SOL    HW141223   3.590   9.644   8.584 -0.3920  0.2621 -2.0448
12031SOL    HW241224   3.444   9.673   8.606 -0.0745  0.3845  0.0072
12032SOL     OW41225   4.212   3.689   4.329 -0.4111  0.1484 -0.5841
12032SOL    HW141226   4.141   3.641   4.372  0.5986 -1.2737 -0.4709
12032SOL    HW241227   4.269   3.717   4.401  0.0290 -0.1828 -0.8011
12033SOL     OW41228   4.997   9.555   9.286 -0.7372 -0.7337 -0.1009
12033SOL    HW141229   4.915   9.547   9.335 -1.4851  1.6005 -0.9207
12033SOL    HW241230   4.971   9.577   9.197  0.7958  0.3463 -0.3005
12034SOL     OW41231   3.124   1.447   6.794  0.4727  0.1425  0.3172
12034SOL    HW141232   3.091   1.483   6.877  1.4706 -2.3671  1.8596
12034SOL    HW241233   3.071   1.368   6.780 -0.6358  1.2951 -2.2019
12035SOL     OW41234   3.759   4.487   6.394  0.2683 -0.0966 -0.0799
12035SOL    HW141235   3.803   4.535   6.325  1.3021 -0.5878  0.2248
12035SOL    HW241236   3.815   4.497   6.471 -0.1473 -0.7172  0.3166
12036SOL     OW41237   3.434   1.214  10.592 -0.6345 -0.8830 -0.3967
12036SOL    HW141238   3.515   1.264  10.599 -1.2151  0.2203 -1.3708
12036SOL    HW241239   3.444   1.164  10.511 -1.1301 -0.3820 -0.7654
12037SOL     OW41240   7.781  10.535   2.422  0.0629 -0.2315  0.2155
12037SOL    HW141241   7.865  10.568   2.390 -0.3607  1.6352  0.9763
12037SOL    HW241242   7.733  10.511   2.342  0.4390  0.8676 -0.3469
12038SOL     OW41243   7.291  10.074   0.283 -0.2181  0.6173 -0.0678
12038SOL    HW141244   7.270  10.111   0.197 -0.5291  0.0249 -0.2492
12038SOL    HW241245   7.379  10.107   0.302 -0.9062  2.3088  0.2531
12039SOL     OW41246   9.852   7.424   9.670 -0.1886  0.0220  0.0501
12039SOL    HW141247   9.776   7.375   9.701 -0.5805  1.3401  1.2566
12039SOL    HW241248   9.823   7.515   9.671  1.7299  0.6577  1.5748
12040SOL     OW41249   4.478   3.683   2.562 -0.0331  0.0188  0.0760
12040SOL    HW141250   4.533   3.656   2.489  1.6233  0.8130  1.0206
12040SOL    HW241251   4.418   3.747   2.524  0.3049 -0.1478 -0.7510
12041SOL     OW41252   4.920   7.398   9.421  0.3465  0.4775 -0.3630
12041SOL    HW141253   4.952   7.349   9.346 -1.5690 -0.4606 -0.5849
12041SOL    HW241254   4.827   7.411   9.404  0.0828  1.0690  1.3985
12042SOL     OW41255   7.454   3.791   3.220 -0.5281 -0.2544 -0.1799
12042SOL    HW141256   7.435   3.832   3.136  0.5880  1.0928  0.2103
12042SOL    HW241257   7.368   3.780   3.262 -0.9471  0.4639 -0.8494
12043SOL     OW41258  10.091   7.709   0.172  0.1719 -0.7466  0.0952
12043SOL    HW141259  10.087   7.805   0.175  2.1063 -0.6914  2.2078
12043SOL    HW241260  10.169   7.690   0.120 -0.8874 -1.2147 -1.3495
12044SOL     OW41261   4.304   4.031   0.591 -0.6726 -0.1766  0.1597
12044SOL    HW141262   4.330   3.992   0.675 -1.3669 -0.5957  0.1759
12044SOL    HW241263   4.274   4.119   0.614  0.3610  0.1832  0.1879
12045SOL     OW41264   9.534   9.549  10.781  0.3250  1.0961  0.5244
12045SOL    HW141265   9.525   9.642  10.803  0.3821  0.4691  3.3827
12045SOL    HW241266   9.450   9.527  10.740  0.1964  2.3483  0.0839
12046SOL     OW41267   2.936   3.680  11.243  0.4892 -0.2104 -0.5254
12046SOL    HW141268   2.953   3.696  11.336  1.9332  1.0756 -0.9841
12046SOL    HW241269   2.971   3.758  11.199 -0.9967 -0.3913 -2.0677
12047SOL     OW41270   2.845   0.126   2.863  0.3988  0.4254 -0.3118
12047SOL    HW141271   2.855   0.218   2.887  2.1779 -0.1496  1.2609
12047SOL    HW241272   2.751   0.115   2.847  0.0089  2.2229  0.6483
12048SOL     OW41273  10.096   4.315  10.405 -1.2318  0.1856  0.0511
12048SOL    HW141274  10.122   4.318  10.313 -0.6559  0.8491  0.2243
12048SOL    HW241275  10.088   4.407  10.430 -2.0604  0.0010  0.4789
12049SOL     OW41276   0.785   8.978   9.606 -0.5462  0.3702 -0.2347
12049SOL    HW141277   0.806   8.959   9.697 -2.4192 -0.4668  0.0493
12049SOL    HW241278   0.689   8.974   9.602 -0.5248  1.2668 -2.0474
12050SOL     OW41279   7.293   8.357   5.396  0.0053  0.1593  0.0599
12050SOL    HW141280   7.272   8.343   5.488  0.2322  0.3103  0.1351
12050SOL    HW241281   7.259   8.444   5.377 -0.1934  0.0587 -0.0433
12051SOL     OW41282   8.179   4.492   8.506 -0.6197 -0.1354  0.2041
12051SOL    HW141283   8.250   4.456   8.454 -0.7638 -0.4453  0.2214
12051SOL    HW241284   8.104   4.436   8.487 -0.3286 -1.1389  1.8071
12052SOL     OW41285   1.078   1.731   8.337  0.1134 -0.3443  0.1803
12052SOL    HW141286   1.032   1.647   8.340 -1.3351  0.4574  0.9282
12052SOL    HW241287   1.100   1.751   8.428 -0.6125  0.6560  0.1424
12053SOL     OW41288   1.008   8.161   8.414  0.1027 -0.3473 -0.3712
12053SOL    HW141289   1.053   8.097   8.359 -0.9009 -0.0653 -1.5452
12053SOL    HW241290   1.054   8.157   8.498  1.7516 -0.7047 -1.2583
12054SOL     OW41291   0.632   0.111   8.762  0.4095  0.3050 -0.0396
12054SOL    HW141292   0.597   0.040   8.708  0.3250 -0.7098  1.3191
12054SOL    HW241293   0.618   0.190   8.710  0.2931 -0.6452 -1.4756
12055SOL     OW41294   3.234   4.218   5.035  0.1281  0.4137  0.1137
12055SOL    HW141295   3.310   4.213   5.093 -0.2098  1.2705  0.6349
12055SOL    HW241296   3.163   4.178   5.085  0.4535 -1.2998 -0.7577
12056SOL     OW41297   5.382   2.910   3.509 -0.0936  0.2640 -0.3444
12056SOL    HW141298   5.314   2.869   3.562 -0.5755  1.5238  0.0064
12056SOL    HW241299   5.366   2.877   3.420  0.2483 -1.2316  0.1243
12057SOL     OW41300   5.266   3.533   6.882  0.4641  0.2089 -0.2834
12057SOL    HW141301   5.280   3.622   6.916 -0.4928 -0.4037  1.7807
12057SOL    HW241302   5.181   3.538   6.838  0.3298  0.2902 -0.0209
12058SOL     OW41303  10.726   6.822   7.067 -0.2935  0.3889 -0.4149
12058SOL    HW141304  10.705   6.855   6.980 -1.1104  0.6133 -0.1387
12058SOL    HW241305  10.751   6.900   7.117 -0.1114  0.3008 -0.3696
12059SOL     OW41306   4.275   5.693   1.196 -0.6695 -0.4589 -0.2293
12059SOL    HW141307   4.352   5.709   1.250 -0.5833 -1.2674 -0.1081
12059SOL    HW241308   4.200   5.711   1.254 -0.5847  0.8030 -0.4891
12060SOL     OW41309   3.745   3.394   0.283  0.5116 -0.0271  0.6434
12060SOL    HW141310   3.759   3.441   0.365  0.0517 -1.9104  1.8427
12060SOL    HW241311   3.820   3.336   0.276 -0.3685 -1.1883  0.6957
12061SOL     OW41312   8.306   9.684   4.750 -0.5106  0.3103  0.4064
12061SOL    HW141313   8.293   9.778   4.743 -0.5469  0.2171 -0.8670
12061SOL    HW241314   8.399   9.671   4.733 -0.3760  0.1613  1.1964
12062SOL     OW41315   4.761   1.077   0.040 -0.6392 -0.0682  0.5796
12062SOL    HW141316   4.773   1.171   0.044  0.8599 -0.1768 -1.0113
12062SOL    HW241317   4.844   1.040   0.069 -0.7727 -0.8884 -0.0489
12063SOL     OW41318   8.550   5.018   8.310 -0.2402 -0.1679 -0.6195
12063SOL    HW141319   8.599   4.980   8.237 -2.1593 -1.9273 -1.0387
12063SOL    HW241320   8.505   4.944   8.350 -0.3493  0.9981  1.4872
12064SOL     OW41321  10.977   6.041   0.942  0.0232 -0.2587 -0.3533
12064SOL    HW141322  11.066   6.005   0.943  0.6378  1.1694 -1.7664
12064SOL    HW241323  10.975   6.099   1.018  0.5942  0.3728 -0.8108
12065SOL     OW41324   2.236   3.035   8.054  0.5167  0.0416 -0.2106
12065SOL    HW141325   2.181   2.973   8.005 -1.2428  2.3859 -1.2660
12065SOL    HW241326   2.292   3.075   7.988  1.2623  0.0184  0.3987
12066SOL     OW41327   1.181   0.971   1.919 -0.1177  0.3188 -0.2365
12066SOL    HW141328   1.103   1.021   1.893 -1.7004 -0.6718  2.4102
12066SOL    HW241329   1.244   1.037   1.946 -0.3832  1.0977 -1.4928
12067SOL     OW41330   8.443   7.401   4.430 -0.3651 -0.0244  0.9736
12067SOL    HW141331   8.499   7.338   4.385 -0.3684  0.3047  0.5026
12067SOL    HW241332   8.490   7.421   4.511  0.1321  0.1367  0.6495
12068SOL     OW41333   0.502   3.379   2.632 -0.0445  0.2462  0.2056
12068SOL    HW141334   0.529   3.334   2.552  1.9146 -0.4455  1.2272
12068SOL    HW241335   0.566   3.449   2.643 -1.1506  1.2436  0.4124
12069SOL     OW41336   7.000   8.661  10.660 -0.7202  0.5526 -0.5165
12069SOL    HW141337   7.026   8.611  10.737  0.1735  2.0853  0.2063
12069SOL    HW241338   6.924   8.614  10.625 -1.8400  0.4330  1.9448
12070SOL     OW41339   3.804   2.680   5.001  0.1203 -0.4598 -0.0823
12070SOL    HW141340   3.829   2.767   5.032 -0.4563 -0.2946 -0.0820
12070SOL    HW241341   3.708   2.679   5.006  0.1308 -1.1424  0.0509
12071SOL     OW41342   5.817  10.535   3.734 -0.0700 -0.1026  0.3953
12071SOL    HW141343   5.908  10.529   3.763  0.0374  0.4602  0.1847
12071SOL    HW241344   5.799  10.450   3.695  0.6662  0.0980 -0.4095
12072SOL     OW41345   0.637  10.344   4.685 -0.3045  0.3827  0.2497
12072SOL    HW141346   0.618  10.347   4.778 -0.9556 -0.7038  0.1664
12072SOL    HW241347   0.724  10.304   4.679  0.2633  1.5692  0.4399
12073SOL     OW41348   8.125   1.682   9.383 -0.2602  0.1225  0.2976
12073SOL    HW141349   8.211   1.675   9.342  0.6075  2.5588  1.6200
12073SOL    HW241350   8.068   1.714   9.314  0.5313  1.2799  0.1711
12074SOL     OW41351   4.291   9.438   9.882 -0.2320  0.2190  0.2773
12074SOL    HW141352   4.209   9.403   9.850  0.5692 -2.9094  1.5052
12074SOL    HW241353   4.268   9.485   9.962 -1.0145  0.7963 -0.2757
12075SOL     OW41354   9.562   3.187   5.344 -0.1783 -0.1046  1.0838
12075SOL    HW141355   9.652   3.184   5.377 -0.0115  1.8011  0.8673
12075SOL    HW241356   9.525   3.102   5.366  2.1099 -1.4525 -0.0553
12076SOL     OW41357   2.838   1.613   0.866  0.5308  0.4285  0.1506
12076SOL    HW141358   2.917   1.647   0.823  0.7510  0.5420  0.6362
12076SOL    HW241359   2.858   1.521   0.883 -0.2083 -0.0544 -1.4977
12077SOL     OW41360   9.630   4.403  10.451  0.2443  0.2694 -0.0882
12077SOL    HW141361   9.657   4.435  10.537 -1.2164  1.2826  0.0061
12077SOL    HW241362   9.639   4.308  10.457  0.9129  0.3874  0.9104
12078SOL     OW41363   5.957   5.009   6.785  0.3837 -0.1712  0.0019
12078SOL    HW141364   5.862   5.005   6.773  0.2903  1.6890  0.0575
12078SOL    HW241365   5.970   5.006   6.880  0.4544 -1.6655 -0.0458
12079SOL     OW41366  10.605   4.256   0.770  0.2876  0.2732 -0.3454
12079SOL    HW141367  10.604   4.186   0.705 -1.2633 -1.2640  1.2555
12079SOL    HW241368  10.695   4.257   0.802  0.4840 -0.5736 -0.8442
12080SOL     OW41369   6.999   3.676   8.774 -0.4560  0.7747 -0.4229
12080SOL    HW141370   6.918   3.700   8.730  0.8304  1.4670 -2.4846
12080SOL    HW241371   6.988   3.583   8.794 -2.2221  1.1392  0.3848
12081SOL     OW41372   4.472  10.070   2.467 -0.3021 -0.1900 -0.3147
12081SOL    HW141373   4.400  10.016   2.435  0.0430 -1.2288  0.6347
12081SOL    HW241374   4.431  10.134   2.525 -0.5120 -0.5559 -0.0547
12082SOL     OW41375   2.735   6.338   4.665 -0.1009  0.3402  0.1373
12082SOL    HW141376   2.744   6.284   4.744  0.2017  0.6847  0.3369
12082SOL    HW241377   2.800   6.303   4.604  1.6539  1.9402  1.0819
12083SOL     OW41378   5.351   5.285  10.528  0.2794  0.2892  0.4103
12083SOL    HW141379   5.443   5.282  10.502  0.8742  1.6912  2.2630
12083SOL    HW241380   5.334   5.377  10.546 -1.1651 -0.1162  1.2377
12084SOL     OW41381   0.053   9.895   6.303  0.1092  0.2579 -0.2223
12084SOL    HW141382   0.099   9.879   6.221 -0.6111 -1.9624 -0.2247
12084SOL    HW241383   0.123   9.912   6.366  0.7666  0.0640 -0.8886
12085SOL     OW41384   1.916   2.472   1.497  0.0124 -0.5039 -0.5073
12085SOL    HW141385   1.993   2.463   1.553 -0.3408 -1.9500 -0.2154
12085SOL    HW241386   1.949   2.508   1.415  1.1547 -1.9991 -0.7201
12086SOL     OW41387   8.611   6.641   0.178  0.2860  0.1929 -0.5569
12086SOL    HW141388   8.641   6.732   0.187  0.6609  0.1410 -1.2646
12086SOL    HW241389   8.690   6.589   0.190  0.2491  0.0002 -1.1334
12087SOL     OW41390   3.630  10.135   9.052  0.2482 -0.2274 -0.4171
12087SOL    HW141391   3.703  10.176   9.098 -0.1124  0.0153 -0.0614
12087SOL    HW241392   3.555  10.193   9.070 -0.3843 -1.3260  0.5213
12088SOL     OW41393   6.936   4.819   2.254 -0.3346  0.3658  0.7815
12088SOL    HW141394   6.869   4.869   2.299  0.3283  1.5707  0.4507
12088SOL    HW241395   7.005   4.883   2.235  0.1879 -0.5064 -0.3159
12089SOL     OW41396   0.528   3.153   8.995 -0.3976 -0.1123 -0.2366
12089SOL    HW141397   0.530   3.118   9.085 -1.6495  0.4145  0.0066
12089SOL    HW241398   0.581   3.091   8.945  1.0719  0.0758  1.0321
12090SOL     OW41399   7.271   6.545   2.694  0.5029  0.2585  0.4725
12090SOL    HW141400   7.290   6.599   2.617  1.9470 -1.3259 -0.3126
12090SOL    HW241401   7.319   6.464   2.679  1.9185  0.4172  3.6729
12091SOL     OW41402   6.243   2.996   2.144 -0.0079 -0.2700 -0.0346
12091SOL    HW141403   6.289   2.979   2.226  1.5407  0.0916 -0.8288
12091SOL    HW241404   6.157   3.029   2.172  0.9955  1.1675  1.4484
12092SOL     OW41405   7.556   3.801   0.675 -0.2546 -1.1969  0.8951
12092SOL    HW141406   7.625   3.819   0.740 -0.3036  0.1780  0.5754
12092SOL    HW241407   7.474   3.818   0.721 -0.2971 -0.4778  0.5700
12093SOL     OW41408  10.918   7.345   6.708  0.1425 -0.4891 -0.4267
12093SOL    HW141409  10.934   7.257   6.672 -0.2135 -0.9145  0.4266
12093SOL    HW241410  10.847   7.380   6.656 -0.7461 -1.3167  0.2051
12094SOL     OW41411   0.434   9.125   4.247  0.1733 -0.4554  0.3242
12094SOL    HW141412   0.431   9.123   4.343  0.9703 -2.9206  0.3316
12094SOL    HW241413   0.343   9.127   4.220 -0.0620  2.4182  1.1084
12095SOL     OW41414   2.640   8.057   5.278  0.0232  0.5175 -0.3834
12095SOL    HW141415   2.608   8.072   5.189 -1.0950  0.3055 -0.0216
12095SOL    HW241416   2.568   8.012   5.322  0.9963 -0.3943  0.3088
12096SOL     OW41417  11.023   2.708   2.811  0.5088  0.4402  0.2629
12096SOL    HW141418  10.957   2.641   2.800  2.2746 -1.2416 -0.3514
12096SOL    HW241419  10.974   2.790   2.816 -1.5927 -0.7722 -0.1302
12097SOL     OW41420   6.536   1.068   9.730  0.2856 -0.3794  0.0304
12097SOL    HW141421   6.590   1.104   9.660 -0.5740 -0.1081 -0.4860
12097SOL    HW241422   6.501   0.986   9.695 -0.1340 -0.2520  0.1477
12098SOL     OW41423  10.955   9.204   0.947 -0.0195 -0.2960 -0.5831
12098SOL    HW141424  10.938   9.172   1.036  0.0291 -1.2821 -0.9150
12098SOL    HW241425  10.902   9.147   0.891 -0.2773  0.5146 -1.1608
12099SOL     OW41426   7.357   7.420   1.283  0.3907 -0.2607  0.2181
12099SOL    HW141427   7.432   7.456   1.330  1.7633 -0.9074 -1.4408
12099SOL    HW241428   7.365   7.325   1.295  0.3622 -0.3847 -0.7515
12100SOL     OW41429   9.079   2.668   0.673 -0.2607  0.6700  0.3307
12100SOL    HW141430   9.121   2.754   0.668 -1.0412  1.0059 -0.7306
12100SOL    HW241431   8.988   2.684   0.648 -0.6520 -0.3071  1.0930
12101SOL     OW41432   2.834   4.100   3.543 -0.2073  0.5811  0.3447
12101SOL    HW141433   2.907   4.153   3.512 -1.5677  2.3143  0.0634
12101SOL    HW241434   2.859   4.074   3.632  0.9605  0.7270  0.0677
12102SOL     OW41435   4.176   7.359   4.755  0.4427  0.2503 -0.7550
12102SOL    HW141436   4.094   7.404   4.736 -0.0104 -0.2278  0.0436
12102SOL    HW241437   4.152   7.266   4.760  0.8259  0.2197  0.5790
12103SOL     OW41438   6.050   8.538  11.329 -0.3199  0.2875  0.3112
12103SOL    HW141439   6.144   8.523  11.340 -0.3480 -0.1172  0.0219
12103SOL    HW241440   6.028   8.488  11.250 -0.3252  2.1845 -0.9245
12104SOL     OW41441   8.196   3.013   0.366 -0.3515  0.4068  0.0818
12104SOL    HW141442   8.209   3.055   0.451  1.9263 -1.7261  0.8850
12104SOL    HW241443   8.271   3.040   0.314  0.2651 -1.2462  0.0594
12105SOL     OW41444   3.410   5.139   3.199 -0.1887 -0.0718  0.0165
12105SOL    HW141445   3.341   5.185   3.153 -0.8946  0.0538  1.1705
12105SOL    HW241446   3.427   5.061   3.146 -0.9497  0.0872 -0.4670
12106SOL     OW41447   4.219   4.598   9.332 -0.4215 -0.0245  0.2306
12106SOL    HW141448   4.142   4.645   9.364 -0.4051 -0.1866  0.5115
12106SOL    HW241449   4.198   4.577   9.241 -0.6313  0.0984  0.2507
12107SOL     OW41450   2.939   6.375   0.181 -0.2276 -0.4801 -0.1656
12107SOL    HW141451   2.938   6.471   0.184  1.2333 -0.4957  1.9963
12107SOL    HW241452   2.868   6.348   0.239 -0.6695 -0.7244 -0.8118
12108SOL     OW41453   7.576   2.029  10.869  0.4242  0.5212 -0.5059
12108SOL    HW141454   7.519   2.074  10.931 -0.8020 -1.3175 -0.2408
12108SOL    HW241455   7.604   2.096  10.808  0.3495  2.0491  1.0998
12109SOL     OW41456  10.597   6.280   7.396 -0.2305 -0.6690  0.6720
12109SOL    HW141457  10.511   6.313   7.370 -0.3876 -0.8785  0.9330
12109SOL    HW241458  10.654   6.303   7.323 -0.7866 -1.7691 -0.1341
12110SOL     OW41459   5.522   4.417   0.482 -0.1432 -0.9865  0.5185
12110SOL    HW141460   5.455   4.390   0.420  0.8082 -0.4660 -0.7481
12110SOL    HW241461   5.562   4.335   0.512  1.3595 -1.1247 -1.7729
12111SOL     OW41462   1.553   0.180   0.372  0.3411 -0.2991  1.0637
12111SOL    HW141463   1.646   0.200   0.358  0.3832  0.1050  1.8906
12111SOL    HW241464   1.554   0.094   0.414  0.3584 -0.1558  1.3588
12112SOL     OW41465  10.500   6.190   2.060 -0.2831  0.2904 -0.0432
12112SOL    HW141466  10.528   6.258   2.121 -0.3510 -0.1553  0.4933
12112SOL    HW241467  10.420   6.154   2.099 -0.2597 -0.0826 -0.3325
12113SOL     OW41468   6.238   5.488   6.150 -0.6204  0.2273 -0.1032
12113SOL    HW141469   6.276   5.471   6.236  0.3538 -0.7968 -0.7204
12113SOL    HW241470   6.200   5.404   6.124  1.4431 -0.1834 -1.8329
12114SOL     OW41471   5.077   2.730   0.101 -0.2172 -0.1631  0.0094
12114SOL    HW141472   5.051   2.692   0.185  0.8380 -1.4135 -0.2073
12114SOL    HW241473   5.144   2.794   0.123 -1.0755  0.6523  0.2612
12115SOL     OW41474  10.695   7.301   1.906  0.5081  0.0609  0.3310
12115SOL    HW141475  10.633   7.284   1.977  1.2914  0.0079  1.0247
12115SOL    HW241476  10.659   7.375   1.858 -0.4277 -0.4046  0.3164
12116SOL     OW41477   7.138   6.902   6.321 -0.1149 -0.0384 -0.3629
12116SOL    HW141478   7.057   6.854   6.301  1.5284 -2.3261 -1.7688
12116SOL    HW241479   7.188   6.900   6.239  0.0084  4.2142 -0.4934
12117SOL     OW41480   0.672  10.045   7.187  0.8688 -0.2170  0.3634
12117SOL    HW141481   0.613   9.970   7.181  0.4650  0.1965 -1.2418
12117SOL    HW241482   0.755  10.013   7.151  0.0999  0.6475 -2.3549
12118SOL     OW41483   8.028   5.153   6.164 -0.3177  0.2727  0.3053
12118SOL    HW141484   8.103   5.196   6.206 -0.8416  1.1213  0.3854
12118SOL    HW241485   7.984   5.106   6.234 -0.0826  0.0957  0.3332
12119SOL     OW41486   6.827   1.682   5.542  0.1443  0.7313  0.0769
12119SOL    HW141487   6.871   1.767   5.544  0.6697  0.4674 -0.1786
12119SOL    HW241488   6.856   1.638   5.621  0.6392  0.4114 -0.2779
12120SOL     OW41489   9.747   1.396   1.226 -0.1683 -0.1195 -0.0704
12120SOL    HW141490   9.653   1.396   1.211  0.2702 -0.0569 -3.4542
12120SOL    HW241491   9.766   1.311   1.265 -1.7783  0.4164  1.9256
12121SOL     OW41492   8.984   9.650   1.166 -0.4728 -0.3699  0.5593
12121SOL    HW141493   8.959   9.558   1.160  0.7990 -0.6636 -0.3160
12121SOL    HW241494   8.950   9.690   1.086  0.3495 -0.4125  0.1861
12122SOL     OW41495   8.182   0.523   4.187 -0.0736  0.0952 -0.3997
12122SOL    HW141496   8.116   0.562   4.131  0.3056  2.6718  0.8651
12122SOL    HW241497   8.174   0.571   4.270  1.3600 -1.5958  0.7552
12123SOL     OW41498   5.599   9.043   0.846 -0.3379 -0.2811 -0.3434
12123SOL    HW141499   5.693   9.042   0.825 -0.6286  0.4569 -1.6952
12123SOL    HW241500   5.556   9.067   0.764 -1.5364  2.0875  0.9490
12124SOL     OW41501   6.990  10.989   4.599  0.6777  0.0357 -0.0830
12124SOL    HW141502   7.071  10.979   4.648  0.9919  0.5132 -0.5121
12124SOL    HW241503   6.923  10.954   4.657  0.6808  2.9382  1.7583
12125SOL     OW41504   0.433   8.328   1.990  0.3945 -0.0046  0.4200
12125SOL    HW141505   0.475   8.311   2.074 -0.4916  0.9509  1.0657
12125SOL    HW241506   0.470   8.411   1.961 -1.6641  1.3211  1.4309
12126SOL     OW41507   7.731  10.151   5.491  0.0350 -0.2056  0.1792
12126SOL    HW141508   7.673  10.227   5.495  0.4246  0.0014  2.2230
12126SOL    HW241509   7.672  10.076   5.490 -0.3243  0.0803 -0.8936
12127SOL     OW41510  11.151   0.396  10.910 -0.0269  0.5141  0.4669
12127SOL    HW141511  11.159   0.311  10.953 -0.5826 -0.2455 -0.8793
12127SOL    HW241512  11.058   0.401  10.885  0.1911  1.1299 -0.2214
12128SOL     OW41513   1.758  10.178   1.090 -0.4035 -0.6649  0.7891
12128SOL    HW141514   1.725  10.210   1.174 -2.3572 -0.2580 -0.1194
12128SOL    HW241515   1.680  10.152   1.042  0.7114 -0.9429 -0.8964
12129SOL     OW41516   0.325   1.826   2.001 -0.5354  0.1432 -0.1281
12129SOL    HW141517   0.326   1.844   1.907 -2.1992 -0.7423 -0.3329
12129SOL    HW241518   0.285   1.904   2.040 -1.1420 -0.0769 -0.3036
12130SOL     OW41519   1.510   6.691   2.098 -0.0449 -0.3395 -0.1503
12130SOL    HW141520   1.544   6.641   2.173  0.7478 -0.3379 -0.4974
12130SOL    HW241521   1.480   6.624   2.036 -0.4373 -0.3473  0.0453
12131SOL     OW41522  10.821   2.805   5.663  0.4054 -0.6565  0.2421
12131SOL    HW141523  10.840   2.813   5.756 -0.2987  3.4809  0.1143
12131SOL    HW241524  10.907   2.810   5.621  0.5011  0.3253  0.5432
12132SOL     OW41525   5.138   4.991   3.663 -0.0790 -0.1482 -0.0550
12132SOL    HW141526   5.081   4.934   3.714 -0.4155 -1.1920 -1.5605
12132SOL    HW241527   5.080   5.059   3.630  0.0649  0.3092  0.6281
12133SOL     OW41528   4.385  10.276   4.406 -0.7555  0.1773 -0.3367
12133SOL    HW141529   4.330  10.334   4.460 -1.3313 -0.8022  0.1332
12133SOL    HW241530   4.323  10.216   4.364 -0.2896  0.7969 -1.9401
12134SOL     OW41531   9.657   7.412   8.047  0.4355  0.3068  0.3014
12134SOL    HW141532   9.722   7.373   8.105 -0.3890 -1.4102  0.0996
12134SOL    HW241533   9.626   7.490   8.094  1.4894  0.2642  1.0840
12135SOL     OW41534   4.538   5.083   3.258  0.1349 -0.3072  0.5478
12135SOL    HW141535   4.503   5.000   3.225  1.7178 -0.5041 -0.7101
12135SOL    HW241536   4.583   5.059   3.340 -0.4430 -0.4831  0.8147
12136SOL     OW41537   3.734   6.487  10.761 -0.7020 -0.3524 -0.3536
12136SOL    HW141538   3.796   6.560  10.769 -0.2849 -0.5058 -2.1670
12136SOL    HW241539   3.742   6.457  10.671 -1.0882 -2.4722  0.2810
12137SOL     OW41540   4.963   0.862   0.023 -0.2389  0.4763  0.4301
12137SOL    HW141541   4.938   0.861  -0.070 -1.1107 -1.7045  0.6463
12137SOL    HW241542   5.026   0.790   0.031 -0.0441  0.7583  1.5055
12138SOL     OW41543   6.624   0.796   9.216 -0.1268  0.0235 -0.3174
12138SOL    HW141544   6.595   0.726   9.158  1.6128 -0.1635 -1.0057
12138SOL    HW241545   6.563   0.867   9.202 -1.8237 -1.2923  0.2640
12139SOL     OW41546   3.207   2.091   8.461  0.4273  0.0064 -0.5623
12139SOL    HW141547   3.155   2.016   8.430  1.3121 -0.4452 -0.9584
12139SOL    HW241548   3.164   2.167   8.423  1.0314 -0.4908 -2.2503
12140SOL     OW41549   6.666   2.194   1.861 -0.3624  0.5535  0.3900
12140SOL    HW141550   6.642   2.154   1.778  0.3351 -0.7601  0.8073
12140SOL    HW241551   6.672   2.287   1.842  0.2594  0.2138 -1.1337
12141SOL     OW41552  10.024   8.212   6.724  0.6522  0.3960  0.0263
12141SOL    HW141553  10.036   8.169   6.809 -0.0655  1.3552  0.6223
12141SOL    HW241554  10.103   8.191   6.674  1.1550 -0.0136  0.9921
12142SOL     OW41555   7.966   7.169   2.265  0.4843  0.3885  0.3101
12142SOL    HW141556   7.886   7.164   2.213 -0.6829 -2.2662  2.2759
12142SOL    HW241557   7.945   7.232   2.335  0.5167  0.5749  0.1522
12143SOL     OW41558   7.333   6.257   7.830 -0.2306  0.4231  0.1010
12143SOL    HW141559   7.411   6.204   7.813 -2.0579 -1.7227 -1.9977
12143SOL    HW241560   7.335   6.325   7.764  0.4022  1.0039  0.7149
12144SOL     OW41561   9.162   2.608   6.112  0.4356 -0.1323  0.7332
12144SOL    HW141562   9.092   2.616   6.176  1.5039  1.2828  1.7412
12144SOL    HW241563   9.120   2.567   6.036 -1.3687  0.2987  1.4728
12145SOL     OW41564   7.517   2.078   2.898  0.3258  0.0388 -0.2989
12145SOL    HW141565   7.578   2.148   2.920 -0.2165 -0.4554  3.2041
12145SOL    HW241566   7.551   2.002   2.945 -0.4626 -1.4250 -2.0495
12146SOL     OW41567  10.475   4.535   7.976 -0.1901  0.4054  0.0362
12146SOL    HW141568  10.407   4.572   7.920  0.3613  1.0727 -0.2098
12146SOL    HW241569  10.552   4.591   7.960  0.2348  0.0427  0.7713
12147SOL     OW41570   3.547  10.093   4.840  0.9900 -0.2159 -0.3659
12147SOL    HW141571   3.536  10.179   4.879 -0.9790 -0.7750  0.3669
12147SOL    HW241572   3.492  10.035   4.893  3.1703 -2.1394 -0.1365
12148SOL     OW41573   2.748   6.571   6.241  0.0586  0.3297  0.3283
12148SOL    HW141574   2.656   6.593   6.232 -0.0214  0.6022  1.6773
12148SOL    HW241575   2.786   6.644   6.291  0.9372  0.0800  0.0425
12149SOL     OW41576   6.893   5.374   9.735  0.3263 -0.1082 -0.4298
12149SOL    HW141577   6.841   5.393   9.813  0.4877 -1.3700 -0.0004
12149SOL    HW241578   6.935   5.457   9.713  0.5330  0.1819  1.0290
12150SOL     OW41579  10.341   5.156   9.577 -0.0714  0.4304  0.4573
12150SOL    HW141580  10.255   5.160   9.618 -0.4892  0.5367 -0.4117
12150SOL    HW241581  10.385   5.082   9.619 -0.5907  0.3783  0.9028
12151SOL     OW41582   8.607  11.109   2.238 -0.3294 -0.1059 -0.4225
12151SOL    HW141583   8.620  11.025   2.195 -0.7366 -1.2079  1.5736
12151SOL    HW241584   8.519  11.104   2.275 -0.9518  1.7947 -1.5607
12152SOL     OW41585   8.633   9.887   7.456 -0.0737 -0.4573 -0.1919
12152SOL    HW141586   8.570   9.816   7.471 -0.8517  0.1485 -0.5523
12152SOL    HW241587   8.686   9.855   7.383  0.2307 -1.0967  0.3038
12153SOL     OW41588   6.972   1.421   7.623  0.0699  0.2673  0.0518
12153SOL    HW141589   6.879   1.446   7.629 -0.3102 -0.6485 -1.7397
12153SOL    HW241590   7.018   1.504   7.617 -0.6584  0.7200  0.5689
12154SOL     OW41591   9.731   7.432   2.733  0.4147  0.5238 -0.0553
12154SOL    HW141592   9.713   7.350   2.687  2.0606 -0.2450  0.6133
12154SOL    HW241593   9.777   7.405   2.812  0.5510  2.0692  0.4052
12155SOL     OW41594   7.450   4.849   4.403 -0.2413  0.1692  0.7577
12155SOL    HW141595   7.481   4.929   4.445  0.6132  0.1462  0.2028
12155SOL    HW241596   7.394   4.879   4.331 -0.2062  0.2578  0.7683
12156SOL     OW41597   6.392  10.313   5.446  0.2594 -0.5230  0.2545
12156SOL    HW141598   6.317  10.276   5.493 -0.4507  0.4220 -0.0988
12156SOL    HW241599   6.461  10.321   5.511 -0.1711 -0.7952  0.7419
12157SOL     OW41600   4.486  10.999  10.269 -0.2586  0.1628  0.1023
12157SOL    HW141601   4.444  10.916  10.291 -1.8999  0.6285 -1.1960
12157SOL    HW241602   4.523  10.984  10.181 -1.5442  1.1517 -0.6144
12158SOL     OW41603   6.239   4.409   2.191 -0.1989 -0.0687 -0.1136
12158SOL    HW141604   6.286   4.332   2.161  0.6105  1.0429 -1.7922
12158SOL    HW241605   6.233   4.398   2.286  0.7330 -1.7227 -0.2255
12159SOL     OW41606   9.096   4.925   2.019 -0.4297 -0.3266 -0.1307
12159SOL    HW141607   9.104   5.004   1.966 -0.8166  0.2779  0.7010
12159SOL    HW241608   9.120   4.854   1.959  1.2254  0.5204 -0.5240
12160SOL     OW41609   8.696   8.740   0.976 -0.3399 -0.2102  0.0721
12160SOL    HW141610   8.625   8.785   0.931 -3.1627 -1.7988  2.7320
12160SOL    HW241611   8.730   8.677   0.912 -1.6437  0.2274 -1.0610
12161SOL     OW41612   4.923   1.437   1.847  0.2212 -0.5562 -0.3560
12161SOL    HW141613   4.923   1.525   1.885 -0.3299 -0.5371 -0.3957
12161SOL    HW241614   4.891   1.381   1.918 -1.0915 -0.4814 -0.8728
12162SOL     OW41615  10.279  10.939   6.234 -0.2254  0.0119 -0.3941
12162SOL    HW141616  10.186  10.935   6.255 -0.0049  1.3733  0.9453
12162SOL    HW241617  10.283  10.986   6.151 -0.6980  0.6677 -0.0544
12163SOL     OW41618   7.064   1.754   6.797 -0.5732  0.4833 -0.6640
12163SOL    HW141619   6.991   1.804   6.759 -1.5754 -0.7098 -0.3591
12163SOL    HW241620   7.115   1.819   6.845 -1.9274  1.2126 -0.1721
12164SOL     OW41621   7.429   8.221   1.890 -0.3532  0.0034 -0.0253
12164SOL    HW141622   7.357   8.255   1.837  0.4108  1.1893 -0.3360
12164SOL    HW241623   7.480   8.167   1.829 -2.3501 -2.9114  0.8184
12165SOL     OW41624  10.597   2.994   5.047  0.0965  0.3178 -0.7441
12165SOL    HW141625  10.591   2.944   4.966  0.6581 -0.7431 -0.1308
12165SOL    HW241626  10.575   2.932   5.116  1.5825  0.7090  0.0900
12166SOL     OW41627   5.216  10.736   9.064 -0.1376 -0.4695  0.2974
12166SOL    HW141628   5.261  10.715   9.146  1.1925 -0.2860 -0.3819
12166SOL    HW241629   5.180  10.652   9.035  1.9929 -1.1560 -0.4893
12167SOL     OW41630   4.270  10.934   3.213 -0.1938 -0.1018  0.1241
12167SOL    HW141631   4.193  10.972   3.255  0.0046  2.2108 -1.5164
12167SOL    HW241632   4.240  10.908   3.125  0.9053  0.9280 -0.5698
12168SOL     OW41633  10.777   0.164  10.538  0.0331  0.3938 -0.0539
12168SOL    HW141634  10.725   0.244  10.534 -1.7005 -0.7583 -0.9159
12168SOL    HW241635  10.862   0.189  10.500 -0.2642  1.9725  0.2665
12169SOL     OW41636   1.379  11.112  10.715 -0.5027 -0.3393 -0.2932
12169SOL    HW141637   1.439  11.171  10.671 -0.5567 -0.6984 -0.8463
12169SOL    HW241638   1.436  11.048  10.759 -0.4603 -0.2255 -0.1821
12170SOL     OW41639   4.688   1.341   4.111  0.2812  0.1418  0.1237
12170SOL    HW141640   4.754   1.302   4.169 -0.4604 -0.1697  0.7603
12170SOL    HW241641   4.640   1.402   4.167  1.1181  1.6492 -0.7429
12171SOL     OW41642   0.771   6.254   0.617 -0.6868 -0.0132  0.0767
12171SOL    HW141643   0.785   6.329   0.559 -0.8458  0.7799  1.0402
12171SOL    HW241644   0.736   6.186   0.560 -1.1532  0.8560 -0.6976
12172SOL     OW41645   8.353   9.783   3.000  0.3676  0.5667 -0.0102
12172SOL    HW141646   8.420   9.842   3.035  0.5748  0.0469  0.4619
12172SOL    HW241647   8.354   9.800   2.905  1.6773  0.0298 -0.1009
12173SOL     OW41648   8.034   4.003   8.121  0.4749 -0.2931 -0.5232
12173SOL    HW141649   8.082   3.961   8.192  0.2930  1.2054  0.5056
12173SOL    HW241650   8.102   4.031   8.059  0.5801 -2.3437 -1.3971
12174SOL     OW41651   9.072   6.620   0.998  0.8563 -0.3381  0.0353
12174SOL    HW141652   9.118   6.689   0.951  0.9247 -0.3542  0.0790
12174SOL    HW241653   8.990   6.661   1.026  1.6000  0.2006  1.4410
12175SOL     OW41654   1.482  10.497   9.729  0.0415  0.2500  0.0141
12175SOL    HW141655   1.490  10.539   9.643 -0.6182 -0.6396 -0.4980
12175SOL    HW241656   1.487  10.403   9.710  1.5627  0.0961  1.1483
12176SOL     OW41657   4.356   6.482   2.388 -0.0125 -0.5256 -0.1317
12176SOL    HW141658   4.410   6.465   2.465  1.2936  2.4987 -0.3409
12176SOL    HW241659   4.267   6.462   2.417  0.7445 -1.7978  1.3922
12177SOL     OW41660   1.478  10.123   8.184  0.1409  0.3175  0.4765
12177SOL    HW141661   1.388  10.144   8.158  0.9349  0.7051 -2.1176
12177SOL    HW241662   1.481  10.142   8.278 -2.6164 -0.1887  0.6988
12178SOL     OW41663   3.386   9.096   8.722  0.0559  0.2230  0.0398
12178SOL    HW141664   3.344   9.033   8.780 -0.8689  0.6832 -0.1102
12178SOL    HW241665   3.319   9.163   8.708  1.0119  1.2272  0.1845
12179SOL     OW41666   5.423   8.897   1.048  0.3777 -0.0834  0.2498
12179SOL    HW141667   5.357   8.953   1.088 -1.0761  0.3439 -2.6251
12179SOL    HW241668   5.506   8.927   1.086 -0.7504  1.5643  1.4782
12180SOL     OW41669   3.168   8.420   1.723 -0.4385  0.1848  0.5422
12180SOL    HW141670   3.259   8.447   1.713 -0.5918  0.6157  0.3024
12180SOL    HW241671   3.128   8.490   1.775 -1.0729  0.9159 -0.9122
12181SOL     OW41672   4.499   1.286   9.664  0.1985  0.4654  0.0518
12181SOL    HW141673   4.505   1.258   9.755 -0.1826 -0.2834 -0.1454
12181SOL    HW241674   4.580   1.334   9.648 -0.1158  1.3347  1.0216
12182SOL     OW41675   9.323   8.724   2.953 -0.1195  0.0352 -0.1954
12182SOL    HW141676   9.254   8.671   2.911 -0.3175 -2.2646  2.8779
12182SOL    HW241677   9.404   8.678   2.932 -0.1272 -0.5790  1.0904
12183SOL     OW41678   0.633  11.118   1.549 -0.3776 -0.3143 -0.4278
12183SOL    HW141679   0.719  11.153   1.529 -0.3089 -0.2310 -0.0085
12183SOL    HW241680   0.573  11.190   1.529 -0.2637 -0.0538  0.1435
12184SOL     OW41681   6.233   9.762   5.637  0.4289 -0.0201  0.4433
12184SOL    HW141682   6.184   9.828   5.588 -0.2455  0.9668  2.3756
12184SOL    HW241683   6.301   9.733   5.577  0.8441  2.5538 -0.4106
12185SOL     OW41684   5.749   1.318   3.945  0.2456  0.8362  0.2202
12185SOL    HW141685   5.822   1.276   3.900  0.9519  1.3030  0.9222
12185SOL    HW241686   5.679   1.321   3.879  0.5434 -0.4540 -0.1644
12186SOL     OW41687   9.911   8.993   9.605  0.7744  0.3861  0.8947
12186SOL    HW141688   9.924   9.029   9.517 -1.5255 -3.0931 -0.9620
12186SOL    HW241689   9.826   9.026   9.632  0.0735 -1.0531  0.4838
12187SOL     OW41690  11.236   6.343   6.387  0.3032 -0.1975 -0.0214
12187SOL    HW141691  11.228   6.251   6.411 -0.1667  0.3806  2.1534
12187SOL    HW241692  11.313   6.347   6.330  0.6154 -1.8429  0.2736
12188SOL     OW41693   3.480   0.569   5.324  0.6084 -0.0580 -0.2462
12188SOL    HW141694   3.511   0.553   5.235 -3.3194  1.0675 -1.9040
12188SOL    HW241695   3.471   0.481   5.362 -0.4874 -0.7186 -1.9770
12189SOL     OW41696   5.164  10.634   1.645  0.2307  0.2301  0.0713
12189SOL    HW141697   5.143  10.625   1.551  2.5557  0.3743 -0.4788
12189SOL    HW241698   5.129  10.554   1.685 -1.9443  0.7483 -0.6708
12190SOL     OW41699   0.579   8.240   7.018 -0.1025  0.0628 -0.4245
12190SOL    HW141700   0.594   8.146   7.030 -1.2570  0.1508  1.8199
12190SOL    HW241701   0.484   8.248   7.011 -0.0403  1.1471  0.0031
12191SOL     OW41702   5.097   4.892   1.973 -0.4717  0.4739  0.4892
12191SOL    HW141703   5.108   4.982   2.004 -0.2115  0.3171  0.8555
12191SOL    HW241704   5.154   4.840   2.030  1.2049  0.3605 -1.2384
12192SOL     OW41705   1.019   0.008   0.200 -0.3707  0.5515  0.0558
12192SOL    HW141706   1.111   0.011   0.171 -0.9560 -0.4165 -1.9659
12192SOL    HW241707   1.025   0.011   0.296  1.8487 -0.8887  0.0157
12193SOL     OW41708   7.273  10.657   4.423  0.8908  1.0459 -0.0140
12193SOL    HW141709   7.205  10.609   4.374 -0.5691  1.8551  1.2007
12193SOL    HW241710   7.348  10.597   4.423 -0.9201 -1.3115  1.5479
12194SOL     OW41711   9.835   4.878   4.766 -0.2833 -0.3050  0.1409
12194SOL    HW141712   9.845   4.870   4.671  1.1156  3.5035 -0.1233
12194SOL    HW241713   9.761   4.937   4.778 -1.0854 -1.5534  1.4694
12195SOL     OW41714   0.154   0.576   2.930 -0.3458  0.1746  0.4480
12195SOL    HW141715   0.167   0.589   3.024 -0.6921 -0.4873  0.5957
12195SOL    HW241716   0.076   0.628   2.909 -0.6394 -0.1775  0.6570
12196SOL     OW41717   6.561   2.150   4.327 -0.1119  0.7001  0.4376
12196SOL    HW141718   6.603   2.196   4.399 -1.6485  1.5985  0.7897
12196SOL    HW241719   6.616   2.074   4.311  0.7237  0.9769  1.9756
12197SOL     OW41720  10.382   3.121   7.754 -0.1458  0.7538 -0.2110
12197SOL    HW141721  10.461   3.170   7.780 -0.7351  1.2565  0.6596
12197SOL    HW241722  10.410   3.030   7.754  0.8578  1.0392 -1.4521
12198SOL     OW41723   4.028   9.350   8.026  0.5827  0.6441  0.5764
12198SOL    HW141724   4.088   9.275   8.021 -1.6883 -1.3129  1.5113
12198SOL    HW241725   4.024   9.371   8.119 -0.3751  0.5593  0.5651
12199SOL     OW41726   8.784   2.925   8.734 -0.4900  0.6181  0.1184
12199SOL    HW141727   8.834   2.853   8.772 -0.4816  0.7625  0.3759
12199SOL    HW241728   8.776   2.901   8.641  0.4009  0.8023 -0.0098
12200SOL     OW41729   0.325   6.040   2.327  0.6776 -0.0377 -0.4584
12200SOL    HW141730   0.330   6.022   2.421 -1.4486 -2.0086 -0.6887
12200SOL    HW241731   0.317   5.953   2.286  0.4765  0.8537 -2.3729
12201SOL     OW41732   1.596   6.120   0.545 -0.0332 -0.0281  0.1697
12201SOL    HW141733   1.517   6.174   0.543 -0.0126  0.0453  1.1864
12201SOL    HW241734   1.584   6.056   0.474  1.5360  3.5065 -3.4813
12202SOL     OW41735   0.819  10.716   4.097  0.1569 -0.5764 -0.1823
12202SOL    HW141736   0.908  10.686   4.116  0.4121  0.3950  0.1792
12202SOL    HW241737   0.832  10.797   4.047 -0.5296 -0.5151 -0.2634
12203SOL     OW41738  10.372   7.579   7.659  0.2595  0.2657 -0.3002
12203SOL    HW141739  10.311   7.586   7.733  0.9578  0.7059  0.2354
12203SOL    HW241740  10.377   7.667   7.624 -0.3116 -0.0039 -1.0800
12204SOL     OW41741   5.245   1.298   6.436  0.2740 -0.1450 -0.6517
12204SOL    HW141742   5.206   1.219   6.474  1.6791 -1.3669 -1.6647
12204SOL    HW241743   5.194   1.313   6.356 -0.2816  0.2604 -0.2323
12205SOL     OW41744   1.502   6.490   4.512 -0.4048  0.2825  0.3252
12205SOL    HW141745   1.542   6.575   4.493  0.1441 -0.3889 -1.5794
12205SOL    HW241746   1.409   6.502   4.494 -0.1517  0.1609 -1.1265
12206SOL     OW41747   2.459   7.415   7.694  0.4272  0.2852  0.5849
12206SOL    HW141748   2.386   7.476   7.705  1.4873  1.6868 -0.0006
12206SOL    HW241749   2.537   7.471   7.696  1.3388 -0.8762 -1.3974
12207SOL     OW41750   4.551   4.175   9.175  0.4908  0.3048  0.2590
12207SOL    HW141751   4.561   4.232   9.251  0.7875 -0.7202  1.0008
12207SOL    HW241752   4.606   4.099   9.194 -1.3084 -1.0644  0.1140
12208SOL     OW41753  10.559   1.175   6.659 -0.3419  0.4319  0.0878
12208SOL    HW141754  10.542   1.266   6.636  1.1516  0.5531 -0.5908
12208SOL    HW241755  10.642   1.154   6.616 -0.4014 -1.0905  0.6691
12209SOL     OW41756   1.314   0.710   1.516 -0.0747  0.0898 -0.4161
12209SOL    HW141757   1.316   0.776   1.447 -0.6630 -1.1622 -1.6459
12209SOL    HW241758   1.405   0.705   1.547  0.6793 -1.0488 -2.7506
12210SOL     OW41759   5.392  11.299  11.027 -0.5109  0.7371  0.8758
12210SOL    HW141760   5.485  11.276  11.036 -0.4389  0.6740  0.0032
12210SOL    HW241761   5.392  11.392  11.005 -0.6145  0.5139 -0.0701
12211SOL     OW41762   5.645   6.095   3.651  0.4838 -0.6709  0.3193
12211SOL    HW141763   5.560   6.068   3.616 -0.6503  1.5734  1.2619
12211SOL    HW241764   5.674   6.021   3.704 -1.5397 -0.9260  1.1121
12212SOL     OW41765   4.548   9.262   2.356 -0.4512 -0.1225 -0.3958
12212SOL    HW141766   4.633   9.292   2.324 -0.8709  1.7569  0.2003
12212SOL    HW241767   4.513   9.210   2.283  0.5960  0.2366 -1.1853
12213SOL     OW41768   8.860   0.747   5.113  0.4385 -0.6948  0.0920
12213SOL    HW141769   8.774   0.722   5.078 -0.2186  0.6725  0.7060
12213SOL    HW241770   8.915   0.670   5.096 -0.9939 -1.7492  0.0471
12214SOL     OW41771   5.139   0.912   4.609  0.9787  0.1644  0.2637
12214SOL    HW141772   5.136   0.827   4.565  2.2618 -0.7944  1.9929
12214SOL    HW241773   5.158   0.974   4.539 -1.1549 -0.7921 -1.2205
12215SOL     OW41774   2.957   5.336  10.882 -0.4400 -1.0342 -0.2308
12215SOL    HW141775   3.008   5.316  10.803  0.8874 -2.4951  0.9535
12215SOL    HW241776   2.887   5.270  10.883 -0.3918 -1.0838 -0.1317
12216SOL     OW41777   1.928   7.475   2.603  0.2326  0.3478 -0.1078
12216SOL    HW141778   1.872   7.553   2.608  0.2171  0.3437 -0.2168
12216SOL    HW241779   1.894   7.417   2.672 -1.1781 -0.4710 -1.4398
12217SOL     OW41780   3.709   4.114   8.012  0.2090 -0.2506  0.6451
12217SOL    HW141781   3.625   4.158   7.993  0.1727 -0.8399 -0.6057
12217SOL    HW241782   3.693   4.023   7.990  1.3035 -0.2966  0.0134
12218SOL     OW41783   3.942   5.835   5.534 -0.3453  0.7973 -0.2319
12218SOL    HW141784   3.949   5.743   5.508  0.0695  0.8226 -0.2284
12218SOL    HW241785   3.916   5.880   5.455 -0.4169  0.6943 -0.2679
12219SOL     OW41786  11.045   3.273   0.561 -0.7853 -0.6520 -0.2993
12219SOL    HW141787  10.974   3.260   0.499 -1.6240 -0.6532  0.6551
12219SOL    HW241788  11.003   3.277   0.646  0.3666 -0.7455  0.2922
12220SOL     OW41789  10.386   4.176   9.460  0.0951 -0.1219  0.2734
12220SOL    HW141790  10.462   4.122   9.483  0.3971 -0.3187 -1.1494
12220SOL    HW241791  10.349   4.134   9.382 -0.9772  0.4676  0.4514
12221SOL     OW41792   7.298   2.598   5.764  0.7384 -0.3789  0.3333
12221SOL    HW141793   7.278   2.592   5.858  1.0951 -0.9396  0.3752
12221SOL    HW241794   7.393   2.587   5.759  0.5177 -2.1540 -0.2431
12222SOL     OW41795   8.091   7.433   0.413  0.3440 -1.1103  0.4538
12222SOL    HW141796   8.088   7.358   0.473  0.4669 -1.8654 -0.4790
12222SOL    HW241797   7.999   7.455   0.398  0.3349  0.2832  2.4030
12223SOL     OW41798   9.587   1.351   2.640 -0.3225 -0.3134 -0.5404
12223SOL    HW141799   9.517   1.299   2.600 -0.8658  0.4670 -0.5988
12223SOL    HW241800   9.542   1.410   2.700  0.4046 -0.7856  0.4938
12224SOL     OW41801   9.561   3.388   2.065  0.1966  0.2482  0.0839
12224SOL    HW141802   9.473   3.423   2.080  0.6239  0.9402  0.9756
12224SOL    HW241803   9.547   3.294   2.053 -0.5315  0.1658  1.4948
12225SOL     OW41804   8.786   1.239   3.363  0.0636  0.0250 -0.0946
12225SOL    HW141805   8.793   1.188   3.443 -0.1779  1.0055  0.5616
12225SOL    HW241806   8.698   1.223   3.331  0.1851 -0.4244 -0.2098
12226SOL     OW41807   2.122  10.761   8.384  0.2435 -0.2980  0.7229
12226SOL    HW141808   2.150  10.801   8.466 -1.2488  1.0829  0.6022
12226SOL    HW241809   2.153  10.671   8.388  1.6396  0.2401  2.0533
12227SOL     OW41810   2.452  10.939   8.876 -0.8922  0.1831  0.7790
12227SOL    HW141811   2.545  10.915   8.880 -0.7514  0.9162  2.0806
12227SOL    HW241812   2.448  11.007   8.808 -0.3690  0.5972  1.1558
12228SOL     OW41813   5.663   3.816   9.765  0.0387  0.4826 -0.1511
12228SOL    HW141814   5.744   3.813   9.816  0.0894  0.7486 -0.2144
12228SOL    HW241815   5.688   3.861   9.684  0.8156 -2.9075 -1.9222
12229SOL     OW41816  10.781   6.183   9.292  0.9001  0.1575 -0.2514
12229SOL    HW141817  10.856   6.206   9.346 -0.2672  0.5442  1.2461
12229SOL    HW241818  10.734   6.117   9.343 -0.2582  0.5859 -0.7521
12230SOL     OW41819  11.329   9.373   4.991 -0.2693  0.1550  0.2129
12230SOL    HW141820  11.423   9.385   5.001 -0.5862  2.3085  1.0866
12230SOL    HW241821  11.317   9.351   4.898  1.0239  0.7482 -0.1051
12231SOL     OW41822   5.191   7.265   5.000  0.1247  0.1698 -0.2599
12231SOL    HW141823   5.186   7.228   5.089 -1.5594  0.6693 -0.1253
12231SOL    HW241824   5.207   7.190   4.944 -0.6404 -0.4271  0.2946
12232SOL     OW41825   4.286   3.937   0.006 -0.2965  0.2605 -0.2553
12232SOL    HW141826   4.363   3.969  -0.040 -0.3000  0.3144 -0.2245
12232SOL    HW241827   4.320   3.875   0.071 -0.2449  0.5719  0.0132
12233SOL     OW41828   6.665  11.220   9.165  0.6475  0.0604 -0.3499
12233SOL    HW141829   6.667  11.311   9.137 -1.9851  0.1624 -0.2782
12233SOL    HW241830   6.611  11.220   9.244 -1.7662 -1.9533 -1.9367
12234SOL     OW41831  11.197   9.190   8.908  0.4094 -0.5595 -0.4433
12234SOL    HW141832  11.178   9.119   8.847  2.2298 -1.9738  0.6059
12234SOL    HW241833  11.284   9.221   8.882 -0.5526  1.6089 -1.1825
12235SOL     OW41834   0.513   7.748  11.100 -0.1235  0.0334  0.0658
12235SOL    HW141835   0.540   7.721  11.188 -1.5334 -1.4067  0.0818
12235SOL    HW241836   0.517   7.668  11.048  0.0651  0.7429 -1.0420
12236SOL     OW41837   7.423   5.218   3.485  0.3826 -0.3636 -0.1887
12236SOL    HW141838   7.469   5.135   3.493  0.5846 -0.4081 -1.7772
12236SOL    HW241839   7.492   5.284   3.483  0.2679 -0.2436 -0.1581
12237SOL     OW41840   6.025   9.184   3.195  0.5589  0.4730  0.5617
12237SOL    HW141841   6.090   9.134   3.245  1.0760  0.5601 -0.0139
12237SOL    HW241842   6.019   9.267   3.242  0.0315  0.0424  1.2593
12238SOL     OW41843   8.089  10.230   7.002  0.6786 -0.4743 -0.4069
12238SOL    HW141844   8.081  10.325   6.994 -0.8512 -0.4927  0.6651
12238SOL    HW241845   8.182  10.212   6.989  0.7698  1.0195 -2.0044
12239SOL     OW41846   9.002   3.490  10.192 -0.0364  0.0486 -0.1254
12239SOL    HW141847   9.005   3.523  10.282 -0.7601 -1.8376  0.6342
12239SOL    HW241848   9.090   3.505  10.158  0.0706  1.3464  0.6873
12240SOL     OW41849   8.011   9.412   2.715 -0.2533 -0.2159  0.0261
12240SOL    HW141850   7.926   9.389   2.751 -1.7082  1.3123 -2.3359
12240SOL    HW241851   8.029   9.500   2.749 -0.5353  0.2504 -0.9939
12241SOL     OW41852   2.086   5.474   9.259 -0.1740 -0.4264  0.9108
12241SOL    HW141853   2.019   5.539   9.278 -0.7687 -0.2051 -1.7748
12241SOL    HW241854   2.098   5.478   9.164  3.1413 -0.9504  1.2233
12242SOL     OW41855   4.719  10.606   1.886  0.0169  0.1797  0.5193
12242SOL    HW141856   4.769  10.590   1.966 -0.8784 -0.8355  0.8903
12242SOL    HW241857   4.690  10.519   1.859 -0.2580  0.5985 -0.5408
12243SOL     OW41858   1.738   2.726   2.059  0.0524  0.1533  0.8400
12243SOL    HW141859   1.733   2.799   2.119  0.4509  0.6790  0.2461
12243SOL    HW241860   1.831   2.703   2.056  0.5306  2.1611 -1.9382
12244SOL     OW41861   7.271   7.908   8.706 -0.5220  0.6399 -0.1451
12244SOL    HW141862   7.333   7.848   8.664  0.5323  0.8003  1.1534
12244SOL    HW241863   7.230   7.855   8.774 -0.3783  1.0869  0.2892
12245SOL     OW41864   8.364   7.609   9.365  0.0890  0.1979 -0.1694
12245SOL    HW141865   8.308   7.665   9.419  0.2510  0.3094 -0.1154
12245SOL    HW241866   8.401   7.667   9.299  0.1214  0.1217 -0.2190
12246SOL     OW41867   5.503   9.654  10.428 -0.5210 -0.2901 -0.0685
12246SOL    HW141868   5.535   9.586  10.487  0.9759  1.1397  0.8464
12246SOL    HW241869   5.554   9.643  10.348 -1.8873 -1.6452 -0.7678
12247SOL     OW41870   7.351   7.326   4.882  0.7905  0.0885  0.4841
12247SOL    HW141871   7.361   7.283   4.967  0.6633 -1.2974 -0.1902
12247SOL    HW241872   7.280   7.278   4.838  0.5160  1.1011 -0.2223
12248SOL     OW41873   2.786  10.369   0.065 -0.8835 -0.2082  0.1565
12248SOL    HW141874   2.760  10.441   0.007 -1.0742 -0.3243  0.0969
12248SOL    HW241875   2.880  10.380   0.076 -1.3520  1.9058  2.6711
12249SOL     OW41876   8.708   1.189   7.764  0.4247 -0.3087  0.4774
12249SOL    HW141877   8.658   1.261   7.726 -1.0627 -0.7023  1.6294
12249SOL    HW241878   8.798   1.205   7.736  0.0853  1.8729  0.5411
12250SOL     OW41879  10.912   5.799   8.670  0.1213 -0.5544  0.2524
12250SOL    HW141880  10.846   5.730   8.680 -0.9356  0.6569  1.7960
12250SOL    HW241881  10.864   5.881   8.681  1.7233  0.3776  0.4539
12251SOL     OW41882   9.511   5.872   3.632  0.2907 -0.0152  0.4102
12251SOL    HW141883   9.498   5.939   3.700  0.3562 -0.6057  1.0025
12251SOL    HW241884   9.444   5.806   3.650 -1.1930  0.9371 -1.4929
12252SOL     OW41885   6.017   3.011   3.753  0.4745  0.1842  0.0497
12252SOL    HW141886   6.054   2.995   3.667  1.0099 -0.2221  0.3515
12252SOL    HW241887   5.960   3.087   3.741  0.7048  0.2522 -0.6145
12253SOL     OW41888   6.690   1.457   7.638 -0.5073  0.1211 -0.7732
12253SOL    HW141889   6.674   1.512   7.561  0.9198  0.0312 -1.1563
12253SOL    HW241890   6.669   1.368   7.608 -1.1905  0.2512 -0.6716
12254SOL     OW41891   8.079   6.696   4.233 -0.2086 -0.1977 -0.2732
12254SOL    HW141892   8.120   6.714   4.318  0.8409  2.6834 -1.3187
12254SOL    HW241893   8.099   6.604   4.215 -0.9823 -1.0292  2.8580
12255SOL     OW41894   7.072   6.009  10.015 -0.0072 -0.0483 -0.3767
12255SOL    HW141895   7.070   6.099  10.046  1.1881 -0.6852  1.6207
12255SOL    HW241896   7.087   5.956  10.093 -0.5732 -1.9845 -1.5276
12256SOL     OW41897  10.031   1.785   6.583  0.2939  0.2361 -0.0183
12256SOL    HW141898   9.965   1.788   6.652  0.2593  1.0431 -0.0790
12256SOL    HW241899  10.023   1.697   6.546 -0.1695  0.0427  0.5316
12257SOL     OW41900   0.687   9.212   3.346 -0.2562 -0.0860  0.3656
12257SOL    HW141901   0.743   9.270   3.399 -2.4221  1.2005  1.3243
12257SOL    HW241902   0.747   9.145   3.313  1.9048  1.4009  1.1146
12258SOL     OW41903   7.814   1.764   5.707 -0.2859 -0.2583 -0.0094
12258SOL    HW141904   7.889   1.709   5.684  1.7873  2.6564 -0.5628
12258SOL    HW241905   7.845   1.819   5.779 -2.2228  0.3329  0.4241
12259SOL     OW41906   4.700   0.881  10.465 -0.3503 -0.0679  0.6762
12259SOL    HW141907   4.677   0.953  10.523 -2.8930 -0.5684  0.3384
12259SOL    HW241908   4.774   0.914  10.414 -3.5393  3.6481 -1.8564
12260SOL     OW41909   4.023   1.033   6.429  0.3286  0.0762  0.0637
12260SOL    HW141910   4.103   1.045   6.480  0.5451 -1.4742  0.0956
12260SOL    HW241911   3.952   1.032   6.494  0.2754  1.3093  0.0452
12261SOL     OW41912   5.735   7.223   4.899  0.0610 -0.1210  0.0947
12261SOL    HW141913   5.650   7.237   4.940  0.6522  1.2852  0.8776
12261SOL    HW241914   5.755   7.307   4.856  0.3335 -0.9476 -1.4331
12262SOL     OW41915   2.314   0.391   2.153  0.6677  0.1062  0.1471
12262SOL    HW141916   2.232   0.439   2.148  0.8252  0.1367 -3.3943
12262SOL    HW241917   2.291   0.309   2.197 -1.0671  0.4962  0.0100
12263SOL     OW41918   7.786   5.107   9.371 -0.0808 -0.6708  0.6500
12263SOL    HW141919   7.880   5.109   9.353 -0.1031 -0.9244  0.4954
12263SOL    HW241920   7.761   5.199   9.380  0.0986 -0.5817  0.2603
12264SOL     OW41921   4.774   8.719   0.150 -0.4946 -0.2307  0.2081
12264SOL    HW141922   4.777   8.752   0.240 -3.1462 -1.0686  0.6342
12264SOL    HW241923   4.722   8.640   0.155  1.6756 -1.8562 -1.6473
12265SOL     OW41924   7.463   6.288   8.955  0.4389  0.2287  0.0031
12265SOL    HW141925   7.372   6.313   8.936 -0.2113 -1.5972  0.5666
12265SOL    HW241926   7.481   6.327   9.040  0.6348  1.7021 -0.7075
12266SOL     OW41927   6.278   9.749   4.127 -0.2427 -0.0306  0.2600
12266SOL    HW141928   6.232   9.668   4.105 -0.0223 -0.2391  0.5765
12266SOL    HW241929   6.335   9.765   4.052  0.1215 -0.4648  0.4427
12267SOL     OW41930   9.042   9.314   1.285 -0.1526  1.0176  0.1155
12267SOL    HW141931   9.044   9.299   1.380  0.0447 -1.3888 -0.2386
12267SOL    HW241932   8.952   9.342   1.268 -0.0273  2.0532  1.0926
12268SOL     OW41933   0.239   2.618   5.572  0.0457 -0.1830  0.4879
12268SOL    HW141934   0.197   2.704   5.565  3.2964  1.3063 -1.6050
12268SOL    HW241935   0.175   2.558   5.534 -0.4642  1.9488 -2.1974
12269SOL     OW41936   1.817   4.909   9.710  0.0601 -0.1800  0.2084
12269SOL    HW141937   1.852   4.925   9.797 -0.6477 -0.3472  0.5321
12269SOL    HW241938   1.812   4.813   9.703 -0.2845 -0.1596  0.1511
12270SOL     OW41939  10.236   8.313   1.456 -0.3139  0.0985 -0.3643
12270SOL    HW141940  10.297   8.253   1.413  0.1146  0.8403 -0.8024
12270SOL    HW241941  10.199   8.364   1.385  1.6012  2.4519  0.2422
12271SOL     OW41942   0.741  10.132   9.959 -0.7044  0.0279  0.4654
12271SOL    HW141943   0.822  10.173   9.990 -0.4242 -2.4082  3.1934
12271SOL    HW241944   0.770  10.072   9.889  0.0303 -1.4605  1.9959
12272SOL     OW41945   0.044   2.824   5.889  0.1320  0.2184 -0.2162
12272SOL    HW141946   0.003   2.874   5.818 -1.6370  0.1325  0.7224
12272SOL    HW241947   0.011   2.735   5.879 -0.7320  0.3655  1.1432
12273SOL     OW41948   8.412   0.400   8.338  0.2384  0.6916 -0.6466
12273SOL    HW141949   8.478   0.411   8.406  0.6937  2.7371 -1.3952
12273SOL    HW241950   8.420   0.308   8.311  0.1908 -0.0819  1.8905
12274SOL     OW41951   6.037   1.687  11.076  0.2644  0.0193  0.2887
12274SOL    HW141952   6.028   1.616  11.140 -0.4963 -0.0403  0.1222
12274SOL    HW241953   6.051   1.766  11.128 -1.1697  0.0983  0.5576
12275SOL     OW41954   0.370   5.112   4.792  0.6233 -0.1421 -0.0436
12275SOL    HW141955   0.353   5.177   4.861  1.8148 -3.6805  3.7614
12275SOL    HW241956   0.283   5.079   4.768  0.0844  2.1197 -1.3564
12276SOL     OW41957   8.448   1.649   8.610 -0.1262 -0.9440  0.1693
12276SOL    HW141958   8.359   1.683   8.609 -0.6229 -2.1895 -0.7213
12276SOL    HW241959   8.465   1.625   8.519  1.5462  0.3281  0.1263
12277SOL     OW41960  10.169   2.471   2.335 -0.5156 -0.2569 -0.2400
12277SOL    HW141961  10.224   2.498   2.261 -0.0681  0.0118  0.1836
12277SOL    HW241962  10.165   2.549   2.390  1.1288 -1.1663  1.2023
12278SOL     OW41963   6.028   1.096   4.470  0.0793  0.0454  0.7737
12278SOL    HW141964   5.934   1.114   4.466 -0.1330 -1.2023 -0.0023
12278SOL    HW241965   6.042   1.064   4.559 -0.4071 -0.7681  0.5561
12279SOL     OW41966   6.640   6.100   5.128  0.1462  0.1843  0.4226
12279SOL    HW141967   6.607   6.154   5.200 -1.1946 -0.1758  0.0893
12279SOL    HW241968   6.728   6.074   5.157 -0.1178  0.5850  1.6405
12280SOL     OW41969   3.156   9.253   0.101  0.1406  0.5049 -0.3400
12280SOL    HW141970   3.084   9.234   0.040 -0.8052  0.1026  0.8916
12280SOL    HW241971   3.220   9.300   0.047 -1.5129  1.8641 -1.1960
12281SOL     OW41972   5.891   6.872   0.586 -0.4227  0.0078 -0.0874
12281SOL    HW141973   5.966   6.812   0.588 -0.4202 -0.0665 -1.6133
12281SOL    HW241974   5.831   6.837   0.653  0.9413  0.1498  1.2354
12282SOL     OW41975   0.576   3.178   0.891 -0.6728 -0.1253 -0.7082
12282SOL    HW141976   0.636   3.240   0.930 -2.1815 -0.2732  1.9853
12282SOL    HW241977   0.605   3.092   0.923 -1.7926 -0.2785 -0.0882
12283SOL     OW41978   8.215   3.240  11.302 -0.4248  0.4542 -0.4185
12283SOL    HW141979   8.270   3.224  11.226  0.6863  0.3395  0.3981
12283SOL    HW241980   8.236   3.330  11.328  0.6814 -0.1577  0.9198
12284SOL     OW41981   6.930   6.901   5.498  0.2697 -0.0727 -0.2790
12284SOL    HW141982   6.896   6.980   5.458  1.0229  0.9413  1.0476
12284SOL    HW241983   7.012   6.928   5.540 -0.2109 -1.2047  1.4579
12285SOL     OW41984  10.613   1.830   6.430 -0.0154 -0.2120  0.0470
12285SOL    HW141985  10.599   1.775   6.507  0.7220  0.5703  0.7560
12285SOL    HW241986  10.527   1.833   6.387 -0.9371  0.8890  1.8802
12286SOL     OW41987   4.648   0.170   3.349  0.3167  0.1392 -0.5324
12286SOL    HW141988   4.554   0.187   3.354  0.2577 -0.3792  0.1917
12286SOL    HW241989   4.687   0.233   3.410  0.4467  0.4217 -0.9075
12287SOL     OW41990   9.223   4.729   0.926 -0.3290 -0.5255  0.3029
12287SOL    HW141991   9.146   4.700   0.974 -0.2583 -0.0715  0.6927
12287SOL    HW241992   9.198   4.815   0.891 -0.0289 -0.4118  0.3669
12288SOL     OW41993   6.114   7.964   4.100  0.1287 -0.2620 -0.3545
12288SOL    HW141994   6.072   7.898   4.155  0.6887 -0.0400  0.3494
12288SOL    HW241995   6.170   8.013   4.160 -1.3348  1.7710 -0.5804
12289SOL     OW41996   1.704  11.170   2.862  0.4192  0.1950  0.4755
12289SOL    HW141997   1.761  11.094   2.860  0.6367  0.3612  0.3222
12289SOL    HW241998   1.628  11.142   2.913  1.4143  0.5055  2.1736
12290SOL     OW41999   4.689   0.038   7.956  0.2187  0.2611  0.2201
12290SOL    HW142000   4.610   0.072   7.913 -0.7397 -2.4404 -0.2099
12290SOL    HW242001   4.730  -0.018   7.890  2.5949  1.7026  0.4021
12291SOL     OW42002   2.591   6.780   7.359  0.2503  0.5026  0.4130
12291SOL    HW142003   2.549   6.864   7.378  0.5545  0.6686  0.3652
12291SOL    HW242004   2.524   6.714   7.378 -0.0579  0.7670  0.2515
12292SOL     OW42005  10.086   8.111   2.423  0.2379 -0.1986 -0.1717
12292SOL    HW142006  10.109   8.018   2.428  3.6227  0.5585 -0.1360
12292SOL    HW242007  10.073   8.128   2.330 -1.8327 -0.9848 -0.0517
12293SOL     OW42008  10.533   7.957   1.181 -0.0052  0.3558 -0.2499
12293SOL    HW142009  10.478   7.937   1.105 -0.7885  1.1874  0.0905
12293SOL    HW242010  10.572   7.873   1.204  0.2984  0.1145 -1.6152
12294SOL     OW42011  10.397   6.060   7.651 -0.2129  0.5533  0.6905
12294SOL    HW142012  10.409   6.036   7.559 -0.6798  1.3498  0.4152
12294SOL    HW242013  10.423   6.152   7.656  0.4069  0.3386  1.4851
12295SOL     OW42014   1.255   9.098   1.330 -0.4805  0.0302  0.0771
12295SOL    HW142015   1.350   9.094   1.322 -0.3584 -0.3421  1.5610
12295SOL    HW242016   1.223   9.072   1.244  0.7492 -0.5592 -0.2174
12296SOL     OW42017   7.426   5.211  10.433 -0.0839  0.1102  0.3811
12296SOL    HW142018   7.355   5.158  10.469 -0.9264  0.9908  0.0253
12296SOL    HW242019   7.393   5.301  10.436  0.5955  0.4107 -0.7773
12297SOL     OW42020   2.877   2.142  10.369  0.6504 -0.4996  0.1575
12297SOL    HW142021   2.897   2.137  10.276  1.3186  0.9088  0.2131
12297SOL    HW242022   2.920   2.223  10.399 -0.2684 -0.4908  1.5044
12298SOL     OW42023   1.986   6.244  10.773  0.7865  0.4311  0.2661
12298SOL    HW142024   1.972   6.225  10.866  0.8479  1.1945  0.4332
12298SOL    HW242025   2.053   6.181  10.745  0.9950  0.4141  0.8123
12299SOL     OW42026   5.488   3.101   7.933  0.2272  0.5335 -0.3002
12299SOL    HW142027   5.532   3.131   7.853  1.1643 -0.4507 -0.1620
12299SOL    HW242028   5.429   3.172   7.956 -0.1645  0.7546 -1.9649
12300SOL     OW42029   5.222   2.549  10.981 -0.2496  0.6617 -0.0039
12300SOL    HW142030   5.167   2.565  11.057 -0.0063  2.5843 -0.2068
12300SOL    HW242031   5.311   2.560  11.013 -0.1284  0.9368 -0.4243
12301SOL     OW42032   0.923  10.525   6.486 -0.1309  0.3895 -0.3455
12301SOL    HW142033   0.901  10.614   6.458  1.3445  1.0336  0.5124
12301SOL    HW242034   0.893  10.519   6.577  0.7414  0.3746 -0.0513
12302SOL     OW42035   6.810   4.921   9.958  0.4703 -0.7971  0.5495
12302SOL    HW142036   6.885   4.970   9.924  0.5815 -0.3570  1.4124
12302SOL    HW242037   6.743   4.988   9.974 -0.2996 -1.2512 -0.7293
12303SOL     OW42038  10.208   2.570   8.651 -0.2326 -0.2061 -0.2426
12303SOL    HW142039  10.192   2.604   8.563 -0.0120  0.1576 -0.1452
12303SOL    HW242040  10.301   2.587   8.666 -0.2810 -0.2337  0.0754
12304SOL     OW42041   5.337   7.729  10.703 -0.3049 -0.0571  0.3724
12304SOL    HW142042   5.371   7.819  10.704  2.2379 -0.9388 -0.5669
12304SOL    HW242043   5.413   7.675  10.727 -1.1736 -2.1019 -1.3091
12305SOL     OW42044   8.949   9.999   9.850 -0.0404 -0.5009 -0.4298
12305SOL    HW142045   8.885  10.067   9.869  0.4788 -0.4509  1.2212
12305SOL    HW242046   8.958   9.951   9.933  3.4706  0.6929 -0.0425
12306SOL     OW42047   4.335   0.249   1.729 -0.1235  0.2934 -0.1919
12306SOL    HW142048   4.403   0.259   1.795  0.5586 -0.1441 -0.8223
12306SOL    HW242049   4.263   0.305   1.760  0.6890  1.1049  0.2417
12307SOL     OW42050   1.198   4.614   1.824  0.5712 -0.0446  0.0082
12307SOL    HW142051   1.215   4.663   1.744 -0.9271  0.9186  0.2597
12307SOL    HW242052   1.238   4.667   1.893 -0.8211  0.6847  0.2513
12308SOL     OW42053   8.543   6.554   2.381  0.6174 -0.1294  0.3597
12308SOL    HW142054   8.609   6.508   2.328  0.3189  0.1753 -0.2799
12308SOL    HW242055   8.526   6.634   2.333 -0.0391 -0.0866  0.6591
12309SOL     OW42056   0.445   7.544   0.317  0.4686  0.2664 -0.6674
12309SOL    HW142057   0.405   7.532   0.231  0.9344 -1.7195 -0.6307
12309SOL    HW242058   0.518   7.604   0.302  0.7251 -0.3077 -1.7148
12310SOL     OW42059   8.397   5.616   2.143 -0.3280  0.0437 -0.0010
12310SOL    HW142060   8.357   5.640   2.060 -1.0816 -1.0049  0.0452
12310SOL    HW242061   8.356   5.673   2.208 -1.3071 -0.5857 -0.0499
12311SOL     OW42062   2.980   4.256  10.349 -0.2858 -0.4055 -0.2342
12311SOL    HW142063   2.951   4.182  10.402  0.5357  0.6847  1.7939
12311SOL    HW242064   2.910   4.267  10.284 -1.9293 -1.0389  1.3548
12312SOL     OW42065   8.900   5.353  10.629 -0.1999 -0.6636  0.9738
12312SOL    HW142066   8.986   5.349  10.586  0.1316  2.3335  1.2592
12312SOL    HW242067   8.851   5.280  10.591  2.0197 -1.5928 -0.1921
12313SOL     OW42068   3.897   5.922   8.361 -0.1158  0.9279 -0.0706
12313SOL    HW142069   3.916   5.931   8.268 -1.3408  1.0156 -0.3152
12313SOL    HW242070   3.843   5.998   8.382 -1.1401  0.0896  0.3652
12314SOL     OW42071  10.089   7.452   8.674 -0.5786 -0.1773 -0.2534
12314SOL    HW142072  10.150   7.396   8.626 -0.0634 -0.7559  1.0282
12314SOL    HW242073  10.017   7.394   8.699  0.2049 -0.4136  1.5208
12315SOL     OW42074   3.488   8.141  11.076 -0.4541  0.4315  0.3159
12315SOL    HW142075   3.498   8.203  11.003 -0.5213  1.3839  1.0995
12315SOL    HW242076   3.513   8.191  11.153 -1.3252 -0.2704  1.0704
12316SOL     OW42077   5.167   8.022   0.416  0.7636  0.1874  0.5898
12316SOL    HW142078   5.133   8.034   0.328  3.3610  1.2853 -0.3194
12316SOL    HW242079   5.097   7.976   0.463 -1.3596  1.1355 -1.5328
12317SOL     OW42080   3.853   4.241   9.389 -0.4201 -0.3908  0.5256
12317SOL    HW142081   3.801   4.269   9.314  1.8945 -0.5792 -1.2077
12317SOL    HW242082   3.789   4.224   9.458 -2.5095  0.8218 -1.0595
12318SOL     OW42083  10.122   4.926   0.402  0.2173  0.2781 -0.0472
12318SOL    HW142084  10.028   4.916   0.389  0.3787  0.9004 -1.7711
12318SOL    HW242085  10.133   4.928   0.498 -1.6320  1.2387  0.1714
12319SOL     OW42086   0.392   4.012   8.698 -0.8384 -0.3084 -0.1444
12319SOL    HW142087   0.339   4.024   8.619 -0.7674 -0.7898 -0.2672
12319SOL    HW242088   0.464   3.956   8.669 -0.0401  0.6590 -0.0838
12320SOL     OW42089   1.226   2.583  10.583 -0.2483  0.1690  0.5658
12320SOL    HW142090   1.232   2.538  10.498 -1.0072 -0.4459  0.8371
12320SOL    HW242091   1.224   2.513  10.647 -1.1389  0.6076  1.0160
12321SOL     OW42092  10.518   0.423   8.006  0.7928 -0.2345  0.2408
12321SOL    HW142093  10.501   0.454   8.095  2.7237 -0.1707  0.6168
12321SOL    HW242094  10.489   0.494   7.950 -1.5030 -0.7377  0.7516
12322SOL     OW42095   0.005   9.510   6.615  0.4779 -0.2054 -0.2753
12322SOL    HW142096  -0.034   9.596   6.631  0.9160  0.1363 -1.0382
12322SOL    HW242097   0.034   9.513   6.524 -1.7081 -2.0009 -1.0847
12323SOL     OW42098   0.755   0.454   0.660  0.3314  0.5056 -0.5203
12323SOL    HW142099   0.794   0.412   0.583  1.3298  0.5654 -0.0583
12323SOL    HW242100   0.830   0.490   0.708 -0.3748  1.3613 -0.0484
12324SOL     OW42101  10.187   6.805   5.872  0.7800 -0.1181  0.5655
12324SOL    HW142102  10.232   6.814   5.956 -0.0193 -0.3464  1.0270
12324SOL    HW242103  10.098   6.835   5.889  0.8990  0.8599 -0.4755
12325SOL     OW42104   1.115   3.090   8.453  0.1948  0.9276 -0.0158
12325SOL    HW142105   1.113   3.155   8.383  0.5351  0.7877 -0.1560
12325SOL    HW242106   1.207   3.068   8.463  0.2537  1.6304  1.1163
12326SOL     OW42107   1.787   8.307   9.428 -0.4494 -0.5851 -0.0739
12326SOL    HW142108   1.766   8.293   9.336  0.4469 -0.1357 -0.3524
12326SOL    HW242109   1.818   8.222   9.460 -2.1715 -1.1223  0.2103
12327SOL     OW42110   3.833   3.871   2.388  0.4334  0.5651  0.6026
12327SOL    HW142111   3.747   3.871   2.345  0.5452 -1.1718  0.3359
12327SOL    HW242112   3.829   3.944   2.449 -1.1466  0.6790  0.3908
12328SOL     OW42113   3.893   7.302  10.731 -0.7077  0.1583 -0.0258
12328SOL    HW142114   3.842   7.352  10.795 -1.6744  0.3664 -0.9546
12328SOL    HW242115   3.911   7.365  10.661 -3.8185 -1.3297 -2.2626
12329SOL     OW42116   1.688   7.925   1.832 -0.3628 -0.4857  0.2718
12329SOL    HW142117   1.740   7.873   1.771  0.0427 -1.9434  1.8122
12329SOL    HW242118   1.598   7.914   1.803 -0.1993 -1.4110  0.1059
12330SOL     OW42119  10.724   6.133  10.048  0.0461  1.0287  0.3251
12330SOL    HW142120  10.769   6.094  10.123 -0.2639 -2.7756 -1.3569
12330SOL    HW242121  10.791   6.138   9.980 -1.2515 -2.0231 -1.2838
12331SOL     OW42122   5.683   6.497   5.014 -0.2858  0.7869  0.1178
12331SOL    HW142123   5.588   6.496   4.999 -0.2956  3.6401 -0.1547
12331SOL    HW242124   5.693   6.516   5.107  0.0325 -0.7063  0.4062
12332SOL     OW42125   2.196   5.220   0.978  0.2243  0.1081  0.5923
12332SOL    HW142126   2.257   5.272   0.926 -0.7921  0.8143  0.1050
12332SOL    HW242127   2.226   5.232   1.068  0.5540  0.7948  0.3942
12333SOL     OW42128   9.410   0.629   9.303 -0.5539  0.7461 -0.5365
12333SOL    HW142129   9.337   0.677   9.343 -1.6625 -0.5688 -0.9307
12333SOL    HW242130   9.385   0.537   9.311  1.3887  0.2417 -0.0813
12334SOL     OW42131   0.803   1.309   5.412 -0.3211  0.4461  0.0466
12334SOL    HW142132   0.881   1.333   5.361 -0.4318 -0.7346 -0.7227
12334SOL    HW242133   0.834   1.306   5.502 -0.1843  2.8571  0.1048
12335SOL     OW42134   6.100   6.683   5.502  0.2595  0.3508 -0.1415
12335SOL    HW142135   6.141   6.675   5.415 -0.3481  1.7761 -0.5754
12335SOL    HW242136   6.016   6.638   5.492  0.3638  0.1650 -0.1827
12336SOL     OW42137   7.325   6.302   1.645  0.1009  0.1513 -0.8284
12336SOL    HW142138   7.385   6.376   1.637 -0.4713  0.5978 -0.9939
12336SOL    HW242139   7.354   6.258   1.726 -0.3955  1.3206  0.0056
12337SOL     OW42140   7.683   1.934   0.407  0.3196 -0.1006  0.4042
12337SOL    HW142141   7.697   1.958   0.315 -0.9165  0.4313  0.3387
12337SOL    HW242142   7.701   2.014   0.456 -1.9169  0.4633  0.3535
12338SOL     OW42143   9.187   0.137  11.260  0.2921  0.6820  0.1138
12338SOL    HW142144   9.181   0.213  11.318  0.7345  1.1770 -0.4947
12338SOL    HW242145   9.118   0.078  11.291  1.1846  0.4969  1.8066
12339SOL     OW42146   9.019   0.301   7.128  0.6019  0.3802  0.2156
12339SOL    HW142147   9.093   0.247   7.156  0.5939  0.3298  0.1401
12339SOL    HW242148   8.953   0.238   7.099  0.6718  0.4373 -0.0685
12340SOL     OW42149  10.698   0.059   2.590  0.3289 -0.3125  0.5768
12340SOL    HW142150  10.668   0.116   2.661 -0.4776 -2.0334  1.6522
12340SOL    HW242151  10.636   0.075   2.519  0.9750  1.2207  0.3364
12341SOL     OW42152   8.792   6.399   3.832  0.3995  0.0017 -0.1181
12341SOL    HW142153   8.739   6.320   3.840  0.6854 -0.2011 -0.2240
12341SOL    HW242154   8.867   6.384   3.890 -0.5538  1.0378  1.4177
12342SOL     OW42155   6.847   5.159  11.213  0.2025 -0.4442 -0.9464
12342SOL    HW142156   6.758   5.130  11.231  0.6412 -1.3745 -0.2240
12342SOL    HW242157   6.888   5.084  11.168  1.1719 -0.7504  0.4132
12343SOL     OW42158   4.617   5.632   5.049  0.6008  0.3792 -0.5950
12343SOL    HW142159   4.610   5.683   4.968  0.6091 -0.3306 -1.0441
12343SOL    HW242160   4.560   5.556   5.035 -0.5926  1.0027  0.6518
12344SOL     OW42161   8.898  10.473   6.584 -0.2857  0.3795  0.1026
12344SOL    HW142162   8.989  10.499   6.596  0.1745 -0.4191 -1.5356
12344SOL    HW242163   8.847  10.548   6.614  0.9191  1.0446  0.5098
12345SOL     OW42164  11.130   0.292   1.385  0.2682 -0.1464  0.2514
12345SOL    HW142165  11.102   0.216   1.335 -0.8654 -0.5577  1.4552
12345SOL    HW242166  11.087   0.281   1.470  0.9245  1.3030  0.7877
12346SOL     OW42167   2.137  10.039   2.177  0.1174 -0.1506 -0.0672
12346SOL    HW142168   2.084  10.118   2.169 -0.5845 -0.5803  0.3195
12346SOL    HW242169   2.207  10.064   2.238 -0.4232  0.0088  0.4975
12347SOL     OW42170   4.291   6.434   8.311 -0.3043 -0.3690 -0.5120
12347SOL    HW142171   4.282   6.341   8.290  0.3603 -0.4668 -0.3891
12347SOL    HW242172   4.211   6.456   8.357 -1.4360 -0.3540 -2.4283
12348SOL     OW42173   4.136   0.567   4.041 -0.3259  0.5081 -0.1978
12348SOL    HW142174   4.167   0.628   4.108 -0.6861 -0.2944  0.7251
12348SOL    HW242175   4.211   0.552   3.984  0.0625  0.9914  0.1883
12349SOL     OW42176   8.378   7.793   2.012  0.1496 -0.6350  0.2874
12349SOL    HW142177   8.353   7.701   2.002  0.1233 -0.3860 -2.3094
12349SOL    HW242178   8.378   7.808   2.107  0.6556 -3.4342  0.7738
12350SOL     OW42179  11.207  10.744   7.631 -0.1568  0.1350 -0.3151
12350SOL    HW142180  11.220  10.818   7.571  1.6473  0.4969  0.5014
12350SOL    HW242181  11.295  10.712   7.648 -0.8380 -1.3676  0.4109
12351SOL     OW42182   4.418   2.806   1.307 -0.3478  0.1332  0.1578
12351SOL    HW142183   4.399   2.835   1.218 -1.2004 -0.9588 -0.0227
12351SOL    HW242184   4.511   2.782   1.304 -0.4494 -0.1917 -0.5196
12352SOL     OW42185   9.247   5.992   9.117  0.3654  0.2712 -0.6819
12352SOL    HW142186   9.325   5.987   9.061  0.2763  2.5861 -1.0660
12352SOL    HW242187   9.174   6.000   9.055 -0.0288 -0.3424 -0.2963
12353SOL     OW42188   1.297   4.046   2.576 -0.4383  0.1305  0.6266
12353SOL    HW142189   1.308   4.115   2.642 -0.0212 -1.2470  2.0086
12353SOL    HW242190   1.202   4.040   2.565 -0.7376 -2.1336  3.8339
12354SOL     OW42191   8.111   2.163   3.086  0.0653  0.5629 -0.2634
12354SOL    HW142192   8.029   2.151   3.039 -0.0750 -1.0644  0.3714
12354SOL    HW242193   8.094   2.235   3.146 -0.2015  1.7028 -1.6566
12355SOL     OW42194   9.987   6.059   4.327  0.5345  0.1491  0.0029
12355SOL    HW142195   9.921   6.081   4.262 -0.0631 -1.5607  0.0184
12355SOL    HW242196  10.056   6.016   4.278  0.0012 -1.3101  0.4971
12356SOL     OW42197   4.039   8.353   3.195 -0.2448  0.0744  0.0207
12356SOL    HW142198   4.036   8.444   3.166  0.1838 -0.3525 -1.4076
12356SOL    HW242199   4.085   8.307   3.125 -1.2455 -1.3961  0.3018
12357SOL     OW42200   5.549   5.639   4.630  0.9455  0.6761  0.6348
12357SOL    HW142201   5.560   5.602   4.718  2.4505 -0.2262  0.0794
12357SOL    HW242202   5.627   5.693   4.617  0.7696  0.7332 -0.1998
12358SOL     OW42203   4.328   9.237   9.560  0.3197  0.1245  0.4914
12358SOL    HW142204   4.322   9.214   9.652  0.3376  0.3055  0.5377
12358SOL    HW242205   4.416   9.210   9.533 -0.0413 -0.8548  0.2746
12359SOL     OW42206   4.664   9.818  10.016 -0.1447 -0.4910 -0.1955
12359SOL    HW142207   4.597   9.845   9.954  0.0511 -1.4104 -0.8120
12359SOL    HW242208   4.667   9.723  10.009 -0.2376 -0.6240  1.3509
12360SOL     OW42209   2.415   3.533   4.942  0.1338  0.6907 -0.3066
12360SOL    HW142210   2.445   3.534   5.033  1.1475 -0.9966 -0.6038
12360SOL    HW242211   2.494   3.520   4.891 -0.3784  2.0346 -1.4791
12361SOL     OW42212   7.325   9.653   7.739  0.0737 -0.0550 -0.0321
12361SOL    HW142213   7.248   9.605   7.769 -0.0400  0.0137 -0.2199
12361SOL    HW242214   7.366   9.684   7.820 -0.2534  0.1592  0.0513
12362SOL     OW42215   0.527   6.163   7.419  0.0765  0.2589  0.8166
12362SOL    HW142216   0.519   6.178   7.325  0.9294 -1.4005  0.4532
12362SOL    HW242217   0.490   6.241   7.459  0.6786  1.4596 -0.9100
12363SOL     OW42218   1.762   3.812   0.801 -0.0278 -0.6554  0.1879
12363SOL    HW142219   1.740   3.799   0.708 -0.2626 -0.9413  0.2812
12363SOL    HW242220   1.677   3.816   0.845  0.0233  1.2730  0.1640
12364SOL     OW42221   8.199  10.063   4.515 -0.4555 -0.1564  0.4168
12364SOL    HW142222   8.210  10.016   4.598 -1.2489 -0.6044  0.2751
12364SOL    HW242223   8.246  10.145   4.528  0.5296 -0.7799  0.8420
12365SOL     OW42224   6.099   6.431  11.203  0.6800  0.3267 -0.1167
12365SOL    HW142225   6.039   6.503  11.184 -1.0729 -1.1613 -0.2994
12365SOL    HW242226   6.058   6.384  11.275  1.8233 -0.5009 -0.0005
12366SOL     OW42227   5.379   9.897  10.422  0.2652 -0.0117 -0.1973
12366SOL    HW142228   5.283   9.903  10.416  0.3897 -0.8792 -3.8599
12366SOL    HW242229   5.396   9.803  10.433  0.6712  0.3005  2.0836
12367SOL     OW42230  10.325   4.255   6.539  0.1355  0.2347  0.5540
12367SOL    HW142231  10.369   4.188   6.487 -0.4007  0.8259 -0.6931
12367SOL    HW242232  10.277   4.307   6.475 -0.6673  0.8925  1.6660
12368SOL     OW42233   2.314   6.219   3.937 -0.2531 -0.0822 -0.3082
12368SOL    HW142234   2.262   6.211   3.857 -0.3290 -0.0188 -0.2649
12368SOL    HW242235   2.306   6.133   3.980  0.9432 -0.5909 -1.0730
12369SOL     OW42236   6.650   3.119   8.774  0.2215  0.0139  0.1349
12369SOL    HW142237   6.691   3.033   8.780 -0.4796 -0.1665  3.2588
12369SOL    HW242238   6.557   3.103   8.791 -0.4047  1.0213 -2.2025
12370SOL     OW42239   4.774   8.106   8.630 -0.3781 -0.3257  0.2362
12370SOL    HW142240   4.854   8.085   8.677  0.1826  1.9367  0.3345
12370SOL    HW242241   4.799   8.173   8.567 -1.6505 -1.5084 -1.6025
12371SOL     OW42242  10.553   7.131   6.997 -0.4178 -0.2099  0.2881
12371SOL    HW142243  10.501   7.134   7.077  0.6499  2.5411  0.9344
12371SOL    HW242244  10.643   7.147   7.026  0.3135 -1.4420 -1.2163
12372SOL     OW42245   1.335   8.165   1.798  0.6307  0.6651  0.0058
12372SOL    HW142246   1.299   8.132   1.880 -0.1857  1.0077 -0.2045
12372SOL    HW242247   1.398   8.232   1.824 -0.2139  1.3460  0.3419
12373SOL     OW42248   3.067  10.914  10.741  0.4102 -0.7887  0.4086
12373SOL    HW142249   3.074  10.960  10.825 -0.2985 -2.5581  1.4498
12373SOL    HW242250   3.142  10.945  10.691 -0.2322  1.7884  0.9286
12374SOL     OW42251   3.560   3.384   4.680 -0.0285  0.6862  0.7672
12374SOL    HW142252   3.498   3.375   4.752 -0.5565 -0.0870  0.2284
12374SOL    HW242253   3.573   3.294   4.649 -0.1335  1.0536 -0.3601
12375SOL     OW42254   6.759   2.755   3.472  0.2564  0.1295 -0.3510
12375SOL    HW142255   6.687   2.783   3.415 -0.5070  0.2672  0.6557
12375SOL    HW242256   6.774   2.664   3.449  0.4496  0.3903 -1.2801
12376SOL     OW42257   0.176   8.484  10.745 -0.2851 -0.0358 -0.0194
12376SOL    HW142258   0.155   8.540  10.670 -0.1227 -2.1317 -1.6563
12376SOL    HW242259   0.120   8.407  10.735  0.2067 -0.6471  1.6553
12377SOL     OW42260   0.077   6.245   2.478  0.1678  0.2329  0.8455
12377SOL    HW142261   0.034   6.322   2.516 -0.5547  0.8630 -1.2171
12377SOL    HW242262   0.152   6.229   2.536 -1.7744  0.2206  3.4244
12378SOL     OW42263   9.671   0.804   3.364 -0.1684 -0.1514 -0.0896
12378SOL    HW142264   9.593   0.842   3.323 -0.9294 -1.7446 -0.1358
12378SOL    HW242265   9.679   0.717   3.326  2.0337  0.2171 -0.5764
12379SOL     OW42266   6.308   3.302   1.136 -0.2992 -0.1073 -0.3754
12379SOL    HW142267   6.364   3.293   1.058 -1.9574 -0.4187 -1.5738
12379SOL    HW242268   6.333   3.386   1.175  2.4334 -1.1999  0.3072
12380SOL     OW42269   2.906   4.766   8.250  0.6275  0.0905 -0.9005
12380SOL    HW142270   2.856   4.839   8.213  1.3285 -0.6996 -3.5452
12380SOL    HW242271   2.848   4.691   8.242  0.1129  0.2357  1.3188
12381SOL     OW42272   1.496  10.678   7.468 -0.4308  0.7856  0.2535
12381SOL    HW142273   1.583  10.709   7.495  0.5534 -1.1711 -0.5620
12381SOL    HW242274   1.479  10.722   7.385  0.3949  0.1480 -0.2618
12382SOL     OW42275   6.335   9.349  10.689 -0.2975 -0.1296 -0.0259
12382SOL    HW142276   6.354   9.440  10.710 -2.1720  0.3008 -0.1030
12382SOL    HW242277   6.305   9.311  10.772 -0.0645 -0.5103 -0.1179
12383SOL     OW42278   9.821   5.575   5.912  0.2912  0.2821  0.4026
12383SOL    HW142279   9.861   5.533   5.988 -2.3868 -1.0339  1.1223
12383SOL    HW242280   9.773   5.505   5.868  0.1644  1.4693 -1.4044
12384SOL     OW42281   4.103   7.245   3.870  0.5268 -0.0076 -0.2444
12384SOL    HW142282   4.150   7.191   3.933  0.1470 -2.4037 -1.9501
12384SOL    HW242283   4.121   7.204   3.785 -2.8192  0.3185 -1.1891
12385SOL     OW42284   3.444  10.028   2.320 -0.1554  0.0099  0.0800
12385SOL    HW142285   3.517  10.037   2.258  0.5639 -2.0166  0.5978
12385SOL    HW242286   3.389   9.961   2.281 -2.3251  2.2270 -0.8088
12386SOL     OW42287   5.591   1.857  10.105 -0.9847 -0.1738 -0.1239
12386SOL    HW142288   5.620   1.947  10.121 -1.2784 -0.2322  0.7425
12386SOL    HW242289   5.646   1.803  10.162 -0.4675 -0.5888 -1.0154
12387SOL     OW42290  10.881  10.423   9.181  0.5708 -0.0461 -0.4366
12387SOL    HW142291  10.943  10.354   9.205  1.2818  1.1465  1.2423
12387SOL    HW242292  10.923  10.504   9.210 -0.8059  0.9890 -1.2689
12388SOL     OW42293   1.589   7.011   4.554 -0.0158  0.3663  0.1007
12388SOL    HW142294   1.546   7.097   4.546  0.3906  0.5035 -0.5724
12388SOL    HW242295   1.521   6.948   4.530  0.1445  0.5810 -0.9235
12389SOL     OW42296   1.793   2.949   5.637 -0.3340  0.2988  0.6271
12389SOL    HW142297   1.719   2.897   5.668  1.0307 -0.4646  2.7214
12389SOL    HW242298   1.847   2.887   5.588  1.2025 -0.3297  2.9758
12390SOL     OW42299   6.972   2.396   4.805 -0.2482 -0.4212 -0.6874
12390SOL    HW142300   6.966   2.333   4.733 -0.8008 -0.9449 -0.1879
12390SOL    HW242301   6.930   2.475   4.771  0.3716 -0.3478 -1.2845
12391SOL     OW42302   8.770   7.728   6.431 -0.2700  0.2016  0.5052
12391SOL    HW142303   8.777   7.678   6.513 -1.2529 -0.4436  0.1986
12391SOL    HW242304   8.857   7.721   6.392  0.1363  0.3012  1.3723
12392SOL     OW42305   3.403  10.091   5.143 -0.1356 -0.2682  0.1384
12392SOL    HW142306   3.313  10.105   5.172 -0.8288 -0.4739 -1.8313
12392SOL    HW242307   3.448  10.173   5.161 -0.9131  0.1051  0.3926
12393SOL     OW42308   0.660   5.195   7.000 -0.0377  0.4080  0.2807
12393SOL    HW142309   0.646   5.101   6.994 -1.9951  0.6735  0.4979
12393SOL    HW242310   0.748   5.208   6.964 -0.5947 -1.2537 -1.8064
12394SOL     OW42311  10.168   5.804   1.612  0.1288  0.2364 -0.4645
12394SOL    HW142312  10.258   5.830   1.628 -0.4984  1.7074  0.7937
12394SOL    HW242313  10.116   5.864   1.666 -1.5730 -0.8326 -0.8928
12395SOL     OW42314   5.533   2.340   8.164  0.3213 -0.0861  0.5919
12395SOL    HW142315   5.488   2.260   8.133 -1.5764  0.4157  1.9499
12395SOL    HW242316   5.559   2.385   8.083  0.6343 -1.6441 -0.1988
12396SOL     OW42317  10.431   3.493   9.866 -0.1682 -0.4597 -0.2974
12396SOL    HW142318  10.373   3.462   9.936 -0.5352  0.9388  0.0286
12396SOL    HW242319  10.396   3.578   9.842  1.9088  0.5398  0.0975
12397SOL     OW42320   9.792   3.470   2.227  0.0534  0.2969 -0.1625
12397SOL    HW142321   9.788   3.493   2.320  0.5067 -0.0532 -0.0510
12397SOL    HW242322   9.702   3.452   2.202 -0.3323  2.3081 -0.2798
12398SOL     OW42323   2.918   8.891   5.301 -0.1500  0.1185  0.4652
12398SOL    HW142324   3.003   8.906   5.344  0.0625 -0.5688  0.3040
12398SOL    HW242325   2.907   8.965   5.242  0.7719 -0.2341 -0.1777
12399SOL     OW42326   2.638   2.404   7.485 -0.7915  0.4239  0.0481
12399SOL    HW142327   2.544   2.388   7.474 -0.6068 -0.2304 -0.6312
12399SOL    HW242328   2.679   2.358   7.411  0.2449 -1.3397  1.6801
12400SOL     OW42329   6.233  10.819   8.247 -0.0049 -0.5670  0.2990
12400SOL    HW142330   6.218  10.849   8.337  2.3022  1.7355 -0.0356
12400SOL    HW242331   6.147  10.821   8.206 -0.7807  0.2356  1.9201
12401SOL     OW42332  11.134   8.547   9.039  0.5413  0.1063 -0.0602
12401SOL    HW142333  11.192   8.547   9.115 -0.8350 -1.1722  1.0021
12401SOL    HW242334  11.186   8.590   8.970  1.3871  2.3002  1.8807
12402SOL     OW42335   6.351   5.076   2.508 -0.9540  0.6142  0.2520
12402SOL    HW142336   6.281   5.025   2.549 -0.3744  1.5215  2.4535
12402SOL    HW242337   6.334   5.166   2.536 -0.0619  1.1338 -0.8627
12403SOL     OW42338   9.826   6.561   0.072  0.2394 -0.0714 -0.0522
12403SOL    HW142339   9.812   6.585   0.164  1.4235 -1.4664  0.5180
12403SOL    HW242340   9.905   6.609   0.047  0.4121 -0.3531 -0.0601
12404SOL     OW42341   3.317   1.475  11.053  0.1344 -0.6867  0.3602
12404SOL    HW142342   3.300   1.564  11.084  0.0405  0.4861 -2.8904
12404SOL    HW242343   3.397   1.483  11.001 -0.1645 -2.4104 -0.4009
12405SOL     OW42344   1.858   3.320   7.364  0.5066 -0.4780 -0.4901
12405SOL    HW142345   1.869   3.390   7.429  1.0051 -0.0025 -1.0755
12405SOL    HW242346   1.768   3.289   7.376 -0.2603  1.3657 -1.2926
12406SOL     OW42347   5.794   0.846   9.287  0.1617 -0.3047 -0.2504
12406SOL    HW142348   5.703   0.823   9.307 -1.0514  3.4199 -1.0030
12406SOL    HW242349   5.804   0.824   9.194 -0.0048 -0.7264 -0.1672
12407SOL     OW42350   2.102   8.086   3.184 -0.1547 -0.0072  0.0327
12407SOL    HW142351   2.089   7.996   3.214  0.1034 -0.3622 -0.9237
12407SOL    HW242352   2.155   8.127   3.253  0.5308 -0.8495  0.0057
12408SOL     OW42353   7.065   7.904   4.250  0.3934  0.4334  0.0826
12408SOL    HW142354   7.065   7.809   4.258  1.1227  0.3145 -1.1878
12408SOL    HW242355   7.156   7.929   4.265  0.9283  0.5866 -3.0065
12409SOL     OW42356   0.946   6.326  10.979 -0.2786  0.0112 -0.7596
12409SOL    HW142357   1.041   6.329  10.966 -0.0498  1.0165  1.0295
12409SOL    HW242358   0.920   6.241  10.944  1.2919 -0.3090 -1.1993
12410SOL     OW42359   1.467   7.707   4.590 -0.9988 -0.1435  0.9271
12410SOL    HW142360   1.471   7.645   4.664 -0.2903 -1.2136  0.0183
12410SOL    HW242361   1.379   7.696   4.554 -0.2273 -2.1099 -0.4517
12411SOL     OW42362   6.661   2.419   5.780  0.4975  0.0182  0.4616
12411SOL    HW142363   6.709   2.450   5.704  1.2268  2.4276  1.8762
12411SOL    HW242364   6.623   2.335   5.752  3.3960 -0.6997 -1.4890
12412SOL     OW42365   9.229   0.818  11.275 -0.1583 -0.1923  0.0587
12412SOL    HW142366   9.178   0.796  11.197  0.1082 -2.1659  0.4212
12412SOL    HW242367   9.169   0.868  11.330 -1.1444 -0.9461 -0.3237
12413SOL     OW42368   1.570   3.449   1.262 -0.1011  0.0277  0.4528
12413SOL    HW142369   1.525   3.530   1.240  1.8149  0.9039 -0.3316
12413SOL    HW242370   1.613   3.466   1.346  0.1901 -0.2098  0.3536
12414SOL     OW42371   2.813   4.403   1.466  0.0919  0.3300 -0.0550
12414SOL    HW142372   2.763   4.404   1.385  1.7123 -1.3097 -1.1157
12414SOL    HW242373   2.838   4.494   1.480 -1.0669  0.7745 -0.8368
12415SOL     OW42374   6.685   3.093   3.358  0.0258  0.2347  0.3275
12415SOL    HW142375   6.605   3.111   3.308 -1.2380 -0.2449  2.1021
12415SOL    HW242376   6.657   3.031   3.426  1.7084  0.8007  1.5634
12416SOL     OW42377   9.473   2.698   2.145 -0.3045  0.7252 -0.2912
12416SOL    HW142378   9.383   2.703   2.176 -0.9496 -1.8792 -1.5893
12416SOL    HW242379   9.476   2.755   2.069 -1.4042 -0.6856 -1.4111
12417SOL     OW42380   9.231   1.682  10.022  0.2959  0.2373  0.4888
12417SOL    HW142381   9.191   1.707   9.939  0.8772  0.1323  0.1740
12417SOL    HW242382   9.169   1.712  10.089  0.3014  1.2290  0.0541
12418SOL     OW42383   8.348   2.994   2.614  0.4895  0.4944  0.1588
12418SOL    HW142384   8.396   3.066   2.655  0.0561 -0.1606  1.8274
12418SOL    HW242385   8.257   3.026   2.608  0.1839 -0.1328  1.4283
12419SOL     OW42386   5.149   7.514   1.472  0.0887 -0.5140  0.3887
12419SOL    HW142387   5.187   7.427   1.486  1.4842 -0.3068 -1.9101
12419SOL    HW242388   5.106   7.508   1.387  0.2215  1.0566  0.1957
12420SOL     OW42389   6.581  10.209  11.156 -0.4336 -0.3264 -0.4167
12420SOL    HW142390   6.540  10.203  11.070 -0.8388  0.3811 -0.2798
12420SOL    HW242391   6.633  10.290  11.151  1.6601 -1.6551 -0.8948
12421SOL     OW42392   0.949   0.160   2.832  0.0449  0.0994 -0.1123
12421SOL    HW142393   0.990   0.120   2.908  0.2449 -1.3746 -0.9806
12421SOL    HW242394   1.012   0.227   2.803  0.5906 -0.2767  0.1999
12422SOL     OW42395   7.716   5.736   3.552 -0.0789 -0.2205 -0.9683
12422SOL    HW142396   7.747   5.705   3.637  1.2929  0.3018 -1.2654
12422SOL    HW242397   7.621   5.723   3.555 -0.2949  1.5833  1.3798
12423SOL     OW42398   7.481   7.322   6.640 -0.2076  0.4713  0.4719
12423SOL    HW142399   7.398   7.349   6.680 -1.0765  1.5579 -1.9629
12423SOL    HW242400   7.547   7.345   6.705 -1.4584  3.4583  0.7955
12424SOL     OW42401   8.157   0.872  10.810  0.6621  0.0453  0.1043
12424SOL    HW142402   8.179   0.945  10.868 -1.6777  2.1402 -1.5657
12424SOL    HW242403   8.240   0.851  10.767  1.3915  1.6185  0.6948
12425SOL     OW42404   8.885  10.951   5.720  0.0898  0.3469 -0.5772
12425SOL    HW142405   8.923  10.979   5.637 -1.5877  0.7339 -1.2367
12425SOL    HW242406   8.808  11.006   5.731  0.3900  0.4301  1.3511
12426SOL     OW42407   2.501   6.674   6.268 -0.3489 -0.0245 -0.0684
12426SOL    HW142408   2.510   6.765   6.296 -1.7872  0.7624 -2.0432
12426SOL    HW242409   2.427   6.675   6.207  0.4862 -2.2804 -1.1619
12427SOL     OW42410   4.407   4.495   9.478 -0.8008 -0.3410  0.0508
12427SOL    HW142411   4.345   4.437   9.523 -2.1032  0.0329 -1.2114
12427SOL    HW242412   4.355   4.536   9.409  0.5287  1.0488 -0.1425
12428SOL     OW42413   2.526   5.195  10.275  0.7347  0.2465 -0.0220
12428SOL    HW142414   2.433   5.172  10.273  0.5265  1.0199  0.7823
12428SOL    HW242415   2.568   5.123  10.227 -0.1846 -0.5268  0.2980
12429SOL     OW42416   4.589   7.406   6.009  0.2512  0.1128 -0.2220
12429SOL    HW142417   4.565   7.465   6.081 -0.6359 -0.3030 -0.1685
12429SOL    HW242418   4.553   7.449   5.931 -0.1383 -0.2131 -0.2210
12430SOL     OW42419   1.611   7.134  11.094 -0.2904  0.1338 -0.3809
12430SOL    HW142420   1.697   7.139  11.052  0.4062 -1.7407  0.7748
12430SOL    HW242421   1.549   7.123  11.022  0.3966  1.6557 -1.2306
12431SOL     OW42422   8.626   8.174   7.519 -0.1539 -0.2339 -0.1495
12431SOL    HW142423   8.665   8.250   7.562  1.1146 -0.3107 -1.1212
12431SOL    HW242424   8.628   8.196   7.426 -2.5477 -0.2119 -0.2352
12432SOL     OW42425   8.635   9.102   6.796 -0.0814 -0.6732  0.0854
12432SOL    HW142426   8.724   9.068   6.804  0.5752  1.2520  1.4424
12432SOL    HW242427   8.581   9.024   6.781  1.8624 -1.8211 -1.1460
12433SOL     OW42428   0.557   2.480   3.977 -0.0459 -0.2162  0.1785
12433SOL    HW142429   0.612   2.403   3.995  1.0132  0.7420  1.1287
12433SOL    HW242430   0.485   2.472   4.039 -0.7425 -1.2202 -0.7376
12434SOL     OW42431  11.022   6.270   9.473 -0.0846  0.2728 -0.5364
12434SOL    HW142432  11.034   6.317   9.390  1.2289 -0.5836 -0.8490
12434SOL    HW242433  11.108   6.274   9.515 -0.4232 -0.3580  0.2318
12435SOL     OW42434   7.030   3.634   3.923  0.4519 -0.3125  0.5326
12435SOL    HW142435   6.938   3.608   3.919  0.1141  0.9405  0.0800
12435SOL    HW242436   7.038   3.684   4.004  0.1437  1.7897 -0.7052
12436SOL     OW42437   1.844   7.811   6.507  0.4385  1.0444 -0.1985
12436SOL    HW142438   1.919   7.789   6.452  1.2110  0.5516  1.0334
12436SOL    HW242439   1.801   7.883   6.461  0.3565 -0.1632 -2.0671
12437SOL     OW42440   7.761   5.665   6.917 -0.0879 -0.2131  0.2946
12437SOL    HW142441   7.761   5.584   6.867  0.1350 -1.1598  1.8037
12437SOL    HW242442   7.853   5.677   6.943  0.2914  1.7095 -1.7957
12438SOL     OW42443   7.193  10.779   9.828  0.0914 -0.0680 -0.2165
12438SOL    HW142444   7.106  10.765   9.790 -0.4370  3.0548 -0.3397
12438SOL    HW242445   7.253  10.762   9.756 -0.6524  1.1514 -1.1558
12439SOL     OW42446   1.384   0.737   9.528  0.3923 -0.0571  0.5580
12439SOL    HW142447   1.385   0.642   9.545  0.7965 -0.2162 -0.3461
12439SOL    HW242448   1.439   0.748   9.451 -1.1653  0.7074 -0.4671
12440SOL     OW42449   2.467   2.708  10.387  0.1596 -0.0367 -0.4805
12440SOL    HW142450   2.549   2.682  10.344  1.3922  1.0114  1.1524
12440SOL    HW242451   2.441   2.631  10.438  0.1163 -0.3855 -1.0325
12441SOL     OW42452   1.116   5.363   8.804  0.1274 -0.0606  0.0503
12441SOL    HW142453   1.182   5.382   8.870  0.1398  0.8652 -0.2182
12441SOL    HW242454   1.165   5.359   8.722  0.1672 -1.5907  0.1411
12442SOL     OW42455   9.115   2.043   6.240 -0.0909  0.4829 -0.0172
12442SOL    HW142456   9.081   1.961   6.276 -0.4131  0.8090  0.4282
12442SOL    HW242457   9.185   2.069   6.300  0.2630  0.3445 -0.3647
12443SOL     OW42458   0.592   9.779   9.821 -0.8165 -0.3040  0.2174
12443SOL    HW142459   0.620   9.718   9.753 -0.4174 -0.3603  0.4295
12443SOL    HW242460   0.655   9.851   9.816 -0.1076 -0.8468  1.2841
12444SOL     OW42461   8.134   3.299   9.455  0.4810  0.3922  0.0623
12444SOL    HW142462   8.179   3.311   9.538 -2.2419 -0.0019  1.6401
12444SOL    HW242463   8.140   3.384   9.412 -0.3785  1.3824  1.8529
12445SOL     OW42464  11.214   8.710   3.212 -0.4809 -0.5769  0.7799
12445SOL    HW142465  11.216   8.772   3.139  1.1154  0.6239  1.8253
12445SOL    HW242466  11.177   8.759   3.285  2.0460 -0.3672  1.9906
12446SOL     OW42467   9.950   3.061   4.505  0.2178  0.0614  0.4133
12446SOL    HW142468  10.035   3.099   4.484  0.2306 -0.0013  0.3494
12446SOL    HW242469   9.937   3.082   4.598 -0.3781  1.3922  0.0362
12447SOL     OW42470   9.818   3.830   1.691 -0.3420 -0.6158  0.0992
12447SOL    HW142471   9.865   3.783   1.760  0.7731 -0.4384 -0.5293
12447SOL    HW242472   9.769   3.898   1.737  1.4066  0.3376  0.6024
12448SOL     OW42473   5.837   3.432  10.576 -0.2463 -0.6399 -0.2184
12448SOL    HW142474   5.751   3.417  10.614 -0.0839 -0.0713  0.3892
12448SOL    HW242475   5.899   3.403  10.644  0.0413  0.1618 -0.1285
12449SOL     OW42476   8.034   9.330   1.489 -0.0107  0.6067  0.1126
12449SOL    HW142477   8.094   9.400   1.514 -0.0801  0.5299  0.4917
12449SOL    HW242478   8.012   9.349   1.398  0.9418  0.3800 -0.1788
12450SOL     OW42479   9.818   7.642   7.091 -0.4625  0.3497 -0.2779
12450SOL    HW142480   9.811   7.649   6.996  1.1737  3.5018 -0.2042
12450SOL    HW242481   9.769   7.717   7.125 -1.1922 -0.8497  1.4038
12451SOL     OW42482   9.476   9.290   7.260 -0.6921 -0.3799  0.6109
12451SOL    HW142483   9.408   9.343   7.303 -0.2458  1.6448 -1.1291
12451SOL    HW242484   9.448   9.285   7.169  0.9711 -0.3952  0.0907
12452SOL     OW42485   6.342   8.158   5.346  0.1459 -0.0912 -0.0492
12452SOL    HW142486   6.311   8.069   5.331  0.5978 -0.1865 -0.4004
12452SOL    HW242487   6.275   8.197   5.403  0.5784 -1.0372  1.1065
12453SOL     OW42488   2.024   4.656   6.057 -0.2013 -0.0068 -0.8396
12453SOL    HW142489   2.064   4.741   6.073  1.1242 -0.8158  0.2528
12453SOL    HW242490   1.930   4.671   6.067 -0.0449  1.5059 -1.5456
12454SOL     OW42491   9.503   6.151   6.004 -0.1460 -0.5982  0.0267
12454SOL    HW142492   9.439   6.098   5.956 -1.1486  0.6661 -0.0302
12454SOL    HW242493   9.475   6.241   5.991  1.5761 -0.0387  0.1122
12455SOL     OW42494   2.155   5.777   8.158 -0.0551 -0.1122  0.1929
12455SOL    HW142495   2.212   5.853   8.166 -2.3930  1.6116  1.0384
12455SOL    HW242496   2.199   5.709   8.208  1.9182  0.7587 -0.3161
12456SOL     OW42497   5.051   7.040   9.676 -0.3934  0.4729  0.0612
12456SOL    HW142498   5.046   7.129   9.641  3.0296  1.5031  2.0065
12456SOL    HW242499   5.024   7.049   9.768 -0.4214 -0.5662  0.1615
12457SOL     OW42500   0.222   9.934   0.796 -0.3550  0.0190  0.3911
12457SOL    HW142501   0.302   9.965   0.839 -0.3168 -0.7087  0.8534
12457SOL    HW242502   0.253   9.867   0.735 -0.5290  0.2778  0.0225
12458SOL     OW42503   7.382  10.394   6.842 -0.2859 -0.0978  0.0247
12458SOL    HW142504   7.398  10.486   6.818  0.5053 -0.4213 -0.7125
12458SOL    HW242505   7.428  10.383   6.925 -0.6502  0.2646  0.2741
12459SOL     OW42506   7.340   3.507   8.214  0.2505 -0.1742  0.4367
12459SOL    HW142507   7.310   3.552   8.134 -1.3789  0.4254  1.3555
12459SOL    HW242508   7.299   3.421   8.209  0.3670 -0.2314  0.4880
12460SOL     OW42509   1.356   5.681   7.386 -0.1063  0.8995 -0.1506
12460SOL    HW142510   1.297   5.651   7.455  0.1252  1.0582  0.1170
12460SOL    HW242511   1.319   5.765   7.358 -0.2209  0.8169 -0.2439
12461SOL     OW42512   4.507   6.763   8.932 -0.2227  0.6848 -0.5093
12461SOL    HW142513   4.520   6.785   8.839  2.0328  1.4693 -0.0401
12461SOL    HW242514   4.479   6.671   8.931  0.8919  0.3397 -1.9159
12462SOL     OW42515   7.858   0.553   2.034 -0.0434  0.0703 -0.1318
12462SOL    HW142516   7.900   0.636   2.054 -0.0804  0.3914 -1.3101
12462SOL    HW242517   7.902   0.523   1.954 -1.7221  0.1912 -1.1163
12463SOL     OW42518   8.687   6.873   5.377 -0.8395 -0.1037  0.4044
12463SOL    HW142519   8.760   6.829   5.422  0.2073  0.9634 -0.2111
12463SOL    HW242520   8.658   6.811   5.310 -1.4823 -1.1361  1.6122
12464SOL     OW42521   5.706   7.837   2.154 -0.2514  0.5238  0.1194
12464SOL    HW142522   5.612   7.857   2.152 -0.2941  0.2398 -0.8778
12464SOL    HW242523   5.714   7.758   2.101  0.9303  2.1657 -2.2428
12465SOL     OW42524   8.805   7.059   1.065  0.1169  0.0304 -0.1352
12465SOL    HW142525   8.850   6.980   1.095  0.8620  1.0077  1.3585
12465SOL    HW242526   8.745   7.081   1.136 -0.3413  0.6231 -0.6950
12466SOL     OW42527   9.945   8.861   1.097  0.4447 -0.2262 -0.2066
12466SOL    HW142528  10.021   8.808   1.119 -0.4327 -0.7048  1.8468
12466SOL    HW242529   9.933   8.919   1.173 -1.5294 -0.5558 -0.2255
12467SOL     OW42530   8.267   4.301   2.730  0.6698  0.2553 -0.3550
12467SOL    HW142531   8.327   4.356   2.679 -0.6347  2.4796  0.4337
12467SOL    HW242532   8.320   4.225   2.756  2.1923  0.5596 -2.4254
12468SOL     OW42533   4.026  11.233   8.353 -0.0570 -0.3305 -0.0415
12468SOL    HW142534   4.049  11.257   8.263 -2.3849  0.3387 -0.5016
12468SOL    HW242535   4.103  11.188   8.387  1.7071  1.4558 -1.5998
12469SOL     OW42536   0.926   1.674   0.387 -0.1346 -0.4923  0.3697
12469SOL    HW142537   0.977   1.755   0.389  2.4241 -2.0104 -1.1340
12469SOL    HW242538   0.858   1.690   0.321 -0.0197  0.6344  0.5117
12470SOL     OW42539   9.802   9.710   9.673 -0.2053 -0.1509  0.1360
12470SOL    HW142540   9.807   9.737   9.764 -0.6324  0.1364  0.0775
12470SOL    HW242541   9.757   9.783   9.629  1.0031  0.2290 -0.5148
12471SOL     OW42542   8.858   2.023   0.270 -0.0694 -0.2094 -0.0384
12471SOL    HW142543   8.880   1.935   0.238 -0.1166 -0.5926  0.9675
12471SOL    HW242544   8.939   2.072   0.260 -0.2383 -0.1622 -1.2730
12472SOL     OW42545   0.601  10.600   2.188  0.1273  0.2366  0.1364
12472SOL    HW142546   0.564  10.579   2.103 -0.0113  0.3476  0.1704
12472SOL    HW242547   0.598  10.517   2.237  1.0759 -0.0560 -0.2930
12473SOL     OW42548   4.996   1.740   3.117  0.1017  0.3688 -0.2467
12473SOL    HW142549   5.052   1.801   3.164  0.6707 -1.6095  1.6777
12473SOL    HW242550   4.910   1.749   3.159  0.0904  0.0948 -0.2125
12474SOL     OW42551   1.078   4.411   4.205  0.0553  0.1604  0.1308
12474SOL    HW142552   1.041   4.479   4.262 -0.3330  0.4570 -0.4737
12474SOL    HW242553   1.081   4.451   4.119  2.5495  0.4219  0.2996
12475SOL     OW42554   0.654   7.379   8.820 -0.2798 -0.1477 -0.6835
12475SOL    HW142555   0.582   7.325   8.851  0.1180 -1.2663 -1.6699
12475SOL    HW242556   0.667   7.353   8.729  2.1114 -0.8228 -0.2027
12476SOL     OW42557   3.378   4.275   0.085  0.4342 -0.3712  0.3682
12476SOL    HW142558   3.461   4.278   0.132 -0.2593  2.5883  1.4936
12476SOL    HW242559   3.319   4.229   0.144  0.4936  0.1912  0.8663
12477SOL     OW42560   5.820   1.801   8.680 -0.1413 -0.2742 -0.3764
12477SOL    HW142561   5.822   1.754   8.597 -1.3487 -0.2112 -0.4534
12477SOL    HW242562   5.728   1.821   8.694  0.1575  0.5160  0.5356
12478SOL     OW42563   3.572   0.062   4.021  0.1789  0.5797 -0.9491
12478SOL    HW142564   3.608   0.138   3.975  3.1139  0.3825  0.9421
12478SOL    HW242565   3.490   0.095   4.059  0.4178  2.2171 -1.7824
12479SOL     OW42566   1.362   1.702  10.485  0.5171 -0.1937 -0.2762
12479SOL    HW142567   1.376   1.735  10.574 -0.2139 -0.7417  0.0399
12479SOL    HW242568   1.269   1.682  10.480  0.3361  0.8409 -1.5140
12480SOL     OW42569   4.061   4.990   8.955 -0.0513  0.0242 -0.3858
12480SOL    HW142570   4.004   4.946   9.017 -0.5863 -0.5135 -1.2590
12480SOL    HW242571   4.050   4.942   8.873  1.3189  0.1756 -0.6794
12481SOL     OW42572  10.992   4.760   8.835 -0.4241 -0.0578 -0.2406
12481SOL    HW142573  11.022   4.684   8.785 -2.2237 -0.3829 -0.8795
12481SOL    HW242574  10.902   4.774   8.805  0.0555  2.6677 -0.5112
12482SOL     OW42575   5.872   9.698  10.026  0.6600  0.0146 -0.0891
12482SOL    HW142576   5.808   9.628  10.012  0.3289  0.3610 -0.3028
12482SOL    HW242577   5.898   9.725   9.938 -0.5694  1.4061 -0.0403
12483SOL     OW42578   5.920  11.139   3.056  0.0352 -0.0700 -0.1896
12483SOL    HW142579   5.953  11.197   2.988 -0.0837 -1.1880 -1.2342
12483SOL    HW242580   5.998  11.092   3.087 -0.1052 -0.5398 -0.5324
12484SOL     OW42581   2.270   9.597   3.231  0.2109  0.0408 -0.3819
12484SOL    HW142582   2.242   9.688   3.246 -1.7357 -0.6116  0.1479
12484SOL    HW242583   2.355   9.591   3.273  0.8935  1.9240 -1.3968
12485SOL     OW42584   5.788   1.849   5.912  0.2172 -0.5506  0.2887
12485SOL    HW142585   5.875   1.857   5.951  0.7232 -3.2377 -0.2106
12485SOL    HW242586   5.742   1.929   5.940  1.7999 -0.5734  3.1672
12486SOL     OW42587   3.206   9.724   9.594 -0.0804  0.0909  0.1452
12486SOL    HW142588   3.227   9.791   9.659  3.1621  0.9142 -1.6129
12486SOL    HW242589   3.144   9.767   9.535  1.3679  1.3481 -0.5159
12487SOL     OW42590   2.494  10.789   6.748  0.2476 -0.0568  0.8588
12487SOL    HW142591   2.546  10.784   6.667  0.6541 -0.7583  1.1605
12487SOL    HW242592   2.496  10.700   6.783 -1.2415 -0.1067  0.8330
12488SOL     OW42593   9.036   4.550  10.132 -0.1116  0.2268 -0.6417
12488SOL    HW142594   9.120   4.569  10.092 -0.2571  0.0012 -1.0592
12488SOL    HW242595   9.056   4.529  10.223  0.4497 -1.4034 -1.1407
12489SOL     OW42596  10.911   5.427   3.170 -0.1757 -0.1597 -0.2869
12489SOL    HW142597  10.925   5.352   3.112 -0.6359 -0.7764  0.3882
12489SOL    HW242598  10.824   5.460   3.147 -0.1534 -0.0997 -0.2872
12490SOL     OW42599   1.961   3.662  10.636  0.4199 -0.3768  0.6295
12490SOL    HW142600   1.962   3.572  10.668 -2.0666  0.1153  2.2528
12490SOL    HW242601   2.027   3.664  10.566 -0.5699 -3.7931 -0.4742
12491SOL     OW42602   3.327   9.657  10.840  0.6698  0.4371 -0.3020
12491SOL    HW142603   3.361   9.688  10.924 -0.9068 -1.1393  0.9711
12491SOL    HW242604   3.256   9.719  10.819  0.1692  0.0497  0.2239
12492SOL     OW42605  11.143   0.326  10.201 -0.3042  0.1462  0.1766
12492SOL    HW142606  11.190   0.408  10.217 -1.4201  0.8039  0.1822
12492SOL    HW242607  11.199   0.277  10.141  0.7071  0.6016  0.7346
12493SOL     OW42608   7.873   4.142   6.093 -0.0244  0.3819 -0.1473
12493SOL    HW142609   7.960   4.111   6.116  1.1701  1.5024 -2.9190
12493SOL    HW242610   7.883   4.236   6.077 -1.7215  0.5332 -0.5031
12494SOL     OW42611   7.851   7.025   4.638 -0.6086  0.2578 -0.2434
12494SOL    HW142612   7.849   6.938   4.678 -0.2286 -0.1389 -1.0478
12494SOL    HW242613   7.901   7.079   4.699  0.2646 -0.4236 -0.3358
12495SOL     OW42614  10.820   1.702   4.243  0.4632  0.1606  0.0558
12495SOL    HW142615  10.783   1.613   4.237  0.8283  0.0454 -0.4532
12495SOL    HW242616  10.801   1.742   4.159  1.5772  0.0755 -0.2363
12496SOL     OW42617   5.338   4.202   0.446  0.0750  0.2899 -0.1274
12496SOL    HW142618   5.384   4.141   0.502  0.1921 -0.4326 -1.0021
12496SOL    HW242619   5.348   4.167   0.358  0.8087  1.9780 -0.7369
12497SOL     OW42620  10.192   2.422   1.980 -0.6071 -0.2847  0.4620
12497SOL    HW142621  10.271   2.415   2.035 -1.1738  0.9906  1.4406
12497SOL    HW242622  10.195   2.511   1.945 -0.7965 -0.7534 -0.7664
12498SOL     OW42623   7.274   4.479   7.203 -0.0354  0.1262  0.0264
12498SOL    HW142624   7.286   4.469   7.108 -1.0770 -0.6075 -0.0358
12498SOL    HW242625   7.220   4.557   7.213 -0.1847  0.0261 -0.0019
12499SOL     OW42626   3.561  10.574  10.128 -0.1357  0.4012  0.1654
12499SOL    HW142627   3.598  10.662  10.140 -0.6157  0.4463  1.4541
12499SOL    HW242628   3.521  10.554  10.212 -0.5160 -0.8341 -0.3031
12500SOL     OW42629   8.989   2.487   7.727  0.6469 -0.6182 -0.6325
12500SOL    HW142630   9.030   2.562   7.682 -0.4490 -0.0904 -0.7743
12500SOL    HW242631   8.953   2.434   7.656  1.8133 -1.5314 -0.5580
12501SOL     OW42632   4.739   8.013   0.789 -0.2698 -0.1463  0.0597
12501SOL    HW142633   4.668   7.951   0.801 -0.1806  0.0798  1.8037
12501SOL    HW242634   4.818   7.960   0.796 -0.2374 -0.3140 -1.3847
12502SOL     OW42635   1.972   0.183   3.063 -0.2325  0.1570  0.3055
12502SOL    HW142636   2.046   0.165   3.005 -1.1563 -0.0962 -0.8263
12502SOL    HW242637   1.908   0.226   3.006 -0.8978  0.4971  1.3030
12503SOL     OW42638   9.011  10.555   7.248 -0.8107  0.4661  0.2497
12503SOL    HW142639   9.086  10.503   7.278 -0.4406  0.8201 -0.0614
12503SOL    HW242640   9.045  10.605   7.174 -0.9972  1.5949  0.9171
12504SOL     OW42641   4.560   7.825   0.853 -0.2920  0.1890  1.2235
12504SOL    HW142642   4.481   7.783   0.819 -1.6254  1.5955  2.5535
12504SOL    HW242643   4.593   7.763   0.919  0.9974 -1.4391 -0.8824
12505SOL     OW42644   0.089  10.097   5.737 -0.1078  0.8387 -0.1959
12505SOL    HW142645   0.152  10.036   5.775  0.4460  1.5303  0.0186
12505SOL    HW242646   0.143  10.168   5.701 -0.8096  2.3844  1.6773
12506SOL     OW42647   1.025   5.238   6.253  0.3427  0.3991  0.3769
12506SOL    HW142648   1.035   5.159   6.306  0.4330  1.1909  1.5806
12506SOL    HW242649   1.082   5.224   6.178 -1.9986 -1.9904 -1.0178
12507SOL     OW42650   9.007   1.442   1.785  0.0056 -0.4503  0.2703
12507SOL    HW142651   9.043   1.484   1.863 -2.4335  0.7835  0.7708
12507SOL    HW242652   8.949   1.374   1.820  0.9585 -1.7040 -0.5199
12508SOL     OW42653   1.987   5.641   0.326 -0.1222  0.1500 -0.6033
12508SOL    HW142654   1.964   5.646   0.419  0.8218  0.9304 -0.3998
12508SOL    HW242655   2.028   5.556   0.315  1.7881  0.9312  0.1842
12509SOL     OW42656   9.822   5.516   3.711  0.1279 -0.0612  0.4028
12509SOL    HW142657   9.903   5.558   3.681  0.0070 -0.5627 -0.6487
12509SOL    HW242658   9.843   5.482   3.798  0.9893  0.0066  0.2256
12510SOL     OW42659   0.769   3.692   7.614 -0.1342  0.3286  0.6167
12510SOL    HW142660   0.783   3.733   7.529 -2.1418  0.9897  0.5876
12510SOL    HW242661   0.850   3.645   7.631  0.0609 -0.3777 -1.9884
12511SOL     OW42662   1.640   2.798   2.362 -0.6490 -0.5545  0.1322
12511SOL    HW142663   1.598   2.766   2.442  1.5483  0.9767  1.9318
12511SOL    HW242664   1.733   2.787   2.377 -0.1405  0.9857 -1.6952
12512SOL     OW42665   1.146   5.260   3.647 -0.4924  0.6262  0.1401
12512SOL    HW142666   1.173   5.172   3.675  0.0491  0.3412 -1.2377
12512SOL    HW242667   1.151   5.313   3.727  0.5873 -0.2728  0.6904
12513SOL     OW42668   7.691   9.741   4.474 -0.1876  0.1450 -0.2764
12513SOL    HW142669   7.753   9.789   4.528 -0.2570 -1.1001  0.9241
12513SOL    HW242670   7.609   9.741   4.523 -1.3326  2.2520 -2.1029
12514SOL     OW42671   3.224   2.523   2.541  0.2885 -0.4405  0.6031
12514SOL    HW142672   3.133   2.546   2.521  0.2609 -0.5293  0.6269
12514SOL    HW242673   3.226   2.510   2.636  0.0244 -1.7474  0.4438
12515SOL     OW42674   0.861   9.221  10.379 -0.4228 -0.5245 -0.4741
12515SOL    HW142675   0.877   9.132  10.350  0.0427  0.0723 -2.1469
12515SOL    HW242676   0.947   9.264  10.373 -0.6879  0.1002  0.0620
12516SOL     OW42677   3.332   3.680   4.871  0.0984 -0.5662  0.1237
12516SOL    HW142678   3.368   3.713   4.953  0.4165  0.5575 -0.4584
12516SOL    HW242679   3.258   3.738   4.852  1.1154  0.3121 -1.2782
12517SOL     OW42680   0.935   2.913   4.549 -0.0404 -0.8922 -0.4970
12517SOL    HW142681   0.862   2.927   4.488 -0.9972 -2.2731  0.2935
12517SOL    HW242682   1.012   2.939   4.499 -1.0388  0.3518 -1.4494
12518SOL     OW42683   6.242   5.344  10.691 -0.1609 -0.3643 -0.1553
12518SOL    HW142684   6.210   5.429  10.721 -1.5700 -0.4229 -1.4262
12518SOL    HW242685   6.226   5.285  10.764 -0.1338  0.2479  0.3502
12519SOL     OW42686   1.408   4.132   8.411 -0.8471  0.0625 -0.2450
12519SOL    HW142687   1.438   4.135   8.502  0.6170  0.1846 -0.7062
12519SOL    HW242688   1.320   4.095   8.416 -0.8583  0.2282  1.2337
12520SOL     OW42689   9.306  10.204  11.142  0.0439 -0.3948 -0.1017
12520SOL    HW142690   9.384  10.191  11.196  0.4549  5.5114  1.0504
12520SOL    HW242691   9.234  10.209  11.206 -0.5245 -0.5030 -0.7325
12521SOL     OW42692   8.778   9.968   4.141 -0.4341 -0.1982 -0.3009
12521SOL    HW142693   8.747   9.879   4.120 -1.4381  0.1769 -0.4379
12521SOL    HW242694   8.732  10.024   4.079  1.5243  0.2620 -1.3749
12522SOL     OW42695   3.450   3.338   7.287 -0.4496 -0.5502  0.5301
12522SOL    HW142696   3.356   3.347   7.303 -0.3956  2.2858 -0.3832
12522SOL    HW242697   3.483   3.290   7.362 -2.5498 -1.0311  1.1667
12523SOL     OW42698   8.726   3.003   6.251  0.2010  0.8101  0.4731
12523SOL    HW142699   8.821   3.011   6.260  0.1562  2.0609 -0.0105
12523SOL    HW242700   8.695   3.093   6.242 -0.8525  0.3155 -1.1391
12524SOL     OW42701   8.769   9.999   5.464 -0.2201  0.1925 -0.0495
12524SOL    HW142702   8.862   9.991   5.486 -0.4899  2.5217  2.1803
12524SOL    HW242703   8.743   9.910   5.441  1.8865 -1.0784  2.1700
12525SOL     OW42704   8.099   3.894   3.725 -0.4512  0.2264 -0.3710
12525SOL    HW142705   8.013   3.906   3.765 -0.3341  0.1354 -0.0904
12525SOL    HW242706   8.147   3.839   3.787  0.1021  0.9933 -0.0996
12526SOL     OW42707   6.937   3.282   7.608  0.0227  0.6990 -0.2542
12526SOL    HW142708   7.005   3.350   7.617 -0.2923  0.7951  1.5783
12526SOL    HW242709   6.931   3.243   7.695 -0.4624 -1.0748 -1.0681
12527SOL     OW42710   7.606   8.737   1.234 -0.3115  0.0943  0.0434
12527SOL    HW142711   7.587   8.653   1.275 -0.7008 -0.9134 -2.0895
12527SOL    HW242712   7.645   8.790   1.303  0.1329 -1.9184  1.3784
12528SOL     OW42713   7.548   9.042  11.228 -0.3374  0.0555 -0.6211
12528SOL    HW142714   7.535   8.967  11.285  0.9725 -0.5261 -1.0841
12528SOL    HW242715   7.478   9.034  11.163  0.2319 -1.1706 -1.0968
12529SOL     OW42716  11.070   2.293   5.664  0.4932  0.1920 -0.1738
12529SOL    HW142717  11.073   2.354   5.738  0.8254  0.4559 -0.4036
12529SOL    HW242718  11.135   2.226   5.685 -0.3193 -0.4204  0.3740
12530SOL     OW42719   3.342   9.114   1.725 -0.0244  0.1615  0.2159
12530SOL    HW142720   3.412   9.121   1.790  0.3946 -0.2658 -0.1838
12530SOL    HW242721   3.291   9.195   1.735 -1.1785 -0.8169  2.4540
12531SOL     OW42722   6.021   5.468   6.646  0.1880 -0.0681  0.5815
12531SOL    HW142723   6.037   5.375   6.632  0.6057  0.2115 -0.8734
12531SOL    HW242724   5.925   5.476   6.643  0.1828 -0.3323 -0.1131
12532SOL     OW42725   9.986   6.696   9.829  0.1757 -0.0734  0.3800
12532SOL    HW142726  10.051   6.661   9.768  1.6621  0.1110  1.8284
12532SOL    HW242727  10.029   6.693   9.914 -0.5689  2.9653  0.9206
12533SOL     OW42728   9.067   8.214  10.756  0.1332  0.2520 -0.5173
12533SOL    HW142729   9.077   8.288  10.817  1.0841 -0.6974  0.5152
12533SOL    HW242730   9.073   8.137  10.812 -1.2571 -0.6199 -1.5301
12534SOL     OW42731   0.561  10.437   1.619 -0.0724 -0.1006 -0.5775
12534SOL    HW142732   0.641  10.476   1.653 -2.4161  0.6372  4.5677
12534SOL    HW242733   0.534  10.494   1.548  2.1368  1.5802 -0.1094
12535SOL     OW42734   1.184   2.318   9.357  0.0482  0.6165 -0.4000
12535SOL    HW142735   1.149   2.322   9.446 -1.1031  0.4865 -0.8437
12535SOL    HW242736   1.273   2.283   9.368 -0.8103 -1.3424  0.4999
12536SOL     OW42737   2.479   0.553   6.182 -0.6613 -0.1509 -0.0958
12536SOL    HW142738   2.384   0.543   6.183 -0.6116 -0.6048  0.7177
12536SOL    HW242739   2.502   0.573   6.273  0.2499 -2.4472  0.2195
12537SOL     OW42740   2.407   2.379   1.234  0.0817  0.2411  0.5835
12537SOL    HW142741   2.354   2.429   1.171  2.0688 -0.8779 -2.0817
12537SOL    HW242742   2.343   2.329   1.285 -1.5428  0.7089 -0.9384
12538SOL     OW42743   3.291   6.475   8.999 -0.0548 -0.3640 -0.1217
12538SOL    HW142744   3.354   6.539   8.964  0.9145 -1.0417  0.3668
12538SOL    HW242745   3.341   6.424   9.062 -0.3423 -2.8660 -1.8821
12539SOL     OW42746   2.330   1.456   7.695 -0.1669 -0.0825 -0.1080
12539SOL    HW142747   2.273   1.531   7.681 -1.3067 -1.0312 -0.6833
12539SOL    HW242748   2.358   1.462   7.786 -0.5868  0.7939 -0.0365
12540SOL     OW42749   0.130   0.281   8.497  0.0496  0.0463 -0.3019
12540SOL    HW142750   0.177   0.363   8.514 -2.4485  1.6859 -1.0145
12540SOL    HW242751   0.108   0.285   8.404 -2.1200 -0.3050  0.1642
12541SOL     OW42752   4.790   3.787   6.990 -0.2251  0.0881 -0.6437
12541SOL    HW142753   4.758   3.788   6.900  1.0180 -0.9991 -1.1119
12541SOL    HW242754   4.879   3.822   6.984  0.0331 -0.4265  0.0888
12542SOL     OW42755  10.102   9.402   8.711  0.1932  0.5776  0.9877
12542SOL    HW142756  10.191   9.380   8.682 -0.3661 -0.9628  0.4171
12542SOL    HW242757  10.115   9.470   8.776  1.7787  0.6732  0.6006
12543SOL     OW42758   3.653   8.162   2.970  0.3525  0.2261 -0.0937
12543SOL    HW142759   3.664   8.255   2.951 -0.9037 -0.0976 -2.5279
12543SOL    HW242760   3.559   8.152   2.984  0.3317 -0.8864 -1.0233
12544SOL     OW42761   2.751   0.513   3.933 -0.2453  0.3003 -0.4068
12544SOL    HW142762   2.658   0.507   3.958 -0.5343  0.4986 -1.4350
12544SOL    HW242763   2.796   0.461   4.000 -1.1409 -0.1342 -0.1225
12545SOL     OW42764   8.809   3.372   0.298 -0.2776  0.2149 -0.1263
12545SOL    HW142765   8.778   3.429   0.369  1.4009 -0.1995  0.9636
12545SOL    HW242766   8.896   3.406   0.276  0.1314 -1.0289 -0.4620
12546SOL     OW42767   0.827   6.160  10.565  0.3921 -0.2414 -0.4289
12546SOL    HW142768   0.807   6.103  10.491  2.0752 -3.1139  1.2082
12546SOL    HW242769   0.892   6.221  10.532 -0.1962 -0.3237 -1.7891
12547SOL     OW42770   9.238   2.899   5.549 -0.0245 -0.9281 -0.1065
12547SOL    HW142771   9.207   2.976   5.596 -0.4297 -0.9088 -0.3952
12547SOL    HW242772   9.285   2.934   5.474  1.6881 -0.9464  0.9309
12548SOL     OW42773   6.572  11.135   8.181  0.1467 -0.2468 -0.2779
12548SOL    HW142774   6.664  11.112   8.191 -0.4882 -2.2828  1.2510
12548SOL    HW242775   6.538  11.073   8.118 -0.0577  0.9095 -1.3219
12549SOL     OW42776   1.441   3.890   5.481 -0.6018  0.0869  0.4548
12549SOL    HW142777   1.391   3.916   5.558 -0.9330  0.6178  0.0615
12549SOL    HW242778   1.453   3.971   5.432 -1.0312 -0.3836 -0.4245
12550SOL     OW42779  11.085  10.640   0.113  0.0861  0.2895  0.0612
12550SOL    HW142780  11.047  10.552   0.117  1.2504 -0.1840  0.6687
12550SOL    HW242781  11.056  10.673   0.027 -1.6200 -0.0894  0.4605
12551SOL     OW42782   8.467   9.434   2.146  0.2238 -0.7712 -0.0216
12551SOL    HW142783   8.518   9.412   2.224  1.3811  0.2467 -0.4659
12551SOL    HW242784   8.508   9.382   2.076  1.8253  1.3717 -0.7261
12552SOL     OW42785   4.791   1.177   9.138  0.1196 -0.1693  0.1454
12552SOL    HW142786   4.751   1.111   9.081 -0.6199  0.5561 -0.1816
12552SOL    HW242787   4.718   1.234   9.163  0.9112  1.0981 -0.3602
12553SOL     OW42788   8.749   4.807   2.267  0.3580 -0.0064 -0.1089
12553SOL    HW142789   8.816   4.765   2.213 -1.6031 -1.3646 -1.5570
12553SOL    HW242790   8.778   4.792   2.357  2.5581  0.4032 -0.7232
12554SOL     OW42791   0.452   1.989   1.155 -0.1088 -0.2103  0.0074
12554SOL    HW142792   0.516   2.037   1.208  0.8104 -0.4870 -0.8473
12554SOL    HW242793   0.458   2.028   1.068 -1.0328 -0.3106 -0.1102
12555SOL     OW42794   8.531   6.977   1.504  0.0458  0.2398 -0.1126
12555SOL    HW142795   8.485   6.949   1.425 -1.7610 -0.8176  1.2749
12555SOL    HW242796   8.526   6.902   1.562  2.3458  0.6250  0.5991
12556SOL     OW42797   5.631   2.737   6.488  0.5408  0.3216  0.3461
12556SOL    HW142798   5.606   2.655   6.447  0.0931  0.5245  0.2106
12556SOL    HW242799   5.710   2.716   6.538 -0.0964 -0.3981  1.0500
12557SOL     OW42800   6.457   6.782   8.045 -0.0816  0.1369 -0.0725
12557SOL    HW142801   6.524   6.717   8.069 -2.4431 -1.8367  1.3658
12557SOL    HW242802   6.436   6.826   8.128 -0.3092  0.9966 -0.5832
12558SOL     OW42803   0.366   2.650   7.475  0.2001 -0.9223  0.0050
12558SOL    HW142804   0.292   2.595   7.452  0.3742 -0.7434 -0.9967
12558SOL    HW242805   0.370   2.646   7.571 -0.5143 -1.6880  0.0080
12559SOL     OW42806   4.257  10.395   1.083 -0.1910 -0.2228 -0.6973
12559SOL    HW142807   4.216  10.308   1.087 -0.1788 -0.2865 -1.7807
12559SOL    HW242808   4.235  10.435   1.167 -0.1035 -1.3163 -0.1328
12560SOL     OW42809   9.598   2.568   8.517 -0.3745  0.5376 -0.2643
12560SOL    HW142810   9.597   2.661   8.538  1.6611  0.7537 -1.0063
12560SOL    HW242811   9.598   2.524   8.603 -1.5186  1.2024  0.0829
12561SOL     OW42812   2.586   7.841  11.287  0.1050 -0.0342 -0.5613
12561SOL    HW142813   2.597   7.931  11.319 -0.5300 -0.3486  0.6000
12561SOL    HW242814   2.582   7.849  11.192  2.3247  0.9198 -0.6132
12562SOL     OW42815   1.639   8.815   9.909  0.8841  0.2700  0.2878
12562SOL    HW142816   1.696   8.846   9.979  0.5922  1.5979 -0.0435
12562SOL    HW242817   1.674   8.855   9.830 -0.1168  0.5826 -0.0053
12563SOL     OW42818  10.397   7.855   5.614 -0.0596  0.4043  0.0913
12563SOL    HW142819  10.427   7.784   5.671  1.7166  1.6709  0.7814
12563SOL    HW242820  10.321   7.819   5.569 -0.3255 -1.2927  1.8256
12564SOL     OW42821  10.546   6.026   3.632 -0.3933 -0.3214  0.1406
12564SOL    HW142822  10.564   6.071   3.714 -0.3987  0.4706 -0.2911
12564SOL    HW242823  10.631   5.993   3.603 -0.3517 -0.3796  0.3311
12565SOL     OW42824   3.716  11.211   3.866 -0.1282 -0.5232 -0.1909
12565SOL    HW142825   3.664  11.281   3.904 -1.9857 -1.1894 -1.4196
12565SOL    HW242826   3.778  11.256   3.808 -0.4654  0.1798 -0.0116
12566SOL     OW42827   9.544  10.453  10.430 -0.1239  0.0830  0.0874
12566SOL    HW142828   9.498  10.397  10.368 -1.3763 -1.1441  2.0609
12566SOL    HW242829   9.596  10.392  10.483  0.1621  0.9924  0.8739
12567SOL     OW42830   8.080   7.996   8.462 -0.2698 -0.2855  0.1959
12567SOL    HW142831   8.094   8.000   8.367 -3.6631  1.5578 -0.2971
12567SOL    HW242832   8.046   7.908   8.477 -0.9412 -0.1523 -0.4994
12568SOL     OW42833   6.556   0.407   9.242  0.2973 -0.5283  0.4437
12568SOL    HW142834   6.561   0.480   9.179  1.2847  0.6078  1.8155
12568SOL    HW242835   6.466   0.410   9.274  0.9172  1.5136  2.1202
12569SOL     OW42836   7.512   9.315   4.786 -0.2852  0.1557 -0.6120
12569SOL    HW142837   7.540   9.252   4.720 -1.7516  0.8622 -1.9412
12569SOL    HW242838   7.593   9.347   4.826  0.5374 -1.2687 -1.1371
12570SOL     OW42839   4.898   5.977   1.004 -0.6178  0.2479 -0.4295
12570SOL    HW142840   4.911   5.883   1.015 -0.9703  0.1201 -1.1058
12570SOL    HW242841   4.804   5.987   0.989 -0.6192  0.7321 -0.1167
12571SOL     OW42842   5.229   5.040   4.677 -0.5827 -0.4926  0.1888
12571SOL    HW142843   5.228   4.959   4.625  1.1597  0.0577 -0.7540
12571SOL    HW242844   5.172   5.100   4.629 -0.0049 -0.4074 -0.4015
12572SOL     OW42845   1.203   9.509   3.138  0.5422  0.1472 -0.2592
12572SOL    HW142846   1.113   9.516   3.170  0.3939 -0.3797 -0.5696
12572SOL    HW242847   1.249   9.461   3.206  0.3456 -0.5219 -0.6029
12573SOL     OW42848   0.112   7.180   8.420 -0.3233 -0.0137  0.1307
12573SOL    HW142849   0.151   7.093   8.408  2.1859  0.9994  0.5983
12573SOL    HW242850   0.145   7.209   8.505  0.2648  2.0745 -0.7714
12574SOL     OW42851   0.971   4.493   0.521 -0.0338  0.4243 -0.0627
12574SOL    HW142852   1.051   4.519   0.567 -1.2616  0.2964  2.2027
12574SOL    HW242853   1.000   4.425   0.460  1.7231  0.9623  0.1287
12575SOL     OW42854   8.180   4.281   9.777  0.4703 -0.1626 -0.2498
12575SOL    HW142855   8.136   4.330   9.847  1.0406  0.4444 -0.3045
12575SOL    HW242856   8.230   4.348   9.730  0.0361 -0.5554 -1.2803
12576SOL     OW42857   8.346   0.338   0.660  0.6573 -0.5842 -0.1077
12576SOL    HW142858   8.365   0.403   0.592 -1.5386  0.1727 -0.0180
12576SOL    HW242859   8.429   0.329   0.707  1.0038  2.1987 -0.0887
12577SOL     OW42860   0.759   6.761   5.148  0.5107 -0.2350 -0.0193
12577SOL    HW142861   0.782   6.671   5.173  1.3289  0.0702  0.3318
12577SOL    HW242862   0.679   6.779   5.197  0.2985 -0.7978 -0.1498
12578SOL     OW42863   5.274   7.272   2.080  0.2029  0.6422 -0.0903
12578SOL    HW142864   5.293   7.343   2.019  0.2945  0.6566 -0.0451
12578SOL    HW242865   5.291   7.192   2.030  1.6189  0.6608  0.3472
12579SOL     OW42866   2.039   1.571   7.793 -0.1142 -0.2731  0.5993
12579SOL    HW142867   1.951   1.570   7.828 -0.5656  2.8185 -0.2672
12579SOL    HW242868   2.032   1.528   7.707 -0.5862 -0.8424  0.9251
12580SOL     OW42869   4.327   8.091   3.372 -0.2953 -0.3395 -0.6203
12580SOL    HW142870   4.287   8.079   3.286 -1.7497 -1.8141  0.2157
12580SOL    HW242871   4.386   8.016   3.381 -0.9614 -0.7963  0.0750
12581SOL     OW42872   9.873   2.394   9.825  0.0498  0.0340 -0.0837
12581SOL    HW142873   9.933   2.371   9.754 -0.0592 -0.5109 -0.0068
12581SOL    HW242874   9.796   2.429   9.780  0.1864  0.1694 -0.2136
12582SOL     OW42875   4.852  10.271   9.054  0.2271 -0.1069  0.3703
12582SOL    HW142876   4.842  10.362   9.082 -1.0346  0.1549 -0.8338
12582SOL    HW242877   4.897  10.276   8.970 -1.4966 -0.4521 -0.6013
12583SOL     OW42878   1.994   2.982   6.974  0.7719  0.0179 -0.3502
12583SOL    HW142879   2.051   2.916   7.013  0.0608 -0.5433 -0.2368
12583SOL    HW242880   1.935   3.008   7.045 -0.2628 -0.7150 -0.9195
12584SOL     OW42881   6.687   1.600   2.372  0.3827 -0.4413  0.0065
12584SOL    HW142882   6.624   1.608   2.300  1.3262  2.4896 -0.5758
12584SOL    HW242883   6.636   1.564   2.445 -0.7370 -2.8620 -1.8902
12585SOL     OW42884   5.067   4.884   5.705 -0.4550  0.0086 -0.3002
12585SOL    HW142885   4.989   4.920   5.663  0.3451  0.9711 -0.9829
12585SOL    HW242886   5.140   4.930   5.664  0.3785  0.5982  1.7773
12586SOL     OW42887   4.890   1.098   9.598 -0.6234  0.3122  0.7252
12586SOL    HW142888   4.823   1.058   9.653  0.6388 -0.8666  1.4409
12586SOL    HW242889   4.972   1.081   9.643  0.4953 -1.0161 -1.6863
12587SOL     OW42890   8.883   5.484   7.948  0.4296 -0.7489  0.4097
12587SOL    HW142891   8.974   5.497   7.974  0.2600 -0.0900  0.6828
12587SOL    HW242892   8.876   5.390   7.931  0.9597 -0.9368  1.1876
12588SOL     OW42893   9.574   1.392   4.520  0.5146  0.2983  0.0976
12588SOL    HW142894   9.561   1.400   4.614 -0.8972  0.5488 -0.1078
12588SOL    HW242895   9.530   1.469   4.483  0.0075 -0.4358 -0.8452
12589SOL     OW42896   0.236   3.703   2.265 -0.1873 -0.0785  0.0014
12589SOL    HW142897   0.242   3.721   2.171 -1.3332 -1.5625 -0.3694
12589SOL    HW242898   0.187   3.777   2.301 -0.7830 -0.0942 -0.7667
12590SOL     OW42899   7.924   2.900  10.374  0.1484 -0.0574 -0.4049
12590SOL    HW142900   7.958   2.968  10.433 -0.0965  0.0224 -0.3533
12590SOL    HW242901   7.831   2.894  10.397  0.2788 -0.7853 -0.0430
12591SOL     OW42902   5.731   7.884   6.988  0.0581  0.4200  0.4794
12591SOL    HW142903   5.792   7.879   6.914 -0.1303 -0.5535  0.3820
12591SOL    HW242904   5.784   7.860   7.064  0.3239  1.7129  0.7050
12592SOL     OW42905   0.777   1.806   2.349 -0.1364  0.6387 -0.1504
12592SOL    HW142906   0.718   1.879   2.331 -1.6628  0.0274  2.0704
12592SOL    HW242907   0.814   1.826   2.435  1.2248 -0.0853 -0.5480
12593SOL     OW42908   5.994   5.761   8.766  0.0756  0.1052 -0.7445
12593SOL    HW142909   6.016   5.811   8.844  1.0200 -1.1493 -0.1827
12593SOL    HW242910   6.075   5.714   8.744 -0.4615 -0.3089 -1.8942
12594SOL     OW42911   3.035   9.491  10.843 -0.2471 -0.0916 -0.6148
12594SOL    HW142912   3.028   9.413  10.898  1.0080  0.2824  0.0983
12594SOL    HW242913   2.958   9.544  10.866  0.7615  0.4892  1.4775
12595SOL     OW42914   3.364   0.552   8.365  0.1447 -0.1832 -0.0914
12595SOL    HW142915   3.297   0.492   8.333 -0.3085  0.4958 -0.4005
12595SOL    HW242916   3.369   0.533   8.459 -0.6229 -0.0939 -0.0297
12596SOL     OW42917  10.806   5.787   7.424  0.2086 -0.1801  0.3370
12596SOL    HW142918  10.866   5.790   7.498 -0.2108  0.2864  0.6619
12596SOL    HW242919  10.840   5.718   7.368  1.7841  0.9425 -0.1146
12597SOL     OW42920   2.503   3.584   7.281  0.2368  0.1955  0.0609
12597SOL    HW142921   2.461   3.666   7.256  2.2303  1.1905 -0.0605
12597SOL    HW242922   2.577   3.575   7.221  0.9415 -0.9131  1.0768
12598SOL     OW42923   4.276   2.563   3.453 -0.2165 -0.0300 -0.2738
12598SOL    HW142924   4.315   2.486   3.494 -1.9296 -0.7608  0.0209
12598SOL    HW242925   4.184   2.561   3.481 -0.6334  1.2750 -1.5057
12599SOL     OW42926   5.438   8.004  10.750  0.2292 -0.6797  0.1957
12599SOL    HW142927   5.509   8.068  10.748  0.7332 -1.2170  0.7427
12599SOL    HW242928   5.395   8.019  10.834  1.2953 -2.0766  1.0023
12600SOL     OW42929   7.250   6.405   5.181 -0.3701 -0.2093 -0.1536
12600SOL    HW142930   7.179   6.382   5.242  0.1624 -0.5726  0.3337
12600SOL    HW242931   7.330   6.394   5.232  0.0603 -0.1335 -0.8035
12601SOL     OW42932   1.508   7.762  10.843 -0.0326  0.6891 -0.1204
12601SOL    HW142933   1.443   7.829  10.820  0.2590  0.6130 -1.1873
12601SOL    HW242934   1.513   7.765  10.939 -2.2894  0.0584  0.0359
12602SOL     OW42935   2.712   5.937   1.092 -0.1089 -0.6784  1.0670
12602SOL    HW142936   2.751   6.022   1.072 -0.9583 -0.0921  1.8683
12602SOL    HW242937   2.716   5.931   1.187  0.5468 -1.8378  0.9796
12603SOL     OW42938   0.854   2.343   3.039 -0.1706  0.2851  0.1897
12603SOL    HW142939   0.868   2.435   3.063  1.1872  0.3902 -0.9378
12603SOL    HW242940   0.800   2.347   2.960 -3.2894 -0.0232  2.1945
12604SOL     OW42941   6.350   7.776  11.295 -0.0832 -0.6287 -0.2664
12604SOL    HW142942   6.297   7.754  11.371 -1.9284 -2.8774 -2.1280
12604SOL    HW242943   6.428   7.722  11.303 -0.7157 -1.5730 -0.4508
12605SOL     OW42944   8.057   7.060   9.021 -0.3052  0.0917  0.0306
12605SOL    HW142945   8.039   7.128   8.956  0.3286 -0.7121 -1.0086
12605SOL    HW242946   8.046   7.104   9.106 -0.5061  1.3205 -0.6207
12606SOL     OW42947   8.184   6.553   5.420  0.3938 -0.2500  0.2018
12606SOL    HW142948   8.157   6.480   5.365  1.8733  0.7250 -1.9021
12606SOL    HW242949   8.265   6.522   5.461  0.9271  0.1065 -0.5562
12607SOL     OW42950  10.525   3.387   2.938  0.3535  0.5060 -0.4207
12607SOL    HW142951  10.581   3.433   3.001 -0.0018  2.1186 -1.2438
12607SOL    HW242952  10.439   3.427   2.948  0.4346  1.2445 -2.3637
12608SOL     OW42953   0.885   0.582   4.961  0.1778  0.4849 -0.2819
12608SOL    HW142954   0.912   0.578   4.869 -0.3793  1.7615 -0.5251
12608SOL    HW242955   0.838   0.500   4.976  0.5338  0.1320 -1.0521
12609SOL     OW42956   3.697   9.088   0.180 -0.2693 -0.3129 -0.0046
12609SOL    HW142957   3.734   9.171   0.151 -3.3603  0.8314 -0.8767
12609SOL    HW242958   3.722   9.025   0.111  0.4163  0.2980 -0.3258
12610SOL     OW42959   3.990   5.053   9.632 -0.3084  0.0642  0.3532
12610SOL    HW142960   3.904   5.088   9.657 -0.8215 -0.8444 -0.1470
12610SOL    HW242961   4.037   5.129   9.597 -0.8976  0.5673  0.6383
12611SOL     OW42962   1.516   9.488   8.903 -0.0139  0.1301 -0.0308
12611SOL    HW142963   1.489   9.414   8.958 -1.2532 -0.5379 -1.5095
12611SOL    HW242964   1.610   9.476   8.891  0.4614  0.8302  2.7457
12612SOL     OW42965  10.630  10.031   8.412  0.1213 -0.0532 -0.4196
12612SOL    HW142966  10.702   9.987   8.366  0.7172 -1.0397  1.3888
12612SOL    HW242967  10.672  10.105   8.456  0.2833 -1.2876  1.5703
12613SOL     OW42968   8.492   3.572   1.455  0.6839 -0.1762  1.1200
12613SOL    HW142969   8.541   3.632   1.399  0.6782 -0.6074  0.6571
12613SOL    HW242970   8.434   3.629   1.505  1.1267  0.2671  1.1361
12614SOL     OW42971   7.830   0.205   6.298 -0.1746  0.2182  0.4940
12614SOL    HW142972   7.864   0.189   6.386 -0.5971 -0.5187  0.5219
12614SOL    HW242973   7.736   0.192   6.306 -0.1468 -0.4237 -0.2062
12615SOL     OW42974   4.074   4.429   8.006 -0.1908 -0.2757  0.0442
12615SOL    HW142975   4.078   4.421   7.910  2.1374 -0.7013  0.1592
12615SOL    HW242976   4.095   4.521   8.023  2.5447 -0.9126  0.2863
12616SOL     OW42977   3.461   1.821   0.140 -0.4424  0.0631  0.1761
12616SOL    HW142978   3.510   1.879   0.081 -0.4918 -0.5912 -0.5155
12616SOL    HW242979   3.513   1.821   0.220  0.2908 -0.0134 -0.2891
12617SOL     OW42980   8.906   9.904  10.129 -0.5909  0.1440  0.3413
12617SOL    HW142981   8.999   9.883  10.141 -0.9470 -1.0273  1.1859
12617SOL    HW242982   8.899   9.997  10.147  0.3264  0.1221  0.8300
12618SOL     OW42983   5.872   1.842   1.151 -0.4005  0.1949 -0.5300
12618SOL    HW142984   5.958   1.844   1.193  0.5280 -2.7429 -2.1194
12618SOL    HW242985   5.868   1.923   1.101  2.5495 -0.7613 -2.4298
12619SOL     OW42986   6.284   1.730  10.473  0.0453  0.4126 -0.1581
12619SOL    HW142987   6.298   1.691  10.387  1.0377  2.2950 -0.8901
12619SOL    HW242988   6.196   1.701  10.499 -0.4410  0.1762 -1.9960
12620SOL     OW42989   5.301   0.021   2.303 -0.2671 -0.1964  0.2391
12620SOL    HW142990   5.376  -0.009   2.355  1.3199  2.0221 -0.7093
12620SOL    HW242991   5.340   0.063   2.226 -2.4608  1.6708  0.1038
12621SOL     OW42992   6.876   1.763   2.546 -0.1227 -0.3717  0.8635
12621SOL    HW142993   6.962   1.786   2.510 -0.5084  0.6947  0.6068
12621SOL    HW242994   6.850   1.684   2.498  0.0177  0.2012 -0.1523
12622SOL     OW42995   4.918   2.143   0.015 -0.1206 -0.9635 -0.0580
12622SOL    HW142996   4.934   2.097   0.097 -2.8104 -1.4810  0.2517
12622SOL    HW242997   4.889   2.074  -0.046  3.4062 -0.8650 -2.0039
12623SOL     OW42998   7.543   0.829   2.801  0.1854 -0.5887 -0.8588
12623SOL    HW142999   7.511   0.894   2.738 -1.0813  0.8245  1.1889
12623SOL    HW243000   7.550   0.877   2.883 -1.6535 -3.2564  0.9407
12624SOL     OW43001   6.852   1.836   1.271  0.8482  0.3392 -0.2208
12624SOL    HW143002   6.938   1.858   1.308  0.7790  0.2437  0.0002
12624SOL    HW243003   6.826   1.756   1.317  1.5864 -0.8322 -1.7931
12625SOL     OW43004   5.276   0.080   8.032 -0.3140 -0.4236 -0.1857
12625SOL    HW143005   5.240  -0.004   8.004  0.6726 -1.1885  0.7605
12625SOL    HW243006   5.286   0.072   8.127 -2.0618  1.5047  0.2020
12626SOL     OW43007   7.282   0.731   3.905 -0.0679  0.2146 -0.0897
12626SOL    HW143008   7.291   0.797   3.974  1.6411  0.5756 -0.6295
12626SOL    HW243009   7.198   0.689   3.922  0.0699  0.6988  1.8593
12627SOL     OW43010  10.213   7.508   2.670  0.1164  0.5937  0.5617
12627SOL    HW143011  10.240   7.446   2.602 -3.7300 -0.2088 -0.3773
12627SOL    HW243012  10.281   7.504   2.736  2.5092 -0.7679 -1.9155
12628SOL     OW43013   9.418   6.138   5.303 -0.0718 -0.4973 -0.5058
12628SOL    HW143014   9.352   6.201   5.274  0.5125 -0.0238 -0.8179
12628SOL    HW243015   9.499   6.165   5.260  0.0124 -1.9673 -1.3249
12629SOL     OW43016   8.958   4.722   6.468 -0.3629  0.3533  0.5711
12629SOL    HW143017   8.955   4.747   6.561  0.7673  1.7759  0.2360
12629SOL    HW243018   8.880   4.763   6.430  0.0717  1.1796  0.5608
12630SOL     OW43019   0.202   3.242  10.895 -0.2460 -0.0773 -0.1599
12630SOL    HW143020   0.291   3.210  10.909  0.3987  1.4480 -0.6225
12630SOL    HW243021   0.149   3.196  10.959  0.7711 -1.4916 -0.3177
12631SOL     OW43022   7.148   9.941   5.687 -0.1768  0.0304 -0.2001
12631SOL    HW143023   7.240   9.920   5.704  0.3751  1.7830 -0.9118
12631SOL    HW243024   7.118   9.984   5.767 -0.7044 -1.5135  0.4494
12632SOL     OW43025   5.861   1.549   4.268 -0.1085 -0.2921  0.2081
12632SOL    HW143026   5.820   1.628   4.303 -0.3461 -0.7868  1.0833
12632SOL    HW243027   5.877   1.568   4.176 -0.7114  0.5507  0.2729
12633SOL     OW43028   1.203   3.467  11.270 -0.0732 -0.3244  0.7641
12633SOL    HW143029   1.226   3.529  11.201  0.3155 -0.6574  0.5956
12633SOL    HW243030   1.280   3.462  11.326 -0.6461  0.4966  1.6365
12634SOL     OW43031   7.570   1.183   1.115  0.1326 -0.4909 -0.1579
12634SOL    HW143032   7.620   1.135   1.181  0.3535  0.4475  0.3569
12634SOL    HW243033   7.575   1.274   1.142 -0.2452 -0.1625 -1.1669
12635SOL     OW43034   4.045   9.512   4.625 -0.2526  0.0154 -0.1184
12635SOL    HW143035   4.025   9.472   4.710 -2.4278  0.9119 -0.1743
12635SOL    HW243036   3.999   9.457   4.562  1.7720 -0.9453 -0.8034
12636SOL     OW43037   0.357   4.359  11.109  0.0702  0.3224 -0.0717
12636SOL    HW143038   0.308   4.348  11.191 -0.7167 -1.7728 -0.7831
12636SOL    HW243039   0.432   4.299  11.119  0.5925  0.9121 -0.4265
12637SOL     OW43040   1.419   2.995  10.575  0.2828 -0.1739  0.0908
12637SOL    HW143041   1.411   3.048  10.655  2.1643 -1.6450  1.2940
12637SOL    HW243042   1.511   2.967  10.574  0.1750 -0.4915 -2.3973
12638SOL     OW43043   9.933   7.848  11.266  0.1917 -0.4737 -0.2552
12638SOL    HW143044   9.945   7.918  11.330  2.4424  0.7389 -1.9436
12638SOL    HW243045   9.966   7.770  11.310  3.8883  0.7573 -0.6984
12639SOL     OW43046   5.532  10.905   5.061  0.4000 -0.5907  0.5649
12639SOL    HW143047   5.454  10.878   5.012  1.6481  0.3386 -1.9902
12639SOL    HW243048   5.504  10.984   5.108 -0.3552 -0.5514  0.0581
12640SOL     OW43049   8.648   1.122   2.087 -0.4622 -0.4310 -0.0359
12640SOL    HW143050   8.688   1.153   2.168  2.0364 -0.8933 -1.0125
12640SOL    HW243051   8.615   1.034   2.108  0.8724 -0.8697  0.3099
12641SOL     OW43052  11.047  10.893   4.470  0.0493  0.3209  0.0430
12641SOL    HW143053  11.064  10.985   4.451 -0.5893  0.3609 -0.3296
12641SOL    HW243054  11.134  10.856   4.485  0.2962  1.0319  0.4220
12642SOL     OW43055   2.383   7.006   1.691 -0.7217 -0.3420  0.6955
12642SOL    HW143056   2.367   6.947   1.764 -1.3804  0.3405  1.1086
12642SOL    HW243057   2.327   7.082   1.709 -1.7973 -0.6757 -1.1193
12643SOL     OW43058   7.333   7.093   2.840  0.5719  0.0386 -0.1167
12643SOL    HW143059   7.354   7.047   2.921 -1.1693 -0.8181 -0.1343
12643SOL    HW243060   7.326   7.024   2.774  2.2566  0.7551 -1.0777
12644SOL     OW43061   4.090  10.600   4.358  0.2030 -0.0980 -0.0229
12644SOL    HW143062   4.002  10.593   4.393 -0.3067 -0.6491 -1.3807
12644SOL    HW243063   4.139  10.531   4.404  0.5283  1.6459  2.3699
12645SOL     OW43064   6.707   1.917   8.389 -0.1016  0.4782  0.0031
12645SOL    HW143065   6.695   1.997   8.338 -0.4999 -0.4497 -1.4027
12645SOL    HW243066   6.636   1.860   8.360  0.5449 -0.6089  0.5314
12646SOL     OW43067   1.611   8.434   4.868 -0.1726 -0.4313  0.8797
12646SOL    HW143068   1.684   8.479   4.826  0.0508 -1.4625  0.1369
12646SOL    HW243069   1.559   8.504   4.909  1.1325  0.3237  1.2717
12647SOL     OW43070   1.447   2.413   7.295  0.5522 -0.1025  0.0308
12647SOL    HW143071   1.367   2.410   7.346  0.1353  0.1269 -0.6071
12647SOL    HW243072   1.507   2.465   7.348 -0.2209  1.0263 -0.1898
12648SOL     OW43073   6.972   6.225   4.970 -0.1363 -0.3328 -0.0995
12648SOL    HW143074   7.013   6.292   4.916  0.5108 -0.0150  0.7773
12648SOL    HW243075   6.886   6.259   4.991  0.0390  0.0436  0.0052
12649SOL     OW43076   5.460   2.364   6.969 -0.3952  0.1989 -0.1207
12649SOL    HW143077   5.426   2.280   7.001 -0.6676  0.2428 -0.2966
12649SOL    HW243078   5.410   2.381   6.890 -0.8268  0.8718  0.2902
12650SOL     OW43079   6.751   2.380  11.041 -0.6679  0.4904  0.5662
12650SOL    HW143080   6.790   2.421  10.963  0.8035  0.0598  1.0586
12650SOL    HW243081   6.766   2.442  11.111 -0.4240  0.0963  0.8641
12651SOL     OW43082   0.817   0.429   2.608  0.5287 -0.5199  0.5769
12651SOL    HW143083   0.819   0.334   2.611 -0.9996 -0.5652  0.6184
12651SOL    HW243084   0.735   0.453   2.652 -0.3349  0.6839 -1.5713
12652SOL     OW43085   0.458   1.187  10.854  0.5419  0.0472  0.2596
12652SOL    HW143086   0.386   1.247  10.836 -0.3400 -1.1603 -0.2382
12652SOL    HW243087   0.417   1.102  10.867  1.8270 -0.5551  0.4886
12653SOL     OW43088   6.673   3.840   8.174  0.0441  0.3456 -0.8061
12653SOL    HW143089   6.701   3.760   8.129  1.3331  0.3790 -0.0954
12653SOL    HW243090   6.654   3.811   8.263 -0.8763  0.5788 -0.9268
12654SOL     OW43091  10.245   2.914   8.107  0.2496  0.1400  0.2581
12654SOL    HW143092  10.160   2.935   8.069 -0.5651 -1.6952  0.9881
12654SOL    HW243093  10.232   2.829   8.150  2.0893  0.4470  1.5160
12655SOL     OW43094   1.014   0.485   7.737 -0.3858 -0.3334 -0.6032
12655SOL    HW143095   0.942   0.490   7.674 -1.7787 -0.4957  0.9437
12655SOL    HW243096   1.079   0.427   7.695 -1.2469 -0.3534 -1.9156
12656SOL     OW43097   5.538   8.217   9.356  0.3091 -0.5515 -0.2711
12656SOL    HW143098   5.627   8.210   9.322  0.1574 -2.4806 -0.3470
12656SOL    HW243099   5.541   8.173   9.441 -0.8834 -1.9711 -0.9389
12657SOL     OW43100   5.537  10.846  10.268 -0.1200 -0.0579  0.3823
12657SOL    HW143101   5.595  10.818  10.339 -0.1637 -0.3055  0.3229
12657SOL    HW243102   5.499  10.928  10.299 -0.3821 -0.3239  0.7912
12658SOL     OW43103   7.288   4.446   6.443  0.1813  0.3358 -0.5798
12658SOL    HW143104   7.288   4.509   6.371 -0.2856  0.2523 -0.6538
12658SOL    HW243105   7.352   4.380   6.417  0.7041  0.7971 -0.4814
12659SOL     OW43106   3.532   2.686   5.015 -0.1674  0.2923  0.1124
12659SOL    HW143107   3.472   2.759   5.030  0.5675  0.7326  0.9578
12659SOL    HW243108   3.538   2.642   5.100  2.5686  1.6798  0.7006
12660SOL     OW43109   5.773   7.656   0.450 -0.1522 -0.4417  0.4493
12660SOL    HW143110   5.853   7.609   0.473 -0.8687 -1.3503  1.1199
12660SOL    HW243111   5.733   7.602   0.381 -0.8538 -0.6876  1.0467
12661SOL     OW43112   0.326   6.085   6.329  0.0306 -0.2089  0.4990
12661SOL    HW143113   0.361   6.021   6.391 -2.4511 -1.4317  0.7173
12661SOL    HW243114   0.267   6.035   6.274  0.6369  1.2710 -1.5670
12662SOL     OW43115   7.213   4.809   5.833  0.0777  0.0124  0.1543
12662SOL    HW143116   7.298   4.796   5.791  0.3629  2.3595 -0.0941
12662SOL    HW243117   7.233   4.851   5.916 -0.7702 -0.5224  0.6338
12663SOL     OW43118   1.881   9.232   1.337 -0.0396 -0.3911 -1.0027
12663SOL    HW143119   1.810   9.288   1.369 -0.3414 -0.6990 -1.1277
12663SOL    HW243120   1.921   9.282   1.266  0.4314  0.1576 -0.3575
12664SOL     OW43121   9.969   0.060  10.582 -1.0985  0.4343 -0.3513
12664SOL    HW143122   9.970  -0.031  10.611 -2.0619  1.2682  2.4170
12664SOL    HW243123  10.037   0.065  10.515  1.1816 -1.5773  1.7465
12665SOL     OW43124   0.147   2.319   4.035 -0.2530  0.3098 -0.3908
12665SOL    HW143125   0.061   2.361   4.031 -0.1275  0.4154 -2.5828
12665SOL    HW243126   0.129   2.226   4.023 -0.1846  0.1746  0.5521
12666SOL     OW43127   5.049   9.735   4.433 -0.0226  0.4138 -0.3736
12666SOL    HW143128   5.063   9.829   4.419  0.3731  0.6487  1.4520
12666SOL    HW243129   5.131   9.694   4.406  0.7864  0.8737  1.2774
12667SOL     OW43130   2.647   4.374   9.352  0.5124  0.1120  0.0002
12667SOL    HW143131   2.575   4.393   9.291  0.6168  0.2992 -0.0667
12667SOL    HW243132   2.608   4.319   9.419  0.3490  0.0644 -0.1323
12668SOL     OW43133  10.725   7.812  10.037 -0.0701  0.6434 -0.2293
12668SOL    HW143134  10.632   7.832  10.044 -0.1804  0.3973 -0.9794
12668SOL    HW243135  10.766   7.897  10.022 -0.3692  0.5199 -1.7597
12669SOL     OW43136   5.991   3.650   6.250  0.1059  0.3884 -0.0661
12669SOL    HW143137   6.063   3.702   6.283 -0.2790 -0.1680  1.6865
12669SOL    HW243138   6.000   3.566   6.294 -0.2016 -0.5161 -1.6714
12670SOL     OW43139   1.307   8.243   6.661 -0.4539 -0.0256 -0.4016
12670SOL    HW143140   1.284   8.154   6.633 -2.4540  0.3734 -0.0685
12670SOL    HW243141   1.229   8.275   6.707  1.1651  0.9968  1.6802
12671SOL     OW43142   4.672  11.253   4.296 -0.0266  0.0994 -0.0187
12671SOL    HW143143   4.722  11.313   4.351 -0.6892  1.1298 -0.5232
12671SOL    HW243144   4.730  11.179   4.282  0.0456 -0.3445  2.3424
12672SOL     OW43145  11.286   2.964   2.411 -0.2501  0.4462 -0.9204
12672SOL    HW143146  11.239   2.896   2.460 -0.8198  0.2791 -1.6886
12672SOL    HW243147  11.278   2.938   2.319  0.9711  0.6604 -1.0956
12673SOL     OW43148   9.601   6.604  11.235 -0.6182 -0.4841  0.4326
12673SOL    HW143149   9.660   6.594  11.310 -0.1449 -1.6392 -0.0777
12673SOL    HW243150   9.659   6.629  11.163 -0.9694 -0.0951  0.2841
12674SOL     OW43151   5.842   4.131   2.877 -0.3839  0.5646  0.1949
12674SOL    HW143152   5.799   4.152   2.959  0.2366  4.7856 -0.4572
12674SOL    HW243153   5.771   4.103   2.819 -0.9228 -1.6755  1.8608
12675SOL     OW43154   6.279   9.391   5.826 -0.3293 -0.8768  0.9456
12675SOL    HW143155   6.241   9.474   5.855 -0.4519 -0.7415  0.4073
12675SOL    HW243156   6.372   9.410   5.816 -0.1609 -1.1340  2.0046
12676SOL     OW43157  10.845   2.853   2.374 -0.0980 -0.3503 -0.8504
12676SOL    HW143158  10.917   2.893   2.326 -0.2623  0.2195 -0.6399
12676SOL    HW243159  10.766   2.887   2.331 -0.2501  0.3954 -0.0195
12677SOL     OW43160   5.407   7.364  10.101 -0.4780  0.3493  0.3666
12677SOL    HW143161   5.500   7.354  10.117 -0.3220  0.1053 -0.6795
12677SOL    HW243162   5.382   7.285  10.054 -0.9601  0.9918 -0.4617
12678SOL     OW43163   7.613   8.398  11.279  0.3537  0.5032  0.0816
12678SOL    HW143164   7.546   8.332  11.297 -0.4311  1.3256  0.2273
12678SOL    HW243165   7.655   8.413  11.363 -1.7738  2.6726  0.8237
12679SOL     OW43166   6.335   1.925  10.775 -0.3214 -0.0818  0.1172
12679SOL    HW143167   6.390   1.853  10.747  2.1895  1.7144  0.2298
12679SOL    HW243168   6.331   1.918  10.870 -1.6586 -1.1613 -0.0153
12680SOL     OW43169   7.299   8.647   1.306 -0.2797  0.4019  0.0670
12680SOL    HW143170   7.312   8.712   1.375 -0.0388 -0.4637  0.8486
12680SOL    HW243171   7.386   8.610   1.291 -0.3951  0.3338 -0.4386
12681SOL     OW43172   8.667   5.072   3.621  0.1813  0.4891 -0.5425
12681SOL    HW143173   8.718   5.151   3.603  0.4619  0.2383 -0.8527
12681SOL    HW243174   8.594   5.103   3.674 -0.0804  1.0759 -1.2264
12682SOL     OW43175   2.664   1.554  10.869  0.3849  0.6109 -0.4842
12682SOL    HW143176   2.631   1.475  10.827 -3.7640  2.6319 -1.3118
12682SOL    HW243177   2.678   1.529  10.960 -4.1843 -0.3750  0.0932
12683SOL     OW43178   6.529   9.409   4.702 -0.8257  0.1931  0.2564
12683SOL    HW143179   6.482   9.443   4.626  1.4924  0.2886 -1.2018
12683SOL    HW243180   6.601   9.471   4.715  2.4830 -3.0339 -1.3928
12684SOL     OW43181   7.011   3.512   0.204  0.0416 -0.1488 -0.5831
12684SOL    HW143182   7.010   3.433   0.150 -1.7585  1.1268 -2.4627
12684SOL    HW243183   7.005   3.584   0.142 -0.4300  1.4099  1.2223
12685SOL     OW43184   7.486   6.760   7.215  0.4123  0.2690  0.0393
12685SOL    HW143185   7.514   6.670   7.225 -0.2871  0.3093  2.5898
12685SOL    HW243186   7.536   6.809   7.280 -0.6483  1.4026  0.0372
12686SOL     OW43187   5.974  10.955  11.246 -0.2772  0.3818 -0.3187
12686SOL    HW143188   6.043  11.021  11.241 -0.7673  0.9929  0.9623
12686SOL    HW243189   5.975  10.913  11.159  0.3037  1.7855 -0.9985
12687SOL     OW43190   5.192   5.201   6.873  0.4266 -0.5720 -1.0370
12687SOL    HW143191   5.175   5.116   6.915  1.0603 -0.0183  0.3792
12687SOL    HW243192   5.153   5.193   6.786  0.6605 -2.3936 -1.0031
12688SOL     OW43193   6.225  10.109   7.751  0.2944 -0.0859  0.1685
12688SOL    HW143194   6.259  10.020   7.757  0.5317  0.0896  1.9408
12688SOL    HW243195   6.256  10.142   7.667  2.8868 -0.6056  0.8771
12689SOL     OW43196   0.898   4.543   1.440 -0.2877  0.1119 -0.2436
12689SOL    HW143197   0.863   4.632   1.452  0.5935  0.5578 -0.9437
12689SOL    HW243198   0.943   4.523   1.522 -0.1177  0.4815 -0.2462
12690SOL     OW43199  10.878   9.863   1.570  0.3653 -0.0354 -0.1025
12690SOL    HW143200  10.869   9.949   1.528  0.5921  0.6559  1.2316
12690SOL    HW243201  10.927   9.881   1.650 -0.1424 -1.3213  0.5016
12691SOL     OW43202   7.024   3.311   6.233 -0.0293  0.3444 -0.0708
12691SOL    HW143203   7.025   3.304   6.137  1.8819 -0.8861  0.0212
12691SOL    HW243204   7.059   3.399   6.250  0.7158  0.1326 -0.4766
12692SOL     OW43205   4.694   0.675   4.195 -0.2961  0.0057 -0.4835
12692SOL    HW143206   4.661   0.758   4.231  0.5563  0.1520 -0.0243
12692SOL    HW243207   4.641   0.660   4.116  0.0054  1.3421 -0.9514
12693SOL     OW43208   8.298   3.258   6.756  0.0718 -0.4599 -0.1999
12693SOL    HW143209   8.205   3.249   6.777  0.2932  0.4877  1.2608
12693SOL    HW243210   8.341   3.189   6.805  0.2882  0.0076  0.2775
12694SOL     OW43211  11.001   0.246   1.623 -0.2646 -0.4344 -0.3348
12694SOL    HW143212  11.038   0.165   1.658  0.8916  0.3543  0.3048
12694SOL    HW243213  10.942   0.277   1.691 -0.3798 -0.5071 -0.4001
12695SOL     OW43214   8.598   4.631   6.874 -0.0351 -0.3675  0.5058
12695SOL    HW143215   8.600   4.603   6.966 -0.3465  1.6697  1.1681
12695SOL    HW243216   8.512   4.602   6.842 -0.6384  0.4170  1.3788
12696SOL     OW43217   9.387   9.711   1.919 -0.1866  0.1427  0.6106
12696SOL    HW143218   9.300   9.748   1.930 -0.8516 -1.1712 -0.1631
12696SOL    HW243219   9.420   9.699   2.008 -0.0860  2.2348  0.8942
12697SOL     OW43220   7.952   9.557   4.900 -0.2327 -0.0461 -0.2046
12697SOL    HW143221   8.040   9.586   4.877 -0.7810 -0.2685 -2.8287
12697SOL    HW243222   7.931   9.603   4.981  1.0929  2.5217 -1.2485
12698SOL     OW43223   0.722   2.227   9.138  0.2976 -0.1259  0.0715
12698SOL    HW143224   0.722   2.210   9.044  1.0133  1.1163 -0.1723
12698SOL    HW243225   0.813   2.212   9.165  0.2789  0.3432  0.4029
12699SOL     OW43226   3.979   7.691   0.693 -0.2426 -0.0873 -0.1174
12699SOL    HW143227   4.045   7.753   0.723 -0.0233 -0.7867  0.8620
12699SOL    HW243228   3.994   7.683   0.599  0.3363  0.6194 -0.0852
12700SOL     OW43229   2.903   7.069   4.929 -0.2871  0.1949 -0.6563
12700SOL    HW143230   2.955   6.995   4.899  1.1951  1.0853 -0.3046
12700SOL    HW243231   2.883   7.049   5.020 -1.5389 -0.6744 -1.0997
12701SOL     OW43232   3.534   9.571   9.820  0.0210 -0.5440  0.0200
12701SOL    HW143233   3.612   9.600   9.868 -0.0041 -0.0131 -0.2616
12701SOL    HW243234   3.471   9.548   9.888 -0.0967  0.4184  0.2444
12702SOL     OW43235   8.400   8.530  11.131 -0.9264  0.1150 -0.3555
12702SOL    HW143236   8.323   8.572  11.092 -1.0326  1.1413  0.9329
12702SOL    HW243237   8.397   8.440  11.097 -2.8288  0.0623 -0.1313
12703SOL     OW43238   6.406  11.040  10.712 -0.7228 -0.2638  0.2195
12703SOL    HW143239   6.337  10.975  10.699 -1.2630  0.3980 -0.2711
12703SOL    HW243240   6.402  11.095  10.634  0.2755 -0.1409  0.2513
12704SOL     OW43241   7.002   1.369  10.467  0.5200  0.1265 -0.3308
12704SOL    HW143242   7.095   1.390  10.460  0.4261  0.3083 -1.1000
12704SOL    HW243243   6.994   1.283  10.424  0.3886 -0.0473  0.0367
12705SOL     OW43244   5.365   3.681  10.578 -0.5290 -0.1719 -0.4121
12705SOL    HW143245   5.392   3.595  10.612 -2.1195 -0.5542 -0.0958
12705SOL    HW243246   5.300   3.712  10.641 -0.1854  1.1381 -0.6989
12706SOL     OW43247   0.426   8.308   0.122  0.1614 -0.0652 -0.4004
12706SOL    HW143248   0.474   8.226   0.110  1.2179  0.6295 -0.9751
12706SOL    HW243249   0.469   8.370   0.063  1.1194  1.6439  2.0169
12707SOL     OW43250   5.736   0.253   6.181  0.3940 -0.3693 -0.0123
12707SOL    HW143251   5.771   0.334   6.145  1.2771 -0.8261 -0.1977
12707SOL    HW243252   5.727   0.270   6.275 -0.1081  0.1817 -0.1588
12708SOL     OW43253   1.425   2.308   9.753  0.4974 -0.1506  0.3831
12708SOL    HW143254   1.470   2.230   9.783  0.5854 -0.3207 -0.1844
12708SOL    HW243255   1.451   2.376   9.815  0.0067 -0.6834  1.1812
12709SOL     OW43256  10.642   5.371   3.862  0.3627 -0.2654  0.0484
12709SOL    HW143257  10.559   5.415   3.881 -0.4865 -0.9696 -1.9855
12709SOL    HW243258  10.686   5.368   3.947 -1.0343  1.4355  0.8815
12710SOL     OW43259  10.406   8.783   1.700  0.1782 -0.3448  0.3390
12710SOL    HW143260  10.354   8.744   1.770  0.1477 -0.9647 -0.0277
12710SOL    HW243261  10.411   8.876   1.723  0.4650 -0.6083  1.3420
12711SOL     OW43262   2.947   1.792   6.616  0.0497 -0.0941  1.1289
12711SOL    HW143263   3.015   1.858   6.600 -0.8363  0.8480  1.2042
12711SOL    HW243264   2.976   1.715   6.567 -0.4674  1.3511 -1.5730
12712SOL     OW43265   5.722   0.967   7.226 -0.6303  0.2721  0.0528
12712SOL    HW143266   5.769   0.894   7.266 -2.4254 -0.6078  0.6246
12712SOL    HW243267   5.642   0.974   7.278 -0.9547  1.9720 -0.6681
12713SOL     OW43268   0.249  11.059   0.473 -0.1643 -0.2802  0.1212
12713SOL    HW143269   0.316  11.119   0.508 -1.6249  0.4380  1.7764
12713SOL    HW243270   0.238  11.087   0.383  1.0167  0.2781  0.1297
12714SOL     OW43271   9.515   8.189   9.783  0.2959  0.0457 -0.0100
12714SOL    HW143272   9.607   8.191   9.812 -0.2642  0.9492  1.7808
12714SOL    HW243273   9.512   8.255   9.713  0.5612  1.5828  1.3929
12715SOL     OW43274   8.565   3.995   2.648  0.2216  0.2400  0.0518
12715SOL    HW143275   8.547   3.906   2.619  0.9865 -0.1100  0.6280
12715SOL    HW243276   8.596   4.041   2.570  1.1715 -0.3840  0.0552
12716SOL     OW43277   9.734   3.817   8.090 -0.1925  0.5586 -0.3448
12716SOL    HW143278   9.815   3.864   8.109  0.0987  0.0041 -0.2311
12716SOL    HW243279   9.738   3.799   7.996  2.3179 -4.1351  0.5049
12717SOL     OW43280   0.630   5.589   1.973 -0.2654 -0.4622  0.7371
12717SOL    HW143281   0.547   5.562   2.012  0.6232 -0.7407  2.4766
12717SOL    HW243282   0.678   5.507   1.959  0.3859 -0.1753  1.2845
12718SOL     OW43283   4.630   3.656   3.291 -0.2491  0.3981 -0.5082
12718SOL    HW143284   4.647   3.609   3.210  2.2191  2.0280 -0.9901
12718SOL    HW243285   4.711   3.648   3.341 -0.2380  3.0083 -0.0487
12719SOL     OW43286   8.198   9.675   1.012 -0.5834 -0.3734 -0.2363
12719SOL    HW143287   8.262   9.745   0.999 -0.4900 -0.3225  0.4831
12719SOL    HW243288   8.113   9.716   0.996 -0.5593  0.0207  0.6695
12720SOL     OW43289   3.193  11.219   7.812  0.1484 -0.2369 -0.4702
12720SOL    HW143290   3.104  11.220   7.847  0.1124 -0.7713 -0.5333
12720SOL    HW243291   3.249  11.231   7.888 -0.0414  2.6237 -0.7301
12721SOL     OW43292   6.616   4.108   0.833 -0.5635 -0.1405 -0.2592
12721SOL    HW143293   6.611   4.162   0.754 -0.8139  0.6787  0.3177
12721SOL    HW243294   6.709   4.086   0.840 -0.4099  0.4777 -0.3144
12722SOL     OW43295   9.643   3.148   8.636  0.6113 -0.0728 -0.2735
12722SOL    HW143296   9.707   3.195   8.581 -0.0807 -0.4651 -1.4219
12722SOL    HW243297   9.635   3.202   8.714  4.0552 -1.1347  0.9214
12723SOL     OW43298   4.647   4.211   2.767 -0.3073  0.5331 -0.2532
12723SOL    HW143299   4.610   4.183   2.850  0.2112 -0.9711 -0.5160
12723SOL    HW243300   4.656   4.306   2.775  0.8416  0.2794  1.8489
12724SOL     OW43301  10.431   8.562   7.275  0.3738 -0.1798  0.1335
12724SOL    HW143302  10.415   8.470   7.300  0.4852 -0.1812  0.1993
12724SOL    HW243303  10.524   8.575   7.291  1.5154 -1.5664 -4.7893
12725SOL     OW43304  11.290   1.860   9.278  0.1436 -0.1109  0.1076
12725SOL    HW143305  11.288   1.949   9.242 -1.6363  0.0021  0.4399
12725SOL    HW243306  11.322   1.806   9.206 -2.0558  0.3039 -1.2193
12726SOL     OW43307   6.394   9.283  10.438 -0.0369 -0.5053 -1.1324
12726SOL    HW143308   6.480   9.317  10.463 -0.5747  1.3819 -1.7606
12726SOL    HW243309   6.341   9.292  10.518 -0.2473  0.4381 -1.3648
12727SOL     OW43310   9.074   3.543  11.315  0.6262 -0.2498  0.2317
12727SOL    HW143311   9.145   3.605  11.297 -0.1090  0.5310 -0.0554
12727SOL    HW243312   9.073   3.485  11.239  1.8487 -1.1287  0.8774
12728SOL     OW43313   2.372   7.928   3.283 -0.1908 -0.0646  0.3961
12728SOL    HW143314   2.300   7.969   3.332 -0.1181  0.1442  0.3302
12728SOL    HW243315   2.444   7.991   3.288 -0.3934  0.2545 -0.5245
12729SOL     OW43316   2.570   6.110   7.404  0.1025  0.1399  0.1246
12729SOL    HW143317   2.540   6.030   7.449 -0.7756  0.9538  1.0278
12729SOL    HW243318   2.650   6.084   7.359 -1.3552 -1.8323 -1.4336
12730SOL     OW43319   5.357   3.248   8.591 -0.5878 -0.1582  0.2763
12730SOL    HW143320   5.441   3.212   8.561 -0.3758  0.5754 -0.0177
12730SOL    HW243321   5.337   3.317   8.528 -0.8051  0.4978  1.0668
12731SOL     OW43322   5.714   0.092   0.614 -0.0573 -0.2019  0.5270
12731SOL    HW143323   5.734   0.034   0.688  0.1570 -0.3042  0.3902
12731SOL    HW243324   5.659   0.039   0.556 -1.7375  0.4834  1.4866
12732SOL     OW43325   5.683   5.613   8.339  0.2248  0.1323  0.3609
12732SOL    HW143326   5.656   5.532   8.383 -0.1291 -0.2074 -0.4621
12732SOL    HW243327   5.695   5.676   8.410 -1.6157 -0.0276  0.8341
12733SOL     OW43328   5.520   0.299   5.118  1.0189 -0.0193  0.0322
12733SOL    HW143329   5.445   0.253   5.155 -0.4187  1.0057 -1.5099
12733SOL    HW243330   5.560   0.236   5.058 -1.1565  0.7522 -2.3520
12734SOL     OW43331   5.856   1.195   9.691 -0.4228 -0.4624 -0.1077
12734SOL    HW143332   5.816   1.272   9.733 -1.9653 -0.2779 -1.8063
12734SOL    HW243333   5.782   1.136   9.676  0.4561 -1.4671 -0.4916
12735SOL     OW43334   4.063   6.345   9.382 -0.3067 -0.4271 -0.3264
12735SOL    HW143335   4.064   6.306   9.469 -0.2076  1.1048  0.3711
12735SOL    HW243336   4.067   6.270   9.322 -0.3776 -1.4886  0.9747
12736SOL     OW43337   7.214   7.409   9.088  0.2318 -0.3210  0.2134
12736SOL    HW143338   7.304   7.439   9.103  0.6011 -1.0543 -0.4655
12736SOL    HW243339   7.181   7.468   9.019  0.7607 -1.0853 -0.7104
12737SOL     OW43340   4.306   5.077   3.766 -0.1164  0.1711 -0.2291
12737SOL    HW143341   4.271   5.038   3.846  0.5008 -1.2190 -0.6251
12737SOL    HW243342   4.229   5.105   3.717 -0.5210  0.4997  0.5861
12738SOL     OW43343   8.018   3.482   3.757  0.3086 -0.4896  0.0362
12738SOL    HW143344   8.005   3.416   3.689 -0.5172 -0.5431  0.2389
12738SOL    HW243345   8.005   3.566   3.712 -0.1418 -0.5216  0.1054
12739SOL     OW43346   4.594   4.022   0.904  0.2998  0.3968 -0.4243
12739SOL    HW143347   4.682   3.988   0.886  0.4859  0.7685 -0.2378
12739SOL    HW243348   4.597   4.048   0.996 -0.6527 -1.5285  0.1666
12740SOL     OW43349   5.468   0.825   7.991 -0.1624 -0.8160 -0.0118
12740SOL    HW143350   5.374   0.818   7.976 -0.3199 -1.0134  1.0289
12740SOL    HW243351   5.476   0.892   8.059  0.2804 -2.5254  1.6531
12741SOL     OW43352   0.465   1.737   4.522 -0.0594  0.1437 -0.4018
12741SOL    HW143353   0.373   1.752   4.543  0.3402  2.3013 -0.1550
12741SOL    HW243354   0.479   1.644   4.541 -1.8604  0.0912  0.7321
12742SOL     OW43355   9.569   0.682   7.138  0.1210  1.0077  0.0302
12742SOL    HW143356   9.564   0.738   7.060  0.0038 -3.3178 -3.2889
12742SOL    HW243357   9.478   0.659   7.158  0.2365  1.0354  0.5913
12743SOL     OW43358  10.345   3.603   3.206  0.1214  0.0566  0.4640
12743SOL    HW143359  10.366   3.694   3.228 -0.0669 -0.3026  2.2603
12743SOL    HW243360  10.420   3.552   3.236  0.8367 -0.2676 -1.7844
12744SOL     OW43361   2.697   9.013   8.822  0.0493  0.3114 -0.2587
12744SOL    HW143362   2.624   8.988   8.880  1.4903 -0.3736  1.2896
12744SOL    HW243363   2.663   8.998   8.734 -1.3621 -0.9318  0.4715
12745SOL     OW43364   0.824   5.548  10.872 -0.3866 -0.0598 -0.1390
12745SOL    HW143365   0.800   5.607  10.800 -0.1069  0.3014  0.0637
12745SOL    HW243366   0.900   5.589  10.912 -1.9197  0.9460  1.8034
12746SOL     OW43367  10.782   5.572   8.547  0.0826  0.0662 -0.6853
12746SOL    HW143368  10.721   5.645   8.536 -0.0339  0.0636 -0.0778
12746SOL    HW243369  10.742   5.500   8.499  1.1326  0.9221 -2.9161
12747SOL     OW43370   6.556   4.428   9.855  0.2924  0.2846  0.2078
12747SOL    HW143371   6.477   4.463   9.815  1.7074  0.9447 -2.1421
12747SOL    HW243372   6.562   4.339   9.822  0.5330  0.2442  0.3638
12748SOL     OW43373   9.428  10.785   9.601 -0.5291 -0.0500 -0.2718
12748SOL    HW143374   9.482  10.711   9.627  1.5861  0.9031 -1.7700
12748SOL    HW243375   9.398  10.763   9.513 -1.3309  0.1363 -0.0549
12749SOL     OW43376   5.930   9.133   1.371  0.1121  0.0722  0.2351
12749SOL    HW143377   5.909   9.137   1.278  0.5811  0.6738  0.1539
12749SOL    HW243378   5.881   9.206   1.410  0.8493  0.5530  0.2735
12750SOL     OW43379   2.318   9.188   2.958 -0.5463  0.1061  0.8673
12750SOL    HW143380   2.325   9.212   3.050 -0.6677 -0.0072  0.9061
12750SOL    HW243381   2.355   9.263   2.910 -1.0930  0.4464  0.9807
12751SOL     OW43382   0.724   3.463   6.062  0.4160 -0.2688  0.0483
12751SOL    HW143383   0.789   3.525   6.027  2.0206 -1.3402  1.0619
12751SOL    HW243384   0.681   3.511   6.132  0.5341  0.2555 -0.2343
12752SOL     OW43385   1.519   4.946   9.006 -0.1196 -0.3486  0.1513
12752SOL    HW143386   1.486   4.892   9.077  0.5708 -0.1947  0.5933
12752SOL    HW243387   1.595   4.991   9.043  0.6926 -0.8352 -0.9110
12753SOL     OW43388   3.133   0.854   3.765  0.5727  0.0011 -0.0108
12753SOL    HW143389   3.116   0.914   3.693  2.8676  0.7089 -0.0162
12753SOL    HW243390   3.050   0.810   3.781  0.3006 -0.9956 -3.8434
12754SOL     OW43391   1.025   3.011  11.291  0.3132  0.7601 -0.0703
12754SOL    HW143392   1.069   3.095  11.306  0.0355  0.7607  0.7547
12754SOL    HW243393   1.004   3.011  11.198  0.8449  1.3538 -0.1920
12755SOL     OW43394   4.817   2.311   9.326  0.3518  0.1627 -0.3099
12755SOL    HW143395   4.724   2.307   9.305 -0.3952 -1.0442  2.9378
12755SOL    HW243396   4.854   2.230   9.290 -0.2398 -0.2797  0.0809
12756SOL     OW43397   5.005   0.612   4.724  0.0064 -0.3847  0.4828
12756SOL    HW143398   4.987   0.700   4.691 -0.0318 -0.9896 -1.1947
12756SOL    HW243399   4.920   0.580   4.756 -0.3315 -0.3999 -0.4029
12757SOL     OW43400   4.952   7.398  10.225 -0.5575  0.1611 -0.6650
12757SOL    HW143401   4.905   7.477  10.198 -1.1303  0.5252  1.2768
12757SOL    HW243402   5.042   7.427  10.240 -0.8843  0.5987  0.5625
12758SOL     OW43403   2.367   0.732   9.261 -0.6178  0.4519 -0.1682
12758SOL    HW143404   2.433   0.797   9.286 -0.3607  0.6475 -1.3340
12758SOL    HW243405   2.289   0.784   9.243 -0.5863  0.3844 -0.5008
12759SOL     OW43406   4.234   4.961   0.885 -0.1447 -0.1017 -0.3769
12759SOL    HW143407   4.308   4.980   0.943 -1.7369 -0.3456  1.7864
12759SOL    HW243408   4.256   4.878   0.843 -0.5369 -1.7219  2.5569
12760SOL     OW43409   6.086   0.218   0.367 -0.6112 -0.1290  0.1011
12760SOL    HW143410   5.993   0.217   0.345 -0.1960  0.6757 -1.7539
12760SOL    HW243411   6.117   0.130   0.345 -0.5377  0.1877 -1.0880
12761SOL     OW43412   6.944   9.442   0.818 -0.0824 -0.2152  0.0329
12761SOL    HW143413   6.894   9.406   0.891  0.3143 -2.0208 -0.5453
12761SOL    HW243414   6.901   9.407   0.740  0.1220  0.8499 -0.5700
12762SOL     OW43415   9.532   4.335   7.639 -0.1303  0.3243 -0.4550
12762SOL    HW143416   9.532   4.276   7.714  0.9282  0.8113 -0.0720
12762SOL    HW243417   9.624   4.350   7.620 -0.3783  2.6522  0.0648
12763SOL     OW43418   9.340   5.315  10.878  0.2103  0.6451 -0.4048
12763SOL    HW143419   9.321   5.245  10.816 -2.5909 -0.5940  1.7260
12763SOL    HW243420   9.379   5.270  10.953 -0.5336  1.4836  0.4956
12764SOL     OW43421   8.124  10.138   3.748 -0.7449  0.2192  0.2230
12764SOL    HW143422   8.074  10.154   3.828 -2.9821  0.7297 -1.2150
12764SOL    HW243423   8.118  10.043   3.736 -3.0823  0.4562 -0.9336
12765SOL     OW43424  10.322   8.459   9.981 -0.1768  0.0668  0.4638
12765SOL    HW143425  10.308   8.507   9.900  2.4572  2.2346  1.2238
12765SOL    HW243426  10.239   8.414   9.998 -1.6946  1.9267 -1.8604
12766SOL     OW43427   9.116   6.955   6.113  0.1747  0.1965 -0.1786
12766SOL    HW143428   9.198   7.003   6.099 -0.9353  1.7439 -1.6689
12766SOL    HW243429   9.140   6.863   6.101  1.6843  0.6314 -0.6285
12767SOL     OW43430   7.087   0.656   6.416 -0.3788 -0.3805  0.3668
12767SOL    HW143431   7.032   0.618   6.485 -0.5892 -2.4540 -0.8692
12767SOL    HW243432   7.044   0.737   6.392 -1.4651 -0.6939  1.2315
12768SOL     OW43433   7.772   5.886   2.002 -0.2822 -0.0979  0.4746
12768SOL    HW143434   7.709   5.838   1.948  1.5705 -1.5810 -0.4317
12768SOL    HW243435   7.800   5.823   2.069  1.7976 -0.1676 -0.4206
12769SOL     OW43436   4.738   2.297   1.550  0.1585  0.6374 -0.2680
12769SOL    HW143437   4.689   2.221   1.520  0.3027  0.5808 -0.3631
12769SOL    HW243438   4.815   2.300   1.493  1.8609 -1.0827  1.8023
12770SOL     OW43439   0.776   6.995   3.292 -0.5771  0.2013  0.0282
12770SOL    HW143440   0.718   7.020   3.220 -0.1536 -2.8048 -1.4684
12770SOL    HW243441   0.845   7.061   3.292 -2.7659  2.5356  0.3410
12771SOL     OW43442   3.131   4.113   6.156 -0.5747  0.8879 -0.8112
12771SOL    HW143443   3.100   4.039   6.209  0.2312  0.2360 -1.2315
12771SOL    HW243444   3.132   4.079   6.066  0.3842  1.2055 -0.9270
12772SOL     OW43445   2.062   2.670   3.803  0.3287  0.1882 -0.0121
12772SOL    HW143446   2.102   2.640   3.721  1.8054  0.4859  0.5854
12772SOL    HW243447   1.982   2.619   3.810  1.0369 -1.0585 -0.8019
12773SOL     OW43448   1.358   5.671   4.700  0.2414 -0.4718 -1.1056
12773SOL    HW143449   1.389   5.623   4.777  0.1780 -0.1861 -0.9019
12773SOL    HW243450   1.397   5.624   4.626  0.4039 -0.6737 -0.8952
12774SOL     OW43451   9.913   2.344   2.380  0.4811  0.1585  0.7128
12774SOL    HW143452   9.865   2.409   2.430  0.0546 -1.5970  2.6515
12774SOL    HW243453   9.993   2.389   2.352 -0.5485  1.9785  0.6329
12775SOL     OW43454   3.092   8.146   2.591  0.0407 -0.4596  0.2737
12775SOL    HW143455   3.138   8.081   2.644 -1.3578  0.6854  3.0734
12775SOL    HW243456   3.001   8.116   2.591 -0.2736  0.4712  0.0201
12776SOL     OW43457   7.433   0.634   2.084  0.3601 -0.8780 -0.0579
12776SOL    HW143458   7.500   0.586   2.036  2.0427 -0.1683  1.5396
12776SOL    HW243459   7.353   0.582   2.072  1.5556 -2.6210 -0.5830
12777SOL     OW43460   9.540   6.792   7.187  0.9237  0.0516  0.3920
12777SOL    HW143461   9.494   6.874   7.170  1.9182  0.5995  0.2752
12777SOL    HW243462   9.522   6.773   7.280  2.1128  1.3365  0.9087
12778SOL     OW43463  10.309  10.789  11.182  0.3036 -0.1202  0.5706
12778SOL    HW143464  10.254  10.848  11.233 -0.2806 -0.5786  0.4777
12778SOL    HW243465  10.273  10.793  11.093  0.3394 -0.5113  0.5347
12779SOL     OW43466   4.869   2.420  11.296  0.8681  0.1763 -0.0411
12779SOL    HW143467   4.837   2.396  11.209  1.4336 -0.9069  0.0460
12779SOL    HW243468   4.904   2.339  11.333  2.7302  1.0970  0.2930
12780SOL     OW43469  11.087   1.238   7.390  0.1434  0.4911 -0.1990
12780SOL    HW143470  10.996   1.263   7.374  0.5290  1.7468 -0.5002
12780SOL    HW243471  11.119   1.209   7.304 -0.4142 -1.4576  0.2273
12781SOL     OW43472   6.807   4.464   3.038 -0.5847 -0.6500  0.1890
12781SOL    HW143473   6.717   4.453   3.009 -0.8342  0.7803  0.3867
12781SOL    HW243474   6.813   4.556   3.066  0.7435 -0.9048  0.8133
12782SOL     OW43475   0.693  10.386   2.388 -0.8317  0.7486 -0.0346
12782SOL    HW143476   0.639  10.447   2.438 -1.4795  1.4342 -1.5344
12782SOL    HW243477   0.779  10.428   2.383 -1.5180  1.9714 -1.8155
12783SOL     OW43478  10.287  10.346  10.992  0.4880  0.2975 -0.3695
12783SOL    HW143479  10.244  10.415  10.941 -1.2952 -1.3206 -1.1458
12783SOL    HW243480  10.364  10.323  10.941 -0.6465 -0.4801 -1.7713
12784SOL     OW43481   8.479   9.671   9.263  0.9276  0.0806  0.5621
12784SOL    HW143482   8.445   9.625   9.340  2.4363 -2.4083 -0.1913
12784SOL    HW243483   8.563   9.706   9.291  0.6736  0.7164  0.5481
12785SOL     OW43484   6.684   2.023   5.142 -0.1729  0.0630 -0.4079
12785SOL    HW143485   6.592   2.050   5.153 -0.6965 -0.0345 -3.8667
12785SOL    HW243486   6.723   2.093   5.090  1.7248  0.0735  1.0081
12786SOL     OW43487   0.330   8.839   7.894 -0.5378 -0.1271  0.4206
12786SOL    HW143488   0.406   8.896   7.895  0.3367 -1.2632 -0.1958
12786SOL    HW243489   0.323   8.805   7.983  0.6830 -1.3176  0.0771
12787SOL     OW43490   0.256   3.256   8.380  0.6812 -0.0411 -0.4353
12787SOL    HW143491   0.260   3.349   8.405  0.3497 -0.3085  0.6642
12787SOL    HW243492   0.221   3.257   8.291  1.6517  0.9441 -0.8153
12788SOL     OW43493   2.221   7.615  10.691  0.7283  0.2925 -0.0241
12788SOL    HW143494   2.218   7.651  10.603  0.4945  0.7032  0.1494
12788SOL    HW243495   2.235   7.521  10.679 -0.6182  0.1580 -0.5307
12789SOL     OW43496   2.012   1.273   3.604  0.3179  0.4969 -0.0062
12789SOL    HW143497   2.042   1.254   3.693 -1.0342 -1.3335  0.0765
12789SOL    HW243498   1.956   1.350   3.614 -0.8614 -0.4592  0.9461
12790SOL     OW43499   7.868   6.658   3.712  0.1570 -0.4819 -0.1609
12790SOL    HW143500   7.956   6.630   3.689  0.9072  1.8390 -0.3007
12790SOL    HW243501   7.835   6.701   3.632  0.3170  1.8786  1.0016
12791SOL     OW43502   8.113   2.152   3.432  0.0932  0.8867 -0.6144
12791SOL    HW143503   8.132   2.240   3.401 -0.0601  1.1143 -0.0639
12791SOL    HW243504   8.199   2.110   3.439  0.3035  1.5127  0.6653
12792SOL     OW43505   8.134   9.867   3.747  0.4722 -0.8887 -0.0935
12792SOL    HW143506   8.156   9.782   3.786  0.9123 -0.8287 -0.2010
12792SOL    HW243507   8.047   9.854   3.709 -0.8609 -0.3299  2.6566
12793SOL     OW43508  11.205  10.874   5.339  0.2062  0.2915  0.2779
12793SOL    HW143509  11.155  10.873   5.421 -1.2818  0.2968 -0.6057
12793SOL    HW243510  11.175  10.796   5.292  1.3431  0.0746 -0.0888
12794SOL     OW43511   4.993   7.581  10.545 -0.3642 -0.4801  0.4953
12794SOL    HW143512   5.069   7.612  10.495 -0.1066 -1.5920  0.1935
12794SOL    HW243513   5.012   7.608  10.635  1.1342 -2.1009  0.6889
12795SOL     OW43514   2.626   7.899  10.047  0.2920  0.3774  0.0930
12795SOL    HW143515   2.679   7.978  10.034 -0.6120  1.0200  0.3066
12795SOL    HW243516   2.597   7.875   9.959  0.5813  0.2673  0.0268
12796SOL     OW43517   7.257   6.078  10.624 -0.1436 -0.2598  0.6340
12796SOL    HW143518   7.290   6.105  10.538 -0.4949  0.5238  0.7465
12796SOL    HW243519   7.184   6.018  10.605 -1.4390  1.3760  0.3757
12797SOL     OW43520   0.116   5.727   1.615 -0.7465 -0.3604  0.2554
12797SOL    HW143521   0.135   5.687   1.530  0.5622 -2.3767  1.4435
12797SOL    HW243522   0.071   5.658   1.664 -2.8724  1.3007  0.6864
12798SOL     OW43523   7.994   0.537  11.002 -0.2359  0.0607 -0.5573
12798SOL    HW143524   7.927   0.469  10.988  0.7556 -1.0653  0.0445
12798SOL    HW243525   8.073   0.488  11.026  0.3847  1.4577  0.3148
12799SOL     OW43526   6.807   5.542   5.685 -0.1664 -0.3667 -0.7908
12799SOL    HW143527   6.768   5.479   5.746 -0.4808  0.4288 -0.1671
12799SOL    HW243528   6.901   5.533   5.699 -0.2016 -0.7672 -0.7823
12800SOL     OW43529   9.880  10.894   8.313  0.3476  0.2822  0.3009
12800SOL    HW143530   9.799  10.855   8.347  0.6763 -0.5112  0.1834
12800SOL    HW243531   9.861  10.914   8.221  0.8571 -1.5681 -0.2285
12801SOL     OW43532   6.901   8.958   3.671 -0.3884 -0.0353 -0.0192
12801SOL    HW143533   6.861   9.043   3.651 -1.0809 -0.2789  0.2922
12801SOL    HW243534   6.956   8.939   3.595 -1.1052  0.1707 -0.5990
12802SOL     OW43535   9.808   8.066   9.513 -0.0573  0.3006  0.9761
12802SOL    HW143536   9.896   8.100   9.529  1.0460 -1.5070 -1.0354
12802SOL    HW243537   9.782   8.027   9.596  2.1067 -1.4024  0.9019
12803SOL     OW43538   8.229   2.742   7.790  0.1600 -0.4363 -0.1292
12803SOL    HW143539   8.249   2.657   7.830 -1.3119  0.1195  1.8334
12803SOL    HW243540   8.314   2.782   7.775  0.7858 -1.2985  1.0508
12804SOL     OW43541   6.068  11.165   7.155  0.3312 -0.0468 -0.0674
12804SOL    HW143542   6.118  11.086   7.177  0.4961  0.1587  0.2979
12804SOL    HW243543   5.982  11.150   7.194 -1.4209 -2.3814 -4.4463
12805SOL     OW43544   9.683   9.608   7.806 -0.0405  0.0171  0.1965
12805SOL    HW143545   9.736   9.638   7.732 -0.6270  0.1719 -0.1599
12805SOL    HW243546   9.593   9.623   7.779 -0.4006 -3.1820 -0.4508
12806SOL     OW43547   3.007   8.030   1.259  0.3112  0.2501  0.0389
12806SOL    HW143548   3.069   8.096   1.292  1.7058 -0.4894 -1.0666
12806SOL    HW243549   3.061   7.953   1.243 -1.0130 -0.6013 -0.3618
12807SOL     OW43550   7.417   2.305   6.421 -0.2335  0.1560 -0.2454
12807SOL    HW143551   7.326   2.284   6.397 -0.5256 -0.2283  1.1292
12807SOL    HW243552   7.463   2.313   6.337 -1.2183 -1.0698 -0.9224
12808SOL     OW43553   7.108   2.578   9.191 -0.2370 -0.1107  0.0910
12808SOL    HW143554   7.166   2.534   9.253  1.8433 -0.4244 -1.9916
12808SOL    HW243555   7.055   2.508   9.152 -2.2319  0.2012  2.1490
12809SOL     OW43556   8.334  11.257   0.114  0.3526  0.6820  0.0568
12809SOL    HW143557   8.416  11.301   0.137 -0.1418  0.8152  1.5736
12809SOL    HW243558   8.274  11.329   0.091  0.0477  0.7047  0.9209
12810SOL     OW43559   0.240   2.684   3.110  0.0224 -0.5064  0.0965
12810SOL    HW143560   0.184   2.611   3.083  1.5649 -1.5320 -0.3932
12810SOL    HW243561   0.242   2.678   3.206 -1.0082 -0.2136  0.1505
12811SOL     OW43562   4.115   6.387   6.215 -0.3882 -0.1421 -0.4992
12811SOL    HW143563   4.089   6.399   6.306  0.7403 -0.2859 -0.1518
12811SOL    HW243564   4.048   6.434   6.165 -1.4261 -0.6772  0.3516
12812SOL     OW43565  10.496   1.528   3.950 -0.3090  0.3456 -0.4614
12812SOL    HW143566  10.477   1.434   3.950  0.1245  0.2565 -0.1703
12812SOL    HW243567  10.414   1.569   3.979 -0.6966  0.1024 -1.2082
12813SOL     OW43568   5.103   0.063   7.669 -0.7546  0.1323  0.5046
12813SOL    HW143569   5.139  -0.011   7.620  1.6152  2.3093 -1.1712
12813SOL    HW243570   5.177   0.096   7.720 -1.3669  2.2471  0.0672
12814SOL     OW43571   7.193   7.448  10.371 -0.3322 -0.4140  0.1250
12814SOL    HW143572   7.275   7.412  10.336 -0.0222  0.4135 -0.0177
12814SOL    HW243573   7.219   7.491  10.452 -0.7906 -0.9734  0.5727
12815SOL     OW43574   2.060   4.475   7.925 -0.5286 -0.2824  0.1983
12815SOL    HW143575   2.035   4.559   7.964 -1.3989 -0.1384 -0.6501
12815SOL    HW243576   1.984   4.419   7.939 -0.4814 -0.5089 -0.4637
12816SOL     OW43577   7.529  11.040   4.492 -0.1736 -0.7839 -0.8990
12816SOL    HW143578   7.458  10.981   4.520 -0.7959 -0.5268 -1.9123
12816SOL    HW243579   7.605  10.984   4.482  0.1085 -0.8700  1.4386
12817SOL     OW43580   7.517   9.585  11.234 -0.3061 -0.3642  0.3581
12817SOL    HW143581   7.458   9.649  11.274  0.4922 -0.7780  2.2171
12817SOL    HW243582   7.601   9.598  11.278  0.5523 -0.9439 -1.0707
12818SOL     OW43583   5.627   9.544   1.548 -0.1255  0.0432  0.0647
12818SOL    HW143584   5.586   9.563   1.464 -0.2597  0.0786  0.1378
12818SOL    HW243585   5.571   9.478   1.589  0.8752 -1.2360 -0.6000
12819SOL     OW43586   2.728   6.148   7.045  0.1863 -0.1384 -0.1380
12819SOL    HW143587   2.749   6.125   7.136  0.0688 -0.2023 -0.1278
12819SOL    HW243588   2.732   6.244   7.044  0.8810 -0.1668 -0.2286
12820SOL     OW43589   9.047   2.786   3.885 -0.0593 -0.4297  0.4585
12820SOL    HW143590   9.066   2.694   3.902 -0.5325 -0.3253  1.5542
12820SOL    HW243591   8.952   2.794   3.897 -0.1939 -0.0414 -0.7702
12821SOL     OW43592   3.515   6.589   0.751 -0.2403 -0.5982  0.0477
12821SOL    HW143593   3.435   6.579   0.699 -0.2750  1.7345 -0.4250
12821SOL    HW243594   3.485   6.622   0.835  0.2637  1.1000 -0.4177
12822SOL     OW43595   0.331   1.258   7.362  0.1339  0.1648 -0.3594
12822SOL    HW143596   0.418   1.257   7.403  0.0379 -0.7869 -0.1813
12822SOL    HW243597   0.342   1.211   7.279  0.3111  2.0272 -1.4264
12823SOL     OW43598   0.446   3.950  11.220  0.4018 -0.1206 -0.4100
12823SOL    HW143599   0.514   3.894  11.181 -0.2124 -1.6289  0.6255
12823SOL    HW243600   0.435   3.916  11.309 -1.8794 -0.0660 -0.6418
12824SOL     OW43601  11.243   1.701   0.422  0.0925  0.0530 -0.0279
12824SOL    HW143602  11.184   1.762   0.379  0.1980 -0.0119 -0.2634
12824SOL    HW243603  11.313   1.755   0.456  1.6510 -0.2297 -2.6632
12825SOL     OW43604   4.510   5.866  10.924  0.5326 -0.5427  0.1591
12825SOL    HW143605   4.539   5.942  10.873 -0.3131 -0.8845 -0.8370
12825SOL    HW243606   4.518   5.894  11.015  2.7857 -0.1847 -0.1056
12826SOL     OW43607   2.440   7.719   9.003 -0.5529 -0.2500 -0.5396
12826SOL    HW143608   2.479   7.801   9.033 -0.0782  0.1770 -2.2448
12826SOL    HW243609   2.348   7.725   9.027 -0.2200  0.1383  0.6486
12827SOL     OW43610   9.372   6.196  10.137  0.1088  0.2742 -0.3745
12827SOL    HW143611   9.325   6.193  10.220  1.5801 -1.4645  0.4374
12827SOL    HW243612   9.310   6.162  10.072 -0.5450  0.2154  0.2817
12828SOL     OW43613   9.851   9.281   7.997 -0.6279  0.3487 -0.0658
12828SOL    HW143614   9.892   9.256   7.914  1.4858 -1.3813  1.4446
12828SOL    HW243615   9.851   9.377   7.996  1.9219  0.3691 -0.8845
12829SOL     OW43616  10.465   5.552   9.820  0.0723  0.8663  0.3237
12829SOL    HW143617  10.400   5.484   9.805 -0.4975  1.2527  1.0615
12829SOL    HW243618  10.485   5.547   9.913  0.5286  1.2552  0.2494
12830SOL     OW43619   8.123   8.552   1.069  0.1388  0.2489 -0.4927
12830SOL    HW143620   8.208   8.513   1.088 -0.7724 -0.9986  1.0964
12830SOL    HW243621   8.080   8.560   1.154 -1.0193  1.6500 -1.1745
12831SOL     OW43622   7.278   0.916   0.432  0.2225 -0.0595 -0.4713
12831SOL    HW143623   7.255   1.001   0.468  1.4883 -0.6748  1.9285
12831SOL    HW243624   7.347   0.934   0.368  0.4629  0.7387  0.0098
12832SOL     OW43625   0.474   9.049   2.128  0.0867 -0.4612 -0.3190
12832SOL    HW143626   0.495   9.012   2.043  0.1115  0.0945 -0.5598
12832SOL    HW243627   0.556   9.046   2.177 -0.3017 -2.2646  0.2630
12833SOL     OW43628   9.796   0.459   5.874 -0.2599 -0.0631  0.2248
12833SOL    HW143629   9.731   0.431   5.810 -0.7471  0.4192  0.5021
12833SOL    HW243630   9.800   0.388   5.938 -1.6332  0.5696  1.0346
12834SOL     OW43631   1.206   3.836   4.198 -0.3550  0.6081  0.9388
12834SOL    HW143632   1.120   3.793   4.200 -0.0845 -0.0924 -1.0065
12834SOL    HW243633   1.267   3.768   4.228 -0.2179  0.3409  0.0893
12835SOL     OW43634   5.827   0.708   4.279  0.2062 -0.1782  0.2908
12835SOL    HW143635   5.778   0.786   4.256  0.9766 -0.2052 -1.4968
12835SOL    HW243636   5.769   0.660   4.339 -1.6639  0.1047 -1.2594
12836SOL     OW43637   2.197   7.125   5.758 -0.4554 -0.1690  0.0972
12836SOL    HW143638   2.203   7.189   5.828  0.7100 -0.0912 -0.0529
12836SOL    HW243639   2.151   7.170   5.687 -0.7042  0.1038  0.4367
12837SOL     OW43640   0.914   4.315   9.642 -0.4655  0.1039 -0.1816
12837SOL    HW143641   1.004   4.286   9.629 -0.3306  0.9315 -1.1819
12837SOL    HW243642   0.861   4.240   9.615 -0.0947  0.2058 -1.2271
12838SOL     OW43643   7.518   8.169   2.943  0.0860 -0.1744 -0.1360
12838SOL    HW143644   7.517   8.263   2.959  0.3594 -0.1239 -0.3952
12838SOL    HW243645   7.442   8.153   2.888 -1.1738 -0.4281  1.6468
12839SOL     OW43646  11.046   7.117   0.842  0.0451 -0.3580  0.1790
12839SOL    HW143647  11.053   7.090   0.933 -0.7558  0.1464  0.3946
12839SOL    HW243648  10.965   7.076   0.811 -0.3180  0.4463  0.0456
12840SOL     OW43649  11.191   6.871   1.840 -0.3852  0.0642  0.1448
12840SOL    HW143650  11.250   6.801   1.810 -0.8138  0.0377 -0.6429
12840SOL    HW243651  11.144   6.897   1.761 -1.2331  0.2794  0.7246
12841SOL     OW43652   4.861   4.873   0.094 -0.4868  0.1091  0.5859
12841SOL    HW143653   4.917   4.819   0.039 -2.1000 -1.2438  0.2165
12841SOL    HW243654   4.893   4.962   0.081  1.4329 -0.6108  0.2470
12842SOL     OW43655   6.478   2.311  11.092  0.1850 -0.4930 -0.5125
12842SOL    HW143656   6.569   2.325  11.064 -0.1479  1.2561 -0.7879
12842SOL    HW243657   6.476   2.220  11.123  1.8866 -0.7287 -1.0303
12843SOL     OW43658   4.280   7.706  11.093 -0.1633 -0.4244  0.1955
12843SOL    HW143659   4.308   7.615  11.081 -1.1412 -0.5713 -1.1623
12843SOL    HW243660   4.327   7.755  11.026  1.2247  0.2744  1.6563
12844SOL     OW43661  11.164   5.450   5.780  0.4095  0.0522  0.7287
12844SOL    HW143662  11.233   5.419   5.721  0.7577 -0.4217  1.3751
12844SOL    HW243663  11.201   5.439   5.868  0.0563  1.1415  1.0234
12845SOL     OW43664  10.459   5.233   2.069 -0.4002  0.2015 -0.6783
12845SOL    HW143665  10.464   5.145   2.032 -0.6158  0.4470 -1.3095
12845SOL    HW243666  10.383   5.230   2.127 -0.4946  0.0088 -0.8097
12846SOL     OW43667   8.336  10.832   8.172  0.1292  0.0429  0.0264
12846SOL    HW143668   8.300  10.758   8.221 -0.5941  0.3569 -0.0268
12846SOL    HW243669   8.339  10.802   8.081 -1.6753  0.6255 -0.2511
12847SOL     OW43670   6.462   0.493   8.035 -0.2011 -0.3617 -0.6551
12847SOL    HW143671   6.493   0.568   8.086  0.6474  0.3971 -2.2145
12847SOL    HW243672   6.524   0.423   8.055  0.0541 -0.1043 -0.5362
12848SOL     OW43673  10.017   8.217   7.444  0.6159 -0.8829 -0.3100
12848SOL    HW143674   9.970   8.181   7.520 -0.6588 -0.6201 -0.9731
12848SOL    HW243675  10.041   8.305   7.471 -0.7832 -0.4046 -0.6094
12849SOL     OW43676   0.842   7.018   6.156 -0.7462  0.7266  0.4399
12849SOL    HW143677   0.788   6.942   6.134 -0.9516  0.6513  1.1926
12849SOL    HW243678   0.866   7.056   6.071  0.8514 -1.2212 -0.0297
12850SOL     OW43679   3.556   1.607   6.180 -0.2981  0.4225  0.2092
12850SOL    HW143680   3.513   1.524   6.199  0.7756 -0.1371  0.2253
12850SOL    HW243681   3.646   1.583   6.159  0.3063  1.6845  1.2895
12851SOL     OW43682   9.401   0.177   4.365  0.4147  0.0156  0.6932
12851SOL    HW143683   9.481   0.126   4.353  0.5252  0.7925 -2.1375
12851SOL    HW243684   9.424   0.242   4.431  1.7441 -0.5275  0.7750
12852SOL     OW43685   4.413  10.463   8.110 -0.0912 -0.4561 -0.1931
12852SOL    HW143686   4.412  10.368   8.120 -0.4700 -0.3110  1.2146
12852SOL    HW243687   4.323  10.491   8.128  0.5380  0.3856  1.8068
12853SOL     OW43688  10.781   2.213  10.173  0.1095 -0.2401  0.1289
12853SOL    HW143689  10.686   2.202  10.172  0.1111 -0.2276 -0.0084
12853SOL    HW243690  10.802   2.256  10.090  0.3493 -1.1880 -0.3076
12854SOL     OW43691   7.289   0.461   6.177  0.2216  0.0783  0.5233
12854SOL    HW143692   7.270   0.402   6.250  0.0742 -1.1348 -0.4839
12854SOL    HW243693   7.268   0.410   6.099 -1.8849  2.1306 -0.3313
12855SOL     OW43694   2.951   1.475  10.169  0.0544  0.4004  0.1609
12855SOL    HW143695   2.986   1.553  10.128 -0.4194  0.0930 -0.8435
12855SOL    HW243696   2.984   1.478  10.259 -2.2852  3.2377  0.9890
12856SOL     OW43697   4.966   3.919   6.111 -0.0602 -0.1995  0.3054
12856SOL    HW143698   4.907   3.864   6.162  0.2742 -0.5568  0.3141
12856SOL    HW243699   4.969   3.877   6.025  0.7451 -0.5985  0.5225
12857SOL     OW43700   7.028  11.284   7.581  0.2457 -0.4863 -0.0165
12857SOL    HW143701   7.012  11.334   7.661  2.3862  1.9466 -1.0504
12857SOL    HW243702   7.116  11.248   7.593  0.9102  0.5669 -1.5906
12858SOL     OW43703   2.329   7.225   9.409 -0.4595  0.7033  0.8100
12858SOL    HW143704   2.304   7.299   9.464  1.3662  1.0952  1.1226
12858SOL    HW243705   2.398   7.180   9.458  0.1760  0.2166 -0.4981
12859SOL     OW43706   5.756  10.678   8.451  0.1505  0.7312  0.0752
12859SOL    HW143707   5.670  10.641   8.432  0.4067  0.1968 -0.0620
12859SOL    HW243708   5.746  10.772   8.434 -0.4999  0.7232  0.4157
12860SOL     OW43709   4.297   6.257  10.704  0.0596 -0.0374  0.4790
12860SOL    HW143710   4.299   6.191  10.635  1.0531  2.1174 -1.6284
12860SOL    HW243711   4.273   6.338  10.659 -4.8976  0.4151  3.6230
12861SOL     OW43712   2.260   9.941   4.533 -0.5249 -0.0472  0.1938
12861SOL    HW143713   2.277   9.954   4.440 -0.3347 -0.6764  0.1367
12861SOL    HW243714   2.184   9.996   4.551 -1.0825 -0.5664 -0.5216
12862SOL     OW43715   7.906   2.111   2.160  0.5563  0.3527  0.5328
12862SOL    HW143716   7.960   2.128   2.083  1.5484 -0.8715  0.9493
12862SOL    HW243717   7.830   2.063   2.125  0.3121  1.0384  0.1191
12863SOL     OW43718   4.232   0.953   8.588  0.0576 -0.0982 -0.0295
12863SOL    HW143719   4.289   0.902   8.646  0.0121 -0.6111 -0.4330
12863SOL    HW243720   4.176   0.887   8.546 -1.7488  0.5253  1.3606
12864SOL     OW43721   7.650   1.905   3.071  0.2699  0.0533  0.1284
12864SOL    HW143722   7.645   1.952   3.154  0.2888  0.0319  0.1420
12864SOL    HW243723   7.643   1.813   3.095 -2.0510  0.1592 -0.1002
12865SOL     OW43724   3.720   4.187   2.398 -0.1053  0.4043  0.0238
12865SOL    HW143725   3.626   4.170   2.388  0.1174 -0.4194 -0.7927
12865SOL    HW243726   3.725   4.267   2.450 -1.2688  0.7164 -0.3325
12866SOL     OW43727   5.745   2.407   6.983 -0.4976  1.1039 -0.0115
12866SOL    HW143728   5.827   2.455   6.972  0.1513  0.3523  1.4802
12866SOL    HW243729   5.680   2.475   7.004  0.2691  1.4020  1.4039
12867SOL     OW43730   8.795   4.728   2.571 -0.1032 -0.7883 -0.6445
12867SOL    HW143731   8.786   4.822   2.561  0.7908 -0.8418 -2.0235
12867SOL    HW243732   8.721   4.702   2.625 -0.6840  0.6189 -0.7644
12868SOL     OW43733   7.758  10.699   9.709  0.3965  0.1995  0.4144
12868SOL    HW143734   7.847  10.730   9.727  0.5244 -0.4667  0.9413
12868SOL    HW243735   7.717  10.771   9.660  0.7977  1.0561  1.3247
12869SOL     OW43736   9.086   7.983   8.418  0.0370  0.5839 -0.2659
12869SOL    HW143737   9.051   8.038   8.488 -1.1851 -1.7111  0.9895
12869SOL    HW243738   9.096   7.897   8.458  1.6409 -0.1982 -2.2523
12870SOL     OW43739   7.757   4.933   3.184  0.1886  0.3959 -0.2118
12870SOL    HW143740   7.830   4.973   3.136  1.1198  1.2060  1.8267
12870SOL    HW243741   7.679   4.965   3.139  1.0628  0.3039 -1.8187
12871SOL     OW43742   5.158   4.141   2.113  0.0031  0.0788  0.3450
12871SOL    HW143743   5.142   4.101   2.199 -1.1784 -0.3051 -0.0530
12871SOL    HW243744   5.253   4.153   2.110  0.0115  0.4923  1.8818
12872SOL     OW43745   3.220   3.606   6.335 -0.6091  0.0952  0.3043
12872SOL    HW143746   3.255   3.530   6.289 -0.7481 -0.3233  0.8892
12872SOL    HW243747   3.297   3.656   6.362 -0.5265  0.3970 -0.4568
12873SOL     OW43748   8.996   9.177  10.318  0.0290  0.3770 -0.0944
12873SOL    HW143749   8.959   9.171  10.230 -2.4375 -0.0993  0.9109
12873SOL    HW243750   9.060   9.248  10.313  0.3428 -0.0257 -2.3893
12874SOL     OW43751   0.575   6.428   0.098  0.3040  0.0569  0.0477
12874SOL    HW143752   0.523   6.381   0.032  0.1279  1.8344 -1.1398
12874SOL    HW243753   0.637   6.480   0.046  2.7301 -1.4040  1.4305
12875SOL     OW43754   3.897  10.594   5.774  0.2780  0.3547 -0.0078
12875SOL    HW143755   3.990  10.616   5.772  0.7410 -1.4190  0.9262
12875SOL    HW243756   3.854  10.674   5.805  1.7306  0.4896  1.7751
12876SOL     OW43757  11.229  10.766  10.238 -0.1996  0.1474  0.1420
12876SOL    HW143758  11.320  10.741  10.224 -0.5747 -0.8583 -0.5514
12876SOL    HW243759  11.201  10.804  10.154 -1.1642 -1.8886 -0.4690
12877SOL     OW43760   7.412   0.935   0.199 -0.1961 -0.1419  0.2972
12877SOL    HW143761   7.386   0.863   0.140 -0.4163  0.7717 -0.7413
12877SOL    HW243762   7.396   1.014   0.148  0.9620  0.6091  1.0745
12878SOL     OW43763  10.926   3.629  10.067 -0.0609 -0.0307  0.2790
12878SOL    HW143764  10.861   3.558  10.071 -0.1797  0.0907  0.4991
12878SOL    HW243765  10.891   3.690  10.002  0.6166 -0.7504 -0.7838
12879SOL     OW43766   3.188   3.044   2.444  0.0366 -0.3920  0.8934
12879SOL    HW143767   3.209   2.951   2.436 -2.5400 -0.8297 -1.3842
12879SOL    HW243768   3.094   3.046   2.461 -0.2070  1.8374 -0.5076
12880SOL     OW43769   9.217   8.316   4.660 -0.4695 -0.0583 -0.1130
12880SOL    HW143770   9.307   8.312   4.627 -0.3263  0.3663  0.2077
12880SOL    HW243771   9.225   8.362   4.744 -1.3425  2.3219 -1.3124
12881SOL     OW43772   6.283   8.771   5.710 -0.0385 -0.1685 -0.0418
12881SOL    HW143773   6.190   8.752   5.721  0.2223 -1.2683  0.2920
12881SOL    HW243774   6.314   8.703   5.650  0.6718 -0.1453  0.2977
12882SOL     OW43775   1.527   5.444   4.135 -0.6271  0.4146  0.1098
12882SOL    HW143776   1.506   5.530   4.172 -0.4442  0.8551 -0.7833
12882SOL    HW243777   1.586   5.464   4.062 -0.0247 -0.5261  0.3335
12883SOL     OW43778   2.939   7.226   3.846  0.6448 -0.7121  0.1845
12883SOL    HW143779   2.996   7.303   3.851  2.6390 -2.0606 -0.8443
12883SOL    HW243780   2.955   7.180   3.928 -0.2052 -0.2695  0.6019
12884SOL     OW43781   3.381  10.710   4.453  0.0548  0.1787  0.2583
12884SOL    HW143782   3.307  10.650   4.459  2.1888 -2.4644  1.5122
12884SOL    HW243783   3.407  10.707   4.361 -0.1925 -0.4011  0.2074
12885SOL     OW43784   5.776   7.347   7.428  0.1147  0.0270  0.1024
12885SOL    HW143785   5.804   7.255   7.428  0.7585  0.2238 -0.5671
12885SOL    HW243786   5.747   7.363   7.338  1.9440  1.0679 -0.3122
12886SOL     OW43787   2.137   5.394   3.664  0.0419  0.5233  0.1025
12886SOL    HW143788   2.113   5.303   3.684  0.4901 -0.0471 -1.8130
12886SOL    HW243789   2.228   5.387   3.633  0.3875  1.7549  0.8371
12887SOL     OW43790   3.505   0.231  10.844 -0.2350 -0.3133 -0.7385
12887SOL    HW143791   3.562   0.277  10.783 -0.4447 -0.6135 -1.1633
12887SOL    HW243792   3.453   0.173  10.789  1.4990 -2.6374 -0.0161
12888SOL     OW43793   7.869   9.200  10.972 -0.1340 -0.3032 -0.1270
12888SOL    HW143794   7.789   9.177  11.019 -0.0122  2.4314  1.5461
12888SOL    HW243795   7.927   9.126  10.986 -2.0619 -1.9423 -0.6386
12889SOL     OW43796   1.690   3.497   9.065 -0.4605  0.1454 -0.1952
12889SOL    HW143797   1.617   3.458   9.016 -0.1055 -0.0848 -0.5411
12889SOL    HW243798   1.667   3.482   9.157 -1.4350  1.1355 -0.2575
12890SOL     OW43799   7.538  10.519   4.896  0.0006 -0.5851 -0.9096
12890SOL    HW143800   7.517  10.608   4.868  1.0840 -0.1861 -0.4600
12890SOL    HW243801   7.592  10.484   4.826  1.2276 -0.2023 -0.1579
12891SOL     OW43802   5.479   0.510   0.737  0.3915  0.0460  0.6525
12891SOL    HW143803   5.551   0.541   0.792  0.9334 -1.1386  0.6383
12891SOL    HW243804   5.515   0.510   0.648  0.2516 -0.1530  0.5943
12892SOL     OW43805   0.160   2.154   0.286 -0.1331  0.3031  0.5923
12892SOL    HW143806   0.175   2.093   0.357  1.6151  0.3881  0.2967
12892SOL    HW243807   0.206   2.234   0.312 -0.3241  0.6700 -0.1618
12893SOL     OW43808   6.794  11.031   6.579  0.9660 -0.2010 -0.0189
12893SOL    HW143809   6.882  11.028   6.541  1.8287  1.4824  1.7014
12893SOL    HW243810   6.805  10.992   6.666  0.3179  1.1478  0.6930
12894SOL     OW43811  10.810  10.094   8.729 -0.3929 -0.3285  0.2501
12894SOL    HW143812  10.812  10.085   8.824 -3.7812 -1.6982  0.2488
12894SOL    HW243813  10.843  10.011   8.696  0.7060  0.1165  0.1945
12895SOL     OW43814   0.586   8.443   0.519  0.6714 -0.0314 -0.6484
12895SOL    HW143815   0.626   8.502   0.583  3.0637 -1.9992 -0.2289
12895SOL    HW243816   0.517   8.495   0.478  0.2929  1.8660  2.2149
12896SOL     OW43817   9.628   9.287   4.333 -0.1915  0.5266  0.0341
12896SOL    HW143818   9.604   9.214   4.276 -1.8175  0.7510  0.4344
12896SOL    HW243819   9.706   9.325   4.290  2.3566 -3.0517  1.2390
12897SOL     OW43820   9.870   2.681   2.287 -0.0464  0.2447 -0.3725
12897SOL    HW143821   9.829   2.766   2.273  1.3863  0.8028 -1.1929
12897SOL    HW243822   9.810   2.619   2.245 -2.3766  0.5383  2.3718
12898SOL     OW43823   8.237   5.337   2.499 -1.0747  0.1270  0.2368
12898SOL    HW143824   8.286   5.343   2.581 -0.8958 -2.2835  0.3388
12898SOL    HW243825   8.215   5.244   2.490 -2.9888  0.6804 -1.3543
12899SOL     OW43826   4.127   3.555   1.422  0.2379 -0.3529 -0.3968
12899SOL    HW143827   4.140   3.577   1.329  1.4131 -0.1413 -0.1817
12899SOL    HW243828   4.097   3.638   1.461 -2.1466 -0.9099 -0.9407
12900SOL     OW43829   8.485   8.123   4.201  0.3770  0.5132  0.4137
12900SOL    HW143830   8.484   8.105   4.107  1.6272 -0.3740  0.5564
12900SOL    HW243831   8.570   8.164   4.216  1.3447 -1.8346  1.5789
12901SOL     OW43832   4.937   7.049   3.475 -0.5554  0.0011  0.3351
12901SOL    HW143833   4.922   6.955   3.474 -0.5572 -0.0014  0.4985
12901SOL    HW243834   5.028   7.060   3.447 -0.7127 -0.0172 -0.1788
12902SOL     OW43835   6.320   7.051   3.050 -0.2700  0.2575 -0.3438
12902SOL    HW143836   6.348   7.143   3.053 -0.7327  0.3734  0.5853
12902SOL    HW243837   6.341   7.017   3.136 -0.1717 -0.4988 -0.6647
12903SOL     OW43838   7.653   2.992   2.420 -0.0041 -0.3444 -0.1644
12903SOL    HW143839   7.571   2.953   2.451 -0.4803  0.7737 -0.0203
12903SOL    HW243840   7.627   3.054   2.353  0.6928  0.3299  0.1844
12904SOL     OW43841   0.198   2.346   5.747 -0.0942  0.0375 -0.3455
12904SOL    HW143842   0.289   2.371   5.733 -0.6038  2.2212  0.0202
12904SOL    HW243843   0.150   2.429   5.742 -1.7152 -0.7092  2.2529
12905SOL     OW43844   9.260   0.267   8.680 -0.0368  0.2765 -0.4736
12905SOL    HW143845   9.245   0.239   8.770 -2.1869 -0.8699 -1.1568
12905SOL    HW243846   9.192   0.332   8.664 -0.2815 -0.2390 -1.5757
12906SOL     OW43847   0.965   8.167  10.687 -0.1158 -0.2805  0.1105
12906SOL    HW143848   1.014   8.177  10.768 -0.2621 -0.8257  0.2644
12906SOL    HW243849   1.032   8.158  10.619 -0.0034 -0.7057  0.2799
12907SOL     OW43850  11.143   2.705   7.270 -0.5374 -0.2596  0.2222
12907SOL    HW143851  11.070   2.762   7.249 -1.1788 -0.5920  1.4592
12907SOL    HW243852  11.101   2.623   7.298  0.3172 -0.5741  0.5859
12908SOL     OW43853   0.478   7.268   1.657 -0.2654 -0.2445  0.7293
12908SOL    HW143854   0.392   7.271   1.615 -0.4279 -0.9321  1.0009
12908SOL    HW243855   0.530   7.211   1.601  0.8955  2.4465 -1.0098
12909SOL     OW43856   6.879  10.680  10.412  0.1575 -0.0846  0.4595
12909SOL    HW143857   6.878  10.600  10.359 -0.0221 -0.9292  1.7308
12909SOL    HW243858   6.873  10.649  10.502 -0.4865  1.3904  0.9346
12910SOL     OW43859   3.666   2.115   1.039 -0.0966  0.3383  0.0145
12910SOL    HW143860   3.635   2.035   1.081 -0.6174  0.8291  0.5821
12910SOL    HW243861   3.617   2.120   0.957 -0.4470  0.3423  0.2222
12911SOL     OW43862   5.949   2.470   4.228 -0.3071 -0.2001 -0.2613
12911SOL    HW143863   6.034   2.427   4.225  0.3243  0.7988  1.8889
12911SOL    HW243864   5.898   2.417   4.290 -0.6321  0.2333 -0.1550
12912SOL     OW43865   6.361   8.520   2.327 -0.4132  0.2931  0.1061
12912SOL    HW143866   6.275   8.560   2.315 -1.4308 -1.2541  1.9951
12912SOL    HW243867   6.407   8.581   2.385  0.3477  1.8921 -2.1244
12913SOL     OW43868  10.178   6.549   8.332 -0.0138  0.0631 -0.0220
12913SOL    HW143869  10.207   6.640   8.328  0.5485 -0.1319 -0.4215
12913SOL    HW243870  10.084   6.554   8.320  0.1826  0.4785 -1.4387
12914SOL     OW43871   7.745   9.770   6.329  0.4731 -0.3480 -0.0590
12914SOL    HW143872   7.835   9.769   6.361  0.8445  1.9336 -0.9492
12914SOL    HW243873   7.721   9.863   6.327 -0.2703 -0.5072 -4.2634
12915SOL     OW43874   1.078   0.906  10.272  0.4597  0.1089 -0.4853
12915SOL    HW143875   1.100   0.856  10.351  2.4981  1.2189 -0.3141
12915SOL    HW243876   1.016   0.972  10.303  0.5245 -0.0570  0.0085
12916SOL     OW43877   8.182   3.612   4.262  0.0473 -0.1614  0.4287
12916SOL    HW143878   8.177   3.638   4.354  1.2913  1.6429  0.0038
12916SOL    HW243879   8.275   3.599   4.246 -0.0447  0.7043 -0.8860
12917SOL     OW43880  10.493   2.808  11.254 -0.6306 -0.8268  0.1829
12917SOL    HW143881  10.507   2.734  11.313 -0.3556 -1.9409 -1.2534
12917SOL    HW243882  10.432   2.776  11.188  1.9637 -0.8545 -2.3167
12918SOL     OW43883  10.955   2.706   9.891  0.1439  0.1326  0.0497
12918SOL    HW143884  10.879   2.764   9.888 -0.0276 -0.0998 -0.1128
12918SOL    HW243885  10.944   2.655   9.971 -0.6614 -0.9781 -0.7663
12919SOL     OW43886   9.962   3.944   8.143  0.1911 -0.8547 -0.2108
12919SOL    HW143887   9.968   4.004   8.217  1.6922  0.2536 -1.2129
12919SOL    HW243888  10.021   3.872   8.166 -0.1641 -1.0352  0.1417
12920SOL     OW43889   1.945   8.652   4.398 -0.0121  0.2795  0.2321
12920SOL    HW143890   2.007   8.630   4.328 -0.3082 -0.3554  0.1703
12920SOL    HW243891   1.865   8.679   4.351 -0.2082 -0.1404  0.3283
12921SOL     OW43892   9.716  11.181  11.050 -0.2253  0.5170  0.3394
12921SOL    HW143893   9.755  11.268  11.040 -0.1501  0.5973  1.2323
12921SOL    HW243894   9.671  11.165  10.968 -2.0804  2.3449  0.9641
12922SOL     OW43895   8.781   1.797   8.822  0.0894 -0.1011  0.0112
12922SOL    HW143896   8.705   1.837   8.781 -1.1218 -0.0321  2.2509
12922SOL    HW243897   8.805   1.858   8.892  0.6279 -1.3840  0.9665
12923SOL     OW43898   7.483   5.890   7.761  0.0682 -0.1376 -0.1635
12923SOL    HW143899   7.395   5.899   7.797  0.3766  1.8151  0.1702
12923SOL    HW243900   7.472   5.909   7.668  0.1101  0.0079 -0.1399
12924SOL     OW43901  10.762   3.613   2.589  0.1463 -0.0943 -0.6472
12924SOL    HW143902  10.745   3.622   2.683  0.2201 -0.4048 -0.6021
12924SOL    HW243903  10.855   3.591   2.583  0.7148  2.2613 -0.9336
12925SOL     OW43904  10.278  11.289  11.011  0.3834 -0.3950 -0.2492
12925SOL    HW143905  10.319  11.373  11.033 -0.6879 -0.0500  0.4720
12925SOL    HW243906  10.350  11.226  11.014  0.6830 -0.0058  2.2286
12926SOL     OW43907  10.973   3.559   6.410 -0.0331  0.2571  0.1172
12926SOL    HW143908  11.007   3.648   6.404 -1.8077  1.0786  1.7567
12926SOL    HW243909  10.890   3.561   6.363  0.4078 -0.8047 -0.7269
12927SOL     OW43910   4.487   8.836   7.399  0.4124  0.0869  1.0078
12927SOL    HW143911   4.547   8.799   7.335 -0.1745 -0.6052  0.8555
12927SOL    HW243912   4.445   8.909   7.353  0.1310 -0.2906  0.6611
12928SOL     OW43913   7.235   8.341   8.373  0.2994  0.2014 -0.2416
12928SOL    HW143914   7.259   8.250   8.394  1.0561  0.3753 -0.3380
12928SOL    HW243915   7.290   8.394   8.429 -0.6422  0.5966  0.3188
12929SOL     OW43916   3.200   0.349   1.612  0.1099  0.6125 -0.1327
12929SOL    HW143917   3.135   0.300   1.662 -0.0419  0.8610 -0.0908
12929SOL    HW243918   3.150   0.410   1.559  0.1668 -0.7314 -1.7824
12930SOL     OW43919   5.426   6.987   2.905  0.1245  0.4764 -0.0124
12930SOL    HW143920   5.379   6.973   2.823 -0.8790 -1.0561  0.7935
12930SOL    HW243921   5.391   7.068   2.940 -1.6554 -0.4359  0.3659
12931SOL     OW43922   7.978  10.032   2.452 -0.0964 -0.0586  0.0841
12931SOL    HW143923   7.934  10.031   2.367  0.5751 -0.3992 -0.2661
12931SOL    HW243924   7.980   9.941   2.479  0.6909 -0.0938 -0.0657
12932SOL     OW43925   3.900   9.967   3.298 -0.0817 -0.5384 -0.6174
12932SOL    HW143926   3.835   9.982   3.366  0.2900 -1.0537 -0.1413
12932SOL    HW243927   3.932  10.054   3.276  1.2239 -0.5046  1.2988
12933SOL     OW43928   5.869   4.135   5.595 -0.0532 -0.1825  0.4090
12933SOL    HW143929   5.941   4.134   5.532 -1.5574 -0.5594 -1.3351
12933SOL    HW243930   5.867   4.047   5.633 -1.8172 -1.3082 -2.1590
12934SOL     OW43931   4.766   3.687   8.193 -0.1136 -0.0398 -0.1415
12934SOL    HW143932   4.699   3.625   8.163  1.1045 -1.2186 -0.4937
12934SOL    HW243933   4.764   3.758   8.129 -1.1598  0.0377 -0.0330
12935SOL     OW43934   7.205   4.088   0.993  0.4913 -0.2737 -0.3421
12935SOL    HW143935   7.166   4.150   0.931 -0.2919 -1.5393 -1.1450
12935SOL    HW243936   7.254   4.143   1.054 -0.0278  1.1194 -1.1468
12936SOL     OW43937   2.112   1.912   0.322  0.3209  0.3740  0.2783
12936SOL    HW143938   2.132   2.006   0.330  0.6532  0.3052  0.2412
12936SOL    HW243939   2.059   1.906   0.243  0.9497  0.4295 -0.1552
12937SOL     OW43940   1.902   0.508   2.478  0.6062  0.6239  0.3748
12937SOL    HW143941   1.811   0.524   2.506  0.3544  0.1503 -0.1600
12937SOL    HW243942   1.924   0.424   2.517  0.5171  0.3282 -0.2050
12938SOL     OW43943   4.621   3.466   2.650  0.0737  0.3349  0.1651
12938SOL    HW143944   4.565   3.395   2.618  0.6069  0.7846 -1.8466
12938SOL    HW243945   4.570   3.545   2.636  1.2861  0.7716 -1.9082
12939SOL     OW43946   6.821   7.173   1.635 -0.0761  0.4869 -0.3101
12939SOL    HW143947   6.772   7.188   1.716 -0.0540  0.0826 -0.2231
12939SOL    HW243948   6.899   7.125   1.662 -0.4060 -0.2605 -0.6571
12940SOL     OW43949   8.358   0.059   5.143  0.0100 -0.7156  0.3722
12940SOL    HW143950   8.306  -0.007   5.189 -0.4577  0.6576  1.8289
12940SOL    HW243951   8.449   0.033   5.160 -0.1581 -0.1739  2.1388
12941SOL     OW43952   7.599   1.052   2.980  0.4121  0.1883  0.1041
12941SOL    HW143953   7.628   1.123   2.923  0.6513  0.1842  0.2171
12941SOL    HW243954   7.672   1.039   3.041  1.3808 -1.6972 -1.3713
12942SOL     OW43955   5.553   1.598   0.347 -0.7257 -0.0701  0.3050
12942SOL    HW143956   5.596   1.545   0.280 -0.1506 -0.0650  0.6594
12942SOL    HW243957   5.614   1.670   0.364 -0.7229 -0.2423  1.0499
12943SOL     OW43958   9.707   9.895   3.187  0.0638 -0.0518  0.4739
12943SOL    HW143959   9.721   9.821   3.127  0.9040  0.9800 -0.6123
12943SOL    HW243960   9.677   9.966   3.131 -1.9561  0.1144  1.6784
12944SOL     OW43961   4.968   1.230   9.368  0.5223  0.7601  0.7265
12944SOL    HW143962   4.936   1.196   9.451  1.2136  0.6574  0.9601
12944SOL    HW243963   4.895   1.219   9.307  0.6189 -0.8645  0.8802
12945SOL     OW43964   7.027   2.609   6.768 -0.0014 -0.3640 -0.0924
12945SOL    HW143965   7.025   2.542   6.837  1.3689 -1.4477 -1.0673
12945SOL    HW243966   7.106   2.661   6.787  0.1747 -0.4342 -0.6090
12946SOL     OW43967   5.703   5.253   8.717 -0.7873 -0.4939  0.4781
12946SOL    HW143968   5.788   5.227   8.681 -0.1438  0.6152  1.1899
12946SOL    HW243969   5.722   5.328   8.773 -2.3375  0.1929  0.1010
12947SOL     OW43970   7.783   5.269  10.460 -0.6231 -0.0280 -0.4035
12947SOL    HW143971   7.712   5.333  10.468 -0.5718 -0.0200  0.0257
12947SOL    HW243972   7.858   5.319  10.429 -0.6608  0.0674 -0.3419
12948SOL     OW43973   2.590   5.022   5.670 -0.1224  0.5067  0.2873
12948SOL    HW143974   2.609   5.063   5.586  0.6838 -0.6283 -0.0871
12948SOL    HW243975   2.497   4.998   5.664  0.2612 -0.7629 -0.7996
12949SOL     OW43976   0.134   9.303   8.890  0.2085  0.5764 -0.1174
12949SOL    HW143977   0.227   9.286   8.909  0.1088  0.8546  0.6121
12949SOL    HW243978   0.107   9.366   8.957 -0.5163  0.4648 -0.3063
12950SOL     OW43979   0.387   0.090   7.689 -0.0653  0.1302  0.1847
12950SOL    HW143980   0.473   0.059   7.659 -0.4161 -0.4664 -0.2321
12950SOL    HW243981   0.386   0.070   7.783  0.4856  0.6944  0.3127
12951SOL     OW43982   2.630   3.970   4.124  0.0400  0.3066  0.0315
12951SOL    HW143983   2.720   3.949   4.099  0.3165  1.6745 -0.1778
12951SOL    HW243984   2.619   3.931   4.211  0.8432  0.1830  0.0763
12952SOL     OW43985  10.320   3.877   3.259  0.5139  0.5268 -0.0725
12952SOL    HW143986  10.350   3.911   3.343 -0.0307  0.3790  0.1864
12952SOL    HW243987  10.226   3.899   3.257  0.6453  1.0579 -0.8990
12953SOL     OW43988   5.420   3.284   3.785  0.2138  0.7956  0.3664
12953SOL    HW143989   5.449   3.279   3.876 -0.0303 -0.1105  0.4069
12953SOL    HW243990   5.470   3.216   3.740 -0.7652  0.2195  0.1389
12954SOL     OW43991  11.157   0.295   6.435 -0.2707 -0.1848  0.2815
12954SOL    HW143992  11.134   0.353   6.362 -1.3952  0.4188  1.1048
12954SOL    HW243993  11.193   0.217   6.392  1.4861  1.2061 -0.8082
12955SOL     OW43994  10.787   0.957   0.875  0.1303  0.7949 -0.1827
12955SOL    HW143995  10.880   0.940   0.893  0.6773  1.9509 -1.7648
12955SOL    HW243996  10.749   0.973   0.961  1.7428  1.8589  0.3613
12956SOL     OW43997  10.462   4.302   3.418 -0.0096 -0.4037 -0.2894
12956SOL    HW143998  10.493   4.325   3.505 -2.1363  1.3488  0.0698
12956SOL    HW243999  10.455   4.207   3.418  1.2536 -0.5031  0.9971
12957SOL     OW44000   5.591   5.847   7.097 -0.4529 -0.6361  0.3908
12957SOL    HW144001   5.517   5.897   7.062  0.3306 -0.9114 -1.7230
12957SOL    HW244002   5.564   5.824   7.186 -4.0907 -3.0713 -1.2377
12958SOL     OW44003   2.835   3.350   2.316  0.0131 -0.3604 -0.3965
12958SOL    HW144004   2.778   3.327   2.388 -1.3310  0.4916 -1.1736
12958SOL    HW244005   2.794   3.311   2.239 -0.0165  1.0124 -1.0904
12959SOL     OW44006   1.451   9.773   9.010 -0.5051 -0.6909  0.3930
12959SOL    HW144007   1.405   9.739   9.087  0.0744 -1.4065  0.4290
12959SOL    HW244008   1.477   9.694   8.961 -0.9872 -0.2360 -0.5993
12960SOL     OW44009   0.162   6.080  10.171 -0.5006  0.7690  0.1977
12960SOL    HW144010   0.164   6.120  10.085  2.1647 -1.0678 -0.6639
12960SOL    HW244011   0.229   6.126  10.221 -0.1808  0.0638  0.4304
12961SOL     OW44012   1.633   9.914  10.892  0.2959  0.2978  0.3056
12961SOL    HW144013   1.647   9.877  10.804  0.6838 -0.9714  0.8912
12961SOL    HW244014   1.593   9.999  10.876  2.6570  1.1571 -1.2070
12962SOL     OW44015   8.068   7.582   3.113 -0.0717 -0.0269  0.5000
12962SOL    HW144016   8.026   7.613   3.193  0.4200 -0.3069  0.8700
12962SOL    HW244017   8.076   7.487   3.126  0.6451  0.0211  0.4170
12963SOL     OW44018   0.231   3.435   9.913 -0.3057 -0.4037  0.2586
12963SOL    HW144019   0.207   3.415  10.003 -0.8974  2.4558  0.8081
12963SOL    HW244020   0.161   3.494   9.882 -0.5697 -1.9894 -2.3543
12964SOL     OW44021   0.666   9.907   8.651  0.0222 -0.6519  0.1643
12964SOL    HW144022   0.641   9.946   8.735 -0.9062 -1.5852  0.3378
12964SOL    HW244023   0.761   9.920   8.646  0.0021 -0.0840  1.0937
12965SOL     OW44024   1.471   3.169   1.429 -0.5958  1.0135 -0.0705
12965SOL    HW144025   1.513   3.242   1.474 -0.2241  0.4176  0.5639
12965SOL    HW244026   1.534   3.097   1.438  0.1197  1.2544 -2.7252
12966SOL     OW44027   4.356   7.829   9.677  0.0004 -0.2323  0.0100
12966SOL    HW144028   4.447   7.858   9.671 -0.0045 -0.0115  1.0148
12966SOL    HW244029   4.345   7.771   9.602  1.1876 -0.8599  0.3082
12967SOL     OW44030   2.799   5.123   7.139  0.2203 -0.1742  0.4490
12967SOL    HW144031   2.769   5.033   7.142 -0.4638 -0.0750 -2.4357
12967SOL    HW244032   2.721   5.176   7.158 -0.2980 -0.1043 -1.6981
12968SOL     OW44033   2.968   7.109  10.707 -0.0595  0.4608  0.4704
12968SOL    HW144034   2.874   7.123  10.718  0.0929  1.4140  0.5791
12968SOL    HW244035   2.997   7.184  10.655  0.6948  0.3209  0.6866
12969SOL     OW44036   5.302   4.687  10.847  0.6686 -0.4992  0.0104
12969SOL    HW144037   5.369   4.754  10.860  1.3513 -0.9025 -1.3442
12969SOL    HW244038   5.220   4.732  10.864  1.2880 -0.1331  2.2395
12970SOL     OW44039   5.880  10.741   1.876  0.1121 -0.0606 -0.5280
12970SOL    HW144040   5.807  10.713   1.820 -1.1024 -0.0704  0.9970
12970SOL    HW244041   5.879  10.679   1.949 -0.5886  2.0030  1.2736
12971SOL     OW44042   6.373  10.306   0.543 -0.0653  0.7494 -0.2173
12971SOL    HW144043   6.278  10.292   0.551 -0.2923  2.0827 -0.4435
12971SOL    HW244044   6.391  10.296   0.449 -0.1909  1.6596 -0.3472
12972SOL     OW44045   4.528   6.230   4.816  0.3692  0.4207 -0.2945
12972SOL    HW144046   4.519   6.278   4.898 -1.6423  0.8393 -0.7199
12972SOL    HW244047   4.622   6.212   4.808  1.0401  3.3317  0.4216
12973SOL     OW44048   0.736  11.114   3.193  0.8209  0.1409 -0.1054
12973SOL    HW144049   0.674  11.158   3.251  0.2487  0.2223 -0.7772
12973SOL    HW244050   0.761  11.034   3.239  0.3511  0.1957  0.2417
12974SOL     OW44051  10.857  10.832  10.794 -0.1853 -0.3005  0.2844
12974SOL    HW144052  10.766  10.805  10.777 -0.0869 -0.6710  0.3477
12974SOL    HW244053  10.849  10.908  10.851 -0.5496  1.2213 -1.7092
12975SOL     OW44054   2.075   2.808   0.223 -0.4661 -0.6462 -0.2110
12975SOL    HW144055   2.030   2.736   0.179 -1.4398 -0.1998  0.0354
12975SOL    HW244056   2.150   2.768   0.265 -1.7497 -1.7730  1.0605
12976SOL     OW44057   5.347  10.500   2.461  0.6836 -0.1617  0.0750
12976SOL    HW144058   5.412  10.541   2.518  1.6860 -0.2375 -1.0066
12976SOL    HW244059   5.308  10.431   2.515  4.1988 -2.6807 -0.4536
12977SOL     OW44060   7.941  11.114   9.190  0.0758 -0.1919 -0.5714
12977SOL    HW144061   7.970  11.205   9.202  1.1434 -0.5695 -0.1763
12977SOL    HW244062   7.918  11.108   9.098 -3.9550  1.5718  0.2372
12978SOL     OW44063   2.509   3.534   4.112  0.4536  0.0604 -0.1612
12978SOL    HW144064   2.427   3.496   4.080  0.3162 -0.9271  1.2978
12978SOL    HW244065   2.482   3.603   4.171  0.7021  1.1739 -1.3263
12979SOL     OW44066   2.184   2.495   9.124 -0.1271 -0.3485 -0.0105
12979SOL    HW144067   2.274   2.470   9.103 -0.2955 -0.5488 -0.4964
12979SOL    HW244068   2.175   2.584   9.091 -0.6234 -0.9308 -1.4800
12980SOL     OW44069   5.976   1.912   6.766  0.2307 -0.1941 -0.1143
12980SOL    HW144070   6.057   1.879   6.807  1.4953 -0.0050 -2.3714
12980SOL    HW244071   5.971   2.003   6.795  0.0028 -0.6137  1.2309
12981SOL     OW44072  10.355   2.968  10.372  0.5325 -0.2097  0.5785
12981SOL    HW144073  10.323   2.878  10.375  0.7136 -0.2851  0.3346
12981SOL    HW244074  10.277   3.022  10.359  0.6619 -0.5110 -1.6010
12982SOL     OW44075   5.716   6.748   9.756 -0.6602  0.3362 -0.3110
12982SOL    HW144076   5.793   6.797   9.786 -0.2708 -0.2625 -0.3282
12982SOL    HW244077   5.713   6.671   9.812 -1.0232  0.1632 -0.5653
12983SOL     OW44078  10.554   3.081   2.513 -0.4998  0.0366 -0.0850
12983SOL    HW144079  10.532   3.171   2.536 -1.3683 -0.1449 -0.1972
12983SOL    HW244080  10.639   3.066   2.554 -0.1824  1.0204 -0.3579
12984SOL     OW44081   1.264   2.327   2.078  0.0027  0.3582 -0.6134
12984SOL    HW144082   1.351   2.360   2.098 -0.0526  0.4967 -0.6012
12984SOL    HW244083   1.262   2.321   1.982 -0.0614  0.5950 -0.6276
12985SOL     OW44084   9.326  11.276   5.171  0.6124 -0.4824 -0.1986
12985SOL    HW144085   9.333  11.369   5.148 -0.4560 -0.2606  0.3232
12985SOL    HW244086   9.410  11.256   5.213  0.9940  0.1440 -0.6476
12986SOL     OW44087   4.086   0.085   4.446 -0.0590 -0.2874 -0.0518
12986SOL    HW144088   4.124   0.002   4.419  2.2658  0.8097 -0.2309
12986SOL    HW244089   4.153   0.126   4.501 -0.5754  2.0960 -1.1193
12987SOL     OW44090   7.990   0.530   6.569  0.0365  0.4256  0.0783
12987SOL    HW144091   8.051   0.457   6.563  1.4921  1.5880  0.3564
12987SOL    HW244092   7.984   0.564   6.479  2.6516  2.5408  0.6357
12988SOL     OW44093   2.715   9.450  10.648 -0.0215 -0.1561 -0.1441
12988SOL    HW144094   2.744   9.374  10.598  0.4099 -1.0041  1.3559
12988SOL    HW244095   2.774   9.520  10.621 -0.1323 -0.4623 -1.2063
12989SOL     OW44096   0.572   3.282   1.303 -0.2917 -0.4594  0.0249
12989SOL    HW144097   0.573   3.364   1.353  0.1612 -0.1701 -0.4629
12989SOL    HW244098   0.642   3.230   1.342  0.2840 -0.1016 -0.5307
12990SOL     OW44099  10.059   4.081   1.120  0.0327  0.0753 -0.1675
12990SOL    HW144100  10.061   4.143   1.047 -3.0548 -1.3029 -1.4808
12990SOL    HW244101  10.126   4.016   1.098  1.4763  1.4798 -0.0528
12991SOL     OW44102   5.302   3.771   3.577  0.3798  0.0730 -0.2360
12991SOL    HW144103   5.274   3.688   3.538 -0.5972  0.4669 -0.3859
12991SOL    HW244104   5.256   3.838   3.527  2.0781  0.7842 -0.9073
12992SOL     OW44105  11.118   4.101   5.412 -0.1036 -0.5321 -0.0946
12992SOL    HW144106  11.196   4.078   5.461  0.2470 -0.6837 -0.7207
12992SOL    HW244107  11.060   4.141   5.477  0.0622 -1.3862  0.5895
12993SOL     OW44108   0.216   6.020   8.852 -0.0526  0.4244  0.4923
12993SOL    HW144109   0.124   6.005   8.875  0.1633 -1.5823  0.1851
12993SOL    HW244110   0.265   5.975   8.921  0.6223 -1.9221 -1.4196
12994SOL     OW44111   5.013   4.306   3.558 -0.3591 -0.2569  0.1032
12994SOL    HW144112   5.047   4.393   3.581 -1.0300 -0.1017  0.5125
12994SOL    HW244113   5.063   4.245   3.613  0.2995 -0.1568 -0.3748
12995SOL     OW44114   0.692   8.945   3.780 -0.0701  0.4939 -0.3351
12995SOL    HW144115   0.631   8.975   3.713  0.2083 -1.1137 -1.3405
12995SOL    HW244116   0.648   8.962   3.863 -0.7085  1.8886 -0.9560
12996SOL     OW44117   8.310   2.951  11.077 -0.2210  0.4112 -0.3869
12996SOL    HW144118   8.301   2.856  11.088  1.3373  0.2945 -0.0550
12996SOL    HW244119   8.223   2.980  11.048 -0.8525 -1.0386  0.0214
12997SOL     OW44120   5.766   0.962   5.558 -0.0116  0.4392 -0.4093
12997SOL    HW144121   5.674   0.938   5.547 -0.2147  1.9762 -2.3503
12997SOL    HW244122   5.764   1.033   5.623 -0.1911  0.5521 -0.5390
12998SOL     OW44123   0.786   5.481   9.412 -0.3052  0.0289 -0.4298
12998SOL    HW144124   0.846   5.555   9.410  0.5473 -0.6843 -1.7827
12998SOL    HW244125   0.771   5.459   9.320 -1.1702 -0.9826 -0.0653
12999SOL     OW44126   6.003   0.267   1.544  0.3996 -0.8248  0.4376
12999SOL    HW144127   6.049   0.186   1.564 -0.0205 -0.7467  1.7880
12999SOL    HW244128   6.069   0.325   1.508  0.9253 -1.4124  0.4559
13000SOL     OW44129   4.880   8.769   5.787 -0.1604  0.6626  0.5532
13000SOL    HW144130   4.899   8.862   5.801  1.0190  0.5811 -0.4154
13000SOL    HW244131   4.942   8.723   5.844 -0.2410  0.4552  0.4756
13001SOL     OW44132   1.126   1.229   4.956 -0.5246 -0.6619 -0.1783
13001SOL    HW144133   1.188   1.262   5.021 -1.1685 -0.3188  0.2671
13001SOL    HW244134   1.041   1.262   4.985 -0.9668 -1.4291 -0.5904
13002SOL     OW44135   1.137   7.893   9.002  0.4134  0.0186  0.1560
13002SOL    HW144136   1.176   7.865   8.919  0.6395  1.1409 -0.1214
13002SOL    HW244137   1.139   7.988   8.998  0.0097  0.0741  1.2620
13003SOL     OW44138   9.028   7.097   7.920 -0.1032 -0.3990 -0.5485
13003SOL    HW144139   9.036   7.081   7.826 -2.6609 -0.7621 -0.7416
13003SOL    HW244140   9.052   7.013   7.961 -0.5751 -0.7512 -0.9774
13004SOL     OW44141   0.639   3.148   0.124  0.0983  0.3406 -0.1558
13004SOL    HW144142   0.711   3.180   0.179 -1.2685  0.6852  1.4757
13004SOL    HW244143   0.658   3.056   0.110 -0.1433 -0.0346  1.8928
13005SOL     OW44144  11.145   6.807   7.261  0.3309  0.7241 -0.3385
13005SOL    HW144145  11.077   6.769   7.205 -0.3968  1.1344  0.2629
13005SOL    HW244146  11.203   6.852   7.199 -1.0777  2.1054 -0.6982
13006SOL     OW44147   8.625   5.387   2.472 -0.4292 -0.5510 -0.2479
13006SOL    HW144148   8.665   5.408   2.556  0.1270 -2.6572  0.0294
13006SOL    HW244149   8.605   5.473   2.434 -2.9387  0.4371  3.0504
13007SOL     OW44150   2.763   5.477   3.284  0.1895 -0.1644  0.4069
13007SOL    HW144151   2.766   5.488   3.189 -0.7930  0.6479  0.4558
13007SOL    HW244152   2.675   5.443   3.302  0.1218  0.3430  1.0779
13008SOL     OW44153   3.250   5.746   8.019 -0.2495  0.2561 -0.0891
13008SOL    HW144154   3.245   5.839   7.996 -0.8360 -0.4053 -2.8339
13008SOL    HW244155   3.162   5.724   8.050 -0.4369  0.3293 -0.5746
13009SOL     OW44156  10.344   8.091   1.326 -0.0588  0.0849  0.3956
13009SOL    HW144157  10.285   8.015   1.324 -0.0047 -0.0759  3.0294
13009SOL    HW244158  10.429   8.055   1.302 -0.5597 -0.1370 -1.1030
13010SOL     OW44159   5.217  11.176   0.637  0.2043  0.5998  0.1841
13010SOL    HW144160   5.179  11.242   0.579  1.1935 -0.5766 -1.8655
13010SOL    HW244161   5.183  11.092   0.604  0.5092 -0.0687  1.5327
13011SOL     OW44162   7.354   2.265   1.970 -0.5197  0.2093 -0.3074
13011SOL    HW144163   7.335   2.288   2.061  0.2462 -0.1606 -0.0496
13011SOL    HW244164   7.301   2.325   1.918  0.6635  1.8590  0.3521
13012SOL     OW44165   6.229   3.481   4.422 -0.6018 -0.4069 -0.5255
13012SOL    HW144166   6.257   3.390   4.429  2.8734  0.6385 -0.2234
13012SOL    HW244167   6.213   3.508   4.513 -0.4743 -0.3389 -0.5242
13013SOL     OW44168   0.043   3.107   9.923  0.0171 -0.4621 -0.0550
13013SOL    HW144169  -0.014   3.030   9.915 -0.2939 -0.2246 -0.1358
13013SOL    HW244170   0.051   3.140   9.833 -2.9651  1.8356  0.4582
13014SOL     OW44171   0.562   9.708   5.237 -0.5736  0.3021 -0.0175
13014SOL    HW144172   0.487   9.736   5.185  1.9867  1.2879 -3.3928
13014SOL    HW244173   0.572   9.615   5.216 -0.4292  0.3356 -0.0939
13015SOL     OW44174   0.914  11.014   5.649  0.1782  0.3397 -0.3445
13015SOL    HW144175   0.945  11.104   5.640  0.4097  0.2271 -0.6945
13015SOL    HW244176   0.939  10.972   5.567  0.8701 -0.2855  0.1868
13016SOL     OW44177   4.267   2.421   4.878 -0.3074  0.1380 -0.0751
13016SOL    HW144178   4.210   2.350   4.910  0.4515 -0.0879  0.8029
13016SOL    HW244179   4.257   2.490   4.944  2.1847 -0.7830  1.3126
13017SOL     OW44180   7.818   3.811   0.829 -0.1429 -0.0715  0.8756
13017SOL    HW144181   7.787   3.827   0.918  0.3258 -0.3934  1.0995
13017SOL    HW244182   7.850   3.721   0.831  2.1082  0.7034  1.0376
13018SOL     OW44183   9.591   1.743   5.746  0.0649  0.2189 -0.6090
13018SOL    HW144184   9.619   1.761   5.836  2.0070  1.3404 -1.4213
13018SOL    HW244185   9.523   1.808   5.729  0.3306  0.5945 -0.2530
13019SOL     OW44186   0.049   1.933   4.266  0.5031  0.1064 -0.7296
13019SOL    HW144187   0.093   1.850   4.284 -0.7942 -0.4858 -0.3008
13019SOL    HW244188   0.104   1.999   4.309  0.4040 -0.7394  0.6847
13020SOL     OW44189   1.638   0.681  10.351  0.1563  0.5001  0.3273
13020SOL    HW144190   1.655   0.769  10.319  3.3349  0.1455  0.9529
13020SOL    HW244191   1.603   0.634  10.274 -0.9596  2.0818 -0.1638
13021SOL     OW44192   4.248  10.289   0.363  0.4681 -0.6232 -0.7478
13021SOL    HW144193   4.255  10.360   0.427 -1.2726 -0.3978 -0.7986
13021SOL    HW244194   4.255  10.209   0.415  0.4954 -0.4329 -0.4598
13022SOL     OW44195   6.152   6.896   4.114  0.2099  0.0447  0.1081
13022SOL    HW144196   6.131   6.817   4.064 -0.7018  0.4698 -0.1967
13022SOL    HW244197   6.086   6.960   4.086  0.4505  0.6654  0.9437
13023SOL     OW44198   6.382   5.086   2.889  0.2518  0.4394  0.0742
13023SOL    HW144199   6.350   5.002   2.856  0.6955  0.1974  0.2522
13023SOL    HW244200   6.306   5.145   2.884 -0.1581 -0.0700  0.3016
13024SOL     OW44201   1.669   1.425   8.055  0.0505  0.3356  0.7931
13024SOL    HW144202   1.654   1.485   7.981 -0.6642 -0.1648  0.5336
13024SOL    HW244203   1.709   1.480   8.122 -1.7143  1.3809  1.0089
13025SOL     OW44204   1.489   5.417   2.513 -0.2186 -0.1097 -0.1268
13025SOL    HW144205   1.547   5.383   2.444 -0.3155  0.1629 -0.3423
13025SOL    HW244206   1.456   5.338   2.557  0.0571 -0.2761 -0.2158
13026SOL     OW44207  10.228   3.899   9.600  0.2607 -0.7459 -0.5313
13026SOL    HW144208  10.161   3.967   9.610  2.0505  1.2366 -1.4989
13026SOL    HW244209  10.179   3.818   9.593 -2.0863  0.7151 -1.8054
13027SOL     OW44210   0.413   7.588   8.818 -0.2344  0.3150 -0.0949
13027SOL    HW144211   0.325   7.553   8.834 -0.6619  0.7422 -1.4448
13027SOL    HW244212   0.471   7.512   8.829 -0.6649  0.1989  1.6108
13028SOL     OW44213   1.086   4.430   2.101 -0.2426 -0.5172 -0.4474
13028SOL    HW144214   1.054   4.342   2.081  1.0269 -1.7998  2.6788
13028SOL    HW244215   1.170   4.435   2.057  0.4551 -1.5625  0.7107
13029SOL     OW44216   5.850   6.011   8.981  0.4379 -0.2789 -0.7727
13029SOL    HW144217   5.883   6.046   9.064 -1.3073 -0.7607  0.1361
13029SOL    HW244218   5.896   6.062   8.914  1.7669  0.2074  0.4739
13030SOL     OW44219   2.269  11.060   3.909  0.1143  0.0998 -0.0678
13030SOL    HW144220   2.186  11.029   3.946 -0.0496  1.1069  0.4229
13030SOL    HW244221   2.328  10.985   3.917 -0.9195 -0.8188 -0.9820
13031SOL     OW44222   2.601   2.576   8.845  0.0975 -0.2006 -0.0968
13031SOL    HW144223   2.562   2.626   8.774 -0.2843 -0.7984 -0.3181
13031SOL    HW244224   2.642   2.501   8.802  0.1303 -0.4027  0.2826
13032SOL     OW44225   7.242   4.621   2.707 -0.1455 -0.6121 -0.8268
13032SOL    HW144226   7.200   4.700   2.672  0.3027 -0.4259 -0.9571
13032SOL    HW244227   7.173   4.575   2.754 -0.1399  0.4714  0.2674
13033SOL     OW44228   2.643  10.279  10.488  0.4419 -0.7528 -0.4936
13033SOL    HW144229   2.702  10.315  10.554  1.6750 -1.1577 -1.3573
13033SOL    HW244230   2.616  10.194  10.525  1.5453 -1.2186 -0.7344
13034SOL     OW44231   1.951   5.836   2.937 -0.6427 -0.7296 -0.1723
13034SOL    HW144232   1.919   5.750   2.912 -0.7783 -1.1490  1.3920
13034SOL    HW244233   2.018   5.819   3.004  1.3177  0.2514 -1.8393
13035SOL     OW44234   6.114   8.856   2.849  0.3457  0.6776 -0.0174
13035SOL    HW144235   6.129   8.950   2.865  1.8461  0.2336  1.4141
13035SOL    HW244236   6.113   8.817   2.937  1.0896 -0.8220 -0.6510
13036SOL     OW44237   7.710   2.717   8.726 -0.0775 -0.2435 -0.4235
13036SOL    HW144238   7.720   2.754   8.814  1.6560  2.8021 -1.8030
13036SOL    HW244239   7.758   2.635   8.727  1.4625  0.6644  0.9790
13037SOL     OW44240   6.312   6.542   8.680  0.6836 -0.0538  0.2215
13037SOL    HW144241   6.388   6.484   8.675  0.5017 -0.2366 -0.5887
13037SOL    HW244242   6.333   6.603   8.751  2.6279  1.3194 -1.4310
13038SOL     OW44243  10.247   3.498   1.526  0.0240  0.2094 -0.4379
13038SOL    HW144244  10.315   3.556   1.560 -0.3283  0.6435 -0.4729
13038SOL    HW244245  10.171   3.513   1.583 -0.3480  0.4294 -0.9885
13039SOL     OW44246   9.039   0.515  10.399  0.0316 -0.5204 -0.1743
13039SOL    HW144247   9.012   0.555  10.481 -0.9078 -1.3826 -0.0628
13039SOL    HW244248   8.999   0.428  10.399 -0.2939 -0.4012 -1.7066
13040SOL     OW44249  10.433   6.650  10.053  0.1638  0.0411  0.0613
13040SOL    HW144250  10.394   6.730  10.017 -1.4650 -0.2999  1.0389
13040SOL    HW244251  10.371   6.581  10.031  1.1263 -0.8248  0.0233
13041SOL     OW44252   9.431   2.057   8.611  0.2427  0.4981 -0.0101
13041SOL    HW144253   9.435   2.006   8.531  2.2551  0.3998  0.1229
13041SOL    HW244254   9.387   2.000   8.674 -1.1790  0.5137 -0.9839
13042SOL     OW44255  10.767   1.573  10.436  0.2738 -0.0653 -0.0556
13042SOL    HW144256  10.776   1.488  10.480  1.0094  0.3421  0.5961
13042SOL    HW244257  10.764   1.637  10.507  0.1458  0.4963 -0.5582
13043SOL     OW44258   5.447   5.852   0.387  0.8581 -0.1631 -0.3083
13043SOL    HW144259   5.446   5.767   0.344  0.5229 -0.0769 -0.4639
13043SOL    HW244260   5.465   5.832   0.479  0.1032 -0.4475 -0.2263
13044SOL     OW44261   2.070   7.040   5.370 -0.3039 -0.1234  0.5637
13044SOL    HW144262   1.988   7.085   5.350  0.2341  1.2344  1.3567
13044SOL    HW244263   2.125   7.107   5.410  1.9077 -0.5145 -1.6623
13045SOL     OW44264   4.374   4.837   5.299 -0.3073  0.2031 -0.1417
13045SOL    HW144265   4.466   4.810   5.308 -1.2196 -2.3091  2.4688
13045SOL    HW244266   4.364   4.909   5.360 -0.4306 -0.5550  0.7441
13046SOL     OW44267  11.143   4.203   8.044  0.4644  0.1934  0.1039
13046SOL    HW144268  11.087   4.143   8.093  0.1569  0.3932 -0.0065
13046SOL    HW244269  11.187   4.147   7.980  0.3969  0.0356  0.1942
13047SOL     OW44270   6.303   3.233   8.584  0.3237  0.6312  0.2083
13047SOL    HW144271   6.209   3.252   8.589  0.0463 -0.1941 -1.4891
13047SOL    HW244272   6.344   3.318   8.571 -0.5219  0.6711 -2.6559
13048SOL     OW44273   1.091  10.443   7.917  0.4423  0.4131  0.4047
13048SOL    HW144274   1.177  10.475   7.947  1.0835 -0.5059 -0.4279
13048SOL    HW244275   1.096  10.446   7.822 -0.9829  1.7084  0.3610
13049SOL     OW44276   9.623   4.509  10.710  0.9695 -0.2741 -0.4667
13049SOL    HW144277   9.670   4.589  10.730 -0.0314  0.0801  0.5607
13049SOL    HW244278   9.535   4.538  10.684 -0.0089 -1.0933  1.7938
13050SOL     OW44279   7.137   3.333   5.467  0.5009  0.6492  0.3801
13050SOL    HW144280   7.119   3.250   5.422  0.7049  0.5486  0.4840
13050SOL    HW244281   7.187   3.307   5.545 -0.6723  0.7061  1.1822
13051SOL     OW44282   8.225   0.795   4.693 -0.2525  0.4470  0.5301
13051SOL    HW144283   8.259   0.843   4.617  0.3465  0.0847  0.5626
13051SOL    HW244284   8.177   0.860   4.744 -0.5351  0.7215 -0.0896
13052SOL     OW44285   1.411   2.934   9.615  0.4297  0.0602 -0.0430
13052SOL    HW144286   1.345   2.921   9.683  0.9644 -3.2488 -0.0485
13052SOL    HW244287   1.433   3.027   9.619 -0.2817  0.1225  3.6359
13053SOL     OW44288   6.811   8.229   4.923 -0.2819 -0.5223 -0.2914
13053SOL    HW144289   6.874   8.160   4.940  0.9420  0.9388  1.3120
13053SOL    HW244290   6.825   8.251   4.831  1.5367 -0.2693  0.0123
13054SOL     OW44291   7.378   9.817   2.762 -0.2377  0.0862 -0.0956
13054SOL    HW144292   7.384   9.811   2.667 -1.2084  0.3733 -0.1729
13054SOL    HW244293   7.374   9.911   2.780  1.3970  0.1037  0.3269
13055SOL     OW44294   4.968   1.089   5.354 -0.0381  0.1364 -0.0342
13055SOL    HW144295   4.981   1.103   5.260 -3.8602 -2.7255 -1.1323
13055SOL    HW244296   5.012   1.006   5.372  0.8988  0.8007  0.7995
13056SOL     OW44297   2.905   9.202   3.884 -0.0905  0.1469  0.2237
13056SOL    HW144298   2.868   9.114   3.878  0.6344 -0.1549  0.1737
13056SOL    HW244299   2.909   9.220   3.978  0.4538 -0.1640  0.2582
13057SOL     OW44300   5.344   5.356   0.788 -0.2584  0.3506  0.2502
13057SOL    HW144301   5.320   5.266   0.766 -0.3461  0.2321  0.8061
13057SOL    HW244302   5.260   5.402   0.793 -0.3506  0.0796  1.5794
13058SOL     OW44303   5.675   6.028   2.480  0.7541 -0.4909 -0.3130
13058SOL    HW144304   5.646   6.009   2.391  0.2134 -2.1599  0.1886
13058SOL    HW244305   5.608   5.987   2.536  2.0837 -1.1412  0.8488
13059SOL     OW44306   1.690   0.176  10.570  0.0365  0.2333 -0.2642
13059SOL    HW144307   1.737   0.243  10.620  0.4140  0.0399 -0.3558
13059SOL    HW244308   1.600   0.208  10.565 -0.1053  0.0496  0.9008
13060SOL     OW44309   4.279   3.222   4.227 -0.2019 -0.8368 -0.5667
13060SOL    HW144310   4.282   3.278   4.149 -2.4169  0.0713 -0.0489
13060SOL    HW244311   4.345   3.155   4.212  0.5751  0.3269 -2.4583
13061SOL     OW44312   9.990   6.147   2.991  0.7279  0.0077  0.8129
13061SOL    HW144313  10.042   6.124   3.069 -1.1054 -1.6250  1.6114
13061SOL    HW244314   9.998   6.070   2.934  0.3310  0.3234  0.3318
13062SOL     OW44315   5.917   2.084   5.091 -0.2026 -0.1911 -0.1659
13062SOL    HW144316   5.824   2.102   5.105 -0.8514 -2.2407 -1.5613
13062SOL    HW244317   5.951   2.164   5.051 -1.5017  0.3563 -0.2130
13063SOL     OW44318  10.266   4.991   4.943 -0.2714 -0.2552 -0.0768
13063SOL    HW144319  10.260   4.936   4.865  0.1460  0.9329 -0.9658
13063SOL    HW244320  10.358   5.017   4.946 -0.4637  0.3828  0.3398
13064SOL     OW44321   4.289   8.541   1.644  0.0562  0.7388  0.2067
13064SOL    HW144322   4.252   8.452   1.643 -0.7487  1.0542  1.2728
13064SOL    HW244323   4.257   8.579   1.725 -0.3511  2.3357 -0.6811
13065SOL     OW44324   5.400   8.463   6.778  0.0972 -0.5288  0.0980
13065SOL    HW144325   5.494   8.448   6.767  0.0682 -0.7076  0.0975
13065SOL    HW244326   5.367   8.382   6.817  0.3090  0.3214  2.1445
13066SOL     OW44327   9.665   7.620   2.317 -0.5817 -0.0639  0.7050
13066SOL    HW144328   9.638   7.679   2.247  1.1909 -0.2687 -0.1881
13066SOL    HW244329   9.746   7.659   2.352 -0.4617 -0.9248  1.4240
13067SOL     OW44330   6.716   0.766   1.895 -0.6375 -0.4553  0.1313
13067SOL    HW144331   6.795   0.819   1.885 -1.0835  0.1409 -0.3046
13067SOL    HW244332   6.721   0.730   1.983  0.1854 -0.5268  0.0569
13068SOL     OW44333  10.968   8.344   8.260 -0.5621  0.1403  0.2170
13068SOL    HW144334  11.043   8.340   8.319 -1.6036 -0.1003  1.5382
13068SOL    HW244335  10.992   8.411   8.195  1.5724 -1.2574 -0.4981
13069SOL     OW44336   5.177  10.551   3.595  0.2581  0.0631 -0.1962
13069SOL    HW144337   5.105  10.493   3.569  0.9824 -1.4525  1.0802
13069SOL    HW244338   5.138  10.611   3.658 -0.0079 -0.4446  0.1304
13070SOL     OW44339   3.124   0.561   9.184  0.1223  0.0212 -0.7129
13070SOL    HW144340   3.076   0.478   9.181 -1.3857  0.9192 -2.4107
13070SOL    HW244341   3.172   0.564   9.101  0.8951  0.4269 -0.2560
13071SOL     OW44342   4.963   9.718   9.742  0.5791 -0.5080  0.0148
13071SOL    HW144343   4.916   9.802   9.741  2.1638  0.4801  2.7580
13071SOL    HW244344   5.018   9.719   9.665 -0.1006  0.5639 -0.4589
13072SOL     OW44345  10.537   1.898   0.344  0.3432  0.1237  0.3201
13072SOL    HW144346  10.484   1.922   0.268  2.0194  2.2098 -0.2331
13072SOL    HW244347  10.492   1.936   0.419  0.9983  1.8432 -0.1420
13073SOL     OW44348   3.899  10.775   4.738  0.1040  0.1668  0.9361
13073SOL    HW144349   3.957  10.846   4.712 -2.0877  1.0569 -1.7087
13073SOL    HW244350   3.896  10.717   4.661 -2.7822  0.3610  0.8581
13074SOL     OW44351   2.083  10.994   4.241 -0.1777  0.2428  0.2418
13074SOL    HW144352   2.085  10.926   4.174 -1.6411  1.5788 -1.2187
13074SOL    HW244353   2.168  11.037   4.234  0.9669 -1.7544  1.5541
13075SOL     OW44354   1.490   2.649   5.850  0.4385  0.1955  0.1574
13075SOL    HW144355   1.473   2.578   5.787  1.9598  0.6101 -0.7536
13075SOL    HW244356   1.503   2.605   5.933 -1.0909 -0.4095  0.0861
13076SOL     OW44357   8.983   8.059   2.516  0.3715  0.0626 -0.2496
13076SOL    HW144358   8.968   8.062   2.422 -1.0828 -0.0748 -0.0310
13076SOL    HW244359   9.041   7.984   2.529 -1.3390 -1.3948 -0.8063
13077SOL     OW44360   8.220   4.338   5.264  0.1969  0.5428 -0.4080
13077SOL    HW144361   8.139   4.371   5.302  0.1395 -0.8830  0.7712
13077SOL    HW244362   8.193   4.262   5.212  0.8608 -0.5627  0.8158
13078SOL     OW44363   1.657   6.043   2.230 -0.0294 -0.3334  0.1182
13078SOL    HW144364   1.563   6.035   2.211 -0.1896  0.5974  0.5041
13078SOL    HW244365   1.690   5.954   2.222 -0.9539 -0.6744 -0.0064
13079SOL     OW44366   6.456   5.480   0.971 -0.1788 -0.0853  0.0339
13079SOL    HW144367   6.496   5.480   1.057  0.2566 -0.4117 -0.1692
13079SOL    HW244368   6.375   5.430   0.982 -1.3886  1.9811  0.8335
13080SOL     OW44369   1.584  11.192   9.395 -0.3414  0.3865  0.0678
13080SOL    HW144370   1.648  11.129   9.363 -1.0074 -0.8670  1.1594
13080SOL    HW244371   1.636  11.268   9.421  0.5461 -0.0258 -0.4952
13081SOL     OW44372   3.812   2.531   6.712  0.2228  0.1577  0.4820
13081SOL    HW144373   3.740   2.494   6.762 -0.0716  0.5320  0.3381
13081SOL    HW244374   3.774   2.606   6.667  0.8622  0.7820  0.9614
13082SOL     OW44375  11.135   5.388   4.997 -0.0340 -0.0200 -0.4554
13082SOL    HW144376  11.134   5.390   5.093 -0.9179 -3.6323 -0.2955
13082SOL    HW244377  11.116   5.478   4.970  0.8775  1.1767  2.7449
13083SOL     OW44378   4.260   6.994   1.572 -0.1613 -0.1576 -0.0343
13083SOL    HW144379   4.169   6.969   1.563 -0.0291 -0.2895 -1.0309
13083SOL    HW244380   4.303   6.915   1.605 -0.2112 -0.4347 -0.6299
13084SOL     OW44381   8.577   2.889   8.910 -0.1880 -0.3791  0.3039
13084SOL    HW144382   8.635   2.897   8.834  1.3225 -1.1049  1.3638
13084SOL    HW244383   8.498   2.938   8.885  1.1325  1.1976 -0.8984
13085SOL     OW44384   6.502   8.548  10.303  1.0141  0.0759 -0.1627
13085SOL    HW144385   6.486   8.470  10.356 -0.1996  0.0045 -0.6043
13085SOL    HW244386   6.562   8.602  10.355 -1.1945  0.6338  1.8880
13086SOL     OW44387   6.110   6.001   9.571 -0.1363 -0.6809  0.0241
13086SOL    HW144388   6.067   6.078   9.608 -2.7000 -1.9785 -0.1150
13086SOL    HW244389   6.125   6.023   9.479  1.3896  0.5304  0.5295
13087SOL     OW44390   1.353   6.014   3.591 -0.4069 -0.4427  0.3593
13087SOL    HW144391   1.337   5.931   3.545  0.3512 -0.9965  1.0670
13087SOL    HW244392   1.391   5.987   3.675  0.2342  0.6437  0.4268
13088SOL     OW44393   7.132   6.403   8.155  0.0549  0.1824  0.1689
13088SOL    HW144394   7.078   6.381   8.231 -1.9881  0.8396 -1.0625
13088SOL    HW244395   7.112   6.494   8.137  0.1425 -0.1088 -1.4712
13089SOL     OW44396   5.717   8.745   3.082  0.2566  0.0980  0.1741
13089SOL    HW144397   5.752   8.832   3.102  0.0658  0.2775 -0.2812
13089SOL    HW244398   5.635   8.761   3.036 -0.0499 -0.3247  0.5627
13090SOL     OW44399  10.204   0.821   9.612  0.1360 -0.0069  0.4716
13090SOL    HW144400  10.122   0.843   9.567  0.0768 -0.3138  0.4263
13090SOL    HW244401  10.230   0.901   9.656  0.1122  0.2571  0.0102
13091SOL     OW44402   8.265  10.944   8.805 -0.1329 -0.0008 -0.3743
13091SOL    HW144403   8.204  10.999   8.755 -0.3448  0.4060  0.3252
13091SOL    HW244404   8.315  11.005   8.858  0.3111 -0.4062 -0.3216
13092SOL     OW44405   1.531  10.254   9.099  0.2261  1.4574 -0.0285
13092SOL    HW144406   1.593  10.267   9.027  0.9165 -0.2965  0.2106
13092SOL    HW244407   1.504  10.163   9.090 -0.6860  1.6118  1.1533
13093SOL     OW44408   3.987   2.480   9.489 -0.1969 -0.2629  0.1925
13093SOL    HW144409   3.961   2.560   9.444  1.0303  0.3576  0.5498
13093SOL    HW244410   4.063   2.506   9.542 -0.3437 -1.4504  1.0126
13094SOL     OW44411  10.656   9.062   9.897  0.6642  0.1973 -0.5423
13094SOL    HW144412  10.689   8.985   9.943 -3.0051 -0.3849  1.3128
13094SOL    HW244413  10.618   9.027   9.817  1.0986  0.3951 -0.8382
13095SOL     OW44414   9.778   2.383   6.035 -0.1319 -0.2985 -0.5512
13095SOL    HW144415   9.809   2.463   5.994  0.9592 -0.4321  0.0015
13095SOL    HW244416   9.790   2.316   5.967  0.9590 -0.3798 -0.2911
13096SOL     OW44417   6.479  10.619  11.299  0.8943  0.1826  0.4169
13096SOL    HW144418   6.396  10.663  11.285  1.0244  0.5751  0.8689
13096SOL    HW244419   6.529  10.636  11.219  0.1117 -1.0412 -0.3518
13097SOL     OW44420   0.378  10.526   7.645  0.5684  0.0867  0.3623
13097SOL    HW144421   0.439  10.566   7.707 -0.4706  0.4365  1.1827
13097SOL    HW244422   0.433  10.477   7.585  1.6298  0.1093  1.3041
13098SOL     OW44423  11.220  11.231   2.658 -0.3462 -0.9443 -0.2690
13098SOL    HW144424  11.162  11.261   2.728  0.9583  0.6571  0.1702
13098SOL    HW244425  11.210  11.136   2.658 -2.3228 -0.7598  0.3529
13099SOL     OW44426   4.818   5.114   7.753 -0.2694 -0.2894 -0.2405
13099SOL    HW144427   4.899   5.096   7.801 -0.3881 -0.9919 -0.2981
13099SOL    HW244428   4.749   5.088   7.815 -0.4267 -1.0021 -0.7116
13100SOL     OW44429   7.799   4.931  11.328 -0.1368  0.6537  0.7963
13100SOL    HW144430   7.804   5.012  11.379 -0.8310  1.4491 -0.3618
13100SOL    HW244431   7.874   4.936  11.268  0.5303 -0.1540  1.5551
13101SOL     OW44432   3.965   3.290   2.810  0.6248  0.0585  0.0604
13101SOL    HW144433   3.938   3.285   2.718  3.1424  0.1146 -0.7130
13101SOL    HW244434   3.922   3.369   2.843 -1.0505 -0.4672 -0.7870
13102SOL     OW44435   4.600   1.852   7.279  0.0111  0.2592 -0.0990
13102SOL    HW144436   4.609   1.814   7.191 -0.3774 -2.4044  0.9614
13102SOL    HW244437   4.542   1.927   7.267  0.5534  0.3810 -2.2399
13103SOL     OW44438   6.983   8.991   0.990 -0.1329 -0.3314  0.9222
13103SOL    HW144439   6.985   9.031   0.904  0.9533 -2.3328 -0.0200
13103SOL    HW244440   6.989   9.064   1.051 -0.6767  1.0845 -0.6866
13104SOL     OW44441   8.088  10.865   3.895 -0.2606  0.2613  0.1375
13104SOL    HW144442   8.003  10.855   3.938 -0.1203  0.0282  0.3629
13104SOL    HW244443   8.084  10.808   3.819  0.1546 -0.7271  0.8471
13105SOL     OW44444   0.828   4.915   2.406 -0.1904 -0.3857 -0.4179
13105SOL    HW144445   0.876   4.939   2.485  0.1737 -0.4938 -0.6004
13105SOL    HW244446   0.865   4.972   2.338 -0.4096 -0.3824 -0.5338
13106SOL     OW44447   1.557   3.265   8.677 -0.3033 -0.3143 -0.1451
13106SOL    HW144448   1.598   3.178   8.671  0.6875  0.0106  1.6824
13106SOL    HW244449   1.595   3.314   8.604  0.0616 -1.0265 -0.4449
13107SOL     OW44450   0.405   3.594   3.540  0.0397 -0.2877  0.3890
13107SOL    HW144451   0.403   3.681   3.499  0.3755 -2.0107 -3.5583
13107SOL    HW244452   0.316   3.561   3.528  0.5251 -1.3817 -0.3109
13108SOL     OW44453   5.268   4.009   3.066  0.2756  0.3532 -0.3984
13108SOL    HW144454   5.190   3.955   3.076 -0.4751  1.7333  1.3805
13108SOL    HW244455   5.263   4.072   3.138  2.6335  0.9410 -0.7150
13109SOL     OW44456   0.089   8.773   7.361 -0.2454 -0.4128 -0.0915
13109SOL    HW144457   0.107   8.852   7.412  0.7430 -0.7598  0.0948
13109SOL    HW244458   0.143   8.705   7.401  1.6583 -0.3609 -2.4965
13110SOL     OW44459   2.085  11.123   8.340  0.0618  0.1414  0.1959
13110SOL    HW144460   2.052  11.172   8.265  1.7503  1.4167  0.2416
13110SOL    HW244461   2.069  11.031   8.318  1.7756  0.3999 -2.3635
13111SOL     OW44462   9.975   4.579   0.605  0.0009  0.1228  0.3112
13111SOL    HW144463   9.881   4.564   0.619  0.0138 -0.6203 -0.3977
13111SOL    HW244464   9.981   4.671   0.581 -0.6697 -0.0968 -0.7334
13112SOL     OW44465   0.926   5.107   2.227 -0.0602  0.1301  0.2636
13112SOL    HW144466   0.960   5.126   2.139 -0.0907 -1.3439 -0.0712
13112SOL    HW244467   0.935   5.190   2.274  0.8551  0.6720 -0.8438
13113SOL     OW44468   6.882  10.854  10.221 -0.0353 -0.0957  0.2495
13113SOL    HW144469   6.890  10.777  10.277 -1.4534 -0.1427  0.3874
13113SOL    HW244470   6.945  10.916  10.259  1.2493 -1.2300  0.0259
13114SOL     OW44471   2.815   4.268   7.222 -0.2337  0.1756 -0.1272
13114SOL    HW144472   2.720   4.258   7.208 -0.3569  1.3524 -0.2052
13114SOL    HW244473   2.849   4.179   7.221 -1.4454 -0.3174  0.5727
13115SOL     OW44474   5.712   2.277   3.160  0.0299 -0.3273 -0.4799
13115SOL    HW144475   5.695   2.359   3.114 -0.1867 -0.9190 -1.4770
13115SOL    HW244476   5.719   2.212   3.090  0.0395 -1.1805  0.3132
13116SOL     OW44477   2.517   0.074  10.607 -0.0312 -0.0345 -0.0239
13116SOL    HW144478   2.553   0.075  10.519  1.3749  0.1518  0.5385
13116SOL    HW244479   2.508   0.166  10.631  0.6140 -0.0965  0.4442
13117SOL     OW44480  10.653   9.370   0.260  0.3845  0.0414  0.5170
13117SOL    HW144481  10.670   9.370   0.354 -0.3509  0.8146  0.6575
13117SOL    HW244482  10.691   9.452   0.228  1.2543 -0.5425  0.0147
13118SOL     OW44483  10.732  10.155   8.075  0.5742 -0.1599  0.7934
13118SOL    HW144484  10.679  10.076   8.075  1.7600 -0.9631  0.3874
13118SOL    HW244485  10.814  10.129   8.116  1.9312  0.2023 -1.5932
13119SOL     OW44486   0.073   7.060   3.491  0.5046 -0.0877 -0.1286
13119SOL    HW144487   0.119   7.115   3.428  1.0108  1.1536  1.3181
13119SOL    HW244488   0.073   7.110   3.572 -1.2366 -1.1380  0.5537
13120SOL     OW44489   4.587   4.417   3.247  0.1328 -0.0635  0.5953
13120SOL    HW144490   4.638   4.439   3.325 -0.4564 -1.4387  1.3816
13120SOL    HW244491   4.650   4.373   3.189  0.5916  1.0348  0.2360
13121SOL     OW44492   8.368   1.687   6.431  0.4534 -0.8443 -0.0532
13121SOL    HW144493   8.423   1.751   6.475  0.0459 -1.0050  0.6991
13121SOL    HW244494   8.414   1.668   6.349  0.8461 -0.0033 -0.0352
13122SOL     OW44495   7.649  10.771  10.500 -0.2991  0.2745 -0.0544
13122SOL    HW144496   7.625  10.682  10.474 -1.0807  0.8179 -1.2337
13122SOL    HW244497   7.655  10.820  10.418 -1.4265  1.6921  0.6771
13123SOL     OW44498   8.688   1.853   8.337  0.3550  0.2402  0.2010
13123SOL    HW144499   8.678   1.863   8.431 -1.9952 -0.6342  0.0870
13123SOL    HW244500   8.732   1.768   8.327  0.5724  0.3152  0.5089
13124SOL     OW44501   8.980   7.300   5.189 -0.3492  0.0844 -0.0562
13124SOL    HW144502   8.924   7.301   5.266 -0.5311 -0.1357 -0.1844
13124SOL    HW244503   9.061   7.257   5.217 -0.4321 -0.0321 -0.0002
13125SOL     OW44504  11.175  10.390  11.013 -0.3431  0.0733 -0.0576
13125SOL    HW144505  11.143  10.302  10.994  0.2354 -0.5061  1.5840
13125SOL    HW244506  11.245  10.405  10.949  0.4221 -1.1737  0.4693
13126SOL     OW44507   7.278   3.432   7.360 -0.1981 -0.0523 -0.1962
13126SOL    HW144508   7.349   3.473   7.311 -0.4491  1.2156  0.4823
13126SOL    HW244509   7.276   3.342   7.327 -0.8219  0.9301 -3.0277
13127SOL     OW44510   0.773   2.636   4.801  0.2120  0.0311  0.1668
13127SOL    HW144511   0.810   2.565   4.852 -1.8308 -0.0008  1.6443
13127SOL    HW244512   0.690   2.602   4.769 -0.8835  1.7970  1.0647
13128SOL     OW44513   9.158   0.466  10.835  0.0895  0.7143  0.5669
13128SOL    HW144514   9.149   0.373  10.816  1.3627  0.7350 -0.1920
13128SOL    HW244515   9.109   0.511  10.766 -0.2625  0.6303  0.7595
13129SOL     OW44516   0.948   7.498   5.861 -0.5256  0.0043 -0.2637
13129SOL    HW144517   0.856   7.517   5.881 -0.6701 -1.5213  0.5402
13129SOL    HW244518   0.947   7.408   5.828  0.4389  0.6309 -2.0389
13130SOL     OW44519   0.880   0.960   2.301  0.0512  0.4548  0.0783
13130SOL    HW144520   0.795   1.002   2.294 -1.0360 -1.5949  0.8159
13130SOL    HW244521   0.870   0.877   2.254  1.4885 -0.0318  0.6059
13131SOL     OW44522  10.287   7.811   0.016  0.0935 -0.1671 -0.2995
13131SOL    HW144523  10.355   7.869   0.049 -0.1874  1.3240 -2.2010
13131SOL    HW244524  10.291   7.822  -0.079 -1.0471 -2.0774 -0.6022
13132SOL     OW44525   0.473   8.161  10.279  0.5578  0.7045  0.0221
13132SOL    HW144526   0.491   8.080  10.230 -1.8122 -0.6927  1.3720
13132SOL    HW244527   0.380   8.177  10.265  0.3817  1.6043  2.1325
13133SOL     OW44528   2.293   2.067   6.872 -0.4952  0.9942  0.0741
13133SOL    HW144529   2.265   2.038   6.958  3.8414  2.0771  2.0021
13133SOL    HW244530   2.323   1.987   6.828  2.1297  1.0396  1.6324
13134SOL     OW44531   9.227   1.985   4.861  0.3898  0.3415 -0.0767
13134SOL    HW144532   9.214   1.907   4.806  1.5286  0.2126 -0.1790
13134SOL    HW244533   9.139   2.022   4.872  0.1602  0.4787 -2.1601
13135SOL     OW44534   9.950   7.895   0.377 -0.0686  0.1085 -0.3304
13135SOL    HW144535   9.873   7.875   0.325 -0.7115 -0.2475  0.7309
13135SOL    HW244536   9.947   7.991   0.388 -1.8302 -0.1525  1.8884
13136SOL     OW44537   9.849  11.178   5.638  0.3512 -0.3707 -0.4672
13136SOL    HW144538   9.828  11.153   5.728 -0.7535 -1.4857 -1.0229
13136SOL    HW244539   9.858  11.273   5.642 -1.1059 -0.2480  0.5541
13137SOL     OW44540   0.496   6.443   4.972  0.3182  0.2208  0.1996
13137SOL    HW144541   0.494   6.461   4.878 -0.2451 -0.2908  0.1099
13137SOL    HW244542   0.517   6.527   5.012 -1.4601  0.9260 -0.2692
13138SOL     OW44543   9.725   3.045   9.069  0.0762  0.1462  0.3037
13138SOL    HW144544   9.769   3.084   9.145  0.9521  1.0141 -0.6173
13138SOL    HW244545   9.794   3.037   9.004 -0.9347  0.6514 -0.8523
13139SOL     OW44546  11.083   0.971   6.934 -0.4625  0.0241  0.2517
13139SOL    HW144547  11.051   1.049   6.980 -1.2711  0.4245 -0.9577
13139SOL    HW244548  11.022   0.902   6.961 -1.2327  0.3673 -0.5889
13140SOL     OW44549   0.507   4.861   3.971 -0.1290 -0.0225 -0.3927
13140SOL    HW144550   0.520   4.931   3.907  0.3548  0.9796  0.7770
13140SOL    HW244551   0.462   4.903   4.045 -0.0263 -0.9887  0.2393
13141SOL     OW44552   2.372   8.162  10.237  0.5892 -0.0556  0.3843
13141SOL    HW144553   2.302   8.209  10.282 -1.1041 -1.5130 -0.6754
13141SOL    HW244554   2.376   8.201  10.150  1.3121  0.2187  0.5301
13142SOL     OW44555   1.276   9.753   0.943  0.1362 -0.0019 -0.0989
13142SOL    HW144556   1.274   9.804   0.862  1.7126  0.0195 -0.1527
13142SOL    HW244557   1.233   9.671   0.921 -0.1179  0.2977 -0.7397
13143SOL     OW44558   4.468  11.174   7.842 -1.1034  0.3906 -0.1057
13143SOL    HW144559   4.511  11.105   7.892 -1.8330  0.2985  0.4053
13143SOL    HW244560   4.479  11.253   7.895  0.2281  0.7981 -0.9602
13144SOL     OW44561   2.951   0.849   7.047 -0.1778 -0.0002 -0.2312
13144SOL    HW144562   2.894   0.925   7.038 -0.4988 -0.1027  0.8405
13144SOL    HW244563   3.035   0.884   7.075 -0.0944  0.0310 -0.5197
13145SOL     OW44564   5.244   4.928   8.024  0.3176  0.4260 -1.0561
13145SOL    HW144565   5.174   4.902   8.084  0.0034  0.9599 -1.1941
13145SOL    HW244566   5.325   4.906   8.071  0.0654 -1.4652 -1.4458
13146SOL     OW44567   5.272   3.792   1.343 -0.1296  0.1678 -0.5458
13146SOL    HW144568   5.177   3.790   1.351 -0.1783  1.2812 -0.6937
13146SOL    HW244569   5.303   3.734   1.412 -0.9522 -1.4312 -1.4968
13147SOL     OW44570   8.579   6.810   3.337  0.4880  0.2253 -0.0868
13147SOL    HW144571   8.520   6.761   3.279 -0.9367  1.0846  0.5984
13147SOL    HW244572   8.547   6.900   3.332  1.7243  0.6976  0.3527
13148SOL     OW44573   2.967   6.332  10.776  0.2108  0.2950 -0.4583
13148SOL    HW144574   3.031   6.270  10.810 -0.4669 -2.0942 -3.2618
13148SOL    HW244575   2.894   6.329  10.838  1.0898 -0.1138  0.5546
13149SOL     OW44576   6.361   4.284   6.469  0.2628 -0.0958  0.3655
13149SOL    HW144577   6.298   4.342   6.512 -0.2802 -0.2036 -0.2756
13149SOL    HW244578   6.366   4.318   6.380  2.0698  0.6947  0.7511
13150SOL     OW44579   3.992   4.809   1.706  0.0821  0.0492 -0.2975
13150SOL    HW144580   4.003   4.762   1.624 -0.8234 -0.5217 -0.1006
13150SOL    HW244581   3.984   4.740   1.772  2.0259  0.5012  0.4495
13151SOL     OW44582   3.602   9.867   3.888 -0.4769 -0.0651 -0.7468
13151SOL    HW144583   3.577   9.782   3.853 -0.8536 -1.6466  3.1463
13151SOL    HW244584   3.694   9.856   3.915 -1.4698 -0.3702  2.7992
13152SOL     OW44585   7.995   0.436   1.850  0.2474 -1.1507 -0.5964
13152SOL    HW144586   7.992   0.347   1.885  1.1552 -0.7128  0.6541
13152SOL    HW244587   8.089   0.456   1.844  0.0381  0.1016  0.1535
13153SOL     OW44588   5.961   2.449   8.317  0.0590 -0.1622 -0.0952
13153SOL    HW144589   5.982   2.491   8.400  0.6268 -1.2271  0.3070
13153SOL    HW244590   5.872   2.414   8.329 -0.0369  0.0769 -0.1007
13154SOL     OW44591   8.386   5.483   6.148  0.0192 -0.2772 -0.3821
13154SOL    HW144592   8.384   5.561   6.203  0.7785 -0.3902 -0.1860
13154SOL    HW244593   8.463   5.494   6.093  0.6330 -1.2996  0.2661
13155SOL     OW44594   8.430   9.848   0.979 -0.2533  0.2951 -0.2612
13155SOL    HW144595   8.428   9.866   1.073 -0.5792  0.2902 -0.2663
13155SOL    HW244596   8.510   9.798   0.965  0.7012  1.7807 -0.2429
13156SOL     OW44597   7.813   0.400   9.943  0.3900 -0.1112 -0.9829
13156SOL    HW144598   7.820   0.491   9.916 -0.3479  0.3625  0.3911
13156SOL    HW244599   7.725   0.391   9.978  1.3059 -0.6813  1.2674
13157SOL     OW44600   5.773   0.496   6.606 -0.4758  0.4068 -0.0097
13157SOL    HW144601   5.761   0.558   6.534  0.5482  0.9407  0.2600
13157SOL    HW244602   5.706   0.520   6.670 -0.4975  0.8285 -0.1887
13158SOL     OW44603  11.062  10.418   3.937  0.6953 -0.1486 -0.0985
13158SOL    HW144604  10.984  10.383   3.894  0.7218 -1.2109  0.6870
13158SOL    HW244605  11.083  10.498   3.889  0.6111 -1.2014 -1.9350
13159SOL     OW44606   2.594   8.800   1.544 -0.5789 -0.2616  0.1742
13159SOL    HW144607   2.504   8.825   1.520  0.0819  1.0108 -1.0376
13159SOL    HW244608   2.591   8.705   1.549 -2.0252 -0.2325  0.2248
13160SOL     OW44609   5.977   4.373  10.958 -0.1018 -0.3154 -0.4307
13160SOL    HW144610   5.897   4.407  10.998  0.0113  0.8349 -1.1449
13160SOL    HW244611   6.018   4.319  11.026 -1.1788 -0.4177  0.1331
13161SOL     OW44612   6.614   0.419   6.817 -0.3098 -0.2623 -0.0362
13161SOL    HW144613   6.632   0.513   6.816 -1.0019 -0.1232  0.3181
13161SOL    HW244614   6.550   0.406   6.747 -0.4787 -0.4174  0.1460
13162SOL     OW44615   3.647   1.920   4.420 -0.2952 -0.6626 -0.3454
13162SOL    HW144616   3.565   1.921   4.370 -0.7899  1.1452  0.4748
13162SOL    HW244617   3.623   1.880   4.504 -0.7612  1.4356  0.5520
13163SOL     OW44618   5.517   3.596   1.731  0.1124 -0.2858  0.2254
13163SOL    HW144619   5.530   3.538   1.656  0.5950  0.0744  0.0231
13163SOL    HW244620   5.548   3.545   1.806 -0.5009 -0.6977  0.2010
13164SOL     OW44621   0.559   5.694   6.871 -0.3875 -0.1762 -0.0096
13164SOL    HW144622   0.621   5.647   6.926 -0.8700  0.4930  1.1161
13164SOL    HW244623   0.586   5.673   6.781  0.2434 -1.4652  0.4712
13165SOL     OW44624  10.505   5.459   5.934 -0.4729  0.0015  0.0669
13165SOL    HW144625  10.544   5.440   5.848 -0.2999  1.7833 -0.2643
13165SOL    HW244626  10.415   5.484   5.915 -1.0067 -1.4890  0.5909
13166SOL     OW44627   1.896   7.753   8.371  0.0213  0.0869 -0.0796
13166SOL    HW144628   1.928   7.664   8.364  1.2867  0.5009  0.3895
13166SOL    HW244629   1.899   7.787   8.281  0.0852 -0.1554 -0.1689
13167SOL     OW44630   2.656  10.990   8.318  0.3689  0.1285  0.7327
13167SOL    HW144631   2.565  11.015   8.335  1.0023  1.9971  1.5712
13167SOL    HW244632   2.706  11.043   8.380  1.9381 -1.8956  1.2150
13168SOL     OW44633  11.110   7.134  11.173 -0.4203 -0.5012  0.3857
13168SOL    HW144634  11.044   7.185  11.220  0.4764  0.2749  0.8170
13168SOL    HW244635  11.194   7.173  11.199  0.1802 -1.1272 -0.5798
13169SOL     OW44636  10.349   0.492   2.554 -0.3946  0.0979  0.4792
13169SOL    HW144637  10.317   0.575   2.588  0.1735  0.7741 -0.5926
13169SOL    HW244638  10.422   0.516   2.497 -0.0568 -1.1562  0.3636
13170SOL     OW44639   4.258   4.691   5.895  0.3773  0.3818 -0.1961
13170SOL    HW144640   4.306   4.736   5.825  1.1685  0.0673  0.1311
13170SOL    HW244641   4.178   4.659   5.853 -0.1101  1.9308 -0.4670
13171SOL     OW44642   6.540   8.364   8.334  0.0865  0.6840 -0.9955
13171SOL    HW144643   6.621   8.415   8.343  0.2365  0.3890 -0.6744
13171SOL    HW244644   6.471   8.425   8.358  0.2979  0.6240 -0.2304
13172SOL     OW44645  10.832   8.916   3.422 -0.0951 -0.6452 -0.1374
13172SOL    HW144646  10.926   8.908   3.408  0.1528  0.6452  0.6649
13172SOL    HW244647  10.817   8.877   3.508 -0.5814 -2.4756 -1.0325
13173SOL     OW44648   0.634   8.768   8.557  0.6670  1.0006  0.5353
13173SOL    HW144649   0.560   8.812   8.514  0.1643  1.2898  1.6687
13173SOL    HW244650   0.678   8.721   8.487  0.0248  1.6945 -0.3429
13174SOL     OW44651   8.358   8.057   7.046  0.0389 -0.3886 -0.6418
13174SOL    HW144652   8.418   8.131   7.036 -1.2472  0.9263  1.0366
13174SOL    HW244653   8.341   8.052   7.140  1.8414 -4.2967 -0.4169
13175SOL     OW44654   9.803   1.298   2.175  0.5001  0.0407  0.2254
13175SOL    HW144655   9.743   1.365   2.143  0.8875  0.7130  0.9078
13175SOL    HW244656   9.838   1.258   2.095 -1.6999 -1.1421 -0.1911
13176SOL     OW44657   4.357   9.592   3.225  0.5114 -0.8042  0.7225
13176SOL    HW144658   4.384   9.663   3.166  0.0577 -0.3742  1.0205
13176SOL    HW244659   4.323   9.524   3.167  0.2037 -0.4438  0.4791
13177SOL     OW44660  10.901   6.683   3.424 -0.0601 -0.3940  0.3687
13177SOL    HW144661  10.816   6.720   3.448 -0.0950  1.0328 -1.7810
13177SOL    HW244662  10.881   6.624   3.351  0.5882 -1.3260  0.9374
13178SOL     OW44663   9.332   6.366   6.133 -0.3920 -0.3385  0.6879
13178SOL    HW144664   9.263   6.389   6.071 -0.3997 -1.0423  0.4277
13178SOL    HW244665   9.390   6.442   6.134  0.0523 -0.6489 -0.7997
13179SOL     OW44666   4.113   0.855   6.006  0.1204 -0.1817 -0.5378
13179SOL    HW144667   4.136   0.776   5.957  1.9313  0.3951 -0.6568
13179SOL    HW244668   4.149   0.927   5.954 -0.0812  0.5998  0.3891
13180SOL     OW44669   4.542   9.607   2.795  0.2233 -0.2313 -0.0967
13180SOL    HW144670   4.631   9.572   2.795  0.4180  0.2520  0.0001
13180SOL    HW244671   4.549   9.688   2.744  0.1274  0.5223  1.0560
13181SOL     OW44672   2.278   4.757   2.545 -0.3293 -0.8806 -0.3543
13181SOL    HW144673   2.259   4.697   2.616  0.3322 -0.5496  0.1041
13181SOL    HW244674   2.324   4.704   2.480  0.2286 -0.8813  0.0383
13182SOL     OW44675   0.353   7.376   8.403  0.0996 -0.2061 -0.2011
13182SOL    HW144676   0.442   7.410   8.391  0.2842 -0.0661  1.5418
13182SOL    HW244677   0.343   7.313   8.331  1.8947 -0.8277  0.0466
13183SOL     OW44678   0.238   1.861   0.187  0.3442 -0.2666  0.1249
13183SOL    HW144679   0.282   1.884   0.269 -0.4473 -0.4291  0.6054
13183SOL    HW244680   0.262   1.931   0.126  0.2385  0.3230  0.7540
13184SOL     OW44681   7.303   7.030   3.861  0.2172 -0.6262  0.4927
13184SOL    HW144682   7.373   7.024   3.927  1.2656 -0.2303 -0.5599
13184SOL    HW244683   7.275   6.940   3.847 -1.2506 -0.5700  2.7612
13185SOL     OW44684   4.878  11.272   1.402 -0.0285 -0.4278  0.1170
13185SOL    HW144685   4.834  11.344   1.358 -1.3334 -1.7724 -0.8408
13185SOL    HW244686   4.847  11.193   1.357  0.7308 -1.6550  1.6602
13186SOL     OW44687   3.658   4.023   6.655 -0.2836 -0.3138 -0.4009
13186SOL    HW144688   3.746   4.007   6.691 -0.8050 -1.3423  0.4325
13186SOL    HW244689   3.665   4.108   6.613  1.3413 -0.7540 -1.0463
13187SOL     OW44690   6.719   9.670   4.017 -0.0523 -0.0494  0.3307
13187SOL    HW144691   6.697   9.577   4.016  0.1330 -0.1036 -1.3491
13187SOL    HW244692   6.790   9.678   3.954  1.0494  0.9855  1.6966
13188SOL     OW44693   6.691   0.494   4.382  0.2138 -0.1351 -0.2201
13188SOL    HW144694   6.783   0.469   4.373  0.0060 -1.0353  0.1663
13188SOL    HW244695   6.668   0.470   4.471 -0.4717 -0.1271 -0.3924
13189SOL     OW44696   2.800   5.591   9.892  0.0490 -0.0756 -0.1562
13189SOL    HW144697   2.864   5.630   9.832  0.1425  0.7651  0.4711
13189SOL    HW244698   2.798   5.498   9.868 -0.1058  0.3001 -1.6065
13190SOL     OW44699   4.236   1.225   0.832 -0.2636 -0.4784 -0.0689
13190SOL    HW144700   4.259   1.148   0.780  0.7232 -0.4403  0.2997
13190SOL    HW244701   4.320   1.262   0.859 -0.7487 -1.0357  2.3357
13191SOL     OW44702   7.192   4.026   2.370  0.2673  0.0091 -0.1225
13191SOL    HW144703   7.099   4.018   2.349  0.5492 -1.3783 -0.8871
13191SOL    HW244704   7.194   4.040   2.465 -0.6974 -0.4866 -0.0190
13192SOL     OW44705   8.527   0.562   1.246  0.0577  0.0362  0.7371
13192SOL    HW144706   8.527   0.477   1.203  0.6993  0.4656 -0.1328
13192SOL    HW244707   8.538   0.543   1.339  1.7494 -0.7590  0.3825
13193SOL     OW44708   8.831   4.294   2.565 -0.1116 -0.6822  0.5171
13193SOL    HW144709   8.769   4.342   2.620 -0.6289  0.1453 -0.7793
13193SOL    HW244710   8.907   4.351   2.557 -0.3821 -0.4322 -0.3236
13194SOL     OW44711   2.336   0.596   4.321 -0.6989 -0.0266 -0.2291
13194SOL    HW144712   2.293   0.581   4.406 -0.5070 -0.2357 -0.1681
13194SOL    HW244713   2.426   0.618   4.343 -1.1679  2.0586 -0.2798
13195SOL     OW44714   6.968   4.242   0.607 -0.7916  0.6788 -0.0588
13195SOL    HW144715   6.994   4.248   0.699 -1.1047  2.2888 -0.0521
13195SOL    HW244716   6.873   4.234   0.610 -0.5910 -1.9551 -0.1750
13196SOL     OW44717   4.061  11.249   5.610  0.6831 -0.0989  0.2286
13196SOL    HW144718   3.972  11.236   5.578  1.1466  1.0239 -1.5908
13196SOL    HW244719   4.075  11.176   5.671 -1.3021 -0.5474  0.1890
13197SOL     OW44720   7.625   7.168   7.950 -0.2282  0.2944 -0.2821
13197SOL    HW144721   7.692   7.137   7.889  0.0165  1.3091 -0.5335
13197SOL    HW244722   7.542   7.156   7.903 -0.3176 -1.9074  0.4186
13198SOL     OW44723   8.806   3.924   4.231 -0.0607 -0.0385  0.4217
13198SOL    HW144724   8.816   3.845   4.178  0.0279  0.2194  0.0495
13198SOL    HW244725   8.770   3.893   4.314  1.1443 -0.6295  0.7331
13199SOL     OW44726   0.784   0.439   4.539  0.0352 -0.3513  0.2606
13199SOL    HW144727   0.701   0.393   4.527 -0.1708 -0.4442  1.9475
13199SOL    HW244728   0.850   0.380   4.502 -0.4918 -0.9001  0.1904
13200SOL     OW44729   1.357   2.690   7.910  0.0435  0.6207 -0.1089
13200SOL    HW144730   1.406   2.741   7.845  0.0120  0.6567 -0.1044
13200SOL    HW244731   1.421   2.670   7.978  0.8595 -1.9450 -1.5538
13201SOL     OW44732   5.117   1.015   0.617 -0.8111  0.2627 -0.5054
13201SOL    HW144733   5.203   1.022   0.659 -0.5713 -0.3788 -0.8848
13201SOL    HW244734   5.136   0.977   0.531 -1.3947  0.7921 -0.8695
13202SOL     OW44735   3.252   3.558   8.747 -0.2444  0.6792 -0.1526
13202SOL    HW144736   3.195   3.483   8.732  0.5981  0.3779 -2.0571
13202SOL    HW244737   3.317   3.553   8.677  1.2963  1.7945  1.1664
13203SOL     OW44738   3.673  10.979   2.277  0.1973 -0.0435 -0.5510
13203SOL    HW144739   3.710  11.020   2.355  1.5902 -2.2287 -0.0104
13203SOL    HW244740   3.587  11.020   2.266  0.0978  0.5033  1.9578
13204SOL     OW44741  11.257   7.417   8.496 -0.0297 -0.5055 -0.2405
13204SOL    HW144742  11.269   7.329   8.458  3.0993  0.1873 -1.0392
13204SOL    HW244743  11.195   7.460   8.438  3.1179 -0.1614 -3.5504
13205SOL     OW44744   4.016   3.461   0.634  0.1100  0.1441 -0.2343
13205SOL    HW144745   4.029   3.381   0.583 -0.1892  0.5836 -1.0124
13205SOL    HW244746   3.921   3.469   0.640  0.1248  1.0491 -1.1308
13206SOL     OW44747   8.212   7.089   5.670 -0.9888 -0.2888  0.2557
13206SOL    HW144748   8.127   7.044   5.672 -0.9969 -0.2172  2.0820
13206SOL    HW244749   8.237   7.098   5.762  1.6432 -1.5069 -0.2936
13207SOL     OW44750   7.479  10.841   9.966 -0.0387 -0.0104  0.1999
13207SOL    HW144751   7.427  10.807   9.893 -0.6136 -0.8056  0.9668
13207SOL    HW244752   7.510  10.763  10.011  0.1446  0.4835  0.9279
13208SOL     OW44753   2.866   4.370   2.559  0.8545  0.6065  0.6638
13208SOL    HW144754   2.841   4.328   2.477 -0.3858  1.9399  0.3379
13208SOL    HW244755   2.828   4.316   2.627 -0.9415  1.3064  0.2410
13209SOL     OW44756   4.397   6.769   8.591 -0.0382  0.3814 -0.2636
13209SOL    HW144757   4.418   6.719   8.512 -0.0860  1.1348 -0.7608
13209SOL    HW244758   4.478   6.771   8.641 -0.1373 -0.5157 -0.0595
13210SOL     OW44759   0.872   6.168   3.846 -0.4269  0.3918 -0.4590
13210SOL    HW144760   0.839   6.093   3.795  0.2470 -0.7183  0.6894
13210SOL    HW244761   0.799   6.192   3.903 -0.2938 -0.0738 -0.0889
13211SOL     OW44762   9.745   5.932   4.993 -0.1532 -0.9210  0.0182
13211SOL    HW144763   9.726   5.848   4.952  1.8141 -1.5038  0.2286
13211SOL    HW244764   9.747   5.994   4.920 -1.1564 -1.1384 -0.1967
13212SOL     OW44765   2.121   1.817   3.160  0.8664  0.1408 -0.0479
13212SOL    HW144766   2.123   1.813   3.256 -1.0355 -0.6511 -0.0110
13212SOL    HW244767   2.060   1.887   3.140  0.2321 -0.5834 -0.6718
13213SOL     OW44768   5.256   3.523   8.800  0.3495  0.3456  0.3098
13213SOL    HW144769   5.338   3.474   8.806 -0.0256 -0.2122  0.9542
13213SOL    HW244770   5.282   3.615   8.809  0.8988  0.1659  0.5579
13214SOL     OW44771   7.846   5.309   9.689 -0.3962 -0.2661 -0.3924
13214SOL    HW144772   7.855   5.401   9.663 -1.9982  0.4942  1.5661
13214SOL    HW244773   7.885   5.306   9.776 -0.9982 -1.2819 -0.1565
13215SOL     OW44774   2.933   8.433   4.109  0.5272  0.8712  0.0522
13215SOL    HW144775   2.948   8.424   4.203  2.6660  0.7059 -0.2777
13215SOL    HW244776   2.980   8.359   4.070 -1.3638  0.2143 -1.0938
13216SOL     OW44777   8.906   3.969   0.774 -0.1665 -0.7073  0.7280
13216SOL    HW144778   8.987   3.926   0.799  1.0643  0.2948 -1.3989
13216SOL    HW244779   8.914   4.058   0.809 -0.8196 -0.9118  1.4168
13217SOL     OW44780   4.686   1.605   2.428 -0.3645 -0.5057 -0.2654
13217SOL    HW144781   4.715   1.607   2.519 -1.5244 -2.0038  0.1677
13217SOL    HW244782   4.692   1.512   2.402 -1.5557 -0.3413 -1.1942
13218SOL     OW44783   8.908   7.016   9.607 -0.2857  0.3776  0.5121
13218SOL    HW144784   8.888   6.942   9.549 -0.5779 -0.4985  1.7015
13218SOL    HW244785   8.856   7.088   9.573 -3.8133 -1.2503  2.2131
13219SOL     OW44786   2.840   7.272   4.382 -0.0381  0.1685  0.3799
13219SOL    HW144787   2.765   7.303   4.433 -0.9279 -1.0381 -0.1691
13219SOL    HW244788   2.847   7.179   4.406  0.2347 -0.1254 -0.8456
13220SOL     OW44789   3.145   7.313   9.739  0.4975 -0.7876  0.3052
13220SOL    HW144790   3.167   7.227   9.705  0.2837 -0.9517  0.5761
13220SOL    HW244791   3.105   7.359   9.665  2.9715 -0.0134 -0.5763
13221SOL     OW44792   3.483   2.692   2.069  0.5792  0.4087 -0.3451
13221SOL    HW144793   3.486   2.660   2.159  2.6706  0.9400 -0.2016
13221SOL    HW244794   3.564   2.660   2.029  1.5187  3.3142 -0.9223
13222SOL     OW44795   1.594   6.034   3.352  1.0102  0.4800 -0.0831
13222SOL    HW144796   1.592   6.127   3.329  0.5384  0.0986 -1.6720
13222SOL    HW244797   1.594   5.988   3.268 -1.3219 -0.9909  0.6496
13223SOL     OW44798   2.475  10.858   1.113 -0.4151 -0.6014 -0.4263
13223SOL    HW144799   2.382  10.837   1.117 -0.4210 -0.6437 -0.8208
13223SOL    HW244800   2.496  10.859   1.020 -0.1340 -0.1061 -0.3636
13224SOL     OW44801   0.846   8.485   2.546 -0.0779 -0.5691 -0.1551
13224SOL    HW144802   0.930   8.485   2.592 -1.0763 -0.6505  1.7127
13224SOL    HW244803   0.811   8.397   2.560 -0.5233 -0.5066 -0.8518
13225SOL     OW44804  10.914   4.814   9.547  0.0504  0.6917  0.4155
13225SOL    HW144805  10.996   4.861   9.558  0.2728  0.2664  0.6132
13225SOL    HW244806  10.873   4.816   9.634 -0.2881  1.1541  0.2482
13226SOL     OW44807   2.776   1.086  10.466 -0.5000  0.3576  0.3045
13226SOL    HW144808   2.849   1.137  10.431 -1.5048  1.5176 -0.1374
13226SOL    HW244809   2.787   1.091  10.561  0.9127 -0.8426  0.2120
13227SOL     OW44810   5.193  10.389   0.647 -0.4289  0.1466 -0.3306
13227SOL    HW144811   5.106  10.416   0.677 -0.3532 -0.2676  0.2585
13227SOL    HW244812   5.184  10.295   0.631  0.8614 -0.6477  3.1844
13228SOL     OW44813   9.241  10.154   9.022 -0.1167 -0.0743 -0.4157
13228SOL    HW144814   9.221  10.066   9.055 -0.8434  0.2339 -0.0436
13228SOL    HW244815   9.157  10.199   9.019  0.4767  1.2059  1.1320
13229SOL     OW44816   8.680   6.242   6.240  0.0408  0.3399  0.1340
13229SOL    HW144817   8.748   6.266   6.303  0.2590 -0.0072  0.0332
13229SOL    HW244818   8.726   6.194   6.172 -0.2327  0.5135 -0.1764
13230SOL     OW44819   5.371   4.439   6.137 -0.1581  0.0643 -0.1975
13230SOL    HW144820   5.438   4.416   6.073 -0.1477 -0.1715 -0.1039
13230SOL    HW244821   5.316   4.503   6.093 -0.3495 -0.3502 -0.5644
13231SOL     OW44822   2.874   0.460   2.116 -0.2023  0.0354  0.0752
13231SOL    HW144823   2.847   0.544   2.153 -1.2090 -0.3737  0.2791
13231SOL    HW244824   2.796   0.428   2.070  0.3535 -0.5185 -0.4986
13232SOL     OW44825   5.187   9.902   4.996 -0.1438 -0.1196  0.1359
13232SOL    HW144826   5.150   9.839   4.934  0.9945  0.2543 -0.9262
13232SOL    HW244827   5.277   9.873   5.009 -0.3907 -0.2520  1.7164
13233SOL     OW44828   0.527   5.437   4.994  0.3204 -0.2811  0.4477
13233SOL    HW144829   0.485   5.361   5.033 -0.7850  1.2146  2.2328
13233SOL    HW244830   0.466   5.509   5.008  2.6594  1.5781  1.4747
13234SOL     OW44831   0.386   2.384   4.173  0.0655  0.7967  0.3203
13234SOL    HW144832   0.301   2.366   4.133  0.6546  0.8100 -0.9510
13234SOL    HW244833   0.399   2.312   4.234  0.9834 -1.5107 -2.4642
13235SOL     OW44834   1.275   3.634   9.318  0.1528  0.2138 -0.3258
13235SOL    HW144835   1.349   3.584   9.352  1.2703  1.4150 -0.9149
13235SOL    HW244836   1.238   3.579   9.249  1.7041  0.3872 -1.3413
13236SOL     OW44837   8.397   9.883   2.757 -0.1141  0.0994 -0.1426
13236SOL    HW144838   8.306   9.903   2.733 -0.1665  1.6392  1.3210
13236SOL    HW244839   8.450   9.935   2.698 -0.1423 -1.2936 -1.4405
13237SOL     OW44840   6.917   5.910   5.678  0.3250 -0.3384  0.1604
13237SOL    HW144841   6.850   5.869   5.623 -1.2784  0.9261  1.1203
13237SOL    HW244842   6.962   5.971   5.620  0.4927 -1.0132 -0.4273
13238SOL     OW44843   7.079   5.026  10.098 -0.1263  0.7253 -0.1744
13238SOL    HW144844   7.037   5.111  10.110 -0.3584  0.2467  3.0258
13238SOL    HW244845   7.007   4.963  10.101  0.2990  0.2470  0.0242
13239SOL     OW44846   7.136   7.184   7.501 -0.4767 -0.4545  0.4130
13239SOL    HW144847   7.106   7.110   7.555  0.4888 -0.0804  1.5004
13239SOL    HW244848   7.102   7.166   7.414 -0.0395 -2.3264  0.6054
13240SOL     OW44849   4.550  10.293   9.149  0.3754 -0.1012  0.0146
13240SOL    HW144850   4.554  10.344   9.068  0.0737 -0.1778 -0.0489
13240SOL    HW244851   4.631  10.241   9.149  1.1322  1.0430  0.5221
13241SOL     OW44852   3.316   1.551   5.759  0.2483  0.0037  0.0444
13241SOL    HW144853   3.283   1.600   5.683 -0.7578 -0.5304  0.1202
13241SOL    HW244854   3.264   1.584   5.832 -0.1386 -0.8621  0.1663
13242SOL     OW44855   7.198   8.305   1.337  0.2448  0.7185 -0.1045
13242SOL    HW144856   7.287   8.296   1.369  0.2325 -0.9342 -0.4374
13242SOL    HW244857   7.180   8.399   1.338  2.5556  1.2213 -1.5572
13243SOL     OW44858   0.314   5.386   3.434 -0.0382 -0.3747  0.1899
13243SOL    HW144859   0.245   5.443   3.401 -0.3189 -0.5249  0.5154
13243SOL    HW244860   0.311   5.309   3.377 -0.2581 -0.4602  0.3187
13244SOL     OW44861   5.253   7.367  10.476 -0.6533  0.1068 -0.7444
13244SOL    HW144862   5.320   7.299  10.484 -2.8847 -2.2666 -1.4136
13244SOL    HW244863   5.262   7.399  10.386 -0.3728 -0.1810 -0.8219
13245SOL     OW44864   9.540  10.592   2.274 -0.5855  0.0774 -0.0454
13245SOL    HW144865   9.458  10.630   2.306 -1.0255 -1.1162  0.2680
13245SOL    HW244866   9.602  10.605   2.345 -0.8622 -0.1973  0.2489
13246SOL     OW44867  10.368   0.240   7.743  0.1863  0.0646  0.4953
13246SOL    HW144868  10.430   0.168   7.737  1.7315  1.2854  1.3108
13246SOL    HW244869  10.347   0.247   7.836 -0.7876 -0.0082  0.2915
13247SOL     OW44870   3.894   2.720   1.790 -0.4481 -0.5019 -0.0990
13247SOL    HW144871   3.972   2.698   1.739 -0.8728  0.8725 -1.3652
13247SOL    HW244872   3.919   2.704   1.881  1.3069 -0.0562 -0.4976
13248SOL     OW44873   0.345  11.218   6.577 -0.3584  0.4032  0.3727
13248SOL    HW144874   0.287  11.219   6.653  0.1027  0.4873  0.7178
13248SOL    HW244875   0.308  11.284   6.518 -1.7892 -0.9088 -0.2731
13249SOL     OW44876  10.684   6.735   5.545 -0.6113  0.6527  0.0574
13249SOL    HW144877  10.775   6.752   5.570 -0.3386 -0.3535 -0.2213
13249SOL    HW244878  10.658   6.814   5.498  0.6531  0.3140 -1.2768
13250SOL     OW44879   7.246   4.007  10.266  0.2727  0.3970  0.1329
13250SOL    HW144880   7.211   3.918  10.260 -1.3853  1.0412  0.0787
13250SOL    HW244881   7.326   3.997  10.318 -0.1208 -1.0603  0.4973
13251SOL     OW44882  10.739  11.200   8.717 -0.1138  0.1351  0.4904
13251SOL    HW144883  10.722  11.129   8.654 -1.2066 -0.6473  1.6267
13251SOL    HW244884  10.786  11.266   8.667  0.6695 -1.2801 -0.6740
13252SOL     OW44885   0.949   6.716   1.514  0.0600 -0.1305 -0.0168
13252SOL    HW144886   1.021   6.770   1.546 -1.8938  1.1382  2.3774
13252SOL    HW244887   0.969   6.702   1.422  3.5111 -0.0497  0.6709
13253SOL     OW44888   9.906   0.836   1.077  0.1524  0.0966  0.3154
13253SOL    HW144889   9.814   0.862   1.078 -0.1974 -0.9785 -1.7911
13253SOL    HW244890   9.953   0.913   1.111 -1.3635  1.3109 -0.2987
13254SOL     OW44891   8.093   5.941   1.987  0.4299  0.0795 -0.8179
13254SOL    HW144892   8.072   5.853   2.018 -0.0947  0.3521 -0.3962
13254SOL    HW244893   8.019   5.966   1.933  0.2091  0.5780 -0.2876
13255SOL     OW44894   2.210   2.941  11.177 -0.3619 -0.3820  0.1478
13255SOL    HW144895   2.132   2.995  11.189 -0.3180 -0.2555 -0.1389
13255SOL    HW244896   2.180   2.852  11.190 -0.5051 -0.3145  0.2800
13256SOL     OW44897   0.900   7.368   0.492  0.2849 -0.4117 -0.3388
13256SOL    HW144898   0.827   7.336   0.544 -0.5625  2.3326  0.2262
13256SOL    HW244899   0.859   7.422   0.424  1.8208  1.4956  0.2435
13257SOL     OW44900   2.639   6.222   2.884 -0.0664  0.0408 -0.4228
13257SOL    HW144901   2.709   6.160   2.863 -0.9354 -1.2652  0.4130
13257SOL    HW244902   2.649   6.237   2.978 -1.1800 -0.5154 -0.2108
13258SOL     OW44903  10.252   6.136   6.037 -0.4837 -0.1771  0.8051
13258SOL    HW144904  10.308   6.168   5.966  0.0747 -0.2551  1.2099
13258SOL    HW244905  10.164   6.136   5.999 -0.5246  1.9527  0.8088
13259SOL     OW44906   5.803   5.364   4.756  0.2667  0.3168  0.3242
13259SOL    HW144907   5.883   5.414   4.767  0.6955 -0.5102  1.0652
13259SOL    HW244908   5.819   5.282   4.804 -0.5935 -0.3183 -0.4560
13260SOL     OW44909   2.294   8.285   2.391 -0.5945 -0.1629 -0.3005
13260SOL    HW144910   2.249   8.348   2.448 -1.4036  0.6371 -1.7867
13260SOL    HW244911   2.230   8.214   2.379 -0.2229 -0.5876  0.2060
13261SOL     OW44912   5.117  11.210   3.193 -0.7385 -0.3662 -0.2171
13261SOL    HW144913   5.175  11.142   3.227 -0.5811 -0.2591 -0.2734
13261SOL    HW244914   5.080  11.251   3.272  0.8627  0.9588 -0.1341
13262SOL     OW44915   5.470  10.126   4.718  0.2592 -0.1075  0.0524
13262SOL    HW144916   5.457  10.221   4.716  0.2152 -0.1254 -0.4693
13262SOL    HW244917   5.476  10.101   4.626 -0.0101 -0.6516  0.1831
13263SOL     OW44918   4.369   7.977   6.753 -0.2636  0.1410  0.1328
13263SOL    HW144919   4.439   7.971   6.688 -0.0697  0.6735  0.2888
13263SOL    HW244920   4.305   8.036   6.712  0.9934  2.4996  1.4291
13264SOL     OW44921   5.022  10.925   9.063  0.4467  0.0581  0.0851
13264SOL    HW144922   4.978  10.891   8.985 -1.1519  0.3652  0.8360
13264SOL    HW244923   5.089  10.859   9.082 -1.3470 -1.7674  0.3875
13265SOL     OW44924   7.357   5.497   9.482 -0.1689 -0.2478  0.2111
13265SOL    HW144925   7.390   5.586   9.476 -1.8647  0.4557  1.0594
13265SOL    HW244926   7.314   5.480   9.398  1.8623 -1.0060 -0.7219
13266SOL     OW44927   8.090   7.513   2.265 -0.5820 -0.7512 -0.9334
13266SOL    HW144928   8.010   7.465   2.243 -1.1698 -0.0400 -0.4097
13266SOL    HW244929   8.082   7.528   2.360 -0.2793  0.1310 -1.0457
13267SOL     OW44930   4.746   4.743   1.380  0.5225 -0.1704 -0.1980
13267SOL    HW144931   4.655   4.722   1.404  0.3041 -0.1488 -1.0106
13267SOL    HW244932   4.776   4.666   1.332  1.1633 -0.4681  0.6578
13268SOL     OW44933   4.978  10.386   8.672 -0.1993  0.3632 -0.0025
13268SOL    HW144934   5.038  10.460   8.675 -1.8447  1.7163  0.0153
13268SOL    HW244935   4.912  10.411   8.608 -0.5957 -1.2319 -0.2329
13269SOL     OW44936   9.566   3.285   5.775 -0.0388  0.3341 -0.2233
13269SOL    HW144937   9.484   3.263   5.819 -0.5907  1.1104 -0.8509
13269SOL    HW244938   9.541   3.349   5.708  1.1017  0.7144 -0.2985
13270SOL     OW44939   3.825   1.228   7.440  0.3416 -0.0713  0.7288
13270SOL    HW144940   3.880   1.173   7.384  2.5047 -0.6038  3.3245
13270SOL    HW244941   3.850   1.317   7.417  0.6774 -0.2636  0.3351
13271SOL     OW44942   9.825   2.759   3.548  0.1649 -0.0456  0.0948
13271SOL    HW144943   9.806   2.666   3.557 -0.3381  0.0399 -0.0956
13271SOL    HW244944   9.841   2.789   3.637  0.7947 -0.4111  0.1145
13272SOL     OW44945   8.235   8.596   0.395  0.4732  0.1284  0.5361
13272SOL    HW144946   8.310   8.538   0.385 -0.5939 -1.0829 -0.6333
13272SOL    HW244947   8.188   8.563   0.472  0.4847  0.1392  0.5479
13273SOL     OW44948   4.224  10.830   2.966 -0.1304  0.2223  0.2613
13273SOL    HW144949   4.242  10.736   2.958  0.2948  0.2947  0.3421
13273SOL    HW244950   4.134  10.840   2.934  0.4146  0.0316 -1.4080
13274SOL     OW44951   9.183   8.797   0.057  0.2449 -0.0064  0.3398
13274SOL    HW144952   9.090   8.803   0.081  0.5966 -1.9529  2.4286
13274SOL    HW244953   9.229   8.844   0.127  0.9570 -1.1083  0.6332
13275SOL     OW44954   5.958   5.283   8.645 -0.1570  0.2218 -0.2713
13275SOL    HW144955   5.949   5.371   8.609  1.9655  0.6262  0.1329
13275SOL    HW244956   5.970   5.296   8.739 -3.5529 -0.7303  0.3785
13276SOL     OW44957   4.238  10.377   0.730 -0.1478  0.2778  0.2304
13276SOL    HW144958   4.241  10.290   0.691  2.3225  0.0606  0.8104
13276SOL    HW244959   4.275  10.366   0.818 -0.5960  1.7553  0.6249
13277SOL     OW44960   0.240   6.580   8.277  0.2992 -0.0020 -0.1574
13277SOL    HW144961   0.232   6.671   8.247  0.6828 -0.0510 -0.4092
13277SOL    HW244962   0.220   6.528   8.199  1.1072 -0.1321 -0.2757
13278SOL     OW44963   9.115   9.390   9.943 -0.4877  0.4130  0.2108
13278SOL    HW144964   9.173   9.315   9.933 -0.5816  0.4985 -0.9980
13278SOL    HW244965   9.056   9.386   9.868 -0.7072  1.5057  0.3086
13279SOL     OW44966  11.246   3.686   8.791  0.1777 -0.0250  0.3260
13279SOL    HW144967  11.236   3.635   8.711  0.7756  0.1349  0.1462
13279SOL    HW244968  11.216   3.628   8.861 -0.0368 -0.2797  0.0184
13280SOL     OW44969   6.598   2.602   8.278  0.4124  0.0330 -0.3989
13280SOL    HW144970   6.622   2.694   8.288  0.2154 -0.2786  4.0969
13280SOL    HW244971   6.504   2.603   8.260  0.5186  0.7259 -0.9311
13281SOL     OW44972   8.505   7.024   6.461 -0.3537 -0.2581 -0.1347
13281SOL    HW144973   8.428   6.968   6.465 -1.2702  1.1110  2.0098
13281SOL    HW244974   8.477   7.100   6.410  0.3290 -0.8359 -1.4109
13282SOL     OW44975   8.492   0.844   3.659  0.3012  0.5121 -0.2771
13282SOL    HW144976   8.488   0.840   3.754 -0.1790 -2.1990 -0.3688
13282SOL    HW244977   8.406   0.816   3.629  0.3640  1.5806 -1.5327
13283SOL     OW44978   1.401  11.058   4.203 -0.7951  0.2248 -0.4194
13283SOL    HW144979   1.386  11.148   4.176 -1.2827  0.7835  1.6206
13283SOL    HW244980   1.378  11.056   4.296  1.1666 -1.5096  0.0889
13284SOL     OW44981   6.238  11.335   0.280 -0.0769 -0.1589 -0.3227
13284SOL    HW144982   6.297  11.262   0.301  2.5442  2.2631  1.1510
13284SOL    HW244983   6.289  11.389   0.220 -1.5784  1.0302 -0.5411
13285SOL     OW44984   9.200   7.637   5.465 -0.3096 -0.7876 -0.7449
13285SOL    HW144985   9.117   7.624   5.511  0.1172 -0.0250  0.2580
13285SOL    HW244986   9.180   7.702   5.398 -0.7337 -1.2815 -1.1078
13286SOL     OW44987   3.743   8.244  11.268 -0.3782  0.0945  0.4697
13286SOL    HW144988   3.652   8.270  11.283 -0.0584  0.3538  2.0099
13286SOL    HW244989   3.741   8.148  11.267 -0.7064  0.1005  0.1665
13287SOL     OW44990   3.744   1.628   5.584 -0.3895 -0.1231 -0.0950
13287SOL    HW144991   3.805   1.566   5.625 -0.3246  0.1190  0.1735
13287SOL    HW244992   3.682   1.572   5.536  0.0621 -0.3684 -0.3962
13288SOL     OW44993   0.962   3.683   8.277  0.2243  0.0086 -0.3879
13288SOL    HW144994   0.909   3.680   8.356  0.4194  0.8128 -0.2144
13288SOL    HW244995   0.915   3.744   8.219  1.6914  1.8629  0.3287
13289SOL     OW44996   1.673   5.651   5.109  0.0043 -0.1209 -0.0735
13289SOL    HW144997   1.658   5.724   5.169  2.6955 -0.1406  0.6776
13289SOL    HW244998   1.643   5.574   5.157 -1.4757  0.3050 -0.2960
13290SOL     OW44999   8.840   6.202   5.434  0.5090 -0.2254  0.0858
13290SOL    HW145000   8.783   6.265   5.390  3.0410  1.7305 -0.5366
13290SOL    HW245001   8.822   6.214   5.527 -0.8177 -0.3769 -0.1406
13291SOL     OW45002   2.029   2.602  10.084 -0.3681 -0.3494  0.4551
13291SOL    HW145003   2.087   2.593  10.160  0.6855  1.2867 -0.1315
13291SOL    HW245004   2.048   2.689  10.050 -2.7341 -0.0313 -0.1287
13292SOL     OW45005   0.445   7.924   1.299  0.2596 -0.1674 -0.4748
13292SOL    HW145006   0.352   7.909   1.314  0.1207 -1.1672 -2.2131
13292SOL    HW245007   0.449   7.973   1.217  1.2048  1.2331  0.3730
13293SOL     OW45008   5.172   0.402   5.066 -0.3001  0.1803 -0.5316
13293SOL    HW145009   5.160   0.377   5.157 -1.3132  2.1065 -0.0999
13293SOL    HW245010   5.113   0.344   5.017 -0.1637 -0.4797  0.0772
13294SOL     OW45011   0.998   9.143   2.500  0.0211 -0.2678  0.4166
13294SOL    HW145012   1.016   9.181   2.587 -0.3525  0.7668  0.0439
13294SOL    HW245013   1.079   9.159   2.451  0.7412 -2.0442  0.9714
13295SOL     OW45014   2.658  10.500   3.348 -0.1473 -0.4706 -0.0710
13295SOL    HW145015   2.574  10.530   3.315 -0.1661 -0.2640  0.1665
13295SOL    HW245016   2.674  10.552   3.426 -0.6054 -1.7049  0.8622
13296SOL     OW45017   2.173   2.529   7.571 -0.1180 -0.0079 -0.4158
13296SOL    HW145018   2.097   2.587   7.577 -1.0971 -1.0925 -2.1287
13296SOL    HW245019   2.143   2.446   7.610  1.1135  0.4342  1.5574
13297SOL     OW45020   5.156  11.265   1.482 -0.0275  0.0069  0.2737
13297SOL    HW145021   5.192  11.338   1.433 -0.1922  0.1735  0.4020
13297SOL    HW245022   5.061  11.279   1.481  0.0042  0.3560  1.1677
13298SOL     OW45023   6.418   3.575   5.199 -0.6902 -0.3797 -0.2734
13298SOL    HW145024   6.419   3.481   5.181 -1.2104  0.1804 -3.4259
13298SOL    HW245025   6.352   3.611   5.140 -0.2671  2.0416  0.6499
13299SOL     OW45026   2.926   8.319   2.382  0.5277 -0.1714 -0.7661
13299SOL    HW145027   2.993   8.260   2.415  0.4462 -0.0246 -0.3207
13299SOL    HW245028   2.865   8.263   2.335  0.0289 -0.5603  0.3311
13300SOL     OW45029   4.345   3.229   1.607 -0.2377  0.1938  0.0874
13300SOL    HW145030   4.259   3.270   1.604  0.0655  0.8035 -0.6276
13300SOL    HW245031   4.395   3.282   1.668 -0.1076  0.3622 -0.1654
13301SOL     OW45032   9.490   1.575   2.801  0.4324  0.1133  0.5057
13301SOL    HW145033   9.571   1.624   2.814 -0.0880  0.8200  1.0758
13301SOL    HW245034   9.442   1.624   2.734  0.3657 -0.1816  0.3333
13302SOL     OW45035   1.512  10.018   8.917  0.1640  0.1745 -0.1330
13302SOL    HW145036   1.455  10.049   8.846  0.6926  2.5213  0.3988
13302SOL    HW245037   1.490   9.926   8.928 -0.2115 -0.1375 -3.0879
13303SOL     OW45038   8.494   0.271   4.351  0.2302  0.0839 -0.7421
13303SOL    HW145039   8.399   0.272   4.357  0.1313 -0.8095 -1.9910
13303SOL    HW245040   8.521   0.355   4.388 -1.1429  1.1669 -2.1366
13304SOL     OW45041   0.828   3.778   1.997  0.1490  0.5276  0.0242
13304SOL    HW145042   0.902   3.808   1.945  1.3371 -0.7659  0.9231
13304SOL    HW245043   0.793   3.704   1.949  1.2163 -0.6363  0.9897
13305SOL     OW45044   3.117   8.566   3.372 -0.2279 -0.1115  0.1517
13305SOL    HW145045   3.101   8.472   3.381  0.8983 -0.2280  0.9405
13305SOL    HW245046   3.119   8.581   3.277 -1.8305 -0.6261  0.0273
13306SOL     OW45047   5.129   5.027   9.397  0.0590  0.5313  0.1582
13306SOL    HW145048   5.158   5.116   9.419  0.4488  0.6249 -0.7349
13306SOL    HW245049   5.191   4.970   9.443 -1.4481  0.6720  2.4885
13307SOL     OW45050   5.034   4.709  11.318 -0.1191 -0.0019 -0.3141
13307SOL    HW145051   5.107   4.680  11.374 -2.0368 -0.2451  2.1602
13307SOL    HW245052   4.984   4.630  11.301 -0.9151  0.5066 -0.3244
13308SOL     OW45053   9.289   7.254   0.091  0.4267 -0.4303 -0.2578
13308SOL    HW145054   9.297   7.221   0.181  2.5598 -0.7740 -0.5386
13308SOL    HW245055   9.350   7.328   0.088 -0.7459  0.5312 -1.0117
13309SOL     OW45056   1.569   0.512   4.504  0.6463 -0.0052 -0.5166
13309SOL    HW145057   1.657   0.495   4.470  0.6593 -0.6125 -0.1928
13309SOL    HW245058   1.562   0.456   4.582 -0.2622 -0.4425 -0.9046
13310SOL     OW45059   8.781   6.925   8.416  0.3049  0.5801  0.1332
13310SOL    HW145060   8.730   6.916   8.336 -2.1618  1.4145  1.5591
13310SOL    HW245061   8.825   7.010   8.407  1.4714 -0.1358 -1.0920
13311SOL     OW45062   4.394   6.122   9.735  0.4999 -0.3209  0.1256
13311SOL    HW145063   4.377   6.164   9.651  1.4553 -2.1952 -1.0462
13311SOL    HW245064   4.484   6.146   9.757  0.2038  0.2834  0.6900
13312SOL     OW45065   5.192   5.820   6.472 -0.4430 -0.3900  0.0523
13312SOL    HW145066   5.163   5.858   6.555  0.7620  0.1107  0.2437
13312SOL    HW245067   5.222   5.732   6.494  1.1137  0.2094  0.3762
13313SOL     OW45068   6.416   5.282   7.689 -0.7301  0.5029  0.1432
13313SOL    HW145069   6.408   5.332   7.608 -0.8513 -0.4264 -0.4206
13313SOL    HW245070   6.490   5.322   7.735  0.0892  0.2544 -0.9683
13314SOL     OW45071  10.048   2.087   8.009 -0.1859  0.3328 -0.5159
13314SOL    HW145072  10.131   2.042   7.999  0.2294  0.8333  0.5356
13314SOL    HW245073   9.984   2.018   8.026  0.0930 -0.0134 -0.8804
13315SOL     OW45074   3.365   2.307   6.460 -0.2466  0.4878 -0.6996
13315SOL    HW145075   3.366   2.392   6.416  0.8774  0.2264 -1.2007
13315SOL    HW245076   3.412   2.249   6.401 -0.1547 -0.2493  0.0906
13316SOL     OW45077   9.594   6.793   0.460  0.2223  0.3124 -0.2203
13316SOL    HW145078   9.623   6.706   0.486 -0.5443 -0.1308 -0.8046
13316SOL    HW245079   9.663   6.826   0.402 -0.6501 -0.9431 -2.0339
13317SOL     OW45080  10.767  11.077   6.895 -0.0919  0.1588  0.2688
13317SOL    HW145081  10.847  11.107   6.937 -0.7532  0.0714  1.6143
13317SOL    HW245082  10.698  11.130   6.934 -1.1418 -2.3344  1.9177
13318SOL     OW45083   2.577   4.872   0.780 -0.2303  0.3746  0.2171
13318SOL    HW145084   2.646   4.808   0.761 -0.4040  0.6840 -1.5074
13318SOL    HW245085   2.587   4.890   0.874  0.9360 -0.8604  0.3537
13319SOL     OW45086  10.591   3.230   1.585  0.4309  0.4119  0.3910
13319SOL    HW145087  10.540   3.166   1.535  0.4997 -0.5639  1.5505
13319SOL    HW245088  10.665   3.252   1.528  1.6993 -2.3262  0.9294
13320SOL     OW45089  11.227   6.914   8.681  0.1252 -0.6565  0.6684
13320SOL    HW145090  11.256   7.005   8.688 -0.2058 -0.2116 -2.7754
13320SOL    HW245091  11.145   6.911   8.730 -0.8255  1.3830 -0.7364
13321SOL     OW45092   9.605  10.491   4.078  0.4908  0.2445  0.2851
13321SOL    HW145093   9.672  10.441   4.125  1.6369  0.5945 -0.9535
13321SOL    HW245094   9.637  10.496   3.988 -0.6239  1.4309 -0.0662
13322SOL     OW45095   3.944   3.505   5.218 -0.5367 -0.4624  1.1339
13322SOL    HW145096   3.891   3.511   5.139 -0.6472 -1.1972  1.1540
13322SOL    HW245097   3.947   3.412   5.239 -0.5260 -0.2731  2.0048
13323SOL     OW45098   6.980   2.571   0.659  0.1987 -0.2154  1.0522
13323SOL    HW145099   7.062   2.617   0.680  1.0321 -0.0427 -2.3168
13323SOL    HW245100   7.008   2.486   0.625 -1.0492 -0.3214  0.2590
13324SOL     OW45101   2.750   0.988   1.121 -0.3721  0.3492  0.1827
13324SOL    HW145102   2.674   0.931   1.105 -0.4265  0.6769 -0.7490
13324SOL    HW245103   2.779   0.965   1.209 -1.6788  0.3602  0.6286
13325SOL     OW45104   2.160   3.189   1.045 -0.1070 -0.6558 -0.6906
13325SOL    HW145105   2.096   3.248   1.084 -0.6766 -1.4613 -0.4114
13325SOL    HW245106   2.166   3.115   1.106  0.4264 -1.0019 -1.1559
13326SOL     OW45107   3.208   8.871  10.615  0.2674 -0.3070 -0.3358
13326SOL    HW145108   3.188   8.779  10.632 -2.5918  0.0298 -1.6896
13326SOL    HW245109   3.179   8.916  10.694 -1.1377 -0.2155 -0.9059
13327SOL     OW45110   7.946   3.797   1.527  0.4207 -0.8219  0.0532
13327SOL    HW145111   7.952   3.891   1.547 -1.5789 -0.4932 -0.8422
13327SOL    HW245112   7.895   3.761   1.599 -0.0780 -0.9812 -0.3857
13328SOL     OW45113  10.779   7.716   9.325 -0.3402  0.1216 -0.5448
13328SOL    HW145114  10.716   7.720   9.397  0.8791  0.3315  0.5417
13328SOL    HW245115  10.734   7.755   9.251 -1.3430  0.6441  0.3295
13329SOL     OW45116   3.340  10.940  10.405 -0.3706  0.3301 -0.3682
13329SOL    HW145117   3.288  11.020  10.398 -0.8551  0.0437 -0.1066
13329SOL    HW245118   3.386  10.934  10.321 -0.2473  0.9399 -0.3439
13330SOL     OW45119   6.140   4.209   7.319 -0.1860 -0.7386  0.1699
13330SOL    HW145120   6.143   4.152   7.242  0.5057 -1.0508  0.4195
13330SOL    HW245121   6.050   4.202   7.351  0.0371 -2.1616  0.5329
13331SOL     OW45122   5.435   8.221   6.298  0.6360  0.4138  0.0688
13331SOL    HW145123   5.349   8.262   6.310  0.6802  0.4409  0.2884
13331SOL    HW245124   5.497   8.289   6.325  0.6722 -0.2734  1.7454
13332SOL     OW45125   3.925  10.251   3.979  0.1934 -0.1667 -0.2150
13332SOL    HW145126   3.896  10.212   4.062 -0.7623 -0.5364 -0.7145
13332SOL    HW245127   4.018  10.229   3.974  0.3852  0.3188  1.0150
13333SOL     OW45128   0.226   8.728   2.525  0.5247  0.5820 -0.6643
13333SOL    HW145129   0.299   8.790   2.530  1.8730 -0.9984 -0.5403
13333SOL    HW245130   0.213   8.713   2.431 -0.0197  1.2928 -0.7065
13334SOL     OW45131   9.254   8.894   2.376  0.1714  0.0696  0.0923
13334SOL    HW145132   9.245   8.989   2.376  0.3885  0.1100 -1.9210
13334SOL    HW245133   9.180   8.863   2.325  2.0698 -0.6083 -2.3394
13335SOL     OW45134   4.653   7.379   9.728 -0.3190  0.2312 -0.4406
13335SOL    HW145135   4.665   7.468   9.759 -0.5146  0.3270 -0.6359
13335SOL    HW245136   4.578   7.384   9.668 -0.7588 -0.1885  0.0654
13336SOL     OW45137   3.548   1.652   2.031  0.2682 -0.3636  0.0596
13336SOL    HW145138   3.506   1.601   2.101  0.2921 -0.1018  0.2665
13336SOL    HW245139   3.497   1.631   1.953  0.6096 -1.1178  0.0363
13337SOL     OW45140   1.129   5.139   6.008 -0.2879  0.0222  0.5648
13337SOL    HW145141   1.135   5.068   5.944  0.1669  0.6998 -0.1443
13337SOL    HW245142   1.203   5.196   5.989 -2.3832  2.3511 -0.8802
13338SOL     OW45143   7.571   1.427   3.453  0.0636  0.4628  0.3172
13338SOL    HW145144   7.566   1.366   3.380  2.4445  0.9661 -0.3063
13338SOL    HW245145   7.484   1.466   3.458 -0.1670  0.2916 -2.1421
13339SOL     OW45146   5.390   2.624   4.064 -0.1531  0.2645 -0.1119
13339SOL    HW145147   5.349   2.560   4.122  1.2987 -1.4332 -0.8965
13339SOL    HW245148   5.455   2.668   4.119  0.2651 -0.3797 -0.0809
13340SOL     OW45149   9.032   3.115   0.094 -0.0811  0.1962 -0.8683
13340SOL    HW145150   8.941   3.088   0.079 -0.2822 -1.6891  2.8941
13340SOL    HW245151   9.084   3.041   0.061 -0.1347 -0.3779  0.2986
13341SOL     OW45152   3.004   4.867   6.446  0.6294  0.7219  0.4946
13341SOL    HW145153   2.936   4.804   6.472  1.0016  1.8684  4.7640
13341SOL    HW245154   3.071   4.814   6.404 -0.9843 -1.0970  0.1637
13342SOL     OW45155   8.053  10.416   1.165  0.3540 -0.0331 -0.6259
13342SOL    HW145156   8.033  10.504   1.136 -0.2215 -0.5634 -1.8579
13342SOL    HW245157   8.120  10.428   1.233 -0.2033  1.3777 -0.3100
13343SOL     OW45158   5.354   3.808  10.091  0.3545 -0.2652 -0.2969
13343SOL    HW145159   5.294   3.879  10.067  0.2216  0.5850  2.4380
13343SOL    HW245160   5.425   3.852  10.138  0.3634 -1.9166  1.2639
13344SOL     OW45161  10.075   1.587   5.683 -0.4450 -0.4187 -0.3432
13344SOL    HW145162  10.084   1.534   5.604 -1.4176 -2.7514  1.0447
13344SOL    HW245163   9.981   1.602   5.691 -0.2649  0.6386 -0.1410
13345SOL     OW45164   2.194   0.803   2.278  0.5092 -0.5433  0.2337
13345SOL    HW145165   2.218   0.839   2.193 -1.8959  1.6055  0.4224
13345SOL    HW245166   2.154   0.718   2.258  0.7526 -0.4377 -0.7142
13346SOL     OW45167   9.705   8.873   0.920 -0.8758  0.0619  0.1384
13346SOL    HW145168   9.636   8.937   0.906 -0.9828 -0.1470 -0.3235
13346SOL    HW245169   9.784   8.925   0.932 -0.7821  0.2591 -1.2657
13347SOL     OW45170   1.161  11.117   9.527 -0.1236 -0.2622  0.5524
13347SOL    HW145171   1.191  11.026   9.532  1.4781  0.0786 -1.8871
13347SOL    HW245172   1.160  11.136   9.433 -0.1307  2.3401  1.0576
13348SOL     OW45173   5.328   1.077   3.546 -0.3729  0.2679 -0.4305
13348SOL    HW145174   5.345   1.006   3.607 -1.5449  0.7280  0.4363
13348SOL    HW245175   5.263   1.042   3.485  0.6758 -0.1372 -1.3393
13349SOL     OW45176   8.822   4.562   4.852 -0.4803  0.5326  0.2074
13349SOL    HW145177   8.781   4.514   4.924 -0.2887  1.2343  0.7831
13349SOL    HW245178   8.884   4.621   4.894  0.2727  0.3087 -0.5913
13350SOL     OW45179   9.649   4.672   7.602  0.5195 -0.0657  0.0819
13350SOL    HW145180   9.719   4.723   7.641 -0.4938  2.2624 -1.0168
13350SOL    HW245181   9.648   4.700   7.510 -1.8047 -0.0828  0.0794
13351SOL     OW45182   5.898   4.966   0.769 -0.4401  0.6165 -0.7966
13351SOL    HW145183   5.818   4.937   0.726 -0.5740 -1.5715  0.8542
13351SOL    HW245184   5.951   5.005   0.699 -1.3034 -1.3966 -2.6037
13352SOL     OW45185   8.517   3.176   0.852  0.2537  0.2740 -0.4832
13352SOL    HW145186   8.543   3.157   0.762  0.5149 -2.2578  0.0877
13352SOL    HW245187   8.429   3.138   0.860 -0.1834  1.3682  0.0563
13353SOL     OW45188   9.922   0.518   3.616 -0.6910 -0.0590 -0.0616
13353SOL    HW145189   9.982   0.591   3.604 -1.1737 -0.0754 -3.0860
13353SOL    HW245190   9.836   0.559   3.626 -0.6938 -0.1528  0.3024
13354SOL     OW45191   3.633   3.345   1.419  0.2888 -0.3995 -0.1495
13354SOL    HW145192   3.714   3.324   1.373  0.0795  0.8184 -1.0763
13354SOL    HW245193   3.661   3.396   1.495  0.6832 -2.8531  1.4247
13355SOL     OW45194   9.631   4.772  11.032 -0.2828  0.5565 -0.1455
13355SOL    HW145195   9.629   4.854  10.981  1.0383  1.3665  1.0590
13355SOL    HW245196   9.700   4.786  11.097 -0.5167 -1.2675  0.5275
13356SOL     OW45197   6.989   0.718  10.937 -0.2802  0.3028  0.0856
13356SOL    HW145198   6.906   0.680  10.968  0.9375 -0.3809  2.6227
13356SOL    HW245199   7.000   0.796  10.991  0.8847  0.2262 -0.0479
13357SOL     OW45200   1.165   2.743   7.719 -0.2809 -0.8104  0.2048
13357SOL    HW145201   1.212   2.732   7.801 -1.7116 -1.4178  0.9640
13357SOL    HW245202   1.076   2.769   7.745 -0.4269  0.1315 -1.1798
13358SOL     OW45203   8.548   3.452  11.124 -0.1524 -0.1381  0.4449
13358SOL    HW145204   8.506   3.366  11.126  0.7103 -0.6128 -1.0139
13358SOL    HW245205   8.484   3.509  11.080 -0.1200 -0.3823  0.0781
13359SOL     OW45206   9.355   3.583   3.615  0.8188 -0.3766 -0.2895
13359SOL    HW145207   9.401   3.536   3.545  1.4614 -2.3369  1.3670
13359SOL    HW245208   9.264   3.558   3.604  0.5459  1.1751 -1.7981
13360SOL     OW45209   1.489   2.624   0.148 -0.2150  0.7331  0.4996
13360SOL    HW145210   1.476   2.631   0.242  0.5602  0.6313  0.6150
13360SOL    HW245211   1.583   2.608   0.137 -0.0139  2.3451 -0.3643
13361SOL     OW45212   8.017   9.764   2.547  0.7104  0.4789 -0.3539
13361SOL    HW145213   8.029   9.748   2.641  1.2592  0.8326 -0.3673
13361SOL    HW245214   7.936   9.717   2.526  0.8013  0.0599  0.2115
13362SOL     OW45215   7.549   3.301   7.219  0.2875 -0.5746 -0.5244
13362SOL    HW145216   7.593   3.383   7.196  1.2074 -0.8918  0.0651
13362SOL    HW245217   7.620   3.238   7.231 -0.2473 -0.8370  1.4514
13363SOL     OW45218   6.984   0.067  11.000 -0.0360  0.2008 -0.7438
13363SOL    HW145219   7.016   0.140  10.948  0.1541 -0.3044 -1.3319
13363SOL    HW245220   6.898   0.047  10.962  0.9471 -1.4413 -2.1273
13364SOL     OW45221   3.610   3.225   9.489  0.6946  0.1260  0.0409
13364SOL    HW145222   3.554   3.155   9.524 -0.7637  1.3010  0.1511
13364SOL    HW245223   3.668   3.247   9.562  0.6120 -0.4282  0.2778
13365SOL     OW45224   4.014   9.383   2.133 -0.4140 -0.8227  0.1831
13365SOL    HW145225   3.971   9.313   2.083  1.4913 -0.1672 -2.4550
13365SOL    HW245226   4.014   9.458   2.074  0.6190  0.4193  1.7246
13366SOL     OW45227   9.192   9.885   4.472 -0.2678  0.1490 -0.3358
13366SOL    HW145228   9.220   9.913   4.385 -0.5665  0.0573 -0.4625
13366SOL    HW245229   9.201   9.963   4.526  1.8965 -0.3209  0.0285
13367SOL     OW45230   8.614  10.886   1.253  0.3615 -0.8183  0.3006
13367SOL    HW145231   8.526  10.855   1.275  0.1716 -1.0838 -0.7688
13367SOL    HW245232   8.609  10.906   1.159  0.2958  3.0859  1.0623
13368SOL     OW45233   9.826   1.338   3.140 -0.0272  0.1049 -0.2698
13368SOL    HW145234   9.808   1.318   3.048  1.6964  1.8478 -1.0206
13368SOL    HW245235   9.744   1.317   3.185 -0.6469 -1.4930 -2.0655
13369SOL     OW45236   7.948   6.113   2.149 -0.0150 -0.3195  0.6801
13369SOL    HW145237   7.859   6.082   2.169 -0.8471  1.3319 -0.2795
13369SOL    HW245238   7.993   6.036   2.115 -1.4238 -0.9507  0.1791
13370SOL     OW45239   3.445   1.719   0.869  0.3261 -0.3754  0.0005
13370SOL    HW145240   3.396   1.800   0.874  1.6180  0.3098  1.8985
13370SOL    HW245241   3.386   1.658   0.824 -1.3028  1.1060  0.0839
13371SOL     OW45242   4.612   3.514   6.007 -0.2689 -0.2511 -0.6031
13371SOL    HW145243   4.585   3.474   6.089  0.7737 -0.4036 -0.3291
13371SOL    HW245244   4.677   3.454   5.971  2.7818  2.0925  0.7493
13372SOL     OW45245   5.884   9.294  10.432 -0.6410 -0.0331  0.0241
13372SOL    HW145246   5.933   9.256  10.506 -1.9381 -0.1895  0.8271
13372SOL    HW245247   5.894   9.230  10.362  2.1692  1.0011 -0.5709
13373SOL     OW45248  10.852   2.489   4.304 -0.5376 -0.1135  0.0028
13373SOL    HW145249  10.813   2.413   4.346  0.5894 -0.0100  1.2619
13373SOL    HW245250  10.916   2.453   4.243  0.7463 -0.1713  1.3572
13374SOL     OW45251   2.837   1.291   6.964 -0.0484  0.2796 -0.5751
13374SOL    HW145252   2.842   1.199   6.991  1.4475  0.0067 -1.7260
13374SOL    HW245253   2.824   1.339   7.045  0.7359 -0.8227  0.2155
13375SOL     OW45254   8.310   3.929  10.944 -0.5544 -0.1341 -0.8583
13375SOL    HW145255   8.336   3.841  10.972  1.6259  0.2726 -1.4928
13375SOL    HW245256   8.277   3.971  11.024 -0.9984 -1.3017 -0.4197
13376SOL     OW45257   8.888   0.998  11.214 -0.3716  0.3529 -0.0182
13376SOL    HW145258   8.928   0.939  11.149  0.0721  1.2195 -0.5570
13376SOL    HW245259   8.812   0.951  11.246 -1.2763  0.3651 -2.0342
13377SOL     OW45260   4.939   7.562   9.657 -0.4363  0.1799  0.0339
13377SOL    HW145261   4.853   7.603   9.655 -0.7917 -0.5659 -0.1993
13377SOL    HW245262   4.931   7.486   9.599  0.3377  0.0305  0.1101
13378SOL     OW45263   2.705   5.341   6.153 -0.0883  0.7301 -0.8246
13378SOL    HW145264   2.716   5.341   6.057 -0.6883  1.1221 -0.8941
13378SOL    HW245265   2.611   5.338   6.166  0.0257 -0.4032 -0.2285
13379SOL     OW45266   9.443   5.927   9.921 -0.7083  0.3165  0.3940
13379SOL    HW145267   9.382   5.871   9.968 -1.5476  0.9597  0.0755
13379SOL    HW245268   9.388   5.985   9.869  0.1601  1.1304  0.3653
13380SOL     OW45269   0.172   8.783  10.407  0.5062  0.0621 -0.0208
13380SOL    HW145270   0.186   8.877  10.391  2.2006 -0.4141 -1.3550
13380SOL    HW245271   0.250   8.755  10.454  1.5857 -1.3867 -2.5754
13381SOL     OW45272   5.891  10.131  10.137  0.1739  0.4157  0.3137
13381SOL    HW145273   5.962  10.114  10.075  0.3781 -0.2115  0.7189
13381SOL    HW245274   5.854  10.045  10.155 -1.9593  0.8986 -1.3925
13382SOL     OW45275   0.809   9.558   2.161  0.3503  0.8363  0.4043
13382SOL    HW145276   0.821   9.591   2.250  1.2255  0.5322  0.3981
13382SOL    HW245277   0.889   9.582   2.115 -0.3677  1.5991 -0.5010
13383SOL     OW45278   2.758  10.422   9.828 -0.2683 -0.7082  0.3278
13383SOL    HW145279   2.717  10.448   9.746  0.8899  0.2928  0.0538
13383SOL    HW245280   2.730  10.488   9.891 -0.2221 -0.8208  0.4643
13384SOL     OW45281  11.219   7.218   0.647  0.6451 -0.2060  0.2685
13384SOL    HW145282  11.286   7.151   0.656 -0.8885 -1.6489  1.2932
13384SOL    HW245283  11.138   7.175   0.676 -0.3374  2.1290  1.0906
13385SOL     OW45284  10.982   9.603   5.243  0.0125 -0.3721  0.2791
13385SOL    HW145285  10.912   9.664   5.267  0.2550  0.0900 -0.1774
13385SOL    HW245286  11.057   9.631   5.296  0.4531  0.4407 -0.7484
13386SOL     OW45287  10.516   9.705   1.290 -0.0660  0.0393 -0.1797
13386SOL    HW145288  10.562   9.623   1.272  0.8174  0.0810  1.7873
13386SOL    HW245289  10.450   9.711   1.221 -1.2938 -3.1921  0.6369
13387SOL     OW45290   2.941   4.639   9.699  0.1528 -0.3950  0.0367
13387SOL    HW145291   2.848   4.617   9.710  0.6815 -1.3596  2.9294
13387SOL    HW245292   2.950   4.724   9.741  1.1237 -1.5727  2.2352
13388SOL     OW45293   1.851   3.699   6.402  0.3191 -0.2122 -0.8743
13388SOL    HW145294   1.768   3.682   6.447  0.8070  0.8990  0.4968
13388SOL    HW245295   1.838   3.667   6.313 -1.6697  0.1757 -0.7398
13389SOL     OW45296   1.378   6.663   0.757  0.2151  0.6768  0.2207
13389SOL    HW145297   1.380   6.720   0.833  1.7948 -0.8888  1.3853
13389SOL    HW245298   1.363   6.575   0.792 -1.0346  0.1785 -1.4439
13390SOL     OW45299   0.210   5.428   9.212 -0.1793  0.0542  0.2249
13390SOL    HW145300   0.190   5.488   9.141 -1.7086  0.3157  0.8507
13390SOL    HW245301   0.284   5.376   9.180 -0.0031  1.0534 -1.0171
13391SOL     OW45302   9.600   5.720   6.595  0.4255 -0.1672  0.4625
13391SOL    HW145303   9.557   5.793   6.639 -1.0859 -1.4167  1.0975
13391SOL    HW245304   9.576   5.643   6.646  0.2759 -1.3849 -1.3653
13392SOL     OW45305   9.412   4.121  11.292 -0.3152  0.3756  0.1753
13392SOL    HW145306   9.456   4.179  11.354  0.6465 -0.6801  0.5108
13392SOL    HW245307   9.410   4.036  11.336 -1.8694  0.1901 -0.2302
13393SOL     OW45308   3.902   0.261   8.097  0.2320  0.1585 -0.2632
13393SOL    HW145309   3.922   0.225   8.010 -0.1816 -0.3137 -0.1637
13393SOL    HW245310   3.807   0.253   8.104  0.4173 -1.2254  0.8618
13394SOL     OW45311   6.620   6.616   1.810 -0.0012  0.2962  0.0944
13394SOL    HW145312   6.622   6.712   1.811 -0.1577  0.2968  0.6358
13394SOL    HW245313   6.688   6.591   1.873 -0.2748  0.0582  0.2939
13395SOL     OW45314   8.904   8.940   0.966 -0.6720 -0.0562  0.0296
13395SOL    HW145315   8.822   8.909   1.004 -0.3937 -0.8061  0.0382
13395SOL    HW245316   8.913   8.890   0.885 -0.0778 -0.1919  0.1763
13396SOL     OW45317   1.048   3.278   7.690  0.5531 -0.5961 -0.0737
13396SOL    HW145318   0.987   3.220   7.644  1.6009 -0.7685 -1.2774
13396SOL    HW245319   1.085   3.223   7.760 -1.7203 -0.0678  1.6012
13397SOL     OW45320  10.847   4.087   7.480  0.7710  0.6377 -0.2073
13397SOL    HW145321  10.922   4.092   7.539 -0.2252 -0.1185  1.1534
13397SOL    HW245322  10.785   4.151   7.514 -0.7638 -1.4080  1.0050
13398SOL     OW45323   5.316   7.385   0.358 -0.5211  0.8306  0.3113
13398SOL    HW145324   5.387   7.357   0.299  0.8764 -1.3628  2.8840
13398SOL    HW245325   5.295   7.474   0.331  2.8951  1.3442 -0.8885
13399SOL     OW45326   4.646   6.040   0.875  0.0081 -0.1559 -0.0788
13399SOL    HW145327   4.575   5.979   0.888  1.3258 -1.3562  1.5998
13399SOL    HW245328   4.611   6.105   0.814 -1.6039 -2.2147 -1.4008
13400SOL     OW45329   2.634  10.821   3.277  0.3954 -0.3759 -0.1964
13400SOL    HW145330   2.616  10.868   3.195 -0.6750 -0.0626  0.2082
13400SOL    HW245331   2.553  10.775   3.296 -0.0229  1.0817  1.6827
13401SOL     OW45332   6.352  10.699   2.067 -0.2089  0.2699  0.0565
13401SOL    HW145333   6.399  10.694   2.150 -0.1709  0.5611  0.0551
13401SOL    HW245334   6.392  10.774   2.022 -0.5057  0.3646 -0.0478
13402SOL     OW45335   6.937   2.328   1.872 -0.0169  0.0148  0.2370
13402SOL    HW145336   6.857   2.352   1.919  0.6889  1.0457  0.9442
13402SOL    HW245337   6.973   2.255   1.922  1.3094  1.8107  1.9941
13403SOL     OW45338   8.804   1.086   3.586 -0.3344 -0.2689 -0.1580
13403SOL    HW145339   8.864   1.013   3.572  1.4102  1.7100 -3.7225
13403SOL    HW245340   8.829   1.122   3.670 -0.1817 -2.7524  0.9239
13404SOL     OW45341   1.689   4.299  11.085 -0.4306  0.2791  0.1027
13404SOL    HW145342   1.688   4.203  11.094  0.4211  0.3630  1.1403
13404SOL    HW245343   1.731   4.330  11.165  2.1918  1.3428 -1.6283
13405SOL     OW45344   3.537   6.675   8.180 -0.0150 -0.0154 -0.0689
13405SOL    HW145345   3.622   6.706   8.212 -0.0173  0.9569 -1.0101
13405SOL    HW245346   3.551   6.582   8.161  0.5821 -0.0782  0.6525
13406SOL     OW45347   6.186   2.616   0.178 -0.0165  0.0662  0.1968
13406SOL    HW145348   6.093   2.608   0.156 -0.0387 -0.1949  0.3936
13406SOL    HW245349   6.221   2.527   0.170  0.0245  0.0097  1.0202
13407SOL     OW45350   8.913   0.851  10.778  0.7565 -0.3231 -0.4729
13407SOL    HW145351   8.840   0.883  10.830  0.4897 -0.3041 -0.8584
13407SOL    HW245352   8.942   0.926  10.727 -1.9762 -1.4266 -3.8469
13408SOL     OW45353  11.093   1.606   5.606 -0.3808  0.1038  0.1456
13408SOL    HW145354  11.099   1.607   5.702  0.1110  0.8770  0.1081
13408SOL    HW245355  11.163   1.546   5.579  0.3659  0.9294  0.2145
13409SOL     OW45356   2.856   6.056   4.519  0.5493  0.2393  0.6433
13409SOL    HW145357   2.924   6.105   4.564  1.8492  0.2126 -1.2214
13409SOL    HW245358   2.819   6.118   4.456 -1.3159  0.3151  1.7761
13410SOL     OW45359   6.633   3.733   8.422  0.6469 -0.1158  0.1724
13410SOL    HW145360   6.564   3.668   8.432 -0.0809  0.8675  1.6890
13410SOL    HW245361   6.688   3.722   8.499  2.1098 -0.7914 -0.9573
13411SOL     OW45362  10.603   9.068   9.300 -0.0292 -0.4759  0.8193
13411SOL    HW145363  10.600   9.164   9.306  0.1365 -0.3609 -0.7853
13411SOL    HW245364  10.695   9.047   9.319  0.4735 -0.1313 -1.1806
13412SOL     OW45365   1.655  10.789   8.617 -0.1545 -0.6689 -0.1172
13412SOL    HW145366   1.740  10.824   8.643 -0.7868  0.7518  0.1136
13412SOL    HW245367   1.598  10.806   8.692 -1.8280  2.8682 -2.0522
13413SOL     OW45368   2.615   0.358   3.204  0.2825 -0.0241 -0.5262
13413SOL    HW145369   2.564   0.380   3.282  1.9496 -0.1203  0.6139
13413SOL    HW245370   2.564   0.289   3.161 -0.8152  0.2512  0.3024
13414SOL     OW45371   8.674   5.265   0.846  0.1435  0.6490  0.1043
13414SOL    HW145372   8.657   5.340   0.789 -1.3727 -1.4336 -2.2579
13414SOL    HW245373   8.614   5.278   0.920  0.2850  2.0389 -0.0033
13415SOL     OW45374   1.171   0.069   8.184  0.5370  0.1957  0.4092
13415SOL    HW145375   1.156   0.019   8.103 -2.7175 -1.6942  2.0726
13415SOL    HW245376   1.191   0.158   8.154 -0.9426 -0.3842 -2.4560
13416SOL     OW45377   7.378   9.017   0.329  0.6072  0.9097  0.3047
13416SOL    HW145378   7.283   9.001   0.329  0.3779  2.1949  0.7330
13416SOL    HW245379   7.406   8.998   0.240  0.1254 -0.4980  0.4449
13417SOL     OW45380   3.492   9.919   3.211  0.3147  1.3476  0.2256
13417SOL    HW145381   3.528   9.993   3.162 -1.1765  1.0505 -1.3474
13417SOL    HW245382   3.531   9.841   3.171  0.1940  1.1691  0.4529
13418SOL     OW45383   1.603   8.127  10.379 -0.3653  0.0487  0.3559
13418SOL    HW145384   1.584   8.073  10.302  2.9033 -1.4667  0.5384
13418SOL    HW245385   1.582   8.070  10.453  0.8813 -0.1401  0.5645
13419SOL     OW45386   9.383   2.547   6.381  0.2261 -0.3349  0.0069
13419SOL    HW145387   9.464   2.597   6.396  0.6495 -1.8010  2.8895
13419SOL    HW245388   9.365   2.560   6.288  1.7746  2.9874  0.0687
13420SOL     OW45389   6.413   0.978   8.382  0.2709 -0.0405 -0.0733
13420SOL    HW145390   6.456   0.892   8.374  0.3571 -0.1190  1.1477
13420SOL    HW245391   6.455   1.018   8.458 -2.0962 -0.2635  1.3768
13421SOL     OW45392  10.518   5.086   8.043  0.0656 -0.5225 -0.1454
13421SOL    HW145393  10.595   5.142   8.042 -1.2994  1.4448  0.5145
13421SOL    HW245394  10.512   5.050   7.955  0.0580  1.7010 -1.0756
13422SOL     OW45395   0.246   6.351   2.268  0.2770  0.3844 -0.0389
13422SOL    HW145396   0.204   6.296   2.334  0.3308  1.9486  1.3320
13422SOL    HW245397   0.208   6.437   2.281  0.1810  0.6842 -2.1788
13423SOL     OW45398  10.343  10.965   9.290 -0.3783 -0.1096  0.0815
13423SOL    HW145399  10.300  10.910   9.355 -0.1116  0.2183  0.5320
13423SOL    HW245400  10.436  10.958   9.311 -0.2824 -0.1086 -0.3425
13424SOL     OW45401   1.928   2.051   3.056 -0.4062  0.1456  0.4621
13424SOL    HW145402   1.844   2.025   3.092 -2.0330  0.4756 -2.8812
13424SOL    HW245403   1.919   2.144   3.036  0.7470  0.1963  0.0895
13425SOL     OW45404  10.263   8.600   4.878 -0.5161 -0.3783  0.0557
13425SOL    HW145405  10.233   8.539   4.945 -1.2071  1.4146  1.4164
13425SOL    HW245406  10.352   8.571   4.858 -0.4342 -1.1749  1.4741
13426SOL     OW45407  10.122   3.810   4.144 -0.1070 -0.5451 -1.0027
13426SOL    HW145408  10.035   3.770   4.132 -0.7826  0.1166  1.3905
13426SOL    HW245409  10.180   3.735   4.159 -1.1258 -0.8061  2.0756
13427SOL     OW45410   6.153   2.211   6.954  0.2034 -0.2298 -1.2364
13427SOL    HW145411   6.187   2.281   6.898  0.1098  0.2201 -0.7376
13427SOL    HW245412   6.229   2.183   7.005 -0.6549  2.4352  1.6182
13428SOL     OW45413   8.969   3.061   2.479  0.0148  0.4316 -0.0432
13428SOL    HW145414   8.912   3.096   2.547 -0.9340  0.9285 -1.0776
13428SOL    HW245415   8.912   3.008   2.424  0.5608  0.8475 -1.0307
13429SOL     OW45416  10.489   4.522   1.978  0.0317  0.4491  0.4903
13429SOL    HW145417  10.393   4.523   1.978  0.0315  0.1980  0.3181
13429SOL    HW245418  10.512   4.472   2.056  0.0178 -1.1295 -0.5030
13430SOL     OW45419   3.483   5.432   7.858 -0.4772  0.0385  0.5060
13430SOL    HW145420   3.460   5.348   7.818  0.4967 -0.1563  0.3517
13430SOL    HW245421   3.406   5.455   7.910 -1.0045 -0.6357  0.0428
13431SOL     OW45422   6.906   7.830   4.762  0.2571 -0.0711  0.2578
13431SOL    HW145423   6.837   7.804   4.823  0.5509  0.3617  0.7724
13431SOL    HW245424   6.863   7.830   4.676 -0.5517  0.8198  0.6533
13432SOL     OW45425   9.650   7.496   4.390 -0.0898  0.2957  0.0965
13432SOL    HW145426   9.685   7.519   4.476 -2.7854  0.1756  1.2714
13432SOL    HW245427   9.682   7.407   4.373  2.1360  1.0963  0.0327
13433SOL     OW45428   4.823   4.336   9.137  0.2688 -0.0132 -0.0375
13433SOL    HW145429   4.813   4.309   9.046 -0.4448 -1.0308  0.3344
13433SOL    HW245430   4.845   4.256   9.183 -0.2889  0.3339  0.8395
13434SOL     OW45431   1.112   4.855   2.014 -1.0089  0.1847 -0.2217
13434SOL    HW145432   1.062   4.808   1.947  0.0227  0.6155 -1.3269
13434SOL    HW245433   1.122   4.792   2.085 -0.3646 -1.0081 -1.3314
13435SOL     OW45434   8.329   7.513   6.430 -0.3482 -0.6413  0.7780
13435SOL    HW145435   8.297   7.579   6.492 -0.0879  0.5502 -0.3309
13435SOL    HW245436   8.397   7.558   6.380 -1.5542 -1.1204 -1.3689
13436SOL     OW45437   8.440  11.070   5.767  0.2583 -0.3666 -0.1725
13436SOL    HW145438   8.389  11.044   5.844  0.6164 -1.0319 -0.1638
13436SOL    HW245439   8.384  11.048   5.693 -0.9880  2.2080 -0.0481
13437SOL     OW45440   8.817   3.323   5.058  0.1380  0.2880 -0.5820
13437SOL    HW145441   8.819   3.228   5.056 -1.3681  0.2268 -0.3752
13437SOL    HW245442   8.790   3.345   5.148  0.3967  0.8954 -0.6489
13438SOL     OW45443   8.484   4.373   3.728 -0.1652 -0.1849 -0.4471
13438SOL    HW145444   8.544   4.428   3.778  0.1958 -1.1704  0.2132
13438SOL    HW245445   8.533   4.292   3.713 -1.2853 -0.9559 -0.0008
13439SOL     OW45446   9.553   8.190   5.596 -0.2306 -0.2302 -0.4502
13439SOL    HW145447   9.629   8.137   5.572  0.3978  0.5110 -0.1373
13439SOL    HW245448   9.544   8.178   5.690 -0.4934 -0.3061 -0.4849
13440SOL     OW45449   9.821   2.869   8.483 -0.6341  0.2045  0.3028
13440SOL    HW145450   9.739   2.847   8.527  0.0812 -1.1950  0.9864
13440SOL    HW245451   9.795   2.900   8.397 -1.9226  0.5360  0.7954
13441SOL     OW45452  10.820   2.605   0.935  0.0773 -0.6126  0.0527
13441SOL    HW145453  10.828   2.604   1.031  1.7946 -1.0036 -0.0858
13441SOL    HW245454  10.878   2.535   0.905  0.1374  0.0063 -1.3139
13442SOL     OW45455   2.656   4.582   6.846  0.4853  0.3172  0.4719
13442SOL    HW145456   2.687   4.612   6.931 -0.8372 -0.3005  1.1837
13442SOL    HW245457   2.606   4.655   6.811  1.7005  0.8679 -0.1444
13443SOL     OW45458   6.445   6.096   4.710  0.8189 -0.5294  0.0915
13443SOL    HW145459   6.423   6.037   4.638 -0.5615 -2.4353  2.0126
13443SOL    HW245460   6.374   6.159   4.712 -0.3591 -1.8473  1.1780
13444SOL     OW45461   7.220   4.227   0.032 -0.3114  0.0160  0.2702
13444SOL    HW145462   7.134   4.257   0.060 -1.3709 -0.6837 -2.0397
13444SOL    HW245463   7.214   4.223  -0.064  1.7750 -1.5532  0.1480
13445SOL     OW45464  10.932   8.301   0.547 -0.0324  0.7238  0.1491
13445SOL    HW145465  10.982   8.370   0.591  2.2388 -0.8039  0.0362
13445SOL    HW245466  10.948   8.315   0.454 -1.3644  1.3322 -0.0142
13446SOL     OW45467   2.504   5.405   3.761  0.8362 -0.1494  0.0936
13446SOL    HW145468   2.464   5.415   3.848 -0.7164 -0.4719 -0.5660
13446SOL    HW245469   2.594   5.436   3.772 -0.2460  2.7621  1.0593
13447SOL     OW45470   9.994   5.303   9.757  0.5265  0.0211  0.3636
13447SOL    HW145471   9.996   5.236   9.689  0.2336 -0.2805  0.6465
13447SOL    HW245472   9.911   5.288   9.803  1.0296 -0.2112  1.2182
13448SOL     OW45473   6.520   5.088   4.436 -0.1989 -0.0342  0.2544
13448SOL    HW145474   6.593   5.106   4.496 -0.2359 -0.8791  0.5575
13448SOL    HW245475   6.447   5.063   4.494 -0.1924 -1.0029 -0.1507
13449SOL     OW45476   3.276   4.069   4.289 -0.0333  0.2284  0.2654
13449SOL    HW145477   3.327   4.091   4.210 -0.3199  0.5103  0.1575
13449SOL    HW245478   3.266   3.974   4.286 -0.7428  0.3186 -0.4678
13450SOL     OW45479   7.946   2.559   8.702  0.1962 -0.2085 -0.1361
13450SOL    HW145480   8.006   2.613   8.651 -1.3326  0.3546 -1.3926
13450SOL    HW245481   7.985   2.554   8.789  1.7051  0.6924 -0.7525
13451SOL     OW45482  10.198   6.753   0.259 -0.0969 -0.1139 -0.5028
13451SOL    HW145483  10.290   6.727   0.260  0.3529  1.4597 -0.9192
13451SOL    HW245484  10.163   6.716   0.178  0.7892  1.4085 -1.5944
13452SOL     OW45485   3.747  10.680   9.735  0.0902  0.6164 -0.3884
13452SOL    HW145486   3.837  10.647   9.734  0.1505  0.7400  0.9495
13452SOL    HW245487   3.755  10.771   9.704  0.4242  0.6462 -0.2176
13453SOL     OW45488   5.442   7.480   6.275 -0.1546  0.8897 -0.1308
13453SOL    HW145489   5.484   7.402   6.311  0.8397  1.1645 -0.6982
13453SOL    HW245490   5.379   7.505   6.343 -0.9438 -0.7590 -0.2124
13454SOL     OW45491   5.506   0.370  10.286  0.1739  0.4374  0.0838
13454SOL    HW145492   5.500   0.284  10.326  0.6300 -0.2700 -1.3672
13454SOL    HW245493   5.431   0.418  10.323  0.6131 -0.1823  1.8032
13455SOL     OW45494   7.495  10.264   1.324 -0.4184  0.1420 -0.3645
13455SOL    HW145495   7.549  10.224   1.392 -2.8278  1.2372  2.2621
13455SOL    HW245496   7.442  10.192   1.291 -0.7314  0.0236  0.3842
13456SOL     OW45497   2.051  11.181   2.100  0.0731  0.0994  0.5639
13456SOL    HW145498   2.146  11.193   2.104 -0.2674  3.3120  0.7919
13456SOL    HW245499   2.028  11.204   2.010 -0.5248 -0.3777  0.5909
13457SOL     OW45500   5.294  10.839  11.252 -0.2953 -0.1400  0.2155
13457SOL    HW145501   5.279  10.932  11.237  1.8518  0.1763 -0.0475
13457SOL    HW245502   5.368  10.816  11.196  1.0349 -1.3413  2.3870
13458SOL     OW45503   4.054   9.527   0.409  0.5625 -0.2360  0.2266
13458SOL    HW145504   4.071   9.433   0.402  0.2441 -0.3441  0.8869
13458SOL    HW245505   4.116   9.567   0.347  0.8497 -0.8607  0.1050
13459SOL     OW45506   6.852   7.558   2.717  0.1725  0.3544 -0.0873
13459SOL    HW145507   6.777   7.561   2.777 -0.1752  0.5752 -0.5325
13459SOL    HW245508   6.872   7.649   2.698  0.6604  0.3028  0.1525
13460SOL     OW45509   5.292   3.671   0.294 -0.0456  0.0343  0.3470
13460SOL    HW145510   5.217   3.730   0.309 -0.0065  0.6796 -1.8630
13460SOL    HW245511   5.368   3.729   0.295  0.2389 -0.3451  0.6660
13461SOL     OW45512  10.312   0.348   2.783  0.7707  0.3574 -0.4350
13461SOL    HW145513  10.234   0.384   2.827 -0.1261 -0.4424 -1.3343
13461SOL    HW245514  10.323   0.403   2.706 -1.5294 -2.1323 -2.6579
13462SOL     OW45515  10.717   6.413   6.973  0.1963 -0.2355 -0.1146
13462SOL    HW145516  10.740   6.348   6.907  0.5185  0.5840 -0.8287
13462SOL    HW245517  10.643   6.461   6.936 -0.9860 -1.1432  1.0431
13463SOL     OW45518   6.842   1.859   2.833 -0.0091 -0.0963  0.1833
13463SOL    HW145519   6.761   1.818   2.803 -0.2569  0.1279  0.5534
13463SOL    HW245520   6.911   1.800   2.803 -0.3975 -1.0750  1.2170
13464SOL     OW45521   6.207   0.839   5.863 -0.4400  0.0120  0.0215
13464SOL    HW145522   6.280   0.802   5.912 -0.9815  0.0581  0.8871
13464SOL    HW245523   6.198   0.928   5.896 -1.7676 -0.4442  0.9545
13465SOL     OW45524   2.968   5.961   2.218  0.3493  0.2547 -0.1336
13465SOL    HW145525   3.027   6.023   2.174 -0.1528  1.9477  1.5266
13465SOL    HW245526   3.026   5.904   2.268  0.7632 -0.0745 -0.9790
13466SOL     OW45527   6.510   1.024  10.764  0.4320  0.1279  0.0160
13466SOL    HW145528   6.531   1.007  10.672  0.2371  0.7612 -0.1478
13466SOL    HW245529   6.557   0.956  10.812  0.2293 -0.4444 -0.5795
13467SOL     OW45530   8.282   0.189   4.677 -0.0388  0.4985  0.4343
13467SOL    HW145531   8.327   0.254   4.623 -0.4571 -0.1074 -0.6711
13467SOL    HW245532   8.190   0.212   4.669 -0.2602 -0.7011 -0.6266
13468SOL     OW45533   7.274   7.364   1.634 -0.3449  0.4206  0.2242
13468SOL    HW145534   7.204   7.407   1.584 -1.7862  1.3740  2.9654
13468SOL    HW245535   7.260   7.271   1.618 -0.6767  0.7154 -1.2702
13469SOL     OW45536   4.857   5.984   5.240 -0.0466 -0.0672  0.2801
13469SOL    HW145537   4.865   6.022   5.327  0.4054 -3.9506  2.0561
13469SOL    HW245538   4.946   5.978   5.207 -0.1451  0.6736 -0.1288
13470SOL     OW45539  10.661  10.131   9.979 -0.5250 -0.1812 -0.1460
13470SOL    HW145540  10.751  10.103   9.994 -1.0548 -2.6987 -1.3366
13470SOL    HW245541  10.663  10.176   9.895 -0.4805 -0.8413 -0.5032
13471SOL     OW45542   9.259   7.482   3.501 -0.4411  0.1551  0.1489
13471SOL    HW145543   9.354   7.475   3.510 -0.5103 -0.9554  0.0091
13471SOL    HW245544   9.244   7.575   3.483  0.6976  0.1632 -0.8406
13472SOL     OW45545  11.119   8.920   1.835 -0.5601  0.4233  0.3361
13472SOL    HW145546  11.202   8.917   1.882 -1.5927  0.7956  2.2294
13472SOL    HW245547  11.060   8.865   1.886 -1.1024 -1.0715 -1.8154
13473SOL     OW45548   4.585   4.705   2.482  0.4494 -0.2688  0.3605
13473SOL    HW145549   4.639   4.744   2.413 -1.3506 -2.8088 -2.6870
13473SOL    HW245550   4.629   4.624   2.504  0.6618  0.2176  1.7313
13474SOL     OW45551   8.040   2.902   2.993 -0.2342  0.1202  0.3570
13474SOL    HW145552   8.049   2.992   3.025 -0.1684  0.6788 -1.1941
13474SOL    HW245553   7.956   2.873   3.028 -0.6102  1.0537  0.2588
13475SOL     OW45554   8.996   5.849   3.591  0.8250  0.0267 -0.2629
13475SOL    HW145555   8.903   5.863   3.573  0.6988  3.9812  2.8404
13475SOL    HW245556   9.002   5.847   3.686  4.0263  0.8001 -0.3898
13476SOL     OW45557   2.838   5.201   8.432  0.5976  0.1544 -0.1688
13476SOL    HW145558   2.783   5.277   8.448  0.2574 -0.1817  0.2895
13476SOL    HW245559   2.776   5.128   8.425  1.0587 -0.4373  1.6509
13477SOL     OW45560  11.042   5.611   0.243  0.2561 -0.1624  0.6745
13477SOL    HW145561  11.038   5.706   0.252 -0.9646 -0.2453  1.1174
13477SOL    HW245562  10.965   5.589   0.189 -0.2969 -1.0388  1.8037
13478SOL     OW45563   7.218   2.059   5.378 -0.6715  0.0121  0.4465
13478SOL    HW145564   7.255   2.147   5.370  0.5897 -0.5177  0.2101
13478SOL    HW245565   7.138   2.061   5.326 -1.0584  1.2401  1.0705
13479SOL     OW45566   3.878   3.762   8.081 -0.4183 -0.5681 -0.0447
13479SOL    HW145567   3.894   3.753   7.987  2.1207 -1.6955  0.4534
13479SOL    HW245568   3.784   3.782   8.087 -0.4948  0.2043 -2.8353
13480SOL     OW45569   0.839   5.174   1.208 -0.2310 -0.0859  0.2274
13480SOL    HW145570   0.796   5.138   1.130 -0.0338 -1.9955  0.9632
13480SOL    HW245571   0.768   5.194   1.268 -0.3832  1.3837 -0.4304
13481SOL     OW45572   7.340   9.130   7.138  0.0738  0.3287  0.0948
13481SOL    HW145573   7.378   9.208   7.178  1.6232  0.2184 -1.0906
13481SOL    HW245574   7.258   9.161   7.098 -0.8138  0.7016  2.1431
13482SOL     OW45575   7.860   3.455   3.283 -0.0628  0.4726 -0.1175
13482SOL    HW145576   7.924   3.526   3.289  2.4857 -1.8119  0.9388
13482SOL    HW245577   7.788   3.482   3.340 -0.2117  3.2161 -1.5466
13483SOL     OW45578   7.729   6.322   1.517 -0.7376  1.0242  0.4627
13483SOL    HW145579   7.651   6.375   1.501 -1.2112  0.4297  0.7253
13483SOL    HW245580   7.780   6.372   1.581 -0.8264  1.4907  0.1701
13484SOL     OW45581   0.305   8.095  10.967  0.4314  0.4660 -0.2492
13484SOL    HW145582   0.346   8.059  11.046  1.0190  0.5408 -0.5167
13484SOL    HW245583   0.376   8.140  10.922  0.1072  0.3808 -0.8451
13485SOL     OW45584   9.195   0.897   9.977 -0.1235  0.2572  0.6796
13485SOL    HW145585   9.124   0.893   9.913 -0.5055 -2.7276  1.2607
13485SOL    HW245586   9.189   0.816  10.026  2.7298  0.6592  1.8063
13486SOL     OW45587   7.112   8.796  11.283 -0.5615  0.1430  0.0751
13486SOL    HW145588   7.172   8.748  11.227 -0.9043 -0.9193  0.6081
13486SOL    HW245589   7.121   8.887  11.255  1.3421  0.0121  0.1856
13487SOL     OW45590   5.482  11.190   4.837  0.5039  0.3450 -0.1630
13487SOL    HW145591   5.459  11.161   4.749 -0.9811  0.2093  0.2570
13487SOL    HW245592   5.555  11.133   4.863 -0.4623 -1.0690 -0.4869
13488SOL     OW45593   7.683   1.974   2.063 -0.2394 -0.6921 -0.2080
13488SOL    HW145594   7.618   1.994   2.131  0.2589 -0.6668  0.2606
13488SOL    HW245595   7.695   1.879   2.069  1.0952 -0.4617  0.9105
13489SOL     OW45596   5.732   0.875   4.539 -0.4514  0.2290  0.2940
13489SOL    HW145597   5.795   0.883   4.468 -0.6999  1.1384  0.1612
13489SOL    HW245598   5.704   0.784   4.537 -0.3939  0.2303 -0.7280
13490SOL     OW45599   7.101   7.104   3.195  0.6881 -0.4842  0.0975
13490SOL    HW145600   7.168   7.154   3.147 -1.0913  1.3963 -0.4604
13490SOL    HW245601   7.097   7.021   3.148  0.7075  0.4149 -1.5590
13491SOL     OW45602   7.642   4.725   2.937  0.0428  0.7006 -0.1809
13491SOL    HW145603   7.706   4.676   2.886  1.1580  1.8404  0.0895
13491SOL    HW245604   7.634   4.809   2.891 -0.7937  0.8044  0.1335
13492SOL     OW45605   3.504  10.091  10.024  0.1633 -0.3032 -0.1587
13492SOL    HW145606   3.429  10.151  10.020  1.4594  1.2454 -2.2352
13492SOL    HW245607   3.566  10.135  10.082 -0.6102 -1.7577  1.8549
13493SOL     OW45608   4.134   2.581  10.832 -0.1638  0.3288 -0.4831
13493SOL    HW145609   4.229   2.573  10.837 -0.0442  1.4012 -0.9058
13493SOL    HW245610   4.101   2.511  10.888  0.8032 -2.5408 -3.3730
13494SOL     OW45611   0.145   1.856   2.824  0.3819 -0.1073  0.1628
13494SOL    HW145612   0.113   1.771   2.856 -1.8532  0.4090 -0.6261
13494SOL    HW245613   0.179   1.899   2.902  1.8279 -1.8346  0.5247
13495SOL     OW45614  10.380   9.727   2.648  0.2020 -0.1172  0.0147
13495SOL    HW145615  10.336   9.643   2.635 -0.2050  0.1708 -0.5099
13495SOL    HW245616  10.431   9.716   2.728  1.7064 -1.5059 -1.1134
13496SOL     OW45617   5.538   6.930   0.838  0.5412  0.1284  0.2497
13496SOL    HW145618   5.609   6.880   0.798  0.7416  0.8866 -0.3445
13496SOL    HW245619   5.515   6.880   0.917  1.8848  0.0028  0.5711
13497SOL     OW45620   5.167   0.207   4.755  0.0635  0.5423 -0.0522
13497SOL    HW145621   5.156   0.221   4.661 -0.4449  1.4657  0.1381
13497SOL    HW245622   5.214   0.284   4.785  0.8907 -0.1001  0.3328
13498SOL     OW45623   5.589   9.720   7.754 -0.0851 -0.1220 -0.2254
13498SOL    HW145624   5.584   9.705   7.848  0.5202 -1.7275 -0.4293
13498SOL    HW245625   5.532   9.653   7.716 -0.2400  0.4452 -1.0136
13499SOL     OW45626   4.268   7.593   5.379 -0.0368 -0.0784  0.0978
13499SOL    HW145627   4.201   7.524   5.381 -1.0474  0.8734 -0.1171
13499SOL    HW245628   4.239   7.652   5.309  0.7784  0.5945  0.3248
13500SOL     OW45629   9.632   3.220   2.431  0.3747 -0.2810 -0.2312
13500SOL    HW145630   9.727   3.226   2.440  0.2776 -0.1670  0.7601
13500SOL    HW245631   9.618   3.154   2.363  1.1503 -1.3664  0.6502
13501SOL     OW45632   9.244  10.690   0.272 -0.1989 -0.3675 -0.2829
13501SOL    HW145633   9.215  10.780   0.260 -0.3553 -0.1232  1.7231
13501SOL    HW245634   9.331  10.687   0.231 -1.2892 -0.0318 -2.6936
13502SOL     OW45635   2.726   2.646   7.551  0.0865 -0.1879 -0.3489
13502SOL    HW145636   2.690   2.559   7.533 -0.9554  0.4091 -1.2026
13502SOL    HW245637   2.777   2.667   7.473  1.6910 -0.6999  0.5314
13503SOL     OW45638   7.320   2.999   8.732 -0.1704  0.3494  0.0476
13503SOL    HW145639   7.329   2.909   8.701 -0.1295  1.0336 -2.0076
13503SOL    HW245640   7.402   3.017   8.778 -0.1489 -0.6335  0.3871
13504SOL     OW45641  10.275   0.933   9.281 -0.1252  0.5181 -0.4319
13504SOL    HW145642  10.266   1.015   9.330 -1.1303  0.7432 -0.9874
13504SOL    HW245643  10.235   0.867   9.337 -0.8113  0.6884 -0.7211
13505SOL     OW45644   4.556   7.280   2.071 -0.6914  0.4665  0.1671
13505SOL    HW145645   4.640   7.236   2.085 -1.4816 -1.1282  0.0264
13505SOL    HW245646   4.530   7.311   2.157 -0.7535 -0.5093  0.5039
13506SOL     OW45647   9.071   6.839   8.013 -0.1593 -0.1107  0.0965
13506SOL    HW145648   8.981   6.807   8.011 -0.2770  0.2292 -3.7779
13506SOL    HW245649   9.115   6.793   7.941  2.2234  1.1971  0.6642
13507SOL     OW45650   4.159   5.341   6.157 -0.2418  1.0055 -0.2372
13507SOL    HW145651   4.077   5.376   6.193  0.0805  0.5671  0.9196
13507SOL    HW245652   4.210   5.314   6.233  0.8096  0.8712 -0.9758
13508SOL     OW45653   7.172  11.210   2.502 -0.6418  0.2793  0.4455
13508SOL    HW145654   7.086  11.252   2.495  0.4535  2.5404  0.0428
13508SOL    HW245655   7.180  11.158   2.422 -0.4365  2.4277 -0.9759
13509SOL     OW45656   4.992   9.524   3.530  0.1834 -0.0279  1.3366
13509SOL    HW145657   4.968   9.489   3.615  1.2979  0.3493  1.8042
13509SOL    HW245658   4.927   9.593   3.513 -0.6830 -0.8294  1.3923
13510SOL     OW45659   0.386   9.320   9.957 -0.3952 -0.0525  0.3412
13510SOL    HW145660   0.291   9.329   9.957 -0.3378  0.6612 -0.8935
13510SOL    HW245661   0.417   9.404   9.992 -0.2191 -0.3958  1.0213
13511SOL     OW45662   7.874   5.618  10.460 -0.0135 -0.2729 -0.2773
13511SOL    HW145663   7.931   5.548  10.429 -0.2143 -0.4052 -0.3514
13511SOL    HW245664   7.906   5.638  10.548  2.6520  2.3810 -1.7590
13512SOL     OW45665   0.570   2.694   1.599 -0.1878  0.2979  0.4231
13512SOL    HW145666   0.582   2.617   1.654 -3.2699 -0.3443  0.2768
13512SOL    HW245667   0.506   2.747   1.646  1.2329  2.3675  0.0830
13513SOL     OW45668   1.011   2.507   2.590  0.1486  0.4243  0.7033
13513SOL    HW145669   1.035   2.587   2.544  2.3819 -0.4218  0.3050
13513SOL    HW245670   0.919   2.519   2.615 -0.0389  2.3603 -0.8528
13514SOL     OW45671   8.353   4.259   2.137  0.2580  0.0514  0.2824
13514SOL    HW145672   8.406   4.300   2.069  0.5651 -0.2199  0.3582
13514SOL    HW245673   8.313   4.333   2.184  0.8467  0.2654  0.4492
13515SOL     OW45674   5.055   3.840   6.962 -0.3013  0.2822 -0.1879
13515SOL    HW145675   5.131   3.814   7.015 -0.6110  0.3637  0.2920
13515SOL    HW245676   5.077   3.810   6.873  1.0542  1.8348 -0.3872
13516SOL     OW45677   2.379   1.969   3.263 -0.7161  0.2477 -0.0027
13516SOL    HW145678   2.415   1.892   3.220  0.3990  1.4979 -1.3807
13516SOL    HW245679   2.307   1.996   3.205  0.6905  1.8493 -1.0449
13517SOL     OW45680   9.780   8.683   1.953 -0.1411  0.3437 -0.1265
13517SOL    HW145681   9.819   8.685   2.040  0.2683  1.0211 -0.3254
13517SOL    HW245682   9.720   8.608   1.955 -0.6250  0.7655  0.9356
13518SOL     OW45683   5.035   6.257   5.705 -0.3140  0.2724 -0.3480
13518SOL    HW145684   5.115   6.205   5.709 -0.4924  0.0640  0.5755
13518SOL    HW245685   5.052   6.321   5.636 -0.0797 -0.9749 -1.4620
13519SOL     OW45686   4.019   9.597   9.832  0.2767  0.0123 -0.2320
13519SOL    HW145687   4.091   9.609   9.769  0.9088 -0.1724  0.4446
13519SOL    HW245688   3.998   9.504   9.827  0.5519 -0.0661  0.0701
13520SOL     OW45689   4.380   4.617   5.580  0.1509  0.0056 -0.5947
13520SOL    HW145690   4.443   4.614   5.508  1.3454  0.7007  0.4029
13520SOL    HW245691   4.341   4.529   5.581 -0.7657  0.3611 -2.8452
13521SOL     OW45692   9.564   9.613   9.510  0.2245  0.3046  0.1722
13521SOL    HW145693   9.518   9.605   9.426 -1.1219 -1.0070  1.0070
13521SOL    HW245694   9.502   9.659   9.567  0.0523 -1.1814  1.2151
13522SOL     OW45695   0.848   2.024   3.953  0.4756 -0.1246  0.3550
13522SOL    HW145696   0.860   1.939   3.910 -1.5909  0.1628 -0.8566
13522SOL    HW245697   0.937   2.056   3.969  1.3346 -0.3922 -3.4522
13523SOL     OW45698  10.420   0.758   1.954 -0.1369  0.5836  0.5704
13523SOL    HW145699  10.434   0.850   1.934 -1.0891  0.6017 -0.0559
13523SOL    HW245700  10.325   0.746   1.944  0.1407 -0.7535 -0.5906
13524SOL     OW45701   2.023   7.563   0.232 -0.3801 -0.3124  0.2106
13524SOL    HW145702   2.064   7.626   0.173 -0.6925 -0.3979 -0.0957
13524SOL    HW245703   1.961   7.515   0.178  0.5714 -1.5749  0.2182
13525SOL     OW45704   3.163   2.733   6.505  0.0795 -0.0890  0.5224
13525SOL    HW145705   3.095   2.675   6.471  0.0625  1.1444 -1.6391
13525SOL    HW245706   3.128   2.821   6.495  1.2955  0.4662  1.0028
13526SOL     OW45707   8.234   3.723   2.771  0.3024 -0.4172 -0.1810
13526SOL    HW145708   8.326   3.713   2.745  0.6852  2.1733  0.0297
13526SOL    HW245709   8.192   3.765   2.696 -0.6914 -1.5166 -0.2393
13527SOL     OW45710   7.675   5.207   5.010 -0.9830  0.7802 -0.3591
13527SOL    HW145711   7.621   5.257   4.950  1.1222  2.0547 -1.2320
13527SOL    HW245712   7.699   5.269   5.079 -1.0213  0.1014  0.2758
13528SOL     OW45713   3.668   0.822   1.203  0.4132  0.0225  0.2009
13528SOL    HW145714   3.707   0.742   1.237 -0.0063  0.4275  1.6725
13528SOL    HW245715   3.583   0.828   1.247  1.5978  2.7198  2.3317
13529SOL     OW45716   4.979  10.720   0.769 -0.1890  0.0088 -0.1349
13529SOL    HW145717   5.027  10.715   0.851  0.7899  0.6002 -0.6664
13529SOL    HW245718   4.983  10.631   0.733  0.7006  0.1099 -0.2842
13530SOL     OW45719   3.107   5.041   2.189  0.6591  0.1012  0.0826
13530SOL    HW145720   3.041   5.104   2.161 -0.0171 -1.0656 -0.9682
13530SOL    HW245721   3.063   4.990   2.257  0.1413 -1.2970 -1.2784
13531SOL     OW45722   0.242   1.114   3.072  0.0059  0.4548 -0.6839
13531SOL    HW145723   0.196   1.173   3.012 -1.6357 -0.4953 -0.4027
13531SOL    HW245724   0.174   1.082   3.131  1.1264 -0.6229  0.0560
13532SOL     OW45725   6.535   5.601   8.326 -0.0268  0.1321  0.0434
13532SOL    HW145726   6.549   5.631   8.416 -2.3598  1.0731  0.1213
13532SOL    HW245727   6.441   5.587   8.320  0.4082 -2.3045 -1.5360
13533SOL     OW45728   9.624   8.305   1.790 -0.1211 -0.3446  0.0652
13533SOL    HW145729   9.674   8.329   1.712 -1.2642 -0.3491 -0.6748
13533SOL    HW245730   9.680   8.241   1.835  0.6120 -0.2190 -0.6557
13534SOL     OW45731   8.413   2.066   2.638 -0.1169  0.4351  0.7322
13534SOL    HW145732   8.329   2.105   2.661 -0.4100  1.2593 -1.6378
13534SOL    HW245733   8.395   1.972   2.633 -0.2152  0.2949  2.9890
13535SOL     OW45734   1.078   6.213   0.507 -0.0218  0.3567  0.9232
13535SOL    HW145735   1.030   6.293   0.526 -1.3364 -0.1087 -0.3715
13535SOL    HW245736   1.040   6.147   0.565 -1.0153 -0.0282 -0.1505
13536SOL     OW45737   8.977   7.738   8.789  0.2156  0.1806 -0.2834
13536SOL    HW145738   8.893   7.781   8.773  0.8142  0.5667 -2.6332
13536SOL    HW245739   9.033   7.807   8.825 -0.5313 -0.1507  1.5709
13537SOL     OW45740   7.933   4.257  10.316  0.7742 -0.2478 -0.2721
13537SOL    HW145741   7.918   4.292  10.404 -2.0894 -1.5159 -0.2332
13537SOL    HW245742   8.011   4.202  10.326  1.5057  0.9661  1.0571
13538SOL     OW45743   6.364   7.583  10.201 -0.3460  0.0379 -0.1624
13538SOL    HW145744   6.419   7.505  10.210  1.9921  1.5753 -0.7009
13538SOL    HW245745   6.280   7.550  10.171  0.4154 -2.3296  0.2147
13539SOL     OW45746   2.665  10.429   1.350 -0.7243 -0.6948  0.1370
13539SOL    HW145747   2.650  10.352   1.405  0.4423 -0.2838  1.0346
13539SOL    HW245748   2.636  10.401   1.262 -1.6510 -1.6698  0.7362
13540SOL     OW45749   2.182  11.136   4.702 -0.1880 -0.0439  0.4762
13540SOL    HW145750   2.148  11.187   4.775  0.6920  0.9182  0.2210
13540SOL    HW245751   2.116  11.145   4.633 -0.8251 -0.6272  0.9986
13541SOL     OW45752   7.445   4.884   8.308  0.1774 -0.5853  0.2683
13541SOL    HW145753   7.476   4.794   8.300 -1.2382 -1.0227 -0.3454
13541SOL    HW245754   7.446   4.901   8.402 -2.7216 -2.3953  0.6919
13542SOL     OW45755  10.920  10.446   1.663 -0.1804 -0.0537 -0.0723
13542SOL    HW145756  10.867  10.368   1.674 -2.5665  1.6113  0.7477
13542SOL    HW245757  10.874  10.496   1.595  3.3007 -0.9670 -3.2553
13543SOL     OW45758   0.378   4.769   2.084  0.4631  0.1457  0.5354
13543SOL    HW145759   0.421   4.683   2.082  0.9584  0.3740  1.2351
13543SOL    HW245760   0.451   4.832   2.088  0.0536  0.5326  1.8460
13544SOL     OW45761   5.551  10.516   9.499 -0.2428 -0.3511 -0.3423
13544SOL    HW145762   5.584  10.495   9.411  1.7777  0.3870  0.1988
13544SOL    HW245763   5.610  10.470   9.558  0.5957  1.9566  0.6897
13545SOL     OW45764   9.064   0.870   8.361 -0.1183  0.3766 -0.0356
13545SOL    HW145765   9.015   0.852   8.281  0.0268 -1.3080  0.2383
13545SOL    HW245766   8.998   0.865   8.430 -0.3536  2.3866 -0.0868
13546SOL     OW45767   9.282   3.242  10.837  0.2967 -0.4728  0.2765
13546SOL    HW145768   9.346   3.175  10.814  0.0144 -0.4225 -0.7064
13546SOL    HW245769   9.327   3.325  10.822 -0.2932 -0.4319 -1.3232
13547SOL     OW45770   2.975  10.903   6.480  0.3728 -0.1957 -0.2161
13547SOL    HW145771   3.054  10.937   6.522  0.7145 -0.7001 -0.4560
13547SOL    HW245772   2.973  10.810   6.502 -0.7672  0.0364  0.7519
13548SOL     OW45773   3.992   8.021   1.676  0.3560 -0.7087 -0.6659
13548SOL    HW145774   4.019   8.069   1.754  1.3930 -1.6788 -0.4155
13548SOL    HW245775   3.930   8.079   1.632  0.3879  0.1815  0.4545
13549SOL     OW45776   9.410   9.818   9.249  0.5738 -0.0637 -0.2064
13549SOL    HW145777   9.485   9.877   9.257 -0.8578  1.8845 -0.9161
13549SOL    HW245778   9.373   9.813   9.337  0.7468  0.0189 -0.1294
13550SOL     OW45779  10.708   9.998   9.697  0.0116  0.3745 -0.1896
13550SOL    HW145780  10.782   9.937   9.702 -0.0406  0.2559 -0.7841
13550SOL    HW245781  10.735  10.063   9.632 -0.0513  0.8255  0.2333
13551SOL     OW45782   5.706   9.633   7.251 -0.3660  0.1051  0.3951
13551SOL    HW145783   5.715   9.667   7.340 -0.6334 -0.2184  0.5474
13551SOL    HW245784   5.778   9.673   7.202 -0.9372  1.2305  0.4663
13552SOL     OW45785   3.725   8.685   3.751  0.1574  0.3826 -0.5847
13552SOL    HW145786   3.808   8.721   3.784 -0.1109 -0.2185  0.7454
13552SOL    HW245787   3.658   8.724   3.807 -0.2531 -1.0698 -0.0533
13553SOL     OW45788  10.801   2.005   5.385  0.5351 -0.0405 -0.1005
13553SOL    HW145789  10.883   2.002   5.336  0.8990  0.0083  0.5007
13553SOL    HW245790  10.735   1.974   5.323  0.9660  0.1497 -0.6641
13554SOL     OW45791   5.647   4.376   3.006  0.1532  0.1707 -0.0390
13554SOL    HW145792   5.587   4.301   3.012 -0.4283  0.4633 -1.9926
13554SOL    HW245793   5.590   4.452   3.000  0.7249  0.5291 -0.9582
13555SOL     OW45794   2.894   2.512   8.192  0.8838  0.0400 -0.2519
13555SOL    HW145795   2.887   2.419   8.215 -3.0560 -0.0605 -1.5342
13555SOL    HW245796   2.895   2.513   8.096 -1.2125  1.4149 -0.2738
13556SOL     OW45797   3.521   2.204   8.873  0.5806 -0.3569  0.2136
13556SOL    HW145798   3.525   2.218   8.968 -0.8242 -0.2230  0.2716
13556SOL    HW245799   3.610   2.219   8.842  0.5000  2.2254  1.1451
13557SOL     OW45800   1.141   1.172   3.094  0.1925 -0.0821 -0.2519
13557SOL    HW145801   1.088   1.119   3.035  0.3431  0.7645 -1.1528
13557SOL    HW245802   1.111   1.262   3.079 -0.2382  0.0718  1.4420
13558SOL     OW45803   7.671   4.963   4.000 -0.2300  0.3534  0.2978
13558SOL    HW145804   7.642   4.906   3.929  1.3699  0.7009 -0.6657
13558SOL    HW245805   7.741   4.915   4.043 -1.5796 -0.1079  2.0505
13559SOL     OW45806  10.409   6.530   8.956 -0.0278 -0.7460 -0.4190
13559SOL    HW145807  10.423   6.624   8.967 -2.0902 -0.3493 -1.1406
13559SOL    HW245808  10.489   6.500   8.912  0.7048  0.6287 -0.0790
13560SOL     OW45809   4.653  10.689   8.567 -0.5198 -0.7581 -0.5576
13560SOL    HW145810   4.691  10.768   8.527 -0.1126  0.3679  1.9518
13560SOL    HW245811   4.568  10.680   8.525 -0.2696  0.6036 -1.3897
13561SOL     OW45812   2.054   5.358   3.961  0.4337 -0.0682 -0.1497
13561SOL    HW145813   2.088   5.367   3.873  2.3058  0.6877  0.6269
13561SOL    HW245814   2.014   5.271   3.963  0.3333 -0.0661 -1.7379
13562SOL     OW45815   1.810   2.429   2.543  0.3493 -0.2983 -0.2629
13562SOL    HW145816   1.786   2.345   2.504  0.0974  0.1945 -1.1949
13562SOL    HW245817   1.903   2.439   2.524  0.1623  0.0762 -1.0176
13563SOL     OW45818   5.505  10.773   2.129 -0.2557  0.1117  0.2204
13563SOL    HW145819   5.582  10.830   2.129  0.7572 -1.2224 -1.0713
13563SOL    HW245820   5.525  10.707   2.196  0.6309 -1.3971 -1.4976
13564SOL     OW45821   0.479   8.745   2.162  0.9554  0.1723  0.2792
13564SOL    HW145822   0.529   8.692   2.224  1.7089 -0.6568 -1.0232
13564SOL    HW245823   0.524   8.735   2.079 -0.4939  0.6546 -0.5943
13565SOL     OW45824   9.351   1.283   8.616 -0.0099 -0.2211  0.0834
13565SOL    HW145825   9.268   1.239   8.602 -0.3534  0.5468 -0.3004
13565SOL    HW245826   9.367   1.332   8.535  0.3129  0.4496  0.5461
13566SOL     OW45827   3.861   4.555   9.593  0.2407  0.0325  0.0642
13566SOL    HW145828   3.939   4.501   9.585  0.9896  1.2513 -0.9148
13566SOL    HW245829   3.889   4.634   9.639 -0.2078  0.8389 -1.0007
13567SOL     OW45830   9.553   5.555   3.070  0.1010 -0.0515  0.3174
13567SOL    HW145831   9.542   5.605   3.151 -2.9502 -1.4783  0.8548
13567SOL    HW245832   9.573   5.466   3.099  0.1960 -0.3096 -0.5114
13568SOL     OW45833   3.713   7.122   8.453  0.2300 -0.4406 -0.1463
13568SOL    HW145834   3.742   7.034   8.478  0.0827 -0.3746  0.2734
13568SOL    HW245835   3.794   7.173   8.448  0.1504 -0.0537  1.8369
13569SOL     OW45836   6.229   0.347   4.806  0.1012  0.1009 -0.0616
13569SOL    HW145837   6.188   0.429   4.775 -1.2188 -1.1736 -1.7917
13569SOL    HW245838   6.173   0.319   4.879 -1.6973 -1.2319 -1.9262
13570SOL     OW45839   9.240   6.218   8.327 -0.2763 -0.2863 -0.4686
13570SOL    HW145840   9.309   6.284   8.326 -1.9428  1.5490  1.3747
13570SOL    HW245841   9.166   6.260   8.370 -0.1998 -4.5634  4.3344
13571SOL     OW45842   9.646  10.805  10.623  0.0692 -0.5747 -0.4558
13571SOL    HW145843   9.565  10.754  10.627 -0.6482  0.6098  0.2073
13571SOL    HW245844   9.715  10.740  10.638 -0.8535 -1.3057  0.7224
13572SOL     OW45845   3.767   2.867   1.066 -0.2778  0.1608 -0.8244
13572SOL    HW145846   3.725   2.941   1.109 -0.9175  0.1240 -1.3801
13572SOL    HW245847   3.851   2.857   1.112 -1.3932 -0.5519  1.0800
13573SOL     OW45848   4.005   5.671   6.408  0.0317 -0.4725 -0.1327
13573SOL    HW145849   4.082   5.700   6.360  0.4034  0.4687  1.0247
13573SOL    HW245850   3.985   5.585   6.372  1.8516 -0.8871 -0.1538
13574SOL     OW45851  10.701   7.043   5.249  0.0702  0.0201 -0.5633
13574SOL    HW145852  10.660   6.977   5.305  0.3004 -1.3935 -2.0182
13574SOL    HW245853  10.776   6.998   5.210 -0.9443  0.4851 -3.1491
13575SOL     OW45854   4.519   4.587   0.903 -0.3326 -0.2690  0.0479
13575SOL    HW145855   4.478   4.551   0.824  0.0302 -1.0125  0.1927
13575SOL    HW245856   4.539   4.677   0.881 -2.7338  0.3498  0.2153
13576SOL     OW45857  10.715   9.801  10.020  0.1916 -0.4652 -0.3063
13576SOL    HW145858  10.689   9.881   9.974  0.9263 -0.5163 -0.8244
13576SOL    HW245859  10.633   9.766  10.055 -0.1759  0.3570 -0.3231
13577SOL     OW45860   5.353   6.975   4.277 -0.2189 -0.2312  0.2702
13577SOL    HW145861   5.436   6.967   4.324  0.1605  0.5984 -0.2637
13577SOL    HW245862   5.361   6.914   4.204 -0.5833 -1.0956  0.9430
13578SOL     OW45863   0.752   9.029  10.042  0.4653  0.3224 -0.4901
13578SOL    HW145864   0.789   9.018  10.130 -0.6243 -0.0356 -0.0751
13578SOL    HW245865   0.659   9.042  10.057  0.0835 -0.9725 -1.6657
13579SOL     OW45866   2.146   7.228   8.425 -0.0069  0.0494  0.0317
13579SOL    HW145867   2.179   7.296   8.366  2.9516 -0.4758  0.9963
13579SOL    HW245868   2.206   7.154   8.412 -0.8073 -0.9513  1.8773
13580SOL     OW45869   6.739   9.646   1.880  0.3574 -0.2077 -0.3098
13580SOL    HW145870   6.658   9.596   1.893 -0.6284  1.3559 -0.2995
13580SOL    HW245871   6.736   9.672   1.788  1.1410 -0.6296 -0.4574
13581SOL     OW45872   7.402   2.841   6.708  0.1682  0.0398  0.1962
13581SOL    HW145873   7.409   2.765   6.650 -0.7305  0.9298 -1.1135
13581SOL    HW245874   7.308   2.852   6.722  0.1685  1.9803 -1.1058
13582SOL     OW45875   3.844   4.232  10.144 -0.3591 -0.3418  0.2791
13582SOL    HW145876   3.757   4.262  10.118  0.0097  1.1752  0.7383
13582SOL    HW245877   3.903   4.270  10.079  0.0170 -0.8971  0.2943
13583SOL     OW45878   4.835   1.505   2.687 -0.5185 -0.3446  0.3874
13583SOL    HW145879   4.919   1.509   2.641  0.1085 -0.6619  1.4893
13583SOL    HW245880   4.797   1.421   2.662 -1.0181  0.2478 -0.9473
13584SOL     OW45881   2.414   4.419   1.833 -0.6242  0.4617 -0.5605
13584SOL    HW145882   2.430   4.513   1.838 -1.2246  0.5578 -0.4587
13584SOL    HW245883   2.424   4.398   1.740  0.8528  0.3803 -0.4006
13585SOL     OW45884   3.555   0.522   1.367  0.2165  0.1651 -0.1421
13585SOL    HW145885   3.601   0.597   1.405 -0.2465  1.2370 -1.6577
13585SOL    HW245886   3.595   0.511   1.281  0.2456 -1.3207  0.0459
13586SOL     OW45887   1.267   0.700   2.132  0.2326 -0.0884  0.2034
13586SOL    HW145888   1.274   0.615   2.088 -2.5343  0.4799 -1.4521
13586SOL    HW245889   1.173   0.714   2.144  0.6134  2.7709  0.3678
13587SOL     OW45890   2.731   7.274   0.545  0.3220 -0.5415 -0.3322
13587SOL    HW145891   2.820   7.252   0.517  0.6449  0.8277 -0.4203
13587SOL    HW245892   2.715   7.217   0.620  1.1303 -1.0736 -0.5590
13588SOL     OW45893   8.893   1.669   3.478 -0.9454  0.2585 -0.4054
13588SOL    HW145894   8.805   1.690   3.510 -0.5022  0.7714  0.4819
13588SOL    HW245895   8.901   1.719   3.397 -1.1438  0.9175 -0.0213
13589SOL     OW45896   9.475   4.081   4.800 -0.1237 -0.2687 -0.2228
13589SOL    HW145897   9.528   4.004   4.817  0.3671 -0.0493 -0.7506
13589SOL    HW245898   9.402   4.074   4.862  0.8336 -0.2498  0.9295
13590SOL     OW45899   1.177   6.138  10.919 -0.1482 -0.0851  0.2174
13590SOL    HW145900   1.201   6.059  10.871 -0.8851 -0.4862  0.5044
13590SOL    HW245901   1.256   6.193  10.915  0.5867 -1.0873  0.5604
13591SOL     OW45902   5.813   9.098   4.321  0.5231  0.3255  0.0403
13591SOL    HW145903   5.891   9.092   4.375 -0.4025  2.0397  1.6513
13591SOL    HW245904   5.781   9.007   4.314 -0.0639  0.1815  3.5452
13592SOL     OW45905   4.039   4.125   0.858 -0.4861 -0.5971  0.0622
13592SOL    HW145906   4.110   4.121   0.921  1.5804 -0.5316 -2.2191
13592SOL    HW245907   4.031   4.218   0.836 -1.3917 -0.5852  0.4149
13593SOL     OW45908   8.567   4.776   7.657 -0.3087  0.0490 -0.4102
13593SOL    HW145909   8.537   4.844   7.598 -0.1363 -0.3176 -0.9313
13593SOL    HW245910   8.526   4.696   7.624 -0.7764 -0.0463  0.3939
13594SOL     OW45911   5.289   8.279   3.680 -0.2876 -0.2273  0.0965
13594SOL    HW145912   5.299   8.242   3.592 -1.2139  1.3645 -0.7013
13594SOL    HW245913   5.375   8.268   3.720  0.9140  1.3648 -1.9435
13595SOL     OW45914   4.599  11.084   4.752 -0.0402 -0.3050  0.0722
13595SOL    HW145915   4.667  11.047   4.696 -0.6020 -1.3185  0.0390
13595SOL    HW245916   4.600  11.029   4.831 -2.5564 -2.0040 -0.9914
13596SOL     OW45917   5.872   2.085   3.890 -0.3934 -0.2679 -0.6393
13596SOL    HW145918   5.819   2.118   3.963  0.9352 -0.8682  0.6204
13596SOL    HW245919   5.908   2.163   3.849 -0.4502  0.0430 -0.1077
13597SOL     OW45920   2.527  11.252   4.339 -0.2359 -0.1937  0.0123
13597SOL    HW145921   2.499  11.340   4.365 -2.5348 -1.1525  0.9718
13597SOL    HW245922   2.610  11.239   4.383  0.1612  1.5211 -0.1932
13598SOL     OW45923   7.843   7.908   2.270 -0.0683  0.1420  0.2743
13598SOL    HW145924   7.834   7.991   2.223  0.9455 -0.1310 -0.4216
13598SOL    HW245925   7.930   7.913   2.310 -0.9176  0.3710  2.1483
13599SOL     OW45926  10.446   7.414   8.838 -0.5827 -0.1996  0.6456
13599SOL    HW145927  10.434   7.500   8.799  0.8674  0.2516  1.1508
13599SOL    HW245928  10.410   7.353   8.774 -1.1252  0.7511  0.0413
13600SOL     OW45929   5.483   0.125   1.603 -0.4292  0.1200 -0.2452
13600SOL    HW145930   5.562   0.079   1.627 -1.5302 -1.7645 -0.1598
13600SOL    HW245931   5.412   0.071   1.638 -1.8209  0.6389 -2.1951
13601SOL     OW45932   3.491   6.963   0.334  0.1495  0.2267  0.1467
13601SOL    HW145933   3.580   6.961   0.369 -0.6063  1.5095  2.2049
13601SOL    HW245934   3.503   6.990   0.242  1.9817 -1.1340 -0.0398
13602SOL     OW45935   5.100   7.625   9.924 -0.0164 -0.0414 -0.5133
13602SOL    HW145936   5.061   7.538   9.910 -1.8307  0.6480  0.1805
13602SOL    HW245937   5.127   7.653   9.837 -1.1091 -0.5290 -1.0237
13603SOL     OW45938   8.530   1.182   4.572  0.5122 -0.1918 -0.0152
13603SOL    HW145939   8.525   1.229   4.489 -0.1980 -0.2743 -0.0255
13603SOL    HW245940   8.504   1.093   4.551  2.5059 -0.7688 -0.1143
13604SOL     OW45941   4.589   4.825   9.332  0.2192 -0.1042 -0.1859
13604SOL    HW145942   4.550   4.772   9.402 -0.6190  0.8348  0.0649
13604SOL    HW245943   4.683   4.826   9.353  0.1547 -0.9257  0.1812
13605SOL     OW45944   3.916   1.880   2.566 -0.7340  0.3079  0.1081
13605SOL    HW145945   4.009   1.865   2.585 -1.4190 -1.2458  2.5318
13605SOL    HW245946   3.884   1.930   2.641 -1.6706  1.6574 -1.1626
13606SOL     OW45947   8.409   5.040   1.223 -0.4789  0.4568 -0.4518
13606SOL    HW145948   8.314   5.036   1.215 -0.4404 -0.7131 -0.3652
13606SOL    HW245949   8.442   4.979   1.157  0.1879  0.1147  0.1959
13607SOL     OW45950   3.955   7.322   1.623  0.0928  0.4028  0.1108
13607SOL    HW145951   3.879   7.379   1.632 -1.0054 -1.1097  0.5988
13607SOL    HW245952   3.937   7.270   1.545  0.0858 -0.7654  0.8895
13608SOL     OW45953   2.621   4.311   1.030  0.2423  0.1055  0.1744
13608SOL    HW145954   2.708   4.320   0.990 -0.4642  0.9150 -1.1907
13608SOL    HW245955   2.573   4.255   0.969 -1.1593  2.1520 -0.6381
13609SOL     OW45956   1.351   6.443  10.946 -0.4290 -0.0261  0.4777
13609SOL    HW145957   1.391   6.438  10.859  0.5877  1.2931  0.8526
13609SOL    HW245958   1.425   6.437  11.007 -0.8566  1.6118  1.1884
13610SOL     OW45959   0.389   2.955   7.536 -0.3552 -0.4965  0.0293
13610SOL    HW145960   0.380   2.868   7.497 -0.1510 -0.1905 -0.7167
13610SOL    HW245961   0.457   2.945   7.602 -0.4294 -0.9334  0.0409
13611SOL     OW45962   8.871   0.057  10.285  0.2156  0.0992  0.1517
13611SOL    HW145963   8.895  -0.023  10.238 -1.4590 -1.0687  1.1953
13611SOL    HW245964   8.785   0.080  10.250  0.1103  0.6835  0.7960
13612SOL     OW45965   8.939   0.321  10.962  0.1028 -0.3829  0.2683
13612SOL    HW145966   8.906   0.337  11.051 -0.2583 -0.3491  0.1253
13612SOL    HW245967   8.960   0.408  10.928  0.0888 -0.3829  0.2598
13613SOL     OW45968   2.320  11.210   6.971  0.6398  0.7338 -0.4953
13613SOL    HW145969   2.372  11.258   6.906  0.0714 -0.1230 -1.6020
13613SOL    HW245970   2.245  11.176   6.921 -0.2915  0.8581  0.8114
13614SOL     OW45971   0.194   8.192   1.968  0.1411  0.3685  0.2517
13614SOL    HW145972   0.215   8.139   2.045  0.1220 -1.9106 -1.2823
13614SOL    HW245973   0.256   8.265   1.972  1.0302 -0.4373  1.6914
13615SOL     OW45974   1.371   8.834   4.371  0.0372 -0.5189  0.4581
13615SOL    HW145975   1.444   8.862   4.316 -1.7516  0.9649 -1.2069
13615SOL    HW245976   1.370   8.738   4.363  2.6206 -0.6853  1.6044
13616SOL     OW45977   8.428  10.905   1.566 -0.2075 -0.0022 -0.1691
13616SOL    HW145978   8.349  10.864   1.532 -0.0095  0.2281 -0.9152
13616SOL    HW245979   8.449  10.974   1.503  0.0885  0.5223  0.4940
13617SOL     OW45980   4.956   3.156   5.243 -0.5787 -0.3887  0.0373
13617SOL    HW145981   4.989   3.184   5.157 -0.8592 -0.5598 -0.1282
13617SOL    HW245982   5.006   3.077   5.264  1.1719  0.9642  1.1246
13618SOL     OW45983   4.150   0.093  10.358 -0.5511 -0.1315 -0.1099
13618SOL    HW145984   4.087   0.118  10.426 -0.9371 -0.6236 -0.2831
13618SOL    HW245985   4.103   0.108  10.276 -0.5814 -0.8738 -0.2290
13619SOL     OW45986  10.287   8.035   4.215  0.6569  0.0984  0.5856
13619SOL    HW145987  10.321   7.950   4.243  1.1236  0.1858  0.2873
13619SOL    HW245988  10.341   8.059   4.140  1.2996  1.1964  1.3820
13620SOL     OW45989   5.205   3.215   6.479 -0.6057  0.5782 -0.5696
13620SOL    HW145990   5.206   3.289   6.418 -1.8731  1.0568 -0.0277
13620SOL    HW245991   5.141   3.155   6.442 -0.3413  0.2312 -0.4609
13621SOL     OW45992   1.712   5.447   7.034  0.8165 -0.5186  0.5828
13621SOL    HW145993   1.739   5.403   7.115  0.1255  0.5982  1.4285
13621SOL    HW245994   1.770   5.522   7.026  1.0477 -0.7665 -0.0994
13622SOL     OW45995   3.355   3.469   4.046  0.2766  0.3561  0.3453
13622SOL    HW145996   3.408   3.451   3.968 -0.2071 -1.1000  0.3325
13622SOL    HW245997   3.295   3.539   4.019 -0.1832 -0.4369 -0.7478
13623SOL     OW45998   6.577   4.922   5.381 -0.0853  0.1589  1.0087
13623SOL    HW145999   6.593   4.880   5.466 -2.3392 -2.2055  0.3209
13623SOL    HW246000   6.627   4.869   5.319  1.3824  1.7591  0.7802
13624SOL     OW46001   8.712   8.051   5.068 -0.1764  0.0934  0.2724
13624SOL    HW146002   8.639   8.089   5.019 -0.0903  0.3578  0.3475
13624SOL    HW246003   8.704   8.088   5.156  1.3366  1.8770 -0.2962
13625SOL     OW46004  11.302   5.906  10.746 -0.8652  0.1042  0.4548
13625SOL    HW146005  11.288   5.904  10.841 -0.7834 -1.7517  0.4513
13625SOL    HW246006  11.245   5.838  10.712  0.1076 -0.1559 -0.6913
13626SOL     OW46007   5.731  10.931   2.073  0.0138  0.1940 -0.3895
13626SOL    HW146008   5.781  10.875   2.013 -0.2549  0.8369 -1.2242
13626SOL    HW246009   5.797  10.976   2.125  0.2489 -0.3272 -0.2320
13627SOL     OW46010   7.076   3.529   3.400  0.2781 -0.0316 -0.2500
13627SOL    HW146011   7.114   3.445   3.372  0.4983 -0.4619  1.2991
13627SOL    HW246012   7.051   3.515   3.491 -4.0764  0.1163 -1.3550
13628SOL     OW46013   2.746   0.762   8.275  0.8556  0.4608  0.3373
13628SOL    HW146014   2.838   0.767   8.249  0.8640 -0.5094  0.1757
13628SOL    HW246015   2.700   0.812   8.207  0.8978 -1.9261 -1.5036
13629SOL     OW46016   9.361   3.670   2.743  0.3919 -0.6240 -0.1321
13629SOL    HW146017   9.434   3.629   2.697  0.0747 -0.5938 -0.6593
13629SOL    HW246018   9.336   3.744   2.688 -0.1799 -0.7646 -0.0645
13630SOL     OW46019   2.957   0.188   0.276 -0.2118 -0.3050 -0.1342
13630SOL    HW146020   2.927   0.241   0.350 -1.5033 -0.2787 -0.6716
13630SOL    HW246021   2.984   0.252   0.211  0.1310 -0.3254 -0.0143
13631SOL     OW46022   9.818   8.610   6.672 -0.3703 -0.1361  0.2568
13631SOL    HW146023   9.835   8.516   6.678  0.6268  0.0118 -0.2758
13631SOL    HW246024   9.904   8.650   6.668 -0.7361  0.9625  2.5854
13632SOL     OW46025   6.162  10.679   6.541 -0.2212 -0.4749 -1.0523
13632SOL    HW146026   6.069  10.663   6.561  0.1116 -0.6919  0.4071
13632SOL    HW246027   6.166  10.681   6.446 -1.8585  0.2739 -1.1327
13633SOL     OW46028   7.043   4.698   5.656 -0.5088  0.1942 -0.3099
13633SOL    HW146029   7.101   4.758   5.704  1.3786 -0.8826 -1.2148
13633SOL    HW246030   7.097   4.621   5.638 -2.2405 -0.8564 -1.1514
13634SOL     OW46031   6.871   3.268   7.981  0.1142 -0.3340 -0.2802
13634SOL    HW146032   6.883   3.361   7.961  1.8868 -0.1329  1.5388
13634SOL    HW246033   6.829   3.268   8.067 -0.3945 -1.2189 -0.5302
13635SOL     OW46034   6.607  11.002   7.005  0.2391 -0.2265  0.0593
13635SOL    HW146035   6.601  11.063   7.078 -0.8951 -1.1701  0.7813
13635SOL    HW246036   6.585  11.055   6.928 -2.2736 -0.0249  0.8575
13636SOL     OW46037  10.837   2.925   1.898 -0.2669 -0.1696  0.1193
13636SOL    HW146038  10.743   2.940   1.913 -0.4714 -1.0788 -0.1944
13636SOL    HW246039  10.850   2.834   1.923  0.3824 -0.2680 -0.5646
13637SOL     OW46040   5.681   1.416   6.788  0.6262 -0.4784 -0.1498
13637SOL    HW146041   5.743   1.343   6.786 -1.6072 -2.4420  0.7222
13637SOL    HW246042   5.664   1.430   6.881  0.6896  0.8851 -0.3330
13638SOL     OW46043   2.107   6.998   4.075 -0.3502  0.1592  0.0441
13638SOL    HW146044   2.171   6.979   4.007 -0.3188  1.1039 -0.1948
13638SOL    HW246045   2.138   7.079   4.116  1.0395 -1.7302  2.9115
13639SOL     OW46046   1.674  10.004   2.182 -0.3508 -0.2359 -0.0667
13639SOL    HW146047   1.620  10.064   2.233  1.2678  0.3476  1.0066
13639SOL    HW246048   1.696  10.052   2.102 -0.9439 -0.2663 -0.2495
13640SOL     OW46049   3.610  10.447   4.700  0.2077 -0.2904  0.5147
13640SOL    HW146050   3.644  10.362   4.672 -0.0940 -0.2478  0.0057
13640SOL    HW246051   3.602  10.440   4.795  1.2227 -0.4486  0.5911
13641SOL     OW46052   6.934   5.493   1.892 -0.5007  0.2653 -0.3905
13641SOL    HW146053   6.956   5.566   1.834  0.1354 -0.3781 -0.9779
13641SOL    HW246054   6.943   5.416   1.837  0.2775 -0.3753  0.6039
13642SOL     OW46055   8.285   2.918   5.125 -0.4339 -0.1780 -0.2468
13642SOL    HW146056   8.310   2.941   5.035  2.3512  2.8392  1.1718
13642SOL    HW246057   8.203   2.965   5.140 -1.7534 -1.9371 -1.6388
13643SOL     OW46058   8.731   5.354   0.380  0.7068  0.6650  0.1833
13643SOL    HW146059   8.769   5.266   0.380  1.7711  1.1061  2.4519
13643SOL    HW246060   8.775   5.400   0.308  2.7519  0.4406  1.2737
13644SOL     OW46061   0.113   8.759   3.876 -0.0075  0.4973 -0.3674
13644SOL    HW146062   0.195   8.709   3.872 -1.9195 -3.0290  2.2534
13644SOL    HW246063   0.083   8.762   3.785  2.5925  1.1486 -1.2534
13645SOL     OW46064   2.022   0.457   6.223  0.6588 -0.7390 -0.4685
13645SOL    HW146065   1.992   0.370   6.196 -0.1944 -0.7231  0.4173
13645SOL    HW246066   2.087   0.440   6.290  0.5987 -0.6987 -0.4000
13646SOL     OW46067   0.081   5.127   7.886 -0.0044 -0.1986 -0.3417
13646SOL    HW146068   0.028   5.050   7.862 -2.6128  0.7607  2.0977
13646SOL    HW246069   0.031   5.201   7.851  0.5916  0.6278  0.5653
13647SOL     OW46070   9.388   0.018   1.515 -0.4766 -0.5728  0.2573
13647SOL    HW146071   9.412  -0.051   1.453 -0.5894 -0.7289  0.3856
13647SOL    HW246072   9.320   0.067   1.469 -1.0603 -1.1141  0.5297
13648SOL     OW46073   5.310   6.015   0.097  0.0176  0.0432  0.0539
13648SOL    HW146074   5.240   5.952   0.115 -0.4851  0.0384 -1.7956
13648SOL    HW246075   5.293   6.088   0.156 -1.5161  0.0110 -0.3248
13649SOL     OW46076   2.272   1.981   5.381  0.5807  0.4176  0.4340
13649SOL    HW146077   2.276   1.923   5.305  0.3007  0.8755  0.0728
13649SOL    HW246078   2.226   1.929   5.447  1.9662 -0.4733  0.7372
13650SOL     OW46079   9.264   2.939   3.090  0.6374  0.3591 -0.3231
13650SOL    HW146080   9.281   2.861   3.038  0.8622  0.5101 -0.4767
13650SOL    HW246081   9.217   2.907   3.167  1.2871 -0.0036 -0.0795
13651SOL     OW46082  10.041   6.665   3.982  0.2377  0.0918  0.0938
13651SOL    HW146083   9.998   6.666   3.897  1.4796 -0.4515 -0.5461
13651SOL    HW246084  10.024   6.577   4.016 -1.5336  0.7862  1.0876
13652SOL     OW46085   3.748   5.858   4.664 -0.0453 -1.0441 -0.5763
13652SOL    HW146086   3.840   5.849   4.687 -0.6719  0.3472  2.8445
13652SOL    HW246087   3.735   5.952   4.651 -0.9896 -1.2352 -1.0806
13653SOL     OW46088   1.599   9.358   9.776 -0.3066  0.6781 -0.1348
13653SOL    HW146089   1.665   9.399   9.831 -0.2743  0.6190 -0.1281
13653SOL    HW246090   1.639   9.275   9.748 -0.5243  0.4687  0.1729
13654SOL     OW46091   9.005   5.687   6.997 -0.0493  0.7575 -0.0347
13654SOL    HW146092   9.058   5.660   7.071  0.5350  0.4730 -0.5503
13654SOL    HW246093   8.920   5.708   7.034 -0.2209 -0.8408  0.5210
13655SOL     OW46094   2.863   9.712   9.498 -0.1435  0.4809  0.3707
13655SOL    HW146095   2.864   9.743   9.589 -4.1973 -0.0011  0.6710
13655SOL    HW246096   2.893   9.787   9.447 -2.6181  2.5335  1.7622
13656SOL     OW46097   7.540   4.694   9.532  0.4539  0.1516 -0.3008
13656SOL    HW146098   7.599   4.766   9.555  0.7259 -0.7593  1.9885
13656SOL    HW246099   7.472   4.696   9.600 -0.7202 -0.4392 -1.4327
13657SOL     OW46100   4.059   5.241   3.235  0.2445  0.2564  0.6686
13657SOL    HW146101   4.068   5.212   3.144  0.0888  0.3899  0.6108
13657SOL    HW246102   3.971   5.214   3.260  0.7217 -0.8529  1.1630
13658SOL     OW46103   9.927   7.555  10.377 -0.3137 -0.1101 -0.2104
13658SOL    HW146104   9.892   7.632  10.333  0.2262  0.5276  0.4590
13658SOL    HW246105  10.010   7.537  10.333 -0.5648 -0.4648 -0.5387
13659SOL     OW46106   3.880   6.191   8.181  0.3513 -0.0741  0.2664
13659SOL    HW146107   3.791   6.194   8.217  0.8277 -2.0040  1.6779
13659SOL    HW246108   3.869   6.201   8.087 -1.4410 -1.0706  0.3590
13660SOL     OW46109   2.538   9.140   1.425 -0.7368  0.1319 -0.4925
13660SOL    HW146110   2.616   9.085   1.417 -1.9449 -1.8042  0.6620
13660SOL    HW246111   2.570   9.222   1.461  0.7290 -0.7745  0.3137
13661SOL     OW46112   7.425   2.446   9.982  0.6481  0.1587  0.4880
13661SOL    HW146113   7.344   2.496   9.990  0.7992  0.3047  1.0794
13661SOL    HW246114   7.422   2.382  10.053  0.1004 -1.1874 -0.7177
13662SOL     OW46115   7.375   6.516   1.083  0.0348 -0.0290 -0.6236
13662SOL    HW146116   7.405   6.448   1.022  0.6433 -1.0407  0.7803
13662SOL    HW246117   7.423   6.499   1.164 -4.5801 -2.0273  1.8767
13663SOL     OW46118   0.060   5.684   3.967  0.1799  0.1247  0.0236
13663SOL    HW146119   0.140   5.716   3.925  0.9508 -0.2606  1.1572
13663SOL    HW246120  -0.008   5.745   3.939  0.5129 -0.5262 -2.3287
13664SOL     OW46121   6.019   2.675   6.473 -0.7567 -0.7892 -0.0117
13664SOL    HW146122   6.106   2.637   6.460 -1.0283 -1.1763 -0.7826
13664SOL    HW246123   6.007   2.676   6.567 -0.0941 -1.1439  0.0842
13665SOL     OW46124  10.314   5.474   3.735  0.3452 -0.0174 -0.0969
13665SOL    HW146125  10.351   5.395   3.695  3.3486  0.2922  1.9418
13665SOL    HW246126  10.271   5.442   3.814 -2.2827 -0.1345 -1.5302
13666SOL     OW46127   3.274   7.924   7.335  0.4124  0.2534  0.2394
13666SOL    HW146128   3.289   7.960   7.422 -0.2853  1.3477 -0.0914
13666SOL    HW246129   3.188   7.958   7.309  1.1806  0.9845 -1.4059
13667SOL     OW46130   2.421   8.077   2.217 -0.0526 -0.0778 -0.0502
13667SOL    HW146131   2.364   8.142   2.257  0.2574  0.5786 -0.6681
13667SOL    HW246132   2.442   8.017   2.288 -0.5059  0.3751  0.4735
13668SOL     OW46133  10.106  11.109   2.237 -0.2036 -0.3450  0.2288
13668SOL    HW146134  10.070  11.103   2.149 -2.1683  0.0051  0.9857
13668SOL    HW246135  10.083  11.197   2.267  2.0195  0.1895  0.4348
13669SOL     OW46136   3.532   1.689  10.035 -0.3514 -0.5212  0.6839
13669SOL    HW146137   3.569   1.743  10.105 -2.3333 -0.7130  1.9276
13669SOL    HW246138   3.454   1.650  10.074 -0.4065 -2.1987 -1.0428
13670SOL     OW46139   2.918   9.177   8.794  0.5812  0.3511 -0.5429
13670SOL    HW146140   2.855   9.106   8.806  0.6865 -0.0432 -2.2761
13670SOL    HW246141   2.876   9.253   8.836 -1.4280  0.2822 -2.3657
13671SOL     OW46142  10.347  10.914   5.457  1.0946 -0.2082 -0.3494
13671SOL    HW146143  10.316  11.000   5.485 -1.4408 -1.1998  0.0017
13671SOL    HW246144  10.325  10.911   5.364 -1.7080 -1.6627  0.3225
13672SOL     OW46145   0.248  10.278  10.137  0.4814  0.0459  0.1680
13672SOL    HW146146   0.314  10.250  10.200 -0.5683 -1.1444  0.7490
13672SOL    HW246147   0.264  10.224  10.060  0.6420  0.2589  0.0524
13673SOL     OW46148   5.861   5.429   2.393  0.0706 -0.3240  0.2273
13673SOL    HW146149   5.941   5.474   2.367  0.1255 -0.9104 -0.6275
13673SOL    HW246150   5.793   5.496   2.388  0.0904 -0.4111 -1.4030
13674SOL     OW46151   8.573   1.249   4.299  0.1577 -0.0341 -0.1155
13674SOL    HW146152   8.537   1.335   4.278  2.1432  1.0371  0.8171
13674SOL    HW246153   8.650   1.241   4.243  0.5904 -0.7771  0.5897
13675SOL     OW46154   0.030   0.295   9.391  0.4665 -0.1243  0.5114
13675SOL    HW146155   0.015   0.201   9.396 -0.6085 -0.1354 -2.4056
13675SOL    HW246156  -0.056   0.333   9.373  1.2141  1.2514 -0.2393
13676SOL     OW46157   2.199   3.179   1.615  0.0705 -0.0637 -0.4844
13676SOL    HW146158   2.259   3.241   1.574 -0.5552  0.8102 -0.0885
13676SOL    HW246159   2.156   3.135   1.541  0.7920 -0.2985 -0.7636
13677SOL     OW46160   8.666   0.651   4.150  0.0432  0.1555 -0.6491
13677SOL    HW146161   8.720   0.606   4.085  0.2182 -1.6981  0.7175
13677SOL    HW246162   8.576   0.635   4.123  0.0976 -1.4028  0.0524
13678SOL     OW46163   6.643   9.904   9.299 -0.2370 -0.4805  0.1290
13678SOL    HW146164   6.667   9.811   9.295  0.2298 -0.5233  3.1432
13678SOL    HW246165   6.707   9.943   9.358 -0.2962  1.8434 -1.2666
13679SOL     OW46166   3.327   2.852   4.393  0.6137 -0.2587 -0.1878
13679SOL    HW146167   3.340   2.927   4.336  2.4304 -0.1628  0.3261
13679SOL    HW246168   3.304   2.781   4.334 -1.8961  0.8621 -0.6040
13680SOL     OW46169   8.652   9.099   1.493  0.4863  0.2609 -0.2750
13680SOL    HW146170   8.637   9.166   1.426 -0.5937 -0.2804 -0.5772
13680SOL    HW246171   8.580   9.111   1.555 -0.3384 -1.3163 -0.8975
13681SOL     OW46172   2.129   4.957   8.299 -0.1903 -0.6772  0.1073
13681SOL    HW146173   2.087   5.008   8.369 -1.7800 -1.8656  0.0425
13681SOL    HW246174   2.063   4.952   8.230  1.5190  0.8440 -1.6892
13682SOL     OW46175   7.627   1.238   8.212  0.3459  0.2024 -0.0630
13682SOL    HW146176   7.664   1.194   8.136 -0.5573 -0.5673 -0.0614
13682SOL    HW246177   7.555   1.290   8.177 -0.5133 -0.6949  0.3539
13683SOL     OW46178  10.174   3.337   1.092  0.6725  0.1539 -0.4226
13683SOL    HW146179  10.086   3.347   1.056 -0.0616 -1.8999  0.7515
13683SOL    HW246180  10.226   3.403   1.046 -1.7738  2.4013 -0.0823
13684SOL     OW46181   8.481   7.535   5.097  0.3114  0.0126 -0.0428
13684SOL    HW146182   8.545   7.606   5.097  1.0485 -0.6311 -0.9807
13684SOL    HW246183   8.527   7.462   5.055  0.1345 -1.5404  2.3700
13685SOL     OW46184   4.322   2.476   8.348 -0.3764 -0.6777  0.4242
13685SOL    HW146185   4.258   2.452   8.415 -1.3194 -2.2154 -0.9837
13685SOL    HW246186   4.289   2.558   8.311 -1.2251 -1.1447  0.1337
13686SOL     OW46187   0.634   1.497   6.819  0.2168 -0.4210  0.2396
13686SOL    HW146188   0.682   1.564   6.768 -0.3018  2.1112  2.9120
13686SOL    HW246189   0.703   1.439   6.851  1.1922  1.3185  1.3823
13687SOL     OW46190   0.719   8.528   5.573 -0.4040 -0.0652  1.1792
13687SOL    HW146191   0.778   8.457   5.547 -1.3308 -0.5110  0.2584
13687SOL    HW246192   0.726   8.593   5.502 -2.5974 -1.0809 -0.0298
13688SOL     OW46193   0.118  11.281   6.362  0.1126 -0.1469 -0.5935
13688SOL    HW146194   0.057  11.207   6.366  0.0205  0.0449  2.3305
13688SOL    HW246195   0.063  11.356   6.339  0.0452 -0.7807 -2.5872
13689SOL     OW46196   6.889   8.096   0.250  0.1547  0.3007 -0.3822
13689SOL    HW146197   6.822   8.152   0.291 -0.6564 -0.8131 -0.1741
13689SOL    HW246198   6.869   8.099   0.157  0.7617  1.1892 -0.4998
13690SOL     OW46199   1.841  11.101   6.002 -0.1445 -0.2483  0.3681
13690SOL    HW146200   1.861  11.181   5.952 -1.7178 -0.1747 -0.1625
13690SOL    HW246201   1.782  11.131   6.071 -0.1849 -0.8364  0.5846
13691SOL     OW46202   7.538   3.373   6.696  0.1247 -0.0779 -0.1806
13691SOL    HW146203   7.521   3.311   6.625 -0.6751  0.9405 -0.8931
13691SOL    HW246204   7.558   3.318   6.771 -1.7509 -1.2380 -0.4957
13692SOL     OW46205   5.153   5.443   6.286 -0.3379 -0.4952 -0.9906
13692SOL    HW146206   5.221   5.480   6.343 -0.1204 -1.8924 -0.3312
13692SOL    HW246207   5.179   5.352   6.273 -2.0235 -1.0212 -0.8158
13693SOL     OW46208   0.656   4.641   8.163 -0.2306 -0.1174  0.0132
13693SOL    HW146209   0.604   4.579   8.214 -1.2400  0.4962 -0.2508
13693SOL    HW246210   0.699   4.696   8.228 -1.4970  0.6517  0.2139
13694SOL     OW46211   6.424   0.817   2.052  0.3070 -0.2837  0.5836
13694SOL    HW146212   6.435   0.770   2.135  0.5375 -0.1929  0.6050
13694SOL    HW246213   6.513   0.825   2.017  0.2830  0.2188  0.6318
13695SOL     OW46214   9.598   9.354   3.680  0.3822 -0.1658 -0.1531
13695SOL    HW146215   9.504   9.339   3.670  0.3581  0.2403 -0.5719
13695SOL    HW246216   9.639   9.289   3.623  0.3851 -0.8628  0.6235
13696SOL     OW46217   2.729   0.433   5.659  0.5721 -0.4972  0.0586
13696SOL    HW146218   2.824   0.422   5.655  0.4086 -1.3991 -1.8061
13696SOL    HW246219   2.700   0.427   5.568 -1.3638 -1.1064  0.6895
13697SOL     OW46220   3.212   5.943   9.918 -0.0330 -0.6287 -0.1007
13697SOL    HW146221   3.204   5.849   9.906 -2.2139 -0.6433  1.2987
13697SOL    HW246222   3.189   5.981   9.833 -1.1536 -1.2730 -0.0830
13698SOL     OW46223   7.763   0.570  10.217  0.5354  0.6623 -0.7903
13698SOL    HW146224   7.671   0.587  10.198  0.1261 -0.1825  0.3633
13698SOL    HW246225   7.764   0.479  10.249  1.4705  1.2877  1.0487
13699SOL     OW46226   7.442   4.403   5.417 -0.0107  0.1452  0.0632
13699SOL    HW146227   7.534   4.379   5.415 -0.1966 -0.6217  0.5170
13699SOL    HW246228   7.419   4.418   5.325  0.4298 -0.1634 -0.0981
13700SOL     OW46229   5.081   9.140   7.346  0.2816  0.4655  0.4947
13700SOL    HW146230   5.053   9.121   7.436 -1.9044 -1.6564 -0.5822
13700SOL    HW246231   5.137   9.066   7.322  2.4135  1.9507  0.7017
13701SOL     OW46232   3.702   0.287   1.692  0.6411 -0.0690  1.0135
13701SOL    HW146233   3.610   0.311   1.698  0.6068 -0.0200  0.2712
13701SOL    HW246234   3.722   0.247   1.777 -0.0555 -0.0717  1.1755
13702SOL     OW46235   3.344   4.327   1.208  0.2491 -0.2346  0.2890
13702SOL    HW146236   3.366   4.372   1.126  1.4259 -0.4073  0.4939
13702SOL    HW246237   3.374   4.237   1.194 -0.1393 -0.4199  0.6652
13703SOL     OW46238   0.417   6.555   9.830  0.2174  0.4290 -0.1206
13703SOL    HW146239   0.384   6.641   9.803  1.6011  1.0742  0.1810
13703SOL    HW246240   0.511   6.568   9.841  0.2110 -0.7151  1.5159
13704SOL     OW46241   8.199   1.242   6.723  0.1050  0.2040  0.1226
13704SOL    HW146242   8.246   1.166   6.756 -0.3403 -0.0446  0.1986
13704SOL    HW246243   8.237   1.258   6.637 -1.2393 -1.4269 -0.8195
13705SOL     OW46244   9.864   5.154  10.931 -0.1575 -0.0124 -0.1569
13705SOL    HW146245   9.905   5.081  10.886 -0.3555  0.0017 -0.3633
13705SOL    HW246246   9.934   5.193  10.984  0.0985  0.0197 -0.5171
13706SOL     OW46247   2.718   2.223   7.737  0.0140 -0.4447 -0.2094
13706SOL    HW146248   2.716   2.127   7.732  2.1779 -0.4978 -0.3237
13706SOL    HW246249   2.748   2.251   7.650  0.6864  0.2836  0.2533
13707SOL     OW46250   7.177  10.935   3.356  0.1063 -0.0977 -0.5721
13707SOL    HW146251   7.097  10.984   3.377  0.1762  0.0767 -0.7090
13707SOL    HW246252   7.168  10.853   3.403  0.0121  0.0699 -0.2951
13708SOL     OW46253   3.141   7.165   7.231  0.6763 -0.2703  0.1523
13708SOL    HW146254   3.129   7.214   7.149  0.1357  0.4148  0.6352
13708SOL    HW246255   3.228   7.189   7.261  1.0916 -0.9368 -0.4920
13709SOL     OW46256   2.918  10.737   7.541  0.0147 -0.0604  0.0547
13709SOL    HW146257   2.954  10.803   7.599  0.4341 -0.5861  0.4009
13709SOL    HW246258   2.929  10.654   7.588  0.8738 -0.5628 -0.9846
13710SOL     OW46259   8.512   2.254   6.047  0.4665 -0.2878 -0.4576
13710SOL    HW146260   8.535   2.236   6.138  0.3884 -0.4455 -0.4680
13710SOL    HW246261   8.589   2.296   6.010  0.5771 -0.4186 -0.3757
13711SOL     OW46262  11.109   7.205   3.881  0.2130  0.0926 -0.1168
13711SOL    HW146263  11.049   7.279   3.884 -0.3157 -0.3778  1.3018
13711SOL    HW246264  11.082   7.154   3.804  0.7750  1.5087 -1.2796
13712SOL     OW46265   1.863   7.703   8.062  0.2751  0.5532 -0.5645
13712SOL    HW146266   1.932   7.767   8.046 -0.2186  0.9850 -0.9818
13712SOL    HW246267   1.869   7.642   7.988 -0.4123  1.1438 -1.1152
13713SOL     OW46268   2.307   0.092   7.812 -0.6461 -0.1476  0.0459
13713SOL    HW146269   2.365   0.016   7.822 -0.1953  0.1620 -0.1789
13713SOL    HW246270   2.363   0.167   7.831 -0.8387  0.1922 -0.6955
13714SOL     OW46271   7.541   9.380  10.666  0.3070  0.3813  0.3636
13714SOL    HW146272   7.627   9.347  10.693  0.7703  1.3430  0.0755
13714SOL    HW246273   7.479   9.326  10.715  1.0775 -0.1239  0.8065
13715SOL     OW46274   7.688   0.875  10.641 -0.1409  0.5862  0.2638
13715SOL    HW146275   7.768   0.846  10.686 -0.1060  0.1758 -0.0650
13715SOL    HW246276   7.617   0.851  10.701 -0.1508 -0.5893 -0.2004
13716SOL     OW46277   5.143   0.715   0.969  0.3158  0.3155 -0.2827
13716SOL    HW146278   5.069   0.755   0.922 -0.0541 -0.6402 -0.5149
13716SOL    HW246279   5.105   0.638   1.011  0.6120  1.2290  1.6917
13717SOL     OW46280   2.094   4.715   7.319  0.2769  0.3832  0.1761
13717SOL    HW146281   2.072   4.646   7.381  1.6191  1.5453  1.9944
13717SOL    HW246282   2.177   4.687   7.281 -0.3978 -0.1807 -0.9413
13718SOL     OW46283   6.561   5.308   3.125 -0.0774 -0.4726  0.0469
13718SOL    HW146284   6.476   5.341   3.098  0.9235 -0.7326 -3.6463
13718SOL    HW246285   6.553   5.213   3.119  0.1674 -0.5342  0.6823
13719SOL     OW46286   4.595  10.282   2.229 -0.0260  0.0584 -0.1602
13719SOL    HW146287   4.686  10.274   2.257 -0.1036  2.2274  0.8399
13719SOL    HW246288   4.547  10.223   2.287  0.0696  3.0572  3.1575
13720SOL     OW46289   9.734   9.936   7.683  0.6832 -0.2774 -0.0620
13720SOL    HW146290   9.774   9.947   7.597  0.9216 -0.5864  0.0082
13720SOL    HW246291   9.717  10.025   7.714  0.5456 -0.1657 -0.4512
13721SOL     OW46292   7.199   3.529   4.959 -0.1536 -0.2427 -0.2809
13721SOL    HW146293   7.175   3.533   4.866  1.3794  0.2894 -0.6730
13721SOL    HW246294   7.155   3.450   4.992  1.1075 -1.7217 -2.0261
13722SOL     OW46295   0.346   6.640  10.946 -0.0659 -0.1348  0.7187
13722SOL    HW146296   0.429   6.629  10.901 -1.4729 -0.4820 -1.8916
13722SOL    HW246297   0.346   6.731  10.975  1.3164 -0.2038  0.9466
13723SOL     OW46298   6.232   8.076   3.034 -0.1688  0.4253 -0.3148
13723SOL    HW146299   6.147   8.067   3.078  0.2782  0.6449  0.5998
13723SOL    HW246300   6.214   8.134   2.960 -0.7064  0.8871  0.1701
13724SOL     OW46301   7.704   0.050   8.005  0.2247  0.5617  0.0975
13724SOL    HW146302   7.786   0.098   7.999  1.2915 -0.9446  2.1661
13724SOL    HW246303   7.723  -0.035   7.966 -0.2755  0.1145  0.8222
13725SOL     OW46304   1.620   6.267  10.588  0.3534  0.5569 -0.5695
13725SOL    HW146305   1.680   6.332  10.623  0.1702  0.4904 -0.1298
13725SOL    HW246306   1.573   6.314  10.518  0.5648  0.7522 -0.5834
13726SOL     OW46307   8.354   9.913   0.691 -0.2147  0.6048 -0.3295
13726SOL    HW146308   8.369   9.851   0.762  1.5520  1.2356 -0.1259
13726SOL    HW246309   8.314   9.989   0.732 -1.2433  0.0912 -0.3774
13727SOL     OW46310  10.230   0.263   4.127 -0.0791  0.7614 -0.2653
13727SOL    HW146311  10.262   0.222   4.046  0.9839 -1.3138  1.1626
13727SOL    HW246312  10.309   0.298   4.169 -0.3665  0.2506  0.7185
13728SOL     OW46313   7.381   6.499   7.691 -0.3410 -0.2897 -0.0330
13728SOL    HW146314   7.377   6.565   7.621  2.2421 -1.3818 -1.2953
13728SOL    HW246315   7.473   6.470   7.691 -0.5463 -1.1460  3.0671
13729SOL     OW46316   2.849   0.573   2.411 -0.2211 -0.1252  0.0402
13729SOL    HW146317   2.909   0.553   2.482 -2.5883 -0.2122  2.1022
13729SOL    HW246318   2.762   0.554   2.447 -1.5393  0.4940 -2.6463
13730SOL     OW46319  10.457   2.059   5.153  0.9048 -0.0503  0.3173
13730SOL    HW146320  10.457   2.059   5.249  0.7851  0.2447  0.3189
13730SOL    HW246321  10.404   2.135   5.130 -0.9039 -1.3654  0.0307
13731SOL     OW46322   6.420   6.719   3.537  0.1430  0.0970  0.7961
13731SOL    HW146323   6.485   6.786   3.515 -1.8610  2.0471  0.6227
13731SOL    HW246324   6.428   6.655   3.467  1.1230  0.8866  0.1634
13732SOL     OW46325   7.634   8.804   9.667 -0.4427  0.0573  0.4781
13732SOL    HW146326   7.700   8.868   9.644  1.1686 -1.4301  0.8467
13732SOL    HW246327   7.659   8.773   9.754 -0.9334 -1.3663  0.1270
13733SOL     OW46328  10.413   0.507   5.444  0.6450 -0.3691  0.0145
13733SOL    HW146329  10.450   0.501   5.356 -0.4482  0.4961 -0.5263
13733SOL    HW246330  10.335   0.451   5.441  0.1789  0.2528  0.1820
13734SOL     OW46331   9.222   1.912   1.375 -0.1014 -0.3543  0.4553
13734SOL    HW146332   9.239   1.828   1.332 -0.2714 -0.1830  0.0533
13734SOL    HW246333   9.127   1.924   1.368  0.1821  0.9763 -1.5527
13735SOL     OW46334  11.020  10.933   2.925  0.3053 -0.1162 -0.2802
13735SOL    HW146335  10.947  10.942   2.865  0.1759 -2.1319 -0.4884
13735SOL    HW246336  11.098  10.932   2.868  0.4586  1.5836 -0.0985
13736SOL     OW46337   9.354   7.103   3.023 -0.5161 -0.1001 -0.1224
13736SOL    HW146338   9.388   7.019   3.054  2.6713  0.1222 -2.6755
13736SOL    HW246339   9.363   7.161   3.098 -0.3613 -1.4151  0.9100
13737SOL     OW46340   0.327   7.428   6.482 -0.4962  0.2213  0.6555
13737SOL    HW146341   0.417   7.424   6.514 -0.2517  1.5733  0.1913
13737SOL    HW246342   0.329   7.494   6.413 -2.2532  1.7296  1.9867
13738SOL     OW46343   0.778   8.686  10.342 -0.1157  0.2372  0.3685
13738SOL    HW146344   0.766   8.651  10.430  0.5962  0.5471  0.5946
13738SOL    HW246345   0.867   8.661  10.318 -0.0035  0.8829  0.0759
13739SOL     OW46346   9.563   0.008   6.636 -0.8981  0.7509  0.7282
13739SOL    HW146347   9.536   0.084   6.584 -1.3161  0.3235  0.3124
13739SOL    HW246348   9.588   0.045   6.721 -2.5140  1.1990  1.0307
13740SOL     OW46349   9.052   8.268   3.419  0.2539 -0.0904 -0.2089
13740SOL    HW146350   9.131   8.232   3.380  0.2686  0.6994 -0.9128
13740SOL    HW246351   9.011   8.319   3.350  0.7846  2.1072  1.0604
13741SOL     OW46352   2.135   1.358  11.235  0.2007  0.0630 -0.2537
13741SOL    HW146353   2.102   1.433  11.186  1.0235  0.8277  0.3524
13741SOL    HW246354   2.132   1.285  11.172  0.9978  0.9726 -1.3695
13742SOL     OW46355   7.714   2.655   6.254 -0.0769 -0.4920  0.1235
13742SOL    HW146356   7.731   2.563   6.232 -0.8035 -0.5240 -0.2947
13742SOL    HW246357   7.786   2.703   6.213  0.9042 -0.9698  1.2423
13743SOL     OW46358   0.964   5.442  10.061  0.1240  0.9645  0.0433
13743SOL    HW146359   0.928   5.505  10.124 -1.8104 -1.2516  1.2444
13743SOL    HW246360   0.961   5.488   9.977 -1.4524  2.4027  0.8545
13744SOL     OW46361   2.152   5.612   1.069 -0.0641 -0.2227 -0.0622
13744SOL    HW146362   2.199   5.557   1.130  1.2750 -0.4896 -1.3207
13744SOL    HW246363   2.186   5.700   1.085  0.0958 -0.2518 -0.2395
13745SOL     OW46364  10.377  10.453   8.509 -0.0510 -0.0462 -0.0929
13745SOL    HW146365  10.386  10.383   8.574  0.2093 -0.7257 -0.8542
13745SOL    HW246366  10.343  10.528   8.558 -1.7410 -1.1521  0.4615
13746SOL     OW46367   8.195   5.464   5.002 -0.1501 -0.2387 -0.1746
13746SOL    HW146368   8.107   5.450   5.037  0.0204 -0.2174  0.2659
13746SOL    HW246369   8.183   5.468   4.907 -0.3554 -2.2228 -0.2487
13747SOL     OW46370   3.239   1.657  10.810  0.1033  0.2756  0.2419
13747SOL    HW146371   3.182   1.696  10.877 -0.7567 -0.2424 -0.1717
13747SOL    HW246372   3.251   1.567  10.838 -0.2105  0.0735 -0.2719
13748SOL     OW46373   3.794   5.558   9.684 -0.2014  0.0987  0.8260
13748SOL    HW146374   3.760   5.562   9.773  1.3868  2.4483  1.3888
13748SOL    HW246375   3.885   5.528   9.695  0.4107  1.6314  0.1747
13749SOL     OW46376   3.024   6.216   3.268 -0.0279  0.3152 -0.2925
13749SOL    HW146377   2.956   6.235   3.332  1.0914 -0.0009  1.0045
13749SOL    HW246378   3.028   6.120   3.265  1.2746  0.3313  0.6302
13750SOL     OW46379   4.882   1.437   8.086  0.0309  0.2706 -1.3472
13750SOL    HW146380   4.848   1.525   8.101  0.8360  0.5240 -0.9746
13750SOL    HW246381   4.904   1.405   8.174 -0.1057 -0.2366 -1.4977
13751SOL     OW46382  10.810  11.198   7.748 -0.3482  0.2591  0.0910
13751SOL    HW146383  10.899  11.231   7.756  0.5221 -1.9794 -0.1205
13751SOL    HW246384  10.807  11.122   7.806 -1.3216 -1.2457 -1.8499
13752SOL     OW46385   9.007   0.949   2.451  0.4124  0.0154  0.0152
13752SOL    HW146386   8.999   0.939   2.356 -1.1056 -1.4165  0.2741
13752SOL    HW246387   8.991   1.042   2.467 -0.0787  0.1145 -1.0506
13753SOL     OW46388   8.950   9.821   8.723  0.0124  0.0775 -0.7676
13753SOL    HW146389   8.887   9.827   8.795  1.3374  0.2051  0.4173
13753SOL    HW246390   8.918   9.883   8.658 -1.1447  0.0576 -0.2376
13754SOL     OW46391   5.802   6.424   2.736 -0.3357  0.0939  0.3311
13754SOL    HW146392   5.753   6.359   2.787 -0.2858 -0.6594 -0.5631
13754SOL    HW246393   5.735   6.485   2.704 -0.7622 -1.1149 -1.1524
13755SOL     OW46394   1.231   5.256   0.099  0.3397  0.2810  0.2640
13755SOL    HW146395   1.197   5.232   0.013 -0.3908 -3.5105  1.4997
13755SOL    HW246396   1.325   5.242   0.093  0.3111  0.2021  0.0181
13756SOL     OW46397   3.425   6.051   6.150  0.1693  0.2193  0.0253
13756SOL    HW146398   3.405   5.982   6.087  0.1442  0.2373  0.0138
13756SOL    HW246399   3.511   6.028   6.185 -0.0594 -0.0874  0.3882
13757SOL     OW46400   9.345   0.920   4.790  0.0995 -0.5548 -0.4279
13757SOL    HW146401   9.345   0.842   4.845  0.5587 -1.4558 -1.6803
13757SOL    HW246402   9.350   0.993   4.852  2.2222 -1.5844  0.6810
13758SOL     OW46403   9.649   4.540   8.661 -0.2430  0.1804  0.0035
13758SOL    HW146404   9.684   4.517   8.747  0.1357  0.5762 -0.0446
13758SOL    HW246405   9.554   4.540   8.673 -0.2613 -1.6566 -0.0531
13759SOL     OW46406   6.058   8.794  10.667  0.1042 -0.5297 -0.1162
13759SOL    HW146407   6.115   8.733  10.621 -0.0504 -0.5393 -0.2966
13759SOL    HW246408   5.991   8.818  10.603  2.0053  2.3798 -1.1069
13760SOL     OW46409   3.596   5.064   4.533  0.4242 -0.4926  0.2110
13760SOL    HW146410   3.526   5.077   4.598  0.3963 -1.4420  0.3841
13760SOL    HW246411   3.673   5.042   4.585  0.4794 -0.9418 -0.0540
13761SOL     OW46412   5.496   7.567   3.407 -0.3042  0.0315  0.0434
13761SOL    HW146413   5.576   7.529   3.373  0.7891  2.0625  0.2649
13761SOL    HW246414   5.430   7.549   3.339  0.9977  0.8137 -1.4532
13762SOL     OW46415   0.430   4.814  10.098  0.1038  0.5407  0.7116
13762SOL    HW146416   0.381   4.856  10.168 -0.0420 -0.3958  1.1830
13762SOL    HW246417   0.371   4.748  10.062 -0.4016  2.1061 -1.3906
13763SOL     OW46418   9.884   5.186   8.491 -0.2877  0.0183  0.1665
13763SOL    HW146419   9.869   5.260   8.431 -0.6446 -0.1139  0.0871
13763SOL    HW246420   9.978   5.171   8.487 -0.4180 -0.5557 -1.0483
13764SOL     OW46421   7.003   1.370   0.092 -0.4743 -0.3291  0.2207
13764SOL    HW146422   6.989   1.344   0.183 -2.1370 -0.3170 -0.0085
13764SOL    HW246423   7.023   1.288   0.046  2.6398 -0.0302  0.9876
13765SOL     OW46424   3.094  11.091   8.088 -0.3104 -0.2953  0.2518
13765SOL    HW146425   3.121  11.025   8.023 -0.4330 -0.9550  0.8597
13765SOL    HW246426   2.999  11.083   8.092 -0.4124  0.5772 -0.3582
13766SOL     OW46427   1.407   9.548   9.755 -0.1012 -0.4443  0.5510
13766SOL    HW146428   1.468   9.474   9.752 -0.1555 -0.4526 -0.3608
13766SOL    HW246429   1.462   9.625   9.765  0.0737 -0.4239 -0.5952
13767SOL     OW46430   3.740   7.621   1.399  0.3320  0.1934 -0.0336
13767SOL    HW146431   3.768   7.689   1.461 -0.7037 -0.1098  0.7843
13767SOL    HW246432   3.759   7.658   1.313 -3.4330  3.0865  0.2255
13768SOL     OW46433   2.809   2.928   5.171  0.5951  0.4303  0.4201
13768SOL    HW146434   2.839   2.908   5.082  0.6831 -1.4493  0.8575
13768SOL    HW246435   2.808   2.843   5.216  0.0561  1.2873  2.0657
13769SOL     OW46436   6.316   3.878  10.541 -0.0965 -0.2912 -0.4775
13769SOL    HW146437   6.233   3.855  10.500 -0.5092  1.9744 -0.9634
13769SOL    HW246438   6.376   3.808  10.514 -1.3093 -0.8414 -1.8401
13770SOL     OW46439   7.437   3.739   0.241  0.1543 -0.2112  0.7850
13770SOL    HW146440   7.369   3.764   0.178 -1.0771 -0.9863  1.7863
13770SOL    HW246441   7.483   3.821   0.259  1.0409 -0.0976 -1.6897
13771SOL     OW46442   8.952   4.897   9.681 -0.0228 -0.4514  0.6422
13771SOL    HW146443   8.987   4.809   9.689 -0.6196 -1.1741 -3.5918
13771SOL    HW246444   8.860   4.885   9.658  0.3931  1.1721 -2.1240
13772SOL     OW46445   0.701   2.878   2.141  0.7964  0.0299  0.2537
13772SOL    HW146446   0.619   2.924   2.158 -1.0434 -3.8501  2.5795
13772SOL    HW246447   0.682   2.822   2.066  1.6683 -0.1171  0.1332
13773SOL     OW46448   8.116   2.617   9.286 -0.0463 -0.0881 -0.6805
13773SOL    HW146449   8.178   2.648   9.351 -1.1835  0.1112  0.3181
13773SOL    HW246450   8.101   2.692   9.229  0.1497  0.0488 -0.5513
13774SOL     OW46451   1.386   0.949  11.017 -0.1864  0.2811  0.7891
13774SOL    HW146452   1.444   0.878  11.046  3.9664  2.5621 -1.6009
13774SOL    HW246453   1.364   0.995  11.098 -0.8133 -2.0949  2.0424
13775SOL     OW46454   9.531   7.441   6.948 -0.0842  0.1933  0.0028
13775SOL    HW146455   9.612   7.472   6.987  1.3571 -2.3736 -0.7841
13775SOL    HW246456   9.549   7.349   6.925 -2.7859 -0.0704 -1.3235
13776SOL     OW46457  10.897  10.786   4.970 -0.7914 -0.6097 -0.4208
13776SOL    HW146458  10.891  10.706   4.918 -1.8296  0.1004 -1.3987
13776SOL    HW246459  10.815  10.789   5.019 -1.0666  0.2206 -0.9210
13777SOL     OW46460   5.733   9.719   2.265  0.3950  0.2638 -0.0012
13777SOL    HW146461   5.671   9.673   2.210  0.9673 -0.6014  0.0632
13777SOL    HW246462   5.810   9.732   2.209  0.6797  0.0807  0.3406
13778SOL     OW46463   2.109  10.063  10.857 -0.9777 -0.5539  0.9797
13778SOL    HW146464   2.200  10.081  10.878 -0.2024 -0.5063 -2.1718
13778SOL    HW246465   2.094   9.974  10.890  0.8429 -1.3478 -0.2645
13779SOL     OW46466   4.606   2.989   4.948  0.1438  0.9396 -0.3694
13779SOL    HW146467   4.557   2.940   5.014  1.7309 -0.9192 -0.5311
13779SOL    HW246468   4.551   2.984   4.870  0.0407 -0.1324 -0.2380
13780SOL     OW46469   1.320   3.704   6.486 -0.0040  0.1139 -0.0231
13780SOL    HW146470   1.312   3.674   6.576  0.6834 -1.0918 -0.3647
13780SOL    HW246471   1.331   3.799   6.493  1.9270 -0.1997  1.2400
13781SOL     OW46472   9.596   4.953   3.233  0.2602 -0.0600  0.2363
13781SOL    HW146473   9.625   4.896   3.304 -0.4868  0.6237  1.1006
13781SOL    HW246474   9.501   4.949   3.236  0.2156  0.5013 -0.2929
13782SOL     OW46475  10.456   5.859   5.936 -0.0538 -0.6766 -0.3145
13782SOL    HW146476  10.437   5.842   5.844 -0.4157 -1.3252 -0.1263
13782SOL    HW246477  10.402   5.935   5.958  0.6332 -0.0353 -0.8425
13783SOL     OW46478   4.732   0.973  10.868 -0.5545 -0.1595  0.4899
13783SOL    HW146479   4.706   1.006  10.782 -0.2646 -1.6984 -0.2061
13783SOL    HW246480   4.775   1.048  10.911 -0.6906  0.6100 -0.7027
13784SOL     OW46481  10.101   8.947   4.755 -0.5587 -0.4368 -0.3279
13784SOL    HW146482  10.110   8.861   4.796  1.0407 -0.7367 -1.2439
13784SOL    HW246483  10.187   8.988   4.768 -1.8026  1.6750  1.5102
13785SOL     OW46484   4.671  10.262   4.419 -0.3449 -0.4317 -0.1956
13785SOL    HW146485   4.654  10.228   4.331 -0.4786 -0.5783 -0.1127
13785SOL    HW246486   4.585  10.263   4.462 -0.1685 -1.0682  0.1841
13786SOL     OW46487   4.006   2.843  10.307 -0.0774 -0.3013 -0.4141
13786SOL    HW146488   4.045   2.771  10.259  1.7267  0.2224  0.2516
13786SOL    HW246489   4.024   2.824  10.399 -2.0779 -0.4493 -0.0119
13787SOL     OW46490   0.131   5.450  10.764 -0.3418  0.4697  0.0677
13787SOL    HW146491   0.219   5.414  10.781 -0.4851 -0.1659 -0.5378
13787SOL    HW246492   0.072   5.388  10.807 -0.6749 -0.8094 -2.1996
13788SOL     OW46493  10.246   0.619   1.096 -0.1809 -0.0503  0.0511
13788SOL    HW146494  10.189   0.642   1.169  0.7107  1.8735  0.1629
13788SOL    HW246495  10.334   0.643   1.125  0.0490  1.8365 -2.0603
13789SOL     OW46496   0.537   6.201   6.176  0.7729  0.7366  0.0796
13789SOL    HW146497   0.481   6.187   6.100  2.3471 -2.4625 -0.6140
13789SOL    HW246498   0.482   6.176   6.251  0.6236 -0.4588 -0.4162
13790SOL     OW46499   0.666   6.403   8.279  0.3921  0.1762  0.0403
13790SOL    HW146500   0.746   6.350   8.286  0.1418 -0.2361 -0.2539
13790SOL    HW246501   0.698   6.493   8.269  0.8181  0.0322  0.0929
13791SOL     OW46502   1.088   4.216   5.160 -0.2218  0.0005 -0.3171
13791SOL    HW146503   1.051   4.296   5.124 -0.1296  0.0374 -0.3287
13791SOL    HW246504   1.153   4.188   5.096  0.9181  0.8056  0.4706
13792SOL     OW46505   8.571   5.745   7.937  0.0996  0.1419  0.0752
13792SOL    HW146506   8.487   5.738   7.892  0.5710  1.1700 -1.0108
13792SOL    HW246507   8.569   5.831   7.979  0.7659  0.3694 -0.3394
13793SOL     OW46508   9.618   5.043   7.457  0.2818  0.3873  0.3135
13793SOL    HW146509   9.598   4.967   7.403 -0.0873  2.2512 -2.2847
13793SOL    HW246510   9.536   5.062   7.502 -0.2818  0.5546 -0.7492
13794SOL     OW46511   8.849   5.191   1.684  0.2048  0.2064  1.1630
13794SOL    HW146512   8.810   5.238   1.610 -1.1929 -1.2813  0.9114
13794SOL    HW246513   8.775   5.148   1.726  1.5046 -2.3820  0.9112
13795SOL     OW46514   7.752   2.569   0.343 -0.1771 -0.7511 -0.0358
13795SOL    HW146515   7.821   2.633   0.358 -2.2002  1.5034  0.0647
13795SOL    HW246516   7.784   2.515   0.270 -0.4543  3.5994 -3.6127
13796SOL     OW46517   2.059   3.544   7.981 -0.1047  0.4918 -0.2536
13796SOL    HW146518   2.117   3.510   7.912  0.8466 -1.6170  1.5435
13796SOL    HW246519   1.971   3.528   7.948  0.3277  0.1030 -1.2537
13797SOL     OW46520   6.371   7.059   1.204 -0.1571 -0.0306  0.1962
13797SOL    HW146521   6.279   7.065   1.178  0.5427  1.7835 -1.9784
13797SOL    HW246522   6.387   7.139   1.254  1.2469  1.7657 -2.9468
13798SOL     OW46523   8.620   6.024   0.366  0.0662 -0.1468 -0.1701
13798SOL    HW146524   8.688   6.088   0.347  0.4704 -0.4226  0.3400
13798SOL    HW246525   8.540   6.076   0.377  0.5081  0.3421  0.8543
13799SOL     OW46526   5.238   4.545  10.361 -0.0910 -0.2498 -0.5299
13799SOL    HW146527   5.160   4.491  10.379 -0.4650  0.0793 -1.1762
13799SOL    HW246528   5.297   4.524  10.433 -1.6657  1.2040  1.2450
13800SOL     OW46529   4.171   6.326   5.192  0.0723 -0.0114  0.0973
13800SOL    HW146530   4.137   6.237   5.188  0.4855 -0.1974  0.6052
13800SOL    HW246531   4.194   6.347   5.102  0.3474 -0.5647  0.0359
13801SOL     OW46532   6.510   0.945   2.402 -0.7157  0.2688 -0.8700
13801SOL    HW146533   6.486   0.904   2.485 -0.5911 -0.2000 -1.0603
13801SOL    HW246534   6.460   1.027   2.400  1.5125  1.7544  1.0225
13802SOL     OW46535   9.809  11.073   5.884 -0.0398  0.1070 -0.1919
13802SOL    HW146536   9.832  11.119   5.964 -0.7658  0.8617 -0.4038
13802SOL    HW246537   9.722  11.036   5.902  0.2905 -0.7046 -0.2257
13803SOL     OW46538   5.833   0.860   0.418  0.1216 -0.1757  0.0038
13803SOL    HW146539   5.786   0.845   0.500  2.3763 -0.3419  1.3273
13803SOL    HW246540   5.850   0.772   0.383 -0.7275 -0.1089 -0.5993
13804SOL     OW46541  11.073   7.538  10.545  0.1142 -0.4899 -0.2206
13804SOL    HW146542  11.034   7.452  10.531 -1.2194  0.2474 -1.2081
13804SOL    HW246543  11.064   7.554  10.639 -1.1737 -0.7290 -0.2890
13805SOL     OW46544   9.973   5.778  10.783 -0.0202  0.9626  0.0375
13805SOL    HW146545   9.939   5.868  10.782 -1.5546  0.4224  1.9782
13805SOL    HW246546  10.020   5.771  10.866  0.3686  0.0575 -0.2531
13806SOL     OW46547   2.431   0.980   5.022  0.0808 -0.2320 -0.0511
13806SOL    HW146548   2.435   0.936   5.107  1.3807  0.0025  0.0152
13806SOL    HW246549   2.340   0.969   4.994 -0.7606  1.0541  2.0933
13807SOL     OW46550   7.752   7.517   2.689  0.0108  0.6560 -0.1326
13807SOL    HW146551   7.672   7.563   2.664  0.0283  0.0270 -1.3631
13807SOL    HW246552   7.734   7.483   2.776 -1.0247  0.6142 -0.3557
13808SOL     OW46553   3.997   0.886   2.925 -0.1440  0.3842  0.1567
13808SOL    HW146554   4.023   0.816   2.865 -1.3687 -0.4569  0.5887
13808SOL    HW246555   3.989   0.843   3.010 -1.5405  0.9017  0.3026
13809SOL     OW46556   0.878  10.583   3.511  0.4703  0.5037 -0.1686
13809SOL    HW146557   0.972  10.580   3.498  0.3939  0.1786 -0.6828
13809SOL    HW246558   0.866  10.596   3.605  1.0228  0.3857 -0.0851
13810SOL     OW46559  10.250   1.641   5.164  0.2607 -0.3880  0.1044
13810SOL    HW146560  10.212   1.724   5.135  0.7391 -0.6483 -1.3115
13810SOL    HW246561  10.336   1.665   5.198 -0.6311  0.0330  2.1547
13811SOL     OW46562   7.096   8.902  10.648  0.1954  0.1592 -0.2364
13811SOL    HW146563   7.184   8.870  10.667 -0.1173 -1.1479 -0.9401
13811SOL    HW246564   7.043   8.823  10.637 -1.7015  0.8796  2.9276
13812SOL     OW46565   3.153   8.637  10.719 -0.5543  0.4811 -0.2195
13812SOL    HW146566   3.101   8.580  10.776 -1.3561  0.5904 -0.8393
13812SOL    HW246567   3.234   8.589  10.705 -0.9308 -0.1852 -0.1325
13813SOL     OW46568   4.054   0.056   1.630 -0.3314 -0.1417 -0.3463
13813SOL    HW146569   4.100   0.031   1.710  0.9832  1.9320 -0.4464
13813SOL    HW246570   4.025   0.145   1.645 -1.1558 -0.1620 -1.7145
13814SOL     OW46571   4.990   8.618   9.850 -0.0782 -0.6546 -0.0693
13814SOL    HW146572   4.919   8.630   9.786 -1.7311  0.0087  1.8540
13814SOL    HW246573   5.046   8.552   9.810  0.7417  2.0660 -3.7539
13815SOL     OW46574   0.328   1.467   5.050  0.0121 -0.3722 -0.0786
13815SOL    HW146575   0.299   1.484   4.961 -0.2395  0.7749  0.2216
13815SOL    HW246576   0.389   1.538   5.069  2.4125 -2.2790 -0.4108
13816SOL     OW46577  11.318   7.656   0.887  0.2722 -0.1032  0.1060
13816SOL    HW146578  11.349   7.692   0.804  0.8930 -0.0599  0.3512
13816SOL    HW246579  11.288   7.568   0.866  1.2387 -0.4184 -0.0135
13817SOL     OW46580   4.780   0.072   4.523  0.2480  0.5270  0.5189
13817SOL    HW146581   4.767   0.010   4.595  0.7941 -0.6872 -0.4148
13817SOL    HW246582   4.692   0.101   4.500 -0.1212 -0.7524  0.2441
13818SOL     OW46583   3.248   1.941   1.129 -0.0593  0.4267 -0.0678
13818SOL    HW146584   3.194   2.019   1.117  1.6168  1.3323 -1.9742
13818SOL    HW246585   3.232   1.914   1.219 -2.0331  1.9215  0.0500
13819SOL     OW46586   0.956   1.477   9.877 -0.1904 -0.4577  0.2313
13819SOL    HW146587   1.014   1.532   9.930  0.4584 -0.4818 -0.4548
13819SOL    HW246588   0.942   1.526   9.797 -0.4830 -0.8067  0.0653
13820SOL     OW46589   9.824   4.131   5.669 -0.0368 -0.0310 -0.5784
13820SOL    HW146590   9.883   4.103   5.740 -0.9051  0.8722  0.5277
13820SOL    HW246591   9.849   4.221   5.651 -0.7420  0.1966 -0.4449
13821SOL     OW46592   6.937   5.246   0.111  0.7908 -0.1188 -0.1175
13821SOL    HW146593   6.916   5.231   0.019  0.8074  0.7721 -0.2746
13821SOL    HW246594   7.027   5.278   0.110  0.9044 -0.4193  0.2406
13822SOL     OW46595   0.179   7.845   1.269 -0.1826 -0.1439 -0.0649
13822SOL    HW146596   0.158   7.814   1.357 -1.0195 -0.1280 -0.2574
13822SOL    HW246597   0.105   7.817   1.215 -0.3920  1.1544 -0.4686
13823SOL     OW46598   1.149   3.176   1.553 -0.2487  0.2588  0.0395
13823SOL    HW146599   1.112   3.252   1.597  1.3335  1.0027  0.1352
13823SOL    HW246600   1.166   3.206   1.464 -0.2013 -0.1623 -0.0927
13824SOL     OW46601   0.456   8.773   9.412 -0.0443 -0.1866 -0.1067
13824SOL    HW146602   0.517   8.748   9.342  0.6391  0.4484  0.2573
13824SOL    HW246603   0.447   8.693   9.465  1.9529  0.2384  0.9220
13825SOL     OW46604   1.135   6.454  10.050 -0.5761 -0.4511  0.3354
13825SOL    HW146605   1.079   6.525  10.081 -0.8759 -0.7527  0.4850
13825SOL    HW246606   1.108   6.440   9.959 -0.8934 -0.7518  0.4791
13826SOL     OW46607   6.923  10.558   0.461 -0.0485 -0.1690  0.2963
13826SOL    HW146608   6.972  10.640   0.456  1.9897 -1.3896 -0.6863
13826SOL    HW246609   6.928  10.532   0.553  1.4668 -0.4335  0.1505
13827SOL     OW46610   3.762   3.577   7.600  0.0835  0.0841 -0.2836
13827SOL    HW146611   3.676   3.567   7.558  0.3045  0.1959 -0.7683
13827SOL    HW246612   3.766   3.504   7.663  0.3706 -1.0031 -1.5355
13828SOL     OW46613   7.202   3.005   6.009 -0.2386 -0.1716  0.0098
13828SOL    HW146614   7.115   3.023   5.973  0.6930  0.6085 -1.8948
13828SOL    HW246615   7.186   2.984   6.101 -2.3901  0.4417 -0.2059
13829SOL     OW46616   1.052   4.228   5.651  0.3736  0.4823 -0.0471
13829SOL    HW146617   1.113   4.202   5.583  1.0478  2.9840 -0.4514
13829SOL    HW246618   1.107   4.263   5.721 -0.5006  1.4776  0.1624
13830SOL     OW46619   6.492   8.439  11.033 -0.2187  0.2290 -0.2091
13830SOL    HW146620   6.396   8.434  11.027 -0.2069 -0.7415  0.2419
13830SOL    HW246621   6.512   8.404  11.120  0.4767  1.5575  0.1657
13831SOL     OW46622  11.219   6.404   7.732  0.2181  0.2516  0.1162
13831SOL    HW146623  11.188   6.383   7.820  1.2502 -4.3686 -0.4833
13831SOL    HW246624  11.144   6.384   7.676  0.7743 -0.4402 -0.3788
13832SOL     OW46625   6.183  10.408   2.273 -0.2522  0.2040  0.4956
13832SOL    HW146626   6.198  10.339   2.337  1.1143 -0.6738 -0.7257
13832SOL    HW246627   6.147  10.481   2.323  3.6075  0.6589  2.8039
13833SOL     OW46628   6.526   1.364   0.792 -0.6913 -0.2362  0.0676
13833SOL    HW146629   6.490   1.275   0.802  0.9398 -0.8888  0.3143
13833SOL    HW246630   6.577   1.360   0.711  0.7384 -0.0097  0.9321
13834SOL     OW46631   4.611   6.568   4.355  0.1782  0.0425  0.3991
13834SOL    HW146632   4.613   6.647   4.300 -1.8195  0.6673  1.1799
13834SOL    HW246633   4.686   6.576   4.413 -1.1462  2.3778  1.8253
13835SOL     OW46634   7.913   6.844   1.103  0.0090  0.3852 -0.0778
13835SOL    HW146635   7.963   6.838   1.021  0.5757  0.0037  0.2953
13835SOL    HW246636   7.977   6.825   1.171 -0.5219  0.4637  0.4415
13836SOL     OW46637   6.712   1.977   9.595  0.1257 -0.1171 -0.1645
13836SOL    HW146638   6.701   1.991   9.689  0.9194  0.1173 -0.1061
13836SOL    HW246639   6.653   2.040   9.553 -0.3125 -0.2993  0.1701
13837SOL     OW46640   3.301   1.914   3.182  0.4028 -0.0439 -0.1264
13837SOL    HW146641   3.219   1.934   3.137 -0.1619 -1.8776  0.0163
13837SOL    HW246642   3.362   1.893   3.112  0.5581  0.6675 -0.2033
13838SOL     OW46643   0.295  10.297   6.424 -0.1763  0.1924  0.1523
13838SOL    HW146644   0.213  10.296   6.474 -0.4829  2.4581 -0.2219
13838SOL    HW246645   0.357  10.342   6.481  1.1591 -2.5506  0.9051
13839SOL     OW46646   6.876  10.284   9.710 -0.6822 -0.2240  0.2492
13839SOL    HW146647   6.948  10.223   9.724 -0.4918  0.1405  0.8956
13839SOL    HW246648   6.892  10.354   9.773 -1.1737  0.2435 -0.1440
13840SOL     OW46649  10.605   6.024   7.100 -0.5751 -1.0723  0.3460
13840SOL    HW146650  10.603   6.046   7.193 -2.2420  1.3198 -0.2247
13840SOL    HW246651  10.698   6.024   7.077 -0.3503  2.1686  1.1378
13841SOL     OW46652   2.595   4.141   0.188 -0.1399  0.2652  0.1130
13841SOL    HW146653   2.538   4.217   0.179 -0.1926  0.2073 -0.0429
13841SOL    HW246654   2.534   4.067   0.196 -0.1266  0.4309  2.0628
13842SOL     OW46655   7.731   2.308   6.122  0.0867 -0.3180  0.8634
13842SOL    HW146656   7.793   2.268   6.182  0.4635 -0.5026  0.3628
13842SOL    HW246657   7.785   2.363   6.065 -0.2536 -0.1829  0.6662
13843SOL     OW46658   0.896   5.989   7.285  0.0020  0.3366 -0.0516
13843SOL    HW146659   0.896   6.084   7.291  0.1788  0.4047 -1.0198
13843SOL    HW246660   0.837   5.970   7.212 -0.3129 -0.3055  0.3735
13844SOL     OW46661   9.427   6.236   9.292  0.1114  0.3479 -0.0664
13844SOL    HW146662   9.408   6.263   9.202 -1.4137  1.1643  0.4759
13844SOL    HW246663   9.424   6.318   9.342  1.3890 -0.0472  0.6557
13845SOL     OW46664   9.690   8.857   9.947 -0.3952  0.5002  0.1393
13845SOL    HW146665   9.785   8.857   9.940 -0.3364  1.0838  0.9063
13845SOL    HW246666   9.660   8.896   9.864  0.0759  1.3892  0.3809
13846SOL     OW46667   4.465   4.551   9.139 -0.0113 -0.0693  0.1232
13846SOL    HW146668   4.378   4.592   9.146 -0.9146 -1.8767 -0.3065
13846SOL    HW246669   4.473   4.497   9.218  0.2045 -0.8897 -0.4587
13847SOL     OW46670   6.564   7.603   0.583  0.0044  0.1142 -0.3712
13847SOL    HW146671   6.560   7.534   0.650 -1.2399  0.2663 -0.2794
13847SOL    HW246672   6.497   7.579   0.520  0.7281  0.3328 -1.2369
13848SOL     OW46673  10.563   8.953   7.459 -0.4163 -0.1938  0.1277
13848SOL    HW146674  10.502   8.940   7.386  1.6931 -1.1615 -1.5100
13848SOL    HW246675  10.650   8.937   7.422  0.7627 -0.1854  2.7375
13849SOL     OW46676  10.752   2.776   2.701  0.1033 -0.0387 -0.2030
13849SOL    HW146677  10.820   2.792   2.637 -0.7619 -0.8092 -1.3391
13849SOL    HW246678  10.769   2.687   2.733  1.0995  0.6851  1.3703
13850SOL     OW46679   5.000   3.150   9.592 -0.2643  0.4453  0.2905
13850SOL    HW146680   4.970   3.233   9.629  2.8293  1.9233 -0.3743
13850SOL    HW246681   4.960   3.147   9.504 -0.1946  1.3264  0.2296
13851SOL     OW46682   5.431   0.741   4.322  0.6195  0.5069  0.0279
13851SOL    HW146683   5.352   0.781   4.286  1.4723  1.1369 -1.1729
13851SOL    HW246684   5.459   0.800   4.392 -0.3767 -0.1081  0.9656
13852SOL     OW46685   8.701   3.964   4.758  0.1107 -0.5876  0.1792
13852SOL    HW146686   8.737   4.051   4.750 -0.0539 -0.7492 -2.6476
13852SOL    HW246687   8.608   3.978   4.776  0.3029 -0.1968  0.8776
13853SOL     OW46688   1.699   0.460   1.127  0.1860  0.3169  0.2877
13853SOL    HW146689   1.670   0.370   1.142 -1.2355  0.7509  0.2284
13853SOL    HW246690   1.775   0.471   1.184  0.3988 -0.9303  0.2659
13854SOL     OW46691   6.399   4.912  10.440  0.0902 -0.2059  0.2755
13854SOL    HW146692   6.415   4.997  10.400  0.0625 -1.2062 -1.9685
13854SOL    HW246693   6.425   4.923  10.531  1.1195  1.8876 -0.2315
13855SOL     OW46694   8.399   8.426   1.327  0.5427 -0.0508  0.2481
13855SOL    HW146695   8.394   8.332   1.308 -0.1578 -0.2169  1.2095
13855SOL    HW246696   8.396   8.467   1.241 -1.2522 -0.8456 -0.1038
13856SOL     OW46697   9.230   5.977   3.304  0.2557 -0.0842  0.2978
13856SOL    HW146698   9.322   5.975   3.332  0.1953  1.4310  0.6275
13856SOL    HW246699   9.227   6.044   3.236  0.0823 -2.6086 -2.2761
13857SOL     OW46700   4.023   8.827   1.254 -0.1666 -0.3372  0.4342
13857SOL    HW146701   4.037   8.803   1.346  0.0871  0.3031  0.5668
13857SOL    HW246702   4.090   8.778   1.206  0.5003  0.2729  0.7287
13858SOL     OW46703   5.672   0.611   4.481  0.3743  0.4345 -0.1798
13858SOL    HW146704   5.672   0.517   4.464  0.1339  0.4353 -0.1970
13858SOL    HW246705   5.599   0.624   4.542  0.3181  0.6265 -0.2855
13859SOL     OW46706   6.228   7.588   1.925 -0.5960 -0.4964  0.2986
13859SOL    HW146707   6.195   7.617   1.840  0.8012  0.9364  0.2242
13859SOL    HW246708   6.238   7.493   1.916 -0.5537 -0.3689 -1.1050
13860SOL     OW46709   8.176   6.124   9.924 -0.0459 -0.3541  0.2396
13860SOL    HW146710   8.198   6.181   9.998  0.9069  0.1918 -0.4587
13860SOL    HW246711   8.082   6.108   9.933 -0.3256  1.3523  0.4195
13861SOL     OW46712   8.876   4.125   1.651 -0.1487  0.1947 -0.0372
13861SOL    HW146713   8.867   4.220   1.643 -0.2836  0.2702  1.0102
13861SOL    HW246714   8.789   4.091   1.630 -0.5087  0.3998  1.0769
13862SOL     OW46715   8.051   0.211   0.609  0.4056  0.4104 -0.0011
13862SOL    HW146716   8.083   0.121   0.604  2.2580  1.0436 -0.0223
13862SOL    HW246717   7.968   0.210   0.562  0.5507 -1.2206 -0.2598
13863SOL     OW46718   4.710   3.259  10.299  0.1437 -0.2161  0.2641
13863SOL    HW146719   4.685   3.224  10.213 -0.4739  1.9435 -0.4564
13863SOL    HW246720   4.800   3.289  10.287 -0.6061  1.9356 -0.2431
13864SOL     OW46721   5.644  10.444   7.235 -0.0795  0.1708  0.3186
13864SOL    HW146722   5.633  10.398   7.151 -2.1244  0.5639  0.3436
13864SOL    HW246723   5.587  10.521   7.227  0.9644  1.0832  1.4594
13865SOL     OW46724   7.801  10.223   0.884  0.3749 -0.3522 -0.0728
13865SOL    HW146725   7.891  10.213   0.915  0.1589 -1.7141  0.1397
13865SOL    HW246726   7.748  10.226   0.964  0.1946  0.0914 -0.2071
13866SOL     OW46727   1.703   6.637   9.881 -0.7138  0.0246 -0.2907
13866SOL    HW146728   1.758   6.561   9.900 -0.6212  0.3425  0.7314
13866SOL    HW246729   1.706   6.646   9.786 -0.1348 -0.8067 -0.3533
13867SOL     OW46730   4.519  10.555  11.163  0.3587 -0.4287  0.1069
13867SOL    HW146731   4.554  10.615  11.230  2.1414 -0.6885 -0.5822
13867SOL    HW246732   4.478  10.485  11.214 -0.5324  0.6426  0.9227
13868SOL     OW46733   2.421   5.066   6.146  0.2070  0.0588  0.5615
13868SOL    HW146734   2.338   5.103   6.179 -0.8515 -0.6441 -1.2280
13868SOL    HW246735   2.465   5.141   6.106 -1.3913 -0.3029 -1.9939
13869SOL     OW46736   5.674   8.586   1.900 -0.0290 -0.0428  0.3640
13869SOL    HW146737   5.607   8.544   1.846 -1.5817  1.0557  1.3924
13869SOL    HW246738   5.662   8.548   1.987  0.6394  0.2103  0.5680
13870SOL     OW46739   9.142   8.080   7.733 -0.1006 -0.4634 -0.2475
13870SOL    HW146740   9.142   8.156   7.792  0.9904 -1.0464  0.5157
13870SOL    HW246741   9.051   8.053   7.728 -0.1728 -0.5627  1.3848
13871SOL     OW46742   0.871   5.020   3.402  0.0670  0.0660  0.8712
13871SOL    HW146743   0.917   5.100   3.377 -0.7917  0.5381  0.7927
13871SOL    HW246744   0.868   5.024   3.498  0.1584  0.0438  0.8761
13872SOL     OW46745   7.617   1.667  10.256 -0.4188 -0.0811  0.2009
13872SOL    HW146746   7.663   1.721  10.191  0.4180 -0.1807  0.7086
13872SOL    HW246747   7.558   1.612  10.203 -0.2273  0.3107 -0.4276
13873SOL     OW46748   7.555   5.567   9.656  0.1455 -0.1953  0.0236
13873SOL    HW146749   7.495   5.641   9.670 -0.1304 -0.5689  0.8564
13873SOL    HW246750   7.512   5.514   9.589  0.7581  0.8395 -1.2139
13874SOL     OW46751   2.367  11.126  10.100 -0.0569  0.1648 -0.3383
13874SOL    HW146752   2.432  11.175  10.151  2.5303 -0.3847 -2.9837
13874SOL    HW246753   2.361  11.042  10.146  0.1167  0.6980  0.6840
13875SOL     OW46754   3.372  10.735  10.802 -0.0267  0.6705 -0.1646
13875SOL    HW146755   3.439  10.785  10.848  0.4769 -0.5476  0.4405
13875SOL    HW246756   3.301  10.725  10.865  0.7719 -1.2252  0.4991
13876SOL     OW46757   7.081   6.772   7.401 -0.0063 -0.3249  0.3072
13876SOL    HW146758   7.037   6.688   7.392 -0.1976 -0.2080  0.1608
13876SOL    HW246759   7.132   6.781   7.321  0.1376 -0.3719  0.3919
13877SOL     OW46760   1.724   1.543   2.001 -1.0246  0.4386 -0.1725
13877SOL    HW146761   1.742   1.614   1.940 -2.5126  0.2832 -0.7971
13877SOL    HW246762   1.723   1.464   1.946 -0.5380  0.0684  0.3412
13878SOL     OW46763   5.656   4.483   4.547 -0.1987 -0.2799  0.2149
13878SOL    HW146764   5.634   4.574   4.568  1.7177 -0.3795  2.8958
13878SOL    HW246765   5.750   4.485   4.527  0.3195 -1.9330  2.2886
13879SOL     OW46766   9.265   2.477   3.638 -0.3898 -0.3321 -0.4627
13879SOL    HW146767   9.344   2.455   3.588 -0.3954  0.1952 -0.7068
13879SOL    HW246768   9.289   2.554   3.689  0.4093 -2.3202  2.2761
13880SOL     OW46769   9.461   4.847   9.772 -0.5706  0.3642 -0.6011
13880SOL    HW146770   9.414   4.769   9.802  1.0479 -0.8338 -1.1123
13880SOL    HW246771   9.496   4.822   9.686  1.9255  0.8125  0.2507
13881SOL     OW46772   7.037   0.463   8.802 -0.1126  0.1624  0.0656
13881SOL    HW146773   7.063   0.554   8.794  0.7506 -0.1456 -0.7277
13881SOL    HW246774   7.112   0.413   8.768 -1.5460 -0.7570 -1.8414
13882SOL     OW46775   9.405   6.370   2.459 -0.4778  0.0661  0.5492
13882SOL    HW146776   9.376   6.447   2.410 -0.4094  0.3051  0.8783
13882SOL    HW246777   9.381   6.390   2.550  0.4808  0.1524  0.7919
13883SOL     OW46778   2.674   3.775   0.922  0.2683  0.3185  0.4553
13883SOL    HW146779   2.697   3.702   0.864  0.6268  0.4564  0.4250
13883SOL    HW246780   2.578   3.771   0.928  0.2059  0.4302 -0.3177
13884SOL     OW46781   9.681   8.311   3.969 -0.3917 -0.4125  0.0570
13884SOL    HW146782   9.738   8.236   3.951 -0.4387 -0.5395  0.4509
13884SOL    HW246783   9.673   8.313   4.064  0.7835  0.9585  0.1370
13885SOL     OW46784   9.561   7.668   8.471 -0.1618  0.0424  0.0997
13885SOL    HW146785   9.541   7.575   8.479  0.2655  0.0627  1.5510
13885SOL    HW246786   9.487   7.704   8.421  0.6895 -1.4131 -2.3124
13886SOL     OW46787   8.277   0.033   1.559 -0.0900  0.0273  0.5987
13886SOL    HW146788   8.332   0.110   1.576 -0.8505  0.8462 -0.5360
13886SOL    HW246789   8.202   0.068   1.510  1.7083 -2.0793 -3.9396
13887SOL     OW46790   5.557   8.271   8.027  0.0990 -0.3633 -0.3633
13887SOL    HW146791   5.592   8.196   7.978  0.3341 -0.0172 -0.7256
13887SOL    HW246792   5.494   8.232   8.087  0.6211 -0.9207 -0.1682
13888SOL     OW46793  10.239   7.711   8.244 -0.0517  0.6791 -0.0208
13888SOL    HW146794  10.155   7.701   8.199  0.5456  0.5441 -1.1158
13888SOL    HW246795  10.236   7.799   8.281 -1.2831  0.1354  1.2405
13889SOL     OW46796   1.572   0.377   6.104  0.7882 -0.0020 -0.4494
13889SOL    HW146797   1.486   0.413   6.129  0.7237 -0.2231 -0.3519
13889SOL    HW246798   1.635   0.436   6.147  0.7003  0.6128 -1.1453
13890SOL     OW46799   9.231   6.710   4.069 -0.5360  0.1012  0.2252
13890SOL    HW146800   9.273   6.653   4.005  0.5933 -0.2428  1.2469
13890SOL    HW246801   9.220   6.793   4.024 -1.7580 -0.7679 -1.1175
13891SOL     OW46802   0.121   8.984   1.509 -0.2126  0.2902 -0.5186
13891SOL    HW146803   0.057   9.050   1.484 -1.8851  0.7210  4.4011
13891SOL    HW246804   0.075   8.900   1.498  0.2534  0.2113 -2.0405
13892SOL     OW46805   1.680   5.417   8.125  0.0377 -0.1576  0.3481
13892SOL    HW146806   1.584   5.419   8.132  0.0788  0.5728  0.7592
13892SOL    HW246807   1.706   5.509   8.120  0.8357 -0.2829  1.9324
13893SOL     OW46808   5.271   9.545  10.337  0.1862  0.2211 -0.1761
13893SOL    HW146809   5.206   9.563  10.405 -0.8246  0.2883 -1.1445
13893SOL    HW246810   5.352   9.581  10.371 -0.6997  1.9243  0.1783
13894SOL     OW46811   8.599   4.823  10.881  0.0188 -0.1976 -0.8341
13894SOL    HW146812   8.628   4.902  10.926  0.6297  0.1124 -1.7521
13894SOL    HW246813   8.674   4.796  10.829  0.3634 -2.2846  0.6546
13895SOL     OW46814   4.625   2.296   2.428 -0.2139 -0.6251 -0.4313
13895SOL    HW146815   4.652   2.204   2.422  0.6672 -0.4973  1.3462
13895SOL    HW246816   4.599   2.307   2.519  1.3087  1.3134 -0.2132
13896SOL     OW46817   1.902   9.359   4.081  0.1698 -0.0676 -0.1989
13896SOL    HW146818   1.953   9.278   4.082 -2.2554 -1.6144  0.4352
13896SOL    HW246819   1.866   9.363   3.992 -0.0180  0.1519 -0.1114
13897SOL     OW46820  11.125   3.291   2.052 -0.4721 -0.1342  0.2428
13897SOL    HW146821  11.186   3.354   2.090 -1.5775  0.4601  1.0589
13897SOL    HW246822  11.065   3.271   2.123 -0.6800 -1.4283 -0.2786
13898SOL     OW46823  10.447   1.469   7.352  0.0731  0.3565  0.6363
13898SOL    HW146824  10.403   1.515   7.424  0.3299  1.8846 -0.1774
13898SOL    HW246825  10.534   1.508   7.348  0.2933 -0.2016 -0.0685
13899SOL     OW46826  10.689   5.238   0.381  0.2201  0.3272  0.0628
13899SOL    HW146827  10.727   5.164   0.334  0.8220  1.3881 -1.1615
13899SOL    HW246828  10.673   5.303   0.313 -1.3797  0.8919  0.9491
13900SOL     OW46829   9.177   9.905   9.442  0.5146 -0.3404  0.0243
13900SOL    HW146830   9.134   9.914   9.358  0.0097  0.6885  0.3843
13900SOL    HW246831   9.134   9.969   9.499  2.8385  1.0919  0.2510
13901SOL     OW46832   7.209   7.697   2.354  0.5666 -0.4915 -0.1457
13901SOL    HW146833   7.182   7.764   2.291  0.6099 -1.7047 -1.4651
13901SOL    HW246834   7.276   7.740   2.408 -0.7908  1.1377  0.2916
13902SOL     OW46835   2.652   1.343   7.890  0.5250  0.1373  0.0869
13902SOL    HW146836   2.576   1.328   7.947  1.4469 -0.5607  1.1580
13902SOL    HW246837   2.666   1.259   7.846  0.7600  0.2279 -0.0100
13903SOL     OW46838   1.962   6.846   8.565 -0.4730  0.2833  0.3013
13903SOL    HW146839   2.036   6.820   8.510  0.7645  1.0677  1.5706
13903SOL    HW246840   1.889   6.855   8.504  0.8305  0.9594 -1.1861
13904SOL     OW46841   4.113   8.998   9.214  0.3477 -0.2717 -0.0094
13904SOL    HW146842   4.036   9.047   9.240  1.5853  0.6858  1.8901
13904SOL    HW246843   4.084   8.907   9.212 -0.5124 -0.0569  1.9834
13905SOL     OW46844  11.182  11.114   1.517 -0.2186 -0.5821  0.0104
13905SOL    HW146845  11.147  11.110   1.428 -1.1889 -1.5335  0.4245
13905SOL    HW246846  11.120  11.063   1.569  1.3730 -1.6123  0.9111
13906SOL     OW46847   3.262   2.876   2.888  0.4997 -0.2974  0.1326
13906SOL    HW146848   3.342   2.923   2.911  0.6564 -0.6872  0.3780
13906SOL    HW246849   3.290   2.811   2.824  0.0932  0.6810 -1.0546
13907SOL     OW46850   7.014   4.563   2.849 -0.7210 -0.2002 -0.5567
13907SOL    HW146851   6.927   4.587   2.819 -1.6833 -3.9135 -0.9018
13907SOL    HW246852   7.020   4.599   2.938 -1.8878  1.6281 -1.2018
13908SOL     OW46853   4.505   0.219   5.948 -0.0025 -0.6465 -1.1406
13908SOL    HW146854   4.520   0.127   5.970 -0.9842 -0.1856  1.5946
13908SOL    HW246855   4.586   0.263   5.973  0.1864 -0.6413 -1.7493
13909SOL     OW46856  10.472   7.682   0.235  0.1868  0.1046 -0.0898
13909SOL    HW146857  10.557   7.658   0.200  0.6478  0.4833  0.7529
13909SOL    HW246858  10.453   7.767   0.196  1.2987  1.1386  1.5777
13910SOL     OW46859   4.896   4.046   0.844  0.2941  0.7304 -0.2197
13910SOL    HW146860   4.903   4.091   0.760  0.9878  0.8159 -0.1154
13910SOL    HW246861   4.935   3.960   0.829  0.3910  0.7341  0.0107
13911SOL     OW46862   3.168   9.733   8.792 -0.5561 -0.7023  0.0149
13911SOL    HW146863   3.137   9.799   8.853  0.7409  0.3345 -0.4261
13911SOL    HW246864   3.135   9.761   8.707 -1.1626 -1.3747  0.0222
13912SOL     OW46865   7.293   7.855   3.700 -1.1020  0.4934 -0.2303
13912SOL    HW146866   7.238   7.797   3.751 -0.9864  0.3468 -0.2697
13912SOL    HW246867   7.314   7.805   3.621 -0.8856  0.5357 -0.1996
13913SOL     OW46868   0.458   7.536   9.813  0.8781  0.3658 -0.1477
13913SOL    HW146869   0.413   7.461   9.853  2.0434 -0.6200 -0.6543
13913SOL    HW246870   0.418   7.544   9.726  0.7559  0.3264 -0.0943
13914SOL     OW46871  11.240   0.054   8.861  0.0257  0.0973  0.2364
13914SOL    HW146872  11.253   0.008   8.944 -0.5672 -0.6271 -0.0716
13914SOL    HW246873  11.181   0.126   8.883 -1.5862 -1.1658  0.0819
13915SOL     OW46874   6.397   9.195   4.142 -0.0370  0.0898 -0.2836
13915SOL    HW146875   6.325   9.133   4.144  1.0789 -1.2281  0.3747
13915SOL    HW246876   6.371   9.265   4.203 -1.9224  1.0259 -2.1048
13916SOL     OW46877   7.155   9.946   6.987 -0.7261  0.2080 -0.2475
13916SOL    HW146878   7.182  10.032   6.955  1.1098 -0.3248 -0.2060
13916SOL    HW246879   7.130   9.961   7.078 -1.9970  0.9764 -0.7033
13917SOL     OW46880   5.898   3.382   4.369  0.0010  0.2249  0.2172
13917SOL    HW146881   5.890   3.408   4.460 -0.8077  1.2880 -0.1496
13917SOL    HW246882   5.882   3.462   4.319  0.0277 -0.4294 -0.8708
13918SOL     OW46883  11.087   5.451   5.294  0.1644  0.0480  0.4412
13918SOL    HW146884  11.000   5.475   5.326 -0.3032 -0.9489 -0.0490
13918SOL    HW246885  11.118   5.384   5.355  0.2965 -0.0860  0.2290
13919SOL     OW46886   9.677  10.882   1.629 -0.3151 -0.1181  1.2950
13919SOL    HW146887   9.770  10.889   1.650  0.2630  0.0573 -1.2005
13919SOL    HW246888   9.663  10.788   1.613 -0.1389  0.0959 -0.1657
13920SOL     OW46889   8.341  10.459  10.109  0.3889  0.3985  0.6081
13920SOL    HW146890   8.254  10.485  10.139  0.4691 -1.0712  2.1913
13920SOL    HW246891   8.400  10.485  10.179  1.0657  0.2126  0.1165
13921SOL     OW46892  11.144   4.927   8.538 -0.5680  0.3741  1.1271
13921SOL    HW146893  11.187   4.960   8.617 -0.5740 -0.7651  1.6107
13921SOL    HW246894  11.212   4.877   8.493 -0.8722  0.0991  0.9677
13922SOL     OW46895   1.010   0.038   0.857 -0.2227 -0.3012  0.0349
13922SOL    HW146896   0.996   0.121   0.902 -0.4675 -0.2906 -0.0577
13922SOL    HW246897   1.066   0.060   0.782  0.0953 -0.3014  0.2752
13923SOL     OW46898   9.520   4.833   0.251  0.5985 -0.4767 -0.0682
13923SOL    HW146899   9.555   4.922   0.255 -0.0030 -0.2614  0.4106
13923SOL    HW246900   9.439   4.842   0.202  0.1891 -0.6561  0.5810
13924SOL     OW46901   2.878   6.101   9.255  0.0803  0.0045  1.2409
13924SOL    HW146902   2.891   6.008   9.274  0.3147 -0.1845  0.1576
13924SOL    HW246903   2.836   6.136   9.334  3.0008 -0.3011  2.9808
13925SOL     OW46904   4.285   1.619   5.501  0.1285 -0.5594 -0.2588
13925SOL    HW146905   4.300   1.595   5.593 -1.6300 -0.8826 -0.0351
13925SOL    HW246906   4.301   1.538   5.453 -0.3200 -0.7566 -0.0820
13926SOL     OW46907   5.099   0.739  10.549  0.0042  0.8841  0.5141
13926SOL    HW146908   5.103   0.752  10.644 -2.8530 -1.5605  1.0246
13926SOL    HW246909   5.059   0.819  10.515 -0.9488  0.8816  1.6159
13927SOL     OW46910   7.357   4.201   6.997  0.4902  0.0097 -0.2283
13927SOL    HW146911   7.439   4.210   7.046 -0.6425  2.5983  1.2703
13927SOL    HW246912   7.375   4.242   6.912  0.8736  0.0947 -0.1068
13928SOL     OW46913   4.341   0.093   2.220 -0.3283 -0.3957  0.1212
13928SOL    HW146914   4.327   0.066   2.311  2.0250 -0.1487  0.5984
13928SOL    HW246915   4.266   0.148   2.199 -0.1089  0.8537  2.4548
13929SOL     OW46916   9.826   7.511   3.914  0.2715  0.0335 -0.1537
13929SOL    HW146917   9.847   7.533   4.005  0.7888  0.2838 -0.3314
13929SOL    HW246918   9.820   7.596   3.870  0.7287 -0.1181 -0.5071
13930SOL     OW46919   9.973   7.101   0.699  0.4979 -0.3753 -0.2692
13930SOL    HW146920   9.987   7.007   0.703 -0.9301 -0.5986 -0.0718
13930SOL    HW246921   9.954   7.127   0.789  2.1061  0.3180 -0.1105
13931SOL     OW46922   8.122   1.059   3.544  1.0269  0.2247  0.1333
13931SOL    HW146923   8.083   1.016   3.621  0.6952  1.3024  0.5810
13931SOL    HW246924   8.098   1.003   3.471 -2.0460  1.2188  0.3020
13932SOL     OW46925   1.255   6.652   9.495 -0.2070 -0.0519  0.0984
13932SOL    HW146926   1.187   6.705   9.536  0.3308  1.2924 -0.7042
13932SOL    HW246927   1.240   6.661   9.401  1.3030  0.5757 -0.0987
13933SOL     OW46928   3.951   9.727  11.229  0.1805 -0.2969  0.4658
13933SOL    HW146929   3.896   9.800  11.259  1.3452  0.5149  0.6492
13933SOL    HW246930   3.982   9.754  11.143  1.5147 -0.0645  1.0004
13934SOL     OW46931   9.891  11.084   9.634 -0.3731 -0.7602  0.0992
13934SOL    HW146932   9.937  11.028   9.697  0.5441  0.8085  0.8389
13934SOL    HW246933   9.884  11.030   9.555  0.6119 -1.8768  0.7583
13935SOL     OW46934  11.285   6.139   5.905  0.3134 -0.1930  0.4474
13935SOL    HW146935  11.225   6.207   5.874 -2.3068 -2.5673  0.1312
13935SOL    HW246936  11.332   6.180   5.978 -2.6332  1.3690  1.5585
13936SOL     OW46937   0.383   0.468  10.675  0.1828  0.1910 -0.4584
13936SOL    HW146938   0.452   0.453  10.740 -1.1893 -0.8539  0.7875
13936SOL    HW246939   0.400   0.557  10.643  2.6162 -0.3744 -0.8233
13937SOL     OW46940   8.575   5.544   0.488  0.1821 -0.2392 -0.5721
13937SOL    HW146941   8.618   5.470   0.445  0.8785  1.3534 -2.6918
13937SOL    HW246942   8.645   5.608   0.500 -0.5362  0.3124  0.7075
13938SOL     OW46943  10.592   3.186   8.377 -0.4920 -0.6623  0.1281
13938SOL    HW146944  10.590   3.125   8.451  3.0344 -0.6436  0.3254
13938SOL    HW246945  10.570   3.132   8.301 -1.8641 -1.1735  0.8658
13939SOL     OW46946   9.628   6.267   7.197 -0.3860 -0.2490  0.1927
13939SOL    HW146947   9.587   6.333   7.253 -0.7028 -0.2168 -0.0719
13939SOL    HW246948   9.558   6.205   7.177 -0.2793 -0.2503 -0.1808
13940SOL     OW46949   5.305   1.853   9.700  0.5164 -0.3762  0.1199
13940SOL    HW146950   5.314   1.772   9.649  1.7987  0.4205 -0.9444
13940SOL    HW246951   5.329   1.828   9.790  2.1813 -0.9111 -0.4517
13941SOL     OW46952   6.221   5.735   1.532  0.0569 -0.4059  0.0023
13941SOL    HW146953   6.156   5.666   1.517  0.3111 -0.2925 -1.7848
13941SOL    HW246954   6.172   5.816   1.524 -0.0569 -0.3455  1.1783
13942SOL     OW46955   1.536   5.120   2.718  0.8366  0.2246  0.2813
13942SOL    HW146956   1.446   5.105   2.747  2.1262 -3.0085  2.9727
13942SOL    HW246957   1.553   5.049   2.657  1.1358  1.6720 -1.3482
13943SOL     OW46958   9.501   9.801   7.643  0.2532  0.4074 -0.3154
13943SOL    HW146959   9.457   9.866   7.589 -0.0777 -0.2704 -0.8679
13943SOL    HW246960   9.587   9.840   7.661  0.1745  0.8606 -0.8959
13944SOL     OW46961   9.658   9.441   8.979  0.1597  0.0745  0.5463
13944SOL    HW146962   9.635   9.355   9.013  1.0309  0.1926  1.4483
13944SOL    HW246963   9.751   9.435   8.958  0.6260  1.2777  2.1669
13945SOL     OW46964   8.281   6.351   0.890 -0.0665  0.2988  0.6790
13945SOL    HW146965   8.333   6.284   0.846 -0.4228 -0.1054  0.8600
13945SOL    HW246966   8.304   6.342   0.983  0.3955  0.8880  0.6239
13946SOL     OW46967   6.021   9.420   9.922 -0.0183 -0.7290 -0.0873
13946SOL    HW146968   6.090   9.464   9.971  1.6033 -2.5671 -0.6530
13946SOL    HW246969   6.010   9.472   9.843  1.5852 -1.0951 -0.5597
13947SOL     OW46970   0.158   4.882   5.008  0.5266 -0.7211 -0.0392
13947SOL    HW146971   0.138   4.804   4.958  3.0547 -1.6999  0.4047
13947SOL    HW246972   0.141   4.858   5.099  1.2296 -0.7406  0.0903
13948SOL     OW46973   9.921  10.058   6.271  0.0803 -0.2611  0.4164
13948SOL    HW146974   9.884   9.982   6.225 -2.7781  0.9559  0.6036
13948SOL    HW246975   9.914  10.129   6.207  1.8605  0.0771  0.5830
13949SOL     OW46976   9.255   5.252   4.383 -0.7252  0.5001 -0.3633
13949SOL    HW146977   9.253   5.157   4.369 -1.0726  0.6433 -1.2816
13949SOL    HW246978   9.228   5.263   4.474  1.4043 -0.4171  0.4184
13950SOL     OW46979   0.899   0.900  10.002 -0.5835  0.0732 -0.2756
13950SOL    HW146980   0.883   0.820   9.950  0.1668  0.0850 -0.5217
13950SOL    HW246981   0.985   0.887  10.041 -1.2123 -0.0062  1.1176
13951SOL     OW46982   3.270   7.913   1.210  0.0883  0.0017  0.2467
13951SOL    HW146983   3.265   7.869   1.295 -0.3170  0.0371  0.2411
13951SOL    HW246984   3.364   7.927   1.196  0.1977 -0.5927  0.3858
13952SOL     OW46985   9.433   5.145   1.409  0.2569 -0.0515  0.2455
13952SOL    HW146986   9.484   5.068   1.435 -0.5332 -0.4665  0.6163
13952SOL    HW246987   9.342   5.113   1.407 -0.0171  0.7385 -0.1279
13953SOL     OW46988  10.317  10.037   0.682 -0.0917  0.5568 -0.3048
13953SOL    HW146989  10.245   9.994   0.728 -0.1397  0.6112 -0.3298
13953SOL    HW246990  10.379   9.966   0.664  0.5350  0.7442  1.0072
13954SOL     OW46991   2.014   6.749   3.392 -0.1832  0.1432  0.3283
13954SOL    HW146992   2.036   6.724   3.302  0.0618  0.4819  0.2910
13954SOL    HW246993   1.924   6.719   3.404  0.9440 -3.1020  1.1724
13955SOL     OW46994   6.668   8.939   3.919  0.7703  0.2937  0.1835
13955SOL    HW146995   6.642   8.893   3.839 -1.0341  0.6462  0.5308
13955SOL    HW246996   6.763   8.938   3.918  0.7652 -1.4706 -0.9605
13956SOL     OW46997   5.789   8.521   5.205 -0.4479  0.3309  0.2537
13956SOL    HW146998   5.807   8.441   5.156  0.1610  0.6342 -0.0234
13956SOL    HW246999   5.851   8.519   5.278 -2.2846 -0.8164  1.8362
13957SOL     OW47000   4.081   6.706   8.351 -0.1230 -0.1768  0.2412
13957SOL    HW147001   4.168   6.691   8.316  0.0580  0.7154  0.3020
13957SOL    HW247002   4.060   6.626   8.401  0.4017 -0.6371 -0.2803
13958SOL     OW47003   4.778   6.139   1.813  0.3839 -0.2569 -0.0765
13958SOL    HW147004   4.827   6.222   1.814  2.1217 -1.2526 -0.8381
13958SOL    HW247005   4.693   6.162   1.777  0.5557  1.3585  0.4888
13959SOL     OW47006  11.018   0.064  10.827  0.1794  0.1276  0.2062
13959SOL    HW147007  11.033  -0.007  10.764 -0.3960 -0.1194  0.3418
13959SOL    HW247008  10.923   0.061  10.843 -0.3239  2.6822 -1.8927
13960SOL     OW47009  10.880   8.169   6.530 -0.5862 -0.5090  0.1099
13960SOL    HW147010  10.816   8.186   6.461  0.3457  2.4246 -0.1023
13960SOL    HW247011  10.925   8.089   6.503 -1.4926 -0.4045 -1.7394
13961SOL     OW47012   5.895   1.892   9.537 -0.0174  0.2058 -1.0734
13961SOL    HW147013   5.904   1.937   9.621 -1.9060 -3.9830  1.4713
13961SOL    HW247014   5.955   1.818   9.543 -0.8371 -0.6463 -3.0949
13962SOL     OW47015   8.334   5.911   3.774  0.4236  0.0856  1.1303
13962SOL    HW147016   8.289   5.837   3.816  0.7667 -1.5596 -1.3215
13962SOL    HW247017   8.418   5.916   3.819 -0.1671 -0.0961  2.2805
13963SOL     OW47018   1.703   3.125   2.251 -0.0140  0.5000 -0.5153
13963SOL    HW147019   1.685   3.033   2.272 -0.1296  0.8524  0.9929
13963SOL    HW247020   1.656   3.141   2.169  2.3860 -1.5877 -2.3944
13964SOL     OW47021   6.776   3.209   9.871 -0.7340 -0.1849 -0.2830
13964SOL    HW147022   6.812   3.293   9.843 -1.0489 -0.0455 -0.2793
13964SOL    HW247023   6.737   3.172   9.792 -1.1526 -0.0352 -0.1536
13965SOL     OW47024   6.506   3.117   3.596  0.3663  0.3375  0.2715
13965SOL    HW147025   6.478   3.028   3.613 -0.8108  0.4801 -0.8142
13965SOL    HW247026   6.596   3.121   3.627  0.6628 -1.4284 -0.3505
13966SOL     OW47027   9.881   9.321   9.235 -0.2131  0.3945  0.4858
13966SOL    HW147028   9.934   9.337   9.157 -0.7930 -1.0289 -0.2203
13966SOL    HW247029   9.796   9.360   9.216 -0.3217  0.1417  0.4550
13967SOL     OW47030   9.412   7.431   6.321  0.2313  0.1040 -0.2036
13967SOL    HW147031   9.382   7.343   6.296  1.7044 -0.6122  0.4509
13967SOL    HW247032   9.463   7.461   6.245  2.5335 -1.0100  0.8472
13968SOL     OW47033   3.015   6.601   1.292 -0.2346 -0.4296  0.4023
13968SOL    HW147034   2.931   6.591   1.248  0.5179 -0.8994 -0.9403
13968SOL    HW247035   3.016   6.532   1.359  0.0245 -1.8832 -1.0758
13969SOL     OW47036  10.615   4.601   9.776  0.2406 -0.9626  0.1947
13969SOL    HW147037  10.637   4.516   9.738 -0.2994 -1.1471  0.2858
13969SOL    HW247038  10.538   4.631   9.727  1.7395  0.4952 -1.3145
13970SOL     OW47039   6.429   3.005  10.407  0.3666 -0.0666  0.2588
13970SOL    HW147040   6.403   2.947  10.478 -1.0990  2.2188  1.6499
13970SOL    HW247041   6.515   3.039  10.434 -0.8168  1.9097  1.7216
13971SOL     OW47042   6.911   9.083  10.681  0.5479 -0.2966  0.3209
13971SOL    HW147043   6.865   9.079  10.598 -0.3665  0.9706  0.7451
13971SOL    HW247044   6.980   9.018  10.674 -1.1816 -2.0794 -0.4000
13972SOL     OW47045  11.200   9.483  11.104  0.1240  0.1312 -0.4530
13972SOL    HW147046  11.164   9.545  11.168  0.7601  0.6803 -0.6267
13972SOL    HW247047  11.277   9.527  11.068 -0.4923  0.0269 -1.9410
13973SOL     OW47048   0.455   7.040   2.870 -0.1832 -0.5101 -0.2347
13973SOL    HW147049   0.374   6.994   2.889  0.4766 -1.2384  0.8174
13973SOL    HW247050   0.467   7.030   2.775 -0.6182 -1.5384 -0.1777
13974SOL     OW47051   9.639  10.265   1.834 -0.2346 -0.6633 -0.0564
13974SOL    HW147052   9.580  10.262   1.909 -1.0736  0.7644 -0.6385
13974SOL    HW247053   9.620  10.184   1.786 -1.6294 -0.3005 -0.1475
13975SOL     OW47054   3.715   3.317   3.271  0.3061 -0.3998 -0.3556
13975SOL    HW147055   3.633   3.269   3.256 -0.4459  0.9356 -0.5968
13975SOL    HW247056   3.711   3.390   3.209  1.3929  0.0327  0.0852
13976SOL     OW47057   1.523   9.823   6.173 -0.0589  0.1989 -0.7565
13976SOL    HW147058   1.616   9.831   6.195  0.0185  0.8255 -1.3184
13976SOL    HW247059   1.477   9.851   6.253  0.2279  0.3911 -0.6616
13977SOL     OW47060   4.943   7.840   8.996  0.7035  0.4022 -0.0911
13977SOL    HW147061   4.933   7.852   9.090  0.4139  0.2371 -0.0982
13977SOL    HW247062   4.939   7.746   8.983  1.1265  0.4039 -0.2258
13978SOL     OW47063   0.775   9.678   0.358 -0.0207 -0.4407 -0.1007
13978SOL    HW147064   0.776   9.625   0.437  1.9801 -0.1024  0.1270
13978SOL    HW247065   0.743   9.764   0.386 -3.5567 -1.5743 -0.5264
13979SOL     OW47066   2.110   2.081  11.121  0.1232  0.4294  0.3193
13979SOL    HW147067   2.071   2.116  11.202 -2.1015  0.9387 -0.9264
13979SOL    HW247068   2.097   2.150  11.056  0.2389 -0.7039 -0.9250
13980SOL     OW47069   7.238   7.460   9.479  0.0540  0.1774 -0.9174
13980SOL    HW147070   7.226   7.486   9.570 -1.0596  3.2373 -1.8820
13980SOL    HW247071   7.149   7.444   9.447  0.5337 -2.3511 -1.1028
13981SOL     OW47072   0.182   6.678   5.728  0.0788  0.0642  0.1809
13981SOL    HW147073   0.203   6.714   5.814 -1.0535  1.1046  0.0363
13981SOL    HW247074   0.217   6.742   5.666  1.3720 -0.9508 -0.1502
13982SOL     OW47075   0.839   6.199   3.260  0.4711  0.0527  0.3844
13982SOL    HW147076   0.932   6.184   3.241 -0.4436 -3.8378 -1.5195
13982SOL    HW247077   0.830   6.179   3.353  1.4060 -0.2044  0.4226
13983SOL     OW47078   1.493   2.480   2.089  0.1260 -0.4518 -0.3525
13983SOL    HW147079   1.545   2.511   2.015  1.3643 -2.2509 -0.2494
13983SOL    HW247080   1.509   2.544   2.158 -0.1311  0.6034 -1.2462
13984SOL     OW47081   9.086   2.606  10.034  0.1309 -0.3427  0.3736
13984SOL    HW147082   8.993   2.595  10.057  0.1642  1.7457  1.6350
13984SOL    HW247083   9.133   2.578  10.113  0.6347 -1.9850 -0.4761
13985SOL     OW47084   9.775   8.333   6.683  0.5610  0.0882  0.0475
13985SOL    HW147085   9.853   8.279   6.700  0.9501  0.4775 -0.4847
13985SOL    HW247086   9.707   8.293   6.737  1.2741  0.1077  0.9952
13986SOL     OW47087  10.590   0.581   0.238  0.9094 -0.0114  0.3289
13986SOL    HW147088  10.564   0.609   0.325 -0.0127 -0.4481  0.1889
13986SOL    HW247089  10.565   0.655   0.181  0.5093 -0.1905  0.2750
13987SOL     OW47090   0.948  10.309   7.060 -0.1947  0.1310 -0.7351
13987SOL    HW147091   0.950  10.217   7.035 -0.9310 -1.0236  3.1299
13987SOL    HW247092   1.039  10.337   7.055  0.0181 -0.7724 -2.0419
13988SOL     OW47093   5.700   5.682   2.886 -0.2098  0.0204 -0.0905
13988SOL    HW147094   5.716   5.606   2.830  1.5693  0.1020  0.2649
13988SOL    HW247095   5.685   5.645   2.973 -1.4066 -0.0263 -0.3141
13989SOL     OW47096   9.531   7.071   5.127  0.2050 -0.4939 -0.5631
13989SOL    HW147097   9.497   7.156   5.100  0.6985 -0.0772  0.1193
13989SOL    HW247098   9.546   7.079   5.221  0.1407 -1.3748 -0.4687
13990SOL     OW47099  10.478   8.713   7.598 -0.1492  0.3052  0.1647
13990SOL    HW147100  10.501   8.805   7.610 -0.8414  0.5090 -0.0781
13990SOL    HW247101  10.554   8.676   7.554  0.0507  0.8042  0.0843
13991SOL     OW47102   8.793   2.320   1.230  0.3538  0.0162 -0.0502
13991SOL    HW147103   8.854   2.251   1.204 -0.4799 -0.2864 -1.2367
13991SOL    HW247104   8.726   2.319   1.162 -0.5664  0.8595  0.8401
13992SOL     OW47105   8.213   5.714   5.812 -0.3797  0.2666  0.4279
13992SOL    HW147106   8.218   5.767   5.893 -0.2501  1.4821 -0.3607
13992SOL    HW247107   8.272   5.758   5.751  0.3418 -1.2630 -0.0017
13993SOL     OW47108   6.965   9.103   5.452 -0.4401  0.8911  0.2032
13993SOL    HW147109   6.915   9.178   5.421 -2.5048 -0.5548 -0.0524
13993SOL    HW247110   6.947   9.098   5.546  0.4440  1.2602  0.3985
13994SOL     OW47111   5.519   8.714   0.430  0.0969 -0.3080  0.4041
13994SOL    HW147112   5.590   8.690   0.488  1.0176 -1.3655 -1.1171
13994SOL    HW247113   5.547   8.684   0.343 -1.5791  0.5070 -0.4597
13995SOL     OW47114   2.132   2.640   5.384 -0.0631 -0.3027  0.0996
13995SOL    HW147115   2.136   2.588   5.464  0.2463 -0.9440 -0.3306
13995SOL    HW247116   2.103   2.578   5.316 -2.3581  0.7038  0.1138
13996SOL     OW47117   7.611   8.850  10.500  0.5298 -0.3939  0.2599
13996SOL    HW147118   7.628   8.936  10.538  0.2702  0.3154 -1.1723
13996SOL    HW247119   7.631   8.861  10.407 -1.2045 -1.3751 -0.2602
13997SOL     OW47120   1.983   4.347   2.277  0.4237  0.2960 -0.4177
13997SOL    HW147121   2.074   4.373   2.285  0.3309 -0.0459  2.2699
13997SOL    HW247122   1.933   4.422   2.309 -0.1031 -0.5439  0.7754
13998SOL     OW47123   4.684   5.617  11.297  0.8126  0.0505 -0.4836
13998SOL    HW147124   4.765   5.629  11.249 -1.1414 -0.7820 -4.1873
13998SOL    HW247125   4.690   5.528  11.333  1.1039 -0.4431 -1.7202
13999SOL     OW47126   9.941   9.813   1.963  0.4087 -0.8278  0.8253
13999SOL    HW147127   9.913   9.871   1.892  0.2188 -3.0110 -0.9286
13999SOL    HW247128   9.905   9.854   2.043 -0.7298  0.8032 -0.4821
14000SOL     OW47129   6.167   5.553   0.858  0.3648  0.4018 -0.0192
14000SOL    HW147130   6.171   5.458   0.850  0.1116  0.4503 -0.7575
14000SOL    HW247131   6.115   5.581   0.782 -0.1154  1.0684  0.5520
14001SOL     OW47132   2.961   8.173   3.223 -0.0965 -0.0941  0.4856
14001SOL    HW147133   3.016   8.239   3.264 -1.7797  1.9824 -0.5315
14001SOL    HW247134   2.913   8.133   3.296  0.4423  0.2650  1.0419
14002SOL     OW47135   4.783   4.583   7.594 -0.1650  0.4617 -0.3540
14002SOL    HW147136   4.727   4.516   7.555 -1.0872  1.6241 -1.0602
14002SOL    HW247137   4.764   4.579   7.688  0.1273 -0.5648 -0.3319
14003SOL     OW47138   4.590   8.441   3.634  0.3777  0.2615  0.0726
14003SOL    HW147139   4.574   8.347   3.649 -0.4084  0.3199 -0.3579
14003SOL    HW247140   4.567   8.482   3.717  1.5512 -0.0103  0.5460
14004SOL     OW47141   9.343  10.524   5.490 -0.2654 -0.4311  0.0328
14004SOL    HW147142   9.266  10.580   5.478  0.3036  0.5106  0.7076
14004SOL    HW247143   9.382  10.518   5.402 -0.5766 -0.1287 -0.1275
14005SOL     OW47144   1.449   4.007   2.351 -0.6274 -0.1404 -0.3890
14005SOL    HW147145   1.370   3.954   2.347 -0.3942 -0.5636  0.5394
14005SOL    HW247146   1.427   4.077   2.413  0.0835 -0.8581  0.6730
14006SOL     OW47147  10.037   1.894   5.435 -0.7540  0.1621  0.3351
14006SOL    HW147148  10.114   1.898   5.492 -1.0970  1.0807  0.7419
14006SOL    HW247149   9.965   1.872   5.494 -0.7619 -0.9297 -0.0862
14007SOL     OW47150   9.250   3.831   2.546  0.4407 -0.3874  0.0457
14007SOL    HW147151   9.164   3.869   2.567  0.9345  1.0901 -0.5161
14007SOL    HW247152   9.249   3.822   2.451  0.9210 -0.3137  0.0321
14008SOL     OW47153   3.135   9.436   2.287  0.3016  0.2596 -0.2691
14008SOL    HW147154   3.142   9.530   2.272 -0.1929  0.0657 -1.7783
14008SOL    HW247155   3.151   9.425   2.381 -1.2692  2.0274  0.2330
14009SOL     OW47156   7.261   5.093   9.450  0.0191  0.0947 -0.1452
14009SOL    HW147157   7.185   5.092   9.509  0.0736 -1.2377 -0.0754
14009SOL    HW247158   7.225   5.118   9.365 -0.4573 -0.2635 -0.0540
14010SOL     OW47159   4.556   3.883   3.567  0.1810  0.0316 -0.1436
14010SOL    HW147160   4.561   3.972   3.531 -0.0815 -0.1847 -0.6996
14010SOL    HW247161   4.644   3.847   3.553  0.5248  0.4673  0.7759
14011SOL     OW47162   9.136   9.002   1.933 -0.3610 -0.0648  0.2878
14011SOL    HW147163   9.168   8.991   1.844 -1.6713 -0.1299 -0.1815
14011SOL    HW247164   9.140   9.096   1.949 -0.9996  0.0441 -0.1757
14012SOL     OW47165   7.073   9.224   1.129  0.0659 -0.3297 -0.2970
14012SOL    HW147166   7.113   9.245   1.214 -1.1863  0.2707  0.1473
14012SOL    HW247167   7.145   9.233   1.066  0.5072  1.3286  0.4260
14013SOL     OW47168   6.605   8.432   3.416  0.5547  0.2318  0.6532
14013SOL    HW147169   6.600   8.435   3.512  0.6243 -0.1634  0.6698
14013SOL    HW247170   6.663   8.359   3.398  1.9579  1.3867  0.3520
14014SOL     OW47171   4.535   0.861   3.577  0.2056  0.7559  0.4578
14014SOL    HW147172   4.528   0.923   3.650 -1.3738  1.9067 -0.6349
14014SOL    HW247173   4.462   0.883   3.519  2.2840  0.8985 -2.2410
14015SOL     OW47174   2.010   9.887   0.250 -0.2120 -0.0722 -0.0793
14015SOL    HW147175   2.039   9.948   0.182  0.3108 -0.8908 -0.5926
14015SOL    HW247176   1.915   9.896   0.250 -0.0977  1.3174  0.3880
14016SOL     OW47177   7.300   3.865   4.006 -0.8277  0.3252  0.3670
14016SOL    HW147178   7.274   3.956   3.992 -0.7373  0.7812  2.9312
14016SOL    HW247179   7.374   3.852   3.946 -2.8608  0.9073 -2.3808
14017SOL     OW47180   7.123   8.322   2.530 -0.6995  0.1878 -0.2506
14017SOL    HW147181   7.036   8.318   2.569 -1.5927  1.3116 -2.0409
14017SOL    HW247182   7.114   8.275   2.447  0.6573 -0.4918 -0.0269
14018SOL     OW47183   9.603   2.182   5.741  0.1567  0.2784  0.2991
14018SOL    HW147184   9.551   2.243   5.688 -1.4323 -0.9944  0.3171
14018SOL    HW247185   9.678   2.160   5.686 -1.0700 -0.4185 -1.1291
14019SOL     OW47186   4.039   6.708   4.868 -0.1359 -0.3415  0.1280
14019SOL    HW147187   3.945   6.696   4.876 -0.3264  0.7430 -0.3833
14019SOL    HW247188   4.060   6.677   4.780  0.1374 -1.4071  0.5531
14020SOL     OW47189   6.187   0.633   5.618  0.1885 -0.3171 -0.3128
14020SOL    HW147190   6.179   0.617   5.712  0.1563 -1.6703 -0.5426
14020SOL    HW247191   6.103   0.674   5.594 -0.0397 -0.5125  0.1353
14021SOL     OW47192   3.761   1.808   2.968 -0.1472 -0.0061 -0.2485
14021SOL    HW147193   3.842   1.851   2.939  1.1115 -0.9037  1.7930
14021SOL    HW247194   3.766   1.720   2.929  0.2939 -0.3435  0.5484
14022SOL     OW47195   4.942   2.072   8.634  0.6942 -0.1669  0.1329
14022SOL    HW147196   5.019   2.039   8.678  0.9407 -0.0009 -0.1712
14022SOL    HW247197   4.885   1.996   8.624  0.1964 -0.0189  1.6283
14023SOL     OW47198  10.894   5.506   2.804 -0.6538  0.1616  0.8647
14023SOL    HW147199  10.913   5.438   2.869  1.0490  1.2810  1.5870
14023SOL    HW247200  10.819   5.473   2.755  0.9563 -2.8548  0.3374
14024SOL     OW47201   2.375   4.254   0.611  0.2964  0.0474 -1.2014
14024SOL    HW147202   2.332   4.313   0.673  0.0598 -0.0260 -1.2950
14024SOL    HW247203   2.468   4.276   0.617  0.2290  0.3120 -1.1099
14025SOL     OW47204   7.502   2.940   5.612  0.3254 -0.2036 -0.2579
14025SOL    HW147205   7.476   2.918   5.701  1.5016 -1.2423 -0.1499
14025SOL    HW247206   7.475   2.864   5.560  2.3247 -0.9074 -0.2834
14026SOL     OW47207   9.339   2.422   6.896  0.5978 -0.3748 -0.1667
14026SOL    HW147208   9.393   2.411   6.817  1.4912 -0.8780  0.5108
14026SOL    HW247209   9.263   2.366   6.881  0.5104 -0.0703 -0.8911
14027SOL     OW47210  10.527   1.465   9.745  0.2950  0.2879 -0.2306
14027SOL    HW147211  10.449   1.464   9.801  0.5746 -1.6626  0.1470
14027SOL    HW247212  10.580   1.538   9.779 -0.7926  0.8339  0.2964
14028SOL     OW47213   8.800   6.463   8.552  0.7360  0.0037 -0.4232
14028SOL    HW147214   8.726   6.405   8.565  0.1836  1.0719  1.4024
14028SOL    HW247215   8.762   6.551   8.551  1.7662  0.4638 -1.3571
14029SOL     OW47216   5.429   0.809   6.205  0.5376 -0.5583 -0.3700
14029SOL    HW147217   5.374   0.874   6.161  1.5184  0.5966  0.0937
14029SOL    HW247218   5.368   0.759   6.260 -0.4308 -0.9387 -1.7654
14030SOL     OW47219   6.713   9.337   6.543 -0.3710 -0.1756 -0.2639
14030SOL    HW147220   6.731   9.282   6.620 -0.1808  0.7200  0.3350
14030SOL    HW247221   6.780   9.312   6.480  0.1494 -0.1512  0.2651
14031SOL     OW47222   5.266   6.805   4.686  0.3501  0.7172 -0.2340
14031SOL    HW147223   5.361   6.807   4.675  0.3810 -1.0944 -0.3715
14031SOL    HW247224   5.232   6.829   4.600  0.6841 -2.2999 -1.2638
14032SOL     OW47225  11.062   8.568   6.571 -0.0407 -0.6019 -1.2021
14032SOL    HW147226  11.110   8.605   6.644 -1.0180 -0.8526 -0.4190
14032SOL    HW247227  11.073   8.632   6.500 -0.5995  0.5467 -0.2772
14033SOL     OW47228   0.883   8.584   9.109  0.7681  0.0795 -0.5145
14033SOL    HW147229   0.976   8.568   9.094  1.1724  0.6205  1.2972
14033SOL    HW247230   0.849   8.499   9.137  0.5775 -0.2641 -1.7559
14034SOL     OW47231   8.698   6.042   1.677  0.0986  0.1281 -0.1983
14034SOL    HW147232   8.705   6.047   1.772 -0.6980 -0.1605 -0.1176
14034SOL    HW247233   8.661   6.126   1.651 -3.2770 -1.1750  0.1321
14035SOL     OW47234   1.272  10.018   2.614 -0.0828  0.1041 -0.9793
14035SOL    HW147235   1.289   9.952   2.547  0.6988  0.9999 -1.6780
14035SOL    HW247236   1.354  10.024   2.663 -0.9074 -1.1475  0.6149
14036SOL     OW47237  10.691   1.043   8.081 -0.1332  0.2797 -0.1677
14036SOL    HW147238  10.694   0.971   8.018 -0.0783  0.6022 -0.5319
14036SOL    HW247239  10.753   1.017   8.149 -0.4508 -0.2277 -0.0729
14037SOL     OW47240   2.597  10.902   4.875 -0.3308 -0.3776 -0.2483
14037SOL    HW147241   2.625  10.921   4.965 -0.3050 -1.9433  0.0850
14037SOL    HW247242   2.511  10.944   4.869  0.1476  0.6885  0.1364
14038SOL     OW47243   1.308   6.126   9.408 -0.1963  0.2286 -0.1266
14038SOL    HW147244   1.340   6.160   9.325 -3.3134 -0.8321 -1.8446
14038SOL    HW247245   1.287   6.205   9.459  1.0833  0.8797 -0.5828
14039SOL     OW47246   4.456   1.799   0.954  0.2765 -0.1046  0.2747
14039SOL    HW147247   4.476   1.714   0.995  0.6571 -0.1316  0.0376
14039SOL    HW247248   4.488   1.864   1.017 -0.1966 -0.1366  0.5462
14040SOL     OW47249   4.500   1.573   3.370 -0.5605 -0.6931 -0.9548
14040SOL    HW147250   4.539   1.531   3.293  1.0813  0.7351 -0.9303
14040SOL    HW247251   4.544   1.532   3.445 -0.7737 -0.7202 -0.8435
14041SOL     OW47252   2.364   5.427   8.976 -0.3008  0.4447 -0.7566
14041SOL    HW147253   2.269   5.425   8.989 -0.4606  2.1726 -1.5631
14041SOL    HW247254   2.394   5.502   9.028  0.8669 -1.1598  0.9388
14042SOL     OW47255   4.395   1.710  10.933  0.0933 -0.0014 -0.2286
14042SOL    HW147256   4.340   1.764  10.990 -0.8979 -2.0777  0.8474
14042SOL    HW247257   4.376   1.741  10.844 -0.5139  1.3601  0.3740
14043SOL     OW47258   2.055   9.400   5.014 -0.2535  0.5077  0.5024
14043SOL    HW147259   2.068   9.494   5.005 -0.6763  0.6466  1.2569
14043SOL    HW247260   2.031   9.370   4.926 -0.1073  1.1009  0.2608
14044SOL     OW47261   6.222   2.414   4.206  0.0514 -0.7488 -0.0041
14044SOL    HW147262   6.289   2.476   4.178 -1.9166  1.6554  0.4422
14044SOL    HW247263   6.207   2.359   4.130  1.6118 -0.5056 -0.5049
14045SOL     OW47264   0.731   9.365  10.051 -0.5861  0.5745  0.4180
14045SOL    HW147265   0.704   9.394   9.964 -0.5704 -0.0857  0.1815
14045SOL    HW247266   0.703   9.273  10.054 -0.1645  0.4634  0.9301
14046SOL     OW47267   3.772   3.348   7.752  0.6321  0.3806 -0.0221
14046SOL    HW147268   3.835   3.311   7.690  0.5632  0.7130 -0.2936
14046SOL    HW247269   3.727   3.272   7.789 -0.4999  0.2457 -1.6112
14047SOL     OW47270   0.186   6.668   6.279 -0.4077 -0.4781 -0.3086
14047SOL    HW147271   0.182   6.754   6.320 -4.2710 -1.1277  0.9156
14047SOL    HW247272   0.218   6.609   6.348  1.0797 -0.2473 -0.7856
14048SOL     OW47273   9.513   7.498   3.635 -0.1704  0.4058  0.4603
14048SOL    HW147274   9.529   7.497   3.730 -0.2499 -0.5901  0.4654
14048SOL    HW247275   9.548   7.582   3.606 -2.1597  1.7342  1.7216
14049SOL     OW47276   3.188   5.467   4.786 -0.2962  0.1205  0.1926
14049SOL    HW147277   3.244   5.402   4.743 -1.6408  0.3789 -2.0131
14049SOL    HW247278   3.226   5.552   4.763 -2.2901  0.3701 -2.4859
14050SOL     OW47279   3.514   8.350   2.146  0.0195 -0.2477 -0.0507
14050SOL    HW147280   3.519   8.278   2.083  0.5989  1.0543 -1.5340
14050SOL    HW247281   3.605   8.365   2.172 -0.0753  0.1077  0.0789
14051SOL     OW47282   8.970   4.683   3.413 -0.2157  0.2008 -0.1137
14051SOL    HW147283   8.900   4.749   3.411  0.4676  0.9038 -1.7146
14051SOL    HW247284   8.939   4.618   3.477 -0.7944  2.1649  1.6895
14052SOL     OW47285   6.620   1.604   7.898 -0.4535  0.1768 -0.1469
14052SOL    HW147286   6.612   1.554   7.817 -2.7983  2.1195 -1.1906
14052SOL    HW247287   6.707   1.644   7.894 -0.3300 -0.2060 -1.4629
14053SOL     OW47288   9.171   5.672   5.272 -0.4242 -0.1987 -0.0384
14053SOL    HW147289   9.142   5.606   5.210 -0.9737  0.6228 -0.6723
14053SOL    HW247290   9.232   5.726   5.222  0.4300 -0.5399  0.6281
14054SOL     OW47291   7.417   7.675  10.317  0.1814  0.0649  0.0822
14054SOL    HW147292   7.497   7.623  10.303  0.1653 -0.0447  0.3858
14054SOL    HW247293   7.375   7.633  10.392  0.2666  0.6338  0.4494
14055SOL     OW47294  10.516   9.921   5.663 -0.0637  0.3150 -0.6761
14055SOL    HW147295  10.450   9.975   5.620 -1.3498  0.0322  0.8805
14055SOL    HW247296  10.550   9.865   5.593  1.4274  3.1942 -2.3610
14056SOL     OW47297   9.148   5.379   4.628  0.4803 -0.5959  0.5724
14056SOL    HW147298   9.120   5.470   4.632 -0.2803 -0.8364  0.7353
14056SOL    HW247299   9.070   5.328   4.652  0.5141 -1.3541 -0.8481
14057SOL     OW47300   0.516   8.133   8.246 -0.4177 -0.1853  0.0228
14057SOL    HW147301   0.588   8.120   8.307 -0.4508  4.5685  1.2799
14057SOL    HW247302   0.558   8.159   8.164 -0.5674 -1.3665 -0.4320
14058SOL     OW47303   4.899   4.668   4.621  0.4354 -0.7805  0.0078
14058SOL    HW147304   4.911   4.743   4.563 -0.3043  0.3958  1.3568
14058SOL    HW247305   4.804   4.656   4.625  0.4688 -0.6729  1.1917
14059SOL     OW47306   4.277   8.216  10.106  0.5936  0.3729  0.1768
14059SOL    HW147307   4.290   8.145  10.043 -1.1440  0.1418  0.0617
14059SOL    HW247308   4.241   8.174  10.183 -0.7682  1.1621 -0.0114
14060SOL     OW47309  10.512  11.197   2.589  0.2762  0.4392  0.3685
14060SOL    HW147310  10.594  11.247   2.594  0.0241  0.9654 -0.7004
14060SOL    HW247311  10.535  11.119   2.539  0.5161 -0.2312  1.4970
14061SOL     OW47312  11.328   9.726   1.420  0.3781  0.2734  0.2071
14061SOL    HW147313  11.371   9.747   1.337 -1.6454  2.0666 -0.4350
14061SOL    HW247314  11.239   9.699   1.395 -0.3887  1.2294  1.7987
14062SOL     OW47315   4.922   0.022   8.129 -0.1412 -0.0260  0.3836
14062SOL    HW147316   4.986  -0.048   8.141 -2.1367 -2.1857 -1.0404
14062SOL    HW247317   4.869   0.020   8.209  0.6482  0.7842  0.9307
14063SOL     OW47318   4.494   5.639  11.082  0.3854 -0.4038 -0.1928
14063SOL    HW147319   4.536   5.636  11.168 -2.3650 -0.3086  1.2208
14063SOL    HW247320   4.519   5.724  11.046  1.0096 -0.1468  0.8165
14064SOL     OW47321   4.138   9.451   8.752 -0.2214  0.3521 -0.5590
14064SOL    HW147322   4.149   9.487   8.840 -1.2406  0.3955 -0.4461
14064SOL    HW247323   4.214   9.393   8.740  0.6841  1.4596 -0.2171
14065SOL     OW47324   6.852   0.173   8.556 -0.3737 -0.4428  0.0445
14065SOL    HW147325   6.883   0.157   8.645  1.3030  0.8680 -0.2604
14065SOL    HW247326   6.843   0.086   8.517 -0.7952 -1.0051  1.3956
14066SOL     OW47327   3.880  10.037   3.613  0.6866 -0.0636 -0.2833
14066SOL    HW147328   3.798  10.029   3.564  1.6921 -0.5048 -1.9050
14066SOL    HW247329   3.864  10.110   3.673 -1.1722 -0.6484 -0.0152
14067SOL     OW47330   5.434   1.242   8.052  0.2446  0.0559 -0.0482
14067SOL    HW147331   5.449   1.295   7.974 -0.3061  1.7617  0.9506
14067SOL    HW247332   5.345   1.265   8.080 -0.2962 -1.9963 -0.0130
14068SOL     OW47333   8.285  10.172  10.063  0.2592  0.1374 -0.4244
14068SOL    HW147334   8.234  10.180  10.143  1.4048 -0.0993  0.3467
14068SOL    HW247335   8.331  10.256  10.056  0.1142  0.1828 -0.8797
14069SOL     OW47336   7.223   0.789   1.291  0.2739 -0.4764  0.0721
14069SOL    HW147337   7.138   0.783   1.335  0.2133 -2.5620 -0.2797
14069SOL    HW247338   7.203   0.772   1.199  0.7605  1.3601 -0.3984
14070SOL     OW47339   9.994   8.336   8.908 -0.6705  0.1066 -0.3272
14070SOL    HW147340   9.904   8.308   8.922  0.0640 -3.0776 -1.4689
14070SOL    HW247341  10.047   8.260   8.933  1.8744  2.6481  2.4074
14071SOL     OW47342   0.397   4.340   5.885  0.0106  0.2033  1.2081
14071SOL    HW147343   0.417   4.247   5.873 -2.0630  0.0673 -1.7550
14071SOL    HW247344   0.457   4.386   5.827 -1.8954  0.3835 -0.6801
14072SOL     OW47345  10.756   5.993   2.675  0.4144 -0.4377  0.4948
14072SOL    HW147346  10.672   5.968   2.714  0.4480  0.1537  0.9472
14072SOL    HW247347  10.749   6.088   2.662  0.3389 -0.6386 -1.0869
14073SOL     OW47348   1.855   2.733   5.818 -0.3573 -0.0797 -0.0836
14073SOL    HW147349   1.796   2.723   5.893 -1.6424  0.6591 -0.9836
14073SOL    HW247350   1.835   2.658   5.762 -1.3032  0.8408 -0.9748
14074SOL     OW47351   3.029   5.911  10.152  0.0957  0.3874  0.0088
14074SOL    HW147352   3.064   5.938  10.068  1.2900 -0.5177  0.1948
14074SOL    HW247353   2.987   5.989  10.188  1.1158  1.2476 -0.6475
14075SOL     OW47354   4.649   1.651   1.780 -0.1252 -0.3744  0.0311
14075SOL    HW147355   4.716   1.620   1.719 -1.6800 -0.8328 -1.4869
14075SOL    HW247356   4.621   1.572   1.827  1.4627  0.0641  1.7888
14076SOL     OW47357   4.647   0.417   8.910 -0.1216 -0.0685 -0.4669
14076SOL    HW147358   4.718   0.361   8.879  0.1273  1.0012 -1.8992
14076SOL    HW247359   4.621   0.467   8.833 -0.3001  1.8231  0.7958
14077SOL     OW47360   8.813   6.227   5.707 -0.3782  0.1611 -0.0527
14077SOL    HW147361   8.864   6.306   5.721  0.5147 -0.3308 -0.5362
14077SOL    HW247362   8.849   6.164   5.770 -1.0472  0.1164  0.2915
14078SOL     OW47363   5.314   8.130   6.599  0.5258  0.1489 -0.4221
14078SOL    HW147364   5.377   8.169   6.538  2.2977  0.4192  1.5243
14078SOL    HW247365   5.319   8.184   6.677 -1.2532 -0.5741  0.2156
14079SOL     OW47366   9.608   2.421   7.894  0.2979 -0.0602 -0.1260
14079SOL    HW147367   9.564   2.425   7.979  0.7608  1.6952  0.0547
14079SOL    HW247368   9.568   2.346   7.850 -0.1572 -0.8092  1.5186
14080SOL     OW47369   6.656   0.064   0.981 -0.1520  0.8503 -0.7496
14080SOL    HW147370   6.698   0.131   1.036 -0.6534 -0.5152  1.3370
14080SOL    HW247371   6.562   0.074   0.998 -0.3780  0.8421 -1.9029
14081SOL     OW47372  10.293   1.747   2.645  0.0007 -0.3661 -0.1075
14081SOL    HW147373  10.318   1.678   2.583  0.4218 -1.8190  1.6175
14081SOL    HW247374  10.358   1.816   2.631 -0.0433 -0.5670 -1.4235
14082SOL     OW47375   0.593   2.591  10.815  0.1579 -0.1315 -0.3233
14082SOL    HW147376   0.553   2.505  10.828  1.0925 -0.7120 -1.2698
14082SOL    HW247377   0.521   2.646  10.785 -0.3163 -0.7365 -0.3207
14083SOL     OW47378   3.109   0.388   1.965 -0.6850 -0.1286  0.0005
14083SOL    HW147379   3.060   0.349   1.893 -0.6502  1.8881 -1.1456
14083SOL    HW247380   3.043   0.432   2.019 -0.5061 -0.0924  0.1906
14084SOL     OW47381   8.259   5.785   2.314  0.8505  0.1466  0.2378
14084SOL    HW147382   8.180   5.837   2.300  1.0871  0.7276  1.0033
14084SOL    HW247383   8.319   5.844   2.360  1.3898 -0.5776  0.4830
14085SOL     OW47384   4.727   9.041   3.503  0.4849  0.1952  0.0027
14085SOL    HW147385   4.746   9.001   3.588 -0.9932  1.4759  0.9688
14085SOL    HW247386   4.789   9.114   3.496  0.9179 -0.1939 -0.2295
14086SOL     OW47387   7.165   8.329   3.737  0.4038  0.1422 -0.4188
14086SOL    HW147388   7.226   8.344   3.665 -0.9022 -1.5643 -1.9122
14086SOL    HW247389   7.196   8.248   3.778 -0.5045 -0.4207 -0.8274
14087SOL     OW47390   7.628  10.155   0.527 -0.3045  0.1369 -0.3820
14087SOL    HW147391   7.624  10.155   0.431 -0.7468 -2.3301 -0.3778
14087SOL    HW247392   7.561  10.092   0.554 -1.9363  2.6072  1.6558
14088SOL     OW47393   5.240   8.015   2.272 -0.4040  0.0314 -0.0137
14088SOL    HW147394   5.201   8.076   2.335 -2.0975 -0.7136 -0.3258
14088SOL    HW247395   5.178   8.012   2.199  0.6690 -0.4988 -0.9211
14089SOL     OW47396   7.258  11.335   9.437  0.3757  0.1914  0.6225
14089SOL    HW147397   7.277  11.426   9.461  0.5626  0.0136  1.1805
14089SOL    HW247398   7.174  11.316   9.479 -0.7315  0.7778 -1.3125
14090SOL     OW47399   9.887   5.979   9.123  0.1416 -0.3243 -0.5152
14090SOL    HW147400   9.801   6.021   9.133  0.0225 -0.9209  1.1821
14090SOL    HW247401   9.867   5.886   9.112  0.5229 -0.2864 -1.6307
14091SOL     OW47402   0.222  10.305   9.713 -0.3760  0.2929  0.1545
14091SOL    HW147403   0.208  10.364   9.787 -1.2622 -0.0544  0.2777
14091SOL    HW247404   0.149  10.324   9.654  0.7046  1.0616 -0.9629
14092SOL     OW47405   7.796  10.576  10.007 -0.0064 -0.0581 -0.1051
14092SOL    HW147406   7.766  10.650   9.955  1.1884  0.7464  0.3392
14092SOL    HW247407   7.798  10.502   9.945 -0.3222  0.4769 -0.7559
14093SOL     OW47408   5.358   9.412   1.592 -0.3527  0.1955  0.7031
14093SOL    HW147409   5.313   9.361   1.525  1.6863 -0.2272 -0.3865
14093SOL    HW247410   5.293   9.474   1.623 -1.4220  0.1839 -1.4511
14094SOL     OW47411   7.605   1.266   2.788  0.6459  0.5500  0.0092
14094SOL    HW147412   7.657   1.339   2.823  0.2547  0.0953  1.5916
14094SOL    HW247413   7.579   1.294   2.701  2.0819  1.5204 -0.1231
14095SOL     OW47414   0.325   7.980   4.728  0.2582  0.4857  0.3302
14095SOL    HW147415   0.258   8.018   4.671  1.0695 -1.2508 -1.8751
14095SOL    HW247416   0.275   7.928   4.791 -0.5391 -0.5191 -1.0759
14096SOL     OW47417   2.364   4.924   7.814 -0.3803 -0.0312 -0.6956
14096SOL    HW147418   2.344   4.993   7.877  1.7957 -1.2147  1.3924
14096SOL    HW247419   2.329   4.955   7.731 -3.0521  1.7285  1.0377
14097SOL     OW47420   1.164   5.868   0.154  0.4020  0.3524  1.1786
14097SOL    HW147421   1.111   5.938   0.192  2.0987  1.2563  1.9412
14097SOL    HW247422   1.102   5.796   0.139 -1.1044  1.5380  1.6258
14098SOL     OW47423   3.009   0.629   4.957  0.1149 -0.2763 -0.0548
14098SOL    HW147424   3.071   0.575   4.908  1.6902  0.7426  0.7887
14098SOL    HW247425   2.993   0.704   4.899 -0.6665 -0.7487 -0.4539
14099SOL     OW47426  10.840   3.554   4.698 -0.5457  0.3679 -0.5273
14099SOL    HW147427  10.920   3.520   4.737 -1.4442  2.0375  3.0007
14099SOL    HW247428  10.782   3.478   4.693  0.8399 -0.6144 -2.0587
14100SOL     OW47429   8.619   6.812   4.980  0.1911 -0.1689 -0.2777
14100SOL    HW147430   8.652   6.898   5.008  0.0826  0.2731 -1.4928
14100SOL    HW247431   8.524   6.822   4.981  0.1580 -0.5257  0.3398
14101SOL     OW47432   6.531   7.808  10.933  0.1296  0.0021  0.2723
14101SOL    HW147433   6.542   7.825  10.839  0.8252 -0.7954  0.2007
14101SOL    HW247434   6.542   7.894  10.974  2.0894 -0.0026 -0.1900
14102SOL     OW47435   3.421   3.689   2.414 -0.4604  0.0500 -0.0562
14102SOL    HW147436   3.415   3.672   2.508 -1.3793  1.3802  0.1405
14102SOL    HW247437   3.334   3.668   2.381  0.5915 -2.9158 -1.0547
14103SOL     OW47438   6.297  10.534   1.556 -0.1471  0.6430 -0.1596
14103SOL    HW147439   6.381  10.576   1.541  0.2217 -1.1390 -3.3481
14103SOL    HW247440   6.271  10.499   1.471 -2.9784 -0.9398  1.2710
14104SOL     OW47441   6.443   3.040   3.188 -0.3664 -0.1242  0.0974
14104SOL    HW147442   6.425   3.011   3.099  0.8288 -0.2765 -0.1088
14104SOL    HW247443   6.361   3.080   3.218 -0.8609 -0.3329 -0.9553
14105SOL     OW47444   7.675   3.662   6.162 -0.1689  0.0424  0.0042
14105SOL    HW147445   7.674   3.737   6.221 -0.3500  0.0488 -0.0062
14105SOL    HW247446   7.756   3.615   6.183 -0.0509  0.2471  0.0022
14106SOL     OW47447   4.849   3.309   5.429  0.2285  0.0525 -0.1257
14106SOL    HW147448   4.821   3.395   5.397  0.2266  0.0494 -0.1322
14106SOL    HW247449   4.884   3.265   5.352  2.2739  0.8688  0.2982
14107SOL     OW47450  10.382   8.906   4.504 -0.4386  0.5060 -0.5582
14107SOL    HW147451  10.455   8.861   4.547 -0.4151  0.3015 -0.8150
14107SOL    HW247452  10.343   8.959   4.574  0.1538  0.8695 -0.4949
14108SOL     OW47453   7.352   6.509   6.320  0.1357  0.4976 -0.3336
14108SOL    HW147454   7.342   6.430   6.374  0.1603  0.8792  0.2392
14108SOL    HW247455   7.294   6.494   6.245  0.1749 -0.0836 -0.2509
14109SOL     OW47456   3.185   3.560   1.841  0.1423 -0.6375  0.4659
14109SOL    HW147457   3.259   3.504   1.863 -1.4971 -2.1159  2.3872
14109SOL    HW247458   3.206   3.644   1.882  1.2810 -0.6639 -0.0231
14110SOL     OW47459   6.018   2.283  10.915 -0.1076 -0.5613  0.0649
14110SOL    HW147460   5.979   2.338  10.847  0.0882 -1.2290 -0.5961
14110SOL    HW247461   6.092   2.240  10.872  1.4463  0.7900  1.3541
14111SOL     OW47462   3.381   7.527   1.831  0.1847  0.3355 -0.2211
14111SOL    HW147463   3.292   7.559   1.818  0.8197  2.0876 -0.4104
14111SOL    HW247464   3.398   7.471   1.755 -1.1425 -0.9351  0.3994
14112SOL     OW47465   5.669   3.245  11.328  0.0046  0.4016 -0.5670
14112SOL    HW147466   5.624   3.288  11.401 -0.1779 -2.6873  1.1973
14112SOL    HW247467   5.655   3.304  11.253 -4.1283  1.1245  0.6807
14113SOL     OW47468  10.297   9.288   4.181 -0.5755  0.5040  0.0988
14113SOL    HW147469  10.236   9.342   4.232 -0.0122  1.1173  0.1267
14113SOL    HW247470  10.346   9.350   4.127  0.9159  0.1540  1.0133
14114SOL     OW47471   0.588   8.299  11.038  0.3494  0.1749 -0.4132
14114SOL    HW147472   0.624   8.213  11.061 -0.6020 -0.3896 -0.9850
14114SOL    HW247473   0.564   8.290  10.946  0.1695  1.0350 -0.4503
14115SOL     OW47474  10.707   7.923   5.598 -0.0513  0.2603 -0.7759
14115SOL    HW147475  10.795   7.921   5.561  0.4971  0.4559  0.5037
14115SOL    HW247476  10.651   7.889   5.528  0.7384  2.2486 -2.4132
14116SOL     OW47477   0.023   6.864   2.773  0.7370 -0.2822 -0.3233
14116SOL    HW147478   0.102   6.809   2.776  1.0855  0.2560  0.5683
14116SOL    HW247479  -0.019   6.851   2.858  0.2218 -0.0449 -0.5383
14117SOL     OW47480   9.045   2.508   5.886 -0.0435  0.3514 -0.4857
14117SOL    HW147481   9.002   2.548   5.811 -1.1975 -0.2602 -0.1653
14117SOL    HW247482   9.100   2.439   5.849 -1.1874 -0.4513 -0.7239
14118SOL     OW47483   2.649   7.334   5.540 -0.0663  0.3274 -0.2779
14118SOL    HW147484   2.592   7.290   5.477  0.0053  1.9515 -1.5043
14118SOL    HW247485   2.664   7.421   5.502  3.5077 -0.1686 -0.1452
14119SOL     OW47486   6.112  10.280   0.626 -0.2310  0.1816 -0.0219
14119SOL    HW147487   6.116  10.312   0.716  0.7363  0.6640 -0.2244
14119SOL    HW247488   6.046  10.335   0.583 -0.4970  0.1293  0.3244
14120SOL     OW47489   7.321   2.417   1.298  0.1078 -0.7064 -0.5067
14120SOL    HW147490   7.379   2.407   1.374 -0.3715  0.9077  0.0949
14120SOL    HW247491   7.253   2.351   1.311 -0.5121  0.2115  0.9889
14121SOL     OW47492  10.426   7.400  10.495 -0.2234  0.1690 -0.0378
14121SOL    HW147493  10.429   7.491  10.525 -1.7891  0.1893  0.0600
14121SOL    HW247494  10.334   7.376  10.497 -0.0860 -0.7260 -2.1320
14122SOL     OW47495   3.929   6.894   9.649 -0.0894 -0.4978  0.0750
14122SOL    HW147496   3.977   6.958   9.596 -0.7758 -1.2291 -1.4615
14122SOL    HW247497   3.994   6.827   9.670  0.4032  0.2340  0.9129
14123SOL     OW47498   8.670   8.363   9.687 -0.6467  0.4568  0.2589
14123SOL    HW147499   8.647   8.454   9.668  0.4996  0.7115  0.0309
14123SOL    HW247500   8.653   8.316   9.605 -2.7065  0.1673  0.8391
14124SOL     OW47501  10.396   9.945   6.888 -0.2477 -0.4773 -0.4249
14124SOL    HW147502  10.440   9.955   6.973  0.6665 -1.5330 -0.7559
14124SOL    HW247503  10.331   9.875   6.903 -0.9885  0.2388 -0.2568
14125SOL     OW47504   1.289  10.493   4.166  0.0727 -0.2450  0.1449
14125SOL    HW147505   1.310  10.403   4.189 -0.6722 -0.3096  0.5937
14125SOL    HW247506   1.362  10.521   4.110  0.4043 -1.0555  0.1588
14126SOL     OW47507  10.904   8.702   1.815 -0.5909  0.8023 -0.0403
14126SOL    HW147508  10.943   8.718   1.901  0.7758 -0.8137 -0.3278
14126SOL    HW247509  10.836   8.769   1.807  1.2027  2.8601  1.0740
14127SOL     OW47510   6.715   0.625   6.303 -0.1219 -0.0575 -0.0089
14127SOL    HW147511   6.635   0.644   6.352  0.3431  0.4445  0.5746
14127SOL    HW247512   6.703   0.667   6.218 -0.9235 -0.9025 -0.3237
14128SOL     OW47513   9.692   0.779  10.254 -0.0723 -0.0929 -0.5178
14128SOL    HW147514   9.764   0.843  10.258 -0.3297  0.2858 -1.7255
14128SOL    HW247515   9.694   0.735  10.339 -0.0418  1.6848  0.4174
14129SOL     OW47516   9.541   4.445   5.512  0.3588  0.0042  0.2331
14129SOL    HW147517   9.585   4.458   5.596 -1.1048 -0.2833  1.0760
14129SOL    HW247518   9.608   4.410   5.454  1.4222  0.3263  1.2481
14130SOL     OW47519   3.460   2.237  11.096 -0.2588 -0.0650  0.9159
14130SOL    HW147520   3.512   2.302  11.143  2.1489 -1.1462 -0.1662
14130SOL    HW247521   3.419   2.287  11.025  0.6845  0.5110  0.7580
14131SOL     OW47522   1.840   5.753   5.391  0.6566 -0.0990  0.5052
14131SOL    HW147523   1.888   5.810   5.450 -0.6524 -0.3215  1.8147
14131SOL    HW247524   1.765   5.723   5.442 -0.0746 -0.9243 -1.0128
14132SOL     OW47525   3.003   9.916   8.298 -0.2300 -0.4286  0.0862
14132SOL    HW147526   2.961   9.973   8.234 -1.2331 -1.8765 -0.5669
14132SOL    HW247527   2.985   9.827   8.267  1.2809 -1.1068  1.1035
14133SOL     OW47528   6.617   3.945   3.041 -0.0295 -0.4793 -0.3966
14133SOL    HW147529   6.586   3.892   3.114  0.2656  1.2431  1.0170
14133SOL    HW247530   6.540   3.995   3.014 -0.0425 -0.8347 -1.0227
14134SOL     OW47531  10.399   1.331   7.116  0.4176 -0.1729 -0.1869
14134SOL    HW147532  10.362   1.388   7.049 -0.0214 -0.1328  0.0823
14134SOL    HW247533  10.385   1.378   7.198  0.9984 -0.1951 -0.0736
14135SOL     OW47534   8.582   9.295  10.458  0.0579  0.2257 -0.0011
14135SOL    HW147535   8.533   9.336  10.387  0.9816 -1.5427 -1.7259
14135SOL    HW247536   8.644   9.362  10.486 -0.2717  0.9222 -0.9128
14136SOL     OW47537   8.834  11.222   3.354  0.0604 -0.6605  0.6591
14136SOL    HW147538   8.870  11.134   3.356 -0.7284 -0.9473  2.8822
14136SOL    HW247539   8.896  11.275   3.404 -0.4807 -0.3602  1.0256
14137SOL     OW47540   3.773   2.676   3.413  0.2942  0.1390  0.2135
14137SOL    HW147541   3.841   2.743   3.421  1.2227 -0.5548 -1.6286
14137SOL    HW247542   3.811   2.611   3.354 -0.5876 -2.0260  2.0057
14138SOL     OW47543   8.044  11.279   7.251 -0.0128 -0.0227  0.2111
14138SOL    HW147544   7.987  11.221   7.301  0.3175  0.2778  0.9334
14138SOL    HW247545   8.067  11.349   7.312  2.1603 -0.7998  0.3066
14139SOL     OW47546   3.720   8.597   3.296  0.2949 -0.0781  0.5530
14139SOL    HW147547   3.700   8.650   3.372 -0.2082  0.2692  0.1812
14139SOL    HW247548   3.642   8.602   3.241 -0.2029 -2.0956  1.0203
14140SOL     OW47549   5.541   7.000   5.034 -0.2448 -0.0965  0.2058
14140SOL    HW147550   5.623   6.984   5.081  0.2409 -0.4856 -0.7506
14140SOL    HW247551   5.490   6.920   5.048 -1.2640  0.9030  2.3946
14141SOL     OW47552   7.405   9.702   8.078 -0.1025 -0.1537 -0.2723
14141SOL    HW147553   7.382   9.748   8.159 -0.4837  0.2384 -0.6007
14141SOL    HW247554   7.496   9.675   8.091  0.2653  1.0642 -0.2359
14142SOL     OW47555   5.449   9.580  11.224 -0.3088  0.0942 -0.4040
14142SOL    HW147556   5.466   9.672  11.208 -0.0415  0.4021  1.5175
14142SOL    HW247557   5.354   9.571  11.214 -0.4513  0.7696  0.3103
14143SOL     OW47558   8.860   3.320   4.149  0.0960  0.5884  0.0110
14143SOL    HW147559   8.806   3.321   4.229 -0.1756  0.5009 -0.1695
14143SOL    HW247560   8.848   3.408   4.112 -0.2825  0.4231 -0.2656
14144SOL     OW47561   3.190   2.008   3.965 -0.3446  0.0830  0.5416
14144SOL    HW147562   3.246   1.937   3.933  0.0119  0.3270  0.6235
14144SOL    HW247563   3.121   2.015   3.899 -1.1498 -1.2607  1.2297
14145SOL     OW47564   6.053   1.122  10.020 -0.0475 -0.1982 -0.4785
14145SOL    HW147565   6.089   1.111   9.932  2.4905  0.5306  0.4053
14145SOL    HW247566   6.125   1.161  10.070 -1.3083 -0.9888  2.0247
14146SOL     OW47567   4.631   3.688   9.499 -0.7579 -0.0371  0.1893
14146SOL    HW147568   4.647   3.782   9.495 -0.2142  0.0216  2.7731
14146SOL    HW247569   4.555   3.674   9.443  0.5553  1.5666 -2.0931
14147SOL     OW47570  10.068   1.710   3.270  0.1904 -0.4075  0.5558
14147SOL    HW147571  10.073   1.735   3.178  2.0840 -1.7261  0.2577
14147SOL    HW247572  10.061   1.614   3.268  0.3325 -0.4514  1.7840
14148SOL     OW47573   3.404   9.814  11.061 -0.4750  0.1543 -0.7194
14148SOL    HW147574   3.421   9.823  11.155 -1.2363  0.0296 -0.5656
14148SOL    HW247575   3.314   9.842  11.050 -0.9340 -1.4164 -1.1461
14149SOL     OW47576   4.017   6.535   0.147  0.0387 -0.1894  0.4493
14149SOL    HW147577   3.968   6.556   0.226 -2.8768 -1.2484 -0.9999
14149SOL    HW247578   3.992   6.604   0.085  1.7783  0.2506  0.2188
14150SOL     OW47579   4.966   4.541   5.013 -0.0349  0.1832 -0.7634
14150SOL    HW147580   5.023   4.519   4.939 -2.2768 -2.0167 -1.8810
14150SOL    HW247581   4.902   4.602   4.976 -1.5591 -1.4329 -0.8178
14151SOL     OW47582   6.412   2.565   7.657  0.4155 -0.0442  0.0251
14151SOL    HW147583   6.442   2.540   7.744 -1.3237 -1.1445  0.3326
14151SOL    HW247584   6.347   2.634   7.673 -0.9363 -1.2292 -0.2938
14152SOL     OW47585   9.370   3.937   7.837 -0.1676 -0.2914  0.0379
14152SOL    HW147586   9.285   3.894   7.849 -0.6331  1.1674  2.2113
14152SOL    HW247587   9.357   4.026   7.868  1.9319  0.2078 -0.4174
14153SOL     OW47588   9.160   7.805   2.053 -0.6558 -0.4520  0.0662
14153SOL    HW147589   9.206   7.759   2.124  0.7169 -0.4952 -0.8384
14153SOL    HW247590   9.149   7.894   2.087  0.6245 -0.2819  0.0769
14154SOL     OW47591   9.961   6.227   9.349  0.4277  0.1297 -0.2004
14154SOL    HW147592   9.927   6.158   9.292 -0.8472 -0.4930  1.2639
14154SOL    HW247593   9.935   6.200   9.437  2.1107  1.2206  0.6499
14155SOL     OW47594   4.815   2.527  10.837 -0.0625 -0.3453 -0.1140
14155SOL    HW147595   4.728   2.559  10.812  0.7120  0.2422 -2.1810
14155SOL    HW247596   4.870   2.548  10.762  1.9901 -0.2598  1.3894
14156SOL     OW47597  10.025   2.080   4.386 -0.2226  0.4934 -0.4733
14156SOL    HW147598  10.054   2.133   4.460  0.9804  1.6087 -1.7320
14156SOL    HW247599   9.929   2.083   4.391 -0.1571  0.7677  0.8775
14157SOL     OW47600   5.478   9.508   7.318  0.3466  0.0524 -0.2309
14157SOL    HW147601   5.555   9.559   7.294  0.2568  0.3556  0.1125
14157SOL    HW247602   5.417   9.519   7.244  1.0839 -1.1499 -1.0391
14158SOL     OW47603  10.925   0.215   7.743 -0.0534  0.3479  0.3476
14158SOL    HW147604  11.005   0.252   7.707  0.1003 -0.9662 -0.7205
14158SOL    HW247605  10.927   0.123   7.715 -0.3700 -0.5070  2.9415
14159SOL     OW47606  10.478   3.764   8.186 -0.5336 -0.4404  0.0362
14159SOL    HW147607  10.514   3.850   8.166  1.2336 -1.0411  0.5280
14159SOL    HW247608  10.384   3.772   8.167 -0.7637  2.1582  1.9201
14160SOL     OW47609   8.757   0.482   2.649 -0.7648  0.1435 -0.0541
14160SOL    HW147610   8.706   0.403   2.631  1.4024 -1.0849 -0.9235
14160SOL    HW247611   8.843   0.464   2.612  0.5993  1.8227  2.2157
14161SOL     OW47612   3.099   3.080   5.178  0.1695  0.4978  0.0782
14161SOL    HW147613   3.035   3.011   5.159  1.7876 -1.3852  1.4029
14161SOL    HW247614   3.099   3.088   5.273  2.0090  0.4066  0.0968
14162SOL     OW47615   6.734   9.667   6.585  0.4455 -0.0245 -0.1688
14162SOL    HW147616   6.807   9.724   6.561  0.9125 -0.6195 -0.1706
14162SOL    HW247617   6.775   9.585   6.614 -0.2359 -0.5253 -0.5973
14163SOL     OW47618   0.096   9.042   5.471  0.1427 -0.0784  0.3287
14163SOL    HW147619   0.033   9.002   5.531 -1.2156  2.4933  0.6778
14163SOL    HW247620   0.143   9.105   5.525  0.1271  0.9917 -0.8929
14164SOL     OW47621   2.410   7.546   3.873 -0.5195 -0.2386  0.2926
14164SOL    HW147622   2.410   7.451   3.872  0.3374 -0.2328 -1.8287
14164SOL    HW247623   2.488   7.570   3.923  0.8082 -0.6448 -1.5862
14165SOL     OW47624   9.789   9.252   2.265 -0.1446  0.6966 -0.6837
14165SOL    HW147625   9.768   9.159   2.261  1.2623  0.3736 -0.8814
14165SOL    HW247626   9.731   9.286   2.333 -0.9711 -0.2370 -0.9076
14166SOL     OW47627   2.333   0.620   2.929  0.0921  0.2243 -0.7224
14166SOL    HW147628   2.348   0.528   2.954  0.2685  0.4886  0.1580
14166SOL    HW247629   2.245   0.620   2.890  0.8203 -0.6478 -2.4509
14167SOL     OW47630   2.475   6.322   4.147  0.4325  0.5015 -0.3250
14167SOL    HW147631   2.390   6.330   4.104  1.1921 -0.9555 -2.1231
14167SOL    HW247632   2.470   6.382   4.222 -1.1956  2.4516 -1.9696
14168SOL     OW47633   0.809   5.113   9.836  0.5019  0.2894 -0.8290
14168SOL    HW147634   0.893   5.153   9.815  0.5351 -0.0753 -1.3901
14168SOL    HW247635   0.831   5.041   9.895  0.7452 -0.7584 -2.1726
14169SOL     OW47636   4.972   8.393   0.744 -0.4341 -0.3613  0.1078
14169SOL    HW147637   5.036   8.338   0.701 -0.7121 -0.6866  0.1121
14169SOL    HW247638   5.005   8.403   0.834 -0.5519 -0.7862  0.1989
14170SOL     OW47639   0.302   7.295  10.340  0.6120 -0.1812 -0.8740
14170SOL    HW147640   0.361   7.348  10.393  0.7465  0.1192 -1.3226
14170SOL    HW247641   0.255   7.358  10.285 -1.8549 -0.1602  1.1494
14171SOL     OW47642   3.840  10.924   8.548 -0.6928 -0.0901 -0.0736
14171SOL    HW147643   3.847  10.983   8.623  2.0933 -1.8151  1.1307
14171SOL    HW247644   3.781  10.855   8.576 -1.1281  0.2503 -0.1585
14172SOL     OW47645   0.478   2.388   0.596  0.0781 -0.0079  0.4275
14172SOL    HW147646   0.498   2.473   0.556  0.2527  0.2410  1.0324
14172SOL    HW247647   0.532   2.385   0.675 -0.3473 -0.4398  0.7117
14173SOL     OW47648   7.584   6.859   1.948 -0.6778 -0.4397 -0.2093
14173SOL    HW147649   7.500   6.894   1.918 -1.2324 -0.6335  1.0863
14173SOL    HW247650   7.573   6.764   1.944 -0.4512 -0.4654 -0.2179
14174SOL     OW47651   8.190   4.184   1.584  0.1510  0.2840 -0.4816
14174SOL    HW147652   8.227   4.191   1.496  0.5312 -0.7464 -0.4027
14174SOL    HW247653   8.265   4.191   1.643 -0.0988  0.9380 -0.2364
14175SOL     OW47654   2.917   0.727   3.847  0.3153  0.0595  0.0065
14175SOL    HW147655   2.850   0.714   3.780  0.0903  0.0792  0.2308
14175SOL    HW247656   2.914   0.647   3.900 -0.6569  0.7609  1.0179
14176SOL     OW47657   8.677   4.807  10.526  0.1846 -0.1460  0.0814
14176SOL    HW147658   8.702   4.725  10.483  0.5578 -0.0996  0.2044
14176SOL    HW247659   8.743   4.820  10.594  0.2185  0.3351 -0.0386
14177SOL     OW47660   4.403   7.551   9.906 -0.1680 -0.6342  0.0437
14177SOL    HW147661   4.497   7.569   9.901 -0.1302 -1.1647 -1.6671
14177SOL    HW247662   4.361   7.634   9.882 -0.1053 -0.6381 -0.0842
14178SOL     OW47663  10.613   5.065   2.629  0.4360 -0.4971  0.4252
14178SOL    HW147664  10.675   4.992   2.620 -0.5654 -1.2404 -0.4616
14178SOL    HW247665  10.528   5.023   2.642  0.2690  0.5244  2.9739
14179SOL     OW47666   1.263   0.604   0.838 -0.1148  0.0769  0.1456
14179SOL    HW147667   1.279   0.536   0.903 -3.7226 -2.0242 -1.0230
14179SOL    HW247668   1.295   0.567   0.756  2.1612  1.7339  0.2228
14180SOL     OW47669   4.896   5.627   2.297  0.0470  0.5843  0.0817
14180SOL    HW147670   4.870   5.660   2.383 -0.1502  0.6400  0.0016
14180SOL    HW247671   4.840   5.550   2.283 -1.4342  1.8099 -0.9216
14181SOL     OW47672   9.387   6.132   7.137 -0.0941 -0.3784  0.4467
14181SOL    HW147673   9.340   6.056   7.103  0.9476 -1.6167  1.7012
14181SOL    HW247674   9.319   6.197   7.155 -0.9625 -0.8975 -0.9436
14182SOL     OW47675   0.727   7.992   1.991  0.2588 -0.1297  0.4385
14182SOL    HW147676   0.732   7.999   2.086 -0.4750  1.2916  0.3830
14182SOL    HW247677   0.816   8.012   1.961  0.8972 -2.1617  0.8844
14183SOL     OW47678   1.193   9.624   8.931 -0.3862  0.2998  0.6302
14183SOL    HW147679   1.198   9.636   9.026 -2.7743 -1.9303  1.0896
14183SOL    HW247680   1.101   9.608   8.914  0.1839 -0.4278 -1.9547
14184SOL     OW47681   6.360   9.274   0.652  0.3182 -0.7324  0.7977
14184SOL    HW147682   6.314   9.194   0.675  1.8012 -1.5732  0.8907
14184SOL    HW247683   6.318   9.342   0.705 -1.3514 -1.3311  0.2437
14185SOL     OW47684   1.319  11.186   0.514 -0.4570  0.0317 -0.2776
14185SOL    HW147685   1.412  11.206   0.515 -0.6845  1.1720 -0.7637
14185SOL    HW247686   1.308  11.117   0.579  0.4380  1.2128  1.1418
14186SOL     OW47687   5.690   6.826   0.356  0.2666 -0.2472  0.2231
14186SOL    HW147688   5.769   6.809   0.407  1.7358  2.0976 -1.2191
14186SOL    HW247689   5.691   6.760   0.287  0.8560 -0.3156  0.2978
14187SOL     OW47690   6.022   0.595   0.157  0.2321 -0.4962 -0.1395
14187SOL    HW147691   6.067   0.586   0.241  0.4883  0.2936 -0.1885
14187SOL    HW247692   5.991   0.506   0.137 -1.5661 -0.3427  1.7542
14188SOL     OW47693   8.981   4.493   8.876 -0.1588  0.0125  0.5248
14188SOL    HW147694   9.053   4.541   8.916 -0.7124 -0.9137  2.7339
14188SOL    HW247695   9.023   4.421   8.829  0.4636  0.4682  0.3815
14189SOL     OW47696   9.629   7.312   6.105  0.2776  0.5093  0.3564
14189SOL    HW147697   9.631   7.219   6.127 -1.5607  0.3071 -0.2547
14189SOL    HW247698   9.690   7.322   6.032 -0.2432 -0.3719 -0.1917
14190SOL     OW47699   2.204   0.366   6.964 -0.1891  0.4494  0.1581
14190SOL    HW147700   2.189   0.389   6.872 -0.1250  0.2399  0.0949
14190SOL    HW247701   2.284   0.313   6.962 -0.6898 -0.3095  0.2332
14191SOL     OW47702   4.316   0.381   4.196 -0.1743  0.6837 -0.0018
14191SOL    HW147703   4.399   0.338   4.176 -0.5252  0.6459 -1.3917
14191SOL    HW247704   4.256   0.351   4.128 -0.5861  2.8893 -0.6580
14192SOL     OW47705   9.968   2.655   4.946  0.0960  0.8610  0.3391
14192SOL    HW147706   9.992   2.645   5.038  2.0280  1.0164 -0.1153
14192SOL    HW247707   9.875   2.635   4.943  0.1406  0.2647  2.2280
14193SOL     OW47708   2.967   2.506  10.848  0.4789  0.6194 -0.1375
14193SOL    HW147709   2.962   2.423  10.895 -0.9182  0.5422 -0.4031
14193SOL    HW247710   2.934   2.571  10.911  1.7248  0.9961  0.1281
14194SOL     OW47711   7.602   6.333  10.362 -0.7279  0.6434 -0.1158
14194SOL    HW147712   7.510   6.307  10.366 -1.0043  1.3036 -1.8808
14194SOL    HW247713   7.604   6.405  10.299  1.3778 -1.0699 -2.0740
14195SOL     OW47714   9.543  10.337   2.405 -0.4332 -0.3104 -0.0563
14195SOL    HW147715   9.519  10.406   2.343 -1.3423 -1.7376 -1.3304
14195SOL    HW247716   9.638  10.330   2.398 -0.4211  0.2775 -0.4967
14196SOL     OW47717   4.437   5.216   6.928 -0.1260  0.4514 -0.2873
14196SOL    HW147718   4.408   5.151   6.864 -1.3741  1.3864 -0.6939
14196SOL    HW247719   4.529   5.231   6.906  0.1408 -1.0375 -0.2844
14197SOL     OW47720   4.900   3.443   6.282  0.2944 -0.2994  0.3641
14197SOL    HW147721   4.959   3.426   6.356  1.3466 -1.2525 -0.6772
14197SOL    HW247722   4.954   3.429   6.204 -0.9482  0.1709 -0.6018
14198SOL     OW47723   2.755   4.021   4.641 -0.3122 -0.3669 -0.5726
14198SOL    HW147724   2.728   3.944   4.691 -0.4693  0.9873  1.5077
14198SOL    HW247725   2.676   4.076   4.637 -0.0952 -0.1253 -1.6800
14199SOL     OW47726   3.637   0.875   8.658  0.2469 -0.3267  0.0232
14199SOL    HW147727   3.586   0.905   8.582 -0.6116 -0.2466  0.6248
14199SOL    HW247728   3.724   0.913   8.645 -0.8367  2.5551  0.8070
14200SOL     OW47729   7.955   9.577   6.046 -0.0815 -0.0863 -0.5759
14200SOL    HW147730   7.992   9.625   5.973 -0.8200  2.8038  0.8821
14200SOL    HW247731   8.013   9.501   6.056  1.5928  0.8895 -2.4368
14201SOL     OW47732  10.749   8.215   8.139 -0.6145 -0.1582  0.1081
14201SOL    HW147733  10.706   8.275   8.078  1.3322 -0.1703 -1.3208
14201SOL    HW247734  10.818   8.268   8.179  0.6362 -1.2392 -0.6178
14202SOL     OW47735   6.281   4.970   4.215 -0.5254  0.8987 -0.1330
14202SOL    HW147736   6.344   5.041   4.211 -0.2574  0.7046  0.5505
14202SOL    HW247737   6.214   5.000   4.277 -0.5686  0.6831 -0.0738
14203SOL     OW47738   0.274   8.213   3.689  0.1677 -0.1194 -0.2949
14203SOL    HW147739   0.251   8.295   3.731  1.5309 -0.3176  0.9071
14203SOL    HW247740   0.361   8.192   3.723  1.3425 -0.2873 -3.2495
14204SOL     OW47741   9.239   5.253   2.048  0.5594  0.3474  0.1083
14204SOL    HW147742   9.229   5.252   2.143 -1.6750  2.9290 -0.0233
14204SOL    HW247743   9.326   5.288   2.032  1.3741 -1.1559  1.1995
14205SOL     OW47744   9.739   2.495   3.589  0.0115  0.8484 -0.0571
14205SOL    HW147745   9.780   2.412   3.564 -1.5998 -0.0909  0.3451
14205SOL    HW247746   9.708   2.480   3.678  1.3824  2.5441  0.7362
14206SOL     OW47747   9.340   1.948  10.629  0.0683 -0.2798  0.2785
14206SOL    HW147748   9.388   1.954  10.712  0.1219  0.7808  0.1764
14206SOL    HW247749   9.270   2.013  10.637 -0.4268 -0.7561 -0.1786
14207SOL     OW47750   5.845   6.907   5.024  0.2738  0.6194  0.0012
14207SOL    HW147751   5.896   6.952   4.957  0.7888 -0.7056 -0.5200
14207SOL    HW247752   5.807   6.831   4.978 -0.8470  0.6945  0.7689
14208SOL     OW47753   9.464   4.246   1.997 -0.3588  0.0005  0.2905
14208SOL    HW147754   9.396   4.186   2.028 -1.5856  1.6510  0.8721
14208SOL    HW247755   9.533   4.240   2.063  0.2366 -1.9501 -0.4842
14209SOL     OW47756   4.067   9.795   1.420  0.0958  0.0698 -0.0327
14209SOL    HW147757   4.103   9.707   1.415 -1.1701 -0.5313  1.1435
14209SOL    HW247758   4.031   9.812   1.333 -1.4489 -1.3664  0.3010
14210SOL     OW47759   7.553   3.876   1.364  0.3457  0.2581 -0.2774
14210SOL    HW147760   7.559   3.787   1.328  0.5039  0.5172 -0.8927
14210SOL    HW247761   7.463   3.903   1.347  0.2738  0.1858 -0.0156
14211SOL     OW47762   2.509   1.566   0.930  0.3918 -0.5201 -0.3961
14211SOL    HW147763   2.469   1.581   1.015  0.7691 -0.1112 -0.2880
14211SOL    HW247764   2.602   1.587   0.943  0.5517 -0.9939 -0.7623
14212SOL     OW47765   1.505   4.134   7.392  0.3004 -0.1111  0.3480
14212SOL    HW147766   1.601   4.140   7.392  0.1906  2.1098  0.3734
14212SOL    HW247767   1.485   4.087   7.473  1.2978  1.4771  1.5612
14213SOL     OW47768   1.603   8.296  10.831 -0.3385  0.0880  0.3102
14213SOL    HW147769   1.544   8.307  10.757 -1.4143 -2.2357  0.7749
14213SOL    HW247770   1.683   8.343  10.806 -1.2235  0.5686 -1.6827
14214SOL     OW47771  10.090   2.184   4.633 -0.2236 -0.0825  0.2558
14214SOL    HW147772  10.015   2.223   4.677 -0.7264 -1.3719  0.5686
14214SOL    HW247773  10.150   2.257   4.617 -2.1902  1.2292 -1.3500
14215SOL     OW47774   2.922   6.085   5.146  0.3478 -0.4138 -0.0282
14215SOL    HW147775   2.840   6.066   5.099 -0.1062  0.1893  0.5118
14215SOL    HW247776   2.972   6.139   5.085  0.1934 -0.4833 -0.2177
14216SOL     OW47777  10.590   8.465   8.590 -0.0330  0.2784 -0.3658
14216SOL    HW147778  10.679   8.478   8.623  0.7779 -1.5858 -1.7302
14216SOL    HW247779  10.559   8.386   8.635  0.1078 -0.7562 -2.0242
14217SOL     OW47780   9.199   8.327   5.996 -0.3586 -0.2221  0.2034
14217SOL    HW147781   9.132   8.290   6.054 -0.4071  0.3972  0.5427
14217SOL    HW247782   9.207   8.263   5.926 -1.0285 -0.4935  0.3676
14218SOL     OW47783   7.341   9.662   6.856  0.0576  0.1460  0.4225
14218SOL    HW147784   7.421   9.651   6.805 -0.7991 -1.2854 -0.6215
14218SOL    HW247785   7.362   9.734   6.916  2.1542 -0.2512  0.2258
14219SOL     OW47786  10.929   3.175  11.197  0.1184  1.0062 -0.0989
14219SOL    HW147787  10.835   3.178  11.179  0.1002  1.4888  0.0736
14219SOL    HW247788  10.962   3.260  11.166  0.4451  0.9619  0.1269
14220SOL     OW47789  11.229   4.789  11.150  0.0935 -0.1335  0.3371
14220SOL    HW147790  11.203   4.698  11.137 -1.7125  0.3094  0.7268
14220SOL    HW247791  11.258   4.793  11.241 -2.9534  0.3772  1.3265
14221SOL     OW47792   5.814   3.824   7.312  0.7540  0.1000  0.3304
14221SOL    HW147793   5.846   3.832   7.223  3.4749  0.2536  1.2734
14221SOL    HW247794   5.719   3.813   7.303  0.8839  1.0242 -2.4976
14222SOL     OW47795   8.492   5.850   2.451 -0.4719  0.5651  0.0279
14222SOL    HW147796   8.488   5.841   2.546  0.2866  2.9620  0.3119
14222SOL    HW247797   8.555   5.784   2.423 -0.8028 -0.2401  1.1693
14223SOL     OW47798   6.186   1.395  11.198  0.1412  0.0403  0.4071
14223SOL    HW147799   6.223   1.433  11.278  2.8624 -0.1716 -0.7020
14223SOL    HW247800   6.253   1.411  11.132 -1.2215 -1.5733 -1.3834
14224SOL     OW47801   6.708  10.481   1.254 -0.2831 -0.2651  0.9666
14224SOL    HW147802   6.677  10.434   1.176  2.0881 -1.2805  0.6086
14224SOL    HW247803   6.703  10.416   1.324  0.0044 -0.1099  1.1303
14225SOL     OW47804   1.583   1.519   9.265 -0.1604 -0.6647 -0.1040
14225SOL    HW147805   1.513   1.515   9.331 -1.4781  1.5532 -1.2958
14225SOL    HW247806   1.538   1.501   9.182  0.8380 -0.0961 -0.7772
14226SOL     OW47807   3.645   5.567   9.940 -0.0973 -0.1322  0.1159
14226SOL    HW147808   3.622   5.618  10.017  0.7196 -0.1699  0.3861
14226SOL    HW247809   3.591   5.488   9.946  1.1945 -0.9179  1.5391
14227SOL     OW47810   7.475   8.300   3.654  0.1156 -0.2752  0.2901
14227SOL    HW147811   7.536   8.370   3.678 -0.3815  0.7486 -1.3919
14227SOL    HW247812   7.434   8.329   3.573 -0.9159 -2.0189  0.1433
14228SOL     OW47813   9.329   4.993   8.405 -0.3711 -0.2801  0.0934
14228SOL    HW147814   9.361   5.078   8.437 -0.8441  1.2813 -3.3106
14228SOL    HW247815   9.246   4.979   8.452  1.1660 -0.3503  2.8702
14229SOL     OW47816   4.467   4.772   4.991 -0.2794  0.0750  0.3205
14229SOL    HW147817   4.493   4.708   4.924 -1.2816 -1.8741  1.7559
14229SOL    HW247818   4.544   4.782   5.047  0.2295  0.9641 -0.5094
14230SOL     OW47819   1.658   8.241   5.886  0.3344 -0.0953 -0.4238
14230SOL    HW147820   1.662   8.216   5.978 -3.7796 -0.6089 -0.2854
14230SOL    HW247821   1.635   8.160   5.840 -2.8911  1.2190 -1.2206
14231SOL     OW47822   8.753   7.734   8.620  0.2021 -0.6571 -0.9777
14231SOL    HW147823   8.685   7.780   8.571  0.6820 -0.0479 -1.0722
14231SOL    HW247824   8.705   7.668   8.671 -0.4442 -0.3232 -1.1475
14232SOL     OW47825   8.407   5.616   8.683  0.3574 -0.2954 -0.3037
14232SOL    HW147826   8.469   5.684   8.712  0.9463  0.0816 -2.4046
14232SOL    HW247827   8.369   5.584   8.765 -0.9827  3.5439  0.7230
14233SOL     OW47828   5.133  10.122   8.458  1.1547  0.5197 -0.1346
14233SOL    HW147829   5.201  10.060   8.485  0.8198  1.3622  2.8682
14233SOL    HW247830   5.174  10.208   8.472  0.3725  1.0015 -0.8117
14234SOL     OW47831   6.205   5.824   7.365  0.1580  0.0636  0.2679
14234SOL    HW147832   6.151   5.833   7.444  1.5262 -1.0335  1.3557
14234SOL    HW247833   6.196   5.732   7.340  0.0051  0.3280 -0.6623
14235SOL     OW47834   6.547  10.278   2.307  0.4286 -0.3695 -0.6251
14235SOL    HW147835   6.493  10.219   2.254  0.9994 -1.1149 -0.3847
14235SOL    HW247836   6.543  10.242   2.395 -4.1253  3.3376  0.8542
14236SOL     OW47837   6.282   8.637   9.884 -0.0329 -0.3097 -0.0075
14236SOL    HW147838   6.310   8.585   9.809 -1.5967 -1.6693  0.3211
14236SOL    HW247839   6.362   8.651   9.935  0.7756 -0.5775 -1.1945
14237SOL     OW47840   0.207   6.320   6.317 -0.4354 -0.0503 -0.0326
14237SOL    HW147841   0.262   6.397   6.331 -0.2632 -0.6528  2.8623
14237SOL    HW247842   0.269   6.248   6.306 -0.6125 -0.1848 -0.1423
14238SOL     OW47843   6.926  10.532   1.752 -0.0714 -0.4087  0.2645
14238SOL    HW147844   6.918  10.620   1.790  0.5946 -0.2177 -0.0223
14238SOL    HW247845   6.941  10.474   1.826  0.1848 -0.1836  0.3884
14239SOL     OW47846   9.102  10.706   4.423  0.0217 -0.1945 -0.0539
14239SOL    HW147847   9.138  10.617   4.418  1.4482  0.4422 -1.6051
14239SOL    HW247848   9.139  10.743   4.503 -0.7645 -1.0672  0.7253
14240SOL     OW47849   8.041   3.397  10.220 -0.2925  0.0273  0.1939
14240SOL    HW147850   8.038   3.433  10.131  1.8124 -0.3126 -0.0307
14240SOL    HW247851   8.021   3.304  10.209 -1.7966  0.3119  0.3178
14241SOL     OW47852   2.035  11.123  10.064  0.2131 -0.3801 -0.0521
14241SOL    HW147853   2.085  11.167  10.132  1.1271  0.2270 -1.1184
14241SOL    HW247854   2.059  11.030  10.073 -2.1329 -0.8027  2.5479
14242SOL     OW47855  10.699  10.816   6.970 -0.3354  0.5594  0.8500
14242SOL    HW147856  10.720  10.909   6.960  0.6676  0.1582 -1.0737
14242SOL    HW247857  10.782  10.775   6.995 -0.6552  0.0925  1.1595
14243SOL     OW47858   1.824   6.064   7.810  0.2896  0.5460  0.7067
14243SOL    HW147859   1.890   6.019   7.863 -0.2388 -3.1276 -1.6037
14243SOL    HW247860   1.742   6.047   7.855  0.4007  1.5308  1.2920
14244SOL     OW47861   7.775   9.653  11.330 -0.0313 -0.3042  0.2368
14244SOL    HW147862   7.846   9.712  11.355  0.3757 -0.5045 -0.4170
14244SOL    HW247863   7.817   9.588  11.273 -0.9680  0.2972 -1.1801
14245SOL     OW47864   8.191   0.560   2.526 -0.2944 -0.0563 -0.2785
14245SOL    HW147865   8.178   0.501   2.600 -1.6549  0.8992  0.2711
14245SOL    HW247866   8.103   0.578   2.494  0.0669  2.1166 -0.0869
14246SOL     OW47867   8.058  10.118   0.857 -0.0999 -0.2422 -0.0379
14246SOL    HW147868   8.050  10.093   0.765  0.5279 -2.6981  0.5642
14246SOL    HW247869   8.128  10.184   0.858 -0.0565 -0.2633 -1.3067
14247SOL     OW47870   0.593   4.937   0.371 -0.3155  0.0697  0.2631
14247SOL    HW147871   0.604   4.852   0.414 -2.0621  0.0171  0.6117
14247SOL    HW247872   0.558   4.994   0.439 -2.9876  0.0165 -1.0389
14248SOL     OW47873   5.898   4.527   0.148  0.7155  0.1089  0.4334
14248SOL    HW147874   5.924   4.457   0.208  0.3888 -1.2941 -1.0699
14248SOL    HW247875   5.977   4.544   0.096  1.3577  2.1055  1.9456
14249SOL     OW47876   9.310   7.661   9.753  0.2316  0.3808 -0.1341
14249SOL    HW147877   9.223   7.682   9.787 -0.9297 -2.1100 -1.4170
14249SOL    HW247878   9.293   7.621   9.668  2.5964 -0.7339 -0.1153
14250SOL     OW47879   0.211   1.872   3.096  0.3338 -0.1747  0.0397
14250SOL    HW147880   0.232   1.940   3.160  0.5909 -0.1482 -0.0763
14250SOL    HW247881   0.281   1.807   3.106  0.8312  0.2356 -0.8107
14251SOL     OW47882   4.931  10.568  10.450  0.0889 -0.1214 -0.5954
14251SOL    HW147883   4.954  10.575  10.542 -1.0651 -3.8078  0.0633
14251SOL    HW247884   5.005  10.606  10.403  0.4567  2.2790  1.8169
14252SOL     OW47885   5.766   6.645   2.443  0.3796  0.3420  0.2325
14252SOL    HW147886   5.793   6.728   2.481 -0.2654  1.1116 -0.9526
14252SOL    HW247887   5.847   6.606   2.410  0.3349  1.8889 -1.8531
14253SOL     OW47888   2.220   9.719   9.435 -0.0957 -0.9310  0.1892
14253SOL    HW147889   2.308   9.721   9.398 -0.3746  0.6785 -0.4188
14253SOL    HW247890   2.169   9.778   9.379 -1.6370 -2.0860  0.3429
14254SOL     OW47891   0.138   3.118   9.499  0.1063  0.0402  1.0830
14254SOL    HW147892   0.057   3.071   9.477  0.3539 -0.1292  0.5358
14254SOL    HW247893   0.111   3.181   9.566 -0.5509  0.2209  0.6535
14255SOL     OW47894   9.655   2.155  11.249  0.5756 -0.0053  0.2954
14255SOL    HW147895   9.722   2.175  11.184 -0.2921  1.8080 -0.0661
14255SOL    HW247896   9.587   2.220  11.234 -0.6977 -1.0453  1.4812
14256SOL     OW47897   0.722   3.152   9.493 -0.3834  0.2314  0.8737
14256SOL    HW147898   0.657   3.184   9.430 -0.5142 -0.4381  0.6592
14256SOL    HW247899   0.773   3.229   9.517 -0.0953  0.4243 -0.3395
14257SOL     OW47900   4.118   7.997   3.120  0.4157 -0.3368 -0.0241
14257SOL    HW147901   4.187   7.953   3.070  2.0485  2.8570 -0.7727
14257SOL    HW247902   4.052   8.019   3.055  1.0349  0.9583 -0.2388
14258SOL     OW47903   8.455   0.269   5.638 -0.7102  0.1714  0.1841
14258SOL    HW147904   8.445   0.177   5.663  2.9208 -0.2640  0.2678
14258SOL    HW247905   8.417   0.273   5.550 -0.0757 -1.6162 -0.1930
14259SOL     OW47906   3.649  10.539   2.011  0.1911  0.7341  0.4045
14259SOL    HW147907   3.562  10.505   2.031  0.6240 -0.8698 -0.3718
14259SOL    HW247908   3.656  10.619   2.063 -0.9514 -0.2137  2.0589
14260SOL     OW47909   3.261   7.031   9.441  0.0200  0.6184  0.0381
14260SOL    HW147910   3.191   7.080   9.397  0.1698  1.5898  0.8774
14260SOL    HW247911   3.239   7.036   9.534  0.9676  0.5422  0.2701
14261SOL     OW47912   3.153   5.773   4.372 -0.2479 -0.4300  0.0225
14261SOL    HW147913   3.129   5.681   4.381 -2.6727  0.0527 -1.2209
14261SOL    HW247914   3.109   5.817   4.444  1.1293 -0.2525  0.7795
14262SOL     OW47915   2.186   5.912   0.248 -0.2950 -0.7181 -0.3623
14262SOL    HW147916   2.206   6.002   0.272  0.8527 -1.0550 -0.0391
14262SOL    HW247917   2.090   5.908   0.250 -0.3298  0.2417  0.5485
14263SOL     OW47918  10.593   9.765   8.073  0.2802 -0.0328  0.2800
14263SOL    HW147919  10.666   9.795   8.019  0.4530 -0.4309  0.2903
14263SOL    HW247920  10.546   9.845   8.095  0.5640  0.2011  0.0563
14264SOL     OW47921   5.445   4.033   1.392 -0.1952 -0.2101 -0.0302
14264SOL    HW147922   5.529   4.055   1.432 -0.3910  0.9274 -0.2082
14264SOL    HW247923   5.452   3.940   1.371  1.8496  0.3232 -2.0064
14265SOL     OW47924   0.733  11.073   2.191 -0.3890  0.2048 -0.1673
14265SOL    HW147925   0.826  11.091   2.176 -0.1921 -0.5872  0.0983
14265SOL    HW247926   0.688  11.124   2.122  0.3006 -0.2755 -0.9849
14266SOL     OW47927   5.233  10.561   0.028  0.1075 -0.1390 -0.2696
14266SOL    HW147928   5.248  10.653   0.006 -0.7062  0.1849  0.4977
14266SOL    HW247929   5.138  10.552   0.028  0.1884 -1.0894 -0.7494
14267SOL     OW47930   3.088   3.113   8.568 -0.3299  0.7400 -0.0688
14267SOL    HW147931   3.050   3.067   8.493  0.8873 -0.9640  0.3265
14267SOL    HW247932   3.152   3.172   8.530 -0.5925  0.7820 -0.4555
14268SOL     OW47933   1.267   1.427   1.662 -0.5495 -0.8177 -0.5874
14268SOL    HW147934   1.287   1.441   1.569  0.4109 -1.6394 -0.5122
14268SOL    HW247935   1.339   1.468   1.709 -1.1427 -0.2175 -0.1862
14269SOL     OW47936   4.606   4.097   5.088  0.5926  0.8863  0.3126
14269SOL    HW147937   4.630   4.190   5.095  1.7541  0.7141 -1.2211
14269SOL    HW247938   4.642   4.057   5.167  1.3880  1.4767  0.2554
14270SOL     OW47939   9.519   8.489   3.853 -0.2328  0.5325 -0.3968
14270SOL    HW147940   9.588   8.430   3.883 -0.6921 -0.1165 -0.5943
14270SOL    HW247941   9.439   8.438   3.861 -0.6930  1.2770 -0.1839
14271SOL     OW47942   5.151   4.725   1.431 -0.4082  0.3697 -0.9051
14271SOL    HW147943   5.106   4.732   1.348 -0.4149 -1.3070 -1.0581
14271SOL    HW247944   5.180   4.815   1.451  1.8392  0.3749 -3.9570
14272SOL     OW47945   5.798   1.980   8.254 -0.1251 -0.1676  0.1882
14272SOL    HW147946   5.719   1.926   8.249 -0.6983  0.7359 -0.8122
14272SOL    HW247947   5.856   1.944   8.186 -0.0513 -0.2530  0.2965
14273SOL     OW47948   2.689   7.169   9.240  0.2098 -0.0979 -0.5029
14273SOL    HW147949   2.721   7.113   9.310 -1.1461  1.3880  1.3541
14273SOL    HW247950   2.694   7.258   9.275 -3.8301  0.3965 -0.8994
14274SOL     OW47951   5.511   3.414   6.911 -0.4949 -0.5187  0.1000
14274SOL    HW147952   5.418   3.435   6.910 -0.5037 -0.5770 -0.1828
14274SOL    HW247953   5.515   3.322   6.886 -0.5511 -1.1894  2.3867
14275SOL     OW47954   1.851   2.923  11.271 -0.2288 -0.3218  0.2490
14275SOL    HW147955   1.839   2.986  11.343 -0.3862 -0.0564 -0.0120
14275SOL    HW247956   1.907   2.968  11.209 -1.7697  0.2271 -0.7680
14276SOL     OW47957   5.975   9.475   4.507 -0.1661  0.2116 -0.5634
14276SOL    HW147958   5.982   9.560   4.464  0.9037 -0.1533 -1.1324
14276SOL    HW247959   5.977   9.495   4.601 -0.7588  0.8777 -0.6933
14277SOL     OW47960   4.608   5.902  11.200 -0.3313 -0.5263 -0.0924
14277SOL    HW147961   4.692   5.883  11.241 -1.3504 -1.5117  1.5802
14277SOL    HW247962   4.576   5.980  11.246  0.3370  0.7641 -1.7551
14278SOL     OW47963   5.516   2.102   3.792 -0.5517 -0.1010  0.8532
14278SOL    HW147964   5.559   2.178   3.832 -1.0822 -0.2061  1.6289
14278SOL    HW247965   5.423   2.117   3.807 -0.4865 -2.6084  4.0803
14279SOL     OW47966   5.274  10.834   4.065  0.4359 -0.2201 -0.4249
14279SOL    HW147967   5.269  10.740   4.051  0.5654 -0.1998 -0.5945
14279SOL    HW247968   5.353  10.847   4.117  0.5392 -0.1805 -0.5931
14280SOL     OW47969   5.941  10.272   4.970 -0.4701 -0.0549 -1.0935
14280SOL    HW147970   6.035  10.288   4.959 -0.4434 -0.0353 -0.8253
14280SOL    HW247971   5.936  10.197   5.029 -0.6322  0.2549 -0.7162
14281SOL     OW47972  11.236   2.390   0.078  0.0191  0.1197 -0.6477
14281SOL    HW147973  11.233   2.470   0.131 -1.1274  0.9467 -1.9269
14281SOL    HW247974  11.224   2.319   0.140 -1.1088  1.0718  0.2316
14282SOL     OW47975   3.737   6.977   9.393 -0.0898  0.3800 -0.0887
14282SOL    HW147976   3.751   6.916   9.466 -0.7854  0.3807  0.0562
14282SOL    HW247977   3.650   6.953   9.360  0.0425  0.6662 -0.6401
14283SOL     OW47978   9.496   4.390   7.225 -0.0088 -0.5485 -0.2046
14283SOL    HW147979   9.401   4.382   7.225 -0.3498  2.6371  1.3903
14283SOL    HW247980   9.515   4.449   7.299  3.0179  0.6297 -1.8214
14284SOL     OW47981   7.756   5.723   9.074 -0.4905  0.5093  0.3766
14284SOL    HW147982   7.845   5.725   9.109 -0.1284  0.9627 -0.5422
14284SOL    HW247983   7.708   5.665   9.134  0.4515  0.1442  0.7996
14285SOL     OW47984   8.270   7.554   5.254 -0.2748 -0.0256 -0.0989
14285SOL    HW147985   8.221   7.484   5.211  0.3742 -1.5316  1.5895
14285SOL    HW247986   8.354   7.555   5.208  0.1232 -1.1034  0.5813
14286SOL     OW47987   7.664   6.812   2.648 -0.6475  0.9138  0.2292
14286SOL    HW147988   7.694   6.862   2.572 -0.9612  0.1658 -0.3920
14286SOL    HW247989   7.694   6.723   2.632 -1.7439  0.5007  0.4060
14287SOL     OW47990   9.413   8.385   2.577  0.0745 -0.3818  0.1987
14287SOL    HW147991   9.337   8.425   2.618  0.1242 -0.5868  0.4893
14287SOL    HW247992   9.405   8.292   2.597  1.6371 -0.1222  2.2229
14288SOL     OW47993   3.970   9.652   0.874  0.6717  0.0713  0.0052
14288SOL    HW147994   3.906   9.593   0.835  0.3782  1.3517 -1.4951
14288SOL    HW247995   3.989   9.614   0.959 -2.6202  0.0544  0.7757
14289SOL     OW47996   4.532  11.258  10.327 -0.0037  0.3406 -0.1753
14289SOL    HW147997   4.508  11.171  10.296  1.5387 -0.5163  0.9387
14289SOL    HW247998   4.578  11.298  10.253 -0.0422 -0.0892 -0.4330
14290SOL     OW47999   0.110   3.413  10.200 -0.1405 -0.0531  0.6930
14290SOL    HW148000   0.084   3.505  10.214 -0.3114 -0.1082  0.7358
14290SOL    HW248001   0.139   3.384  10.286 -1.3816 -0.4525  0.9801
14291SOL     OW48002   9.961  10.157   4.199 -0.0293 -0.3825 -0.3768
14291SOL    HW148003   9.888  10.157   4.136  0.1399  0.0550 -0.5726
14291SOL    HW248004  10.039  10.154   4.144  0.1189  0.0530 -0.1857
14292SOL     OW48005   6.324   0.017   9.507  0.1178 -0.3641  0.2684
14292SOL    HW148006   6.354  -0.060   9.459  0.8974 -1.1668  2.0048
14292SOL    HW248007   6.234  -0.005   9.534 -0.2541  0.0136 -0.6471
14293SOL     OW48008   0.729   9.137   0.994  0.2287 -0.1519  0.3426
14293SOL    HW148009   0.670   9.062   0.992  0.4785 -0.3216 -1.0766
14293SOL    HW248010   0.799   9.114   0.933  1.7130  0.0926  1.9149
14294SOL     OW48011   0.049   2.785   5.380 -0.5815  0.0475 -0.7841
14294SOL    HW148012  -0.011   2.720   5.417 -1.0925  0.9370 -0.0279
14294SOL    HW248013   0.003   2.868   5.388  0.4760  0.6525 -0.8214
14295SOL     OW48014  10.809   5.880   4.500  0.2243  0.3282  0.0028
14295SOL    HW148015  10.724   5.905   4.536  0.3442  1.7648 -0.6937
14295SOL    HW248016  10.868   5.875   4.575  0.0665  1.5927  0.2082
14296SOL     OW48017   0.770  11.077   3.589  0.0676 -0.0917  0.0128
14296SOL    HW148018   0.827  11.023   3.533  1.2897  0.8772  0.2920
14296SOL    HW248019   0.707  11.116   3.528 -0.4643 -1.3841 -0.2692
14297SOL     OW48020   8.992   5.342   6.273  0.0584 -0.0064 -0.3939
14297SOL    HW148021   9.029   5.393   6.201 -0.2475  1.0096  0.1538
14297SOL    HW248022   8.979   5.406   6.343  0.3163 -0.9751  0.5545
14298SOL     OW48023   0.006   4.416   9.802 -0.5218 -0.0785 -0.1120
14298SOL    HW148024  -0.042   4.498   9.810 -0.1339  0.0390  1.0667
14298SOL    HW248025   0.050   4.405   9.886 -1.0441 -1.7941 -0.0334
14299SOL     OW48026   3.929   9.439   4.207  0.2879 -0.2616 -0.3487
14299SOL    HW148027   3.986   9.501   4.252 -0.1973 -0.5055  0.5985
14299SOL    HW248028   3.841   9.458   4.239  0.3514 -2.6137  1.3060
14300SOL     OW48029   0.440   9.035   5.146  0.0902  0.3451 -0.2107
14300SOL    HW148030   0.488   9.064   5.069 -0.6070  0.3327 -0.6633
14300SOL    HW248031   0.506   8.998   5.204  0.4388 -1.2074 -1.5299
14301SOL     OW48032  10.949   2.282   8.004  0.0950  0.2711 -0.0762
14301SOL    HW148033  10.979   2.320   7.921  0.9346  0.3532  0.2650
14301SOL    HW248034  10.857   2.260   7.988  0.7767 -1.5021 -1.6678
14302SOL     OW48035   2.802   6.746  10.714  0.0935  0.0143 -0.4891
14302SOL    HW148036   2.739   6.784  10.776 -0.7471  0.4776 -1.6161
14302SOL    HW248037   2.885   6.746  10.762 -0.7413 -0.5382  0.9856
14303SOL     OW48038   8.401   5.832   5.666  0.0841 -0.0674 -0.3601
14303SOL    HW148039   8.453   5.753   5.651  0.1225 -0.5040  1.9412
14303SOL    HW248040   8.460   5.905   5.646  0.6888 -0.6010 -0.5209
14304SOL     OW48041   1.909   9.161   1.853  0.4264 -0.2855 -0.7681
14304SOL    HW148042   1.868   9.082   1.818  0.2073 -0.7263  0.4697
14304SOL    HW248043   1.840   9.204   1.904  0.4685  0.8501 -1.6514
14305SOL     OW48044  11.004   9.116   8.041  0.0453 -0.1914 -0.0243
14305SOL    HW148045  11.019   9.029   8.003  2.1045  0.4922 -0.8574
14305SOL    HW248046  10.920   9.144   8.004  0.8455 -0.5587 -2.2267
14306SOL     OW48047   1.788   5.909   4.992 -0.0993 -0.1787 -0.0535
14306SOL    HW148048   1.729   5.838   5.020 -0.4191  0.1606  0.1293
14306SOL    HW248049   1.874   5.880   5.022 -0.2193 -0.5228 -0.0310
14307SOL     OW48050   8.037   3.106   8.320 -0.1322  0.3266 -0.1300
14307SOL    HW148051   8.113   3.063   8.282  1.0265  0.7517  1.6216
14307SOL    HW248052   7.968   3.041   8.317  0.5842 -0.4077 -0.8429
14308SOL     OW48053   7.515  11.027   5.188  0.1374 -0.4703  0.0853
14308SOL    HW148054   7.542  11.113   5.221 -1.7403  0.3463 -0.4393
14308SOL    HW248055   7.526  11.032   5.093 -1.2775 -0.3148 -0.0827
14309SOL     OW48056   6.856   0.241  10.412  0.2890  0.0477  0.8108
14309SOL    HW148057   6.784   0.203  10.364  0.0117  0.8812  0.5626
14309SOL    HW248058   6.917   0.271  10.345  1.0811 -1.0374  1.0209
14310SOL     OW48059   0.644   4.612   7.590 -0.0577  0.5600  0.6295
14310SOL    HW148060   0.724   4.594   7.640  0.0998 -0.8630 -0.0789
14310SOL    HW248061   0.605   4.526   7.577 -1.3448  1.1814  0.3745
14311SOL     OW48062  11.178  11.075   6.000  0.0283  0.5834  0.0235
14311SOL    HW148063  11.181  11.166   5.970 -1.5501  0.4171 -0.6913
14311SOL    HW248064  11.247  11.031   5.950 -1.1687  0.7751 -1.8493
14312SOL     OW48065  10.272   3.480   9.476 -0.0331 -0.7210  0.0171
14312SOL    HW148066  10.336   3.444   9.538 -0.8729 -1.4204  0.4800
14312SOL    HW248067  10.260   3.411   9.411  0.4411 -0.1925 -0.6513
14313SOL     OW48068   5.801   3.069   6.107 -0.4054  0.0401 -0.4525
14313SOL    HW148069   5.777   3.020   6.186 -0.3231  0.6825 -0.0263
14313SOL    HW248070   5.819   3.158   6.138  0.5151  0.0713 -1.0701
14314SOL     OW48071   0.548   1.459   4.306 -0.4367  0.1034 -0.3283
14314SOL    HW148072   0.615   1.403   4.266 -0.2390 -0.7278  1.1328
14314SOL    HW248073   0.505   1.501   4.232  2.1630  1.2216 -1.2903
14315SOL     OW48074   8.394   0.092   1.192  0.2204 -0.2541 -0.1613
14315SOL    HW148075   8.409   0.003   1.222  1.7493  0.2717  0.6902
14315SOL    HW248076   8.341   0.133   1.260  0.0550 -0.3267 -0.2462
14316SOL     OW48077   8.834  10.779   8.558  0.1579 -0.2544 -0.0841
14316SOL    HW148078   8.785  10.746   8.483 -2.0794  0.8775  0.8252
14316SOL    HW248079   8.894  10.708   8.581  0.5834 -0.7708 -2.6469
14317SOL     OW48080   6.156   4.791   0.131 -0.7925 -0.2713 -0.8180
14317SOL    HW148081   6.205   4.849   0.188 -1.9028  0.7150 -0.8498
14317SOL    HW248082   6.076   4.840   0.109 -1.6399 -1.7056 -1.0256
14318SOL     OW48083   4.464   8.455   8.644  0.4286 -0.2665  0.0511
14318SOL    HW148084   4.448   8.362   8.625 -0.0347  0.6477 -4.6810
14318SOL    HW248085   4.381   8.487   8.678 -0.4597 -0.8611 -1.5209
14319SOL     OW48086   0.643   0.873   5.721  0.1764 -0.4690  0.3357
14319SOL    HW148087   0.600   0.789   5.741 -0.4748  0.2086  1.8497
14319SOL    HW248088   0.577   0.939   5.741  0.8687  0.4478 -0.3527
14320SOL     OW48089   5.399  10.343   4.971 -0.7778 -0.6343 -0.2234
14320SOL    HW148090   5.439  10.256   4.979 -1.2774 -0.6955  1.9836
14320SOL    HW248091   5.451  10.387   4.903  0.8550 -1.9163  0.1470
14321SOL     OW48092   8.661   8.835   7.930  0.3777 -0.0050  0.4675
14321SOL    HW148093   8.754   8.822   7.908  0.6623  3.2186 -0.5132
14321SOL    HW248094   8.661   8.849   8.025  1.0023  0.8338  0.3494
14322SOL     OW48095   3.411   1.159   2.592 -0.4444 -0.1238  0.4375
14322SOL    HW148096   3.324   1.200   2.593  0.2088  1.2780  0.9042
14322SOL    HW248097   3.400   1.078   2.641 -1.4420  0.1521  0.6696
14323SOL     OW48098   7.123   1.350   6.085 -0.3565  0.0537 -0.3236
14323SOL    HW148099   7.157   1.428   6.042 -0.6567  0.2915 -0.1316
14323SOL    HW248100   7.144   1.362   6.178 -0.6248  0.0237 -0.2576
14324SOL     OW48101   7.902   0.375   6.112 -0.0288 -0.3780 -0.1872
14324SOL    HW148102   7.880   0.316   6.185 -0.8693 -2.3495 -1.9753
14324SOL    HW248103   7.818   0.391   6.069 -0.0444  3.2905  1.0467
14325SOL     OW48104   1.301   7.222   7.795  0.2970  0.4465 -0.1721
14325SOL    HW148105   1.267   7.215   7.706  0.7854  0.2014 -0.3374
14325SOL    HW248106   1.243   7.286   7.838 -1.3404 -1.1134 -0.0014
14326SOL     OW48107   1.088   8.630   7.503  0.1855 -0.2817  0.0546
14326SOL    HW148108   1.056   8.717   7.526 -0.3695  0.1617 -2.2632
14326SOL    HW248109   1.160   8.614   7.564  0.8474  2.1753 -0.0274
14327SOL     OW48110   5.364   2.308   0.899  0.5512  0.5123 -0.4189
14327SOL    HW148111   5.336   2.333   0.811  2.2463  1.0015 -0.8279
14327SOL    HW248112   5.329   2.220   0.911 -0.5747  0.8464 -1.1815
14328SOL     OW48113   9.502   4.826   4.272 -0.0586 -0.1113 -0.4800
14328SOL    HW148114   9.521   4.797   4.361  0.3683 -0.3046 -0.6310
14328SOL    HW248115   9.523   4.750   4.217  0.5865  0.3171 -0.8281
14329SOL     OW48116   6.015   8.333   4.436  0.7484  0.1758 -0.1964
14329SOL    HW148117   6.010   8.309   4.343 -1.0656  0.9515 -0.3101
14329SOL    HW248118   6.066   8.262   4.476  0.5875 -0.7505 -1.5852
14330SOL     OW48119   5.136   8.234   0.188  0.2194  0.3701 -0.1973
14330SOL    HW148120   5.097   8.264   0.270  0.5687 -0.3449  0.2352
14330SOL    HW248121   5.230   8.238   0.203  0.2899  0.7699 -0.7550
14331SOL     OW48122   7.013   0.875   8.372 -0.0864 -0.0989 -0.2665
14331SOL    HW148123   6.947   0.945   8.383 -4.0574 -3.1495 -3.2441
14331SOL    HW248124   7.006   0.824   8.452 -1.1116 -0.1759 -0.3929
14332SOL     OW48125   7.193   4.413   3.520 -0.2401 -0.2838 -0.1570
14332SOL    HW148126   7.281   4.399   3.556 -0.0318 -0.1455 -0.6138
14332SOL    HW248127   7.189   4.354   3.445  0.2758  1.3389 -1.4931
14333SOL     OW48128   0.520   7.166   9.505  0.2884  0.2196  0.5045
14333SOL    HW148129   0.568   7.112   9.441  0.1819  1.9754 -1.0863
14333SOL    HW248130   0.433   7.126   9.509  0.1415  0.3872 -0.8287
14334SOL     OW48131   5.548   0.429   9.384  0.2316 -0.0233 -0.0669
14334SOL    HW148132   5.464   0.470   9.364 -1.1557 -2.2764  0.9535
14334SOL    HW248133   5.555   0.433   9.479  0.4632 -1.3806 -0.0116
14335SOL     OW48134   9.760   1.571   9.215 -0.0458 -0.0045 -0.2491
14335SOL    HW148135   9.817   1.605   9.284 -0.3946  0.0627  0.0054
14335SOL    HW248136   9.815   1.571   9.137  0.7377 -1.1973  0.2667
14336SOL     OW48137   3.269   8.567   2.800 -0.5878  0.6180 -0.0150
14336SOL    HW148138   3.221   8.518   2.733 -0.0111 -0.5391  0.4088
14336SOL    HW248139   3.352   8.520   2.809  0.7954  2.8266 -1.0033
14337SOL     OW48140   1.872   6.094   9.498 -0.3968 -0.3685  0.3176
14337SOL    HW148141   1.931   6.085   9.573  0.9629  1.7157 -0.4319
14337SOL    HW248142   1.800   6.148   9.530  1.4114  2.6184 -0.4665
14338SOL     OW48143   6.394   7.898   1.370  0.4670 -0.3018 -0.3921
14338SOL    HW148144   6.456   7.957   1.326  3.4964 -2.2308  1.0882
14338SOL    HW248145   6.411   7.813   1.329 -1.8908 -0.6983 -0.5816
14339SOL     OW48146  11.037   0.824   4.201 -0.0605  0.4762 -0.4953
14339SOL    HW148147  10.976   0.766   4.246 -0.2966  0.3420 -0.9833
14339SOL    HW248148  11.119   0.814   4.248 -0.6519  1.3638  0.7429
14340SOL     OW48149   0.846   2.746   7.939  0.1414 -0.3382  0.5718
14340SOL    HW148150   0.768   2.802   7.939  0.6947  0.4362 -0.1228
14340SOL    HW248151   0.916   2.802   7.973  0.6365 -0.6970  0.1521
14341SOL     OW48152   5.527   0.975  10.009 -0.4468  0.0747  0.1757
14341SOL    HW148153   5.499   0.953  10.098  0.0695  0.2017  0.3704
14341SOL    HW248154   5.619   0.997  10.018 -0.7048  1.3549 -0.1788
14342SOL     OW48155  11.096   3.923   6.115 -0.5888 -0.1319  0.2253
14342SOL    HW148156  11.065   3.837   6.088 -2.1192  0.7686 -0.8983
14342SOL    HW248157  11.086   3.923   6.211  0.5103 -1.6087  0.3566
14343SOL     OW48158   3.460   6.193   4.816 -0.2199 -0.2396  0.0223
14343SOL    HW148159   3.522   6.121   4.813 -1.7460 -1.5344 -0.6615
14343SOL    HW248160   3.511   6.270   4.789  1.2070 -1.1738  0.0269
14344SOL     OW48161   9.353   9.507  10.556 -0.6675  0.0186  0.5149
14344SOL    HW148162   9.336   9.436  10.494 -2.1188  0.8229 -0.0251
14344SOL    HW248163   9.435   9.546  10.525 -0.3808 -0.7918  0.2329
14345SOL     OW48164   3.308   5.886   6.535  0.2627 -0.4763 -0.4969
14345SOL    HW148165   3.380   5.835   6.498 -0.3555  0.5183 -3.1900
14345SOL    HW248166   3.232   5.862   6.482 -0.8687  0.3428  0.7207
14346SOL     OW48167   6.250   4.139   9.834  0.6997 -0.0136 -0.0979
14346SOL    HW148168   6.255   4.056   9.882 -1.1346 -0.1759 -0.1544
14346SOL    HW248169   6.279   4.117   9.746 -1.3823 -0.9847 -0.5616
14347SOL     OW48170   5.721   3.039   4.415  0.4877 -0.5856 -0.0763
14347SOL    HW148171   5.630   3.011   4.406  0.6895 -0.3256 -3.4262
14347SOL    HW248172   5.772   2.959   4.401  0.8151 -0.7571  1.9174
14348SOL     OW48173   0.106  10.608   2.119 -0.0006  0.2849  0.1962
14348SOL    HW148174   0.154  10.571   2.045  0.8853 -0.1204  0.9469
14348SOL    HW248175   0.173  10.616   2.188 -0.9909 -0.1273  1.2101
14349SOL     OW48176  10.102   2.024   0.341  0.3334 -0.0986  0.0600
14349SOL    HW148177  10.120   1.994   0.431 -2.2201  0.0718  0.6794
14349SOL    HW248178  10.163   1.975   0.287  0.5456 -1.7268  1.7085
14350SOL     OW48179  10.695   3.516   3.096 -0.1198 -0.1792 -0.1347
14350SOL    HW148180  10.726   3.546   3.181 -3.5790 -1.3427  1.6490
14350SOL    HW248181  10.734   3.429   3.084 -0.9209 -0.7133  1.0666
14351SOL     OW48182   3.827   9.658   8.046  0.2857  0.4023 -0.5244
14351SOL    HW148183   3.748   9.711   8.031  1.9524  2.3453 -2.7978
14351SOL    HW248184   3.811   9.577   7.998 -0.5092  0.5827 -0.5727
14352SOL     OW48185   5.831   9.735  10.805  0.1263  0.2960 -0.3750
14352SOL    HW148186   5.765   9.728  10.874 -1.5135  1.5391 -1.7549
14352SOL    HW248187   5.782   9.766  10.729  2.0116 -0.4134 -1.9190
14353SOL     OW48188  10.400   4.971   1.987 -0.1049 -0.3700 -0.4281
14353SOL    HW148189  10.337   4.951   2.057  1.6025 -1.2837  0.8767
14353SOL    HW248190  10.405   4.890   1.936 -0.4580 -0.0928 -0.9035
14354SOL     OW48191   5.706   0.994   6.384 -0.1709  0.3174  0.7856
14354SOL    HW148192   5.628   0.982   6.439 -0.6499  0.3922  0.1276
14354SOL    HW248193   5.771   0.934   6.421 -1.9027 -2.9610 -1.2636
14355SOL     OW48194   3.854   2.416   1.515  0.4353  0.7524  0.0271
14355SOL    HW148195   3.852   2.423   1.420  1.7838  1.6700  0.0478
14355SOL    HW248196   3.934   2.366   1.534 -1.0833 -1.5310  0.5926
14356SOL     OW48197   1.252  11.298   2.637 -0.2358 -0.0364 -0.1988
14356SOL    HW148198   1.234  11.204   2.639 -1.3477  0.1645 -0.1839
14356SOL    HW248199   1.340  11.305   2.602  0.4098 -1.1607  1.1382
14357SOL     OW48200   9.737   6.126   4.788 -0.1728  0.7860  0.5106
14357SOL    HW148201   9.651   6.132   4.747  0.0184 -0.5428 -0.1200
14357SOL    HW248202   9.799   6.128   4.716  0.0955 -3.2033  0.5108
14358SOL     OW48203   6.124   2.769   1.999 -0.3755  0.3613  0.5139
14358SOL    HW148204   6.118   2.686   2.045 -0.9823  1.5529  2.6829
14358SOL    HW248205   6.167   2.828   2.061  1.8854  1.1597 -1.7349
14359SOL     OW48206   0.304   1.537   1.248 -0.3434  0.1775  0.3653
14359SOL    HW148207   0.334   1.505   1.333  0.4859  0.5623  0.2209
14359SOL    HW248208   0.376   1.515   1.188 -1.0665 -0.4032 -0.3033
14360SOL     OW48209   2.367  10.350   5.672  0.1129  0.1180 -0.3455
14360SOL    HW148210   2.417  10.334   5.592  0.2212 -0.1485 -0.2281
14360SOL    HW248211   2.276  10.333   5.647  0.3448 -1.8968  0.0728
14361SOL     OW48212   8.679   9.173   8.850 -0.1812  0.6489 -0.6224
14361SOL    HW148213   8.632   9.171   8.933 -0.1019 -0.3589 -0.5998
14361SOL    HW248214   8.676   9.083   8.818  0.9465  0.7557 -1.0631
14362SOL     OW48215   7.865   7.282   2.509  0.2121  0.8014  0.1209
14362SOL    HW148216   7.927   7.277   2.582 -0.4469  0.0067  0.6396
14362SOL    HW248217   7.790   7.330   2.544 -0.0698  0.4945 -0.0540
14363SOL     OW48218  10.998   6.572  10.287 -0.2886 -0.2458 -0.5250
14363SOL    HW148219  11.030   6.481  10.283 -0.4315 -0.2698 -1.2885
14363SOL    HW248220  11.013   6.606  10.199  0.5492  0.7475 -0.0011
14364SOL     OW48221   5.939   5.060   6.085  0.1618  0.0034 -0.4895
14364SOL    HW148222   5.959   4.981   6.136 -1.2844 -0.4460 -0.5935
14364SOL    HW248223   5.848   5.048   6.058  0.8953  0.2170 -3.2214
14365SOL     OW48224   8.329   4.384   9.198 -0.8464  0.3304  0.4646
14365SOL    HW148225   8.392   4.454   9.219  0.3817 -0.4137 -0.7082
14365SOL    HW248226   8.261   4.394   9.265  0.0375  1.7343  1.2005
14366SOL     OW48227   5.401   1.853   0.954 -0.2984 -0.3883  0.1194
14366SOL    HW148228   5.336   1.918   0.931 -0.4521  0.5609  3.0037
14366SOL    HW248229   5.359   1.799   1.021  1.3810 -0.5963  1.0488
14367SOL     OW48230   1.350   4.379   3.728  0.1785 -0.0793 -0.0047
14367SOL    HW148231   1.282   4.327   3.686 -1.1789  1.8566 -0.2537
14367SOL    HW248232   1.398   4.317   3.783 -1.9469 -1.4023  0.3772
14368SOL     OW48233  11.208   8.662   5.158  0.0802  0.5233 -0.0418
14368SOL    HW148234  11.204   8.577   5.201  1.0676  0.7964  0.5913
14368SOL    HW248235  11.167   8.722   5.220  0.9283  0.8035  0.2600
14369SOL     OW48236   9.773   7.160   9.005 -0.4851  0.5161  0.0237
14369SOL    HW148237   9.679   7.157   8.990 -0.5954 -0.5433  0.8834
14369SOL    HW248238   9.784   7.233   9.067 -0.7318  0.6216 -0.0533
14370SOL     OW48239   7.511   7.381   6.368 -0.2530  0.4369 -0.0377
14370SOL    HW148240   7.499   7.350   6.458 -0.5656  2.7787  0.7739
14370SOL    HW248241   7.428   7.423   6.346 -0.4739 -0.8526 -1.7474
14371SOL     OW48242   6.699   9.073   1.250 -0.3587  0.0243 -0.1931
14371SOL    HW148243   6.721   9.004   1.187 -1.7759 -0.6136 -0.0182
14371SOL    HW248244   6.632   9.126   1.206  1.6864  2.1406 -0.8557
14372SOL     OW48245   4.208   6.440   1.774  0.0393  0.2673 -0.3944
14372SOL    HW148246   4.140   6.505   1.793 -1.6739 -0.2089 -4.2873
14372SOL    HW248247   4.185   6.364   1.827  1.1060  2.1670  2.9267
14373SOL     OW48248   5.889   2.479   6.741 -0.2893  0.2042  0.0492
14373SOL    HW148249   5.814   2.444   6.694  0.5593 -0.2981 -0.9739
14373SOL    HW248250   5.865   2.569   6.761 -0.5298  0.5568 -1.7255
14374SOL     OW48251   6.983  10.597   6.792  0.3209  0.1496 -0.2665
14374SOL    HW148252   7.040  10.624   6.863  0.4648 -0.5034 -0.1353
14374SOL    HW248253   6.900  10.642   6.809 -0.2023 -1.3679  1.2882
14375SOL     OW48254   8.663   8.631   4.966 -0.6159  0.4711 -0.1315
14375SOL    HW148255   8.750   8.605   4.936 -0.2903  1.0285  0.3048
14375SOL    HW248256   8.631   8.556   5.016  0.7542  1.2522  2.0311
14376SOL     OW48257  10.581   5.241   4.151  0.2464 -0.8819  0.2460
14376SOL    HW148258  10.578   5.184   4.075 -0.3812  2.2437 -2.1921
14376SOL    HW248259  10.644   5.309   4.127  0.9553 -0.5088  3.0230
14377SOL     OW48260   6.187   6.132   1.239  0.5773 -0.1638  0.1397
14377SOL    HW148261   6.151   6.049   1.206  1.2932 -0.0821 -0.8930
14377SOL    HW248262   6.248   6.159   1.170 -0.1179  1.5365  0.1897
14378SOL     OW48263   4.098   1.433   1.356  0.0811  0.0617 -0.3773
14378SOL    HW148264   4.096   1.407   1.448 -0.9835  0.2136 -0.3500
14378SOL    HW248265   4.182   1.399   1.323  1.4478  1.8119  1.1546
14379SOL     OW48266  10.266   2.850   2.240 -0.3138 -0.4521  0.2765
14379SOL    HW148267  10.206   2.887   2.174  0.4453  0.2054 -0.0593
14379SOL    HW248268  10.252   2.905   2.317 -0.0593 -0.2183  0.1583
14380SOL     OW48269   4.799   5.215   8.688 -0.2568 -0.1801  0.0282
14380SOL    HW148270   4.716   5.194   8.647 -0.0603  0.0036 -0.4806
14380SOL    HW248271   4.778   5.284   8.751  0.0250  2.3835 -2.5551
14381SOL     OW48272   3.335   1.860   9.797 -0.0032 -0.0918 -0.2801
14381SOL    HW148273   3.340   1.792   9.729 -0.7092  0.5463 -0.9866
14381SOL    HW248274   3.273   1.825   9.861 -1.6512  0.5883 -1.4774
14382SOL     OW48275   2.784   3.701   6.760 -0.3885  0.6986  0.3105
14382SOL    HW148276   2.848   3.662   6.819 -0.4326  1.3396  0.7841
14382SOL    HW248277   2.729   3.755   6.816 -0.3000  1.4764 -0.3459
14383SOL     OW48278   2.567   4.948   2.947  0.4259 -0.5790 -0.0290
14383SOL    HW148279   2.498   4.993   2.996  1.8177 -0.7665  2.1783
14383SOL    HW248280   2.536   4.949   2.856 -1.1689  1.8005  0.4752
14384SOL     OW48281  11.283   1.049  10.826 -0.3676 -0.0196  0.1414
14384SOL    HW148282  11.280   0.956  10.852 -0.7147 -0.0133  0.1268
14384SOL    HW248283  11.266   1.047  10.732 -0.7509  0.0882  0.2081
14385SOL     OW48284   7.091   5.458   5.738 -0.2082 -0.3502 -0.4249
14385SOL    HW148285   7.152   5.478   5.667  0.9447  0.7839  0.8487
14385SOL    HW248286   7.080   5.363   5.735  1.2774 -0.5203 -0.9456
14386SOL     OW48287   9.004   0.618  10.658 -0.1927 -0.2571 -0.3974
14386SOL    HW148288   8.939   0.683  10.686 -0.7050  0.1155 -2.3588
14386SOL    HW248289   9.085   0.669  10.648 -0.2700 -0.1893 -0.6605
14387SOL     OW48290   6.404   6.309   2.999 -0.2376  0.6074  0.1395
14387SOL    HW148291   6.419   6.234   3.058 -1.9367  0.0926 -0.0509
14387SOL    HW248292   6.406   6.271   2.911 -2.2395  0.5472  0.0884
14388SOL     OW48293   1.861   0.505   9.102 -0.3529 -0.1267 -0.7393
14388SOL    HW148294   1.932   0.455   9.061 -0.8471 -1.7320  0.3125
14388SOL    HW248295   1.843   0.576   9.040  0.5714 -1.0837 -2.1381
14389SOL     OW48296   8.955   7.034   3.908 -0.4476 -0.2976  0.4353
14389SOL    HW148297   8.911   6.986   3.838  0.0045 -0.6390  0.3835
14389SOL    HW248298   8.897   7.024   3.983 -1.7605  1.4750 -0.3245
14390SOL     OW48299  10.358   9.213  11.309 -0.2010  0.2708 -0.0240
14390SOL    HW148300  10.446   9.233  11.340 -0.3982  0.0436  0.6790
14390SOL    HW248301  10.317   9.299  11.298  0.2760  0.3981 -0.8570
14391SOL     OW48302   6.489   6.595   1.506 -0.1496 -0.2919  0.1603
14391SOL    HW148303   6.450   6.509   1.520 -0.6765 -0.1311 -0.2979
14391SOL    HW248304   6.419   6.657   1.525  0.4289  0.0652  1.1638
14392SOL     OW48305   3.621   5.748   0.772 -0.0978  0.3846 -0.6075
14392SOL    HW148306   3.714   5.739   0.792 -0.0907  0.1590 -0.7448
14392SOL    HW248307   3.618   5.785   0.685 -0.1372 -1.9438 -1.6408
14393SOL     OW48308   9.461   0.183   6.441  0.1044 -0.3646  0.1667
14393SOL    HW148309   9.367   0.165   6.446  0.2299 -1.4457 -1.1338
14393SOL    HW248310   9.480   0.187   6.347  1.2710  0.3192  0.4240
14394SOL     OW48311   8.315   4.711   9.402 -0.1541  0.5275  1.0115
14394SOL    HW148312   8.246   4.773   9.382  0.1141  0.9157  1.2874
14394SOL    HW248313   8.311   4.700   9.497  1.0379  1.5846  1.2017
14395SOL     OW48314   7.539   1.290   4.160  0.2213 -0.2303  0.1608
14395SOL    HW148315   7.451   1.326   4.166 -0.8446 -2.5399 -0.9458
14395SOL    HW248316   7.595   1.357   4.198 -2.0360  1.1668  1.1193
14396SOL     OW48317   8.135   6.051   9.642 -0.1836 -0.0704 -0.2948
14396SOL    HW148318   8.156   6.052   9.735  0.3050 -0.1811 -0.4061
14396SOL    HW248319   8.041   6.069   9.639 -0.3002 -0.5770  0.2470
14397SOL     OW48320   8.315   5.327   5.220  0.4493 -0.0431  0.0799
14397SOL    HW148321   8.297   5.371   5.303  1.3825  1.6828 -0.6193
14397SOL    HW248322   8.286   5.388   5.152  0.0920 -1.2524 -0.8837
14398SOL     OW48323   0.166   4.739   7.826 -0.0165  0.0297 -0.1317
14398SOL    HW148324   0.168   4.694   7.742  3.3702 -0.3197  0.0991
14398SOL    HW248325   0.167   4.670   7.892  0.9288  0.3483  0.2013
14399SOL     OW48326  11.004   8.070   0.238  0.2446  0.1894  0.1379
14399SOL    HW148327  11.057   8.088   0.315  1.9268 -1.2872 -0.6457
14399SOL    HW248328  11.020   8.144   0.180  1.1239 -0.0521  0.0730
14400SOL     OW48329   7.719   8.761   0.239  0.1203  0.4913 -0.6092
14400SOL    HW148330   7.793   8.772   0.298  1.1169  0.9470 -1.9105
14400SOL    HW248331   7.655   8.711   0.290  1.2468  0.2320  0.5938
14401SOL     OW48332   6.517   4.599   7.358 -0.0490  0.0881 -0.6669
14401SOL    HW148333   6.499   4.575   7.267  0.3603 -0.8196 -0.5174
14401SOL    HW248334   6.470   4.533   7.409 -0.8829  1.0343 -0.2108
14402SOL     OW48335   9.198   8.139   5.774 -0.2450  0.4161  0.1255
14402SOL    HW148336   9.207   8.120   5.680  0.2016  1.1310  0.0205
14402SOL    HW248337   9.219   8.056   5.817  2.0007  0.7368 -0.3165
14403SOL     OW48338   0.170  10.539   1.793 -0.2812  0.3716 -0.5385
14403SOL    HW148339   0.197  10.510   1.706  0.7926  0.0711 -0.1213
14403SOL    HW248340   0.075  10.549   1.787 -0.4230 -1.2600 -1.2705
14404SOL     OW48341   8.784   5.494   4.658  0.0187 -0.0674 -0.1599
14404SOL    HW148342   8.741   5.506   4.574 -0.0042 -2.4299 -0.5216
14404SOL    HW248343   8.865   5.544   4.652  0.1886 -0.5278 -1.7270
14405SOL     OW48344   6.444   2.334   7.078 -0.2536 -0.0583 -0.2191
14405SOL    HW148345   6.390   2.368   7.150 -0.3416 -0.4350 -0.1105
14405SOL    HW248346   6.500   2.268   7.119 -0.6725 -0.6503 -0.5989
14406SOL     OW48347   6.935   9.105   2.018  0.6994  0.1055  0.2157
14406SOL    HW148348   6.906   9.059   2.097 -0.0081 -1.6713 -1.0377
14406SOL    HW248349   6.998   9.045   1.977 -0.3226  0.1729 -1.5053
14407SOL     OW48350   2.932   0.842   4.449 -0.0136 -0.1807  0.0344
14407SOL    HW148351   2.985   0.846   4.369  0.3051 -1.1020  0.1936
14407SOL    HW248352   2.885   0.759   4.442  1.0187 -0.9048  1.4214
14408SOL     OW48353  10.369   5.886   8.709  0.3169  0.0808  0.4932
14408SOL    HW148354  10.340   5.944   8.639  2.0780  0.6222  0.1762
14408SOL    HW248355  10.330   5.801   8.689 -1.3248  0.8627  0.3114
14409SOL     OW48356   8.901   1.040   6.851  0.6512  0.1813 -0.1235
14409SOL    HW148357   8.856   0.991   6.782 -0.5420  1.8733 -0.5617
14409SOL    HW248358   8.921   0.974   6.917 -0.4451 -1.0054 -0.9425
14410SOL     OW48359   4.580   8.989   9.791 -0.3500 -0.0131 -0.0997
14410SOL    HW148360   4.511   8.923   9.800 -1.5898  1.4929  1.5769
14410SOL    HW248361   4.624   8.990   9.876  0.0423  0.9201 -0.3066
14411SOL     OW48362   8.600   5.104   6.404 -0.6989 -0.3511 -0.3020
14411SOL    HW148363   8.535   5.091   6.336 -1.3353  2.1178 -0.2008
14411SOL    HW248364   8.682   5.116   6.356 -1.2770  2.1967 -0.7129
14412SOL     OW48365   5.504   1.014  11.091  0.2361 -0.3067 -0.1931
14412SOL    HW148366   5.532   1.097  11.131  1.0611 -0.6304 -0.0773
14412SOL    HW248367   5.583   0.982  11.046 -0.6553  0.0064 -2.0287
14413SOL     OW48368   7.319  11.221  10.025 -0.6609  0.2292 -0.2211
14413SOL    HW148369   7.283  11.137  10.053  1.0109 -0.2833  0.4512
14413SOL    HW248370   7.326  11.271  10.106  0.6659  0.1167 -0.2660
14414SOL     OW48371   9.333  10.504   1.664  0.9623  0.1894 -0.6892
14414SOL    HW148372   9.311  10.557   1.740  2.4499  0.1712 -0.2258
14414SOL    HW248373   9.425  10.525   1.645  0.1496  1.4654 -3.5055
14415SOL     OW48374   3.658  11.258   0.197  0.1139 -0.3177  0.1564
14415SOL    HW148375   3.570  11.285   0.225 -0.6443 -0.7283 -1.7551
14415SOL    HW248376   3.717  11.313   0.248 -1.2849  1.0114  0.3829
14416SOL     OW48377   9.877   2.515   8.619 -0.2166  0.0224 -0.3462
14416SOL    HW148378   9.798   2.501   8.567 -0.1914 -0.1317 -0.3432
14416SOL    HW248379   9.889   2.433   8.667  0.5210 -0.3195 -1.1248
14417SOL     OW48380  11.309   2.201   2.621 -0.9406  0.1214 -0.5544
14417SOL    HW148381  11.304   2.106   2.611  1.1515 -0.0406 -0.4528
14417SOL    HW248382  11.219   2.229   2.638 -1.5123 -1.8918 -0.1600
14418SOL     OW48383   9.097   0.744   1.159 -0.3881  0.0648  0.2171
14418SOL    HW148384   9.167   0.732   1.223 -1.5311 -0.7493  1.3324
14418SOL    HW248385   9.040   0.810   1.197 -0.7504  0.0259 -0.2471
14419SOL     OW48386   1.346   1.042   1.530 -0.4137 -0.4267 -0.9193
14419SOL    HW148387   1.266   1.085   1.560 -0.6766 -1.5018 -0.0336
14419SOL    HW248388   1.323   1.004   1.445 -0.3948  0.5347 -1.3606
14420SOL     OW48389   7.521   3.579   7.662 -0.0523  0.7969 -0.3189
14420SOL    HW148390   7.452   3.544   7.718  0.6493  1.0251  0.7021
14420SOL    HW248391   7.582   3.621   7.723  2.4021 -1.7688 -0.9231
14421SOL     OW48392   7.858   5.225   2.376 -0.1238 -0.0863  0.6003
14421SOL    HW148393   7.772   5.254   2.346  0.1887  0.8317  0.5612
14421SOL    HW248394   7.920   5.273   2.322  0.4257  0.4937  1.7110
14422SOL     OW48395   8.989   3.650   7.257 -0.2567 -0.5028  0.1092
14422SOL    HW148396   9.056   3.598   7.212 -0.2209  0.3868 -0.8886
14422SOL    HW248397   9.037   3.726   7.291 -0.2153 -1.3436  1.9859
14423SOL     OW48398   8.226   5.425   0.723  0.3169 -0.2168  0.6878
14423SOL    HW148399   8.201   5.487   0.792 -0.8220  2.1980 -1.7893
14423SOL    HW248400   8.170   5.349   0.738 -2.1080  1.5042  0.6321
14424SOL     OW48401   1.006   6.759   6.952  0.1910 -0.4492  0.0731
14424SOL    HW148402   0.979   6.675   6.914  0.2899 -0.5427  0.2055
14424SOL    HW248403   1.021   6.816   6.877  2.0532 -1.1403 -0.1103
14425SOL     OW48404   6.827   3.979   2.275 -0.3622 -0.1911  0.3553
14425SOL    HW148405   6.756   3.981   2.339 -0.2232  0.5410  0.4851
14425SOL    HW248406   6.799   3.913   2.211 -0.3104 -1.2152  1.3799
14426SOL     OW48407   6.983   4.808   1.336  0.3234 -0.4679 -0.5578
14426SOL    HW148408   6.975   4.741   1.404  1.9345  0.1188  0.2166
14426SOL    HW248409   7.004   4.889   1.384 -0.4726  0.3668 -1.5844
14427SOL     OW48410   9.499   4.036   8.906 -0.3776  0.1064  0.0741
14427SOL    HW148411   9.537   4.099   8.966 -1.1759  1.1025 -0.4503
14427SOL    HW248412   9.541   4.054   8.822 -1.2565  0.5377 -0.2783
14428SOL     OW48413   6.125  10.768   0.050 -0.3033  0.1060 -0.4486
14428SOL    HW148414   6.101  10.758   0.142  2.4428  0.4792  0.3563
14428SOL    HW248415   6.076  10.845   0.021  0.5674  1.3953  1.3642
14429SOL     OW48416   2.674   9.259  11.134  0.0800  0.0840  0.1545
14429SOL    HW148417   2.718   9.177  11.153  0.3408  0.1947  0.0277
14429SOL    HW248418   2.629   9.282  11.215  1.7053  0.8874  0.8405
14430SOL     OW48419   4.354   7.576   5.922  0.0442  0.0556  0.6042
14430SOL    HW148420   4.324   7.521   5.849 -0.7547  0.2968  0.7386
14430SOL    HW248421   4.363   7.663   5.884 -1.2733  0.3734  0.9982
14431SOL     OW48422   0.584   0.958  11.232  0.3274  0.3513  0.2477
14431SOL    HW148423   0.629   0.915  11.304 -1.0532 -0.6541  0.5442
14431SOL    HW248424   0.628   0.925  11.153 -1.3018 -2.4121  0.4200
14432SOL     OW48425   6.883  10.403   0.791  0.5022  0.0438 -0.2866
14432SOL    HW148426   6.813  10.415   0.727 -1.9062 -0.3105  2.1892
14432SOL    HW248427   6.845  10.346   0.858  2.2415  1.9650  2.4639
14433SOL     OW48428   9.909  11.059   2.029  0.4232 -1.2122  0.0771
14433SOL    HW148429   9.895  11.128   1.963  0.9943  0.3787  1.5956
14433SOL    HW248430   9.946  10.986   1.979  1.6839  0.2917 -1.2275
14434SOL     OW48431   0.253   3.933   3.692 -0.6770 -0.0671  0.1573
14434SOL    HW148432   0.181   3.885   3.652 -1.1374 -0.0073  0.8949
14434SOL    HW248433   0.243   3.916   3.786  1.0521 -1.1541  0.1635
14435SOL     OW48434   1.764   5.756   8.048  0.1601  0.6167 -0.2685
14435SOL    HW148435   1.805   5.842   8.043 -1.4884  1.3929 -0.7216
14435SOL    HW248436   1.713   5.757   8.129 -0.1179  0.1873 -0.4309
14436SOL     OW48437   9.096   8.573   1.673 -0.3403  0.4506 -0.0097
14436SOL    HW148438   9.021   8.519   1.650 -1.7595  2.0962  0.5849
14436SOL    HW248439   9.126   8.540   1.757 -0.1506 -0.4519 -0.4291
14437SOL     OW48440   8.523   1.496   3.531  0.1514 -0.0279  0.1623
14437SOL    HW148441   8.555   1.417   3.487  0.6235  0.0207  0.4168
14437SOL    HW248442   8.463   1.536   3.467  1.8583  0.7527 -0.9897
14438SOL     OW48443   9.321   1.341   8.356 -0.7565  0.4632  0.0043
14438SOL    HW148444   9.308   1.258   8.311 -2.5698 -0.0132  1.3950
14438SOL    HW248445   9.372   1.394   8.293  1.9448 -2.2493 -0.1942
14439SOL     OW48446   4.458   5.434   4.344 -0.0383 -0.0312  0.2016
14439SOL    HW148447   4.502   5.449   4.261  0.0294  0.0495  0.2526
14439SOL    HW248448   4.374   5.479   4.336 -0.3762 -0.7089 -0.1297
14440SOL     OW48449   3.520   3.386   5.320  0.1560  0.1327 -0.0145
14440SOL    HW148450   3.516   3.455   5.254 -1.6867  1.9276  1.8668
14440SOL    HW248451   3.577   3.421   5.388  0.9067 -1.1048  0.0048
14441SOL     OW48452   6.619   2.761   9.243 -0.2048 -0.4454  0.0048
14441SOL    HW148453   6.647   2.714   9.165  0.6391 -1.2327  0.7811
14441SOL    HW248454   6.546   2.710   9.277 -1.6808  0.8035 -1.1877
14442SOL     OW48455   3.676   6.615   6.608  0.5156 -0.0293 -0.3282
14442SOL    HW148456   3.662   6.520   6.603 -0.5093 -0.0145  1.5982
14442SOL    HW248457   3.592   6.653   6.580  0.4538  0.2768  0.2681
14443SOL     OW48458  10.383   4.907   0.058 -0.0219  0.3804  0.0436
14443SOL    HW148459  10.421   4.928   0.144 -0.1136  1.8801 -0.2787
14443SOL    HW248460  10.456   4.867   0.010  0.3490  0.6138  0.4044
14444SOL     OW48461   0.692  10.809  10.855  0.1190 -0.1767  0.6607
14444SOL    HW148462   0.667  10.722  10.887  0.9015 -1.0248 -0.9746
14444SOL    HW248463   0.616  10.839  10.806  0.8019 -1.0819 -0.9942
14445SOL     OW48464   7.056   4.694   0.935 -0.3395  0.3106  0.2494
14445SOL    HW148465   6.967   4.661   0.922 -1.0394  2.2151  0.1363
14445SOL    HW248466   7.112   4.624   0.901 -1.7924 -0.6218 -0.2915
14446SOL     OW48467   9.969   0.073   8.227  0.4302 -0.6132 -0.2853
14446SOL    HW148468   9.874   0.084   8.232  0.5798  0.4585  0.3863
14446SOL    HW248469   9.994   0.045   8.315  0.8714  0.2220 -0.1444
14447SOL     OW48470   5.911   3.422   2.854 -0.0571  0.7195 -0.6809
14447SOL    HW148471   5.867   3.378   2.781 -1.0579  0.2176  0.2108
14447SOL    HW248472   5.992   3.373   2.866 -0.8008 -0.4156 -0.2003
14448SOL     OW48473   9.597   8.896   8.147  0.1760  0.0791  0.5178
14448SOL    HW148474   9.539   8.928   8.078 -0.8119  0.0400  1.3157
14448SOL    HW248475   9.666   8.962   8.153  0.0952  0.2399 -0.2940
14449SOL     OW48476   3.514   7.169   0.490 -0.1926  0.2595  0.3062
14449SOL    HW148477   3.428   7.192   0.525 -0.5039 -1.4511  0.6938
14449SOL    HW248478   3.495   7.111   0.416  0.6103  0.0625  0.2485
14450SOL     OW48479   4.115   7.464   4.405 -0.2892 -0.3981  0.5336
14450SOL    HW148480   4.108   7.500   4.493  0.4804 -1.0811  0.8857
14450SOL    HW248481   4.160   7.532   4.355  1.6455 -1.0499  1.3288
14451SOL     OW48482   7.311   8.991   3.641  0.1621  0.3738 -0.2212
14451SOL    HW148483   7.242   9.052   3.666 -0.5686 -0.7997  0.6876
14451SOL    HW248484   7.287   8.909   3.683  1.6145 -0.3062 -0.6705
14452SOL     OW48485  10.958   0.665   2.556 -0.0061  0.0336  0.3084
14452SOL    HW148486  11.000   0.579   2.546 -1.4224 -0.4886 -1.2791
14452SOL    HW248487  10.868   0.652   2.527 -0.2341  2.0765  0.0141
14453SOL     OW48488   4.899   6.638   2.098  0.0943 -0.8631 -0.3123
14453SOL    HW148489   4.865   6.642   2.009 -0.3972 -1.8806 -0.1780
14453SOL    HW248490   4.825   6.606   2.151  0.0986  0.5938  0.6145
14454SOL     OW48491   9.340   5.325   1.606  0.9259  0.0402  0.0867
14454SOL    HW148492   9.274   5.394   1.618 -0.7305 -1.4478 -0.2719
14454SOL    HW248493   9.371   5.336   1.517  0.9053  0.5242  0.1389
14455SOL     OW48494  11.126   4.441   4.936 -0.4409 -0.0768 -0.1026
14455SOL    HW148495  11.141   4.530   4.967  0.5766 -0.7137  1.2987
14455SOL    HW248496  11.173   4.386   4.998  0.2198 -1.5022 -1.8250
14456SOL     OW48497   7.269   2.647   7.998 -0.2159 -0.1156  0.2117
14456SOL    HW148498   7.215   2.681   7.926 -0.9310  0.5694  1.0586
14456SOL    HW248499   7.240   2.556   8.009  0.3520 -0.4276 -0.7823
14457SOL     OW48500   8.507   5.801   3.235 -0.6242 -0.5212  0.2498
14457SOL    HW148501   8.419   5.793   3.274 -0.2226  0.7462  1.4632
14457SOL    HW248502   8.503   5.881   3.183 -0.8973 -1.7553 -1.6701
14458SOL     OW48503   2.757  10.301   2.397 -0.0512 -0.4871 -0.8497
14458SOL    HW148504   2.824  10.368   2.378 -1.8247  1.5131 -0.2008
14458SOL    HW248505   2.797  10.246   2.464  1.4426 -0.0919 -1.3852
14459SOL     OW48506   1.999   9.751   4.481 -0.0095  0.2389  0.5086
14459SOL    HW148507   2.004   9.757   4.577 -0.6930  1.2012  0.4878
14459SOL    HW248508   1.912   9.783   4.460  0.3798  0.6361 -0.4962
14460SOL     OW48509   4.529   0.159   4.434 -0.3176 -0.5377 -0.0357
14460SOL    HW148510   4.521   0.209   4.353  0.7444 -1.0455 -0.4694
14460SOL    HW248511   4.447   0.174   4.481 -1.5860 -1.4990 -1.9285
14461SOL     OW48512   0.486   8.253   9.064 -0.2094 -0.0728  0.3888
14461SOL    HW148513   0.569   8.212   9.041  1.0942  1.5859  1.9694
14461SOL    HW248514   0.419   8.193   9.030  1.6173 -1.8390 -0.1898
14462SOL     OW48515   2.452   9.206   0.637 -0.1131  0.5005 -0.2253
14462SOL    HW148516   2.461   9.252   0.554 -1.6257  1.1596 -0.0400
14462SOL    HW248517   2.484   9.269   0.702  2.7877 -0.6739 -0.4436
14463SOL     OW48518   5.429   0.811   7.683 -0.2108  0.2761 -0.2463
14463SOL    HW148519   5.388   0.763   7.611 -0.0622 -0.2694  0.0234
14463SOL    HW248520   5.368   0.799   7.756  0.7186 -1.0799  0.3381
14464SOL     OW48521   5.413   5.924  10.268 -0.1518 -0.3409  0.1528
14464SOL    HW148522   5.448   5.911  10.356  2.2480 -2.3539 -1.0168
14464SOL    HW248523   5.431   5.841  10.223 -1.8863  0.4208 -2.0486
14465SOL     OW48524   2.375   4.841   8.392  0.5037  0.2852 -0.1964
14465SOL    HW148525   2.425   4.837   8.310  0.9161  2.6534 -0.1084
14465SOL    HW248526   2.295   4.889   8.369 -1.2526 -2.4478 -0.0651
14466SOL     OW48527   9.935   7.362   6.628 -0.0429 -0.4752  0.2156
14466SOL    HW148528   9.980   7.356   6.544 -1.2261  0.2241 -0.4881
14466SOL    HW248529  10.002   7.340   6.693  1.1933  0.1235 -0.8295
14467SOL     OW48530   8.635   4.345   0.644  0.2271 -0.2864 -0.6838
14467SOL    HW148531   8.582   4.419   0.674  0.9431 -0.4415  1.0504
14467SOL    HW248532   8.572   4.276   0.624 -0.4282  0.6994 -2.0797
14468SOL     OW48533  10.326   6.128   2.905  0.2085 -0.1738  0.4631
14468SOL    HW148534  10.345   6.158   2.993 -0.0344 -0.1469  0.5078
14468SOL    HW248535  10.386   6.177   2.849  1.2149 -1.0869  0.7240
14469SOL     OW48536   8.898  11.139   8.433 -0.1970  0.2618 -0.0174
14469SOL    HW148537   8.922  11.048   8.411  0.6681  0.3425  0.5966
14469SOL    HW248538   8.820  11.131   8.487 -0.6530 -0.0736 -0.7127
14470SOL     OW48539   1.784   1.098   0.448  0.1251  0.3127  0.2225
14470SOL    HW148540   1.700   1.088   0.404 -0.5404  1.3814  1.2048
14470SOL    HW248541   1.806   1.191   0.438 -0.0519  0.5907  2.0903
14471SOL     OW48542   7.209  11.081   1.211 -0.3096  0.0311  0.0057
14471SOL    HW148543   7.288  11.047   1.168 -0.3801 -0.2293  0.0861
14471SOL    HW248544   7.193  11.021   1.283 -1.1505 -0.4792 -0.5985
14472SOL     OW48545   0.636   6.867   9.327 -0.0352 -0.6042 -0.1258
14472SOL    HW148546   0.575   6.794   9.339  0.5791 -0.9821  0.7622
14472SOL    HW248547   0.706   6.850   9.391  0.4944  0.3498 -0.4515
14473SOL     OW48548   6.868   5.173   4.293 -0.3023 -0.4009  0.1532
14473SOL    HW148549   6.876   5.116   4.217  2.0321  0.8475 -0.5968
14473SOL    HW248550   6.920   5.129   4.361  0.3576  0.1149 -0.0084
14474SOL     OW48551   3.786   4.172   2.730 -0.0505 -0.2976 -0.1484
14474SOL    HW148552   3.863   4.204   2.777  0.7408 -1.0985 -0.8685
14474SOL    HW248553   3.741   4.251   2.701  0.7536  0.1761 -0.1194
14475SOL     OW48554   3.153   5.757   0.087  0.0386 -0.2309  0.0462
14475SOL    HW148555   3.128   5.774   0.177 -0.7655  0.9993 -0.3985
14475SOL    HW248556   3.085   5.698   0.054 -0.4013  0.3760 -0.1422
14476SOL     OW48557   5.600   1.989   1.278  0.5563 -0.9807 -0.0177
14476SOL    HW148558   5.668   2.044   1.317  0.8199 -0.1854 -1.5264
14476SOL    HW248559   5.635   1.966   1.192 -1.6995  0.7140 -1.4498
14477SOL     OW48560   0.287   6.502   5.964  0.3440  0.3548 -0.1510
14477SOL    HW148561   0.327   6.578   6.008 -0.0346  0.6451 -0.3017
14477SOL    HW248562   0.280   6.529   5.872  1.0996 -0.2362 -0.3863
14478SOL     OW48563  10.747   3.993   5.611  0.5644 -0.4997 -0.9346
14478SOL    HW148564  10.822   4.031   5.655  1.4194 -0.6727 -2.2200
14478SOL    HW248565  10.783   3.926   5.554 -0.8919 -3.0585  1.0364
14479SOL     OW48566   4.307   1.556   4.484 -0.1243 -0.0789  0.3093
14479SOL    HW148567   4.297   1.516   4.398 -0.2130  0.6500 -0.0211
14479SOL    HW248568   4.397   1.537   4.509  0.6037  1.6113 -0.9229
14480SOL     OW48569  10.990   3.460   2.571  0.9563 -0.4120 -0.1672
14480SOL    HW148570  10.990   3.403   2.648  0.2472 -0.3896 -0.1519
14480SOL    HW248571  11.048   3.532   2.596 -0.1917  0.2048  0.8075
14481SOL     OW48572   2.552   8.323   4.942 -0.0992 -0.4525  0.1498
14481SOL    HW148573   2.549   8.392   5.008 -0.4724 -0.1057 -0.2217
14481SOL    HW248574   2.482   8.347   4.880  0.3536 -0.6811 -0.4512
14482SOL     OW48575   4.225   4.276   0.610 -0.0808 -0.3160  0.2479
14482SOL    HW148576   4.188   4.333   0.677  2.6357  1.3752  0.3757
14482SOL    HW248577   4.179   4.301   0.530 -0.9231  0.0682  0.8459
14483SOL     OW48578   2.758   3.003   4.195  0.3955  0.6674  0.0374
14483SOL    HW148579   2.854   3.009   4.194  0.4562 -0.2606  0.1965
14483SOL    HW248580   2.737   2.979   4.285  0.0891 -0.3052 -0.2901
14484SOL     OW48581   0.216   0.293   9.879 -0.0806 -0.0811  0.6788
14484SOL    HW148582   0.239   0.381   9.909 -0.0968 -0.1553  0.9122
14484SOL    HW248583   0.296   0.242   9.891  1.2520  0.8771 -3.4166
14485SOL     OW48584  10.866   7.607   5.418 -0.2631 -0.3760 -0.2590
14485SOL    HW148585  10.831   7.690   5.385 -1.0468 -1.0707 -1.1936
14485SOL    HW248586  10.914   7.631   5.497 -2.9177  0.6184  1.1084
14486SOL     OW48587   2.016   2.724   6.832 -0.4865 -0.3503  0.3369
14486SOL    HW148588   1.955   2.693   6.898 -0.5937  0.9108  0.8549
14486SOL    HW248589   2.102   2.714   6.872 -0.5022 -0.2499  0.3968
14487SOL     OW48590   9.622   5.021   5.964 -0.0552  0.1383  0.1514
14487SOL    HW148591   9.536   5.062   5.967 -1.3611 -2.3837 -1.3980
14487SOL    HW248592   9.631   4.988   5.875  2.3004 -0.0744  0.4315
14488SOL     OW48593   5.039   9.869   1.992  0.1983 -0.1557  0.3443
14488SOL    HW148594   4.999   9.811   2.057  1.4594 -1.5181 -0.0770
14488SOL    HW248595   5.075   9.810   1.926  1.2253  1.1256 -0.2576
14489SOL     OW48596   6.670   6.031   4.851  0.3662  0.0290 -0.3788
14489SOL    HW148597   6.593   6.053   4.798 -1.0806 -2.3647  0.6424
14489SOL    HW248598   6.652   6.070   4.937  1.8655  2.3032 -1.0274
14490SOL     OW48599   1.068   2.105   6.361 -0.2618  0.6084  0.4193
14490SOL    HW148600   1.149   2.053   6.363 -1.7078 -1.7405 -0.2051
14490SOL    HW248601   1.066   2.150   6.445  0.8041 -0.7269  1.1722
14491SOL     OW48602  10.117   4.576   3.060 -0.2694  0.0401  0.5211
14491SOL    HW148603  10.151   4.544   2.976  1.2256 -1.4101  1.6407
14491SOL    HW248604  10.170   4.653   3.080 -0.2700  0.0727  0.3948
14492SOL     OW48605   3.086   1.087   3.595 -0.2586  0.4345  0.4230
14492SOL    HW148606   3.118   1.145   3.526 -0.8637  1.3106  0.8667
14492SOL    HW248607   3.000   1.058   3.565 -0.0630 -0.0356  0.3165
14493SOL     OW48608   5.474   4.647   6.375  0.2765  0.1976 -0.0469
14493SOL    HW148609   5.568   4.658   6.358  0.5032 -1.5189  0.0075
14493SOL    HW248610   5.443   4.591   6.305 -0.2685 -1.0214  1.1495
14494SOL     OW48611   1.538   6.272   0.923  0.2090 -0.5833  0.1625
14494SOL    HW148612   1.566   6.187   0.889  1.6332 -0.1443  0.2141
14494SOL    HW248613   1.562   6.270   1.016  1.3693  0.3534 -0.1200
14495SOL     OW48614   1.901   4.466  10.074  0.2340 -0.0089  0.3279
14495SOL    HW148615   1.812   4.486  10.047  0.3031 -0.0501  0.0704
14495SOL    HW248616   1.943   4.552  10.086  0.6022  0.0098 -1.0116
14496SOL     OW48617  11.240   7.413   4.047 -0.0094  0.2151  0.3233
14496SOL    HW148618  11.267   7.335   3.999 -0.8307 -1.1219  1.9985
14496SOL    HW248619  11.186   7.462   3.984 -0.6079 -1.2384 -0.3210
14497SOL     OW48620   5.417   1.869   0.120 -0.1673  0.4105 -0.5498
14497SOL    HW148621   5.480   1.928   0.079 -0.7808 -0.2969 -2.5817
14497SOL    HW248622   5.405   1.799   0.056 -0.7899 -0.9926  1.0795
14498SOL     OW48623   0.165   8.399  11.076  0.0388  0.2302  0.0191
14498SOL    HW148624   0.246   8.351  11.092 -1.0938 -1.9585 -0.6817
14498SOL    HW248625   0.168   8.421  10.983  0.0622  0.6172  0.1107
14499SOL     OW48626   6.560   2.484   0.593 -0.0716 -0.0318  0.3237
14499SOL    HW148627   6.628   2.509   0.655 -0.8886  0.0534  1.1989
14499SOL    HW248628   6.517   2.566   0.569 -1.3731 -0.3371  1.5683
14500SOL     OW48629   0.998   2.537   8.378  0.4699  0.2499 -0.1614
14500SOL    HW148630   0.924   2.498   8.332 -0.6724  1.2503  0.7673
14500SOL    HW248631   0.970   2.540   8.470  2.9179 -2.2503  0.7248
14501SOL     OW48632   4.883   0.116   3.892  0.0096 -0.0222 -0.4601
14501SOL    HW148633   4.903   0.133   3.984  1.1747 -3.2250 -0.0450
14501SOL    HW248634   4.791   0.092   3.891  0.5652 -2.3149  0.2799
14502SOL     OW48635  10.156   8.755   1.191 -0.0740 -0.6123  0.4002
14502SOL    HW148636  10.240   8.758   1.146  0.6438 -1.7018  1.6400
14502SOL    HW248637  10.171   8.801   1.274 -1.1267  0.5579 -0.0409
14503SOL     OW48638  11.148   8.231   1.874  0.3620  0.1995  0.0636
14503SOL    HW148639  11.054   8.214   1.882  0.5593 -2.0071 -1.6018
14503SOL    HW248640  11.174   8.264   1.959 -2.2316  2.4850  0.0455
14504SOL     OW48641   5.749   1.791   4.625 -0.1744  0.5128 -0.0869
14504SOL    HW148642   5.784   1.809   4.538 -0.2084 -2.4114 -0.7582
14504SOL    HW248643   5.672   1.737   4.610  1.1987 -2.1259  1.7841
14505SOL     OW48644   6.944   7.646   4.299  0.3461  0.6329  0.1255
14505SOL    HW148645   6.998   7.577   4.260 -0.1628  0.8411 -0.9469
14505SOL    HW248646   6.858   7.605   4.311  0.1090  1.0071 -0.2861
14506SOL     OW48647   2.980   3.311   1.839  0.6293  0.3986  0.5641
14506SOL    HW148648   3.057   3.257   1.821 -0.6604 -0.3121 -3.4527
14506SOL    HW248649   3.017   3.393   1.873  3.2743  0.2522 -1.6866
14507SOL     OW48650   7.075   3.584   3.123 -0.0045 -0.9892  0.0364
14507SOL    HW148651   7.082   3.490   3.108  0.6760 -1.0841  0.9058
14507SOL    HW248652   7.120   3.599   3.206  1.5086  0.3424 -0.9781
14508SOL     OW48653   1.817   7.465   5.188 -0.2850 -0.4673 -0.1330
14508SOL    HW148654   1.725   7.442   5.171 -0.3846  0.0127 -0.2340
14508SOL    HW248655   1.816   7.559   5.205  0.1911 -0.4598 -0.1400
14509SOL     OW48656  10.756  11.233   7.458 -0.0278 -0.2252 -0.3708
14509SOL    HW148657  10.772  11.326   7.439  1.3280  0.0821  2.0469
14509SOL    HW248658  10.784  11.223   7.549 -2.7304 -2.4130  0.2463
14510SOL     OW48659  10.541   2.178  10.263  0.2744  0.3043  0.7248
14510SOL    HW148660  10.469   2.238  10.278  0.4970  0.3214  1.7995
14510SOL    HW248661  10.504   2.091  10.279  0.9005  0.4270  2.9565
14511SOL     OW48662   5.172  10.523   7.745  0.7408  0.0683  0.2194
14511SOL    HW148663   5.212  10.451   7.794 -1.9333 -1.9372 -0.4153
14511SOL    HW248664   5.103  10.481   7.693 -0.5453  3.0349 -0.5729
14512SOL     OW48665   9.537   1.341   6.479 -0.0841 -0.0294  0.1092
14512SOL    HW148666   9.457   1.349   6.426 -0.1116  0.8606  0.2691
14512SOL    HW248667   9.506   1.309   6.564 -0.1003 -0.9749 -0.2430
14513SOL     OW48668   3.678   6.449   9.407  0.3333  0.5063 -0.2333
14513SOL    HW148669   3.749   6.490   9.456  0.8405  1.9712 -2.1398
14513SOL    HW248670   3.599   6.474   9.454  0.9354  0.2609  0.9385
14514SOL     OW48671   7.995   5.566   7.009  0.3817  0.6283  0.2606
14514SOL    HW148672   8.040   5.607   7.083  1.0053 -0.4205  0.4734
14514SOL    HW248673   7.947   5.493   7.047  0.4911  0.2447 -0.3228
14515SOL     OW48674   1.136   3.179   6.721  0.7174 -0.0779 -0.3663
14515SOL    HW148675   1.144   3.222   6.806 -0.1730  0.9481 -0.7757
14515SOL    HW248676   1.111   3.089   6.741  1.3776 -0.0819  0.4724
14516SOL     OW48677   9.691   7.083   3.029 -0.0433 -0.2318  0.0207
14516SOL    HW148678   9.683   7.038   2.945  1.3833 -1.4242  0.5080
14516SOL    HW248679   9.746   7.159   3.010 -1.0473  0.3848 -0.4508
14517SOL     OW48680   9.995   0.868   7.743  0.0373  0.2996  0.1011
14517SOL    HW148681  10.019   0.949   7.788  3.3227 -0.0821 -0.8786
14517SOL    HW248682   9.983   0.894   7.651  1.2894 -0.3380 -0.2490
14518SOL     OW48683   9.353  10.156   1.161  0.1637 -0.3540  0.0174
14518SOL    HW148684   9.351  10.212   1.083 -1.3383 -0.8489 -0.3345
14518SOL    HW248685   9.352  10.216   1.235 -2.3318  0.1134 -0.3507
14519SOL     OW48686   4.757   6.057   9.112 -0.0818 -0.5528 -0.0474
14519SOL    HW148687   4.741   6.020   9.026  0.5707 -0.8027 -0.0633
14519SOL    HW248688   4.676   6.042   9.161 -1.4622  1.9780 -1.4381
14520SOL     OW48689   5.311   6.916  10.879 -0.4074 -0.5209  0.4694
14520SOL    HW148690   5.335   6.923  10.786 -1.5111 -0.3195  0.2023
14520SOL    HW248691   5.309   6.821  10.895 -0.8175 -0.5708  0.1329
14521SOL     OW48692   8.690   4.749   4.696  0.2081  0.2690 -0.0954
14521SOL    HW148693   8.749   4.677   4.721 -0.2249 -0.1264 -0.2092
14521SOL    HW248694   8.602   4.714   4.710 -0.0082  0.7334 -0.2845
14522SOL     OW48695   7.081   4.227  10.169 -0.4696  0.1251  0.0767
14522SOL    HW148696   7.129   4.178  10.236  1.5593  1.2332 -0.5280
14522SOL    HW248697   7.099   4.180  10.087  0.7759  1.3187 -0.3687
14523SOL     OW48698   6.478   9.591   6.112  0.2340 -0.5774 -0.0425
14523SOL    HW148699   6.448   9.675   6.077  0.4173 -0.0958  0.9452
14523SOL    HW248700   6.489   9.607   6.206 -0.5898 -1.9510  0.2892
14524SOL     OW48701  10.975   9.797   5.595 -0.0096  0.1731  0.1416
14524SOL    HW148702  10.930   9.744   5.660 -0.5090  0.6787  0.2076
14524SOL    HW248703  10.930   9.881   5.596  1.7906  1.1418  1.1708
14525SOL     OW48704   0.445  10.579  10.329  0.1370  0.2666  0.0031
14525SOL    HW148705   0.443  10.523  10.407  2.3709 -1.2181 -0.9594
14525SOL    HW248706   0.463  10.667  10.363 -2.9962  0.3983  1.4957
14526SOL     OW48707   3.834  11.295   9.708  0.0638 -0.0946 -0.5635
14526SOL    HW148708   3.921  11.325   9.732  0.2958 -2.1104  1.2611
14526SOL    HW248709   3.811  11.231   9.775 -1.4070 -2.1431 -2.9302
14527SOL     OW48710   9.695  10.289   5.392  0.6632  0.1731 -0.0417
14527SOL    HW148711   9.738  10.277   5.307  1.5443  1.7257  0.1506
14527SOL    HW248712   9.629  10.356   5.377  0.3337 -0.0630  0.3335
14528SOL     OW48713   7.562   9.964   1.411 -0.2131 -0.4134  0.1821
14528SOL    HW148714   7.515   9.907   1.351 -1.6013  0.1157  0.7314
14528SOL    HW248715   7.653   9.960   1.382 -0.6380 -1.2311 -1.0909
14529SOL     OW48716   9.116   3.916   8.825 -0.0864 -0.3288  0.0509
14529SOL    HW148717   9.175   3.917   8.749  2.6159 -1.2623  2.0268
14529SOL    HW248718   9.067   3.835   8.816 -0.8438  0.2740 -1.4414
14530SOL     OW48719   9.677   3.751   9.449 -0.2753 -0.3419 -0.1482
14530SOL    HW148720   9.629   3.761   9.367 -0.9604  0.0003  0.2890
14530SOL    HW248721   9.683   3.840   9.484 -0.0683 -0.5002  0.2145
14531SOL     OW48722   2.652   2.500   0.591  0.0669 -0.4641  0.5077
14531SOL    HW148723   2.581   2.488   0.654 -0.2415  1.5411  0.5809
14531SOL    HW248724   2.622   2.455   0.512 -0.9180 -0.3578  0.8120
14532SOL     OW48725   5.714   2.679   6.022  0.3402 -0.0944 -0.1309
14532SOL    HW148726   5.759   2.636   6.096  2.4580  0.8552 -0.8271
14532SOL    HW248727   5.660   2.746   6.063  0.9862 -0.0232  0.6213
14533SOL     OW48728   7.420   1.734   2.348  0.1170 -0.0348 -0.1414
14533SOL    HW148729   7.511   1.704   2.343  0.4367  0.9954 -0.5376
14533SOL    HW248730   7.379   1.700   2.268  0.4901  0.6068 -0.6110
14534SOL     OW48731   9.103   0.798   6.159 -0.4008  0.1588  0.5571
14534SOL    HW148732   9.193   0.826   6.177 -0.2006 -0.3693  0.3971
14534SOL    HW248733   9.081   0.839   6.075 -0.0098 -0.3839  0.1853
14535SOL     OW48734   0.250   1.971   0.438  0.2022  0.2453 -0.1634
14535SOL    HW148735   0.280   2.039   0.498  0.6868 -0.7909  0.7889
14535SOL    HW248736   0.206   1.907   0.495  2.2685 -1.6626 -0.6466
14536SOL     OW48737   5.464   1.342   4.933 -0.0835 -0.3073 -0.1623
14536SOL    HW148738   5.557   1.324   4.936  0.0579  0.5461  1.1682
14536SOL    HW248739   5.447   1.394   5.012 -1.6571 -0.3776 -0.4342
14537SOL     OW48740   5.946   7.719   6.281  0.1743 -0.1193 -0.4482
14537SOL    HW148741   5.943   7.633   6.238  1.0485 -0.6155  0.4540
14537SOL    HW248742   5.934   7.699   6.374  0.6443  0.7184 -0.2098
14538SOL     OW48743   5.041   2.561   8.461  0.4160 -0.1082 -0.4000
14538SOL    HW148744   5.093   2.508   8.400 -0.3257 -0.8136 -0.4240
14538SOL    HW248745   5.045   2.512   8.543 -0.2713 -0.1977 -0.4220
14539SOL     OW48746   0.134   1.244   0.061 -0.2861 -0.4348  0.2756
14539SOL    HW148747   0.112   1.263   0.153  0.4581  0.9045  0.1941
14539SOL    HW248748   0.209   1.186   0.067 -0.8097 -1.0999  0.5143
14540SOL     OW48749   0.294   2.011   7.352  0.3246  0.3062 -0.5031
14540SOL    HW148750   0.284   2.047   7.440  2.6157  1.0098 -0.4933
14540SOL    HW248751   0.266   1.920   7.360 -2.1200  1.0815  0.2912
14541SOL     OW48752   6.805   4.120   8.580 -0.4334  0.1091  0.0965
14541SOL    HW148753   6.815   4.058   8.508 -1.3347 -1.8918  1.6430
14541SOL    HW248754   6.734   4.178   8.553 -0.1086 -0.0248 -1.0419
14542SOL     OW48755   8.127   2.218   7.183 -0.3844 -0.0393  0.7497
14542SOL    HW148756   8.190   2.249   7.248  0.1850  2.1048 -0.7507
14542SOL    HW248757   8.046   2.266   7.203 -0.9676 -1.2977  1.4432
14543SOL     OW48758   4.302   8.015   2.506 -0.0100 -0.2092  0.0836
14543SOL    HW148759   4.343   7.929   2.501 -0.6112 -0.5624  1.2428
14543SOL    HW248760   4.209   7.999   2.490  0.1265  0.4674 -1.5270
14544SOL     OW48761  10.096   9.896   2.254  0.0307 -0.3067 -0.0269
14544SOL    HW148762  10.074   9.981   2.293 -0.0555 -0.9857  1.4201
14544SOL    HW248763  10.182   9.910   2.213 -0.0210  0.4942  0.1321
14545SOL     OW48764   1.224   6.282   7.244  0.6382 -0.0453  0.0855
14545SOL    HW148765   1.166   6.353   7.216  1.2416  0.4778  0.1423
14545SOL    HW248766   1.236   6.228   7.166  0.9676  0.4723 -0.2292
14546SOL     OW48767   9.626   1.792   5.270 -0.4572 -0.0284 -0.4448
14546SOL    HW148768   9.535   1.809   5.245 -0.5669 -1.7155 -1.2466
14546SOL    HW248769   9.629   1.698   5.284  1.3311 -0.0639 -1.0289
14547SOL     OW48770   6.611   3.435   2.600 -0.2850  0.1671  0.4796
14547SOL    HW148771   6.571   3.406   2.518  1.6504  1.1893 -0.8688
14547SOL    HW248772   6.690   3.380   2.608 -0.7563 -0.3011  1.9403
14548SOL     OW48773   1.764   7.237  10.602  0.1028  0.7502 -0.1181
14548SOL    HW148774   1.833   7.295  10.635 -1.4660  0.7418  3.3466
14548SOL    HW248775   1.685   7.290  10.602 -0.5161 -0.1431 -1.1293
14549SOL     OW48776   1.477   6.545  10.713  0.1261  0.1154  0.0707
14549SOL    HW148777   1.525   6.570  10.634  1.6921 -0.2335  0.9015
14549SOL    HW248778   1.399   6.601  10.712  0.3919  0.4853 -1.4414
14550SOL     OW48779   9.822   2.031   4.716 -0.5441  0.3658  0.4724
14550SOL    HW148780   9.882   1.967   4.754 -0.6465 -0.3403 -0.5357
14550SOL    HW248781   9.763   1.979   4.661 -0.6318  1.3210 -0.3540
14551SOL     OW48782   1.207   0.861   5.203  0.1026  0.2452 -0.3586
14551SOL    HW148783   1.194   0.767   5.215  1.8998  0.1687  1.2208
14551SOL    HW248784   1.155   0.901   5.272  0.2713  0.3707 -0.3054
14552SOL     OW48785   6.370   6.445   0.202  0.4798  0.4538 -0.3765
14552SOL    HW148786   6.283   6.481   0.189  1.7248  2.5034 -3.5456
14552SOL    HW248787   6.373   6.367   0.147  0.5797  0.2550 -0.0923
14553SOL     OW48788   2.670   6.894   2.314  0.1641 -0.1244  0.0226
14553SOL    HW148789   2.709   6.835   2.379  2.9885 -0.0131 -1.4677
14553SOL    HW248790   2.661   6.839   2.236 -0.0487  0.6167 -0.4748
14554SOL     OW48791  11.088   2.352   9.773  0.1265 -0.7208  0.5392
14554SOL    HW148792  11.029   2.287   9.733 -2.0449  1.6909 -0.3617
14554SOL    HW248793  11.092   2.328   9.865  0.5531 -2.9845 -0.0476
14555SOL     OW48794   5.551   1.660   8.865  0.2729  0.7102  0.2392
14555SOL    HW148795   5.532   1.595   8.932 -2.6895 -0.7100 -1.8932
14555SOL    HW248796   5.645   1.650   8.849 -0.1208 -3.1208 -0.0840
14556SOL     OW48797  10.983   4.527   3.209  0.6874  0.1030 -0.3460
14556SOL    HW148798  11.075   4.502   3.216  0.5422 -0.4835 -0.4645
14556SOL    HW248799  10.936   4.461   3.261  0.3978  0.7940  0.2777
14557SOL     OW48800   7.144   6.376   7.087  0.1963  0.2130  0.0620
14557SOL    HW148801   7.112   6.409   7.170 -1.4023 -0.6882 -0.1842
14557SOL    HW248802   7.067   6.342   7.042  1.3324 -1.0983 -0.9686
14558SOL     OW48803   4.138   3.282   3.804  1.0221 -0.0853 -0.5756
14558SOL    HW148804   4.115   3.237   3.885  0.4669  0.3888 -0.4642
14558SOL    HW248805   4.055   3.313   3.769  1.4237  1.1356 -0.4837
14559SOL     OW48806   1.233  11.002  11.047 -0.9051 -0.2345 -0.1368
14559SOL    HW148807   1.207  10.946  10.974 -1.5138  2.2839 -1.8818
14559SOL    HW248808   1.327  11.015  11.035 -0.7849 -0.7588  0.2049
14560SOL     OW48809  10.304   9.083   0.215  0.5962  0.2010 -0.4029
14560SOL    HW148810  10.311   9.121   0.128  1.0630 -0.3727 -0.6192
14560SOL    HW248811  10.324   9.156   0.274 -0.7627  0.8504 -0.7248
14561SOL     OW48812   3.047  10.461   8.556 -0.0140  0.0972  0.2142
14561SOL    HW148813   3.040  10.366   8.553  0.0321  0.1343 -1.4031
14561SOL    HW248814   3.130  10.481   8.512  0.0501  0.8706  0.6741
14562SOL     OW48815   9.204   0.446   0.757 -0.0824  0.4390 -0.0784
14562SOL    HW148816   9.169   0.365   0.792 -1.4788  1.1584  0.2585
14562SOL    HW248817   9.286   0.460   0.804  0.6290 -1.2347 -0.8014
14563SOL     OW48818   7.401   1.720   8.666  0.0486 -0.0979  0.2354
14563SOL    HW148819   7.404   1.675   8.582  0.4886  0.8881 -0.2778
14563SOL    HW248820   7.394   1.650   8.731 -0.2085 -0.8583 -0.6134
14564SOL     OW48821  11.247   1.360   3.126 -0.1921 -0.0807 -0.8960
14564SOL    HW148822  11.156   1.389   3.133  0.0917  0.7340 -0.4950
14564SOL    HW248823  11.298   1.435   3.156  0.5197 -1.3508  1.1880
14565SOL     OW48824   6.358   4.456   6.202 -0.4765 -0.0984 -0.0097
14565SOL    HW148825   6.280   4.503   6.233 -0.6306 -0.2802 -0.1218
14565SOL    HW248826   6.333   4.421   6.117  0.4526  1.6952 -1.0463
14566SOL     OW48827   4.187   9.982   7.279  0.4378  0.3547 -0.1207
14566SOL    HW148828   4.119  10.023   7.225  0.5799  0.4384 -0.2340
14566SOL    HW248829   4.151   9.896   7.300  0.3810  0.3233 -0.3474
14567SOL     OW48830  11.278   6.668   5.559  0.2592 -0.4725 -0.5446
14567SOL    HW148831  11.307   6.631   5.642  0.4865  1.2907  0.1921
14567SOL    HW248832  11.343   6.737   5.541 -0.4029 -0.1354 -1.6354
14568SOL     OW48833   2.418   3.436   2.430  0.3391  0.2244  0.2410
14568SOL    HW148834   2.386   3.504   2.371 -0.8618  1.2596  2.0052
14568SOL    HW248835   2.341   3.381   2.447  1.0818 -1.0542 -0.4674
14569SOL     OW48836   3.766  10.605   9.344  0.2916  0.3513  0.7065
14569SOL    HW148837   3.778  10.688   9.298  1.9029  0.7267  1.8068
14569SOL    HW248838   3.670  10.595   9.349  0.0899  1.4829 -0.5881
14570SOL     OW48839   6.370  10.227   1.041  0.0222 -0.1357 -0.7224
14570SOL    HW148840   6.449  10.185   1.077 -0.1981 -1.4748 -1.7234
14570SOL    HW248841   6.297  10.175   1.076 -0.4733  1.5390  0.7777
14571SOL     OW48842   6.374   0.656   2.269  0.0273  0.2959 -0.1245
14571SOL    HW148843   6.389   0.562   2.264  1.7305  0.4183  1.8558
14571SOL    HW248844   6.295   0.665   2.323 -0.6730 -0.0132 -1.0880
14572SOL     OW48845   3.638  10.713   2.226  0.1430  0.0369  0.1615
14572SOL    HW148846   3.652  10.808   2.226  1.0861 -0.0927  1.2740
14572SOL    HW248847   3.707  10.679   2.283 -0.2533 -1.3126 -0.1584
14573SOL     OW48848   2.299   1.191   3.544 -0.2667 -0.2008 -0.2635
14573SOL    HW148849   2.210   1.218   3.566  0.1221  1.3154 -0.5062
14573SOL    HW248850   2.288   1.128   3.473 -1.1436 -0.1241 -0.2005
14574SOL     OW48851   8.918   0.274  10.467  0.0207 -0.0099  0.2982
14574SOL    HW148852   8.915   0.197  10.411  0.0306  0.4781 -0.3761
14574SOL    HW248853   8.910   0.239  10.556  2.8388 -1.0194  0.1966
14575SOL     OW48854   5.702   4.982   5.289 -0.1655 -0.3043  0.0478
14575SOL    HW148855   5.664   4.918   5.349 -0.7950 -0.8088 -0.8805
14575SOL    HW248856   5.793   4.953   5.279 -0.0788 -0.2667  0.6819
14576SOL     OW48857   0.096   9.129   0.307 -0.4596 -0.1052  0.2161
14576SOL    HW148858   0.176   9.157   0.262 -0.0214 -0.2235  0.9099
14576SOL    HW248859   0.058   9.064   0.249  0.6772 -1.0618  0.5048
14577SOL     OW48860   3.005   7.290   5.886 -0.6866 -0.2002  0.4036
14577SOL    HW148861   2.927   7.267   5.835 -0.7762  0.0144  0.4450
14577SOL    HW248862   3.075   7.296   5.821 -0.1890 -2.7905  0.6652
14578SOL     OW48863   6.977  11.141   5.963  0.2768 -0.1662  0.3043
14578SOL    HW148864   7.021  11.223   5.939 -0.7390  0.4004  0.2991
14578SOL    HW248865   6.940  11.158   6.050  0.3194 -0.7221  0.4292
14579SOL     OW48866   9.699   2.099   2.665  0.5994  0.6506  0.1565
14579SOL    HW148867   9.641   2.034   2.705 -0.9339  0.7300 -1.8394
14579SOL    HW248868   9.727   2.059   2.583 -0.3681  2.4717 -1.1104
14580SOL     OW48869   3.887   9.690   2.701  0.4817 -0.3030  0.3729
14580SOL    HW148870   3.953   9.621   2.705  0.7413 -0.0710  0.1117
14580SOL    HW248871   3.918   9.750   2.633  0.5896  0.4164  1.0521
14581SOL     OW48872   2.535   1.028   0.222 -0.5641  0.1837 -0.0337
14581SOL    HW148873   2.553   0.935   0.217 -2.7470 -0.2746  0.2533
14581SOL    HW248874   2.444   1.037   0.193 -0.2861  2.2518 -0.3825
14582SOL     OW48875   7.234   3.276   5.726  0.1831 -0.0577  0.1688
14582SOL    HW148876   7.223   3.347   5.789  1.3702  1.4402 -1.2396
14582SOL    HW248877   7.201   3.198   5.770 -0.8698  1.3254  1.8672
14583SOL     OW48878  10.673   5.363   8.388  0.1912 -0.1213 -0.2780
14583SOL    HW148879  10.606   5.314   8.435  0.1906 -0.8269 -1.0165
14583SOL    HW248880  10.744   5.300   8.373  0.5659  0.3348 -0.4516
14584SOL     OW48881   0.557   5.538   1.248 -0.3760  0.7117 -0.0835
14584SOL    HW148882   0.519   5.479   1.182 -3.6509  2.7701 -0.1675
14584SOL    HW248883   0.651   5.537   1.231 -0.6887 -2.2841 -1.8695
14585SOL     OW48884   4.208   5.577   5.504  0.7916 -0.2278  0.2014
14585SOL    HW148885   4.236   5.588   5.595 -0.4205 -1.0942  0.6824
14585SOL    HW248886   4.113   5.572   5.508  0.6576  0.8245 -1.2378
14586SOL     OW48887   6.260   5.993   0.818  0.3369  0.5185  0.3993
14586SOL    HW148888   6.336   6.033   0.861  0.6946 -1.3378  1.5912
14586SOL    HW248889   6.269   5.899   0.838 -0.3965 -0.1681 -2.3722
14587SOL     OW48890   0.148   9.632   6.361 -0.6766 -0.1278  0.2897
14587SOL    HW148891   0.202   9.702   6.325  0.4924 -0.3753  1.5409
14587SOL    HW248892   0.210   9.568   6.395 -1.7207 -0.0280  2.4917
14588SOL     OW48893   5.353   9.950   1.934 -0.0373  0.3426  0.0861
14588SOL    HW148894   5.409  10.023   1.962 -0.5038  1.7168 -2.4437
14588SOL    HW248895   5.313   9.919   2.015  0.9404  2.2314  1.3522
14589SOL     OW48896   8.993   8.315   9.038 -0.4049 -0.0118  0.4175
14589SOL    HW148897   9.036   8.357   9.112 -2.7956 -1.1511  2.5347
14589SOL    HW248898   9.046   8.236   9.021  0.2648  0.3579  0.7549
14590SOL     OW48899  10.171   3.780   0.017 -0.3608 -0.0512 -0.0517
14590SOL    HW148900  10.181   3.859  -0.037 -0.3944 -0.9447 -1.3713
14590SOL    HW248901  10.085   3.745  -0.008  0.9020 -2.0993 -1.5817
14591SOL     OW48902   8.806   5.249   2.873  0.1410  0.0214  0.2797
14591SOL    HW148903   8.718   5.239   2.909  0.9896  0.7729  2.6472
14591SOL    HW248904   8.845   5.162   2.882 -0.2205 -0.2138 -0.4055
14592SOL     OW48905   1.408   7.576   7.053 -0.0149  0.1209  0.3450
14592SOL    HW148906   1.315   7.570   7.074 -0.7943 -0.1892 -2.9768
14592SOL    HW248907   1.434   7.485   7.036  0.8711  0.2233  1.1492
14593SOL     OW48908   6.064   1.437   9.521 -0.3751  0.3254  0.1058
14593SOL    HW148909   6.113   1.419   9.601 -0.6416  0.9199  0.4098
14593SOL    HW248910   6.109   1.387   9.453  1.3070  1.7006  0.1791
14594SOL     OW48911   2.542   6.888   0.535  0.1857 -0.0373 -0.2995
14594SOL    HW148912   2.589   6.815   0.496 -2.2220 -1.1113 -1.2465
14594SOL    HW248913   2.512   6.854   0.619  3.5241  1.5935  1.6867
14595SOL     OW48914  10.386   7.916   3.864 -0.3564  0.6042 -0.0901
14595SOL    HW148915  10.447   7.990   3.856 -1.0431  1.4436  2.1266
14595SOL    HW248916  10.441   7.843   3.892 -0.0158  0.7811 -0.2840
14596SOL     OW48917   1.865   4.466   8.614  0.1360  0.1055  0.4595
14596SOL    HW148918   1.812   4.391   8.587 -1.5492  1.6551 -0.5916
14596SOL    HW248919   1.902   4.439   8.699 -0.5458 -1.8402  0.1722
14597SOL     OW48920   6.982   2.532   9.735 -0.4424 -0.3875 -0.7461
14597SOL    HW148921   6.909   2.518   9.676  0.2846  0.8560 -1.9801
14597SOL    HW248922   7.059   2.503   9.686  0.3622  2.2132 -1.0976
14598SOL     OW48923   5.844   0.486   0.546  0.4840 -0.5110 -0.3775
14598SOL    HW148924   5.850   0.437   0.628  0.3932 -0.7913 -0.5350
14598SOL    HW248925   5.932   0.479   0.508  1.5944  2.6717  1.3976
14599SOL     OW48926   6.869   5.359   8.094  0.3579  0.4153 -0.9701
14599SOL    HW148927   6.927   5.432   8.070 -0.1784  1.3571  0.5352
14599SOL    HW248928   6.782   5.399   8.100  0.3264  0.0645  1.6174
14600SOL     OW48929   1.292  10.124   6.445  1.0711 -0.0037  0.1378
14600SOL    HW148930   1.267  10.083   6.528  0.3464 -0.4798 -0.3119
14600SOL    HW248931   1.337  10.055   6.397  1.5021  0.2767  0.1388
14601SOL     OW48932   7.483   2.031   3.913  0.9661  0.4000  0.1403
14601SOL    HW148933   7.432   2.106   3.944  0.9995 -0.0280  1.2520
14601SOL    HW248934   7.449   2.014   3.825 -1.6080 -0.5576  1.2549
14602SOL     OW48935  11.004   3.402   8.501  0.3117 -0.0023  0.7501
14602SOL    HW148936  10.923   3.368   8.539 -0.3648  1.3089  0.5262
14602SOL    HW248937  10.994   3.497   8.505  0.6391  0.1818 -1.7889
14603SOL     OW48938   2.058   3.118   4.110 -0.3080 -0.0755 -0.3796
14603SOL    HW148939   2.120   3.166   4.164 -0.0491  0.9053 -1.5189
14603SOL    HW248940   2.041   3.176   4.035 -1.4006 -0.9837 -0.8624
14604SOL     OW48941   5.856   0.586   8.009 -0.2356  0.4632 -0.3027
14604SOL    HW148942   5.913   0.597   8.085 -0.6054  3.1049 -0.3375
14604SOL    HW248943   5.771   0.562   8.046 -0.4266  1.7915  0.1477
14605SOL     OW48944  10.995   3.634   6.801 -0.8891  0.1872  0.5457
14605SOL    HW148945  11.013   3.565   6.864 -0.2572  1.4318  1.7532
14605SOL    HW248946  10.925   3.599   6.746 -1.2522 -1.0186  1.7586
14606SOL     OW48947   8.812   6.691  11.302  0.4543  0.3390  0.4287
14606SOL    HW148948   8.759   6.722  11.229  1.7876 -0.7628 -1.0254
14606SOL    HW248949   8.897   6.734  11.291  0.8178 -0.2038  1.0344
14607SOL     OW48950   9.930   1.690   0.038  0.4848 -0.3997 -0.5033
14607SOL    HW148951   9.957   1.646   0.119  1.9751  0.3869 -0.5527
14607SOL    HW248952   9.932   1.621  -0.028 -0.4022 -0.9714  0.0607
14608SOL     OW48953   7.631   6.205  11.258  0.3795 -0.1627  0.5442
14608SOL    HW148954   7.546   6.179  11.293  0.1649 -0.5702 -0.2615
14608SOL    HW248955   7.641   6.297  11.284 -0.0259 -0.2966  1.1714
14609SOL     OW48956   7.567   0.630   7.015  0.4278 -0.0497 -0.5605
14609SOL    HW148957   7.593   0.699   6.954 -2.8054  2.7394  0.9824
14609SOL    HW248958   7.501   0.580   6.968 -0.1672  0.4783 -0.3021
14610SOL     OW48959   6.664   7.904   1.628 -0.3705  0.3135 -0.6239
14610SOL    HW148960   6.650   7.835   1.564  1.6609  0.9535 -1.8177
14610SOL    HW248961   6.578   7.945   1.639 -1.2308 -1.3350 -1.1392
14611SOL     OW48962   3.798   2.968   4.586  0.0193  0.0734 -0.1598
14611SOL    HW148963   3.788   2.874   4.604  0.5723  0.1762  0.6944
14611SOL    HW248964   3.880   2.992   4.629  0.3819  0.7437 -1.2169
14612SOL     OW48965   9.298  10.142   4.382 -0.1944 -0.7128  0.7369
14612SOL    HW148966   9.273  10.197   4.308 -0.3242  0.0311  1.3185
14612SOL    HW248967   9.383  10.178   4.410 -0.5215 -0.4723  1.4409
14613SOL     OW48968   3.999   2.267   3.434  0.0131  0.0848 -0.0507
14613SOL    HW148969   4.057   2.223   3.495 -0.8231  1.3887  1.7615
14613SOL    HW248970   3.949   2.197   3.392  0.4730 -0.8302  0.9221
14614SOL     OW48971   6.458   8.272   0.255  0.0804 -0.2214 -0.2381
14614SOL    HW148972   6.416   8.347   0.298  0.0843 -0.0504 -0.5330
14614SOL    HW248973   6.498   8.309   0.176  1.4035 -0.2463  0.4052
14615SOL     OW48974   5.241  10.145   0.339 -0.0643 -0.0135  0.1784
14615SOL    HW148975   5.247  10.192   0.256 -1.1867 -0.1453  0.0121
14615SOL    HW248976   5.320  10.092   0.343  0.0589  0.1009 -0.7479
14616SOL     OW48977   9.731   2.892   5.495 -0.2400  0.4638  0.0630
14616SOL    HW148978   9.697   2.917   5.409 -1.1233 -0.1131  0.2426
14616SOL    HW248979   9.697   2.958   5.555  1.6544  1.7748 -0.2503
14617SOL     OW48980   6.603   1.733   2.765 -0.5033  0.1795 -0.3841
14617SOL    HW148981   6.557   1.799   2.713 -0.7658  0.5955  0.3561
14617SOL    HW248982   6.576   1.752   2.855  0.5852 -0.0050 -0.0149
14618SOL     OW48983   7.170   2.783   3.152  0.2673  0.6647 -0.0434
14618SOL    HW148984   7.223   2.709   3.181  0.5783 -0.5077 -3.3855
14618SOL    HW248985   7.134   2.819   3.233  0.5719 -2.7717  1.7396
14619SOL     OW48986   3.276   6.002   4.996 -0.8810 -0.5382 -0.0343
14619SOL    HW148987   3.361   5.971   4.966 -1.7063 -0.6846 -2.3735
14619SOL    HW248988   3.263   5.960   5.081  2.3305  1.2452  1.4166
14620SOL     OW48989   2.435   9.424   3.891 -0.1083 -0.3845  0.2221
14620SOL    HW148990   2.485   9.497   3.928  0.2869 -0.0949 -0.8720
14620SOL    HW248991   2.483   9.346   3.919  0.0348 -0.1812  0.5496
14621SOL     OW48992  11.033   6.019   2.624  0.4584  0.5058 -0.4013
14621SOL    HW148993  11.068   5.944   2.576  1.4094  1.9515 -2.0071
14621SOL    HW248994  10.939   6.003   2.628  0.6704 -0.8541 -0.5418
14622SOL     OW48995   1.792   8.305   4.667 -0.1645 -0.2416  0.1737
14622SOL    HW148996   1.712   8.337   4.624 -1.1280 -1.0435  1.3323
14622SOL    HW248997   1.787   8.210   4.657  0.5686 -0.3029  0.4042
14623SOL     OW48998   3.737  10.057   8.807  0.0028  0.3775 -0.1801
14623SOL    HW148999   3.710  10.064   8.899 -0.7422  0.6044 -0.4041
14623SOL    HW249000   3.812   9.998   8.808 -0.7784 -0.6223  0.4318
14624SOL     OW49001   1.657   3.723   0.515  0.0958  0.3206 -0.0542
14624SOL    HW149002   1.629   3.689   0.430 -1.9469 -0.1670  0.7891
14624SOL    HW249003   1.639   3.817   0.510 -1.3572  0.0754  0.3284
14625SOL     OW49004   5.983   4.467   8.687 -0.3911  0.4645  0.5532
14625SOL    HW149005   5.892   4.438   8.685  0.1564 -1.2905  0.6400
14625SOL    HW249006   5.978   4.562   8.673 -2.1749  0.2909 -0.0998
14626SOL     OW49007  10.074  10.519   7.234  0.0101 -0.3411  0.3584
14626SOL    HW149008  10.053  10.603   7.275 -1.6696  0.2969 -1.7387
14626SOL    HW249009  10.133  10.541   7.163  3.1308 -1.4829  2.4885
14627SOL     OW49010   0.010   5.931   2.094 -0.2241 -0.2611  0.5535
14627SOL    HW149011   0.053   5.989   2.157  2.0831 -1.5483  0.2281
14627SOL    HW249012  -0.044   5.873   2.148 -0.4147  0.4261  1.1039
14628SOL     OW49013   1.205   1.460   6.424  0.5939 -0.1873  0.0451
14628SOL    HW149014   1.279   1.462   6.362 -0.0716  0.2032 -0.7415
14628SOL    HW249015   1.215   1.541   6.474  0.6448 -0.0871 -0.1242
14629SOL     OW49016   7.171   1.926   2.889  0.1913 -0.2209 -0.4006
14629SOL    HW149017   7.254   1.921   2.843  0.1852 -0.6222 -0.3690
14629SOL    HW249018   7.118   1.856   2.851  0.4665 -1.0857  0.7635
14630SOL     OW49019   4.301   0.987   5.213 -0.0698  0.4124 -0.3264
14630SOL    HW149020   4.315   0.894   5.195  2.4265  0.2464  2.0146
14630SOL    HW249021   4.249   1.018   5.140  0.9149 -2.3491 -2.3045
14631SOL     OW49022   9.914   2.952   1.074  0.1582  0.1302 -0.1556
14631SOL    HW149023   9.897   2.860   1.093  0.6564 -0.4593 -2.3851
14631SOL    HW249024   9.837   2.998   1.108  0.0388 -1.0675  1.2356
14632SOL     OW49025   6.095   8.541   6.074 -0.3645  0.2752  0.3885
14632SOL    HW149026   6.182   8.560   6.109 -1.5384 -0.2808  3.7685
14632SOL    HW249027   6.061   8.626   6.048  0.6958  0.6518  0.1996
14633SOL     OW49028   7.194   1.490   9.675 -0.0246  0.2265 -0.0545
14633SOL    HW149029   7.168   1.581   9.660 -0.4447 -0.2611 -2.6015
14633SOL    HW249030   7.113   1.444   9.693  0.1905  0.3436  1.2504
14634SOL     OW49031   9.476   4.167   5.132  0.1415 -0.1085 -0.6541
14634SOL    HW149032   9.474   4.260   5.107  0.1087  0.1306  0.2420
14634SOL    HW249033   9.565   4.152   5.163  0.7601 -0.8840 -2.6654
14635SOL     OW49034  10.222   5.551   6.131  0.5165 -0.0364  0.2358
14635SOL    HW149035  10.303   5.596   6.156  1.1044 -0.0352 -1.6486
14635SOL    HW249036  10.203   5.494   6.206  1.4632  1.0251  1.3063
14636SOL     OW49037   3.961   9.561   8.272 -0.1845  0.0985  0.2259
14636SOL    HW149038   3.921   9.615   8.341 -2.3570 -2.0385  0.7263
14636SOL    HW249039   3.933   9.602   8.190 -1.3663  0.0815  0.6048
14637SOL     OW49040   1.997   2.392   9.296 -0.0950 -0.0259  0.2296
14637SOL    HW149041   2.046   2.407   9.377 -0.1622 -1.4998  0.5622
14637SOL    HW249042   2.057   2.421   9.227  0.2553  0.5464  0.7614
14638SOL     OW49043   3.111  10.394   2.804 -0.0697 -0.1507  0.4713
14638SOL    HW149044   3.048  10.330   2.836  0.8865 -0.8841  0.9371
14638SOL    HW249045   3.085  10.476   2.845  0.0019 -0.6965  1.6332
14639SOL     OW49046   5.016   8.092   3.369  0.1208 -0.3417 -0.2196
14639SOL    HW149047   4.985   8.131   3.451  1.4620 -0.9998  0.6121
14639SOL    HW249048   4.952   8.121   3.304  1.1924  3.4842  0.2863
14640SOL     OW49049   9.384   0.223   7.811 -0.1904 -0.0964 -0.2612
14640SOL    HW149050   9.413   0.309   7.780 -1.9441  0.3172 -0.7945
14640SOL    HW249051   9.409   0.163   7.740 -1.5509  0.4139 -1.1963
14641SOL     OW49052   7.073   1.071  10.631 -0.2009 -0.0063  0.4955
14641SOL    HW149053   7.109   1.035  10.712 -0.7948  0.3157  0.9163
14641SOL    HW249054   7.008   1.135  10.661  1.0701  1.6564 -0.2271
14642SOL     OW49055   4.250   0.497  10.617  0.0130 -0.2821 -0.2174
14642SOL    HW149056   4.341   0.482  10.645  0.3227  0.0898 -1.0097
14642SOL    HW249057   4.243   0.451  10.533 -0.1434  0.7937 -0.7975
14643SOL     OW49058   2.479   2.687   9.251  0.2939  0.1681  0.1455
14643SOL    HW149059   2.539   2.701   9.325 -0.4317  1.9182  0.4139
14643SOL    HW249060   2.436   2.771   9.239 -2.2344 -1.0949  0.0480
14644SOL     OW49061   1.917   9.392   1.074 -0.3847  0.2457  0.5305
14644SOL    HW149062   1.939   9.324   1.010  1.0398  1.4439 -0.3139
14644SOL    HW249063   1.822   9.391   1.078 -0.5797  0.8020 -2.4072
14645SOL     OW49064   0.414   7.090   2.177  0.4134  0.2630  0.3830
14645SOL    HW149065   0.331   7.112   2.134 -0.2517 -1.1528  0.8829
14645SOL    HW249066   0.481   7.115   2.114 -0.4091  1.0439 -0.2084
14646SOL     OW49067  11.250   6.813   4.466 -0.1585 -0.5941 -0.0253
14646SOL    HW149068  11.176   6.853   4.421  0.2467  0.7370  0.4734
14646SOL    HW249069  11.325   6.831   4.409  0.0003 -0.7788  0.1243
14647SOL     OW49070   3.816   4.363   2.992  0.1040 -0.0361  0.3118
14647SOL    HW149071   3.728   4.325   2.991  0.3374 -0.5606 -0.2438
14647SOL    HW249072   3.873   4.293   2.963  0.5411  0.7340 -0.6917
14648SOL     OW49073   5.099   5.499   9.516 -0.1798  0.0770  0.3758
14648SOL    HW149074   5.192   5.488   9.497 -0.3194  0.0446 -0.2906
14648SOL    HW249075   5.073   5.416   9.557 -0.3091 -0.5734 -1.0085
14649SOL     OW49076   7.188   3.620   1.584  0.5140  0.0549 -0.2694
14649SOL    HW149077   7.180   3.539   1.533 -0.1688  0.2912 -0.5401
14649SOL    HW249078   7.103   3.663   1.575  0.7197  0.5828  0.2532
14650SOL     OW49079   8.314   1.565   1.679 -0.2262 -0.0867  0.0389
14650SOL    HW149080   8.327   1.470   1.688  1.7510 -0.1694 -2.8452
14650SOL    HW249081   8.240   1.574   1.618 -0.1431  0.1907 -0.0233
14651SOL     OW49082   2.542   8.473   9.524  0.0502  0.2029 -0.5777
14651SOL    HW149083   2.534   8.508   9.613 -0.7267  1.3953 -1.0971
14651SOL    HW249084   2.510   8.544   9.467 -0.0166 -0.7566 -1.7641
14652SOL     OW49085  11.037   5.818  11.292  0.4573 -0.1933 -0.7056
14652SOL    HW149086  10.946   5.818  11.262  0.6647 -1.6904 -1.3923
14652SOL    HW249087  11.031   5.834  11.386 -0.3364  2.3729 -1.1462
14653SOL     OW49088   5.509   6.054   5.858 -0.0386 -0.1510 -0.3920
14653SOL    HW149089   5.567   6.072   5.932 -2.5901 -0.2831  1.7719
14653SOL    HW249090   5.543   5.973   5.820  1.6152  0.1887  0.3186
14654SOL     OW49091   8.569   5.740   8.372 -0.0407  0.9505 -0.0452
14654SOL    HW149092   8.605   5.799   8.438 -0.0189  0.6194  0.2401
14654SOL    HW249093   8.551   5.796   8.297  0.7356  1.1880 -0.0660
14655SOL     OW49094   5.570   7.834   0.608 -0.5474 -0.2155 -0.4920
14655SOL    HW149095   5.642   7.837   0.546 -0.5553  0.6955 -0.4668
14655SOL    HW249096   5.495   7.870   0.559 -1.0282 -1.3202 -0.5797
14656SOL     OW49097   4.769   3.424   6.645 -0.4561 -0.5772  0.4971
14656SOL    HW149098   4.785   3.330   6.658  0.0578 -0.3608  1.4297
14656SOL    HW249099   4.705   3.447   6.712  0.9534  0.1746  1.6162
14657SOL     OW49100   5.986   0.599   5.092  0.1242  0.2714  0.2721
14657SOL    HW149101   6.064   0.560   5.132  0.9121  0.4741 -1.0272
14657SOL    HW249102   5.945   0.649   5.163  2.1010  1.5442  0.5491
14658SOL     OW49103   8.880   2.072   5.718  0.6945 -0.2184  0.0005
14658SOL    HW149104   8.801   2.112   5.682  0.9396  0.0015 -0.2956
14658SOL    HW249105   8.863   2.065   5.812  0.2215 -0.4033 -0.0960
14659SOL     OW49106   2.618   2.000  10.145 -0.0824 -0.2979 -1.1976
14659SOL    HW149107   2.660   1.916  10.127  0.7027 -0.0397 -0.6153
14659SOL    HW249108   2.587   2.031  10.059 -0.0880 -1.0268 -1.4563
14660SOL     OW49109  11.004   6.965   4.420  0.1112  0.7082 -0.0904
14660SOL    HW149110  10.989   6.905   4.347  0.4676  0.1053  0.3334
14660SOL    HW249111  10.916   6.982   4.455  0.0294  0.2689 -0.0798
14661SOL     OW49112   2.485   0.089   5.912  0.3835  0.2371 -0.2290
14661SOL    HW149113   2.429   0.138   5.974  1.1818 -0.0921  0.7658
14661SOL    HW249114   2.439   0.007   5.899  0.3388  0.2011  0.1401
14662SOL     OW49115   2.230   4.413  10.250 -0.3755  0.4043 -0.0279
14662SOL    HW149116   2.169   4.355  10.204 -0.0333  1.1616 -1.4413
14662SOL    HW249117   2.291   4.353  10.294  0.0490 -0.3376 -1.5738
14663SOL     OW49118   2.814   9.549   4.898  0.2532 -0.6945  0.2674
14663SOL    HW149119   2.885   9.583   4.844  0.3953  0.8029  1.3520
14663SOL    HW249120   2.785   9.470   4.853  1.4300 -0.3585 -1.1245
14664SOL     OW49121   9.297   0.697   3.396  0.3403 -0.3333  0.1996
14664SOL    HW149122   9.321   0.695   3.304  1.5140  0.5626  0.4599
14664SOL    HW249123   9.273   0.788   3.412  0.9069 -0.3132  0.9542
14665SOL     OW49124   1.507   3.651   6.267  0.5731  0.5468  0.3682
14665SOL    HW149125   1.585   3.649   6.322 -0.2022 -0.9945  1.4596
14665SOL    HW249126   1.437   3.681   6.325  0.0173  0.2114 -0.1189
14666SOL     OW49127   4.546   5.988   0.563  0.5179  0.8315  0.9503
14666SOL    HW149128   4.497   5.940   0.630  1.7006  0.9138  1.8942
14666SOL    HW249129   4.494   6.067   0.546  0.8430  1.4448  2.7237
14667SOL     OW49130   9.259   5.670   3.909  0.2527  0.5752 -0.2379
14667SOL    HW149131   9.188   5.734   3.913 -0.2582  0.0139 -0.1165
14667SOL    HW249132   9.269   5.651   3.816  0.1193  0.5247 -0.2424
14668SOL     OW49133   5.919   3.781   8.075  0.3669 -0.1270  0.3511
14668SOL    HW149134   5.995   3.780   8.017  0.3491  1.5654  0.2722
14668SOL    HW249135   5.950   3.826   8.153 -0.6556  0.8880  0.1711
14669SOL     OW49136   1.306  10.100   5.907  0.2792 -0.0276  0.2248
14669SOL    HW149137   1.300  10.084   5.813 -2.3844 -1.4567  0.5878
14669SOL    HW249138   1.317  10.013   5.945 -0.1565  0.3936  1.3360
14670SOL     OW49139  10.589  11.028   5.411 -0.2796 -0.5893  0.3073
14670SOL    HW149140  10.615  11.009   5.501  0.9251 -2.1589 -0.3436
14670SOL    HW249141  10.509  10.977   5.397  0.0841 -1.1267  0.1811
14671SOL     OW49142   7.682   9.071   2.109 -0.3944 -0.1129 -0.7634
14671SOL    HW149143   7.607   9.080   2.168  0.4931 -0.2646  0.3982
14671SOL    HW249144   7.679   9.149   2.055 -0.1899  0.9118  0.6724
14672SOL     OW49145   4.798   0.806   7.973  0.3356  0.1306 -0.4217
14672SOL    HW149146   4.825   0.768   7.890  0.7614 -0.1346 -0.1639
14672SOL    HW249147   4.716   0.851   7.953 -0.7795 -1.8704 -0.4932
14673SOL     OW49148   8.398   8.069   2.402 -0.6677  0.2561  0.1864
14673SOL    HW149149   8.394   7.976   2.380 -0.1937  0.0074  1.1203
14673SOL    HW249150   8.312   8.103   2.378 -2.2079 -1.2165  3.3571
14674SOL     OW49151   5.743   9.660   4.519 -0.0298  0.2057  0.0700
14674SOL    HW149152   5.649   9.667   4.536 -0.5446  1.2254 -2.9234
14674SOL    HW249153   5.749   9.641   4.426  2.8278  2.7645 -0.3269
14675SOL     OW49154   7.722   4.357  10.684 -0.3538 -0.0607 -0.9060
14675SOL    HW149155   7.656   4.397  10.741  0.6465  1.6912 -0.9628
14675SOL    HW249156   7.672   4.325  10.608 -1.2816  0.2559 -0.4317
14676SOL     OW49157   6.406   5.301   2.270  1.1252 -0.6442  0.4521
14676SOL    HW149158   6.380   5.213   2.296  0.0306 -0.5747 -0.3644
14676SOL    HW249159   6.400   5.300   2.174 -1.9957  1.2102  0.5501
14677SOL     OW49160   0.401   4.140   3.565  0.2849  0.3899 -0.4409
14677SOL    HW149161   0.487   4.112   3.597 -0.3361  0.7672  1.6325
14677SOL    HW249162   0.340   4.076   3.602 -0.5388  1.3121 -0.1912
14678SOL     OW49163   1.474   2.347   0.589  0.1664 -0.1004  0.2351
14678SOL    HW149164   1.494   2.322   0.499  0.7541  1.5972 -0.1340
14678SOL    HW249165   1.381   2.327   0.600 -0.2120  0.8338 -1.1609
14679SOL     OW49166   3.777   1.819   3.928 -0.6371 -0.1672 -0.3053
14679SOL    HW149167   3.859   1.787   3.889 -0.4331 -0.0721  0.0422
14679SOL    HW249168   3.785   1.915   3.923 -0.5476 -0.1513  0.0921
14680SOL     OW49169   2.883   1.761   6.238  0.7911 -0.3350  0.4742
14680SOL    HW149170   2.955   1.698   6.233  1.1326  0.1604 -1.6287
14680SOL    HW249171   2.808   1.714   6.200  1.1938  0.6578 -1.6579
14681SOL     OW49172   6.907   5.294   6.558  0.0749 -0.0581 -0.2056
14681SOL    HW149173   6.853   5.373   6.558  0.2715  0.0732 -0.5443
14681SOL    HW249174   6.955   5.298   6.642 -0.9725 -0.5397  0.4227
14682SOL     OW49175   4.530   6.010   6.894 -0.1842  0.5658  0.1481
14682SOL    HW149176   4.465   5.980   6.957 -0.1347  1.1442  0.4817
14682SOL    HW249177   4.540   5.937   6.833 -0.0992 -0.0607  0.9082
14683SOL     OW49178  10.085  10.195   8.128 -0.3810  0.1668 -0.3082
14683SOL    HW149179  10.094  10.214   8.221 -2.6843 -0.5710  0.0718
14683SOL    HW249180  10.130  10.268   8.085 -0.9091  1.4968  1.3368
14684SOL     OW49181   7.445   5.732   2.343  0.0029 -0.1498  0.1960
14684SOL    HW149182   7.369   5.677   2.363 -1.5873  2.6370  2.0763
14684SOL    HW249183   7.508   5.713   2.413  1.3819 -2.9105 -1.6933
14685SOL     OW49184   4.715  10.097   5.211  0.5898 -0.4330  0.1404
14685SOL    HW149185   4.697  10.121   5.120 -0.4126 -0.8608  0.2260
14685SOL    HW249186   4.691  10.004   5.217  1.9321 -0.7665  0.4946
14686SOL     OW49187   2.804  10.932   6.745  0.0889 -0.0184 -0.0394
14686SOL    HW149188   2.774  10.948   6.655  0.1572 -1.2105 -0.2893
14686SOL    HW249189   2.792  10.838   6.757 -0.0493  0.1585  1.2602
14687SOL     OW49190   8.644   2.996   2.005 -0.0967 -0.5024 -0.3135
14687SOL    HW149191   8.623   2.942   2.081  2.1287 -1.6429 -0.4662
14687SOL    HW249192   8.670   2.934   1.937  0.8156  0.6489 -1.0502
14688SOL     OW49193  10.531  10.861   8.703  0.1263 -0.0237  0.1256
14688SOL    HW149194  10.458  10.812   8.740  0.3819  1.3325  2.5398
14688SOL    HW249195  10.493  10.943   8.673  0.4580  0.2526  0.4429
14689SOL     OW49196   0.436   9.578   9.986  0.1118 -0.2088  0.1730
14689SOL    HW149197   0.425   9.642  10.056  2.2490 -0.9362  1.2306
14689SOL    HW249198   0.476   9.627   9.915 -0.9562  0.2691 -0.0999
14690SOL     OW49199   9.378   2.393   5.324  0.0437  0.5529  0.5633
14690SOL    HW149200   9.432   2.314   5.326 -0.6034  0.1153  1.0691
14690SOL    HW249201   9.440   2.464   5.308  0.4442 -0.2159 -1.4727
14691SOL     OW49202   0.123   2.535   7.308  0.3419 -0.2140 -0.0793
14691SOL    HW149203   0.032   2.523   7.337  0.2037  1.4599  0.2146
14691SOL    HW249204   0.124   2.502   7.219 -0.6939  0.2669 -0.2802
14692SOL     OW49205   7.482  10.382   0.711  0.4014  0.3900  0.0790
14692SOL    HW149206   7.552  10.328   0.676 -0.3212 -0.1586 -0.5387
14692SOL    HW249207   7.414  10.380   0.643 -1.7312 -2.0592  2.2038
14693SOL     OW49208   2.103   9.622   0.291  0.4375  0.4637 -0.8385
14693SOL    HW149209   2.067   9.699   0.246 -0.8705 -0.3382 -1.1862
14693SOL    HW249210   2.160   9.581   0.226  0.1453  0.4339 -1.0758
14694SOL     OW49211   9.304   6.470   9.221  0.2287  0.3021  0.2132
14694SOL    HW149212   9.263   6.552   9.194 -0.4914 -0.1510 -0.0807
14694SOL    HW249213   9.364   6.495   9.291 -1.4699  0.8001  1.5197
14695SOL     OW49214   0.810   1.922   8.341 -0.0698 -0.1321  0.1596
14695SOL    HW149215   0.855   2.006   8.348 -0.8659  0.1408  2.0885
14695SOL    HW249216   0.764   1.927   8.257  2.2358  0.1801 -1.1324
14696SOL     OW49217   3.333   7.865   9.775 -0.0061  0.1201 -0.1992
14696SOL    HW149218   3.296   7.905   9.696  2.0284 -0.2518 -1.3546
14696SOL    HW249219   3.351   7.775   9.751  0.2418 -0.1133  0.8319
14697SOL     OW49220   2.776   7.146   3.329  0.4119  0.8574 -0.1765
14697SOL    HW149221   2.693   7.120   3.289 -0.1479  0.0599  1.4441
14697SOL    HW249222   2.772   7.241   3.334 -0.8077  0.7821  0.6685
14698SOL     OW49223   3.932   7.889   3.309 -0.4979 -0.1756  0.0440
14698SOL    HW149224   3.867   7.958   3.320  0.2062  0.8942 -2.1490
14698SOL    HW249225   3.993   7.924   3.243 -0.0237 -2.7782 -0.9610
14699SOL     OW49226   3.438   5.689   9.043  0.4708 -0.7116 -0.0985
14699SOL    HW149227   3.397   5.623   8.987  0.4475  0.1916 -1.1643
14699SOL    HW249228   3.380   5.765   9.037 -0.1540 -0.9796  2.0757
14700SOL     OW49229   2.105   6.383   2.284  0.0473  0.2297  0.3796
14700SOL    HW149230   2.022   6.340   2.302  1.0715 -0.5492  3.4075
14700SOL    HW249231   2.104   6.398   2.189 -3.8713  0.9939  0.4733
14701SOL     OW49232   9.149   7.775   9.297 -0.4078 -0.0688 -0.2429
14701SOL    HW149233   9.195   7.775   9.213  0.7467 -0.0042  0.3725
14701SOL    HW249234   9.066   7.818   9.279  0.1964  0.7459 -1.1585
14702SOL     OW49235   0.268   1.123   9.921 -0.1780  0.5629 -0.2358
14702SOL    HW149236   0.299   1.120  10.011  0.0983  0.1153 -0.3444
14702SOL    HW249237   0.174   1.140   9.927 -0.2589 -0.0271  0.1484
14703SOL     OW49238   5.205   8.853   1.961  0.2124  0.5951 -0.1242
14703SOL    HW149239   5.221   8.855   1.867 -0.8509 -1.9761 -0.4036
14703SOL    HW249240   5.292   8.846   2.000  0.5038 -1.0080 -1.0435
14704SOL     OW49241   2.297   4.586  10.489 -0.2677 -0.8374  0.1045
14704SOL    HW149242   2.219   4.642  10.484  0.3153 -0.1125 -1.0037
14704SOL    HW249243   2.307   4.552  10.400  0.3586 -1.3817  0.3832
14705SOL     OW49244   9.799   1.424   9.817 -0.7811 -0.3973 -0.2444
14705SOL    HW149245   9.870   1.367   9.848 -0.1829  0.4617 -0.0081
14705SOL    HW249246   9.725   1.403   9.874 -0.6841 -1.2169 -0.4151
14706SOL     OW49247   2.176   7.778   1.443  0.6745  0.2271 -0.6324
14706SOL    HW149248   2.192   7.817   1.529 -0.6435 -0.0028 -0.2740
14706SOL    HW249249   2.234   7.826   1.384  0.9217  1.0003  0.2265
14707SOL     OW49250   4.808   2.576  10.287  0.3177 -0.1992  0.1631
14707SOL    HW149251   4.784   2.660  10.247  1.7137  0.1479  0.0131
14707SOL    HW249252   4.734   2.519  10.269 -0.9089  1.1515  0.7491
14708SOL     OW49253   9.158   2.140   8.378  0.1103 -0.5715 -0.4576
14708SOL    HW149254   9.204   2.110   8.456  0.4630 -2.7582 -1.4757
14708SOL    HW249255   9.226   2.179   8.323  0.0145  0.1056 -0.1056
14709SOL     OW49256   3.673   4.414  10.902  0.4217  0.4921  0.3654
14709SOL    HW149257   3.730   4.482  10.867 -0.4126  1.2275  0.4081
14709SOL    HW249258   3.718   4.332  10.882  1.5174  1.0630  0.4644
14710SOL     OW49259   8.308   7.955   0.091 -0.5653 -0.1524  0.4500
14710SOL    HW149260   8.247   7.969   0.163 -1.5486 -0.3452 -0.3299
14710SOL    HW249261   8.271   8.005   0.018  0.4893  0.1558  0.1196
14711SOL     OW49262   5.546   7.291   0.569  0.3708  0.0522 -0.1687
14711SOL    HW149263   5.592   7.354   0.513  0.0032 -0.2006 -0.7578
14711SOL    HW249264   5.599   7.287   0.648  0.1078  1.5006  0.0982
14712SOL     OW49265   9.190   5.918   6.212 -0.1927  0.2760 -0.0140
14712SOL    HW149266   9.132   5.847   6.187  0.5107 -0.3854  0.1927
14712SOL    HW249267   9.153   5.996   6.171 -2.4233  0.2466  1.8662
14713SOL     OW49268   0.602   8.048   4.357  0.0463  0.6359 -0.1753
14713SOL    HW149269   0.605   7.992   4.434 -0.4741  2.7443  1.3971
14713SOL    HW249270   0.536   8.007   4.301 -1.2258  0.3764  1.4974
14714SOL     OW49271   2.859   2.651   5.572 -0.2499  0.0082  0.1210
14714SOL    HW149272   2.839   2.738   5.537 -2.6366  0.1625  1.7356
14714SOL    HW249273   2.879   2.598   5.495 -1.6908  1.2620 -1.1446
14715SOL     OW49274   3.207   4.507   0.695 -0.4912  0.6563  0.0748
14715SOL    HW149275   3.140   4.575   0.689 -2.6946 -1.5594 -1.2625
14715SOL    HW249276   3.167   4.437   0.746  0.6378 -0.8809 -1.0994
14716SOL     OW49277   9.344   7.523   8.641  0.2718 -0.0831 -0.0916
14716SOL    HW149278   9.281   7.464   8.683  0.9408 -1.1236 -0.5250
14716SOL    HW249279   9.386   7.469   8.574  2.1440  0.4124  0.6804
14717SOL     OW49280   0.306   0.160   2.163 -0.2344  0.2448  0.2595
14717SOL    HW149281   0.398   0.171   2.140 -0.6202 -2.0530 -2.6005
14717SOL    HW249282   0.259   0.218   2.104 -0.7844 -0.4186  0.0397
14718SOL     OW49283   2.398   8.847   9.240 -0.2370 -0.6855  0.0492
14718SOL    HW149284   2.308   8.852   9.206 -0.2196 -2.4212 -0.2808
14718SOL    HW249285   2.439   8.927   9.209 -2.0991  0.8899  1.4669
14719SOL     OW49286   8.680  11.024   8.564  0.3855  0.4710 -0.3910
14719SOL    HW149287   8.623  11.016   8.488 -1.7028  0.5610  1.1142
14719SOL    HW249288   8.734  10.945   8.561 -0.7628 -0.3150 -1.1081
14720SOL     OW49289   9.929   7.461  11.132  0.4668 -0.1750  0.2549
14720SOL    HW149290   9.907   7.509  11.052  1.4491  3.1696  1.8857
14720SOL    HW249291  10.018   7.491  11.153  1.3977 -3.3037  0.9857
14721SOL     OW49292   2.927   0.897   6.659 -0.2727  0.6992  0.5265
14721SOL    HW149293   2.894   0.969   6.606 -2.9400  1.0716  2.5594
14721SOL    HW249294   2.853   0.837   6.667  1.3283 -1.3361  0.4601
14722SOL     OW49295   0.944   3.254   7.351  0.3387 -0.3866 -0.4119
14722SOL    HW149296   1.014   3.281   7.292  0.5155 -1.0573 -0.5014
14722SOL    HW249297   0.919   3.167   7.323  0.0489 -0.4954  0.1598
14723SOL     OW49298   6.037   9.575   5.401 -0.3850  0.2538 -0.1036
14723SOL    HW149299   6.014   9.606   5.313 -0.6345  1.2352  0.3071
14723SOL    HW249300   5.956   9.582   5.451 -0.5435 -1.4462 -0.1094
14724SOL     OW49301   9.592   9.674   0.295  0.2129  0.1462  0.0695
14724SOL    HW149302   9.681   9.684   0.260 -0.3105  0.9894 -1.0498
14724SOL    HW249303   9.573   9.581   0.283  0.9006 -0.0188  0.2158
14725SOL     OW49304  10.300   1.185   3.621 -0.7775 -0.0729 -0.8150
14725SOL    HW149305  10.385   1.143   3.633 -0.3541  0.8542 -0.4903
14725SOL    HW249306  10.289   1.191   3.527 -0.7054 -0.6453 -0.8596
14726SOL     OW49307   2.690   6.884  10.938  0.5817  0.2973 -0.1182
14726SOL    HW149308   2.681   6.975  10.911  0.1393  0.8222  1.7125
14726SOL    HW249309   2.605   6.861  10.975  2.3357  1.0541  4.8513
14727SOL     OW49310   2.125   8.494   1.810 -0.0266  0.0214  0.1594
14727SOL    HW149311   2.095   8.580   1.780  2.2256  0.4400 -0.9854
14727SOL    HW249312   2.120   8.499   1.905  0.9030  1.7471  0.1369
14728SOL     OW49313   7.225   7.101   0.055 -0.5362 -0.2293  0.1404
14728SOL    HW149314   7.259   7.011   0.053 -0.9200 -0.3574 -2.2658
14728SOL    HW249315   7.190   7.112   0.143  0.4250 -2.1053  0.7733
14729SOL     OW49316  10.619   1.424   6.367 -0.6425 -0.1483  0.8656
14729SOL    HW149317  10.578   1.466   6.442  1.1349 -0.0128  1.7718
14729SOL    HW249318  10.617   1.331   6.387 -1.4646 -0.2334  0.4171
14730SOL     OW49319  10.526   4.564   9.068 -0.0273 -0.3826  0.4300
14730SOL    HW149320  10.616   4.592   9.053 -0.2435 -0.2362 -0.6454
14730SOL    HW249321  10.533   4.486   9.123  0.7758 -0.6848 -0.1051
14731SOL     OW49322   7.831  10.548   2.737  0.2739  0.0040  0.0497
14731SOL    HW149323   7.760  10.578   2.680  0.7113  1.9618  0.4896
14731SOL    HW249324   7.908  10.597   2.708  0.5759  0.8073  2.0947
14732SOL     OW49325   6.087   3.309   5.763  0.7002 -0.1299 -0.2922
14732SOL    HW149326   6.081   3.224   5.806  0.2939 -1.0615 -2.1325
14732SOL    HW249327   6.167   3.304   5.712  0.1442  0.1989 -1.2033
14733SOL     OW49328   2.678   6.260   3.155 -0.1154  0.0066  0.3464
14733SOL    HW149329   2.627   6.196   3.205 -1.3990  1.3325  0.7737
14733SOL    HW249330   2.687   6.335   3.214  1.1053  0.3396 -0.2537
14734SOL     OW49331   7.766   7.859   7.907 -0.0375 -0.1681 -0.4959
14734SOL    HW149332   7.842   7.824   7.860  1.3672  0.1740  1.4777
14734SOL    HW249333   7.720   7.782   7.938  0.3951 -0.3534 -0.3066
14735SOL     OW49334  10.613  11.077   8.397  0.1895 -0.5175 -0.4611
14735SOL    HW149335  10.688  11.032   8.435  0.9177 -0.0683 -1.3618
14735SOL    HW249336  10.634  11.085   8.304 -0.9396 -0.3234 -0.7080
14736SOL     OW49337   8.192   6.558   6.538 -0.3185  0.0649 -0.0487
14736SOL    HW149338   8.135   6.522   6.605  0.5693 -0.1770  0.5796
14736SOL    HW249339   8.147   6.637   6.507 -0.4939  0.4435  1.1731
14737SOL     OW49340   3.901  10.332   4.379  0.0637 -0.0372 -0.1237
14737SOL    HW149341   3.859  10.260   4.332  2.0162  0.1647 -2.3235
14737SOL    HW249342   3.833  10.398   4.388 -1.0555 -1.1378 -0.3859
14738SOL     OW49343   9.301   9.701   0.362  0.1473  0.4453 -0.3643
14738SOL    HW149344   9.236   9.712   0.293 -1.2113 -0.3380  0.7686
14738SOL    HW249345   9.385   9.700   0.316 -0.7294  0.1548 -1.9837
14739SOL     OW49346   9.700   0.419   7.196  0.0972  0.1505 -1.2280
14739SOL    HW149347   9.660   0.506   7.192  0.3555  0.3498  0.3841
14739SOL    HW249348   9.754   0.421   7.275 -0.0009 -1.5187 -1.1063
14740SOL     OW49349   6.134   7.442   3.037  0.5286 -0.0704  0.2140
14740SOL    HW149350   6.210   7.422   3.092  0.3647  0.9179  0.8053
14740SOL    HW249351   6.074   7.369   3.052  0.5058  0.1617  1.3079
14741SOL     OW49352   8.805   1.891   3.835 -0.1823 -0.4505 -0.4706
14741SOL    HW149353   8.821   1.866   3.926  0.6026  0.6496 -0.2974
14741SOL    HW249354   8.815   1.986   3.834 -1.7984 -0.2672 -1.3900
14742SOL     OW49355   1.061   2.736   4.740  0.2926 -0.0159  0.5152
14742SOL    HW149356   0.975   2.701   4.763  0.8687 -1.6445  0.2857
14742SOL    HW249357   1.043   2.809   4.681 -1.0177  1.2384  2.4346
14743SOL     OW49358  10.485   7.632   8.328  0.2195 -0.1267 -0.5869
14743SOL    HW149359  10.403   7.681   8.316  0.9108  1.1203 -0.2341
14743SOL    HW249360  10.486   7.571   8.255 -1.2877 -0.5139 -0.3125
14744SOL     OW49361  11.281  10.218   2.343  0.5690  0.1071 -0.5659
14744SOL    HW149362  11.342  10.145   2.357  0.0257 -0.5456 -1.5426
14744SOL    HW249363  11.307  10.256   2.259  0.2556  0.4490 -0.5095
14745SOL     OW49364   6.749   3.876   6.860 -0.1797 -0.0235  0.6962
14745SOL    HW149365   6.836   3.838   6.850  0.5575  1.6020  0.7931
14745SOL    HW249366   6.690   3.801   6.858  1.0504 -0.9969 -1.4520
14746SOL     OW49367   4.081   8.907  10.866 -0.5866 -0.0022 -0.2230
14746SOL    HW149368   4.095   9.001  10.875 -1.2885  0.1660 -0.8109
14746SOL    HW249369   3.986   8.898  10.856 -0.4182 -0.6605 -1.3399
14747SOL     OW49370   0.221   7.543   3.635  0.1511 -0.6593 -0.0786
14747SOL    HW149371   0.233   7.638   3.637 -2.3584 -0.3119  0.3559
14747SOL    HW249372   0.273   7.511   3.709 -1.0676  0.6627  1.3879
14748SOL     OW49373   4.263   5.208   5.039  0.0465  0.2699  0.9904
14748SOL    HW149374   4.179   5.163   5.028  0.1959 -0.2372  1.9030
14748SOL    HW249375   4.253   5.258   5.120  0.0201  1.5798  0.1997
14749SOL     OW49376   1.295   4.305   4.427  0.3586 -0.6350 -0.0160
14749SOL    HW149377   1.337   4.362   4.363  4.0102 -2.8666  0.2618
14749SOL    HW249378   1.342   4.321   4.508 -0.8513 -1.5573  0.8893
14750SOL     OW49379   6.381   5.196   5.978  0.0077 -0.2750 -0.2941
14750SOL    HW149380   6.351   5.106   5.964  0.9515 -0.5343 -0.7747
14750SOL    HW249381   6.314   5.236   6.032  0.0091 -1.5345  0.6781
14751SOL     OW49382   9.787   8.906   5.728 -0.3909 -0.0962 -0.0380
14751SOL    HW149383   9.800   8.852   5.650  0.4820  0.9529 -0.6389
14751SOL    HW249384   9.776   8.844   5.799 -1.1411 -1.0662 -1.0009
14752SOL     OW49385   3.379   7.184   3.918 -0.6816  0.0280  0.1955
14752SOL    HW149386   3.368   7.263   3.865 -0.5065 -0.1110 -0.0468
14752SOL    HW249387   3.378   7.216   4.008 -0.7575  0.2909  0.1032
14753SOL     OW49388   2.315  10.699  11.032 -0.0310 -0.0524 -0.5450
14753SOL    HW149389   2.358  10.739  11.107  0.2179 -2.6063  0.7402
14753SOL    HW249390   2.222  10.706  11.052  0.0602 -2.0592  0.7988
14754SOL     OW49391  10.051   5.017   3.819 -0.1447  0.0808 -0.5153
14754SOL    HW149392  10.036   4.948   3.882 -1.0691  1.4956  0.8429
14754SOL    HW249393   9.971   5.020   3.766 -1.3182  2.0132  1.3018
14755SOL     OW49394   0.167  10.717   0.313  0.2659  0.3309 -0.2409
14755SOL    HW149395   0.102  10.781   0.284  0.6032  0.7163 -0.1455
14755SOL    HW249396   0.233  10.769   0.359  0.4220 -0.1139  0.0371
14756SOL     OW49397   5.142   5.035   9.975  0.2346 -0.4552  0.1488
14756SOL    HW149398   5.141   4.979   9.896  1.3157 -0.3758  0.0674
14756SOL    HW249399   5.105   5.118   9.946  1.5997 -0.0737 -0.5650
14757SOL     OW49400   1.443   9.452   5.016  0.2382 -0.0394 -0.4191
14757SOL    HW149401   1.513   9.388   5.002 -0.6158 -0.8315 -1.2076
14757SOL    HW249402   1.365   9.399   5.029 -0.4129  0.8418 -0.6866
14758SOL     OW49403  11.247   0.835   8.784  0.1202 -0.1188  0.1758
14758SOL    HW149404  11.294   0.918   8.796  0.5962 -0.2889 -0.4869
14758SOL    HW249405  11.155   0.861   8.774  0.5742  0.5737 -2.7738
14759SOL     OW49406   0.367   3.913   2.584 -0.2129  0.0833  0.0962
14759SOL    HW149407   0.284   3.871   2.606  0.7091 -1.1439  1.3118
14759SOL    HW249408   0.371   3.910   2.488 -1.7903  0.6182 -0.0047
14760SOL     OW49409  11.186  10.333   1.631  0.0927 -1.0025  0.0494
14760SOL    HW149410  11.193  10.332   1.535 -1.2847 -0.8686 -0.0612
14760SOL    HW249411  11.093  10.348   1.648  0.3294 -1.0378  1.4142
14761SOL     OW49412   1.713   7.940   7.160 -0.2867  0.0691 -0.0342
14761SOL    HW149413   1.685   7.995   7.087  0.7798  0.8068  0.0918
14761SOL    HW249414   1.699   7.850   7.131 -0.4858  0.3753 -0.8819
14762SOL     OW49415   6.975   2.410   3.066 -0.1364  0.3206  0.7221
14762SOL    HW149416   6.950   2.375   3.151  0.2287  0.3726  0.8523
14762SOL    HW249417   6.956   2.340   3.004  2.5772 -0.9040  1.2406
14763SOL     OW49418   3.860   2.215   6.113 -0.2594 -0.1697  0.5041
14763SOL    HW149419   3.829   2.135   6.154 -0.3628  0.2910  1.3372
14763SOL    HW249420   3.839   2.284   6.176 -0.5416  0.5628 -0.3740
14764SOL     OW49421   6.481   8.274   9.447 -0.1025  0.2647  0.4135
14764SOL    HW149422   6.418   8.221   9.496  0.0752  0.0304  0.3829
14764SOL    HW249423   6.561   8.223   9.446  0.1267  0.6153  0.5532
14765SOL     OW49424   1.673   6.004   9.880 -0.3727 -0.2029 -0.2471
14765SOL    HW149425   1.726   5.991   9.958  0.2783 -0.0085 -0.6516
14765SOL    HW249426   1.631   6.089   9.893 -0.9038 -0.5421  0.2568
14766SOL     OW49427   8.338   9.126   4.049 -0.7079  0.6001 -0.1953
14766SOL    HW149428   8.290   9.081   3.979  0.3046 -0.0971 -0.4465
14766SOL    HW249429   8.304   9.088   4.130 -0.4230 -0.0577 -0.3801
14767SOL     OW49430   6.033   7.602   3.336  0.2207  0.6440  0.3060
14767SOL    HW149431   6.108   7.561   3.379 -2.0030 -4.6846 -0.4199
14767SOL    HW249432   6.053   7.596   3.243 -0.6476  0.0896  0.1504
14768SOL     OW49433   1.008   3.348   8.659 -0.0762  0.4385  0.2709
14768SOL    HW149434   1.103   3.339   8.650 -0.1276 -0.0000  0.1309
14768SOL    HW249435   0.978   3.374   8.572 -0.2636 -1.0502 -0.1257
14769SOL     OW49436   1.075   6.081   4.831  0.8509  1.0523  0.0343
14769SOL    HW149437   0.990   6.038   4.842  0.9683  0.8156  0.0243
14769SOL    HW249438   1.135   6.010   4.808  0.8699  1.3531 -0.8777
14770SOL     OW49439   0.093   2.576  10.961 -0.1222 -0.1588 -0.3649
14770SOL    HW149440   0.154   2.512  10.925  0.8467  1.1638 -1.1223
14770SOL    HW249441   0.016   2.572  10.903  0.6644  0.6120 -1.4898
14771SOL     OW49442   9.578   4.116  10.413  0.3928 -0.3421 -0.3697
14771SOL    HW149443   9.534   4.033  10.431  2.1585 -1.1565  0.2465
14771SOL    HW249444   9.633   4.099  10.337  0.0208  0.5514 -0.8551
14772SOL     OW49445   6.759   0.651   8.932 -0.1687  0.2914 -0.0566
14772SOL    HW149446   6.762   0.746   8.942 -0.0277  0.1796  1.0686
14772SOL    HW249447   6.829   0.619   8.989 -0.4417 -0.5073 -0.1647
14773SOL     OW49448   8.830   1.043   6.514  0.0563 -0.0001 -0.1639
14773SOL    HW149449   8.878   0.970   6.554 -0.8224 -0.4341  0.1191
14773SOL    HW249450   8.748   1.004   6.485 -1.3272  1.2813  1.8437
14774SOL     OW49451   7.305   4.455   9.626 -0.1175 -0.3181  0.0232
14774SOL    HW149452   7.241   4.398   9.670  2.2516 -2.9375  0.1860
14774SOL    HW249453   7.303   4.536   9.677 -1.1313 -1.4507  1.8742
14775SOL     OW49454   6.835  11.241   6.783 -0.6566  0.1113  0.6353
14775SOL    HW149455   6.851  11.148   6.796  1.5117  0.5162  1.0045
14775SOL    HW249456   6.894  11.267   6.712 -2.4558  0.8741 -0.6394
14776SOL     OW49457   3.520   2.173   7.469 -0.5932 -0.2558 -0.4531
14776SOL    HW149458   3.449   2.169   7.405 -0.3769  0.1253 -0.7241
14776SOL    HW249459   3.499   2.249   7.523  0.6798  1.1409 -1.8479
14777SOL     OW49460   8.522   6.620   0.534 -0.1772 -0.0247  0.3570
14777SOL    HW149461   8.465   6.582   0.601  0.2978 -0.4678  0.5117
14777SOL    HW249462   8.478   6.599   0.451 -1.9051  2.3981  0.5934
14778SOL     OW49463   6.903  10.440   4.572  0.1223 -0.2935 -0.2519
14778SOL    HW149464   6.992  10.414   4.546 -0.7200 -3.0688 -0.5910
14778SOL    HW249465   6.904  10.438   4.667  0.4001 -0.3904 -0.2551
14779SOL     OW49466  10.241   3.145   4.415 -0.1784 -0.2283 -0.4742
14779SOL    HW149467  10.287   3.132   4.498 -0.0281  2.8090 -0.0477
14779SOL    HW249468  10.244   3.059   4.373 -0.3467 -1.8440  2.6798
14780SOL     OW49469   7.411   6.212   1.886 -0.4393  0.4637 -0.1282
14780SOL    HW149470   7.326   6.177   1.912 -0.2335  1.4025  1.8732
14780SOL    HW249471   7.475   6.160   1.935  0.1690 -0.2256 -1.6078
14781SOL     OW49472   8.558   9.462   7.063  0.5403 -0.2842  0.6408
14781SOL    HW149473   8.653   9.450   7.067  1.0595  2.5033 -1.4897
14781SOL    HW249474   8.546   9.544   7.016 -2.9395 -0.0981  1.6978
14782SOL     OW49475   0.437   8.491   5.906  0.6517  0.0087 -0.1225
14782SOL    HW149476   0.355   8.471   5.951 -0.3766  1.3954 -1.3031
14782SOL    HW249477   0.436   8.436   5.828  0.8868 -0.0591 -0.0769
14783SOL     OW49478   9.359  10.962   4.086  0.2055 -0.1750 -0.4424
14783SOL    HW149479   9.428  11.007   4.038 -1.4048  2.3141 -0.5046
14783SOL    HW249480   9.318  11.030   4.140 -1.3060 -1.8752  0.6357
14784SOL     OW49481   9.905   7.309   7.691 -0.2605  0.2256  0.1080
14784SOL    HW149482   9.836   7.299   7.756 -1.4852 -0.1856 -1.2147
14784SOL    HW249483   9.917   7.221   7.655  2.0905 -0.0246  1.4322
14785SOL     OW49484   2.985   2.608   2.093 -0.1928 -0.1457  0.2061
14785SOL    HW149485   2.964   2.515   2.090 -0.8635  0.0450 -1.4773
14785SOL    HW249486   3.068   2.615   2.045 -0.0077  0.1099  0.5530
14786SOL     OW49487   8.389   7.685  10.698  0.1958  0.1619 -0.0314
14786SOL    HW149488   8.378   7.778  10.721  0.2005  0.3090 -0.6095
14786SOL    HW249489   8.473   7.681  10.652  1.0337 -0.4254  1.5199
14787SOL     OW49490   2.126   8.840   0.887  0.0232 -0.2629  0.4474
14787SOL    HW149491   2.063   8.791   0.834  0.0881  0.1546 -0.0192
14787SOL    HW249492   2.186   8.879   0.823 -0.2790  0.7624  0.7864
14788SOL     OW49493   5.595   5.223   5.446 -0.1564 -0.5495  0.0644
14788SOL    HW149494   5.650   5.156   5.406  0.7212 -0.7330  1.5438
14788SOL    HW249495   5.638   5.306   5.426 -0.3652 -0.5503 -0.3861
14789SOL     OW49496   2.923   8.498   9.553 -0.0851  0.8333  0.1035
14789SOL    HW149497   2.944   8.579   9.506  0.3752  0.8111  0.2655
14789SOL    HW249498   2.959   8.428   9.497 -0.4764  0.7414 -0.0338
14790SOL     OW49499   9.082  11.141   6.163 -0.9550  0.1774  0.3063
14790SOL    HW149500   9.030  11.070   6.126 -1.6411 -0.6403  2.7273
14790SOL    HW249501   9.020  11.214   6.172 -0.6618  0.5419 -0.6412
14791SOL     OW49502   1.503  10.265   5.084 -0.4465 -0.0586 -0.1525
14791SOL    HW149503   1.495  10.234   5.175 -0.3891 -1.1383 -0.5055
14791SOL    HW249504   1.415  10.254   5.048 -0.4311  0.2202 -0.2738
14792SOL     OW49505   0.898   0.224   4.028 -0.0919 -0.2561 -0.0792
14792SOL    HW149506   0.922   0.150   3.973 -1.8419 -1.0660  0.1848
14792SOL    HW249507   0.881   0.296   3.966  0.4696 -0.4195 -0.4206
14793SOL     OW49508  10.568   6.738   8.764  0.5464 -0.2485 -0.0308
14793SOL    HW149509  10.516   6.785   8.828 -1.8792  0.0274 -2.1412
14793SOL    HW249510  10.627   6.804   8.728  0.4311  0.0735  0.3638
14794SOL     OW49511   3.411   8.464   9.235  0.3873 -0.3460 -0.2971
14794SOL    HW149512   3.382   8.376   9.260  0.2886 -0.5410 -1.1126
14794SOL    HW249513   3.481   8.449   9.172 -0.3958  0.1808 -1.2917
14795SOL     OW49514   3.743   2.897   0.056  0.2372  0.2595 -0.2213
14795SOL    HW149515   3.774   2.863   0.140 -1.6521 -0.8480  0.0532
14795SOL    HW249516   3.816   2.884  -0.004  1.0565 -0.3235  0.8932
14796SOL     OW49517   1.239   4.641   1.558 -0.1695  0.3561  0.6779
14796SOL    HW149518   1.284   4.650   1.475  0.7527 -0.9522  1.0263
14796SOL    HW249519   1.155   4.685   1.545  0.4368  1.1373 -0.5748
14797SOL     OW49520   9.190   0.906  10.379  0.3134 -0.1954  0.7104
14797SOL    HW149521   9.251   0.979  10.365 -0.2969  0.3798  1.0322
14797SOL    HW249522   9.135   0.906  10.301  1.8649 -1.8492 -0.4233
14798SOL     OW49523   8.181  10.774   1.758 -0.4800 -0.2396 -0.6193
14798SOL    HW149524   8.104  10.777   1.702 -0.4246 -0.3656 -0.7015
14798SOL    HW249525   8.189  10.682   1.784  0.4988 -0.4983 -1.7947
14799SOL     OW49526   8.923  11.252   3.094 -0.0748 -0.8001 -0.3163
14799SOL    HW149527   8.864  11.291   3.030 -0.9806 -0.5274  0.6772
14799SOL    HW249528   8.865  11.215   3.161  0.8819 -0.2376  0.8335
14800SOL     OW49529   9.609   7.659   6.021  0.2369  0.4786 -0.0451
14800SOL    HW149530   9.655   7.731   5.976 -0.8997  1.9521  1.1154
14800SOL    HW249531   9.627   7.674   6.114  1.1087 -1.5445  0.1323
14801SOL     OW49532   5.469   8.779  10.690 -0.1208 -0.3103  0.4446
14801SOL    HW149533   5.454   8.874  10.692  0.8775 -0.1539  0.7785
14801SOL    HW249534   5.383   8.741  10.709 -0.5984  0.5156 -0.0028
14802SOL     OW49535   3.171   9.610  11.141  0.2407  1.2671  0.0770
14802SOL    HW149536   3.161   9.651  11.227 -1.5586 -0.0703  0.5368
14802SOL    HW249537   3.093   9.637  11.092 -0.9205 -1.3922  0.3437
14803SOL     OW49538   1.300   3.696  11.020 -0.4962  0.1124  0.2006
14803SOL    HW149539   1.212   3.664  11.000 -0.6572  0.9507 -0.4838
14803SOL    HW249540   1.289   3.791  11.031  0.3257  0.2295  0.0520
14804SOL     OW49541   1.693   2.419   7.005 -0.0388  0.4233 -0.3645
14804SOL    HW149542   1.605   2.398   6.974 -0.7265  2.4309  0.1273
14804SOL    HW249543   1.692   2.394   7.098  0.0248  0.1273 -0.4427
14805SOL     OW49544   6.572   6.174   5.945  0.1144  0.1971 -0.2641
14805SOL    HW149545   6.590   6.266   5.923  0.7588  0.5268  1.5700
14805SOL    HW249546   6.496   6.177   6.002  1.2993 -0.2188  1.3757
14806SOL     OW49547   1.530   7.835   8.897  0.2736 -0.7048  0.5991
14806SOL    HW149548   1.611   7.868   8.859  0.6869 -2.0513  0.2977
14806SOL    HW249549   1.505   7.902   8.961 -0.0328  1.2199 -1.4755
14807SOL     OW49550   7.258   7.739   8.935 -0.0402  0.3632  0.0313
14807SOL    HW149551   7.270   7.804   9.005 -0.0101 -0.0186  0.3801
14807SOL    HW249552   7.343   7.696   8.927  0.1672  0.9117 -0.7463
14808SOL     OW49553   3.717   1.960  11.328 -0.3310  0.3954 -0.2882
14808SOL    HW149554   3.802   1.916  11.316 -1.0490 -1.3932  1.0060
14808SOL    HW249555   3.739   2.052  11.339  1.2685  0.3055 -2.4104
14809SOL     OW49556   2.061   4.125   9.313  0.2348  0.0773 -0.1984
14809SOL    HW149557   2.104   4.042   9.294 -0.3840 -0.3145  0.0887
14809SOL    HW249558   2.098   4.186   9.250  1.3789 -0.1907  0.2011
14810SOL     OW49559   5.977   5.505   6.932 -0.6946 -0.2919  0.0538
14810SOL    HW149560   5.920   5.428   6.922 -1.7823  0.2040  2.0370
14810SOL    HW249561   6.001   5.529   6.843 -2.6065 -1.2738 -0.7654
14811SOL     OW49562  10.763   1.775   5.166  0.1321  0.0245 -0.0051
14811SOL    HW149563  10.767   1.679   5.161  0.6187  0.1617 -2.8850
14811SOL    HW249564  10.855   1.803   5.159 -0.1311  0.7357 -0.6730
14812SOL     OW49565   6.890   3.840   3.704  0.1961  0.2233 -0.1475
14812SOL    HW149566   6.872   3.754   3.743  2.8666  0.9846  3.0089
14812SOL    HW249567   6.803   3.877   3.688 -1.1423 -0.6135  4.2742
14813SOL     OW49568   9.238   0.274   8.975  0.5296 -0.2218 -0.4620
14813SOL    HW149569   9.197   0.361   8.982  0.1154 -0.5236  1.0289
14813SOL    HW249570   9.326   0.286   9.011  0.3648 -0.4802  0.0354
14814SOL     OW49571   7.842   3.840  10.693  0.0569  0.5070 -0.1701
14814SOL    HW149572   7.749   3.839  10.670  0.7058 -0.9475 -2.8470
14814SOL    HW249573   7.872   3.927  10.665 -0.3774  0.8587  0.4138
14815SOL     OW49574   0.340   8.785   5.771 -0.8171  0.1180  0.4552
14815SOL    HW149575   0.305   8.705   5.732 -2.7451  1.2929 -0.3378
14815SOL    HW249576   0.434   8.772   5.773 -1.0341 -1.8055 -0.4754
14816SOL     OW49577  10.601   6.409   8.804 -0.3297 -0.4092  0.0562
14816SOL    HW149578  10.599   6.339   8.870  0.1726 -1.6029 -1.1848
14816SOL    HW249579  10.534   6.384   8.740 -0.7091  0.6752  0.0103
14817SOL     OW49580   5.305   6.252   3.183  0.0141  0.1007  0.0185
14817SOL    HW149581   5.269   6.335   3.214 -0.0253  0.4057 -0.8379
14817SOL    HW249582   5.391   6.275   3.148  0.3973 -0.3755  0.6261
14818SOL     OW49583   4.911   7.287   9.668 -0.4059 -0.3242  0.3629
14818SOL    HW149584   4.820   7.303   9.693  0.6129  1.6578  3.0216
14818SOL    HW249585   4.916   7.314   9.576 -2.6571 -1.2007 -0.0507
14819SOL     OW49586   9.764   3.414   0.626 -0.1493 -0.2436  0.0677
14819SOL    HW149587   9.789   3.383   0.539 -1.7024  0.9980 -0.8563
14819SOL    HW249588   9.743   3.334   0.675 -0.8726 -0.8740 -1.2289
14820SOL     OW49589   3.392   0.890   9.379 -0.1576 -0.5339 -0.4911
14820SOL    HW149590   3.437   0.871   9.461  1.9743  1.0031 -1.2518
14820SOL    HW249591   3.411   0.815   9.323 -1.2523 -1.3780  0.2326
14821SOL     OW49592   4.106   2.577   6.550  0.2515 -0.1667  0.1479
14821SOL    HW149593   4.027   2.632   6.550 -0.0969 -0.6228  1.7747
14821SOL    HW249594   4.093   2.517   6.624  1.9673 -0.4691  0.2254
14822SOL     OW49595   8.276  10.206   0.700 -0.2184 -0.5339  0.0272
14822SOL    HW149596   8.296  10.228   0.609  1.4502 -1.7448  0.0739
14822SOL    HW249597   8.343  10.252   0.751  1.0094 -2.6003  0.3723
14823SOL     OW49598   4.173   4.921   4.680 -0.3097 -0.5353  0.2533
14823SOL    HW149599   4.163   5.005   4.636 -0.9332  0.1430  1.6738
14823SOL    HW249600   4.200   4.861   4.611  2.2144  1.2781 -0.3957
14824SOL     OW49601   6.824   4.912   2.524 -0.1256 -0.4426  0.4669
14824SOL    HW149602   6.811   4.903   2.619  0.6906  0.4578  0.6739
14824SOL    HW249603   6.736   4.931   2.491 -0.6056 -1.8311  0.8939
14825SOL     OW49604   0.054  11.230   4.812  0.3784  0.4537 -0.2089
14825SOL    HW149605   0.005  11.256   4.734  0.9497  0.2573 -0.6364
14825SOL    HW249606   0.029  11.138   4.825  1.0146  0.2095 -0.7170
14826SOL     OW49607   3.360   7.840   6.356 -0.4846  0.3410  0.1357
14826SOL    HW149608   3.333   7.824   6.447  0.1259 -1.3518  0.0390
14826SOL    HW249609   3.453   7.863   6.362 -0.0009 -1.4757 -0.1970
14827SOL     OW49610   0.946   3.507   3.548 -0.1589 -0.1723  0.1727
14827SOL    HW149611   0.852   3.496   3.535  0.2451 -0.0758 -3.2727
14827SOL    HW249612   0.957   3.601   3.562 -0.6706 -0.3110  1.5130
14828SOL     OW49613   5.206   4.067   1.501  0.9270  0.0558  0.1486
14828SOL    HW149614   5.296   4.076   1.470  1.0534 -1.9716 -0.1780
14828SOL    HW249615   5.153   4.062   1.421  0.8297 -1.2992  0.2772
14829SOL     OW49616   5.815  11.270   6.894  0.3578 -0.1481  0.1724
14829SOL    HW149617   5.866  11.311   6.824  0.0923 -1.7660 -0.9881
14829SOL    HW249618   5.738  11.235   6.851 -1.4188  1.6055  1.7999
14830SOL     OW49619   9.766   8.106   2.600  0.2388  0.5609  0.6890
14830SOL    HW149620   9.673   8.086   2.610  0.0892  0.3304 -0.9754
14830SOL    HW249621   9.772   8.150   2.515  1.9456 -1.4230 -0.2623
14831SOL     OW49622   0.704   6.534   9.915  0.7928 -0.0001 -0.4445
14831SOL    HW149623   0.738   6.583   9.839  2.5368 -0.2415  0.1490
14831SOL    HW249624   0.746   6.449   9.908  1.2425  0.0960  0.9791
14832SOL     OW49625  10.458   1.957   2.594 -0.2030 -0.0246 -0.6356
14832SOL    HW149626  10.434   2.049   2.580 -2.3328 -0.6053 -0.7941
14832SOL    HW249627  10.554   1.957   2.587 -0.2395  2.0306 -1.5074
14833SOL     OW49628   8.375   1.869   2.935 -0.3352  0.0446 -0.1279
14833SOL    HW149629   8.386   1.919   3.015  0.0562  0.6505 -0.5546
14833SOL    HW249630   8.305   1.915   2.888 -0.6079 -0.3462 -0.1063
14834SOL     OW49631   5.037   4.393  10.997 -0.3325  0.4033 -0.4337
14834SOL    HW149632   4.969   4.442  11.043 -0.7967 -0.9968  0.4033
14834SOL    HW249633   4.998   4.368  10.914  0.0926  1.9153 -1.0873
14835SOL     OW49634   7.385   3.560   0.038  0.7166 -0.4335 -0.9986
14835SOL    HW149635   7.443   3.610   0.095  1.0831 -0.8068 -1.0398
14835SOL    HW249636   7.382   3.473   0.078 -2.3010  0.4047  0.7760
14836SOL     OW49637   2.927   5.101   5.634 -1.0700  0.2637  0.5413
14836SOL    HW149638   2.867   5.160   5.680 -0.2506  1.2778  0.3515
14836SOL    HW249639   2.915   5.016   5.676  0.0717  1.2906  3.0829
14837SOL     OW49640   5.750   7.365  11.290 -0.2195 -0.0127  0.2340
14837SOL    HW149641   5.834   7.361  11.245 -0.7543 -0.5037 -0.7176
14837SOL    HW249642   5.729   7.274  11.312 -1.5806 -0.1526 -1.5418
14838SOL     OW49643   2.156  11.144  10.318 -0.4006 -0.2170 -0.0162
14838SOL    HW149644   2.110  11.061  10.311 -0.1681 -0.2187 -1.5798
14838SOL    HW249645   2.192  11.144  10.407 -2.1554 -0.8557  0.7176
14839SOL     OW49646  11.244   0.193   3.450 -0.6351  0.1449  0.0506
14839SOL    HW149647  11.317   0.223   3.505 -1.5505 -0.5478  1.6789
14839SOL    HW249648  11.279   0.117   3.404  0.5089  1.4194 -1.2411
14840SOL     OW49649   7.798   3.486  10.377  0.2730  0.1046  0.5125
14840SOL    HW149650   7.870   3.472  10.316  0.1971  0.6669  0.2938
14840SOL    HW249651   7.781   3.580  10.373 -1.9381 -0.3254 -1.1331
14841SOL     OW49652   6.342   0.927   5.626 -0.3403  0.1430  0.1735
14841SOL    HW149653   6.269   0.972   5.584  0.4080  2.2738  1.1047
14841SOL    HW249654   6.304   0.883   5.702 -1.0967 -0.9449 -0.8132
14842SOL     OW49655   4.258   7.123   1.943 -0.1793  0.0250 -0.3399
14842SOL    HW149656   4.314   7.195   1.972 -1.9371  0.9550  0.8038
14842SOL    HW249657   4.253   7.065   2.019  1.0776 -1.2559 -1.1965
14843SOL     OW49658  10.399   8.962   6.410 -0.0303  0.2733  0.6831
14843SOL    HW149659  10.334   8.902   6.372 -2.1302  1.5152  2.2050
14843SOL    HW249660  10.418   9.023   6.339  2.1620 -2.1320 -0.9008
14844SOL     OW49661   8.351   7.257   9.066 -0.1618 -0.1612 -0.2012
14844SOL    HW149662   8.398   7.174   9.062 -2.3158 -1.3983 -0.5147
14844SOL    HW249663   8.352   7.290   8.976  0.6557  0.1610 -0.0827
14845SOL     OW49664  10.682  10.766   0.507  0.4394  0.0919  0.3781
14845SOL    HW149665  10.754  10.739   0.449  0.1243 -0.2168  0.1296
14845SOL    HW249666  10.605  10.769   0.450  0.3459  0.9178  0.5310
14846SOL     OW49667   0.165   9.715  11.263  0.0998 -0.0496 -0.0476
14846SOL    HW149668   0.190   9.657  11.335  3.6397  1.0738 -0.2409
14846SOL    HW249669   0.154   9.658  11.187 -0.1015 -0.8496  0.5876
14847SOL     OW49670  11.203   0.232   1.936  0.2919  0.0041 -0.0310
14847SOL    HW149671  11.136   0.300   1.945  1.3334  1.3071 -1.6752
14847SOL    HW249672  11.215   0.198   2.024 -1.8549  0.4034  0.4321
14848SOL     OW49673   1.616  10.921   6.174  0.5893  0.4411  0.0742
14848SOL    HW149674   1.555  10.920   6.248 -0.2326  0.0204 -0.6030
14848SOL    HW249675   1.644  11.012   6.167 -1.4934  1.0470 -0.8483
14849SOL     OW49676   2.334   6.205  10.171 -0.1285 -0.2343 -0.6190
14849SOL    HW149677   2.350   6.121  10.214 -0.1165  0.2495  0.3337
14849SOL    HW249678   2.296   6.181  10.086 -1.8517 -1.1635  0.3744
14850SOL     OW49679   7.240  10.332   3.255 -0.8412  0.7026  0.5319
14850SOL    HW149680   7.286  10.281   3.189 -1.0890  1.9604 -0.6364
14850SOL    HW249681   7.309  10.358   3.317 -0.5789 -0.3235  0.6826
14851SOL     OW49682  11.170   5.187   4.563 -0.0209 -0.6610  0.1167
14851SOL    HW149683  11.101   5.251   4.542  0.6150 -0.3865 -1.1262
14851SOL    HW249684  11.133   5.136   4.635 -1.8232 -0.9725 -0.9892
14852SOL     OW49685   7.558   3.183   6.487  0.1933  0.1219  0.1208
14852SOL    HW149686   7.648   3.154   6.500  0.7870  2.1370  0.7069
14852SOL    HW249687   7.562   3.239   6.409 -0.6805 -0.3019 -0.2387
14853SOL     OW49688   6.271   1.368  10.874 -0.7009 -0.1133 -0.2750
14853SOL    HW149689   6.255   1.459  10.850  1.2554  0.3223 -0.0766
14853SOL    HW249690   6.362   1.367  10.905 -0.8563 -2.0348  0.2268
14854SOL     OW49691   0.119  11.113   1.711 -0.0539  0.4332 -0.3394
14854SOL    HW149692   0.163  11.034   1.679  0.6340  1.0689 -0.9554
14854SOL    HW249693   0.038  11.117   1.660  0.6008  0.9306 -1.3352
14855SOL     OW49694  10.030   0.894   3.917 -0.0444  0.2872 -0.2802
14855SOL    HW149695   9.958   0.864   3.973  0.7243  2.5581  1.9851
14855SOL    HW249696   9.993   0.892   3.829 -2.1132 -0.8819  0.5792
14856SOL     OW49697   2.907   4.159   1.399 -0.0921 -0.2622 -0.9270
14856SOL    HW149698   2.853   4.232   1.430 -1.5767 -2.4869  1.9569
14856SOL    HW249699   2.997   4.191   1.406 -0.6715  0.9949  1.1289
14857SOL     OW49700   0.286   7.756   8.627 -0.2177 -0.5546  0.0365
14857SOL    HW149701   0.343   7.693   8.670  1.2968  0.0881 -0.9966
14857SOL    HW249702   0.201   7.711   8.620  0.3753 -1.8176  0.8419
14858SOL     OW49703   9.541  10.000   0.678 -0.4314 -0.7156 -0.1485
14858SOL    HW149704   9.472   9.935   0.674 -0.0210 -1.1911  0.4388
14858SOL    HW249705   9.601   9.977   0.606 -0.3213 -0.9462  0.0182
14859SOL     OW49706   9.024   0.539   5.055 -0.1557  0.3794  0.1970
14859SOL    HW149707   9.076   0.499   5.125  0.1357 -1.2887 -0.9485
14859SOL    HW249708   9.014   0.470   4.990 -0.0891  2.0449 -1.6105
14860SOL     OW49709   4.807   2.928   8.294 -0.7899  0.3669  0.2339
14860SOL    HW149710   4.715   2.917   8.272 -1.3758 -0.0199  2.7735
14860SOL    HW249711   4.813   3.015   8.333 -0.1336  0.2558  0.3990
14861SOL     OW49712   3.705   1.859   4.881  0.2458  0.1533 -0.8307
14861SOL    HW149713   3.659   1.792   4.931  0.1776  0.3064 -0.6886
14861SOL    HW249714   3.674   1.848   4.791 -0.0025  0.2027 -0.7495
14862SOL     OW49715   0.204   3.047   5.090  0.0250 -0.1314 -0.5541
14862SOL    HW149716   0.278   3.086   5.044 -0.7427  0.2776 -1.4696
14862SOL    HW249717   0.237   3.028   5.178  0.9318  0.9357 -0.6550
14863SOL     OW49718   2.419   0.702  10.450 -0.2277  0.1092  0.0580
14863SOL    HW149719   2.408   0.624  10.505  0.4824 -0.6932 -0.9245
14863SOL    HW249720   2.498   0.744  10.483  3.0503 -3.0131 -3.4222
14864SOL     OW49721   4.760   8.429   8.887  0.0191  0.0535 -0.0093
14864SOL    HW149722   4.700   8.499   8.915 -0.3999 -1.1846  2.3740
14864SOL    HW249723   4.704   8.368   8.839 -0.1860  0.0102  0.2801
14865SOL     OW49724   0.835   1.745   4.374  0.0255 -0.0571 -0.4419
14865SOL    HW149725   0.820   1.782   4.461 -0.8422 -2.0386  0.2932
14865SOL    HW249726   0.892   1.808   4.331  2.3352 -0.0986  2.3693
14866SOL     OW49727   2.928   8.385   8.947 -0.4006 -0.0895 -0.1912
14866SOL    HW149728   2.883   8.405   9.029 -0.7182 -3.8602  0.6612
14866SOL    HW249729   3.020   8.402   8.966 -0.6144  0.2822  0.5510
14867SOL     OW49730   8.034   0.945   7.594 -0.3206 -0.1845  0.1021
14867SOL    HW149731   8.017   0.943   7.499  2.2053  3.5534 -0.5287
14867SOL    HW249732   8.089   0.868   7.609 -1.1637 -1.1112 -1.3709
14868SOL     OW49733   9.152   1.595   2.424 -0.1038  0.1562  0.2226
14868SOL    HW149734   9.100   1.565   2.348  0.8024  0.5787 -0.5747
14868SOL    HW249735   9.173   1.514   2.471  0.8651 -0.3027 -0.9780
14869SOL     OW49736   9.174   5.556   9.225 -0.1589 -0.1784 -0.3939
14869SOL    HW149737   9.139   5.645   9.220  0.4304  0.0837  0.1061
14869SOL    HW249738   9.172   5.535   9.318 -1.2394 -1.0716 -0.6116
14870SOL     OW49739   1.582   6.065   8.437 -0.1952 -0.3469  0.0816
14870SOL    HW149740   1.644   6.120   8.389  2.5892 -0.2764  3.5769
14870SOL    HW249741   1.520   6.127   8.476  0.0205 -0.0803 -0.0002
14871SOL     OW49742   1.388   4.878   5.430 -0.4223 -0.3763  0.0723
14871SOL    HW149743   1.383   4.787   5.401  0.9724 -0.2422 -0.5985
14871SOL    HW249744   1.442   4.876   5.509 -1.0830 -0.2368  0.5310
14872SOL     OW49745   5.126   3.967   1.911 -0.0369  0.1419  0.4230
14872SOL    HW149746   5.119   4.036   1.977  0.3410  0.8855 -0.3083
14872SOL    HW249747   5.112   3.886   1.960 -3.1064  0.8643  0.8372
14873SOL     OW49748   5.522   3.963   7.128 -0.2072 -0.4492 -0.4697
14873SOL    HW149749   5.617   3.964   7.121 -0.0053  1.1246  1.9795
14873SOL    HW249750   5.492   4.029   7.065  0.6088  2.1976  1.8275
14874SOL     OW49751   7.355   8.860   9.324 -0.2934 -0.3346  0.0409
14874SOL    HW149752   7.434   8.822   9.288  0.6236 -0.0030  1.6380
14874SOL    HW249753   7.285   8.833   9.264  0.8249 -1.7473 -0.6484
14875SOL     OW49754  10.857   3.523   8.129  0.1898  0.1239  0.1783
14875SOL    HW149755  10.774   3.499   8.170 -0.1961 -2.3573 -1.9062
14875SOL    HW249756  10.833   3.579   8.056  0.3959 -0.1082 -0.0679
14876SOL     OW49757   8.801   0.988   8.234  0.1811 -0.5682  0.1757
14876SOL    HW149758   8.720   0.965   8.279 -1.9931  3.7344 -1.2451
14876SOL    HW249759   8.789   0.957   8.145  0.1015  0.0421 -0.0288
14877SOL     OW49760   0.425   1.304   6.837  0.0183 -0.0410 -0.8476
14877SOL    HW149761   0.496   1.361   6.865 -0.1928 -0.9744  1.7485
14877SOL    HW249762   0.469   1.225   6.805  0.1794 -0.5864  0.6834
14878SOL     OW49763   8.502   3.698   2.683  0.0899  0.0965  0.0419
14878SOL    HW149764   8.455   3.640   2.623 -0.4493 -1.0991  1.5670
14878SOL    HW249765   8.579   3.649   2.710  0.0478  0.4066  0.7470
14879SOL     OW49766   9.363   5.128   9.519 -0.2254  0.2065 -0.0049
14879SOL    HW149767   9.315   5.205   9.549 -3.3170 -1.2550 -1.0620
14879SOL    HW249768   9.434   5.118   9.584 -0.8259  2.8517  1.1422
14880SOL     OW49769   5.437   3.332  10.405 -0.0811 -0.6151 -0.0482
14880SOL    HW149770   5.349   3.305  10.432 -0.1580 -0.9543 -0.6276
14880SOL    HW249771   5.429   3.353  10.312  0.3189 -0.0601  0.0411
14881SOL     OW49772  10.594   3.947  10.867 -0.2047 -0.0956  0.0393
14881SOL    HW149773  10.656   3.969  10.936 -0.3011  0.7110 -0.1289
14881SOL    HW249774  10.630   3.989  10.788 -0.7390  0.0118 -0.1459
14882SOL     OW49775   3.585   4.657   4.033 -0.6251 -0.1243 -0.0810
14882SOL    HW149776   3.625   4.706   3.961  1.0911 -0.3927  0.6519
14882SOL    HW249777   3.610   4.706   4.112  1.8062 -2.5203  0.7386
14883SOL     OW49778   6.709   3.531   6.881  0.2633 -0.1216  0.6373
14883SOL    HW149779   6.677   3.522   6.970  0.5896 -1.2331  0.6468
14883SOL    HW249780   6.803   3.546   6.889  0.6277 -2.2078  0.4158
14884SOL     OW49781  10.586   7.032   8.667  0.1101  0.4427  0.1509
14884SOL    HW149782  10.674   7.000   8.645  0.0895 -0.3219  1.1199
14884SOL    HW249783  10.598   7.077   8.751 -0.1802  1.5337 -0.3837
14885SOL     OW49784   2.182   0.206   7.412  0.3956 -0.3597  0.2886
14885SOL    HW149785   2.211   0.259   7.338 -2.3176  0.4379 -0.2585
14885SOL    HW249786   2.204   0.116   7.386  0.5338  0.0246 -0.9774
14886SOL     OW49787  11.155   6.369   0.369  0.3716 -0.0795 -0.1656
14886SOL    HW149788  11.193   6.439   0.317 -1.4034  1.9943  1.2614
14886SOL    HW249789  11.226   6.341   0.428  1.6393 -0.8002 -1.9772
14887SOL     OW49790   8.577   0.335   1.076 -0.1077 -0.0368  0.1342
14887SOL    HW149791   8.578   0.314   0.982  1.5334  1.3159 -0.1841
14887SOL    HW249792   8.583   0.251   1.120 -0.3255 -0.6465 -0.9942
14888SOL     OW49793   9.897   8.096   3.380  0.3398 -0.4666  0.1138
14888SOL    HW149794   9.980   8.132   3.350  0.0924  1.4648  1.6598
14888SOL    HW249795   9.835   8.168   3.372 -1.0586 -1.6913 -0.3832
14889SOL     OW49796   3.693   1.805   3.397 -0.3957  0.3982  0.3007
14889SOL    HW149797   3.622   1.791   3.460 -0.0756  2.2229  1.0948
14889SOL    HW249798   3.772   1.809   3.451  0.3443 -1.6467 -0.5823
14890SOL     OW49799   2.204   9.936  10.245  0.1823  0.2014 -0.2546
14890SOL    HW149800   2.162  10.006  10.195  0.8430  0.0446 -1.0359
14890SOL    HW249801   2.294   9.966  10.256  0.2356 -0.1220  0.1728
14891SOL     OW49802   2.574   5.322   1.459  0.2804 -0.2197 -0.2356
14891SOL    HW149803   2.587   5.387   1.390  1.7244 -1.3503 -1.0722
14891SOL    HW249804   2.645   5.338   1.521  0.3397 -0.6441 -0.1864
14892SOL     OW49805   8.882   5.406   6.666 -0.2300  0.1513 -0.4086
14892SOL    HW149806   8.951   5.371   6.722  1.9159  1.7580 -1.9522
14892SOL    HW249807   8.839   5.329   6.630  0.4099 -0.8787  0.9919
14893SOL     OW49808   8.781   6.401   5.958  0.0665 -0.0450  0.4201
14893SOL    HW149809   8.701   6.438   5.993 -0.3761  0.4795 -1.1112
14893SOL    HW249810   8.773   6.306   5.973 -1.8224 -0.2499 -1.6317
14894SOL     OW49811   5.572  10.730   3.005 -0.8259  0.1311 -0.2753
14894SOL    HW149812   5.509  10.800   2.987 -2.1316 -1.2479 -1.1554
14894SOL    HW249813   5.525  10.650   2.984  1.4118 -0.9033 -1.4218
14895SOL     OW49814  10.142   7.588   3.709  0.3810  0.7804  0.1262
14895SOL    HW149815  10.171   7.672   3.675  0.3421  0.0206 -1.8819
14895SOL    HW249816  10.090   7.551   3.639 -1.1503 -0.1236  1.7089
14896SOL     OW49817   7.028   1.334   7.899  0.7410  0.3386  0.8254
14896SOL    HW149818   7.121   1.333   7.875  0.5538  0.8601  0.0687
14896SOL    HW249819   6.984   1.374   7.824 -0.1204 -0.0821  1.1011
14897SOL     OW49820   8.300   5.478   0.472 -0.0311 -0.5373  0.1797
14897SOL    HW149821   8.260   5.450   0.554  0.0087  0.3668  0.5136
14897SOL    HW249822   8.383   5.516   0.497 -0.3966  0.5186 -0.1880
14898SOL     OW49823  10.153   8.199   8.318 -0.8873 -0.4499 -0.4075
14898SOL    HW149824  10.137   8.285   8.280  1.2416 -0.6487 -1.8280
14898SOL    HW249825  10.174   8.216   8.410 -1.0131  0.4729 -0.5525
14899SOL     OW49826   5.333   9.504   5.484 -0.0836 -0.2916 -0.6953
14899SOL    HW149827   5.385   9.553   5.549 -1.1522  0.7376 -0.5961
14899SOL    HW249828   5.296   9.431   5.533  0.3860 -0.4116 -0.5136
14900SOL     OW49829   1.879   7.685   1.307 -0.0775 -0.0989 -0.8011
14900SOL    HW149830   1.910   7.598   1.334 -0.7173 -0.1225 -0.1101
14900SOL    HW249831   1.783   7.676   1.304 -0.0776  0.1624 -2.2088
14901SOL     OW49832   4.747   7.694   3.168 -0.8621  0.0314  0.5798
14901SOL    HW149833   4.746   7.646   3.086 -1.0710  0.0110  0.5930
14901SOL    HW249834   4.774   7.629   3.234 -0.3003  0.1519  0.4653
14902SOL     OW49835   6.995   1.893   4.871  0.0878 -0.0983 -0.4899
14902SOL    HW149836   7.046   1.827   4.918  0.3306  0.3894 -0.0571
14902SOL    HW249837   6.944   1.844   4.807 -1.7807 -1.0377  1.6215
14903SOL     OW49838   1.345   1.431   6.988  0.0295 -0.2097 -0.5433
14903SOL    HW149839   1.395   1.423   6.907 -2.3236  0.4429 -2.1133
14903SOL    HW249840   1.260   1.466   6.961 -0.7574  0.1724  2.2315
14904SOL     OW49841   1.487   7.299   8.829  0.6320 -0.1607 -0.2109
14904SOL    HW149842   1.457   7.217   8.789 -1.5987  0.4467  0.1360
14904SOL    HW249843   1.476   7.365   8.760  0.6726  0.1777  0.1066
14905SOL     OW49844   6.266   6.343   9.169 -0.4308 -0.2257 -0.0917
14905SOL    HW149845   6.246   6.435   9.148 -0.5538 -0.1926  0.1724
14905SOL    HW249846   6.271   6.341   9.264  2.4113  0.0997 -0.1774
14906SOL     OW49847   8.229   8.853   6.838  0.3459  0.4469 -0.2895
14906SOL    HW149848   8.239   8.924   6.902 -0.3419 -0.1280  0.4627
14906SOL    HW249849   8.214   8.775   6.891  1.3813 -0.3206 -1.1018
14907SOL     OW49850   1.167   2.573   4.233  0.8439  0.1900  0.2820
14907SOL    HW149851   1.217   2.652   4.217 -1.0892  1.5312  0.6942
14907SOL    HW249852   1.109   2.565   4.157  0.5441 -0.4500  0.5673
14908SOL     OW49853   5.134  11.113   3.830 -0.5048 -0.1220  0.0781
14908SOL    HW149854   5.076  11.126   3.754  0.0126 -0.9004 -0.4526
14908SOL    HW249855   5.101  11.174   3.896 -1.2340  0.2446 -0.6207
14909SOL     OW49856   6.739   0.490   8.661  0.0732 -0.9382 -0.3008
14909SOL    HW149857   6.829   0.483   8.692  0.3224 -0.4492 -0.9296
14909SOL    HW249858   6.686   0.471   8.739  0.6926  1.2756  0.6994
14910SOL     OW49859   2.775   8.503   4.428 -0.8224  0.2914  0.2066
14910SOL    HW149860   2.833   8.431   4.453 -0.9417  0.2744  0.4379
14910SOL    HW249861   2.687   8.465   4.433 -0.7667 -0.0765 -1.4966
14911SOL     OW49862   1.217   5.428   1.661  0.1620 -0.4057  0.1593
14911SOL    HW149863   1.167   5.483   1.601 -1.4211 -1.4774  0.4698
14911SOL    HW249864   1.246   5.355   1.607 -1.9634 -1.8010  0.8218
14912SOL     OW49865   2.798   7.601   9.257  0.1835 -0.4069  0.3120
14912SOL    HW149866   2.811   7.661   9.331  0.4438 -0.2175  0.1156
14912SOL    HW249867   2.830   7.650   9.181  2.3401 -1.5713  0.4414
14913SOL     OW49868   6.617   1.009   2.712  0.0715 -0.8055  0.3312
14913SOL    HW149869   6.633   1.036   2.803 -0.2783  0.9678 -0.1199
14913SOL    HW249870   6.688   1.051   2.663 -0.0255 -1.3626 -0.2825
14914SOL     OW49871   0.331   5.519   1.624 -0.3793 -0.7785  0.5490
14914SOL    HW149872   0.250   5.491   1.581 -1.3969  2.6249  0.1281
14914SOL    HW249873   0.306   5.539   1.714 -0.2404  1.1543  0.1854
14915SOL     OW49874   9.187   9.129   5.727 -0.2893  0.3297  0.2205
14915SOL    HW149875   9.264   9.112   5.673  0.1167  1.9817  0.2505
14915SOL    HW249876   9.127   9.177   5.670 -0.2063  1.3491  0.9749
14916SOL     OW49877   1.373   3.209  10.436  0.0558  0.2608 -0.1585
14916SOL    HW149878   1.465   3.230  10.450 -0.1403 -0.2722  2.1355
14916SOL    HW249879   1.359   3.127  10.483 -1.8110  0.8250  0.3300
14917SOL     OW49880   3.463   3.711   3.173 -0.2343 -0.0362 -0.1493
14917SOL    HW149881   3.489   3.772   3.105 -0.2438 -0.2881 -0.3812
14917SOL    HW249882   3.496   3.626   3.143 -0.3862 -0.1757  0.0743
14918SOL     OW49883   2.669   7.039   8.906  0.4133  0.0335 -0.5458
14918SOL    HW149884   2.578   7.046   8.933  0.3784  1.1310 -0.9118
14918SOL    HW249885   2.694   7.129   8.884  1.5465 -0.2798 -0.5509
14919SOL     OW49886  10.173   3.893  10.458 -0.2440  0.1302 -0.3432
14919SOL    HW149887  10.211   3.850  10.534 -0.1051  2.1655  0.7775
14919SOL    HW249888  10.087   3.921  10.487  0.1226  1.6281 -0.6565
14920SOL     OW49889  10.514   3.876   4.207  0.1405 -0.1601  0.3819
14920SOL    HW149890  10.490   3.916   4.291 -0.9677  0.5155 -0.2514
14920SOL    HW249891  10.479   3.787   4.212  0.1445 -0.1478  0.6613
14921SOL     OW49892   1.781   4.681   8.910  0.3021  0.4468  0.5507
14921SOL    HW149893   1.872   4.683   8.881 -0.0160  0.7721 -0.4488
14921SOL    HW249894   1.740   4.753   8.863  0.0656  1.8263  2.8320
14922SOL     OW49895   8.575   9.056   0.382  0.1019 -0.6076 -0.2813
14922SOL    HW149896   8.565   9.086   0.473 -1.0519  1.1890 -0.9633
14922SOL    HW249897   8.543   9.130   0.329 -2.2151 -2.7838 -2.0566
14923SOL     OW49898   7.453   5.431   5.728 -0.5661  0.1912 -0.2966
14923SOL    HW149899   7.406   5.361   5.774 -1.5407  0.3826 -0.9882
14923SOL    HW249900   7.537   5.392   5.704  0.1267  0.2143  1.9859
14924SOL     OW49901   3.817   7.859   9.204 -0.0389 -0.4466 -0.4581
14924SOL    HW149902   3.887   7.924   9.208  0.9405 -1.4293 -1.4685
14924SOL    HW249903   3.850   7.784   9.253 -1.1169 -0.2672  0.5935
14925SOL     OW49904   5.326  10.037   2.673  0.0768  0.0981  0.0912
14925SOL    HW149905   5.404   9.980   2.672  0.1023  0.1387 -0.3708
14925SOL    HW249906   5.282  10.017   2.756 -1.0210 -2.0887 -0.9969
14926SOL     OW49907   6.589   2.732   6.839 -0.2407  0.0581  0.1584
14926SOL    HW149908   6.636   2.756   6.919 -1.5082  0.2607  0.8599
14926SOL    HW249909   6.657   2.724   6.772  0.6496  1.4737  0.8878
14927SOL     OW49910   6.513   6.408   8.855 -0.5250  0.5982  0.0946
14927SOL    HW149911   6.499   6.501   8.840 -2.1164  0.4897  0.8604
14927SOL    HW249912   6.543   6.403   8.946 -0.4367  0.3517  0.0541
14928SOL     OW49913  10.942  11.028   2.548 -0.1742  0.1439  0.3554
14928SOL    HW149914  10.914  11.077   2.626  0.3620  0.4323  0.3718
14928SOL    HW249915  10.870  11.038   2.486  0.0698  1.2437  0.2335
14929SOL     OW49916   9.460   2.637   4.479 -0.0559  0.3126  0.1155
14929SOL    HW149917   9.365   2.628   4.480  0.0218 -0.5618  0.3115
14929SOL    HW249918   9.488   2.591   4.400  0.2779 -0.2967  0.5830
14930SOL     OW49919   0.512  11.254   4.220 -0.3934 -0.0595 -0.7155
14930SOL    HW149920   0.578  11.322   4.207  1.0191 -0.9049  1.7258
14930SOL    HW249921   0.545  11.178   4.172 -0.6637  0.1486 -1.2408
14931SOL     OW49922  11.255  10.397   3.716 -0.5651 -0.5898  0.0092
14931SOL    HW149923  11.228  10.461   3.781 -0.7766 -0.5701 -0.0981
14931SOL    HW249924  11.272  10.448   3.637 -0.8240 -0.6789 -0.1027
14932SOL     OW49925   9.530   7.556  10.624  0.3248 -0.1299 -0.1625
14932SOL    HW149926   9.602   7.505  10.658  0.4912  0.1921 -0.0281
14932SOL    HW249927   9.458   7.541  10.686  0.8608  1.0759  0.7940
14933SOL     OW49928   8.084   8.388   8.838 -0.6362 -0.0959 -0.2638
14933SOL    HW149929   8.031   8.314   8.866 -1.8177 -0.0817 -2.3169
14933SOL    HW249930   8.047   8.463   8.885  0.0062 -0.6700  1.1638
14934SOL     OW49931   5.546   2.376   1.428  0.1935 -0.0754  0.2871
14934SOL    HW149932   5.512   2.425   1.353  1.6277  2.2294  1.0893
14934SOL    HW249933   5.509   2.421   1.504  1.5001 -0.2512  1.0309
14935SOL     OW49934   8.576   2.597   5.942  0.2581 -0.7482 -0.0005
14935SOL    HW149935   8.613   2.678   5.977 -1.2570 -0.1642  0.2591
14935SOL    HW249936   8.622   2.528   5.989  1.1293 -0.0349  0.2177
14936SOL     OW49937  10.390   2.443   0.276 -0.0532 -0.4254 -0.1269
14936SOL    HW149938  10.369   2.519   0.329  1.5283  0.5406 -0.8611
14936SOL    HW249939  10.402   2.372   0.340 -2.7730 -0.4087  0.4778
14937SOL     OW49940   2.364  10.884   3.635  0.3802  0.3553 -0.0380
14937SOL    HW149941   2.428  10.823   3.672  1.1302 -0.5045 -2.5994
14937SOL    HW249942   2.398  10.971   3.656  0.5828 -0.1051  1.5695
14938SOL     OW49943   9.148   3.890   1.990  0.0701 -0.0512 -0.1789
14938SOL    HW149944   9.206   3.843   1.931 -0.5938  1.0222 -1.7173
14938SOL    HW249945   9.102   3.952   1.934  0.1218  1.6631  1.6226
14939SOL     OW49946   5.278   5.081   5.632 -0.1337 -0.0345  0.9478
14939SOL    HW149947   5.313   5.003   5.588 -0.1913  0.6677 -0.3601
14939SOL    HW249948   5.319   5.154   5.586 -0.7996  0.7285  1.5683
14940SOL     OW49949   9.483  10.243   8.512  0.0856  0.2847 -0.3228
14940SOL    HW149950   9.555  10.278   8.459  1.4291 -1.7643  0.0990
14940SOL    HW249951   9.520  10.234   8.600 -0.5798 -0.9929 -0.1539
14941SOL     OW49952   9.587   0.455   9.543 -0.7883 -0.0517  0.0841
14941SOL    HW149953   9.497   0.485   9.558 -0.4692  1.4986 -0.8790
14941SOL    HW249954   9.626   0.451   9.630 -2.4601 -3.0800  0.7610
14942SOL     OW49955   1.656   5.782   9.717  0.3040  0.4413 -0.5306
14942SOL    HW149956   1.595   5.832   9.663 -2.5177  0.0319  2.1208
14942SOL    HW249957   1.701   5.847   9.770 -0.7445  0.4986  0.3201
14943SOL     OW49958   2.915   6.851   1.073  0.3822  0.9329 -0.1654
14943SOL    HW149959   3.003   6.815   1.080 -0.3939 -0.6565  1.9742
14943SOL    HW249960   2.927   6.946   1.074  2.0153  0.7327  0.7944
14944SOL     OW49961   9.720   3.130   3.566  0.2182 -0.4653  0.2187
14944SOL    HW149962   9.767   3.213   3.579  0.8991 -0.6386 -1.1238
14944SOL    HW249963   9.722   3.089   3.653  1.1999  0.2348  0.5418
14945SOL     OW49964   0.651   5.006   9.662 -0.0729  0.3247  0.4391
14945SOL    HW149965   0.694   5.049   9.736 -2.2669  2.9664  0.2926
14945SOL    HW249966   0.711   5.018   9.589  0.3504  1.2466  0.9279
14946SOL     OW49967   6.556   2.350   4.095  0.5027  0.1043  0.2964
14946SOL    HW149968   6.569   2.342   4.189  0.2346  0.6798  0.3856
14946SOL    HW249969   6.634   2.395   4.064 -0.2063  1.5084  0.5048
14947SOL     OW49970   7.247   2.193  10.827 -0.1836  0.0638 -0.9484
14947SOL    HW149971   7.165   2.199  10.777  0.1218  1.5243 -1.2930
14947SOL    HW249972   7.283   2.281  10.825  0.6898 -0.2458  0.4317
14948SOL     OW49973   2.172   1.595   9.774  0.4346 -0.0618 -0.4806
14948SOL    HW149974   2.145   1.512   9.813 -0.7570  1.1320  1.3706
14948SOL    HW249975   2.135   1.594   9.686 -0.1422 -1.2154 -0.2277
14949SOL     OW49976   0.689   7.989   1.529  0.0991  0.0708  0.2885
14949SOL    HW149977   0.634   7.922   1.489  1.1532 -0.2880 -0.5883
14949SOL    HW249978   0.627   8.051   1.567 -0.8990 -1.4815  1.2808
14950SOL     OW49979   9.655   9.560   4.991  0.2371 -0.1072 -0.1731
14950SOL    HW149980   9.645   9.553   5.086  1.4000  0.7042  0.0083
14950SOL    HW249981   9.622   9.647   4.970  0.2278 -0.1851 -0.4792
14951SOL     OW49982   6.867   1.070   1.186 -0.2054 -0.1435 -0.3283
14951SOL    HW149983   6.854   1.062   1.281 -1.5579 -1.6065 -0.6085
14951SOL    HW249984   6.873   1.164   1.170  0.2716  0.1007  1.2362
14952SOL     OW49985   3.401   1.782  10.363 -0.0017  0.0366  0.1209
14952SOL    HW149986   3.315   1.796  10.404  0.2919  0.8673  0.4549
14952SOL    HW249987   3.380   1.745  10.277 -0.6758 -0.3484  0.4464
14953SOL     OW49988   1.301   5.049   1.951  0.3961 -0.0041  0.3091
14953SOL    HW149989   1.267   5.079   1.867  1.5423 -0.8857 -0.4818
14953SOL    HW249990   1.236   4.986   1.982 -0.5435  1.0759  0.5913
14954SOL     OW49991   6.297   6.054   2.704  0.0329  0.3626  0.0478
14954SOL    HW149992   6.346   6.045   2.786  0.0157 -0.4863 -0.0249
14954SOL    HW249993   6.363   6.038   2.636  0.5019  3.1178 -0.1804
14955SOL     OW49994   6.991   1.384   5.836 -0.4772 -0.1832  0.3331
14955SOL    HW149995   7.047   1.444   5.885  0.2322  0.1213 -0.8488
14955SOL    HW249996   6.939   1.441   5.779  0.4767 -0.6983 -1.0813
14956SOL     OW49997  10.215   9.228   7.309  0.2441 -0.3885 -0.1785
14956SOL    HW149998  10.285   9.225   7.374  0.4963 -0.0725 -0.4311
14956SOL    HW249999  10.157   9.156   7.332  0.8152 -0.8365 -0.1553
14957SOL     OW50000   5.504   0.230   4.600 -0.2979 -0.1797 -0.4316
14957SOL    HW150001   5.568   0.159   4.600  0.8765  0.8746 -0.5863
14957SOL    HW250002   5.427   0.193   4.556 -0.4583 -2.0095  1.3344
14958SOL     OW50003   5.369  10.236   9.688 -0.5709 -0.1772  0.3503
14958SOL    HW150004   5.313  10.252   9.764 -1.2974  2.0956 -0.6218
14958SOL    HW250005   5.457  10.261   9.717 -0.9998  1.6107  0.1981
14959SOL     OW50006   9.599   8.973   6.461 -0.1639  0.4579  0.1059
14959SOL    HW150007   9.573   9.025   6.537 -0.4758  0.9171 -0.3097
14959SOL    HW250008   9.693   8.987   6.453  0.3329 -1.5700  1.8914
14960SOL     OW50009   9.358   1.858   4.554  0.5486 -1.2435  0.0630
14960SOL    HW150010   9.292   1.820   4.612 -1.3216  2.2963  0.4078
14960SOL    HW250011   9.317   1.855   4.467  1.1490 -1.6887 -0.2054
14961SOL     OW50012   9.328  11.159   4.508  0.6192 -0.1578  0.0639
14961SOL    HW150013   9.370  11.197   4.585  0.3515  3.1212 -1.3309
14961SOL    HW250014   9.238  11.140   4.537  0.9281 -0.3255  0.9442
14962SOL     OW50015   9.674   1.761   3.212 -0.5177 -0.1258  0.4338
14962SOL    HW150016   9.746   1.734   3.156  0.2549  0.1114  1.3028
14962SOL    HW250017   9.714   1.777   3.297 -1.8282 -1.4844  1.3349
14963SOL     OW50018   9.908   5.253   3.559  0.0163  0.0549 -0.1538
14963SOL    HW150019   9.920   5.326   3.619  2.4357  1.7558 -2.5740
14963SOL    HW250020   9.814   5.251   3.541 -0.5012  0.5334  2.3685
14964SOL     OW50021   0.970   7.549   5.072  0.3018  0.3298  0.5226
14964SOL    HW150022   0.930   7.600   5.001 -0.8982 -2.4117 -0.8322
14964SOL    HW250023   1.050   7.514   5.034 -0.1461 -0.8329  0.6331
14965SOL     OW50024   4.874   4.498   1.327  0.1150 -0.2130  0.8298
14965SOL    HW150025   4.859   4.438   1.254  0.3857 -0.3254  0.8631
14965SOL    HW250026   4.947   4.459   1.375  2.3213  1.6356 -0.8202
14966SOL     OW50027   9.127   8.016   8.754  0.3117  0.2633  0.2070
14966SOL    HW150028   9.117   8.049   8.843  0.3518 -0.7070  0.5824
14966SOL    HW250029   9.215   8.044   8.728 -0.3708  2.0470 -0.1802
14967SOL     OW50030   0.608   7.122   1.473 -0.0046  0.2140 -0.3791
14967SOL    HW150031   0.564   7.038   1.456  0.5457  0.2560 -2.1708
14967SOL    HW250032   0.700   7.099   1.481 -0.0158  0.4803  0.5151
14968SOL     OW50033   2.582  10.721   7.575 -0.0805  0.1699  0.1046
14968SOL    HW150034   2.673  10.703   7.598 -0.6437 -1.4982  1.0474
14968SOL    HW250035   2.548  10.638   7.541 -1.4658  0.5731  0.4724
14969SOL     OW50036   0.243   1.360   1.467  0.3523 -0.5298 -0.4914
14969SOL    HW150037   0.304   1.358   1.540  0.3994  0.5214 -0.4869
14969SOL    HW250038   0.165   1.403   1.503  0.6551  0.6877 -1.2430
14970SOL     OW50039   4.067   3.922   9.524  0.0262  0.4145 -0.2274
14970SOL    HW150040   4.128   3.864   9.570  1.5261  1.2144 -1.1493
14970SOL    HW250041   3.994   3.866   9.500  0.4322 -0.5925  0.8473
14971SOL     OW50042   9.710   0.415   9.119 -0.1935  0.3846  0.0820
14971SOL    HW150043   9.687   0.507   9.133 -0.2781 -0.0381  2.8845
14971SOL    HW250044   9.790   0.402   9.170  0.2025 -0.9231 -0.8461
14972SOL     OW50045   6.032   0.930   3.807  0.4566 -0.4553  0.1997
14972SOL    HW150046   5.986   0.881   3.875 -0.1179  1.9561  1.6203
14972SOL    HW250047   6.025   0.876   3.729 -2.6253 -1.3121  1.0067
14973SOL     OW50048   2.579  11.126   3.355 -0.7418  0.1724  0.1189
14973SOL    HW150049   2.484  11.139   3.362 -1.0433 -0.1893 -2.5892
14973SOL    HW250050   2.588  11.054   3.293  1.3101  0.3016  0.2525
14974SOL     OW50051  10.417   7.886   2.628  0.8337  0.0845  0.3361
14974SOL    HW150052  10.428   7.825   2.700 -0.8715 -2.0666 -1.1569
14974SOL    HW250053  10.475   7.853   2.559  0.8122  0.8293 -0.0449
14975SOL     OW50054  11.220   1.239  11.139 -0.6497  0.0498  0.0017
14975SOL    HW150055  11.230   1.182  11.216  0.1909  0.8368  0.4917
14975SOL    HW250056  11.149   1.299  11.162 -0.1646  0.5121  0.3172
14976SOL     OW50057   0.430   9.233   9.133  0.0782  0.3226 -0.3033
14976SOL    HW150058   0.369   9.162   9.148  1.9687 -1.6865 -1.8467
14976SOL    HW250059   0.434   9.242   9.038  0.8035  1.6488 -0.1663
14977SOL     OW50060   1.337   6.577   2.601  0.1490  0.1987  0.3541
14977SOL    HW150061   1.307   6.593   2.511 -0.0737  1.9846  0.7226
14977SOL    HW250062   1.395   6.650   2.620  1.8948 -1.3162  0.9335
14978SOL     OW50063  10.275   2.669   8.251  0.4450  0.5630  0.0516
14978SOL    HW150064  10.288   2.591   8.197 -0.3528  0.1698  0.4185
14978SOL    HW250065  10.202   2.647   8.309  1.3809  0.9254  1.3926
14979SOL     OW50066   7.429   8.671   7.933  0.0971  0.0844 -0.3434
14979SOL    HW150067   7.501   8.696   7.875  0.9140 -1.7817 -0.1782
14979SOL    HW250068   7.369   8.746   7.931  2.5410  2.1003  0.3499
14980SOL     OW50069  11.133   8.098   0.460  0.0152 -0.2374 -0.0892
14980SOL    HW150070  11.191   8.035   0.503 -0.9793 -0.7306  0.5447
14980SOL    HW250071  11.107   8.157   0.530 -0.4706 -0.1813 -0.3196
14981SOL     OW50072   9.812   2.990  10.363  0.0534 -0.8627  0.3904
14981SOL    HW150073   9.782   2.986  10.454 -2.9910  0.0319 -0.5115
14981SOL    HW250074   9.834   3.081  10.348  0.8459 -1.0647  0.3300
14982SOL     OW50075   3.176  10.635  10.987  0.0045  0.0970 -0.4382
14982SOL    HW150076   3.207  10.545  10.978  0.6652  0.2187  0.6483
14982SOL    HW250077   3.187  10.656  11.079  2.3768  2.2004 -1.1457
14983SOL     OW50078   7.765   9.576   3.351 -0.2185 -0.9702  0.0281
14983SOL    HW150079   7.775   9.511   3.422  1.4659  0.5707  1.2303
14983SOL    HW250080   7.840   9.561   3.294 -0.9028 -1.3684 -0.7876
14984SOL     OW50081   9.873  10.856   0.038  0.5670 -0.3490 -0.2661
14984SOL    HW150082   9.846  10.771   0.004 -1.3649  1.0796 -2.4049
14984SOL    HW250083   9.909  10.836   0.125  0.3480 -3.3531 -0.8068
14985SOL     OW50084   4.667   4.856   2.824 -0.1771 -0.4065 -0.0654
14985SOL    HW150085   4.742   4.798   2.813  0.5535  0.4372  0.4186
14985SOL    HW250086   4.696   4.921   2.887 -1.0870  0.3331 -0.4002
14986SOL     OW50087  11.063   8.431   7.507 -0.2936  0.5368  0.1805
14986SOL    HW150088  11.090   8.344   7.476 -0.5410  0.1388  1.0634
14986SOL    HW250089  11.129   8.454   7.572 -0.9468  0.4365  0.8902
14987SOL     OW50090   8.411   0.036   6.786 -0.8838  0.3132  0.0157
14987SOL    HW150091   8.343   0.040   6.853  1.1189  1.1786  2.0872
14987SOL    HW250092   8.433   0.127   6.768  0.6531  0.0347  0.3792
14988SOL     OW50093   8.623   8.279  10.423  0.0171 -0.3651  0.5324
14988SOL    HW150094   8.588   8.196  10.456 -0.5677 -0.5187 -0.4413
14988SOL    HW250095   8.582   8.289  10.337  0.1909  0.8635  0.5875
14989SOL     OW50096   5.213   9.352   9.179  0.2752  0.0349  0.2421
14989SOL    HW150097   5.260   9.383   9.257 -1.0268  0.7791  0.7507
14989SOL    HW250098   5.135   9.308   9.214 -1.2210  1.8829 -0.6449
14990SOL     OW50099   5.360   4.764   7.613 -0.0149  0.2299 -0.0230
14990SOL    HW150100   5.309   4.795   7.538 -1.2122 -1.4868  0.0584
14990SOL    HW250101   5.379   4.844   7.663  0.6963  1.3853 -2.0549
14991SOL     OW50102   4.854  10.253   2.326 -0.2524 -0.3507 -0.8009
14991SOL    HW150103   4.943  10.254   2.292 -0.0132 -1.1099 -0.2065
14991SOL    HW250104   4.865  10.255   2.421 -0.9175  3.0524 -0.7318
14992SOL     OW50105   8.221  11.184  10.144  0.5596  0.9103  0.4649
14992SOL    HW150106   8.154  11.186  10.075 -0.6785  0.3761  1.6247
14992SOL    HW250107   8.270  11.265  10.132 -0.3123  1.3231 -0.3962
14993SOL     OW50108   7.782   4.245   2.418  0.6011  0.1020  0.5235
14993SOL    HW150109   7.781   4.225   2.512  1.4590 -2.2203  0.0741
14993SOL    HW250110   7.828   4.171   2.378 -0.5494  0.6128 -1.8414
14994SOL     OW50111  10.942   1.757   9.844 -0.4918 -0.2925 -0.1518
14994SOL    HW150112  10.964   1.849   9.857  1.0691 -0.9124  1.9266
14994SOL    HW250113  11.001   1.727   9.775 -0.2395 -0.0010 -0.0611
14995SOL     OW50114   6.962   8.302   8.595  0.3933 -0.2030  0.2362
14995SOL    HW150115   7.009   8.234   8.548  1.0163 -0.4647  1.2224
14995SOL    HW250116   7.026   8.338   8.657 -0.7149 -0.6515  1.6792
14996SOL     OW50117   4.795   9.716   7.040  0.8254 -0.3653 -0.1122
14996SOL    HW150118   4.751   9.782   7.092  0.9199  1.3426 -2.1335
14996SOL    HW250119   4.856   9.765   6.985 -0.3297 -1.9163 -2.9042
14997SOL     OW50120   4.342   1.416   5.909 -0.0066  0.3216 -0.0187
14997SOL    HW150121   4.360   1.495   5.960 -0.2580  0.3026  0.0989
14997SOL    HW250122   4.266   1.376   5.952 -0.8367  0.8213 -0.9977
14998SOL     OW50123   5.271   2.103   0.206 -0.0474  0.4753  0.1521
14998SOL    HW150124   5.314   2.026   0.169  0.7416 -0.0297  2.0361
14998SOL    HW250125   5.178   2.082   0.205  0.2793 -1.2410  2.1635
14999SOL     OW50126   0.605   4.321   1.436  0.5327 -0.3008 -0.0433
14999SOL    HW150127   0.687   4.326   1.387 -0.2636 -0.0943 -1.3857
14999SOL    HW250128   0.556   4.251   1.394 -0.9235  1.0893 -0.7269
15000SOL     OW50129  11.321   4.520   2.612  0.1598 -0.2151  0.2500
15000SOL    HW150130  11.236   4.492   2.578 -0.1278  1.4602 -0.4425
15000SOL    HW250131  11.302   4.599   2.662  1.4402  0.6822 -0.6735
15001SOL     OW50132   3.163  10.820  10.098  0.8568 -0.2587 -0.0999
15001SOL    HW150133   3.106  10.807  10.174 -0.5568  0.0533 -1.0832
15001SOL    HW250134   3.250  10.832  10.135  0.1092  0.3931  1.5012
15002SOL     OW50135   2.118   9.227   2.053 -0.1244 -0.2892 -0.0365
15002SOL    HW150136   2.075   9.186   1.978  0.9004 -2.5057  0.5468
15002SOL    HW250137   2.202   9.256   2.019  0.6809 -2.0371  0.4391
15003SOL     OW50138   5.788   8.482   9.563  0.0614 -0.0564 -0.1978
15003SOL    HW150139   5.882   8.462   9.556 -0.0175 -0.5253  0.0766
15003SOL    HW250140   5.778   8.564   9.515  0.9063  0.8543  1.1421
15004SOL     OW50141   0.153   6.285   6.021  0.4836  0.1064 -1.0682
15004SOL    HW150142   0.184   6.375   6.010  0.3597  0.0275 -2.1156
15004SOL    HW250143   0.160   6.268   6.115  2.4739  0.5066 -1.1197
15005SOL     OW50144   3.911   0.054   4.685 -0.2128  0.2553  0.1521
15005SOL    HW150145   3.966   0.053   4.607 -2.1060  1.7389 -1.2644
15005SOL    HW250146   3.934   0.135   4.730  0.5727 -0.3881  0.9200
15006SOL     OW50147   1.228   4.026   1.134  0.1478 -0.3487 -0.5648
15006SOL    HW150148   1.317   4.001   1.107 -0.2122  0.0712 -2.1637
15006SOL    HW250149   1.242   4.084   1.209  1.2341 -0.2177 -0.8519
15007SOL     OW50150  10.493   8.244   8.714  0.0638  0.2656  0.4318
15007SOL    HW150151  10.553   8.170   8.719 -0.6760 -0.4029 -0.5678
15007SOL    HW250152  10.455   8.249   8.802 -0.0532 -0.6810  0.4405
15008SOL     OW50153   1.454   7.773   0.261 -0.3729 -0.1842 -0.2160
15008SOL    HW150154   1.440   7.794   0.169 -1.2105 -2.0535 -0.5374
15008SOL    HW250155   1.539   7.811   0.282  0.5917 -1.1631 -2.2140
15009SOL     OW50156   1.817  10.829   2.134 -0.0815 -0.8908  0.5599
15009SOL    HW150157   1.835  10.738   2.111  1.9862 -0.4438  0.2852
15009SOL    HW250158   1.888  10.853   2.195 -1.3063  0.1635  1.6006
15010SOL     OW50159   5.514   8.713   4.446 -0.3522  0.3833 -0.8575
15010SOL    HW150160   5.479   8.625   4.439 -2.7362  1.2991 -0.8060
15010SOL    HW250161   5.504   8.750   4.358 -0.7929  1.1147 -0.5049
15011SOL     OW50162   8.553   2.569   3.546 -0.1052  0.1155 -0.1748
15011SOL    HW150163   8.596   2.628   3.485  0.3601 -0.5345 -0.4711
15011SOL    HW250164   8.490   2.625   3.592  0.0433  0.7546 -0.7390
15012SOL     OW50165   6.996   2.775   5.030  0.4124 -0.3199 -0.5550
15012SOL    HW150166   7.048   2.785   4.951 -0.8292 -3.2232 -1.8263
15012SOL    HW250167   6.907   2.757   4.998 -0.6128  0.8813  1.5161
15013SOL     OW50168   3.401   8.584  10.050 -0.0482  0.1116  0.2128
15013SOL    HW150169   3.377   8.627   9.968  0.6770  0.4781  0.1824
15013SOL    HW250170   3.327   8.526  10.070 -0.0879 -0.2222 -0.8630
15014SOL     OW50171   9.804   7.715   3.715  1.0586  0.4314 -0.8707
15014SOL    HW150172   9.854   7.776   3.661 -1.2968  3.5743  0.3077
15014SOL    HW250173   9.724   7.699   3.664  1.4473 -1.3127 -0.9478
15015SOL     OW50174  10.574   0.212   5.420  0.1920 -0.6325 -0.2916
15015SOL    HW150175  10.663   0.227   5.452 -0.5114 -0.0088  1.4322
15015SOL    HW250176  10.526   0.181   5.496 -1.5357  0.9015 -0.7209
15016SOL     OW50177   2.581  10.215   7.761 -0.9106  0.3178 -0.1437
15016SOL    HW150178   2.487  10.205   7.778 -0.7398  0.7867  1.1307
15016SOL    HW250179   2.608  10.288   7.818  0.8952 -1.9773  2.0684
15017SOL     OW50180   8.276  10.791   5.352 -0.2698 -0.0574 -0.0036
15017SOL    HW150181   8.329  10.716   5.328 -0.7930 -0.9067  1.4678
15017SOL    HW250182   8.186  10.765   5.329 -0.2466  0.8189 -1.1546
15018SOL     OW50183   0.580   3.769   0.835  0.3390 -0.3280  0.3351
15018SOL    HW150184   0.662   3.723   0.814  0.7636 -0.1304  1.5023
15018SOL    HW250185   0.603   3.826   0.909 -0.8111 -0.1287  0.5506
15019SOL     OW50186   2.796   9.884   6.138  0.2504  0.1263 -0.0739
15019SOL    HW150187   2.768   9.974   6.124 -0.5856 -0.5071 -2.7539
15019SOL    HW250188   2.737   9.831   6.084  1.8811 -1.8674  0.0083
15020SOL     OW50189   4.019  10.834   0.699  0.0832  0.5691  0.3224
15020SOL    HW150190   4.013  10.892   0.623 -0.3264 -0.1484 -0.2099
15020SOL    HW250191   4.102  10.856   0.740  0.7697  0.2997 -0.8932
15021SOL     OW50192  10.822   6.624   7.508  0.2778 -0.4316 -0.0415
15021SOL    HW150193  10.880   6.686   7.464 -0.6124  0.3086 -0.1717
15021SOL    HW250194  10.864   6.610   7.594  1.0898 -0.5455 -0.4475
15022SOL     OW50195   8.915   7.233   2.598  0.4152 -0.3628  0.2253
15022SOL    HW150196   8.960   7.310   2.631  1.2739 -0.4507 -0.7540
15022SOL    HW250197   8.984   7.170   2.580 -0.2525 -1.2442  0.6700
15023SOL     OW50198  10.735   5.050   6.195 -0.3729  0.6645 -0.4318
15023SOL    HW150199  10.768   5.011   6.275  0.6751  0.5883 -0.8896
15023SOL    HW250200  10.763   5.142   6.198 -1.9091  1.1389  0.1386
15024SOL     OW50201   5.080   7.263  11.175  0.3986  0.5116 -0.1239
15024SOL    HW150202   5.045   7.280  11.088 -1.5084 -2.0114  0.0950
15024SOL    HW250203   5.174   7.250  11.161  0.1072  0.1345 -1.8264
15025SOL     OW50204   0.319   0.912   7.560  0.6229 -0.1205  0.1150
15025SOL    HW150205   0.290   0.835   7.608  0.0951 -0.3200 -0.5089
15025SOL    HW250206   0.279   0.902   7.473  2.1961 -0.1615 -0.6167
15026SOL     OW50207   0.706   8.922   9.166 -0.1449 -0.1601 -0.2332
15026SOL    HW150208   0.640   8.860   9.135 -0.7401 -0.3682  1.3516
15026SOL    HW250209   0.779   8.913   9.105 -1.0010 -0.9949 -1.1595
15027SOL     OW50210   4.085   9.758   2.383 -0.4701  0.2890 -0.1053
15027SOL    HW150211   4.140   9.798   2.316 -1.9797  0.3402 -1.3359
15027SOL    HW250212   4.002   9.804   2.376 -0.7714  0.0369  1.5703
15028SOL     OW50213   9.569   3.200   2.715 -0.1700  0.5992 -0.3243
15028SOL    HW150214   9.538   3.110   2.703 -0.1299  0.5389  0.0164
15028SOL    HW250215   9.573   3.236   2.626 -2.4532  1.0261 -0.2719
15029SOL     OW50216  11.231   3.678   6.938 -0.1167 -0.5482 -0.2988
15029SOL    HW150217  11.155   3.644   6.890 -0.3300 -0.1459 -0.2516
15029SOL    HW250218  11.300   3.686   6.872 -0.8956  1.5889 -0.9245
15030SOL     OW50219   2.740   5.494   8.989 -0.1086  0.3153  0.3444
15030SOL    HW150220   2.725   5.588   8.985 -0.6381  0.3503  2.4321
15030SOL    HW250221   2.681   5.457   8.924 -0.6387  1.3466  0.2390
15031SOL     OW50222   0.663   7.983   5.866 -0.4996 -0.6736  0.5650
15031SOL    HW150223   0.595   7.973   5.932 -1.3147  0.2531 -0.1201
15031SOL    HW250224   0.740   8.012   5.915 -1.0428 -0.1817  1.1376
15032SOL     OW50225   1.134   7.938  10.292  0.8893  0.2218 -0.0187
15032SOL    HW150226   1.190   7.864  10.268 -0.7932 -0.8978 -0.6044
15032SOL    HW250227   1.094   7.965  10.210 -1.4236 -0.7091  0.7559
15033SOL     OW50228   3.176   3.657   3.113 -0.5808  0.1292  0.0024
15033SOL    HW150229   3.142   3.730   3.061  0.6997  0.3045 -0.6044
15033SOL    HW250230   3.245   3.696   3.166 -1.0017 -0.3147  0.8768
15034SOL     OW50231   7.103   7.147   7.873 -0.3171  0.4826 -0.4498
15034SOL    HW150232   7.110   7.242   7.870  0.1803  0.4751  0.3972
15034SOL    HW250233   7.027   7.127   7.819 -0.5503  1.3734 -0.4551
15035SOL     OW50234   7.773  10.127   5.087 -0.2440  0.2900  0.4496
15035SOL    HW150235   7.725  10.055   5.127 -1.3271  1.6876  1.6829
15035SOL    HW250236   7.821  10.086   5.014 -1.2192 -1.5763  0.8372
15036SOL     OW50237   3.453   6.877   3.369  0.6428 -0.2054  0.0117
15036SOL    HW150238   3.365   6.903   3.342  0.0027 -1.1259  1.1625
15036SOL    HW250239   3.507   6.955   3.353 -0.8949  1.2423  1.7108
15037SOL     OW50240   0.585   5.099   2.740  0.0891  0.2338  0.4980
15037SOL    HW150241   0.580   5.004   2.741  0.6928  0.1796 -0.7272
15037SOL    HW250242   0.667   5.120   2.785  0.8898  0.0797 -0.8521
15038SOL     OW50243   9.543   2.256   9.710  0.3786  0.1413  0.7151
15038SOL    HW150244   9.542   2.161   9.722  0.8682  0.1349  0.6973
15038SOL    HW250245   9.588   2.270   9.627 -0.4582  0.3463  0.2950
15039SOL     OW50246   7.703   2.539   2.204 -0.0885  0.4049  0.2398
15039SOL    HW150247   7.758   2.525   2.281  0.4289 -0.3437 -0.2521
15039SOL    HW250248   7.614   2.543   2.238  0.1316  0.0027  0.8756
15040SOL     OW50249   3.627   0.453   9.401 -0.6107 -0.1042  0.1059
15040SOL    HW150250   3.653   0.428   9.312  1.4151  0.0467  0.6259
15040SOL    HW250251   3.577   0.378   9.433 -1.4383 -0.1209 -1.1914
15041SOL     OW50252  11.096   0.430   3.739 -0.2229 -0.2164 -0.3973
15041SOL    HW150253  11.048   0.507   3.707  0.2405 -0.2318 -1.1450
15041SOL    HW250254  11.041   0.356   3.713 -0.8236 -0.1315  0.5942
15042SOL     OW50255   9.825   1.546   7.853 -0.1417 -0.1347 -0.0745
15042SOL    HW150256   9.740   1.518   7.820  0.5754 -1.6777 -0.7096
15042SOL    HW250257   9.871   1.463   7.872  0.5821  0.6845  1.8678
15043SOL     OW50258   8.430   4.847  11.113 -0.1222 -0.1918 -0.1483
15043SOL    HW150259   8.424   4.796  11.194 -1.2466  0.0742 -0.0507
15043SOL    HW250260   8.478   4.791  11.052  2.9722  0.5971  1.4645
15044SOL     OW50261   1.176   2.361   4.036 -0.1265 -0.3973 -0.0541
15044SOL    HW150262   1.205   2.447   4.006 -1.0320 -0.0863 -0.0483
15044SOL    HW250263   1.243   2.333   4.099  0.8758 -0.3017 -1.0719
15045SOL     OW50264  10.284   9.622   4.868  0.0922  0.4237  0.4248
15045SOL    HW150265  10.203   9.594   4.912 -0.1415  0.5931  0.1112
15045SOL    HW250266  10.279   9.581   4.782  0.7357 -0.2221  0.6984
15046SOL     OW50267   0.863   5.750   9.348 -0.1899 -0.1118 -0.7737
15046SOL    HW150268   0.921   5.723   9.277  0.8424  0.4419 -0.1504
15046SOL    HW250269   0.868   5.845   9.348  0.3146 -0.1222  0.4376
15047SOL     OW50270   4.746   3.074   7.176  0.2083 -0.5467  0.2576
15047SOL    HW150271   4.697   3.119   7.108 -0.2213  0.4677  1.2231
15047SOL    HW250272   4.805   3.141   7.211 -0.2610 -0.7862  1.5345
15048SOL     OW50273  10.059   0.624   0.660  0.1132  0.0589 -0.1400
15048SOL    HW150274  10.016   0.547   0.697 -0.2779 -1.0296 -2.8161
15048SOL    HW250275  10.114   0.657   0.732 -0.6365 -1.9804  1.4174
15049SOL     OW50276  10.286   4.944   8.875  0.0656 -0.0873 -0.3104
15049SOL    HW150277  10.277   4.859   8.918 -0.6948  0.2336  0.1627
15049SOL    HW250278  10.257   5.008   8.940 -1.1436  0.4030 -1.3121
15050SOL     OW50279   7.164   8.191  10.056  0.0679  0.7412  0.3250
15050SOL    HW150280   7.111   8.115  10.029 -0.3050  1.0833  0.0942
15050SOL    HW250281   7.103   8.247  10.103 -0.1606  1.8970 -1.3144
15051SOL     OW50282   2.796   1.360   6.696  0.4847 -0.0635 -0.1625
15051SOL    HW150283   2.716   1.321   6.661  1.8270 -1.7090 -1.5365
15051SOL    HW250284   2.815   1.311   6.776  0.8407 -0.5811 -0.5627
15052SOL     OW50285   8.863   7.719   4.636 -0.0946 -0.1008  0.1973
15052SOL    HW150286   8.906   7.751   4.557 -1.5195 -0.0952 -0.5777
15052SOL    HW250287   8.929   7.662   4.677  0.7083  0.0277 -0.8887
15053SOL     OW50288   5.518   2.194   8.605  0.1309  0.2143 -0.2106
15053SOL    HW150289   5.607   2.160   8.600 -0.2184 -0.6507 -0.7241
15053SOL    HW250290   5.495   2.190   8.698 -0.1242 -1.5671 -0.3248
15054SOL     OW50291   4.922   9.379  10.204  0.5215  0.3410 -0.1037
15054SOL    HW150292   4.938   9.463  10.247  0.3428 -0.5830  1.7927
15054SOL    HW250293   5.001   9.328  10.219  0.0445 -0.3722  0.0443
15055SOL     OW50294   8.266   5.782   0.147  0.1748 -0.1019 -0.0046
15055SOL    HW150295   8.361   5.783   0.139  0.1335 -2.4218 -1.3229
15055SOL    HW250296   8.234   5.772   0.057 -1.3825  1.7348  0.3012
15056SOL     OW50297   3.746   5.081   5.053  0.2478  0.0634  0.2780
15056SOL    HW150298   3.677   5.014   5.059 -0.6870  0.8375 -1.6136
15056SOL    HW250299   3.823   5.034   5.021 -0.7240  0.0610 -2.1694
15057SOL     OW50300   6.671  10.983  10.452  0.2207 -0.4142  0.2051
15057SOL    HW150301   6.740  10.918  10.464  3.2709  2.6677  0.3404
15057SOL    HW250302   6.638  10.999  10.541 -1.9399 -3.1356 -0.0612
15058SOL     OW50303   3.513   5.536   8.821 -0.3358  0.7659  0.0395
15058SOL    HW150304   3.525   5.630   8.808  0.9842  0.9122  2.0763
15058SOL    HW250305   3.594   5.507   8.863 -1.2154 -1.0620  0.5152
15059SOL     OW50306   2.102   9.723   5.309 -0.3962 -0.3039  0.6739
15059SOL    HW150307   2.019   9.687   5.339  0.6743 -2.6521  0.9078
15059SOL    HW250308   2.157   9.724   5.387  0.4018 -0.5404  0.1131
15060SOL     OW50309   2.897   9.791   3.636 -0.8756 -0.1227 -0.0445
15060SOL    HW150310   2.986   9.790   3.601 -0.1960 -0.6428  1.6405
15060SOL    HW250311   2.844   9.827   3.566  0.9801  2.1327 -0.3514
15061SOL     OW50312   2.633   7.526  10.237  0.2125  0.9930  0.2503
15061SOL    HW150313   2.724   7.509  10.212 -0.0680  0.4544 -0.4390
15061SOL    HW250314   2.583   7.504  10.159 -0.6490 -0.2650  1.1358
15062SOL     OW50315   3.118  11.042   2.315  0.1037 -0.2252 -0.6061
15062SOL    HW150316   3.169  11.104   2.368 -0.9429 -0.1725  0.3594
15062SOL    HW250317   3.041  11.091   2.287  0.4646 -0.3731 -1.8814
15063SOL     OW50318   4.353   1.267   9.405 -0.3108  0.9899  0.2213
15063SOL    HW150319   4.377   1.294   9.493 -0.9834  0.2822  0.6275
15063SOL    HW250320   4.278   1.208   9.417 -0.0515  0.4395 -0.7833
15064SOL     OW50321   7.235   0.798   6.725 -0.2867  0.0595  0.2595
15064SOL    HW150322   7.249   0.723   6.667 -0.7930  1.8240 -2.2776
15064SOL    HW250323   7.177   0.765   6.793 -0.9980 -1.7026 -1.1496
15065SOL     OW50324   9.702   7.092   1.378 -0.0737 -0.1751  0.2990
15065SOL    HW150325   9.706   7.019   1.439  2.7781 -0.3148  0.0364
15065SOL    HW250326   9.743   7.059   1.298  1.1220  1.6153  0.1268
15066SOL     OW50327   8.943   6.823   8.769 -0.5627 -0.5072  0.3387
15066SOL    HW150328   8.969   6.774   8.847 -0.9505  1.3220  1.6475
15066SOL    HW250329   9.025   6.841   8.723 -0.3255 -1.4872  0.3575
15067SOL     OW50330  11.304   9.907   0.710  0.3637 -0.9320  0.1206
15067SOL    HW150331  11.308   9.956   0.628 -1.5186 -0.1382  0.4809
15067SOL    HW250332  11.395   9.897   0.737  0.8051  1.8225 -0.2683
15068SOL     OW50333   5.349   0.475   6.721  0.6711  0.4668  0.8039
15068SOL    HW150334   5.376   0.454   6.632  0.4783  1.4395  0.5126
15068SOL    HW250335   5.288   0.406   6.745 -0.5403  1.0958 -0.4179
15069SOL     OW50336   8.468   7.253   6.308  0.0100  0.3880 -0.1702
15069SOL    HW150337   8.525   7.326   6.334  1.0855 -0.9020  1.1732
15069SOL    HW250338   8.518   7.207   6.241  0.3219 -0.4638  0.6541
15070SOL     OW50339   2.643   5.110  10.590 -0.6273 -0.5322 -0.5382
15070SOL    HW150340   2.634   5.205  10.581 -2.5762 -0.6552 -0.1567
15070SOL    HW250341   2.595   5.075  10.516 -0.1910 -1.2290 -0.4903
15071SOL     OW50342   9.802   4.978   3.695 -0.4066  0.4949  0.1490
15071SOL    HW150343   9.737   5.035   3.654 -1.3280 -0.0373  0.8590
15071SOL    HW250344   9.772   4.968   3.785  0.1071 -0.5738  0.2103
15072SOL     OW50345   8.275   1.102   5.037  0.4645  0.6863  0.1429
15072SOL    HW150346   8.193   1.147   5.015 -1.3074 -3.0963 -1.5677
15072SOL    HW250347   8.337   1.131   4.971 -0.7733  0.3510 -1.2039
15073SOL     OW50348  11.330   7.757   1.920 -0.1160  0.3134  0.5469
15073SOL    HW150349  11.325   7.822   1.851 -1.5131 -1.9205 -1.5286
15073SOL    HW250350  11.387   7.797   1.987 -0.4148  3.3373 -0.9288
15074SOL     OW50351   9.716   0.734   4.918  0.3994 -0.0353  0.3501
15074SOL    HW150352   9.807   0.735   4.888  0.5414 -1.2233  0.7369
15074SOL    HW250353   9.703   0.647   4.954 -1.8283 -0.9814 -2.5608
15075SOL     OW50354   4.437   1.574   2.934 -0.7419  0.1483 -0.2697
15075SOL    HW150355   4.395   1.510   2.992 -0.4141 -0.7023 -0.9706
15075SOL    HW250356   4.500   1.619   2.990 -2.3427  1.2234  0.7212
15076SOL     OW50357   4.498  11.236   0.745  0.2716  0.1761  0.0732
15076SOL    HW150358   4.570  11.271   0.798 -0.6921 -0.6955  2.0004
15076SOL    HW250359   4.539  11.171   0.688  0.9550 -0.7617  1.5933
15077SOL     OW50360   2.837   8.613   4.924 -0.1946 -0.0802 -0.4909
15077SOL    HW150361   2.887   8.555   4.866  0.3042  1.3588 -1.5362
15077SOL    HW250362   2.903   8.647   4.985 -0.3347 -0.0242 -0.3724
15078SOL     OW50363   4.841  10.085   8.467  0.2411  0.2212  0.4265
15078SOL    HW150364   4.933  10.073   8.491  0.2712  0.8821  0.6538
15078SOL    HW250365   4.837  10.061   8.374  0.0711 -2.6585  1.1027
15079SOL     OW50366   0.882  10.406   8.272 -0.2808  0.2859  0.2602
15079SOL    HW150367   0.905  10.336   8.212 -0.4854 -1.7104  2.4487
15079SOL    HW250368   0.922  10.485   8.234  0.9316 -1.2018 -1.6072
15080SOL     OW50369   4.899   6.560  10.792  0.1863 -0.3765 -0.2799
15080SOL    HW150370   4.828   6.518  10.742 -0.2024 -0.4547  0.3307
15080SOL    HW250371   4.872   6.652  10.798 -0.0329 -0.4780  0.2554
15081SOL     OW50372   6.454   8.273  10.813  0.3537  0.5846  0.0359
15081SOL    HW150373   6.456   8.355  10.862  1.6609  1.5502 -1.6037
15081SOL    HW250374   6.514   8.286  10.740 -0.6892 -1.2323 -1.2155
15082SOL     OW50375  10.867   2.411   3.089 -0.3040 -0.0822  0.1402
15082SOL    HW150376  10.887   2.350   3.018  0.0708  0.6706 -0.4122
15082SOL    HW250377  10.786   2.378   3.127 -1.8062  0.8229 -2.1529
15083SOL     OW50378   2.524  10.303  10.234 -0.0902  0.1230 -0.3827
15083SOL    HW150379   2.539  10.213  10.205  0.5811  0.1911 -0.2359
15083SOL    HW250380   2.548  10.302  10.327 -0.6524  0.3112 -0.2311
15084SOL     OW50381   9.870   5.887  10.118  0.2160 -0.5447 -0.1211
15084SOL    HW150382   9.882   5.852  10.029  0.7752  2.7993 -1.4417
15084SOL    HW250383   9.775   5.894  10.128  0.1333 -1.4207 -0.2408
15085SOL     OW50384   4.656   8.163  11.322 -0.3086 -0.4430  0.1757
15085SOL    HW150385   4.619   8.079  11.347 -1.0260 -0.5441 -1.1886
15085SOL    HW250386   4.742   8.165  11.364 -1.2148 -0.8687  2.0905
15086SOL     OW50387   5.347   2.004   6.007  0.0013 -0.1162 -0.1721
15086SOL    HW150388   5.262   2.030   5.973 -0.4553 -1.9263 -0.4718
15086SOL    HW250389   5.327   1.947   6.081  0.9734  0.8650  0.8593
15087SOL     OW50390   8.440   9.721   9.900  0.4292  0.1009 -0.6842
15087SOL    HW150391   8.505   9.787   9.923  0.2498 -0.2297  0.8677
15087SOL    HW250392   8.441   9.718   9.805  1.7467  1.0344 -0.7159
15088SOL     OW50393   5.649   7.750  11.091 -0.1842 -0.6910  0.2906
15088SOL    HW150394   5.653   7.668  11.041  0.2876 -0.9208  0.7069
15088SOL    HW250395   5.652   7.818  11.024  0.6471 -0.9975  0.0062
15089SOL     OW50396   3.813   1.660   1.989  1.0721  0.3423  0.0355
15089SOL    HW150397   3.719   1.641   1.986  1.3740 -0.9703 -1.8869
15089SOL    HW250398   3.818   1.748   2.027 -0.9849  0.8451 -0.7897
15090SOL     OW50399   6.897   9.427   1.125 -0.0394 -0.2229 -0.0816
15090SOL    HW150400   6.959   9.367   1.083  0.6555 -0.1368  0.8380
15090SOL    HW250401   6.908   9.412   1.218  0.2789  1.5031  0.1670
15091SOL     OW50402   5.517   2.693   9.150 -0.4555  0.6421  0.2674
15091SOL    HW150403   5.542   2.629   9.216 -0.4356  0.0887 -0.2679
15091SOL    HW250404   5.525   2.778   9.194  0.0472  0.3132  0.8143
15092SOL     OW50405   0.197   6.341   6.992  0.2753 -0.2613 -0.3495
15092SOL    HW150406   0.139   6.267   7.010 -1.7778  0.8987 -1.9579
15092SOL    HW250407   0.157   6.414   7.038  2.9152 -0.3420  2.1732
15093SOL     OW50408   7.722   2.036   5.657 -0.3912 -0.2929  0.2756
15093SOL    HW150409   7.651   2.093   5.628  0.0121  1.3287  2.3485
15093SOL    HW250410   7.767   2.087   5.725  2.3775 -1.5146 -0.5842
15094SOL     OW50411   5.874   5.257   4.073 -0.0496 -0.1812 -0.0086
15094SOL    HW150412   5.942   5.264   4.139  0.6105 -1.7640 -0.4984
15094SOL    HW250413   5.795   5.235   4.122  0.0827  0.2386  0.4036
15095SOL     OW50414  10.186  10.631   5.587 -0.6149 -0.1859  0.4563
15095SOL    HW150415  10.246  10.701   5.562 -1.7159  0.6289  0.0585
15095SOL    HW250416  10.172  10.643   5.681 -0.6140 -0.0163  0.4342
15096SOL     OW50417   6.113   6.425   0.496  0.2236  0.1964 -0.0162
15096SOL    HW150418   6.126   6.495   0.433  1.0319 -0.2960 -0.4028
15096SOL    HW250419   6.022   6.398   0.483  0.7423 -0.7420 -1.8510
15097SOL     OW50420   3.719   8.652   9.125  0.5038  0.2858 -0.6061
15097SOL    HW150421   3.734   8.592   9.052 -0.8441 -2.9676  1.6870
15097SOL    HW250422   3.802   8.655   9.172  0.4198 -0.2490 -0.4201
15098SOL     OW50423  10.329   4.674   8.943 -0.2386  0.1809 -0.0652
15098SOL    HW150424  10.253   4.627   8.977 -0.3217 -0.3768 -0.9976
15098SOL    HW250425  10.403   4.618   8.964  0.0520  1.2360  1.8032
15099SOL     OW50426   8.897   4.220  10.205  0.1940 -0.2151  0.0507
15099SOL    HW150427   8.948   4.186  10.279  0.3793  1.2457  0.6021
15099SOL    HW250428   8.933   4.173  10.129  1.1976 -0.4593  0.6535
15100SOL     OW50429  10.830   5.573   4.885  0.2203 -0.2594 -0.0229
15100SOL    HW150430  10.920   5.592   4.912 -0.2844 -1.5312  2.7353
15100SOL    HW250431  10.787   5.659   4.885  0.7337  0.0189  1.4838
15101SOL     OW50432   6.544   9.506   5.840 -0.5380  0.3033 -0.1862
15101SOL    HW150433   6.606   9.564   5.796 -1.7093  1.4759 -0.3135
15101SOL    HW250434   6.557   9.522   5.934 -0.2091  0.0806 -0.1939
15102SOL     OW50435   3.502   3.999   5.291  0.1967 -0.5913 -0.5693
15102SOL    HW150436   3.595   4.008   5.270  0.0147  1.1651 -0.6433
15102SOL    HW250437   3.467   4.088   5.287 -0.3599 -0.4015  4.7980
15103SOL     OW50438   4.866  10.168   1.713  0.0818 -0.2717 -0.0573
15103SOL    HW150439   4.962  10.171   1.714  0.1445 -2.0945  1.1844
15103SOL    HW250440   4.841  10.226   1.641  2.0660  1.2733  0.4628
15104SOL     OW50441   7.160   0.323   4.006  0.4264  0.4169  0.0123
15104SOL    HW150442   7.183   0.388   4.072 -2.6568  0.3248  1.2664
15104SOL    HW250443   7.116   0.253   4.055 -1.6319  0.1982 -2.0270
15105SOL     OW50444   1.964   5.229   3.155  0.8241  0.4397 -0.4333
15105SOL    HW150445   2.022   5.255   3.227  0.3724  1.9130 -0.5827
15105SOL    HW250446   1.937   5.311   3.115 -2.2584 -0.1422  0.3352
15106SOL     OW50447   2.970   2.609   4.047  0.1223  0.2307  0.2250
15106SOL    HW150448   2.989   2.631   4.138  1.1800  0.7801 -0.1104
15106SOL    HW250449   3.049   2.563   4.017 -1.0762 -1.8690  0.2017
15107SOL     OW50450   2.321   1.002  10.203  0.7750 -0.1679 -0.1682
15107SOL    HW150451   2.365   1.060  10.141 -1.2391 -0.4584 -1.9359
15107SOL    HW250452   2.228   1.024  10.195  0.2709 -1.6571  1.2358
15108SOL     OW50453   6.531   5.988   9.646  0.0208 -0.5518  0.2253
15108SOL    HW150454   6.524   6.062   9.707 -0.0920 -0.1865 -0.2242
15108SOL    HW250455   6.606   5.938   9.678  1.0206  0.5588 -0.3217
15109SOL     OW50456   3.958   3.339   9.229  0.2084 -0.0460 -0.6342
15109SOL    HW150457   3.955   3.355   9.135 -1.6045 -1.6337 -0.8773
15109SOL    HW250458   4.033   3.281   9.241  1.1429  1.0715 -0.9258
15110SOL     OW50459   7.722   6.557   2.040  0.5715  0.4474 -0.2165
15110SOL    HW150460   7.801   6.563   1.987 -0.0090 -0.3428 -1.1743
15110SOL    HW250461   7.740   6.487   2.103  1.6776  2.1051  1.3756
15111SOL     OW50462   6.973   0.509   2.420  0.5177 -0.3706 -0.0581
15111SOL    HW150463   6.973   0.604   2.420  0.3928 -0.3706 -0.2616
15111SOL    HW250464   6.908   0.485   2.487  1.1847 -0.3150  0.6187
15112SOL     OW50465   9.377   9.145  10.507  0.4486  0.8180  0.1909
15112SOL    HW150466   9.469   9.171  10.511  1.0768 -1.0234 -1.3891
15112SOL    HW250467   9.377   9.054  10.535 -1.0436  1.0652  1.0423
15113SOL     OW50468   3.575   6.029   3.978  0.6361  0.6915 -0.7427
15113SOL    HW150469   3.551   6.023   4.071  0.0088 -0.8166 -0.9902
15113SOL    HW250470   3.600   6.121   3.966 -1.1996  1.3875  0.4681
15114SOL     OW50471   7.186   1.907   0.357  0.1087  0.1527 -0.0339
15114SOL    HW150472   7.188   1.921   0.451 -1.4335 -2.9559  0.5412
15114SOL    HW250473   7.275   1.878   0.335  0.4237  0.7165  0.4809
15115SOL     OW50474   7.846   9.744   4.729 -0.1508 -0.0450 -0.0012
15115SOL    HW150475   7.881   9.701   4.808 -0.2460  1.1081  0.6696
15115SOL    HW250476   7.759   9.705   4.718 -0.9674  1.2393  1.6360
15116SOL     OW50477  10.739   1.643   5.678  0.4814 -0.6053  0.1791
15116SOL    HW150478  10.777   1.674   5.595  3.5407 -1.2204  1.2956
15116SOL    HW250479  10.783   1.696   5.745  1.0861 -2.9582  1.6796
15117SOL     OW50480   6.131   3.242   1.404 -0.0434 -0.1655 -0.5155
15117SOL    HW150481   6.161   3.238   1.313 -0.4333 -2.0675 -0.5914
15117SOL    HW250482   6.211   3.257   1.454  0.3993 -0.6822 -1.0591
15118SOL     OW50483   0.926   1.092   0.541  0.3069 -0.2571  0.0475
15118SOL    HW150484   0.940   1.024   0.474  1.0909 -0.0772  0.0209
15118SOL    HW250485   0.864   1.052   0.603 -0.3360 -0.4686 -0.7217
15119SOL     OW50486  10.401   1.334   9.267 -0.2130  0.2007  0.5932
15119SOL    HW150487  10.410   1.425   9.296  1.3130  0.3325 -0.2261
15119SOL    HW250488  10.490   1.307   9.245 -0.7432 -1.2831  0.1960
15120SOL     OW50489  10.755  10.899  10.126  0.1178 -0.2217 -0.4143
15120SOL    HW150490  10.770  10.945  10.043 -0.9030 -0.2896 -0.6457
15120SOL    HW250491  10.752  10.806  10.102  2.2722 -0.4513  0.0621
15121SOL     OW50492   4.332   2.351   1.874 -0.1948  0.1547  0.0636
15121SOL    HW150493   4.365   2.323   1.959  0.4239  2.1016  0.5073
15121SOL    HW250494   4.331   2.272   1.820 -0.0765 -0.9877  1.7107
15122SOL     OW50495   7.398   1.192   3.599  0.3142  0.1790 -0.0847
15122SOL    HW150496   7.457   1.245   3.653 -1.8942  0.6280  1.9747
15122SOL    HW250497   7.427   1.102   3.611 -0.2567  0.2580  2.0611
15123SOL     OW50498  10.564   8.974   5.533  0.0197  0.3579 -0.0492
15123SOL    HW150499  10.592   9.019   5.454  0.3503  1.5224  0.7075
15123SOL    HW250500  10.632   8.910   5.551  1.6637  2.3767  1.1372
15124SOL     OW50501   8.141   0.649   8.404 -0.2091 -0.0316  0.3175
15124SOL    HW150502   8.062   0.637   8.352  1.3941 -1.2900 -1.9143
15124SOL    HW250503   8.207   0.678   8.341  1.0858  1.2099  2.1829
15125SOL     OW50504   7.891   6.784   7.881  0.2717  0.7632 -0.4639
15125SOL    HW150505   7.816   6.759   7.935  0.3371 -0.1343 -0.7921
15125SOL    HW250506   7.966   6.776   7.940  0.5047 -1.4593 -1.0277
15126SOL     OW50507   2.450   6.394  10.341  0.3617  0.3679 -0.7082
15126SOL    HW150508   2.430   6.333  10.270 -1.8557  1.2703 -0.9130
15126SOL    HW250509   2.424   6.346  10.420  0.0598  0.4561 -0.7509
15127SOL     OW50510   2.956   5.689   7.237  0.0023  0.6134 -0.3667
15127SOL    HW150511   3.022   5.631   7.197 -1.4337 -1.5166  0.2431
15127SOL    HW250512   2.990   5.707   7.325 -0.2195 -0.5333 -0.0292
15128SOL     OW50513   6.528  10.228   4.333  0.2562  0.0262  0.5524
15128SOL    HW150514   6.551  10.261   4.246  0.1348  0.3945  0.6569
15128SOL    HW250515   6.574  10.286   4.394  1.3827 -1.0188  0.7228
15129SOL     OW50516   2.699   2.419  10.048  0.3860 -1.0054  0.3574
15129SOL    HW150517   2.679   2.441   9.957 -0.0296  0.5344  0.8069
15129SOL    HW250518   2.792   2.440  10.058  0.1977 -0.2287  0.5449
15130SOL     OW50519   8.842  10.954  10.168 -0.6534  0.4452  0.2319
15130SOL    HW150520   8.774  10.938  10.103 -0.6950  0.3826  0.2896
15130SOL    HW250521   8.910  10.890  10.149 -0.1026  1.2502 -0.5298
15131SOL     OW50522   1.488   1.506   8.721 -0.4528  0.7026 -0.3240
15131SOL    HW150523   1.460   1.584   8.769  0.5837  1.0212 -0.2346
15131SOL    HW250524   1.582   1.518   8.707  0.1579 -1.5489  1.5798
15132SOL     OW50525   9.472   0.020  11.290 -0.4191 -0.1467  0.1591
15132SOL    HW150526   9.397   0.069  11.254 -1.5583 -2.4216 -0.6717
15132SOL    HW250527   9.509   0.078  11.356 -3.3968  0.7339  1.1323
15133SOL     OW50528   1.419   6.693   1.331  0.0420 -0.1175  0.1933
15133SOL    HW150529   1.458   6.611   1.360 -2.6074 -0.4814  2.9572
15133SOL    HW250530   1.493   6.743   1.295  1.8064 -3.3621 -0.9065
15134SOL     OW50531   3.247   5.050  10.983  0.1505 -0.2817 -0.0472
15134SOL    HW150532   3.267   4.963  10.948 -0.4424 -0.5124  0.1726
15134SOL    HW250533   3.303   5.058  11.060  1.4052  0.2000 -0.9929
15135SOL     OW50534   2.196  10.610   7.794  0.4218 -0.0596 -0.7364
15135SOL    HW150535   2.222  10.699   7.818  1.0304  0.1667 -2.1839
15135SOL    HW250536   2.112  10.597   7.838  0.0557  1.4241 -0.9507
15136SOL     OW50537   2.212   3.318   7.554  1.0534 -0.2397  0.8122
15136SOL    HW150538   2.124   3.291   7.529  0.6190  0.9589  1.0062
15136SOL    HW250539   2.251   3.352   7.474  1.0250  0.0540  0.9225
15137SOL     OW50540   0.804   4.487   5.432  0.7293 -0.1807  0.6238
15137SOL    HW150541   0.853   4.456   5.509  0.1431 -2.4413  0.1229
15137SOL    HW250542   0.758   4.565   5.463  1.7012 -0.1807  2.1307
15138SOL     OW50543   1.572   8.204   9.817  0.1926  0.3378 -0.1092
15138SOL    HW150544   1.482   8.195   9.847  0.1658 -1.2102 -0.6182
15138SOL    HW250545   1.571   8.171   9.727  1.3144  0.0299 -0.0183
15139SOL     OW50546   3.398  10.955   9.515 -0.1478  0.7276  0.4201
15139SOL    HW150547   3.359  10.877   9.555  0.1274 -0.1943 -1.0583
15139SOL    HW250548   3.323  11.010   9.493 -0.4979 -0.1109 -0.5257
15140SOL     OW50549   2.082   8.416   5.417 -0.2488 -0.4088  0.2278
15140SOL    HW150550   1.987   8.415   5.408 -0.2564 -2.0069  0.4046
15140SOL    HW250551   2.114   8.446   5.331 -0.8673 -1.2515 -0.3012
15141SOL     OW50552   9.230  10.105   5.905  0.2288  0.5609  0.0081
15141SOL    HW150553   9.234  10.054   5.986  0.4799  2.1009  0.9664
15141SOL    HW250554   9.210  10.040   5.837 -0.4970 -0.6614  1.3709
15142SOL     OW50555   4.116   5.043   6.242  0.0982  0.1888  0.1666
15142SOL    HW150556   4.065   5.104   6.189  1.0161  1.3839  0.6393
15142SOL    HW250557   4.134   4.969   6.184  0.4903  1.1688 -0.9723
15143SOL     OW50558   2.092  10.856   3.985  0.1399 -0.4062  0.0834
15143SOL    HW150559   2.026  10.925   3.977  1.5159  1.0251  0.9507
15143SOL    HW250560   2.092  10.814   3.899 -1.0628  0.3381 -0.3001
15144SOL     OW50561   1.082   5.879   4.518  0.4305  0.2062 -0.1602
15144SOL    HW150562   1.072   5.794   4.475  0.7721 -0.7226  1.5520
15144SOL    HW250563   1.091   5.858   4.610 -1.5905  2.2442  0.5348
15145SOL     OW50564   6.777   2.083   5.429 -0.1064  0.1717 -0.0992
15145SOL    HW150565   6.787   2.176   5.408  2.0138 -0.4713 -2.2813
15145SOL    HW250566   6.729   2.047   5.355 -1.1247 -0.4297  0.8524
15146SOL     OW50567  10.530   1.554   9.144  0.0913  0.1405  0.1053
15146SOL    HW150568  10.479   1.615   9.090  0.1438  0.0972  0.0060
15146SOL    HW250569  10.530   1.593   9.231 -0.3804 -0.0229  0.1798
15147SOL     OW50570   6.598   3.187   0.592  0.3346  0.1861  0.1098
15147SOL    HW150571   6.643   3.114   0.634 -1.9059 -2.1352 -1.3848
15147SOL    HW250572   6.664   3.229   0.537  1.6495 -0.6533  1.0263
15148SOL     OW50573   6.161   0.706   1.076  0.0808 -0.0643 -0.3542
15148SOL    HW150574   6.106   0.630   1.060 -2.0470  0.6876  2.9527
15148SOL    HW250575   6.125   0.746   1.155  0.9685  4.5505 -2.1164
15149SOL     OW50576   6.919   8.646   0.021  0.7017 -0.4215 -0.0158
15149SOL    HW150577   6.976   8.713  -0.017 -0.1901  0.0584 -0.5039
15149SOL    HW250578   6.879   8.688   0.096  1.6802 -1.0550  0.8795
15150SOL     OW50579   5.748   1.541   2.992 -0.0747  0.1532  0.6355
15150SOL    HW150580   5.655   1.554   2.973 -0.0870  0.1506  0.6918
15150SOL    HW250581   5.776   1.625   3.029 -0.1277  0.0521  0.9049
15151SOL     OW50582   5.568  10.208  11.307  0.4391  0.2283  0.3873
15151SOL    HW150583   5.594  10.146  11.239  1.3402 -1.5278  2.2731
15151SOL    HW250584   5.472  10.212  11.301  0.4323 -0.7674 -0.2035
15152SOL     OW50585   5.641   2.163   6.837 -0.8514  0.1784  0.0476
15152SOL    HW150586   5.657   2.189   6.746 -2.8403  1.9538  0.1480
15152SOL    HW250587   5.645   2.245   6.886  2.0798 -1.0132  1.8875
15153SOL     OW50588   3.489   9.321  10.588  0.6905 -0.6465 -0.1545
15153SOL    HW150589   3.496   9.407  10.547  0.9106 -0.4786  0.2331
15153SOL    HW250590   3.450   9.338  10.674  0.8763 -0.9142 -0.0155
15154SOL     OW50591   6.071   2.798   4.767 -0.5844  0.3791 -0.1566
15154SOL    HW150592   6.115   2.872   4.808  1.8377 -0.7681 -0.6132
15154SOL    HW250593   5.978   2.817   4.777 -0.0114  2.3671  1.7586
15155SOL     OW50594  10.060   0.936   8.222  0.6009  0.5735 -1.1882
15155SOL    HW150595   9.999   0.870   8.252  1.3958  0.1077 -0.5780
15155SOL    HW250596  10.116   0.890   8.159  1.3625  0.5761 -0.5168
15156SOL     OW50597   9.816   7.978   9.791  0.1863 -0.3025  0.6971
15156SOL    HW150598   9.886   7.912   9.793  0.3567 -0.0934  1.7045
15156SOL    HW250599   9.773   7.970   9.876  0.7734  1.4980  1.1775
15157SOL     OW50600   9.687   2.701   0.878 -0.3532 -0.2466  0.0773
15157SOL    HW150601   9.742   2.765   0.834 -1.4826 -0.0959 -1.1504
15157SOL    HW250602   9.748   2.642   0.921  0.7129  1.2148  0.5923
15158SOL     OW50603   1.451   0.460  10.416  0.3249  0.3884 -0.1289
15158SOL    HW150604   1.522   0.405  10.383 -0.0213 -0.4025  0.4463
15158SOL    HW250605   1.484   0.550  10.405 -0.1048  0.2155 -3.3792
15159SOL     OW50606   3.469  11.250   7.164 -0.1319 -0.1228 -0.2489
15159SOL    HW150607   3.428  11.244   7.251  0.1555  1.6651  0.0280
15159SOL    HW250608   3.404  11.212   7.105 -0.5496 -0.8854  0.6767
15160SOL     OW50609   6.967   7.741   9.921  0.3624  0.3435  0.7215
15160SOL    HW150610   6.914   7.820   9.931  0.4649  0.2153  2.4536
15160SOL    HW250611   7.057   7.772   9.919  0.2764  0.5093 -1.6222
15161SOL     OW50612   5.170   3.683   9.624  0.0499  0.3541  0.0633
15161SOL    HW150613   5.195   3.605   9.575 -1.2685 -1.2824  1.9319
15161SOL    HW250614   5.253   3.718   9.657  0.5941 -0.5733 -0.3012
15162SOL     OW50615   9.024   5.486   5.113 -0.0735  0.3801  0.3530
15162SOL    HW150616   9.073   5.538   5.049 -0.6024 -1.5126 -1.6711
15162SOL    HW250617   8.932   5.512   5.100  0.0493  1.7365  2.0489
15163SOL     OW50618  11.020  11.062   6.458  0.6286 -0.2597 -0.0022
15163SOL    HW150619  11.113  11.085   6.456  0.5531  0.0410 -0.1204
15163SOL    HW250620  10.976  11.143   6.482  0.5163 -0.7802  1.5721
15164SOL     OW50621   2.101  10.179  10.134  0.5451 -0.3391  0.5662
15164SOL    HW150622   2.140  10.225  10.209  1.3212  0.8525 -0.5363
15164SOL    HW250623   2.023  10.230  10.114  1.5164  0.6476 -0.7889
15165SOL     OW50624   2.234   2.124   1.969 -0.3447 -0.3335 -0.0477
15165SOL    HW150625   2.166   2.190   1.956 -1.3064 -0.8937  1.9638
15165SOL    HW250626   2.313   2.162   1.930 -1.1394  1.5335  0.1179
15166SOL     OW50627   7.607  10.859   9.513  0.1508  0.1404  0.0328
15166SOL    HW150628   7.651  10.936   9.478  1.6445 -1.0387 -0.7748
15166SOL    HW250629   7.559  10.823   9.439  0.3977 -0.3421  0.1037
15167SOL     OW50630   3.441   9.966  10.828 -0.1680  0.1194  0.6865
15167SOL    HW150631   3.372   9.930  10.772 -0.7994  0.7148  1.0625
15167SOL    HW250632   3.444   9.907  10.903 -2.0897  1.5246  1.9157
15168SOL     OW50633   8.417   1.305   6.270  0.0360  0.4501 -0.2177
15168SOL    HW150634   8.503   1.345   6.284  0.3987 -0.6320  0.7407
15168SOL    HW250635   8.393   1.330   6.180  0.8167  1.7349 -0.0800
15169SOL     OW50636   5.341   7.108   1.863 -0.5163  0.0728  0.0623
15169SOL    HW150637   5.423   7.157   1.859 -0.1959 -0.4856 -0.3151
15169SOL    HW250638   5.361   7.024   1.820 -1.0299 -0.4192  0.7781
15170SOL     OW50639   7.678   3.604   6.768 -0.0099  0.1198 -0.7110
15170SOL    HW150640   7.674   3.639   6.679 -2.6042  0.5737 -0.4521
15170SOL    HW250641   7.605   3.542   6.772 -0.2409  0.5208  1.2843
15171SOL     OW50642   6.617  10.599   7.159  0.3545  0.5106 -0.0261
15171SOL    HW150643   6.604  10.679   7.210  2.4010  1.0975 -0.3782
15171SOL    HW250644   6.542  10.544   7.181 -1.4908  2.8200 -0.3595
15172SOL     OW50645   5.731   8.485   1.384 -0.0530  0.4874 -0.9239
15172SOL    HW150646   5.777   8.402   1.373 -2.0383 -0.5184 -1.9820
15172SOL    HW250647   5.788   8.550   1.344  1.7232 -0.2785  0.2966
15173SOL     OW50648   8.617   7.790   5.541  0.5399 -0.3452 -0.6834
15173SOL    HW150649   8.537   7.827   5.503  0.0913 -1.0222 -0.4048
15173SOL    HW250650   8.687   7.847   5.508 -0.0231  0.0882 -1.1515
15174SOL     OW50651   9.672  10.603   3.816  0.2187  0.1125 -0.5936
15174SOL    HW150652   9.685  10.592   3.722  0.2236  0.6316 -0.6501
15174SOL    HW250653   9.757  10.633   3.849  0.5469 -1.1350 -0.2560
15175SOL     OW50654   6.831   9.775   8.661 -0.5467 -0.2641 -0.1000
15175SOL    HW150655   6.879   9.695   8.640 -1.0547 -0.0526 -2.0959
15175SOL    HW250656   6.779   9.751   8.738  3.5434 -0.1624  2.8422
15176SOL     OW50657   8.754  10.583   5.628  0.4648  0.1275  0.4197
15176SOL    HW150658   8.716  10.661   5.588 -1.3193 -0.8390  0.1996
15176SOL    HW250659   8.680  10.540   5.671  1.5521 -1.1148  1.0703
15177SOL     OW50660   4.306   2.265   4.661 -0.2175  0.1321  0.4423
15177SOL    HW150661   4.302   2.305   4.748 -0.2501  0.4505  0.2958
15177SOL    HW250662   4.222   2.288   4.621  0.7000  1.9588 -0.5270
15178SOL     OW50663   9.277   4.492   9.171 -0.2396  0.0823 -0.4424
15178SOL    HW150664   9.225   4.483   9.251  1.1369  1.9765  0.7047
15178SOL    HW250665   9.256   4.579   9.138  0.6253  0.0582 -1.0839
15179SOL     OW50666  10.099  10.255   6.456 -0.2418  0.3429  0.3431
15179SOL    HW150667  10.005  10.250   6.473 -0.8901 -0.0242 -3.0411
15179SOL    HW250668  10.139  10.210   6.530 -2.9323 -2.4590  0.2099
15180SOL     OW50669   2.579   9.575  11.285  0.0197 -0.2228  0.4802
15180SOL    HW150670   2.515   9.634  11.326  1.5774  1.6075  0.3652
15180SOL    HW250671   2.565   9.585  11.191  1.7075  1.6781  0.3874
15181SOL     OW50672  10.109   0.989   5.654  0.1448  0.5428  0.3289
15181SOL    HW150673  10.128   0.951   5.569  0.5762  1.2310  0.1145
15181SOL    HW250674  10.016   1.011   5.651 -0.8062 -2.8992  1.4052
15182SOL     OW50675   1.549  11.140   9.782 -0.0970 -0.1332 -0.2080
15182SOL    HW150676   1.495  11.200   9.732  0.6702  0.4959 -0.2968
15182SOL    HW250677   1.623  11.193   9.811 -0.4891 -0.5142  1.5280
15183SOL     OW50678   3.443  11.258   5.040  0.0624  0.0920 -0.7206
15183SOL    HW150679   3.363  11.251   5.093  0.6626 -0.2692  0.1482
15183SOL    HW250680   3.465  11.167   5.019 -0.3972  0.2485 -1.9488
15184SOL     OW50681   7.799   1.813  10.546  0.1222  0.1888  0.9017
15184SOL    HW150682   7.879   1.780  10.505 -1.5020 -1.4163 -1.1485
15184SOL    HW250683   7.807   1.908  10.541  2.3878  0.0848  1.7797
15185SOL     OW50684   7.220   9.129   6.033  0.2207  0.6797  0.0453
15185SOL    HW150685   7.303   9.102   6.074  0.1534  1.5423  0.7616
15185SOL    HW250686   7.153   9.084   6.084  0.2161  0.3536 -0.2428
15186SOL     OW50687  10.559   0.877   6.440 -0.5822  0.0918 -0.2910
15186SOL    HW150688  10.472   0.880   6.480 -0.3007  0.4012  0.3068
15186SOL    HW250689  10.548   0.822   6.363 -1.7185  1.5776 -1.2097
15187SOL     OW50690   7.213   4.880   3.319  0.2487 -0.1196  0.4404
15187SOL    HW150691   7.304   4.853   3.310  0.4866  0.5140  0.9455
15187SOL    HW250692   7.178   4.824   3.388 -0.2024 -1.4916 -0.8660
15188SOL     OW50693  10.363   3.627   8.872  0.0915  0.3217  0.2078
15188SOL    HW150694  10.291   3.569   8.848  1.1396 -0.9663  0.1725
15188SOL    HW250695  10.368   3.690   8.799 -1.6603  1.0687  0.7039
15189SOL     OW50696   6.595   2.467   5.381  0.7748  0.3164  0.1751
15189SOL    HW150697   6.555   2.539   5.430 -0.8060 -0.3411 -0.1161
15189SOL    HW250698   6.521   2.415   5.350  1.8768 -1.1184 -0.1111
15190SOL     OW50699   2.682   7.228   5.947 -0.1371  0.4087 -0.0777
15190SOL    HW150700   2.703   7.267   6.031 -0.6382  1.3032 -0.3501
15190SOL    HW250701   2.688   7.134   5.961 -1.7040  0.4950  1.3644
15191SOL     OW50702  11.048   7.812  10.474 -0.1790 -0.1463  0.0095
15191SOL    HW150703  11.033   7.718  10.473  0.2796 -0.2209  0.2140
15191SOL    HW250704  11.027   7.839  10.563 -0.1769 -0.0775 -0.0107
15192SOL     OW50705   7.871   6.129   3.035  0.3501  0.0312  0.4873
15192SOL    HW150706   7.851   6.120   3.128 -1.9956  0.0463  0.0146
15192SOL    HW250707   7.817   6.203   3.006  0.6598 -0.3036 -0.9810
15193SOL     OW50708   3.217   4.899   4.191  0.2704 -0.1976 -0.2995
15193SOL    HW150709   3.188   4.816   4.229  2.8085 -0.4495  1.1851
15193SOL    HW250710   3.279   4.934   4.255  1.3193  1.4963 -2.2118
15194SOL     OW50711   6.743   8.677   3.334 -0.0957 -0.0167 -0.1573
15194SOL    HW150712   6.688   8.602   3.354  0.6325 -0.7366 -0.8280
15194SOL    HW250713   6.682   8.744   3.302 -0.7841 -0.1904  0.7700
15195SOL     OW50714  10.420   5.833  10.876  0.1646 -0.8649  0.2258
15195SOL    HW150715  10.350   5.895  10.897  0.6621 -0.4885  0.7900
15195SOL    HW250716  10.385   5.748  10.901  0.8573 -0.3913  2.9369
15196SOL     OW50717   7.534  10.136   5.859  0.1829 -0.6241 -0.2859
15196SOL    HW150718   7.526  10.126   5.954  0.9482 -0.6038 -0.2236
15196SOL    HW250719   7.451  10.177   5.833  0.3938  0.3309  0.5137
15197SOL     OW50720   7.108   8.240   4.667 -0.2534 -0.0982 -0.4878
15197SOL    HW150721   7.151   8.198   4.742 -0.1421  0.2595 -0.3503
15197SOL    HW250722   7.014   8.226   4.682 -0.0833 -3.5428 -2.3575
15198SOL     OW50723   9.674   1.780   1.392 -0.5913  0.0938  0.1486
15198SOL    HW150724   9.760   1.739   1.398 -1.0158 -0.7464  0.4977
15198SOL    HW250725   9.662   1.796   1.298  0.0908  0.5419  0.1307
15199SOL     OW50726   9.794   7.732   9.380 -0.3181 -0.2062 -0.1041
15199SOL    HW150727   9.860   7.796   9.353  0.4050 -0.8922  0.0274
15199SOL    HW250728   9.711   7.769   9.350  0.0941  0.8120  0.0001
15200SOL     OW50729  10.866   9.951  11.055  0.0102  0.4707  0.3426
15200SOL    HW150730  10.824   9.880  11.006 -0.1780  0.5077  0.4504
15200SOL    HW250731  10.795  10.013  11.072  0.0672  0.4382  0.6980
15201SOL     OW50732   2.764   0.059   7.683 -0.1128  0.1163 -0.1798
15201SOL    HW150733   2.713  -0.021   7.692 -0.9126  0.7969  1.6160
15201SOL    HW250734   2.701   0.123   7.649  0.1415  0.3663 -0.1744
15202SOL     OW50735   8.161   2.644   9.944 -0.2394  0.3459 -0.1905
15202SOL    HW150736   8.235   2.585   9.933  1.3468  1.8230  2.1500
15202SOL    HW250737   8.085   2.591   9.920  1.4775 -1.3541 -2.1244
15203SOL     OW50738   7.239   2.490   8.701  0.8054  0.1754 -0.3117
15203SOL    HW150739   7.226   2.483   8.795  1.7345 -2.0234 -0.3266
15203SOL    HW250740   7.253   2.400   8.672  1.1544  0.9011 -2.4644
15204SOL     OW50741  10.489   4.575  10.865 -0.7735  0.7772  0.6484
15204SOL    HW150742  10.437   4.539  10.793  0.0739 -0.3312  0.5762
15204SOL    HW250743  10.501   4.501  10.925  2.5748  0.4064 -0.3985
15205SOL     OW50744   3.016   1.504   2.692 -0.3431 -0.3205 -0.1044
15205SOL    HW150745   2.930   1.526   2.656  0.4102  0.9317 -1.1765
15205SOL    HW250746   3.037   1.577   2.751  0.4645 -0.0675 -0.6947
15206SOL     OW50747   0.169   2.724   3.672 -0.7592  0.1513 -0.1226
15206SOL    HW150748   0.074   2.720   3.684 -0.6745  1.1572  0.9268
15206SOL    HW250749   0.203   2.656   3.729 -0.8381 -0.1704 -0.4543
15207SOL     OW50750   3.929   0.721   8.231  0.0072  0.1668 -0.7258
15207SOL    HW150751   3.854   0.775   8.207  0.2154  0.0567 -1.6258
15207SOL    HW250752   3.922   0.644   8.176 -0.4654 -0.8977  0.7850
15208SOL     OW50753   9.315   2.102   1.000 -0.4716 -0.0900  0.1826
15208SOL    HW150754   9.254   2.156   1.050 -0.3991 -1.8492  2.2325
15208SOL    HW250755   9.401   2.121   1.039 -0.3346 -1.0011  0.3441
15209SOL     OW50756   5.058   7.242   2.281 -0.0790  0.8660 -0.0571
15209SOL    HW150757   5.078   7.193   2.360 -2.4754 -1.6833 -0.9484
15209SOL    HW250758   5.141   7.250   2.235  1.0302  0.9994  1.9437
15210SOL     OW50759   7.615   1.983   8.092 -0.0400  0.0108  0.2638
15210SOL    HW150760   7.542   1.947   8.043 -0.4914  2.0551 -0.6333
15210SOL    HW250761   7.577   2.008   8.176 -0.0346 -0.2970  0.3593
15211SOL     OW50762   9.634   1.958   2.232 -0.3244 -0.2621 -0.1152
15211SOL    HW150763   9.691   2.029   2.203 -0.4865  0.0501  0.3344
15211SOL    HW250764   9.554   1.969   2.180 -1.8760  2.2217  2.6532
15212SOL     OW50765   1.784   1.812   6.740 -0.1509  0.0659  0.3747
15212SOL    HW150766   1.809   1.904   6.747 -1.3696  0.5515 -1.3300
15212SOL    HW250767   1.858   1.769   6.698 -0.2181  0.5740 -0.2614
15213SOL     OW50768   5.453   2.639   0.813 -0.4073  0.2846 -0.2284
15213SOL    HW150769   5.468   2.657   0.720  0.2481  1.7680  0.1489
15213SOL    HW250770   5.376   2.691   0.836 -0.4068  0.1372  0.1105
15214SOL     OW50771   0.933   7.435   7.652  0.0152  0.1152  0.2448
15214SOL    HW150772   0.947   7.367   7.585  2.1906  0.7945 -0.0345
15214SOL    HW250773   0.883   7.391   7.721 -0.9802 -1.0002 -1.1652
15215SOL     OW50774   5.053   8.259   3.787  0.0885  0.5071  0.2239
15215SOL    HW150775   5.132   8.284   3.740  0.9044  1.9800  2.2695
15215SOL    HW250776   5.062   8.165   3.800  1.3419  0.5965  0.1227
15216SOL     OW50777   2.734   4.857   4.393 -0.3507 -0.3342 -0.0860
15216SOL    HW150778   2.729   4.851   4.489 -5.5438  0.9884 -0.0779
15216SOL    HW250779   2.753   4.950   4.376  1.1608 -0.6846 -0.3781
15217SOL     OW50780   9.127   9.651   4.940  0.4069  0.5618  0.5608
15217SOL    HW150781   9.156   9.568   4.902 -2.0063 -1.0434  2.1209
15217SOL    HW250782   9.102   9.704   4.865  2.7539  0.2430 -0.5176
15218SOL     OW50783   6.674   4.165  10.099  0.1788  0.3417 -0.0383
15218SOL    HW150784   6.599   4.193  10.047  1.1198  2.0194 -0.5188
15218SOL    HW250785   6.641   4.090  10.149 -1.6219  0.6309 -0.7319
15219SOL     OW50786   3.705   2.714   0.524  0.5575  0.3412  0.0696
15219SOL    HW150787   3.722   2.734   0.616  0.2563  0.7765  0.0308
15219SOL    HW250788   3.726   2.621   0.516  1.1748  0.4420  0.4360
15220SOL     OW50789   9.964   9.754   1.542  0.2755 -0.0453 -0.2499
15220SOL    HW150790   9.916   9.672   1.529  1.2181 -0.9065  1.5389
15220SOL    HW250791  10.042   9.729   1.593  1.6348  1.6312 -1.4394
15221SOL     OW50792   0.492   2.590   9.431  0.2824  0.1634 -0.0116
15221SOL    HW150793   0.507   2.526   9.361  0.8353 -1.9024  1.9420
15221SOL    HW250794   0.419   2.554   9.481  1.5986  0.2613  2.0218
15222SOL     OW50795   0.734   0.226  10.759 -0.2635  0.0458  0.3348
15222SOL    HW150796   0.798   0.251  10.826 -1.5552 -0.2039  1.6825
15222SOL    HW250797   0.784   0.225  10.677  1.2066  0.9140  1.2051
15223SOL     OW50798   5.063   5.028   0.383  0.0772 -0.3409  0.3786
15223SOL    HW150799   5.098   5.108   0.422 -2.6035  0.7790  0.6088
15223SOL    HW250800   5.116   5.014   0.305 -0.2536  2.4392 -0.3981
15224SOL     OW50801   8.263   0.493   6.904 -0.3247 -0.3665  0.7122
15224SOL    HW150802   8.210   0.435   6.959 -0.1459 -0.6135  0.6291
15224SOL    HW250803   8.200   0.533   6.844 -0.2876 -1.4923 -0.1124
15225SOL     OW50804   8.256   3.765   5.375  0.4661 -0.1277  0.4481
15225SOL    HW150805   8.177   3.724   5.410  0.1335 -0.1121 -0.2740
15225SOL    HW250806   8.319   3.761   5.447  0.3652 -1.6792  0.4619
15226SOL     OW50807   4.638   0.942   4.302  0.3249  0.4765 -1.0396
15226SOL    HW150808   4.693   0.999   4.248  0.9001 -0.1205 -1.0804
15226SOL    HW250809   4.562   0.996   4.323  0.5905  1.0636 -1.5749
15227SOL     OW50810   6.888   2.428   7.092 -0.5527 -1.0853 -0.2218
15227SOL    HW150811   6.864   2.427   7.185 -0.0137  0.0886 -0.0550
15227SOL    HW250812   6.964   2.487   7.088 -0.7436 -0.9150 -1.4490
15228SOL     OW50813   2.479   0.986   9.115  0.0463 -0.0099  0.4085
15228SOL    HW150814   2.430   0.990   9.198 -0.6441  1.4603 -0.0454
15228SOL    HW250815   2.570   1.003   9.140  0.0948 -1.1714  1.0639
15229SOL     OW50816   7.243   0.108   6.091 -0.4064  0.5964 -0.3622
15229SOL    HW150817   7.226   0.137   6.181 -0.2431  1.6161 -0.6538
15229SOL    HW250818   7.310   0.039   6.100  0.6489  1.6724  0.1871
15230SOL     OW50819   9.252   8.546   3.637 -0.5669 -0.6839 -0.3913
15230SOL    HW150820   9.181   8.481   3.641  0.5820 -1.8649  2.2022
15230SOL    HW250821   9.278   8.547   3.545 -1.3485 -3.1303 -0.6892
15231SOL     OW50822   8.494   8.183   3.198 -0.3889 -0.3705  0.2342
15231SOL    HW150823   8.558   8.124   3.237  1.2861  0.1881 -1.5966
15231SOL    HW250824   8.459   8.135   3.124  0.7043  0.7469 -1.0384
15232SOL     OW50825  10.786   4.267   6.968  0.6259 -0.0286  0.4566
15232SOL    HW150826  10.862   4.322   6.949  0.5736  0.1783  0.8290
15232SOL    HW250827  10.747   4.249   6.883  2.2338 -1.8115  0.0634
15233SOL     OW50828  10.352   8.518   7.992  0.6565  0.6073  0.8468
15233SOL    HW150829  10.300   8.557   7.922 -0.2693 -2.4964 -0.2896
15233SOL    HW250830  10.287   8.480   8.051  1.5349 -0.4262  1.1616
15234SOL     OW50831   8.223   6.075   2.334 -0.4862  0.4047 -0.3183
15234SOL    HW150832   8.308   6.108   2.363 -0.6791  1.2955 -0.7735
15234SOL    HW250833   8.162   6.147   2.351 -1.3971 -0.6865  1.2198
15235SOL     OW50834  10.652   7.734   5.773 -0.7627  0.3336 -0.5143
15235SOL    HW150835  10.739   7.713   5.807 -0.7286 -0.0776 -0.8451
15235SOL    HW250836  10.665   7.812   5.720 -0.5986  0.2962 -0.5290
15236SOL     OW50837   4.045  10.209   8.932  0.2997 -0.1309  0.2410
15236SOL    HW150838   4.043  10.296   8.971 -0.9049 -0.3951  0.7730
15236SOL    HW250839   3.965  10.203   8.880 -0.8441 -1.7730  2.1111
15237SOL     OW50840  10.688  11.270   4.875 -0.1137  0.1419 -0.3921
15237SOL    HW150841  10.694  11.175   4.874  0.0257  0.1528 -0.5803
15237SOL    HW250842  10.619  11.289   4.939 -1.1383 -0.1399 -1.3882
15238SOL     OW50843   7.582   0.767   7.544  0.8227 -0.2105 -0.3707
15238SOL    HW150844   7.586   0.705   7.471  1.1008 -0.9553  0.2697
15238SOL    HW250845   7.625   0.846   7.511 -1.6112  0.4961 -2.0139
15239SOL     OW50846   0.125   0.824   5.942 -0.2340  0.0886  0.0194
15239SOL    HW150847   0.201   0.845   5.996 -0.5509 -0.0082  0.5039
15239SOL    HW250848   0.133   0.731   5.924 -1.0644 -0.2573  1.3743
15240SOL     OW50849   3.447   7.099   8.545  0.4519  0.5337 -0.0117
15240SOL    HW150850   3.428   7.023   8.490 -1.4247  1.7867 -1.1965
15240SOL    HW250851   3.542   7.103   8.549  0.6117 -0.3740 -2.1006
15241SOL     OW50852   9.687   5.806   8.690 -0.7422  0.1152  0.7363
15241SOL    HW150853   9.683   5.833   8.599 -0.9703 -0.4181  0.5856
15241SOL    HW250854   9.755   5.861   8.729  0.1709 -0.4558 -0.0314
15242SOL     OW50855   7.568  10.923   4.044 -0.2492  0.3342  0.3396
15242SOL    HW150856   7.559  10.828   4.041  2.6511  0.0361 -0.0413
15242SOL    HW250857   7.642  10.939   4.104 -0.6025  2.3378  0.2866
15243SOL     OW50858   5.524   6.080   8.248 -0.6069  0.3834 -0.3613
15243SOL    HW150859   5.597   6.131   8.283 -0.2447  0.1203 -0.7151
15243SOL    HW250860   5.567   6.010   8.197 -0.9655 -2.8168  3.4638
15244SOL     OW50861  10.016   2.331   6.159 -0.0151 -0.1513  0.5309
15244SOL    HW150862   9.936   2.383   6.164  0.0988  0.2785 -1.6085
15244SOL    HW250863  10.021   2.286   6.244 -1.3525  1.4883  1.5164
15245SOL     OW50864   1.290   4.538   6.442 -0.2051 -0.4890  0.3715
15245SOL    HW150865   1.327   4.453   6.421  0.8012  0.1143 -0.3363
15245SOL    HW250866   1.307   4.549   6.536  0.1077 -0.8489  0.3576
15246SOL     OW50867   6.939   4.720   1.942 -0.2619 -0.3216 -0.3121
15246SOL    HW150868   6.972   4.686   2.025  0.3107 -0.9178 -0.7805
15246SOL    HW250869   7.013   4.715   1.882 -0.0465  2.1014 -0.3156
15247SOL     OW50870   6.161   1.075   5.488 -0.1647 -0.8329 -0.8733
15247SOL    HW150871   6.190   1.038   5.404 -1.2233 -0.2222 -1.5291
15247SOL    HW250872   6.084   1.127   5.465  0.4755  0.6362  0.2573
15248SOL     OW50873  11.264   5.004   8.765 -0.0111  0.2106  0.0571
15248SOL    HW150874  11.224   4.970   8.845 -0.7335 -0.1787 -0.4557
15248SOL    HW250875  11.332   4.941   8.742 -2.2821 -1.7117 -1.6701
15249SOL     OW50876   1.714   4.426   9.689 -0.6720  0.2830 -0.7302
15249SOL    HW150877   1.689   4.508   9.730  0.4081  0.9064 -1.2942
15249SOL    HW250878   1.669   4.359   9.740 -0.2543  1.1171  0.7650
15250SOL     OW50879   9.911   1.053   4.717  0.1465  0.2066 -0.2412
15250SOL    HW150880   9.946   1.128   4.764  0.2962 -0.3615  0.5708
15250SOL    HW250881   9.816   1.063   4.721  0.1524 -0.0015  0.4507
15251SOL     OW50882  10.235   5.829   7.663 -0.3272  0.3428 -0.0838
15251SOL    HW150883  10.287   5.781   7.728 -1.6707 -0.7137  0.2283
15251SOL    HW250884  10.246   5.921   7.687  0.4998  0.0632  0.6478
15252SOL     OW50885   6.213   0.416   7.294 -0.2860  0.0250 -0.5613
15252SOL    HW150886   6.204   0.410   7.199  0.5023  0.8883 -0.6952
15252SOL    HW250887   6.123   0.429   7.326 -0.5214  0.0105 -1.2119
15253SOL     OW50888   3.303  10.468   7.228 -0.3927 -0.1627  0.0159
15253SOL    HW150889   3.331  10.556   7.254 -2.7570  0.7374 -0.3287
15253SOL    HW250890   3.299  10.420   7.310  0.2950  0.2457  0.2937
15254SOL     OW50891   6.175   9.975   1.448  0.2531 -0.5313  0.8666
15254SOL    HW150892   6.083   9.955   1.467  0.2220 -2.0257 -0.7674
15254SOL    HW250893   6.222   9.894   1.466  1.2522  0.1877  1.5805
15255SOL     OW50894   5.500   5.700   3.842  0.3964 -0.3977 -0.1159
15255SOL    HW150895   5.518   5.672   3.752 -2.9291 -1.3121 -0.5826
15255SOL    HW250896   5.447   5.628   3.878  0.7832  0.4661  2.2190
15256SOL     OW50897   6.710   9.291   4.324 -0.5341 -0.1074 -0.1922
15256SOL    HW150898   6.647   9.343   4.276 -0.5567  0.3008  0.2756
15256SOL    HW250899   6.690   9.200   4.301 -0.0536  0.1260 -1.5396
15257SOL     OW50900   0.021   6.139   7.059  0.3848 -0.4701 -0.1096
15257SOL    HW150901  -0.007   6.093   6.980 -1.8865  0.7688 -0.0643
15257SOL    HW250902  -0.029   6.099   7.129 -2.5821  2.7646 -0.2282
15258SOL     OW50903   7.593  10.685   0.714 -0.0174 -0.3265  0.2960
15258SOL    HW150904   7.518  10.660   0.767 -1.7330  0.3915 -1.7101
15258SOL    HW250905   7.650  10.608   0.714 -0.1803 -0.4662  2.7723
15259SOL     OW50906   3.783   2.297   7.378 -0.2635 -0.2868 -0.0527
15259SOL    HW150907   3.725   2.323   7.306 -1.7074  0.3566  1.3130
15259SOL    HW250908   3.735   2.226   7.422  0.0237  0.1929  1.0429
15260SOL     OW50909   0.452  10.902  10.718 -0.1920  0.1337  0.2834
15260SOL    HW150910   0.366  10.926  10.751 -0.6701  0.7505 -1.3535
15260SOL    HW250911   0.492  10.984  10.691  0.4291 -0.2776 -0.0806
15261SOL     OW50912   2.572   0.177   2.785 -0.2566 -0.0568 -0.3910
15261SOL    HW150913   2.527   0.247   2.833  2.1482  1.2466  0.0549
15261SOL    HW250914   2.603   0.220   2.705 -1.1419 -1.3196 -1.4200
15262SOL     OW50915  10.391  10.913   7.988 -0.0668 -0.0397 -0.0706
15262SOL    HW150916  10.396  11.008   7.997 -0.7415  0.1666 -1.7850
15262SOL    HW250917  10.394  10.897   7.894  1.2827 -1.7960  0.2504
15263SOL     OW50918   3.509   4.140   0.466  0.0848 -0.1947 -0.5012
15263SOL    HW150919   3.600   4.112   0.462  0.7757  2.1228 -1.9983
15263SOL    HW250920   3.509   4.211   0.531 -1.1843 -1.9076  1.4637
15264SOL     OW50921   6.872   4.613   6.425  0.2570  0.5572 -0.0553
15264SOL    HW150922   6.877   4.537   6.367 -1.3018  0.7856 -0.5064
15264SOL    HW250923   6.926   4.588   6.501  0.6618 -0.5512 -0.6931
15265SOL     OW50924   2.211   2.104   3.098  0.1642  0.1696 -0.1663
15265SOL    HW150925   2.243   2.170   3.035  1.4039  0.1810  0.4614
15265SOL    HW250926   2.119   2.092   3.075 -0.1415  2.3029 -0.1516
15266SOL     OW50927   0.945   0.934   5.669 -0.1452 -0.0424 -0.2715
15266SOL    HW150928   0.868   0.878   5.675  1.2355 -2.0073 -0.6718
15266SOL    HW250929   0.954   0.971   5.757 -0.2403 -1.5519  0.3765
15267SOL     OW50930   8.343   2.750   4.112 -0.1679  0.4096 -0.3613
15267SOL    HW150931   8.359   2.677   4.172  1.1025  1.0599  0.1239
15267SOL    HW250932   8.321   2.824   4.169 -1.0809  0.4966 -0.8249
15268SOL     OW50933   6.483   6.612  10.903  0.5754  0.2388  0.6164
15268SOL    HW150934   6.440   6.544  10.852  1.4208 -0.0586  0.2919
15268SOL    HW250935   6.463   6.693  10.856 -1.2224  0.3380  1.5346
15269SOL     OW50936   1.136   4.710   8.266 -0.2201 -0.0034 -0.4688
15269SOL    HW150937   1.069   4.642   8.264 -0.9851  0.6905  0.5625
15269SOL    HW250938   1.095   4.787   8.226 -1.0277  1.2297  2.5398
15270SOL     OW50939   7.651   8.499   9.273 -0.1935 -0.4898  0.3686
15270SOL    HW150940   7.722   8.475   9.332  0.9670  0.3293 -0.6639
15270SOL    HW250941   7.573   8.459   9.311  1.2807 -3.9618 -0.0615
15271SOL     OW50942   6.686   4.917   0.986  0.0753 -0.1043  0.2603
15271SOL    HW150943   6.773   4.956   0.988  0.5868 -1.2572  1.7653
15271SOL    HW250944   6.627   4.990   0.967  1.1352  1.1440  1.6297
15272SOL     OW50945  10.082   1.831   5.883 -0.3251  0.1057  0.0469
15272SOL    HW150946  10.159   1.775   5.886 -1.1148 -0.9532  0.7964
15272SOL    HW250947  10.114   1.918   5.909  0.8594 -0.0242 -0.9379
15273SOL     OW50948   3.025   6.219   4.682  0.5270  0.2638  0.0508
15273SOL    HW150949   3.038   6.313   4.681  1.1349  0.1957  1.4249
15273SOL    HW250950   3.112   6.182   4.669  0.3254 -0.1150 -0.2489
15274SOL     OW50951   2.712   8.728   0.029  0.1377 -0.2150  0.0202
15274SOL    HW150952   2.649   8.763   0.091  0.3563  0.1213  0.0533
15274SOL    HW250953   2.659   8.687  -0.040 -0.0990 -1.2104  0.7900
15275SOL     OW50954   9.349   6.949   2.062  0.2578 -0.0369 -0.6366
15275SOL    HW150955   9.439   6.922   2.043  0.5221  0.0815  0.4087
15275SOL    HW250956   9.338   7.032   2.017  1.7398  1.5632  1.8482
15276SOL     OW50957   4.584   3.776  11.294 -0.2770  0.0719  0.0882
15276SOL    HW150958   4.498   3.762  11.253 -1.3213 -1.0672  2.5564
15276SOL    HW250959   4.565   3.827  11.373  1.4730  0.8268  0.0292
15277SOL     OW50960   1.404   5.285   5.587  0.3542 -0.0955 -0.2709
15277SOL    HW150961   1.353   5.361   5.559  1.1199  0.1310 -1.1022
15277SOL    HW250962   1.345   5.210   5.573 -0.3650  0.3302  0.4556
15278SOL     OW50963   1.961   8.552   0.390  0.1733  0.1721  0.0119
15278SOL    HW150964   1.869   8.547   0.415 -0.1809  0.8042 -1.1257
15278SOL    HW250965   1.993   8.462   0.395 -0.2042  0.1052  1.4919
15279SOL     OW50966   0.633  10.624   4.367  0.1638  0.6927  0.0631
15279SOL    HW150967   0.548  10.626   4.411 -0.1819 -0.5620 -0.5235
15279SOL    HW250968   0.695  10.596   4.434 -0.3591 -1.2052 -0.2427
15280SOL     OW50969   5.939   9.862   2.150  0.0537 -0.5097 -0.2737
15280SOL    HW150970   6.006   9.919   2.188  0.0947 -0.9430  0.3168
15280SOL    HW250971   5.940   9.882   2.057 -1.2306  1.8398  0.1694
15281SOL     OW50972   1.245   0.280   1.637  0.4700  0.7305  0.6192
15281SOL    HW150973   1.175   0.250   1.695  0.5077 -1.1606 -0.2872
15281SOL    HW250974   1.318   0.220   1.655  1.4893  1.9786  0.7447
15282SOL     OW50975   3.279   7.330   2.509  0.0206 -0.2899  0.1616
15282SOL    HW150976   3.253   7.313   2.599 -2.1839 -0.8135 -0.5486
15282SOL    HW250977   3.280   7.244   2.467  0.1177  0.0499 -0.5382
15283SOL     OW50978  11.097   3.074   4.791 -0.2582  0.4493  0.3531
15283SOL    HW150979  11.043   3.087   4.869  1.8372  1.3904  1.6902
15283SOL    HW250980  11.124   3.163   4.766 -1.9830  0.3084 -2.2926
15284SOL     OW50981   6.648   0.332   1.358 -0.2982 -0.5063  0.2229
15284SOL    HW150982   6.698   0.286   1.290  0.1058  1.3330 -0.7452
15284SOL    HW250983   6.712   0.350   1.427  0.3056  1.4451 -0.8187
15285SOL     OW50984   5.985   1.904   3.743 -0.4915  0.5412 -0.1178
15285SOL    HW150985   5.922   1.833   3.732  0.7498 -1.0399  2.4456
15285SOL    HW250986   5.940   1.967   3.800 -0.9950  1.0393 -1.0620
15286SOL     OW50987   1.366  10.728   3.364 -0.2754 -0.1226 -0.0669
15286SOL    HW150988   1.358  10.634   3.348  0.8395 -0.1529 -0.4784
15286SOL    HW250989   1.348  10.738   3.458 -2.1126 -0.5222 -0.3583
15287SOL     OW50990   6.815   3.098   2.121  0.4896 -0.0524 -0.5804
15287SOL    HW150991   6.876   3.028   2.101  2.0584  1.4905 -1.3190
15287SOL    HW250992   6.799   3.091   2.215  1.9981 -0.3154 -0.3421
15288SOL     OW50993   0.742   7.436   5.181 -0.4792 -0.2760  0.3111
15288SOL    HW150994   0.805   7.499   5.146  1.7519 -3.0894 -0.9815
15288SOL    HW250995   0.667   7.440   5.121 -0.1098  0.7151 -0.0861
15289SOL     OW50996   9.510   2.447   9.232 -0.4101  0.7854  0.5182
15289SOL    HW150997   9.586   2.492   9.269  0.2800  0.4903 -0.5323
15289SOL    HW250998   9.482   2.387   9.301  0.8642  0.2367  0.5719
15290SOL     OW50999  11.257   2.982   2.093  0.7393  0.5083  0.1935
15290SOL    HW151000  11.239   3.063   2.046  1.7808  0.0217 -1.0700
15290SOL    HW251001  11.352   2.976   2.096  0.6762 -0.5901  0.3880
15291SOL     OW51002   2.982   5.603  11.200  0.1053  0.0941 -0.0307
15291SOL    HW151003   2.900   5.643  11.231 -0.4837 -0.2926 -1.0698
15291SOL    HW251004   3.029   5.675  11.159  0.3981  0.3700  0.7809
15292SOL     OW51005   3.361   7.198   5.877 -0.6687  0.4012 -0.3229
15292SOL    HW151006   3.298   7.173   5.944  0.0206 -1.6173 -0.3719
15292SOL    HW251007   3.399   7.280   5.908 -2.3768  0.9621  0.3376
15293SOL     OW51008   8.233   8.054   4.005  0.1851  0.4503 -0.5309
15293SOL    HW151009   8.187   7.977   3.971  0.0890  0.2381  0.0848
15293SOL    HW251010   8.243   8.037   4.098  2.4358  0.0188 -0.8331
15294SOL     OW51011   9.881   1.066   8.007  0.5266  0.2629 -0.5105
15294SOL    HW151012   9.948   1.025   8.061  1.2119 -0.7651 -2.1130
15294SOL    HW251013   9.807   1.006   8.010  0.6972  0.0298 -1.0152
15295SOL     OW51014   7.349   9.017   2.031 -0.5664  0.5184 -0.1530
15295SOL    HW151015   7.346   9.099   1.983  2.8658  0.8530  0.0486
15295SOL    HW251016   7.293   9.031   2.107 -2.7771  1.4145 -1.9079
15296SOL     OW51017   1.664   9.317   4.523  0.2594  0.2484 -0.3572
15296SOL    HW151018   1.637   9.345   4.436 -0.7670  2.7176  0.7122
15296SOL    HW251019   1.745   9.365   4.541 -0.5455  1.2220  0.7800
15297SOL     OW51020   7.173   0.558   2.034  0.2141  0.4974  0.3362
15297SOL    HW151021   7.108   0.513   2.089  1.1520 -0.4068  0.7214
15297SOL    HW251022   7.139   0.546   1.944 -0.6554  0.8781  0.6057
15298SOL     OW51023   6.668  10.876   1.512 -0.2211  0.0069  0.2869
15298SOL    HW151024   6.718  10.871   1.431 -0.3653  0.9779  0.1336
15298SOL    HW251025   6.592  10.820   1.497  1.8691 -3.2720  1.3150
15299SOL     OW51026   4.082   8.703   1.514 -0.5754 -0.0562 -0.0256
15299SOL    HW151027   4.149   8.641   1.545 -0.7571  0.1774  0.8446
15299SOL    HW251028   4.009   8.647   1.486 -0.5572 -0.2574  0.3252
15300SOL     OW51029   1.148   0.047   4.199 -0.1891 -0.3709 -0.2898
15300SOL    HW151030   1.109   0.126   4.236 -1.0592 -0.0348 -1.8497
15300SOL    HW251031   1.239   0.048   4.228 -0.1431  1.3227 -0.4788
15301SOL     OW51032   0.663  10.312   7.640  0.3687 -0.0972 -0.0561
15301SOL    HW151033   0.712  10.378   7.591 -0.7603  0.2010 -0.7815
15301SOL    HW251034   0.620  10.259   7.574  2.3474 -2.4252  0.4641
15302SOL     OW51035   9.792   1.010   1.758  0.4685 -0.2564  0.0147
15302SOL    HW151036   9.749   1.093   1.737 -0.9549 -0.7575  0.8628
15302SOL    HW251037   9.867   1.034   1.811  0.8537  0.5922 -0.9097
15303SOL     OW51038   9.627   4.150   7.189  0.0784  0.5257  0.2787
15303SOL    HW151039   9.564   4.085   7.221  1.2310  0.0114  1.5431
15303SOL    HW251040   9.580   4.234   7.195 -0.0150  0.3296  2.5671
15304SOL     OW51041   2.245  10.725   2.114 -0.3124  0.1778 -0.3860
15304SOL    HW151042   2.224  10.670   2.190 -2.3061 -0.0318 -1.0635
15304SOL    HW251043   2.334  10.755   2.131  0.9805 -3.5378 -0.1402
15305SOL     OW51044   0.272   7.266   8.629 -0.5137  0.0680 -0.1754
15305SOL    HW151045   0.343   7.292   8.687 -0.8201 -0.9063  0.6451
15305SOL    HW251046   0.281   7.323   8.553 -0.6963  2.0229  1.2380
15306SOL     OW51047   9.706   2.674   6.176 -0.1748  0.2327 -0.5377
15306SOL    HW151048   9.767   2.648   6.108 -1.2546  1.0175 -1.8446
15306SOL    HW251049   9.620   2.663   6.136 -0.8479  0.1770  0.8948
15307SOL     OW51050   3.399   6.099   2.729  0.1115  0.1743  0.2910
15307SOL    HW151051   3.492   6.083   2.742 -0.1954 -0.0405  2.4306
15307SOL    HW251052   3.356   6.027   2.775 -1.1149  1.4115  1.1358
15308SOL     OW51053  11.118   7.785   8.822 -0.2078  0.3705 -0.3613
15308SOL    HW151054  11.024   7.771   8.834 -0.1911  0.8181  0.3033
15308SOL    HW251055  11.123   7.861   8.764 -0.2567  3.0681  2.9978
15309SOL     OW51056   0.587   9.482   7.266  0.2560 -0.0459 -0.9102
15309SOL    HW151057   0.667   9.459   7.313  0.2103 -0.3343 -0.9735
15309SOL    HW251058   0.547   9.398   7.244 -1.2680  0.0922  1.2027
15310SOL     OW51059  10.324  10.359   3.185  0.0278 -0.0245  0.1937
15310SOL    HW151060  10.292  10.421   3.250 -1.7155  0.5401 -1.1658
15310SOL    HW251061  10.417  10.347   3.206 -0.0102  1.8052  1.4452
15311SOL     OW51062   4.133   5.632   9.442  0.5420 -0.2027  0.7344
15311SOL    HW151063   4.121   5.567   9.373 -0.7620  1.5409 -0.7437
15311SOL    HW251064   4.216   5.675   9.421 -0.9281  1.8331 -1.0766
15312SOL     OW51065  10.070   5.532   3.612 -0.2897  0.1476  0.1088
15312SOL    HW151066  10.158   5.530   3.649 -0.4295  1.0407  0.5183
15312SOL    HW251067  10.082   5.515   3.518  0.0453 -2.2882  0.5754
15313SOL     OW51068   9.235   0.575   7.947 -0.2195  0.4580  0.4312
15313SOL    HW151069   9.241   0.575   7.852  1.6111  0.5008  0.5276
15313SOL    HW251070   9.317   0.536   7.976 -1.2955 -0.7182  1.9735
15314SOL     OW51071   1.194   3.328   9.420 -0.1261 -0.1333  0.4873
15314SOL    HW151072   1.116   3.278   9.442  0.3750 -0.8237  0.7187
15314SOL    HW251073   1.221   3.367   9.503  0.0407 -0.2840  0.5053
15315SOL     OW51074   4.679   5.744   1.359 -0.2254 -0.4046 -0.1520
15315SOL    HW151075   4.694   5.824   1.409  0.0555  0.2130 -1.1938
15315SOL    HW251076   4.586   5.724   1.372 -0.5587  0.7160 -0.7742
15316SOL     OW51077   0.316  11.287   9.090  0.1685 -0.7172 -0.0218
15316SOL    HW151078   0.300  11.380   9.102 -2.4420 -1.0743 -0.4669
15316SOL    HW251079   0.300  11.271   8.997  1.2507 -1.5002 -0.0842
15317SOL     OW51080   4.300   7.471   0.392  0.1090  0.4370  0.1714
15317SOL    HW151081   4.208   7.453   0.412 -0.0608  1.0916 -0.0261
15317SOL    HW251082   4.323   7.408   0.324 -0.2177  0.3335  0.1566
15318SOL     OW51083   2.323   1.237   3.234 -0.4021 -0.5652 -0.2375
15318SOL    HW151084   2.289   1.151   3.260 -0.7847 -0.0890  0.8945
15318SOL    HW251085   2.418   1.227   3.233 -0.4841 -1.2841 -1.1417
15319SOL     OW51086   2.035   5.747  10.965  0.2317 -0.5316 -0.8014
15319SOL    HW151087   1.944   5.718  10.977 -0.2815  1.7636  1.2634
15319SOL    HW251088   2.082   5.707  11.038  0.0280  1.5760  0.5327
15320SOL     OW51089  11.154   7.925   6.910  0.5801 -0.0570 -0.3787
15320SOL    HW151090  11.241   7.886   6.907  0.2446 -1.0546  1.6421
15320SOL    HW251091  11.117   7.909   6.823  2.3369  0.2262 -1.1882
15321SOL     OW51092   8.373   3.287   0.529  0.5939 -0.2868 -0.3033
15321SOL    HW151093   8.338   3.363   0.576  1.1105 -1.6187  2.3755
15321SOL    HW251094   8.465   3.283   0.555  1.2442 -0.3395 -2.5057
15322SOL     OW51095  10.491  11.136  11.072 -0.1873 -0.4518 -0.1228
15322SOL    HW151096  10.556  11.195  11.032  0.3096 -2.0036 -1.7038
15322SOL    HW251097  10.542  11.059  11.099 -0.7863 -0.0843  2.1235
15323SOL     OW51098   7.713   8.813   1.925 -0.1317 -0.0091  0.1418
15323SOL    HW151099   7.716   8.864   1.844  1.0654 -1.0851 -0.5053
15323SOL    HW251100   7.722   8.878   1.995  0.8280  0.7227 -0.6527
15324SOL     OW51101   8.624   0.795   8.447  0.0086  0.6142 -0.5087
15324SOL    HW151102   8.534   0.822   8.467 -0.2434  2.3372 -3.7379
15324SOL    HW251103   8.614   0.724   8.383  0.9362 -0.9420  1.0215
15325SOL     OW51104   3.331   3.431   0.818  0.9265  0.2827 -0.2252
15325SOL    HW151105   3.399   3.436   0.886  0.1062 -1.7434  0.7947
15325SOL    HW251106   3.317   3.337   0.805 -0.8114  0.6630 -1.3060
15326SOL     OW51107   5.650   1.835   2.870  0.0598 -0.0648 -0.2319
15326SOL    HW151108   5.635   1.744   2.893 -1.6933  0.4730  0.7985
15326SOL    HW251109   5.610   1.846   2.784 -0.0029 -0.1891 -0.2178
15327SOL     OW51110  10.912   6.960   7.485  0.2854 -0.4033 -0.6700
15327SOL    HW151111  10.966   6.884   7.508 -0.4713 -0.6773  0.2780
15327SOL    HW251112  10.851   6.969   7.559 -0.0456  0.7438 -1.0706
15328SOL     OW51113   2.881   9.822   4.950  0.4094 -0.2523 -0.6901
15328SOL    HW151114   2.851   9.733   4.972 -1.2148  0.0856 -1.4229
15328SOL    HW251115   2.881   9.823   4.854 -1.2332  1.0463 -0.7031
15329SOL     OW51116   3.376   1.922   4.966  0.1277 -0.3853  0.0453
15329SOL    HW151117   3.451   1.931   4.907  0.3832 -0.1749  0.4018
15329SOL    HW251118   3.306   1.970   4.923  0.3845 -0.0227  0.0285
15330SOL     OW51119   4.974   0.690   4.226  0.3297  0.1549  0.4966
15330SOL    HW151120   4.963   0.628   4.154  0.5147 -0.2604  0.8253
15330SOL    HW251121   4.885   0.720   4.245  0.2327 -0.0644  0.3864
15331SOL     OW51122   7.235   4.096   8.066  0.3352  0.0340 -0.0073
15331SOL    HW151123   7.271   4.184   8.057  1.6344 -0.4474  0.2708
15331SOL    HW251124   7.298   4.050   8.121  0.1969 -1.3615 -0.9699
15332SOL     OW51125   2.158   2.157   8.707  0.8406  0.7808 -0.0254
15332SOL    HW151126   2.068   2.183   8.729  0.6274 -0.2254  0.3690
15332SOL    HW251127   2.213   2.221   8.751  0.3689 -0.2827  2.1980
15333SOL     OW51128   2.257   9.964   4.246 -0.2214  0.0501  0.5217
15333SOL    HW151129   2.201   9.889   4.268  0.5619 -0.5533  0.4928
15333SOL    HW251130   2.291   9.943   4.159 -0.3407  0.6418  0.3357
15334SOL     OW51131   2.859   0.512   7.605 -0.2754 -0.7402  0.0147
15334SOL    HW151132   2.856   0.557   7.520 -0.3668  0.8664  0.8544
15334SOL    HW251133   2.915   0.436   7.590  1.5796  0.7745 -0.8980
15335SOL     OW51134   0.777   8.062  10.852 -0.3666  0.6728  0.2245
15335SOL    HW151135   0.848   8.017  10.807  0.0992  2.0718 -0.4457
15335SOL    HW251136   0.753   8.134  10.794 -1.2938  1.1287  1.1587
15336SOL     OW51137   2.698   8.181  10.625 -0.5332  0.2297 -0.4327
15336SOL    HW151138   2.754   8.258  10.613  0.0924 -0.0954  0.3484
15336SOL    HW251139   2.671   8.157  10.537  1.5555 -0.3359 -0.9485
15337SOL     OW51140   5.737   7.764   9.431 -0.6748  0.0098  0.2611
15337SOL    HW151141   5.775   7.847   9.459 -0.5737 -0.1037  0.4610
15337SOL    HW251142   5.792   7.697   9.471 -1.3890 -0.1619  0.9772
15338SOL     OW51143   6.625   2.417   7.548  0.0652 -0.5725  0.2012
15338SOL    HW151144   6.628   2.322   7.546  0.8568 -0.5570  0.3869
15338SOL    HW251145   6.540   2.438   7.585  0.3458 -1.2251  1.2287
15339SOL     OW51146   0.694   0.927   8.052  1.0245 -0.2040 -0.1947
15339SOL    HW151147   0.789   0.924   8.063  0.9667  2.9683  1.9225
15339SOL    HW251148   0.681   0.964   7.965  1.7134 -0.6682 -0.4986
15340SOL     OW51149  10.593   9.192   6.566  0.3203  0.0928 -0.4723
15340SOL    HW151150  10.602   9.241   6.485 -1.2195 -0.5103 -1.0374
15340SOL    HW251151  10.616   9.102   6.543  2.0321  0.3172  0.2921
15341SOL     OW51152   9.450   9.107   1.629 -0.6443 -0.5361 -0.4894
15341SOL    HW151153   9.514   9.078   1.694  0.9932 -0.9253 -2.2214
15341SOL    HW251154   9.366   9.073   1.661 -0.2422  1.1476  2.5394
15342SOL     OW51155   6.645  10.423   4.852 -0.3825  0.1211  0.1082
15342SOL    HW151156   6.740  10.424   4.841 -0.4352 -0.8439 -0.5655
15342SOL    HW251157   6.613  10.483   4.785 -0.2767 -0.0370 -0.0855
15343SOL     OW51158   9.315   7.592  10.064 -0.0411  0.3494 -0.3826
15343SOL    HW151159   9.246   7.644  10.021 -0.7381  0.7252  1.1481
15343SOL    HW251160   9.387   7.654  10.076 -0.5530  0.7511  0.6772
15344SOL     OW51161   5.410   4.590   3.839 -0.2586  0.0864 -0.1884
15344SOL    HW151162   5.422   4.495   3.836 -1.3028 -0.0448 -0.3796
15344SOL    HW251163   5.432   4.620   3.751  1.9639  0.2727  0.3842
15345SOL     OW51164   3.402   0.435   7.985  0.1638  0.1500  0.0772
15345SOL    HW151165   3.421   0.524   7.956  0.7934 -0.8465 -2.7975
15345SOL    HW251166   3.335   0.445   8.053 -0.5842  2.7458 -0.9874
15346SOL     OW51167   3.924   8.730   9.294  0.6691  0.0355  0.0968
15346SOL    HW151168   3.979   8.660   9.330 -2.8422 -2.8667  0.1276
15346SOL    HW251169   3.892   8.777   9.371 -0.9627 -1.5327  0.4006
15347SOL     OW51170   9.038   3.276   4.740  0.4019  0.1619  0.2706
15347SOL    HW151171   8.992   3.340   4.794 -2.8520 -0.7053 -1.3740
15347SOL    HW251172   9.068   3.325   4.664 -0.4275  0.1261 -0.0810
15348SOL     OW51173   1.556   4.606   3.943 -0.0704 -0.2606  0.0757
15348SOL    HW151174   1.597   4.563   3.868 -0.5560 -2.5372  1.0951
15348SOL    HW251175   1.623   4.667   3.975 -0.2635  1.5710 -2.8511
15349SOL     OW51176   9.812   9.564  10.875 -0.1227  0.5144  0.1264
15349SOL    HW151177   9.770   9.540  10.958 -0.3176  0.0910 -0.0969
15349SOL    HW251178   9.746   9.547  10.808 -1.1572  4.0085  0.1712
15350SOL     OW51179  10.642   6.454   5.129  0.3634  0.1274  0.0015
15350SOL    HW151180  10.606   6.366   5.137 -0.5625  0.3139 -1.8922
15350SOL    HW251181  10.623   6.496   5.213  0.8880 -1.4848  0.9418
15351SOL     OW51182   9.077  11.232   8.167 -0.5234 -0.1492  0.4784
15351SOL    HW151183   9.128  11.304   8.203  0.2862  1.1573 -3.0487
15351SOL    HW251184   9.142  11.169   8.138 -0.8153  1.1592 -3.2964
15352SOL     OW51185   1.263   8.388   0.125 -0.5062  0.1811 -0.1747
15352SOL    HW151186   1.188   8.409   0.180  1.1966 -0.4019  2.4407
15352SOL    HW251187   1.330   8.451   0.150  0.3897 -0.2625 -1.4046
15353SOL     OW51188   0.966   6.024   4.295 -0.2534  0.0249  0.5767
15353SOL    HW151189   0.874   6.006   4.312 -0.2276  1.2677  2.0865
15353SOL    HW251190   1.013   5.969   4.357  0.0351 -0.4577 -0.0588
15354SOL     OW51191   9.879   9.975   1.756 -0.4957  0.2588  0.1059
15354SOL    HW151192   9.790   9.939   1.758 -0.7047  0.7085 -0.7992
15354SOL    HW251193   9.914   9.946   1.672 -0.6338  2.1021 -0.5983
15355SOL     OW51194   9.823   1.816   9.641 -0.0268 -0.1862 -0.2274
15355SOL    HW151195   9.792   1.797   9.729 -0.1895  0.2042 -0.1972
15355SOL    HW251196   9.850   1.731   9.605  1.7564 -0.0965  0.8504
15356SOL     OW51197   4.317   0.042   4.836  0.3870  0.4217 -0.3671
15356SOL    HW151198   4.346   0.044   4.927  0.2331  0.9982 -0.3273
15356SOL    HW251199   4.233  -0.003   4.838  0.7107 -0.1939 -0.3241
15357SOL     OW51200   9.987   9.985   3.176 -0.5857 -0.3027 -0.0048
15357SOL    HW151201  10.043   9.908   3.167  0.2589  0.3847 -0.5763
15357SOL    HW251202   9.903   9.957   3.138  0.0250 -0.6012 -1.1550
15358SOL     OW51203   7.316   9.364   8.916  0.1976  0.0915  0.2948
15358SOL    HW151204   7.233   9.358   8.963 -0.1967 -1.7390 -0.6065
15358SOL    HW251205   7.354   9.276   8.923  1.9148  0.8209  0.4174
15359SOL     OW51206   5.235  10.727  10.470  0.5938 -0.0879  0.0177
15359SOL    HW151207   5.323  10.698  10.496  1.3024  1.7739 -0.2637
15359SOL    HW251208   5.186  10.731  10.552  1.1551  0.1433  0.3454
15360SOL     OW51209   0.686   8.265   3.977 -0.8196 -0.6170 -0.1732
15360SOL    HW151210   0.610   8.296   4.026 -0.0147 -0.0681  0.7223
15360SOL    HW251211   0.746   8.339   3.975 -0.4545 -0.9212 -1.2127
15361SOL     OW51212   0.665   7.768   1.730  0.1797  0.3937 -0.2862
15361SOL    HW151213   0.723   7.834   1.691  0.0845 -0.3135 -1.6587
15361SOL    HW251214   0.590   7.765   1.670  1.0564 -2.3191 -1.3135
15362SOL     OW51215  10.962   4.571   9.417  0.1211 -0.6021  1.3548
15362SOL    HW151216  10.921   4.652   9.447  2.4183  1.0122  0.2800
15362SOL    HW251217  10.895   4.529   9.363 -1.2357  0.3918  2.2524
15363SOL     OW51218   3.368   0.801   0.097 -0.1945 -0.2408 -0.4035
15363SOL    HW151219   3.391   0.889   0.065 -2.4815 -0.5039 -2.9291
15363SOL    HW251220   3.442   0.747   0.071  0.7772  0.7161  0.2804
15364SOL     OW51221   6.864   5.091   8.603  0.3791  0.5241  0.4226
15364SOL    HW151222   6.822   5.158   8.548  0.4266  1.1596  1.1596
15364SOL    HW251223   6.954   5.122   8.612  1.1196 -0.9758 -1.3920
15365SOL     OW51224  11.254   5.545   0.389 -0.3708  0.2180 -0.0994
15365SOL    HW151225  11.253   5.591   0.472 -1.0682  0.6708 -0.3500
15365SOL    HW251226  11.178   5.580   0.341 -1.0507 -1.3422 -0.2025
15366SOL     OW51227   1.288   2.396   0.074 -0.1415 -0.0563 -0.4425
15366SOL    HW151228   1.329   2.475   0.108 -2.1856  1.6522 -1.7864
15366SOL    HW251229   1.291   2.333   0.146 -0.1157  1.8589  1.2586
15367SOL     OW51230   2.368  10.221   6.424 -0.8403  0.2075  1.2158
15367SOL    HW151231   2.291  10.212   6.480 -1.1186  3.6861  1.4815
15367SOL    HW251232   2.427  10.151   6.453 -3.4024 -1.8200  1.7406
15368SOL     OW51233   9.284  10.622   0.758 -0.1772 -0.0969 -0.0187
15368SOL    HW151234   9.219  10.682   0.794  0.0972 -1.0329  2.0997
15368SOL    HW251235   9.234  10.549   0.724 -0.2751 -0.8569  1.6879
15369SOL     OW51236   0.620   8.402   4.549 -0.0312 -1.2643  0.3955
15369SOL    HW151237   0.624   8.462   4.624 -0.4050  1.5598 -1.7344
15369SOL    HW251238   0.704   8.414   4.504 -1.3142  0.0962 -1.7633
15370SOL     OW51239   3.088   9.930   8.985 -0.1543  0.1891 -0.0174
15370SOL    HW151240   3.008   9.973   9.014 -1.0786  0.3089 -2.6196
15370SOL    HW251241   3.136   9.912   9.066 -3.5140 -1.3721  1.7614
15371SOL     OW51242   3.909   1.785   8.275  0.6859 -0.1580 -0.9201
15371SOL    HW151243   3.909   1.703   8.225  0.4166 -0.1146 -0.9962
15371SOL    HW251244   3.816   1.803   8.290  0.4726  2.3116 -4.5639
15372SOL     OW51245   5.330   9.913   8.417 -0.0993  0.0061 -0.2675
15372SOL    HW151246   5.314   9.917   8.323  0.1929 -0.6642 -0.3500
15372SOL    HW251247   5.421   9.883   8.425 -0.5267 -1.2191  0.2272
15373SOL     OW51248   3.853   0.301   9.712 -0.1583  0.1724  0.5274
15373SOL    HW151249   3.941   0.293   9.674 -0.0434  0.7227  0.6805
15373SOL    HW251250   3.855   0.246   9.790 -0.8329 -2.1584 -1.0289
15374SOL     OW51251   5.516  10.100   2.888  0.3112  0.5375  0.4143
15374SOL    HW151252   5.585  10.166   2.898 -0.7881  2.2638 -2.7412
15374SOL    HW251253   5.441  10.149   2.855 -1.3167 -1.9078  0.3522
15375SOL     OW51254   4.607   6.231   6.781  0.3040  0.3222 -0.5744
15375SOL    HW151255   4.660   6.176   6.723 -3.6952 -2.6905 -1.7002
15375SOL    HW251256   4.560   6.168   6.836 -1.2321  2.8365  1.0901
15376SOL     OW51257   5.447   1.496   4.710  0.0247 -0.9017 -0.2935
15376SOL    HW151258   5.409   1.432   4.770 -3.1132 -0.6358 -1.8950
15376SOL    HW251259   5.448   1.578   4.759 -3.8837 -0.3543 -0.9783
15377SOL     OW51260  11.261   7.019   4.225 -0.7262 -0.3117 -0.3662
15377SOL    HW151261  11.318   6.968   4.168  0.8482 -1.4248  2.0713
15377SOL    HW251262  11.176   7.019   4.182  0.9224  0.8666 -3.8241
15378SOL     OW51263   2.160   8.641   2.076  0.4814  0.2650  0.1440
15378SOL    HW151264   2.101   8.692   2.132  0.8504 -0.0448  0.8302
15378SOL    HW251265   2.244   8.644   2.121  0.7883  0.0169 -0.4057
15379SOL     OW51266   6.975   7.887   1.662  0.0510  0.0882  0.4897
15379SOL    HW151267   6.970   7.794   1.684  0.9158 -0.5739 -1.8981
15379SOL    HW251268   6.886   7.910   1.635 -0.0378 -0.1866  0.5417
15380SOL     OW51269   9.749   8.809   5.122 -0.0613 -0.1332 -0.3108
15380SOL    HW151270   9.825   8.866   5.131 -1.3367  1.2596  1.8520
15380SOL    HW251271   9.727   8.813   5.029  2.2529 -0.2473 -0.8857
15381SOL     OW51272   7.380   4.251   1.152 -0.4484 -0.0992 -0.0289
15381SOL    HW151273   7.313   4.311   1.184 -0.3824 -0.2185  0.3360
15381SOL    HW251274   7.459   4.275   1.200 -0.0558  0.5063 -0.9800
15382SOL     OW51275   4.084   9.928   7.775  0.1031  0.3877 -0.3742
15382SOL    HW151276   4.041  10.013   7.766 -0.6173 -0.0759 -1.4228
15382SOL    HW251277   4.064   9.882   7.693  0.5004 -0.7857  0.1713
15383SOL     OW51278   0.897   7.670   6.566 -0.3284  0.5676 -0.0148
15383SOL    HW151279   0.989   7.645   6.562 -1.0079 -1.9104 -1.3578
15383SOL    HW251280   0.894   7.757   6.526  1.6575  1.5404  1.8132
15384SOL     OW51281   1.797  11.047   8.154 -0.8025  0.1024 -0.2952
15384SOL    HW151282   1.758  11.128   8.186  0.8606  0.5044  0.7989
15384SOL    HW251283   1.821  11.000   8.234  0.5832 -0.2920 -0.9419
15385SOL     OW51284   9.585   9.264   8.788 -0.5516 -0.0016 -0.0299
15385SOL    HW151285   9.582   9.345   8.839  0.7678  0.8095 -1.2235
15385SOL    HW251286   9.582   9.292   8.697 -2.4043 -1.4241 -0.4242
15386SOL     OW51287   2.023   6.547   8.470  0.6304  0.8563 -0.3126
15386SOL    HW151288   2.042   6.492   8.394  0.5556  0.9683 -0.4122
15386SOL    HW251289   2.079   6.624   8.459 -1.0827  1.9730 -1.4872
15387SOL     OW51290  11.061   3.770   8.131 -0.7484  0.2755  0.1088
15387SOL    HW151291  11.067   3.806   8.220  2.7023  0.0561  0.0519
15387SOL    HW251292  11.016   3.686   8.142 -1.2324  0.7071  1.5067
15388SOL     OW51293   8.377   5.591   1.385  0.3570  0.3027 -0.0831
15388SOL    HW151294   8.349   5.566   1.473 -1.5424 -1.0568 -1.0264
15388SOL    HW251295   8.428   5.517   1.353 -0.6730 -0.0950 -0.8531
15389SOL     OW51296   4.188   1.876   2.631  0.8622 -0.0755 -0.1950
15389SOL    HW151297   4.268   1.921   2.602  1.2608 -0.4518  0.2969
15389SOL    HW251298   4.204   1.784   2.611  0.6405 -0.1797  0.0953
15390SOL     OW51299   8.969   5.583   6.463  0.0991  0.4087 -0.0999
15390SOL    HW151300   9.062   5.581   6.486  0.1908  0.4423 -0.4751
15390SOL    HW251301   8.927   5.533   6.534  0.2304  1.6277  0.8517
15391SOL     OW51302   4.545  10.886   9.999  0.4927  0.1670 -0.9207
15391SOL    HW151303   4.484  10.919   9.933 -0.9063 -0.6873 -0.0886
15391SOL    HW251304   4.567  10.798   9.968 -2.3143 -1.3049  1.1188
15392SOL     OW51305   5.603   7.165   8.745  0.5194  0.1182  0.2183
15392SOL    HW151306   5.631   7.074   8.760 -1.8663 -1.0386 -1.9723
15392SOL    HW251307   5.548   7.186   8.819  2.3665  0.3782  1.5593
15393SOL     OW51308   1.576   0.165   7.400  0.0492 -0.2066  0.2836
15393SOL    HW151309   1.613   0.086   7.439 -0.5736 -0.1432  1.0254
15393SOL    HW251310   1.652   0.217   7.374  0.4864 -0.1918  1.5516
15394SOL     OW51311   5.461   6.408   4.706 -0.1434  0.7204 -0.0810
15394SOL    HW151312   5.511   6.353   4.766 -1.1748  0.1389  0.2469
15394SOL    HW251313   5.515   6.411   4.627  1.6289  2.2082  1.1662
15395SOL     OW51314  11.057   3.925   7.894  0.1028 -0.5206  0.3471
15395SOL    HW151315  11.037   3.888   7.980 -1.8532  2.5671  1.2904
15395SOL    HW251316  11.149   3.901   7.879 -0.6098 -4.2907  1.5692
15396SOL     OW51317  10.079   7.096   7.827  0.7655  0.5790 -0.6178
15396SOL    HW151318  10.019   7.077   7.754  0.5115 -0.2864 -0.1991
15396SOL    HW251319  10.149   7.148   7.788 -0.0663  1.2719 -1.1943
15397SOL     OW51320  10.368   2.085   5.808 -0.1498 -0.2169 -0.1734
15397SOL    HW151321  10.402   2.009   5.855  0.1360 -0.1946 -0.3442
15397SOL    HW251322  10.438   2.150   5.812 -0.4799  0.1246  0.1658
15398SOL     OW51323   8.306   1.846   7.639  0.6173 -0.3252 -0.0950
15398SOL    HW151324   8.268   1.886   7.561 -2.7811  0.3823  1.8297
15398SOL    HW251325   8.276   1.756   7.638 -0.0609 -0.1144  0.7778
15399SOL     OW51326  10.524   0.716   6.214 -0.6433 -0.5067 -0.0668
15399SOL    HW151327  10.532   0.621   6.216 -1.0117 -0.6546 -3.0190
15399SOL    HW251328  10.542   0.739   6.123  2.0709  2.5198  1.1163
15400SOL     OW51329   8.473   4.887   6.514  0.2917 -0.6222 -0.4484
15400SOL    HW151330   8.554   4.934   6.497 -0.0003 -0.2275 -0.7716
15400SOL    HW251331   8.430   4.938   6.583  0.5350 -1.0905  0.0527
15401SOL     OW51332   6.012   2.741   2.435  0.3079 -0.1746  0.4011
15401SOL    HW151333   6.015   2.835   2.447  0.3693 -0.4665  3.0163
15401SOL    HW251334   6.099   2.718   2.402  0.8746  0.4892  1.4057
15402SOL     OW51335   7.863   8.166   3.976 -0.0395 -0.8711  0.0990
15402SOL    HW151336   7.873   8.115   3.896  0.2039 -0.9160  0.1596
15402SOL    HW251337   7.776   8.207   3.968  0.0772 -0.7014 -0.2855
15403SOL     OW51338   7.063   3.487   0.730 -0.3567  0.0740 -0.0403
15403SOL    HW151339   7.037   3.573   0.696  2.2027  0.4809 -1.1577
15403SOL    HW251340   7.101   3.442   0.654 -0.4810 -1.5409  0.8282
15404SOL     OW51341   1.119   7.779   1.257  0.1422 -0.1300  0.2757
15404SOL    HW151342   1.170   7.762   1.177  0.3165  1.1646  0.0999
15404SOL    HW251343   1.106   7.874   1.258 -0.0960 -0.1599  1.6489
15405SOL     OW51344   7.931   1.302   8.307 -0.2886  0.1869  0.7012
15405SOL    HW151345   7.990   1.278   8.236 -0.3481  1.0586  0.3552
15405SOL    HW251346   7.858   1.240   8.300 -1.0906  1.3108 -1.0120
15406SOL     OW51347   9.549   4.337   4.791  0.5252  0.9301  0.5599
15406SOL    HW151348   9.553   4.379   4.877 -2.6636  1.0081  0.7312
15406SOL    HW251349   9.534   4.244   4.811 -0.2961  0.9582  0.1198
15407SOL     OW51350   6.930   2.748   2.995  0.2545  0.2721  0.1525
15407SOL    HW151351   7.015   2.775   3.031 -0.2130  0.9320  0.7840
15407SOL    HW251352   6.886   2.830   2.974 -0.2111 -0.0719 -0.2151
15408SOL     OW51353   5.999   6.245   7.255  1.1473  0.3386 -0.2567
15408SOL    HW151354   6.005   6.203   7.170  0.4339 -1.4341  0.5379
15408SOL    HW251355   6.035   6.332   7.242  1.8015 -0.2052 -2.1729
15409SOL     OW51356   5.022  10.365   7.483  0.2371 -0.4728 -0.5158
15409SOL    HW151357   4.983  10.358   7.395  0.4599  1.3933 -0.7834
15409SOL    HW251358   4.947  10.376   7.541  0.1378 -0.8088 -0.5807
15410SOL     OW51359   2.454   2.880   4.862  0.3695  0.1149  0.2903
15410SOL    HW151360   2.395   2.935   4.810  0.3056 -0.8065 -0.6101
15410SOL    HW251361   2.541   2.899   4.826  0.5287  0.7618  0.9941
15411SOL     OW51362   1.259   6.877   5.921 -0.1008 -0.1219 -0.2611
15411SOL    HW151363   1.336   6.825   5.897  0.0395 -0.2449  0.4406
15411SOL    HW251364   1.190   6.812   5.933 -0.4312  0.0239 -1.3186
15412SOL     OW51365   2.177   4.277   0.046 -0.2635 -0.0782 -0.0601
15412SOL    HW151366   2.099   4.329   0.029 -1.0980 -0.6428  1.8803
15412SOL    HW251367   2.220   4.270  -0.039 -1.9457  0.8457 -1.0183
15413SOL     OW51368  11.007   6.088  11.085  0.0231  0.1992 -0.0751
15413SOL    HW151369  10.980   6.094  11.176  0.9838  0.7339  0.1823
15413SOL    HW251370  10.933   6.123  11.035  0.0875  1.3124  0.5892
15414SOL     OW51371   7.572   4.224   7.427 -0.4268  0.1150  0.3837
15414SOL    HW151372   7.564   4.133   7.457 -2.5455 -0.1861 -0.9678
15414SOL    HW251373   7.601   4.216   7.336  1.6024  0.8747  0.9546
15415SOL     OW51374   1.805   0.833   9.091  0.6964  0.1544  0.2078
15415SOL    HW151375   1.719   0.814   9.128 -0.5207  0.4270 -2.4253
15415SOL    HW251376   1.845   0.747   9.078 -0.8031 -0.2024 -2.3003
15416SOL     OW51377   4.475  10.972   6.995 -0.1465 -0.1337  0.0809
15416SOL    HW151378   4.400  10.936   7.041  0.0150 -0.4397  0.1039
15416SOL    HW251379   4.528  11.014   7.064 -0.5534  0.5338 -0.0048
15417SOL     OW51380   9.629   8.573   9.796 -0.5207 -0.4549 -0.2089
15417SOL    HW151381   9.693   8.566   9.867  1.1365  1.3490 -1.4945
15417SOL    HW251382   9.664   8.518   9.727 -1.4131 -1.0566 -0.2003
15418SOL     OW51383  10.817   8.719   2.871  0.1115 -0.2728 -0.1483
15418SOL    HW151384  10.859   8.774   2.937 -1.0795  0.9843 -0.4121
15418SOL    HW251385  10.872   8.728   2.793  2.2673 -2.7913  0.9721
15419SOL     OW51386  10.137   8.869  10.235 -0.0266  0.8714 -0.6169
15419SOL    HW151387  10.196   8.864  10.160 -0.6763 -1.3622 -0.9953
15419SOL    HW251388  10.068   8.929  10.207  0.0170  0.4666 -1.5977
15420SOL     OW51389   3.282   0.814   5.027  0.3685  0.3395  0.2704
15420SOL    HW151390   3.325   0.874   5.088 -0.8160  0.9395  0.5257
15420SOL    HW251391   3.261   0.867   4.950 -0.5693  0.2297  0.4425
15421SOL     OW51392  10.739   6.820   9.241  0.2229  0.3482  0.3830
15421SOL    HW151393  10.651   6.809   9.206  1.1061 -1.4349 -1.3966
15421SOL    HW251394  10.728   6.877   9.317 -2.1912  1.7413 -0.9556
15422SOL     OW51395   6.444   2.677  10.589  0.6248 -0.4386  0.2861
15422SOL    HW151396   6.526   2.641  10.556  1.3375  1.3047  0.0840
15422SOL    HW251397   6.381   2.663  10.519  1.4032  0.5364 -0.6315
15423SOL     OW51398   4.465   9.527   1.697 -0.4759  0.0709  0.0717
15423SOL    HW151399   4.494   9.530   1.605 -0.2132 -0.6485  0.1349
15423SOL    HW251400   4.443   9.436   1.712 -2.2689  0.5139  0.1870
15424SOL     OW51401   5.395  10.726   3.587 -0.3244 -0.4132 -0.1170
15424SOL    HW151402   5.311  10.680   3.588 -1.2347  1.1473 -1.7020
15424SOL    HW251403   5.382  10.802   3.644 -0.8363  1.1684 -2.2452
15425SOL     OW51404   2.515   0.537   2.275 -0.1720  0.0300  0.3593
15425SOL    HW151405   2.449   0.512   2.211 -0.6047  2.0636 -0.0160
15425SOL    HW251406   2.467   0.544   2.358 -0.3008  0.9366  0.2031
15426SOL     OW51407   0.998   4.299   4.473 -0.1483 -0.1133  0.7654
15426SOL    HW151408   1.011   4.385   4.514 -1.6244 -0.8033  2.7705
15426SOL    HW251409   0.906   4.280   4.487  0.0757 -1.8260 -0.0564
15427SOL     OW51410   3.395   3.954  10.014 -0.0221  0.3370 -0.2540
15427SOL    HW151411   3.448   3.900  10.072 -1.1526 -0.8999 -0.3352
15427SOL    HW251412   3.397   3.909   9.929  0.5167  1.4056 -0.8201
15428SOL     OW51413   3.304   6.610   8.461  0.1025  0.2917 -0.1588
15428SOL    HW151414   3.211   6.605   8.485  0.1470 -0.4942 -0.1331
15428SOL    HW251415   3.346   6.543   8.515  1.1081  2.4303  1.7623
15429SOL     OW51416   0.800   7.256   2.773 -0.1681 -0.0410  0.5609
15429SOL    HW151417   0.851   7.292   2.700  2.4246 -0.9702  1.8626
15429SOL    HW251418   0.766   7.173   2.739  1.1312 -0.5290  0.4339
15430SOL     OW51419   0.257   6.693   0.996 -0.1686  0.0080 -0.0368
15430SOL    HW151420   0.238   6.705   1.089  2.2348  0.6522  0.4129
15430SOL    HW251421   0.314   6.767   0.973  0.8508 -1.1946 -1.5065
15431SOL     OW51422   3.236   6.631   1.581 -0.1700  0.6024 -0.1111
15431SOL    HW151423   3.315   6.676   1.553  0.6355  0.4145  1.8027
15431SOL    HW251424   3.255   6.602   1.670 -1.3104 -1.9945 -0.6572
15432SOL     OW51425   2.726   7.397   3.662 -0.3648 -0.4252  0.4872
15432SOL    HW151426   2.632   7.398   3.643  0.0728  0.1006 -1.6916
15432SOL    HW251427   2.768   7.385   3.577  1.5425 -0.9263  1.4775
15433SOL     OW51428   2.513  10.244   3.924 -0.0678  0.1332  0.7131
15433SOL    HW151429   2.465  10.166   3.953 -1.0601  1.9501  4.2252
15433SOL    HW251430   2.445  10.308   3.904  0.7684  1.0923  0.8712
15434SOL     OW51431   9.254  10.581  10.058 -0.4482 -0.2594 -0.0473
15434SOL    HW151432   9.162  10.562  10.040 -0.6579  1.4566 -0.8481
15434SOL    HW251433   9.295  10.586   9.972  0.5591 -1.7510  0.3273
15435SOL     OW51434   4.913   5.264   9.651 -0.6950  0.1991 -0.2958
15435SOL    HW151435   4.885   5.174   9.667 -0.9635  0.5611  1.3879
15435SOL    HW251436   4.853   5.296   9.584 -1.5644 -0.4132  0.1739
15436SOL     OW51437   9.501   6.383   6.611  0.5582  0.0595 -0.2787
15436SOL    HW151438   9.426   6.379   6.670  0.5243 -0.9883 -0.3688
15436SOL    HW251439   9.499   6.471   6.575  0.2840  0.5361  0.9022
15437SOL     OW51440   9.851   6.641   7.991 -0.1882 -0.6077 -0.3772
15437SOL    HW151441   9.911   6.596   7.931  0.6289 -0.8898  0.6359
15437SOL    HW251442   9.857   6.591   8.073 -1.5460 -0.4225 -0.1670
15438SOL     OW51443   7.758   7.056   2.813  0.0130 -0.0186 -0.2465
15438SOL    HW151444   7.701   7.064   2.889  1.1983  0.3619  0.6307
15438SOL    HW251445   7.751   6.964   2.788 -0.9200  0.0076 -0.1070
15439SOL     OW51446   9.611   6.730  10.775  0.2978  0.1103 -0.0665
15439SOL    HW151447   9.647   6.692  10.855  2.0335  0.7571 -0.5245
15439SOL    HW251448   9.535   6.780  10.805  0.0498 -0.8769  0.9778
15440SOL     OW51449   4.406   3.699   6.651  0.1198  0.0115  0.2918
15440SOL    HW151450   4.311   3.692   6.644  0.1977  0.0211 -0.8951
15440SOL    HW251451   4.438   3.618   6.610  0.6419  0.4388 -0.1420
15441SOL     OW51452   1.779   5.960   3.885 -0.5368 -0.5989 -0.4357
15441SOL    HW151453   1.868   5.928   3.868  0.0311 -0.2844  1.7137
15441SOL    HW251454   1.778   6.049   3.849  0.3858 -0.2148  0.4366
15442SOL     OW51455   7.818   8.520  10.794 -0.7728 -0.1188 -0.5743
15442SOL    HW151456   7.774   8.514  10.879  0.3977  0.6999  0.1105
15442SOL    HW251457   7.900   8.565  10.813 -0.4460 -0.0286 -2.1306
15443SOL     OW51458   9.612  10.834   4.906 -0.0893 -0.5052  0.3656
15443SOL    HW151459   9.598  10.766   4.840  1.5015 -1.1681  0.6962
15443SOL    HW251460   9.555  10.906   4.878 -0.2874 -1.2109 -1.1071
15444SOL     OW51461   2.108   1.690   4.638  0.0354  0.4441  0.0288
15444SOL    HW151462   2.171   1.641   4.690  0.5728  1.2597  0.1618
15444SOL    HW251463   2.107   1.645   4.553  1.2618  0.7813 -0.1797
15445SOL     OW51464   0.240  10.037   4.018 -0.1264  0.4069 -0.3152
15445SOL    HW151465   0.257   9.985   3.939  0.6509  0.8351 -0.4388
15445SOL    HW251466   0.261   9.977   4.090 -0.6653  0.0707 -0.4336
15446SOL     OW51467   2.214   4.230   6.703 -0.0982  0.2645  0.5188
15446SOL    HW151468   2.290   4.224   6.645  0.0078  2.4557  0.3669
15446SOL    HW251469   2.216   4.150   6.755  1.8674 -0.0710 -0.0445
15447SOL     OW51470   5.072   8.407   4.319 -0.3495  0.4685 -0.2289
15447SOL    HW151471   5.078   8.479   4.382  1.7446 -0.1749  0.3497
15447SOL    HW251472   5.051   8.331   4.373 -0.3729  0.2379 -0.5603
15448SOL     OW51473   5.220  11.097  11.135 -0.6802  0.1273  0.5348
15448SOL    HW151474   5.182  11.143  11.209  0.4114 -0.1213  1.2588
15448SOL    HW251475   5.293  11.152  11.107 -1.6297  0.6699 -0.9281
15449SOL     OW51476   4.499   6.443   7.573 -0.0060  0.4389 -0.1165
15449SOL    HW151477   4.538   6.453   7.486 -1.4780 -0.2236 -0.8621
15449SOL    HW251478   4.546   6.507   7.627  1.6045  0.1716 -1.1499
15450SOL     OW51479   0.050   1.875   8.544 -0.1581  0.0166  0.5394
15450SOL    HW151480   0.107   1.913   8.610 -0.2019  1.9191 -0.4674
15450SOL    HW251481   0.109   1.826   8.487 -0.2435 -2.4211  2.4965
15451SOL     OW51482   1.833  10.339   4.677 -0.6538 -0.1352  0.3542
15451SOL    HW151483   1.873  10.253   4.661  0.0989  0.6899 -2.5184
15451SOL    HW251484   1.899  10.387   4.728 -0.2107 -0.5789  0.2053
15452SOL     OW51485   4.881  10.131   3.688 -0.0635 -0.1560  0.3522
15452SOL    HW151486   4.894  10.061   3.625  0.4875  0.2237  0.0401
15452SOL    HW251487   4.801  10.175   3.660 -0.8652 -1.1652  1.0280
15453SOL     OW51488   6.413   5.147   6.607 -0.6744 -0.3313 -0.0283
15453SOL    HW151489   6.349   5.093   6.560 -0.7906 -0.9269  0.8208
15453SOL    HW251490   6.413   5.230   6.559 -1.6025 -0.5551 -0.4234
15454SOL     OW51491   0.255   0.359   4.882 -0.7002 -0.0299 -0.4558
15454SOL    HW151492   0.303   0.434   4.846 -0.2912  0.2633  0.6983
15454SOL    HW251493   0.237   0.382   4.973  0.4908 -1.8350  0.2739
15455SOL     OW51494  10.956  10.257  11.210 -0.2499  0.3266 -0.4593
15455SOL    HW151495  11.026  10.235  11.149  1.6470 -0.7627  2.0050
15455SOL    HW251496  10.899  10.317  11.161  0.6995 -1.1725 -3.5424
15456SOL     OW51497  10.544   0.898   9.156 -0.2661  0.0317  0.2355
15456SOL    HW151498  10.560   0.992   9.167  0.9494 -0.1346  0.0044
15456SOL    HW251499  10.465   0.881   9.207 -0.6972  1.2502 -0.0212
15457SOL     OW51500   4.402   5.123   9.057  0.3719  0.4288 -0.1722
15457SOL    HW151501   4.308   5.110   9.071  0.6515 -1.3545  0.1729
15457SOL    HW251502   4.436   5.036   9.038  1.8253  1.1935 -1.1657
15458SOL     OW51503   1.295   4.218   1.324 -0.2353 -0.7856  0.0414
15458SOL    HW151504   1.257   4.277   1.389 -2.3666 -2.0142 -0.0815
15458SOL    HW251505   1.378   4.260   1.301  0.1741  0.1041  2.9067
15459SOL     OW51506   7.451   5.643   3.542 -0.1228  0.5980 -0.4889
15459SOL    HW151507   7.404   5.560   3.544  0.3128  0.3567 -0.2262
15459SOL    HW251508   7.385   5.709   3.564 -0.9963  0.5707 -2.8739
15460SOL     OW51509   9.551   6.013   7.481  0.1301 -0.1459  0.7505
15460SOL    HW151510   9.523   6.022   7.390  0.7090  0.5525  0.6366
15460SOL    HW251511   9.604   5.933   7.482  0.0413 -0.2075  0.4862
15461SOL     OW51512   2.632  10.107   6.497 -0.4542  0.0198  0.0141
15461SOL    HW151513   2.677  10.134   6.578  0.2382  2.4322 -1.1409
15461SOL    HW251514   2.698  10.057   6.450 -0.0922  0.5880 -0.0927
15462SOL     OW51515   9.918   8.936   3.250 -0.0093  0.0646 -0.2912
15462SOL    HW151516   9.996   8.989   3.235 -0.0837  0.0693 -0.6703
15462SOL    HW251517   9.848   9.000   3.265 -0.1242  0.0764 -0.8712
15463SOL     OW51518   2.032   6.715  11.246  0.7738  0.3778 -0.4709
15463SOL    HW151519   2.096   6.715  11.317 -0.5642  0.8841  0.7628
15463SOL    HW251520   1.966   6.652  11.272 -1.5762  3.1058  0.4986
15464SOL     OW51521   0.390   4.613   4.060 -0.0835 -0.1224  0.3429
15464SOL    HW151522   0.328   4.629   3.989  0.5042 -2.2031 -0.6763
15464SOL    HW251523   0.458   4.680   4.047 -1.5582  1.5364  0.8805
15465SOL     OW51524   7.128   9.716   4.999 -0.2304  0.0920 -0.0248
15465SOL    HW151525   7.135   9.711   4.903 -1.2995  1.8836 -0.2269
15465SOL    HW251526   7.067   9.645   5.022  1.0884 -1.2309 -0.5072
15466SOL     OW51527   3.310   1.738   7.483  0.4395 -0.3018  1.0383
15466SOL    HW151528   3.321   1.822   7.528  1.2819 -0.0683  0.4087
15466SOL    HW251529   3.341   1.754   7.394 -1.1456 -0.7779  0.3722
15467SOL     OW51530  10.030   0.790   9.976 -0.3435 -0.3379  0.3432
15467SOL    HW151531  10.119   0.807  10.007 -0.2045  0.0602 -0.2504
15467SOL    HW251532  10.032   0.699   9.947  0.2518  0.0512 -0.8983
15468SOL     OW51533   6.015   0.067   3.402 -0.2312  0.1243 -0.3830
15468SOL    HW151534   6.033   0.003   3.471  1.8736  2.1484  0.9823
15468SOL    HW251535   6.075   0.043   3.331  0.9375  0.8808  0.3369
15469SOL     OW51536   4.935   9.673   2.158 -0.2048  0.1350  0.8501
15469SOL    HW151537   5.006   9.634   2.209  0.6046 -0.1713 -0.5031
15469SOL    HW251538   4.880   9.715   2.224 -0.4930 -2.2992  2.2238
15470SOL     OW51539   7.864   6.224   0.873  0.1873 -0.2043 -0.2480
15470SOL    HW151540   7.902   6.178   0.947  0.6234 -0.2870 -0.5165
15470SOL    HW251541   7.779   6.255   0.904  0.2308 -0.5131  0.1791
15471SOL     OW51542  10.046   4.086   3.163  0.3282 -0.0839  0.2608
15471SOL    HW151543  10.086   4.164   3.201  0.2325 -0.7574  1.7818
15471SOL    HW251544   9.993   4.050   3.233  1.9533 -2.6497  0.2403
15472SOL     OW51545   4.476   2.040   8.806 -0.5973  0.3259 -0.2383
15472SOL    HW151546   4.426   2.004   8.880 -0.3446 -0.4507 -0.4412
15472SOL    HW251547   4.452   1.984   8.732  0.0719  0.3609 -0.4816
15473SOL     OW51548   8.143   2.751  10.380 -0.5788  0.1230  0.2883
15473SOL    HW151549   8.190   2.801  10.314 -1.8878 -0.8376 -1.4260
15473SOL    HW251550   8.056   2.790  10.383 -1.3874 -1.5154 -0.5568
15474SOL     OW51551   4.718   2.626   8.426 -0.0163  0.2850  0.6099
15474SOL    HW151552   4.741   2.549   8.478  1.2139  0.5041  0.4135
15474SOL    HW251553   4.766   2.698   8.467 -1.9748  1.1613  1.4194
15475SOL     OW51554   8.675   9.200   9.313  0.0136  0.4044  0.3966
15475SOL    HW151555   8.746   9.211   9.376 -0.5793 -0.5557  1.2424
15475SOL    HW251556   8.595   9.203   9.365 -0.4993 -0.0720 -0.3533
15476SOL     OW51557   3.042   7.750  10.910 -0.2366 -0.5051 -0.2398
15476SOL    HW151558   3.038   7.660  10.941 -0.5512 -0.5169 -0.3090
15476SOL    HW251559   3.066   7.801  10.987  1.7163 -0.8532 -0.6002
15477SOL     OW51560   9.503   7.249   5.877 -0.1094  0.0754  0.5585
15477SOL    HW151561   9.534   7.308   5.946 -2.3524 -0.0837  1.7311
15477SOL    HW251562   9.409   7.240   5.893  0.0776 -3.3845  0.0662
15478SOL     OW51563   0.104   0.507   1.219  0.2281  0.2287 -0.0607
15478SOL    HW151564   0.040   0.441   1.193  1.3538 -0.2398 -1.7529
15478SOL    HW251565   0.052   0.585   1.238 -0.9763 -0.6472  0.3489
15479SOL     OW51566   4.051   7.798   0.401  0.5225  0.2989  0.6584
15479SOL    HW151567   4.113   7.837   0.340 -0.6345  2.0506  0.5491
15479SOL    HW251568   4.073   7.837   0.486  0.3596 -0.0099  0.8430
15480SOL     OW51569   4.655   0.980   9.789  0.0938 -0.8883  0.1669
15480SOL    HW151570   4.706   0.900   9.800 -1.3655 -1.9038 -0.2966
15480SOL    HW251571   4.573   0.951   9.747 -0.0809  0.9716 -0.8205
15481SOL     OW51572   1.522   6.688   6.146 -0.7272  0.1682 -0.5544
15481SOL    HW151573   1.540   6.653   6.233  1.4270  2.3209 -0.0629
15481SOL    HW251574   1.576   6.635   6.087 -1.2377 -0.4940 -0.4258
15482SOL     OW51575   3.754   3.970   6.113  0.5214 -0.7315 -0.1593
15482SOL    HW151576   3.792   3.915   6.045 -0.2148  0.6148 -1.6809
15482SOL    HW251577   3.826   4.027   6.140 -0.3348  1.8752 -3.1013
15483SOL     OW51578   6.843   4.050   0.334 -0.1871 -0.1942  0.0400
15483SOL    HW151579   6.854   4.028   0.427  0.4054 -1.3271 -0.2867
15483SOL    HW251580   6.765   4.002   0.307  0.7530 -1.4668 -0.5171
15484SOL     OW51581   7.809   3.303   5.398  0.3206 -0.3692  0.0840
15484SOL    HW151582   7.750   3.287   5.324  0.0191  1.1375 -0.0170
15484SOL    HW251583   7.863   3.377   5.370 -0.8237  1.2181  1.9667
15485SOL     OW51584  10.586   8.649  10.262  0.1538 -0.1793  0.7035
15485SOL    HW151585  10.517   8.587  10.284 -0.4000  0.1677 -0.0475
15485SOL    HW251586  10.550   8.701  10.191  1.4925 -0.5388 -0.2598
15486SOL     OW51587   5.076   6.489   4.531  0.2444 -0.0800 -0.1414
15486SOL    HW151588   5.003   6.446   4.487 -1.9111  1.1902  2.1353
15486SOL    HW251589   5.084   6.574   4.487  0.4050 -0.2485 -0.4388
15487SOL     OW51590   9.563   9.465   3.359 -0.3643  0.2652  0.1443
15487SOL    HW151591   9.587   9.529   3.425  1.0389  1.7089 -1.7173
15487SOL    HW251592   9.566   9.513   3.276 -2.8922 -1.2809 -0.9131
15488SOL     OW51593  11.248   2.327  11.005  0.1013  0.1091  0.5774
15488SOL    HW151594  11.203   2.375  10.936  0.2927 -0.5530 -0.0116
15488SOL    HW251595  11.205   2.242  11.007 -0.0413  0.2013  1.4116
15489SOL     OW51596   4.543   6.001   9.269  0.1922 -0.2531 -0.5051
15489SOL    HW151597   4.591   6.039   9.342  0.3844 -0.4995 -0.5021
15489SOL    HW251598   4.461   6.050   9.266 -0.9933 -1.9685  1.5768
15490SOL     OW51599   9.564   5.986   4.378 -0.0492 -0.5110 -0.1081
15490SOL    HW151600   9.473   5.979   4.407  0.2328 -1.8694  0.4530
15490SOL    HW251601   9.594   6.070   4.413 -0.4843 -0.9720  1.3898
15491SOL     OW51602   8.185   2.574   6.215 -0.4480 -0.4659  0.4098
15491SOL    HW151603   8.232   2.541   6.138  0.2369 -0.5598  0.8704
15491SOL    HW251604   8.144   2.656   6.184 -0.5773 -0.7510 -0.1890
15492SOL     OW51605   7.966  10.818   1.362 -0.1277 -0.1926  0.1756
15492SOL    HW151606   7.908  10.877   1.315 -0.5806 -1.1777 -0.5333
15492SOL    HW251607   7.944  10.731   1.329 -0.3487 -0.9042  2.1236
15493SOL     OW51608   1.567   0.632   6.413  0.2929 -0.2166  0.3825
15493SOL    HW151609   1.544   0.711   6.363 -0.9447 -1.1437 -0.5600
15493SOL    HW251610   1.633   0.588   6.359  0.4380 -0.2043  0.5488
15494SOL     OW51611  11.246   3.605   4.011  0.3208  0.1519  0.1129
15494SOL    HW151612  11.167   3.632   4.058  0.3576  0.2104  0.1434
15494SOL    HW251613  11.318   3.643   4.061  0.3728  0.0263  0.1336
15495SOL     OW51614   1.556   2.685   2.616  0.5239  0.1591  0.1924
15495SOL    HW151615   1.566   2.591   2.632 -0.6604 -0.2275 -1.2484
15495SOL    HW251616   1.542   2.722   2.703 -0.5767 -1.2179  0.6274
15496SOL     OW51617   4.947   1.198   5.650  0.0351  0.2651  0.0983
15496SOL    HW151618   4.927   1.173   5.560 -1.2015 -1.6247  0.8513
15496SOL    HW251619   4.863   1.227   5.686 -0.2893 -2.4459  1.6736
15497SOL     OW51620   1.986   0.992   3.761 -0.4483  0.0140 -0.3112
15497SOL    HW151621   1.983   0.960   3.850  1.1205  0.0160 -0.2474
15497SOL    HW251622   2.067   1.043   3.756 -0.3060 -0.3355 -1.8452
15498SOL     OW51623   7.061  10.503   8.414  0.7054  0.5445  0.0641
15498SOL    HW151624   7.027  10.433   8.358  0.0986  1.7590 -1.1005
15498SOL    HW251625   7.123  10.459   8.471  0.1480 -1.0028 -0.4857
15499SOL     OW51626   8.327   8.834   2.378  0.1142  0.5462  0.0692
15499SOL    HW151627   8.325   8.801   2.288 -0.3455 -0.1037  0.3141
15499SOL    HW251628   8.419   8.851   2.396  0.2411  0.3799 -0.4138
15500SOL     OW51629   9.011   3.539   5.912 -0.0877 -0.2737  0.1901
15500SOL    HW151630   9.066   3.518   5.837 -0.0699 -0.1609  0.1712
15500SOL    HW251631   8.980   3.454   5.943 -0.0806 -0.3222  0.0652
15501SOL     OW51632   8.140   1.370   5.652 -0.0434 -0.6579 -0.5280
15501SOL    HW151633   8.092   1.294   5.684  0.5811 -0.8982 -0.1363
15501SOL    HW251634   8.107   1.385   5.563 -2.0766  0.2651  0.3763
15502SOL     OW51635   3.138   4.933   2.666  0.7363  0.6339 -0.0129
15502SOL    HW151636   3.115   5.019   2.701  1.7974  1.2226 -0.7275
15502SOL    HW251637   3.154   4.949   2.573  0.6749 -0.3875 -0.2028
15503SOL     OW51638   2.235   8.677   9.735  0.4550  0.1326 -0.0163
15503SOL    HW151639   2.163   8.695   9.674  0.9370 -1.7630 -1.1797
15503SOL    HW251640   2.192   8.638   9.811  0.1839 -0.4625 -0.4707
15504SOL     OW51641   9.176   2.494   4.450  0.6286 -0.1089 -0.4684
15504SOL    HW151642   9.104   2.466   4.506 -0.9724  2.6621 -1.0436
15504SOL    HW251643   9.248   2.435   4.472 -0.6655 -0.5929  2.8272
15505SOL     OW51644  10.001   3.543   9.952 -0.1286  0.0173  0.5790
15505SOL    HW151645  10.036   3.524   9.864 -1.2437  1.3124 -0.1565
15505SOL    HW251646  10.043   3.626   9.976  0.3326 -0.4375  1.3791
15506SOL     OW51647   6.854   4.992   0.118 -0.2656  0.0877  0.0796
15506SOL    HW151648   6.783   5.020   0.060  0.2020  0.2437 -0.4334
15506SOL    HW251649   6.917   5.064   0.114  0.3464 -0.4574 -0.2100
15507SOL     OW51650   4.285   3.892   2.551 -0.0730  0.5262 -0.3937
15507SOL    HW151651   4.240   3.822   2.598  0.1622  0.4412 -0.2949
15507SOL    HW251652   4.329   3.942   2.620 -0.2051  0.7458 -0.4681
15508SOL     OW51653  10.610  10.602   1.233 -0.2239 -0.4224 -0.8560
15508SOL    HW151654  10.585  10.694   1.224 -0.7024 -0.4981 -0.3144
15508SOL    HW251655  10.560  10.571   1.308  0.8771 -0.7973 -0.2817
15509SOL     OW51656   9.459   1.005  10.482 -0.1446  0.3353  0.1336
15509SOL    HW151657   9.434   0.912  10.485 -0.2414  0.3757  0.8522
15509SOL    HW251658   9.483   1.025  10.573 -0.5483  1.1245  0.0689
15510SOL     OW51659  10.930   5.913   6.795  0.6548 -1.1407  0.1806
15510SOL    HW151660  10.892   5.830   6.766  2.0734 -1.6252 -0.3473
15510SOL    HW251661  10.978   5.946   6.718  0.5165 -0.0757  0.5369
15511SOL     OW51662   5.553   9.057   2.263  0.6187 -0.0239 -0.1480
15511SOL    HW151663   5.555   9.115   2.339  1.1706  0.4720 -0.5381
15511SOL    HW251664   5.486   9.094   2.206 -0.0280 -0.5824  0.2382
15512SOL     OW51665   3.560   7.944   4.251 -0.1214  0.3389  0.2048
15512SOL    HW151666   3.561   8.040   4.255 -0.6412  0.3821 -0.4911
15512SOL    HW251667   3.576   7.916   4.341 -0.4345  1.0823  0.4992
15513SOL     OW51668   2.788   0.308  11.197 -0.5093 -0.5451 -0.1889
15513SOL    HW151669   2.746   0.222  11.194  0.4121 -1.1853  2.7880
15513SOL    HW251670   2.882   0.288  11.196 -0.2876  0.4741 -0.1457
15514SOL     OW51671   8.602   2.112   7.513 -0.2373  0.0664 -0.0781
15514SOL    HW151672   8.639   2.114   7.425  0.6009 -0.7093  0.2402
15514SOL    HW251673   8.603   2.019   7.537 -0.0598  0.3177  0.9047
15515SOL     OW51674   1.579   1.612  10.049  0.3922  0.3506  0.5057
15515SOL    HW151675   1.563   1.574  10.136 -0.3195  0.5803  0.4795
15515SOL    HW251676   1.506   1.581   9.996  0.8419  0.1897 -0.0222
15516SOL     OW51677  10.214   5.406   1.763 -0.4033 -0.6003 -0.3586
15516SOL    HW151678  10.215   5.311   1.776  0.3870 -0.4456  0.8062
15516SOL    HW251679  10.176   5.440   1.844 -2.6639 -0.0347 -1.6199
15517SOL     OW51680   6.215   0.366   8.571 -0.2747 -0.0443  0.2091
15517SOL    HW151681   6.288   0.315   8.536  0.2849  1.0413 -0.2252
15517SOL    HW251682   6.138   0.313   8.552  0.3310 -0.8979  0.0882
15518SOL     OW51683   1.124   6.148   3.991  0.1469  0.0919 -0.3480
15518SOL    HW151684   1.093   6.223   4.042  1.3645 -0.2062  0.8609
15518SOL    HW251685   1.047   6.120   3.941 -1.1846  0.1576  1.6173
15519SOL     OW51686   2.749   1.303   6.096 -0.6874 -0.3391  0.0137
15519SOL    HW151687   2.757   1.307   6.001 -3.0973 -1.7941 -0.2997
15519SOL    HW251688   2.838   1.283   6.127 -0.2556 -1.7977 -2.0738
15520SOL     OW51689   1.348   2.417  10.797  0.3096  0.8560  0.2144
15520SOL    HW151690   1.378   2.484  10.859  0.8080 -1.1414  2.1884
15520SOL    HW251691   1.281   2.368  10.845  0.7735 -0.8124 -0.8051
15521SOL     OW51692   3.863   2.334  10.725  0.5024 -0.2808  0.1540
15521SOL    HW151693   3.785   2.331  10.780 -0.5495 -0.6821 -1.3200
15521SOL    HW251694   3.934   2.301  10.781 -0.4842 -0.4026  1.3424
15522SOL     OW51695   6.589   5.210   0.612  0.1319  0.1619 -0.2411
15522SOL    HW151696   6.645   5.240   0.683  0.1373  1.1519 -0.6542
15522SOL    HW251697   6.550   5.290   0.577  3.0948  0.1885 -3.8721
15523SOL     OW51698   7.455   8.110   4.801  0.1041 -0.4757 -0.1479
15523SOL    HW151699   7.513   8.180   4.830  1.6892 -1.6216 -0.4691
15523SOL    HW251700   7.462   8.111   4.705 -0.0069 -0.9363 -0.1634
15524SOL     OW51701   4.873   8.350   9.844 -0.3264 -0.3737 -0.4719
15524SOL    HW151702   4.830   8.274   9.881  2.5840 -2.4406 -1.1779
15524SOL    HW251703   4.834   8.359   9.757 -0.5403 -1.1766 -0.4640
15525SOL     OW51704   9.816   9.801   9.933  0.0808  0.2078 -0.2213
15525SOL    HW151705   9.863   9.856   9.996 -0.2677 -0.2400  0.4285
15525SOL    HW251706   9.728   9.794   9.967 -0.3436  0.6465 -1.1983
15526SOL     OW51707   1.875   2.521   6.595 -0.6625 -0.8241  0.8830
15526SOL    HW151708   1.862   2.598   6.650 -1.1618  0.2234 -0.6623
15526SOL    HW251709   1.872   2.555   6.505  0.0292 -2.5052  0.2010
15527SOL     OW51710   2.757   7.694   2.897 -0.0306 -0.4152 -0.4268
15527SOL    HW151711   2.773   7.787   2.915 -1.0992 -0.1128 -1.0351
15527SOL    HW251712   2.776   7.650   2.981  0.8702  0.2943 -0.2503
15528SOL     OW51713   6.945   6.354   6.513 -0.6094 -0.3153 -0.3076
15528SOL    HW151714   6.926   6.277   6.460  0.0507 -0.6743 -0.0237
15528SOL    HW251715   7.007   6.405   6.460 -0.3798 -0.4031 -0.1240
15529SOL     OW51716   0.878   7.851   6.833  0.0753  0.1459  0.4074
15529SOL    HW151717   0.840   7.779   6.782  0.5119  0.6914 -0.7023
15529SOL    HW251718   0.850   7.930   6.787  2.7344  0.5627 -0.6199
15530SOL     OW51719   7.266   1.976   4.529 -0.0648  0.2192  0.1398
15530SOL    HW151720   7.252   1.898   4.582  0.5263 -0.2147 -0.3273
15530SOL    HW251721   7.181   1.995   4.490 -0.1281 -0.4277 -0.0501
15531SOL     OW51722  10.000   0.841   6.751 -0.4514 -0.4805 -0.0352
15531SOL    HW151723   9.979   0.827   6.659 -0.6284  1.1427 -0.2694
15531SOL    HW251724   9.977   0.933   6.767  3.1793  0.4000  0.5803
15532SOL     OW51725   3.487   5.454   7.456  0.3636  0.0679 -0.2039
15532SOL    HW151726   3.560   5.394   7.440  0.9371  1.0512 -1.3597
15532SOL    HW251727   3.521   5.540   7.430 -0.8500  0.7032  0.2766
15533SOL     OW51728   7.117   9.833   8.052  1.0356  0.1686  0.0281
15533SOL    HW151729   7.179   9.820   8.124  0.6760 -0.3467  0.2508
15533SOL    HW251730   7.128   9.924   8.027  3.1930 -0.3673 -1.1469
15534SOL     OW51731   4.041   1.238   0.454  0.2980 -0.8340  0.3554
15534SOL    HW151732   4.114   1.187   0.490  0.0252 -1.5586 -0.0969
15534SOL    HW251733   3.993   1.270   0.530  1.3750  0.0689  0.6618
15535SOL     OW51734  10.319   9.015   6.661 -0.2227  0.1206 -0.6993
15535SOL    HW151735  10.353   8.994   6.574  0.2141  1.4523 -0.8552
15535SOL    HW251736  10.289   9.105   6.654  0.6068  0.5175  0.7677
15536SOL     OW51737   0.212   8.088   2.255  0.3361  0.4043 -0.3907
15536SOL    HW151738   0.148   8.154   2.282  0.7218 -0.0900  1.8452
15536SOL    HW251739   0.256   8.063   2.337  1.4079 -1.3362 -1.4750
15537SOL     OW51740   4.240   9.264   3.195 -0.0493  0.4002 -0.0895
15537SOL    HW151741   4.252   9.341   3.141 -0.5558 -1.1873 -2.5324
15537SOL    HW251742   4.152   9.274   3.233  0.5514  1.8088  0.9814
15538SOL     OW51743   3.623   1.829   8.314 -0.1615  0.0503 -0.6460
15538SOL    HW151744   3.620   1.879   8.233  0.9909  1.5051  0.1713
15538SOL    HW251745   3.536   1.839   8.352 -0.6966 -0.6227 -1.6866
15539SOL     OW51746   2.413   9.799   0.683 -0.1566 -0.4882  0.4900
15539SOL    HW151747   2.354   9.760   0.619 -0.7570 -0.5867  1.1016
15539SOL    HW251748   2.378   9.772   0.768  1.3582 -1.4507  0.8456
15540SOL     OW51749   7.516   0.156   5.343 -0.2274  0.1703 -0.0144
15540SOL    HW151750   7.428   0.120   5.326 -0.3146  0.9793 -1.3843
15540SOL    HW251751   7.570   0.119   5.273  0.2906  0.4927  0.2198
15541SOL     OW51752  11.048   2.233   2.654  0.0867 -0.0681  0.0315
15541SOL    HW151753  11.044   2.236   2.750  0.5314  2.0382  0.0166
15541SOL    HW251754  10.966   2.273   2.625  1.1049  1.7134 -0.4391
15542SOL     OW51755   1.469   1.133   6.284  0.6965 -0.0851 -0.2722
15542SOL    HW151756   1.546   1.130   6.227  0.0641  1.2654 -1.2222
15542SOL    HW251757   1.395   1.134   6.223  0.0357  3.6149  0.4868
15543SOL     OW51758   4.333   9.162   3.913 -1.1873 -0.3644  0.6676
15543SOL    HW151759   4.360   9.113   3.991 -1.3766 -0.9477  0.3686
15543SOL    HW251760   4.275   9.102   3.867  0.4930 -0.7663 -0.9615
15544SOL     OW51761   5.142   1.868   5.802 -0.1551  0.5791 -0.3519
15544SOL    HW151762   5.150   1.781   5.841 -0.8256  1.1950  1.1832
15544SOL    HW251763   5.087   1.854   5.724 -0.2039 -0.3824 -0.1553
15545SOL     OW51764   9.153   9.488   4.595  0.3175 -0.6190  0.2522
15545SOL    HW151765   9.089   9.554   4.569  1.1554  0.5751  1.1375
15545SOL    HW251766   9.230   9.506   4.540  0.2984 -1.3169 -0.0091
15546SOL     OW51767   2.411   6.683   9.439  0.2990 -0.1610  0.0229
15546SOL    HW151768   2.424   6.616   9.373 -0.0336  0.7434 -0.9724
15546SOL    HW251769   2.390   6.763   9.390  1.5046  0.8778  1.1390
15547SOL     OW51770  10.475   9.161   3.123  0.1191  0.0688  0.8495
15547SOL    HW151771  10.529   9.117   3.189 -0.0751  0.0612  1.0040
15547SOL    HW251772  10.478   9.103   3.047  0.4484  0.1403  0.8075
15548SOL     OW51773   3.927   4.317   4.403 -0.0563 -0.2867  0.3101
15548SOL    HW151774   3.929   4.395   4.458 -0.1131 -0.8649  1.1423
15548SOL    HW251775   3.872   4.255   4.451 -2.8499  0.3131 -1.9042
15549SOL     OW51776  10.683   7.190  10.854 -0.3832 -0.3153 -0.2620
15549SOL    HW151777  10.739   7.260  10.888 -1.8034  0.9190 -0.4135
15549SOL    HW251778  10.673   7.130  10.928 -0.4366  0.4630  0.3790
15550SOL     OW51779   9.914   5.672   7.369  0.8841 -0.2755 -0.0647
15550SOL    HW151780   9.880   5.682   7.280  1.0028  1.5969  0.0797
15550SOL    HW251781   9.889   5.583   7.394 -1.8735  0.2421 -0.8185
15551SOL     OW51782   1.849   2.434   0.548 -0.2177  0.1265 -0.6113
15551SOL    HW151783   1.844   2.361   0.610 -0.4858  0.2560 -0.4782
15551SOL    HW251784   1.938   2.468   0.559 -0.5720  0.7695  0.4201
15552SOL     OW51785   8.569  10.837  10.999  0.5763  0.3379  0.5456
15552SOL    HW151786   8.574  10.788  11.081  1.6975 -1.5136 -0.5945
15552SOL    HW251787   8.649  10.890  10.997  0.0320  1.1976  1.1303
15553SOL     OW51788   1.637   8.695   9.502  0.1629 -0.3009 -0.4150
15553SOL    HW151789   1.665   8.763   9.440  1.3098  0.6896  1.1709
15553SOL    HW251790   1.717   8.650   9.527 -0.3836 -1.1377 -0.1447
15554SOL     OW51791   7.683   5.227   5.725 -0.0671  0.2547 -0.1695
15554SOL    HW151792   7.737   5.287   5.777 -0.5453  0.1940  0.4098
15554SOL    HW251793   7.635   5.176   5.791 -0.0728 -0.3780 -0.6661
15555SOL     OW51794   5.440   8.803   3.704  0.6618 -0.0873  0.4923
15555SOL    HW151795   5.359   8.775   3.662 -0.2708  1.0158  1.5136
15555SOL    HW251796   5.482   8.722   3.731  0.8002 -0.7569 -1.6494
15556SOL     OW51797  11.334   3.352   4.064 -0.1049  0.5423 -0.9452
15556SOL    HW151798  11.303   3.436   4.032  1.2617  1.5822  0.4124
15556SOL    HW251799  11.339   3.362   4.159 -0.1148 -1.1372 -0.7423
15557SOL     OW51800   8.203   9.338   9.308 -0.4312  0.1716 -0.1160
15557SOL    HW151801   8.258   9.403   9.265 -2.0818  0.7170 -1.4405
15557SOL    HW251802   8.171   9.382   9.387 -0.6475  0.5899 -0.4342
15558SOL     OW51803   5.187   4.346   1.064  0.0551 -0.3344  0.1896
15558SOL    HW151804   5.249   4.358   1.136 -1.1129 -0.5092  1.2431
15558SOL    HW251805   5.197   4.255   1.039 -1.3711 -0.9852  1.8842
15559SOL     OW51806   7.663   1.643   2.337  0.0789 -0.3971 -0.8744
15559SOL    HW151807   7.668   1.548   2.329 -2.7517 -0.6355 -0.2232
15559SOL    HW251808   7.703   1.675   2.256 -0.5154 -2.1848 -1.9149
15560SOL     OW51809   6.204   3.188   8.264 -0.0302 -0.2315  0.2070
15560SOL    HW151810   6.224   3.281   8.280  0.7416 -0.2807 -0.4909
15560SOL    HW251811   6.204   3.179   8.169 -0.4866 -0.8658  0.2669
15561SOL     OW51812   9.595   7.995   6.300 -0.2858 -0.4807 -0.0284
15561SOL    HW151813   9.672   7.964   6.347 -0.0406  0.2682  0.0625
15561SOL    HW251814   9.521   7.953   6.345 -0.0640  0.3305  1.1100
15562SOL     OW51815   7.159   8.376   7.756 -0.0727 -0.2290  0.0621
15562SOL    HW151816   7.252   8.357   7.762 -0.5384 -2.0888  1.6354
15562SOL    HW251817   7.154   8.471   7.747  1.9260 -0.0639  0.6364
15563SOL     OW51818   8.298   6.969  11.283  0.7028  0.2088 -0.7279
15563SOL    HW151819   8.393   6.982  11.277  0.9915 -0.9505  0.9734
15563SOL    HW251820   8.274   7.009  11.366  0.1855 -2.1693  0.2758
15564SOL     OW51821   2.121   0.947   4.027  0.1036 -0.2979 -0.3955
15564SOL    HW151822   2.149   0.870   3.979 -0.9835 -0.8899 -0.0865
15564SOL    HW251823   2.138   0.926   4.119  2.3898  0.9162 -0.5077
15565SOL     OW51824   1.864   7.002   4.593  0.3971 -0.3963  0.1383
15565SOL    HW151825   1.871   6.941   4.667  0.5776  0.6814  1.0290
15565SOL    HW251826   1.770   7.016   4.582  0.3156 -1.5043 -0.6355
15566SOL     OW51827   4.223  10.046   4.261 -0.4581 -0.0469 -0.0905
15566SOL    HW151828   4.193   9.995   4.185 -1.2932  0.5092 -0.1322
15566SOL    HW251829   4.271   9.982   4.314 -2.6370 -1.2295  0.5265
15567SOL     OW51830   4.975  10.925   5.070 -0.3274  0.4149  0.0865
15567SOL    HW151831   4.960  10.834   5.045  0.5889 -0.3647  2.2627
15567SOL    HW251832   5.039  10.957   5.005  1.9093 -1.5127  1.2668
15568SOL     OW51833   3.954   5.704   0.016 -0.0945  0.1461 -0.0314
15568SOL    HW151834   4.045   5.735   0.015  0.5524 -1.7197 -0.1687
15568SOL    HW251835   3.919   5.733  -0.068 -0.0185  1.9444  0.5177
15569SOL     OW51836   7.418   2.637   1.197  0.0497  0.6283  0.0873
15569SOL    HW151837   7.385   2.559   1.241  2.0275  0.2374  0.9239
15569SOL    HW251838   7.491   2.606   1.143  0.5330  1.8086  0.0363
15570SOL     OW51839   5.722   1.815   0.400 -0.4526  0.4042 -0.2434
15570SOL    HW151840   5.755   1.846   0.316  0.1978 -0.1102 -0.1888
15570SOL    HW251841   5.786   1.846   0.464 -0.9127  0.7416  0.0490
15571SOL     OW51842   8.877   2.910   5.872  0.2176  0.1536  0.3909
15571SOL    HW151843   8.821   2.862   5.934 -0.7100  1.0384  0.2518
15571SOL    HW251844   8.845   2.883   5.786 -1.0014  1.8025  0.3115
15572SOL     OW51845  10.186   0.706   6.503 -0.3911 -0.1025  0.5909
15572SOL    HW151846  10.243   0.637   6.471 -2.1842 -1.8025  0.9893
15572SOL    HW251847  10.239   0.753   6.567  1.0991 -0.5984 -0.2571
15573SOL     OW51848   5.216   4.478   4.538  0.8636  0.0928  0.3197
15573SOL    HW151849   5.272   4.539   4.490  1.2633 -1.2796 -0.9861
15573SOL    HW251850   5.187   4.415   4.472  0.5616 -1.2027  1.6674
15574SOL     OW51851   7.706   8.205   4.540  0.3275 -0.1440 -0.3051
15574SOL    HW151852   7.714   8.112   4.562  3.2585  0.4773  1.5812
15574SOL    HW251853   7.752   8.214   4.457 -0.9171 -0.5493 -1.0485
15575SOL     OW51854   8.536   6.028   5.921  0.1988  0.3900 -0.4256
15575SOL    HW151855   8.572   5.941   5.942 -0.5628  0.4266  1.0446
15575SOL    HW251856   8.526   6.027   5.825  1.1054 -0.7854 -0.5188
15576SOL     OW51857   0.546   7.125  10.338 -0.2958  0.4679  0.3789
15576SOL    HW151858   0.455   7.097  10.343 -0.4549  0.8943 -0.0072
15576SOL    HW251859   0.550   7.205  10.392 -0.4405  1.1521 -0.6049
15577SOL     OW51860   2.781   6.529   3.333 -0.1116 -0.7579 -0.1813
15577SOL    HW151861   2.712   6.595   3.344  0.0853 -0.4725 -0.6678
15577SOL    HW251862   2.788   6.489   3.420 -2.2678 -2.1743 -0.6169
15578SOL     OW51863   1.530   2.411   2.653 -0.0112 -0.7488 -0.1115
15578SOL    HW151864   1.608   2.415   2.597 -0.6365  0.4240 -0.9056
15578SOL    HW251865   1.492   2.325   2.634  0.8418 -1.1434 -0.0544
15579SOL     OW51866  10.272   3.235   1.461  0.2289  0.2614  0.1952
15579SOL    HW151867  10.290   3.325   1.489 -1.1437  0.3182  0.9325
15579SOL    HW251868  10.181   3.236   1.434 -0.6553 -1.5323  2.8923
15580SOL     OW51869   0.374   1.895   5.226  0.1273  0.0198  0.3190
15580SOL    HW151870   0.350   1.976   5.272 -1.2017 -0.7396  0.9770
15580SOL    HW251871   0.441   1.855   5.281  0.7698  0.6491  0.0076
15581SOL     OW51872   1.657   2.681   6.417 -0.6362 -0.5366 -0.4428
15581SOL    HW151873   1.570   2.720   6.429 -0.8717 -0.5010 -2.1531
15581SOL    HW251874   1.639   2.591   6.392 -0.3111  0.3538 -4.1886
15582SOL     OW51875  10.864   3.074   5.324  0.1196  0.3942  0.4461
15582SOL    HW151876  10.775   3.088   5.290 -0.6161  1.4957  2.6854
15582SOL    HW251877  10.874   2.978   5.326 -0.5427  0.2861 -0.9851
15583SOL     OW51878   6.209   9.013  10.723 -0.2597  0.3152 -0.1417
15583SOL    HW151879   6.251   8.996  10.808 -0.0942  0.5751 -0.1710
15583SOL    HW251880   6.158   8.935  10.705 -1.9107  1.0654  1.1587
15584SOL     OW51881   3.577   1.190   5.395  0.2592  0.9384  0.2997
15584SOL    HW151882   3.648   1.148   5.348  1.2731  0.9333  1.8184
15584SOL    HW251883   3.510   1.122   5.405  0.5225  0.6215 -0.1163
15585SOL     OW51884   4.112   2.603   5.464  0.3060 -0.2812  0.6710
15585SOL    HW151885   4.065   2.519   5.463  0.2654 -0.2932 -2.3216
15585SOL    HW251886   4.064   2.656   5.527 -0.6815 -1.9419  1.3718
15586SOL     OW51887   5.583   5.410   8.157 -0.3519 -0.0623 -1.1552
15586SOL    HW151888   5.656   5.349   8.141 -1.3114 -0.5428 -3.9827
15586SOL    HW251889   5.507   5.353   8.168 -0.5195  0.4884  0.7296
15587SOL     OW51890  10.958   9.195   6.459  0.7195 -0.3923  0.3478
15587SOL    HW151891  11.013   9.262   6.421 -1.1722  0.3317 -1.1609
15587SOL    HW251892  10.962   9.212   6.554  2.0913  0.3785  0.1685
15588SOL     OW51893   9.755   9.122   6.243 -0.4478  0.6370 -0.2110
15588SOL    HW151894   9.661   9.113   6.256 -0.1118 -1.3956  0.9686
15588SOL    HW251895   9.766   9.122   6.148 -1.6797  1.6585 -0.3809
15589SOL     OW51896   4.325   2.982   7.092 -0.1176 -0.0286 -0.4538
15589SOL    HW151897   4.254   2.975   7.029  0.0489  0.8154 -0.7376
15589SOL    HW251898   4.405   2.974   7.039  0.0050 -0.6301 -0.1819
15590SOL     OW51899   8.812   7.080   9.145 -0.1836 -0.4469 -0.9622
15590SOL    HW151900   8.745   7.037   9.198 -1.1139  1.4710 -0.5145
15590SOL    HW251901   8.800   7.044   9.057 -1.4965 -0.4997 -0.7735
15591SOL     OW51902   0.077   3.114   8.542 -0.6403 -0.0374  0.1277
15591SOL    HW151903   0.156   3.142   8.496 -0.7271 -0.6886 -0.4225
15591SOL    HW251904   0.005   3.141   8.485 -0.7673 -0.4407  0.0971
15592SOL     OW51905   1.330   8.879   7.442  0.3172 -0.1113  0.5397
15592SOL    HW151906   1.357   8.934   7.369  1.2867 -0.3778  0.6794
15592SOL    HW251907   1.237   8.864   7.429  0.7103 -1.0583 -1.2641
15593SOL     OW51908   1.590   4.640  10.881  0.2178  0.5889 -0.3154
15593SOL    HW151909   1.641   4.561  10.864  1.5190  1.7622 -1.9526
15593SOL    HW251910   1.628   4.675  10.961  0.2627  0.0888 -0.1108
15594SOL     OW51911   0.449   0.358   0.899 -0.3565 -0.5402  0.1207
15594SOL    HW151912   0.393   0.377   0.974 -0.1764  2.6217 -0.4816
15594SOL    HW251913   0.538   0.373   0.931 -0.2495  0.3681 -0.5850
15595SOL     OW51914   2.670   7.412   9.417  0.0013 -0.9164  0.2917
15595SOL    HW151915   2.724   7.462   9.356  0.2673 -0.8703  0.5586
15595SOL    HW251916   2.586   7.457   9.418 -0.0931 -1.0763 -0.2446
15596SOL     OW51917   1.743  10.217   6.771  0.1056 -0.1118  0.4377
15596SOL    HW151918   1.726  10.304   6.735  2.1468  1.0928  2.2485
15596SOL    HW251919   1.657  10.188   6.803 -0.2643  2.0662  1.5466
15597SOL     OW51920   7.816   4.240   0.962  0.7390  0.0825  0.2735
15597SOL    HW151921   7.878   4.287   0.906  0.3668  1.7706  1.2351
15597SOL    HW251922   7.857   4.155   0.977  1.6583  0.2549 -1.1133
15598SOL     OW51923   6.978   0.554   9.051 -0.0205 -0.2579  0.1463
15598SOL    HW151924   6.970   0.505   9.132 -2.6951 -0.4057 -0.1724
15598SOL    HW251925   6.966   0.489   8.982 -1.0251  0.4000 -0.3167
15599SOL     OW51926   0.817   0.623   7.931 -0.2928 -0.1223 -0.0459
15599SOL    HW151927   0.861   0.700   7.969 -0.2633 -0.1557 -0.0122
15599SOL    HW251928   0.868   0.602   7.854 -0.2646 -0.1455 -0.0207
15600SOL     OW51929   3.198   0.924   2.889 -0.3107  0.1334  0.6521
15600SOL    HW151930   3.108   0.894   2.872  0.2281 -2.2553  1.7926
15600SOL    HW251931   3.247   0.894   2.812 -0.1011 -0.4431  1.0051
15601SOL     OW51932   8.656   5.554   1.988  0.6052  0.3661 -0.2656
15601SOL    HW151933   8.570   5.575   2.023  0.0081 -1.0167 -0.8663
15601SOL    HW251934   8.663   5.459   1.997  1.4278  0.2782 -1.6311
15602SOL     OW51935   6.854   9.705  10.327  0.6697  0.0679 -0.2913
15602SOL    HW151936   6.780   9.697  10.268 -0.1411  0.5037  0.6566
15602SOL    HW251937   6.860   9.799  10.346 -0.7832 -0.3435  2.4486
15603SOL     OW51938  10.464   2.601   4.793 -0.0238  0.0853  0.0949
15603SOL    HW151939  10.390   2.593   4.853  0.3978 -1.9114  0.3864
15603SOL    HW251940  10.526   2.659   4.839 -0.7604  0.5776  0.4816
15604SOL     OW51941   8.278   2.381  10.637  0.2103 -0.3515 -0.0048
15604SOL    HW151942   8.362   2.378  10.683 -0.0892  1.1082  0.6815
15604SOL    HW251943   8.300   2.415  10.550  0.2821  0.4190  0.3116
15605SOL     OW51944  11.297   9.143   6.622  0.1796  0.5739  1.1877
15605SOL    HW151945  11.379   9.184   6.650  0.6719  1.3487 -1.2378
15605SOL    HW251946  11.232   9.213   6.626  0.4120  0.8779 -0.2830
15606SOL     OW51947   6.031   3.187   0.268 -0.1464  0.8147  0.2373
15606SOL    HW151948   6.084   3.136   0.207  0.0315  0.3390  0.7894
15606SOL    HW251949   6.018   3.271   0.223 -1.1328 -0.0015 -1.0134
15607SOL     OW51950   4.276   1.266   8.047 -0.4429 -0.4507  0.4598
15607SOL    HW151951   4.346   1.209   8.079 -0.3566 -0.9885 -0.6797
15607SOL    HW251952   4.227   1.212   7.985  1.2134  1.4669 -2.6284
15608SOL     OW51953   9.583   1.216   9.576 -0.0870 -0.3525 -0.5363
15608SOL    HW151954   9.515   1.269   9.619  1.0262  1.8973 -1.4648
15608SOL    HW251955   9.601   1.262   9.494  0.9520 -2.1831 -1.3614
15609SOL     OW51956   5.262   5.275   9.431 -0.2779  0.0815 -0.0462
15609SOL    HW151957   5.355   5.288   9.446 -0.8302  2.8046  1.2411
15609SOL    HW251958   5.248   5.303   9.341  0.3556 -1.6254 -0.6953
15610SOL     OW51959   9.232   0.775   3.832 -0.1263 -0.3030  0.0404
15610SOL    HW151960   9.174   0.747   3.903 -0.7083 -0.4460 -0.4801
15610SOL    HW251961   9.206   0.865   3.813 -0.6202 -0.5801 -0.6238
15611SOL     OW51962   3.509   0.096   0.506  0.2119  0.0420  0.1189
15611SOL    HW151963   3.460   0.119   0.427  0.6763  0.5577 -0.0230
15611SOL    HW251964   3.486   0.163   0.570 -0.2346 -0.4261  0.4570
15612SOL     OW51965   2.007   3.660   3.838 -0.4518 -0.1035 -0.1020
15612SOL    HW151966   2.022   3.611   3.757 -0.8301 -1.9899  0.9301
15612SOL    HW251967   1.916   3.642   3.860 -0.7129  1.4072  0.1033
15613SOL     OW51968   9.508   8.299   7.878  0.5670  0.3264  0.5571
15613SOL    HW151969   9.467   8.216   7.852  0.4355  0.1143  1.4323
15613SOL    HW251970   9.437   8.352   7.913  1.0736 -0.1526  2.3581
15614SOL     OW51971  10.967   3.952   0.161  0.2595  0.0816  0.3693
15614SOL    HW151972  10.911   3.952   0.239 -0.3922 -0.8919 -0.0803
15614SOL    HW251973  11.053   3.979   0.193  0.2503 -1.2955  1.6136
15615SOL     OW51974   9.077   1.416   0.678 -0.3874 -0.5875  0.7836
15615SOL    HW151975   9.002   1.474   0.665  1.2660  1.5679  0.7764
15615SOL    HW251976   9.105   1.393   0.589  0.8124  1.0291  0.7351
15616SOL     OW51977   5.477   7.285   5.340  0.0145  0.0093  0.1404
15616SOL    HW151978   5.414   7.351   5.370 -0.3713 -0.6835  0.8741
15616SOL    HW251979   5.545   7.284   5.407  2.5939  3.1126 -2.2524
15617SOL     OW51980   9.407   6.992   9.196  0.6174 -0.1671  0.1251
15617SOL    HW151981   9.390   6.899   9.186 -0.1911 -0.1392  1.1476
15617SOL    HW251982   9.463   7.015   9.121  1.0910 -1.5274  0.0542
15618SOL     OW51983   2.649   9.061   5.984 -0.3470 -0.1519 -0.1100
15618SOL    HW151984   2.722   9.031   5.929 -0.1306  0.3940 -0.1159
15618SOL    HW251985   2.603   8.980   6.007  0.3939 -0.5209  0.0899
15619SOL     OW51986   5.678   2.194   9.529  0.2764  0.4165  0.1476
15619SOL    HW151987   5.611   2.134   9.497  0.1524 -0.4754  2.0479
15619SOL    HW251988   5.748   2.189   9.464  0.3296 -1.8836  0.3698
15620SOL     OW51989   5.812   8.839   4.295  0.0124 -0.1138  0.7074
15620SOL    HW151990   5.844   8.756   4.258 -3.5160 -1.4304  0.4362
15620SOL    HW251991   5.800   8.820   4.388  2.3071  1.1337  1.3010
15621SOL     OW51992   2.461   8.806   3.800 -0.4368 -0.3971  0.3195
15621SOL    HW151993   2.375   8.810   3.759  0.9315  1.1986 -2.6135
15621SOL    HW251994   2.479   8.896   3.827 -0.1746 -0.9376  1.9517
15622SOL     OW51995   9.558   4.907   5.730  0.6595  0.1415 -0.1883
15622SOL    HW151996   9.623   4.856   5.682 -0.0994 -0.5123 -0.5263
15622SOL    HW251997   9.526   4.970   5.666  1.0529  0.5537  0.0166
15623SOL     OW51998   2.689   1.110   0.452 -0.8562  0.1567  0.2264
15623SOL    HW151999   2.776   1.136   0.421 -0.4646 -0.2052  1.0196
15623SOL    HW252000   2.639   1.098   0.371  0.2530 -1.0810 -0.3033
15624SOL     OW52001   1.823   2.818   0.330  0.3102  0.4498 -0.4701
15624SOL    HW152002   1.899   2.842   0.277  0.6783  0.7446  0.1770
15624SOL    HW252003   1.775   2.900   0.341 -1.1067 -0.0910 -2.4392
15625SOL     OW52004   4.723  11.148   7.628  0.3148  0.0758  0.2515
15625SOL    HW152005   4.679  11.096   7.695 -1.4293  1.5032  0.2363
15625SOL    HW252006   4.771  11.215   7.678  0.6179 -0.0686  0.1558
15626SOL     OW52007   7.178  10.673   6.574 -0.1200 -0.4166  0.1979
15626SOL    HW152008   7.113  10.646   6.639  1.1955 -2.0984  0.8178
15626SOL    HW252009   7.127  10.726   6.511 -2.2142 -2.1557  0.3635
15627SOL     OW52010   0.180   7.467   0.432  0.3299 -0.1956  0.0956
15627SOL    HW152011   0.087   7.446   0.422  0.9565 -2.1680 -2.0666
15627SOL    HW252012   0.203   7.434   0.518 -0.4980 -1.6391 -0.2219
15628SOL     OW52013   9.997   5.087   2.994  0.4198  0.0226 -0.5980
15628SOL    HW152014  10.076   5.133   3.023  1.1473 -0.9966 -0.9060
15628SOL    HW252015   9.942   5.080   3.072 -0.6842  3.3078 -1.0262
15629SOL     OW52016   1.094   2.773   3.010 -0.3299  0.2616 -0.3076
15629SOL    HW152017   1.153   2.751   2.938 -1.1756  0.9980 -1.2517
15629SOL    HW252018   1.129   2.854   3.046 -1.4486  1.3729 -1.6731
15630SOL     OW52019   0.469   3.434   9.075 -0.2861  0.0173  0.2979
15630SOL    HW152020   0.486   3.351   9.031  1.1544 -0.6375  2.0635
15630SOL    HW252021   0.381   3.425   9.110 -0.7981 -0.0958 -0.9999
15631SOL     OW52022   7.905   0.774  10.754  0.1725 -0.1254 -0.2079
15631SOL    HW152023   7.993   0.809  10.767  0.9909 -1.1567 -2.7224
15631SOL    HW252024   7.896   0.706  10.821  1.0050  0.4565  0.5091
15632SOL     OW52025   9.971   4.006   1.542 -0.1897  0.2049  0.0057
15632SOL    HW152026   9.914   3.946   1.590  0.9781 -0.3686  0.6808
15632SOL    HW252027   9.980   4.082   1.600 -0.6333  0.5089 -0.3097
15633SOL     OW52028   4.619   0.495   5.355 -0.0299  0.3950 -0.0413
15633SOL    HW152029   4.699   0.517   5.308  0.1556  0.7714  0.4410
15633SOL    HW252030   4.647   0.477   5.445 -0.6964  2.5856  0.6603
15634SOL     OW52031   6.861   7.213  10.569  0.4660  0.2426  0.0878
15634SOL    HW152032   6.852   7.279  10.637 -1.8285  0.6095 -0.5149
15634SOL    HW252033   6.789   7.151  10.586 -0.0484  0.2538 -1.8599
15635SOL     OW52034   9.764   6.797   9.154 -0.1094  0.3302 -0.2015
15635SOL    HW152035   9.798   6.803   9.065  1.1796 -0.2342  0.2302
15635SOL    HW252036   9.766   6.887   9.186 -0.1916  0.4771 -0.6015
15636SOL     OW52037   6.024   2.411   0.063 -0.1015 -0.0930 -0.0414
15636SOL    HW152038   6.108   2.384   0.098  0.8792  0.7925 -1.6280
15636SOL    HW252039   5.959   2.373   0.122  1.1672 -5.4450 -1.8371
15637SOL     OW52040  10.328  10.106   0.984  0.2261  0.1628  1.0821
15637SOL    HW152041  10.419  10.097   0.957  0.0484 -0.2273  0.5869
15637SOL    HW252042  10.287  10.024   0.956 -0.3590  0.4984  0.9493
15638SOL     OW52043   0.125  10.019   8.020 -0.3889  0.1698 -0.3907
15638SOL    HW152044   0.171  10.002   8.102  0.3081  0.8470 -0.6324
15638SOL    HW252045   0.195  10.026   7.955 -0.8212  1.5731 -0.7043
15639SOL     OW52046   3.356   7.335   2.998 -0.2781 -0.0700 -0.5181
15639SOL    HW152047   3.276   7.339   3.051  0.5381 -0.8498  0.7997
15639SOL    HW252048   3.396   7.251   3.020  0.8780  0.2705 -1.2265
15640SOL     OW52049   2.036   9.235  10.922 -0.1824 -0.3600 -0.4949
15640SOL    HW152050   1.952   9.260  10.960  0.0299 -0.2325 -0.1052
15640SOL    HW252051   2.100   9.287  10.970  0.0474  0.1554 -1.3475
15641SOL     OW52052   2.065   7.442   6.275  0.5472 -0.5808 -0.9205
15641SOL    HW152053   2.087   7.404   6.190  1.1023  1.1271 -1.5528
15641SOL    HW252054   2.149   7.463   6.315  0.2228  1.3356 -1.2141
15642SOL     OW52055   1.694   2.683   2.965 -0.1137  0.5543  0.0401
15642SOL    HW152056   1.752   2.655   3.035 -0.0379  0.1415 -0.1841
15642SOL    HW252057   1.730   2.643   2.886  2.1436  4.2670 -0.9307
15643SOL     OW52058   2.827   6.491   8.583  0.2977  1.1313 -0.2558
15643SOL    HW152059   2.757   6.515   8.523 -0.6258 -0.1607  0.2975
15643SOL    HW252060   2.789   6.426   8.641  2.4468 -0.9956 -1.1124
15644SOL     OW52061   1.263   4.083   3.023 -0.2503 -0.0109 -0.8515
15644SOL    HW152062   1.220   4.016   3.075 -0.4554  0.7699  0.0011
15644SOL    HW252063   1.236   4.066   2.933 -1.3286 -0.2917 -0.4780
15645SOL     OW52064   0.523   3.583  11.312 -0.1816 -1.0337 -0.6626
15645SOL    HW152065   0.453   3.627  11.265 -1.2871 -0.7535  1.1810
15645SOL    HW252066   0.491   3.494  11.326 -0.6945 -0.5857  1.1867
15646SOL     OW52067  11.243  10.177   8.598  0.2079 -0.2068 -1.3373
15646SOL    HW152068  11.257  10.268   8.570  1.8981 -0.4599 -1.3803
15646SOL    HW252069  11.170  10.146   8.545 -1.5632  1.6756 -0.0878
15647SOL     OW52070   5.088   7.654   6.264 -0.7633  0.5618 -0.6828
15647SOL    HW152071   5.155   7.718   6.238 -0.6895  0.7782  0.0254
15647SOL    HW252072   5.126   7.610   6.340 -0.9107 -0.1719 -1.0345
15648SOL     OW52073   5.987   7.711   1.063 -0.3467  0.3210  0.7184
15648SOL    HW152074   5.923   7.782   1.064 -0.0201  0.7216 -2.6216
15648SOL    HW252075   6.070   7.753   1.084 -0.4692  0.5423  0.7635
15649SOL     OW52076   8.389   2.719   3.704  0.4667 -0.4974  0.9836
15649SOL    HW152077   8.338   2.658   3.757 -1.7325  0.5010  0.1111
15649SOL    HW252078   8.433   2.775   3.767 -0.7624 -0.4136  1.7905
15650SOL     OW52079  10.309   2.282   5.128 -0.0955  0.0185  0.3658
15650SOL    HW152080  10.327   2.342   5.201 -0.9469 -0.0749  0.6552
15650SOL    HW252081  10.236   2.323   5.081  0.7346  0.2984 -0.6877
15651SOL     OW52082   5.500   5.207  10.188  0.2249  0.0999 -0.0464
15651SOL    HW152083   5.412   5.246  10.191  0.3887  0.4503  0.3167
15651SOL    HW252084   5.508   5.173  10.100 -0.4724 -0.3704  0.0651
15652SOL     OW52085   5.107   4.561   4.786 -0.1568 -0.2225 -0.1293
15652SOL    HW152086   5.041   4.614   4.740 -1.7248  0.1992  2.4985
15652SOL    HW252087   5.131   4.493   4.723 -2.7808 -0.1103 -1.3094
15653SOL     OW52088   7.014   4.735   6.040 -0.5404  0.5226 -0.0881
15653SOL    HW152089   6.927   4.774   6.033  0.0988  1.7440 -1.4493
15653SOL    HW252090   7.059   4.761   5.960  0.6058 -1.3008 -0.0590
15654SOL     OW52091   4.106   3.741   2.167 -0.3411 -0.4917 -0.1039
15654SOL    HW152092   4.036   3.727   2.231 -2.5273  1.2899 -2.0582
15654SOL    HW252093   4.090   3.677   2.098  0.0009 -0.1379 -0.5174
15655SOL     OW52094  10.046   2.982   6.847 -0.2884  0.7599  0.3660
15655SOL    HW152095   9.990   3.045   6.802 -1.6151 -0.6060  0.0539
15655SOL    HW252096  10.009   2.975   6.935 -0.2593  0.2982  0.3435
15656SOL     OW52097   1.846   0.804   3.356 -0.0376 -0.0547 -0.7874
15656SOL    HW152098   1.802   0.889   3.356 -0.8160 -0.4452  0.1009
15656SOL    HW252099   1.778   0.742   3.330  0.0460 -0.6318  0.3395
15657SOL     OW52100   1.122   8.965   9.040 -0.0268 -0.5036  0.3371
15657SOL    HW152101   1.189   8.897   9.044  0.3469 -0.1385  0.3306
15657SOL    HW252102   1.040   8.917   9.029  0.2126 -0.9610  0.5170
15658SOL     OW52103   7.191   4.076   0.584 -0.8644 -0.3638 -0.1432
15658SOL    HW152104   7.172   4.062   0.491 -0.3669 -0.3617 -0.2473
15658SOL    HW252105   7.130   4.144   0.611 -0.9334 -0.2835 -0.4973
15659SOL     OW52106   8.914   9.013   1.273  0.1538  0.1864  0.1008
15659SOL    HW152107   9.003   9.038   1.295  0.4794 -1.2378  0.4702
15659SOL    HW252108   8.865   9.028   1.354  0.4130 -0.6235  0.4195
15660SOL     OW52109   8.295   6.782   0.689  0.3140 -0.3735  0.0519
15660SOL    HW152110   8.264   6.745   0.607  0.2782  0.2379 -0.2127
15660SOL    HW252111   8.332   6.708   0.736  0.0646 -0.7814 -0.3899
15661SOL     OW52112   6.974   8.807   5.565 -0.0715  0.1009  0.4839
15661SOL    HW152113   6.884   8.783   5.542  0.2446  0.4210 -1.1268
15661SOL    HW252114   6.976   8.903   5.559  0.5726  0.0499 -0.2870
15662SOL     OW52115  10.909   1.733   2.135 -0.1808  0.2899 -0.2751
15662SOL    HW152116  10.942   1.806   2.187  1.3115 -0.8641  0.4280
15662SOL    HW252117  10.901   1.768   2.046 -1.1978  1.8155  0.3928
15663SOL     OW52118   2.402   9.069   8.517  0.0926 -0.0129  0.1735
15663SOL    HW152119   2.455   9.143   8.487  0.8074 -0.1012  1.2001
15663SOL    HW252120   2.455   8.992   8.499  0.1520 -0.1307  0.8376
15664SOL     OW52121   3.150  10.066  10.971 -0.5232  0.1990 -0.7985
15664SOL    HW152122   3.188  10.095  11.054  0.9740  1.2090 -1.8045
15664SOL    HW252123   3.083  10.131  10.952 -1.1641 -0.2743 -0.1690
15665SOL     OW52124   6.824   9.986  10.411  0.4440 -0.5166 -0.2217
15665SOL    HW152125   6.783   9.931  10.478  0.6006  0.3868  0.6332
15665SOL    HW252126   6.809  10.075  10.442  1.6487 -0.1353 -0.7376
15666SOL     OW52127   4.658   9.512   6.928  0.2498  0.7422 -0.5226
15666SOL    HW152128   4.619   9.480   7.009 -0.0734  1.7338 -0.2749
15666SOL    HW252129   4.712   9.586   6.955  0.6049  0.7121 -1.1385
15667SOL     OW52130   3.314   2.895   7.027 -0.1189 -0.0694  0.1192
15667SOL    HW152131   3.256   2.966   7.000  0.0022 -0.6647 -1.8070
15667SOL    HW252132   3.256   2.830   7.066 -0.3979  0.5118  0.6713
15668SOL     OW52133   7.299   5.665   1.024  0.1938  0.4867 -0.1606
15668SOL    HW152134   7.363   5.720   1.071  1.3398 -0.3903 -0.6649
15668SOL    HW252135   7.320   5.677   0.932 -1.3271  1.3176 -0.4081
15669SOL     OW52136   6.359   2.308   8.480  0.4564  0.1956  0.5127
15669SOL    HW152137   6.372   2.293   8.386  1.0451  1.0292  0.4526
15669SOL    HW252138   6.417   2.245   8.522  0.7273  0.2976  0.2999
15670SOL     OW52139   3.167   3.814   2.770 -0.3028  0.9276 -0.4284
15670SOL    HW152140   3.173   3.873   2.845 -0.3975 -0.1951  0.4733
15670SOL    HW252141   3.109   3.859   2.709 -2.1687  0.7780  1.1942
15671SOL     OW52142   9.131   0.289   3.344 -0.5817 -0.1781 -0.2759
15671SOL    HW152143   9.088   0.279   3.428  0.5458 -0.5496  0.2688
15671SOL    HW252144   9.094   0.219   3.290 -0.7648 -0.4080  0.1439
15672SOL     OW52145   3.106   0.234   0.764  1.0463  0.1718 -0.5624
15672SOL    HW152146   3.120   0.285   0.844 -0.8063  0.2910 -0.2945
15672SOL    HW252147   3.180   0.258   0.708  1.0041  2.0370  0.1342
15673SOL     OW52148   8.569   5.483   8.338  0.3476 -0.3185  0.2471
15673SOL    HW152149   8.561   5.577   8.353  0.9057 -0.3641  0.8450
15673SOL    HW252150   8.553   5.472   8.245  1.1281  0.4714  0.0169
15674SOL     OW52151   4.368  10.199   3.303  0.2447  0.5657  0.0665
15674SOL    HW152152   4.414  10.282   3.317  0.6678  0.4452 -0.5754
15674SOL    HW252153   4.289  10.223   3.255  0.2003  0.6360  0.1741
15675SOL     OW52154   6.239   8.687  10.290  0.4057  0.5360  0.2208
15675SOL    HW152155   6.248   8.751  10.220  1.9863  1.7690  1.5076
15675SOL    HW252156   6.329   8.658  10.308 -0.2787 -1.9346 -0.2352
15676SOL     OW52157   0.982   7.167   4.529  0.5175  0.1527 -0.1157
15676SOL    HW152158   1.033   7.135   4.603 -0.4389  1.1986  1.0014
15676SOL    HW252159   0.891   7.150   4.552  0.2730 -0.8012 -1.6738
15677SOL     OW52160   1.000   6.545   0.473 -0.2192 -0.2505 -0.3209
15677SOL    HW152161   1.035   6.559   0.385 -2.2342 -1.2702 -1.3181
15677SOL    HW252162   0.906   6.536   0.460 -0.3625 -2.0764  1.7506
15678SOL     OW52163   7.880   4.212   6.767  0.0049  0.0972  0.2908
15678SOL    HW152164   7.856   4.292   6.814  0.9181  0.3725  0.2978
15678SOL    HW252165   7.798   4.165   6.757 -0.4625  0.8068  0.7247
15679SOL     OW52166   8.931   2.327   7.502 -0.3994  0.0536  0.8936
15679SOL    HW152167   8.995   2.342   7.432 -0.0952  1.1130  1.3931
15679SOL    HW252168   8.975   2.266   7.561 -0.6331 -0.7982  0.1930
15680SOL     OW52169   2.502   2.946   5.200 -0.0504 -0.1777  0.7439
15680SOL    HW152170   2.473   2.855   5.190  0.8058 -0.3482 -0.2435
15680SOL    HW252171   2.597   2.942   5.189 -0.4653  1.5461 -4.4491
15681SOL     OW52172   2.654  10.031   5.005 -0.3612 -0.1359  0.8909
15681SOL    HW152173   2.630   9.950   4.960  0.8619  0.9506 -1.7861
15681SOL    HW252174   2.596  10.098   4.967  2.5466  1.3236 -1.1379
15682SOL     OW52175   4.322   1.652   4.900  0.8757 -0.1548 -0.5818
15682SOL    HW152176   4.401   1.601   4.920  1.4526  0.9239 -0.0762
15682SOL    HW252177   4.286   1.611   4.822  1.2679 -1.4245 -0.1116
15683SOL     OW52178   2.751   5.707  11.310  0.1562  0.1765 -0.0750
15683SOL    HW152179   2.708   5.792  11.307 -0.9757 -0.4354 -2.7086
15683SOL    HW252180   2.759   5.687  11.403 -1.9021  1.9753  0.5232
15684SOL     OW52181   5.532   9.378  10.881  0.4950 -0.3179  0.0334
15684SOL    HW152182   5.459   9.433  10.853  1.5924  1.8591  1.3679
15684SOL    HW252183   5.605   9.405  10.826  0.1509 -3.1040 -1.9173
15685SOL     OW52184   3.931   4.589   2.644  0.2500 -0.4894 -0.4675
15685SOL    HW152185   3.895   4.608   2.730 -1.0898 -1.1479 -0.8784
15685SOL    HW252186   3.971   4.672   2.616  1.0308 -0.3763  0.9270
15686SOL     OW52187   2.609  10.600  10.539  0.1626 -0.1300 -0.1839
15686SOL    HW152188   2.703  10.606  10.558 -0.0932 -1.7402  1.6898
15686SOL    HW252189   2.574  10.684  10.568  0.9720  0.4036 -0.6993
15687SOL     OW52190   7.901  10.218   5.308 -0.2058 -0.1908 -0.3181
15687SOL    HW152191   7.843  10.192   5.236 -0.7579  1.0725 -0.3405
15687SOL    HW252192   7.852  10.195   5.387 -0.2909 -0.0987 -0.3432
15688SOL     OW52193   1.136   2.999   3.741 -0.4393 -0.5295 -0.1628
15688SOL    HW152194   1.057   2.945   3.734 -0.5701 -0.3064 -0.4130
15688SOL    HW252195   1.153   3.029   3.652 -0.5055  0.0391  0.0121
15689SOL     OW52196  11.066   1.411   6.103 -0.2295 -0.1497 -0.4190
15689SOL    HW152197  11.108   1.458   6.031  0.2493 -0.9940 -0.7012
15689SOL    HW252198  11.004   1.352   6.061 -0.8499  0.2464 -0.0670
15690SOL     OW52199   4.800   6.083   5.540 -1.0782 -0.1135  0.0013
15690SOL    HW152200   4.888   6.115   5.558 -0.9555  0.2454 -1.2055
15690SOL    HW252201   4.743   6.137   5.596 -0.7057  0.9675 -0.6581
15691SOL     OW52202   9.422   8.499   0.945  0.1182 -0.8247  0.6269
15691SOL    HW152203   9.499   8.456   0.909  1.1241 -0.7226  2.5340
15691SOL    HW252204   9.349   8.471   0.890  1.4804 -1.1331 -1.0476
15692SOL     OW52205   5.388   7.263   3.120 -0.3890 -0.0194 -0.1575
15692SOL    HW152206   5.374   7.251   3.214 -1.0645 -0.1939 -0.2758
15692SOL    HW252207   5.307   7.305   3.090 -0.4203 -0.5151 -0.7666
15693SOL     OW52208   4.508   6.550   9.606  0.3926  0.5845  0.4338
15693SOL    HW152209   4.473   6.572   9.692 -0.4404  1.9875 -0.2446
15693SOL    HW252210   4.442   6.582   9.544  0.5998 -1.1337 -0.7051
15694SOL     OW52211   8.219   7.114  11.061  0.3389  0.2192 -0.4273
15694SOL    HW152212   8.265   7.085  11.139  1.4934  1.8511 -0.4832
15694SOL    HW252213   8.155   7.178  11.093 -0.6483 -0.6698 -0.5779
15695SOL     OW52214   9.425   2.256  11.225 -0.1602 -0.6325  0.2228
15695SOL    HW152215   9.361   2.284  11.291 -0.6616  0.0627 -0.5396
15695SOL    HW252216   9.393   2.171  11.195 -0.5997 -0.3996  0.0225
15696SOL     OW52217   2.057   8.816   8.510  0.4199 -0.3913  0.2527
15696SOL    HW152218   2.066   8.721   8.523 -1.0454 -0.7207 -1.0389
15696SOL    HW252219   2.113   8.836   8.436 -2.0115 -0.8864 -1.7962
15697SOL     OW52220   1.501  10.139  10.486  0.3834  0.8020 -0.2347
15697SOL    HW152221   1.502  10.046  10.461  2.2653  0.3811  1.3055
15697SOL    HW252222   1.503  10.186  10.403  2.3595 -0.5587 -0.9910
15698SOL     OW52223   4.866   0.591   5.247 -0.3703  0.5958 -0.5678
15698SOL    HW152224   4.912   0.605   5.330 -1.4431  0.1718  0.1135
15698SOL    HW252225   4.922   0.632   5.181  1.0030  0.0283  0.2309
15699SOL     OW52226   1.845   3.492   7.816  0.7833 -0.1460 -0.1730
15699SOL    HW152227   1.784   3.417   7.822 -0.0001  0.4565 -0.5330
15699SOL    HW252228   1.871   3.495   7.725  0.0045  0.6508 -0.3741
15700SOL     OW52229   7.467  10.367   0.188  0.1434 -0.1157 -0.5535
15700SOL    HW152230   7.405  10.325   0.129  0.3827 -0.1829 -0.7592
15700SOL    HW252231   7.420  10.441   0.224 -0.4034 -0.7672  0.0821
15701SOL     OW52232   1.556   7.255   7.309  0.8896 -0.2564  0.3557
15701SOL    HW152233   1.506   7.187   7.354  1.8026  0.4050  2.4399
15701SOL    HW252234   1.530   7.337   7.351  1.7217  0.3993 -0.3781
15702SOL     OW52235   9.654   1.859   8.509  0.1313  0.1332  0.1247
15702SOL    HW152236   9.597   1.782   8.515  0.4222 -0.2119 -1.3159
15702SOL    HW252237   9.657   1.894   8.598  0.8376 -2.1280  1.0238
15703SOL     OW52238   0.305   5.103   1.938 -0.0917 -0.4565  0.3923
15703SOL    HW152239   0.260   5.133   1.859  0.1419 -0.5687  0.2184
15703SOL    HW252240   0.242   5.045   1.981 -0.2758 -0.2757  0.3695
15704SOL     OW52241   1.016   4.443   1.688 -0.1930 -0.2259  1.0879
15704SOL    HW152242   1.071   4.520   1.700  0.9806 -0.8107 -0.3492
15704SOL    HW252243   0.966   4.435   1.770  0.7923  1.1515  1.8298
15705SOL     OW52244   8.250   9.317   2.658  0.1599 -0.3561 -0.3992
15705SOL    HW152245   8.158   9.330   2.678 -0.1217 -2.3216 -0.3439
15705SOL    HW252246   8.296   9.333   2.740 -0.1452  0.3712 -0.3692
15706SOL     OW52247  11.072  10.815   8.516  0.1726  0.2066  0.1758
15706SOL    HW152248  11.105  10.730   8.543 -1.2874 -0.8292 -1.2376
15706SOL    HW252249  11.140  10.851   8.459 -0.0210 -0.8337 -0.7235
15707SOL     OW52250   2.604   5.267   1.823  0.6546  0.4325  0.3457
15707SOL    HW152251   2.555   5.342   1.790  2.3975  1.4720  0.0285
15707SOL    HW252252   2.673   5.252   1.758 -0.1283 -1.9571  0.0079
15708SOL     OW52253   7.172   5.338  10.370 -0.5217  0.0611  0.3325
15708SOL    HW152254   7.162   5.276  10.442  2.9981 -1.3330 -0.2734
15708SOL    HW252255   7.119   5.301  10.299 -0.3409 -1.0085  0.7505
15709SOL     OW52256   1.337  11.074   4.872  0.3310  0.4919  0.3634
15709SOL    HW152257   1.348  11.061   4.777  2.2891 -0.9083  0.7425
15709SOL    HW252258   1.427  11.082   4.905 -0.3608  1.4490  2.0349
15710SOL     OW52259   1.191   0.810   5.762  0.1562  0.5086  0.1978
15710SOL    HW152260   1.225   0.804   5.672  1.5828 -0.0631  0.7618
15710SOL    HW252261   1.097   0.821   5.751  0.3821  0.9761 -1.3871
15711SOL     OW52262   4.712   6.851  10.027  0.0469  0.0148  0.1651
15711SOL    HW152263   4.726   6.763   9.991  1.6248  1.2197 -2.3096
15711SOL    HW252264   4.748   6.847  10.115 -0.4122 -1.9818  0.2786
15712SOL     OW52265   9.302   9.853   1.345  0.4444  0.0124  0.2075
15712SOL    HW152266   9.322   9.852   1.252 -0.8987 -1.0879 -0.0794
15712SOL    HW252267   9.388   9.857   1.388  1.1432 -1.2290 -1.0446
15713SOL     OW52268   2.471   7.050   2.752  0.3563 -1.1073  0.0142
15713SOL    HW152269   2.499   7.046   2.843  0.0699  0.0751  0.1580
15713SOL    HW252270   2.552   7.046   2.701  0.6682  0.3402  0.3749
15714SOL     OW52271   4.214   5.792   0.380 -0.0617 -0.6362 -0.0564
15714SOL    HW152272   4.133   5.759   0.420 -0.4634  1.1499  0.6231
15714SOL    HW252273   4.281   5.780   0.448 -0.4120  0.8657  0.5631
15715SOL     OW52274   3.793  10.458   1.788  0.0279 -0.2193 -0.2274
15715SOL    HW152275   3.868  10.516   1.775 -1.6364  2.2439  0.6177
15715SOL    HW252276   3.762  10.479   1.877 -2.3362 -0.3284 -0.9846
15716SOL     OW52277   9.059   8.024   5.995  0.3337  0.0901  0.2012
15716SOL    HW152278   9.058   7.949   5.936 -0.2263 -0.6318  1.1037
15716SOL    HW252279   8.969   8.058   5.992 -0.0479 -0.7435  1.6025
15717SOL     OW52280   5.583   0.425   0.222 -0.0280  0.3244  0.0682
15717SOL    HW152281   5.538   0.502   0.190  0.7420  1.6149  1.9732
15717SOL    HW252282   5.616   0.381   0.144  0.5512  2.5631 -0.9688
15718SOL     OW52283   3.245   4.827   9.942 -0.3112  0.1845  0.5356
15718SOL    HW152284   3.224   4.765   9.872 -2.2565  1.9459 -0.5229
15718SOL    HW252285   3.181   4.809  10.011 -0.6188  0.7300  0.3954
15719SOL     OW52286   9.089   1.068   8.177  0.2402  0.2552  0.5283
15719SOL    HW152287   9.113   1.035   8.264  0.4313 -1.4440 -0.1443
15719SOL    HW252288   8.995   1.056   8.172  0.0490  1.4914  0.9488
15720SOL     OW52289   3.515   3.543   0.635 -0.2567 -0.1211 -0.2587
15720SOL    HW152290   3.494   3.524   0.727 -2.0965  0.1662 -0.6027
15720SOL    HW252291   3.437   3.516   0.586  1.0818 -1.1891 -1.8550
15721SOL     OW52292   1.708   7.952   4.255 -0.7544 -0.4217  0.1785
15721SOL    HW152293   1.648   8.012   4.298 -0.0917  0.5400 -0.2177
15721SOL    HW252294   1.724   7.991   4.169  0.5762 -0.5638  0.3442
15722SOL     OW52295  10.714  11.239   0.135  0.0539 -0.0403  0.7515
15722SOL    HW152296  10.744  11.183   0.064 -0.5324 -0.2611  0.6708
15722SOL    HW252297  10.735  11.328   0.105  2.2819 -0.2869  1.5163
15723SOL     OW52298  11.179   5.697   6.353 -0.9060 -0.2090 -0.1447
15723SOL    HW152299  11.139   5.694   6.440  0.8293  2.4352  0.7852
15723SOL    HW252300  11.264   5.654   6.364 -1.2916 -1.2084 -0.9213
15724SOL     OW52301   8.576  10.309   3.005 -0.4141  0.1408  0.0640
15724SOL    HW152302   8.500  10.348   2.962 -1.0268  0.3665  1.3243
15724SOL    HW252303   8.620  10.383   3.047  0.6082  0.0377 -0.8092
15725SOL     OW52304   1.919   1.219   2.232 -0.3948  0.1677 -0.6884
15725SOL    HW152305   1.827   1.234   2.210 -0.9431 -0.9901  0.7214
15725SOL    HW252306   1.949   1.301   2.270 -0.8923  0.5042 -1.0210
15726SOL     OW52307   3.227   2.168   6.232  0.1926  0.2963  0.0771
15726SOL    HW152308   3.163   2.098   6.247  0.7311 -0.2815 -0.2830
15726SOL    HW252309   3.189   2.221   6.163 -0.7349  1.0090  1.1261
15727SOL     OW52310   0.563   3.598   2.800 -0.1583  0.9234 -0.1867
15727SOL    HW152311   0.565   3.659   2.874  0.3376 -0.8864  1.3449
15727SOL    HW252312   0.623   3.527   2.826 -2.7049 -1.5090 -0.7199
15728SOL     OW52313   5.644   5.158   8.335  0.3286 -0.0916 -0.7269
15728SOL    HW152314   5.626   5.246   8.368  0.1727  0.3301 -1.9030
15728SOL    HW252315   5.714   5.170   8.271  0.2710 -0.8164 -0.9313
15729SOL     OW52316   6.139   1.581   6.351  0.4714 -0.5172 -0.1374
15729SOL    HW152317   6.103   1.652   6.405  0.1482  0.0769 -1.1289
15729SOL    HW252318   6.228   1.609   6.331  0.1516 -0.1301 -1.0045
15730SOL     OW52319   3.403   6.129   6.482  0.2890  0.2954  0.8557
15730SOL    HW152320   3.460   6.105   6.408  2.4885  0.5335  2.4400
15730SOL    HW252321   3.354   6.049   6.501  0.4950 -0.0841 -0.1563
15731SOL     OW52322   9.484   7.529   8.964  0.4922  0.3203 -0.1984
15731SOL    HW152323   9.519   7.514   9.051  0.8988  1.5066 -0.1526
15731SOL    HW252324   9.515   7.455   8.912 -0.9001 -1.1388  0.9798
15732SOL     OW52325   7.310   1.120   3.272 -0.3305  0.4114 -0.1718
15732SOL    HW152326   7.355   1.165   3.200 -0.2142 -0.7939 -0.8692
15732SOL    HW252327   7.225   1.096   3.235 -0.3211 -0.0910  0.1314
15733SOL     OW52328   5.908   5.816   6.739 -0.0845  0.2623  0.4446
15733SOL    HW152329   5.870   5.903   6.755 -1.6804 -0.5169  0.8885
15733SOL    HW252330   5.946   5.791   6.824 -1.7310 -0.5043  0.9638
15734SOL     OW52331  10.844   2.808  10.474 -0.7799 -0.1999  0.2340
15734SOL    HW152332  10.785   2.733  10.478 -2.0775  0.8743  4.0207
15734SOL    HW252333  10.790   2.880  10.442 -0.5142 -0.0894  0.0338
15735SOL     OW52334   2.808   6.292   7.883 -0.0013  1.4520 -0.1147
15735SOL    HW152335   2.865   6.222   7.914  1.7379  2.4877 -0.9155
15735SOL    HW252336   2.758   6.318   7.960 -1.6269 -1.5197 -0.0761
15736SOL     OW52337   1.082   9.486   5.478 -0.2080  0.7726  0.2206
15736SOL    HW152338   1.175   9.510   5.481 -0.3996  1.4723  1.5233
15736SOL    HW252339   1.070   9.429   5.554 -0.7994  0.5065 -0.0726
15737SOL     OW52340   2.237   5.001   4.523 -0.4942 -0.1605 -0.0352
15737SOL    HW152341   2.313   5.001   4.581 -0.0419 -0.6844 -0.6194
15737SOL    HW252342   2.227   4.909   4.497  0.1301  0.2575 -1.8398
15738SOL     OW52343   3.020   7.707   0.514  0.6632  0.3181  0.0109
15738SOL    HW152344   3.087   7.706   0.446 -0.0483 -0.7571 -0.6765
15738SOL    HW252345   2.941   7.738   0.470  0.2269 -0.2915  0.3529
15739SOL     OW52346   0.827   7.781  11.257 -0.3113  0.1000  0.1989
15739SOL    HW152347   0.797   7.863  11.217  0.4058  1.8504  3.1228
15739SOL    HW252348   0.921   7.795  11.272 -0.6816 -0.1886  3.1031
15740SOL     OW52349  10.785   1.434   8.167 -0.1572  0.2362 -0.2273
15740SOL    HW152350  10.858   1.437   8.230  0.7106  0.6562 -1.2402
15740SOL    HW252351  10.744   1.520   8.175 -1.9898 -0.7755  1.9922
15741SOL     OW52352   0.764   3.614  10.999 -0.3289 -0.3267 -0.7725
15741SOL    HW152353   0.778   3.661  11.082  1.7100  1.1066 -1.8935
15741SOL    HW252354   0.679   3.645  10.968 -1.7685 -1.8934  1.4071
15742SOL     OW52355  10.518   3.456   5.882 -0.4968 -0.2434 -0.0935
15742SOL    HW152356  10.453   3.527   5.878 -0.6859 -0.3490  0.9763
15742SOL    HW252357  10.523   3.433   5.975  0.9087 -0.3981 -0.1925
15743SOL     OW52358   8.252  11.136   5.235  0.7105 -0.1084  0.0457
15743SOL    HW152359   8.295  11.187   5.304  1.8756  0.2254 -0.9164
15743SOL    HW252360   8.159  11.140   5.257  0.8974  1.4997  0.6080
15744SOL     OW52361   8.601   3.258   0.172  0.2464  0.0379 -0.4552
15744SOL    HW152362   8.571   3.182   0.222 -0.9049 -1.2623 -3.0349
15744SOL    HW252363   8.682   3.285   0.215 -0.0667 -1.7953  1.3344
15745SOL     OW52364   9.836   7.858   9.058  0.0344  0.3436  0.1711
15745SOL    HW152365   9.906   7.850   8.994  0.1262 -1.6388  0.4895
15745SOL    HW252366   9.879   7.890   9.137  0.5228 -0.5719  0.2757
15746SOL     OW52367   9.574   1.240   8.025  0.1859  0.3504  0.1653
15746SOL    HW152368   9.560   1.251   8.119  1.8328  1.1201  0.3358
15746SOL    HW252369   9.516   1.168   8.000 -2.2322  1.8719  1.2539
15747SOL     OW52370  10.720   6.859  10.000 -0.2309  0.1023  0.2443
15747SOL    HW152371  10.639   6.863  10.052 -0.6620  0.6537 -0.4632
15747SOL    HW252372  10.790   6.871  10.065 -0.7154 -0.2953  0.8486
15748SOL     OW52373   7.307   8.241   4.173  0.2490  0.1082  0.3874
15748SOL    HW152374   7.239   8.272   4.232  1.2568  0.8873  1.1492
15748SOL    HW252375   7.369   8.314   4.167  1.2529 -0.7623  0.0634
15749SOL     OW52376   9.544   3.957   9.637 -0.5201 -0.1009 -0.1143
15749SOL    HW152377   9.599   4.027   9.601  0.0756  0.2072  1.3785
15749SOL    HW252378   9.454   3.985   9.617 -0.3566  1.7563  1.5918
15750SOL     OW52379  10.349  10.047   2.243  0.7002 -0.2251  0.6236
15750SOL    HW152380  10.360  10.001   2.326  2.0966  0.1181  0.6482
15750SOL    HW252381  10.305  10.129   2.267 -2.4578 -1.8122  0.4775
15751SOL     OW52382  10.896   9.489   5.500  0.2836  0.6051  0.4955
15751SOL    HW152383  10.989   9.472   5.511  0.2863 -0.5492 -1.0254
15751SOL    HW252384  10.870   9.432   5.427 -1.6249  0.8454  0.9569
15752SOL     OW52385  10.347   2.956  10.691 -0.0082  0.1475 -0.5447
15752SOL    HW152386  10.317   3.047  10.680  1.8075  0.9507  0.9713
15752SOL    HW252387  10.326   2.935  10.782  3.3621  0.5279  0.3819
15753SOL     OW52388   1.522  10.327   7.671  0.4456  0.0783  0.0741
15753SOL    HW152389   1.512  10.257   7.735  0.4887  0.3951  0.4269
15753SOL    HW252390   1.525  10.407   7.723 -0.1487  0.3922 -0.3595
15754SOL     OW52391   3.922   0.926   3.495  0.0048  0.8119 -0.3832
15754SOL    HW152392   3.863   0.979   3.441  0.0427  0.9345 -0.3019
15754SOL    HW252393   4.009   0.963   3.479  0.1424  0.2427 -0.9800
15755SOL     OW52394   8.718   6.141   2.650  0.3282 -0.2379  0.4291
15755SOL    HW152395   8.660   6.113   2.579 -0.9895 -0.2811  1.5040
15755SOL    HW252396   8.787   6.190   2.606 -0.4896 -0.2126 -0.8760
15756SOL     OW52397  11.301   7.132   1.845 -0.1850  0.0289  0.5835
15756SOL    HW152398  11.257   7.047   1.845  2.2828 -1.2954  1.3917
15756SOL    HW252399  11.287   7.167   1.933 -0.7801  0.2428  0.4059
15757SOL     OW52400   8.354   1.984   7.150  0.6977 -0.2195 -0.1585
15757SOL    HW152401   8.332   1.959   7.240  2.2077  1.5470  0.7401
15757SOL    HW252402   8.271   1.978   7.103 -0.4271  0.2177  1.7017
15758SOL     OW52403  10.381   5.569  11.000  0.2811 -0.1868  0.2404
15758SOL    HW152404  10.474   5.551  10.986 -0.0155 -1.5662 -0.0620
15758SOL    HW252405  10.343   5.483  11.019 -0.6726  0.5584  1.8741
15759SOL     OW52406   7.002   6.346   6.783 -0.1732 -0.1904  0.6045
15759SOL    HW152407   6.959   6.334   6.699  0.5681  0.6995  0.0977
15759SOL    HW252408   6.936   6.387   6.839 -0.0192  1.1012 -0.1489
15760SOL     OW52409   6.481  10.926   3.069 -0.9512 -0.2864 -0.1463
15760SOL    HW152410   6.564  10.896   3.031 -0.5662  0.1209  0.3745
15760SOL    HW252411   6.449  10.992   3.007 -0.8342 -0.3632 -0.2905
15761SOL     OW52412   1.344   6.761   4.665  0.1697  0.3248  0.1847
15761SOL    HW152413   1.288   6.791   4.594 -1.5179  1.2342  1.8385
15761SOL    HW252414   1.285   6.714   4.724  1.3364  0.3977  1.4497
15762SOL     OW52415   2.350   6.028   5.941 -0.6017  0.8406 -0.0281
15762SOL    HW152416   2.433   6.075   5.947 -0.5205  0.6979 -0.0436
15762SOL    HW252417   2.304   6.069   5.868  0.2443 -0.3426 -1.2226
15763SOL     OW52418   4.251  11.132   8.497  0.3453 -0.4983  0.6728
15763SOL    HW152419   4.280  11.215   8.535 -1.4878  0.0086  1.0181
15763SOL    HW252420   4.321  11.070   8.518  1.2342  0.7177  1.3435
15764SOL     OW52421   9.655   8.645   9.218  0.3399 -0.2489 -0.0617
15764SOL    HW152422   9.649   8.737   9.245  2.1126 -0.4134  0.9554
15764SOL    HW252423   9.677   8.648   9.125  0.8982  0.3651  0.0856
15765SOL     OW52424   5.448  10.434   1.511 -0.3204  0.0126 -0.0159
15765SOL    HW152425   5.355  10.449   1.496 -0.6729 -1.7062  0.3368
15765SOL    HW252426   5.492  10.504   1.463 -1.8448  1.8951  1.2701
15766SOL     OW52427   5.604   4.271   7.094 -0.9933 -0.4951  0.6986
15766SOL    HW152428   5.540   4.254   7.163 -0.3768  0.4432  1.5160
15766SOL    HW252429   5.684   4.228   7.124  0.2256  2.6266  2.1848
15767SOL     OW52430  11.129   3.873   6.382 -0.8266  0.4357  0.1224
15767SOL    HW152431  11.188   3.948   6.384 -0.7700  0.4407 -1.3934
15767SOL    HW252432  11.090   3.871   6.470  1.2481  0.5530  1.0743
15768SOL     OW52433   2.235   5.738   4.604  0.3689 -0.4354 -0.0683
15768SOL    HW152434   2.264   5.828   4.588 -1.9442  0.1359 -1.3210
15768SOL    HW252435   2.249   5.725   4.698 -0.4201  1.6839  0.3750
15769SOL     OW52436   7.159   3.295   8.163  0.1206 -0.4112 -0.2928
15769SOL    HW152437   7.064   3.298   8.154  0.1037  0.2904  0.0923
15769SOL    HW252438   7.184   3.211   8.125 -1.0457 -2.5028  3.2841
15770SOL     OW52439   6.445   0.838   6.832  0.3731 -0.2679 -0.2221
15770SOL    HW152440   6.375   0.773   6.818  1.3279 -1.4169  0.2524
15770SOL    HW252441   6.439   0.895   6.756 -0.7327 -0.6936 -0.4693
15771SOL     OW52442   9.543  10.214   2.784  0.6129 -1.1496  0.1137
15771SOL    HW152443   9.520  10.268   2.860 -1.3309  2.5370 -2.9206
15771SOL    HW252444   9.632  10.241   2.762  0.0122  0.1656 -0.7852
15772SOL     OW52445   3.165   7.876   4.371  0.0459  0.7534 -0.1529
15772SOL    HW152446   3.235   7.910   4.426  0.4446  1.1637 -0.9041
15772SOL    HW252447   3.108   7.827   4.431  1.7407 -0.7983  0.2263
15773SOL     OW52448  11.150  11.187   7.225 -0.1054  0.3320  0.1908
15773SOL    HW152449  11.200  11.265   7.249  1.2412 -0.5549  0.3299
15773SOL    HW252450  11.101  11.164   7.303 -0.0136  0.6798  0.3511
15774SOL     OW52451   3.790  10.579   6.124  0.2691  0.0430  0.0279
15774SOL    HW152452   3.847  10.606   6.195 -0.2096  1.2940 -0.0531
15774SOL    HW252453   3.794  10.483   6.124  0.1165  0.0351  1.8634
15775SOL     OW52454   0.030   2.091   0.793 -0.0513 -0.4164  0.1058
15775SOL    HW152455  -0.065   2.084   0.783  0.3027 -0.4197 -3.8425
15775SOL    HW252456   0.064   2.005   0.769  1.0554  0.1472 -0.3896
15776SOL     OW52457   4.686   1.451   9.581 -0.0622 -0.3156  0.1864
15776SOL    HW152458   4.654   1.430   9.494 -0.9631  0.0527  0.4181
15776SOL    HW252459   4.781   1.463   9.570  0.0237 -1.5769 -0.4767
15777SOL     OW52460   4.603   0.765   5.770 -0.4593  0.2559  0.4210
15777SOL    HW152461   4.626   0.845   5.818  0.2498 -0.0224  0.5427
15777SOL    HW252462   4.539   0.794   5.705  1.7874  1.4423 -1.3517
15778SOL     OW52463  10.394   4.533   6.180  0.9112 -0.2874  0.2824
15778SOL    HW152464  10.345   4.616   6.181  0.5818 -0.4748  0.0162
15778SOL    HW252465  10.485   4.559   6.191  0.6076 -0.0459  2.5399
15779SOL     OW52466   6.151   4.627  11.210  0.1302  0.0246 -0.2381
15779SOL    HW152467   6.145   4.657  11.301 -1.8295 -0.5456 -0.1366
15779SOL    HW252468   6.178   4.704  11.161 -0.2573  0.7286  0.6370
15780SOL     OW52469   8.689   1.123   7.063  0.0403  0.2268 -0.1356
15780SOL    HW152470   8.619   1.058   7.053  1.1869 -1.3058  1.5221
15780SOL    HW252471   8.760   1.088   7.010  0.4528  0.4316  0.2876
15781SOL     OW52472   1.606   4.362   4.909 -0.2526  0.1131 -0.0488
15781SOL    HW152473   1.641   4.306   4.840  0.6067 -1.8598  1.9560
15781SOL    HW252474   1.683   4.406   4.946 -0.4203 -0.5933  1.1695
15782SOL     OW52475   7.602   7.818   8.814 -0.3056  0.2427  0.4045
15782SOL    HW152476   7.577   7.836   8.724 -0.3821  1.5661  0.6839
15782SOL    HW252477   7.568   7.730   8.831  0.0309 -0.1568 -0.9625
15783SOL     OW52478  11.228   6.059   3.116  0.1374  0.2342 -0.1624
15783SOL    HW152479  11.209   6.091   3.028 -1.9531  0.0618  0.2118
15783SOL    HW252480  11.307   6.006   3.105 -0.3328 -0.1302 -1.9935
15784SOL     OW52481  10.508   8.646   6.978 -0.6953 -0.4204 -0.0930
15784SOL    HW152482  10.437   8.704   6.951 -0.2238 -0.7684 -2.1218
15784SOL    HW252483  10.489   8.627   7.070 -1.9045  1.3999  0.0707
15785SOL     OW52484   9.530  11.015   1.422  0.5657 -0.0988 -0.6107
15785SOL    HW152485   9.485  10.931   1.433 -0.5768  0.7743  1.6004
15785SOL    HW252486   9.621  10.997   1.444  0.5647 -1.0104 -1.3250
15786SOL     OW52487   4.358   2.463   6.904 -0.1702  0.0175 -0.3334
15786SOL    HW152488   4.354   2.468   7.000 -1.0387 -1.1458 -0.3082
15786SOL    HW252489   4.404   2.381   6.886  2.7603  1.7103 -0.9095
15787SOL     OW52490   1.458   7.024   9.689  0.1866 -0.1359 -0.3773
15787SOL    HW152491   1.481   6.941   9.732 -0.5276  1.0312  2.3645
15787SOL    HW252492   1.531   7.082   9.707 -1.4659  1.3083  1.9852
15788SOL     OW52493   4.576  11.244   8.864  0.4931  0.4711  0.2993
15788SOL    HW152494   4.545  11.250   8.773 -5.0953 -0.7258  1.9827
15788SOL    HW252495   4.635  11.168   8.863  0.1700  0.1830 -2.1981
15789SOL     OW52496   4.136   7.160   3.608  0.4490 -0.5007  0.3807
15789SOL    HW152497   4.041   7.168   3.596  0.2612 -1.2164  1.3601
15789SOL    HW252498   4.173   7.194   3.526 -0.5844  1.8077  0.8177
15790SOL     OW52499   9.351   0.569   5.173  0.2807  1.0938 -0.1806
15790SOL    HW152500   9.323   0.635   5.236 -0.2037  1.0484 -0.3475
15790SOL    HW252501   9.290   0.496   5.185  0.2002  1.0746 -0.6814
15791SOL     OW52502   4.225   2.095   3.605  0.4197  0.6003 -0.0236
15791SOL    HW152503   4.146   2.107   3.658  0.5082  0.6509  0.0997
15791SOL    HW252504   4.199   2.038   3.534  0.4641 -0.0286  0.4624
15792SOL     OW52505   9.976  10.128   2.328  0.4703 -0.1698 -0.4987
15792SOL    HW152506   9.943  10.218   2.327  0.2475 -0.2448  0.0170
15792SOL    HW252507   9.985  10.107   2.421 -0.1304 -0.9240 -0.6097
15793SOL     OW52508   5.226   6.633   4.281 -0.2154 -0.6904  0.1202
15793SOL    HW152509   5.223   6.655   4.188  1.0234 -0.6226  0.0872
15793SOL    HW252510   5.158   6.687   4.321 -0.3663 -0.2978 -0.6637
15794SOL     OW52511   8.804   1.485   3.189 -0.4721 -0.4607  0.5440
15794SOL    HW152512   8.850   1.568   3.204 -0.7472 -0.2607  0.2829
15794SOL    HW252513   8.810   1.439   3.272  2.1212 -1.3738 -0.0971
15795SOL     OW52514   9.648  11.011  10.420 -0.0701  0.4280  0.2084
15795SOL    HW152515   9.647  11.089  10.475 -1.9466  0.4254  0.1930
15795SOL    HW252516   9.633  10.938  10.480 -1.8575  0.4021 -0.2268
15796SOL     OW52517   0.185   3.013  10.440  0.4829 -0.4101  0.1246
15796SOL    HW152518   0.097   2.990  10.410  0.9174 -0.2700 -1.3142
15796SOL    HW252519   0.244   2.960  10.384  1.3887  1.7627 -1.0445
15797SOL     OW52520   1.909   4.010   8.014  0.4706 -0.1206 -0.1959
15797SOL    HW152521   1.961   4.079   8.056  2.6936 -1.8364 -0.0199
15797SOL    HW252522   1.941   3.929   8.053 -0.2522 -1.4516 -2.2759
15798SOL     OW52523   4.763  10.030   1.933 -0.1197 -0.3602  0.1621
15798SOL    HW152524   4.800  10.022   2.021 -0.9177  1.7994  0.7145
15798SOL    HW252525   4.822  10.091   1.888 -0.3908 -0.5285 -0.4234
15799SOL     OW52526   2.911   3.928   4.062  0.6610 -0.2294 -0.1239
15799SOL    HW152527   2.911   3.881   3.979 -3.5129 -0.4028 -0.1736
15799SOL    HW252528   2.895   3.861   4.128 -0.1973  0.4125  0.3441
15800SOL     OW52529   0.797   2.756   8.455 -0.1973 -0.5922  0.0477
15800SOL    HW152530   0.860   2.808   8.504 -0.4726  0.0526 -0.2747
15800SOL    HW252531   0.730   2.733   8.519 -1.3398  1.5224 -0.3350
15801SOL     OW52532   6.680   3.232  10.134 -0.2991 -0.1635  0.4676
15801SOL    HW152533   6.755   3.197  10.183  0.1509 -0.2652 -0.2840
15801SOL    HW252534   6.713   3.243  10.045 -1.2378 -0.3981  0.0867
15802SOL     OW52535   6.399   9.357   2.583  0.0327  0.0843  0.2359
15802SOL    HW152536   6.345   9.284   2.613  0.7297  0.2657  1.9571
15802SOL    HW252537   6.361   9.434   2.626 -1.0854  0.8571 -2.0527
15803SOL     OW52538  10.383   7.320   0.490 -0.3527  0.2114  0.1610
15803SOL    HW152539  10.358   7.271   0.568  1.7122 -1.0018  0.0787
15803SOL    HW252540  10.363   7.261   0.417 -1.7765  1.1355 -0.2338
15804SOL     OW52541   9.333   3.623   4.444  0.1710  0.1558  0.0012
15804SOL    HW152542   9.267   3.681   4.482  0.7151  2.2146 -2.0601
15804SOL    HW252543   9.391   3.682   4.395  2.8041 -1.7363  0.7239
15805SOL     OW52544   3.904  10.440   2.988  0.3897 -0.1352  0.2823
15805SOL    HW152545   3.906  10.362   2.933  0.1096 -0.4954  0.7781
15805SOL    HW252546   3.994  10.452   3.017  0.4184 -0.3160  0.2657
15806SOL     OW52547   7.970   5.966  10.808  0.4418  0.2827  0.1185
15806SOL    HW152548   7.956   6.026  10.881 -2.7825 -1.6860  1.1877
15806SOL    HW252549   7.921   6.006  10.735  0.0906  0.0734  0.2364
15807SOL     OW52550   9.519   5.202   0.652  1.0340 -0.1122  0.5134
15807SOL    HW152551   9.600   5.151   0.647  1.2287  0.3153 -1.0829
15807SOL    HW252552   9.500   5.208   0.745  2.7727 -0.3315  0.9025
15808SOL     OW52553   8.079   7.940   8.163 -0.4795 -0.2247 -0.7516
15808SOL    HW152554   8.047   7.851   8.178 -0.7427 -0.1550 -0.9006
15808SOL    HW252555   8.150   7.930   8.100  1.9392 -0.7547  1.9328
15809SOL     OW52556   6.320   8.074   0.366 -0.9879 -0.5828  0.3052
15809SOL    HW152557   6.368   8.093   0.446 -0.7927 -0.3628  0.1361
15809SOL    HW252558   6.346   8.143   0.305 -0.2107 -1.4280 -0.3426
15810SOL     OW52559   6.338   9.674  10.767 -0.2071 -0.1785 -0.0101
15810SOL    HW152560   6.345   9.761  10.806  0.8876  0.3151 -1.2776
15810SOL    HW252561   6.244   9.662  10.753 -0.2793  1.3166 -0.9354
15811SOL     OW52562   2.705   6.510   3.933  0.0811  0.3144 -0.2888
15811SOL    HW152563   2.660   6.547   3.857 -2.4464  1.1076  1.5279
15811SOL    HW252564   2.753   6.583   3.971  0.4509  0.1700 -0.4720
15812SOL     OW52565   2.096   2.428   3.627 -0.6457  0.1657  0.5389
15812SOL    HW152566   2.027   2.415   3.692 -0.2660 -0.7972  0.7573
15812SOL    HW252567   2.120   2.339   3.600 -1.1501  0.5723 -1.2908
15813SOL     OW52568   3.368   4.377   7.606 -1.0092 -0.1374 -0.0702
15813SOL    HW152569   3.281   4.412   7.586 -1.0805  0.6259  1.4926
15813SOL    HW252570   3.351   4.297   7.656 -0.8348  1.3065  2.3660
15814SOL     OW52571   2.200   8.514   0.030 -0.0422  0.0111  0.1922
15814SOL    HW152572   2.172   8.521  -0.061  0.1919  2.4787  0.2821
15814SOL    HW252573   2.161   8.432   0.062  0.8574 -1.4942 -2.4554
15815SOL     OW52574   4.087   0.801   6.786 -0.5521 -0.1643  0.1996
15815SOL    HW152575   4.057   0.710   6.788 -1.0828  0.0079  0.0599
15815SOL    HW252576   4.010   0.851   6.760 -0.0134  0.2194 -0.6564
15816SOL     OW52577   9.894   6.457   7.002 -0.1641  0.7175  0.0004
15816SOL    HW152578   9.805   6.492   6.996 -0.0177  0.7938 -1.7672
15816SOL    HW252579   9.907   6.409   6.921  0.7512 -0.8879  1.0691
15817SOL     OW52580   0.910   9.504  11.025  0.0805 -0.0683  0.3724
15817SOL    HW152581   0.975   9.574  11.034  0.2784 -0.1985 -0.0720
15817SOL    HW252582   0.906   9.486  10.931 -0.7125  0.0505  0.3838
15818SOL     OW52583   2.307   1.841  10.864 -0.2875 -0.3465 -0.2061
15818SOL    HW152584   2.398   1.851  10.893 -0.3485 -0.4937  0.0364
15818SOL    HW252585   2.262   1.803  10.940 -0.2859 -1.4679 -0.7622
15819SOL     OW52586   5.668   7.238   9.717  0.8168  0.6992 -0.3354
15819SOL    HW152587   5.628   7.158   9.752  0.0429  1.4869  0.5890
15819SOL    HW252588   5.594   7.288   9.682  1.3601  0.7837 -1.3647
15820SOL     OW52589  10.089  10.834   2.337  0.3546 -0.1325 -0.1617
15820SOL    HW152590  10.162  10.819   2.396  0.1603  1.6161  0.5577
15820SOL    HW252591  10.092  10.928   2.317 -0.3164 -0.4607 -1.9560
15821SOL     OW52592  10.814   0.300   3.801 -0.1039  0.0535  0.0794
15821SOL    HW152593  10.723   0.290   3.772  0.2924  0.1894 -1.2366
15821SOL    HW252594  10.864   0.241   3.744  0.7922  0.9182 -0.0389
15822SOL     OW52595   2.689   3.357  11.284 -0.1559 -0.4248  0.1275
15822SOL    HW152596   2.742   3.413  11.227  0.8616  1.2963  2.6734
15822SOL    HW252597   2.600   3.367  11.252  0.1176  2.1014  0.0921
15823SOL     OW52598   6.603   2.123   7.158 -0.2035  0.1037  0.4136
15823SOL    HW152599   6.658   2.173   7.098  0.6526 -1.0918  0.1909
15823SOL    HW252600   6.623   2.032   7.139 -2.7332 -0.3949 -0.1206
15824SOL     OW52601  11.031   3.366   6.940  0.0022 -0.1686  0.1958
15824SOL    HW152602  11.037   3.293   7.002 -1.0895 -1.0591 -0.7318
15824SOL    HW252603  11.063   3.330   6.858 -0.7931  0.3223 -0.3369
15825SOL     OW52604   7.102   7.456   7.469 -0.0443  0.0009 -0.3868
15825SOL    HW152605   7.120   7.372   7.512 -0.0943  0.0572 -0.2528
15825SOL    HW252606   7.113   7.521   7.539 -2.1565 -0.0889  0.0721
15826SOL     OW52607   3.180   0.835   6.759  0.2820 -0.7104 -0.1398
15826SOL    HW152608   3.087   0.838   6.736  0.1546 -1.3941  0.2670
15826SOL    HW252609   3.218   0.911   6.715 -0.4715 -0.4197 -0.2970
15827SOL     OW52610  11.113   0.027   1.742 -0.2985 -0.5173 -0.1185
15827SOL    HW152611  11.142   0.091   1.806 -2.6379 -0.9451  1.4286
15827SOL    HW252612  11.151  -0.056   1.772  1.3169 -0.1668 -1.1600
15828SOL     OW52613  11.143   9.440   5.574  0.3905  0.2077 -0.3061
15828SOL    HW152614  11.188   9.502   5.517  0.4267  1.5145  1.1113
15828SOL    HW252615  11.204   9.425   5.646  0.4979 -1.7066 -0.7703
15829SOL     OW52616   6.485   0.425   9.631  0.1026  0.3070  0.0826
15829SOL    HW152617   6.466   0.336   9.659 -0.1564  0.3694  0.1051
15829SOL    HW252618   6.576   0.440   9.658 -0.1028  0.3223  0.7699
15830SOL     OW52619  11.095   1.649  10.603 -0.1158  0.1630 -0.0443
15830SOL    HW152620  11.164   1.665  10.539  0.4207  1.0168  0.7230
15830SOL    HW252621  11.129   1.578  10.658 -0.0527  0.2527  0.0342
15831SOL     OW52622  11.302  10.528   2.775  0.5938 -0.1115  0.0562
15831SOL    HW152623  11.278  10.530   2.682 -0.8133  0.9890  0.4243
15831SOL    HW252624  11.378  10.584   2.782  0.3955  0.2063 -0.3563
15832SOL     OW52625   2.890   2.705   7.120  0.1825  0.3168  0.3642
15832SOL    HW152626   2.842   2.679   7.041  1.1695 -2.0986  0.4982
15832SOL    HW252627   2.828   2.757   7.170 -1.0549  0.3690 -1.1845
15833SOL     OW52628   6.108   3.656   5.237 -0.0759 -0.5476  0.1237
15833SOL    HW152629   6.104   3.576   5.288 -1.7871 -0.3012  0.4135
15833SOL    HW252630   6.078   3.724   5.298  0.8204  0.2235 -0.2883
15834SOL     OW52631   2.588   8.516   3.106  0.1863 -1.1738  0.8078
15834SOL    HW152632   2.519   8.460   3.070 -0.1246 -0.0526 -0.3934
15834SOL    HW252633   2.665   8.460   3.113 -0.1840 -1.8001 -0.1755
15835SOL     OW52634  10.536   3.654  11.045  0.0095 -0.1397  0.2881
15835SOL    HW152635  10.516   3.742  11.011  0.6681  0.6698  1.9542
15835SOL    HW252636  10.522   3.661  11.139  1.2228 -1.5087  0.5773
15836SOL     OW52637   2.217   4.134   4.252  0.3448  0.2049 -0.1541
15836SOL    HW152638   2.257   4.049   4.234 -1.0354 -0.2815 -1.0464
15836SOL    HW252639   2.245   4.155   4.341 -0.4114 -1.8742  0.6184
15837SOL     OW52640   4.492   6.740   0.599  0.7007 -0.0471 -0.1926
15837SOL    HW152641   4.479   6.818   0.653 -0.7941 -0.9324  0.7415
15837SOL    HW252642   4.568   6.696   0.637 -0.7851 -1.0606  1.6819
15838SOL     OW52643   4.662   4.491   3.828  0.3970 -0.1596  0.2341
15838SOL    HW152644   4.699   4.477   3.915 -0.1039  0.8614  0.6239
15838SOL    HW252645   4.683   4.582   3.808  0.7138 -0.4563 -0.8158
15839SOL     OW52646   6.510   6.256   3.314  0.6234 -0.1419 -0.0501
15839SOL    HW152647   6.561   6.184   3.352  1.1751 -0.0067 -0.5219
15839SOL    HW252648   6.420   6.223   3.314  0.7449 -0.5033  0.5118
15840SOL     OW52649   3.120   1.908   5.354  0.2356 -0.4305 -0.1763
15840SOL    HW152650   3.041   1.859   5.379  0.1973 -0.1858  0.1893
15840SOL    HW252651   3.189   1.872   5.410  0.6968 -1.6291 -1.4802
15841SOL     OW52652   2.537   4.537   5.790 -0.2165  0.0472 -0.0119
15841SOL    HW152653   2.452   4.503   5.818 -0.8784  0.6191 -1.2833
15841SOL    HW252654   2.519   4.582   5.707  1.0749  1.3758  0.4066
15842SOL     OW52655   4.514   7.276   1.108  0.1379  0.7078 -0.3010
15842SOL    HW152656   4.536   7.282   1.201  0.6518 -1.2082 -0.2817
15842SOL    HW252657   4.420   7.294   1.105  0.0717  0.5579  0.6229
15843SOL     OW52658   1.638   1.267   0.016  0.3079 -0.1396 -0.1589
15843SOL    HW152659   1.602   1.350   0.048  1.4741  0.6266 -0.8215
15843SOL    HW252660   1.722   1.290  -0.023  1.4110 -1.8698  1.0977
15844SOL     OW52661   7.233   1.270   5.204 -0.3701 -0.9847  0.4857
15844SOL    HW152662   7.319   1.281   5.164  0.0803 -1.7535  1.2339
15844SOL    HW252663   7.178   1.236   5.133 -0.8212  2.2593 -0.8066
15845SOL     OW52664   2.268   1.576   4.193 -0.8625 -0.2291 -0.1234
15845SOL    HW152665   2.332   1.516   4.156  0.7189  0.3900  1.5189
15845SOL    HW252666   2.320   1.647   4.230 -2.7264  2.6351 -2.8074
15846SOL     OW52667  11.146   6.260   2.628  0.1800  0.3135  0.1723
15846SOL    HW152668  11.115   6.171   2.614 -1.4369  1.2192 -2.3464
15846SOL    HW252669  11.157   6.296   2.539  0.7931  2.6110  1.1373
15847SOL     OW52670   2.744   1.468  10.405  0.2127 -0.2091  0.0885
15847SOL    HW152671   2.778   1.527  10.338  1.0873  0.0662  0.7689
15847SOL    HW252672   2.719   1.389  10.356  0.6232  0.0755 -0.5923
15848SOL     OW52673   6.964   1.546   9.439  0.0210 -0.0657  0.5147
15848SOL    HW152674   6.955   1.640   9.456 -2.0587  0.6580 -3.8688
15848SOL    HW252675   6.883   1.508   9.473 -1.7541  0.6281 -2.7515
15849SOL     OW52676   4.369   9.182   9.834  0.0018 -0.4999 -0.2766
15849SOL    HW152677   4.461   9.170   9.813 -0.4619  0.1839 -2.8177
15849SOL    HW252678   4.361   9.276   9.852 -0.5764 -0.1776 -2.1256
15850SOL     OW52679   3.189   6.264   8.620  0.1753  0.2943  0.0560
15850SOL    HW152680   3.154   6.349   8.595 -0.6258 -0.0145  0.1252
15850SOL    HW252681   3.200   6.270   8.715  0.1938  0.3460  0.0507
15851SOL     OW52682   7.030  10.901   2.889 -0.0981 -0.2501  0.3991
15851SOL    HW152683   7.057  10.851   2.812  1.2640  0.7200  0.2245
15851SOL    HW252684   7.099  10.885   2.953 -0.3176  0.3723  0.7896
15852SOL     OW52685   5.175   2.564   1.038 -0.2227 -0.1772  0.1601
15852SOL    HW152686   5.232   2.633   1.072 -0.0553 -1.1457  1.8631
15852SOL    HW252687   5.231   2.514   0.978 -0.1647  0.7496 -0.5741
15853SOL     OW52688   1.207   8.227   7.390  0.0320 -0.3998  0.0132
15853SOL    HW152689   1.289   8.275   7.407  0.0941 -0.1094 -1.0967
15853SOL    HW252690   1.150   8.291   7.348  0.0990 -1.2800 -1.4403
15854SOL     OW52691   6.034  10.755   9.152  0.2353  0.1762 -0.1930
15854SOL    HW152692   6.118  10.772   9.110 -0.5082  0.0354 -1.7874
15854SOL    HW252693   5.975  10.822   9.116 -0.3294  0.2652  0.8917
15855SOL     OW52694   5.716  10.938   8.453 -0.2261 -0.3335 -0.0327
15855SOL    HW152695   5.780  10.988   8.403 -0.3962  0.2621  0.3434
15855SOL    HW252696   5.702  10.989   8.533 -2.0418  0.1314 -0.6234
15856SOL     OW52697   8.344   2.398   3.573  0.0099 -0.8376  0.5411
15856SOL    HW152698   8.422   2.451   3.554  0.9427 -2.6782 -0.9261
15856SOL    HW252699   8.283   2.421   3.503 -0.4480 -0.0585  1.1858
15857SOL     OW52700   5.718   0.878   0.653  0.8211 -0.3532 -0.7710
15857SOL    HW152701   5.764   0.851   0.732  0.5070  0.1631 -0.4077
15857SOL    HW252702   5.730   0.973   0.649  0.1810 -0.2743 -0.9172
15858SOL     OW52703   7.751   4.988   6.686  0.0460  0.5220  0.5259
15858SOL    HW152704   7.842   5.017   6.691 -0.8161  3.3114  1.2159
15858SOL    HW252705   7.714   5.039   6.613 -1.0391 -0.3803  0.4339
15859SOL     OW52706   3.821   5.272   9.210 -0.2116  0.1262  0.1495
15859SOL    HW152707   3.818   5.331   9.285 -0.5761  0.6594 -0.2778
15859SOL    HW252708   3.758   5.308   9.148  1.3206  0.6936 -1.1260
15860SOL     OW52709   9.887   9.702   8.454  0.2795  0.1259  0.5450
15860SOL    HW152710   9.882   9.606   8.463  1.1743  0.0163 -0.1144
15860SOL    HW252711   9.797   9.732   8.470  0.1056 -0.7714  1.3363
15861SOL     OW52712   2.449   1.379   9.679  0.1641  0.7211 -0.4579
15861SOL    HW152713   2.515   1.411   9.741 -0.2302 -0.4286  0.5695
15861SOL    HW252714   2.482   1.293   9.651 -0.7714  0.2349 -0.1019
15862SOL     OW52715   8.850   9.486  10.363  0.1689  0.5214  0.1377
15862SOL    HW152716   8.853   9.437  10.281 -1.4438  0.0158  0.3675
15862SOL    HW252717   8.794   9.561  10.344  2.0881  1.9633 -0.0202
15863SOL     OW52718   3.708   7.601   1.863  0.4736  0.0673 -0.8107
15863SOL    HW152719   3.710   7.544   1.786  0.7662  0.5062 -1.1272
15863SOL    HW252720   3.799   7.603   1.893  0.1611 -1.0800  0.2654
15864SOL     OW52721   0.671   4.638   7.893 -0.1452  0.2751  0.1601
15864SOL    HW152722   0.680   4.636   7.988  4.0643 -0.6867 -0.1803
15864SOL    HW252723   0.715   4.718   7.866  0.0137 -0.2253 -1.1022
15865SOL     OW52724   8.273   8.805   4.991  0.0208  0.0350  0.0762
15865SOL    HW152725   8.296   8.862   4.918  2.0330 -1.7083 -0.6704
15865SOL    HW252726   8.253   8.721   4.951 -2.0291 -0.0852  1.2615
15866SOL     OW52727   3.727   8.361   3.789  0.0867 -0.5658  0.0828
15866SOL    HW152728   3.717   8.455   3.804  0.3237 -0.5417  0.0931
15866SOL    HW252729   3.709   8.349   3.696  1.9959 -0.2180 -0.3708
15867SOL     OW52730   2.195   0.650   6.117 -0.5413 -0.3466 -0.1752
15867SOL    HW152731   2.167   0.730   6.163  0.1039 -0.0252 -0.3317
15867SOL    HW252732   2.150   0.579   6.162  1.2539 -0.1910  1.9673
15868SOL     OW52733  10.322   3.692   5.896  0.4195 -0.0214  0.1469
15868SOL    HW152734  10.304   3.660   5.808  0.3306  1.5471 -0.4300
15868SOL    HW252735  10.237   3.693   5.940  0.0077  1.8347 -0.6664
15869SOL     OW52736   1.638   1.627   5.343  0.1505  0.4413  0.7216
15869SOL    HW152737   1.710   1.563   5.348 -0.1383  0.2415  2.4749
15869SOL    HW252738   1.681   1.709   5.319  0.7120 -0.0800 -0.0927
15870SOL     OW52739   2.472   5.715   9.041 -0.1637  0.0814  0.2059
15870SOL    HW152740   2.385   5.753   9.026 -0.0856  0.9808  1.8700
15870SOL    HW252741   2.529   5.790   9.052  0.6263 -0.5112  0.1684
15871SOL     OW52742   6.821   5.352   3.895  0.5979 -0.5636 -0.2384
15871SOL    HW152743   6.752   5.293   3.867 -0.9136  0.3293  1.4719
15871SOL    HW252744   6.889   5.342   3.829 -1.4327 -0.9479 -2.3544
15872SOL     OW52745   0.538   5.384   7.219  0.0208 -0.4619  0.4349
15872SOL    HW152746   0.473   5.317   7.237 -0.2501  0.1154  1.5946
15872SOL    HW252747   0.503   5.432   7.143 -0.5873 -0.5542  0.6591
15873SOL     OW52748   7.051   7.210   3.951  0.2036  0.3536 -0.1569
15873SOL    HW152749   7.054   7.138   4.014 -0.8510 -0.0355 -0.5419
15873SOL    HW252750   7.108   7.277   3.990  0.9592 -0.5521  0.3517
15874SOL     OW52751   8.021   2.881   2.519  0.1727  0.2703 -0.1759
15874SOL    HW152752   7.958   2.858   2.588 -0.8454  0.7798 -0.9240
15874SOL    HW252753   7.966   2.905   2.444  1.2638  0.9954 -0.7419
15875SOL     OW52754  10.281   4.643   2.798 -0.3391 -0.4909  0.0449
15875SOL    HW152755  10.231   4.564   2.777  1.1393 -1.7090  1.0087
15875SOL    HW252756  10.225   4.715   2.770 -2.2409 -1.8459  0.2920
15876SOL     OW52757   9.457   1.633  11.052 -0.0816  0.0882  0.5323
15876SOL    HW152758   9.521   1.614  11.121 -1.3290 -0.8763  1.4647
15876SOL    HW252759   9.378   1.658  11.100 -1.0144 -0.7308 -0.5440
15877SOL     OW52760   4.285   3.050   2.604  0.2969 -0.0148  0.3965
15877SOL    HW152761   4.219   3.085   2.545  1.2228 -0.9053 -1.1866
15877SOL    HW252762   4.247   2.969   2.638  0.6994 -0.7028 -0.7738
15878SOL     OW52763   2.942   9.704   3.155  0.4210  0.7826  0.4517
15878SOL    HW152764   3.037   9.705   3.141  0.4534 -1.8261  0.2407
15878SOL    HW252765   2.921   9.612   3.169 -1.7906  1.5886  2.7298
15879SOL     OW52766   4.212   8.998   9.958 -0.0136 -0.5577 -0.2223
15879SOL    HW152767   4.220   9.009  10.053  0.0011 -2.4156  0.0026
15879SOL    HW252768   4.285   9.049   9.922 -0.9038  1.4024  0.6718
15880SOL     OW52769   3.115   4.436   2.431  0.1372 -0.2278  0.6872
15880SOL    HW152770   3.033   4.418   2.476 -0.1606  0.1937  0.3180
15880SOL    HW252771   3.182   4.422   2.498 -0.2539 -0.2327  1.0836
15881SOL     OW52772   3.511   8.936   7.539  0.3351  0.2963 -0.4078
15881SOL    HW152773   3.528   8.899   7.452  0.5188 -2.2191  0.6390
15881SOL    HW252774   3.578   9.003   7.550 -0.4907  1.5504 -2.7045
15882SOL     OW52775   5.383   6.152   0.828 -0.0886  0.0357 -0.0975
15882SOL    HW152776   5.466   6.123   0.791  0.5216  0.3963  0.9542
15882SOL    HW252777   5.326   6.075   0.824  1.4374 -1.2946  2.4664
15883SOL     OW52778   8.165   1.602   8.305 -0.5926  0.0349 -0.5019
15883SOL    HW152779   8.098   1.648   8.355 -0.7868  0.4012 -1.0940
15883SOL    HW252780   8.191   1.529   8.361 -0.3390  0.8198  0.4117
15884SOL     OW52781   8.267   2.809   4.484 -0.1676 -0.5490  0.2989
15884SOL    HW152782   8.293   2.893   4.522 -0.8637 -0.4798  0.6383
15884SOL    HW252783   8.324   2.745   4.527  1.4883 -0.0925 -1.1471
15885SOL     OW52784   3.098   5.931   4.803  0.6065  0.2716 -0.0164
15885SOL    HW152785   3.161   5.937   4.875  0.0360  0.5748  0.4756
15885SOL    HW252786   3.025   5.881   4.840  0.3265  0.4008 -0.3940
15886SOL     OW52787   5.790   1.122   0.371 -0.3341  0.3121  0.5308
15886SOL    HW152788   5.861   1.143   0.309  0.5691 -1.9500  0.7530
15886SOL    HW252789   5.793   1.027   0.379 -1.8186  0.4058  2.4621
15887SOL     OW52790   8.709   9.279   5.473  0.1671 -0.6278 -0.0397
15887SOL    HW152791   8.713   9.199   5.525  2.3536 -0.8228 -0.4562
15887SOL    HW252792   8.759   9.258   5.394 -0.4457  0.6800 -0.7823
15888SOL     OW52793   0.066   3.563   1.588 -0.4152 -0.0881 -1.2449
15888SOL    HW152794  -0.010   3.602   1.545 -0.3996 -0.3986 -1.5519
15888SOL    HW252795   0.033   3.482   1.627  0.1012 -1.0633 -2.7571
15889SOL     OW52796   4.724   8.615   1.859  0.6248  0.6497  0.9240
15889SOL    HW152797   4.660   8.579   1.797  1.1621  0.8167  0.2735
15889SOL    HW252798   4.671   8.640   1.935 -0.3529  2.4345 -0.2989
15890SOL     OW52799   0.978   4.076   8.834 -0.1270 -0.4453  0.3020
15890SOL    HW152800   1.035   4.125   8.893 -0.7344  2.4427 -1.4077
15890SOL    HW252801   1.036   4.015   8.789  1.5251  1.9460 -0.8898
15891SOL     OW52802   3.384   0.081  10.369  0.3200  0.1264  0.0643
15891SOL    HW152803   3.459   0.028  10.392  0.1775  0.2395  0.8079
15891SOL    HW252804   3.404   0.168  10.405  0.0988  0.3130 -0.2548
15892SOL     OW52805   9.121   7.238   4.021 -0.4640  0.2678  0.0811
15892SOL    HW152806   9.066   7.316   4.024 -0.5927  0.2428 -1.5833
15892SOL    HW252807   9.074   7.176   3.965  2.3682  1.1489 -3.4133
15893SOL     OW52808   1.038  10.563   5.666  0.3383 -0.1072 -0.1119
15893SOL    HW152809   1.025  10.543   5.759 -0.7899 -0.3741 -0.3283
15893SOL    HW252810   0.961  10.527   5.622  0.6786  0.3627 -1.1109
15894SOL     OW52811  11.215   5.660   9.235  0.2067  0.3023  0.0002
15894SOL    HW152812  11.158   5.729   9.203  1.5696  0.4571 -2.1970
15894SOL    HW252813  11.198   5.656   9.329 -0.3255  3.2026  0.0729
15895SOL     OW52814   0.454   4.128   0.846  0.1628 -0.4205 -0.5493
15895SOL    HW152815   0.445   4.051   0.789 -0.3832 -0.0262 -0.9896
15895SOL    HW252816   0.547   4.128   0.871  0.3404 -0.7530 -1.2115
15896SOL     OW52817   1.754   4.144   9.536 -0.4411  0.5138  0.1114
15896SOL    HW152818   1.784   4.081   9.471 -1.9942 -0.6957  0.5666
15896SOL    HW252819   1.684   4.192   9.492  0.4975  1.7311 -0.1121
15897SOL     OW52820   9.045   9.751   1.398  0.2174 -0.5102 -0.6512
15897SOL    HW152821   9.125   9.794   1.366  0.0984  0.6517  0.5838
15897SOL    HW252822   9.012   9.704   1.321  0.4903  1.4114 -1.9999
15898SOL     OW52823   2.414  10.978   0.566  0.1996  0.0401 -0.6288
15898SOL    HW152824   2.382  10.894   0.533 -0.4594 -0.1464  0.4415
15898SOL    HW252825   2.441  11.026   0.488  1.7897 -1.6565 -1.1536
15899SOL     OW52826   2.862   2.535  10.426 -0.2191 -0.6714 -0.2810
15899SOL    HW152827   2.786   2.562  10.374 -0.0211 -0.3651 -0.4168
15899SOL    HW252828   2.847   2.572  10.513  0.6515  0.9649 -0.8033
15900SOL     OW52829   8.402   3.325  10.845  0.2643 -0.0124 -0.5627
15900SOL    HW152830   8.452   3.331  10.763  1.7104 -1.7042  0.1757
15900SOL    HW252831   8.355   3.409  10.850  0.9368  0.5248 -2.6026
15901SOL     OW52832   3.756   1.476   5.982 -0.0131 -1.0812 -0.2082
15901SOL    HW152833   3.812   1.539   5.938  1.4661 -2.0533  0.2522
15901SOL    HW252834   3.675   1.476   5.931  1.5924 -2.0426 -2.8365
15902SOL     OW52835   8.403   0.940   0.125 -0.1105  0.4098 -0.3082
15902SOL    HW152836   8.374   0.915   0.038 -0.6761 -0.5137  0.1372
15902SOL    HW252837   8.324   0.934   0.179  0.2670  0.8317  0.2986
15903SOL     OW52838   3.325   2.551   6.343 -0.2742 -0.2624  0.0079
15903SOL    HW152839   3.270   2.624   6.373 -0.0421  0.7985 -2.0311
15903SOL    HW252840   3.329   2.562   6.248  2.8305 -0.7543  0.0291
15904SOL     OW52841   9.259  10.892   6.366  0.2488  0.0612  0.1101
15904SOL    HW152842   9.176  10.847   6.375 -1.2272  2.7628  0.4169
15904SOL    HW252843   9.270  10.903   6.271 -0.8839  1.7125  0.1567
15905SOL     OW52844   0.166   9.197   8.065 -0.0858  0.2498  0.2046
15905SOL    HW152845   0.173   9.160   7.977 -2.1793 -0.9891  0.5051
15905SOL    HW252846   0.076   9.231   8.070  0.1331  0.6654  1.7130
15906SOL     OW52847   8.194   5.101   5.143  0.6306 -0.3657 -0.1656
15906SOL    HW152848   8.168   5.063   5.226 -0.9964  1.1287  0.0485
15906SOL    HW252849   8.243   5.180   5.166  0.2756 -0.0071 -0.6093
15907SOL     OW52850  10.583   5.652   7.613 -0.1147  0.3954 -0.6084
15907SOL    HW152851  10.548   5.679   7.528 -3.1623 -1.5376 -0.0543
15907SOL    HW252852  10.654   5.592   7.592  0.7748  1.8105 -1.7649
15908SOL     OW52853   2.572   2.329   3.741  0.5499  0.0221 -0.0142
15908SOL    HW152854   2.521   2.249   3.725  0.2784  0.2514 -0.3002
15908SOL    HW252855   2.564   2.379   3.660 -1.4765  1.5614  1.0752
15909SOL     OW52856   9.230  11.185   7.747  0.0641  0.0960  0.1890
15909SOL    HW152857   9.251  11.210   7.658 -0.2591 -0.5553 -0.0734
15909SOL    HW252858   9.311  11.147   7.781  0.3251  0.7773  0.3350
15910SOL     OW52859   1.975   2.793   6.187 -0.0007  0.7738  0.0370
15910SOL    HW152860   1.964   2.715   6.133 -0.8317 -0.7768  2.3370
15910SOL    HW252861   1.896   2.844   6.173 -0.6425 -0.0831  0.4937
15911SOL     OW52862   9.756   5.955   0.169  0.1677  0.3038 -0.5472
15911SOL    HW152863   9.757   5.946   0.074 -0.9234  3.2082 -0.8796
15911SOL    HW252864   9.712   5.876   0.200 -3.0211  1.1346 -2.7381
15912SOL     OW52865   0.146   8.593   0.327 -0.6633 -0.0939 -0.2362
15912SOL    HW152866   0.082   8.597   0.257 -1.1583 -0.6458  0.1774
15912SOL    HW252867   0.179   8.503   0.324 -0.6066 -0.0884  0.1661
15913SOL     OW52868   6.394   6.233  10.934 -0.6436 -0.5383 -0.2850
15913SOL    HW152869   6.473   6.250  10.984 -0.4248  0.1103 -0.8323
15913SOL    HW252870   6.371   6.142  10.953 -0.0467 -0.5751  0.2566
15914SOL     OW52871   7.807   0.766   3.068 -0.2225 -0.2981 -0.4383
15914SOL    HW152872   7.770   0.689   3.111  1.0732 -0.9744 -0.5149
15914SOL    HW252873   7.864   0.730   3.000  0.3192  0.7345 -0.5284
15915SOL     OW52874   6.879   4.304   3.433  0.5324  0.2467  0.0950
15915SOL    HW152875   6.807   4.274   3.378  1.8226 -0.8621 -1.0564
15915SOL    HW252876   6.948   4.238   3.419  2.1866  1.9182  0.2137
15916SOL     OW52877   3.755   6.922  11.269 -0.0863  0.0115 -0.1246
15916SOL    HW152878   3.818   6.980  11.225 -0.5836  1.5369  1.1116
15916SOL    HW252879   3.703   6.884  11.198 -1.0462  2.6369 -0.8939
15917SOL     OW52880   0.937   2.295   4.410 -0.5962  0.2896 -0.1369
15917SOL    HW152881   0.988   2.360   4.360 -0.1756  2.1294  2.5694
15917SOL    HW252882   0.846   2.319   4.395 -0.4440  1.5347  0.8185
15918SOL     OW52883   3.815   5.257  10.309 -0.6096 -0.0376 -0.0443
15918SOL    HW152884   3.807   5.295  10.222 -2.5370  0.3446  0.2688
15918SOL    HW252885   3.804   5.330  10.369 -2.3504 -0.7253  0.5300
15919SOL     OW52886   3.503   0.378   2.613  0.1904  0.5103  0.5307
15919SOL    HW152887   3.428   0.435   2.597  0.5613  0.7150 -0.5571
15919SOL    HW252888   3.475   0.291   2.582 -0.2380  0.1763  1.8267
15920SOL     OW52889  10.076   0.478   8.502  0.6636 -0.3898 -0.2289
15920SOL    HW152890  10.122   0.554   8.537  1.2120 -0.3370 -1.0473
15920SOL    HW252891  10.014   0.514   8.438  2.3450 -0.7732 -2.1186
15921SOL     OW52892   9.266   4.641   6.084 -0.0796 -0.1136 -0.0449
15921SOL    HW152893   9.269   4.695   6.163  0.2586  1.4504 -1.1073
15921SOL    HW252894   9.243   4.553   6.116  0.6208  0.3589  1.8503
15922SOL     OW52895   8.768   0.067   2.878 -0.2346 -0.6163  0.1584
15922SOL    HW152896   8.820   0.116   2.814  0.7454 -0.1603  1.2917
15922SOL    HW252897   8.725  -0.001   2.826  0.1646  0.0436 -1.0646
15923SOL     OW52898   6.012   3.045   2.481  0.2331  0.4103  0.8665
15923SOL    HW152899   5.977   2.995   2.555 -2.0191  1.9181  0.8938
15923SOL    HW252900   6.007   3.137   2.510 -1.8303  1.1342 -1.5207
15924SOL     OW52901   6.826   3.319   0.816 -0.0609  0.1445  0.0559
15924SOL    HW152902   6.907   3.364   0.837  0.1420 -0.1841 -0.0131
15924SOL    HW252903   6.854   3.236   0.778 -0.4289 -0.1211  0.3567
15925SOL     OW52904   8.381   6.271   3.904  0.1539 -0.9475 -0.1109
15925SOL    HW152905   8.351   6.249   3.816 -0.3850 -0.0867 -0.1433
15925SOL    HW252906   8.372   6.190   3.953 -0.0281 -1.2968 -0.7152
15926SOL     OW52907   5.222   5.781  10.479 -0.4027  0.3444  0.2179
15926SOL    HW152908   5.144   5.741  10.442 -0.0380  0.4320 -0.6572
15926SOL    HW252909   5.220   5.872  10.447  0.7463 -0.0122 -0.9191
15927SOL     OW52910   1.893   0.136   5.060  0.1445 -0.1950 -0.3814
15927SOL    HW152911   1.818   0.081   5.039  0.7619 -2.4060  2.7603
15927SOL    HW252912   1.854   0.215   5.098 -0.6470 -0.1006 -1.3588
15928SOL     OW52913   9.846  10.398  10.812  0.0675 -0.1457  0.0201
15928SOL    HW152914   9.869  10.324  10.756 -3.0968 -1.1530 -0.0178
15928SOL    HW252915   9.755  10.382  10.837 -0.6852  3.7289  0.0212
15929SOL     OW52916   1.788   4.050   7.734 -0.0906 -0.6412  0.6453
15929SOL    HW152917   1.821   4.054   7.823  0.9575  3.0168  0.1779
15929SOL    HW252918   1.863   4.023   7.681  0.8722  2.4373  0.2812
15930SOL     OW52919   7.484   1.582  11.301  0.3298  0.1891 -0.2042
15930SOL    HW152920   7.481   1.488  11.284 -2.2330 -0.3108  2.6727
15930SOL    HW252921   7.576   1.606  11.287  0.9000 -2.5942 -1.5753
15931SOL     OW52922  10.461   9.993   2.865  0.6594  0.1988  0.3389
15931SOL    HW152923  10.524   9.931   2.829  0.2983 -1.5712  2.6400
15931SOL    HW252924  10.512  10.045   2.927  0.2998  0.1176  0.7049
15932SOL     OW52925   4.848   8.267   3.557  0.3009 -0.0490 -0.5544
15932SOL    HW152926   4.905   8.267   3.634 -0.9421 -0.6359  0.3815
15932SOL    HW252927   4.822   8.359   3.546 -0.8175 -0.1959  0.7204
15933SOL     OW52928   4.706   0.441  11.186  0.0037 -0.2277 -0.4337
15933SOL    HW152929   4.736   0.434  11.277  0.7776 -1.2904 -0.7587
15933SOL    HW252930   4.681   0.533  11.176 -1.2569 -0.3564  1.2046
15934SOL     OW52931   1.708   6.704   7.988 -0.7742 -0.4189 -0.1949
15934SOL    HW152932   1.752   6.683   8.071 -0.9134 -2.0448 -0.5265
15934SOL    HW252933   1.642   6.635   7.978 -3.2924  1.8426  0.1806
15935SOL     OW52934   9.433   2.845   7.301  0.6702 -0.0465  0.1818
15935SOL    HW152935   9.416   2.921   7.356  0.3624 -1.5081  2.1253
15935SOL    HW252936   9.383   2.861   7.221  0.3166  1.6173  0.7288
15936SOL     OW52937   3.786   6.614   1.538 -0.0362 -0.1308 -0.1270
15936SOL    HW152938   3.852   6.577   1.480  0.0967 -0.5974  0.3177
15936SOL    HW252939   3.765   6.544   1.599 -2.0444 -0.4812 -1.1681
15937SOL     OW52940   9.878   3.165   6.715 -0.5073 -0.2765  0.5003
15937SOL    HW152941   9.857   3.241   6.769  2.8679 -0.5230  2.2442
15937SOL    HW252942   9.799   3.151   6.662 -2.0370  2.9975  1.7994
15938SOL     OW52943   3.873   9.143   3.497 -0.5067 -0.5909 -0.1087
15938SOL    HW152944   3.780   9.153   3.518  0.1907  2.5747  1.8341
15938SOL    HW252945   3.918   9.155   3.580  1.6805 -1.7179 -1.0998
15939SOL     OW52946   2.397   0.445   3.744 -0.1452  0.1085 -0.4284
15939SOL    HW152947   2.373   0.443   3.836  0.9107 -0.6018 -0.1567
15939SOL    HW252948   2.426   0.535   3.728 -2.5908  0.8869 -0.6801
15940SOL     OW52949   0.734   8.050   3.066 -0.0313 -0.4521 -0.1317
15940SOL    HW152950   0.788   8.052   3.145  0.4743  0.6855 -0.5079
15940SOL    HW252951   0.662   8.111   3.084  0.7416  0.7299 -1.0165
15941SOL     OW52952   2.605   4.967   7.943  0.0207 -0.2604 -0.3141
15941SOL    HW152953   2.584   4.895   7.883 -1.2365 -0.3439  0.2178
15941SOL    HW252954   2.583   5.046   7.893 -1.7210 -0.3502  0.2826
15942SOL     OW52955  11.323   4.714   3.085 -0.0381 -0.3564  0.3397
15942SOL    HW152956  11.288   4.627   3.070  0.8259 -0.6309 -0.1251
15942SOL    HW252957  11.312   4.729   3.179  0.2303 -1.1530  0.5006
15943SOL     OW52958   2.919  10.643   4.401  0.1589  0.0431 -0.2971
15943SOL    HW152959   2.944  10.710   4.338  1.6547 -0.0064  0.2118
15943SOL    HW252960   2.945  10.561   4.360  1.0937  0.0074  0.3463
15944SOL     OW52961   6.839   2.634   1.220  0.4018 -0.4043 -0.1446
15944SOL    HW152962   6.797   2.690   1.154 -0.2754 -0.5589  0.1551
15944SOL    HW252963   6.803   2.547   1.204 -0.1136 -0.3522  0.7324
15945SOL     OW52964   7.295   1.421  10.487 -0.3700  0.3991 -0.0070
15945SOL    HW152965   7.299   1.462  10.400 -1.5044 -0.1849 -0.3444
15945SOL    HW252966   7.381   1.382  10.499  0.4246  2.0711 -0.0751
15946SOL     OW52967   1.543   0.718   9.220  0.4333  0.3921  0.0020
15946SOL    HW152968   1.562   0.648   9.283 -0.3004  0.2661  0.0859
15946SOL    HW252969   1.464   0.689   9.175 -0.8793  1.9823  1.2494
15947SOL     OW52970  10.262   6.031   9.461 -0.0717  0.0762  0.0480
15947SOL    HW152971  10.308   6.092   9.519  1.2873 -0.5400 -0.3529
15947SOL    HW252972  10.300   6.046   9.375 -1.6663  0.5724 -0.5784
15948SOL     OW52973   6.336   4.815   4.658  0.1067 -0.7191  0.1000
15948SOL    HW152974   6.415   4.809   4.604 -0.7797 -1.9200 -1.1264
15948SOL    HW252975   6.272   4.858   4.601 -0.2569 -0.1471  0.9334
15949SOL     OW52976   9.794   9.547   1.590  0.3779  0.3336 -0.7406
15949SOL    HW152977   9.855   9.493   1.641 -0.4138  0.4992  0.4043
15949SOL    HW252978   9.730   9.484   1.556  0.2538  0.3713 -0.5750
15950SOL     OW52979   3.368   4.981   0.775 -0.4561 -0.2838  0.0955
15950SOL    HW152980   3.302   4.948   0.835 -0.5572  0.3398  0.3267
15950SOL    HW252981   3.345   5.073   0.761 -0.9439 -0.6341 -1.5684
15951SOL     OW52982   6.592   5.939   5.583  0.0780 -0.1378  0.0171
15951SOL    HW152983   6.553   5.851   5.586 -0.4550  0.0191 -1.7302
15951SOL    HW252984   6.522   5.998   5.609  0.6841 -0.2724  2.0643
15952SOL     OW52985   9.811   3.251   5.432  0.7025 -0.4525  0.4082
15952SOL    HW152986   9.859   3.216   5.507  0.2720 -0.4595  0.6853
15952SOL    HW252987   9.878   3.287   5.375  0.9637  0.4136  1.2470
15953SOL     OW52988   8.262   1.551  10.141  0.6440 -0.1787  0.1411
15953SOL    HW152989   8.311   1.514  10.215  1.6066  1.1510  0.1839
15953SOL    HW252990   8.184   1.497  10.135  1.6607 -1.7528  0.6851
15954SOL     OW52991   0.223   4.614   8.402 -0.2262  0.4377  0.6312
15954SOL    HW152992   0.272   4.672   8.343  0.5226  1.0523  1.8509
15954SOL    HW252993   0.277   4.535   8.406 -1.5825 -0.6655 -1.5735
15955SOL     OW52994   0.666   6.608   5.899  0.0594  0.3734 -0.0477
15955SOL    HW152995   0.728   6.604   5.825 -2.4285  0.0029 -2.1878
15955SOL    HW252996   0.631   6.519   5.905 -2.6257  1.3206 -1.0171
15956SOL     OW52997   8.009   3.286  11.066  0.0177 -0.4169  0.0107
15956SOL    HW152998   8.044   3.358  11.014  0.1259  1.0924  2.1150
15956SOL    HW252999   7.962   3.329  11.137 -1.9584 -2.4366 -0.0407
15957SOL     OW53000   0.333   5.854   5.896  0.1793  0.1434  0.2692
15957SOL    HW153001   0.397   5.838   5.827 -0.9595 -0.1077 -0.7414
15957SOL    HW253002   0.257   5.889   5.851 -1.1779 -1.5431  1.1836
15958SOL     OW53003   6.556   3.844   7.301  0.0169  0.0363 -0.5262
15958SOL    HW153004   6.558   3.769   7.361  0.2782  1.7492  1.6520
15958SOL    HW253005   6.647   3.852   7.270  0.0829 -0.2520 -0.4074
15959SOL     OW53006   2.512   2.367   8.322  0.1846 -0.2551  0.1344
15959SOL    HW153007   2.530   2.381   8.229  1.5172 -2.2907  0.0496
15959SOL    HW253008   2.507   2.272   8.332 -1.8708 -0.0076  1.8190
15960SOL     OW53009   4.177   5.856   8.622  0.2907 -0.7293  0.4041
15960SOL    HW153010   4.083   5.837   8.619  0.2936 -0.5821 -0.9809
15960SOL    HW253011   4.219   5.770   8.619  0.2181 -0.7640  0.3780
15961SOL     OW53012   2.636   9.615   8.449 -0.1530  0.7059 -0.0919
15961SOL    HW153013   2.590   9.574   8.376 -1.8630  0.2289  1.2073
15961SOL    HW253014   2.572   9.678   8.484  0.1659  0.0087  1.7784
15962SOL     OW53015   8.006   5.527   7.498 -0.8200 -0.4926 -0.4690
15962SOL    HW153016   8.013   5.433   7.484  2.4709 -0.1794 -1.1363
15962SOL    HW253017   8.046   5.542   7.583 -0.5373  0.4210 -0.7561
15963SOL     OW53018  10.020   8.972   6.003 -0.2398 -0.0611 -0.0658
15963SOL    HW153019  10.103   8.957   5.958  1.0482  2.5373  1.3143
15963SOL    HW253020  10.042   8.965   6.096 -1.7057  0.0800  0.2976
15964SOL     OW53021   9.527   3.588   2.568  0.2221  0.0193  0.0930
15964SOL    HW153022   9.610   3.540   2.565  0.3990  0.3571 -0.8380
15964SOL    HW253023   9.477   3.552   2.495  0.8708  2.1326 -1.4523
15965SOL     OW53024   8.535   1.694   0.096 -0.6312 -0.3634  0.1868
15965SOL    HW153025   8.504   1.682   0.006 -1.0480  0.2884  0.2399
15965SOL    HW253026   8.465   1.741   0.140  0.3139  0.9051  0.3798
15966SOL     OW53027   7.282   2.654   8.327 -0.0621  0.1501  0.5850
15966SOL    HW153028   7.292   2.709   8.250  0.6999  2.1510  2.0867
15966SOL    HW253029   7.236   2.709   8.391  0.3808 -1.0697  1.9794
15967SOL     OW53030   8.243   7.820   3.211 -0.1024  0.3762 -0.1109
15967SOL    HW153031   8.210   7.737   3.176 -0.4151  0.3181  0.3175
15967SOL    HW253032   8.174   7.850   3.270 -0.8129  1.8292 -1.6195
15968SOL     OW53033   5.963   0.473   4.313  0.3769  0.1483 -0.6061
15968SOL    HW153034   5.910   0.552   4.303 -0.8768 -0.8732 -2.4031
15968SOL    HW253035   6.051   0.505   4.331 -0.4521  1.9107  0.4459
15969SOL     OW53036   7.125   6.804   7.881 -0.2708  0.0081  0.3340
15969SOL    HW153037   7.162   6.719   7.859 -0.8267 -0.9963  3.0503
15969SOL    HW253038   7.194   6.849   7.930 -0.6542  0.3683  0.5522
15970SOL     OW53039   5.130   2.458   4.907  0.6342 -0.0399 -0.1817
15970SOL    HW153040   5.122   2.550   4.883 -0.4769  0.5275  2.2478
15970SOL    HW253041   5.072   2.412   4.846  1.1569  0.8576 -1.3617
15971SOL     OW53042   4.625   5.466   1.956 -0.4332  0.8509 -0.3370
15971SOL    HW153043   4.544   5.473   1.905 -1.2518 -0.7626  0.7165
15971SOL    HW253044   4.635   5.373   1.974  0.2393  1.3109  1.8129
15972SOL     OW53045   1.096   2.252   3.081  0.8223  0.1928 -0.1284
15972SOL    HW153046   1.003   2.275   3.071  1.1720  2.1204  0.8488
15972SOL    HW253047   1.102   2.218   3.170  0.8389 -1.0945 -0.6122
15973SOL     OW53048   8.438   4.836  10.659  0.6533  0.1326  0.2172
15973SOL    HW153049   8.484   4.802  10.736  0.1832  0.5794  0.6979
15973SOL    HW253050   8.503   4.830  10.588  1.1116 -0.2136  0.6630
15974SOL     OW53051   3.540   2.314   9.567  0.2186 -0.6145 -0.2381
15974SOL    HW153052   3.475   2.309   9.637 -0.5485  2.7825 -0.6588
15974SOL    HW253053   3.613   2.361   9.605  0.2900  0.1907 -1.3516
15975SOL     OW53054   1.103   3.454   8.122  0.0921 -0.4260  0.4270
15975SOL    HW153055   1.066   3.536   8.155  0.1011  0.1712 -0.9946
15975SOL    HW253056   1.132   3.408   8.200 -0.4577  0.6660  1.2960
15976SOL     OW53057   3.259   1.132   3.225  0.0058  0.0931 -0.2278
15976SOL    HW153058   3.243   1.178   3.143  0.0352  0.0703 -0.2460
15976SOL    HW253059   3.177   1.085   3.242 -1.4027  3.0913  1.6977
15977SOL     OW53060   3.916   1.247   2.427 -0.1468  0.3590  0.3471
15977SOL    HW153061   3.947   1.327   2.469 -0.8558  0.4166  0.7704
15977SOL    HW253062   3.821   1.255   2.427 -0.4394 -1.8618  3.2657
15978SOL     OW53063   5.334  10.422   5.254  0.1868 -0.0719 -0.1699
15978SOL    HW153064   5.244  10.453   5.249  1.1587  2.8050 -1.3221
15978SOL    HW253065   5.355  10.393   5.165  0.5435 -0.2828 -0.0209
15979SOL     OW53066   8.637   0.651  11.295  0.1707  0.4176  0.5356
15979SOL    HW153067   8.594   0.647  11.209  1.7949  4.5519 -0.6254
15979SOL    HW253068   8.730   0.652  11.274  0.5839  1.1837  2.3663
15980SOL     OW53069   7.778   4.249   5.314  0.1917 -1.0290  0.0916
15980SOL    HW153070   7.736   4.277   5.395  1.0209 -1.5625  0.7179
15980SOL    HW253071   7.871   4.266   5.328  0.1781  0.3683 -1.3775
15981SOL     OW53072  10.381   5.223   3.666 -0.4771  0.7293 -0.0510
15981SOL    HW153073  10.315   5.201   3.600 -0.9644 -0.4401  0.8119
15981SOL    HW253074  10.407   5.139   3.703 -0.1628  1.3678  1.2043
15982SOL     OW53075   6.506   6.805   6.020 -1.1208  0.0818  0.1940
15982SOL    HW153076   6.481   6.735   5.960  2.5125 -1.5338  0.4462
15982SOL    HW253077   6.495   6.886   5.969 -0.6881 -1.0464 -1.7342
15983SOL     OW53078   9.200   6.737   9.088 -0.6117  0.2480 -0.5036
15983SOL    HW153079   9.176   6.823   9.121  0.4003  0.7756 -1.1425
15983SOL    HW253080   9.120   6.704   9.047 -0.6223  1.4482 -1.4561
15984SOL     OW53081   4.657   4.086   0.490 -0.2768  0.0093  0.3958
15984SOL    HW153082   4.634   4.046   0.406 -1.5210 -0.1037  0.7808
15984SOL    HW253083   4.593   4.157   0.501  0.4416  0.5996  0.8335
15985SOL     OW53084   3.386   4.184   2.161  0.2173 -0.0858 -0.0585
15985SOL    HW153085   3.455   4.159   2.098  0.4823 -0.7807  0.4992
15985SOL    HW253086   3.413   4.143   2.243 -0.0041  1.0301  0.5715
15986SOL     OW53087   2.286   1.200   5.530  0.7718 -1.1671  0.0915
15986SOL    HW153088   2.197   1.183   5.562  0.3974 -1.1573 -0.9290
15986SOL    HW253089   2.313   1.279   5.576 -0.5586  0.0416 -1.1691
15987SOL     OW53090   7.023   2.065  10.325 -0.3334 -0.3963 -0.1529
15987SOL    HW153091   7.087   1.995  10.311  1.0089  0.2976  2.2576
15987SOL    HW253092   7.027   2.117  10.244  2.6110 -0.0285  0.1662
15988SOL     OW53093   8.597   8.727   3.646  0.2084  0.3481  0.0215
15988SOL    HW153094   8.666   8.663   3.666 -0.2281 -0.0862  0.1384
15988SOL    HW253095   8.643   8.797   3.600  0.7699  0.1609  0.2800
15989SOL     OW53096   0.078   7.111   0.951 -0.4470 -0.1269  0.0357
15989SOL    HW153097   0.004   7.099   1.012 -0.1261 -0.3499  0.3818
15989SOL    HW253098   0.112   7.198   0.972 -0.2508 -0.2592  0.2714
15990SOL     OW53099   5.215   4.883   4.084 -0.6559 -0.1835  0.1112
15990SOL    HW153100   5.255   4.884   3.997 -0.4876  0.5401  0.1936
15990SOL    HW253101   5.156   4.807   4.082 -0.5760 -0.2355 -0.5945
15991SOL     OW53102  10.529   2.420   6.808  0.3826  0.0924  0.3557
15991SOL    HW153103  10.555   2.424   6.900 -0.7678  2.3499  0.6348
15991SOL    HW253104  10.435   2.438   6.810  0.3017 -0.1136 -1.2389
15992SOL     OW53105   9.701   1.217   8.283 -0.1054  0.4229  0.1555
15992SOL    HW153106   9.692   1.127   8.252 -2.1915  0.4315  0.6930
15992SOL    HW253107   9.766   1.212   8.353  1.2900 -0.3210 -1.1644
15993SOL     OW53108   5.654   5.619   1.015  0.0839  0.0009 -0.0775
15993SOL    HW153109   5.745   5.628   0.988  0.1234  0.9993  0.3667
15993SOL    HW253110   5.618   5.552   0.957  0.9472  0.0128 -0.6325
15994SOL     OW53111   8.560   8.108   5.884 -0.6339 -0.5709  0.8762
15994SOL    HW153112   8.597   8.020   5.879  0.5815 -0.1674  2.3824
15994SOL    HW253113   8.467   8.094   5.901 -0.3999 -1.5670  1.3923
15995SOL     OW53114   0.339   0.968   2.542 -0.1322  0.1229 -0.0917
15995SOL    HW153115   0.319   1.016   2.462 -1.1111 -0.7125 -0.3510
15995SOL    HW253116   0.401   1.024   2.589  0.6239  0.4990 -1.5349
15996SOL     OW53117   0.527   9.111   5.728 -0.5746 -0.4438  0.5587
15996SOL    HW153118   0.541   9.088   5.820 -4.7152 -0.8001  1.1935
15996SOL    HW253119   0.581   9.189   5.714  0.5278 -0.7046  3.1161
15997SOL     OW53120   8.706   7.935   2.339  0.5078  0.4732 -0.0877
15997SOL    HW153121   8.713   8.025   2.307 -1.7406  0.4781 -0.6704
15997SOL    HW253122   8.684   7.945   2.432  1.6234  0.5147  0.1704
15998SOL     OW53123   5.292   3.409   5.349  0.2391  0.3669  0.0895
15998SOL    HW153124   5.350   3.453   5.411 -0.0628  0.1736  0.5078
15998SOL    HW253125   5.273   3.325   5.389  1.4817 -0.4960 -1.1028
15999SOL     OW53126   0.079   5.467   0.706  0.1502  0.3428  0.2263
15999SOL    HW153127  -0.016   5.463   0.697  0.2987  0.6702 -1.6717
15999SOL    HW253128   0.093   5.534   0.772 -0.9576 -0.3454  1.1883
16000SOL     OW53129   9.894   3.511  11.056  0.3176  0.2472 -0.5875
16000SOL    HW153130   9.837   3.516  11.133  1.1664  1.7198 -0.0353
16000SOL    HW253131   9.938   3.596  11.053 -0.3323  0.5217 -3.2036
16001SOL     OW53132  10.979   0.238   5.826  0.3334  0.1997  0.6733
16001SOL    HW153133  10.954   0.329   5.815 -0.6342 -0.1171  0.2163
16001SOL    HW253134  10.905   0.197   5.872 -0.0084 -0.7428 -0.6914
16002SOL     OW53135  10.718   4.217   9.840  0.1687 -0.1836  0.1021
16002SOL    HW153136  10.655   4.273   9.794  0.7024  0.4761  0.1787
16002SOL    HW253137  10.755   4.162   9.770  0.3479  0.2210 -0.1223
16003SOL     OW53138   5.978   6.513   6.271 -0.2047  0.2475  0.0464
16003SOL    HW153139   6.007   6.504   6.361  1.0207  2.0677 -0.1236
16003SOL    HW253140   5.939   6.601   6.267 -1.1893 -0.2111 -0.9551
16004SOL     OW53141  11.033   8.166   2.557  0.6869  0.2140 -0.1098
16004SOL    HW153142  11.072   8.252   2.545  2.2835 -0.4809  0.0223
16004SOL    HW253143  10.985   8.172   2.639  1.6269  0.6751  0.4051
16005SOL     OW53144  10.741  10.795   2.905 -0.0528 -0.5938 -0.1195
16005SOL    HW153145  10.652  10.764   2.920 -0.3472  0.3743  0.1689
16005SOL    HW253146  10.796  10.717   2.913 -0.8678 -1.1809 -0.2416
16006SOL     OW53147   8.573   3.700   5.882 -0.4587 -0.1658  0.2314
16006SOL    HW153148   8.643   3.687   5.946 -0.6541  0.1934  0.5239
16006SOL    HW253149   8.493   3.675   5.928 -0.6915  0.8304  0.3958
16007SOL     OW53150   1.674   7.432   5.826  0.0739 -0.1983  0.2238
16007SOL    HW153151   1.620   7.382   5.765 -0.3635  0.6617 -0.1009
16007SOL    HW253152   1.677   7.379   5.905 -0.0381 -0.9322 -0.2597
16008SOL     OW53153   3.921   4.087   6.781  0.2067 -0.3724  0.0118
16008SOL    HW153154   3.908   4.181   6.774 -2.3827 -0.7131 -0.4585
16008SOL    HW253155   3.931   4.071   6.875 -0.2792  0.2685  0.1757
16009SOL     OW53156   7.689   2.005  10.032 -0.0817 -0.6547  0.4996
16009SOL    HW153157   7.751   1.948  10.079  0.4603  0.4402  1.1512
16009SOL    HW253158   7.722   2.007   9.942 -0.1279 -1.3935  0.4588
16010SOL     OW53159   0.245   4.328   6.915  0.2221  0.0871 -0.2408
16010SOL    HW153160   0.247   4.409   6.864  0.9744  0.6698  0.6903
16010SOL    HW253161   0.301   4.346   6.991 -0.6622 -0.8484  0.6502
16011SOL     OW53162   3.049   2.025   0.014  0.3565 -0.2441  0.2579
16011SOL    HW153163   3.141   2.013  -0.007  0.7484  0.8979  1.2933
16011SOL    HW253164   3.018   2.094  -0.044  0.1572 -0.6146 -0.0787
16012SOL     OW53165   3.992   2.580   9.212 -0.1208  0.2268 -0.1991
16012SOL    HW153166   4.037   2.515   9.159 -1.2879  0.9281 -2.1197
16012SOL    HW253167   3.954   2.640   9.149 -1.1129  1.4032  1.4646
16013SOL     OW53168   4.157   6.147   2.414  0.0843 -0.2778  0.5542
16013SOL    HW153169   4.062   6.142   2.405 -0.0134  0.8937  0.8925
16013SOL    HW253170   4.178   6.080   2.479 -0.5982  0.0759  1.1385
16014SOL     OW53171   2.867   6.536   4.796  0.8618 -0.2716 -0.4067
16014SOL    HW153172   2.861   6.507   4.888 -1.0539  0.7511 -0.1902
16014SOL    HW253173   2.820   6.468   4.747  0.0999  0.2433 -0.3919
16015SOL     OW53174  10.272   5.587   5.858 -0.1619  0.3772  0.5488
16015SOL    HW153175  10.223   5.586   5.939  0.8721  0.0730  1.1801
16015SOL    HW253176  10.244   5.666   5.813 -0.0904  1.0014  1.6012
16016SOL     OW53177   8.739   4.853   3.818 -0.0452 -0.0296 -0.0655
16016SOL    HW153178   8.810   4.897   3.864 -0.6269  0.7108  0.1377
16016SOL    HW253179   8.685   4.924   3.783 -0.5128 -0.5828 -0.4846
16017SOL     OW53180   6.525   3.258   6.189 -0.2689  0.3367 -0.3412
16017SOL    HW153181   6.512   3.165   6.170 -0.0152  0.5586 -1.6058
16017SOL    HW253182   6.582   3.258   6.267  2.4181 -0.5912 -2.2221
16018SOL     OW53183   7.989   7.731   2.897 -0.4102  0.4264 -0.0653
16018SOL    HW153184   7.941   7.659   2.856 -0.6598 -0.0282  1.0059
16018SOL    HW253185   8.029   7.692   2.974  0.9826  1.0071 -0.4791
16019SOL     OW53186   5.177   9.550   0.676  0.8535  0.3921 -0.2235
16019SOL    HW153187   5.176   9.455   0.675 -1.6843  0.3720 -0.4612
16019SOL    HW253188   5.201   9.575   0.587  2.4064  0.0101  0.0687
16020SOL     OW53189   9.277   1.034   9.279 -0.3677 -0.0115  0.0709
16020SOL    HW153190   9.265   0.943   9.252 -1.7633  0.3401 -0.5392
16020SOL    HW253191   9.346   1.067   9.222  0.5958 -0.8656  0.7340
16021SOL     OW53192   3.158  10.093   1.180  0.1442 -0.3857  0.0457
16021SOL    HW153193   3.072  10.115   1.145  0.7721  1.5351 -0.3347
16021SOL    HW253194   3.219  10.148   1.131  1.4018 -0.3125  1.6529
16022SOL     OW53195   8.796   9.145   2.540  0.4122 -0.1337 -0.4281
16022SOL    HW153196   8.817   9.147   2.447  0.0974  0.6588 -0.4827
16022SOL    HW253197   8.853   9.077   2.576  0.2982 -0.6766 -1.2545
16023SOL     OW53198   3.338   6.461   2.299  0.5150  0.0553 -0.1724
16023SOL    HW153199   3.302   6.374   2.318  0.5506 -0.1587 -1.1040
16023SOL    HW253200   3.349   6.501   2.386  0.3879 -0.8207  0.2565
16024SOL     OW53201   4.568   1.403   1.888 -0.1605  0.2355 -0.0916
16024SOL    HW153202   4.511   1.377   1.961  0.0155  0.4757  0.1327
16024SOL    HW253203   4.624   1.326   1.874 -0.9228 -0.2247 -0.7002
16025SOL     OW53204   4.893   4.140   2.643  0.2571  0.3968 -0.4345
16025SOL    HW153205   4.937   4.106   2.721  0.5901  0.6926 -0.4937
16025SOL    HW253206   4.803   4.157   2.672  1.0196  2.9806  0.6137
16026SOL     OW53207   2.508   7.506   1.034 -0.1699  0.4033 -0.4964
16026SOL    HW153208   2.438   7.451   0.997  0.8240 -0.8469 -0.5702
16026SOL    HW253209   2.507   7.585   0.980 -0.8881 -0.0134 -1.1202
16027SOL     OW53210   6.847   8.230   4.350 -0.1198 -0.6161 -0.7701
16027SOL    HW153211   6.938   8.203   4.350 -0.0768 -0.4706 -1.7624
16027SOL    HW253212   6.849   8.326   4.355 -0.2756 -0.7301  3.0212
16028SOL     OW53213   9.669   2.455   0.565 -0.4946 -0.4797  0.0546
16028SOL    HW153214   9.678   2.361   0.577  1.0066 -0.2615  0.8134
16028SOL    HW253215   9.755   2.483   0.532 -1.0491  0.5660 -0.5437
16029SOL     OW53216   1.648   0.895   7.978  0.1131  0.0780  0.3386
16029SOL    HW153217   1.716   0.838   8.014  0.9178  0.9976  0.2653
16029SOL    HW253218   1.567   0.844   7.988  0.7381 -0.8278  0.8390
16030SOL     OW53219   6.397   4.592   5.809  0.1346 -0.2569 -0.0145
16030SOL    HW153220   6.376   4.646   5.885 -0.0032 -1.4842  0.8298
16030SOL    HW253221   6.359   4.506   5.829 -0.5775 -0.3777 -1.8130
16031SOL     OW53222   3.024   8.988   1.688  0.6145 -0.1159  0.0397
16031SOL    HW153223   3.071   9.008   1.769  0.8392 -2.2325  0.4609
16031SOL    HW253224   2.932   8.996   1.712  0.6676 -1.1150  0.6458
16032SOL     OW53225   6.785   1.924   7.043  0.6363  0.1778 -0.0805
16032SOL    HW153226   6.762   1.841   7.002 -0.2531  0.3204  0.1228
16032SOL    HW253227   6.807   1.982   6.970 -0.2693  0.2244 -0.3233
16033SOL     OW53228   1.752  10.947   9.036 -0.3077  0.0312 -0.6518
16033SOL    HW153229   1.677  10.895   9.064 -0.9139  1.1568 -0.1359
16033SOL    HW253230   1.820  10.883   9.016 -1.0632 -0.9509 -0.1122
16034SOL     OW53231   0.688   6.175   5.148 -0.6336  0.0825  0.3743
16034SOL    HW153232   0.674   6.231   5.072 -1.1119  0.9586  1.0957
16034SOL    HW253233   0.767   6.125   5.127 -0.2933  0.9092 -0.3454
16035SOL     OW53234   8.672   7.483   7.394 -0.2996 -0.4470 -0.8450
16035SOL    HW153235   8.647   7.470   7.486  1.0616  1.6472 -0.1133
16035SOL    HW253236   8.758   7.442   7.387 -0.4041 -0.6083 -1.1730
16036SOL     OW53237   8.656   9.914  11.089  0.2202 -0.2236 -0.2317
16036SOL    HW153238   8.658  10.006  11.062 -1.0616 -0.1939 -0.2563
16036SOL    HW253239   8.740   9.878  11.059  1.1319  1.1622  0.6078
16037SOL     OW53240   6.511   4.349   9.394 -0.4173  0.5622  0.6311
16037SOL    HW153241   6.419   4.376   9.392 -0.9398 -1.1101 -3.4662
16037SOL    HW253242   6.509   4.254   9.392  1.3356  0.5062 -2.1371
16038SOL     OW53243   6.548   4.706   9.673 -0.3329  0.3354 -0.1066
16038SOL    HW153244   6.575   4.696   9.582 -0.8204  0.4656 -0.2689
16038SOL    HW253245   6.470   4.650   9.681 -0.6203  0.7582  0.0778
16039SOL     OW53246   5.559   6.488   3.477  0.0383 -0.9044  0.4049
16039SOL    HW153247   5.592   6.399   3.464  0.9768 -0.6043  0.7226
16039SOL    HW253248   5.557   6.500   3.572  0.9425 -0.2055  0.3426
16040SOL     OW53249   1.920   0.699   5.462  0.2852 -0.3120 -0.0479
16040SOL    HW153250   1.874   0.662   5.538 -1.6276 -0.9806 -1.4900
16040SOL    HW253251   2.011   0.677   5.477 -0.3037 -2.0593  1.1696
16041SOL     OW53252   4.791  10.826   0.630 -0.0269  0.3132 -0.3044
16041SOL    HW153253   4.745  10.746   0.603 -0.6744  0.9035 -1.0218
16041SOL    HW253254   4.835  10.803   0.711  0.5427 -1.0368 -0.9797
16042SOL     OW53255   7.345   8.350   3.415 -0.0189  0.1141  0.3621
16042SOL    HW153256   7.321   8.442   3.404  0.8535  0.2506 -0.4307
16042SOL    HW253257   7.413   8.335   3.350  0.1490 -0.9805  0.7829
16043SOL     OW53258   7.933   2.007  11.015  0.3772 -0.4697  0.7469
16043SOL    HW153259   7.917   1.958  10.934 -1.5549  0.5059  0.4978
16043SOL    HW253260   8.028   2.018  11.019  0.7998 -3.6083  0.4697
16044SOL     OW53261   3.196   8.808   6.513 -0.8371 -0.1713  0.4365
16044SOL    HW153262   3.227   8.840   6.428 -0.7292  1.8694  1.2364
16044SOL    HW253263   3.255   8.736   6.534  0.4491  0.6715 -0.2377
16045SOL     OW53264   4.856   9.601   2.474  0.1515  0.1169 -0.1882
16045SOL    HW153265   4.781   9.582   2.531 -1.0068 -0.5723 -1.8880
16045SOL    HW253266   4.833   9.682   2.430  0.5955  0.1157 -0.4251
16046SOL     OW53267   8.335   4.405   6.438 -0.5554 -0.3441  0.0444
16046SOL    HW153268   8.367   4.458   6.511 -1.1198  0.9614 -0.6366
16046SOL    HW253269   8.359   4.455   6.359  0.2795 -1.8541 -0.6901
16047SOL     OW53270   7.665   9.943  11.231  0.2081 -0.4337 -0.9072
16047SOL    HW153271   7.667   9.916  11.323 -0.2745 -0.2118 -0.8307
16047SOL    HW253272   7.738   9.897  11.191  0.0672 -0.9846 -0.5365
16048SOL     OW53273  11.144   5.634   4.642 -0.9689  0.5065 -0.3201
16048SOL    HW153274  11.237   5.613   4.650 -0.9025  1.2674  1.1584
16048SOL    HW253275  11.113   5.579   4.571  1.0034  1.5198 -2.0419
16049SOL     OW53276   7.049   3.807   4.834  0.1638 -0.8070  0.2861
16049SOL    HW153277   6.975   3.786   4.776 -0.4528  1.6405  0.1185
16049SOL    HW253278   7.018   3.782   4.921 -1.1577  0.7485  0.3023
16050SOL     OW53279   6.514   7.833  10.666  0.3031 -0.4487 -0.3265
16050SOL    HW153280   6.465   7.869  10.592 -0.6992 -0.8467  0.1377
16050SOL    HW253281   6.590   7.791  10.626 -0.5554 -1.2074 -1.1920
16051SOL     OW53282   6.609   6.225  10.178 -0.1245  0.1948 -0.3276
16051SOL    HW153283   6.549   6.291  10.213  0.3164 -1.4744  3.7672
16051SOL    HW253284   6.553   6.151  10.157  0.1485 -0.4612  1.1901
16052SOL     OW53285   1.919   2.772   2.355  0.1545 -0.4475  0.2378
16052SOL    HW153286   1.952   2.704   2.296 -1.3994 -1.1011  0.1132
16052SOL    HW253287   1.985   2.841   2.350  1.0327 -1.3310 -0.7460
16053SOL     OW53288   9.061   2.367   9.505 -0.2705 -0.3139  0.4813
16053SOL    HW153289   9.002   2.400   9.437 -0.2096 -1.9679 -0.3897
16053SOL    HW253290   9.029   2.408   9.586 -2.4154 -0.8821 -0.0318
16054SOL     OW53291  10.441   3.709  10.458  0.0144 -0.3561 -0.0202
16054SOL    HW153292  10.495   3.642  10.499  1.6989  1.0035  0.0474
16054SOL    HW253293  10.392   3.748  10.530  0.5102 -0.1858  0.2255
16055SOL     OW53294  10.402   7.013   0.896 -0.4415  0.0134 -0.2500
16055SOL    HW153295  10.394   6.918   0.883 -0.2703 -0.0261 -0.0739
16055SOL    HW253296  10.497   7.028   0.899 -0.4468  0.3402 -1.4161
16056SOL     OW53297   7.075  11.142   0.090  1.1067  0.9935 -0.3926
16056SOL    HW153298   7.060  11.214   0.029 -0.7819  2.3912  1.6526
16056SOL    HW253299   6.989  11.101   0.101  2.1699 -1.6069 -1.5428
16057SOL     OW53300   7.460   4.774   3.559 -0.2590 -0.0331 -0.1774
16057SOL    HW153301   7.390   4.750   3.619  1.7673 -1.6093  1.6262
16057SOL    HW253302   7.467   4.700   3.498 -0.7875  0.5581 -0.9733
16058SOL     OW53303   7.245   0.119  10.439 -0.3074  0.4868  0.2075
16058SOL    HW153304   7.267   0.151  10.527  1.0620  0.8819 -0.2646
16058SOL    HW253305   7.269   0.191  10.380  1.1678 -0.7301 -0.7095
16059SOL     OW53306   5.612   8.360   9.747 -0.4587  0.3224  0.2515
16059SOL    HW153307   5.683   8.401   9.697  0.4891  2.3489  3.1494
16059SOL    HW253308   5.545   8.428   9.754 -1.4226 -0.5859  0.1517
16060SOL     OW53309   6.075   2.741   4.155  0.5577  0.0277  1.1269
16060SOL    HW153310   6.051   2.755   4.063  0.6246  1.4175  1.3085
16060SOL    HW253311   6.061   2.648   4.169  0.8702 -0.2659 -0.3869
16061SOL     OW53312   7.243   1.285   2.552  0.4852 -0.7150  0.3647
16061SOL    HW153313   7.286   1.274   2.468  0.5140 -2.2659  0.5747
16061SOL    HW253314   7.153   1.256   2.538 -0.6261  2.7067 -0.1296
16062SOL     OW53315   1.297  10.494   3.254  0.3677 -0.0177 -0.1702
16062SOL    HW153316   1.279  10.424   3.192 -1.9817  0.7690 -0.4285
16062SOL    HW253317   1.248  10.470   3.333  1.1880  0.3180  0.4515
16063SOL     OW53318   1.030   3.448   5.252  0.1908 -0.1822  0.1468
16063SOL    HW153319   1.089   3.408   5.187 -1.1657 -0.8733 -0.6935
16063SOL    HW253320   0.947   3.401   5.241 -0.5611  0.8568  1.2199
16064SOL     OW53321   8.000   5.665   8.626 -0.1088  0.7405  0.1475
16064SOL    HW153322   7.957   5.693   8.707 -0.6822 -0.3428  0.2279
16064SOL    HW253323   8.037   5.579   8.647  0.1905  0.6877 -0.5824
16065SOL     OW53324   0.745   9.376   4.300  0.0325  0.0880 -0.2698
16065SOL    HW153325   0.675   9.441   4.300 -0.5952 -0.5280  1.5311
16065SOL    HW253326   0.741   9.338   4.388  2.0903 -0.5460 -0.4290
16066SOL     OW53327   6.094   5.890   6.024  0.0847 -1.0128  0.3083
16066SOL    HW153328   6.121   5.912   5.935  2.3681  0.8464  1.4141
16066SOL    HW253329   6.063   5.799   6.017  0.9883 -1.1808 -2.1896
16067SOL     OW53330   9.076   9.233   2.099 -0.4937 -0.0200 -0.1081
16067SOL    HW153331   9.008   9.176   2.134  0.2288 -0.7078  0.1858
16067SOL    HW253332   9.034   9.318   2.090 -1.7982 -0.7670 -1.2539
16068SOL     OW53333   4.899   1.826   5.025 -0.4392  0.5406 -0.4421
16068SOL    HW153334   4.909   1.733   5.044  2.4524  0.8931 -0.1409
16068SOL    HW253335   4.919   1.870   5.107 -3.3821  1.4044 -0.1381
16069SOL     OW53336   1.491   5.386   6.184 -0.3817  0.1068  0.3042
16069SOL    HW153337   1.423   5.410   6.121 -0.6828 -2.9782 -0.6355
16069SOL    HW253338   1.445   5.336   6.251  0.4465  0.7031  1.3275
16070SOL     OW53339   0.934   9.647   8.894 -0.5632 -0.7855 -0.1040
16070SOL    HW153340   0.870   9.596   8.944  1.1753 -2.3937  0.5255
16070SOL    HW253341   0.928   9.735   8.931 -0.8494 -1.4517  1.4802
16071SOL     OW53342  10.113   0.703   3.584  0.4863  0.1373  0.1034
16071SOL    HW153343  10.073   0.790   3.595 -0.2469 -0.2666  0.7044
16071SOL    HW253344  10.205   0.721   3.567  0.2862  1.0493 -0.0530
16072SOL     OW53345   1.013   9.927   3.446  0.3750  0.3587  0.1050
16072SOL    HW153346   1.107   9.927   3.425  0.4558 -0.2059  0.4593
16072SOL    HW253347   0.970   9.926   3.361  0.6939  0.4149 -0.0592
16073SOL     OW53348   5.824   4.605   7.711 -0.0639  0.1500 -0.3472
16073SOL    HW153349   5.841   4.691   7.672 -2.0919  1.4324  1.5414
16073SOL    HW253350   5.893   4.594   7.776 -1.2096  1.4474  1.1112
16074SOL     OW53351   5.047  11.289  10.480  0.0974 -1.0485  0.4284
16074SOL    HW153352   5.015  11.327  10.399  2.1371 -0.7762 -0.2671
16074SOL    HW253353   4.996  11.333  10.549 -0.8592 -0.4958 -0.6130
16075SOL     OW53354   2.578   4.656   8.688  0.4681 -0.6587  0.5575
16075SOL    HW153355   2.486   4.667   8.662 -0.1047  0.1300  2.8360
16075SOL    HW253356   2.622   4.628   8.607 -2.0409 -2.6656 -0.1920
16076SOL     OW53357   6.172   7.916   9.281  0.4486 -0.3527 -0.2675
16076SOL    HW153358   6.135   7.958   9.359  1.5873 -0.1926  0.2020
16076SOL    HW253359   6.222   7.842   9.315  1.0222 -0.2334 -0.8415
16077SOL     OW53360   7.403   6.392   4.513  0.2366 -0.2881  0.0303
16077SOL    HW153361   7.444   6.321   4.463  0.1038 -0.6557  0.4481
16077SOL    HW253362   7.383   6.354   4.598 -0.4904  0.0431  0.0114
16078SOL     OW53363  11.186   7.636   3.103 -0.0444 -0.6772 -0.1809
16078SOL    HW153364  11.215   7.619   3.193 -2.3943 -1.6862  0.4108
16078SOL    HW253365  11.162   7.550   3.068 -1.4368 -0.0052 -0.9428
16079SOL     OW53366   0.533   4.636   5.082 -0.5153 -0.0028  0.0337
16079SOL    HW153367   0.502   4.573   5.018  1.7239  0.2406 -1.3732
16079SOL    HW253368   0.533   4.720   5.035  2.6472 -0.0770 -0.2525
16080SOL     OW53369  10.271   1.071   3.903 -0.0460 -0.7809  0.4335
16080SOL    HW153370  10.190   1.020   3.891  0.2184 -1.0691 -0.1224
16080SOL    HW253371  10.280   1.121   3.823  1.0767 -1.8061 -0.0905
16081SOL     OW53372   6.606   5.043   3.104  0.0201 -0.1530  0.5861
16081SOL    HW153373   6.541   5.000   3.160 -2.4456  1.1320 -1.1997
16081SOL    HW253374   6.580   5.022   3.015  2.4195 -0.0783 -0.1860
16082SOL     OW53375   4.550   2.524  10.745  0.2664  0.2787 -0.6273
16082SOL    HW153376   4.553   2.434  10.776 -2.0466  0.0738 -0.9274
16082SOL    HW253377   4.514   2.519  10.657  0.4664  1.4760 -0.7921
16083SOL     OW53378   4.802   3.887   8.045 -0.3902 -0.2331  0.2778
16083SOL    HW153379   4.881   3.899   7.992 -0.9757 -0.5100 -0.6767
16083SOL    HW253380   4.735   3.937   7.999 -0.8509 -0.2737  0.9009
16084SOL     OW53381   9.783   7.547   5.028  0.3666  0.3649 -0.2830
16084SOL    HW153382   9.739   7.624   5.066 -0.4837  0.6619 -1.8432
16084SOL    HW253383   9.719   7.510   4.968  1.3858 -0.6253 -0.7790
16085SOL     OW53384   1.625   0.787   3.103  0.1607 -0.8986 -0.4194
16085SOL    HW153385   1.659   0.703   3.134  0.9459 -0.4263  0.0235
16085SOL    HW253386   1.642   0.786   3.008  0.2071 -1.2176 -0.4096
16086SOL     OW53387   3.994   8.454   2.711  0.3522  0.0991  0.4271
16086SOL    HW153388   4.015   8.478   2.621  1.3811  0.8396  0.8551
16086SOL    HW253389   4.018   8.531   2.763 -0.5088 -0.2137  1.3020
16087SOL     OW53390   4.032   5.525   7.809 -0.6390  0.1216  0.4504
16087SOL    HW153391   3.989   5.524   7.723  2.0459 -0.5412 -0.9286
16087SOL    HW253392   4.016   5.613   7.842 -1.1262  0.6094 -1.0290
16088SOL     OW53393  10.879   2.963   0.579  0.0140  0.5510  0.3851
16088SOL    HW153394  10.872   2.868   0.581  1.1876  0.4529  0.4612
16088SOL    HW253395  10.817   2.994   0.645 -2.5872 -0.0019 -1.7292
16089SOL     OW53396   1.615   3.437   5.916 -0.1148 -0.1593 -0.6832
16089SOL    HW153397   1.576   3.350   5.925  0.7606 -0.4208  0.8169
16089SOL    HW253398   1.710   3.421   5.916  0.0588  0.8166  0.1269
16090SOL     OW53399   4.535   8.686   3.773 -0.2281 -0.3044  0.1473
16090SOL    HW153400   4.474   8.744   3.728 -1.8182 -0.6133  1.8155
16090SOL    HW253401   4.493   8.668   3.857  0.5138 -3.3796 -0.0677
16091SOL     OW53402   1.696   9.616   0.599  0.3807 -0.5463 -0.4186
16091SOL    HW153403   1.666   9.525   0.605 -0.8781 -0.0702  0.6196
16091SOL    HW253404   1.655   9.660   0.673  1.2587  0.8019 -0.7180
16092SOL     OW53405   7.273   4.864   5.424  0.0330  0.3666  0.3686
16092SOL    HW153406   7.267   4.959   5.430  0.4292  0.3352  1.3735
16092SOL    HW253407   7.284   4.846   5.331  3.3103  1.5177  0.4666
16093SOL     OW53408  11.064   6.959   9.542  0.4580  0.5122  0.1272
16093SOL    HW153409  11.057   7.054   9.554 -2.0314  0.2828  0.6455
16093SOL    HW253410  11.089   6.949   9.450 -3.1068  1.5877 -1.0227
16094SOL     OW53411   5.563   2.355   4.018 -0.0444  0.2699 -0.2694
16094SOL    HW153412   5.621   2.431   4.011 -2.2957  2.0074 -0.5425
16094SOL    HW253413   5.476   2.389   3.998 -1.0924 -2.4241 -0.5179
16095SOL     OW53414   9.552   7.105  10.960 -0.5297  0.2150  0.3692
16095SOL    HW153415   9.587   7.162  10.893 -1.2537  1.9616  1.4477
16095SOL    HW253416   9.495   7.161  11.013 -1.0950 -1.4390  1.5867
16096SOL     OW53417  10.401   1.700   3.385  0.7021  0.3129 -0.4502
16096SOL    HW153418  10.372   1.609   3.381 -0.2420  0.6146 -0.4436
16096SOL    HW253419  10.331   1.746   3.429  0.5721  1.2963 -1.6514
16097SOL     OW53420   0.862   6.584   2.346  0.0188  0.5151  0.0336
16097SOL    HW153421   0.854   6.543   2.260  1.7580  1.3167 -0.5397
16097SOL    HW253422   0.945   6.549   2.380 -1.0584 -0.4396  1.7471
16098SOL     OW53423   6.622   7.436   2.464  0.0239 -0.2272  0.0809
16098SOL    HW153424   6.624   7.370   2.534  2.6164 -2.2022 -1.7470
16098SOL    HW253425   6.557   7.404   2.403 -0.6293  0.3295  0.4756
16099SOL     OW53426  10.502   2.474   4.569 -0.2094 -0.0849  0.6927
16099SOL    HW153427  10.500   2.493   4.663 -1.3665 -0.5567  0.7760
16099SOL    HW253428  10.594   2.457   4.550 -0.1738 -1.4588  2.0424
16100SOL     OW53429   0.065  10.867   6.609 -0.3915 -0.4432 -0.3861
16100SOL    HW153430   0.022  10.873   6.694  1.4768 -1.5404  0.6925
16100SOL    HW253431   0.128  10.796   6.619  0.1455 -0.3277 -2.5756
16101SOL     OW53432   1.045  11.258   3.398  0.1302  0.4506  0.0680
16101SOL    HW153433   0.974  11.301   3.447  0.7587  0.5684  0.8797
16101SOL    HW253434   1.105  11.227   3.465  1.1508  0.8681 -0.6437
16102SOL     OW53435  10.391   7.622   3.897 -0.3109 -0.1037 -0.1741
16102SOL    HW153436  10.459   7.563   3.930 -0.5249 -0.2240  0.0520
16102SOL    HW253437  10.319   7.612   3.959  0.4738  2.0380  1.1059
16103SOL     OW53438   5.194   4.680   9.812 -0.0839 -0.3121  0.2823
16103SOL    HW153439   5.232   4.641   9.891 -0.8547  0.1975  0.9213
16103SOL    HW253440   5.203   4.613   9.745  1.5841 -0.3329  0.5196
16104SOL     OW53441  10.342   6.413   7.823  0.5871  0.1368 -0.0901
16104SOL    HW153442  10.413   6.474   7.802  1.3672 -0.8854 -0.4769
16104SOL    HW253443  10.270   6.469   7.850  1.4151  1.2172 -0.0674
16105SOL     OW53444  10.109   8.222   5.049  0.4895 -0.1599  0.0266
16105SOL    HW153445  10.073   8.195   5.134  2.0186 -0.9468  0.4376
16105SOL    HW253446  10.150   8.307   5.067  0.7461 -0.2907  0.0557
16106SOL     OW53447   0.749   2.421   6.065 -0.2065  0.4312  0.0312
16106SOL    HW153448   0.657   2.438   6.087 -0.9584 -3.2680  0.1319
16106SOL    HW253449   0.792   2.408   6.149 -0.6174 -2.2797 -0.1211
16107SOL     OW53450   5.603  10.127   0.547  0.1778 -0.5218 -0.2370
16107SOL    HW153451   5.558  10.129   0.632 -0.0380 -1.8028 -0.3143
16107SOL    HW253452   5.696  10.128   0.570  0.1462  2.4479 -0.0846
16108SOL     OW53453   5.969   7.741   0.740  0.4040 -0.0633  0.0029
16108SOL    HW153454   6.043   7.798   0.761  0.3989 -0.5181  1.2993
16108SOL    HW253455   5.902   7.764   0.804 -0.1566 -0.4674 -0.4295
16109SOL     OW53456   2.436   3.568   8.146  0.8219  0.6735  0.4302
16109SOL    HW153457   2.428   3.606   8.233 -0.6737  1.6021 -0.0877
16109SOL    HW253458   2.453   3.475   8.161 -0.1926  0.6799  1.7184
16110SOL     OW53459  10.784   8.657   7.572  0.0188 -0.9127  0.2967
16110SOL    HW153460  10.827   8.725   7.519  0.5262 -1.3680  0.1203
16110SOL    HW253461  10.848   8.637   7.641 -1.7146  1.6650  2.7701
16111SOL     OW53462   2.858   7.826   1.587 -0.4540  0.3623 -0.0497
16111SOL    HW153463   2.872   7.747   1.534 -1.9087 -1.2985  1.9558
16111SOL    HW253464   2.811   7.886   1.529  0.2250 -0.4142 -1.4375
16112SOL     OW53465   5.570  10.825   7.796  0.1907 -0.6250 -0.2170
16112SOL    HW153466   5.623  10.795   7.871  1.0486 -0.0842 -0.6046
16112SOL    HW253467   5.633  10.865   7.736 -0.5500 -0.7092 -1.0608
16113SOL     OW53468   0.089   4.462   8.839  0.1039 -0.1233  0.5260
16113SOL    HW153469   0.113   4.423   8.755 -1.1260  2.3676 -1.0057
16113SOL    HW253470   0.167   4.450   8.893  1.0032 -1.5221 -1.0290
16114SOL     OW53471   5.923   7.071  11.149 -0.4974 -0.1790  0.0162
16114SOL    HW153472   5.883   7.043  11.066 -0.1446  0.8122 -0.4910
16114SOL    HW253473   5.849   7.090  11.206 -0.7456  0.0280 -0.3741
16115SOL     OW53474   1.677   7.888   3.493 -0.3593  0.2116 -0.0865
16115SOL    HW153475   1.739   7.946   3.537  0.3156 -0.7000  0.1917
16115SOL    HW253476   1.591   7.913   3.526 -0.0771  1.0660  0.0057
16116SOL     OW53477   3.981   9.748   3.192 -0.0894 -0.1957  0.1389
16116SOL    HW153478   3.939   9.829   3.223  1.8879  0.4820  1.1117
16116SOL    HW253479   4.038   9.777   3.120 -0.2826 -0.9121 -0.3063
16117SOL     OW53480   0.795   1.304   6.333  0.2814 -0.3923 -0.1961
16117SOL    HW153481   0.845   1.222   6.330 -1.0981 -1.2826  0.4019
16117SOL    HW253482   0.791   1.333   6.242 -0.1217 -1.5656 -0.5673
16118SOL     OW53483   1.939  10.664   9.555 -0.4069  0.1269 -0.0411
16118SOL    HW153484   2.001  10.677   9.626 -0.6331  0.6862  0.0593
16118SOL    HW253485   1.982  10.602   9.496  0.2936  0.5731 -0.0148
16119SOL     OW53486   7.665   6.195  10.054 -0.1085 -0.2254  0.6106
16119SOL    HW153487   7.582   6.154  10.030 -0.0570  1.1512 -2.0808
16119SOL    HW253488   7.640   6.258  10.122 -1.3940  0.5606 -0.5454
16120SOL     OW53489   0.522   8.849  11.324 -0.5940 -0.1228 -0.0656
16120SOL    HW153490   0.467   8.781  11.285 -0.3739 -0.4264  0.1500
16120SOL    HW253491   0.533   8.914  11.255 -1.9023  0.3434  0.1584
16121SOL     OW53492   0.607   6.592   0.946 -0.0463  0.2433  0.6805
16121SOL    HW153493   0.604   6.561   0.856  2.6741 -1.0595  0.9779
16121SOL    HW253494   0.561   6.525   0.996 -1.4528  0.9063  0.3047
16122SOL     OW53495   8.250   5.799  11.186  0.3440 -0.0653  0.3361
16122SOL    HW153496   8.211   5.743  11.118  1.2178  1.5887 -1.5559
16122SOL    HW253497   8.337   5.762  11.201  0.3110 -0.1729  0.2619
16123SOL     OW53498   5.297   5.834   0.810  0.7555  0.2626 -0.3571
16123SOL    HW153499   5.249   5.773   0.755 -0.4946 -0.7050  1.7241
16123SOL    HW253500   5.234   5.903   0.830  1.7005  1.4654 -1.4544
16124SOL     OW53501   4.565   3.461  11.103  0.3217  0.9811  0.3985
16124SOL    HW153502   4.653   3.472  11.066  0.8182 -0.7819  0.9946
16124SOL    HW253503   4.523   3.396  11.046 -0.3838  1.3528  0.4853
16125SOL     OW53504   9.618   2.083  10.086  0.1939  0.0596 -0.7647
16125SOL    HW153505   9.526   2.098  10.064 -0.2003 -0.7187  0.2781
16125SOL    HW253506   9.642   2.004  10.036  0.0151 -0.2817 -0.3162
16126SOL     OW53507   5.161   0.695   0.142 -0.0427  0.4384 -0.0047
16126SOL    HW153508   5.115   0.617   0.173 -0.4551  1.1338  1.1559
16126SOL    HW253509   5.237   0.660   0.095 -0.0619 -0.6581  0.7549
16127SOL     OW53510   2.950   9.375   1.506  0.8265 -0.0754 -0.0327
16127SOL    HW153511   3.027   9.375   1.448  0.0574 -0.4768 -1.0658
16127SOL    HW253512   2.876   9.388   1.447 -0.0078 -0.8557  0.8274
16128SOL     OW53513  10.601   7.515   2.436 -0.1438 -0.2193  0.2840
16128SOL    HW153514  10.531   7.472   2.485  1.1661 -0.8635  1.6427
16128SOL    HW253515  10.577   7.608   2.435 -2.5209 -0.8011 -1.8604
16129SOL     OW53516   9.363   4.224   5.587 -0.0245  0.0031 -0.1186
16129SOL    HW153517   9.332   4.232   5.677 -0.1935 -2.3046  0.0544
16129SOL    HW253518   9.397   4.311   5.565 -1.7016  1.1067  1.5123
16130SOL     OW53519   4.442   7.421   9.509 -0.4418 -0.2670 -0.2320
16130SOL    HW153520   4.369   7.441   9.566 -0.7118  2.3417 -1.4429
16130SOL    HW253521   4.407   7.356   9.448 -0.5658 -1.9629  1.5923
16131SOL     OW53522   7.567   8.703   2.302 -0.3072 -0.2329 -0.0874
16131SOL    HW153523   7.535   8.734   2.218 -0.6689  0.5207  0.3197
16131SOL    HW253524   7.662   8.695   2.290  0.2083  3.5791  0.5256
16132SOL     OW53525   4.200   4.604   4.505 -0.1977 -0.1818 -0.6268
16132SOL    HW153526   4.144   4.557   4.567  1.1136  0.6747  1.2400
16132SOL    HW253527   4.266   4.540   4.479 -0.2138 -0.2767 -0.4363
16133SOL     OW53528   6.599   0.441   7.717  0.8642  0.4022  0.0042
16133SOL    HW153529   6.544   0.365   7.733  1.0444  0.1622 -0.5209
16133SOL    HW253530   6.613   0.442   7.622  2.0134  0.2760  0.1547
16134SOL     OW53531   4.232   1.821   5.833 -0.2752 -0.3275  0.4325
16134SOL    HW153532   4.246   1.804   5.927 -0.7124 -2.2107  0.1805
16134SOL    HW253533   4.311   1.787   5.791 -0.4230 -0.1963  0.0471
16135SOL     OW53534   4.466   9.821   8.427 -0.3148 -1.0934  0.3718
16135SOL    HW153535   4.478   9.907   8.466  0.1684 -1.4140  0.9326
16135SOL    HW253536   4.384   9.788   8.465 -0.3454 -1.0086  0.3801
16136SOL     OW53537   1.716  10.303  10.955  0.0424  0.2103 -0.2103
16136SOL    HW153538   1.785  10.264  10.902  0.6452  0.2013  0.5707
16136SOL    HW253539   1.696  10.237  11.021 -1.5514 -0.2638 -1.1508
16137SOL     OW53540  10.900   8.403  10.845 -0.2126 -0.7111 -0.1412
16137SOL    HW153541  10.812   8.440  10.853 -0.4258 -1.1650 -0.3766
16137SOL    HW253542  10.891   8.335  10.777  0.1113 -1.4116  0.5138
16138SOL     OW53543   4.372   6.708   5.753  0.0373 -0.3146 -0.0527
16138SOL    HW153544   4.409   6.636   5.804 -0.1785  0.0483  0.6194
16138SOL    HW253545   4.358   6.778   5.817 -0.4040  0.0773 -0.5759
16139SOL     OW53546   5.224   2.399  10.076 -0.5373 -0.4047  0.2823
16139SOL    HW153547   5.306   2.396  10.126  0.0347  1.5009 -0.5092
16139SOL    HW253548   5.209   2.308  10.049  2.0222 -0.5825 -0.6773
16140SOL     OW53549   3.448   0.409   7.164 -0.1963 -0.2090 -0.2056
16140SOL    HW153550   3.356   0.384   7.158 -0.0672 -0.8080  0.2609
16140SOL    HW253551   3.484   0.351   7.230  0.5683 -0.1151 -0.5360
16141SOL     OW53552   7.043  10.318  10.697 -0.1832 -0.6115  0.0111
16141SOL    HW153553   7.060  10.234  10.652 -0.0580 -0.8574  0.5141
16141SOL    HW253554   7.073  10.303  10.786 -1.1793 -0.3858  0.3871
16142SOL     OW53555   1.162   0.054   5.905  0.1999 -0.1397 -0.4948
16142SOL    HW153556   1.074   0.043   5.941  0.7388  0.1278  0.9531
16142SOL    HW253557   1.176  -0.023   5.850 -0.6491 -0.5620 -0.1270
16143SOL     OW53558   5.967   7.850   3.391 -0.1892  0.6687 -0.1961
16143SOL    HW153559   5.888   7.858   3.337  0.8326  1.2963 -1.6536
16143SOL    HW253560   5.988   7.757   3.389  0.3375  0.8078 -1.6464
16144SOL     OW53561   6.208   7.401   9.870  0.2382  0.1210  0.4276
16144SOL    HW153562   6.283   7.459   9.863  0.1954 -0.0503 -1.6536
16144SOL    HW253563   6.168   7.423   9.954  0.9798  2.1644  0.2584
16145SOL     OW53564   8.993   7.325  10.037 -0.0080 -0.2474 -0.9941
16145SOL    HW153565   9.040   7.300   9.958 -0.4433 -0.0967 -1.2985
16145SOL    HW253566   9.056   7.312  10.108  0.5603  0.1539 -1.4273
16146SOL     OW53567   7.311   7.443  10.862  0.5780  0.1520  0.2372
16146SOL    HW153568   7.309   7.358  10.818  0.2426 -0.1380  0.7996
16146SOL    HW253569   7.388   7.488  10.826  0.5366 -0.2418 -0.3347
16147SOL     OW53570  10.254   2.610   5.537 -0.4184  0.0346 -0.2407
16147SOL    HW153571  10.269   2.593   5.630  0.0838  1.2259 -0.0961
16147SOL    HW253572  10.171   2.567   5.518 -0.7160  0.1136  0.8551
16148SOL     OW53573   9.231   6.607   5.530  0.0847 -0.3218  0.2654
16148SOL    HW153574   9.175   6.546   5.483  0.1086  0.9067 -1.4037
16148SOL    HW253575   9.223   6.582   5.622 -2.2520 -0.9296 -0.0806
16149SOL     OW53576   5.335   0.512   2.412 -0.0124  0.2152  0.0448
16149SOL    HW153577   5.329   0.465   2.329 -2.0265  2.7287 -1.3045
16149SOL    HW253578   5.426   0.542   2.417  0.5838 -1.4822 -0.3638
16150SOL     OW53579   9.634   5.408   8.274  0.1800 -0.1649 -0.1110
16150SOL    HW153580   9.627   5.447   8.361 -0.1720  2.9925 -1.4789
16150SOL    HW253581   9.723   5.375   8.269  0.3008 -0.0605  1.2993
16151SOL     OW53582   1.514   9.986   7.167  0.5704 -0.6928  0.4579
16151SOL    HW153583   1.525  10.009   7.259  0.2582  0.3889  0.2326
16151SOL    HW253584   1.468   9.902   7.169  1.5849 -1.2383  1.2941
16152SOL     OW53585   5.902  10.372   5.342 -0.3863  0.1799  0.4063
16152SOL    HW153586   5.821  10.343   5.302 -0.9363 -1.5940  2.7059
16152SOL    HW253587   5.931  10.445   5.287 -1.7645 -1.2921 -2.3735
16153SOL     OW53588   6.337   2.227   1.523 -0.0185 -0.3407 -0.1060
16153SOL    HW153589   6.429   2.235   1.546  0.1666 -1.8523 -0.2460
16153SOL    HW253590   6.299   2.312   1.545  1.4114  0.3077 -0.0915
16154SOL     OW53591   6.239   1.304   3.985  0.4557  0.0182  0.8328
16154SOL    HW153592   6.232   1.299   3.890  1.1345  0.5982  0.7478
16154SOL    HW253593   6.242   1.213   4.014 -1.6218 -0.2127  0.4552
16155SOL     OW53594  10.477   2.410   9.462 -0.0281  0.0401  0.5034
16155SOL    HW153595  10.486   2.368   9.377  1.5238 -0.2877  0.8258
16155SOL    HW253596  10.485   2.339   9.526 -0.2372  0.4198  0.9621
16156SOL     OW53597   3.392   9.758   7.516 -0.3803 -0.0042 -0.2501
16156SOL    HW153598   3.381   9.786   7.607  0.5731  0.2469 -0.2084
16156SOL    HW253599   3.486   9.767   7.499 -0.5331 -0.1722 -1.2197
16157SOL     OW53600   4.176   6.306   2.196 -0.3012 -0.4782  0.4290
16157SOL    HW153601   4.269   6.326   2.186 -0.5096  0.2762 -0.0301
16157SOL    HW253602   4.174   6.229   2.253  0.5387  0.7341  2.1403
16158SOL     OW53603   3.453  10.933   5.758  0.2264 -0.6702 -0.1152
16158SOL    HW153604   3.495  10.852   5.729 -0.3505 -0.2685 -2.1779
16158SOL    HW253605   3.384  10.948   5.693  0.1050  1.2813  0.4369
16159SOL     OW53606   5.704   6.612   1.974  0.5442  0.2980  0.1768
16159SOL    HW153607   5.655   6.673   2.029  1.7474  0.2038  1.3859
16159SOL    HW253608   5.786   6.598   2.021  0.6195 -1.6434 -0.4658
16160SOL     OW53609   5.435  10.333   5.483  0.0734 -0.0307 -0.7782
16160SOL    HW153610   5.378  10.352   5.408 -1.6441 -0.4445  0.3741
16160SOL    HW253611   5.429  10.411   5.538 -0.5220 -0.6388  0.0322
16161SOL     OW53612   8.472   7.311   8.364  0.2530 -1.0853 -0.0339
16161SOL    HW153613   8.468   7.281   8.273  3.0988 -1.9689  0.0990
16161SOL    HW253614   8.564   7.332   8.379 -0.4416  0.6444  2.1762
16162SOL     OW53615   5.145   7.806  10.189 -0.0822 -0.0960  0.3193
16162SOL    HW153616   5.219   7.807  10.128 -1.2867  2.5922 -1.2171
16162SOL    HW253617   5.183   7.782  10.273  2.0183 -1.6641 -1.0371
16163SOL     OW53618   3.884   1.222   9.377  0.5826 -0.4532  0.5227
16163SOL    HW153619   3.792   1.200   9.364  0.2806  0.9659  0.1363
16163SOL    HW253620   3.896   1.220   9.472  0.2518 -1.0354  0.5503
16164SOL     OW53621   7.996   0.619   6.265 -0.5760  0.4175  0.0761
16164SOL    HW153622   7.959   0.597   6.180 -0.5440 -1.5383  0.5414
16164SOL    HW253623   8.071   0.559   6.274 -1.0898  0.0306  1.8344
16165SOL     OW53624  10.149   9.492   8.340 -0.1733  0.3567 -0.6792
16165SOL    HW153625  10.205   9.414   8.345  0.3253  0.7029 -0.8757
16165SOL    HW253626  10.187   9.553   8.403 -1.2243  0.0292  0.2842
16166SOL     OW53627   2.584   7.630   3.372 -0.1761  0.2346  0.4328
16166SOL    HW153628   2.618   7.695   3.433 -1.4355  2.4195 -1.0967
16166SOL    HW253629   2.534   7.569   3.426  0.9320  0.6050  1.8966
16167SOL     OW53630   9.919   0.352   9.255 -0.7111 -0.4319  0.0155
16167SOL    HW153631   9.886   0.425   9.306  1.2043 -0.0548  0.7619
16167SOL    HW253632  10.014   0.352   9.271 -0.3651 -1.6184 -1.8313
16168SOL     OW53633   9.885   9.510   5.156 -0.0788  0.1324 -0.7234
16168SOL    HW153634   9.858   9.438   5.099 -1.4794 -0.2614  0.3801
16168SOL    HW253635   9.806   9.532   5.205  1.2607 -0.0380  1.5823
16169SOL     OW53636  10.834   8.839   8.787  0.6459  0.0568 -0.5207
16169SOL    HW153637  10.759   8.810   8.736  0.8982 -0.5070 -0.5760
16169SOL    HW253638  10.829   8.786   8.868 -0.2664  1.5721  0.4412
16170SOL     OW53639   0.634   0.736   5.088 -0.3724 -0.0437  0.2141
16170SOL    HW153640   0.566   0.678   5.121 -0.5149 -0.2884 -0.5064
16170SOL    HW253641   0.591   0.821   5.078 -0.8013 -0.4085 -1.0746
16171SOL     OW53642   1.358   7.628  11.336  0.3417 -0.1786  0.3537
16171SOL    HW153643   1.290   7.692  11.357  0.0904 -0.2360 -0.2672
16171SOL    HW253644   1.310   7.548  11.317  0.7529 -1.0828  2.9741
16172SOL     OW53645   9.126  10.796   2.634  0.0380 -0.1650  0.6394
16172SOL    HW153646   9.163  10.749   2.559  2.1515  0.6137  1.1578
16172SOL    HW253647   9.125  10.732   2.704  0.6112 -0.1505  0.6675
16173SOL     OW53648   2.066  10.298   0.003  0.3733  0.0206 -0.3625
16173SOL    HW153649   2.120  10.361   0.051  2.1339 -1.0012 -0.9635
16173SOL    HW253650   2.012  10.256   0.070  1.9014 -0.4943  0.5624
16174SOL     OW53651   2.428   9.547   4.632  0.5664 -0.1246  0.4258
16174SOL    HW153652   2.423   9.600   4.711  1.8663  0.3069  0.2307
16174SOL    HW253653   2.417   9.608   4.560 -0.7298 -0.5355  0.2727
16175SOL     OW53654  11.164   0.021   5.849 -0.2686  0.2308 -0.5109
16175SOL    HW153655  11.239   0.073   5.821  1.3452 -1.5144  0.4469
16175SOL    HW253656  11.103   0.085   5.886  1.3744  1.5274  0.0355
16176SOL     OW53657   1.032   2.174   7.042 -0.0438 -0.1055  0.2377
16176SOL    HW153658   1.089   2.101   7.018 -0.1090 -0.5576  1.4196
16176SOL    HW253659   1.055   2.194   7.133  2.2942  3.5309 -1.0641
16177SOL     OW53660   9.907   4.339   5.891  0.2336 -0.1653  0.2816
16177SOL    HW153661   9.990   4.293   5.889  0.3685  0.1103 -1.1616
16177SOL    HW253662   9.863   4.307   5.969  0.9110 -1.7127  0.0350
16178SOL     OW53663   2.615  10.296   8.555  0.4253 -0.3512  0.3348
16178SOL    HW153664   2.675  10.223   8.541  1.9661  1.1899 -1.5441
16178SOL    HW253665   2.605  10.335   8.468 -4.1963 -1.1586  0.3581
16179SOL     OW53666   8.680   8.652   7.664 -0.1438 -0.5139  0.2291
16179SOL    HW153667   8.690   8.626   7.572  1.1515  0.6506  0.0340
16179SOL    HW253668   8.725   8.736   7.671  1.0176 -1.2740  2.2636
16180SOL     OW53669   4.073   0.891   8.890  0.8492  0.4251 -0.2305
16180SOL    HW153670   4.000   0.844   8.930  1.3326 -0.4023 -0.3085
16180SOL    HW253671   4.040   0.980   8.877  0.1071  0.2493  0.4100
16181SOL     OW53672   4.130   3.724   6.653 -0.1461  0.2214 -0.2463
16181SOL    HW153673   4.076   3.653   6.617  1.1548 -0.9194 -0.0121
16181SOL    HW253674   4.109   3.724   6.746  0.4899 -0.4641 -0.0913
16182SOL     OW53675   1.723   1.439   5.088  0.3002  0.5589 -0.2554
16182SOL    HW153676   1.717   1.506   5.021  0.2997  1.0898  0.2671
16182SOL    HW253677   1.632   1.414   5.105  0.4105 -1.1566 -2.0020
16183SOL     OW53678  11.282   1.523   2.049 -0.3228 -0.4378  0.5045
16183SOL    HW153679  11.229   1.602   2.039  1.2582  0.2861 -2.7836
16183SOL    HW253680  11.366   1.554   2.082 -0.3665 -0.9830  1.1269
16184SOL     OW53681   8.533   2.266   9.780  0.5778  0.7226  0.0568
16184SOL    HW153682   8.563   2.190   9.730 -2.1559  0.0653 -0.7183
16184SOL    HW253683   8.493   2.228   9.858  0.3403  1.4402  0.2796
16185SOL     OW53684  10.359   2.196   9.866 -0.5670  0.3484 -0.0863
16185SOL    HW153685  10.292   2.240   9.919 -0.9026 -0.0070 -0.2176
16185SOL    HW253686  10.356   2.105   9.894  0.5960  0.5287  0.6599
16186SOL     OW53687   0.338  10.050   7.851  0.3075  0.0039 -0.0761
16186SOL    HW153688   0.411   9.997   7.816 -0.0230  1.1706 -2.6721
16186SOL    HW253689   0.377  10.136   7.866  0.6256 -0.6697  3.2897
16187SOL     OW53690   8.975   3.115  11.068 -0.0518 -0.1934 -0.0180
16187SOL    HW153691   8.883   3.128  11.047  0.4453  1.6199 -1.1667
16187SOL    HW253692   8.977   3.032  11.115 -2.2609 -0.2721 -0.0060
16188SOL     OW53693   0.946   0.816   8.440 -0.0863 -0.1597 -0.1460
16188SOL    HW153694   0.878   0.874   8.406 -0.4832  0.0422  0.9754
16188SOL    HW253695   0.915   0.791   8.527 -0.5460 -3.0623 -1.0794
16189SOL     OW53696   9.212   4.016   1.214  0.2182  0.5856  0.1750
16189SOL    HW153697   9.280   3.986   1.275  1.4760  1.8534 -0.5460
16189SOL    HW253698   9.261   4.037   1.134 -1.3542 -0.6576 -1.1309
16190SOL     OW53699   5.076  10.556   4.457  0.0395 -0.0703  0.1151
16190SOL    HW153700   5.020  10.481   4.479  0.4725  0.0747  1.7518
16190SOL    HW253701   5.160  10.517   4.432  0.3675 -0.1151  1.2868
16191SOL     OW53702   3.878   2.319   8.927 -0.4023 -0.0390 -0.0630
16191SOL    HW153703   3.904   2.384   8.862  0.9193  0.6528  1.1322
16191SOL    HW253704   3.878   2.236   8.879 -3.0025  0.9120 -1.8242
16192SOL     OW53705   7.553   9.712   6.715  0.3288  0.1022  0.0141
16192SOL    HW153706   7.555   9.803   6.685  1.6026 -0.2694 -1.0217
16192SOL    HW253707   7.645   9.687   6.724  0.0263 -1.8018 -1.8598
16193SOL     OW53708   4.041  10.304   5.191  0.3974  0.0194  0.1936
16193SOL    HW153709   3.973  10.361   5.229  2.5108  2.4271  0.4812
16193SOL    HW253710   4.036  10.321   5.097  1.7470  1.5270  0.3821
16194SOL     OW53711   6.833   0.384   8.040  0.1370 -0.4606 -0.3393
16194SOL    HW153712   6.855   0.471   8.073  0.3623 -0.4233 -0.5829
16194SOL    HW253713   6.745   0.367   8.073  0.8199 -0.9281  1.2759
16195SOL     OW53714  10.439   6.972   1.356 -0.0723 -0.1229 -0.2025
16195SOL    HW153715  10.414   6.921   1.280  2.5340  1.4789 -2.2082
16195SOL    HW253716  10.409   7.061   1.337  1.0780  0.4024  0.3787
16196SOL     OW53717   7.264   4.382   8.006 -0.2798 -0.0400  0.3187
16196SOL    HW153718   7.217   4.429   7.937  0.6671  1.0835  0.4246
16196SOL    HW253719   7.278   4.447   8.075  0.7332 -0.5553  0.6167
16197SOL     OW53720   2.697   0.798  11.081 -0.3277 -0.3421 -0.1524
16197SOL    HW153721   2.749   0.733  11.034  0.9481 -1.0404  2.1455
16197SOL    HW253722   2.620   0.751  11.111 -2.0446  0.5213 -2.9228
16198SOL     OW53723   8.609   8.224   9.463  0.3423  0.2634  0.1821
16198SOL    HW153724   8.690   8.235   9.414 -0.3188 -0.4195 -1.1023
16198SOL    HW253725   8.579   8.135   9.440 -1.1481  0.7851  0.0256
16199SOL     OW53726   1.158   7.852   6.734 -0.5297  0.4254 -0.0259
16199SOL    HW153727   1.185   7.795   6.661  1.2408  1.7255 -0.4307
16199SOL    HW253728   1.067   7.829   6.750 -1.1527  0.5703 -3.1086
16200SOL     OW53729   0.708   8.420   8.312 -0.2657  0.4321  0.2386
16200SOL    HW153730   0.612   8.414   8.317 -0.1855 -0.9242  0.3002
16200SOL    HW253731   0.732   8.352   8.248  0.7342  0.0729  0.9978
16201SOL     OW53732   4.285   8.636   9.119  0.5996 -0.0983 -0.4124
16201SOL    HW153733   4.258   8.641   9.211  0.5159  0.5040 -0.4663
16201SOL    HW253734   4.344   8.561   9.115  0.8576  0.0726  0.1965
16202SOL     OW53735   5.948   0.441  11.027  0.1098  0.6750  0.3169
16202SOL    HW153736   5.980   0.527  10.997 -0.1102 -0.1745 -2.5366
16202SOL    HW253737   5.854   0.455  11.041 -0.1625  0.6539 -1.3135
16203SOL     OW53738   6.642   2.294  10.735  0.0436 -0.4432  0.3010
16203SOL    HW153739   6.553   2.265  10.757  0.5736 -1.5225  1.0826
16203SOL    HW253740   6.669   2.347  10.810 -0.2752  0.6395 -0.3433
16204SOL     OW53741   2.921  10.603  10.875  0.5767 -0.3206  0.1906
16204SOL    HW153742   2.889  10.640  10.792 -1.0552 -0.4014  0.7579
16204SOL    HW253743   3.003  10.648  10.891 -0.4240  1.6676 -0.1163
16205SOL     OW53744   1.087   0.096   2.452 -0.0617  0.0740  0.2101
16205SOL    HW153745   1.163   0.084   2.509 -0.2280 -0.6082  0.2939
16205SOL    HW253746   1.106   0.176   2.403  0.1503  0.5805  1.1136
16206SOL     OW53747   4.233   1.339  10.017 -0.6411 -0.6856  0.1327
16206SOL    HW153748   4.176   1.331  10.094 -1.1356 -0.0843 -0.1658
16206SOL    HW253749   4.179   1.384   9.952  1.1469  2.5547  0.8094
16207SOL     OW53750   5.694   5.038   6.951  0.1989 -0.5016  0.9491
16207SOL    HW153751   5.622   5.094   6.923  0.5551 -0.9620 -0.9434
16207SOL    HW253752   5.654   4.954   6.970  0.1447 -0.5729  0.5192
16208SOL     OW53753  11.140   2.104   0.576 -0.0308 -0.0111 -0.3244
16208SOL    HW153754  11.074   2.160   0.536 -0.1972 -0.7099 -1.0383
16208SOL    HW253755  11.216   2.111   0.519 -0.0098 -0.4092 -0.3463
16209SOL     OW53756   0.162   8.055   6.944  0.1456  0.4485  0.0907
16209SOL    HW153757   0.119   7.970   6.946 -0.2392  0.5946 -1.1936
16209SOL    HW253758   0.103   8.111   6.892  0.5807  1.3906  0.5853
16210SOL     OW53759   8.651   0.181   7.523  0.0190  0.5221 -0.1294
16210SOL    HW153760   8.720   0.115   7.514  0.7198  1.2078  0.1336
16210SOL    HW253761   8.632   0.184   7.616 -0.7180 -0.0097 -0.2581
16211SOL     OW53762   1.146   0.244   7.633  0.0986  0.0457 -0.1757
16211SOL    HW153763   1.065   0.194   7.619  0.2567 -0.2058 -0.1863
16211SOL    HW253764   1.191   0.240   7.549  0.1477  0.1442 -0.1540
16212SOL     OW53765   9.464   4.563   4.642  0.6155  0.0581  0.5205
16212SOL    HW153766   9.382   4.578   4.688  0.1706  1.1347 -0.6005
16212SOL    HW253767   9.499   4.483   4.681 -1.4471 -0.9620  0.3361
16213SOL     OW53768   8.191   2.955   7.444 -0.4375 -0.0310 -0.5839
16213SOL    HW153769   8.226   2.994   7.524 -0.0685  2.2319 -1.7905
16213SOL    HW253770   8.099   2.981   7.443 -0.4823 -0.1945 -0.8049
16214SOL     OW53771   5.255   6.351  10.106 -0.5127  0.2445 -0.1964
16214SOL    HW153772   5.320   6.282  10.093 -1.3172 -0.2867 -1.4958
16214SOL    HW253773   5.174   6.304  10.128 -0.5588  0.8788  1.0061
16215SOL     OW53774   9.632   3.758   0.903  0.2670 -0.5141 -0.1603
16215SOL    HW153775   9.596   3.831   0.853 -1.0361 -1.8467 -1.2011
16215SOL    HW253776   9.615   3.680   0.849  0.2320 -1.7895  1.6330
16216SOL     OW53777   9.409   7.733   8.804  0.0774 -0.2618 -0.2204
16216SOL    HW153778   9.438   7.658   8.856  0.9705  0.6177  0.5794
16216SOL    HW253779   9.436   7.713   8.715  2.8534  0.3689  0.4502
16217SOL     OW53780   5.994   3.686   0.796  0.3154 -0.0028 -0.0127
16217SOL    HW153781   6.089   3.689   0.801  0.4619 -1.4449 -1.7325
16217SOL    HW253782   5.972   3.755   0.732  0.2352 -0.0440 -0.0287
16218SOL     OW53783   6.649   3.362   0.156  0.1913 -0.0758 -0.4513
16218SOL    HW153784   6.554   3.354   0.156 -0.0325  2.4323 -1.0834
16218SOL    HW253785   6.680   3.281   0.197 -2.2400 -0.4357  0.7153
16219SOL     OW53786   4.780   9.498   2.742 -0.2647 -0.1650  0.4798
16219SOL    HW153787   4.821   9.428   2.691  0.4843  0.6102  0.0061
16219SOL    HW253788   4.805   9.480   2.832 -0.5578 -0.8348  0.4329
16220SOL     OW53789   9.622  11.057   7.740 -0.5865 -0.7125  0.2429
16220SOL    HW153790   9.711  11.092   7.746  0.5900 -3.5906  0.2146
16220SOL    HW253791   9.612  11.033   7.648 -1.2789 -0.6899  0.3107
16221SOL     OW53792   2.193   3.218   6.698 -0.1291  0.0752  0.1697
16221SOL    HW153793   2.192   3.304   6.655 -1.4605 -0.2403 -0.4824
16221SOL    HW253794   2.177   3.237   6.790  0.5640  0.6067  0.1800
16222SOL     OW53795  10.871   3.275   8.959  0.2684 -0.1634  0.7769
16222SOL    HW153796  10.950   3.251   8.909  0.2554 -3.0932  2.0566
16222SOL    HW253797  10.806   3.209   8.934 -1.8859  2.2751 -0.3313
16223SOL     OW53798   6.566   3.834   6.600 -0.6126  0.0086 -0.0695
16223SOL    HW153799   6.605   3.748   6.615  0.3718  0.2270 -1.3111
16223SOL    HW253800   6.476   3.825   6.632  0.1743 -0.7529  2.0074
16224SOL     OW53801   2.252   2.523   6.222 -0.1545 -0.1567 -0.2974
16224SOL    HW153802   2.323   2.468   6.187 -0.5570 -0.6804 -0.3054
16224SOL    HW253803   2.266   2.608   6.181  0.1182 -0.4217 -0.7692
16225SOL     OW53804   4.577   5.747   6.763 -0.3182 -0.1113 -0.1495
16225SOL    HW153805   4.660   5.700   6.762  0.1724  0.4952  3.8602
16225SOL    HW253806   4.512   5.681   6.786 -0.2958  0.2308  0.9298
16226SOL     OW53807   2.777   1.943   3.150  0.0120  0.1366  0.0465
16226SOL    HW153808   2.859   1.969   3.191 -0.7271  0.4199  1.3916
16226SOL    HW253809   2.754   1.860   3.192  0.2961 -0.6629 -1.3214
16227SOL     OW53810   4.252   3.941  10.019  0.4187  0.4294 -0.4239
16227SOL    HW153811   4.322   3.890   9.980  0.2099 -1.9999  2.1740
16227SOL    HW253812   4.275   3.945  10.112 -2.0238  0.9881  0.1954
16228SOL     OW53813   5.708   4.929   4.833  0.1639 -0.5119 -0.2117
16228SOL    HW153814   5.638   4.945   4.770  0.3803 -0.7384 -0.5121
16228SOL    HW253815   5.666   4.881   4.904 -0.1561  0.0516 -0.0189
16229SOL     OW53816   8.839   1.040   5.548 -0.3400 -0.1914  0.3211
16229SOL    HW153817   8.816   1.033   5.641  0.5027  0.8538  0.6277
16229SOL    HW253818   8.756   1.056   5.503 -1.2584 -4.1425  0.4598
16230SOL     OW53819   3.174   7.225   9.065 -1.0683 -0.3243 -0.5518
16230SOL    HW153820   3.169   7.265   8.978 -0.8345 -0.4127 -0.6067
16230SOL    HW253821   3.135   7.139   9.054 -0.5533 -0.5425 -0.6953
16231SOL     OW53822   3.654  10.544   7.381  0.2746 -0.1498 -0.0734
16231SOL    HW153823   3.576  10.544   7.437  0.0076 -0.2872 -0.4354
16231SOL    HW253824   3.727  10.562   7.440 -0.0273 -0.0815  0.2815
16232SOL     OW53825   9.071   5.615   9.755 -0.0867 -0.0721 -0.2415
16232SOL    HW153826   9.090   5.581   9.842  0.2454  0.0834 -0.2509
16232SOL    HW253827   8.988   5.662   9.765  0.1865  0.3453  0.1018
16233SOL     OW53828   0.942   8.824   2.839 -0.3352 -0.6637 -0.7560
16233SOL    HW153829   0.910   8.740   2.872  0.0471 -0.9087 -1.0156
16233SOL    HW253830   1.027   8.805   2.801  0.7349  0.2517  1.1305
16234SOL     OW53831   2.389   4.964   5.007 -0.1830 -0.3049  0.1328
16234SOL    HW153832   2.480   4.935   4.999  0.0566  0.4958 -0.0496
16234SOL    HW253833   2.390   5.024   5.082 -0.8577 -1.4711  1.0976
16235SOL     OW53834   2.682   1.254   4.477 -0.2971  0.0651 -0.8083
16235SOL    HW153835   2.748   1.185   4.486 -0.3710  0.2023  0.7885
16235SOL    HW253836   2.715   1.308   4.404  1.2584  0.0283 -0.1559
16236SOL     OW53837   5.346   1.138   7.584 -0.2020 -0.1475  0.1249
16236SOL    HW153838   5.311   1.053   7.558 -2.0726  0.8389 -0.6653
16236SOL    HW253839   5.274   1.200   7.570  1.9249  2.0188 -1.9781
16237SOL     OW53840   9.247   3.497   9.742 -0.3571 -0.3160  0.0348
16237SOL    HW153841   9.257   3.580   9.788  2.1274 -0.4510 -0.2275
16237SOL    HW253842   9.219   3.522   9.654 -0.9271  0.1622  0.3467
16238SOL     OW53843   6.033   3.439  11.020 -0.0660  0.2236  0.3769
16238SOL    HW153844   6.115   3.408  10.980  0.1761 -0.6203  1.4778
16238SOL    HW253845   5.968   3.372  10.996 -0.8022  1.6478 -1.7408
16239SOL     OW53846   5.126   4.930   5.021  0.1610  0.3989  0.4661
16239SOL    HW153847   5.181   4.946   4.945  0.2126  0.0083  0.4234
16239SOL    HW253848   5.151   4.843   5.052  0.7478  0.9084  1.4448
16240SOL     OW53849   6.628   7.588  11.039 -0.1336  0.0248  0.7601
16240SOL    HW153850   6.593   7.659  10.987  0.7598  0.4168  0.6824
16240SOL    HW253851   6.721   7.609  11.050  0.5238 -1.9911 -0.7065
16241SOL     OW53852   5.185   0.187   8.587  0.3871  0.0056 -0.3295
16241SOL    HW153853   5.120   0.197   8.657 -0.4771  1.5017 -1.2969
16241SOL    HW253854   5.246   0.260   8.601  2.2308 -1.7491  0.9390
16242SOL     OW53855   5.472   1.111   1.049 -0.1789 -0.1685  0.2198
16242SOL    HW153856   5.442   1.152   0.968  0.6124  1.2946  0.6646
16242SOL    HW253857   5.394   1.066   1.082 -1.1784  1.3210 -0.0572
16243SOL     OW53858   0.679   8.583  10.944  0.1765 -0.3143  0.0921
16243SOL    HW153859   0.674   8.505  11.000 -1.2443 -0.6264 -0.4472
16243SOL    HW253860   0.605   8.574  10.884  0.9662  0.6335 -1.0469
16244SOL     OW53861   9.911   3.176   0.742 -0.1226 -0.2171  0.5478
16244SOL    HW153862   9.975   3.145   0.807 -1.4802 -1.1577  1.4670
16244SOL    HW253863   9.964   3.203   0.667  1.4074 -0.1864  1.6115
16245SOL     OW53864  11.160   7.574  10.051  0.6460 -0.8248  0.3714
16245SOL    HW153865  11.115   7.654  10.077  1.1217 -0.4867  0.1799
16245SOL    HW253866  11.195   7.593   9.964  0.5302 -1.3397  0.2094
16246SOL     OW53867   9.553   0.742   1.461 -0.0569  0.3411  0.5032
16246SOL    HW153868   9.603   0.748   1.379 -0.6897 -0.1185  0.0720
16246SOL    HW253869   9.619   0.743   1.530  0.6963 -2.0064 -0.1299
16247SOL     OW53870   3.927   6.196   7.249 -0.1576 -0.5195 -0.2044
16247SOL    HW153871   3.996   6.184   7.185 -1.1310  1.0019 -1.5844
16247SOL    HW253872   3.967   6.252   7.316  0.1121 -0.0472 -0.7489
16248SOL     OW53873   4.677   7.633   9.857  0.4374 -0.6712  0.3590
16248SOL    HW153874   4.661   7.727   9.854  1.3986 -0.5038  0.3283
16248SOL    HW253875   4.729   7.621   9.937  0.6670 -1.1197  0.1415
16249SOL     OW53876   9.530   9.052   0.795  0.3037  0.0715  0.7609
16249SOL    HW153877   9.442   9.018   0.814 -0.5507  1.8376  0.0702
16249SOL    HW253878   9.550   9.018   0.707  0.2773 -0.2922  0.8975
16250SOL     OW53879   2.082   6.530   1.542  0.1285 -0.0564  0.2367
16250SOL    HW153880   2.015   6.561   1.602 -0.0639 -1.0665  0.5535
16250SOL    HW253881   2.146   6.601   1.538  1.3273 -0.8877  3.4124
16251SOL     OW53882   4.402   2.467   7.786 -0.4289  0.3096 -0.1432
16251SOL    HW153883   4.463   2.408   7.741  1.6955  3.4114 -1.4727
16251SOL    HW253884   4.440   2.479   7.873 -1.2877 -0.8351  0.4121
16252SOL     OW53885   2.385  10.937   9.740  0.3840  0.0820 -0.3942
16252SOL    HW153886   2.385  11.022   9.785  0.3678  0.2818 -0.7730
16252SOL    HW253887   2.360  10.957   9.650 -1.0587 -0.5214 -0.1350
16253SOL     OW53888   5.157  10.619   3.053 -0.6442  0.6523 -0.1960
16253SOL    HW153889   5.130  10.651   2.966  3.3497  1.0642 -1.4164
16253SOL    HW253890   5.158  10.698   3.108 -1.3240  0.7424 -0.3162
16254SOL     OW53891   7.686   0.034   9.830  0.2981  0.1531 -0.0501
16254SOL    HW153892   7.605   0.012   9.783  0.7010  0.0176 -0.6957
16254SOL    HW253893   7.662   0.108   9.885 -0.4700 -0.4116  0.3760
16255SOL     OW53894   0.695   6.973   2.693 -0.4975  0.1447 -0.1742
16255SOL    HW153895   0.726   6.905   2.634  0.4886 -0.4614  1.0272
16255SOL    HW253896   0.673   6.927   2.773 -3.0452  0.7890 -0.4689
16256SOL     OW53897   2.604   0.892   4.176  0.0894  0.0738  0.0668
16256SOL    HW153898   2.690   0.925   4.152  0.3232 -0.1443  0.5914
16256SOL    HW253899   2.543   0.958   4.144  0.4789  0.4307  0.0584
16257SOL     OW53900   8.251   4.823   7.603  0.5035  0.2323  0.4280
16257SOL    HW153901   8.232   4.732   7.582 -2.3040  0.8326  0.1663
16257SOL    HW253902   8.193   4.844   7.677 -3.4541  3.4803 -3.3271
16258SOL     OW53903   4.966   2.053  10.695 -0.4576 -0.1783 -0.4105
16258SOL    HW153904   5.002   2.097  10.772 -0.1596  0.0831 -0.7001
16258SOL    HW253905   4.933   2.124  10.640 -1.8925 -0.4351  0.0873
16259SOL     OW53906   0.308   4.520   3.212 -0.5338 -0.0396  0.1823
16259SOL    HW153907   0.368   4.450   3.237  0.1295  0.2499 -0.5667
16259SOL    HW253908   0.287   4.564   3.294  2.3428  1.4857  0.1933
16260SOL     OW53909  11.158   8.057  10.959  0.3896  0.3110  0.1700
16260SOL    HW153910  11.213   8.012  11.023  1.7968  0.4701 -0.9024
16260SOL    HW253911  11.150   8.146  10.992 -0.1941 -0.0162  0.9241
16261SOL     OW53912   0.593   2.014   7.817 -0.3312 -0.2657 -0.0969
16261SOL    HW153913   0.609   2.064   7.738  0.2669 -0.9249 -0.3983
16261SOL    HW253914   0.665   2.037   7.876 -1.2813  0.9440  0.6283
16262SOL     OW53915   6.681   4.397  10.346 -0.6922 -0.3357 -0.2132
16262SOL    HW153916   6.658   4.384  10.254 -1.7954  2.3550 -0.3964
16262SOL    HW253917   6.776   4.410  10.346 -0.2886 -3.1302 -0.5854
16263SOL     OW53918   0.973   4.201   1.449  0.3762 -0.3442  0.3363
16263SOL    HW153919   1.039   4.270   1.461 -1.7546  1.6761  0.8699
16263SOL    HW253920   0.939   4.186   1.537  0.9916 -2.2807  0.2543
16264SOL     OW53921   6.440   9.546   3.149  0.2613  0.2897  0.2646
16264SOL    HW153922   6.397   9.608   3.091  0.5463  0.9952  0.7972
16264SOL    HW253923   6.525   9.586   3.169  0.8248 -0.7094 -0.1253
16265SOL     OW53924   1.429   0.347   2.220  0.3109  0.4099 -0.4840
16265SOL    HW153925   1.439   0.432   2.178  1.1126  0.9152  0.6943
16265SOL    HW253926   1.413   0.367   2.312  2.8963 -0.7249  0.2694
16266SOL     OW53927   2.729   0.391   2.619 -0.7346  0.2533  0.1955
16266SOL    HW153928   2.816   0.397   2.659  0.9065 -2.1619 -2.8073
16266SOL    HW253929   2.674   0.446   2.675  2.4385  0.9443  2.8530
16267SOL     OW53930   4.254   2.590   4.383 -0.5225  0.6966 -0.0592
16267SOL    HW153931   4.236   2.684   4.391  2.3259  1.1869  1.4211
16267SOL    HW253932   4.346   2.582   4.407 -0.1044 -2.2132 -2.4217
16268SOL     OW53933   3.057   0.175   6.670  0.4556  0.3203  0.3502
16268SOL    HW153934   3.134   0.122   6.689  2.4196  2.5686 -1.0999
16268SOL    HW253935   3.026   0.205   6.756  0.9465 -0.9042  0.9601
16269SOL     OW53936   0.556   6.757   6.299  0.2604 -0.5135 -0.1503
16269SOL    HW153937   0.565   6.664   6.320  0.6449 -0.9155 -1.9708
16269SOL    HW253938   0.462   6.775   6.310 -0.0989 -1.5450 -1.3571
16270SOL     OW53939   7.722   6.727   1.721  0.1566  0.1133  0.0263
16270SOL    HW153940   7.704   6.763   1.634 -0.9434 -1.7553 -0.5370
16270SOL    HW253941   7.673   6.784   1.781 -0.2496  0.5247 -0.6950
16271SOL     OW53942   2.742   3.157  10.827 -0.1443  0.0079 -0.4771
16271SOL    HW153943   2.734   3.239  10.777  0.3560 -0.3769 -1.2096
16271SOL    HW253944   2.812   3.175  10.890 -0.0891  0.1779 -0.5846
16272SOL     OW53945   6.306   1.976   6.193  0.1666  0.2618 -0.9347
16272SOL    HW153946   6.340   2.047   6.139  0.3305  0.2374 -0.8626
16272SOL    HW253947   6.219   1.958   6.156  0.7446 -0.5449 -1.9390
16273SOL     OW53948   8.734   1.644   7.887  0.4431  0.2160 -0.0302
16273SOL    HW153949   8.765   1.723   7.843 -0.0254  0.1214 -0.5299
16273SOL    HW253950   8.639   1.652   7.888  0.4573  0.2891  1.1076
16274SOL     OW53951   0.977  11.058   6.621  0.5726  0.0659 -0.2007
16274SOL    HW153952   1.069  11.041   6.600  0.5340 -0.1885 -0.1557
16274SOL    HW253953   0.963  11.017   6.706  0.2620 -0.4028 -0.4733
16275SOL     OW53954   4.123  10.916   4.736  0.0396 -0.2158  0.0444
16275SOL    HW153955   4.159  10.932   4.648  3.0767  0.0424  1.2835
16275SOL    HW253956   4.165  10.983   4.790  0.1514 -1.9762  2.1693
16276SOL     OW53957   0.790   7.239   3.494  0.5487  0.2109 -0.4849
16276SOL    HW153958   0.715   7.234   3.434 -1.4790 -1.3797  2.0377
16276SOL    HW253959   0.848   7.169   3.466  0.6928  0.9162 -1.9613
16277SOL     OW53960   8.093   9.900   8.793  0.1928 -0.2569 -0.0220
16277SOL    HW153961   8.010   9.941   8.819  0.1892 -0.0770 -0.3123
16277SOL    HW253962   8.070   9.809   8.775 -0.2928  0.1849 -1.7805
16278SOL     OW53963   3.912  10.992   1.265 -0.3830 -0.4908 -0.0269
16278SOL    HW153964   3.959  11.018   1.344  0.5370  0.7590 -0.9791
16278SOL    HW253965   3.820  10.987   1.293 -0.3143  1.8166  0.6638
16279SOL     OW53966   5.878   7.292  10.635  0.7063 -0.2491 -0.0069
16279SOL    HW153967   5.826   7.238  10.695  1.1206  0.5148  1.0583
16279SOL    HW253968   5.887   7.376  10.680 -0.8726  1.1211 -2.1355
16280SOL     OW53969   6.520   4.226   2.061  0.1649  0.3279  0.4524
16280SOL    HW153970   6.455   4.174   2.108 -0.3033 -0.6228 -1.1765
16280SOL    HW253971   6.585   4.250   2.127 -1.0760  0.0366  1.7969
16281SOL     OW53972   4.831   8.610   2.371 -0.0442 -0.1263  0.1013
16281SOL    HW153973   4.751   8.558   2.361  0.1276 -0.2520 -0.6554
16281SOL    HW253974   4.818   8.659   2.453 -0.8013 -0.3103  0.0940
16282SOL     OW53975   8.025   6.615   4.779 -0.5571 -0.1639  0.0273
16282SOL    HW153976   8.033   6.519   4.779 -0.2687 -0.1428  0.3579
16282SOL    HW253977   8.114   6.646   4.762 -0.2397  0.0662  1.9307
16283SOL     OW53978   0.506   2.390   7.476  0.6458 -0.2433  0.2976
16283SOL    HW153979   0.484   2.391   7.383  0.7653  0.5710  0.2775
16283SOL    HW253980   0.477   2.475   7.509  2.8341  0.4706  0.4663
16284SOL     OW53981   3.602   7.102   3.244  0.1849  0.1524  0.3881
16284SOL    HW153982   3.548   7.096   3.165  1.2913 -0.8379 -0.2948
16284SOL    HW253983   3.657   7.179   3.229  2.4846 -1.7166 -1.1472
16285SOL     OW53984   3.388   4.515   3.228 -0.5476  0.3504  0.2689
16285SOL    HW153985   3.362   4.451   3.295 -0.2454 -0.3280 -0.2678
16285SOL    HW253986   3.472   4.484   3.196 -0.2554  1.1886  0.2279
16286SOL     OW53987   7.214   4.924   2.391 -0.3610  0.1557 -0.3466
16286SOL    HW153988   7.231   5.018   2.395 -1.3614  0.2878  0.7279
16286SOL    HW253989   7.168   4.903   2.472 -1.6228 -0.9635 -1.3176
16287SOL     OW53990   6.679   8.582   2.207 -0.2825 -0.5856 -0.3966
16287SOL    HW153991   6.750   8.531   2.246  1.1498  0.9199 -0.9592
16287SOL    HW253992   6.617   8.596   2.278  0.3317 -1.3387  0.2882
16288SOL     OW53993   7.477   4.237   6.398 -0.4937 -0.0435 -0.3774
16288SOL    HW153994   7.445   4.158   6.353  1.1356 -2.0695  1.8950
16288SOL    HW253995   7.572   4.229   6.396 -0.3359  1.2842  0.9133
16289SOL     OW53996   1.731  10.058   9.573 -0.1991 -0.1284 -0.5437
16289SOL    HW153997   1.738  10.101   9.488  1.2278 -0.2740 -0.5115
16289SOL    HW253998   1.766   9.970   9.558 -0.6448 -0.4059  0.0172
16290SOL     OW53999   8.080   5.282   0.414 -0.4490  0.4520  0.5794
16290SOL    HW154000   8.153   5.342   0.398 -0.5171 -0.0672 -1.8967
16290SOL    HW254001   8.001   5.336   0.402 -0.4923  0.7917  2.3229
16291SOL     OW54002   4.055   3.082   8.403 -0.4840 -0.1195 -0.9938
16291SOL    HW154003   4.039   3.165   8.448 -1.9449 -1.0677  0.3135
16291SOL    HW254004   4.118   3.037   8.459 -1.7974 -1.0267 -0.2172
16292SOL     OW54005   0.315  10.436   0.208 -0.6186 -0.6501  0.5641
16292SOL    HW154006   0.401  10.471   0.230 -0.2310 -1.5200  0.4316
16292SOL    HW254007   0.256  10.477   0.272 -0.4387  1.4975 -0.5969
16293SOL     OW54008   8.134   8.141   2.657  0.0033  0.3969 -0.0235
16293SOL    HW154009   8.131   8.049   2.634  1.2319  0.8868 -2.2403
16293SOL    HW254010   8.151   8.142   2.752 -1.6168 -1.6223  0.3135
16294SOL     OW54011   4.150   1.001   4.464  0.0057  0.6180  0.1632
16294SOL    HW154012   4.085   0.997   4.534 -0.2211 -0.9154 -0.1283
16294SOL    HW254013   4.100   0.985   4.384  0.7593 -0.6572 -0.0556
16295SOL     OW54014   9.787   9.876   2.372  0.1741 -0.6446 -0.5020
16295SOL    HW154015   9.874   9.904   2.342 -0.1108 -1.6635 -2.3934
16295SOL    HW254016   9.759   9.944   2.433  2.1949 -0.1729 -0.0810
16296SOL     OW54017   9.771   8.200   7.847 -0.4857 -0.2345  0.1894
16296SOL    HW154018   9.840   8.261   7.825  1.0773 -1.1667  2.2560
16296SOL    HW254019   9.690   8.251   7.842  0.4523  1.1335 -1.2302
16297SOL     OW54020   7.914   2.278   7.324  0.4727  0.5292 -0.2942
16297SOL    HW154021   7.914   2.193   7.366  0.0186 -0.6635 -2.6334
16297SOL    HW254022   7.824   2.308   7.329  0.0459 -0.4182 -1.9411
16298SOL     OW54023   8.594   7.072   3.782 -0.5881  0.4624 -0.0964
16298SOL    HW154024   8.581   7.082   3.877  3.1154 -0.9932  0.6415
16298SOL    HW254025   8.635   7.154   3.755  2.7918 -0.9876  0.4986
16299SOL     OW54026   6.951   6.715   0.833 -0.3558  0.1612  0.4430
16299SOL    HW154027   7.002   6.654   0.886  0.1942 -1.2132 -1.5957
16299SOL    HW254028   6.968   6.688   0.743 -1.0059  2.6322 -0.4610
16300SOL     OW54029  11.212   2.704   6.208  0.3434 -0.3289 -0.6503
16300SOL    HW154030  11.138   2.759   6.235  1.0142  0.1537  0.2100
16300SOL    HW254031  11.211   2.631   6.271  2.4996  1.2985  1.3486
16301SOL     OW54032   5.710   5.555   0.104 -0.3388 -0.4672  0.0749
16301SOL    HW154033   5.683   5.638   0.066 -0.5758  0.8049  2.8868
16301SOL    HW254034   5.776   5.521   0.044 -0.8762  1.2972 -1.5719
16302SOL     OW54035   9.212   6.698   9.425  0.3645 -0.1519 -0.5729
16302SOL    HW154036   9.253   6.668   9.506 -0.9319  0.2876  0.2819
16302SOL    HW254037   9.247   6.786   9.412  1.9988 -0.9268 -1.5270
16303SOL     OW54038   5.392   0.605   2.941 -0.3818 -0.2974  0.3197
16303SOL    HW154039   5.339   0.526   2.928 -1.6653  0.4998  0.6187
16303SOL    HW254040   5.384   0.654   2.859  0.1399 -0.3174  0.2554
16304SOL     OW54041   7.977   1.532   0.685 -0.3422  0.2808  0.3357
16304SOL    HW154042   8.073   1.529   0.690 -0.2762  0.0755 -0.9815
16304SOL    HW254043   7.951   1.440   0.676 -0.6490  0.3719  0.3035
16305SOL     OW54044   4.789   5.172   0.563  0.4869  0.0445 -0.1897
16305SOL    HW154045   4.758   5.263   0.563  0.4732  0.0410  0.1414
16305SOL    HW254046   4.792   5.147   0.471  1.2309  0.6361 -0.3356
16306SOL     OW54047   6.687   3.831   9.286  0.2250 -0.4116 -0.1791
16306SOL    HW154048   6.739   3.750   9.287 -0.5707 -0.9408 -0.7828
16306SOL    HW254049   6.638   3.827   9.204  0.0354  0.6013 -0.1220
16307SOL     OW54050  10.367   4.264   1.033  0.5988 -0.3672 -0.1279
16307SOL    HW154051  10.420   4.256   0.954 -0.3106  1.4667 -0.9624
16307SOL    HW254052  10.361   4.175   1.068  0.3094 -1.3217 -2.5687
16308SOL     OW54053   9.968   8.432   5.643 -0.0868 -0.0222  0.2275
16308SOL    HW154054   9.876   8.424   5.617 -0.0531 -1.4862  0.4865
16308SOL    HW254055  10.016   8.433   5.560 -0.2577 -0.6896  0.1097
16309SOL     OW54056   8.760   7.869   0.396 -0.0652 -0.0904 -0.3995
16309SOL    HW154057   8.706   7.886   0.473  1.6902 -0.7795  1.0280
16309SOL    HW254058   8.707   7.809   0.343 -1.0467 -0.1160  0.5757
16310SOL     OW54059   6.603   7.297  11.116 -0.6953 -0.5565  0.5743
16310SOL    HW154060   6.648   7.306  11.200 -0.7807 -0.1589  0.5776
16310SOL    HW254061   6.633   7.373  11.065 -1.8962  0.0750  0.8121
16311SOL     OW54062   5.726  10.243   4.060  0.2083 -0.0183  0.7041
16311SOL    HW154063   5.796  10.237   4.125 -0.9968 -2.0560  1.8464
16311SOL    HW254064   5.748  10.175   3.996  0.1767  0.4798  0.1611
16312SOL     OW54065   3.193   8.073   1.524 -0.1188  0.5985 -0.4109
16312SOL    HW154066   3.264   8.012   1.504 -0.2800 -0.3789  1.7925
16312SOL    HW254067   3.231   8.134   1.588 -0.2999  2.1219 -1.7316
16313SOL     OW54068   6.496   4.083   9.347  0.0963 -0.1189 -0.2596
16313SOL    HW154069   6.570   4.048   9.397 -2.0355 -0.4045  2.8506
16313SOL    HW254070   6.447   4.005   9.320  0.2993  0.1161 -1.3105
16314SOL     OW54071   5.901  10.200   5.752  0.4496 -0.2655  0.0279
16314SOL    HW154072   5.806  10.200   5.737  0.6339  0.0819 -1.2077
16314SOL    HW254073   5.910  10.204   5.847 -0.7766  1.3114  0.1098
16315SOL     OW54074   6.239   0.391   1.499  0.2353  0.3784 -0.1314
16315SOL    HW154075   6.261   0.400   1.591 -0.8726  0.5582  0.1318
16315SOL    HW254076   6.304   0.331   1.463  2.6579  2.8182  0.0192
16316SOL     OW54077   4.833   2.588   5.650  0.1336  0.3003 -0.0513
16316SOL    HW154078   4.839   2.627   5.737  0.8132  1.3098 -0.5512
16316SOL    HW254079   4.769   2.518   5.661 -2.1571  2.4164  0.5328
16317SOL     OW54080   2.547   1.622   5.890  0.2008 -0.1532 -0.0261
16317SOL    HW154081   2.638   1.644   5.870  0.4425 -1.5719 -0.5358
16317SOL    HW254082   2.539   1.530   5.866 -1.7095  0.2841 -1.1064
16318SOL     OW54083  10.055   1.005   5.074  0.0205 -0.3493  0.3774
16318SOL    HW154084  10.094   0.924   5.041  4.8893  1.1622  2.0453
16318SOL    HW254085  10.042   1.059   4.996  1.3306 -0.8806 -0.2259
16319SOL     OW54086   4.430   0.525   7.109 -0.6940  0.5083  0.4208
16319SOL    HW154087   4.393   0.609   7.136  1.4653  1.7196 -0.1941
16319SOL    HW254088   4.459   0.540   7.019 -1.0447 -1.1685  0.0113
16320SOL     OW54089   5.438  11.195   4.376  0.3212 -0.1391  0.4286
16320SOL    HW154090   5.385  11.161   4.303  3.0812  0.5703 -1.9964
16320SOL    HW254091   5.399  11.279   4.397 -0.9998 -0.7147  0.3239
16321SOL     OW54092   2.654   7.883   9.303  0.0458 -0.4429  0.1876
16321SOL    HW154093   2.720   7.934   9.256  2.0317 -2.2235  0.9497
16321SOL    HW254094   2.588   7.862   9.237  0.2915  1.2745 -0.6211
16322SOL     OW54095  10.761   4.141   7.907 -0.3545  0.0030  0.0776
16322SOL    HW154096  10.697   4.207   7.935 -0.1913  1.0023 -1.8636
16322SOL    HW254097  10.708   4.066   7.881 -0.6139 -0.0373  0.6980
16323SOL     OW54098   0.515   8.838   3.161  0.4297 -0.2553 -0.1438
16323SOL    HW154099   0.443   8.902   3.160  0.8298  0.1996 -0.1451
16323SOL    HW254100   0.569   8.863   3.086  0.5248 -0.6696 -0.2113
16324SOL     OW54101   9.893  10.810   6.800  0.1148 -0.0146 -0.3031
16324SOL    HW154102   9.898  10.716   6.816  0.4386  0.0237 -0.1830
16324SOL    HW254103   9.814  10.821   6.746 -1.4044 -0.0725  1.8341
16325SOL     OW54104   2.838   0.664   9.541 -0.2046 -0.3228 -0.4695
16325SOL    HW154105   2.918   0.711   9.517 -0.2980  0.5178  0.8101
16325SOL    HW254106   2.867   0.576   9.562  0.2162 -0.3497 -1.1285
16326SOL     OW54107   1.778   9.370  11.250  0.1414 -0.3498 -0.1087
16326SOL    HW154108   1.735   9.446  11.290 -1.9618 -1.3596 -0.3681
16326SOL    HW254109   1.733   9.359  11.166 -0.7042 -2.8225  0.6195
16327SOL     OW54110  10.826   1.510   3.993  0.5618 -0.0740  0.2158
16327SOL    HW154111  10.830   1.484   3.901 -0.8534 -2.0005  0.6614
16327SOL    HW254112  10.776   1.592   3.993  2.1849  0.9424 -0.8884
16328SOL     OW54113   6.943   3.699   0.027  0.3538  0.4833 -0.4388
16328SOL    HW154114   6.851   3.680   0.006  0.5953  0.1249 -1.1817
16328SOL    HW254115   6.987   3.703  -0.058  1.0265  0.6768 -0.0859
16329SOL     OW54116   6.079   5.837   9.020  0.0392  0.2245  0.0902
16329SOL    HW154117   6.020   5.806   9.089  1.3502 -2.5161  0.0223
16329SOL    HW254118   6.163   5.850   9.064  0.3164  0.6339 -0.5470
16330SOL     OW54119   0.568   9.232  10.407  0.0066  0.4655  0.0688
16330SOL    HW154120   0.587   9.157  10.463 -1.0267 -1.2596 -1.8353
16330SOL    HW254121   0.644   9.239  10.349  0.3581  1.2620  0.6151
16331SOL     OW54122   8.111   1.315   9.909  0.5136 -0.0085  0.8316
16331SOL    HW154123   8.096   1.361   9.992 -1.3904 -0.1804  0.6222
16331SOL    HW254124   8.025   1.317   9.866  1.4984  0.1280 -1.1552
16332SOL     OW54125   3.519  11.019   4.948  0.4448 -0.1112  0.1277
16332SOL    HW154126   3.604  11.021   4.905 -0.2801  0.1623 -1.3243
16332SOL    HW254127   3.479  10.937   4.920 -0.6641  0.7971 -0.9809
16333SOL     OW54128   3.797   1.568   5.164 -0.2261 -0.3584 -0.4372
16333SOL    HW154129   3.758   1.626   5.230  1.0211 -0.1073  0.1038
16333SOL    HW254130   3.722   1.527   5.120 -1.0692 -0.8232  1.3937
16334SOL     OW54131  10.410  11.161   2.337  0.0583  0.2461 -0.0864
16334SOL    HW154132  10.463  11.188   2.412  1.7138 -0.6037 -0.9136
16334SOL    HW254133  10.367  11.242   2.308 -1.0113  0.4915  2.0519
16335SOL     OW54134   0.796   8.789   6.128  0.0089 -0.2329 -0.1299
16335SOL    HW154135   0.819   8.858   6.065  0.9091 -0.2726  0.1406
16335SOL    HW254136   0.716   8.750   6.093  1.6651 -1.7129 -2.4552
16336SOL     OW54137  11.264   0.262   6.894 -0.1023 -0.2899 -0.2010
16336SOL    HW154138  11.293   0.331   6.834  0.4809 -0.0310  0.3837
16336SOL    HW254139  11.340   0.245   6.950 -0.6876 -0.4614  0.5394
16337SOL     OW54140   7.162   5.417   1.048 -0.0693  0.0710 -0.2575
16337SOL    HW154141   7.249   5.386   1.072  0.7861  0.3421 -2.8530
16337SOL    HW254142   7.158   5.506   1.083  0.6503  0.0249 -0.0418
16338SOL     OW54143   0.517   4.379   3.431  0.2639  0.2368  0.0478
16338SOL    HW154144   0.451   4.330   3.481  1.4056 -0.4025  0.9490
16338SOL    HW254145   0.543   4.451   3.489 -0.1260  0.8907 -0.5770
16339SOL     OW54146   8.214   5.448  10.790 -0.0092  0.3744 -0.4960
16339SOL    HW154147   8.285   5.489  10.740 -0.4006  0.9229 -0.6138
16339SOL    HW254148   8.167   5.395  10.726  0.3189 -0.0214 -0.4090
16340SOL     OW54149   6.158  10.190   5.632  0.1652 -0.0000  0.4817
16340SOL    HW154150   6.162  10.104   5.591 -0.6863  0.3012 -0.2339
16340SOL    HW254151   6.068  10.198   5.662  0.0589  0.9247 -0.0698
16341SOL     OW54152   3.747   4.440   3.610  0.3584  0.2839 -0.1638
16341SOL    HW154153   3.754   4.345   3.617  0.5244  0.3844  1.0784
16341SOL    HW254154   3.713   4.468   3.695  0.1571  1.3200 -0.5821
16342SOL     OW54155   0.913   1.126   9.296 -0.3164  0.1018 -0.0237
16342SOL    HW154156   0.868   1.077   9.228  0.1538  1.5511 -1.4133
16342SOL    HW254157   0.933   1.211   9.256  1.9388  0.1907  1.1880
16343SOL     OW54158   6.658   5.400   7.321 -0.1129  0.0668  0.0106
16343SOL    HW154159   6.638   5.403   7.228  0.9778 -1.5856 -0.2820
16343SOL    HW254160   6.692   5.312   7.337  0.2472  0.5034  1.8575
16344SOL     OW54161   0.601   1.058   2.298 -0.2493  0.2982  0.0436
16344SOL    HW154162   0.541   1.116   2.344 -0.7960 -0.7275  0.6593
16344SOL    HW254163   0.553   0.975   2.292  0.3389  0.0375 -1.2043
16345SOL     OW54164   9.213   2.620   7.174 -0.4303  0.0387  0.0195
16345SOL    HW154165   9.230   2.706   7.136 -0.6946  0.4940  0.9187
16345SOL    HW254166   9.118   2.613   7.177 -0.4402 -1.1027 -1.8453
16346SOL     OW54167   3.245   1.790   4.665  0.9906 -0.0189  0.8619
16346SOL    HW154168   3.183   1.736   4.713  0.1493  0.8349  0.7557
16346SOL    HW254169   3.252   1.870   4.717  0.3902  0.7430 -0.1990
16347SOL     OW54170   2.494  11.282   7.495 -0.3023  0.4619 -0.3005
16347SOL    HW154171   2.402  11.270   7.473 -0.0199  0.1905 -1.3746
16347SOL    HW254172   2.531  11.193   7.492  0.0563  0.6059 -0.1901
16348SOL     OW54173   5.144   0.339   4.060  0.4241 -0.0782  0.0363
16348SOL    HW154174   5.161   0.408   4.124 -1.2978 -0.0102  0.4616
16348SOL    HW254175   5.230   0.315   4.026  1.0889  1.9735  0.2059
16349SOL     OW54176   5.268   7.653   0.383  0.5248 -0.8687  0.0229
16349SOL    HW154177   5.261   7.649   0.478  1.4670  0.1794  0.1443
16349SOL    HW254178   5.312   7.736   0.365 -1.7576  0.0589 -1.4473
16350SOL     OW54179   8.772   4.701   2.915 -0.1289  0.2196  0.2434
16350SOL    HW154180   8.819   4.657   2.987 -0.7073  0.3638  0.7109
16350SOL    HW254181   8.817   4.785   2.905  1.5844 -0.8408 -1.2798
16351SOL     OW54182   7.064   7.257   8.406  0.1562  0.2039 -0.0269
16351SOL    HW154183   7.020   7.342   8.413  0.2153  0.3218 -0.9356
16351SOL    HW254184   7.145   7.268   8.456  0.9275  1.2273 -1.4155
16352SOL     OW54185   1.853   8.246   3.151  0.3286 -0.0617 -0.9251
16352SOL    HW154186   1.904   8.170   3.179 -0.8120  0.0223  1.4609
16352SOL    HW254187   1.771   8.210   3.119 -0.6515  0.2085  1.2269
16353SOL     OW54188   1.174   0.244   3.383 -0.0063  0.4780  0.2095
16353SOL    HW154189   1.170   0.239   3.288 -2.0178  1.4479  0.2031
16353SOL    HW254190   1.266   0.258   3.404  0.4679  0.0803 -1.5764
16354SOL     OW54191  10.741   7.650  10.857  0.1052  0.0362 -0.6920
16354SOL    HW154192  10.771   7.629  10.768  1.8746 -0.4853 -0.0058
16354SOL    HW254193  10.800   7.599  10.914 -0.9572  0.4259  0.7741
16355SOL     OW54194  10.523   4.115   8.915  0.0889 -0.5416  0.4849
16355SOL    HW154195  10.478   4.131   8.832  1.9830 -1.7252 -0.8233
16355SOL    HW254196  10.477   4.039   8.952  0.8343 -1.6259 -0.7487
16356SOL     OW54197   3.069  10.257   2.160  0.4684  0.1112 -1.0645
16356SOL    HW154198   3.149  10.278   2.112  0.3596  0.6262 -1.0266
16356SOL    HW254199   3.005  10.236   2.091  0.7074 -0.5661 -1.0829
16357SOL     OW54200   3.974   8.021   8.624  0.3507 -0.0531  0.2111
16357SOL    HW154201   4.033   8.047   8.553 -0.7535  0.4727 -0.5432
16357SOL    HW254202   3.932   7.942   8.592 -1.4164  1.1252 -0.4911
16358SOL     OW54203   3.013   6.052   6.905 -0.3912  0.5854 -0.4510
16358SOL    HW154204   3.006   6.011   6.819  0.5592 -0.7818  0.1050
16358SOL    HW254205   2.928   6.039   6.945 -0.0605 -1.0082 -0.2257
16359SOL     OW54206   1.828   5.186   6.378  0.1033 -0.3587 -0.1222
16359SOL    HW154207   1.885   5.119   6.416 -2.1192 -2.1484  0.2209
16359SOL    HW254208   1.760   5.199   6.444  0.0258  1.6663 -0.5592
16360SOL     OW54209   8.424   8.563   8.837 -0.1936 -0.4860 -0.3018
16360SOL    HW154210   8.397   8.538   8.925 -0.3025 -0.1590 -0.2397
16360SOL    HW254211   8.496   8.503   8.815 -0.3771 -0.7725 -0.1160
16361SOL     OW54212   0.709   6.936  10.958 -0.3630 -0.7345 -0.1356
16361SOL    HW154213   0.779   6.961  11.018 -2.6352 -2.7532  3.6431
16361SOL    HW254214   0.748   6.869  10.902  1.4821  0.2436 -0.0598
16362SOL     OW54215   6.007   4.905  10.465  0.0533  0.0264  0.0383
16362SOL    HW154216   6.040   4.959  10.394 -2.6446  0.9967 -0.5015
16362SOL    HW254217   6.085   4.883  10.516  1.7189  1.0768 -1.9945
16363SOL     OW54218   5.538   8.847   3.329  0.0653 -0.5727  0.5037
16363SOL    HW154219   5.617   8.899   3.317  0.3859 -0.8685  1.3233
16363SOL    HW254220   5.540   8.821   3.421 -0.4377 -1.4663  0.2661
16364SOL     OW54221   6.801   5.128   7.636  0.4087  0.0853 -0.0256
16364SOL    HW154222   6.849   5.172   7.706  1.0453 -0.8529  0.1302
16364SOL    HW254223   6.718   5.104   7.675 -0.0440  1.3381 -0.1750
16365SOL     OW54224   7.937   5.863   0.464 -1.0211  0.3130  0.2419
16365SOL    HW154225   7.859   5.836   0.416 -1.5945  2.3731 -0.0137
16365SOL    HW254226   8.004   5.799   0.438 -2.3932 -1.0015 -0.1328
16366SOL     OW54227   5.149   4.805  10.323 -0.0740 -0.0397  0.2702
16366SOL    HW154228   5.189   4.718  10.324  1.6037  0.6914 -0.4962
16366SOL    HW254229   5.212   4.861  10.368 -0.0367  1.2255 -1.3286
16367SOL     OW54230   9.554   9.835   4.998 -0.3278  0.1776  0.1571
16367SOL    HW154231   9.493   9.825   5.071  0.6082 -0.9547  0.7893
16367SOL    HW254232   9.582   9.927   5.003  1.7733 -0.5390  2.8791
16368SOL     OW54233   8.595   7.904   7.637 -0.2807 -0.1863 -0.4485
16368SOL    HW154234   8.610   7.990   7.596 -0.4851  0.2362  0.3676
16368SOL    HW254235   8.504   7.884   7.617 -0.9504  0.8978  1.4211
16369SOL     OW54236   0.296   3.348   4.149 -0.5632  0.4139  0.0194
16369SOL    HW154237   0.247   3.369   4.070 -0.5096 -1.5430 -0.5579
16369SOL    HW254238   0.387   3.341   4.120 -0.6317 -0.9536  0.1242
16370SOL     OW54239   1.884   2.210   5.320 -0.4267  0.2037  0.4022
16370SOL    HW154240   1.809   2.160   5.354  0.6346 -1.6333  0.0703
16370SOL    HW254241   1.904   2.170   5.236 -0.0975  1.7701 -0.2904
16371SOL     OW54242   0.557  10.622   8.269 -0.0957 -0.6956 -0.0965
16371SOL    HW154243   0.632  10.671   8.236  1.6824 -1.4650  2.6665
16371SOL    HW254244   0.590  10.533   8.281 -1.9185 -1.4319 -0.3829
16372SOL     OW54245   5.739   5.578   5.981 -0.0811  0.5533  0.0309
16372SOL    HW154246   5.740   5.574   6.076 -1.0554  1.4222  0.0849
16372SOL    HW254247   5.732   5.672   5.960 -1.5188  0.2555 -0.8701
16373SOL     OW54248  10.004   7.308   9.177  0.1113  0.1064 -0.3215
16373SOL    HW154249  10.013   7.359   9.257  1.2776 -0.8418  0.1702
16373SOL    HW254250   9.935   7.244   9.197  0.9948 -0.6847  0.2354
16374SOL     OW54251   0.493   3.045   4.020  0.0726 -0.3293 -0.2176
16374SOL    HW154252   0.538   2.967   4.053  0.4160  0.4612  1.2076
16374SOL    HW254253   0.453   3.016   3.938  0.4389 -1.9277  0.1481
16375SOL     OW54254   8.800   3.154   5.431 -0.8003 -0.3775  1.0777
16375SOL    HW154255   8.823   3.070   5.393 -1.7813  0.3652 -1.2780
16375SOL    HW254256   8.880   3.206   5.425 -0.5141 -0.7732  1.4661
16376SOL     OW54257   7.594  11.070  11.248 -0.0396  0.2300  0.5049
16376SOL    HW154258   7.510  11.094  11.208 -1.2416 -2.3772  1.3715
16376SOL    HW254259   7.654  11.061  11.173 -1.0050  0.2236 -0.2757
16377SOL     OW54260  10.752   7.278   0.255 -0.0058 -0.5137  0.6089
16377SOL    HW154261  10.780   7.321   0.336 -0.5432 -1.1298  1.1362
16377SOL    HW254262  10.674   7.325   0.228  1.1616  0.8156 -0.5268
16378SOL     OW54263   8.254   9.600   7.098 -0.0341 -0.1610  0.6543
16378SOL    HW154264   8.328   9.544   7.121  0.0258 -0.1762  0.4189
16378SOL    HW254265   8.177   9.552   7.131 -0.0165 -0.5670  0.1034
16379SOL     OW54266   8.498   1.439   0.321  0.4383  0.0461  0.0237
16379SOL    HW154267   8.462   1.527   0.330  1.2234  0.4305 -0.5309
16379SOL    HW254268   8.545   1.424   0.403  0.8900  0.4206 -0.1655
16380SOL     OW54269   9.122   7.007   5.600 -0.2230 -0.2568  1.0174
16380SOL    HW154270   9.209   6.984   5.568 -1.4179 -3.0526 -0.4172
16380SOL    HW254271   9.118   6.971   5.688 -0.0837 -0.5911  0.8894
16381SOL     OW54272   9.344   0.488  10.591  0.2105 -0.1797 -0.3185
16381SOL    HW154273   9.398   0.461  10.665 -0.5263  0.6179  0.5245
16381SOL    HW254274   9.322   0.579  10.609 -1.5811 -0.5548 -0.5357
16382SOL     OW54275   8.620   6.482   6.957  0.0869  0.4471 -0.6063
16382SOL    HW154276   8.633   6.390   6.978 -1.7482  1.0082  3.5699
16382SOL    HW254277   8.697   6.506   6.906  2.1807 -2.6162  0.9106
16383SOL     OW54278   6.919   4.589   4.215  0.0715 -0.1733 -0.3395
16383SOL    HW154279   6.992   4.618   4.160 -0.8731 -2.4309 -2.8560
16383SOL    HW254280   6.846   4.644   4.188  0.2097  0.4044  0.4445
16384SOL     OW54281   0.459   3.605   9.986  0.0855 -0.1663  0.3020
16384SOL    HW154282   0.369   3.586   9.963  0.2400  0.3663 -0.7902
16384SOL    HW254283   0.466   3.583  10.079 -1.1077 -0.3929  0.3384
16385SOL     OW54284   4.965   0.766   8.778  0.2380  0.0816  0.3445
16385SOL    HW154285   4.896   0.793   8.838 -0.0165  1.0986 -0.3932
16385SOL    HW254286   5.035   0.732   8.835 -0.1745  0.6404  1.1847
16386SOL     OW54287   5.533  11.224   2.416 -0.3482  0.3153  0.6051
16386SOL    HW154288   5.531  11.173   2.335  1.8291  1.0950 -0.0009
16386SOL    HW254289   5.598  11.179   2.470 -0.4022  0.8761  1.1387
16387SOL     OW54290   4.543  10.202   0.369 -0.0404 -0.3518  0.7344
16387SOL    HW154291   4.546  10.201   0.464  2.7546  0.7281  0.7275
16387SOL    HW254292   4.532  10.294   0.346 -0.6847 -0.6066  0.0247
16388SOL     OW54293   7.412   7.110   8.476  0.3076 -0.0412 -0.3124
16388SOL    HW154294   7.332   7.113   8.528 -0.4039  0.2853 -1.4133
16388SOL    HW254295   7.457   7.192   8.496 -0.1418  0.2500 -0.4980
16389SOL     OW54296  10.503   0.971   2.258  0.1440 -0.2672 -0.3030
16389SOL    HW154297  10.474   0.987   2.348  0.3212 -1.1957 -0.0770
16389SOL    HW254298  10.596   0.994   2.258 -0.3267  1.6612 -0.7545
16390SOL     OW54299   7.855   0.334   7.607 -0.6537 -0.4466  0.1943
16390SOL    HW154300   7.789   0.264   7.604 -0.9496 -0.1578 -0.1071
16390SOL    HW254301   7.852   0.373   7.519  0.1040 -0.6021  0.0983
16391SOL     OW54302  10.201   5.687   7.438 -0.1516  0.0648  0.1379
16391SOL    HW154303  10.218   5.745   7.512 -0.1932  0.7247 -0.3581
16391SOL    HW254304  10.107   5.693   7.423 -0.9162 -3.6282  2.9128
16392SOL     OW54305   6.939   7.875   2.306 -0.7440  0.5584 -0.5799
16392SOL    HW154306   6.862   7.818   2.302  0.4607 -1.1603  0.1918
16392SOL    HW254307   6.946   7.912   2.218 -2.8342  1.2760 -0.4747
16393SOL     OW54308   8.772   7.209   2.845  0.4811 -0.4383 -0.4248
16393SOL    HW154309   8.828   7.199   2.768 -1.0942  0.4078 -1.7068
16393SOL    HW254310   8.799   7.292   2.883  1.7517 -1.1965  0.3674
16394SOL     OW54311   4.442   6.494   5.902 -0.1564 -0.2280  0.1180
16394SOL    HW154312   4.487   6.420   5.862 -1.8022 -1.0461 -0.2994
16394SOL    HW254313   4.425   6.465   5.992 -0.0302 -0.0119  0.2100
16395SOL     OW54314   0.625   4.748   3.431 -0.0969 -0.3048 -0.1572
16395SOL    HW154315   0.708   4.702   3.426 -0.5371 -0.9998 -1.1459
16395SOL    HW254316   0.600   4.744   3.524  1.3543  0.6129  0.2904
16396SOL     OW54317   3.417   2.273   5.970 -0.6800  0.1604  0.4362
16396SOL    HW154318   3.323   2.287   5.977 -0.7883 -0.6327  0.5853
16396SOL    HW254319   3.453   2.316   6.048 -0.8513  0.9931  0.0651
16397SOL     OW54320   1.993   3.418  10.281 -0.5252 -0.2125 -0.4114
16397SOL    HW154321   2.039   3.463  10.210 -1.9519  1.5638 -0.2498
16397SOL    HW254322   1.904   3.453  10.278 -1.5689 -2.7248  0.0144
16398SOL     OW54323   8.135   0.411   3.021  0.0376 -0.5821 -0.1943
16398SOL    HW154324   8.146   0.468   3.097 -1.5691  2.3407 -2.0406
16398SOL    HW254325   8.224   0.383   2.998  0.7415  0.2974  1.4248
16399SOL     OW54326  10.593   9.273   2.514  0.1386 -0.5160  0.2603
16399SOL    HW154327  10.589   9.368   2.507 -2.5609 -0.6718 -1.2725
16399SOL    HW254328  10.644   9.246   2.438  0.2419 -0.3187  0.2592
16400SOL     OW54329   4.156   1.869   6.608  0.2569  0.0077  0.0448
16400SOL    HW154330   4.156   1.802   6.541 -0.7752 -0.4187  0.4622
16400SOL    HW254331   4.144   1.951   6.560  2.8170  0.0433 -0.5840
16401SOL     OW54332  10.123   2.289  11.168 -0.0189 -0.3185 -0.4676
16401SOL    HW154333  10.179   2.213  11.154 -0.3569 -1.2281  2.7974
16401SOL    HW254334  10.160   2.357  11.111  2.9534 -1.6066 -0.1496
16402SOL     OW54335   8.215   7.636   8.813 -0.1728 -0.2116 -0.2761
16402SOL    HW154336   8.223   7.730   8.827 -0.3337 -0.1644 -0.5094
16402SOL    HW254337   8.127   7.614   8.842 -0.6969 -0.0264 -1.6751
16403SOL     OW54338   4.708   2.676   4.200  0.2478  0.2990  0.2092
16403SOL    HW154339   4.761   2.627   4.137 -1.3389 -1.4212  0.1702
16403SOL    HW254340   4.680   2.754   4.152  0.6262 -0.0478 -0.5910
16404SOL     OW54341   5.634   0.225   0.021  0.3298  0.3238 -0.2822
16404SOL    HW154342   5.655   0.153   0.080  0.9280  1.2157  0.5987
16404SOL    HW254343   5.538   0.226   0.017  0.3043 -0.0889  0.2358
16405SOL     OW54344   9.647  10.968   9.242  0.2162  0.4902 -0.3075
16405SOL    HW154345   9.682  10.966   9.153  2.4788  0.6354  0.5637
16405SOL    HW254346   9.662  11.057   9.272 -0.0428  0.2885  0.4245
16406SOL     OW54347   4.586   4.537   8.667  0.0132  0.3201  0.0239
16406SOL    HW154348   4.677   4.557   8.692 -0.1626  0.5998  0.4480
16406SOL    HW254349   4.544   4.514   8.749 -0.4255  0.6720 -0.1024
16407SOL     OW54350   1.081   5.456   9.344 -0.7531 -0.4168 -0.0031
16407SOL    HW154351   1.163   5.468   9.296  0.0392  0.3901  1.4979
16407SOL    HW254352   1.030   5.395   9.291  1.2968 -1.8401 -0.3808
16408SOL     OW54353   1.929   2.367   0.176 -0.2712  0.0678 -0.2144
16408SOL    HW154354   1.982   2.292   0.148 -1.1485 -0.7546  0.3159
16408SOL    HW254355   1.846   2.357   0.130 -0.6069  0.3872  0.3130
16409SOL     OW54356   0.784   8.908   4.191 -0.4254 -0.1609  0.2094
16409SOL    HW154357   0.835   8.927   4.270 -1.6099  2.2106  0.4519
16409SOL    HW254358   0.781   8.813   4.186  0.5442 -0.3337  2.4439
16410SOL     OW54359   6.826   2.638   7.624  0.4004  0.0913  0.1268
16410SOL    HW154360   6.757   2.571   7.626  1.4713 -1.1395 -1.7859
16410SOL    HW254361   6.783   2.717   7.592 -0.0099 -0.8540 -1.7234
16411SOL     OW54362   9.942   7.051   7.255 -0.0063 -0.0231  0.3058
16411SOL    HW154363   9.881   7.012   7.192 -0.1162  0.3999  0.1404
16411SOL    HW254364   9.933   7.146   7.241 -0.3367  0.0861  1.2571
16412SOL     OW54365   7.181  10.765   7.955  0.2373  0.2434 -0.3789
16412SOL    HW154366   7.160  10.691   7.899  0.7017 -0.7161  0.6901
16412SOL    HW254367   7.127  10.837   7.922 -0.9728 -0.8364 -0.7961
16413SOL     OW54368   0.998   8.779   5.198 -0.0696  0.3278 -1.2033
16413SOL    HW154369   0.944   8.782   5.119 -3.3084 -0.0814  0.8920
16413SOL    HW254370   0.984   8.691   5.232  2.8336 -0.1591 -1.1307
16414SOL     OW54371   6.346   5.043   9.495  0.4449  0.2228  0.6282
16414SOL    HW154372   6.361   4.994   9.414 -1.7226  0.4549  0.0380
16414SOL    HW254373   6.332   5.133   9.466 -0.3868  0.2986  1.2490
16415SOL     OW54374   6.435   6.071   0.117 -0.1823  0.3648 -0.1180
16415SOL    HW154375   6.380   6.135   0.073 -1.4234 -2.5498 -3.0077
16415SOL    HW254376   6.373   6.005   0.149  1.2595 -0.7497  0.4209
16416SOL     OW54377   6.304   3.997   0.753 -0.3049  0.3327  0.4603
16416SOL    HW154378   6.379   4.054   0.743  0.8902 -1.3405 -0.3108
16416SOL    HW254379   6.229   4.056   0.759  0.8529  1.9561 -0.7266
16417SOL     OW54380   0.638   8.284   5.060  0.1185  0.0612  0.2052
16417SOL    HW154381   0.658   8.264   5.151  0.4071 -0.3909  0.0445
16417SOL    HW254382   0.543   8.290   5.056  0.1632  1.4255  0.8139
16418SOL     OW54383   7.320   6.975   8.028  0.1840 -0.0373 -0.0364
16418SOL    HW154384   7.244   7.022   8.063 -0.6457  0.6009 -2.5859
16418SOL    HW254385   7.340   7.020   7.946  1.4376 -2.0758 -0.8797
16419SOL     OW54386  10.461   7.716   1.844 -0.0164  0.4068 -0.4509
16419SOL    HW154387  10.384   7.745   1.893  0.8420  1.5425  0.2305
16419SOL    HW254388  10.519   7.792   1.843  2.2213 -1.2401  1.2347
16420SOL     OW54389   5.957   4.886   3.504  0.2976  0.1990 -0.8040
16420SOL    HW154390   5.973   4.813   3.445 -1.4649 -1.1410  0.3347
16420SOL    HW254391   5.942   4.846   3.589 -1.1864  1.8353 -0.2613
16421SOL     OW54392   0.776   2.695   0.817  0.2545 -0.6315  0.9002
16421SOL    HW154393   0.742   2.608   0.798  0.3213  0.0678 -2.6581
16421SOL    HW254394   0.835   2.714   0.744  0.2913  2.3659  1.6681
16422SOL     OW54395   0.305   0.647   2.217  0.1877 -0.4905  0.1660
16422SOL    HW154396   0.316   0.606   2.303 -1.4938 -0.1657  0.5534
16422SOL    HW254397   0.214   0.677   2.217  0.3466 -0.0025 -1.5191
16423SOL     OW54398   6.817   8.856   6.350 -0.1560 -1.2465 -0.1710
16423SOL    HW154399   6.753   8.898   6.292  2.0219  0.4419 -1.3951
16423SOL    HW254400   6.865   8.796   6.293 -0.2693 -2.1124  0.6355
16424SOL     OW54401   9.871   9.950   0.574 -0.0983  0.3651 -0.1770
16424SOL    HW154402   9.787   9.989   0.547 -0.3431 -0.8160 -1.1503
16424SOL    HW254403   9.933   9.979   0.508  0.3589  1.5959  0.7859
16425SOL     OW54404   9.363   5.918   4.564  0.2512  0.0273 -0.0197
16425SOL    HW154405   9.280   5.957   4.590  0.2858 -1.6167  2.7500
16425SOL    HW254406   9.339   5.840   4.514  0.0946 -0.2466  0.4747
16426SOL     OW54407   7.546   0.771   0.505  0.1741 -0.3803  0.3912
16426SOL    HW154408   7.610   0.816   0.560  1.0469 -1.5293  0.3562
16426SOL    HW254409   7.487   0.839   0.475  1.2820  0.6851  0.5875
16427SOL     OW54410   1.887   2.675   4.311 -0.2313 -0.1686  0.3236
16427SOL    HW154411   1.956   2.714   4.257 -0.6409 -0.8641 -0.7341
16427SOL    HW254412   1.872   2.739   4.381 -0.0752  1.0218 -0.7040
16428SOL     OW54413   2.092   1.847   5.679 -0.3725  0.3008  0.1204
16428SOL    HW154414   2.111   1.854   5.772  0.1788 -0.6353  0.0833
16428SOL    HW254415   2.162   1.792   5.644 -1.4990 -0.7487 -0.5350
16429SOL     OW54416   0.954  11.038   5.948  0.2009  1.0213  0.0732
16429SOL    HW154417   0.874  11.049   5.999 -0.2543  0.5836 -0.5333
16429SOL    HW254418   0.937  10.961   5.893  0.3367  1.9887 -1.3644
16430SOL     OW54419   2.303   6.750   8.715 -0.1014  0.6078 -0.0120
16430SOL    HW154420   2.348   6.689   8.657  0.1309  0.5044  0.2821
16430SOL    HW254421   2.276   6.821   8.657 -0.8856 -0.0469 -0.4615
16431SOL     OW54422   6.464  10.900   1.015  0.4660  0.1194 -0.4831
16431SOL    HW154423   6.396  10.839   0.987  0.0398 -0.4706  1.7463
16431SOL    HW254424   6.533  10.844   1.051  0.8109  0.8687  0.0370
16432SOL     OW54425   1.619   6.020   5.672  0.3142 -0.7092  0.7454
16432SOL    HW154426   1.651   6.037   5.583  0.3362 -0.4884  0.7959
16432SOL    HW254427   1.683   5.958   5.708  2.0774  1.5759  1.6853
16433SOL     OW54428   3.979   3.944   2.843 -0.5789 -0.1079 -0.5473
16433SOL    HW154429   4.010   3.857   2.869 -0.1563  0.2043 -0.0144
16433SOL    HW254430   4.012   4.003   2.910  0.4062  0.6791 -1.7125
16434SOL     OW54431  10.448   8.354  11.273  0.0256 -0.3379  0.6818
16434SOL    HW154432  10.364   8.309  11.266  0.7357 -1.6194  0.2400
16434SOL    HW254433  10.435   8.436  11.225 -0.6472 -0.9914 -0.2760
16435SOL     OW54434   0.001   0.622   6.976  0.7282  0.1798  0.1442
16435SOL    HW154435   0.058   0.552   6.945  0.2756 -0.0879 -0.0863
16435SOL    HW254436  -0.086   0.582   6.980  0.4230  0.8021 -0.2264
16436SOL     OW54437   0.047  10.493   3.462 -0.5216 -1.1332  1.2600
16436SOL    HW154438  -0.022  10.522   3.403 -0.4492  0.1710  1.7833
16436SOL    HW254439   0.080  10.412   3.423 -0.0287  0.0413 -0.8540
16437SOL     OW54440   1.625   3.196   4.415 -0.3175  0.1403  0.3355
16437SOL    HW154441   1.600   3.282   4.449 -1.9432 -0.6213  1.0750
16437SOL    HW254442   1.582   3.134   4.472 -0.9638 -1.1745 -1.5456
16438SOL     OW54443   5.752   5.471   8.925 -0.1491 -0.2105  0.1160
16438SOL    HW154444   5.770   5.550   8.976  1.7702 -0.6823  0.2077
16438SOL    HW254445   5.667   5.487   8.885 -0.0968  1.6138  0.6880
16439SOL     OW54446   4.667   2.133   1.999 -0.3892 -0.2022  0.4222
16439SOL    HW154447   4.613   2.095   1.929 -1.7982 -1.1621  1.9928
16439SOL    HW254448   4.710   2.208   1.957  0.2852 -1.8548 -1.9869
16440SOL     OW54449   1.513   3.793   8.859  0.5531  0.1864 -0.2820
16440SOL    HW154450   1.450   3.804   8.930 -0.4603 -0.1445 -1.1271
16440SOL    HW254451   1.590   3.842   8.888 -0.1250  0.6775  0.7081
16441SOL     OW54452   2.513   9.623   3.403  0.0523  0.7788 -0.6422
16441SOL    HW154453   2.606   9.603   3.393 -0.6875 -2.1763 -2.1650
16441SOL    HW254454   2.482   9.560   3.469 -0.8848  1.6617 -0.2294
16442SOL     OW54455   7.009   4.328   7.651  0.3213 -0.2840  0.2601
16442SOL    HW154456   6.960   4.284   7.721  0.1082 -0.2137  0.1549
16442SOL    HW254457   7.052   4.401   7.696 -0.2991  0.1218  0.2105
16443SOL     OW54458   2.808   2.339   5.928 -0.0547  0.5351 -0.3170
16443SOL    HW154459   2.782   2.427   5.902 -0.4192  0.8896  1.1786
16443SOL    HW254460   2.833   2.347   6.020  0.2172 -0.8596 -0.2502
16444SOL     OW54461  11.260   9.884   4.271 -0.0216 -0.7365  0.4814
16444SOL    HW154462  11.246   9.871   4.177 -1.0393  0.6831  0.4185
16444SOL    HW254463  11.312   9.964   4.276  0.0107 -0.7957  1.1321
16445SOL     OW54464   8.859   4.963   8.866 -0.7200 -0.3984  0.1207
16445SOL    HW154465   8.865   5.057   8.846 -0.3775 -0.7404 -1.4361
16445SOL    HW254466   8.940   4.926   8.832 -1.1310 -1.3684  0.1824
16446SOL     OW54467   7.083   5.428   4.622  0.0202 -0.3378  0.4846
16446SOL    HW154468   7.128   5.362   4.570 -1.1331  0.6107 -1.7835
16446SOL    HW254469   6.992   5.427   4.591  0.1157  2.7487 -0.1106
16447SOL     OW54470   3.050   2.647   8.699  0.0309  0.2767  0.0552
16447SOL    HW154471   3.094   2.621   8.780 -1.4869  1.3687  1.2593
16447SOL    HW254472   2.997   2.723   8.723 -2.0336 -0.6054 -1.4713
16448SOL     OW54473  10.416   2.574   4.162 -0.1893 -0.0780  0.9839
16448SOL    HW154474  10.467   2.569   4.081  0.6996  0.9684  1.4760
16448SOL    HW254475  10.361   2.496   4.159  0.4325 -0.4946 -0.2305
16449SOL     OW54476   2.043   6.571   0.822 -0.5144 -0.1535  0.1752
16449SOL    HW154477   2.083   6.489   0.852 -3.2476 -0.5554  2.9716
16449SOL    HW254478   2.083   6.638   0.878  0.8235  0.3066 -1.2966
16450SOL     OW54479   0.743   2.567   6.432 -0.1632 -0.2898  0.6236
16450SOL    HW154480   0.674   2.600   6.489 -1.0758  1.6538 -1.5251
16450SOL    HW254481   0.785   2.645   6.396  1.2721 -1.4620 -0.3235
16451SOL     OW54482   4.085   0.887   9.450  0.1619 -0.5900  0.0689
16451SOL    HW154483   4.077   0.857   9.360 -0.3708 -1.5994  0.4371
16451SOL    HW254484   4.007   0.851   9.494  0.4503 -0.1707  0.9398
16452SOL     OW54485   8.858  11.071   6.910 -0.3073 -0.7619  0.4590
16452SOL    HW154486   8.784  11.106   6.862  0.1896  1.0188  0.9512
16452SOL    HW254487   8.846  11.102   7.000  1.4773  0.3509  0.3570
16453SOL     OW54488   7.071   7.448   3.464 -0.1920  0.1824  0.2553
16453SOL    HW154489   7.077   7.352   3.465 -0.1152  0.1881  0.3145
16453SOL    HW254490   7.050   7.469   3.373  1.1348  0.1915 -0.0610
16454SOL     OW54491   9.777   3.516   2.566  0.4796 -0.0219 -0.2598
16454SOL    HW154492   9.788   3.487   2.656  0.6318  1.0574  0.0742
16454SOL    HW254493   9.795   3.609   2.568 -0.0072  0.1086 -1.3204
16455SOL     OW54494   0.444   1.172   0.877  0.2224 -0.0622  0.0044
16455SOL    HW154495   0.404   1.247   0.831  1.1511  1.0938  1.0690
16455SOL    HW254496   0.489   1.211   0.951  1.9203 -1.5495 -0.2329
16456SOL     OW54497  10.200   4.028  11.234 -0.3708  0.3438  0.2565
16456SOL    HW154498  10.275   4.078  11.266 -1.5206  1.2462  1.5952
16456SOL    HW254499  10.154   4.090  11.177 -1.0507  0.3736  0.8324
16457SOL     OW54500   1.052   6.954   8.279 -0.0202 -0.0333 -0.1294
16457SOL    HW154501   1.044   7.046   8.256  1.7063 -0.2892 -1.9167
16457SOL    HW254502   1.126   6.951   8.340  0.8148 -0.3871 -1.1451
16458SOL     OW54503   3.971   9.450  10.954  0.0760 -0.0365  0.1218
16458SOL    HW154504   4.011   9.428  10.870  1.0329 -0.5721  0.7026
16458SOL    HW254505   3.877   9.439  10.940  0.4348 -4.1224  0.2267
16459SOL     OW54506   4.064   0.424   5.960  0.2587  0.4540  0.4197
16459SOL    HW154507   4.142   0.471   5.988  1.7220 -1.3853 -0.5363
16459SOL    HW254508   4.037   0.469   5.879  1.8108 -0.5068 -0.6418
16460SOL     OW54509   9.207   9.951   6.119  0.3197 -0.2466 -0.0218
16460SOL    HW154510   9.148   9.970   6.191 -0.8610 -2.6318 -0.3323
16460SOL    HW254511   9.265   9.883   6.152  0.1621 -0.9305 -1.1190
16461SOL     OW54512   6.785   3.558   8.113  0.3556  0.4254  0.3296
16461SOL    HW154513   6.818   3.587   8.028 -0.3410 -1.2394 -0.5224
16461SOL    HW254514   6.857   3.574   8.173  1.8752 -0.9184 -1.0744
16462SOL     OW54515   9.846   6.373   5.337 -1.0080  0.1447 -0.7204
16462SOL    HW154516   9.915   6.412   5.284 -0.9425 -1.9788 -2.2770
16462SOL    HW254517   9.890   6.306   5.389 -1.4500  0.7023  0.3993
16463SOL     OW54518   8.252   5.934  10.652 -0.6558  0.1417 -0.5007
16463SOL    HW154519   8.185   5.958  10.716 -0.1880 -2.6606  1.1174
16463SOL    HW254520   8.203   5.910  10.574 -1.2529  3.1682 -1.1285
16464SOL     OW54521   7.662   8.978   9.384  0.0942  0.1479  0.6957
16464SOL    HW154522   7.736   8.927   9.416 -0.0892  0.6306  1.9117
16464SOL    HW254523   7.615   8.919   9.326 -1.3366 -1.8372  3.7328
16465SOL     OW54524   2.641   9.718   0.213 -0.2538  0.6384 -0.2087
16465SOL    HW154525   2.639   9.626   0.241  0.8345  0.5436 -0.4131
16465SOL    HW254526   2.568   9.759   0.259 -0.7959 -0.3456 -0.1777
16466SOL     OW54527   9.799   5.484   1.408 -0.3600 -0.3829  0.1591
16466SOL    HW154528   9.893   5.490   1.392 -0.4250  0.2654  0.0121
16466SOL    HW254529   9.758   5.526   1.332 -0.7728 -0.7606  0.1673
16467SOL     OW54530   5.652   4.647   2.722 -0.1836 -0.2434 -0.6545
16467SOL    HW154531   5.689   4.564   2.691  1.3999  0.4189 -0.5995
16467SOL    HW254532   5.571   4.622   2.767  0.5095 -1.8026 -0.2400
16468SOL     OW54533   0.502   9.256   0.793 -0.4198  0.3663  0.4402
16468SOL    HW154534   0.417   9.223   0.822 -1.3507  2.2441 -0.0688
16468SOL    HW254535   0.561   9.239   0.867 -2.1254  2.5221  2.3734
16469SOL     OW54536   2.749   1.242   2.590  0.3901  0.4276  0.7296
16469SOL    HW154537   2.810   1.169   2.600 -0.2300 -0.1424  0.4694
16469SOL    HW254538   2.701   1.222   2.509 -1.3304 -0.0718  1.8245
16470SOL     OW54539   4.719   1.583   0.455  0.0880  0.4748 -0.3621
16470SOL    HW154540   4.753   1.561   0.542  1.2151  0.7366 -0.7258
16470SOL    HW254541   4.669   1.506   0.428 -0.2492  0.3826  0.5031
16471SOL     OW54542   0.240   1.921   8.991 -0.1211  0.3132  0.4560
16471SOL    HW154543   0.190   1.945   9.069 -2.8543  2.0171 -1.6990
16471SOL    HW254544   0.316   1.980   8.993 -0.5943  0.9114  1.4075
16472SOL     OW54545   8.554   2.673   2.798 -0.0254 -0.3990 -0.2084
16472SOL    HW154546   8.646   2.670   2.827 -0.3582  0.6706  0.9817
16472SOL    HW254547   8.509   2.612   2.855  0.1753 -1.9575 -1.6939
16473SOL     OW54548   8.611   0.611   1.791  0.1666  0.2871 -0.3237
16473SOL    HW154549   8.616   0.679   1.858  0.1852  0.3534 -0.3922
16473SOL    HW254550   8.654   0.535   1.831  1.3040  0.7061 -0.7253
16474SOL     OW54551  10.778   1.189   1.943 -0.2338 -0.4803  0.7132
16474SOL    HW154552  10.784   1.106   1.992 -0.5984 -0.5383  0.6623
16474SOL    HW254553  10.687   1.194   1.916 -0.1343 -0.2234  0.4232
16475SOL     OW54554   5.820   1.543   8.931  0.0589 -0.6680 -0.5377
16475SOL    HW154555   5.915   1.560   8.930  0.4552 -2.8045 -2.1517
16475SOL    HW254556   5.801   1.519   9.022  0.5512  2.3105  0.4083
16476SOL     OW54557   6.198   4.764  10.611 -0.2648 -0.7646  0.0961
16476SOL    HW154558   6.271   4.759  10.550 -1.4034 -0.2599 -1.3542
16476SOL    HW254559   6.230   4.816  10.684  0.5538  0.1534 -0.9165
16477SOL     OW54560   8.512   1.756   5.562 -0.2677  0.0107 -0.4395
16477SOL    HW154561   8.525   1.662   5.546 -1.9058 -0.4030  0.5282
16477SOL    HW254562   8.547   1.770   5.650  1.0501  0.5713 -1.0311
16478SOL     OW54563  11.075   9.809   3.819 -0.8207 -0.6460  0.8239
16478SOL    HW154564  11.140   9.837   3.754 -0.8092  0.2585  1.2187
16478SOL    HW254565  10.993   9.849   3.790 -0.7122  0.1723  1.6357
16479SOL     OW54566   9.692   1.356   0.022  0.0134 -0.0404 -0.1158
16479SOL    HW154567   9.663   1.265   0.011 -0.9071  0.2961 -0.5070
16479SOL    HW254568   9.691   1.371   0.116 -1.3795  0.0568 -0.1393
16480SOL     OW54569   5.758   6.234   2.049  0.1933 -0.0238  0.3734
16480SOL    HW154570   5.796   6.150   2.075 -2.9806 -1.1327  1.5752
16480SOL    HW254571   5.675   6.239   2.096 -0.1852  3.3231 -0.5130
16481SOL     OW54572   7.742   9.550   3.835 -0.0533 -0.7177 -0.1619
16481SOL    HW154573   7.658   9.507   3.850  0.1722 -1.3192 -0.5618
16481SOL    HW254574   7.797   9.521   3.908 -0.7921  1.3038  1.2169
16482SOL     OW54575   5.389   7.745   0.110 -0.3330 -0.4070  0.4457
16482SOL    HW154576   5.431   7.725   0.026 -0.2539 -0.5728  0.5245
16482SOL    HW254577   5.430   7.685   0.172 -0.0484  0.0458  0.6967
16483SOL     OW54578   5.424   8.646   4.837 -0.0900 -0.0732 -0.4588
16483SOL    HW154579   5.399   8.732   4.801 -0.4064 -0.6614 -1.6613
16483SOL    HW254580   5.506   8.663   4.883  0.6946  0.5717 -2.0556
16484SOL     OW54581   1.321   5.565   6.465  0.4042 -0.2262  0.6038
16484SOL    HW154582   1.362   5.623   6.401  0.3136 -0.3737  0.4128
16484SOL    HW254583   1.296   5.487   6.415 -0.3004 -0.0492  0.6778
16485SOL     OW54584   0.983   7.946   3.856 -0.0148  0.0910 -0.2513
16485SOL    HW154585   1.060   7.904   3.896  1.7457  1.9441 -1.5738
16485SOL    HW254586   0.923   7.873   3.838  0.3988 -1.1365  2.9136
16486SOL     OW54587   9.422   6.671   0.817 -0.3359  0.5795  0.0011
16486SOL    HW154588   9.490   6.712   0.869  0.8666 -1.6752  0.2675
16486SOL    HW254589   9.418   6.724   0.737 -0.1883  2.3282  1.1137
16487SOL     OW54590   3.892   1.366   4.864 -0.6185 -0.0235  0.1765
16487SOL    HW154591   3.966   1.410   4.905 -0.7381  1.1801 -0.8660
16487SOL    HW254592   3.931   1.295   4.814 -0.0953  1.0452 -0.9436
16488SOL     OW54593   3.198   0.611   0.497 -0.0156  0.0041  0.1827
16488SOL    HW154594   3.144   0.669   0.444  0.7337 -0.3826 -1.0160
16488SOL    HW254595   3.244   0.670   0.557 -2.0200  0.3060  1.4759
16489SOL     OW54596   7.034   9.895   4.674  0.8770  0.5315  0.0885
16489SOL    HW154597   7.088   9.818   4.694  0.4663  0.5783  1.4589
16489SOL    HW254598   6.944   9.861   4.673  0.8478  0.6397 -1.2077
16490SOL     OW54599   6.684   1.601   6.231  0.2890  0.8698 -0.2486
16490SOL    HW154600   6.676   1.579   6.323 -2.0261  0.9518 -0.4096
16490SOL    HW254601   6.746   1.674   6.229 -0.5496  1.6502  1.3623
16491SOL     OW54602   6.886   8.355   0.970  0.6257  0.1638  0.7044
16491SOL    HW154603   6.942   8.370   1.046  1.2137 -1.6885  0.6662
16491SOL    HW254604   6.810   8.309   1.005  0.7523 -0.4183  0.2295
16492SOL     OW54605   8.306   6.209   5.595 -0.2698  0.1455 -0.0086
16492SOL    HW154606   8.286   6.124   5.635 -1.9500  0.7205  0.3979
16492SOL    HW254607   8.225   6.234   5.550  0.6272  0.9319 -1.2266
16493SOL     OW54608   5.703   0.039   7.320 -0.1890  0.0576 -0.7626
16493SOL    HW154609   5.634  -0.012   7.278  0.0444 -1.2379  0.3988
16493SOL    HW254610   5.757   0.070   7.248 -0.8908 -0.5307 -1.5529
16494SOL     OW54611  10.230   4.057   4.123  0.3930  0.1856 -0.0476
16494SOL    HW154612  10.288   4.082   4.051  1.3097 -0.3175  0.5016
16494SOL    HW254613  10.211   3.964   4.107 -1.4921  0.7139 -1.0512
16495SOL     OW54614   4.609   2.202   7.219  0.1402 -0.5003 -0.2290
16495SOL    HW154615   4.648   2.219   7.305  1.7827 -1.7554 -0.7138
16495SOL    HW254616   4.529   2.153   7.238  0.1489 -0.1900  0.6128
16496SOL     OW54617   2.898   4.789   3.384 -0.4231 -0.0429 -0.1371
16496SOL    HW154618   2.944   4.801   3.301  1.0176  0.4345  0.7232
16496SOL    HW254619   2.821   4.845   3.377  0.4698  1.1356 -0.5609
16497SOL     OW54620   5.798   5.271   7.469  0.3199 -0.3020  0.2319
16497SOL    HW154621   5.818   5.364   7.458  0.3018 -0.3429 -0.1576
16497SOL    HW254622   5.704   5.265   7.454  0.5946 -0.6403 -1.4740
16498SOL     OW54623   0.826   6.966   9.554  0.3902 -0.0643  0.3013
16498SOL    HW154624   0.825   7.049   9.602  0.9395 -0.6420  1.3305
16498SOL    HW254625   0.864   6.988   9.469  0.9400  0.6562  0.7288
16499SOL     OW54626   2.045   4.005   5.807  0.0995  0.1193 -0.0411
16499SOL    HW154627   2.067   3.926   5.757  0.1194  0.2237 -0.1957
16499SOL    HW254628   2.054   4.077   5.744  0.1789  0.2558  0.1275
16500SOL     OW54629   7.696  11.300   7.641 -0.4573 -0.0484  0.5649
16500SOL    HW154630   7.787  11.315   7.667 -0.4578 -0.6921  0.9569
16500SOL    HW254631   7.679  11.366   7.575  0.2172  0.2467  0.6770
16501SOL     OW54632   0.043   8.010   5.765  0.4381  0.0912 -0.3101
16501SOL    HW154633   0.030   7.916   5.751 -0.5188  0.1706  0.0205
16501SOL    HW254634   0.136   8.024   5.746  0.5146 -0.8627 -0.6840
16502SOL     OW54635   3.900   4.870   7.484 -0.0158  0.1949 -0.2980
16502SOL    HW154636   3.937   4.919   7.410 -1.3833  1.0407 -0.4384
16502SOL    HW254637   3.903   4.931   7.557 -0.7932  0.1587 -0.2297
16503SOL     OW54638   7.260   2.698   1.450  0.0539 -0.7423  0.2224
16503SOL    HW154639   7.303   2.703   1.365 -0.3962 -2.1930 -0.0956
16503SOL    HW254640   7.328   2.664   1.509  0.1351 -0.4807  0.2796
16504SOL     OW54641   5.273   5.549   6.041 -0.5323 -0.1699  0.3015
16504SOL    HW154642   5.195   5.520   6.089 -0.9145 -1.7172 -1.1960
16504SOL    HW254643   5.342   5.552   6.108 -1.2202 -1.5486  1.1094
16505SOL     OW54644   0.173   1.257   5.557 -0.2434  0.9231  0.2924
16505SOL    HW154645   0.164   1.169   5.593  1.9657  0.3465 -0.4969
16505SOL    HW254646   0.171   1.245   5.462 -2.3486  2.0272  0.1567
16506SOL     OW54647   9.973   6.524   9.082 -0.6554 -0.0042  0.1199
16506SOL    HW154648   9.986   6.618   9.067 -1.3280  0.2232  0.9193
16506SOL    HW254649   9.949   6.518   9.174  0.6045 -1.0884  0.3776
16507SOL     OW54650   0.022   9.870   9.173  0.4986  0.3634  0.2806
16507SOL    HW154651   0.106   9.895   9.212  0.3410 -0.2250  1.0242
16507SOL    HW254652   0.038   9.870   9.079  1.0351  1.3169  0.3632
16508SOL     OW54653   6.477   4.337  10.514  0.2837 -0.1363 -0.0843
16508SOL    HW154654   6.425   4.417  10.518  2.0957  1.0379  0.5954
16508SOL    HW254655   6.549   4.359  10.455 -0.5079 -2.0620 -1.8192
16509SOL     OW54656  10.650   7.615   7.933 -0.4671  0.1895 -0.2681
16509SOL    HW154657  10.590   7.551   7.971 -0.1820  0.4054  0.5667
16509SOL    HW254658  10.737   7.577   7.947 -0.4759 -0.8138 -2.7891
16510SOL     OW54659   4.700   2.732   1.377  0.0398  0.0884  0.1019
16510SOL    HW154660   4.650   2.667   1.426 -1.0607  1.0025  0.2035
16510SOL    HW254661   4.742   2.682   1.307 -0.0242 -0.8861  0.7513
16511SOL     OW54662   6.420   2.469   5.914 -0.8519  0.1247  0.4140
16511SOL    HW154663   6.480   2.461   5.840 -1.4818 -0.9137  0.0041
16511SOL    HW254664   6.404   2.378   5.941 -0.8578  0.4831  1.6321
16512SOL     OW54665   4.692   0.689   0.854  0.0353  0.3568 -0.3921
16512SOL    HW154666   4.677   0.736   0.772  0.3815  0.9172 -0.1370
16512SOL    HW254667   4.731   0.754   0.912  2.8340 -0.8612 -0.8116
16513SOL     OW54668   5.221  11.280   5.767  0.2690 -0.4965  0.0007
16513SOL    HW154669   5.234  11.190   5.737  1.9099 -0.9339  1.8950
16513SOL    HW254670   5.134  11.304   5.736  0.3893 -2.2264 -1.7557
16514SOL     OW54671   2.794   6.169   9.481  0.8152  0.6598 -0.1131
16514SOL    HW154672   2.732   6.105   9.516 -0.4312  0.1197 -3.1787
16514SOL    HW254673   2.751   6.254   9.493 -0.3927  0.3222 -1.8543
16515SOL     OW54674   8.605   9.327   2.330  0.1292 -0.2053 -0.0314
16515SOL    HW154675   8.672   9.388   2.361 -0.2737  0.6502 -0.8185
16515SOL    HW254676   8.589   9.269   2.405 -1.0433  1.9952  1.4968
16516SOL     OW54677  10.041   1.794   1.155 -0.5682  0.1566  0.0514
16516SOL    HW154678   9.982   1.730   1.195 -2.0326  1.1474 -0.4490
16516SOL    HW254679  10.089   1.832   1.229 -0.5098 -0.7124  0.4583
16517SOL     OW54680   5.105   5.750   0.630 -0.2970 -0.0699 -0.1042
16517SOL    HW154681   5.091   5.842   0.605  0.5288 -0.2213 -1.1813
16517SOL    HW254682   5.130   5.707   0.548  1.5106 -0.7847  0.8027
16518SOL     OW54683   9.285   9.322   5.520 -0.1749 -0.4728 -0.2638
16518SOL    HW154684   9.316   9.399   5.472  1.2275 -0.4455  0.6809
16518SOL    HW254685   9.189   9.330   5.518 -0.1132 -0.0208 -2.2977
16519SOL     OW54686   9.869   3.191   9.275 -0.1617 -0.1468 -0.3173
16519SOL    HW154687   9.876   3.248   9.352 -2.6413 -0.1441 -0.0463
16519SOL    HW254688   9.918   3.112   9.299  0.7103  0.6223  0.5048
16520SOL     OW54689   4.124   3.801   0.837  0.2962  0.2395  0.3275
16520SOL    HW154690   4.172   3.882   0.852 -0.4758  0.8053 -0.1801
16520SOL    HW254691   4.102   3.804   0.743 -0.8002  0.0426  0.5686
16521SOL     OW54692   7.416  10.680   3.293  0.3497  0.3103 -0.1383
16521SOL    HW154693   7.450  10.591   3.284 -2.1698 -0.7115 -0.0092
16521SOL    HW254694   7.422  10.718   3.205  0.3371 -0.4060 -0.4453
16522SOL     OW54695   1.739   7.058  10.263 -0.3141 -0.2610  0.6376
16522SOL    HW154696   1.703   7.014  10.186  1.9928 -1.4156  0.1870
16522SOL    HW254697   1.730   7.151  10.244 -4.1292 -0.4585  1.0701
16523SOL     OW54698  11.192   0.708  10.090  0.6147  0.2715 -0.4796
16523SOL    HW154699  11.130   0.746  10.028  1.8932  1.5664 -1.0028
16523SOL    HW254700  11.253   0.779  10.109  1.2206 -0.6151  0.9771
16524SOL     OW54701   0.094   2.853   8.296 -0.2941  0.7630 -0.3948
16524SOL    HW154702   0.143   2.836   8.215  0.7370 -0.3928  0.4632
16524SOL    HW254703   0.153   2.905   8.349 -0.5435  0.5675  0.0734
16525SOL     OW54704   1.837   4.210   6.581 -0.1217  0.0337 -0.3644
16525SOL    HW154705   1.765   4.202   6.645 -0.9322 -0.8753 -1.3683
16525SOL    HW254706   1.891   4.132   6.597  0.5280  0.5977  0.2314
16526SOL     OW54707   4.464   9.268   1.663 -0.1898  0.5096  0.3081
16526SOL    HW154708   4.496   9.235   1.747 -2.4226 -0.1225  0.9651
16526SOL    HW254709   4.369   9.271   1.674 -0.4721  0.9648 -2.0129
16527SOL     OW54710   6.739   4.431   9.261  0.1750  0.4856  0.3852
16527SOL    HW154711   6.800   4.385   9.317 -0.6545  1.6436  2.2877
16527SOL    HW254712   6.653   4.397   9.285 -0.1851  0.9237 -0.2481
16528SOL     OW54713   1.015   8.501   3.663 -0.0011 -0.0312  0.2739
16528SOL    HW154714   0.922   8.504   3.642 -0.1897  0.0105  1.0960
16528SOL    HW254715   1.042   8.593   3.668 -0.0790 -0.0333  0.7389
16529SOL     OW54716   6.222  10.771   2.390  0.0067 -0.2999  0.5021
16529SOL    HW154717   6.307  10.748   2.427  0.3271  0.3178  0.1613
16529SOL    HW254718   6.163  10.701   2.418  1.1626 -2.0687 -1.2978
16530SOL     OW54719   8.621  10.468   8.247  0.3338 -0.3688 -0.5332
16530SOL    HW154720   8.552  10.472   8.314 -0.4980  0.8805 -1.4396
16530SOL    HW254721   8.583  10.416   8.177  0.0877  0.7893 -1.2727
16531SOL     OW54722   6.264   2.062   7.482  1.0933 -0.1627 -0.2491
16531SOL    HW154723   6.262   2.158   7.474  1.7092 -0.0473  0.8667
16531SOL    HW254724   6.266   2.047   7.577 -1.0150 -1.3272 -0.3615
16532SOL     OW54725   3.795   6.488  10.495 -0.4863  0.0306 -0.7319
16532SOL    HW154726   3.836   6.494  10.409  1.7097 -2.6349  0.0838
16532SOL    HW254727   3.766   6.397  10.503 -0.6987  0.2468  1.3356
16533SOL     OW54728   4.827   1.276   2.042 -0.3675 -0.4067 -0.7519
16533SOL    HW154729   4.844   1.186   2.016 -0.4289 -0.4771 -0.5460
16533SOL    HW254730   4.748   1.272   2.095  1.5647 -0.7453  2.2775
16534SOL     OW54731   1.360   8.182   7.748 -0.7002  0.3323  0.2153
16534SOL    HW154732   1.376   8.268   7.711 -0.5632 -0.1168 -0.7897
16534SOL    HW254733   1.365   8.195   7.843  0.6375  1.1800  0.0459
16535SOL     OW54734   8.640   7.178   7.554 -0.3471  0.3015  0.2969
16535SOL    HW154735   8.700   7.239   7.597 -0.0730  1.0006 -1.0595
16535SOL    HW254736   8.562   7.231   7.535  0.5561  0.7112 -2.4482
16536SOL     OW54737   4.623   8.452  10.176  0.0528  0.2436 -0.4790
16536SOL    HW154738   4.707   8.469  10.133 -0.0623 -0.4349 -0.9929
16536SOL    HW254739   4.595   8.537  10.209  1.0714  0.4367 -0.0716
16537SOL     OW54740   8.360   5.932   5.204 -0.3291 -0.2332  0.6111
16537SOL    HW154741   8.321   5.845   5.198  1.0559 -0.9638  1.9613
16537SOL    HW254742   8.442   5.919   5.251  0.0432  1.7618  0.5713
16538SOL     OW54743  10.520   5.937   2.801 -0.5916  0.4110  0.7874
16538SOL    HW154744  10.445   5.992   2.823 -1.0455  0.0307  0.2149
16538SOL    HW254745  10.521   5.869   2.868 -1.2012 -0.0037  0.3823
16539SOL     OW54746   2.143   9.145   8.325  0.5411 -0.6543 -0.2579
16539SOL    HW154747   2.119   9.178   8.412  1.1764 -1.8359  0.3774
16539SOL    HW254748   2.102   9.206   8.264  0.9294  0.7764  0.8833
16540SOL     OW54749   2.124   4.151   3.232  0.2853  0.1049 -0.0499
16540SOL    HW154750   2.032   4.127   3.219 -0.0361  1.6689 -0.9004
16540SOL    HW254751   2.136   4.150   3.327 -0.5861 -0.2379  0.0608
16541SOL     OW54752   9.118   5.127   6.356 -1.1870 -0.0185 -0.8040
16541SOL    HW154753   9.198   5.101   6.311 -0.2478 -0.0491  0.8675
16541SOL    HW254754   9.081   5.196   6.300  1.1430  1.5438 -0.4814
16542SOL     OW54755   8.191  11.213   8.461  0.3415 -0.1810  0.3901
16542SOL    HW154756   8.167  11.302   8.433 -0.0732  0.0021  1.3137
16542SOL    HW254757   8.161  11.157   8.390 -2.5723  0.0681  1.3680
16543SOL     OW54758   3.339   6.087   9.635 -0.5210 -0.1763 -0.3759
16543SOL    HW154759   3.368   5.997   9.647 -1.5085 -0.3603  0.7422
16543SOL    HW254760   3.286   6.084   9.555  0.6423 -0.2844 -1.1485
16544SOL     OW54761   2.093   0.428  10.196  0.5271  0.0852 -0.8957
16544SOL    HW154762   2.110   0.522  10.189  1.1380  0.0249 -0.2920
16544SOL    HW254763   2.029   0.420  10.267  2.2727 -0.1310  0.6982
16545SOL     OW54764   3.404   8.966   0.414 -0.1417  0.1069  0.2812
16545SOL    HW154765   3.373   8.875   0.408 -0.7242  0.3509 -0.6628
16545SOL    HW254766   3.342   9.015   0.360  1.4355  0.7489 -0.9790
16546SOL     OW54767   2.387   2.849   4.119 -0.3489  0.4119  0.2874
16546SOL    HW154768   2.343   2.812   4.043 -0.9524  0.0422  0.8204
16546SOL    HW254769   2.466   2.795   4.130 -1.0163 -0.4614  0.8146
16547SOL     OW54770   0.221   9.577   8.693 -0.1834 -0.0552 -0.4368
16547SOL    HW154771   0.245   9.491   8.727 -0.3918 -0.3822 -1.1121
16547SOL    HW254772   0.304   9.618   8.672 -0.0130  0.3884  1.0182
16548SOL     OW54773   1.895   4.151  10.462  0.5140 -0.3583  0.5871
16548SOL    HW154774   1.978   4.159  10.509  1.4898 -0.9375 -0.9760
16548SOL    HW254775   1.887   4.058  10.444 -0.9783 -0.4291  1.5888
16549SOL     OW54776   4.774   2.764  11.254 -0.0820  0.3958  0.5159
16549SOL    HW154777   4.821   2.846  11.274 -0.7915  0.5770  1.4658
16549SOL    HW254778   4.842   2.705  11.223  0.7538  0.7228  1.6873
16550SOL     OW54779   2.355   7.570  11.192  0.0240 -0.2231 -0.0526
16550SOL    HW154780   2.322   7.480  11.193  1.5918 -0.8401 -1.2410
16550SOL    HW254781   2.420   7.571  11.122 -1.1916  2.2897 -1.2165
16551SOL     OW54782   9.011   2.574   3.563  0.3594  0.3618  0.1082
16551SOL    HW154783   8.991   2.535   3.477  0.2685 -0.0404  0.3082
16551SOL    HW254784   9.101   2.546   3.581 -0.0214 -0.5332  0.6697
16552SOL     OW54785   5.630   8.214   0.401  0.6196  0.2102 -0.2254
16552SOL    HW154786   5.695   8.191   0.335  0.6810 -0.3481  0.0267
16552SOL    HW254787   5.677   8.207   0.484 -0.0190 -1.1154  0.0259
16553SOL     OW54788   0.717   2.507   2.140  0.3250 -0.2427  0.0497
16553SOL    HW154789   0.721   2.548   2.054  3.1580  0.3729  0.4223
16553SOL    HW254790   0.733   2.579   2.201 -1.2794 -0.7436  1.0990
16554SOL     OW54791   6.442   2.779   9.799 -0.1055  0.0283 -0.4729
16554SOL    HW154792   6.445   2.688   9.827  1.8213  0.4105  0.7057
16554SOL    HW254793   6.518   2.789   9.741 -0.1281  0.9432 -0.3536
16555SOL     OW54794   4.876   3.365   7.910  0.0079 -0.2250 -0.5578
16555SOL    HW154795   4.890   3.351   7.816  0.1745 -0.4869 -0.4950
16555SOL    HW254796   4.821   3.291   7.937 -2.5548  1.4520 -1.0574
16556SOL     OW54797   1.384   6.758   7.658  0.1666 -0.6746  0.3310
16556SOL    HW154798   1.388   6.671   7.698 -0.7338 -0.6204  0.5420
16556SOL    HW254799   1.354   6.742   7.569  1.6572 -0.7403 -0.1845
16557SOL     OW54800   4.741   2.538   2.352 -0.1160 -0.0157  0.6941
16557SOL    HW154801   4.834   2.522   2.364 -0.2478 -0.2228  1.4752
16557SOL    HW254802   4.702   2.450   2.354 -0.4586  0.1467  1.6076
16558SOL     OW54803   7.295   8.953   0.624  0.3180 -0.0306 -0.1591
16558SOL    HW154804   7.250   8.966   0.540  1.0064  1.2273 -0.3474
16558SOL    HW254805   7.232   8.983   0.690 -0.2283 -1.0286 -0.2155
16559SOL     OW54806   3.036   1.209  10.171  0.4972 -0.2192  0.3404
16559SOL    HW154807   3.045   1.179  10.081 -0.7092 -0.2731  0.2301
16559SOL    HW254808   2.983   1.288  10.166 -0.7124 -0.9580  1.1128
16560SOL     OW54809   4.005  11.243   0.493  0.0630 -0.0841 -0.3981
16560SOL    HW154810   3.996  11.270   0.585  0.0414 -1.2363 -0.0491
16560SOL    HW254811   3.924  11.273   0.451 -0.0225  0.2596  0.0082
16561SOL     OW54812   0.808  11.257   5.767  0.6333  0.2968  0.5469
16561SOL    HW154813   0.747  11.306   5.821  0.7603 -0.7447  1.6501
16561SOL    HW254814   0.851  11.196   5.827  2.6070  0.8624 -0.2469
16562SOL     OW54815   4.337   1.878   5.413  0.2732 -0.2035  0.5091
16562SOL    HW154816   4.368   1.862   5.324 -0.5260 -1.6116  0.4640
16562SOL    HW254817   4.331   1.791   5.452  0.1390  0.3634  1.7859
16563SOL     OW54818   2.845  10.627   2.091  0.2316  0.6122  0.0746
16563SOL    HW154819   2.862  10.569   2.016  1.8181  0.7276  0.3205
16563SOL    HW254820   2.851  10.569   2.167 -3.0806  0.1497  0.0572
16564SOL     OW54821   7.877   3.947   4.127  0.1696 -0.2507 -0.6211
16564SOL    HW154822   7.885   3.856   4.100  0.4391  0.3922 -2.8228
16564SOL    HW254823   7.942   3.994   4.074  1.2100  0.9974  1.6778
16565SOL     OW54824   7.615   1.194   8.489 -0.5066  0.6169 -0.1186
16565SOL    HW154825   7.576   1.276   8.520  1.3774  1.5509 -0.1201
16565SOL    HW254826   7.643   1.213   8.399  0.4817  0.1628  0.0873
16566SOL     OW54827   0.569   3.195   7.735  0.0798  0.2400 -1.1667
16566SOL    HW154828   0.563   3.288   7.714 -0.1744  0.3244 -0.7233
16566SOL    HW254829   0.481   3.161   7.718 -0.0977  0.2868 -0.3566
16567SOL     OW54830  10.965   0.126   5.382  0.2108 -0.6581 -0.6791
16567SOL    HW154831  10.905   0.056   5.359  1.2587 -1.4187 -1.1082
16567SOL    HW254832  10.986   0.169   5.299 -0.7525  0.4375 -0.3689
16568SOL     OW54833   4.372   1.576   6.135  0.5320  0.2465  0.4558
16568SOL    HW154834   4.346   1.659   6.095 -0.2460 -0.6322 -0.8778
16568SOL    HW254835   4.290   1.537   6.165  0.8718 -0.1518  0.8710
16569SOL     OW54836  10.159   8.702   8.218  0.2739 -0.4892  0.2720
16569SOL    HW154837  10.066   8.722   8.215  0.5539  0.6243 -1.5971
16569SOL    HW254838  10.202   8.785   8.238  1.0261 -0.3743 -1.6412
16570SOL     OW54839   7.296   1.238   0.175 -0.4882 -0.9368 -0.3157
16570SOL    HW154840   7.377   1.288   0.163 -0.5891 -0.1346  2.0855
16570SOL    HW254841   7.286   1.189   0.093  1.0759  0.8670 -1.6325
16571SOL     OW54842   7.097   0.974   5.588  0.4780  0.3857 -0.1943
16571SOL    HW154843   7.106   0.881   5.567 -0.2437 -0.0326  1.2983
16571SOL    HW254844   7.068   1.014   5.506  0.6884 -0.7187 -0.8185
16572SOL     OW54845  10.105   7.008   0.951  0.0001  0.0761 -0.7556
16572SOL    HW154846  10.136   6.952   1.022  0.0656  1.5199  0.3662
16572SOL    HW254847  10.182   7.019   0.894  0.5387  0.6214  0.0634
16573SOL     OW54848   9.042   6.937   4.873  0.0642 -0.1923 -0.0878
16573SOL    HW154849   9.079   6.873   4.934 -0.8200 -1.2864 -0.6919
16573SOL    HW254850   9.001   7.003   4.930  0.3752 -0.5259  0.5247
16574SOL     OW54851   4.650   5.075  10.149 -0.1217 -0.1192 -0.7869
16574SOL    HW154852   4.713   5.004  10.136  1.6160  0.6101  2.9755
16574SOL    HW254853   4.567   5.030  10.167  0.8886 -1.2542  1.2345
16575SOL     OW54854   3.830   1.643   7.911  0.3370 -0.5094  0.5548
16575SOL    HW154855   3.831   1.551   7.885  0.2491 -0.0508 -1.1243
16575SOL    HW254856   3.865   1.690   7.835 -0.1953  0.9071  1.1669
16576SOL     OW54857   4.237   5.421   0.879  0.1090 -0.2281  0.0012
16576SOL    HW154858   4.187   5.357   0.930  2.3179 -0.5475  1.8249
16576SOL    HW254859   4.293   5.368   0.822  0.5828  0.1035  0.1575
16577SOL     OW54860   6.409   4.522   4.673  0.3047  0.5917 -0.0482
16577SOL    HW154861   6.387   4.614   4.655 -0.6504  0.0646 -1.6539
16577SOL    HW254862   6.378   4.507   4.762 -1.8226  1.1477 -0.6666
16578SOL     OW54863   2.316   5.714   0.453  0.1268 -0.4329  0.3513
16578SOL    HW154864   2.272   5.748   0.375 -1.5861  0.1995  1.5535
16578SOL    HW254865   2.291   5.774   0.523  1.0281 -1.4095  1.5504
16579SOL     OW54866   5.830   1.895   0.164  0.2194  0.7068  0.0275
16579SOL    HW154867   5.901   1.933   0.113  0.5153  0.4904  0.2748
16579SOL    HW254868   5.750   1.929   0.124  0.3872 -0.9141 -1.7749
16580SOL     OW54869   9.147   7.039  10.432 -0.6827  0.1032 -0.0699
16580SOL    HW154870   9.070   7.080  10.473 -1.3272  0.8012 -1.9449
16580SOL    HW254871   9.121   7.024  10.342  1.2213 -0.1446 -0.5932
16581SOL     OW54872   9.874   0.204   9.002 -0.1972 -0.3855 -0.5188
16581SOL    HW154873   9.817   0.187   8.927 -1.0244  1.7471 -0.4195
16581SOL    HW254874   9.848   0.291   9.032  1.7233 -0.2423  0.8115
16582SOL     OW54875   3.273   4.606   1.101  0.0255  0.2281 -0.0451
16582SOL    HW154876   3.332   4.670   1.141 -0.2830 -0.3625  1.3640
16582SOL    HW254877   3.186   4.630   1.133 -0.0511 -1.0838  0.7426
16583SOL     OW54878   6.415   3.426   3.473 -0.1901  0.3437 -0.1922
16583SOL    HW154879   6.460   3.426   3.389  0.8047  1.2667  0.3234
16583SOL    HW254880   6.424   3.336   3.505 -0.9719 -0.1292 -1.2631
16584SOL     OW54881   8.545   2.620   6.313  0.1719  0.4641  0.9852
16584SOL    HW154882   8.491   2.541   6.308 -0.9544  1.0920  2.7487
16584SOL    HW254883   8.605   2.604   6.385 -0.1486  1.2722  1.4322
16585SOL     OW54884   0.180   5.896   9.190  0.2314  0.3972  0.1198
16585SOL    HW154885   0.089   5.878   9.168 -0.4537  1.1567  2.1524
16585SOL    HW254886   0.189   5.866   9.281  1.9124  0.5981  0.0284
16586SOL     OW54887   7.091   9.615   2.317  0.7010 -0.4945 -0.2854
16586SOL    HW154888   7.032   9.646   2.248  0.1036 -0.0899  0.3989
16586SOL    HW254889   7.178   9.627   2.280  0.5706  3.3758  0.4788
16587SOL     OW54890   0.350   3.795   5.716  0.4353  0.0835 -0.1679
16587SOL    HW154891   0.435   3.752   5.716 -0.1867 -1.1972 -1.4569
16587SOL    HW254892   0.341   3.830   5.628 -1.5740 -2.3053 -0.9756
16588SOL     OW54893  10.118   0.554   7.936  0.9356  0.0651 -0.9382
16588SOL    HW154894  10.199   0.592   7.901  0.8411  0.6601 -0.5195
16588SOL    HW254895  10.132   0.553   8.031 -0.2048  1.6958 -0.7369
16589SOL     OW54896  10.215  10.668   4.291  0.1536  0.1238  0.1262
16589SOL    HW154897  10.287  10.661   4.228  0.4774  3.0533  0.0831
16589SOL    HW254898  10.160  10.738   4.256 -1.8129 -0.9276  1.0518
16590SOL     OW54899   4.253   5.678   0.919 -0.2065 -0.0269 -0.7393
16590SOL    HW154900   4.261   5.585   0.902 -0.9927 -0.3097  0.4348
16590SOL    HW254901   4.299   5.692   1.001 -1.7440  0.2899  0.0746
16591SOL     OW54902   7.583   2.293   0.085 -0.3390 -0.4693 -0.3926
16591SOL    HW154903   7.517   2.350   0.124 -0.7363 -0.6348 -0.8159
16591SOL    HW254904   7.656   2.351   0.062 -0.4191 -0.2588 -0.1070
16592SOL     OW54905   3.933   3.201   7.572  0.2076  0.5124 -0.2477
16592SOL    HW154906   3.983   3.120   7.589 -1.6091 -0.6412 -0.2738
16592SOL    HW254907   3.956   3.224   7.482  0.9558  0.1810 -0.1484
16593SOL     OW54908   1.618   2.061   7.531  0.6180  0.4391 -0.1154
16593SOL    HW154909   1.708   2.086   7.549  0.5013 -0.0011  1.1079
16593SOL    HW254910   1.621   1.968   7.513  0.5222  0.5854 -0.8896
16594SOL     OW54911   6.797   7.407   1.974 -0.0205  0.2531  0.2373
16594SOL    HW154912   6.890   7.428   1.977 -0.0030  0.7186 -2.1489
16594SOL    HW254913   6.752   7.487   2.001  0.2604  0.4386  0.1530
16595SOL     OW54914   1.854   8.339   1.211  0.1801  0.9288  0.0598
16595SOL    HW154915   1.766   8.339   1.173  2.3000 -1.3321 -5.4318
16595SOL    HW254916   1.858   8.258   1.262 -0.3251 -0.1386 -1.5347
16596SOL     OW54917   6.729   7.495   5.943  0.3673 -0.3387 -0.0321
16596SOL    HW154918   6.772   7.452   5.868  1.0209  1.5270 -0.7545
16596SOL    HW254919   6.636   7.492   5.922  0.4099 -1.2961 -0.1232
16597SOL     OW54920   6.659   9.693   5.263 -0.2045  0.2442  0.1643
16597SOL    HW154921   6.591   9.628   5.279  0.3907 -0.8267 -1.4746
16597SOL    HW254922   6.681   9.727   5.350 -0.5282 -1.7427  1.0527
16598SOL     OW54923   0.940   7.899   4.725  0.3205  0.0710 -0.1668
16598SOL    HW154924   0.942   7.974   4.785  0.9993 -1.2062  1.4620
16598SOL    HW254925   0.852   7.901   4.687  0.2043  1.4734  0.1575
16599SOL     OW54926   3.488   5.471   4.224 -0.0536  0.0997 -0.0064
16599SOL    HW154927   3.550   5.409   4.185  0.3224  0.6620 -0.3165
16599SOL    HW254928   3.524   5.490   4.310  0.3138  0.5686 -0.2576
16600SOL     OW54929   6.396   7.627   4.877  0.0847  0.2810  0.0525
16600SOL    HW154930   6.327   7.562   4.867  1.6272 -1.1972 -1.2497
16600SOL    HW254931   6.477   7.579   4.863  1.3842  2.0508  1.2914
16601SOL     OW54932   2.173   1.188   3.823  0.0708 -0.3233  0.1413
16601SOL    HW154933   2.177   1.142   3.907 -1.8835 -0.0165  0.4337
16601SOL    HW254934   2.246   1.250   3.826  0.5089 -0.8762  1.2658
16602SOL     OW54935   9.038  11.220   8.780  0.3559 -0.3744 -0.4146
16602SOL    HW154936   9.012  11.130   8.758  0.1245 -0.1495 -1.0697
16602SOL    HW254937   9.048  11.264   8.696  1.9319 -0.1884 -0.1457
16603SOL     OW54938   5.694   1.219   9.045  0.7010  0.2568  0.0196
16603SOL    HW154939   5.746   1.283   9.094  0.0506  0.4398  0.4753
16603SOL    HW254940   5.642   1.175   9.112  1.0636 -0.6731 -0.3108
16604SOL     OW54941   3.137  11.164   8.881  0.3151  0.0300 -0.3203
16604SOL    HW154942   3.098  11.232   8.935  1.6536 -0.2604  1.0313
16604SOL    HW254943   3.192  11.212   8.818 -0.7806  0.3259 -1.0776
16605SOL     OW54944   4.285   2.284   9.875  0.4459  0.1718 -0.3361
16605SOL    HW154945   4.310   2.193   9.886  0.1255  0.0300 -0.7844
16605SOL    HW254946   4.355   2.322   9.821 -0.5164 -0.3346 -1.9788
16606SOL     OW54947   1.763   6.853  11.070  0.2116  0.2917 -0.5284
16606SOL    HW154948   1.742   6.923  11.008  2.8140  0.5203 -1.2088
16606SOL    HW254949   1.856   6.838  11.058  0.5037 -0.5362  2.4873
16607SOL     OW54950  11.000   6.694   2.510 -0.0030  0.1271  0.1341
16607SOL    HW154951  11.089   6.696   2.545  0.3991 -2.0352 -0.6476
16607SOL    HW254952  11.005   6.633   2.436 -1.9442  0.6634 -0.4620
16608SOL     OW54953   6.056  11.194   3.568 -0.2302 -0.3352  0.1284
16608SOL    HW154954   6.108  11.132   3.517 -0.0736 -0.9168  0.9855
16608SOL    HW254955   5.967  11.159   3.566 -0.2018 -0.4191  0.3587
16609SOL     OW54956   5.316   2.148   0.501  0.1028  0.4745  0.0147
16609SOL    HW154957   5.373   2.071   0.505  0.5817  0.7435 -1.4725
16609SOL    HW254958   5.309   2.169   0.408 -0.5189  1.8692  0.3530
16610SOL     OW54959   2.869   3.703   1.100 -0.1275  0.4407  0.2646
16610SOL    HW154960   2.871   3.798   1.108 -1.3957  0.5300 -0.2700
16610SOL    HW254961   2.803   3.686   1.032  2.4588 -0.7019 -2.0598
16611SOL     OW54962   2.458   1.863   7.248  0.1619  0.4528  0.0123
16611SOL    HW154963   2.527   1.902   7.302 -0.0927  0.0779  0.6256
16611SOL    HW254964   2.385   1.851   7.309 -0.5915  1.2322 -0.7296
16612SOL     OW54965   2.160   8.339  10.378 -0.1563  0.5200  0.5692
16612SOL    HW154966   2.080   8.292  10.399 -0.9037  1.1686 -0.7679
16612SOL    HW254967   2.189   8.377  10.461 -2.2465  1.8347  0.7262
16613SOL     OW54968   7.799  10.490   7.051 -0.2911  0.0079  0.2015
16613SOL    HW154969   7.733  10.508   6.985  0.8390 -0.1652 -0.9955
16613SOL    HW254970   7.777  10.402   7.083  0.7154 -1.0312 -1.8696
16614SOL     OW54971  10.370   2.119   1.376 -0.2429  0.1338 -0.5487
16614SOL    HW154972  10.330   2.050   1.323  1.9359 -1.0528 -0.7076
16614SOL    HW254973  10.341   2.200   1.335  0.1943 -0.7341 -2.6558
16615SOL     OW54974   6.270  10.224   2.481 -0.3991  0.2414  0.4332
16615SOL    HW154975   6.310  10.138   2.483  0.6549  0.6987 -0.3104
16615SOL    HW254976   6.301  10.268   2.560  1.3039  0.9101 -0.5934
16616SOL     OW54977   8.120   1.708   4.639  0.3475 -0.4178  0.1315
16616SOL    HW154978   8.164   1.785   4.675  0.1140  0.2927 -1.0650
16616SOL    HW254979   8.191   1.648   4.616  0.8526  1.3925 -3.3313
16617SOL     OW54980   0.505   8.102  10.557  0.1671  0.5106 -0.9559
16617SOL    HW154981   0.507   8.134  10.466  3.6712  2.0261 -0.4119
16617SOL    HW254982   0.583   8.049  10.565  0.4778  1.3014  1.4886
16618SOL     OW54983   0.847   9.603   4.576  0.6507  0.1220 -0.3760
16618SOL    HW154984   0.927   9.552   4.585 -0.0643 -0.7913  1.0967
16618SOL    HW254985   0.865   9.685   4.622  0.9945  0.2088 -0.6709
16619SOL     OW54986   2.333  10.008  10.999  0.6925 -0.5033  0.1118
16619SOL    HW154987   2.291  10.069  11.060 -0.2228 -1.2872  0.2603
16619SOL    HW254988   2.404   9.969  11.051  0.7976 -0.1446  0.2457
16620SOL     OW54989   9.654   4.327   3.659 -0.3322  0.2749 -0.1817
16620SOL    HW154990   9.621   4.341   3.570 -1.8338 -0.7003  0.2072
16620SOL    HW254991   9.737   4.281   3.647  0.1345  1.3508 -1.1239
16621SOL     OW54992   0.125   7.025   1.627  0.1521 -0.0301  0.0952
16621SOL    HW154993   0.124   7.075   1.709  0.9816 -2.2224  1.4797
16621SOL    HW254994   0.090   7.086   1.562 -0.7211  1.6854  2.1044
16622SOL     OW54995   3.068  11.101   7.130 -0.0645  0.0278  0.2560
16622SOL    HW154996   3.028  11.014   7.120 -0.5018  0.3370 -0.7452
16622SOL    HW254997   3.075  11.114   7.224 -0.9234 -0.6763  0.4159
16623SOL     OW54998   2.904   6.140   2.962 -0.5294  0.0882  0.2359
16623SOL    HW154999   2.985   6.190   2.953  0.9076 -1.4598  3.6728
16623SOL    HW255000   2.890   6.134   3.056 -1.3898 -4.6986 -0.0839
16624SOL     OW55001   1.624   3.922   6.623 -0.0561 -0.1665 -0.0753
16624SOL    HW155002   1.540   3.960   6.598 -0.1347 -0.8248 -0.8335
16624SOL    HW255003   1.647   3.966   6.704 -0.2731  1.2913 -0.8005
16625SOL     OW55004   3.892  10.119   2.309 -0.0576  0.3838 -0.1087
16625SOL    HW155005   3.878  10.063   2.233  0.7579 -0.3702  0.2779
16625SOL    HW255006   3.874  10.207   2.278  0.2004  0.0766 -1.1559
16626SOL     OW55007   6.020   3.995  11.013  0.5241  0.7518 -0.4258
16626SOL    HW155008   6.103   4.019  11.056  0.8757  0.1524 -0.7635
16626SOL    HW255009   6.037   3.909  10.976 -0.0827  0.8657 -0.9676
16627SOL     OW55010   6.189   9.356  11.238 -0.4345 -0.0305 -0.1070
16627SOL    HW155011   6.164   9.312  11.319 -0.9614 -1.4301 -1.0056
16627SOL    HW255012   6.273   9.398  11.258 -1.6509  1.6043  1.8415
16628SOL     OW55013   6.960   5.259   0.605 -0.0744 -0.1870  0.2689
16628SOL    HW155014   6.964   5.344   0.561 -0.4760  0.0979  0.7724
16628SOL    HW255015   6.991   5.277   0.694 -3.2087  0.1192  1.3674
16629SOL     OW55016   0.636   4.688   6.254  0.3414  0.1911  0.3695
16629SOL    HW155017   0.694   4.751   6.211  1.0334 -0.5350  0.2272
16629SOL    HW255018   0.656   4.604   6.211 -2.6290  0.3821 -1.5001
16630SOL     OW55019   0.267   4.927  10.273  0.2302  0.5290 -0.5320
16630SOL    HW155020   0.280   4.999  10.335  0.0870 -2.0784  2.6649
16630SOL    HW255021   0.176   4.937  10.244 -0.3988  0.5934  1.3731
16631SOL     OW55022   2.774   0.996   8.536 -0.4715  0.6857  0.8627
16631SOL    HW155023   2.816   0.926   8.487  0.7646  0.2199  2.5390
16631SOL    HW255024   2.705   1.028   8.479 -0.7857 -1.6308 -0.0753
16632SOL     OW55025   8.808   9.014   9.720 -0.7080 -0.3170  0.3856
16632SOL    HW155026   8.728   9.012   9.667  0.2550  0.5438 -1.1458
16632SOL    HW255027   8.827   9.107   9.730  1.6194 -0.5022 -1.6659
16633SOL     OW55028   6.432   9.135   4.706  0.1686 -0.0586 -0.8235
16633SOL    HW155029   6.441   9.230   4.711  0.0917 -0.0692 -0.4062
16633SOL    HW255030   6.513   9.105   4.665  0.5191  0.1266 -0.2791
16634SOL     OW55031   1.039   1.095   9.522 -0.6912 -0.0130 -0.1513
16634SOL    HW155032   0.971   1.088   9.590 -1.0232 -0.7805 -0.5579
16634SOL    HW255033   0.992   1.124   9.444 -0.2439  1.2511  0.0362
16635SOL     OW55034   6.655   1.189   7.543  0.0706 -0.3727  0.2322
16635SOL    HW155035   6.642   1.098   7.569  0.1960 -0.5488 -0.3185
16635SOL    HW255036   6.675   1.185   7.449  0.5424  0.1767  0.3015
16636SOL     OW55037   1.374   2.081   7.652  0.3199  0.3649  0.0904
16636SOL    HW155038   1.350   1.991   7.628  1.1614 -0.1430  1.1267
16636SOL    HW255039   1.453   2.099   7.601  0.8280  0.0855  0.7698
16637SOL     OW55040   1.203   0.400  10.293  0.4775 -0.2402  0.9410
16637SOL    HW155041   1.259   0.418  10.368  0.2601 -1.0779  1.3077
16637SOL    HW255042   1.182   0.486  10.257  0.4500  0.1641  1.9313
16638SOL     OW55043   0.004   2.661   8.768 -0.3122 -0.1494  0.1475
16638SOL    HW155044   0.004   2.730   8.702 -1.6771 -0.2590  0.0217
16638SOL    HW255045  -0.062   2.599   8.738 -0.5656 -0.4677  1.3317
16639SOL     OW55046   0.385   3.898   6.069  0.5246 -0.1795  0.0286
16639SOL    HW155047   0.338   3.893   6.152 -2.5916  1.1736 -1.5693
16639SOL    HW255048   0.382   3.809   6.035 -0.5514 -0.2072  0.1598
16640SOL     OW55049   8.784   5.725   0.506 -0.5192 -0.1092  0.2112
16640SOL    HW155050   8.867   5.759   0.538  1.2706 -2.8563 -1.2304
16640SOL    HW255051   8.750   5.794   0.448  0.7173  1.0741  0.8730
16641SOL     OW55052   5.586   0.556   8.058  0.2169  0.2001  0.2299
16641SOL    HW155053   5.537   0.513   7.988  1.7081  0.8671 -1.2587
16641SOL    HW255054   5.536   0.635   8.078 -0.5545 -0.3204  0.3669
16642SOL     OW55055  11.320   0.676   0.377  0.0868 -0.0954  0.4674
16642SOL    HW155056  11.375   0.701   0.451  0.6372 -3.0069  1.0766
16642SOL    HW255057  11.236   0.718   0.394  0.6277  0.3686  2.0335
16643SOL     OW55058   4.252   6.562   9.445  0.3079 -0.2022 -0.5902
16643SOL    HW155059   4.171   6.523   9.412 -0.6170  0.2972  1.0678
16643SOL    HW255060   4.259   6.646   9.399 -1.6826  1.1058  1.4147
16644SOL     OW55061   3.345   0.048   6.288  0.3040  0.3072 -0.1945
16644SOL    HW155062   3.283   0.121   6.297 -0.0673  0.0660 -0.7833
16644SOL    HW255063   3.421   0.087   6.245  0.1654  0.3801 -0.3736
16645SOL     OW55064   3.239   1.168   3.970  0.0485  0.4530  0.0570
16645SOL    HW155065   3.151   1.202   3.951  0.6490  1.3129 -1.2474
16645SOL    HW255066   3.260   1.203   4.056 -1.3294 -0.6416  0.8451
16646SOL     OW55067   0.946   8.879  10.938 -1.1029 -0.1051  0.1730
16646SOL    HW155068   0.926   8.785  10.940 -0.9270 -0.1467  0.0008
16646SOL    HW255069   1.041   8.883  10.928 -1.2529  0.0868 -1.2472
16647SOL     OW55070   5.154   7.498   0.120 -0.2882  0.5070  0.6234
16647SOL    HW155071   5.138   7.404   0.132  2.8013  0.0319  1.3326
16647SOL    HW255072   5.072   7.540   0.147 -1.8342 -1.9663 -0.0166
16648SOL     OW55073   1.942   5.579   8.159 -0.5535  0.3349  0.2669
16648SOL    HW155074   1.887   5.643   8.113 -0.2872  0.1886 -0.2576
16648SOL    HW255075   2.029   5.618   8.159 -0.4205  0.0343  0.0756
16649SOL     OW55076  11.180   0.200   4.174 -0.2196 -0.1217 -0.4542
16649SOL    HW155077  11.266   0.168   4.200 -0.1625  1.2066  1.0504
16649SOL    HW255078  11.196   0.289   4.142 -0.7723 -0.5417 -1.9570
16650SOL     OW55079   8.829   4.471  10.559  0.1708 -0.3303  0.1525
16650SOL    HW155080   8.909   4.420  10.567  2.0161  1.7135 -4.0152
16650SOL    HW255081   8.852   4.558  10.592 -0.3664  0.1991 -0.8324
16651SOL     OW55082   4.379   1.796   1.489 -0.2123  0.1762  0.0807
16651SOL    HW155083   4.342   1.864   1.433 -0.4545  0.1499  0.2080
16651SOL    HW255084   4.465   1.829   1.514 -0.8627  1.0206  1.2046
16652SOL     OW55085  10.903   6.969   3.111  0.0228  0.0721 -0.1093
16652SOL    HW155086  10.907   7.032   3.039 -0.9486  0.5616  0.2581
16652SOL    HW255087  10.908   6.883   3.068  1.1610  0.3913 -0.6234
16653SOL     OW55088   8.224  10.925   2.075  0.3045 -0.4013  0.1345
16653SOL    HW155089   8.259  10.931   1.986  1.1922 -0.2677  0.4878
16653SOL    HW255090   8.157  10.858   2.069 -0.6750  0.6394 -0.9663
16654SOL     OW55091  10.923   7.922   2.863 -0.0699  0.0382  0.2864
16654SOL    HW155092  10.891   7.998   2.814  0.9154 -0.0396 -0.4970
16654SOL    HW255093  11.000   7.954   2.909  1.0519 -0.7867 -0.9950
16655SOL     OW55094   8.602   8.743  11.182 -0.3935 -0.7821  0.3756
16655SOL    HW155095   8.580   8.767  11.272 -0.7037 -0.2825  0.1714
16655SOL    HW255096   8.567   8.655  11.171 -1.6686 -0.2800  0.2913
16656SOL     OW55097   7.072   1.843   7.945 -0.2722  0.2992  0.1915
16656SOL    HW155098   7.121   1.786   7.885  0.1899  0.3770  0.4909
16656SOL    HW255099   7.041   1.784   8.014  0.4667  0.4544  0.6655
16657SOL     OW55100   6.641   9.407   0.952  0.7630 -0.4655  0.1190
16657SOL    HW155101   6.704   9.423   1.022  0.2660 -2.3617  1.0213
16657SOL    HW255102   6.558   9.436   0.988  0.5814 -1.0191  0.1416
16658SOL     OW55103  10.436   1.410   8.864 -0.1671 -0.3405  0.2726
16658SOL    HW155104  10.428   1.497   8.825 -1.3405 -0.7062 -0.3358
16658SOL    HW255105  10.375   1.411   8.938 -0.0003 -0.5555  0.4134
16659SOL     OW55106   7.571  11.269   1.144 -0.2711 -0.3477 -0.5462
16659SOL    HW155107   7.549  11.344   1.199  1.4753  0.0846 -0.4195
16659SOL    HW255108   7.494  11.257   1.088 -0.8520  1.0743 -0.0746
16660SOL     OW55109   1.299   4.781   7.063  0.1418  0.4917 -0.1952
16660SOL    HW155110   1.385   4.789   7.102  0.1512  1.8499 -0.4526
16660SOL    HW255111   1.249   4.854   7.099 -0.7843 -0.0686 -0.3231
16661SOL     OW55112   4.846   3.694   4.910  0.4918  0.0279  0.0238
16661SOL    HW155113   4.774   3.714   4.969  0.8405 -4.3815  2.1638
16661SOL    HW255114   4.804   3.687   4.824 -1.1074  0.4150  0.7464
16662SOL     OW55115   4.197  10.717   2.299 -0.1221  0.3056 -0.1978
16662SOL    HW155116   4.113  10.684   2.329 -0.3490  0.3766 -0.7497
16662SOL    HW255117   4.261  10.677   2.358 -0.2505 -2.2399 -1.7121
16663SOL     OW55118   1.851   3.151   3.711  0.1627  0.6959  0.1038
16663SOL    HW155119   1.919   3.202   3.755  1.6393 -0.4136 -0.8499
16663SOL    HW255120   1.860   3.063   3.746 -0.8998  0.5722  0.0859
16664SOL     OW55121   2.784   8.105   3.902 -0.1524  0.3759 -0.5365
16664SOL    HW155122   2.693   8.123   3.923  0.1844  1.7878 -0.2698
16664SOL    HW255123   2.794   8.133   3.811  0.3375  1.4353 -0.1617
16665SOL     OW55124   2.746   6.909   8.100  0.1419  0.1216 -0.0547
16665SOL    HW155125   2.743   6.951   8.186  1.3605 -0.5766  0.3458
16665SOL    HW255126   2.669   6.942   8.054 -1.3574 -0.6483  1.8196
16666SOL     OW55127   8.468   9.179   7.838  0.2471 -0.0358 -0.8755
16666SOL    HW155128   8.433   9.109   7.893 -1.6842  2.2102  0.8396
16666SOL    HW255129   8.535   9.221   7.893 -1.8043  2.3191 -0.0888
16667SOL     OW55130   8.930   0.942   3.078  0.2365  0.0675 -0.4702
16667SOL    HW155131   8.874   0.898   3.142  3.5563 -1.6834  1.3086
16667SOL    HW255132   8.905   0.903   2.994  0.1771 -2.1562  0.5483
16668SOL     OW55133  11.092   8.090   9.926  0.0138 -0.7719  0.2494
16668SOL    HW155134  11.129   8.067  10.011  1.3882  0.2286 -0.0532
16668SOL    HW255135  11.160   8.066   9.863 -0.9104 -1.3087 -0.5595
16669SOL     OW55136   6.841   7.241   3.203  0.1672 -0.1371 -0.2887
16669SOL    HW155137   6.917   7.191   3.231 -0.3224 -1.7511 -1.7527
16669SOL    HW255138   6.872   7.292   3.128  0.4319  1.0598  0.6356
16670SOL     OW55139   7.211   1.453  10.746  0.1825  0.4729  0.1910
16670SOL    HW155140   7.251   1.414  10.668 -1.7822 -1.1276 -0.0359
16670SOL    HW255141   7.124   1.481  10.718 -0.7905 -0.6997  1.9581
16671SOL     OW55142   7.637   4.379   8.403  0.3423 -0.0055 -0.4668
16671SOL    HW155143   7.632   4.337   8.318  0.8393 -0.3850 -0.3082
16671SOL    HW255144   7.604   4.313   8.464 -0.6258  0.4913 -0.4371
16672SOL     OW55145   3.654   2.989   6.445  0.0100 -0.3137  0.0123
16672SOL    HW155146   3.643   3.041   6.365  0.8971 -0.3066 -0.1130
16672SOL    HW255147   3.565   2.975   6.477 -0.2697  0.8703 -0.2231
16673SOL     OW55148   2.987   5.337   9.582  0.3354  0.2694 -0.2483
16673SOL    HW155149   3.024   5.256   9.546 -0.4618 -0.2341  0.0495
16673SOL    HW255150   2.897   5.314   9.605 -0.1077  1.4205 -0.7745
16674SOL     OW55151   6.810   5.043   1.396  0.0400 -0.6479 -0.4040
16674SOL    HW155152   6.772   4.971   1.447 -0.3171 -1.4970 -1.8620
16674SOL    HW255153   6.901   5.049   1.428 -0.3631 -0.7262  0.7979
16675SOL     OW55154   2.725  11.330   4.102 -0.2947 -0.4993  0.4747
16675SOL    HW155155   2.790  11.283   4.154  1.2541 -0.8572 -1.7162
16675SOL    HW255156   2.682  11.388   4.165  2.3833 -0.0020  1.9296
16676SOL     OW55157  10.914   4.177   2.800 -0.1242  0.1660 -0.0161
16676SOL    HW155158  10.923   4.272   2.791 -1.3057  0.5003  1.9308
16676SOL    HW255159  10.823   4.164   2.830 -1.0515 -1.8328 -3.4137
16677SOL     OW55160   6.642   0.939   5.287 -0.2712 -0.5249  0.0764
16677SOL    HW155161   6.621   0.904   5.201 -0.1056  0.7633 -0.4970
16677SOL    HW255162   6.728   0.980   5.276 -1.0363  1.2265  0.3750
16678SOL     OW55163   0.316   2.236   6.219  0.3542  0.0735  0.4130
16678SOL    HW155164   0.326   2.327   6.246 -0.3559 -0.3285  2.0697
16678SOL    HW255165   0.402   2.197   6.232  0.4330  0.2950  0.5486
16679SOL     OW55166  10.154   3.383   5.590  0.1990 -0.2307  0.0568
16679SOL    HW155167  10.120   3.372   5.502  0.9458  1.8659 -0.5339
16679SOL    HW255168  10.214   3.310   5.603  0.8315 -0.0233 -1.5583
16680SOL     OW55169  10.265   5.658   5.520  0.4373 -0.2682  0.4160
16680SOL    HW155170  10.360   5.664   5.528  0.5066  1.8905 -1.6052
16680SOL    HW255171  10.232   5.744   5.545 -0.6247  0.4612 -3.1891
16681SOL     OW55172   5.218   6.448   3.518 -0.3530  0.1818 -0.1740
16681SOL    HW155173   5.226   6.382   3.586 -0.9075 -0.0382 -0.3176
16681SOL    HW255174   5.217   6.532   3.565  0.5361  0.1020 -0.0079
16682SOL     OW55175   1.618   3.709   7.283 -0.2517 -0.3466  0.7135
16682SOL    HW155176   1.610   3.798   7.250  0.4570  0.1161  1.7680
16682SOL    HW255177   1.663   3.718   7.367  1.3154 -1.8296  0.0674
16683SOL     OW55178   8.604   8.493   8.484  0.1060  0.0021 -0.4042
16683SOL    HW155179   8.549   8.443   8.423  1.6735  1.1485 -2.8089
16683SOL    HW255180   8.688   8.448   8.483  0.0417 -0.1791  1.2176
16684SOL     OW55181   6.901   1.298   8.885 -0.0830 -0.4465 -0.1008
16684SOL    HW155182   6.887   1.228   8.949 -1.3424  2.2535  2.6660
16684SOL    HW255183   6.813   1.322   8.856  0.4686 -1.6166 -2.9233
16685SOL     OW55184   5.833  10.270   2.021  0.2617 -0.0405  0.0446
16685SOL    HW155185   5.817  10.347   1.966 -0.4781  0.5442  1.0601
16685SOL    HW255186   5.787  10.199   1.978  2.3348 -0.3008 -1.8174
16686SOL     OW55187  10.344   3.967   6.931  0.4601 -0.9910  0.5553
16686SOL    HW155188  10.434   3.936   6.921  0.3774 -0.8726 -0.7045
16686SOL    HW255189  10.308   3.964   6.842 -0.3251  0.3357  0.8127
16687SOL     OW55190   6.257   3.757   5.053 -0.4845  0.5044  0.1753
16687SOL    HW155191   6.208   3.708   5.119  0.6209  1.1029  1.4510
16687SOL    HW255192   6.223   3.846   5.060 -0.3844  0.5640 -0.0997
16688SOL     OW55193   3.647   7.778   8.252 -0.0969  0.0156  0.1373
16688SOL    HW155194   3.699   7.857   8.267  1.3471 -0.8827  0.0096
16688SOL    HW255195   3.584   7.777   8.324  0.7715  0.5716  0.9232
16689SOL     OW55196   0.716   9.290   6.907 -0.1403  0.6411  0.5285
16689SOL    HW155197   0.651   9.342   6.860 -0.2597  1.2118  1.3052
16689SOL    HW255198   0.664   9.227   6.957 -0.0432  0.4176  0.3490
16690SOL     OW55199   9.187   7.068   9.700  0.6016  0.7035  0.0955
16690SOL    HW155200   9.094   7.044   9.692  0.6565  0.4230  0.2923
16690SOL    HW255201   9.186   7.163   9.714  0.2385  0.4452  1.9645
16691SOL     OW55202   9.227   4.268   9.918 -0.3706  0.2460 -0.2275
16691SOL    HW155203   9.279   4.279   9.998 -0.8589 -0.1958  0.1586
16691SOL    HW255204   9.144   4.232   9.949  0.2546 -2.1134 -1.1555
16692SOL     OW55205   9.188   1.709   4.099 -0.1654 -0.0146  0.2462
16692SOL    HW155206   9.228   1.770   4.037  0.6980 -0.4884  0.3418
16692SOL    HW255207   9.223   1.623   4.075 -0.5637 -0.3315  0.7896
16693SOL     OW55208   2.391   6.970   8.569 -0.2423 -0.6209  0.1452
16693SOL    HW155209   2.404   6.982   8.475  0.2447  1.0099  0.4062
16693SOL    HW255210   2.478   6.955   8.604 -0.4235 -1.2249  0.3350
16694SOL     OW55211   6.556  10.045   7.738 -0.4225  0.4791  0.5898
16694SOL    HW155212   6.618  10.114   7.761 -1.1452  1.0722  0.8066
16694SOL    HW255213   6.573  10.026   7.646 -0.3178  1.0621  0.4874
16695SOL     OW55214   0.273   2.191   9.661 -0.3360  0.3588  0.5765
16695SOL    HW155215   0.217   2.196   9.739  0.7605  0.0691  1.3845
16695SOL    HW255216   0.357   2.226   9.688  0.0778  0.2040 -0.4643
16696SOL     OW55217   4.219  11.185   4.463  0.7219 -0.2891 -0.4184
16696SOL    HW155218   4.276  11.166   4.537 -0.1595 -0.2557  0.2832
16696SOL    HW255219   4.272  11.167   4.385  1.7447 -0.0623  0.2183
16697SOL     OW55220   4.041   3.374   1.610  0.1553  0.5659  0.5829
16697SOL    HW155221   4.063   3.435   1.540  1.1412  1.6576  1.8127
16697SOL    HW255222   3.969   3.417   1.657 -0.9694 -0.4766 -0.1427
16698SOL     OW55223   8.455  10.538   8.481  0.2644  0.0817 -0.1621
16698SOL    HW155224   8.518  10.479   8.522 -0.8785 -0.4709  0.8179
16698SOL    HW255225   8.461  10.618   8.532  0.1414  0.0150 -0.0440
16699SOL     OW55226   8.319  10.326   5.968  0.1206 -0.0199 -0.0024
16699SOL    HW155227   8.413  10.311   5.982 -0.0756  0.2281  1.6441
16699SOL    HW255228   8.277  10.256   6.017 -0.5890  0.6160  0.2926
16700SOL     OW55229   0.938   4.701  10.473 -0.3677 -0.7328  0.4522
16700SOL    HW155230   1.032   4.719  10.478 -0.4134 -0.2902 -0.2747
16700SOL    HW255231   0.933   4.609  10.445 -0.1571 -0.0241 -1.9744
16701SOL     OW55232   5.700   7.249   2.342  0.2980 -0.2440  0.3104
16701SOL    HW155233   5.735   7.336   2.361 -0.6155  0.2070 -0.0181
16701SOL    HW255234   5.651   7.225   2.421 -1.6062  0.6627 -0.5512
16702SOL     OW55235   3.363   6.503   3.070 -0.3589 -0.1676  0.8089
16702SOL    HW155236   3.281   6.463   3.101 -1.1960  0.3841 -0.6838
16702SOL    HW255237   3.340   6.593   3.050  0.2630 -0.3865 -0.9949
16703SOL     OW55238   9.385   0.921   5.498 -0.4165 -0.2918 -0.4183
16703SOL    HW155239   9.411   0.981   5.568  3.1606 -2.6084  0.3594
16703SOL    HW255240   9.404   0.969   5.417 -0.6253  0.8113  0.1741
16704SOL     OW55241   5.404   9.212   2.093  0.4745 -1.1327  0.3649
16704SOL    HW155242   5.480   9.269   2.080 -1.0102  1.3474  1.9372
16704SOL    HW255243   5.365   9.204   2.006  0.3869  0.7903  0.2058
16705SOL     OW55244  10.107   7.551   0.455  0.1567  0.3249 -0.3245
16705SOL    HW155245  10.081   7.595   0.374 -3.9785 -1.2789 -0.0343
16705SOL    HW255246  10.151   7.471   0.425 -0.6354  0.1342 -1.0449
16706SOL     OW55247   2.463   2.712   2.647  0.5220 -0.7891 -0.0619
16706SOL    HW155248   2.421   2.784   2.599  1.1420  1.0781  2.0607
16706SOL    HW255249   2.452   2.636   2.591 -1.7004  0.6006 -1.6079
16707SOL     OW55250   5.285   2.771   8.490 -0.7178 -0.1540 -0.5807
16707SOL    HW155251   5.352   2.743   8.428  1.3296 -1.4509  2.1373
16707SOL    HW255252   5.221   2.700   8.490 -0.4891 -0.3611 -0.8293
16708SOL     OW55253   3.398   9.585   9.469  0.4690  0.1855 -0.0322
16708SOL    HW155254   3.351   9.651   9.519  2.1545  2.4086 -1.2855
16708SOL    HW255255   3.365   9.595   9.379  1.8770  0.4477 -0.5428
16709SOL     OW55256   7.482   8.006   1.211  0.1946 -0.5684 -0.6082
16709SOL    HW155257   7.515   7.940   1.271 -0.6701 -1.0883 -0.6869
16709SOL    HW255258   7.452   7.955   1.135 -3.6914 -0.4710  0.7411
16710SOL     OW55259   4.018   4.214   5.371 -0.2459  0.4749  0.0232
16710SOL    HW155260   4.084   4.146   5.385  2.0969  3.2177  2.9900
16710SOL    HW255261   3.951   4.196   5.437 -0.4581  0.1091 -0.2860
16711SOL     OW55262   2.569   0.866   7.605  0.1358  0.2807  0.2429
16711SOL    HW155263   2.546   0.781   7.566 -0.5382  0.4781  0.2172
16711SOL    HW255264   2.513   0.873   7.682 -1.5836  1.8167 -1.1197
16712SOL     OW55265   1.648   4.067  10.430 -0.0829  0.2529  0.3220
16712SOL    HW155266   1.736   4.102  10.445 -0.3505  1.1743 -0.2612
16712SOL    HW255267   1.648   3.983  10.477  1.1161  0.2239  0.2871
16713SOL     OW55268   3.729   7.676   1.113 -0.0503  0.2034 -0.0637
16713SOL    HW155269   3.637   7.652   1.104  0.0352  0.0618 -0.6059
16713SOL    HW255270   3.731   7.770   1.093  0.3003 -0.3319 -2.8333
16714SOL     OW55271   4.348   5.049  10.416  0.1478 -0.3315 -0.4457
16714SOL    HW155272   4.441   5.026  10.409  0.3683  0.6229 -0.7649
16714SOL    HW255273   4.345   5.119  10.481 -0.4865 -1.1145  0.3679
16715SOL     OW55274   6.918   4.371   1.769  0.1789 -0.0530 -0.2277
16715SOL    HW155275   6.884   4.342   1.854  0.1773  0.7744  0.0519
16715SOL    HW255276   6.869   4.450   1.748  1.7394  1.0081  0.0653
16716SOL     OW55277   3.950  11.211   0.174  0.1310  0.5910  0.3718
16716SOL    HW155278   3.866  11.207   0.220  2.1169  1.2250  4.2015
16716SOL    HW255279   3.958  11.125   0.133 -1.1401 -0.4561  2.2572
16717SOL     OW55280   7.494  10.443   8.439  0.0192  0.0980 -0.1397
16717SOL    HW155281   7.425  10.413   8.380  0.9640 -0.0461 -1.1811
16717SOL    HW255282   7.576  10.413   8.398  0.8038  1.7857  0.1660
16718SOL     OW55283   6.150  10.008   0.603  0.1846 -0.6954  0.0384
16718SOL    HW155284   6.185   9.999   0.514  2.5960 -0.3496  0.9185
16718SOL    HW255285   6.133  10.101   0.613 -0.2391 -0.7539 -0.0820
16719SOL     OW55286  10.055   5.655   3.976  0.1847 -0.2110 -0.0540
16719SOL    HW155287  10.001   5.700   4.041  0.4486  0.2560 -0.1571
16719SOL    HW255288  10.004   5.578   3.951 -1.0884  0.9933 -1.2127
16720SOL     OW55289   3.334   8.216   6.469  0.2735 -0.2072  0.3852
16720SOL    HW155290   3.276   8.190   6.398 -0.3053 -0.9209  1.1087
16720SOL    HW255291   3.404   8.151   6.468  0.1286 -0.3640  0.6422
16721SOL     OW55292   5.717  10.557   4.231  0.1706  0.1334 -0.4505
16721SOL    HW155293   5.751  10.591   4.149  0.5540  0.3825 -0.1887
16721SOL    HW255294   5.634  10.604   4.243  0.5929  0.8276 -0.1992
16722SOL     OW55295  10.219   4.831   9.455  0.1126  0.0946 -0.0303
16722SOL    HW155296  10.124   4.821   9.445 -0.0007 -1.0330  1.8817
16722SOL    HW255297  10.250   4.854   9.368 -1.8504 -0.1303 -0.8172
16723SOL     OW55298   8.374   0.724   8.939  0.3486 -0.3199 -0.3188
16723SOL    HW155299   8.404   0.651   8.993 -0.0574 -0.6791 -0.5771
16723SOL    HW255300   8.286   0.742   8.970  0.4445  0.0539 -0.2636
16724SOL     OW55301   2.853   1.816   8.900  0.2484 -0.3885  0.0848
16724SOL    HW155302   2.843   1.902   8.941 -0.7100 -1.3621  1.9768
16724SOL    HW255303   2.935   1.782   8.934  1.3008  0.2989 -1.7004
16725SOL     OW55304   2.980   2.936   1.780  0.5340  0.1211 -0.2667
16725SOL    HW155305   2.916   2.945   1.850 -0.5121  0.7509 -1.2927
16725SOL    HW255306   3.051   2.997   1.804 -0.4931  1.4277 -0.4957
16726SOL     OW55307   0.619   3.023   0.667 -0.1734 -0.4632  0.1957
16726SOL    HW155308   0.618   3.059   0.756 -2.3471  1.0473 -0.3782
16726SOL    HW255309   0.688   3.070   0.622  0.9872 -1.2875  1.0921
16727SOL     OW55310   0.100   9.456   0.531  0.2464 -0.4098 -0.2844
16727SOL    HW155311   0.120   9.534   0.478  0.4540 -1.1106 -1.2420
16727SOL    HW255312   0.121   9.382   0.475 -0.1747 -1.1707  0.5401
16728SOL     OW55313   4.901  11.147  10.883 -0.2249 -0.7121 -0.2054
16728SOL    HW155314   4.923  11.110  10.797 -1.8524 -0.3118 -0.8044
16728SOL    HW255315   4.910  11.073  10.943 -2.1197 -1.7916 -1.1983
16729SOL     OW55316  10.649   0.593  11.245 -0.0534  0.0595  0.2026
16729SOL    HW155317  10.618   0.663  11.302 -1.1821  0.1145 -0.4722
16729SOL    HW255318  10.737   0.622  11.219 -0.0506  0.6644  0.8448
16730SOL     OW55319   5.937   1.491   8.174 -0.3747 -0.0910 -0.5706
16730SOL    HW155320   6.014   1.478   8.119 -0.0355 -2.5743  0.4266
16730SOL    HW255321   5.863   1.483   8.114  0.0448 -1.4369 -0.9327
16731SOL     OW55322   9.178   2.281   8.962  0.3102 -0.1949  0.1233
16731SOL    HW155323   9.151   2.214   8.899  1.3922 -0.1703 -0.3716
16731SOL    HW255324   9.223   2.347   8.910 -0.0025  0.5054  0.7292
16732SOL     OW55325   1.321   7.314   9.078 -0.5173  0.6886  0.3110
16732SOL    HW155326   1.369   7.313   8.995 -0.5021  2.4859  0.2617
16732SOL    HW255327   1.262   7.389   9.070 -1.9526 -0.3265  1.1462
16733SOL     OW55328   0.796   0.342   5.673 -0.7120 -0.4571  0.0304
16733SOL    HW155329   0.841   0.258   5.682  0.5797  0.1936 -0.2085
16733SOL    HW255330   0.720   0.323   5.617  0.0295 -1.3005 -0.7081
16734SOL     OW55331  10.376   2.074   8.174  0.5057  0.0502 -0.7044
16734SOL    HW155332  10.361   2.012   8.103 -1.2043  1.6530 -1.7678
16734SOL    HW255333  10.294   2.074   8.223  2.1479 -2.1828  2.2515
16735SOL     OW55334   2.339   3.865   4.797 -0.1777  0.3443 -0.3629
16735SOL    HW155335   2.359   3.778   4.832 -1.3491  0.6324  1.0646
16735SOL    HW255336   2.425   3.900   4.771  0.3190 -1.1630 -0.8150
16736SOL     OW55337   3.069   4.951   7.254 -0.0415  0.4998  0.6747
16736SOL    HW155338   3.091   5.029   7.305  0.5772  0.8848 -0.1535
16736SOL    HW255339   3.070   4.982   7.163 -0.7459 -0.2552  0.4115
16737SOL     OW55340   2.735  11.162   2.116 -0.8390 -0.2527  0.3157
16737SOL    HW155341   2.731  11.184   2.023  2.3210  1.5383  0.5279
16737SOL    HW255342   2.761  11.070   2.117  0.0284 -0.0300 -0.5878
16738SOL     OW55343   9.039  11.220   9.048  0.7946  0.3343  0.0571
16738SOL    HW155344   9.003  11.298   9.090  1.7670  0.4009  0.7894
16738SOL    HW255345   9.045  11.243   8.956 -0.8669  0.3791 -0.0620
16739SOL     OW55346   1.501   3.117   5.642  0.0142  1.0251 -0.9222
16739SOL    HW155347   1.519   3.026   5.665 -1.5762  1.0635  0.5945
16739SOL    HW255348   1.551   3.132   5.562 -0.2697 -1.3818 -1.5798
16740SOL     OW55349   2.736   7.950   8.894  0.0182  0.6171  0.1384
16740SOL    HW155350   2.772   7.883   8.836 -0.7737  0.0956  0.2294
16740SOL    HW255351   2.742   8.031   8.845  2.2414  0.7197  0.5454
16741SOL     OW55352  10.849   7.177   6.967 -0.3171  0.2207 -0.0605
16741SOL    HW155353  10.849   7.229   7.047 -1.2330  0.9858 -0.5436
16741SOL    HW255354  10.904   7.227   6.906 -1.4573  0.8142 -0.6278
16742SOL     OW55355   2.525   8.038  10.416  0.4034 -0.1462  0.4813
16742SOL    HW155356   2.475   8.083  10.349  1.7223 -2.5164 -2.1816
16742SOL    HW255357   2.511   7.945  10.400  2.0498 -0.7947  2.4695
16743SOL     OW55358   3.592   9.844   9.375 -0.5026  0.1274  0.4687
16743SOL    HW155359   3.609   9.823   9.467 -0.5542  1.4899  0.7917
16743SOL    HW255360   3.497   9.838   9.366 -0.7365  2.5453  1.1455
16744SOL     OW55361  10.392   9.029  11.117  0.1892 -0.4571  0.0796
16744SOL    HW155362  10.481   9.043  11.085 -0.7835  2.1382 -1.6782
16744SOL    HW255363  10.380   9.095  11.186 -0.3860 -0.7238  0.2368
16745SOL     OW55364  11.001   2.254   7.101 -0.1546 -0.4598  0.6892
16745SOL    HW155365  11.088   2.226   7.131 -0.3386 -1.8990 -0.1200
16745SOL    HW255366  11.020   2.312   7.027  0.1883  1.0945  1.9445
16746SOL     OW55367   2.029   3.884   4.045  0.4291 -0.0830 -0.6141
16746SOL    HW155368   2.010   3.874   4.139 -0.7283 -0.7821 -0.9111
16746SOL    HW255369   2.052   3.796   4.015  2.0059  0.3559 -0.7467
16747SOL     OW55370   5.077   3.425   8.124 -0.0535  0.3888 -0.2862
16747SOL    HW155371   4.997   3.419   8.071  0.2751 -2.2735 -0.5766
16747SOL    HW255372   5.049   3.397   8.211  0.6244 -0.9558 -0.4899
16748SOL     OW55373  11.074   3.358   7.879  0.0086  0.1237  0.5502
16748SOL    HW155374  11.013   3.286   7.870 -0.6309  0.8338 -0.8993
16748SOL    HW255375  11.082   3.371   7.974 -0.2109 -1.5416  0.8026
16749SOL     OW55376   1.251   8.748   4.726 -0.0567  0.2054 -0.5882
16749SOL    HW155377   1.274   8.756   4.818 -1.2688  0.9947 -0.3416
16749SOL    HW255378   1.226   8.657   4.714 -1.4698  0.4676  0.2494
16750SOL     OW55379   6.794   7.044   2.512  0.0015 -0.4073  0.1896
16750SOL    HW155380   6.751   7.094   2.581 -0.5054 -0.7981  0.1603
16750SOL    HW255381   6.875   7.092   2.493 -0.1876  0.0610  0.5855
16751SOL     OW55382   6.162   1.539   7.437 -0.3648 -1.0724  0.0581
16751SOL    HW155383   6.105   1.559   7.363 -1.3005  2.9467  1.7571
16751SOL    HW255384   6.249   1.566   7.407 -1.0345  2.3583  0.9826
16752SOL     OW55385   7.663   0.726   8.848 -0.2371  1.0061 -0.0840
16752SOL    HW155386   7.680   0.632   8.843  1.0265  1.1434  1.4751
16752SOL    HW255387   7.643   0.742   8.940 -1.0155  2.1924 -0.4414
16753SOL     OW55388   5.262  10.300   1.994  0.2532 -0.5705 -0.9233
16753SOL    HW155389   5.308  10.383   1.986 -0.4119 -0.1292 -0.2002
16753SOL    HW255390   5.332  10.235   2.002  0.8058  0.3811  3.1876
16754SOL     OW55391   9.337   4.584  10.701  0.2351  0.2935  0.1021
16754SOL    HW155392   9.327   4.617  10.790  0.8453  2.5880 -0.6509
16754SOL    HW255393   9.328   4.661  10.645 -1.2047 -1.2685 -1.9072
16755SOL     OW55394   0.984   3.498   2.514  0.4580  0.2408  0.2779
16755SOL    HW155395   0.918   3.520   2.449 -1.0330 -1.1141  1.2914
16755SOL    HW255396   0.979   3.569   2.578  0.3739  0.4402  0.0488
16756SOL     OW55397   2.963   5.811   7.847  0.2929  0.0393 -0.0211
16756SOL    HW155398   2.953   5.761   7.765  1.2916 -0.9755  0.4659
16756SOL    HW255399   2.954   5.745   7.916 -0.9106  0.9464  0.7186
16757SOL     OW55400   9.568   4.698   6.405  0.9565  0.2075  0.0180
16757SOL    HW155401   9.634   4.658   6.348  2.0535  0.3713  1.1318
16757SOL    HW255402   9.563   4.789   6.377  1.2296  0.1984 -0.0581
16758SOL     OW55403   0.511   9.404  11.005 -0.5239 -0.4025 -0.1753
16758SOL    HW155404   0.547   9.362  10.927 -0.9818  1.0178 -1.1683
16758SOL    HW255405   0.416   9.398  10.994 -0.6247 -2.0563  1.3080
16759SOL     OW55406   3.860   5.514   1.784  0.3176  0.7438 -0.4518
16759SOL    HW155407   3.817   5.577   1.726  0.8216  0.4664 -1.1312
16759SOL    HW255408   3.804   5.511   1.861 -1.3955 -0.3024 -1.6979
16760SOL     OW55409   7.909   0.958   6.914  0.0311  0.7452 -0.0727
16760SOL    HW155410   7.889   1.051   6.927  0.5628  0.6789  1.3287
16760SOL    HW255411   8.004   0.954   6.913  0.0660  0.6273 -3.4436
16761SOL     OW55412   0.224   3.484   6.115  0.4068  0.9351  0.5256
16761SOL    HW155413   0.287   3.436   6.062 -0.5266  0.2380  0.0227
16761SOL    HW255414   0.272   3.508   6.194  0.5051 -2.1357  1.4487
16762SOL     OW55415   4.038   7.994   2.514 -0.1505  0.1598 -0.4830
16762SOL    HW155416   3.979   8.046   2.569  0.4165  0.9352 -0.5889
16762SOL    HW255417   4.060   7.918   2.567 -0.8288  0.1225 -0.2422
16763SOL     OW55418   8.594  10.836   0.513  0.0106 -0.6251 -0.4418
16763SOL    HW155419   8.634  10.813   0.429 -4.1755  3.4203 -3.7644
16763SOL    HW255420   8.529  10.768   0.528  1.6595 -2.0902  0.3109
16764SOL     OW55421   4.589  10.805   6.464  0.0923  0.5867 -0.7738
16764SOL    HW155422   4.562  10.781   6.376  0.1016  3.1104 -1.5051
16764SOL    HW255423   4.506  10.823   6.510  0.0723 -0.9589 -0.1704
16765SOL     OW55424   0.072   1.236   0.327  0.5722  0.3658  0.2735
16765SOL    HW155425   0.061   1.198   0.414  0.2661  0.3866  0.2422
16765SOL    HW255426   0.094   1.328   0.343  1.4387  0.1551  0.3542
16766SOL     OW55427  10.287   3.998   6.652  0.0618  0.0927 -0.1175
16766SOL    HW155428  10.241   3.967   6.574 -1.9265  1.7238  0.3637
16766SOL    HW255429  10.286   4.093   6.645  1.0916  0.2229  1.2195
16767SOL     OW55430   9.160   0.376   5.209  0.3523  0.2229  0.5681
16767SOL    HW155431   9.229   0.313   5.189 -0.0871 -0.2533  0.5589
16767SOL    HW255432   9.118   0.342   5.288 -1.5563 -0.8761 -0.8809
16768SOL     OW55433   5.077   6.245   2.095  0.0847  0.3466  0.5856
16768SOL    HW155434   5.034   6.160   2.106 -0.3272  0.8670  3.2856
16768SOL    HW255435   5.025   6.306   2.148  1.5513  1.8799  0.3160
16769SOL     OW55436   5.185   2.331   5.136  0.3859  0.4505 -0.2252
16769SOL    HW155437   5.163   2.391   5.065  1.6203 -0.7773 -1.6811
16769SOL    HW255438   5.212   2.387   5.208  0.7275  1.6705 -1.2933
16770SOL     OW55439   8.885   7.555   4.375  0.1822  0.4048 -0.0080
16770SOL    HW155440   8.828   7.632   4.375 -1.0516 -0.4679 -1.2934
16770SOL    HW255441   8.879   7.520   4.464  1.3748  2.2311  0.7960
16771SOL     OW55442   2.569   6.362   6.722 -0.3429  0.1165  0.0155
16771SOL    HW155443   2.531   6.426   6.662  1.8103  0.3748 -1.1197
16771SOL    HW255444   2.653   6.339   6.682 -1.0301 -3.4030  0.3979
16772SOL     OW55445   0.030   8.539   9.201  0.1702 -0.3299 -0.2746
16772SOL    HW155446   0.017   8.532   9.295 -1.5164 -0.2447 -0.4804
16772SOL    HW255447   0.057   8.630   9.186  0.5520 -0.3779  0.1277
16773SOL     OW55448   4.032   4.112   9.721 -0.0151 -0.1419  0.6990
16773SOL    HW155449   4.031   4.052   9.646 -1.5080  1.0944 -0.3114
16773SOL    HW255450   4.124   4.122   9.744  0.4068 -0.9922 -0.6021
16774SOL     OW55451  10.332   6.244   3.154  0.4659 -0.4379  0.4810
16774SOL    HW155452  10.273   6.308   3.193  0.0558  0.4399 -1.5216
16774SOL    HW255453  10.396   6.225   3.223  0.2220  1.6553  1.3142
16775SOL     OW55454   5.664   5.507   3.574 -0.0082  0.2248 -0.2903
16775SOL    HW155455   5.736   5.569   3.558 -1.7780  2.7388  1.1500
16775SOL    HW255456   5.684   5.470   3.660  1.1031 -1.3511 -1.1948
16776SOL     OW55457   9.448   8.144   7.073 -0.0069  0.5912 -0.4293
16776SOL    HW155458   9.472   8.166   7.163  0.0612 -0.6682 -0.1350
16776SOL    HW255459   9.463   8.050   7.066  1.9245  1.0078 -2.3609
16777SOL     OW55460   6.500   9.401   5.507 -0.6803  0.2487 -0.3616
16777SOL    HW155461   6.570   9.457   5.542  0.1335  0.3447 -2.1022
16777SOL    HW255462   6.430   9.462   5.483 -0.6234  0.3290 -0.3241
16778SOL     OW55463   8.919   8.468   4.270 -0.0843 -0.0603 -0.2833
16778SOL    HW155464   8.977   8.542   4.252  0.6666 -1.0407 -1.9731
16778SOL    HW255465   8.932   8.451   4.364  0.6209  1.1902 -0.1368
16779SOL     OW55466   5.432   6.672   8.973 -0.2315 -0.4041 -0.1238
16779SOL    HW155467   5.523   6.661   8.945 -0.3893 -0.1162 -0.7555
16779SOL    HW255468   5.380   6.647   8.897 -0.7087 -1.5268  0.5533
16780SOL     OW55469   5.168   0.883   5.372 -0.1685 -0.7503  0.3729
16780SOL    HW155470   5.239   0.930   5.329  0.5450 -1.2487  1.0157
16780SOL    HW255471   5.187   0.790   5.357 -0.0598 -0.9206  1.5421
16781SOL     OW55472   3.270   2.507   2.837 -0.5955  0.1197  0.3030
16781SOL    HW155473   3.335   2.538   2.899  0.3320 -1.1904  0.0120
16781SOL    HW255474   3.202   2.466   2.891  1.8105 -4.0258  0.3921
16782SOL     OW55475   9.172   2.835   1.442  0.1647  0.3507 -0.0794
16782SOL    HW155476   9.181   2.929   1.455 -0.0374  0.7362 -2.3698
16782SOL    HW255477   9.262   2.803   1.436  0.2655  0.0428  2.8087
16783SOL     OW55478  10.349   9.380  10.751 -0.3285 -0.0206 -0.0413
16783SOL    HW155479  10.401   9.458  10.770 -0.1393  0.1306 -1.1563
16783SOL    HW255480  10.372   9.319  10.821 -0.7661  1.0513  1.0613
16784SOL     OW55481   9.788   3.006  10.649 -1.3434 -0.5804 -0.1094
16784SOL    HW155482   9.867   3.052  10.676 -2.0851  1.4666 -1.2690
16784SOL    HW255483   9.774   2.939  10.716 -0.2538  0.9484  1.6791
16785SOL     OW55484   9.928   7.928   1.372  0.4601 -0.4058  0.5457
16785SOL    HW155485   9.918   7.960   1.282  2.0955 -1.9265 -0.2148
16785SOL    HW255486   9.842   7.942   1.412  0.2399  1.9861 -0.6770
16786SOL     OW55487   0.599   9.121   9.325  0.0642 -1.1476  0.7507
16786SOL    HW155488   0.637   9.052   9.270  2.8989  0.5557  0.4776
16786SOL    HW255489   0.537   9.165   9.268 -0.9939 -2.7805  0.6050
16787SOL     OW55490   4.171   4.149   7.467  0.5496  0.4237 -0.9945
16787SOL    HW155491   4.078   4.129   7.476  0.4935  0.6109 -1.1486
16787SOL    HW255492   4.189   4.210   7.538  0.5646  0.3510 -0.9362
16788SOL     OW55493   4.547   2.961   7.362  0.4784  0.1985 -0.0707
16788SOL    HW155494   4.476   3.020   7.387  1.2276  0.7937  0.6642
16788SOL    HW255495   4.616   3.019   7.329  0.6395 -0.3737 -0.7398
16789SOL     OW55496   0.100   6.230  10.725  0.1623 -0.2412 -0.0864
16789SOL    HW155497   0.081   6.147  10.768  0.3805 -0.7471 -0.9594
16789SOL    HW255498   0.195   6.229  10.711  0.8899  2.0727  3.8505
16790SOL     OW55499   9.941   4.082   7.571 -0.4113 -0.0052 -0.3953
16790SOL    HW155500   9.966   4.174   7.579  0.1586 -0.1226 -0.7780
16790SOL    HW255501   9.859   4.075   7.619  0.6500  0.2407  1.5120
16791SOL     OW55502   9.083   7.411   0.825 -0.4516 -0.2988 -0.0727
16791SOL    HW155503   9.027   7.334   0.823 -0.4172 -0.3120 -1.1110
16791SOL    HW255504   9.169   7.378   0.850 -1.3450  0.0349  3.6361
16792SOL     OW55505   6.013   0.069  10.208 -0.2839  0.1905  0.2331
16792SOL    HW155506   6.036   0.148  10.257 -2.8539  1.3538 -0.3501
16792SOL    HW255507   5.986   0.007  10.276  3.7474 -0.9976  0.8739
16793SOL     OW55508   7.001   4.071   5.722 -0.3253  0.1225 -0.9571
16793SOL    HW155509   6.926   4.020   5.692 -0.3758  0.4417 -1.3745
16793SOL    HW255510   6.979   4.161   5.702  0.3928  0.1687 -1.5484
16794SOL     OW55511   6.478   3.833   0.006 -0.5260  0.0089 -0.5123
16794SOL    HW155512   6.405   3.774   0.020  0.4264 -1.5371 -1.7837
16794SOL    HW255513   6.453   3.886  -0.070 -0.8756  0.4105 -0.1182
16795SOL     OW55514   8.669   2.404   7.493 -0.4156  0.4052 -0.2329
16795SOL    HW155515   8.612   2.337   7.531 -0.7980  0.1102 -1.3026
16795SOL    HW255516   8.758   2.371   7.506 -0.5992 -0.2690 -0.6699
16796SOL     OW55517   7.620   4.314   4.456 -0.2921 -0.2843  0.3643
16796SOL    HW155518   7.711   4.330   4.480 -0.1454 -0.6691  0.0751
16796SOL    HW255519   7.589   4.250   4.520 -0.4512  0.0844  0.6530
16797SOL     OW55520   6.583   3.419   4.967 -0.1624  0.2368  0.0473
16797SOL    HW155521   6.662   3.365   4.972  0.3683  0.8747 -1.1357
16797SOL    HW255522   6.614   3.508   4.982 -1.2102  0.1168  3.2125
16798SOL     OW55523   9.619   6.614   1.736 -0.1989  0.4110 -0.5762
16798SOL    HW155524   9.574   6.536   1.769  0.3948  0.4582  0.3577
16798SOL    HW255525   9.683   6.581   1.673 -1.2153  0.3045 -1.5686
16799SOL     OW55526   0.090   7.894   2.117 -0.2105  0.3750 -0.2284
16799SOL    HW155527   0.163   7.836   2.096 -1.0560 -0.1333 -1.8386
16799SOL    HW255528   0.131   7.968   2.162  1.0748 -0.7080  0.4224
16800SOL     OW55529   3.517   8.883  10.194 -0.5358  0.0217  0.3448
16800SOL    HW155530   3.550   8.935  10.121 -1.5746  0.6130  0.2870
16800SOL    HW255531   3.460   8.817  10.153  0.0809 -0.6093  0.4925
16801SOL     OW55532   3.765   5.376   1.251 -0.1928 -0.6450 -0.5334
16801SOL    HW155533   3.716   5.416   1.323 -0.5445  0.3822 -1.3231
16801SOL    HW255534   3.721   5.408   1.172  0.5547 -1.2812 -1.2130
16802SOL     OW55535   3.581   1.681   9.764 -0.1482 -0.4037 -0.0782
16802SOL    HW155536   3.574   1.678   9.859 -1.2961  0.4881 -0.1295
16802SOL    HW255537   3.491   1.672   9.733  0.4202 -2.8135 -1.1433
16803SOL     OW55538   5.202   9.957   2.923  0.3583 -0.2543  0.0932
16803SOL    HW155539   5.227   9.870   2.955 -2.2841 -1.5859 -1.2909
16803SOL    HW255540   5.189  10.009   3.002  2.9770 -0.7596  0.9228
16804SOL     OW55541   4.787   8.082   2.866  0.2682 -0.1906 -0.1682
16804SOL    HW155542   4.825   7.998   2.839  0.3427 -0.4778  0.8275
16804SOL    HW255543   4.861   8.142   2.870  0.4527 -0.4725  0.6747
16805SOL     OW55544   5.279   2.370   0.634 -0.5219  0.1567 -0.1496
16805SOL    HW155545   5.300   2.434   0.565 -0.7629  1.0244  0.5790
16805SOL    HW255546   5.299   2.285   0.594  1.9694  0.7959 -0.3723
16806SOL     OW55547  11.168   5.626   6.637 -0.5870  0.1829  0.3889
16806SOL    HW155548  11.235   5.557   6.641  0.2615  0.9656 -0.3663
16806SOL    HW255549  11.094   5.590   6.687 -0.0885 -1.2117  0.1335
16807SOL     OW55550   9.019  11.197   6.560 -0.1059  0.3897 -0.0528
16807SOL    HW155551   9.011  11.140   6.637  0.7385 -2.2238 -1.8078
16807SOL    HW255552   9.107  11.235   6.568 -0.2048  0.5083  0.5116
16808SOL     OW55553   7.160   8.305   4.401  0.0525  0.1021  0.3373
16808SOL    HW155554   7.240   8.352   4.423  0.9365 -2.0143  1.6887
16808SOL    HW255555   7.132   8.264   4.482 -0.2985 -2.3073 -0.9493
16809SOL     OW55556   6.160   4.907   3.169  0.9199  0.3781  0.2775
16809SOL    HW155557   6.139   4.997   3.142  0.4298 -0.0607 -0.8378
16809SOL    HW255558   6.252   4.910   3.193  0.7219  1.3470  0.9468
16810SOL     OW55559   3.069   6.652   2.799 -0.0652 -0.4845  0.3048
16810SOL    HW155560   2.999   6.717   2.807 -0.2476 -0.5597 -0.6384
16810SOL    HW255561   3.023   6.571   2.776  0.2569 -0.7228  0.5010
16811SOL     OW55562   1.925  10.778   8.656  0.4291  0.0848  0.3523
16811SOL    HW155563   1.950  10.805   8.745  1.2464 -0.9254  0.4494
16811SOL    HW255564   1.998  10.724   8.627  0.8543  1.6540 -1.5443
16812SOL     OW55565   9.033   3.490   0.243  0.0424 -0.2084 -0.1411
16812SOL    HW155566   9.088   3.554   0.288 -0.9737 -0.0888  0.9412
16812SOL    HW255567   9.022   3.525   0.155 -2.7935  2.5409  1.2248
16813SOL     OW55568  10.512   9.300   5.450 -0.1248 -0.3554  0.1900
16813SOL    HW155569  10.595   9.254   5.435 -0.0166  0.5219 -2.0475
16813SOL    HW255570  10.536   9.377   5.502  0.6530  0.5104 -1.4254
16814SOL     OW55571   1.118   3.613   1.484 -0.0911  0.5164 -0.5221
16814SOL    HW155572   1.130   3.640   1.575  0.0826  1.8385 -0.9274
16814SOL    HW255573   1.192   3.555   1.466  0.6530  1.3637 -0.2371
16815SOL     OW55574   0.280   3.790   7.710 -0.0722  0.4977 -0.4612
16815SOL    HW155575   0.197   3.743   7.697 -0.8884  2.0655 -1.1424
16815SOL    HW255576   0.295   3.835   7.628  0.9631  1.0047 -0.0024
16816SOL     OW55577   8.437   7.797   4.066  0.2109 -0.2462 -0.1282
16816SOL    HW155578   8.394   7.795   4.152 -0.6950  0.4864 -0.5596
16816SOL    HW255579   8.398   7.724   4.018  0.3345 -0.3322 -0.0976
16817SOL     OW55580   6.520   6.974   5.021  0.1988  0.6726  0.1239
16817SOL    HW155581   6.590   6.975   4.956  0.7013 -0.5020  0.6316
16817SOL    HW255582   6.450   7.026   4.982 -0.6239 -2.2856 -2.5880
16818SOL     OW55583   1.766   3.231   8.185  0.1993  1.0565  0.5841
16818SOL    HW155584   1.846   3.236   8.239  1.2181 -1.8706 -0.5383
16818SOL    HW255585   1.701   3.191   8.243  1.1951 -1.7620 -0.1652
16819SOL     OW55586   4.001   9.892   9.191  0.1813  0.3854  0.6959
16819SOL    HW155587   3.946   9.947   9.247  0.0292  0.2308  0.6970
16819SOL    HW255588   4.080   9.944   9.176  0.6357  0.0502  1.8368
16820SOL     OW55589   8.418   9.802   4.085  0.0644  0.0518 -0.1644
16820SOL    HW155590   8.451   9.773   4.170 -0.2439  0.0963 -0.0285
16820SOL    HW255591   8.481   9.766   4.022  0.6046  0.4977  0.1171
16821SOL     OW55592   5.087   5.152   4.478  0.4398 -0.1409 -0.3163
16821SOL    HW155593   5.069   5.074   4.426 -0.5328 -0.1001 -0.0453
16821SOL    HW255594   5.025   5.218   4.446  0.5512  0.2055  0.1610
16822SOL     OW55595   3.033   7.038   4.338  0.7628  0.3161 -1.0152
16822SOL    HW155596   2.988   7.028   4.422  0.1376  0.5444 -1.3232
16822SOL    HW255597   3.121   7.003   4.354  0.6257  0.2989 -0.2842
16823SOL     OW55598   5.949   2.407   2.976  0.3509  0.5123 -0.1446
16823SOL    HW155599   5.870   2.372   2.933 -0.7171  0.5851  1.6825
16823SOL    HW255600   5.996   2.329   3.005  0.2116  0.4979  0.0431
16824SOL     OW55601   8.850   6.770   0.533  0.3097 -0.3716 -0.1173
16824SOL    HW155602   8.757   6.771   0.513  0.2356  0.9586  0.2465
16824SOL    HW255603   8.863   6.844   0.592  1.8132  0.2227 -1.1650
16825SOL     OW55604   3.681   2.898   7.989  0.1020 -0.1781 -0.3282
16825SOL    HW155605   3.618   2.853   8.044 -0.4297  1.4362  0.4021
16825SOL    HW255606   3.698   2.837   7.917 -1.6737 -0.9511 -0.1059
16826SOL     OW55607   2.756   5.774   9.014  0.0246 -0.1036 -0.2557
16826SOL    HW155608   2.841   5.776   9.060  0.1150 -1.4220 -0.3406
16826SOL    HW255609   2.694   5.807   9.079  0.7898  2.2952 -0.6691
16827SOL     OW55610   0.019  11.076   4.311 -0.0230  0.3545  0.3998
16827SOL    HW155611   0.025  11.007   4.245 -0.4367  0.0793  0.6417
16827SOL    HW255612   0.107  11.111   4.318 -0.7191  2.9681 -3.0549
16828SOL     OW55613   8.879  10.919   2.816 -0.3237  0.3424 -0.1701
16828SOL    HW155614   8.897  10.849   2.753  0.8311  0.0636  0.4522
16828SOL    HW255615   8.906  10.999   2.771  0.0117  0.1960 -0.2320
16829SOL     OW55616   5.015   9.061  11.120 -0.3536  0.1491 -0.1662
16829SOL    HW155617   4.952   9.075  11.049 -0.4066 -0.9269 -0.3356
16829SOL    HW255618   5.032   8.967  11.119 -0.0057  0.1959  0.9548
16830SOL     OW55619   0.960   6.751   5.455  0.1162 -0.1926 -0.3487
16830SOL    HW155620   0.966   6.796   5.370  1.4906  1.9882  0.8536
16830SOL    HW255621   1.050   6.724   5.474 -0.2585 -1.0413  0.2298
16831SOL     OW55622   9.001   6.540   7.831 -0.0483  0.3096 -0.3310
16831SOL    HW155623   9.008   6.447   7.852  0.6121  0.5794  0.6736
16831SOL    HW255624   8.908   6.554   7.812 -0.0703 -0.6453 -0.9131
16832SOL     OW55625   1.820   9.157   0.489 -0.3397 -0.6167 -0.3808
16832SOL    HW155626   1.828   9.075   0.441  0.0623  0.0433 -1.4541
16832SOL    HW255627   1.862   9.223   0.433 -0.0092  0.1990  0.7818
16833SOL     OW55628  10.288   2.933  10.995 -0.0667 -0.0054 -0.1053
16833SOL    HW155629  10.239   2.855  10.968  0.1854 -0.0513 -0.4323
16833SOL    HW255630  10.275   2.938  11.089 -1.1931  0.3205 -0.2667
16834SOL     OW55631   0.498   5.221   1.654 -0.0820 -0.3695 -0.2802
16834SOL    HW155632   0.495   5.150   1.590 -0.3271 -0.0381 -0.6464
16834SOL    HW255633   0.406   5.238   1.675  0.0338 -0.9406  0.6857
16835SOL     OW55634   6.685   5.467   1.975  0.0259 -0.1958 -0.2356
16835SOL    HW155635   6.644   5.515   2.047 -1.3506  0.0730 -1.1657
16835SOL    HW255636   6.770   5.509   1.964  0.0587  0.0602  0.9271
16836SOL     OW55637   5.087   7.205   1.764  0.1250  0.5220  0.1784
16836SOL    HW155638   5.034   7.128   1.785  0.4306  0.4384  0.6722
16836SOL    HW255639   5.171   7.189   1.808  0.3357  0.9457 -0.0611
16837SOL     OW55640   4.896   4.206   2.044 -0.0922 -0.0933 -0.4683
16837SOL    HW155641   4.893   4.161   1.959  0.1552 -0.5113 -0.2584
16837SOL    HW255642   4.984   4.186   2.078 -0.1016  0.2811 -0.2275
16838SOL     OW55643   1.449   7.119   8.485  1.2339 -0.0981 -0.1640
16838SOL    HW155644   1.392   7.187   8.521  0.5187  0.1276 -1.6841
16838SOL    HW255645   1.526   7.119   8.542  0.8780  1.4169  0.3320
16839SOL     OW55646   3.059   7.081  10.176 -0.3406  0.1712 -1.2316
16839SOL    HW155647   2.973   7.056  10.210  0.6073 -1.8781 -0.3026
16839SOL    HW255648   3.113   7.002  10.184  2.1405  1.9146 -0.1353
16840SOL     OW55649   4.318   7.281   9.880 -0.0520 -0.0855 -0.7491
16840SOL    HW155650   4.392   7.247   9.931 -0.9273  0.1644  0.7377
16840SOL    HW255651   4.328   7.376   9.886 -0.7057 -0.0491 -0.2163
16841SOL     OW55652   2.492   1.104   4.605  0.8087 -0.0664  0.4160
16841SOL    HW155653   2.550   1.164   4.558 -1.0847  0.9029 -0.7858
16841SOL    HW255654   2.415   1.157   4.625  0.2486 -1.3784  1.7983
16842SOL     OW55655   6.008  10.039   4.759  0.1332  0.3076 -0.5322
16842SOL    HW155656   5.926  10.059   4.713  1.5995  0.0359 -3.3528
16842SOL    HW255657   5.983  10.037   4.852 -3.5108 -1.9857 -1.4446
16843SOL     OW55658   0.554   5.467   5.917 -0.3319 -0.0515  0.0564
16843SOL    HW155659   0.548   5.372   5.922  0.4180 -0.0938  0.1909
16843SOL    HW255660   0.624   5.484   5.854  3.1232  0.3504  3.7946
16844SOL     OW55661  10.595   9.591   4.354  0.2741  0.0280  0.6172
16844SOL    HW155662  10.531   9.533   4.313 -0.9334  1.6170  0.2207
16844SOL    HW255663  10.674   9.537   4.363 -0.0707 -0.9551 -1.9518
16845SOL     OW55664   3.581   7.492  11.132  0.4795 -0.1525  0.3933
16845SOL    HW155665   3.618   7.578  11.152 -0.3471  0.1520  0.6251
16845SOL    HW255666   3.490   7.510  11.109 -0.2442 -1.1733  2.3359
16846SOL     OW55667   6.067   2.472   9.053 -0.4315  0.8990 -0.0213
16846SOL    HW155668   5.973   2.463   9.037 -0.3668 -1.3941  0.7639
16846SOL    HW255669   6.083   2.418   9.130  1.6167  0.9425 -0.4064
16847SOL     OW55670   8.759   4.772   1.833  0.0840 -0.4343 -0.4824
16847SOL    HW155671   8.695   4.708   1.865 -1.8994  2.1865  0.9819
16847SOL    HW255672   8.833   4.763   1.893 -0.1037 -1.4487 -0.3898
16848SOL     OW55673   4.546   6.587  10.700 -0.1864 -0.3217  0.4319
16848SOL    HW155674   4.458   6.567  10.670  1.0199 -1.6608 -2.3386
16848SOL    HW255675   4.559   6.680  10.679 -0.3060 -0.5791 -0.8162
16849SOL     OW55676   3.724   9.311   9.730  0.2065  0.1310 -0.3006
16849SOL    HW155677   3.670   9.270   9.662 -0.6440 -0.2400  0.5811
16849SOL    HW255678   3.660   9.344   9.794  1.0564 -1.7553  1.5704
16850SOL     OW55679   8.030   6.939  10.539 -0.2436  0.2542  0.2083
16850SOL    HW155680   7.962   7.007  10.533 -1.3224 -0.8301 -0.1778
16850SOL    HW255681   7.993   6.874  10.598  0.5416 -0.2624  0.1254
16851SOL     OW55682   9.782   8.009   1.123  0.0851 -0.3685  0.0139
16851SOL    HW155683   9.720   8.081   1.132  1.0894  0.4918  0.2131
16851SOL    HW255684   9.730   7.930   1.135 -0.6508  0.3889  1.9218
16852SOL     OW55685  10.523   6.017   0.452  0.3633  0.4733  0.0928
16852SOL    HW155686  10.433   5.995   0.475 -0.0020 -0.9811 -2.5192
16852SOL    HW255687  10.541   6.099   0.499 -2.9507  1.7908 -0.7975
16853SOL     OW55688   6.009   1.683   0.225 -0.4293  0.0897 -0.6378
16853SOL    HW155689   5.947   1.753   0.201 -0.9044 -0.8049 -2.0891
16853SOL    HW255690   6.095   1.725   0.220 -0.6354  0.3379 -2.4977
16854SOL     OW55691   5.713   3.693  11.111  0.0620 -0.3165 -0.1342
16854SOL    HW155692   5.710   3.788  11.101 -1.4277 -0.2839  0.3766
16854SOL    HW255693   5.797   3.666  11.073  0.3437  1.1631 -0.5668
16855SOL     OW55694   5.945   7.914   9.119 -0.3560  0.2653  0.4007
16855SOL    HW155695   6.029   7.926   9.162 -0.5741  0.1001  0.8795
16855SOL    HW255696   5.965   7.913   9.025  0.3889 -1.4716  0.5715
16856SOL     OW55697   0.007   0.836   7.878 -0.0298  0.0759  0.4867
16856SOL    HW155698  -0.075   0.883   7.891 -1.5456 -1.7348 -2.1491
16856SOL    HW255699   0.015   0.780   7.955 -2.0102 -0.7721  0.0936
16857SOL     OW55700   6.666   6.099   3.587 -0.3496  0.3722 -0.3807
16857SOL    HW155701   6.684   6.076   3.495 -2.3636 -1.9829 -0.2093
16857SOL    HW255702   6.748   6.140   3.617  0.4129  1.0249 -3.1605
16858SOL     OW55703   5.165   3.219   0.353 -0.0055  0.4013 -0.5863
16858SOL    HW155704   5.245   3.167   0.345  0.5179  1.5226 -2.9938
16858SOL    HW255705   5.096   3.162   0.319  0.1762  0.3561 -0.8822
16859SOL     OW55706   1.165   2.009   0.395 -0.0531  0.4334 -0.1077
16859SOL    HW155707   1.174   1.962   0.478  1.3190 -0.4087 -0.7119
16859SOL    HW255708   1.078   1.985   0.363  0.6092 -1.7372 -0.3889
16860SOL     OW55709   1.559   6.257   9.911 -0.3541 -0.5665  0.5507
16860SOL    HW155710   1.495   6.298   9.969  0.0118  0.9272 -0.0857
16860SOL    HW255711   1.644   6.287   9.944 -0.0622 -1.0488  0.2419
16861SOL     OW55712  10.487   7.020   9.401 -0.2427 -0.2667 -0.0713
16861SOL    HW155713  10.574   7.054   9.425 -0.4967  0.0407  0.4442
16861SOL    HW255714  10.428   7.063   9.463 -1.0823  1.5105 -2.0467
16862SOL     OW55715   2.624   6.924   1.906 -0.5695 -0.5717  0.1398
16862SOL    HW155716   2.682   6.997   1.930  1.3679 -2.1684  0.4098
16862SOL    HW255717   2.552   6.929   1.970 -1.7150  2.4871 -1.2861
16863SOL     OW55718   9.875   1.279   1.893  0.0581  0.4080  0.8050
16863SOL    HW155719   9.890   1.285   1.798 -3.0571  1.3737  0.3097
16863SOL    HW255720   9.944   1.334   1.931  1.3019  0.0704 -0.9000
16864SOL     OW55721   1.092   4.422   8.835  0.1605  0.0029 -0.0648
16864SOL    HW155722   1.135   4.342   8.864 -0.2205  0.7045  2.5147
16864SOL    HW255723   1.027   4.442   8.902 -1.0859  1.4539 -1.6143
16865SOL     OW55724   6.919  11.315   7.213 -0.1615 -0.4946 -0.1202
16865SOL    HW155725   6.871  11.344   7.291  0.7738 -2.2476  1.1382
16865SOL    HW255726   6.964  11.394   7.182  0.7965 -0.1464  2.0987
16866SOL     OW55727   3.952   2.809  11.183 -0.0377  0.6299  0.1601
16866SOL    HW155728   4.027   2.750  11.178  0.6423  1.4823  0.0619
16866SOL    HW255729   3.885   2.768  11.129  0.1725 -0.4067  0.6703
16867SOL     OW55730   5.977   0.413   7.807 -0.3888  0.2140  0.6422
16867SOL    HW155731   6.038   0.459   7.749 -0.8415  0.5785  0.4521
16867SOL    HW255732   5.970   0.470   7.884 -2.5964  1.5501 -0.4840
16868SOL     OW55733   5.087   8.592   2.230 -0.1835 -0.0111 -0.0031
16868SOL    HW155734   5.135   8.633   2.302 -0.2797 -2.2631  1.3829
16868SOL    HW255735   5.001   8.573   2.267 -0.5349 -0.3747 -1.0082
16869SOL     OW55736   3.407  10.108   7.733 -0.4341 -0.1915  0.3968
16869SOL    HW155737   3.462  10.069   7.665 -0.2729  0.2157  0.2909
16869SOL    HW255738   3.431  10.201   7.733 -0.6665 -0.1308  0.7864
16870SOL     OW55739   7.010   7.516   8.508  0.0968  0.2562 -0.4430
16870SOL    HW155740   7.089   7.549   8.551  0.7380 -0.9582 -0.6749
16870SOL    HW255741   7.000   7.571   8.430 -0.4505  1.7423  0.6305
16871SOL     OW55742   3.751   8.944   3.124  0.3505  0.3212 -0.2137
16871SOL    HW155743   3.718   8.889   3.053  1.1430 -0.9333  0.3723
16871SOL    HW255744   3.718   9.031   3.104  2.3052  0.4152 -3.2692
16872SOL     OW55745  11.224   3.252   0.197 -0.3278  0.2777 -0.7894
16872SOL    HW155746  11.309   3.288   0.221 -0.6939  0.9454 -0.4710
16872SOL    HW255747  11.231   3.236   0.103  0.3144 -0.1368 -0.6745
16873SOL     OW55748   2.939   9.275  10.995  0.7567  0.0532 -0.5682
16873SOL    HW155749   2.846   9.292  11.013  0.6583 -0.4812 -0.5546
16873SOL    HW255750   2.938   9.220  10.917  1.1792  2.4228 -2.3150
16874SOL     OW55751   4.773  10.340   2.948 -0.0055 -0.5676 -0.0476
16874SOL    HW155752   4.802  10.429   2.928  0.8060 -0.7923  0.1326
16874SOL    HW255753   4.742  10.344   3.039 -1.2221 -0.1595 -0.4792
16875SOL     OW55754   9.421   2.146   3.906 -0.1240  0.0017 -0.2872
16875SOL    HW155755   9.414   2.226   3.958  2.8864  0.2756 -0.1703
16875SOL    HW255756   9.516   2.136   3.892 -0.5354 -2.9914 -1.1562
16876SOL     OW55757  10.523   6.821   2.850  0.9208  0.2588  0.0870
16876SOL    HW155758  10.483   6.905   2.871 -0.0698  0.2257 -1.5679
16876SOL    HW255759  10.613   6.829   2.879  0.5535  1.4999  0.9273
16877SOL     OW55760   2.229   7.670   9.588  0.2955 -0.1102 -0.3492
16877SOL    HW155761   2.223   7.755   9.632  0.2632 -0.1957 -0.1836
16877SOL    HW255762   2.229   7.691   9.495 -2.0238 -0.0505 -0.3744
16878SOL     OW55763   4.231   9.790   8.828 -0.0994 -0.2497  0.8204
16878SOL    HW155764   4.245   9.882   8.852 -0.1732  0.1518 -0.6191
16878SOL    HW255765   4.222   9.744   8.912  1.4790  0.8058  1.6009
16879SOL     OW55766   5.565   9.348  11.262 -0.0253 -0.6547 -0.6000
16879SOL    HW155767   5.532   9.336  11.351 -0.8283  1.3502 -0.6043
16879SOL    HW255768   5.530   9.433  11.234  0.3820 -1.1574 -2.7526
16880SOL     OW55769  10.106   2.362   4.962 -0.2313  0.2828  0.3040
16880SOL    HW155770  10.065   2.333   4.881  0.0633 -0.7992  0.5458
16880SOL    HW255771  10.140   2.449   4.941 -0.7803  0.3074 -0.5192
16881SOL     OW55772   2.241   0.982   3.354 -0.9681 -0.2642  0.3957
16881SOL    HW155773   2.172   1.049   3.345 -0.4610  0.1478 -0.4122
16881SOL    HW255774   2.195   0.899   3.342 -1.1042  0.0661 -1.4564
16882SOL     OW55775   3.916   6.972   0.570  0.4344 -0.6298 -0.0213
16882SOL    HW155776   3.969   6.931   0.502  2.3498  2.0264 -0.1991
16882SOL    HW255777   3.974   6.977   0.646 -0.3636  0.0669  0.5547
16883SOL     OW55778   7.957   5.395   9.935 -0.5688 -0.5431 -0.2306
16883SOL    HW155779   8.031   5.453   9.952 -0.1186 -1.1500 -0.1248
16883SOL    HW255780   7.887   5.428   9.992 -0.0881 -0.5493  0.3640
16884SOL     OW55781   0.739   0.439  10.225  0.5755  0.2338  0.1827
16884SOL    HW155782   0.660   0.490  10.241 -1.6971 -2.6638 -1.4251
16884SOL    HW255783   0.757   0.395  10.308 -1.7693 -2.0423 -0.4366
16885SOL     OW55784   1.274   6.407   7.518 -0.0034  0.2522 -0.2184
16885SOL    HW155785   1.322   6.476   7.564  0.2750 -1.3202  1.9508
16885SOL    HW255786   1.340   6.339   7.503 -0.8905 -0.7194  0.2336
16886SOL     OW55787   6.151   6.808   1.670  0.1356 -0.3957  0.3432
16886SOL    HW155788   6.127   6.761   1.749  0.8259 -2.8487 -0.8542
16886SOL    HW255789   6.247   6.810   1.672  0.2630 -2.6641 -1.6194
16887SOL     OW55790   7.174   6.162   2.831  0.3034 -0.0812 -0.1571
16887SOL    HW155791   7.168   6.093   2.765 -0.8048 -1.0010  0.8801
16887SOL    HW255792   7.118   6.232   2.798  0.6552 -0.0680 -0.7394
16888SOL     OW55793   7.491   4.368   2.499 -0.2564  0.7435 -0.0641
16888SOL    HW155794   7.422   4.339   2.440 -0.1203  0.9476 -0.3230
16888SOL    HW255795   7.555   4.296   2.498 -0.3047  0.6999 -0.0823
16889SOL     OW55796   1.556   4.018   4.482 -0.2141 -0.0881 -0.1249
16889SOL    HW155797   1.568   3.924   4.469 -1.2916 -0.0641 -1.3642
16889SOL    HW255798   1.503   4.046   4.408 -0.5470  1.3675  0.6484
16890SOL     OW55799   6.360   4.915   0.360 -0.1212 -0.2786  0.2610
16890SOL    HW155800   6.373   4.942   0.451  0.7827  2.3426 -0.6033
16890SOL    HW255801   6.447   4.891   0.330 -0.2992 -0.4487 -0.1148
16891SOL     OW55802   9.172   4.565   7.560 -0.8580 -0.6941 -0.7764
16891SOL    HW155803   9.140   4.655   7.564  0.5232 -0.2273  0.2664
16891SOL    HW255804   9.099   4.515   7.523 -1.9864  0.6832 -0.4521
16892SOL     OW55805   4.622   0.927   3.190  0.3495 -0.8423  0.2613
16892SOL    HW155806   4.682   0.898   3.259 -0.4909  2.3528  2.4316
16892SOL    HW255807   4.538   0.939   3.235  0.5052  4.3200 -0.5142
16893SOL     OW55808   3.954   4.694   8.096  0.4729 -0.2731 -0.0741
16893SOL    HW155809   4.020   4.749   8.054 -0.7569 -0.0999 -1.8248
16893SOL    HW255810   3.890   4.677   8.028  0.5826 -3.5205  0.5292
16894SOL     OW55811   1.303   7.265  10.421  0.3800  0.5712  0.2381
16894SOL    HW155812   1.333   7.355  10.437 -0.0192  0.9861 -1.2892
16894SOL    HW255813   1.328   7.248  10.331 -1.7817  0.0278 -0.2715
16895SOL     OW55814   6.797   1.379   0.384 -0.4759  0.5192  0.1201
16895SOL    HW155815   6.738   1.419   0.448  1.2163 -0.3325  2.2746
16895SOL    HW255816   6.833   1.453   0.335  0.4287  1.4594  2.1383
16896SOL     OW55817   6.308   2.077   9.098  0.1327 -0.8005  0.1036
16896SOL    HW155818   6.278   2.134   9.168 -0.2143 -0.0804 -0.6315
16896SOL    HW255819   6.280   2.120   9.017 -0.2848 -2.0764 -0.4579
16897SOL     OW55820   4.680   8.310   9.353 -0.2598  0.0592  0.0652
16897SOL    HW155821   4.677   8.386   9.296 -0.5419 -0.4823 -0.6546
16897SOL    HW255822   4.673   8.235   9.294 -1.2683 -0.4998  0.8579
16898SOL     OW55823   3.437   7.277   3.657  0.2436  0.3221  0.1140
16898SOL    HW155824   3.362   7.251   3.604  0.3392  0.8040 -0.2618
16898SOL    HW255825   3.446   7.371   3.642  0.1437  0.5000  1.1523
16899SOL     OW55826   3.953   6.517   1.297  0.1166 -0.5021  0.4376
16899SOL    HW155827   4.011   6.482   1.364  0.3893 -1.0585 -0.0784
16899SOL    HW255828   3.973   6.610   1.294  1.8139 -0.8745 -0.5271
16900SOL     OW55829   1.267   8.289   8.557 -0.1286  0.1966 -0.8470
16900SOL    HW155830   1.339   8.337   8.598 -1.3506  2.1849 -0.9809
16900SOL    HW255831   1.208   8.357   8.525 -1.7882 -1.4096 -1.2555
16901SOL     OW55832   2.936   1.298   3.897  0.0710 -0.1033  0.7117
16901SOL    HW155833   2.930   1.202   3.892 -1.4744  0.0135  0.0348
16901SOL    HW255834   2.935   1.317   3.991  2.5639 -0.8485  0.9375
16902SOL     OW55835   4.999   0.794   9.832  0.8783 -0.1213  0.1193
16902SOL    HW155836   4.937   0.791   9.905  0.5024 -2.3090 -0.2448
16902SOL    HW255837   5.074   0.742   9.862  2.1241  1.6307  0.1527
16903SOL     OW55838   9.194   8.857   1.111  0.2870  0.5608  0.2147
16903SOL    HW155839   9.128   8.912   1.068 -1.6492 -0.8275  1.2957
16903SOL    HW255840   9.181   8.770   1.072  0.2453 -0.1205  1.7193
16904SOL     OW55841   9.753   8.395   5.040  0.1411  0.4679  0.1263
16904SOL    HW155842   9.816   8.443   5.093  0.4379  1.1846 -0.8558
16904SOL    HW255843   9.800   8.316   5.013  0.5669  0.9183 -0.4632
16905SOL     OW55844  11.139   9.365   0.160 -0.1708  0.4988  0.4139
16905SOL    HW155845  11.162   9.377   0.252 -2.0808  2.9433  0.6415
16905SOL    HW255846  11.098   9.279   0.156 -0.7305  0.6748  2.0227
16906SOL     OW55847   5.199   0.289   0.193  0.3905  0.1905  0.0390
16906SOL    HW155848   5.118   0.243   0.174 -0.0398  0.7536  0.4725
16906SOL    HW255849   5.265   0.245   0.140 -0.5944  1.1101 -2.0069
16907SOL     OW55850   9.978   3.752   7.252  0.2499  0.0754 -0.0111
16907SOL    HW155851  10.042   3.681   7.245 -1.6853 -1.6821 -0.3290
16907SOL    HW255852   9.899   3.717   7.211 -0.9486  2.1786  0.4465
16908SOL     OW55853   6.348   6.607   0.944 -0.1180  0.7055  0.7660
16908SOL    HW155854   6.434   6.627   0.907  0.6277 -1.2092  1.3911
16908SOL    HW255855   6.363   6.605   1.039 -1.0820  1.4013  0.9365
16909SOL     OW55856   3.804   8.373   7.613  0.1648  0.4725 -0.4644
16909SOL    HW155857   3.899   8.384   7.619  0.0391  1.0066  0.9060
16909SOL    HW255858   3.788   8.282   7.637  0.6612 -0.9358 -5.0763
16910SOL     OW55859   5.058   0.443   2.434 -0.0533 -0.2468 -0.2032
16910SOL    HW155860   5.147   0.478   2.448  0.4085 -0.3081 -2.6598
16910SOL    HW255861   5.069   0.348   2.433 -0.0339 -0.2402 -1.0947
16911SOL     OW55862   0.357   6.301   9.694 -0.0665  0.0004  0.1112
16911SOL    HW155863   0.438   6.281   9.647  0.0725 -0.9850  0.7627
16911SOL    HW255864   0.374   6.387   9.734  0.5799 -0.1102  0.0870
16912SOL     OW55865   0.838   6.928   4.685 -0.6921  0.2357  0.8153
16912SOL    HW155866   0.860   6.981   4.762 -1.9502  0.3239  1.1194
16912SOL    HW255867   0.835   6.838   4.717  1.3748 -0.0437  0.3125
16913SOL     OW55868   4.899   0.482   2.184  0.8988  1.0291  0.5900
16913SOL    HW155869   4.879   0.389   2.182  0.0341  1.1931  1.2769
16913SOL    HW255870   4.959   0.492   2.258  1.1503  0.9913  0.3926
16914SOL     OW55871   3.965   5.455   0.149  0.1035  0.2279 -0.2590
16914SOL    HW155872   4.005   5.466   0.235 -0.1433 -0.0092 -0.1146
16914SOL    HW255873   3.977   5.540   0.106  2.3825 -0.3748 -0.9017
16915SOL     OW55874   0.579   4.111   7.396  0.6833  0.1922  0.1973
16915SOL    HW155875   0.538   4.025   7.407  1.3319  0.0570  1.6598
16915SOL    HW255876   0.663   4.092   7.354 -0.1367  0.3416 -1.5544
16916SOL     OW55877   7.619   8.164  10.493 -0.4910 -0.2811  0.1312
16916SOL    HW155878   7.559   8.091  10.483  0.4448 -1.1217  0.5917
16916SOL    HW255879   7.589   8.210  10.572 -0.6711 -0.5574  0.2210
16917SOL     OW55880  10.731   3.076   6.916  0.0079  0.3852  0.1079
16917SOL    HW155881  10.697   3.094   7.004  0.6288  1.1486  0.1946
16917SOL    HW255882  10.747   3.162   6.879  2.8067  0.0489  0.4388
16918SOL     OW55883   4.560   0.922   2.194  0.2509  0.2988 -0.8067
16918SOL    HW155884   4.517   0.925   2.279  0.6523  1.0561 -0.6242
16918SOL    HW255885   4.593   0.833   2.186 -0.8419 -0.1256 -0.6964
16919SOL     OW55886   5.550   1.345   7.818  0.0083 -0.2143 -0.2278
16919SOL    HW155887   5.537   1.251   7.809 -0.2461 -0.2214  0.1931
16919SOL    HW255888   5.494   1.384   7.752  1.2956 -0.4127 -1.4743
16920SOL     OW55889   3.582   8.372   9.027  0.1641 -0.0372 -0.1998
16920SOL    HW155890   3.673   8.388   9.002  0.3872 -0.9013  0.0384
16920SOL    HW255891   3.536   8.365   8.944  0.3276  0.3388 -0.3237
16921SOL     OW55892   6.576   6.276   9.413  0.1750 -0.0063 -0.0961
16921SOL    HW155893   6.547   6.367   9.410  1.2176  0.3497  0.2140
16921SOL    HW255894   6.536   6.241   9.493 -3.2276 -0.9038 -2.1046
16922SOL     OW55895   9.985  10.885   3.940 -0.5061 -0.3453  1.1321
16922SOL    HW155896   9.931  10.806   3.937 -0.0162 -0.6316 -2.0204
16922SOL    HW255897  10.075  10.852   3.937 -0.2893  0.3188  0.2453
16923SOL     OW55898   2.512   6.281   1.158 -0.1031  0.5795  0.7556
16923SOL    HW155899   2.598   6.251   1.186 -0.7218 -1.8322  0.2726
16923SOL    HW255900   2.490   6.353   1.218  1.7303  0.4240  1.6323
16924SOL     OW55901  10.359   8.949   0.620  0.0369  0.9564 -0.3534
16924SOL    HW155902  10.284   8.897   0.651  1.8630 -1.4563  0.1445
16924SOL    HW255903  10.381   8.909   0.535  2.1218  0.1746  0.5229
16925SOL     OW55904   0.277   6.042   4.752 -0.1879 -0.3054  0.4803
16925SOL    HW155905   0.322   6.065   4.670 -1.5178  1.2725  0.1498
16925SOL    HW255906   0.268   6.126   4.797  0.9363 -1.2336  2.4771
16926SOL     OW55907   5.789   6.034   9.972  0.2857  0.1206  0.2116
16926SOL    HW155908   5.746   5.965  10.023 -1.1530 -0.5111 -1.8351
16926SOL    HW255909   5.746   6.115  10.000 -2.0710 -0.4641 -1.5757
16927SOL     OW55910   7.017   3.949   1.163 -0.3446  0.8829  0.0630
16927SOL    HW155911   7.040   4.011   1.231  0.5545  0.6310 -0.0128
16927SOL    HW255912   7.095   3.942   1.108  0.0095 -1.2649  0.7916
16928SOL     OW55913   1.882   6.374   3.599 -0.1607  0.2342  0.0151
16928SOL    HW155914   1.799   6.398   3.558 -0.2013 -0.7101 -0.4715
16928SOL    HW255915   1.947   6.381   3.529  0.0508  0.2466  0.2098
16929SOL     OW55916  10.144   3.797   1.592 -0.2859  0.0963 -0.0520
16929SOL    HW155917  10.107   3.871   1.543  0.2433  0.8254  0.6404
16929SOL    HW255918  10.072   3.766   1.646 -0.6070 -0.1172 -0.5945
16930SOL     OW55919   3.222   5.657   9.897 -0.7112 -0.2057  0.1191
16930SOL    HW155920   3.200   5.584   9.955  1.8194 -1.5804 -0.5919
16930SOL    HW255921   3.192   5.628   9.810 -0.1968 -0.1723 -0.0710
16931SOL     OW55922   0.670   0.638   5.416  0.0792 -0.3310 -0.8079
16931SOL    HW155923   0.733   0.672   5.353 -0.3162  1.1062 -0.4479
16931SOL    HW255924   0.639   0.715   5.464  0.0620 -1.3404  0.8589
16932SOL     OW55925   8.582   1.513   0.568 -0.3788 -0.9366  0.2300
16932SOL    HW155926   8.489   1.534   0.560 -0.0861 -0.0445 -0.9307
16932SOL    HW255927   8.593   1.490   0.660 -1.3204  1.1803  0.9201
16933SOL     OW55928   3.592   4.727   7.561 -0.3666 -0.1135  0.0784
16933SOL    HW155929   3.616   4.640   7.528  1.9021 -0.0297  1.4577
16933SOL    HW255930   3.518   4.710   7.620 -0.3275 -1.0147 -0.1195
16934SOL     OW55931   7.938   5.953   3.676 -0.7170 -0.8177  0.2122
16934SOL    HW155932   8.012   5.915   3.628  0.0634 -0.0041  0.7591
16934SOL    HW255933   7.969   5.960   3.767 -0.1451  2.7789 -0.1639
16935SOL     OW55934   9.200   2.066   1.591  0.4744  0.6573 -0.0688
16935SOL    HW155935   9.217   1.995   1.529 -0.7659 -0.5672  0.9466
16935SOL    HW255936   9.137   2.123   1.546  0.7756  0.6275 -0.5335
16936SOL     OW55937   3.312   1.266   1.927  0.1792 -0.3768 -0.0551
16936SOL    HW155938   3.262   1.347   1.928  0.4335 -0.2221  2.1831
16936SOL    HW255939   3.398   1.290   1.893 -0.5463 -0.2279 -1.8413
16937SOL     OW55940  10.301   7.546   4.614  0.2284 -0.7386 -0.0965
16937SOL    HW155941  10.217   7.565   4.573 -0.1849  2.8108  2.1865
16937SOL    HW255942  10.363   7.605   4.572  1.2331 -2.0398 -0.4760
16938SOL     OW55943   5.187   9.931   9.770  0.3960  0.5149 -0.4782
16938SOL    HW155944   5.138   9.938   9.852 -1.1682  0.4711 -1.3952
16938SOL    HW255945   5.247   9.858   9.784  0.0941  0.4644  0.6023
16939SOL     OW55946   9.560   3.435   6.564  0.2255  0.6166 -0.2747
16939SOL    HW155947   9.486   3.429   6.625 -0.4400 -0.4748 -1.1649
16939SOL    HW255948   9.611   3.356   6.581 -0.4937 -0.2004 -1.7764
16940SOL     OW55949   2.484   3.361   4.483  0.0276  0.5489 -0.2381
16940SOL    HW155950   2.532   3.379   4.564  1.5641 -1.5038 -0.6532
16940SOL    HW255951   2.394   3.349   4.512  0.6310 -0.5897  1.2495
16941SOL     OW55952   0.614  10.552  10.106  0.2631  0.0044  0.1460
16941SOL    HW155953   0.584  10.484  10.045 -1.0184  1.4421 -0.8801
16941SOL    HW255954   0.575  10.528  10.190  0.8495 -1.1985  0.0890
16942SOL     OW55955   8.787   2.795   0.001 -0.2174  0.0946 -0.6201
16942SOL    HW155956   8.826   2.874   0.040  1.6805 -0.9598 -0.3196
16942SOL    HW255957   8.699   2.822  -0.025  0.0183  2.0143  0.4768
16943SOL     OW55958   8.633   8.854   1.982 -0.0841 -0.4189 -0.6445
16943SOL    HW155959   8.721   8.872   1.949  0.5607  0.0399  1.2669
16943SOL    HW255960   8.595   8.940   1.997  0.8281 -0.5180  2.8133
16944SOL     OW55961  11.039   1.591   4.823  0.4182  0.0276  0.3519
16944SOL    HW155962  10.989   1.593   4.741  1.4582  1.4858 -0.2658
16944SOL    HW255963  11.034   1.500   4.852 -0.0904 -0.4695 -1.2609
16945SOL     OW55964   2.771   7.480   8.115 -0.7709  0.1862 -1.0503
16945SOL    HW155965   2.851   7.526   8.141 -1.0308  0.0630  0.0036
16945SOL    HW255966   2.802   7.402   8.068 -0.2135 -0.7292  0.7862
16946SOL     OW55967   2.444   5.086   9.783  0.0874 -0.2186  0.1337
16946SOL    HW155968   2.431   5.106   9.690 -0.5087  0.2178  0.3054
16946SOL    HW255969   2.536   5.059   9.790  0.2571  0.1942 -0.5046
16947SOL     OW55970   1.646   9.496   7.048 -0.2742  0.7200 -0.1217
16947SOL    HW155971   1.702   9.430   7.009 -0.4253  0.6933 -0.2929
16947SOL    HW255972   1.683   9.510   7.136 -0.8159 -0.2931  0.2791
16948SOL     OW55973   7.359   2.985   9.429  0.1252 -0.0927  0.0231
16948SOL    HW155974   7.397   2.897   9.425 -0.0081 -0.1394 -0.2304
16948SOL    HW255975   7.425   3.037   9.474 -0.4237 -0.6520  1.4793
16949SOL     OW55976   1.411   3.863   3.958 -0.3692  0.0520 -0.1599
16949SOL    HW155977   1.333   3.815   3.932 -1.4742  1.7264 -0.0584
16949SOL    HW255978   1.447   3.814   4.031 -1.6729 -0.4222  0.1683
16950SOL     OW55979   2.832   8.255   4.967  0.2591 -0.4476  0.3011
16950SOL    HW155980   2.823   8.170   4.924  1.1462  0.4888 -1.7899
16950SOL    HW255981   2.746   8.295   4.961  0.2160 -0.5891 -0.0329
16951SOL     OW55982   3.013   6.672   5.957 -0.3730 -0.2856  0.0556
16951SOL    HW155983   3.011   6.731   5.882  2.8827  0.7207  0.6715
16951SOL    HW255984   2.973   6.723   6.028 -2.7838 -0.9721 -0.7788
16952SOL     OW55985  10.621   0.063   9.803 -0.0914 -0.3031 -0.4524
16952SOL    HW155986  10.533   0.033   9.780 -0.2983  1.1505 -1.6086
16952SOL    HW255987  10.680  -0.002   9.764 -0.6022 -0.5561 -0.7924
16953SOL     OW55988   5.067   1.108   8.413 -0.1589 -0.0102 -0.0727
16953SOL    HW155989   5.075   1.085   8.321 -1.6708  1.0937 -0.4885
16953SOL    HW255990   5.004   1.046   8.448 -1.7573  1.3743 -0.4500
16954SOL     OW55991  10.418   7.311   1.626  0.1460 -0.4479  0.0982
16954SOL    HW155992  10.404   7.217   1.614  0.5143 -0.6763  1.3510
16954SOL    HW255993  10.512   7.323   1.612 -0.2743  0.1454 -2.4871
16955SOL     OW55994   6.632   4.100   1.243  0.1363  0.7932 -0.1839
16955SOL    HW155995   6.611   4.052   1.163  0.9219  0.6210 -0.2880
16955SOL    HW255996   6.548   4.111   1.287 -0.4320  1.5682 -1.4073
16956SOL     OW55997   0.979   8.277   3.467 -0.6205  0.6527 -0.1506
16956SOL    HW155998   1.071   8.266   3.492 -0.0769 -0.6710 -2.5521
16956SOL    HW255999   0.931   8.272   3.550  1.3542 -0.0087  0.9924
16957SOL     OW56000   2.573   3.872  10.173  0.0793 -0.9954  0.1822
16957SOL    HW156001   2.555   3.910  10.087 -2.0127  2.8461  2.1709
16957SOL    HW256002   2.511   3.800  10.181 -1.2570  0.0505 -0.6339
16958SOL     OW56003   9.361   8.367   9.576 -0.3556  0.0832  0.8203
16958SOL    HW156004   9.400   8.361   9.488  0.5139 -0.7872  1.2551
16958SOL    HW256005   9.338   8.460   9.585  0.6188  0.4095  0.1247
16959SOL     OW56006   4.244   0.320   1.102 -0.4965  0.3549  0.0180
16959SOL    HW156007   4.232   0.316   1.197 -0.4477 -1.5865 -0.0514
16959SOL    HW256008   4.318   0.380   1.090  0.0436 -0.0403  1.2518
16960SOL     OW56009   1.950   3.807   5.228  0.0735 -0.3136  0.2181
16960SOL    HW156010   1.946   3.714   5.203  0.5501 -0.1136 -0.6147
16960SOL    HW256011   1.931   3.854   5.147  0.0233  0.3247  0.6011
16961SOL     OW56012   3.458   4.071   2.406  0.9264 -0.0478  0.4265
16961SOL    HW156013   3.504   3.997   2.367  0.6235  0.0819 -0.1803
16961SOL    HW256014   3.443   4.045   2.497 -1.5299 -1.8688 -0.4288
16962SOL     OW56015   0.049   2.887   2.960  0.4448 -0.1170  0.1605
16962SOL    HW156016   0.131   2.897   3.009  0.3540 -1.0759  0.5202
16962SOL    HW256017   0.041   2.968   2.911  2.5823 -0.7373 -1.3179
16963SOL     OW56018   5.317   6.762   2.056 -0.2169 -1.0027 -0.0503
16963SOL    HW156019   5.373   6.685   2.070  0.7787 -0.1593  0.6488
16963SOL    HW256020   5.321   6.777   1.961 -1.4594 -2.5795 -0.3834
16964SOL     OW56021   8.241   0.255   4.198  0.5903  0.8604 -0.2443
16964SOL    HW156022   8.246   0.351   4.199  0.5494  0.8937 -2.2140
16964SOL    HW256023   8.320   0.227   4.152 -0.0804  0.0167 -0.9009
16965SOL     OW56024   9.626   3.496   5.592 -0.0815  0.0438  0.6555
16965SOL    HW156025   9.665   3.564   5.647  0.6522 -0.2672  0.5274
16965SOL    HW256026   9.699   3.462   5.540 -0.5727 -0.3707  0.2278
16966SOL     OW56027   8.240   3.832   4.439  0.6835 -0.4870 -0.5533
16966SOL    HW156028   8.258   3.914   4.483  2.2439  0.3163 -2.5919
16966SOL    HW256029   8.158   3.846   4.392  0.0798 -0.6747  0.4303
16967SOL     OW56030   4.130   4.652   3.682 -0.2371 -0.0193  0.6749
16967SOL    HW156031   4.220   4.670   3.653 -0.1564  0.6104  1.3018
16967SOL    HW256032   4.135   4.566   3.723 -0.0751 -0.3176  0.0374
16968SOL     OW56033   6.025   7.188   5.327 -0.2405 -0.1231 -0.1596
16968SOL    HW156034   6.067   7.104   5.306 -0.0357  0.3621 -1.7849
16968SOL    HW256035   6.009   7.228   5.242  2.2855  2.7969  0.6555
16969SOL     OW56036   6.956   4.108   9.486  0.2592  0.9109 -0.5322
16969SOL    HW156037   7.026   4.046   9.505 -0.5855  0.0173 -0.3081
16969SOL    HW256038   6.875   4.058   9.498 -0.4793  2.3904  0.8682
16970SOL     OW56039   5.122   0.463   1.639 -0.6515  0.2210 -0.2272
16970SOL    HW156040   5.121   0.400   1.711  0.2701  0.6678  0.1908
16970SOL    HW256041   5.135   0.548   1.681  0.2242  0.4542 -0.9326
16971SOL     OW56042   8.540  10.426   5.705  0.3917 -0.0893  0.0376
16971SOL    HW156043   8.449  10.442   5.677  0.8838  0.6337 -1.2388
16971SOL    HW256044   8.549  10.331   5.704  0.1145 -0.1236 -1.4830
16972SOL     OW56045   5.284   1.540   2.791  0.2462  0.0973 -0.9281
16972SOL    HW156046   5.230   1.573   2.719  1.4890 -0.5988 -2.2066
16972SOL    HW256047   5.231   1.473   2.833 -0.6794  0.8512 -0.8829
16973SOL     OW56048   2.470   0.912   0.836  0.0021  0.1545 -0.0005
16973SOL    HW156049   2.415   0.842   0.801  1.4265 -0.3660 -1.2887
16973SOL    HW256050   2.417   0.991   0.828 -0.7250 -0.4055 -0.7752
16974SOL     OW56051   1.977   5.361   9.810 -0.2182  0.2991 -0.1730
16974SOL    HW156052   2.003   5.329   9.723  1.8441 -1.6701  1.1052
16974SOL    HW256053   2.049   5.418   9.837  0.1688 -0.7600  1.0873
16975SOL     OW56054  10.768   1.523   6.161 -0.7615 -0.4349  0.0439
16975SOL    HW156055  10.727   1.483   6.237  1.0340  0.7578  1.6756
16975SOL    HW256056  10.833   1.458   6.131 -0.2737 -0.1981  0.5816
16976SOL     OW56057   2.780   9.563   3.477  0.5108 -0.0901  0.1309
16976SOL    HW156058   2.790   9.505   3.553  2.0083  0.1431  0.1286
16976SOL    HW256059   2.866   9.602   3.465 -0.0398  0.8326 -0.9336
16977SOL     OW56060   1.812  10.864  10.298 -0.3496  0.0881 -0.5495
16977SOL    HW156061   1.766  10.789  10.334  0.7623 -1.3328 -2.0130
16977SOL    HW256062   1.750  10.903  10.236 -1.3365  1.0508  1.0357
16978SOL     OW56063  11.317  10.194  10.059  0.3753  0.0878 -0.8335
16978SOL    HW156064  11.292  10.265  10.000 -0.3995  0.8030  0.3435
16978SOL    HW256065  11.397  10.226  10.102 -0.2383  0.4728  0.0487
16979SOL     OW56066   9.116   8.232   9.531  0.0713 -0.1517 -0.1095
16979SOL    HW156067   9.107   8.195   9.619 -0.8384 -0.3968 -0.3016
16979SOL    HW256068   9.206   8.265   9.528  0.8340 -2.1025  0.1699
16980SOL     OW56069   2.527   4.361   2.484 -0.4353 -0.5011  0.3137
16980SOL    HW156070   2.509   4.268   2.493  0.3897 -0.6675  0.3341
16980SOL    HW256071   2.550   4.391   2.572  0.4350 -0.5338  0.1022
16981SOL     OW56072   6.325   8.575   4.421 -0.4542  0.7110 -0.1042
16981SOL    HW156073   6.298   8.643   4.359  1.2664  2.1218  0.6429
16981SOL    HW256074   6.354   8.624   4.498 -1.1608 -0.9718  1.2613
16982SOL     OW56075   8.185  11.334   5.528 -0.1093  0.4385 -0.1595
16982SOL    HW156076   8.231  11.274   5.588 -2.3131 -0.2102  0.9324
16982SOL    HW256077   8.246  11.407   5.516  1.5501 -0.7826  0.5748
16983SOL     OW56078   1.403   8.789   3.538  0.4767  0.2618  0.6656
16983SOL    HW156079   1.337   8.791   3.608 -1.1915  0.7073 -0.9004
16983SOL    HW256080   1.487   8.786   3.585 -0.6653 -1.1877  2.6702
16984SOL     OW56081   9.943   5.900   2.854  0.4271  0.1506  0.1426
16984SOL    HW156082   9.909   5.851   2.929  0.3083 -0.1708 -0.1175
16984SOL    HW256083   9.875   5.892   2.788  0.3753  0.7394  0.1265
16985SOL     OW56084   8.191   9.621   9.182 -0.5938 -0.2203  0.2540
16985SOL    HW156085   8.175   9.581   9.097 -2.3613 -1.7820  1.2760
16985SOL    HW256086   8.279   9.658   9.176 -0.8202 -0.0524 -2.3247
16986SOL     OW56087   2.012   6.242  11.063 -0.4104 -0.1517 -0.4835
16986SOL    HW156088   1.934   6.289  11.093  0.5777  0.1785  1.6337
16986SOL    HW256089   2.012   6.161  11.114 -0.6699 -1.2862 -2.2282
16987SOL     OW56090   8.625   9.575   7.627 -0.1003  0.1760  0.8610
16987SOL    HW156091   8.704   9.596   7.578 -0.2092 -0.6125  0.3425
16987SOL    HW256092   8.557   9.567   7.560 -0.9879  2.4760  1.4340
16988SOL     OW56093   9.898   4.297   8.072  0.1929 -0.1820 -0.1292
16988SOL    HW156094   9.957   4.222   8.078 -0.3152 -0.6852 -1.3726
16988SOL    HW256095   9.813   4.263   8.100  0.5134  0.5938  1.8772
16989SOL     OW56096   6.274   1.068   4.114  0.7773 -0.1845  0.3534
16989SOL    HW156097   6.269   0.972   4.117  2.0534 -0.2531  0.7037
16989SOL    HW256098   6.349   1.090   4.169  2.6046  0.8018 -2.4093
16990SOL     OW56099   4.139   7.925   3.698  0.6740 -0.0204 -0.2162
16990SOL    HW156100   4.167   7.875   3.621 -0.5401 -0.0639 -0.6438
16990SOL    HW256101   4.138   7.861   3.769  0.7352 -0.2290 -0.4008
16991SOL     OW56102   4.975   9.943  11.191 -0.2589 -0.0792  0.8276
16991SOL    HW156103   4.924   9.972  11.266 -1.9116 -0.6104 -0.0597
16991SOL    HW256104   4.910   9.923  11.123  1.1087 -0.8978 -0.2956
16992SOL     OW56105   7.506   0.259   8.965  0.2804  0.4231  0.3083
16992SOL    HW156106   7.428   0.234   9.014 -1.2731  1.9598 -1.2999
16992SOL    HW256107   7.524   0.185   8.907 -0.5739  0.4701 -0.0149
16993SOL     OW56108   1.651   8.273   3.711 -0.0062  0.0033 -0.0390
16993SOL    HW156109   1.677   8.359   3.745  0.0695  0.2710 -0.7696
16993SOL    HW256110   1.595   8.293   3.636 -0.0563 -0.5892 -0.1583
16994SOL     OW56111   3.674   3.394   4.406 -0.4741 -0.2978 -0.6685
16994SOL    HW156112   3.640   3.432   4.487  1.0122  1.9090 -1.0512
16994SOL    HW256113   3.596   3.357   4.363 -1.8878  1.8183  0.0041
16995SOL     OW56114   3.303   1.480   3.844 -0.1968 -0.1331  0.8235
16995SOL    HW156115   3.349   1.533   3.909  1.7365  0.3095 -0.8831
16995SOL    HW256116   3.358   1.402   3.834 -0.9814 -0.6347  0.4058
16996SOL     OW56117   8.677   9.967   6.567 -0.1564 -0.3802  0.3061
16996SOL    HW156118   8.739  10.039   6.572  0.0143 -0.5154  0.1581
16996SOL    HW256119   8.663   9.940   6.658 -0.0424 -0.3126  0.3426
16997SOL     OW56120   4.377   4.689   2.296 -0.4314  0.0053 -0.0488
16997SOL    HW156121   4.458   4.659   2.338 -0.6634 -0.9866 -0.2969
16997SOL    HW256122   4.322   4.719   2.369 -0.4779 -0.8658  0.2836
16998SOL     OW56123   4.308   3.890   8.326 -0.1816 -0.7589 -0.3665
16998SOL    HW156124   4.224   3.875   8.282 -0.2373  1.1249 -0.9728
16998SOL    HW256125   4.320   3.814   8.382 -1.4867 -1.8576 -1.5370
16999SOL     OW56126   0.593   8.678   5.756  0.7232 -0.3417  0.0521
16999SOL    HW156127   0.625   8.623   5.685  2.2603  0.8832 -0.2368
16999SOL    HW256128   0.572   8.617   5.827 -0.8101 -1.5672 -1.4240
17000SOL     OW56129   4.633   8.364  10.633 -0.2135 -0.5347  0.4130
17000SOL    HW156130   4.717   8.352  10.589 -1.1003  2.1508 -2.1104
17000SOL    HW256131   4.656   8.398  10.719  1.2654  2.2574 -1.0213
17001SOL     OW56132   4.105   1.160   9.196 -0.4855  0.2025  0.2991
17001SOL    HW156133   4.158   1.239   9.190 -1.8458  1.0130 -1.9387
17001SOL    HW256134   4.055   1.171   9.277  0.6177  0.7851  0.9178
17002SOL     OW56135   1.988   6.177   6.505  0.4665  0.1292  0.4686
17002SOL    HW156136   1.983   6.159   6.599  1.5706 -0.2651  0.4664
17002SOL    HW256137   2.028   6.264   6.499 -1.5659  1.0659  0.4037
17003SOL     OW56138   4.235   4.861   2.105 -0.4698  0.4700 -0.8860
17003SOL    HW156139   4.227   4.809   2.025  2.1860 -0.9175 -0.2895
17003SOL    HW256140   4.289   4.808   2.163 -1.6551  1.8255  1.5396
17004SOL     OW56141   6.019   0.526   9.605 -0.0582 -0.0293 -0.1420
17004SOL    HW156142   6.095   0.491   9.652  0.9207  0.6052 -1.1872
17004SOL    HW256143   5.995   0.605   9.653  0.4762  0.2226 -0.2856
17005SOL     OW56144   8.519   6.008   3.057  0.1846  0.0149 -0.0049
17005SOL    HW156145   8.565   5.977   2.979 -0.3185 -1.3171  0.2239
17005SOL    HW256146   8.441   6.051   3.022  0.3277  0.0616 -0.2664
17006SOL     OW56147   7.731   1.310  10.056  0.2771 -0.4925  0.6860
17006SOL    HW156148   7.790   1.249  10.099 -0.5821  0.3537  3.1104
17006SOL    HW256149   7.786   1.386  10.033  0.8835 -1.2468 -0.4222
17007SOL     OW56150   8.760   9.509   9.256  0.7063  0.4038  0.4071
17007SOL    HW156151   8.735   9.418   9.273  0.3328  0.7521  1.7949
17007SOL    HW256152   8.702   9.537   9.185 -0.0897 -0.0462  0.8664
17008SOL     OW56153   6.721   6.893   9.693 -0.3591  0.1893  0.2172
17008SOL    HW156154   6.632   6.895   9.729 -0.5419 -1.6685 -0.1031
17008SOL    HW256155   6.714   6.939   9.609 -0.9725  0.2485  0.3016
17009SOL     OW56156  11.239  11.269   5.552 -0.0956  0.3224  0.1447
17009SOL    HW156157  11.225  11.265   5.646 -0.7350 -1.4763 -0.0153
17009SOL    HW256158  11.163  11.225   5.514  0.0888  1.1466 -1.2337
17010SOL     OW56159   1.608   9.538   0.934 -0.0595  0.8870 -0.0143
17010SOL    HW156160   1.585   9.621   0.894 -0.3726  2.0504  2.4839
17010SOL    HW256161   1.704   9.538   0.937  0.1030 -0.5318 -3.3827
17011SOL     OW56162   8.689   4.856   5.261 -0.1476 -0.1370  0.6152
17011SOL    HW156163   8.773   4.861   5.308  0.5136 -1.5062 -0.3755
17011SOL    HW256164   8.712   4.880   5.171 -0.7368 -0.9742  0.2447
17012SOL     OW56165   5.157  10.360   8.146  0.1711 -0.2782  0.0962
17012SOL    HW156166   5.093  10.322   8.085 -0.2437  0.3815  0.1091
17012SOL    HW256167   5.188  10.287   8.198 -1.3274 -0.4510  0.7679
17013SOL     OW56168   7.388   0.206   2.796  0.0171 -0.1921  0.2845
17013SOL    HW156169   7.393   0.222   2.890 -0.0402 -1.0020  0.4252
17013SOL    HW256170   7.299   0.175   2.781 -0.4149  1.2420 -0.2463
17014SOL     OW56171   3.570   8.526   7.589  0.1803 -0.2142 -0.4286
17014SOL    HW156172   3.598   8.611   7.555 -0.0688  0.6016  1.3788
17014SOL    HW256173   3.650   8.486   7.623  0.2380 -0.5690 -0.9735
17015SOL     OW56174   7.834  10.087   1.557 -0.2209 -0.3618  0.2374
17015SOL    HW156175   7.815  10.007   1.508 -0.4588  0.7486 -1.5110
17015SOL    HW256176   7.912  10.066   1.608 -0.4545 -1.8021  0.0172
17016SOL     OW56177  10.947   0.510   5.818 -0.1192  0.3860 -0.7105
17016SOL    HW156178  10.866   0.535   5.862  1.2345  0.2818  1.9709
17016SOL    HW256179  10.988   0.593   5.794  0.2140  0.5022  0.2677
17017SOL     OW56180   3.783   4.705   5.943  0.1359 -0.2371 -0.1361
17017SOL    HW156181   3.737   4.726   6.024  0.7001  1.2474 -0.1701
17017SOL    HW256182   3.824   4.788   5.918 -0.4596 -0.5533 -2.2180
17018SOL     OW56183   0.720   6.469   0.453 -0.3951 -0.4024  0.0610
17018SOL    HW156184   0.657   6.539   0.436  0.2817  0.5408  1.3597
17018SOL    HW256185   0.714   6.412   0.376 -1.8796  0.3835 -0.4201
17019SOL     OW56186   4.554   9.826   2.223 -0.3773 -0.5673 -0.0313
17019SOL    HW156187   4.544   9.832   2.128 -0.7580 -0.6825  0.0022
17019SOL    HW256188   4.550   9.732   2.242  2.1578 -0.7435 -0.1711
17020SOL     OW56189   6.615   6.676   0.865 -0.4578  0.8214  0.3615
17020SOL    HW156190   6.647   6.758   0.903 -0.2830  0.6120  0.6646
17020SOL    HW256191   6.679   6.653   0.798 -0.4187  0.8398  0.3929
17021SOL     OW56192   8.344   4.101   4.545  0.0324 -0.1948 -0.2327
17021SOL    HW156193   8.383   4.071   4.627  0.9586 -1.9336 -1.2830
17021SOL    HW256194   8.283   4.170   4.571 -0.2945 -1.2986  2.0081
17022SOL     OW56195   8.529   3.315   3.264  0.7984  0.4572 -0.2638
17022SOL    HW156196   8.602   3.277   3.312  1.0920 -0.1328 -1.1690
17022SOL    HW256197   8.570   3.372   3.199  0.6037 -1.7982 -2.4564
17023SOL     OW56198   1.963   6.314   6.182 -0.1185 -0.2439  0.4735
17023SOL    HW156199   1.952   6.381   6.115 -0.0697  0.9495  1.6256
17023SOL    HW256200   1.875   6.283   6.202 -0.0234 -1.6074 -1.1127
17024SOL     OW56201   1.927   4.734   0.811  0.4482  0.2986  0.3765
17024SOL    HW156202   1.991   4.696   0.870  0.6949 -0.9517 -0.6584
17024SOL    HW256203   1.973   4.806   0.768  1.0392 -0.3490 -0.0785
17025SOL     OW56204   7.346   6.907   2.311  0.7953 -0.0727  0.3283
17025SOL    HW156205   7.423   6.860   2.279  1.2712  0.1995  1.0526
17025SOL    HW256206   7.381   6.987   2.352  0.2484 -0.5520  1.7884
17026SOL     OW56207   0.843   5.864   7.730  0.4516 -0.2350 -0.0509
17026SOL    HW156208   0.791   5.930   7.775 -1.8241 -0.4804 -2.2095
17026SOL    HW256209   0.893   5.913   7.664 -0.3129 -0.4914 -0.8342
17027SOL     OW56210   9.270   0.530   4.115  0.2457 -0.2093  0.3999
17027SOL    HW156211   9.207   0.602   4.107 -1.4833 -1.8532 -1.2742
17027SOL    HW256212   9.245   0.486   4.197 -1.1988 -1.2049 -0.5514
17028SOL     OW56213   2.852   5.471   7.551 -0.6293 -0.1933  0.1903
17028SOL    HW156214   2.933   5.507   7.587 -0.0952  0.0785 -1.2655
17028SOL    HW256215   2.785   5.499   7.613  0.2009  0.7912  0.6712
17029SOL     OW56216   8.928   6.703  10.080  0.1141 -0.2140 -0.2468
17029SOL    HW156217   8.905   6.694   9.988  1.3615 -0.3575 -0.5500
17029SOL    HW256218   8.891   6.787  10.106 -1.0683 -0.6049 -0.6109
17030SOL     OW56219   4.178   1.035   0.586  0.4513  0.0606  0.1482
17030SOL    HW156220   4.217   0.962   0.538  1.3053 -0.0661  1.0185
17030SOL    HW256221   4.100   0.997   0.628 -0.2483  0.1531 -1.0633
17031SOL     OW56222   2.890  10.720   3.186  0.4070 -0.2792  0.4735
17031SOL    HW156223   2.806  10.739   3.228 -1.0085  0.5261 -2.6070
17031SOL    HW256224   2.949  10.788   3.219 -0.8645  0.7693  0.6591
17032SOL     OW56225   5.836   0.829   7.630  0.2407  0.3554 -0.8460
17032SOL    HW156226   5.900   0.820   7.700  0.7862 -1.7217 -1.5925
17032SOL    HW256227   5.852   0.916   7.594  1.5483  0.4957  0.0372
17033SOL     OW56228  10.089   3.106   6.547 -0.0404  0.4094 -0.7673
17033SOL    HW156229  10.029   3.108   6.621 -2.1059 -1.1519 -2.3469
17033SOL    HW256230  10.070   3.186   6.498 -0.8547 -0.0884 -1.2713
17034SOL     OW56231   6.557  10.368  10.937  0.0051  0.9094 -0.0300
17034SOL    HW156232   6.463  10.351  10.938  0.2564 -0.5987  2.1582
17034SOL    HW256233   6.587  10.327  10.856 -0.9119 -0.5062  0.3231
17035SOL     OW56234   5.926  10.484   5.647 -0.5335  0.2164 -0.4058
17035SOL    HW156235   5.936  10.469   5.553 -0.9259 -0.7746 -0.3012
17035SOL    HW256236   5.911  10.396   5.683  0.7710  0.4311  0.7219
17036SOL     OW56237  10.028   0.703  10.515  0.5747 -0.6111 -0.1665
17036SOL    HW156238   9.975   0.779  10.537  0.0557 -0.5485 -1.5445
17036SOL    HW256239  10.110   0.740  10.482  1.2552 -0.6976  1.4021
17037SOL     OW56240   0.342  10.274   1.500  0.2976 -0.0684  0.3887
17037SOL    HW156241   0.261  10.324   1.489  1.0509  0.7571 -1.5594
17037SOL    HW256242   0.406  10.339   1.528  1.0589 -0.1080 -1.2430
17038SOL     OW56243   2.742   7.432  10.631  0.0617  0.5428 -0.2540
17038SOL    HW156244   2.733   7.521  10.666 -0.4687  0.2964  0.2367
17038SOL    HW256245   2.662   7.418  10.580 -0.1135  0.1316  0.1403
17039SOL     OW56246   1.098   2.038   3.299 -0.3774 -0.0748  0.0928
17039SOL    HW156247   1.009   2.071   3.307 -0.7020 -0.6791 -0.8322
17039SOL    HW256248   1.088   1.943   3.298  0.2466 -0.1421 -0.2819
17040SOL     OW56249   7.057  10.302   0.236  0.2562  0.1386 -0.0012
17040SOL    HW156250   7.075  10.244   0.310  0.9508 -0.0822 -0.3359
17040SOL    HW256251   7.125  10.369   0.242  0.9289 -0.4352 -1.0075
17041SOL     OW56252  11.047   2.489   2.092  0.3747  0.2244 -0.2783
17041SOL    HW156253  11.079   2.565   2.141 -0.7041 -0.5955  1.7649
17041SOL    HW256254  10.965   2.519   2.053 -1.2217 -0.5053  2.3873
17042SOL     OW56255   8.241   1.974   4.222 -0.2057  1.0158 -0.3300
17042SOL    HW156256   8.167   1.958   4.280  0.0397 -1.3204 -0.6229
17042SOL    HW256257   8.205   2.026   4.150 -0.8255  2.6417  1.1008
17043SOL     OW56258   3.835   6.475   2.899 -0.4069 -0.1784  0.4821
17043SOL    HW156259   3.741   6.462   2.903 -0.8036  2.6306  0.8067
17043SOL    HW256260   3.861   6.499   2.988  0.5997 -0.7338  0.3558
17044SOL     OW56261   7.187   9.212   2.744 -0.2475 -0.0126 -0.1731
17044SOL    HW156262   7.262   9.242   2.693  0.4389  0.7927  1.2761
17044SOL    HW256263   7.176   9.278   2.812 -1.7698 -0.5418  0.1136
17045SOL     OW56264   3.263  11.055   3.566  0.0023 -0.6131  0.1548
17045SOL    HW156265   3.209  11.080   3.491 -0.0731 -0.8220  0.1405
17045SOL    HW256266   3.207  10.998   3.618 -0.3255  0.4266  0.9393
17046SOL     OW56267   5.647   6.063   8.796 -0.2818  0.3504 -0.3088
17046SOL    HW156268   5.678   6.007   8.867  0.8184  2.0555  0.6087
17046SOL    HW256269   5.710   6.049   8.725  0.1097  0.5564 -0.0063
17047SOL     OW56270   4.813   1.069   6.185 -0.1691  0.4260 -0.0678
17047SOL    HW156271   4.877   1.139   6.170  0.6619 -0.3545 -0.2878
17047SOL    HW256272   4.774   1.054   6.099  0.7728 -0.4265 -0.3607
17048SOL     OW56273   6.405   5.740   4.419 -0.0791  0.1658  0.4049
17048SOL    HW156274   6.382   5.668   4.360 -0.9332  0.7701 -0.0150
17048SOL    HW256275   6.500   5.736   4.426 -0.2589 -2.4701  2.2369
17049SOL     OW56276   4.418   8.256   2.529  0.2850  0.6295 -0.4592
17049SOL    HW156277   4.502   8.226   2.564 -0.9993  0.1885  2.3106
17049SOL    HW256278   4.372   8.176   2.506 -0.8377  0.6772  1.5258
17050SOL     OW56279   9.387   9.846   8.070  0.1790 -0.3820  0.5659
17050SOL    HW156280   9.457   9.826   8.132 -0.5506 -0.9780  1.2146
17050SOL    HW256281   9.306   9.823   8.117 -0.2984 -2.5464 -1.1960
17051SOL     OW56282   2.556   8.101   0.874 -0.0593 -0.1111 -0.2826
17051SOL    HW156283   2.468   8.094   0.910 -0.8165 -0.3939 -2.1295
17051SOL    HW256284   2.578   8.194   0.884 -0.7887  0.0740 -0.3342
17052SOL     OW56285   0.751   4.113   9.610 -0.2587 -0.3146 -0.1540
17052SOL    HW156286   0.747   4.017   9.600  0.8489 -0.3967  0.1751
17052SOL    HW256287   0.729   4.146   9.523 -1.0964 -0.8598 -0.1603
17053SOL     OW56288   7.020   9.478   2.557  0.0963 -1.2244  0.1385
17053SOL    HW156289   7.068   9.487   2.640  0.7535 -0.8358 -0.2771
17053SOL    HW256290   7.057   9.546   2.501 -2.0769  0.1434  0.3246
17054SOL     OW56291  10.220   3.859   0.902  0.5649 -0.4055  0.1512
17054SOL    HW156292  10.143   3.808   0.880 -0.5129  0.7160  1.2969
17054SOL    HW256293  10.202   3.947   0.867 -0.0444  0.7024  3.1681
17055SOL     OW56294   9.057   5.355   2.549 -0.2368  0.0414  0.3271
17055SOL    HW156295   9.112   5.429   2.571 -1.2252  0.3433  1.8567
17055SOL    HW256296   8.970   5.379   2.581 -0.6781 -1.5374  0.3635
17056SOL     OW56297   6.030   3.523   5.578 -0.2151  0.1187 -0.7929
17056SOL    HW156298   6.049   3.491   5.489 -4.2228  0.0466 -1.7597
17056SOL    HW256299   6.042   3.447   5.634  2.6282  0.2289 -1.1904
17057SOL     OW56300   5.308   8.200   1.190  0.0733 -0.0824 -0.0165
17057SOL    HW156301   5.231   8.164   1.234 -0.3177 -1.2912 -1.6755
17057SOL    HW256302   5.298   8.295   1.199 -1.5821 -0.2284 -0.1605
17058SOL     OW56303   0.885   2.727   7.053  0.1839 -0.1891  0.7835
17058SOL    HW156304   0.877   2.807   7.105 -1.6500  1.0962 -1.3646
17058SOL    HW256305   0.812   2.672   7.082 -0.7318  0.4545 -0.2376
17059SOL     OW56306   9.515   5.349  10.034  0.0010 -0.3643  0.2054
17059SOL    HW156307   9.467   5.270  10.058 -0.6269  0.4969  1.8229
17059SOL    HW256308   9.469   5.383   9.957  0.4153 -1.6682 -0.6568
17060SOL     OW56309   0.534   1.826   5.465 -0.4495 -0.4775  0.4421
17060SOL    HW156310   0.624   1.808   5.493 -0.3331  1.5593  1.4347
17060SOL    HW256311   0.485   1.832   5.547 -0.8114  1.9096  0.0811
17061SOL     OW56312   6.323   3.116   4.691  0.2522  0.3609  0.1048
17061SOL    HW156313   6.369   3.039   4.722 -0.5838 -0.2101 -0.0503
17061SOL    HW256314   6.381   3.189   4.711  0.4824 -0.1802  1.4169
17062SOL     OW56315  10.119   8.464   5.407  0.4573 -0.9419 -0.5383
17062SOL    HW156316  10.203   8.501   5.435  0.5810 -1.2618 -0.4920
17062SOL    HW256317  10.137   8.371   5.393  0.1947 -0.9416 -0.8696
17063SOL     OW56318  10.157  10.891  10.698 -0.1333 -0.2516 -0.4264
17063SOL    HW156319  10.104  10.812  10.701 -0.4880 -0.0386 -1.1017
17063SOL    HW256320  10.170  10.915  10.790 -3.5190  1.2350 -0.2810
17064SOL     OW56321   6.241   3.971   8.189 -0.6324  0.2106 -0.3479
17064SOL    HW156322   6.181   4.046   8.196  0.3988  0.9934  0.1208
17064SOL    HW256323   6.311   3.990   8.251  2.4704  1.4887 -4.0319
17065SOL     OW56324   8.847   3.304   8.471 -0.5869  0.0540 -0.0627
17065SOL    HW156325   8.803   3.323   8.388  0.1855 -2.0672 -0.9677
17065SOL    HW256326   8.777   3.270   8.527 -1.0867  1.3749  0.1516
17066SOL     OW56327   3.431   3.641   8.952 -0.0924 -0.3630 -0.1466
17066SOL    HW156328   3.386   3.660   9.035 -0.5692 -2.0172 -0.0087
17066SOL    HW256329   3.360   3.623   8.890  0.3139 -1.0274 -0.4281
17067SOL     OW56330   9.732   3.518  11.253  0.4804  0.1872  0.2677
17067SOL    HW156331   9.738   3.446  11.316 -1.6675 -0.1701  0.1229
17067SOL    HW256332   9.760   3.595  11.302  2.5102 -0.6734  0.5169
17068SOL     OW56333  10.622   3.002   3.148  0.0292 -0.1022 -0.2487
17068SOL    HW156334  10.610   2.910   3.169 -1.4448 -0.3135 -1.9225
17068SOL    HW256335  10.633   3.004   3.053 -0.1822  1.4710 -0.2532
17069SOL     OW56336   8.331   3.444   5.728 -0.5468  0.1823 -0.1751
17069SOL    HW156337   8.352   3.531   5.697 -1.1155  0.7463  0.9939
17069SOL    HW256338   8.402   3.388   5.695 -0.7371  0.8936 -1.7979
17070SOL     OW56339   7.845   2.737   5.955 -0.1757 -0.1398  0.0368
17070SOL    HW156340   7.775   2.803   5.963  0.4057  0.6093 -0.9840
17070SOL    HW256341   7.814   2.677   5.887  0.4660  0.5666 -0.8838
17071SOL     OW56342   5.344   8.537   2.054  0.1782  0.2320  0.1055
17071SOL    HW156343   5.269   8.543   2.113 -0.0681  0.3751 -0.2241
17071SOL    HW256344   5.315   8.478   1.984 -0.1259  1.4023 -0.7673
17072SOL     OW56345  11.049   5.305   3.375  0.1443  0.3240 -0.0851
17072SOL    HW156346  11.063   5.297   3.280 -1.8164 -3.6660 -0.1358
17072SOL    HW256347  10.968   5.356   3.382 -1.1774 -1.5975 -0.7233
17073SOL     OW56348   8.400   0.731   9.988 -0.3967  0.4977  0.4239
17073SOL    HW156349   8.413   0.646  10.029  0.4998 -0.6442 -2.1369
17073SOL    HW256350   8.478   0.781  10.011 -1.2692  0.9241  2.5558
17074SOL     OW56351   1.781   5.689   6.389  0.1616 -0.3044  0.6343
17074SOL    HW156352   1.741   5.637   6.318 -0.2677 -0.3135  0.8814
17074SOL    HW256353   1.793   5.776   6.351  1.9928 -0.8965 -0.1750
17075SOL     OW56354   9.789   5.364   2.654 -0.8507 -0.5322  0.2251
17075SOL    HW156355   9.721   5.419   2.695 -0.9163 -1.4214  1.3219
17075SOL    HW256356   9.829   5.318   2.727  0.7243 -0.2668 -0.4652
17076SOL     OW56357   2.044   6.683   6.256  0.3846 -0.5250  0.0095
17076SOL    HW156358   2.049   6.614   6.322 -1.7194  0.0462  0.7939
17076SOL    HW256359   1.981   6.651   6.192  1.9835 -0.8195 -1.4362
17077SOL     OW56360   8.890   1.176   3.808  0.3555  0.3164 -0.5771
17077SOL    HW156361   8.913   1.268   3.819 -0.4782  0.6503 -1.5391
17077SOL    HW256362   8.972   1.128   3.824  1.0244  1.2894 -1.0420
17078SOL     OW56363   0.148   5.650  10.959 -0.3103 -0.0871  0.1589
17078SOL    HW156364   0.151   5.578  10.897  1.8570 -0.0260  0.1500
17078SOL    HW256365   0.055   5.668  10.971 -0.8200 -1.7999 -1.0788
17079SOL     OW56366   0.301   8.084   2.523 -0.6102  0.1816 -0.1006
17079SOL    HW156367   0.284   8.171   2.559  0.7994  0.6242 -0.4652
17079SOL    HW256368   0.298   8.026   2.598 -2.2870  0.4255  0.0445
17080SOL     OW56369   9.617   6.796   6.682  0.4503 -1.0999  0.1882
17080SOL    HW156370   9.697   6.778   6.633  0.7644  1.0215 -0.1507
17080SOL    HW256371   9.643   6.795   6.774  0.6626 -1.3887  0.1224
17081SOL     OW56372   8.241   7.623  10.482  0.1865 -0.0249 -0.0246
17081SOL    HW156373   8.257   7.539  10.438 -0.4711 -0.4993  0.6179
17081SOL    HW256374   8.288   7.615  10.565  2.1183  1.1934 -0.9853
17082SOL     OW56375   6.929   0.792   7.456  0.5561  0.5959 -0.8626
17082SOL    HW156376   6.843   0.753   7.443 -0.7013  3.1088 -0.4818
17082SOL    HW256377   6.958   0.761   7.542  0.1660 -0.4543 -1.1040
17083SOL     OW56378   2.856   2.089   0.542 -0.0214  0.0539 -0.0847
17083SOL    HW156379   2.823   2.004   0.573 -0.6403 -0.1932 -1.3685
17083SOL    HW256380   2.840   2.087   0.448  4.2828 -0.3400 -0.9077
17084SOL     OW56381   3.475   1.360   4.923  0.0463  0.5168 -0.4782
17084SOL    HW156382   3.383   1.386   4.921 -0.3274 -0.7985 -0.6798
17084SOL    HW256383   3.505   1.385   5.011 -0.1353  2.1351 -0.8604
17085SOL     OW56384   2.819   1.293   1.507  0.3405 -0.4091  0.2822
17085SOL    HW156385   2.726   1.273   1.515 -0.1626  1.3516 -0.8611
17085SOL    HW256386   2.850   1.232   1.439 -0.0752 -0.6775  0.3294
17086SOL     OW56387   0.472   2.778   0.706 -0.4940  0.0779  0.1907
17086SOL    HW156388   0.422   2.808   0.631  1.8836 -1.1832 -1.9968
17086SOL    HW256389   0.541   2.843   0.718  0.3468 -0.7534 -0.0173
17087SOL     OW56390   1.423   2.639   7.521  0.0635  0.2327 -0.7611
17087SOL    HW156391   1.479   2.692   7.578 -0.3991 -0.2036  0.1213
17087SOL    HW256392   1.411   2.557   7.569  0.7838 -0.6841 -2.1166
17088SOL     OW56393   4.152   1.757   9.949 -0.1625 -0.3148  0.0775
17088SOL    HW156394   4.090   1.828   9.966 -0.8652 -1.3970  2.1791
17088SOL    HW256395   4.096   1.683   9.925  0.4883 -0.5482 -0.7336
17089SOL     OW56396   9.147   9.406   0.968  0.7799 -0.5541  0.3158
17089SOL    HW156397   9.097   9.482   0.938  0.7790 -0.6813 -0.0075
17089SOL    HW256398   9.196   9.378   0.891 -0.6692 -2.0411 -0.1229
17090SOL     OW56399   4.378   2.789   0.154  0.0625  0.4771 -0.0023
17090SOL    HW156400   4.318   2.724   0.190  0.2398 -1.0317 -2.3129
17090SOL    HW256401   4.464   2.747   0.155  0.6715  1.7113  1.0170
17091SOL     OW56402   8.417   9.194   9.439 -0.0840 -0.5282 -0.1797
17091SOL    HW156403   8.363   9.262   9.397 -1.3131 -1.0098  0.5938
17091SOL    HW256404   8.360   9.157   9.506  1.4208 -0.6622  1.0445
17092SOL     OW56405   8.829   7.730   4.024 -0.2257 -0.3772  0.4862
17092SOL    HW156406   8.772   7.701   4.095 -1.4733  1.5853  0.3446
17092SOL    HW256407   8.913   7.747   4.066  0.1233 -2.7560  0.8016
17093SOL     OW56408  10.560   9.241   4.170  0.4575 -0.0517  0.3793
17093SOL    HW156409  10.465   9.256   4.171  0.8193  2.4104  0.9948
17093SOL    HW256410  10.586   9.265   4.081  0.3824 -1.7340 -0.1167
17094SOL     OW56411   1.713   3.532   0.033  0.5455 -0.0128 -0.5374
17094SOL    HW156412   1.680   3.611  -0.011  0.0629  0.8414  1.2941
17094SOL    HW256413   1.779   3.565   0.094 -1.6230 -0.6389  2.2721
17095SOL     OW56414   6.397   2.542  11.322 -0.3229 -0.3144 -0.4287
17095SOL    HW156415   6.365   2.616  11.270 -2.5198 -1.0104 -0.1352
17095SOL    HW256416   6.418   2.474  11.257  2.5171  0.8192 -0.7578
17096SOL     OW56417   3.360  10.341   8.637  0.3688 -0.4386  0.2386
17096SOL    HW156418   3.309  10.324   8.716  1.8913  0.1745  1.3787
17096SOL    HW256419   3.355  10.436   8.625 -2.5075 -0.8400 -2.2592
17097SOL     OW56420   7.598   8.245   3.913  0.1140  0.0551  0.2648
17097SOL    HW156421   7.544   8.167   3.927 -1.1721  0.7525 -0.7252
17097SOL    HW256422   7.567   8.281   3.830  0.8068  1.5376  0.6367
17098SOL     OW56423   6.609   9.711   8.467 -0.2283 -0.0253  0.1658
17098SOL    HW156424   6.667   9.669   8.404  0.6774 -0.7976  1.4773
17098SOL    HW256425   6.667   9.738   8.539 -1.1994  1.0333  0.5679
17099SOL     OW56426   7.390   1.352   8.106 -0.0757  0.1584  0.0306
17099SOL    HW156427   7.309   1.377   8.151 -0.0013  2.1118 -0.8665
17099SOL    HW256428   7.359   1.302   8.030 -0.2506 -2.0771  1.5100
17100SOL     OW56429   2.088   2.198   1.541 -0.0493 -0.2726 -0.4662
17100SOL    HW156430   2.083   2.121   1.597  1.0517 -1.2903 -1.7241
17100SOL    HW256431   2.113   2.269   1.600  0.3817 -1.1741  0.4637
17101SOL     OW56432   3.747  10.257   3.763 -0.7651 -0.3696  0.0499
17101SOL    HW156433   3.820  10.269   3.824  0.4083 -0.9476 -1.2026
17101SOL    HW256434   3.740  10.340   3.717 -0.9644 -0.2764  0.2528
17102SOL     OW56435   2.667   5.969  10.443  0.6428  0.1932 -0.1698
17102SOL    HW156436   2.653   5.962  10.349  1.1391 -0.0891 -0.2226
17102SOL    HW256437   2.649   6.061  10.463 -2.8234 -0.4526  0.0274
17103SOL     OW56438   3.315   6.519   7.264 -0.2003  0.2408  0.0427
17103SOL    HW156439   3.229   6.505   7.304 -0.3370  1.8444  0.3511
17103SOL    HW256440   3.374   6.463   7.315 -0.9815 -0.5361  0.1072
17104SOL     OW56441   6.331   3.058   2.946 -0.3132 -0.6355 -0.3951
17104SOL    HW156442   6.295   3.131   2.998  0.6268 -0.7776  0.4830
17104SOL    HW256443   6.256   3.002   2.928 -1.3264  1.2921 -2.3442
17105SOL     OW56444   4.901   7.001   9.893  0.5461  0.2191  0.0579
17105SOL    HW156445   4.862   6.988   9.980 -1.7942 -0.3116 -1.0255
17105SOL    HW256446   4.832   6.975   9.832  2.3751 -0.0052 -1.9637
17106SOL     OW56447   9.393   8.356   3.159 -0.3542 -0.1835  0.2093
17106SOL    HW156448   9.343   8.359   3.077 -0.8161 -1.7448  0.4258
17106SOL    HW256449   9.452   8.432   3.153 -0.3161 -0.3145 -1.6066
17107SOL     OW56450   3.643   5.155   1.673 -0.7476  1.0928 -0.2338
17107SOL    HW156451   3.674   5.121   1.757 -1.3265  0.4108 -0.2909
17107SOL    HW256452   3.710   5.127   1.610  0.0469  2.2094  0.1002
17108SOL     OW56453   7.646   7.222   1.844  0.0296  0.0025 -0.6873
17108SOL    HW156454   7.666   7.315   1.851  1.0889 -0.0660 -2.4853
17108SOL    HW256455   7.576   7.207   1.907  2.0309  1.3627  1.9343
17109SOL     OW56456   4.575   3.204   4.324 -0.0126 -0.0028 -0.0732
17109SOL    HW156457   4.580   3.169   4.235 -0.8868  0.7060 -0.4091
17109SOL    HW256458   4.592   3.128   4.380 -0.9506 -0.7834 -0.8123
17110SOL     OW56459  11.290  11.314   0.757 -0.5136 -0.3536 -0.1812
17110SOL    HW156460  11.378  11.275   0.756  0.1196  1.0025  1.3812
17110SOL    HW256461  11.303  11.402   0.791 -2.2778  0.4092 -1.4213
17111SOL     OW56462  10.407   6.898  10.554 -0.0712  0.9616 -0.1583
17111SOL    HW156463  10.386   6.911  10.461 -2.1613  0.4239  0.2284
17111SOL    HW256464  10.359   6.968  10.599 -1.5570 -0.6700  0.8087
17112SOL     OW56465   6.539  11.097   2.656  0.0400 -0.2972 -0.1769
17112SOL    HW156466   6.506  11.088   2.745  1.6855  0.5951  0.5486
17112SOL    HW256467   6.575  11.011   2.635  1.8884  0.1572  0.9835
17113SOL     OW56468   3.811  11.046   6.289 -0.3436  0.3984 -0.0489
17113SOL    HW156469   3.875  11.054   6.360 -2.2896  1.5078  1.6175
17113SOL    HW256470   3.777  10.957   6.298 -0.7808  0.6281  0.5851
17114SOL     OW56471   9.321   6.433   4.915  0.1149 -0.2931 -0.5365
17114SOL    HW156472   9.314   6.500   4.847 -1.0236  0.0231 -0.1187
17114SOL    HW256473   9.237   6.437   4.961  1.1811  0.1015  1.4365
17115SOL     OW56474   5.817   0.555   7.115 -0.5970  0.2970  0.2311
17115SOL    HW156475   5.811   0.476   7.170  0.9219  0.3583  0.5013
17115SOL    HW256476   5.835   0.626   7.177  0.5396  0.4578 -0.2613
17116SOL     OW56477   0.128   0.392   7.369  0.0072  0.2194  0.1713
17116SOL    HW156478   0.094   0.341   7.442 -1.2600  0.3904 -0.2746
17116SOL    HW256479   0.062   0.461   7.356 -0.0248 -0.1037 -1.4338
17117SOL     OW56480   2.923   5.231   9.921 -0.2494 -0.3899  0.3920
17117SOL    HW156481   2.989   5.239   9.852 -0.2666  0.1558  0.4394
17117SOL    HW256482   2.973   5.215  10.001 -0.1993 -0.3819  0.3618
17118SOL     OW56483  10.757   5.042   3.417 -0.2441 -0.4053  0.4393
17118SOL    HW156484  10.716   5.122   3.448  2.1540  0.0648  2.4820
17118SOL    HW256485  10.709   4.972   3.461 -1.3680 -0.0743 -0.2187
17119SOL     OW56486   9.886   5.733   6.547 -0.1827 -0.0534  0.4810
17119SOL    HW156487   9.802   5.751   6.588 -2.3290  1.7705 -4.3138
17119SOL    HW256488   9.935   5.815   6.554  0.9550 -0.8829  2.5928
17120SOL     OW56489   1.757   7.142   3.042 -0.2452  0.1578  0.1979
17120SOL    HW156490   1.763   7.128   3.136  0.1913  0.1406  0.1713
17120SOL    HW256491   1.666   7.125   3.020 -0.2721 -0.1685  0.5648
17121SOL     OW56492   8.056   3.205   6.605  0.9803 -1.0228 -0.2745
17121SOL    HW156493   8.101   3.125   6.576  2.0563 -1.3391  2.1937
17121SOL    HW256494   8.113   3.276   6.575  0.8771 -1.2316 -0.9905
17122SOL     OW56495   5.827   4.071   9.700 -0.4357 -0.0677 -0.0348
17122SOL    HW156496   5.776   4.063   9.619 -0.1623 -0.9966 -0.1141
17122SOL    HW256497   5.777   4.134   9.753 -1.6266 -0.9043 -0.1431
17123SOL     OW56498   8.077   4.301   7.897 -0.1981  0.2591  0.0448
17123SOL    HW156499   8.134   4.229   7.869 -0.6146  0.0284 -0.2229
17123SOL    HW256500   8.036   4.331   7.816 -2.1583 -1.0525  0.5304
17124SOL     OW56501   7.136   6.728  10.814  0.4935  0.3343  0.1714
17124SOL    HW156502   7.231   6.735  10.817  0.2444  4.9516  1.2064
17124SOL    HW256503   7.111   6.693  10.899  1.1928 -0.3286  0.1080
17125SOL     OW56504   2.043   7.635   1.633  0.5507 -0.7270  0.4120
17125SOL    HW156505   1.997   7.697   1.576 -0.9104 -1.4715  0.7454
17125SOL    HW256506   2.108   7.594   1.577 -0.7356 -1.3026 -0.6884
17126SOL     OW56507   9.800   4.900  10.709  1.2822 -0.1166 -0.3373
17126SOL    HW156508   9.786   4.988  10.673 -0.5387  0.0251  0.6380
17126SOL    HW256509   9.803   4.843  10.633  0.9861  0.6120 -0.9012
17127SOL     OW56510   8.887   8.508   9.784 -0.4342  0.1477 -0.0110
17127SOL    HW156511   8.949   8.527   9.714 -1.0929  1.4689 -0.2665
17127SOL    HW256512   8.824   8.447   9.746  0.5767 -1.0237  0.1794
17128SOL     OW56513   6.302   6.090   9.337  0.0379 -0.0746 -0.3570
17128SOL    HW156514   6.292   6.165   9.395 -0.6692 -1.5638  1.4658
17128SOL    HW256515   6.394   6.092   9.311 -0.0310  1.5568 -0.5406
17129SOL     OW56516   1.125  10.997   1.144  0.6089 -0.0650  0.4465
17129SOL    HW156517   1.124  11.092   1.157  4.7016 -0.0995  1.6604
17129SOL    HW256518   1.174  10.985   1.063  0.7079 -1.1759  0.6723
17130SOL     OW56519   5.357   0.375   2.169 -0.1871  0.0017 -0.0498
17130SOL    HW156520   5.325   0.285   2.162  0.0270 -0.0679 -0.1494
17130SOL    HW256521   5.447   0.370   2.137  1.3600 -0.6179  4.0334
17131SOL     OW56522   1.187   4.219   3.536 -0.7728 -0.1942 -0.0105
17131SOL    HW156523   1.094   4.217   3.511 -0.9511 -1.3947  0.6767
17131SOL    HW256524   1.232   4.172   3.466 -0.7475  0.0390 -0.1476
17132SOL     OW56525   1.765   2.066   0.342  0.3789  0.3152  0.0766
17132SOL    HW156526   1.845   2.109   0.310  0.2833  2.3460  2.4160
17132SOL    HW256527   1.708   2.138   0.368 -1.5242 -1.1637  0.0732
17133SOL     OW56528   6.411   1.421  10.620  0.0333  0.0927  0.3247
17133SOL    HW156529   6.370   1.386  10.699  0.4771  0.9048  0.9251
17133SOL    HW256530   6.461   1.497  10.651  0.2049  0.4162 -0.7368
17134SOL     OW56531   8.750   5.809   3.822 -0.1609 -0.6159  0.4612
17134SOL    HW156532   8.703   5.808   3.906  0.4415 -0.5357  0.8086
17134SOL    HW256533   8.683   5.790   3.756 -0.8904  0.6594  0.8309
17135SOL     OW56534   5.279   0.921   1.160 -0.7422  0.0288 -0.0230
17135SOL    HW156535   5.233   0.886   1.236 -0.4885  0.0179  0.1252
17135SOL    HW256536   5.245   0.871   1.086 -2.5445  1.4434 -0.1967
17136SOL     OW56537   2.411   6.019   9.312 -0.4161 -0.7736  0.3699
17136SOL    HW156538   2.465   5.969   9.251 -0.0024  1.7128 -1.3730
17136SOL    HW256539   2.349   6.067   9.256  1.3989  3.2561  1.6208
17137SOL     OW56540   7.188   9.735   1.161 -0.7476 -0.9926 -0.4375
17137SOL    HW156541   7.098   9.721   1.189 -1.2377  3.0103  0.2007
17137SOL    HW256542   7.181   9.776   1.075  0.5229 -2.0702 -1.0814
17138SOL     OW56543   8.780   2.529   3.694 -0.2931  0.1031  0.6643
17138SOL    HW156544   8.849   2.561   3.636 -0.4846 -0.5245  0.0719
17138SOL    HW256545   8.699   2.541   3.644 -0.4271 -0.7323  0.6701
17139SOL     OW56546   5.764  11.184  11.268 -0.5203  0.2300  0.0807
17139SOL    HW156547   5.699  11.175  11.199 -0.6920 -0.3151  0.3104
17139SOL    HW256548   5.799  11.095  11.280 -0.4417  0.3351  0.6436
17140SOL     OW56549   4.980   8.897  10.832  1.0397  0.3962  0.1649
17140SOL    HW156550   5.042   8.848  10.778 -0.4272  0.8897 -2.0636
17140SOL    HW256551   4.895   8.881  10.791 -0.0498  1.2978  2.0001
17141SOL     OW56552  10.108   2.113   2.346 -0.5395  0.2993 -0.5821
17141SOL    HW156553  10.027   2.121   2.295 -0.8802 -2.7524 -0.6113
17141SOL    HW256554  10.079   2.085   2.433  0.3413  1.2811  0.0388
17142SOL     OW56555   3.112   6.841  10.322 -0.7496  0.4018  0.9252
17142SOL    HW156556   3.202   6.820  10.300 -0.6708  0.7086  0.9468
17142SOL    HW256557   3.115   6.876  10.411 -0.5955  2.3253  0.2002
17143SOL     OW56558  10.247   4.934   7.567  0.3972  0.4089 -0.5172
17143SOL    HW156559  10.269   5.004   7.629  0.4837 -1.4624  1.6472
17143SOL    HW256560  10.327   4.881   7.562 -0.8606 -1.7036  0.9139
17144SOL     OW56561  10.631   3.343   9.523  0.1092 -0.3350  0.4500
17144SOL    HW156562  10.702   3.404   9.505 -0.3203  0.0520  0.0544
17144SOL    HW256563  10.615   3.298   9.440 -1.6729  1.2485 -0.1124
17145SOL     OW56564   3.624   5.542  10.636 -0.1905  0.1846 -0.0584
17145SOL    HW156565   3.531   5.545  10.613 -0.2175 -0.5412 -0.0611
17145SOL    HW256566   3.649   5.451  10.622 -0.1533 -0.2309  2.5248
17146SOL     OW56567   1.963   6.156   5.315 -0.1678  0.0569  0.5808
17146SOL    HW156568   1.898   6.182   5.250  1.3655 -0.1020 -1.0405
17146SOL    HW256569   2.038   6.214   5.299  0.0425  0.3672  2.5409
17147SOL     OW56570   9.716   3.089   5.671  0.0547 -0.1109 -0.2468
17147SOL    HW156571   9.663   3.147   5.727 -0.1226 -0.9699  0.4757
17147SOL    HW256572   9.801   3.132   5.667 -0.3470  0.6930 -0.4885
17148SOL     OW56573   4.860   4.382   0.745 -0.1671 -0.3482  0.0568
17148SOL    HW156574   4.767   4.357   0.747  0.0959 -1.3237  1.1347
17148SOL    HW256575   4.898   4.327   0.677 -0.1715 -0.7243  0.3573
17149SOL     OW56576   8.399   7.045   2.377 -0.3577 -0.0481 -0.5129
17149SOL    HW156577   8.409   7.130   2.419  0.1691  1.3094 -3.2783
17149SOL    HW256578   8.304   7.030   2.373 -0.4341  0.2068  0.3349
17150SOL     OW56579  10.852   8.404   1.538 -0.8080  0.1281  0.5914
17150SOL    HW156580  10.845   8.312   1.513 -1.2673  0.0684  0.9310
17150SOL    HW256581  10.943   8.414   1.567 -0.2058  0.2468 -1.2388
17151SOL     OW56582   0.217   1.556   2.268 -0.4223  0.3651 -0.0057
17151SOL    HW156583   0.258   1.598   2.343 -1.0760  0.2363  0.4253
17151SOL    HW256584   0.201   1.466   2.296 -0.7609  0.3449 -0.2586
17152SOL     OW56585  10.537  10.773   7.182  0.0227  0.0466  0.0043
17152SOL    HW156586  10.588  10.835   7.233  1.1271 -0.3867 -0.5543
17152SOL    HW256587  10.560  10.791   7.091 -1.1015  0.0835 -0.2823
17153SOL     OW56588   2.282   2.080   2.373 -0.0165  0.3072  0.3199
17153SOL    HW156589   2.332   2.014   2.421 -0.9778 -2.1225 -1.8921
17153SOL    HW256590   2.341   2.107   2.302 -1.0519 -1.0953 -1.1013
17154SOL     OW56591   8.407   6.210   0.381  0.3398  0.2568  0.5990
17154SOL    HW156592   8.407   6.293   0.334  0.4709  0.5480  1.1097
17154SOL    HW256593   8.322   6.208   0.426 -0.8757 -1.1938 -1.7014
17155SOL     OW56594   7.534   9.406   3.865 -0.2449  0.2418  0.0348
17155SOL    HW156595   7.453   9.440   3.903 -1.0141 -0.3368 -1.0321
17155SOL    HW256596   7.518   9.312   3.854  1.2822 -0.2117  1.5433
17156SOL     OW56597   2.831   3.900   3.277 -0.3032  0.0340 -0.6518
17156SOL    HW156598   2.798   3.819   3.237 -0.6580 -0.3688  0.4334
17156SOL    HW256599   2.922   3.880   3.298  0.2414  0.6524 -2.3194
17157SOL     OW56600   8.079   8.195   6.032 -0.0910 -0.0870 -0.0678
17157SOL    HW156601   8.134   8.149   5.969 -0.5756 -0.5103 -0.1878
17157SOL    HW256602   8.025   8.126   6.072  0.6242  0.0842  1.2390
17158SOL     OW56603   8.090   4.078   5.543  0.0528 -0.1930  0.3228
17158SOL    HW156604   8.079   3.983   5.548  1.6136 -0.4799 -1.1539
17158SOL    HW256605   8.149   4.099   5.616 -0.3985 -0.3436  0.7306
17159SOL     OW56606   0.344   1.685   4.149  0.4766  0.3039  0.1310
17159SOL    HW156607   0.314   1.693   4.058 -0.6664 -0.2559  0.4483
17159SOL    HW256608   0.397   1.763   4.164 -3.0265  2.7220  0.3590
17160SOL     OW56609   8.995   3.394   6.205  0.6651  0.0079  0.1434
17160SOL    HW156610   9.039   3.309   6.195 -0.9657 -0.7035 -1.3725
17160SOL    HW256611   8.904   3.371   6.221  0.6002  1.4730  2.0240
17161SOL     OW56612   7.055   4.368   6.222 -0.2613 -0.0787 -0.1053
17161SOL    HW156613   7.108   4.447   6.214 -1.0575  0.4194 -0.4766
17161SOL    HW256614   7.061   4.345   6.315 -0.3896  0.6721  0.0939
17162SOL     OW56615  10.502  11.266   7.762 -0.0771 -0.1996  0.2521
17162SOL    HW156616  10.511  11.209   7.686  0.0474  1.4053 -0.9458
17162SOL    HW256617  10.579  11.323   7.759 -1.3255  1.5352  0.1661
17163SOL     OW56618   0.390  10.920  10.190  0.1468 -0.2908 -0.0934
17163SOL    HW156619   0.459  10.870  10.146 -0.9752 -1.2671 -0.7752
17163SOL    HW256620   0.433  10.959  10.265  1.6655 -0.1309 -1.0229
17164SOL     OW56621   9.843   8.189   7.232  0.3721 -0.2026 -0.3985
17164SOL    HW156622   9.762   8.140   7.251  0.0538  0.1612 -0.8238
17164SOL    HW256623   9.897   8.176   7.310  0.3611 -1.3806 -0.5779
17165SOL     OW56624   2.008   5.972   5.518 -0.0188 -0.6159 -0.4467
17165SOL    HW156625   1.996   6.039   5.451  2.3553  0.3922  0.0675
17165SOL    HW256626   1.977   6.013   5.599  0.9243 -0.3197 -0.2287
17166SOL     OW56627   5.827   0.665   3.450  0.1678  0.2556 -0.1378
17166SOL    HW156628   5.875   0.594   3.407  0.1978  1.6782 -2.5477
17166SOL    HW256629   5.879   0.744   3.432 -1.3178  1.3052  0.0908
17167SOL     OW56630   9.149   7.931   3.440  0.1749  0.1690  0.0385
17167SOL    HW156631   9.161   8.025   3.436  0.4510  0.1267 -0.1284
17167SOL    HW256632   9.176   7.907   3.528 -0.6028  0.3465  0.3320
17168SOL     OW56633   2.448   0.617   7.551 -0.0585 -0.0145 -0.4708
17168SOL    HW156634   2.376   0.629   7.612  0.5599  0.0696  0.2406
17168SOL    HW256635   2.438   0.527   7.519 -0.7500  0.1514 -0.7261
17169SOL     OW56636   3.979  10.281   3.317 -0.5388  0.7279  0.6771
17169SOL    HW156637   3.901  10.298   3.264 -0.2295  1.1608  0.3480
17169SOL    HW256638   3.972  10.343   3.390  0.3233  1.9519 -0.2417
17170SOL     OW56639   8.659   8.850   3.927  0.3344  0.0841  0.2634
17170SOL    HW156640   8.573   8.875   3.892  0.3203 -1.5988 -0.9436
17170SOL    HW256641   8.693   8.931   3.965 -0.9799  1.2311 -0.9319
17171SOL     OW56642   5.297   6.911   8.814 -0.6197  0.0717 -0.6689
17171SOL    HW156643   5.294   7.006   8.804  2.3609  0.3485  0.6009
17171SOL    HW256644   5.311   6.897   8.907  0.2406 -1.5790 -1.0247
17172SOL     OW56645   8.839   3.914   9.858 -0.0628  0.0994 -0.3320
17172SOL    HW156646   8.790   3.933   9.938 -0.7719  1.6300 -1.0948
17172SOL    HW256647   8.776   3.928   9.787 -0.2165 -3.8236 -1.0953
17173SOL     OW56648   8.491   9.370   8.719 -0.2650  0.5358 -0.4713
17173SOL    HW156649   8.562   9.431   8.701  0.6685  0.4497  2.5500
17173SOL    HW256650   8.533   9.284   8.718 -0.3827  0.4445  0.8152
17174SOL     OW56651   8.115   3.578   6.003  0.6867  0.6807  0.4312
17174SOL    HW156652   8.069   3.641   5.947  0.8557  1.2341  0.9065
17174SOL    HW256653   8.097   3.493   5.963  3.3866  1.3286 -2.2864
17175SOL     OW56654   5.351   6.687  11.187 -0.7705 -0.6175  0.1608
17175SOL    HW156655   5.366   6.630  11.111 -2.3838  1.1765 -1.5429
17175SOL    HW256656   5.277   6.647  11.233  0.4414 -1.9109  1.0291
17176SOL     OW56657   2.413   0.132   0.201  0.0630 -0.1195  0.4365
17176SOL    HW156658   2.477   0.061   0.195  0.7592  0.5755 -0.6697
17176SOL    HW256659   2.360   0.110   0.277  0.4428 -1.6801  0.2844
17177SOL     OW56660   4.205   5.439   0.544 -0.3412 -0.5020  0.3586
17177SOL    HW156661   4.228   5.450   0.636  0.4967  1.1383 -0.0375
17177SOL    HW256662   4.113   5.466   0.539  0.4113  2.2119  0.2218
17178SOL     OW56663   0.869   3.099   3.504 -0.0459  0.1709 -0.0568
17178SOL    HW156664   0.856   3.170   3.568 -1.2226 -0.1289  0.0506
17178SOL    HW256665   0.960   3.107   3.478  0.4181  0.4100  1.5556
17179SOL     OW56666   8.165   6.973   0.428  0.4722  0.0280 -0.6445
17179SOL    HW156667   8.169   6.878   0.439  1.2759  0.1313 -0.0600
17179SOL    HW256668   8.216   7.009   0.500 -0.9974  0.9591 -0.0466
17180SOL     OW56669   9.270   7.199   1.944  0.1605 -0.1529 -0.5827
17180SOL    HW156670   9.176   7.213   1.958  0.0276 -1.3676 -0.2574
17180SOL    HW256671   9.277   7.178   1.851  0.0236 -0.8431 -0.4343
17181SOL     OW56672   8.631   3.446   2.034  0.0835  0.1353 -0.1615
17181SOL    HW156673   8.568   3.375   2.021  0.2977 -0.2092  0.6534
17181SOL    HW256674   8.583   3.512   2.086  0.6361 -0.4911  1.1763
17182SOL     OW56675   0.802   1.074   9.757 -0.1279  0.2427  0.1485
17182SOL    HW156676   0.795   1.012   9.684 -0.5725  0.1727  0.2458
17182SOL    HW256677   0.867   1.035   9.815 -0.2891 -0.0548  0.1328
17183SOL     OW56678  10.987  11.099   7.425  0.3410  0.5239  0.0198
17183SOL    HW156679  10.895  11.125   7.414 -0.3176 -1.5625  0.2568
17183SOL    HW256680  11.014  11.138   7.508 -0.0948  1.7913 -0.4325
17184SOL     OW56681   7.942   7.274   6.042  0.0147  0.1973  0.2514
17184SOL    HW156682   8.024   7.229   6.062  0.0680 -0.0189 -0.4396
17184SOL    HW256683   7.939   7.347   6.103  0.5891  0.0422  0.4667
17185SOL     OW56684   8.298   0.112   3.059 -0.3137 -0.0849  0.4589
17185SOL    HW156685   8.246   0.138   3.136  0.2930  0.0968  0.8140
17185SOL    HW256686   8.367   0.057   3.095  0.1883  0.2988  0.0914
17186SOL     OW56687   6.544   3.911   4.410  0.2513  0.3565 -0.3532
17186SOL    HW156688   6.485   3.938   4.340 -2.4995  2.1313  2.5175
17186SOL    HW256689   6.491   3.853   4.465  2.1116 -0.3853  0.7048
17187SOL     OW56690  11.223   9.476   2.336  0.3658  0.2515  0.5042
17187SOL    HW156691  11.161   9.533   2.382 -0.1581  0.4308 -0.4254
17187SOL    HW256692  11.304   9.527   2.333 -0.1097  0.9685 -0.3506
17188SOL     OW56693   4.862   5.235  10.710  0.4046 -0.1273  0.1680
17188SOL    HW156694   4.950   5.216  10.680  0.4945  0.6810 -0.0835
17188SOL    HW256695   4.815   5.263  10.632 -0.2764 -1.2417  0.1670
17189SOL     OW56696  10.554   6.561   1.802 -0.3498 -0.2270  0.0258
17189SOL    HW156697  10.501   6.610   1.738 -0.8503 -1.1917 -0.3190
17189SOL    HW256698  10.586   6.627   1.863 -1.3217  0.4787 -0.2170
17190SOL     OW56699   6.718   6.753  10.918 -0.3036 -0.1555 -0.5487
17190SOL    HW156700   6.652   6.683  10.923  0.7018 -0.9789  1.7552
17190SOL    HW256701   6.794   6.717  10.963  0.8620  1.7589 -0.9580
17191SOL     OW56702   2.919   5.891   2.867 -0.1905  0.3297 -0.0830
17191SOL    HW156703   2.894   5.973   2.910 -1.2580 -0.5742  1.0761
17191SOL    HW256704   2.935   5.830   2.940 -0.2912 -0.7415 -0.9452
17192SOL     OW56705  11.172  10.382   5.008 -0.3654  0.1304 -0.2913
17192SOL    HW156706  11.081  10.409   4.997 -0.4684  0.4326  1.1813
17192SOL    HW256707  11.182  10.306   4.950 -1.1704  0.9225 -1.4786
17193SOL     OW56708   1.829   7.699   4.251 -0.3231 -0.0267  0.2784
17193SOL    HW156709   1.782   7.781   4.239 -0.9347 -0.3936  0.1086
17193SOL    HW256710   1.824   7.655   4.166 -0.7629 -0.6297  0.6094
17194SOL     OW56711   2.417   3.901   0.743  0.2818 -0.2071  0.3628
17194SOL    HW156712   2.483   3.841   0.708  0.0391 -0.6620  0.6693
17194SOL    HW256713   2.368   3.929   0.666  0.0971 -0.7763  0.2672
17195SOL     OW56714   9.339  10.035   3.770  0.4604 -0.2242 -0.2215
17195SOL    HW156715   9.254  10.006   3.803 -0.9548  1.2228 -2.4019
17195SOL    HW256716   9.343  10.000   3.681  1.6681  0.6429 -0.5204
17196SOL     OW56717   4.237   0.385   0.629  0.1267  0.0205  0.0266
17196SOL    HW156718   4.228   0.449   0.700  0.6600  0.7685 -0.5741
17196SOL    HW256719   4.304   0.324   0.660  0.5685  0.5143  0.0469
17197SOL     OW56720  10.703   9.833   0.122 -0.5336 -0.0540  0.3661
17197SOL    HW156721  10.626   9.876   0.084  0.1176  0.1742 -0.7308
17197SOL    HW256722  10.776   9.891   0.102  0.0410 -0.6304  0.7390
17198SOL     OW56723   5.090   5.118   1.122  0.0206 -0.3946  0.1510
17198SOL    HW156724   5.024   5.075   1.175 -1.4363  1.6089  0.0115
17198SOL    HW256725   5.117   5.052   1.058 -1.9242 -1.1886  0.1381
17199SOL     OW56726   5.992   2.357   3.859  0.0383  0.0480  0.0602
17199SOL    HW156727   6.075   2.310   3.857  0.1924  0.3729 -1.3158
17199SOL    HW256728   5.978   2.386   3.769 -1.0939  0.8227  0.4723
17200SOL     OW56729   1.275   6.848   5.019  0.5406  0.3338  0.3154
17200SOL    HW156730   1.216   6.828   4.946  0.0210  1.7137  0.3389
17200SOL    HW256731   1.268   6.943   5.030  0.1128  0.0760  2.5783
17201SOL     OW56732   5.561   4.006   3.970  0.5267 -0.4116  0.1022
17201SOL    HW156733   5.498   3.935   3.961  1.9045 -2.2125  3.9045
17201SOL    HW256734   5.643   3.970   3.935  0.2730  0.8413 -1.8957
17202SOL     OW56735   9.384   8.752   4.196  0.2022 -0.4513 -0.2284
17202SOL    HW156736   9.454   8.743   4.131  0.1617 -0.8338 -0.2185
17202SOL    HW256737   9.305   8.727   4.149  0.0923 -0.1683 -0.1942
17203SOL     OW56738   9.056   5.017   8.507 -0.1448 -0.1515  0.2182
17203SOL    HW156739   9.024   4.935   8.468 -1.8902  0.1199  1.0670
17203SOL    HW256740   9.045   5.005   8.601  0.1778  0.8315  0.3880
17204SOL     OW56741   6.613   9.348   3.158  0.1572  0.4845  0.0962
17204SOL    HW156742   6.668   9.310   3.089 -0.7885 -0.6847 -0.0316
17204SOL    HW256743   6.559   9.412   3.113 -1.4104 -1.2360 -0.5145
17205SOL     OW56744   6.263   2.205   8.872  0.3116 -0.2269 -0.4253
17205SOL    HW156745   6.355   2.227   8.858  0.0466  0.9027 -0.4831
17205SOL    HW256746   6.215   2.266   8.815 -0.4604 -0.9158 -0.5196
17206SOL     OW56747   5.887   6.868   3.074  0.1698  0.3529 -0.0387
17206SOL    HW156748   5.823   6.927   3.034  0.2773  0.5415  0.0673
17206SOL    HW256749   5.969   6.886   3.026 -0.2045 -0.9747 -1.2235
17207SOL     OW56750   1.958  11.074  10.875 -0.0731 -0.6571  0.3364
17207SOL    HW156751   1.891  11.113  10.818  0.7580 -0.9995 -0.8855
17207SOL    HW256752   1.997  11.149  10.920  0.0913 -0.2552 -0.4526
17208SOL     OW56753   5.616   0.467   5.562 -0.6134  0.2955 -0.5186
17208SOL    HW156754   5.641   0.456   5.471 -2.1070 -0.4896 -0.8519
17208SOL    HW256755   5.617   0.378   5.598 -1.1168  0.4736 -0.0566
17209SOL     OW56756   8.247   2.588   3.901  0.5377 -0.1204  0.2571
17209SOL    HW156757   8.252   2.658   3.966 -1.1082 -0.1956  0.4940
17209SOL    HW256758   8.224   2.510   3.952  2.6652 -0.9210  0.0443
17210SOL     OW56759   5.258   2.252   1.795 -0.1218 -0.6018 -0.3431
17210SOL    HW156760   5.343   2.213   1.815  0.2917  0.5603  0.1768
17210SOL    HW256761   5.273   2.300   1.713  0.1360  0.8779  0.5507
17211SOL     OW56762   9.806   0.151  11.316  0.0538  0.1767  0.2319
17211SOL    HW156763   9.847   0.067  11.337 -0.0334  0.1490  0.2925
17211SOL    HW256764   9.731   0.156  11.375 -1.8462 -1.2077 -1.9841
17212SOL     OW56765   6.226   5.245  10.132  0.2256 -0.3181  0.0945
17212SOL    HW156766   6.305   5.237  10.185  1.2044 -1.6379 -1.5198
17212SOL    HW256767   6.256   5.284  10.050 -1.1133  0.8202  0.1187
17213SOL     OW56768   1.167   7.728  10.062 -0.1247  0.1666  0.1621
17213SOL    HW156769   1.093   7.787  10.046 -1.4029 -1.3896  0.1855
17213SOL    HW256770   1.193   7.699   9.974 -0.9877 -1.0027  0.2841
17214SOL     OW56771   7.251   4.483  10.695 -0.3030 -0.1630  0.5243
17214SOL    HW156772   7.326   4.495  10.754  2.0648 -2.1263 -1.9612
17214SOL    HW256773   7.275   4.530  10.615 -1.4443 -1.3536 -0.5378
17215SOL     OW56774  11.169  10.651   8.847 -0.5625 -0.0115 -0.1172
17215SOL    HW156775  11.120  10.622   8.770  1.5497  0.0234 -1.5171
17215SOL    HW256776  11.165  10.747   8.844 -0.3799 -0.0081 -0.2608
17216SOL     OW56777   4.527   1.307  11.125  0.5053 -0.2105  0.1490
17216SOL    HW156778   4.533   1.247  11.200  0.2636 -0.9232 -0.4022
17216SOL    HW256779   4.449   1.360  11.143  0.8674  0.1190  0.7642
17217SOL     OW56780   9.563  10.864   9.954  0.2410  0.3099 -0.4521
17217SOL    HW156781   9.597  10.779   9.925 -0.0358 -0.1642  0.6024
17217SOL    HW256782   9.580  10.922   9.880  4.3178  0.3460  0.3727
17218SOL     OW56783   8.659   4.133   2.408  0.1059 -0.3910 -0.0354
17218SOL    HW156784   8.741   4.170   2.440  1.7374 -3.0802 -0.9539
17218SOL    HW256785   8.601   4.208   2.398  1.3897  1.2284  3.6148
17219SOL     OW56786   9.657   2.776  10.746 -0.2622 -0.0572  0.4187
17219SOL    HW156787   9.568   2.755  10.717 -0.1995  0.6633 -0.3234
17219SOL    HW256788   9.647   2.797  10.839 -1.0799  1.2265  0.0629
17220SOL     OW56789   7.416   6.704  10.216 -0.1865 -0.0462 -0.4751
17220SOL    HW156790   7.465   6.746  10.145  1.5944 -3.0922 -1.1440
17220SOL    HW256791   7.478   6.698  10.288 -1.4433  1.3854  0.7554
17221SOL     OW56792  10.394   7.122   2.805  0.0250  0.7748 -0.1832
17221SOL    HW156793  10.481   7.132   2.766  0.4840  0.5007  0.7535
17221SOL    HW256794  10.352   7.053   2.754  1.0422 -0.3879  0.5299
17222SOL     OW56795   6.882   1.190   6.492 -0.4240 -0.5286  0.2551
17222SOL    HW156796   6.901   1.152   6.406  0.4293 -0.2249  0.3086
17222SOL    HW256797   6.895   1.118   6.554  0.8132 -0.2567  0.3178
17223SOL     OW56798   9.453   0.099   0.973  0.1257  0.4610  0.3359
17223SOL    HW156799   9.444   0.089   0.878 -0.0738 -0.4032  0.4382
17223SOL    HW256800   9.518   0.033   0.998 -1.2087 -0.6237  1.0436
17224SOL     OW56801   5.541   1.085   7.800  0.5507  0.2416 -0.0108
17224SOL    HW156802   5.565   0.999   7.834  3.2903  0.8657 -0.1997
17224SOL    HW256803   5.513   1.069   7.710 -0.4227 -0.6247  0.4440
17225SOL     OW56804   4.540   4.575   4.480  0.3598 -0.8308  0.7564
17225SOL    HW156805   4.483   4.504   4.451 -0.8310 -0.2469  1.6382
17225SOL    HW256806   4.620   4.564   4.428 -0.0729 -2.3940  0.3880
17226SOL     OW56807   5.643   8.101   3.123  0.2507 -0.0830 -0.7525
17226SOL    HW156808   5.632   8.092   3.218 -1.1563  0.2626 -0.8775
17226SOL    HW256809   5.615   8.190   3.104  1.0181  0.0221 -1.4328
17227SOL     OW56810   0.083   9.937   3.102  0.4618  0.0176 -0.7768
17227SOL    HW156811   0.178   9.943   3.116  0.4488 -1.0606 -0.1354
17227SOL    HW256812   0.064   9.843   3.110 -1.0919  0.5204  2.1824
17228SOL     OW56813   2.295   3.600   4.377 -0.1491  0.3266 -0.4369
17228SOL    HW156814   2.313   3.691   4.398 -2.4398  0.6831  0.0239
17228SOL    HW256815   2.253   3.564   4.455 -0.5128 -0.7486 -1.1104
17229SOL     OW56816   5.972   0.264   5.670 -0.0389 -0.1575  0.3437
17229SOL    HW156817   6.056   0.279   5.626  0.7477 -3.3848  0.6495
17229SOL    HW256818   5.977   0.316   5.750  1.0975  0.7644 -0.3191
17230SOL     OW56819   1.979   5.476   1.552  0.6560  0.2464 -0.7034
17230SOL    HW156820   2.020   5.401   1.595 -0.6769 -0.4377 -0.5907
17230SOL    HW256821   1.928   5.438   1.481 -0.8109  0.9357 -0.0431
17231SOL     OW56822  10.119   9.014   4.479 -0.0623  0.3058  0.0547
17231SOL    HW156823  10.192   8.962   4.445  0.2922  0.9482 -0.1936
17231SOL    HW256824  10.105   8.983   4.568  0.8085  0.4835  0.2516
17232SOL     OW56825   8.967   2.140   7.712 -0.5593  0.1022  0.0486
17232SOL    HW156826   8.898   2.184   7.761  0.0326  1.0713  0.0278
17232SOL    HW256827   8.937   2.050   7.704  0.3452 -0.6964  4.2070
17233SOL     OW56828   4.519   9.976   6.981 -0.0788 -0.3593  0.3684
17233SOL    HW156829   4.594   9.984   6.922 -0.9255 -1.4639 -0.8890
17233SOL    HW256830   4.455  10.038   6.946  0.2825  0.6564  1.4992
17234SOL     OW56831   0.572  11.280   2.809 -0.1967  0.5332  0.8868
17234SOL    HW156832   0.505  11.213   2.815  0.9794 -0.7287  0.0224
17234SOL    HW256833   0.543  11.337   2.738 -0.9429  0.6715  1.2959
17235SOL     OW56834   4.093   1.720   0.198  0.0217 -0.0604 -0.1368
17235SOL    HW156835   4.114   1.785   0.264 -1.0879 -1.0330  1.1985
17235SOL    HW256836   3.997   1.721   0.193 -0.0075 -1.4978 -0.1701
17236SOL     OW56837   7.750   5.635   5.310 -0.1680 -0.5449  0.0294
17236SOL    HW156838   7.813   5.705   5.293  0.3656 -0.9591  0.2900
17236SOL    HW256839   7.666   5.669   5.278 -0.4229  1.2697  2.4934
17237SOL     OW56840   3.472   3.077   0.362 -0.5210  0.2435  0.4056
17237SOL    HW156841   3.545   3.073   0.301 -2.0204  2.0414 -1.5766
17237SOL    HW256842   3.452   2.985   0.381  0.9726 -0.2987 -0.5419
17238SOL     OW56843   2.175   2.075   9.791 -0.0368  0.1118  0.0052
17238SOL    HW156844   2.088   2.063   9.828  0.3451  0.3730  0.9786
17238SOL    HW256845   2.160   2.117   9.706 -0.7838  1.0667  0.6179
17239SOL     OW56846   0.488   2.435   8.680 -0.4375  0.2361 -0.4898
17239SOL    HW156847   0.408   2.389   8.654  0.2796 -0.1554 -2.0530
17239SOL    HW256848   0.484   2.437   8.775 -2.7081  0.9341 -0.5726
17240SOL     OW56849   8.113   6.629   3.589  0.0346 -0.9171  0.1762
17240SOL    HW156850   8.175   6.580   3.535 -0.6507 -0.0200 -1.4492
17240SOL    HW256851   8.166   6.701   3.625  0.2349 -0.8650 -0.2129
17241SOL     OW56852   2.299   4.999   3.346 -0.3378  0.7147 -0.3538
17241SOL    HW156853   2.354   5.069   3.310 -0.5813 -0.1925 -2.5725
17241SOL    HW256854   2.358   4.948   3.401  0.3556  1.3898 -0.4589
17242SOL     OW56855  10.537   7.630   4.499  0.3932  0.5213  0.5344
17242SOL    HW156856  10.625   7.665   4.514  0.2013  0.1419  2.6194
17242SOL    HW256857  10.551   7.536   4.485  0.1374  0.0854  3.0254
17243SOL     OW56858   4.296   1.540   8.851 -0.1354 -0.4724 -0.2684
17243SOL    HW156859   4.273   1.588   8.930  1.2118  0.8446 -0.6450
17243SOL    HW256860   4.213   1.528   8.805 -0.5135  1.5199 -0.1563
17244SOL     OW56861   0.409   6.391   4.485 -0.2035  0.4466 -0.0333
17244SOL    HW156862   0.399   6.298   4.507 -1.0023  0.4146 -0.5042
17244SOL    HW256863   0.323   6.417   4.453 -0.5824  1.8871  2.0569
17245SOL     OW56864   7.717   8.116   2.476 -0.2767  0.2544 -0.6606
17245SOL    HW156865   7.773   8.069   2.414  0.2637 -0.7954  0.5953
17245SOL    HW256866   7.647   8.151   2.422 -0.8399 -2.2165 -1.6230
17246SOL     OW56867   2.749   6.080   1.631 -0.0471  0.2130 -0.2069
17246SOL    HW156868   2.738   5.985   1.638  0.2570  0.0333 -1.8928
17246SOL    HW256869   2.659   6.113   1.622 -0.1162  0.0255 -0.2200
17247SOL     OW56870  10.116   6.394   8.081  0.5365 -0.3878 -0.3254
17247SOL    HW156871  10.098   6.470   8.025 -0.1300 -0.8449 -0.7399
17247SOL    HW256872  10.063   6.410   8.159  1.3071  0.1461  0.0961
17248SOL     OW56873   2.325   0.276   2.523  0.6540  0.1846 -0.1308
17248SOL    HW156874   2.331   0.212   2.452 -1.4993  1.2819 -1.3444
17248SOL    HW256875   2.390   0.343   2.500  0.6720  0.0327 -0.5264
17249SOL     OW56876   1.838  10.166   9.826 -0.0188  0.1741 -0.4039
17249SOL    HW156877   1.898  10.236   9.800  1.4995 -0.3097  1.6634
17249SOL    HW256878   1.823  10.116   9.746 -1.0682  2.7856 -1.9067
17250SOL     OW56879   6.708  10.546   4.009 -0.2442  0.0476  0.1580
17250SOL    HW156880   6.790  10.566   4.055  0.2218 -1.2092 -0.1138
17250SOL    HW256881   6.707  10.607   3.935  1.5145 -1.3413 -1.0575
17251SOL     OW56882   8.687  10.514   2.224  0.4291  0.0623 -0.8038
17251SOL    HW156883   8.609  10.569   2.231  0.7551  0.4232  0.1497
17251SOL    HW256884   8.750  10.567   2.174 -0.2943 -0.6478 -2.4888
17252SOL     OW56885   1.227   8.809   5.677 -0.1350 -0.4462 -0.2404
17252SOL    HW156886   1.135   8.820   5.654 -0.2375 -0.2815  0.2354
17252SOL    HW256887   1.238   8.862   5.757 -0.5045 -3.3221  1.7982
17253SOL     OW56888   1.382   8.568   0.977  0.0833  0.1591  0.5754
17253SOL    HW156889   1.288   8.585   0.983  0.3694  1.6943  0.8866
17253SOL    HW256890   1.413   8.628   0.909  0.7741 -0.6453  0.1719
17254SOL     OW56891  10.559   2.108   6.738  0.2453 -0.2560  0.4510
17254SOL    HW156892  10.561   2.200   6.712  1.5037 -0.2798  0.4042
17254SOL    HW256893  10.466   2.085   6.740 -0.1004  1.1121  0.7993
17255SOL     OW56894   2.124   0.408  10.810  0.2810 -0.1545  0.1133
17255SOL    HW156895   2.106   0.383  10.901 -0.7125 -1.4858 -0.4364
17255SOL    HW256896   2.204   0.359  10.787 -1.2746 -2.3675 -0.7401
17256SOL     OW56897   5.949   5.783   7.005  0.4524 -0.1422  0.2227
17256SOL    HW156898   6.044   5.797   7.014  0.7609 -1.1547 -1.1120
17256SOL    HW256899   5.913   5.804   7.091  1.8466  0.6291  0.6399
17257SOL     OW56900   8.431   5.416   8.966 -0.1046  0.1873  0.5658
17257SOL    HW156901   8.394   5.360   8.899 -1.6310  1.1669  0.5671
17257SOL    HW256902   8.506   5.367   9.000 -0.5716 -1.2194 -0.3989
17258SOL     OW56903   0.125   6.856   4.633  0.0441 -0.1229 -0.3641
17258SOL    HW156904   0.061   6.911   4.677  0.6320 -0.3852  0.8217
17258SOL    HW256905   0.076   6.813   4.563 -1.0331 -0.2239  0.4600
17259SOL     OW56906   5.639  11.192  10.170  0.2545  0.1045 -0.0382
17259SOL    HW156907   5.649  11.106  10.129  0.7950 -0.5148  1.3354
17259SOL    HW256908   5.625  11.172  10.263  0.5738  1.5158  0.3211
17260SOL     OW56909   1.786   9.865   8.329  0.4869  0.8229  0.0939
17260SOL    HW156910   1.762   9.777   8.301  0.8940  0.4750  0.8369
17260SOL    HW256911   1.752   9.922   8.260  1.6814 -0.0424 -1.2525
17261SOL     OW56912   0.810   2.395   9.825  0.0967  0.1913  0.6791
17261SOL    HW156913   0.896   2.435   9.838  0.5894  0.4925 -3.1593
17261SOL    HW256914   0.754   2.467   9.796 -0.8191 -0.5057  0.7037
17262SOL     OW56915   6.983   1.109   3.376 -1.1813 -0.0575 -0.6857
17262SOL    HW156916   6.983   1.027   3.426  1.4649  0.3587  0.0926
17262SOL    HW256917   7.003   1.176   3.442 -0.0042  0.7867 -1.8910
17263SOL     OW56918   9.039   6.382  10.907 -0.0071  0.0703 -0.3700
17263SOL    HW156919   9.010   6.315  10.845  0.5190  0.2762 -0.8426
17263SOL    HW256920   8.970   6.448  10.905 -0.5276 -0.4514  0.0964
17264SOL     OW56921   4.627   3.544   1.035 -0.3556 -0.2303 -0.0418
17264SOL    HW156922   4.537   3.574   1.029 -0.0704  0.7805  0.6858
17264SOL    HW256923   4.647   3.545   1.129 -0.3329 -2.6882  0.0137
17265SOL     OW56924   3.784  10.521   7.830  0.1795  0.3266  0.4805
17265SOL    HW156925   3.826  10.457   7.773  1.0439  1.2496  0.0761
17265SOL    HW256926   3.847  10.537   7.900 -0.4345  0.0143  1.1219
17266SOL     OW56927   8.475  10.565   6.688 -0.2229  0.5222  0.6095
17266SOL    HW156928   8.479  10.659   6.672 -0.4174  0.4421  0.0423
17266SOL    HW256929   8.427  10.556   6.771 -0.6814  0.9045  0.3894
17267SOL     OW56930   0.656   3.398   0.654  0.0375 -0.5507 -0.4717
17267SOL    HW156931   0.671   3.365   0.742 -0.9698 -0.7551 -0.3640
17267SOL    HW256932   0.568   3.436   0.657  0.3863  0.3497 -1.1223
17268SOL     OW56933   2.052   0.780   0.770 -0.5859 -0.1640 -0.1116
17268SOL    HW156934   2.008   0.715   0.714  1.5857 -1.0318 -0.8782
17268SOL    HW256935   2.047   0.861   0.720 -1.8197 -0.1257  0.0684
17269SOL     OW56936   4.690   9.000   5.617 -0.7959  0.2146 -0.1922
17269SOL    HW156937   4.706   9.064   5.547  0.8245  0.8059  0.7054
17269SOL    HW256938   4.771   8.999   5.668 -1.2015 -1.7841  0.4324
17270SOL     OW56939   3.125   8.730   9.027  0.5510  0.7097  0.1441
17270SOL    HW156940   3.031   8.736   9.006  0.9217  0.8286 -1.5137
17270SOL    HW256941   3.167   8.791   8.966  1.6644  1.1032  1.2746
17271SOL     OW56942   0.264   4.639   0.521 -0.1969 -0.0872 -0.3383
17271SOL    HW156943   0.275   4.719   0.574  2.9000 -0.3136 -0.5187
17271SOL    HW256944   0.246   4.571   0.585  1.5764  0.0004  0.2969
17272SOL     OW56945  10.562   2.159   8.730  0.5766  0.9298  0.4067
17272SOL    HW156946  10.483   2.108   8.746  1.0818 -0.3368 -0.9871
17272SOL    HW256947  10.616   2.144   8.807  0.6574 -0.5404  0.0869
17273SOL     OW56948   8.048   4.378   6.438 -0.5191 -0.0350 -0.7171
17273SOL    HW156949   8.015   4.468   6.432 -0.3240  0.0236 -0.9232
17273SOL    HW256950   8.142   4.387   6.449 -0.6799 -0.1894  0.8434
17274SOL     OW56951   0.981   7.651   4.097  0.3932  0.0512  0.1947
17274SOL    HW156952   1.001   7.626   4.007 -1.4854  0.0671 -0.2432
17274SOL    HW256953   0.886   7.641   4.105  0.4973  0.2674  2.1083
17275SOL     OW56954   9.517   3.049   2.229 -0.2927 -0.4771  0.3458
17275SOL    HW156955   9.432   3.088   2.248  0.6937  0.9455  1.9521
17275SOL    HW256956   9.516   2.966   2.277 -1.7351 -1.6790 -1.7002
17276SOL     OW56957   1.488   4.246   9.412  0.1129  0.4157 -0.5192
17276SOL    HW156958   1.450   4.251   9.325 -0.2572  1.4094 -0.3074
17276SOL    HW256959   1.497   4.337   9.440  0.9407  0.1362  0.1728
17277SOL     OW56960   4.054   7.159   2.189 -0.0676  0.1816  0.4159
17277SOL    HW156961   4.079   7.067   2.202  3.8584  1.2200  0.7288
17277SOL    HW256962   4.050   7.170   2.094  0.5034 -0.0501  0.3650
17278SOL     OW56963   0.453   4.483   2.016 -0.5279 -0.2932 -0.1830
17278SOL    HW156964   0.385   4.419   2.040  0.4508 -0.1986  3.0445
17278SOL    HW256965   0.535   4.442   2.042  0.3835  1.0028 -0.9742
17279SOL     OW56966   6.659   9.787  10.154 -0.2372 -0.0645 -0.5104
17279SOL    HW156967   6.726   9.856  10.151 -0.2381 -0.0195  0.3799
17279SOL    HW256968   6.652   9.757  10.064  1.0852 -0.1557 -0.5942
17280SOL     OW56969  10.881   9.319   9.255  0.1092  0.5399 -0.2179
17280SOL    HW156970  10.884   9.227   9.230  0.4505  0.0901  1.4532
17280SOL    HW256971  10.826   9.360   9.188 -2.1620 -1.3311  0.4388
17281SOL     OW56972   1.016   7.672   2.444 -0.0291 -0.2302 -0.6724
17281SOL    HW156973   0.981   7.703   2.528 -0.4366  0.7379 -1.1814
17281SOL    HW256974   1.022   7.751   2.390  2.6973 -0.4185 -0.7184
17282SOL     OW56975   8.364  10.037   3.951  0.1117  0.0164 -0.4100
17282SOL    HW156976   8.278  10.030   3.909 -1.1554  2.0297  1.7073
17282SOL    HW256977   8.377   9.953   3.994 -0.6519 -0.4426 -1.0727
17283SOL     OW56978   4.940   2.085  10.209 -0.4806  0.2804  0.1861
17283SOL    HW156979   4.870   2.048  10.157 -0.2297  0.8100 -0.5430
17283SOL    HW256980   4.953   2.023  10.281  0.2360 -1.2572 -1.2473
17284SOL     OW56981   6.863   4.034  10.682 -0.0421  0.1397  0.3155
17284SOL    HW156982   6.934   4.082  10.639 -0.1807 -0.5514 -0.6966
17284SOL    HW256983   6.891   4.026  10.773  0.0403  2.0329  0.4702
17285SOL     OW56984   2.363   4.078   8.141 -0.4297 -0.3712 -0.4554
17285SOL    HW156985   2.355   3.999   8.194 -1.4312  0.1665  0.2123
17285SOL    HW256986   2.275   4.093   8.107  0.1202 -0.5060 -1.9936
17286SOL     OW56987   2.440   5.634   7.741 -0.2923  0.2363  0.3992
17286SOL    HW156988   2.398   5.582   7.672 -0.6986 -0.8240  1.4224
17286SOL    HW256989   2.431   5.725   7.712 -0.6035 -0.1854 -0.8597
17287SOL     OW56990   0.524   9.180   1.478  0.2899  0.2739 -0.0344
17287SOL    HW156991   0.502   9.159   1.387  2.1526 -0.3949 -0.3502
17287SOL    HW256992   0.571   9.263   1.473  2.6353 -1.0153  0.0180
17288SOL     OW56993   7.886   0.530   1.388  0.1356  0.6341  0.9540
17288SOL    HW156994   7.876   0.613   1.342  0.0493  1.1701  1.9323
17288SOL    HW256995   7.802   0.485   1.375  1.5863 -1.1123 -3.0761
17289SOL     OW56996   6.246   5.314   5.009  0.1529  0.8359  0.0975
17289SOL    HW156997   6.305   5.330   4.935 -0.4986  0.9501 -0.3951
17289SOL    HW256998   6.240   5.399   5.054  0.6210  0.7432  0.3360
17290SOL     OW56999   2.353   1.957   6.109  0.2298  0.6751 -0.0602
17290SOL    HW157000   2.268   1.939   6.069  0.8342 -0.1135 -1.0399
17290SOL    HW257001   2.378   1.873   6.149  0.0481  1.2090  1.1801
17291SOL     OW57002   1.455   7.901   5.538 -0.5423 -0.0880 -0.3515
17291SOL    HW157003   1.495   7.816   5.520  0.3598 -0.3531  2.6006
17291SOL    HW257004   1.509   7.964   5.491  1.6789 -0.7303  1.2438
17292SOL     OW57005   2.549   5.022   0.112 -0.2076  0.1799  0.5204
17292SOL    HW157006   2.537   5.112   0.143  0.5753  0.8753 -1.1430
17292SOL    HW257007   2.629   4.992   0.154 -0.9393 -0.0502  1.7615
17293SOL     OW57008   8.036   1.128   5.301  0.6325  0.5507 -0.1853
17293SOL    HW157009   8.023   1.208   5.251  0.8140  1.0314  0.5259
17293SOL    HW257010   8.131   1.118   5.308  0.6315  1.3715  1.4168
17294SOL     OW57011   8.215   8.380  10.370  0.1788 -0.5006 -0.3660
17294SOL    HW157012   8.188   8.454  10.316 -1.8480 -0.6642  0.3843
17294SOL    HW257013   8.291   8.343  10.324  1.6545  2.4354 -0.3668
17295SOL     OW57014   0.125   8.954   4.729 -0.3394 -0.1985 -0.2964
17295SOL    HW157015   0.090   8.961   4.640  1.7775 -0.0488 -1.1361
17295SOL    HW257016   0.147   8.861   4.739  3.0025  0.4067 -1.3688
17296SOL     OW57017   6.422   0.085   1.093  0.2197  0.1676 -0.3755
17296SOL    HW157018   6.349   0.029   1.068 -0.0872  1.1365 -1.6931
17296SOL    HW257019   6.391   0.132   1.171 -0.5606  0.5548 -0.9101
17297SOL     OW57020   2.217   3.602   5.591 -0.1783  0.1373 -0.3966
17297SOL    HW157021   2.294   3.546   5.599 -1.6276 -1.7311  0.8888
17297SOL    HW257022   2.220   3.659   5.667 -0.1333 -0.0339 -0.2692
17298SOL     OW57023  11.093   0.457   4.925 -0.7016  0.3535 -0.5699
17298SOL    HW157024  11.140   0.471   4.843 -2.7215  0.6924 -1.6991
17298SOL    HW257025  11.020   0.519   4.922 -1.1183 -0.0197  1.2345
17299SOL     OW57026   8.103   8.049   5.509 -0.5860  0.0783 -0.1182
17299SOL    HW157027   8.076   8.141   5.519  1.4048  0.6036  0.7466
17299SOL    HW257028   8.131   8.042   5.418  0.9857  0.8435  0.2823
17300SOL     OW57029   1.399   7.925   4.810 -0.4444 -0.0248  0.5333
17300SOL    HW157030   1.422   7.936   4.902 -0.3082 -1.6120  0.7056
17300SOL    HW257031   1.478   7.891   4.769 -0.5815  0.4369 -0.1169
17301SOL     OW57032  11.039  10.260   7.819 -0.3519  0.4798  0.0130
17301SOL    HW157033  11.115  10.277   7.763  0.6527 -1.6005  0.6991
17301SOL    HW257034  11.070  10.280   7.907 -0.2586 -1.3341  0.4127
17302SOL     OW57035   0.150   7.346   4.991  0.0437 -0.4878  0.6749
17302SOL    HW157036   0.210   7.415   5.021 -0.5033  0.2659  0.0822
17302SOL    HW257037   0.082   7.343   5.058  0.2898 -0.7354  0.9108
17303SOL     OW57038   0.245   5.658   2.740  0.1878  0.0432 -0.1047
17303SOL    HW157039   0.324   5.702   2.773  0.4575 -1.5035  1.4216
17303SOL    HW257040   0.267   5.634   2.650  0.9651  0.7732 -0.1278
17304SOL     OW57041   6.349   9.713   2.338  0.3919 -1.1984  0.5970
17304SOL    HW157042   6.432   9.675   2.369  1.1506  0.5374  0.7574
17304SOL    HW257043   6.375   9.770   2.265 -0.3247  1.2705  2.2272
17305SOL     OW57044   4.100   3.871   3.720  0.0809 -0.2115  0.4043
17305SOL    HW157045   4.117   3.902   3.809  0.4053 -2.2547  1.0806
17305SOL    HW257046   4.020   3.818   3.728  0.7465 -1.3405 -0.2850
17306SOL     OW57047   2.127   1.786   6.267 -0.0265 -0.2648 -0.2681
17306SOL    HW157048   2.142   1.861   6.324  1.8824 -0.6141 -0.2906
17306SOL    HW257049   2.210   1.739   6.267 -0.5844 -1.2795 -1.8537
17307SOL     OW57050   1.791   2.128  11.095  0.6074 -0.8094  0.0441
17307SOL    HW157051   1.789   2.211  11.047  0.5700 -0.8965 -0.1070
17307SOL    HW257052   1.769   2.062  11.029 -2.0011 -0.6853  0.7188
17308SOL     OW57053   4.015   0.129  10.114 -0.0360 -0.4449  0.0987
17308SOL    HW157054   3.947   0.154  10.051 -0.0503 -1.1510 -0.1785
17308SOL    HW257055   4.097   0.132  10.064 -0.2522 -2.6717 -0.4371
17309SOL     OW57056   3.821   1.065   3.719  0.3066  0.0238 -0.9108
17309SOL    HW157057   3.727   1.078   3.702 -0.2154 -0.1192  1.7814
17309SOL    HW257058   3.845   0.992   3.662 -1.2183 -0.0037 -1.5644
17310SOL     OW57059   9.528   0.229   7.353  1.1436 -0.2095 -0.0864
17310SOL    HW157060   9.446   0.202   7.312  0.0249  0.1532  1.8804
17310SOL    HW257061   9.573   0.279   7.284 -0.3143 -0.3108 -1.1518
17311SOL     OW57062   7.309   3.713   0.477  0.7703 -0.5309  0.1822
17311SOL    HW157063   7.320   3.732   0.384  1.2086  0.2272  0.3879
17311SOL    HW257064   7.398   3.705   0.511  0.6399  0.6739  0.8347
17312SOL     OW57065   4.020   6.170   4.907 -0.0009 -0.5571 -0.1014
17312SOL    HW157066   4.079   6.228   4.858  0.2772 -0.6341  0.1349
17312SOL    HW257067   3.937   6.217   4.909  0.1754 -0.2407 -0.0600
17313SOL     OW57068   5.983   5.334   8.919 -0.4168 -0.1972  0.2955
17313SOL    HW157069   6.041   5.374   8.985 -0.3552 -0.1954  0.2407
17313SOL    HW257070   5.898   5.375   8.935 -1.0095 -2.0291  2.0223
17314SOL     OW57071   9.675   4.841   1.966  0.2902  0.2162  0.1095
17314SOL    HW157072   9.609   4.884   2.020 -0.3394  0.4152 -0.8171
17314SOL    HW257073   9.662   4.877   1.878  2.2219  0.9427  0.1015
17315SOL     OW57074   1.035  10.615   4.749  0.2950 -0.7486  0.5360
17315SOL    HW157075   1.110  10.666   4.782  0.3734 -1.1571  1.0055
17315SOL    HW257076   1.070  10.567   4.675  0.0062  0.5160 -0.4361
17316SOL     OW57077   2.304   8.981  11.269 -0.0606  0.5322  0.0612
17316SOL    HW157078   2.252   9.038  11.212  1.0033  0.9960 -0.4640
17316SOL    HW257079   2.239   8.935  11.323 -1.0711  0.3299 -1.2936
17317SOL     OW57080   4.381   3.659  11.159  0.6298 -0.6572 -0.0704
17317SOL    HW157081   4.461   3.609  11.150 -0.2048 -2.2223  1.0739
17317SOL    HW257082   4.311   3.597  11.138 -0.3485  0.3398  0.1986
17318SOL     OW57083   7.476  10.596  11.035 -0.2135 -0.0550 -0.1482
17318SOL    HW157084   7.406  10.659  11.017  0.7157  0.7348 -1.0930
17318SOL    HW257085   7.556  10.647  11.025  0.5149 -1.0613  0.4904
17319SOL     OW57086   9.090   1.123   9.483 -0.0611 -0.4251 -0.0947
17319SOL    HW157087   9.062   1.210   9.453  1.0385 -0.1011 -0.2177
17319SOL    HW257088   9.155   1.096   9.418 -1.1739 -1.8116 -0.6433
17320SOL     OW57089   0.244   5.970   5.451 -0.3098 -0.1041 -0.3112
17320SOL    HW157090   0.292   5.995   5.372 -0.3935  1.4037  0.1001
17320SOL    HW257091   0.205   6.051   5.482 -0.1301 -0.6483  1.3998
17321SOL     OW57092   6.014   6.190   5.986  0.5013  0.3998  0.4808
17321SOL    HW157093   6.042   6.152   6.069 -3.0114 -0.3317  1.4117
17321SOL    HW257094   5.984   6.116   5.934 -2.0616  1.3234  0.5475
17322SOL     OW57095   1.333   1.057   9.908 -0.4176 -0.1400 -0.0520
17322SOL    HW157096   1.389   1.028   9.837 -1.0123 -0.4784 -0.3862
17322SOL    HW257097   1.354   1.149   9.920  3.0513 -1.1600  2.4528
17323SOL     OW57098   0.826   0.570   6.924  1.0591  0.5973  0.5249
17323SOL    HW157099   0.772   0.569   7.003 -0.3058 -0.7161 -0.3816
17323SOL    HW257100   0.798   0.649   6.877  0.0603  0.0339  0.1614
17324SOL     OW57101   9.149   1.165   7.170  0.1190  0.1010  0.4081
17324SOL    HW157102   9.156   1.252   7.210 -0.4358 -0.8024  2.5698
17324SOL    HW257103   9.231   1.122   7.191 -0.1800 -0.3914  0.5761
17325SOL     OW57104   9.031   5.800   8.267  0.1547 -0.1974 -0.0524
17325SOL    HW157105   8.945   5.790   8.225 -0.4195 -0.7194  1.2235
17325SOL    HW257106   9.080   5.857   8.208 -0.5578 -1.1038 -1.5574
17326SOL     OW57107   7.224   4.375   4.119  0.0571 -0.0246 -0.0181
17326SOL    HW157108   7.315   4.365   4.149 -0.2735 -1.0351  0.6695
17326SOL    HW257109   7.202   4.466   4.140  0.6047 -0.0452  0.6662
17327SOL     OW57110   9.996   8.616   8.954  0.0460 -0.2065  0.1447
17327SOL    HW157111   9.978   8.524   8.937 -0.5817 -0.1951  0.7261
17327SOL    HW257112   9.909   8.656   8.963  0.3052 -0.1426  2.9318
17328SOL     OW57113   0.837   2.844   6.576 -0.5290  0.2461  0.5281
17328SOL    HW157114   0.888   2.792   6.638 -0.9690 -0.1952  0.5204
17328SOL    HW257115   0.797   2.912   6.630 -1.4978 -0.5712  0.8575
17329SOL     OW57116   5.662   6.594   5.256 -0.0352 -0.1701  0.4665
17329SOL    HW157117   5.670   6.670   5.313 -0.6246 -0.3625  0.8072
17329SOL    HW257118   5.607   6.532   5.305 -0.5961 -0.3103 -0.3267
17330SOL     OW57119   4.976   1.551   4.250  0.1827 -0.4412 -0.4582
17330SOL    HW157120   5.003   1.461   4.229  0.7710 -0.3984  0.0944
17330SOL    HW257121   5.058   1.600   4.251 -0.2656  0.3570 -1.9978
17331SOL     OW57122   4.200   1.207   6.044  0.1556  0.4779  0.0687
17331SOL    HW157123   4.133   1.157   6.090  0.6206 -1.9003 -1.7485
17331SOL    HW257124   4.276   1.206   6.102 -0.2706  0.2366  0.6233
17332SOL     OW57125   7.219   3.560  10.830  0.4858  0.1003 -0.1294
17332SOL    HW157126   7.211   3.465  10.840 -2.2453  0.4080  1.0910
17332SOL    HW257127   7.269   3.588  10.906 -1.3016 -0.0424  1.1140
17333SOL     OW57128  10.640   9.775   7.636 -0.3452  0.1060  0.5699
17333SOL    HW157129  10.612   9.848   7.581 -0.6249 -0.9299 -0.6542
17333SOL    HW257130  10.561   9.746   7.680 -0.3074  0.2560  0.7400
17334SOL     OW57131   4.376   6.999   4.659 -0.0870  0.5183  0.0550
17334SOL    HW157132   4.356   7.075   4.605  0.3862 -0.2571 -1.2449
17334SOL    HW257133   4.445   6.953   4.611 -1.3232 -1.4575  0.1041
17335SOL     OW57134   3.629   0.631   6.335 -0.4175 -0.4639 -0.1397
17335SOL    HW157135   3.637   0.604   6.426  0.5141 -1.1944 -0.4299
17335SOL    HW257136   3.718   0.623   6.300 -0.8320 -0.4952 -1.1984
17336SOL     OW57137   7.965   8.231   1.305 -0.2352  0.1347  0.0233
17336SOL    HW157138   7.929   8.242   1.217 -0.4760  1.3250  0.2626
17336SOL    HW257139   8.023   8.306   1.317  0.0337 -0.1840  0.7645
17337SOL     OW57140  11.196   0.548   1.409 -0.1220  0.5261 -0.1059
17337SOL    HW157141  11.183   0.456   1.386  1.2494  0.6631 -1.5228
17337SOL    HW257142  11.278   0.549   1.458  1.3610  1.3334 -2.5334
17338SOL     OW57143   3.625   9.672   4.779 -0.1170 -0.7595  0.3311
17338SOL    HW157144   3.704   9.690   4.729 -0.8928 -0.8853 -0.9545
17338SOL    HW257145   3.656   9.661   4.869  0.7743  3.8857  0.7187
17339SOL     OW57146   0.573   9.920   3.710 -0.1083  0.0293  0.3818
17339SOL    HW157147   0.561   9.928   3.616 -0.2447 -1.6058  0.2529
17339SOL    HW257148   0.644   9.857   3.721  0.4106  0.7440  1.3759
17340SOL     OW57149   8.950   8.278   0.702  0.5398 -0.4004 -0.2545
17340SOL    HW157150   9.012   8.266   0.630  0.6664  0.1045 -0.2351
17340SOL    HW257151   8.945   8.373   0.714  0.2709 -0.4661  0.1873
17341SOL     OW57152   2.714   3.332   0.813  0.4925 -0.0253 -0.1570
17341SOL    HW157153   2.772   3.386   0.867 -1.1858  2.5905 -0.9243
17341SOL    HW257154   2.626   3.350   0.846 -0.2908 -0.5821 -1.8781
17342SOL     OW57155   9.191  10.359   7.290 -0.2921  0.6656  0.1253
17342SOL    HW157156   9.169  10.292   7.226  0.5972 -0.3850  0.8846
17342SOL    HW257157   9.189  10.313   7.374 -2.1394  2.1787  0.9438
17343SOL     OW57158   3.350  10.773   7.259  0.3824  0.0155 -0.5996
17343SOL    HW157159   3.273  10.827   7.275 -0.7042 -1.6122 -0.2266
17343SOL    HW257160   3.410  10.795   7.331 -0.6995 -0.4368  0.4592
17344SOL     OW57161   6.809   0.330   6.981 -0.4434 -0.2093  0.9739
17344SOL    HW157162   6.752   0.350   6.907  1.0349  1.5168  0.2329
17344SOL    HW257163   6.892   0.305   6.941 -0.2611 -1.3421  2.0366
17345SOL     OW57164   1.337   8.487   8.014  0.0912  0.2997  0.1254
17345SOL    HW157165   1.391   8.515   8.088 -1.9632  1.9130  1.0570
17345SOL    HW257166   1.337   8.391   8.019  2.6646  0.2818  0.2297
17346SOL     OW57167   8.070   4.851   7.806  0.5227  0.2376 -0.0266
17346SOL    HW157168   8.031   4.933   7.777 -0.6053  0.2549  1.5162
17346SOL    HW257169   8.095   4.866   7.897  0.1195 -1.1839  0.3367
17347SOL     OW57170   4.736   4.280   3.681  0.1452  0.1012  0.5908
17347SOL    HW157171   4.692   4.354   3.724  0.4116  1.9576 -2.1480
17347SOL    HW257172   4.829   4.296   3.695  0.1810  0.0269  0.4426
17348SOL     OW57173   1.813   3.510   9.879  0.1464 -0.3527  0.3833
17348SOL    HW157174   1.807   3.415   9.877 -0.8818 -0.2932  0.2520
17348SOL    HW257175   1.729   3.540   9.843  2.2184  0.5879 -4.0950
17349SOL     OW57176   7.708  10.481   5.117 -0.3134  0.1763  0.0213
17349SOL    HW157177   7.667  10.489   5.032 -0.6314 -0.1092  0.1497
17349SOL    HW257178   7.636  10.484   5.180 -0.0685  0.5594  0.2914
17350SOL     OW57179   8.796   9.128  10.791  0.0892  1.0879 -0.1215
17350SOL    HW157180   8.752   9.182  10.725 -0.7028 -1.0314 -1.3800
17350SOL    HW257181   8.882   9.109  10.752 -0.1921  0.2375 -0.3246
17351SOL     OW57182   9.447  10.965   3.265 -0.1868  0.5983 -0.4010
17351SOL    HW157183   9.473  11.046   3.221 -1.4782  1.1972 -0.1021
17351SOL    HW257184   9.368  10.989   3.314 -1.7004 -1.2856 -1.8335
17352SOL     OW57185   3.252   5.495   8.936 -0.2547  0.1693 -0.5225
17352SOL    HW157186   3.188   5.427   8.912 -0.0330 -0.9575  1.9940
17352SOL    HW257187   3.322   5.485   8.872 -0.8905 -1.0379 -1.0557
17353SOL     OW57188   7.625  10.715   2.599 -0.2304  0.1086 -0.2967
17353SOL    HW157189   7.704  10.701   2.546 -0.3811 -1.9209 -0.0000
17353SOL    HW257190   7.601  10.807   2.582  1.6310  0.4648 -1.1296
17354SOL     OW57191   8.435   4.383  10.353  0.1842  0.0254 -0.6463
17354SOL    HW157192   8.528   4.366  10.345  0.3484  1.0038 -0.8429
17354SOL    HW257193   8.398   4.358  10.268  0.4096  0.5369 -0.8969
17355SOL     OW57194   1.000   8.487   9.639 -0.4040  0.1642 -0.1088
17355SOL    HW157195   1.055   8.472   9.562  0.2661 -0.0283  0.4007
17355SOL    HW257196   0.961   8.573   9.624 -1.2209 -0.3967 -1.2219
17356SOL     OW57197   0.132   1.192   5.050  0.3940  0.8455  0.4478
17356SOL    HW157198   0.200   1.205   4.983  1.5006 -2.9198  0.7097
17356SOL    HW257199   0.094   1.107   5.028 -1.5394  1.1115  2.6618
17357SOL     OW57200   2.970   1.637   4.391  0.2972  0.5452  0.0754
17357SOL    HW157201   2.997   1.698   4.459 -0.2538  2.5401 -1.4683
17357SOL    HW257202   2.975   1.686   4.310  0.2260 -1.5822 -1.2675
17358SOL     OW57203   9.533   9.999  11.152  0.0038 -0.5034  0.3398
17358SOL    HW157204   9.567   9.996  11.062  0.8422 -0.5417  0.6548
17358SOL    HW257205   9.573  10.078  11.189  0.1489 -0.8306  0.8784
17359SOL     OW57206   5.633   2.299   0.947 -0.6563 -0.0606  0.5205
17359SOL    HW157207   5.545   2.287   0.911 -0.4510 -0.1271  0.0248
17359SOL    HW257208   5.659   2.211   0.975 -0.5569 -0.1294  0.2136
17360SOL     OW57209  11.001   6.476   6.357  0.0362  0.0309  0.4256
17360SOL    HW157210  11.090   6.448   6.378 -0.1167  0.2473  1.4326
17360SOL    HW257211  11.010   6.564   6.321  0.3049 -0.3009 -0.3056
17361SOL     OW57212   7.804   5.029   8.316  0.4975 -0.4018 -0.5285
17361SOL    HW157213   7.752   5.053   8.393 -0.6132  0.8971 -1.6634
17361SOL    HW257214   7.883   5.084   8.322 -1.4248  2.6870 -2.4066
17362SOL     OW57215   0.213   9.656   7.735 -0.2149 -0.0432 -0.0528
17362SOL    HW157216   0.268   9.677   7.659  0.3337 -1.8702 -0.1998
17362SOL    HW257217   0.173   9.572   7.712 -0.6718 -0.2194  1.3495
17363SOL     OW57218  10.549  10.044   6.341  0.3712  0.1346 -0.0758
17363SOL    HW157219  10.605  10.121   6.331  0.3043 -0.0686 -2.2178
17363SOL    HW257220  10.460  10.078   6.331  0.3920 -0.3685 -2.1675
17364SOL     OW57221   4.961   5.428  10.081 -0.0878  0.4617  0.2942
17364SOL    HW157222   4.979   5.389   9.996 -1.8761 -0.4772  0.3170
17364SOL    HW257223   4.889   5.489  10.065  0.4013  1.2123  0.9037
17365SOL     OW57224   0.804   0.780   3.820  0.4018 -0.1549 -0.3134
17365SOL    HW157225   0.815   0.726   3.897 -0.7643 -1.2611 -0.9130
17365SOL    HW257226   0.862   0.855   3.835  2.5398 -1.8702  0.2267
17366SOL     OW57227   6.999   5.934   0.100 -0.2611  0.3981  0.4434
17366SOL    HW157228   6.905   5.953   0.098 -0.3147  0.1664  0.7381
17366SOL    HW257229   7.023   5.924   0.008 -1.1757 -2.7187  0.4817
17367SOL     OW57230   9.114   9.199  11.158  0.1259 -0.2199 -0.1997
17367SOL    HW157231   9.032   9.167  11.121 -0.3364 -0.2430  0.8348
17367SOL    HW257232   9.156   9.121  11.195  0.4565 -0.1511 -0.4217
17368SOL     OW57233  10.908   8.372   8.682 -0.1401 -0.5113  0.3418
17368SOL    HW157234  10.871   8.285   8.671 -1.8315  0.2062  0.1272
17368SOL    HW257235  10.954   8.389   8.601  1.8264 -1.9448  1.1223
17369SOL     OW57236   4.410  10.908   6.665 -0.1720 -0.0591 -0.0974
17369SOL    HW157237   4.347  10.863   6.721 -0.0897 -5.6433 -4.0592
17369SOL    HW257238   4.357  10.971   6.616 -1.4554 -0.0714  1.2264
17370SOL     OW57239   2.754   1.213   7.675 -0.4515  0.4034 -0.0058
17370SOL    HW157240   2.752   1.194   7.581 -0.3885  0.0386  0.0637
17370SOL    HW257241   2.839   1.254   7.689  0.6199 -1.8573  0.3145
17371SOL     OW57242   7.719   4.924   9.577  0.0419 -0.3291 -0.1687
17371SOL    HW157243   7.716   4.952   9.485 -3.1286 -0.7790 -0.2437
17371SOL    HW257244   7.684   4.998   9.626  0.5826 -0.5547  0.5744
17372SOL     OW57245   8.013   1.462   5.416  0.1791  0.1090 -0.1949
17372SOL    HW157246   8.066   1.531   5.375 -0.2233 -0.3941 -1.5918
17372SOL    HW257247   7.934   1.457   5.361 -0.4640 -0.4386  0.7745
17373SOL     OW57248  10.890   3.906   6.511 -0.1676 -0.0509 -0.7360
17373SOL    HW157249  10.857   3.943   6.592  1.7305  0.5258 -0.2004
17373SOL    HW257250  10.877   3.974   6.445 -0.2969  0.0754 -0.5786
17374SOL     OW57251   0.011   7.117   9.995 -0.4399  0.2337 -0.2213
17374SOL    HW157252  -0.040   7.197  10.010 -0.0224  0.3241  0.7093
17374SOL    HW257253  -0.055   7.049   9.980 -0.8066  1.2017 -3.4848
17375SOL     OW57254   5.007   4.997  10.206 -0.1171 -0.5329 -0.2568
17375SOL    HW157255   5.038   5.023  10.120  1.5818 -0.1010  0.4697
17375SOL    HW257256   5.061   4.922  10.230 -0.0992 -0.2066  0.7378
17376SOL     OW57257   1.081  10.209   3.893 -0.6176 -0.5086 -0.4382
17376SOL    HW157258   1.076  10.300   3.924  2.1344 -0.9445  1.4482
17376SOL    HW257259   0.994  10.174   3.909 -0.3777  0.4094  3.4689
17377SOL     OW57260   7.552   4.594   7.586 -0.0012  0.4210  0.4028
17377SOL    HW157261   7.460   4.579   7.606 -0.0232  0.0385  0.0215
17377SOL    HW257262   7.557   4.688   7.567 -0.1506  0.6026  1.2603
17378SOL     OW57263   9.457   9.043  10.204 -0.0698  0.0164 -0.3291
17378SOL    HW157264   9.412   9.026  10.286  0.3910 -2.8116 -0.6072
17378SOL    HW257265   9.390   9.030  10.137 -0.0555  0.7553 -0.4938
17379SOL     OW57266   5.724   0.815   9.823  0.2114  0.2850 -0.2367
17379SOL    HW157267   5.812   0.797   9.791  0.4043  0.5154  0.1595
17379SOL    HW257268   5.738   0.863   9.905 -0.2648 -0.2145  0.1463
17380SOL     OW57269   4.067   3.599   0.094  0.3263 -0.1399 -0.0842
17380SOL    HW157270   3.974   3.598   0.073  0.1859  0.4086  0.4981
17380SOL    HW257271   4.081   3.521   0.148  0.0609  0.1505  0.4129
17381SOL     OW57272   0.159   9.208   6.223  0.0265  0.5560 -0.3466
17381SOL    HW157273   0.232   9.146   6.229 -0.5631 -0.1146  0.0470
17381SOL    HW257274   0.082   9.155   6.243 -0.2941  1.8611  1.9604
17382SOL     OW57275   0.713   1.586   8.822 -0.2981 -0.0642  0.3003
17382SOL    HW157276   0.654   1.659   8.839 -1.0718 -0.7220  0.4905
17382SOL    HW257277   0.754   1.607   8.738 -2.5168 -0.6854 -0.9702
17383SOL     OW57278   2.164   0.719   1.580  0.0157 -0.3312  0.5856
17383SOL    HW157279   2.187   0.675   1.499 -0.0813  0.2287  0.2549
17383SOL    HW257280   2.228   0.790   1.588 -0.3184 -0.0442  0.7138
17384SOL     OW57281   3.362   9.099   4.705  0.1410 -0.4047  0.6654
17384SOL    HW157282   3.299   9.042   4.750  0.4113 -1.0200  0.2634
17384SOL    HW257283   3.447   9.077   4.744  0.4692 -1.3942 -0.5802
17385SOL     OW57284   4.325   3.895  10.290  0.4973 -0.1154  0.3979
17385SOL    HW157285   4.249   3.934  10.333  2.6569  0.9927  3.4431
17385SOL    HW257286   4.312   3.801  10.300 -1.1582  0.0162 -0.3851
17386SOL     OW57287   6.749   0.447   2.592 -0.5298  0.3665 -0.1740
17386SOL    HW157288   6.714   0.535   2.606  0.6846  0.8551 -0.1583
17386SOL    HW257289   6.736   0.402   2.675  1.8463  1.5802  0.8842
17387SOL     OW57290   7.497   6.662   5.847  0.0801 -0.6132  0.5387
17387SOL    HW157291   7.498   6.668   5.943 -0.2896  3.5303  0.3613
17387SOL    HW257292   7.589   6.658   5.822  0.2315 -0.0016  0.9964
17388SOL     OW57293   6.895   2.879   3.679  0.1024 -0.0983 -0.2225
17388SOL    HW157294   6.826   2.815   3.695 -0.4970  0.7384  0.6332
17388SOL    HW257295   6.927   2.859   3.591  1.7089 -3.1856  1.0170
17389SOL     OW57296   2.927   1.424   4.586  0.6427  0.2900  0.0201
17389SOL    HW157297   2.936   1.492   4.520  0.0377 -0.3281 -0.7108
17389SOL    HW257298   2.930   1.342   4.537 -0.2066 -0.1651  0.7014
17390SOL     OW57299   9.454   4.004   5.414 -0.2363 -0.3025  0.1227
17390SOL    HW157300   9.460   4.013   5.319 -0.3947  0.5537  0.1878
17390SOL    HW257301   9.417   4.087   5.444 -0.5268 -0.7024  0.9027
17391SOL     OW57302  10.184   9.624   0.147  0.5740 -0.2598  0.2228
17391SOL    HW157303  10.190   9.720   0.148  1.8827 -0.3287 -0.3234
17391SOL    HW257304  10.171   9.600   0.238 -0.5417  0.4805  0.2740
17392SOL     OW57305   2.549   7.052   7.416 -0.0482 -0.4969  0.2644
17392SOL    HW157306   2.614   7.086   7.478  0.0080  2.8018 -1.4730
17392SOL    HW257307   2.478   7.116   7.420 -1.6119 -2.1602 -0.4931
17393SOL     OW57308   1.922   4.538   3.895 -0.4645 -0.4238  0.0476
17393SOL    HW157309   1.950   4.626   3.920 -0.8983 -0.4064  0.4703
17393SOL    HW257310   1.928   4.538   3.799  0.8108 -0.3655  0.1236
17394SOL     OW57311   8.716   6.270   1.481 -0.2537 -0.5108  0.0312
17394SOL    HW157312   8.778   6.336   1.512  0.2043 -0.7119 -0.4519
17394SOL    HW257313   8.699   6.293   1.390 -0.9151 -0.4375  0.1705
17395SOL     OW57314   3.141   2.966   0.311 -0.0028 -0.0897 -0.3129
17395SOL    HW157315   3.204   3.026   0.350 -0.9764 -0.0914  1.3026
17395SOL    HW257316   3.065   3.021   0.290 -0.4618 -0.5439  0.1384
17396SOL     OW57317   1.286   9.294   3.964  0.3163  0.2699 -0.1315
17396SOL    HW157318   1.279   9.204   3.995 -0.8162 -0.0405 -1.2258
17396SOL    HW257319   1.198   9.315   3.931  1.1928  0.9241 -2.1251
17397SOL     OW57320  10.090   4.009  10.042  0.1127  0.2403 -0.0774
17397SOL    HW157321  10.127   4.097  10.036  0.9151 -0.1718 -1.4921
17397SOL    HW257322  10.155   3.960  10.093  0.6542 -0.0213 -0.9997
17398SOL     OW57323   9.975   0.748   4.819  0.1135 -0.6058  0.0740
17398SOL    HW157324   9.961   0.837   4.785  0.6821 -0.7154 -0.4711
17398SOL    HW257325   9.969   0.692   4.741 -0.0639 -1.0248  0.3899
17399SOL     OW57326   4.352   5.639  10.843  0.0867  0.2053 -0.1899
17399SOL    HW157327   4.401   5.659  10.923 -0.5238 -1.6359  0.6761
17399SOL    HW257328   4.405   5.677  10.772  1.8217 -0.1756  0.8791
17400SOL     OW57329   6.391   2.535   9.219  0.2734 -0.0876 -0.0903
17400SOL    HW157330   6.340   2.497   9.147  0.5700  0.6971 -0.7226
17400SOL    HW257331   6.467   2.477   9.227 -0.9569 -1.5889  1.2216
17401SOL     OW57332   1.940   8.424   2.133 -0.1025 -0.6921  0.4397
17401SOL    HW157333   1.969   8.499   2.184 -0.9919 -0.1325  0.1278
17401SOL    HW257334   2.021   8.381   2.106  0.3555 -1.2318  2.6511
17402SOL     OW57335   7.374   5.931   3.066 -0.3351 -0.5456  0.5020
17402SOL    HW157336   7.394   5.858   3.124  0.0729 -0.4589  0.4763
17402SOL    HW257337   7.376   5.893   2.978 -2.0748 -0.9175  0.6086
17403SOL     OW57338   2.239   9.788   3.551  0.3527  0.5697  0.0406
17403SOL    HW157339   2.319   9.809   3.502  0.5722  0.4564  0.3470
17403SOL    HW257340   2.268   9.780   3.642  0.3543 -1.4025 -0.1135
17404SOL     OW57341   6.261   4.202   3.960  0.4093 -0.0648 -0.2571
17404SOL    HW157342   6.223   4.139   4.021  0.5876 -2.2488 -2.3124
17404SOL    HW257343   6.197   4.273   3.955  0.8005  0.5955  3.0690
17405SOL     OW57344   7.474   4.718  10.989  0.2610  0.0740 -0.2717
17405SOL    HW157345   7.520   4.780  11.045 -1.0382 -0.3635  1.2960
17405SOL    HW257346   7.384   4.751  10.986 -0.0489 -0.8199 -0.7906
17406SOL     OW57347   0.015   9.953   2.337 -0.2278 -0.9704 -0.1377
17406SOL    HW157348   0.099   9.909   2.351 -0.2540 -1.0123 -0.1133
17406SOL    HW257349  -0.011   9.927   2.248  1.3664  1.6522 -1.4261
17407SOL     OW57350   2.595   1.646   9.540  0.1617  0.0471  0.6373
17407SOL    HW157351   2.676   1.599   9.520 -0.0600  0.3192 -0.9443
17407SOL    HW257352   2.623   1.735   9.561  0.1389  0.7653 -2.1334
17408SOL     OW57353   1.385   6.222   9.155  0.4477 -0.0946  0.5592
17408SOL    HW157354   1.323   6.294   9.150  0.1184 -0.4727 -0.9425
17408SOL    HW257355   1.436   6.227   9.074  0.1077 -1.8092  0.2087
17409SOL     OW57356   6.450   1.858   0.138  0.6111 -0.2110 -0.1815
17409SOL    HW157357   6.452   1.763   0.137  1.7519 -0.2399  2.3030
17409SOL    HW257358   6.486   1.884   0.053  1.6150 -1.9675 -0.3055
17410SOL     OW57359   0.133   8.415  10.259 -0.2440  0.2557 -0.3008
17410SOL    HW157360   0.068   8.461  10.313 -1.8975 -1.9542 -0.3288
17410SOL    HW257361   0.091   8.406  10.174  0.5817 -0.1630 -0.6637
17411SOL     OW57362   6.296   9.527   2.777 -0.0403 -0.4758  0.0039
17411SOL    HW157363   6.294   9.467   2.852  1.2249 -1.4898 -0.7531
17411SOL    HW257364   6.336   9.607   2.811  0.8973 -1.0715  0.3228
17412SOL     OW57365  10.980   1.861  10.806 -0.0919  0.1466  0.3283
17412SOL    HW157366  11.017   1.823  10.726 -1.4509  1.7176 -1.0895
17412SOL    HW257367  11.050   1.917  10.841  0.5044 -0.5379  0.2418
17413SOL     OW57368  10.932   2.532   4.591 -0.0868  0.0020 -0.3170
17413SOL    HW157369  11.006   2.591   4.598  0.3332 -0.4857 -0.5740
17413SOL    HW257370  10.929   2.509   4.498 -0.2550 -0.3647 -0.2216
17414SOL     OW57371   5.994   8.233   7.291 -0.0591 -0.2141 -0.2080
17414SOL    HW157372   5.909   8.231   7.246 -0.0444 -0.3841 -0.2281
17414SOL    HW257373   6.053   8.186   7.233 -0.2458 -1.2238  0.4109
17415SOL     OW57374   7.191   6.232   2.223  0.3994 -0.6341 -0.2815
17415SOL    HW157375   7.258   6.293   2.256 -0.9056 -0.0477  1.3267
17415SOL    HW257376   7.236   6.148   2.219  2.0993  0.3338 -2.0946
17416SOL     OW57377   4.925  10.009   8.217  0.4803  0.3043 -0.1178
17416SOL    HW157378   4.894   9.926   8.180  0.5246  0.0161  0.4805
17416SOL    HW257379   5.018   9.994   8.235 -0.0161 -0.2885  2.0857
17417SOL     OW57380   9.975   3.336   1.370  0.8960  0.0754 -0.2903
17417SOL    HW157381   9.991   3.388   1.449 -1.6558 -0.7856  0.8419
17417SOL    HW257382   9.905   3.382   1.325  0.2212 -1.1051 -0.4643
17418SOL     OW57383   8.827   6.522   2.491 -0.4637  0.8832  0.3957
17418SOL    HW157384   8.845   6.612   2.518 -0.0850  0.4484  1.6511
17418SOL    HW257385   8.760   6.492   2.553 -0.0135  0.0556  0.4898
17419SOL     OW57386   7.011   7.231   0.902 -0.2491  0.0213  0.1451
17419SOL    HW157387   7.009   7.144   0.942 -0.3973 -0.0103  0.0699
17419SOL    HW257388   7.096   7.268   0.927  0.4229 -0.7054 -1.0019
17420SOL     OW57389   6.931   4.214   2.387 -0.0488  0.7414 -0.2366
17420SOL    HW157390   6.866   4.284   2.381 -1.0338  0.0738  1.9980
17420SOL    HW257391   6.881   4.133   2.376  1.1750  0.3519 -3.4230
17421SOL     OW57392   4.223   8.344   0.971  0.3664  0.4061 -0.2467
17421SOL    HW157393   4.211   8.252   0.992 -0.5008  0.1851 -1.6501
17421SOL    HW257394   4.158   8.390   1.026  2.1394  0.3998  1.9458
17422SOL     OW57395   7.006   4.942   6.815 -0.1154  0.8006 -0.1607
17422SOL    HW157396   7.057   4.984   6.884 -0.6894 -1.0642  1.4549
17422SOL    HW257397   6.915   4.960   6.838 -0.3001  0.5339 -0.6751
17423SOL     OW57398   7.518   2.728   0.444 -0.6381  0.2494 -0.0256
17423SOL    HW157399   7.458   2.660   0.474  0.5206 -1.4043 -1.3805
17423SOL    HW257400   7.569   2.686   0.375  0.4737  2.3383 -0.4984
17424SOL     OW57401   0.868   8.569   2.912 -0.1727  0.4000 -0.3025
17424SOL    HW157402   0.779   8.564   2.877  0.1958 -0.7542 -1.1306
17424SOL    HW257403   0.917   8.503   2.862  1.4728  1.9455 -0.8314
17425SOL     OW57404   7.539   8.129   3.265  0.3877 -0.7778 -0.0321
17425SOL    HW157405   7.480   8.115   3.191  1.4527 -3.2168 -0.4477
17425SOL    HW257406   7.489   8.100   3.341  0.1439 -0.4284 -0.0529
17426SOL     OW57407  10.896   6.394   0.595  0.4775  0.2892 -0.2072
17426SOL    HW157408  10.950   6.316   0.583  0.7347  0.5358 -0.6362
17426SOL    HW257409  10.918   6.450   0.521 -0.5143  0.3096 -0.4886
17427SOL     OW57410   6.531   7.569  11.291  0.6224 -0.3334  0.3951
17427SOL    HW157411   6.479   7.491  11.270  0.9962 -0.3609 -0.4241
17427SOL    HW257412   6.581   7.587  11.211 -0.8837  1.8803 -0.0778
17428SOL     OW57413   3.340   8.483   6.377 -0.0453 -0.1562  0.2317
17428SOL    HW157414   3.366   8.398   6.414  1.2712 -0.7038 -1.8844
17428SOL    HW257415   3.276   8.460   6.310 -1.1483  0.7002  0.9827
17429SOL     OW57416   6.771   4.800   5.229  0.2312 -0.1378  0.1020
17429SOL    HW157417   6.850   4.834   5.186 -0.4606  0.3478 -0.7928
17429SOL    HW257418   6.796   4.791   5.321  0.7839  1.6986  0.1541
17430SOL     OW57419   9.066  11.327   0.269  0.0394  0.2265 -0.1420
17430SOL    HW157420   9.064  11.318   0.174 -0.3142  0.7006 -0.1790
17430SOL    HW257421   8.973  11.328   0.294  0.1321  0.3011  0.1918
17431SOL     OW57422   9.557  10.338   7.956  0.1518 -0.3510 -0.1992
17431SOL    HW157423   9.606  10.303   8.031  2.5650 -0.9249 -1.9365
17431SOL    HW257424   9.566  10.433   7.963  1.2882 -0.4421 -0.3279
17432SOL     OW57425   0.835   0.105   2.597  0.0628 -0.1622  0.5195
17432SOL    HW157426   0.844   0.113   2.692  0.2848 -0.3702  0.5163
17432SOL    HW257427   0.922   0.080   2.566  0.0609  0.1834  0.2284
17433SOL     OW57428  10.250   6.774   6.982 -0.7724  0.0340 -0.5105
17433SOL    HW157429  10.309   6.769   6.907 -0.1454  0.9296 -0.0790
17433SOL    HW257430  10.292   6.719   7.048 -0.2920  0.8560 -0.1231
17434SOL     OW57431  10.751   9.380   5.182 -0.0248 -0.0343  0.4038
17434SOL    HW157432  10.813   9.316   5.217  0.8114  1.1976  1.1929
17434SOL    HW257433  10.798   9.463   5.185 -0.7215  0.4566 -1.6124
17435SOL     OW57434   2.394   7.263   1.455  0.2523 -0.2716  1.3015
17435SOL    HW157435   2.409   7.234   1.545 -0.5272 -4.3096  0.2392
17435SOL    HW257436   2.456   7.212   1.403 -0.8458  0.3578 -0.6615
17436SOL     OW57437   2.901  11.138   9.472 -0.5333  0.2304  0.0606
17436SOL    HW157438   2.875  11.161   9.383 -1.8663 -1.7628 -0.1054
17436SOL    HW257439   2.827  11.087   9.506  1.6280 -2.4818  0.9016
17437SOL     OW57440   4.933   3.447   1.131  0.2004 -0.1221 -0.0610
17437SOL    HW157441   4.926   3.380   1.063 -0.4201  0.2116 -0.3368
17437SOL    HW257442   4.844   3.455   1.165  0.1611  0.9225 -0.3814
17438SOL     OW57443   5.634   7.659   3.060  0.2076 -0.4205 -0.7760
17438SOL    HW157444   5.678   7.737   3.093 -1.7732 -0.1431  1.3500
17438SOL    HW257445   5.578   7.691   2.990 -0.0787 -0.0297 -0.3738
17439SOL     OW57446  10.848   5.481   7.724  0.2672 -0.1766 -0.1141
17439SOL    HW157447  10.797   5.451   7.799 -1.2792  2.4832 -0.0376
17439SOL    HW257448  10.792   5.463   7.648  1.1129 -1.2989 -0.4965
17440SOL     OW57449   4.500   0.741   5.385 -0.6273 -0.1462  0.5410
17440SOL    HW157450   4.535   0.767   5.300 -0.9751 -2.0991 -0.2386
17440SOL    HW257451   4.536   0.653   5.398  0.9281  0.8438  3.2698
17441SOL     OW57452   1.177   3.957   0.392 -0.0725  0.2081  0.0422
17441SOL    HW157453   1.205   3.890   0.455  0.7959  0.7156  0.2083
17441SOL    HW257454   1.259   3.995   0.361 -0.5616  1.2229 -0.0202
17442SOL     OW57455   7.807   7.760   6.541  0.6473  0.4655  0.6030
17442SOL    HW157456   7.827   7.668   6.558  1.9669  0.2155 -2.1065
17442SOL    HW257457   7.848   7.807   6.614  0.5335 -1.0370  1.6513
17443SOL     OW57458   6.098   0.981   4.738 -0.3866 -0.1486 -0.1343
17443SOL    HW157459   6.189   0.970   4.767 -0.2551 -0.3488 -0.6179
17443SOL    HW257460   6.055   0.899   4.762 -0.2770 -0.3156 -0.5070
17444SOL     OW57461   3.230   3.483   5.151 -0.1786  0.1807  0.0859
17444SOL    HW157462   3.140   3.479   5.118 -0.4787 -1.4601  1.0359
17444SOL    HW257463   3.264   3.395   5.137  1.7846  1.1834 -1.6170
17445SOL     OW57464   2.164   5.305   2.817 -0.1477 -0.5726 -0.0588
17445SOL    HW157465   2.153   5.221   2.861 -0.8899  0.5018  1.8818
17445SOL    HW257466   2.157   5.285   2.724  0.5005 -2.7709  0.3325
17446SOL     OW57467   3.793   3.635   0.135 -0.1863  0.2347 -0.5173
17446SOL    HW157468   3.773   3.543   0.150 -0.4674  0.4634  0.5314
17446SOL    HW257469   3.727   3.664   0.072 -1.0191  0.1031  0.2948
17447SOL     OW57470   8.420   3.219  10.469 -0.2138  0.8742 -0.2001
17447SOL    HW157471   8.406   3.303  10.512  1.1657  0.8736  0.2717
17447SOL    HW257472   8.406   3.237  10.376  0.8962  1.8018 -0.1897
17448SOL     OW57473   9.996   3.505   1.640  0.1124  0.0778  0.2345
17448SOL    HW157474   9.933   3.555   1.587 -1.4727 -3.0238 -0.9150
17448SOL    HW257475   9.976   3.530   1.730 -0.1596  2.0378 -0.3357
17449SOL     OW57476  10.455   6.427   5.740 -0.3413  0.2894  0.1357
17449SOL    HW157477  10.373   6.443   5.693 -1.0242  1.0304  1.5556
17449SOL    HW257478  10.522   6.423   5.671 -1.1584  2.4432 -0.8251
17450SOL     OW57479   5.264   3.371   5.703  0.1917 -0.4236  0.0978
17450SOL    HW157480   5.208   3.422   5.761 -0.5320 -1.1682  0.0714
17450SOL    HW257481   5.202   3.322   5.648  0.8215  1.4098 -2.3422
17451SOL     OW57482   8.155   2.176  11.033  0.1195  0.1679 -0.0705
17451SOL    HW157483   8.146   2.233  10.956  1.3819  0.2487 -0.1738
17451SOL    HW257484   8.139   2.234  11.108  0.4259  0.4451 -0.2172
17452SOL     OW57485   3.900   7.169   4.925 -0.6353  0.0059  0.1826
17452SOL    HW157486   3.940   7.140   4.843 -1.5013 -1.3773  0.2444
17452SOL    HW257487   3.952   7.127   4.994 -0.6546  0.2080  0.3205
17453SOL     OW57488   0.705   9.424  11.189  0.0902  0.6395 -0.4457
17453SOL    HW157489   0.644   9.403  11.118  0.7220 -0.9618 -0.5375
17453SOL    HW257490   0.790   9.435  11.145  0.2425  0.9170 -0.0863
17454SOL     OW57491   5.277   3.577   1.513  0.3989 -0.3844  0.0114
17454SOL    HW157492   5.206   3.517   1.491 -1.2012  1.7436 -0.7691
17454SOL    HW257493   5.324   3.533   1.584 -1.7355 -1.7891  0.6133
17455SOL     OW57494   5.774   1.546   5.197 -0.4604 -0.6545 -0.1515
17455SOL    HW157495   5.752   1.639   5.202  0.5593 -0.4653  0.9146
17455SOL    HW257496   5.702   1.507   5.147 -1.4214  0.5274  0.2971
17456SOL     OW57497   0.291   5.575   5.097  0.9608  0.2626 -0.0253
17456SOL    HW157498   0.289   5.669   5.081  2.7228  0.4446  0.7561
17456SOL    HW257499   0.339   5.565   5.180  1.5625 -1.3703 -0.5422
17457SOL     OW57500   6.576   5.392  10.126 -0.8324  0.0300  0.1656
17457SOL    HW157501   6.539   5.331  10.189 -0.9084 -0.0255  0.0674
17457SOL    HW257502   6.511   5.461  10.118 -0.6344  0.2562  0.4687
17458SOL     OW57503   0.828   3.739   5.903  0.4202  0.5828  0.0174
17458SOL    HW157504   0.866   3.761   5.818 -0.9230  0.1360 -0.7219
17458SOL    HW257505   0.866   3.803   5.963  0.5980  1.5764 -1.1234
17459SOL     OW57506  10.259   0.127   0.504  0.3089 -0.2519  0.4445
17459SOL    HW157507  10.282   0.052   0.559 -0.7953 -0.7682  0.2129
17459SOL    HW257508  10.222   0.191   0.565 -1.5039 -1.0732  0.2319
17460SOL     OW57509   7.743   2.580   5.175 -0.0507  0.1344 -0.2156
17460SOL    HW157510   7.780   2.529   5.247  1.1288 -1.2155 -1.7129
17460SOL    HW257511   7.693   2.516   5.124  0.5306  0.6819 -1.5111
17461SOL     OW57512   3.469   4.739   0.281 -0.3864 -0.2910 -0.0739
17461SOL    HW157513   3.420   4.657   0.282 -0.2819 -0.3559 -0.2389
17461SOL    HW257514   3.488   4.757   0.373  0.6298 -1.0732 -0.1232
17462SOL     OW57515   6.711   2.382   4.533  0.3986 -0.0843  0.3569
17462SOL    HW157516   6.624   2.410   4.562 -0.3877 -1.0440 -1.0328
17462SOL    HW257517   6.734   2.310   4.592  0.1868  0.0622  0.6201
17463SOL     OW57518   4.580   9.225   0.498 -0.1488 -0.1533 -0.2396
17463SOL    HW157519   4.630   9.304   0.477  0.1981 -0.4035 -0.3700
17463SOL    HW257520   4.549   9.239   0.587 -0.0498  0.1092 -0.2449
17464SOL     OW57521   8.021   5.260   7.385 -0.3187 -0.1916 -0.0843
17464SOL    HW157522   7.983   5.210   7.457  1.4288  0.6295  1.4196
17464SOL    HW257523   8.100   5.212   7.360 -0.6169 -0.1797 -1.1081
17465SOL     OW57524   0.086   5.468   7.993 -0.3609 -0.0568  0.3934
17465SOL    HW157525   0.047   5.457   7.907  0.6294  0.6227 -0.1588
17465SOL    HW257526   0.046   5.400   8.047 -1.8524  0.2679 -0.2934
17466SOL     OW57527   5.064   0.365   7.532  0.0470 -0.0770  0.2070
17466SOL    HW157528   5.138   0.307   7.518  0.6011  0.3413  1.3534
17466SOL    HW257529   5.064   0.383   7.626 -1.2650  0.2529  0.1632
17467SOL     OW57530   1.834   0.293  11.171  0.0851  0.6114  0.1961
17467SOL    HW157531   1.825   0.275  11.265 -1.2762 -0.0277 -0.0485
17467SOL    HW257532   1.755   0.256  11.132  0.6286  0.9144 -1.2051
17468SOL     OW57533  11.169   8.193   1.320  0.3022  0.0275 -0.4021
17468SOL    HW157534  11.217   8.256   1.373  0.9844 -1.0027  0.2092
17468SOL    HW257535  11.220   8.186   1.239  1.4175 -1.3816  0.4161
17469SOL     OW57536   8.245   4.663   3.627  0.2813  0.6325 -0.6412
17469SOL    HW157537   8.332   4.688   3.658  0.1148  0.8348 -0.3433
17469SOL    HW257538   8.243   4.690   3.535  0.5368  0.6139 -0.6508
17470SOL     OW57539   2.415   7.095  10.822 -0.3999 -0.0548  0.5437
17470SOL    HW157540   2.460   7.078  10.739 -1.8769  2.7627 -0.8925
17470SOL    HW257541   2.349   7.027  10.828 -1.5301  0.8149 -1.5659
17471SOL     OW57542   1.258   9.181   2.333  0.0197  0.0052 -0.1920
17471SOL    HW157543   1.295   9.189   2.421  0.0619  1.1340 -0.3015
17471SOL    HW257544   1.325   9.133   2.283 -0.5257 -1.7105  0.6813
17472SOL     OW57545   4.268   3.867   3.531 -0.4296 -0.0085 -0.0929
17472SOL    HW157546   4.196   3.859   3.593  0.1763  1.9090  0.9106
17472SOL    HW257547   4.346   3.847   3.583  0.1919  2.6986  0.0940
17473SOL     OW57548   7.797   2.229   8.081 -0.5615  0.3719 -0.0897
17473SOL    HW157549   7.775   2.139   8.057 -1.7220  1.1526 -2.0953
17473SOL    HW257550   7.804   2.275   7.998  0.2130  2.1142  0.9049
17474SOL     OW57551   5.743   4.715   1.696 -0.1302 -0.0917 -0.4418
17474SOL    HW157552   5.693   4.749   1.770  1.1324 -0.0132  0.3812
17474SOL    HW257553   5.682   4.719   1.623 -1.5724 -0.6212  0.6798
17475SOL     OW57554   1.105   1.281   3.860 -0.2760 -0.6147  0.3395
17475SOL    HW157555   1.086   1.219   3.930 -0.9415  0.9339  1.5748
17475SOL    HW257556   1.131   1.227   3.786 -0.5690 -2.3380  1.4681
17476SOL     OW57557   4.503   3.042   3.455  0.2021 -0.1262  0.9592
17476SOL    HW157558   4.431   3.104   3.457  0.5241  0.4476 -2.2907
17476SOL    HW257559   4.461   2.958   3.435  0.2200 -0.1934  1.1989
17477SOL     OW57560   0.513   9.086   8.519  0.4005 -0.0069  0.1409
17477SOL    HW157561   0.491   9.077   8.612 -1.5497 -0.9050 -0.4024
17477SOL    HW257562   0.473   9.011   8.477  2.0898 -0.1170 -1.3195
17478SOL     OW57563  10.928   9.186  10.347 -0.1270  0.1818  0.0956
17478SOL    HW157564  10.853   9.154  10.396 -1.7176 -0.8065 -2.8338
17478SOL    HW257565  10.953   9.112  10.291  2.2790  0.9017  0.1533
17479SOL     OW57566   5.454   2.868   4.994 -0.3350  0.1108  0.3385
17479SOL    HW157567   5.389   2.800   4.977  0.2310 -0.5948  0.9329
17479SOL    HW257568   5.475   2.904   4.908 -2.6208  1.3832  0.3063
17480SOL     OW57569   7.685   5.861   8.259 -0.2889 -0.4871 -0.3898
17480SOL    HW157570   7.650   5.792   8.315  0.5713 -1.4691 -1.0483
17480SOL    HW257571   7.607   5.910   8.231 -0.7453 -0.1085  1.4682
17481SOL     OW57572   8.100   4.504   4.594 -0.3567  0.2194  0.4831
17481SOL    HW157573   8.021   4.471   4.553 -1.7790  2.5840  1.1934
17481SOL    HW257574   8.084   4.494   4.688 -0.0600  1.2254  0.6452
17482SOL     OW57575   3.120   4.669   2.246  0.1293  0.4846  0.1753
17482SOL    HW157576   3.122   4.594   2.306  3.6732  1.2262  1.1066
17482SOL    HW257577   3.150   4.634   2.162  0.2317  0.5064  0.2024
17483SOL     OW57578   0.929   7.096   7.115 -0.1951  0.2664  0.4059
17483SOL    HW157579   0.899   7.187   7.106  0.4115  0.6380  1.8934
17483SOL    HW257580   0.850   7.046   7.131 -0.5650  0.4914 -0.7017
17484SOL     OW57581   6.699   2.876  10.227 -0.0091  0.3119 -0.2351
17484SOL    HW157582   6.740   2.898  10.143 -2.0111 -0.5929 -1.4656
17484SOL    HW257583   6.622   2.825  10.204 -0.6458  0.1334  2.1675
17485SOL     OW57584   8.799   3.757   4.886 -0.0136  0.4041  0.0799
17485SOL    HW157585   8.777   3.827   4.826 -2.3242 -0.9711 -0.7292
17485SOL    HW257586   8.750   3.776   4.966 -0.7485 -0.3299 -0.1850
17486SOL     OW57587   3.068   3.966  10.252 -0.5461  0.2882 -0.1611
17486SOL    HW157588   3.008   3.906  10.295 -0.4255  0.3090  0.0385
17486SOL    HW257589   3.125   3.998  10.323  0.3995 -0.5634 -0.5209
17487SOL     OW57590   5.461   9.968   4.483  0.1626  0.0431  0.5739
17487SOL    HW157591   5.470   9.895   4.544  0.2315  0.9368  1.6445
17487SOL    HW257592   5.540   9.965   4.429  0.0094 -0.8666  0.3848
17488SOL     OW57593   9.298   4.534   5.286  0.4710  0.3690  0.2551
17488SOL    HW157594   9.363   4.520   5.355  0.0045  0.0527  0.6337
17488SOL    HW257595   9.218   4.494   5.320 -0.3614  2.2342  0.5048
17489SOL     OW57596   9.916   2.652   4.580 -0.0325  0.2472  0.0710
17489SOL    HW157597   9.966   2.698   4.648  0.1341  1.7815 -1.0507
17489SOL    HW257598   9.878   2.722   4.527 -0.8502 -0.9216 -0.9193
17490SOL     OW57599   8.057   2.846   6.275 -0.3346 -0.1387 -0.0206
17490SOL    HW157600   7.966   2.871   6.289 -0.9261 -2.2818  0.1943
17490SOL    HW257601   8.071   2.856   6.181 -0.8142  0.1683 -0.0564
17491SOL     OW57602   9.327   3.846   8.972 -0.3651  0.0987 -0.3758
17491SOL    HW157603   9.382   3.915   8.935  0.8043 -1.0767 -0.8882
17491SOL    HW257604   9.238   3.869   8.945 -0.0290  1.5971 -0.2192
17492SOL     OW57605   6.946   1.439   4.127  0.2437  0.0454 -0.0974
17492SOL    HW157606   6.888   1.448   4.203 -1.7038 -0.9209 -1.4379
17492SOL    HW257607   6.887   1.439   4.051  2.2212  1.9041 -1.6951
17493SOL     OW57608   1.896   9.345   0.308 -0.1904 -0.1713 -0.0797
17493SOL    HW157609   1.803   9.345   0.285 -0.2953 -1.0881  0.3362
17493SOL    HW257610   1.942   9.353   0.224 -0.6335 -0.3761 -0.3411
17494SOL     OW57611  10.326   0.839   4.777  0.5506  0.5433 -0.1114
17494SOL    HW157612  10.288   0.780   4.843  0.4730  0.6823 -0.0306
17494SOL    HW257613  10.413   0.805   4.761  0.2362 -0.0251 -0.6082
17495SOL     OW57614   7.580   8.360   8.209 -0.3432 -0.7228  0.2243
17495SOL    HW157615   7.566   8.396   8.296 -0.8182 -1.2370  0.3636
17495SOL    HW257616   7.631   8.280   8.224  0.5915 -0.1851 -0.0707
17496SOL     OW57617   0.779  10.712   6.326  0.0324 -0.1857 -0.1109
17496SOL    HW157618   0.858  10.766   6.327 -0.8345  1.1329 -1.1787
17496SOL    HW257619   0.755  10.706   6.234 -0.8127 -1.0490  0.1561
17497SOL     OW57620   9.472   3.304   9.465  0.1449  0.2987  0.4140
17497SOL    HW157621   9.482   3.391   9.426 -0.1323  0.1713  0.0582
17497SOL    HW257622   9.386   3.274   9.435 -0.0428  0.1713  1.0688
17498SOL     OW57623  10.062   5.255   2.456 -0.1099  0.2870  0.4713
17498SOL    HW157624   9.981   5.287   2.417 -0.5463  0.2731  1.3444
17498SOL    HW257625  10.040   5.167   2.489  0.1713  0.3941  0.9624
17499SOL     OW57626   7.166   1.405   1.869 -0.3529  0.4302  0.3313
17499SOL    HW157627   7.156   1.498   1.888  1.5401  0.7225 -0.0590
17499SOL    HW257628   7.161   1.399   1.774  0.9254  0.3080  0.2715
17500SOL     OW57629  10.202   0.096   2.773  0.3528 -0.3554  1.0973
17500SOL    HW157630  10.250   0.169   2.734 -1.0368 -0.1912 -0.3708
17500SOL    HW257631  10.269   0.043   2.816  1.4671  1.3529  1.4907
17501SOL     OW57632   6.479   7.373   9.438  0.2815 -0.1498 -0.3522
17501SOL    HW157633   6.448   7.383   9.348 -1.2543  0.1096  0.2019
17501SOL    HW257634   6.400   7.380   9.492  1.2616  0.2740  1.0541
17502SOL     OW57635   3.258   9.797   9.200 -0.3205 -0.3184 -0.5195
17502SOL    HW157636   3.247   9.702   9.198  0.6687 -0.4433  0.0133
17502SOL    HW257637   3.339   9.813   9.151 -1.0646  0.3401 -1.5572
17503SOL     OW57638   7.939   8.992   2.626  0.1712  0.6439  0.3554
17503SOL    HW157639   7.965   8.920   2.569 -0.6696  1.0722 -0.5877
17503SOL    HW257640   7.866   9.034   2.580  0.5494  1.9901  0.9692
17504SOL     OW57641   5.564   1.850   8.204 -0.2437 -0.0296  0.6169
17504SOL    HW157642   5.505   1.786   8.165  1.3151 -0.9607 -0.2921
17504SOL    HW257643   5.522   1.935   8.188 -0.1037 -0.4651 -2.3486
17505SOL     OW57644   0.813   3.085   7.583  0.1759 -0.0674 -0.0912
17505SOL    HW157645   0.796   3.112   7.493  0.3848 -2.1930 -0.7841
17505SOL    HW257646   0.745   3.130   7.634 -1.2851 -0.5253 -1.5757
17506SOL     OW57647   6.814   3.873   7.916  0.1255 -0.2886  0.1759
17506SOL    HW157648   6.763   3.952   7.898 -0.4741 -0.6288  0.3416
17506SOL    HW257649   6.874   3.897   7.986  1.2803  0.5655 -1.0864
17507SOL     OW57650   1.745   4.639   2.900  0.3490  0.2430  0.1254
17507SOL    HW157651   1.727   4.724   2.940  1.9910  1.6015 -1.9366
17507SOL    HW257652   1.718   4.649   2.809 -1.3003 -2.1091  0.3082
17508SOL     OW57653  10.931  10.000   1.100 -0.0490  0.0846 -0.5709
17508SOL    HW157654  10.844  10.039   1.098  0.1142  0.4273 -1.0454
17508SOL    HW257655  10.957   9.994   1.008  0.9364  1.1081 -0.3648
17509SOL     OW57656   2.012  10.561   1.735  0.2033 -0.3590  0.3133
17509SOL    HW157657   2.053  10.494   1.790  0.8233  0.7042  1.1756
17509SOL    HW257658   1.922  10.530   1.722 -0.0706 -0.4617  2.2407
17510SOL     OW57659   5.814   2.131   8.887  0.0011  0.1566  0.7691
17510SOL    HW157660   5.873   2.056   8.884  0.0491  0.0074  4.0030
17510SOL    HW257661   5.862   2.201   8.841  0.1427 -1.5862 -1.8613
17511SOL     OW57662   1.864   0.054   8.616 -0.0951 -0.2390  0.0011
17511SOL    HW157663   1.806  -0.021   8.628  1.0435 -1.2116 -0.4140
17511SOL    HW257664   1.837   0.093   8.532 -0.4631 -0.3910  0.0495
17512SOL     OW57665  10.519   0.177   2.416 -0.1002  0.3608  0.1023
17512SOL    HW157666  10.425   0.193   2.428 -0.1911  2.1947 -2.5177
17512SOL    HW257667  10.523   0.122   2.337  0.9123 -2.2107  1.9020
17513SOL     OW57668   5.001   4.393  10.288  0.0260 -0.0095  0.0152
17513SOL    HW157669   4.910   4.383  10.258  0.0686 -0.4453  0.0207
17513SOL    HW257670   5.042   4.309  10.266  0.9992  0.9492 -1.9305
17514SOL     OW57671   3.095   4.304   3.218 -0.2421  0.0430  0.1686
17514SOL    HW157672   3.105   4.324   3.311 -1.4168  1.5523 -0.0030
17514SOL    HW257673   3.001   4.285   3.208 -0.1215 -0.1043 -0.7084
17515SOL     OW57674   7.372   7.708   8.047  0.5382 -0.3465 -0.6656
17515SOL    HW157675   7.370   7.613   8.053  0.6898 -0.2989  0.2144
17515SOL    HW257676   7.404   7.726   7.959  3.1917 -1.1213  0.0854
17516SOL     OW57677  10.192   9.256   9.267  0.2418  0.6533 -0.3280
17516SOL    HW157678  10.264   9.206   9.229  1.6072  0.3598  2.5542
17516SOL    HW257679  10.233   9.332   9.307 -1.4250  2.1616 -1.3780
17517SOL     OW57680   6.139   0.759  10.730 -0.0275  0.4645  0.0609
17517SOL    HW157681   6.170   0.827  10.670  0.3946  0.3652  0.1662
17517SOL    HW257682   6.064   0.720  10.685  1.0109 -0.4094 -0.9436
17518SOL     OW57683   5.525   6.088  10.578 -0.6501  0.6322  0.0580
17518SOL    HW157684   5.531   6.149  10.505 -1.1146  0.6465  0.0380
17518SOL    HW257685   5.432   6.075  10.593 -0.5603  0.6907  0.6992
17519SOL     OW57686   8.681   2.904   2.383  0.1025  0.0106 -0.2922
17519SOL    HW157687   8.614   2.900   2.314  0.0949  0.2618 -0.2992
17519SOL    HW257688   8.674   2.993   2.417 -0.9494 -0.5800  1.0793
17520SOL     OW57689   7.842   5.207   0.585  0.5840  0.2173 -0.0000
17520SOL    HW157690   7.891   5.246   0.657  0.0102  0.0303  0.4925
17520SOL    HW257691   7.893   5.228   0.507  0.1598  2.1537  0.2238
17521SOL     OW57692   7.431   2.350   1.027  0.4730  0.3331  0.7108
17521SOL    HW157693   7.361   2.357   0.962  1.0612 -0.4795 -0.0163
17521SOL    HW257694   7.390   2.380   1.109 -1.0328 -1.0912  0.5140
17522SOL     OW57695   7.941   2.184   5.356  0.7684 -0.3902  0.0465
17522SOL    HW157696   8.021   2.196   5.407  0.9718 -0.2428 -0.3065
17522SOL    HW257697   7.913   2.094   5.377  0.6681 -0.2206  0.6666
17523SOL     OW57698   7.753   4.482   7.411 -0.2555 -0.1959  0.4725
17523SOL    HW157699   7.692   4.481   7.336  0.8181 -1.9438 -0.4045
17523SOL    HW257700   7.703   4.524   7.481 -1.4023  1.2091 -1.1264
17524SOL     OW57701   4.409   8.444  10.378 -0.0888 -0.2141 -0.1460
17524SOL    HW157702   4.327   8.462  10.332 -0.0813  0.1703 -0.0086
17524SOL    HW257703   4.476   8.448  10.309 -0.2467 -1.0697 -0.3536
17525SOL     OW57704   5.719   4.839   7.584  0.2017 -1.0017 -0.2303
17525SOL    HW157705   5.708   4.790   7.502  0.2117  0.8669 -1.3832
17525SOL    HW257706   5.790   4.901   7.565 -0.7293  0.3769  0.7239
17526SOL     OW57707   8.137   1.647   0.038 -0.2874 -0.3866 -0.3192
17526SOL    HW157708   8.139   1.605   0.125  1.4438 -1.2311 -0.7440
17526SOL    HW257709   8.196   1.593  -0.015  0.3162  1.3623 -1.4496
17527SOL     OW57710   1.502  10.772   8.389  0.0305 -0.1021  0.1425
17527SOL    HW157711   1.494  10.678   8.370  0.7160 -0.3588  1.0687
17527SOL    HW257712   1.551  10.775   8.471 -0.4790  1.0581  0.4092
17528SOL     OW57713   5.796   7.870   1.300 -0.4289 -0.3233  0.6645
17528SOL    HW157714   5.814   7.910   1.215 -1.0753 -2.5946 -0.5721
17528SOL    HW257715   5.736   7.932   1.343 -1.7306 -0.1167 -1.3475
17529SOL     OW57716   4.401   2.414   1.389  0.6228  0.3756  0.0142
17529SOL    HW157717   4.411   2.410   1.294  2.0789 -0.3458  0.1861
17529SOL    HW257718   4.473   2.470   1.418 -1.3639  2.7827  0.4726
17530SOL     OW57719   1.771  11.064   4.246  0.0885 -0.1277 -0.2433
17530SOL    HW157720   1.829  10.998   4.208  1.2052 -1.0044  2.8723
17530SOL    HW257721   1.728  11.019   4.319 -0.0461  2.2294  1.1664
17531SOL     OW57722   2.242  10.997   1.978  0.2400  0.5043 -0.0741
17531SOL    HW157723   2.228  10.904   1.997 -0.2484  0.4872 -0.5253
17531SOL    HW257724   2.257  11.000   1.884  1.5541  0.7314  0.1443
17532SOL     OW57725   7.799   1.667   4.926  0.8551 -0.1937 -0.1258
17532SOL    HW157726   7.874   1.703   4.879  0.1655  0.4263 -0.7515
17532SOL    HW257727   7.809   1.572   4.916  0.0906 -0.0763 -2.5768
17533SOL     OW57728  10.245   7.071   5.141 -0.2972 -0.1149  0.0177
17533SOL    HW157729  10.291   7.006   5.087  0.5038  1.1308 -0.8171
17533SOL    HW257730  10.165   7.090   5.093 -0.8017 -0.8916  0.5412
17534SOL     OW57731  10.369   1.124  11.074  0.0915  0.2974  0.0019
17534SOL    HW157732  10.394   1.201  11.023 -2.3805 -0.2165 -2.0742
17534SOL    HW257733  10.450   1.074  11.085  1.1890  1.8426 -0.9657
17535SOL     OW57734   0.716   8.111   9.038 -0.8474 -0.8364  0.5754
17535SOL    HW157735   0.746   8.035   9.089 -1.3706 -1.8075 -0.5323
17535SOL    HW257736   0.688   8.074   8.954 -1.0182  0.6036 -0.0197
17536SOL     OW57737   8.825   8.250   4.906  0.2661  0.0451  0.2175
17536SOL    HW157738   8.771   8.289   4.837 -0.0447  1.8010  1.4374
17536SOL    HW257739   8.851   8.165   4.870 -1.4842  0.1094 -1.2833
17537SOL     OW57740   1.219   5.864   3.888 -0.4147  0.5130 -0.1535
17537SOL    HW157741   1.160   5.885   3.961  1.1161  0.7763  1.0343
17537SOL    HW257742   1.258   5.949   3.865  0.5690  0.1082  0.0227
17538SOL     OW57743   0.103   2.888   4.483  0.1730 -0.1120 -0.0433
17538SOL    HW157744   0.110   2.826   4.555 -1.5388  0.4487  0.6454
17538SOL    HW257745   0.187   2.933   4.481  1.1193 -1.8591 -0.0105
17539SOL     OW57746   8.183   3.447   1.835 -0.3618 -0.3731 -0.3714
17539SOL    HW157747   8.209   3.375   1.777  0.3665 -1.1565  0.8955
17539SOL    HW257748   8.141   3.404   1.909  0.4487  0.4680  0.6011
17540SOL     OW57749   7.544   9.340   4.448 -0.1114 -0.3349 -0.1050
17540SOL    HW157750   7.458   9.364   4.484  1.0605 -0.1183  2.7033
17540SOL    HW257751   7.558   9.250   4.479  1.3058  0.1677  0.7640
17541SOL     OW57752   1.600   7.481   9.903  0.7015  0.2244 -0.5452
17541SOL    HW157753   1.541   7.507   9.833  0.2585 -0.6727 -0.5070
17541SOL    HW257754   1.650   7.560   9.923 -1.7635  1.5205  0.6912
17542SOL     OW57755   7.386   9.534   0.866 -0.6888  0.5438  0.2181
17542SOL    HW157756   7.312   9.514   0.809 -0.3003  0.1286 -0.1386
17542SOL    HW257757   7.347   9.542   0.953 -1.1127 -0.0109  0.0871
17543SOL     OW57758   9.304  10.559   5.753  0.9324 -0.4306 -0.1132
17543SOL    HW157759   9.341  10.526   5.671  2.8143 -1.9038  1.2701
17543SOL    HW257760   9.262  10.483   5.792  0.0253  0.2703  0.2881
17544SOL     OW57761   9.035   4.677  10.741 -0.6706  0.2024  0.1920
17544SOL    HW157762   9.070   4.669  10.653 -0.7793 -0.1867  0.1843
17544SOL    HW257763   9.109   4.706  10.794 -0.5805  0.3301 -0.0043
17545SOL     OW57764   4.781   9.800   9.134 -0.8757 -0.5436  0.0149
17545SOL    HW157765   4.695   9.766   9.159 -1.1502 -0.5264 -0.8845
17545SOL    HW257766   4.820   9.730   9.081 -0.8520 -0.0538 -0.6218
17546SOL     OW57767   8.119   7.272   9.540  0.3008  0.0437  0.2500
17546SOL    HW157768   8.077   7.225   9.468  1.6374 -0.8333  0.0104
17546SOL    HW257769   8.058   7.265   9.613 -1.1126  1.0303 -0.8204
17547SOL     OW57770   0.776   3.837   9.594 -0.1649  0.0779 -0.0456
17547SOL    HW157771   0.805   3.843   9.503  0.9541 -1.2354  0.2125
17547SOL    HW257772   0.729   3.754   9.599  0.7374 -0.3885  0.8358
17548SOL     OW57773   8.156   9.122  10.799 -0.1250  0.0560 -0.3332
17548SOL    HW157774   8.101   9.116  10.877  0.6505  0.3513  0.2488
17548SOL    HW257775   8.246   9.119  10.833  0.2494  2.7084 -0.9686
17549SOL     OW57776   2.444   5.754   3.671 -0.0339  0.6426  0.7981
17549SOL    HW157777   2.511   5.714   3.727  0.4940 -1.3277 -1.1873
17549SOL    HW257778   2.361   5.730   3.713  0.2812 -2.4804 -0.2483
17550SOL     OW57779   3.223   1.915   6.722 -0.0723  0.3049 -0.9385
17550SOL    HW157780   3.195   2.006   6.709 -1.9620 -0.2598 -0.8675
17550SOL    HW257781   3.217   1.901   6.816 -1.7530 -0.5042 -1.1488
17551SOL     OW57782   2.512   0.095  10.027 -0.9691 -0.5623 -0.2640
17551SOL    HW157783   2.424   0.130  10.040 -0.2783  1.4754 -0.7575
17551SOL    HW257784   2.514   0.070   9.935 -1.6962 -2.6502  0.2645
17552SOL     OW57785   3.920   1.148   2.094  0.0693 -0.4763  0.4049
17552SOL    HW157786   3.869   1.227   2.112 -1.9909 -2.0928  1.8128
17552SOL    HW257787   3.866   1.100   2.031  0.3155 -1.7380  1.1572
17553SOL     OW57788   2.771   8.943   8.359  0.0959  0.1352  0.1142
17553SOL    HW157789   2.824   8.963   8.436 -0.4101  0.6030  0.3470
17553SOL    HW257790   2.831   8.950   8.285  0.7645 -1.0908  0.5316
17554SOL     OW57791   2.307   1.045   6.608 -0.1396  0.6057 -0.5660
17554SOL    HW157792   2.234   1.090   6.565 -1.4171 -0.4292  0.4862
17554SOL    HW257793   2.305   1.077   6.698  0.3557  0.1566 -0.3936
17555SOL     OW57794   9.170   1.651   8.147  0.3254 -0.1909 -0.1465
17555SOL    HW157795   9.243   1.690   8.098 -0.0920 -2.0888 -2.3482
17555SOL    HW257796   9.105   1.629   8.081 -0.9460 -1.3357  1.4365
17556SOL     OW57797   3.096   6.866   1.786  0.1378  0.3888  0.1703
17556SOL    HW157798   3.163   6.820   1.836 -0.4306  0.2722  0.8259
17556SOL    HW257799   3.073   6.941   1.840  0.4709  1.0021 -0.5254
17557SOL     OW57800   7.648   0.221   6.616 -1.3104 -1.1554  0.7657
17557SOL    HW157801   7.630   0.198   6.525 -1.6146 -0.2644  0.5936
17557SOL    HW257802   7.744   0.227   6.621 -1.3371  0.1033  0.1599
17558SOL     OW57803   4.321   1.404   3.156  0.0103 -0.0706 -0.5557
17558SOL    HW157804   4.229   1.377   3.150  0.5408 -2.4412  1.1770
17558SOL    HW257805   4.370   1.329   3.122  1.3540  1.0030 -1.0515
17559SOL     OW57806   9.602   1.015   6.825  0.1044  0.2839  0.0302
17559SOL    HW157807   9.595   0.920   6.838  1.3746  0.3239  1.0997
17559SOL    HW257808   9.590   1.027   6.731  1.0457 -1.0494 -0.2720
17560SOL     OW57809   1.620   3.693   2.525  0.6687  0.6452 -0.0830
17560SOL    HW157810   1.532   3.697   2.487  0.3281  1.6949  0.8236
17560SOL    HW257811   1.635   3.599   2.540 -0.2371  0.4502 -0.3680
17561SOL     OW57812   7.908  10.762   6.181 -0.1947 -0.2495 -0.0113
17561SOL    HW157813   7.946  10.745   6.267 -2.7954  0.2615  1.2870
17561SOL    HW257814   7.839  10.826   6.197  0.8455  1.6705 -2.8659
17562SOL     OW57815   8.622   2.457   5.453 -0.1527  0.2417  0.6942
17562SOL    HW157816   8.651   2.366   5.449  1.8757  0.9251 -0.8747
17562SOL    HW257817   8.560   2.459   5.525  0.8290 -2.0957  1.6513
17563SOL     OW57818   4.005   6.922   3.901  0.0732 -0.4322  0.2521
17563SOL    HW157819   3.950   6.983   3.950 -1.7082 -3.3539  2.0410
17563SOL    HW257820   4.084   6.912   3.954 -0.0291 -0.3825  0.4135
17564SOL     OW57821   4.376   0.255   7.056 -0.0239  0.3700  0.0675
17564SOL    HW157822   4.437   0.198   7.103 -1.4092 -0.4158  0.9349
17564SOL    HW257823   4.408   0.344   7.075 -0.2478  0.0465  2.0755
17565SOL     OW57824   6.474   5.229  10.621  0.0803  0.3056  0.0908
17565SOL    HW157825   6.401   5.284  10.651 -1.5117 -2.3279  1.1594
17565SOL    HW257826   6.478   5.244  10.527 -0.8698  1.5824  0.2345
17566SOL     OW57827   4.080   8.957  11.310  0.2918  0.0107 -0.1218
17566SOL    HW157828   4.156   8.926  11.261 -0.1033  0.0924 -0.7803
17566SOL    HW257829   4.042   9.025  11.255 -0.0770  0.1909  0.3555
17567SOL     OW57830   5.413   7.290   4.481 -0.2671 -0.4004 -0.3080
17567SOL    HW157831   5.366   7.330   4.408  1.8461  2.2919 -0.2366
17567SOL    HW257832   5.498   7.266   4.445  0.2656 -0.3750  0.9333
17568SOL     OW57833   4.113   7.661   8.819  0.2624 -0.6805 -0.2319
17568SOL    HW157834   4.120   7.744   8.772 -1.6153 -0.1204  0.4606
17568SOL    HW257835   4.020   7.642   8.822  0.5600 -2.0818  0.8997
17569SOL     OW57836   0.632   8.079   3.478 -0.1963  0.1340  0.1491
17569SOL    HW157837   0.668   8.049   3.561  0.0803 -0.9225 -0.3422
17569SOL    HW257838   0.598   8.167   3.496 -0.6827 -0.3278  1.5235
17570SOL     OW57839   7.374   4.555  10.443  0.2363 -0.2636  0.2746
17570SOL    HW157840   7.440   4.507  10.394  0.5023  1.0294 -0.6726
17570SOL    HW257841   7.292   4.536  10.397  0.2488 -0.3067  0.2691
17571SOL     OW57842  10.014  11.327  11.047 -0.0921 -0.1799  0.1471
17571SOL    HW157843  10.108  11.306  11.044  0.5078  2.4004 -0.1987
17571SOL    HW257844   9.988  11.306  11.136  0.5826 -1.8461 -0.0341
17572SOL     OW57845   2.584   2.751   0.565 -0.2564 -0.5118  0.0597
17572SOL    HW157846   2.589   2.779   0.474 -2.6010  1.8275  0.5971
17572SOL    HW257847   2.621   2.662   0.565  1.2269  0.0579 -2.8535
17573SOL     OW57848   5.767   4.342  10.722 -0.3704 -0.4559 -0.2090
17573SOL    HW157849   5.691   4.366  10.776 -0.7457 -0.6130 -0.6545
17573SOL    HW257850   5.731   4.280  10.658  0.5245 -2.0386  0.7847
17574SOL     OW57851   3.835   1.642   0.634  0.2961 -0.0404 -0.2852
17574SOL    HW157852   3.772   1.662   0.564 -1.4048 -1.1222  0.8820
17574SOL    HW257853   3.802   1.691   0.709  0.8625 -0.6088  0.3313
17575SOL     OW57854   7.671   1.909   8.856  0.2735  0.4150 -0.1582
17575SOL    HW157855   7.648   1.998   8.832 -1.7759  0.3877  1.5574
17575SOL    HW257856   7.715   1.917   8.941  0.9603 -0.1113 -0.4603
17576SOL     OW57857   1.834  11.000   6.613  0.0869 -0.3605  0.5050
17576SOL    HW157858   1.916  10.986   6.661  0.3137  1.2814  0.6385
17576SOL    HW257859   1.808  10.913   6.584 -0.7351 -1.6245  4.6853
17577SOL     OW57860   0.201   4.621   0.809  0.2899  0.3887 -0.1643
17577SOL    HW157861   0.208   4.717   0.807  2.4764  0.2662  0.6153
17577SOL    HW257862   0.270   4.594   0.870 -2.4820 -1.4840  2.2543
17578SOL     OW57863   9.596   6.985   9.407  0.2341  0.0141  0.4369
17578SOL    HW157864   9.534   6.962   9.338  1.9576 -3.9506  0.0519
17578SOL    HW257865   9.551   6.965   9.489 -0.6830  1.7387  0.3705
17579SOL     OW57866   3.099   1.950   1.370 -0.3665  0.0872 -0.2383
17579SOL    HW157867   3.106   2.027   1.426 -0.1093 -0.4591  0.5022
17579SOL    HW257868   3.118   1.876   1.429  0.1967 -0.4792 -1.1162
17580SOL     OW57869   4.822   0.895   3.373  0.0302  0.1869  0.1781
17580SOL    HW157870   4.830   0.828   3.440  0.4287 -1.2879 -1.2949
17580SOL    HW257871   4.908   0.898   3.332 -0.5916  0.0590 -1.1691
17581SOL     OW57872   7.295   7.789   1.122  0.1694 -0.4337  0.6103
17581SOL    HW157873   7.249   7.724   1.175 -2.5476 -1.2396 -2.5274
17581SOL    HW257874   7.357   7.738   1.069 -1.9715 -0.5750 -1.8628
17582SOL     OW57875   2.435   4.227   5.758 -0.0347 -0.3953 -0.9905
17582SOL    HW157876   2.415   4.138   5.731 -0.6407 -0.1089 -1.5150
17582SOL    HW257877   2.417   4.229   5.852  1.6851 -1.2884 -0.6266
17583SOL     OW57878   8.321   3.188   3.872  0.1980 -0.0963  0.0806
17583SOL    HW157879   8.308   3.276   3.906 -1.5522 -0.0054 -0.7531
17583SOL    HW257880   8.395   3.153   3.922 -0.6726  0.9338  2.1442
17584SOL     OW57881   6.438   8.348   4.300 -0.0176  0.2608 -0.3559
17584SOL    HW157882   6.403   8.429   4.336  0.3673  0.7191 -1.0209
17584SOL    HW257883   6.505   8.375   4.238  1.3223 -0.6102  0.6825
17585SOL     OW57884  10.785   7.366   5.472 -0.7532 -0.3950  0.4437
17585SOL    HW157885  10.724   7.336   5.405  0.0432  1.3072 -1.1117
17585SOL    HW257886  10.813   7.452   5.441  0.9677 -0.3304  2.0966
17586SOL     OW57887   3.606   1.880   9.223 -0.6262 -0.2566 -0.6939
17586SOL    HW157888   3.545   1.880   9.149 -2.1145  1.0624  0.4892
17586SOL    HW257889   3.555   1.842   9.295  0.0911  0.4942  0.2157
17587SOL     OW57890   3.040   1.177   6.413 -0.3078  0.5854 -0.0913
17587SOL    HW157891   3.055   1.130   6.331 -0.0347 -0.9325  0.8039
17587SOL    HW257892   2.963   1.135   6.450 -0.3310  1.1614  0.5124
17588SOL     OW57893   6.684   3.383   1.103  0.0539 -0.5925  0.3647
17588SOL    HW157894   6.659   3.326   1.030 -2.4248  0.9730 -0.0446
17588SOL    HW257895   6.761   3.429   1.071  0.5506 -1.8158 -0.2603
17589SOL     OW57896   2.030   3.161   6.399 -0.2257 -0.3741 -0.4353
17589SOL    HW157897   1.937   3.140   6.399  0.3233 -2.9422  0.6325
17589SOL    HW257898   2.033   3.253   6.428 -2.4294 -0.0912 -0.9706
17590SOL     OW57899   2.409   3.613   9.955  0.1211 -0.1703  0.5393
17590SOL    HW157900   2.367   3.565   9.883  1.2488  0.1601 -0.3634
17590SOL    HW257901   2.496   3.573   9.963  0.2438  0.2385  1.2879
17591SOL     OW57902   0.908   2.131   4.730 -0.0314  0.1889 -0.0967
17591SOL    HW157903   0.832   2.169   4.685  2.2779  3.3585 -1.5196
17591SOL    HW257904   0.947   2.071   4.665 -0.1642  0.1091 -0.1027
17592SOL     OW57905   4.311   7.073   4.385  0.1684 -0.0684  0.2934
17592SOL    HW157906   4.381   7.040   4.329  1.7920 -1.5639  3.1344
17592SOL    HW257907   4.238   7.013   4.370  0.0532  0.4451 -1.3184
17593SOL     OW57908   9.823   2.610   7.542 -0.3770  0.2849 -0.3031
17593SOL    HW157909   9.775   2.624   7.623 -1.2743 -3.2586 -0.1293
17593SOL    HW257910   9.755   2.608   7.474  0.3061  2.6327 -1.0841
17594SOL     OW57911   1.213   3.785   0.606  0.4175  0.8008 -0.2487
17594SOL    HW157912   1.119   3.765   0.605  0.7754 -1.0012 -1.1297
17594SOL    HW257913   1.226   3.835   0.686 -0.6322 -2.4070  2.0345
17595SOL     OW57914   9.833   1.583   4.617 -0.4660 -0.6573 -0.6493
17595SOL    HW157915   9.794   1.571   4.704 -1.8314  0.0669 -1.1509
17595SOL    HW257916   9.885   1.504   4.603  3.1068  0.9516  2.5203
17596SOL     OW57917   1.405   2.897   1.621  0.0794 -0.3740 -0.1947
17596SOL    HW157918   1.403   2.891   1.526  2.5567 -0.5470 -0.2870
17596SOL    HW257919   1.413   2.991   1.639  1.0666 -0.4419 -0.2335
17597SOL     OW57920   7.593   1.828   4.462  0.0903  0.5620  0.3114
17597SOL    HW157921   7.540   1.800   4.387  0.4846  2.7952 -0.8575
17597SOL    HW257922   7.531   1.837   4.534 -0.6090  0.2820 -0.2541
17598SOL     OW57923   5.496   9.272   0.173 -0.1350 -0.3630 -0.2996
17598SOL    HW157924   5.509   9.244   0.264 -0.4418 -0.6727 -0.3492
17598SOL    HW257925   5.510   9.193   0.121  0.1918 -0.1546 -0.5375
17599SOL     OW57926   4.587   4.447   2.681  0.3234 -0.1584  0.2322
17599SOL    HW157927   4.641   4.512   2.726  0.9285 -0.1559 -0.4873
17599SOL    HW257928   4.514   4.432   2.740 -0.2227  1.7336  0.0688
17600SOL     OW57929   7.664   0.028   2.788 -0.1976  0.0621  0.3833
17600SOL    HW157930   7.677   0.042   2.882  1.0704 -0.7874  0.3473
17600SOL    HW257931   7.699  -0.059   2.772  0.9025  0.7572 -1.1373
17601SOL     OW57932   0.286   6.390   3.824  0.3191 -0.5856 -0.2558
17601SOL    HW157933   0.380   6.408   3.830  0.2750 -0.6563  0.7962
17601SOL    HW257934   0.244   6.477   3.827  0.2620 -0.6553  1.4083
17602SOL     OW57935   6.844   3.594   9.279 -0.1287 -0.5322  0.1676
17602SOL    HW157936   6.908   3.540   9.233  1.1258  0.9686  0.0974
17602SOL    HW257937   6.851   3.568   9.371  2.7315  1.6158  0.6447
17603SOL     OW57938   7.163   6.474   5.553  0.0075  0.0003 -0.0905
17603SOL    HW157939   7.117   6.539   5.606 -1.6853 -1.9846  0.9664
17603SOL    HW257940   7.244   6.517   5.526  0.0796  1.6814  2.6492
17604SOL     OW57941   6.508  11.186  11.314  0.1094 -0.2319 -0.2340
17604SOL    HW157942   6.581  11.181  11.376  0.5298 -0.8037 -0.7761
17604SOL    HW257943   6.471  11.273  11.328  0.7370 -0.0353  0.2264
17605SOL     OW57944   0.504   4.668   9.048 -0.2330 -0.1078 -0.2124
17605SOL    HW157945   0.409   4.663   9.047 -0.1668 -1.6995 -0.0085
17605SOL    HW257946   0.526   4.727   8.976 -1.3582  0.1931 -0.3210
17606SOL     OW57947   4.213   4.508   8.697  0.3127  0.9104 -0.3696
17606SOL    HW157948   4.272   4.433   8.697 -0.6472  0.1204  1.2288
17606SOL    HW257949   4.254   4.571   8.757  0.3680  1.0506 -0.5521
17607SOL     OW57950   9.118  11.075   9.273  0.0244  0.4321  0.3766
17607SOL    HW157951   9.122  11.122   9.189 -0.9853  0.6968  0.4666
17607SOL    HW257952   9.156  11.136   9.336  3.2240 -0.7638 -0.2854
17608SOL     OW57953   0.974   3.425   3.261  0.2318 -0.1481 -0.2183
17608SOL    HW157954   0.985   3.414   3.355  0.1173 -2.0714 -0.4087
17608SOL    HW257955   1.061   3.448   3.229  0.9891 -2.6509 -0.0468
17609SOL     OW57956   1.163   8.418   4.361  0.0561  0.6034  0.0508
17609SOL    HW157957   1.199   8.382   4.280 -0.6749  0.3542 -0.1664
17609SOL    HW257958   1.106   8.349   4.395 -0.5567  1.1596  0.1692
17610SOL     OW57959   2.438   6.433   5.970 -0.5298 -0.0717 -0.2369
17610SOL    HW157960   2.499   6.359   5.972 -0.4554 -0.0588 -1.5332
17610SOL    HW257961   2.443   6.470   6.058  0.6649 -0.6048 -0.0630
17611SOL     OW57962   4.487   0.986   9.546 -0.2051 -0.0779 -0.0047
17611SOL    HW157963   4.479   1.074   9.582 -0.9392  0.0423 -0.4599
17611SOL    HW257964   4.505   0.999   9.453  0.9607 -0.3973  0.1732
17612SOL     OW57965   5.755   1.786   6.704  0.1356  0.0424 -1.0544
17612SOL    HW157966   5.830   1.845   6.713  0.5773 -0.5537 -0.7535
17612SOL    HW257967   5.714   1.786   6.790 -0.9778  1.3851 -1.5909
17613SOL     OW57968   4.392   0.895   2.977  0.3574 -0.0994 -0.2587
17613SOL    HW157969   4.341   0.852   3.046  2.9488 -0.9851  1.1641
17613SOL    HW257970   4.371   0.845   2.898  1.4086 -2.4937  0.9051
17614SOL     OW57971  10.599   4.705   5.335 -0.4672  0.0698 -0.0784
17614SOL    HW157972  10.567   4.619   5.363  1.4861 -0.7926 -0.4004
17614SOL    HW257973  10.642   4.688   5.251  1.2028  1.0922  0.5523
17615SOL     OW57974  10.873   3.121  10.026  0.1578  0.7570  0.0979
17615SOL    HW157975  10.831   3.162   9.951 -0.6463 -0.2634 -0.0161
17615SOL    HW257976  10.920   3.192  10.070 -0.5634  1.6276 -0.5471
17616SOL     OW57977   2.815   3.945   0.592  0.4377  0.2538  0.3721
17616SOL    HW157978   2.749   3.878   0.609  1.6753 -0.8479  0.9623
17616SOL    HW257979   2.857   3.917   0.511  1.3333  0.0112  0.9170
17617SOL     OW57980  10.425   4.303   3.927 -0.2703 -0.4356  0.0467
17617SOL    HW157981  10.492   4.342   3.983 -0.2482  0.4649 -0.5793
17617SOL    HW257982  10.471   4.238   3.875  0.3535  0.8690 -1.0889
17618SOL     OW57983   3.096   4.443  10.640 -0.2303 -0.4853 -0.0737
17618SOL    HW157984   3.038   4.481  10.574  1.6827  1.0894 -0.9065
17618SOL    HW257985   3.156   4.387  10.591 -0.1547 -1.0093  0.6001
17619SOL     OW57986   9.385   5.553  10.355  0.2586  0.0458 -0.2211
17619SOL    HW157987   9.436   5.612  10.300 -0.4974  0.3477 -0.6043
17619SOL    HW257988   9.432   5.550  10.438 -0.3583  2.1764  0.2325
17620SOL     OW57989   0.812   2.470   0.002 -0.8444 -0.8682  0.3229
17620SOL    HW157990   0.868   2.527  -0.051 -0.5649 -2.2596 -0.8761
17620SOL    HW257991   0.871   2.431   0.066 -0.8351 -0.7021  0.4175
17621SOL     OW57992   8.359   7.534   6.883  0.4577  0.3806  0.1786
17621SOL    HW157993   8.414   7.456   6.893  0.4493  0.3501 -0.0200
17621SOL    HW257994   8.420   7.607   6.877  0.4383  0.4966  1.3631
17622SOL     OW57995   7.849   5.525   5.586  0.0822 -0.3658  0.0805
17622SOL    HW157996   7.921   5.465   5.604 -0.0218 -0.2688  0.8703
17622SOL    HW257997   7.833   5.517   5.492  0.4802 -1.1086  0.0720
17623SOL     OW57998   3.164   5.978   5.878 -0.3528 -0.4971  0.3792
17623SOL    HW157999   3.186   5.930   5.798 -0.1168 -1.5370  1.0518
17623SOL    HW258000   3.230   6.047   5.883  0.4916 -1.2938  0.4108
17624SOL     OW58001   9.795  11.100   3.924 -0.1512 -0.1526  0.3495
17624SOL    HW158002   9.843  11.019   3.941  1.8102  1.2016  1.3715
17624SOL    HW258003   9.861  11.162   3.893 -1.6622  1.0142 -0.6168
17625SOL     OW58004   8.526   6.438   1.290  0.2462 -0.5407 -0.4525
17625SOL    HW158005   8.599   6.470   1.236  0.3437 -0.5598 -0.3327
17625SOL    HW258006   8.506   6.511   1.349 -0.3338 -0.2564 -0.9957
17626SOL     OW58007  10.375   8.008   5.882  0.9490  0.0637 -0.0756
17626SOL    HW158008  10.462   8.045   5.865  1.1569  0.4874  1.7087
17626SOL    HW258009  10.325   8.024   5.803  2.8679 -1.2895 -1.6023
17627SOL     OW58010   1.083   3.408   4.017 -0.3888  0.3550  0.3371
17627SOL    HW158011   1.160   3.369   3.975 -0.4267  0.3435  0.2785
17627SOL    HW258012   1.085   3.373   4.106  0.3763  1.3348  0.7107
17628SOL     OW58013   6.871   4.943   4.628 -0.5317 -0.5448 -0.4205
17628SOL    HW158014   6.966   4.956   4.624 -0.5928  0.2197  0.5074
17628SOL    HW258015   6.854   4.917   4.719 -1.1435 -1.2518 -0.7320
17629SOL     OW58016   7.308   4.395   0.220  0.5010  0.5424 -0.6729
17629SOL    HW158017   7.348   4.349   0.294  1.3379  1.2606 -0.6681
17629SOL    HW258018   7.246   4.332   0.183  2.1708 -0.8617 -1.1429
17630SOL     OW58019   8.679   5.166   8.682 -0.1079 -0.8506  0.7336
17630SOL    HW158020   8.729   5.144   8.603 -0.2760 -0.1072  0.4195
17630SOL    HW258021   8.698   5.258   8.698 -0.7862 -0.7633  1.0469
17631SOL     OW58022   5.237   0.497   4.795 -0.2894  0.2121  0.1430
17631SOL    HW158023   5.218   0.497   4.888  0.5385 -1.7565  0.3315
17631SOL    HW258024   5.154   0.521   4.753 -1.3756 -1.4430  1.2771
17632SOL     OW58025   3.372   5.373   1.179  0.5590  0.6520  0.1639
17632SOL    HW158026   3.447   5.401   1.127  1.0630 -0.9193  0.0003
17632SOL    HW258027   3.411   5.336   1.258 -0.1769  2.5038  1.4225
17633SOL     OW58028  10.816   5.008   4.995 -0.2898  0.4872 -0.4704
17633SOL    HW158029  10.889   4.965   5.040 -1.5156  0.8031  1.8829
17633SOL    HW258030  10.833   5.101   5.004  0.8696  0.5881 -3.1042
17634SOL     OW58031   7.371   1.375   1.263 -0.4614  0.0828 -0.2610
17634SOL    HW158032   7.463   1.371   1.290  0.1345 -0.8616 -2.3497
17634SOL    HW258033   7.360   1.303   1.202 -2.0531  1.4831 -1.7004
17635SOL     OW58034   9.795   8.102   1.858  0.0540 -0.0493  0.2347
17635SOL    HW158035   9.747   8.023   1.835  2.3768 -1.0823 -1.2432
17635SOL    HW258036   9.878   8.071   1.895 -0.3208  1.6833  2.6724
17636SOL     OW58037   3.266   1.792   7.778  0.2309  0.1022  0.0138
17636SOL    HW158038   3.181   1.748   7.776  0.2244  0.1880 -2.3762
17636SOL    HW258039   3.245   1.885   7.783  0.1859  0.1142 -0.3999
17637SOL     OW58040   3.609   7.215   1.562 -0.1026  0.0064 -0.4563
17637SOL    HW158041   3.648   7.157   1.496  1.0477  1.9083 -1.4680
17637SOL    HW258042   3.604   7.161   1.641 -0.0708 -1.8193 -1.6672
17638SOL     OW58043   6.874   9.255   3.345  0.2433 -0.3810 -0.3551
17638SOL    HW158044   6.817   9.331   3.333 -0.1680 -0.7084 -0.5247
17638SOL    HW258045   6.962   9.291   3.354 -0.3113  0.2986  2.6477
17639SOL     OW58046   7.349   9.463   2.096  0.1875 -0.0860  0.2622
17639SOL    HW158047   7.441   9.490   2.097  0.2032 -0.1400  0.3425
17639SOL    HW258048   7.302   9.539   2.063  0.1112  0.4330  1.5146
17640SOL     OW58049   4.768   1.120   8.286 -0.6282  0.1122 -0.8870
17640SOL    HW158050   4.818   1.048   8.248  1.3322 -0.8495  3.2942
17640SOL    HW258051   4.819   1.198   8.265 -0.0534 -0.2865 -0.9716
17641SOL     OW58052   0.502   9.891   9.147  0.3584  0.5193 -0.2494
17641SOL    HW158053   0.554   9.969   9.131  0.0155  0.7897 -0.0503
17641SOL    HW258054   0.557   9.819   9.117  0.9246  0.7863  0.1441
17642SOL     OW58055   2.274  10.818   3.189  0.2444  0.1892 -0.0425
17642SOL    HW158056   2.282  10.872   3.110  1.1593 -0.5878 -0.4891
17642SOL    HW258057   2.197  10.764   3.173 -0.0995  0.6660 -0.0122
17643SOL     OW58058  10.852   7.551  10.125  0.3845  0.1139 -0.4041
17643SOL    HW158059  10.889   7.546  10.038 -0.6846  0.5895 -0.8982
17643SOL    HW258060  10.819   7.641  10.132 -1.0030 -0.4009 -0.1346
17644SOL     OW58061  10.039   3.122  10.690 -0.0396 -0.8283  0.4694
17644SOL    HW158062  10.065   3.183  10.760  1.3829  0.0168 -0.7762
17644SOL    HW258063  10.069   3.164  10.610 -1.2302 -2.0365 -0.6222
17645SOL     OW58064  10.183   2.170   8.569  0.5007  0.5054  0.0638
17645SOL    HW158065  10.247   2.237   8.547  0.6694  0.9050  1.6614
17645SOL    HW258066  10.117   2.216   8.622 -0.8001 -0.0246 -1.0714
17646SOL     OW58067   9.195   7.340   3.201 -0.3792 -0.7362  0.0698
17646SOL    HW158068   9.125   7.364   3.141  0.1089 -1.1083 -0.6641
17646SOL    HW258069   9.243   7.422   3.215  0.5416 -1.0023 -1.4392
17647SOL     OW58070   7.365   0.407   2.340  0.0106 -0.0308  0.3586
17647SOL    HW158071   7.394   0.473   2.402  1.9411 -2.4620  2.1738
17647SOL    HW258072   7.432   0.407   2.271  0.5939 -0.8092  0.9169
17648SOL     OW58073   8.389   9.935   8.605 -0.4757 -0.2759  0.2598
17648SOL    HW158074   8.442  10.010   8.577 -0.0631 -1.3051 -1.8181
17648SOL    HW258075   8.300   9.958   8.581 -0.5863  0.2696  1.1871
17649SOL     OW58076   1.334   0.503   5.097  0.4242 -0.0480 -0.8515
17649SOL    HW158077   1.401   0.513   5.165 -0.3491  1.9417 -0.3366
17649SOL    HW258078   1.259   0.464   5.141 -0.5450  2.4327 -0.1900
17650SOL     OW58079   4.105   4.041   5.751  0.4080 -0.2809 -0.4351
17650SOL    HW158080   4.077   3.966   5.699  0.3453 -0.7187  0.2196
17650SOL    HW258081   4.038   4.107   5.735  0.3032 -0.4665 -0.7796
17651SOL     OW58082   8.860   5.001   6.988  0.2112 -0.1847 -0.4843
17651SOL    HW158083   8.914   4.969   6.915  0.3964 -0.2766 -0.3124
17651SOL    HW258084   8.899   5.085   7.011 -0.0621  0.0037 -0.7181
17652SOL     OW58085   8.880   4.677   6.118  0.7876 -0.2964 -0.4290
17652SOL    HW158086   8.819   4.657   6.047 -1.9018  0.8110  1.5200
17652SOL    HW258087   8.926   4.756   6.089  0.4576 -0.4318 -1.3536
17653SOL     OW58088  11.289   5.327   7.771  0.1885 -0.0400  0.2142
17653SOL    HW158089  11.243   5.283   7.700 -0.1042  0.3520  0.1563
17653SOL    HW258090  11.236   5.406   7.788 -1.0094 -1.2653  2.3846
17654SOL     OW58091   1.613   4.603   8.281  0.0568 -0.0142  0.1091
17654SOL    HW158092   1.620   4.515   8.319 -1.0193 -0.1575  0.0116
17654SOL    HW258093   1.519   4.615   8.269  0.3695 -0.0323 -2.6278
17655SOL     OW58094   1.508   6.288   3.859  0.0913  0.3494 -0.1838
17655SOL    HW158095   1.453   6.349   3.908 -1.9327 -3.2412  2.2682
17655SOL    HW258096   1.594   6.295   3.900 -0.7803 -0.2489  1.8291
17656SOL     OW58097   2.121   5.224   1.364  0.0727 -0.3944  0.0505
17656SOL    HW158098   2.115   5.193   1.454 -1.0712 -2.1469 -0.6029
17656SOL    HW258099   2.032   5.215   1.330  0.2748  1.2213 -0.9546
17657SOL     OW58100   9.668   3.494  10.940 -0.3481  0.0816  0.2617
17657SOL    HW158101   9.634   3.408  10.967 -1.0472 -0.2134 -1.4768
17657SOL    HW258102   9.757   3.497  10.975 -1.3194 -0.1106  2.8760
17658SOL     OW58103   3.852   5.745   4.120 -0.1458  0.0769  0.6361
17658SOL    HW158104   3.819   5.732   4.209 -0.1035  0.2037  0.6706
17658SOL    HW258105   3.774   5.741   4.065 -0.2466  0.5785  0.7400
17659SOL     OW58106   9.969   9.014   0.859 -0.3523 -0.5493  0.2825
17659SOL    HW158107   9.975   8.949   0.929 -0.7772 -1.9401 -0.9588
17659SOL    HW258108  10.057   9.018   0.823 -0.2600 -0.2225  0.5411
17660SOL     OW58109   2.500   3.587   1.903 -0.3055 -0.1544 -0.5568
17660SOL    HW158110   2.488   3.639   1.823 -0.2608  0.0633 -0.4232
17660SOL    HW258111   2.497   3.651   1.974  1.1006 -0.1607 -0.4779
17661SOL     OW58112   3.314   1.414   1.232 -0.4464 -0.0679  0.2915
17661SOL    HW158113   3.364   1.442   1.155  0.7696  1.3896  1.5858
17661SOL    HW258114   3.380   1.396   1.299 -1.5439 -0.0802  1.3912
17662SOL     OW58115   0.495   0.612  10.090 -0.1651 -0.6237  0.4957
17662SOL    HW158116   0.536   0.696  10.074 -1.9529  0.4203  1.2544
17662SOL    HW258117   0.516   0.591  10.181  1.5716 -1.7484 -0.1499
17663SOL     OW58118   9.154   0.599   3.585  0.2800 -0.3574  0.6400
17663SOL    HW158119   9.193   0.657   3.650 -1.6518  3.4442 -1.4705
17663SOL    HW258120   9.214   0.603   3.510 -0.8335  0.4238 -0.2168
17664SOL     OW58121   5.722   3.975  10.151  0.3610  0.6631  0.4578
17664SOL    HW158122   5.756   4.055  10.192 -0.8890  3.1191 -3.0320
17664SOL    HW258123   5.628   3.977  10.168 -0.2252  1.8744 -2.5910
17665SOL     OW58124   4.249   9.000  10.235 -0.2611 -0.0771 -0.2290
17665SOL    HW158125   4.320   8.948  10.273  0.0627 -1.4321 -2.6207
17665SOL    HW258126   4.179   8.996  10.299  0.6070 -1.5515  0.6518
17666SOL     OW58127   6.674   2.983   8.021  0.1712 -0.4119 -0.1046
17666SOL    HW158128   6.706   3.037   7.949  2.7415 -0.2909  1.1038
17666SOL    HW258129   6.636   3.046   8.083 -0.7144 -0.3988 -0.6396
17667SOL     OW58130  10.090   9.903   9.570  0.1157 -0.1616 -0.5327
17667SOL    HW158131  10.119   9.814   9.549 -1.8699 -0.5223 -1.8963
17667SOL    HW258132  10.047   9.934   9.490 -0.9179  1.3023  0.5509
17668SOL     OW58133   4.511   9.833   2.614  0.6862 -0.6889  0.0263
17668SOL    HW158134   4.467   9.776   2.552  0.1551 -1.6933  1.3004
17668SOL    HW258135   4.521   9.917   2.568 -3.0585 -0.2504 -0.0845
17669SOL     OW58136   4.379   9.208  11.172 -0.1139 -0.3026  0.5907
17669SOL    HW158137   4.312   9.161  11.122  0.8430 -0.3144 -0.7064
17669SOL    HW258138   4.332   9.282  11.211 -1.0190 -0.6819  0.2435
17670SOL     OW58139   2.075   8.741   6.358  0.4581  0.5161  0.0610
17670SOL    HW158140   2.075   8.649   6.330 -0.1452  0.2344  0.9416
17670SOL    HW258141   2.017   8.785   6.296 -1.2570 -0.1954  1.1143
17671SOL     OW58142   9.068  10.164   2.670 -0.8870  0.0914  0.0062
17671SOL    HW158143   9.133  10.194   2.733  0.7068  0.2571 -1.6864
17671SOL    HW258144   9.048  10.242   2.617 -0.8405 -0.4695 -0.8517
17672SOL     OW58145   1.129   4.348   3.041 -0.7791  0.3296 -0.1750
17672SOL    HW158146   1.076   4.358   3.120  0.1464 -0.8214  0.6221
17672SOL    HW258147   1.175   4.265   3.054  0.2872  0.7140 -1.3901
17673SOL     OW58148   0.842   2.153   3.224 -0.2570 -0.4493  0.0696
17673SOL    HW158149   0.827   2.220   3.157 -1.3973 -0.2198  0.5262
17673SOL    HW258150   0.795   2.186   3.301  3.2891  0.6345  1.8640
17674SOL     OW58151   5.042   7.991  10.899 -0.5995  0.3386  0.3727
17674SOL    HW158152   5.123   7.979  10.948 -0.5962 -0.0420  0.2747
17674SOL    HW258153   5.071   8.025  10.814 -0.6378  1.4145  0.7870
17675SOL     OW58154   8.209   2.028   0.922 -0.8103  0.1794  0.2865
17675SOL    HW158155   8.214   1.948   0.975  0.7703  0.5035  0.6475
17675SOL    HW258156   8.199   1.997   0.832  1.0329 -0.4666  0.2836
17676SOL     OW58157   1.472   7.918   8.502 -0.3800 -0.0883 -0.1127
17676SOL    HW158158   1.493   7.829   8.472 -0.6743 -0.7280  1.5565
17676SOL    HW258159   1.548   7.945   8.553 -1.6465 -0.6847  2.1702
17677SOL     OW58160   1.064   9.672   8.617  0.2271 -0.0653  0.0823
17677SOL    HW158161   1.004   9.629   8.678  1.0752 -1.7013 -0.1940
17677SOL    HW258162   1.102   9.744   8.666 -1.9044  0.9334  0.2804
17678SOL     OW58163   8.671   9.254   4.252 -0.0384 -0.5035  0.4050
17678SOL    HW158164   8.720   9.220   4.327  0.0006 -2.2144 -0.3900
17678SOL    HW258165   8.594   9.296   4.291  1.3009  0.9492  1.5582
17679SOL     OW58166  10.141   4.406   9.307  0.6899  0.2017 -0.1215
17679SOL    HW158167  10.206   4.340   9.331 -1.1845 -2.0174 -0.8873
17679SOL    HW258168  10.136   4.464   9.383  2.8805 -0.0901  0.2836
17680SOL     OW58169   7.670   8.699   9.941 -0.0652  0.2584 -0.0324
17680SOL    HW158170   7.617   8.770   9.979 -1.2661 -0.3668 -0.4994
17680SOL    HW258171   7.757   8.712   9.978 -0.5873  1.1939  0.9200
17681SOL     OW58172   9.831   7.955   6.808  0.0902  0.4070 -0.6558
17681SOL    HW158173   9.825   7.959   6.712 -0.2398 -1.2478 -0.7063
17681SOL    HW258174   9.866   7.868   6.827  2.1601  1.4807  0.6525
17682SOL     OW58175  10.835  10.555   3.242 -0.0990 -0.6268  0.0245
17682SOL    HW158176  10.827  10.628   3.303  0.2463 -1.2969  0.8810
17682SOL    HW258177  10.879  10.592   3.165 -0.6452  0.2435  0.1229
17683SOL     OW58178   1.078   6.264   8.493 -0.3484 -0.3664  0.1407
17683SOL    HW158179   1.051   6.346   8.453  1.3754 -0.5390 -1.4592
17683SOL    HW258180   1.000   6.209   8.490 -1.4403  1.0940  0.9885
17684SOL     OW58181   3.395   2.676   0.153 -0.2519  0.4350 -0.0991
17684SOL    HW158182   3.380   2.703   0.244 -3.7117 -0.7674 -0.2213
17684SOL    HW258183   3.414   2.758   0.107  0.0553  1.2485  1.4461
17685SOL     OW58184   8.696   6.007   4.265 -0.4189 -0.0808 -0.3109
17685SOL    HW158185   8.640   6.031   4.339  0.4647 -0.5300  0.5099
17685SOL    HW258186   8.724   6.091   4.227 -1.6439  0.1501 -0.7384
17686SOL     OW58187  10.220   1.140   4.589  0.1183  0.8183 -0.5352
17686SOL    HW158188  10.245   1.144   4.681 -1.6767  1.4547 -0.0681
17686SOL    HW258189  10.239   1.050   4.563  2.0701  1.0514  0.0306
17687SOL     OW58190   6.122   1.017   3.092  0.2866 -0.1007 -0.5818
17687SOL    HW158191   6.113   1.073   3.169  0.3537 -0.6007 -0.2096
17687SOL    HW258192   6.041   1.030   3.044 -0.4761 -1.0761  0.4281
17688SOL     OW58193   9.680   0.762   4.426  0.0638  0.2916  0.0059
17688SOL    HW158194   9.766   0.802   4.435  0.4485 -0.6753  0.7642
17688SOL    HW258195   9.645   0.761   4.515 -0.9557  1.1361 -0.3678
17689SOL     OW58196   5.508   4.145   6.031 -0.0271  0.0681  0.3034
17689SOL    HW158197   5.517   4.158   6.125 -0.0356 -0.9960  0.4545
17689SOL    HW258198   5.420   4.109   6.020  0.8672 -2.1887  0.1515
17690SOL     OW58199   3.176  10.904   7.922  0.3365  0.5527 -0.5653
17690SOL    HW158200   3.169  10.828   7.980 -0.1005  0.8098 -0.2749
17690SOL    HW258201   3.269  10.906   7.897  0.5917  0.5803  0.3359
17691SOL     OW58202   0.032   6.065   0.514 -0.6376 -0.5510 -0.4809
17691SOL    HW158203   0.064   6.080   0.603 -1.0733 -1.4633 -0.1630
17691SOL    HW258204   0.020   6.152   0.477 -1.0156 -0.1689  0.5552
17692SOL     OW58205   9.180   8.356   4.300  0.2089 -0.2120  0.4705
17692SOL    HW158206   9.129   8.305   4.238 -0.0243 -0.5286  0.9175
17692SOL    HW258207   9.119   8.376   4.371  0.3684  0.4744  0.4175
17693SOL     OW58208   3.091  11.118  10.403 -0.1282  0.0584  0.0832
17693SOL    HW158209   3.041  11.179  10.348 -2.0883  0.3642  2.1331
17693SOL    HW258210   3.065  11.139  10.492 -0.2987 -3.2848  0.8980
17694SOL     OW58211  10.140   9.117   9.682 -0.1039 -0.6742  0.8651
17694SOL    HW158212  10.152   9.207   9.651 -1.3804 -0.1353  1.9369
17694SOL    HW258213  10.063   9.086   9.635  0.8397 -1.5247 -0.1584
17695SOL     OW58214   1.772   1.501   8.641 -0.5577  0.6139  0.1489
17695SOL    HW158215   1.750   1.445   8.566  0.4692  0.4695 -0.0529
17695SOL    HW258216   1.768   1.590   8.607  3.2104  0.4192 -0.9983
17696SOL     OW58217  11.299   0.914  11.161  0.7197 -0.0947 -0.2959
17696SOL    HW158218  11.393   0.934  11.163  0.4184  1.3086  0.2560
17696SOL    HW258219  11.263   0.963  11.235  0.2871 -4.6560  2.7344
17697SOL     OW58220   7.902   5.128  10.219 -0.5529  0.0065  0.3997
17697SOL    HW158221   7.964   5.058  10.239 -0.7398 -0.4183 -0.5080
17697SOL    HW258222   7.829   5.114  10.279 -0.1019  0.0819  0.9757
17698SOL     OW58223   6.128   8.714   5.307 -0.3638 -0.1917  0.1675
17698SOL    HW158224   6.155   8.795   5.264  0.6950 -0.4838  0.2567
17698SOL    HW258225   6.187   8.706   5.382 -0.2662 -1.2009 -0.0143
17699SOL     OW58226  10.071  11.034   5.493 -0.3324 -0.1946  0.4108
17699SOL    HW158227  10.038  10.951   5.458  0.9112  0.4347 -2.3106
17699SOL    HW258228   9.996  11.073   5.538 -1.8281 -1.2273 -1.1799
17700SOL     OW58229   2.707   0.704   2.194  0.0095 -0.0400 -0.0758
17700SOL    HW158230   2.778   0.680   2.253 -0.4077 -1.1563 -0.0063
17700SOL    HW258231   2.633   0.650   2.223 -0.9148  1.2405 -0.0273
17701SOL     OW58232   9.141   0.496   0.366 -0.5109  0.1735  0.2242
17701SOL    HW158233   9.234   0.472   0.365 -0.3073  0.9350  0.3033
17701SOL    HW258234   9.097   0.421   0.406  0.2228  0.3432  1.3519
17702SOL     OW58235   5.959   7.432   1.344  0.0269  0.8088  0.1023
17702SOL    HW158236   6.049   7.424   1.376 -0.4533 -2.2495  0.7657
17702SOL    HW258237   5.951   7.525   1.319  3.3338  1.1388  0.0486
17703SOL     OW58238  10.257   1.228   4.845  0.1474 -0.7341  0.2667
17703SOL    HW158239  10.307   1.309   4.858  0.8753 -1.0422 -0.5967
17703SOL    HW258240  10.166   1.257   4.840  0.4656  0.1069 -0.7486
17704SOL     OW58241   6.042   1.282  10.993 -0.4250  0.0082 -0.5532
17704SOL    HW158242   6.053   1.326  11.077 -0.4366 -0.6292 -0.2173
17704SOL    HW258243   6.125   1.296  10.947 -0.3384  0.1699 -0.3462
17705SOL     OW58244   5.108  10.372   9.589  0.3962  0.3681  0.1783
17705SOL    HW158245   5.019  10.341   9.571  0.6479  0.4978 -1.4152
17705SOL    HW258246   5.097  10.441   9.654 -0.9231  1.8983 -1.6179
17706SOL     OW58247   7.840   0.064   3.400 -0.1922  0.4190 -0.0818
17706SOL    HW158248   7.912   0.074   3.462  0.0188  3.2274 -0.7431
17706SOL    HW258249   7.831  -0.031   3.389  2.8061  0.0179  0.6701
17707SOL     OW58250   3.602   3.841   2.286  0.0174  0.4669  0.1296
17707SOL    HW158251   3.516   3.802   2.306  1.4700 -1.8701  2.1779
17707SOL    HW258252   3.618   3.818   2.195 -0.9064 -0.3841  0.1677
17708SOL     OW58253   0.142   8.107   1.723  0.1983 -0.6151 -0.1870
17708SOL    HW158254   0.164   8.109   1.816  0.4092 -0.0073 -0.2459
17708SOL    HW258255   0.057   8.064   1.719 -0.6843  1.0505  0.4619
17709SOL     OW58256  10.261   8.773   7.322  0.8771  0.0783 -0.2772
17709SOL    HW158257  10.310   8.841   7.274  0.6572  0.0818 -0.4919
17709SOL    HW258258  10.311   8.693   7.308  0.5033 -0.0346 -0.9794
17710SOL     OW58259  11.192   8.742   6.381  0.4685 -0.3019 -0.5553
17710SOL    HW158260  11.237   8.747   6.296  0.1889 -0.1989 -0.6968
17710SOL    HW258261  11.245   8.796   6.439 -0.1955  0.9024 -1.0417
17711SOL     OW58262  10.185   4.595   5.106 -0.0896 -0.6615  0.3341
17711SOL    HW158263  10.228   4.668   5.151 -2.2884  1.1160 -0.3610
17711SOL    HW258264  10.191   4.616   5.013  1.7978 -2.8545 -0.1013
17712SOL     OW58265   8.026   2.339   8.186  0.2890  0.2444 -0.0689
17712SOL    HW158266   7.943   2.342   8.137 -0.8630 -0.1844  1.7888
17712SOL    HW258267   8.058   2.429   8.183 -1.7254  1.0663  1.5940
17713SOL     OW58268   7.574  11.310   1.782  0.0987  0.3597  0.2667
17713SOL    HW158269   7.606  11.226   1.749 -0.6372  0.1825 -0.0291
17713SOL    HW258270   7.523  11.346   1.710 -2.3897 -0.5005  1.5051
17714SOL     OW58271   7.566   6.007   6.621  0.2899 -0.0657  0.0531
17714SOL    HW158272   7.654   5.972   6.607  0.8562  0.8207  1.2934
17714SOL    HW258273   7.556   6.075   6.554  0.2742 -0.6222 -0.5195
17715SOL     OW58274   7.984   7.400   4.387 -0.0811 -0.5854  0.2814
17715SOL    HW158275   8.059   7.341   4.391 -0.1362 -0.6545  0.2762
17715SOL    HW258276   7.935   7.382   4.468  1.1789  1.1489  1.4683
17716SOL     OW58277   1.313   3.976  10.603 -0.5165 -0.1897 -0.6565
17716SOL    HW158278   1.300   4.028  10.524 -0.6952 -0.9198 -1.1123
17716SOL    HW258279   1.304   4.039  10.674 -2.1074  0.1644 -1.1337
17717SOL     OW58280   0.273   3.567   9.478 -0.2613 -0.0563 -0.2268
17717SOL    HW158281   0.225   3.557   9.396 -0.3336  2.8326 -0.5697
17717SOL    HW258282   0.205   3.581   9.544 -0.0673  0.5423 -0.1510
17718SOL     OW58283   1.458   1.657   8.021 -0.6313 -0.1144  0.1634
17718SOL    HW158284   1.444   1.584   8.082  0.3473 -0.0490  0.4723
17718SOL    HW258285   1.409   1.730   8.060 -0.5619 -0.2579  0.5216
17719SOL     OW58286   2.049   0.546   3.168 -0.6245 -0.4842  0.6955
17719SOL    HW158287   2.105   0.477   3.203 -0.3962 -0.1159  1.0539
17719SOL    HW258288   2.076   0.554   3.076 -1.3286 -1.5538  0.3880
17720SOL     OW58289   8.425   7.313   2.404 -0.1221  0.4723  0.5794
17720SOL    HW158290   8.507   7.364   2.405  0.5218 -0.3582 -2.5159
17720SOL    HW258291   8.392   7.325   2.315 -1.3341 -2.3832  0.6092
17721SOL     OW58292   4.158   6.285   4.654 -0.4746 -0.0619  0.0748
17721SOL    HW158293   4.202   6.331   4.726 -0.4370 -0.0870  0.0680
17721SOL    HW258294   4.094   6.348   4.621 -2.3018 -0.9476  1.8076
17722SOL     OW58295   6.283  10.303   2.788  0.2230  0.3342 -1.1222
17722SOL    HW158296   6.354  10.275   2.845 -0.4321 -0.8626 -0.8714
17722SOL    HW258297   6.306  10.392   2.762  2.4012 -0.4805 -2.0196
17723SOL     OW58298   9.212   5.059   1.071 -0.2218  0.0215  0.1636
17723SOL    HW158299   9.125   5.049   1.111  0.5055 -2.3744  1.2009
17723SOL    HW258300   9.206   5.013   0.988  0.0068 -0.0293  0.1740
17724SOL     OW58301   1.948   5.518   5.096 -0.0306 -0.3740 -0.0944
17724SOL    HW158302   1.949   5.501   5.002  1.8111  0.2408 -0.2107
17724SOL    HW258303   1.858   5.500   5.123 -0.7303  0.0388 -2.0846
17725SOL     OW58304   5.881   2.552   5.476 -0.5557  0.4380 -0.4352
17725SOL    HW158305   5.807   2.504   5.438 -0.3906 -0.2825  0.1377
17725SOL    HW258306   5.876   2.639   5.436 -0.5483 -0.2129 -1.8821
17726SOL     OW58307   5.478   4.156   2.940  0.0289  0.3085 -0.4070
17726SOL    HW158308   5.417   4.099   2.986 -0.0827 -0.4630 -1.4819
17726SOL    HW258309   5.427   4.189   2.865 -0.2999  2.8027  0.8729
17727SOL     OW58310   4.038   0.307   1.370 -0.0449  0.2048  0.1606
17727SOL    HW158311   4.052   0.218   1.339 -0.6715 -0.1669  0.9278
17727SOL    HW258312   3.998   0.297   1.457 -3.5121  1.2028 -1.2252
17728SOL     OW58313   6.034   3.045  10.297 -0.6054  0.2598  0.0087
17728SOL    HW158314   6.014   3.063  10.388  0.6074  0.7139  0.1966
17728SOL    HW258315   5.970   3.096  10.247 -0.8459  0.5300  0.5906
17729SOL     OW58316   1.548   1.537  11.032 -0.2430 -0.2032 -0.3859
17729SOL    HW158317   1.558   1.585  10.950  1.2068 -0.7559 -0.5448
17729SOL    HW258318   1.468   1.572  11.071 -0.2409  0.9664 -1.4223
17730SOL     OW58319   6.953   9.077   5.729 -0.2746  0.1270 -0.8185
17730SOL    HW158320   6.939   8.987   5.758  3.0348 -0.6732 -1.5651
17730SOL    HW258321   6.985   9.123   5.806 -2.0712  0.7562 -0.4073
17731SOL     OW58322   0.463  10.948   0.937 -0.4558  0.1955 -0.1522
17731SOL    HW158323   0.412  10.909   0.866  0.8296 -3.4992  0.8639
17731SOL    HW258324   0.554  10.935   0.911  0.0139  0.5100  1.2754
17732SOL     OW58325   1.388   0.059   1.379  0.3247 -0.4070 -0.5273
17732SOL    HW158326   1.475   0.026   1.402  0.9387  0.6743 -1.2643
17732SOL    HW258327   1.394   0.154   1.389 -1.1420 -0.4040  0.5922
17733SOL     OW58328   5.136   6.976   4.474  0.0035  0.8885 -0.2221
17733SOL    HW158329   5.214   7.008   4.430 -1.0871  3.5876 -0.2731
17733SOL    HW258330   5.081   7.053   4.485 -2.1152 -0.7300  0.9576
17734SOL     OW58331   3.813   2.512   4.769  0.1632  0.2717 -0.1349
17734SOL    HW158332   3.793   2.569   4.844  0.0865 -1.0833  0.8931
17734SOL    HW258333   3.907   2.525   4.753  0.3650 -0.0739  0.7461
17735SOL     OW58334   2.522   8.194   1.965 -0.3491  0.1223 -0.3648
17735SOL    HW158335   2.508   8.110   2.010 -1.5827  0.0661 -0.8467
17735SOL    HW258336   2.457   8.253   2.003 -0.3014  0.5264 -0.9125
17736SOL     OW58337   7.932   6.981   5.441 -0.0985  0.2039 -0.4526
17736SOL    HW158338   8.001   6.933   5.394  0.2476  0.9414 -0.7147
17736SOL    HW258339   7.921   6.932   5.523 -0.6509 -1.0431 -1.2584
17737SOL     OW58340  10.271   8.114   2.172 -0.5323  0.0646  0.1367
17737SOL    HW158341  10.336   8.046   2.190  0.5868  0.7344 -1.2346
17737SOL    HW258342  10.323   8.195   2.164 -1.6889  0.8390  0.4100
17738SOL     OW58343  11.086   0.065   6.828  0.1066 -0.3149  0.4744
17738SOL    HW158344  11.155   0.124   6.856 -0.1186 -0.3582  1.1391
17738SOL    HW258345  11.005   0.108   6.855 -0.0031 -1.5609  2.2551
17739SOL     OW58346   1.523   4.045   4.219  0.0047 -0.2393 -0.0603
17739SOL    HW158347   1.581   3.989   4.168  1.3693  0.1169  1.0741
17739SOL    HW258348   1.553   4.134   4.201  0.7016 -0.1176  1.5540
17740SOL     OW58349   3.500   0.474   3.429  0.5768  0.4355 -0.0762
17740SOL    HW158350   3.461   0.521   3.355  1.6115 -0.7157 -1.3807
17740SOL    HW258351   3.425   0.445   3.481 -0.2681 -0.1840 -1.5932
17741SOL     OW58352  10.791   3.287   7.700 -0.1747  0.2311  0.2169
17741SOL    HW158353  10.720   3.238   7.659  0.6773  0.1313 -1.1590
17741SOL    HW258354  10.824   3.229   7.768 -1.7835  0.5154  1.2818
17742SOL     OW58355   2.823   2.768   2.831  0.1610 -0.5723 -0.2172
17742SOL    HW158356   2.880   2.698   2.797  0.3997 -0.7625  0.5594
17742SOL    HW258357   2.883   2.841   2.848  0.0436 -0.4879 -0.1726
17743SOL     OW58358   2.768   3.918   2.883 -0.1888  0.3287  0.4720
17743SOL    HW158359   2.685   3.953   2.917 -0.0422  0.5564  0.5953
17743SOL    HW258360   2.795   3.854   2.949 -0.5453 -0.1437  0.1608
17744SOL     OW58361   4.828   1.820   6.507 -0.4359  0.0628 -0.6043
17744SOL    HW158362   4.758   1.861   6.557  0.2117 -1.0159  1.2274
17744SOL    HW258363   4.853   1.744   6.559  0.3585 -1.0179 -2.5073
17745SOL     OW58364   4.844   0.738   8.213 -0.0639  0.1833 -0.1449
17745SOL    HW158365   4.772   0.717   8.273  0.7325 -0.3355  0.6275
17745SOL    HW258366   4.800   0.761   8.131 -1.0687 -1.6158 -0.1375
17746SOL     OW58367   6.010   9.955   5.903  0.1585 -0.4874  0.3675
17746SOL    HW158368   5.934   9.961   5.961 -0.6355 -4.0166 -0.2134
17746SOL    HW258369   5.974   9.927   5.819  2.0104 -1.6678 -0.0760
17747SOL     OW58370   2.062   0.758  10.398  0.2127  0.2933 -0.0307
17747SOL    HW158371   2.004   0.822  10.438 -0.4336  0.4576 -1.1982
17747SOL    HW258372   2.089   0.701  10.470  0.2980  1.4940  0.9042
17748SOL     OW58373   0.224   9.497   1.134  0.5903 -0.3585 -0.2206
17748SOL    HW158374   0.202   9.587   1.160  0.4106 -0.3112 -0.5344
17748SOL    HW258375   0.203   9.444   1.210  0.8171 -0.1173  0.0121
17749SOL     OW58376   5.911   7.843   7.216 -0.1714  0.7027 -0.3220
17749SOL    HW158377   5.897   7.789   7.293 -0.3079  0.8370 -0.2518
17749SOL    HW258378   5.998   7.882   7.231  0.4057 -0.3452 -0.8879
17750SOL     OW58379   0.894   9.059   9.373  0.4007  0.4495 -0.6806
17750SOL    HW158380   0.848   9.041   9.454  0.8836 -0.5603 -0.6254
17750SOL    HW258381   0.838   9.022   9.305  1.2629 -1.0659 -0.5887
17751SOL     OW58382   8.928   8.678   7.881 -0.1219  0.1491  0.1978
17751SOL    HW158383   8.985   8.737   7.933  0.9990 -0.9387  0.2330
17751SOL    HW258384   8.887   8.622   7.947 -1.2079  0.9042  0.1646
17752SOL     OW58385   2.172   7.781  10.478  0.1422 -0.0947 -0.2544
17752SOL    HW158386   2.197   7.810  10.390 -2.5124 -0.1247 -1.0858
17752SOL    HW258387   2.156   7.862  10.526 -0.4273 -0.0747 -0.4619
17753SOL     OW58388   0.746  10.978  10.325 -0.1600  0.1226 -0.1821
17753SOL    HW158389   0.677  10.969  10.390 -0.0285  0.7956  0.0544
17753SOL    HW258390   0.814  11.029  10.369 -1.3106  3.1622 -1.7627
17754SOL     OW58391  10.097   9.816   4.231 -0.4182 -0.0794 -0.1982
17754SOL    HW158392  10.076   9.739   4.283  2.4481 -0.6057  0.2943
17754SOL    HW258393  10.019   9.832   4.178 -1.8407 -2.0160  1.2513
17755SOL     OW58394   8.373   8.536   7.370  0.3300 -0.1137 -0.3801
17755SOL    HW158395   8.305   8.590   7.329  0.4970 -0.3455 -0.9676
17755SOL    HW258396   8.446   8.537   7.307  1.4205  1.2780  0.8670
17756SOL     OW58397   4.830   7.669   6.311 -0.0614 -0.2677 -0.1675
17756SOL    HW158398   4.924   7.672   6.298 -0.2933  1.2648 -1.6073
17756SOL    HW258399   4.818   7.607   6.384  2.1419  0.7301  1.1049
17757SOL     OW58400   6.093   1.582  10.270  0.4396 -0.0395  0.0602
17757SOL    HW158401   6.087   1.675  10.248  1.7495 -0.0368 -0.3170
17757SOL    HW258402   6.018   1.566  10.328 -0.3682  1.0148 -0.6868
17758SOL     OW58403   3.696   1.041   1.381  0.6127  0.1227  0.3164
17758SOL    HW158404   3.611   1.015   1.415  0.6235  1.0771  1.0811
17758SOL    HW258405   3.726   0.965   1.331 -1.4084  0.3809 -1.3369
17759SOL     OW58406  10.118   5.298   5.122  0.5623  0.5525  0.4066
17759SOL    HW158407  10.043   5.339   5.079 -0.2491 -0.8593  0.4305
17759SOL    HW258408  10.098   5.205   5.121  2.3787  0.1347  0.3174
17760SOL     OW58409   8.522   4.247   6.788  0.3133 -0.3300 -0.2834
17760SOL    HW158410   8.532   4.153   6.804  2.3620  0.0043  0.6061
17760SOL    HW258411   8.555   4.260   6.699  1.7457 -0.2212  0.2404
17761SOL     OW58412   7.165   3.557   7.964  0.4587 -0.1136  0.2530
17761SOL    HW158413   7.210   3.619   7.907 -1.6666  1.4782  0.2932
17761SOL    HW258414   7.167   3.475   7.915 -1.2003  1.1795 -2.0695
17762SOL     OW58415  10.862   0.444  10.272  0.0128 -0.2519 -0.1214
17762SOL    HW158416  10.805   0.369  10.251  0.7291 -0.8566  0.0838
17762SOL    HW258417  10.920   0.411  10.341 -0.8216  1.0248  1.2328
17763SOL     OW58418   8.471   2.104   3.109 -0.2327 -0.2573 -0.4526
17763SOL    HW158419   8.395   2.144   3.067  1.0170  3.2407  0.4550
17763SOL    HW258420   8.546   2.132   3.057  0.6795 -1.9558 -0.1219
17764SOL     OW58421   0.445   8.380   8.797  0.2354  0.5144 -1.1506
17764SOL    HW158422   0.539   8.397   8.802  0.4174 -0.8550  0.7227
17764SOL    HW258423   0.420   8.357   8.887 -1.9718  1.2487 -1.5337
17765SOL     OW58424   2.323   2.412   8.516 -0.6568  0.0302 -0.2160
17765SOL    HW158425   2.367   2.415   8.601 -0.8948 -2.4792  0.0242
17765SOL    HW258426   2.393   2.392   8.454 -0.6465  0.9436 -0.5106
17766SOL     OW58427   6.653   1.126   7.258  0.5936 -0.2828  0.2315
17766SOL    HW158428   6.608   1.109   7.176 -1.1535  1.6730  0.7635
17766SOL    HW258429   6.742   1.093   7.243 -0.1023 -1.3039 -1.9004
17767SOL     OW58430   6.316   5.404   0.568 -0.1854 -0.2370 -0.2249
17767SOL    HW158431   6.306   5.378   0.660 -0.8727  1.4229  0.1866
17767SOL    HW258432   6.229   5.392   0.530 -0.5660  1.5892  0.0226
17768SOL     OW58433   6.697   3.815  10.428 -0.1540 -0.4737  0.0224
17768SOL    HW158434   6.697   3.880  10.358  0.2595  0.3121  0.7506
17768SOL    HW258435   6.618   3.763  10.412  0.1085 -0.5036 -1.2138
17769SOL     OW58436   2.411   6.416   9.608  0.2588 -0.0544  0.0985
17769SOL    HW158437   2.469   6.371   9.670  0.8454 -0.2222 -0.5653
17769SOL    HW258438   2.426   6.509   9.624  0.7654 -0.0960 -0.1078
17770SOL     OW58439   8.608   3.410   2.383 -0.7689  0.1609  0.2187
17770SOL    HW158440   8.701   3.399   2.361 -0.6684  0.2087  0.6049
17770SOL    HW258441   8.565   3.333   2.345 -0.4199 -0.3717  0.8945
17771SOL     OW58442  11.064   2.928   3.901 -0.0581  0.0701  0.6350
17771SOL    HW158443  11.159   2.921   3.909  0.1629  1.8909 -0.2576
17771SOL    HW258444  11.048   3.019   3.878 -1.8245 -0.8930 -2.2617
17772SOL     OW58445   7.635   3.005   1.688  0.3854 -0.4290  0.5218
17772SOL    HW158446   7.599   2.962   1.765  4.3457 -1.5120  1.8622
17772SOL    HW258447   7.677   3.084   1.722  1.3652 -0.4312 -0.6673
17773SOL     OW58448   5.372   6.487  10.329  0.0478  0.1032 -0.3639
17773SOL    HW158449   5.293   6.535  10.306  1.9011  1.8859 -3.4213
17773SOL    HW258450   5.387   6.429  10.254  1.4691 -0.4377  0.3186
17774SOL     OW58451   4.476   1.961   0.730 -0.4393 -0.4551  0.3407
17774SOL    HW158452   4.495   1.906   0.654 -0.4992 -0.3987  0.2847
17774SOL    HW258453   4.480   1.901   0.804 -3.7169 -1.2144 -0.0373
17775SOL     OW58454   5.248   6.565   4.806 -0.2503 -0.0751 -0.1464
17775SOL    HW158455   5.294   6.505   4.747 -2.4770 -0.5332 -1.4873
17775SOL    HW258456   5.271   6.652   4.773 -0.5567 -0.3080 -1.0070
17776SOL     OW58457   9.927   9.516   1.254 -0.4001  0.3428  0.5119
17776SOL    HW158458   9.989   9.448   1.279 -1.0877 -0.2997  0.4935
17776SOL    HW258459   9.845   9.492   1.297 -1.0499  0.3332 -0.6944
17777SOL     OW58460   6.761   0.615   7.073  0.1577 -0.1648  0.1848
17777SOL    HW158461   6.769   0.527   7.036  1.6176 -0.8624  2.0949
17777SOL    HW258462   6.674   0.617   7.113 -0.5192 -0.1692 -1.2383
17778SOL     OW58463  10.189   5.395   6.782 -0.6659  0.1571 -0.1331
17778SOL    HW158464  10.172   5.305   6.807 -0.1371  0.2978  0.7542
17778SOL    HW258465  10.225   5.436   6.861  2.3080  0.2723 -1.5142
17779SOL     OW58466   1.492   2.409   8.263 -0.0696  0.7762 -0.0298
17779SOL    HW158467   1.484   2.479   8.199 -0.9292  1.1172  0.4332
17779SOL    HW258468   1.586   2.401   8.279  0.1482  0.7126 -1.2957
17780SOL     OW58469   3.939   7.866  10.212  0.2490 -0.1409  0.1128
17780SOL    HW158470   3.985   7.825  10.138  1.1269  0.4545  0.3240
17780SOL    HW258471   3.847   7.850  10.194  0.6170 -3.6551  1.0108
17781SOL     OW58472   3.891   7.762   8.517  0.1762 -0.0116  0.3430
17781SOL    HW158473   3.859   7.745   8.605  2.8925  0.7463  1.5427
17781SOL    HW258474   3.886   7.677   8.472 -1.9438 -0.2254  0.9667
17782SOL     OW58475  10.633   8.693   0.390  0.0861 -0.2220  0.0882
17782SOL    HW158476  10.547   8.692   0.348  0.6174  1.0918 -1.0754
17782SOL    HW258477  10.614   8.708   0.483 -0.9362  0.3109 -0.1985
17783SOL     OW58478   7.634   3.573   3.398  0.0171 -0.4919 -0.2935
17783SOL    HW158479   7.599   3.521   3.470  0.8589 -1.7558 -0.7814
17783SOL    HW258480   7.664   3.654   3.439 -0.6972 -0.6633  0.5726
17784SOL     OW58481   2.209   4.111  10.116 -0.2423 -0.1755 -0.1668
17784SOL    HW158482   2.150   4.078  10.048  1.2616 -0.9937 -1.0949
17784SOL    HW258483   2.279   4.155  10.067  0.4795 -0.1389  0.8923
17785SOL     OW58484  10.960   8.018   8.712  0.0679 -0.3347  0.6890
17785SOL    HW158485  10.950   8.061   8.627  1.1927  0.2297  0.8419
17785SOL    HW258486  10.878   7.968   8.723 -1.0548  1.3763  0.3102
17786SOL     OW58487   0.974  11.198   4.867 -0.5243  0.3783  0.0019
17786SOL    HW158488   1.029  11.170   4.793 -0.7879 -0.3680  0.0783
17786SOL    HW258489   0.939  11.116   4.902  0.1771  0.6705  1.4140
17787SOL     OW58490   9.604   8.522   5.345 -0.0778  0.2020  0.3829
17787SOL    HW158491   9.678   8.464   5.367 -1.4243 -0.7019  2.6872
17787SOL    HW258492   9.549   8.470   5.287  1.7108  1.3598 -2.4898
17788SOL     OW58493   7.265   2.916   3.617  0.5338  0.0595 -0.3399
17788SOL    HW158494   7.307   2.844   3.572 -0.2925  0.6638 -2.1489
17788SOL    HW258495   7.288   2.994   3.565 -0.5541  0.7515  0.1805
17789SOL     OW58496   2.188   3.782  10.035  0.2390  0.1979 -0.0829
17789SOL    HW158497   2.206   3.874  10.015  1.8652  0.1052  0.8377
17789SOL    HW258498   2.270   3.737  10.015 -0.7720 -1.1847 -1.2274
17790SOL     OW58499   8.123   4.214   4.228 -0.4634 -0.3797 -0.0457
17790SOL    HW158500   8.153   4.305   4.227  0.0318 -0.5458 -1.0557
17790SOL    HW258501   8.204   4.163   4.233 -0.7368 -0.7654  0.4485
17791SOL     OW58502   5.003   3.876   9.504  0.2497  0.2143 -0.5801
17791SOL    HW158503   5.086   3.907   9.468  0.2662  1.2015  0.2922
17791SOL    HW258504   5.027   3.828   9.583 -0.0020  0.4744 -0.3438
17792SOL     OW58505   8.468   6.791   5.672  0.4729  0.4119 -0.3346
17792SOL    HW158506   8.462   6.710   5.722 -0.4487  1.1959  0.8505
17792SOL    HW258507   8.394   6.787   5.611  1.3268 -0.3325 -1.3463
17793SOL     OW58508  10.967   6.517   4.603  0.3031 -0.1910  0.3950
17793SOL    HW158509  10.936   6.577   4.535  1.1070 -1.4570 -1.1410
17793SOL    HW258510  11.029   6.568   4.654  0.7037  0.3963 -0.6695
17794SOL     OW58511   3.681   2.341  10.913 -0.5423 -0.5416  0.1088
17794SOL    HW158512   3.675   2.374  11.003 -1.0228 -0.1184 -0.0732
17794SOL    HW258513   3.654   2.415  10.859  0.8892 -0.4254 -0.4568
17795SOL     OW58514   9.456   8.222   7.344  0.1665 -0.2511 -0.5637
17795SOL    HW158515   9.503   8.295   7.304 -2.1750  1.2814 -0.5713
17795SOL    HW258516   9.424   8.257   7.427 -0.7791 -1.3315 -0.4638
17796SOL     OW58517   9.631   2.496   5.222  0.1670 -0.1693  0.5696
17796SOL    HW158518   9.634   2.406   5.189  0.2864  0.8534 -2.3383
17796SOL    HW258519   9.668   2.549   5.151 -1.8897  2.4022  1.3386
17797SOL     OW58520   1.061   1.175   7.003 -0.0190 -0.8385 -0.0849
17797SOL    HW158521   1.036   1.096   6.954 -3.2334  0.5457 -0.7954
17797SOL    HW258522   1.144   1.202   6.963  0.3192 -2.9318 -0.9064
17798SOL     OW58523   7.583   2.998   5.139 -0.5597 -0.7780 -0.2393
17798SOL    HW158524   7.641   2.978   5.067 -1.9508 -2.1787 -1.0126
17798SOL    HW258525   7.604   3.088   5.164 -0.4368 -0.0857 -2.7502
17799SOL     OW58526   7.012  11.176   1.513  0.6289  0.2152 -0.5527
17799SOL    HW158527   6.935  11.152   1.565  1.6322  1.6817  1.6728
17799SOL    HW258528   7.045  11.093   1.480 -0.1460 -0.7296  0.9992
17800SOL     OW58529   3.763   0.601   9.754  0.0334 -0.3341  0.5784
17800SOL    HW158530   3.677   0.580   9.718  0.9817 -0.4802 -1.6471
17800SOL    HW258531   3.811   0.519   9.753  0.0034 -0.4076  2.4766
17801SOL     OW58532   8.392  10.787   7.888 -0.5202  0.1221 -0.2255
17801SOL    HW158533   8.455  10.748   7.827  0.0938 -1.1146  1.1531
17801SOL    HW258534   8.376  10.875   7.853  2.1807  0.5642 -0.4591
17802SOL     OW58535   6.742   6.931   0.182 -0.2609 -0.1429 -0.0271
17802SOL    HW158536   6.757   6.914   0.275  0.6966 -0.0647 -0.1606
17802SOL    HW258537   6.647   6.936   0.173 -0.3084  1.0260  1.1433
17803SOL     OW58538  10.456   3.334   1.278  0.3045  0.2206 -0.0750
17803SOL    HW158539  10.434   3.427   1.267 -0.3211 -0.1350 -2.0693
17803SOL    HW258540  10.381   3.297   1.323 -0.2247  0.3517 -0.8360
17804SOL     OW58541   6.370   3.123  10.662  0.2923 -0.2980  0.2221
17804SOL    HW158542   6.446   3.180  10.654  1.9060 -2.5531 -0.9890
17804SOL    HW258543   6.372   3.093  10.753  0.7217 -0.2145  0.2395
17805SOL     OW58544   6.055   0.789   7.012  0.1090  0.1098 -0.0542
17805SOL    HW158545   6.123   0.817   7.072  0.7571  1.1096 -1.2207
17805SOL    HW258546   6.058   0.693   7.014  1.0248  0.1499  0.4880
17806SOL     OW58547   6.989   3.892  10.978 -0.0235  0.1404  0.1266
17806SOL    HW158548   7.019   3.844  10.901 -0.1152 -0.3805  0.4130
17806SOL    HW258549   6.931   3.831  11.023 -0.5073  0.6928  0.2443
17807SOL     OW58550   6.574   4.059   7.597 -0.5847  0.1584 -0.7837
17807SOL    HW158551   6.560   3.970   7.565  2.2746 -0.5263 -0.2382
17807SOL    HW258552   6.579   4.113   7.517 -0.7859 -0.3884 -1.1667
17808SOL     OW58553   8.246   8.902   1.603 -0.5698 -0.4419  0.2097
17808SOL    HW158554   8.273   8.966   1.669  1.0533  2.1616 -2.8040
17808SOL    HW258555   8.167   8.939   1.564 -0.4819 -1.0100 -0.5351
17809SOL     OW58556   2.083   4.716   3.706 -0.4145 -0.2171 -0.2638
17809SOL    HW158557   2.016   4.767   3.661  1.6989  0.7663 -2.4101
17809SOL    HW258558   2.164   4.735   3.659  1.3367 -1.6575  2.0177
17810SOL     OW58559   8.522   6.275   3.453 -0.0909  0.4450  0.0043
17810SOL    HW158560   8.434   6.248   3.481  0.9945 -1.3201  1.8700
17810SOL    HW258561   8.567   6.193   3.435  1.0267  1.3652 -1.4956
17811SOL     OW58562   2.347   8.661   0.887 -0.2109 -0.1871  0.1214
17811SOL    HW158563   2.292   8.733   0.918  1.6513  2.1522 -1.7815
17811SOL    HW258564   2.297   8.622   0.815 -0.5903  0.1239  0.2131
17812SOL     OW58565   9.643   8.528   7.936 -0.4081  0.0709  0.5155
17812SOL    HW158566   9.606   8.440   7.926  0.9432 -0.2574 -1.8147
17812SOL    HW258567   9.704   8.519   8.010  1.3408 -1.5223 -1.0722
17813SOL     OW58568  10.252   9.901   7.219 -0.4913  0.1739  0.0178
17813SOL    HW158569  10.267   9.815   7.258  1.5653  0.7415  0.5073
17813SOL    HW258570  10.328   9.917   7.164 -1.0870  1.4946 -0.4411
17814SOL     OW58571   2.422   9.692  10.132 -0.6479 -0.1565 -0.4411
17814SOL    HW158572   2.421   9.786  10.147 -0.4842 -0.1481 -0.4808
17814SOL    HW258573   2.368   9.656  10.203  0.7919 -0.1822  0.6942
17815SOL     OW58574   7.278   3.775  10.519  0.1877  0.2465  0.3407
17815SOL    HW158575   7.234   3.695  10.547 -0.9224  0.5291 -0.5372
17815SOL    HW258576   7.288   3.765  10.424  0.8783  0.7463  0.3560
17816SOL     OW58577   4.657   8.270   1.009 -0.0359  0.4672 -0.2575
17816SOL    HW158578   4.692   8.351   1.045  0.5053 -0.4072  1.2272
17816SOL    HW258579   4.735   8.219   0.984 -0.3717  0.4473 -1.2893
17817SOL     OW58580   5.989  11.194   1.724  0.5028 -0.3487  0.1950
17817SOL    HW158581   6.016  11.281   1.694  0.1164 -0.9280 -1.9324
17817SOL    HW258582   6.003  11.138   1.648 -1.0439 -1.7821  0.9524
17818SOL     OW58583   2.798  10.105   8.369 -0.2659  0.0421  0.1560
17818SOL    HW158584   2.771  10.016   8.390  1.5023 -0.2664  1.2129
17818SOL    HW258585   2.841  10.098   8.284 -1.4728  0.1684 -0.4842
17819SOL     OW58586  10.626   7.218   8.451  0.2082 -0.5985  0.0804
17819SOL    HW158587  10.709   7.251   8.486 -0.9933  0.0876  2.3559
17819SOL    HW258588  10.601   7.148   8.511 -0.7313 -0.9834 -0.7527
17820SOL     OW58589   8.295   4.574   3.353  0.2226  0.0480  0.8765
17820SOL    HW158590   8.379   4.609   3.383  0.6666  1.5772 -2.0140
17820SOL    HW258591   8.316   4.527   3.273 -1.3430 -1.6918  1.4521
17821SOL     OW58592   1.791   9.593  10.288 -0.4283  0.1771  0.0391
17821SOL    HW158593   1.821   9.671  10.242  0.7321 -0.2637  0.0344
17821SOL    HW258594   1.707   9.619  10.327  0.2313  1.6099  0.5310
17822SOL     OW58595   8.959   2.217   9.133  0.7282 -0.1812 -0.3399
17822SOL    HW158596   8.873   2.240   9.097 -0.1785 -0.1281  1.7795
17822SOL    HW258597   9.021   2.274   9.088 -0.3585 -0.1858 -1.8490
17823SOL     OW58598   5.438   2.216   2.058  0.1820 -0.3878 -0.8054
17823SOL    HW158599   5.516   2.200   2.111 -0.0487  0.3062 -0.2556
17823SOL    HW258600   5.468   2.202   1.968  0.5254 -1.7481 -0.4924
17824SOL     OW58601  10.880   5.643   5.404  0.2468  0.4539  0.2857
17824SOL    HW158602  10.880   5.737   5.387  0.8716  0.3882 -0.0903
17824SOL    HW258603  10.808   5.609   5.351 -0.6854  0.8647  1.2737
17825SOL     OW58604   1.173  10.939   7.521  0.0042  0.2801  0.9498
17825SOL    HW158605   1.146  11.017   7.570 -0.3307 -0.8458  2.6111
17825SOL    HW258606   1.267  10.932   7.538  0.6347  1.9605 -1.6068
17826SOL     OW58607   1.869   4.223   0.709 -0.4834  0.0442 -0.3198
17826SOL    HW158608   1.801   4.176   0.758 -0.9928  0.3708 -0.7098
17826SOL    HW258609   1.833   4.312   0.699  1.1165  0.9690  1.7663
17827SOL     OW58610   2.898   6.777   4.679 -0.4324 -0.5452  0.2049
17827SOL    HW158611   2.914   6.704   4.739  1.0562  0.7266  1.4169
17827SOL    HW258612   2.808   6.804   4.697 -0.8468 -1.8180  0.0486
17828SOL     OW58613   1.784   6.593   2.759  0.3473  0.1552 -0.1697
17828SOL    HW158614   1.800   6.686   2.741  1.3662 -0.0765 -0.5448
17828SOL    HW258615   1.868   6.560   2.791  0.4573 -0.9917 -1.5731
17829SOL     OW58616   0.012   5.221   4.941  1.0869  0.5045 -0.1302
17829SOL    HW158617   0.016   5.242   4.848 -0.4627  1.2048 -0.0586
17829SOL    HW258618  -0.065   5.269   4.973  1.9597  0.7661  1.6267
17830SOL     OW58619   0.063   6.444   8.099 -0.6808  0.0166  0.2522
17830SOL    HW158620   0.067   6.376   8.031  0.0040 -0.1087  0.4141
17830SOL    HW258621   0.020   6.401   8.172 -0.5490 -0.1447  0.2362
17831SOL     OW58622   8.207  10.231   1.417  0.0298  0.2740 -0.7021
17831SOL    HW158623   8.152  10.160   1.384 -0.8116  1.7498 -2.5986
17831SOL    HW258624   8.237  10.277   1.338  0.4040  2.1252  0.4747
17832SOL     OW58625   4.415  10.066   8.533 -0.2152  0.2037 -0.1264
17832SOL    HW158626   4.460  10.053   8.617 -0.9841 -0.6349  0.1633
17832SOL    HW258627   4.323  10.077   8.556 -0.6076 -1.2605 -0.9368
17833SOL     OW58628   3.689   8.489   4.755  0.6984 -0.6605 -0.1267
17833SOL    HW158629   3.684   8.400   4.790 -1.0418 -0.7236 -0.4834
17833SOL    HW258630   3.600   8.523   4.764  1.2785  0.9228 -0.3209
17834SOL     OW58631   6.724   8.612  10.617  0.8409 -0.7380  0.0215
17834SOL    HW158632   6.724   8.614  10.713  0.1970 -1.0364  0.0362
17834SOL    HW258633   6.634   8.635  10.593  0.9800 -0.7504 -0.5061
17835SOL     OW58634   3.699   1.516   9.607  0.1543  0.3405 -0.2697
17835SOL    HW158635   3.662   1.595   9.645  0.7292  1.7295 -2.5093
17835SOL    HW258636   3.762   1.548   9.542  2.4290 -1.9511  0.7338
17836SOL     OW58637   6.450   1.797   4.228 -0.0796  0.2870  0.2283
17836SOL    HW158638   6.368   1.824   4.187  1.1430  0.5476 -2.1958
17836SOL    HW258639   6.487   1.732   4.168  0.6275 -1.1722  2.2010
17837SOL     OW58640   8.556   1.725   1.733  0.4987  0.0666  0.3180
17837SOL    HW158641   8.461   1.723   1.720  0.6120  1.5895 -0.9053
17837SOL    HW258642   8.568   1.700   1.825 -1.1598  1.0395  0.8183
17838SOL     OW58643  10.381   5.925   0.225  0.1148  0.1225  0.3535
17838SOL    HW158644  10.426   5.926   0.310  1.4044 -0.0798 -0.3220
17838SOL    HW258645  10.416   5.848   0.180 -2.7180 -1.4518  0.7603
17839SOL     OW58646  10.685   7.247   7.235 -0.0946 -0.2765  0.1842
17839SOL    HW158647  10.749   7.317   7.233  0.2787 -0.6247 -0.3934
17839SOL    HW258648  10.601   7.291   7.224  0.2672 -0.0603 -2.0796
17840SOL     OW58649   0.538   6.113   3.556  0.8069 -0.6073  0.0092
17840SOL    HW158650   0.528   6.134   3.463  1.9474  0.1138  0.0420
17840SOL    HW258651   0.456   6.069   3.579 -0.2749  0.8869 -0.8728
17841SOL     OW58652   2.589   3.859   8.252 -0.0206 -0.1883 -0.1092
17841SOL    HW158653   2.573   3.779   8.302 -1.0718  1.8056  2.8731
17841SOL    HW258654   2.668   3.840   8.201  0.3611 -2.7445  1.3316
17842SOL     OW58655   6.760   9.987   6.002  0.3493 -0.2317  0.4190
17842SOL    HW158656   6.778   9.908   6.054  0.1784 -2.0487 -2.1629
17842SOL    HW258657   6.674  10.016   6.032 -1.0526 -2.9291 -0.7633
17843SOL     OW58658   6.396   0.264   3.832 -0.3017  0.3734  0.2367
17843SOL    HW158659   6.381   0.275   3.926  3.6337  0.8236  0.8947
17843SOL    HW258660   6.458   0.191   3.825  0.7631  1.4064 -1.8629
17844SOL     OW58661  10.760   3.314   6.228  0.2569 -0.2334  0.7226
17844SOL    HW158662  10.750   3.247   6.296  1.0251  0.8111  1.8949
17844SOL    HW258663  10.839   3.288   6.180 -0.5019 -1.1849 -0.0351
17845SOL     OW58664   8.664   2.339  10.101  0.5244 -0.1554 -0.2019
17845SOL    HW158665   8.607   2.401  10.147 -0.6504 -0.2822 -1.4737
17845SOL    HW258666   8.661   2.260  10.155 -1.6843 -0.6564 -1.0184
17846SOL     OW58667  10.627   7.493   9.948  0.1889  0.0560  0.1635
17846SOL    HW158668  10.547   7.496   9.895  0.1457 -1.3118  0.1420
17846SOL    HW258669  10.597   7.495  10.038  0.1695  0.3331  0.1501
17847SOL     OW58670   0.416  10.628   9.822 -0.2107 -0.1256 -0.4821
17847SOL    HW158671   0.476  10.700   9.804 -0.2620  0.1083  0.2730
17847SOL    HW258672   0.395  10.636   9.915  0.4073 -1.5921 -0.1958
17848SOL     OW58673   4.677   3.185   5.870  0.0122  0.1792  0.3351
17848SOL    HW158674   4.697   3.091   5.871  0.0449  0.1811 -0.0932
17848SOL    HW258675   4.735   3.221   5.804 -0.0004  0.5039  0.5018
17849SOL     OW58676  10.474   6.763   6.515  0.0256 -0.6444  0.0838
17849SOL    HW158677  10.529   6.818   6.458 -1.4573  0.6374 -0.1480
17849SOL    HW258678  10.427   6.705   6.455  0.6870 -1.3481  0.2398
17850SOL     OW58679   5.996   7.256   5.055 -0.0546  0.3281 -0.0110
17850SOL    HW158680   6.050   7.251   4.977 -0.0776  0.4697 -0.0363
17850SOL    HW258681   5.906   7.244   5.024  0.1616 -2.7396  0.3492
17851SOL     OW58682   9.401   9.513   0.711 -0.7202 -0.3423 -0.0187
17851SOL    HW158683   9.440   9.550   0.790  0.0115  0.3659 -0.7100
17851SOL    HW258684   9.474   9.506   0.649 -1.6962  1.0771 -1.3562
17852SOL     OW58685  10.820   8.793   5.158  0.5080  0.2879  0.2300
17852SOL    HW158686  10.725   8.786   5.149  0.3117  1.6411  1.0544
17852SOL    HW258687  10.848   8.840   5.079  0.5997 -0.8265 -0.4105
17853SOL     OW58688   0.198   6.407   4.904  0.0630  0.3567  0.1520
17853SOL    HW158689   0.195   6.427   4.810 -3.4031  0.4869  0.2369
17853SOL    HW258690   0.179   6.490   4.947 -1.4942 -0.3464  0.8567
17854SOL     OW58691   9.750   0.504   8.628  0.4324  0.4192 -0.3671
17854SOL    HW158692   9.660   0.503   8.661  1.6463 -0.8469  3.0904
17854SOL    HW258693   9.769   0.597   8.614 -1.4071  0.6934 -1.1881
17855SOL     OW58694   2.222   2.001  10.086 -0.6593 -0.3268 -0.1209
17855SOL    HW158695   2.299   2.034  10.039 -0.8345  0.1604 -0.0685
17855SOL    HW258696   2.175   1.949  10.022 -0.8519  0.2667 -0.4682
17856SOL     OW58697   9.245   2.463   9.801  0.7576 -1.0317 -0.2147
17856SOL    HW158698   9.186   2.529   9.764  3.4091  1.2257 -0.5196
17856SOL    HW258699   9.232   2.470   9.895  1.4404  0.3519 -0.2136
17857SOL     OW58700  11.072   6.844   8.432 -0.1283 -0.1383 -0.2850
17857SOL    HW158701  11.126   6.890   8.367 -0.2270  1.7399  0.9309
17857SOL    HW258702  11.121   6.852   8.514  0.0771 -2.6407 -0.1184
17858SOL     OW58703   4.237   7.085   0.785  0.2491 -0.3532  0.2238
17858SOL    HW158704   4.226   7.041   0.870 -0.5606  2.0754  1.4291
17858SOL    HW258705   4.330   7.106   0.780  0.2105 -0.0290  0.7831
17859SOL     OW58706  10.404  11.225   8.522 -0.1543  0.0123 -0.0686
17859SOL    HW158707  10.446  11.311   8.522 -1.3355  0.5977 -1.2008
17859SOL    HW258708  10.469  11.167   8.483  0.5092  0.4570  0.3596
17860SOL     OW58709   3.210   9.699   1.597  0.7647  0.0050  0.7213
17860SOL    HW158710   3.208   9.759   1.673 -0.7957 -0.1353  0.8088
17860SOL    HW258711   3.301   9.668   1.594  1.2498  1.2775  1.5448
17861SOL     OW58712   5.603  10.010   9.867 -0.1565 -0.3146 -0.2609
17861SOL    HW158713   5.686   9.974   9.837 -1.1885 -1.2105 -2.1211
17861SOL    HW258714   5.611  10.104   9.851  0.1881 -0.5001 -1.2080
17862SOL     OW58715   8.379   4.175   1.783 -0.2906 -0.1884  0.4490
17862SOL    HW158716   8.320   4.151   1.855  1.5336 -0.6717  1.8167
17862SOL    HW258717   8.462   4.131   1.804  1.0221  1.7073 -0.6281
17863SOL     OW58718   3.824   3.518   2.889 -0.0767  0.5735  0.2214
17863SOL    HW158719   3.868   3.601   2.868 -0.8267  1.4070  1.8712
17863SOL    HW258720   3.759   3.508   2.819  0.2862  1.1689 -0.2136
17864SOL     OW58721   6.408   6.860   0.410 -0.0169 -0.2654 -0.0736
17864SOL    HW158722   6.367   6.834   0.493 -1.4546  2.0797 -0.0132
17864SOL    HW258723   6.441   6.948   0.427 -0.1777  0.1656 -1.9411
17865SOL     OW58724   3.277   6.329   0.052  0.3130  0.0888 -0.4825
17865SOL    HW158725   3.284   6.233   0.051  0.8325  0.1269 -2.4116
17865SOL    HW258726   3.233   6.350  -0.030  1.3564  1.6002 -0.6591
17866SOL     OW58727   0.438   9.357   0.267  0.2778  0.0679 -0.2229
17866SOL    HW158728   0.487   9.346   0.348  0.1267  0.5201 -0.0719
17866SOL    HW258729   0.502   9.390   0.204  0.2381  0.3736 -0.1044
17867SOL     OW58730   5.762   9.042   3.921  0.0906 -0.1659  0.4427
17867SOL    HW158731   5.851   9.069   3.944  0.4588 -0.1943 -0.8985
17867SOL    HW258732   5.752   8.956   3.962  0.2842  0.3162  1.5162
17868SOL     OW58733   6.015   4.472   2.014 -0.7110 -0.0356 -0.3368
17868SOL    HW158734   6.109   4.466   2.032 -0.3225 -1.0344 -2.5487
17868SOL    HW258735   5.975   4.418   2.082  0.3989 -0.4129  0.0422
17869SOL     OW58736   7.229   5.105   3.654  0.0916  0.3098  0.6458
17869SOL    HW158737   7.296   5.167   3.679  0.6427 -1.0234  2.5838
17869SOL    HW258738   7.238   5.097   3.559  2.3146  0.5466  0.8130
17870SOL     OW58739   3.721   8.422  10.733  0.3897 -0.1974  0.2542
17870SOL    HW158740   3.802   8.471  10.716  0.5228 -0.6950 -0.5805
17870SOL    HW258741   3.683   8.464  10.811  0.8972  0.7338  0.0078
17871SOL     OW58742   7.659  10.911   1.956  0.2022 -0.5569  0.0963
17871SOL    HW158743   7.755  10.906   1.960  0.4088  1.7245 -0.8769
17871SOL    HW258744   7.641  10.948   1.870 -1.6372 -2.2404 -0.2624
17872SOL     OW58745   7.721   9.791   5.794  0.5268  0.0009  0.3259
17872SOL    HW158746   7.711   9.776   5.888 -1.7908  0.4728  0.1672
17872SOL    HW258747   7.786   9.861   5.789 -0.9391  1.5217  1.6913
17873SOL     OW58748  11.091   0.949   7.454  0.5277 -0.7701  0.5098
17873SOL    HW158749  11.131   1.013   7.395 -0.0645 -0.3988  0.5140
17873SOL    HW258750  11.166   0.908   7.497  0.8870  0.5897  1.2192
17874SOL     OW58751   2.636   9.844   2.073  0.3075 -0.4077 -0.1634
17874SOL    HW158752   2.603   9.819   2.160 -2.6233 -2.4635 -1.7756
17874SOL    HW258753   2.559   9.838   2.016  1.0248  5.6849 -2.0534
17875SOL     OW58754   6.143   0.026   6.497 -0.1461  0.0277 -0.3335
17875SOL    HW158755   6.181  -0.061   6.511 -0.8951 -0.3856 -0.9118
17875SOL    HW258756   6.142   0.037   6.402 -1.0101  0.2436 -0.3011
17876SOL     OW58757   9.526  10.787   5.471  0.2966  0.5993 -0.0078
17876SOL    HW158758   9.469  10.756   5.402 -1.3838  2.0744  0.6854
17876SOL    HW258759   9.596  10.834   5.426  0.4250 -0.3429 -0.7990
17877SOL     OW58760   5.781   2.721   2.263 -0.3400 -0.2822  0.3875
17877SOL    HW158761   5.710   2.728   2.326 -0.1373  0.0991  0.5778
17877SOL    HW258762   5.840   2.656   2.300  0.2158  0.5699  1.0294
17878SOL     OW58763   0.608  10.342   4.969  0.5736 -0.0271 -0.0157
17878SOL    HW158764   0.578  10.326   5.058 -1.2318  0.2584 -0.5629
17878SOL    HW258765   0.661  10.421   4.975 -1.4055  1.2821  0.4255
17879SOL     OW58766   2.643   4.829   5.167  0.3289  0.6143  0.1412
17879SOL    HW158767   2.717   4.844   5.225 -0.4118 -0.3596  1.3703
17879SOL    HW258768   2.574   4.796   5.225 -0.6780  0.3884 -1.1676
17880SOL     OW58769   7.093  10.062   5.936 -0.4795  0.2082  0.1184
17880SOL    HW158770   7.161  10.024   5.991  0.1469  0.4646 -0.4750
17880SOL    HW258771   7.013  10.017   5.963  0.2528 -1.6236 -0.6240
17881SOL     OW58772   5.733  11.213   5.042  0.2978  0.0154 -0.4502
17881SOL    HW158773   5.688  11.289   5.005  2.8236  1.5504 -0.5723
17881SOL    HW258774   5.727  11.225   5.136  1.2326  0.7401 -0.4722
17882SOL     OW58775   9.502  11.137   0.805  0.0658  0.0654  0.0777
17882SOL    HW158776   9.513  11.212   0.746  0.3386  0.6065  0.8076
17882SOL    HW258777   9.415  11.104   0.786 -0.0260  0.5229 -0.3111
17883SOL     OW58778   7.609   8.746   7.729 -0.2791  0.5016 -0.6473
17883SOL    HW158779   7.605   8.840   7.744 -0.2869  0.2259  1.2164
17883SOL    HW258780   7.694   8.731   7.688 -0.7603  1.4452 -2.0268
17884SOL     OW58781   6.650   3.520  10.612  0.6161 -0.0056 -0.3813
17884SOL    HW158782   6.707   3.560  10.678 -1.0556  1.4208  0.2591
17884SOL    HW258783   6.670   3.427  10.616  2.0670  0.3291  0.6389
17885SOL     OW58784   5.123   6.178   4.672 -0.1875 -0.4830 -0.9231
17885SOL    HW158785   5.207   6.146   4.638  0.3813 -0.6550  0.6001
17885SOL    HW258786   5.126   6.158   4.766 -1.4275  0.6038 -0.6400
17886SOL     OW58787   3.012   5.726   7.567  0.2518  0.1271  0.3360
17886SOL    HW158788   3.071   5.790   7.608  1.0349 -0.0654 -0.4605
17886SOL    HW258789   3.069   5.677   7.507 -0.7028 -0.1445 -0.3542
17887SOL     OW58790   1.996   7.446   9.147  0.3795  0.5617  0.3658
17887SOL    HW158791   1.992   7.353   9.172 -1.4705  0.7205  0.7423
17887SOL    HW258792   1.908   7.466   9.116 -0.3234  3.1580  3.7559
17888SOL     OW58793   3.239   1.684   3.313 -0.2680  0.0707 -0.0044
17888SOL    HW158794   3.187   1.655   3.237  1.7963 -1.1007 -1.0347
17888SOL    HW258795   3.268   1.772   3.289  0.5955 -0.3961 -0.7175
17889SOL     OW58796   1.615   6.739   1.584  0.7120 -0.4535 -0.0206
17889SOL    HW158797   1.529   6.722   1.621  1.0584 -1.3735  0.3516
17889SOL    HW258798   1.599   6.811   1.522 -0.0198  0.4924  1.2256
17890SOL     OW58799   0.358  10.718   6.993 -0.1507  0.4316 -0.3492
17890SOL    HW158800   0.267  10.699   6.972 -0.2118  1.5847 -1.1194
17890SOL    HW258801   0.360  10.812   7.012  0.9810  0.5228 -0.8814
17891SOL     OW58802   5.781   0.840   9.019 -0.1421 -0.3528 -0.5460
17891SOL    HW158803   5.693   0.851   8.985 -0.2253 -1.6192 -0.7847
17891SOL    HW258804   5.836   0.897   8.965 -0.7827  0.3119 -0.5010
17892SOL     OW58805   7.532   4.524   3.111  0.6386  0.3923 -0.1325
17892SOL    HW158806   7.449   4.510   3.065  1.3117 -0.1091 -1.1868
17892SOL    HW258807   7.581   4.584   3.056  1.2891  0.0979  0.1174
17893SOL     OW58808   2.334   2.449   5.908 -0.2374  0.4542  0.0502
17893SOL    HW158809   2.394   2.428   5.980 -0.0554 -2.5903 -0.9245
17893SOL    HW258810   2.252   2.406   5.932 -0.7843  1.1378 -0.5848
17894SOL     OW58811   5.310   7.749   4.310  0.1336 -0.4098 -0.0684
17894SOL    HW158812   5.401   7.738   4.282  0.8902  1.9208  1.3095
17894SOL    HW258813   5.316   7.770   4.403 -1.5263  3.3416 -0.6976
17895SOL     OW58814   9.030   0.451   6.463 -0.4278  0.3350 -0.5735
17895SOL    HW158815   9.040   0.461   6.368 -0.2334  1.1166 -0.4757
17895SOL    HW258816   8.948   0.496   6.484 -2.3858 -2.9584 -0.8584
17896SOL     OW58817   5.879  10.168   9.555  0.1873  0.1244  0.4398
17896SOL    HW158818   5.793  10.132   9.577 -1.1686  1.9383 -1.6956
17896SOL    HW258819   5.870  10.262   9.566  2.5026  0.2054  2.0561
17897SOL     OW58820   3.117   7.475   3.772 -0.0108 -0.0500 -0.6516
17897SOL    HW158821   3.065   7.515   3.702 -1.2058 -0.9378 -0.2864
17897SOL    HW258822   3.176   7.545   3.800 -1.6950  1.3175 -0.4054
17898SOL     OW58823   7.542   2.382   3.908  0.2048 -0.0647  0.2971
17898SOL    HW158824   7.575   2.359   3.821 -0.4198  1.4279 -0.3436
17898SOL    HW258825   7.464   2.328   3.919  0.6249 -0.7041  0.1979
17899SOL     OW58826   9.350   6.448   4.331 -0.4089  0.1359 -0.2874
17899SOL    HW158827   9.435   6.491   4.320 -0.6521  0.2757 -1.7743
17899SOL    HW258828   9.293   6.493   4.268 -1.6194  0.1430  0.8144
17900SOL     OW58829   1.123   0.639  10.137  0.2356  0.0068 -0.2723
17900SOL    HW158830   1.166   0.680  10.062  1.0912 -0.8617 -0.2602
17900SOL    HW258831   1.116   0.710  10.201 -0.8933  0.8626 -1.3253
17901SOL     OW58832   0.057   0.844   1.710 -0.1583 -0.4352  0.0072
17901SOL    HW158833   0.070   0.921   1.654  1.1225 -0.8669 -0.3086
17901SOL    HW258834   0.103   0.866   1.792 -0.4724 -0.5441  0.2153
17902SOL     OW58835   8.307   2.654   9.489 -0.0278 -0.1060  0.2665
17902SOL    HW158836   8.390   2.700   9.485  0.2321 -0.4724  1.2418
17902SOL    HW258837   8.257   2.699   9.557 -0.4063 -0.2448  0.0870
17903SOL     OW58838   9.060   3.933   9.401 -0.3057 -0.5615 -0.4365
17903SOL    HW158839   9.022   4.008   9.355  0.4714  0.6228  0.8271
17903SOL    HW258840   9.039   3.948   9.493 -1.7637 -2.8662 -0.3703
17904SOL     OW58841  10.923   4.512   1.925 -0.1965  0.7376 -0.0798
17904SOL    HW158842  10.926   4.462   1.843  0.3086  2.0003 -0.8478
17904SOL    HW258843  10.878   4.454   1.986  0.3656 -0.6502 -0.9487
17905SOL     OW58844   4.577   9.025   2.668  0.1921 -0.0004  0.3634
17905SOL    HW158845   4.544   9.001   2.755 -1.9701 -0.2513 -0.4931
17905SOL    HW258846   4.504   9.069   2.626  1.9571  2.1712 -0.5364
17906SOL     OW58847  10.406   4.111   8.619  0.4708  0.0341  0.0826
17906SOL    HW158848  10.378   4.020   8.612  1.4818 -0.4252  1.6757
17906SOL    HW258849  10.458   4.126   8.540 -0.1055 -0.6241 -0.4256
17907SOL     OW58850   2.210   2.746   4.392  0.3388 -0.3998  0.0508
17907SOL    HW158851   2.238   2.657   4.369 -0.1752 -0.6122  0.2479
17907SOL    HW258852   2.183   2.784   4.308 -0.1541 -0.6874  0.0725
17908SOL     OW58853   0.834   5.185   4.401  0.2681 -0.2355  0.0035
17908SOL    HW158854   0.806   5.269   4.367  0.2519 -0.3707 -0.3197
17908SOL    HW258855   0.894   5.206   4.473  1.8496  0.0602 -1.3689
17909SOL     OW58856   1.755   1.125   7.866 -1.2073  0.1077  0.8455
17909SOL    HW158857   1.733   1.042   7.909  0.4325 -0.7623  0.0683
17909SOL    HW258858   1.750   1.190   7.936 -0.3289 -1.0067  1.9735
17910SOL     OW58859  10.427   6.833   0.521  0.4033  0.1232 -0.6167
17910SOL    HW158860  10.368   6.758   0.534  0.4282  0.2737  0.4876
17910SOL    HW258861  10.388   6.902   0.576  0.9162  0.6122 -0.8711
17911SOL     OW58862  11.244   4.907   4.660  0.1126  0.4696  0.7290
17911SOL    HW158863  11.242   4.815   4.635  0.1975  0.4407  0.8270
17911SOL    HW258864  11.152   4.933   4.664  0.1345  1.1286 -2.0333
17912SOL     OW58865   7.147   0.949   7.544  0.0629  0.9409  0.3683
17912SOL    HW158866   7.134   0.983   7.633  0.9586  0.7131  0.5935
17912SOL    HW258867   7.061   0.917   7.517 -0.3161  1.4551  0.9714
17913SOL     OW58868   8.932   7.691   6.702  0.2011 -0.4783 -0.5598
17913SOL    HW158869   8.927   7.638   6.781  0.8489  0.2984  0.0053
17913SOL    HW258870   8.968   7.774   6.731  0.3089 -0.1402 -1.6483
17914SOL     OW58871   8.450   7.757   6.294  0.3370  0.3510  0.3414
17914SOL    HW158872   8.369   7.782   6.250  0.2253  0.3323  0.5352
17914SOL    HW258873   8.453   7.813   6.372  0.4084  0.2093  0.4411
17915SOL     OW58874   5.068   5.308   9.862  0.2484 -0.4687  0.1179
17915SOL    HW158875   5.140   5.357   9.821 -1.0550  2.4282  1.1639
17915SOL    HW258876   5.011   5.283   9.790  1.5685 -1.5510 -0.5659
17916SOL     OW58877   9.317   6.715   9.729  0.3136  0.1275 -0.6638
17916SOL    HW158878   9.280   6.745   9.812  1.4592  2.2058 -0.8705
17916SOL    HW258879   9.380   6.648   9.754  1.6819  1.7352  0.2810
17917SOL     OW58880  10.156  11.328   4.440  0.1858  0.1215 -0.2768
17917SOL    HW158881  10.203  11.264   4.493  0.9688 -0.9385 -2.1910
17917SOL    HW258882  10.184  11.310   4.350 -1.3753  1.6315 -1.1037
17918SOL     OW58883   6.243   5.897   1.983  0.1341  0.3284  0.2678
17918SOL    HW158884   6.230   5.975   1.930  1.7339  0.4903  0.0945
17918SOL    HW258885   6.232   5.824   1.922  0.0534  0.4557  0.1311
17919SOL     OW58886  11.042   4.825   7.249 -0.1054  0.6477  0.2153
17919SOL    HW158887  11.009   4.739   7.222  2.6467  0.1506 -1.8151
17919SOL    HW258888  10.988   4.888   7.202 -0.2437 -0.0491 -0.5719
17920SOL     OW58889   5.220   0.738   5.874 -0.0482  0.4657 -0.0160
17920SOL    HW158890   5.295   0.682   5.854  0.6079  0.8820  1.2114
17920SOL    HW258891   5.195   0.775   5.789 -0.1652 -1.2486 -0.7526
17921SOL     OW58892   3.340   5.953  11.098  0.7687 -0.1782 -0.2079
17921SOL    HW158893   3.404   5.883  11.111 -1.1546 -2.2642 -1.8052
17921SOL    HW258894   3.369   5.998  11.019  0.4081 -0.9566 -0.7819
17922SOL     OW58895   7.327   0.281  10.663 -0.0843 -0.5061 -0.3026
17922SOL    HW158896   7.264   0.351  10.650  0.5511  0.6327  2.4344
17922SOL    HW258897   7.410   0.316  10.629 -0.1833 -0.7207 -0.7764
17923SOL     OW58898   6.241   3.184   3.437  0.2063 -0.3451  0.0461
17923SOL    HW158899   6.322   3.134   3.446  0.6638  0.0322 -1.7362
17923SOL    HW258900   6.240   3.242   3.513  0.9149 -1.3167  0.8058
17924SOL     OW58901   5.949   4.719   1.846 -0.2594 -0.4314  0.1735
17924SOL    HW158902   5.945   4.632   1.885 -1.3378 -0.4099  0.1271
17924SOL    HW258903   5.885   4.716   1.775 -0.5692  0.5168  0.4112
17925SOL     OW58904  11.294   8.215   3.795  0.2945  0.3439  0.6702
17925SOL    HW158905  11.302   8.237   3.888  0.7184 -1.8948  1.1828
17925SOL    HW258906  11.282   8.300   3.751 -0.6912  1.3583  2.8331
17926SOL     OW58907   2.653   2.825   7.734  0.0011  0.3916 -0.0663
17926SOL    HW158908   2.696   2.762   7.675 -2.5139 -2.0860  0.6508
17926SOL    HW258909   2.560   2.808   7.723 -0.5612  0.4655  3.9811
17927SOL     OW58910   6.427   6.920   0.886 -0.2260 -0.3002  0.0258
17927SOL    HW158911   6.335   6.918   0.912 -0.1915 -0.6574  0.1330
17927SOL    HW258912   6.475   6.903   0.966 -0.0731 -0.2947 -0.0638
17928SOL     OW58913   1.462   5.869   3.131 -0.3863 -0.6838 -0.8130
17928SOL    HW158914   1.426   5.878   3.043 -0.6059 -1.3086 -0.7853
17928SOL    HW258915   1.554   5.845   3.118 -1.0562 -3.3782 -0.8779
17929SOL     OW58916   4.356   0.967   7.637  0.2048 -0.3187 -0.0019
17929SOL    HW158917   4.408   0.890   7.619 -1.0612 -1.1556 -0.1398
17929SOL    HW258918   4.384   0.995   7.724  1.2361 -0.4539 -0.2861
17930SOL     OW58919   4.492   0.679   7.588  0.5403 -0.2337 -1.0385
17930SOL    HW158920   4.542   0.606   7.553  0.2335 -0.6765 -0.5708
17930SOL    HW258921   4.405   0.671   7.547  0.1952 -0.7282 -0.2157
17931SOL     OW58922   8.435   1.510  10.843  0.0317 -0.2718  0.0571
17931SOL    HW158923   8.489   1.587  10.863 -1.2803  0.1550  2.1448
17931SOL    HW258924   8.443   1.498  10.749  1.8524  1.2226 -0.0013
17932SOL     OW58925   5.266   8.685   9.545 -0.4740  0.2290 -0.1164
17932SOL    HW158926   5.343   8.649   9.501 -2.0172  0.5289 -3.1533
17932SOL    HW258927   5.259   8.634   9.626  1.8645 -1.0104 -0.6413
17933SOL     OW58928   3.149   2.191   7.267  0.7193  0.4292 -0.2922
17933SOL    HW158929   3.090   2.264   7.288 -1.6860 -1.6833  0.6340
17933SOL    HW258930   3.111   2.153   7.188 -0.0270 -1.8217  1.1095
17934SOL     OW58931   6.865  10.776   8.198  0.1627  0.1887 -0.0193
17934SOL    HW158932   6.784  10.790   8.148  0.4787  0.9223 -0.3216
17934SOL    HW258933   6.927  10.840   8.163  0.4647  0.5509  1.1475
17935SOL     OW58934  10.952   4.547   4.489  0.2548 -0.0041 -0.5840
17935SOL    HW158935  10.961   4.453   4.474  0.1501  0.0104 -0.7370
17935SOL    HW258936  10.903   4.554   4.571  0.9861 -0.0837 -0.1429
17936SOL     OW58937  10.165  10.755   0.285 -0.1479  0.1728 -0.5152
17936SOL    HW158938  10.106  10.685   0.259  2.2381 -1.4124 -1.7875
17936SOL    HW258939  10.172  10.811   0.208  0.1784  0.2477 -0.4323
17937SOL     OW58940  11.291   5.775   6.088  0.2757  0.4573  0.1399
17937SOL    HW158941  11.209   5.804   6.047 -0.1258 -2.6210 -1.3843
17937SOL    HW258942  11.264   5.738   6.172  0.1250 -0.1351 -0.1623
17938SOL     OW58943   5.852   6.252  11.020 -0.0293  0.3536  0.3060
17938SOL    HW158944   5.831   6.184  10.956 -0.3934  0.5948  0.1638
17938SOL    HW258945   5.873   6.329  10.968 -1.1727  0.7921  0.4837
17939SOL     OW58946   7.700   1.016   1.708 -0.1567  0.2526  0.6244
17939SOL    HW158947   7.628   1.020   1.772 -0.7614  0.1416 -0.0399
17939SOL    HW258948   7.768   0.966   1.752 -0.6343  0.0322  1.1252
17940SOL     OW58949   3.220  11.115   5.168 -0.2227 -0.2525  0.0534
17940SOL    HW158950   3.267  11.040   5.203  1.5504  0.6731 -0.3121
17940SOL    HW258951   3.133  11.081   5.146  0.2783 -1.9763  0.7113
17941SOL     OW58952  10.039   8.935   7.894  0.7921 -0.3938 -0.5291
17941SOL    HW158953   9.954   8.894   7.914 -0.6877  3.1650  0.8356
17941SOL    HW258954  10.048   8.925   7.799 -0.2006 -2.5105 -0.4445
17942SOL     OW58955   2.292   7.938   4.439 -0.2921 -0.1378 -0.0701
17942SOL    HW158956   2.341   7.940   4.522 -0.8963  3.0233  0.2515
17942SOL    HW258957   2.359   7.955   4.372  0.1570 -2.4755 -0.2709
17943SOL     OW58958   1.013   8.890   7.120  0.4503 -0.1793  0.4982
17943SOL    HW158959   1.097   8.900   7.074  0.2766 -0.2189  0.1706
17943SOL    HW258960   1.017   8.954   7.191 -0.0171  1.1469 -0.6424
17944SOL     OW58961   6.337   0.225   5.751  0.3801  0.2238 -0.5372
17944SOL    HW158962   6.295   0.139   5.744  2.9090 -1.0526 -0.5223
17944SOL    HW258963   6.387   0.220   5.832  0.1024  1.9341 -0.2517
17945SOL     OW58964   6.245   2.053   7.765  0.0934 -0.0510  0.0441
17945SOL    HW158965   6.174   1.990   7.771 -0.0823  0.2036  0.7041
17945SOL    HW258966   6.272   2.068   7.856  0.0454  0.9174 -0.0888
17946SOL     OW58967   5.722   2.276   6.090 -0.2012  0.0076  0.1295
17946SOL    HW158968   5.661   2.334   6.044  0.0911  1.0781  1.0700
17946SOL    HW258969   5.668   2.201   6.116 -0.8683  0.4346 -0.0137
17947SOL     OW58970   4.906   3.197   3.258 -0.1045  0.1375 -0.1712
17947SOL    HW158971   4.961   3.148   3.196 -0.6097 -1.0026  0.2605
17947SOL    HW258972   4.833   3.138   3.276 -0.0048  0.4837  1.4532
17948SOL     OW58973  10.825   3.360  10.719 -0.5231  0.1023 -0.0082
17948SOL    HW158974  10.752   3.384  10.776 -0.1192 -1.4332  1.1870
17948SOL    HW258975  10.903   3.396  10.763 -0.2102 -1.0751  0.4044
17949SOL     OW58976   3.331   1.495   6.618  0.1343 -0.6804  0.0910
17949SOL    HW158977   3.404   1.554   6.635  0.0835 -0.4891 -0.3523
17949SOL    HW258978   3.267   1.515   6.686 -0.0087 -0.0182 -0.2354
17950SOL     OW58979   5.215   6.948   2.722  0.0432  0.4354  0.7126
17950SOL    HW158980   5.136   6.897   2.738  0.0392  0.1024 -0.2989
17950SOL    HW258981   5.187   7.039   2.730 -0.2954  0.3078  1.0009
17951SOL     OW58982   9.530   0.682   2.183  0.2281 -0.6371  0.7785
17951SOL    HW158983   9.446   0.716   2.214  0.7194  0.0397  1.3899
17951SOL    HW258984   9.533   0.592   2.213  0.2538 -0.2908  1.8331
17952SOL     OW58985   0.284   5.193   8.589 -0.2511 -0.6269 -0.2924
17952SOL    HW158986   0.335   5.273   8.599  0.0182 -0.7329 -0.8049
17952SOL    HW258987   0.195   5.217   8.615 -0.3304  0.0272 -1.1610
17953SOL     OW58988   7.640   0.282   2.612 -0.5750  0.3425  0.2043
17953SOL    HW158989   7.662   0.305   2.521  1.3522 -0.1793  0.4963
17953SOL    HW258990   7.694   0.341   2.665 -0.2093 -0.6697  0.9749
17954SOL     OW58991   4.077   3.423   0.896 -0.0866  0.5807  0.5341
17954SOL    HW158992   4.170   3.404   0.907  0.0961  1.8637  1.3405
17954SOL    HW258993   4.066   3.432   0.801  0.4017 -0.5795  0.3624
17955SOL     OW58994   2.921   6.063   0.354  0.9252  0.0189 -0.4905
17955SOL    HW158995   2.889   6.152   0.370 -2.0940 -0.8653 -1.2511
17955SOL    HW258996   2.897   6.015   0.433 -1.2362 -1.0453 -1.7427
17956SOL     OW58997   0.220   0.160   1.768  0.2991 -0.5434  0.1225
17956SOL    HW158998   0.152   0.177   1.702 -0.1531  0.9903  0.9580
17956SOL    HW258999   0.302   0.164   1.719 -0.1413 -1.3609 -0.7024
17957SOL     OW59000   8.672   1.209   5.129  0.0685  0.0894  0.4188
17957SOL    HW159001   8.627   1.152   5.067  0.3577  0.4960 -0.1710
17957SOL    HW259002   8.765   1.190   5.117  0.1138 -0.0181  0.9149
17958SOL     OW59003   3.606   2.321   4.393  0.2686 -0.4178 -0.2576
17958SOL    HW159004   3.537   2.270   4.435 -0.2084 -0.0319 -0.5698
17958SOL    HW259005   3.642   2.375   4.463  0.4100 -0.7886 -0.0432
17959SOL     OW59006   7.028   3.379   4.154 -0.0358  0.1730 -0.5830
17959SOL    HW159007   6.938   3.410   4.143 -1.2111 -2.4116  1.2596
17959SOL    HW259008   7.056   3.418   4.236  0.6729  1.2126 -1.3021
17960SOL     OW59009   0.442   7.227   8.879 -0.2931 -0.2017 -0.1677
17960SOL    HW159010   0.407   7.231   8.968 -0.9845 -0.1413 -0.4361
17960SOL    HW259011   0.433   7.135   8.854 -0.5498 -0.1301 -0.3468
17961SOL     OW59012   8.563   8.773   0.133 -0.3582 -0.2793  0.0815
17961SOL    HW159013   8.489   8.712   0.126 -0.9539  0.2347  1.6539
17961SOL    HW259014   8.628   8.726   0.186  0.1254 -0.4304 -0.6425
17962SOL     OW59015   5.035  10.963   8.644 -0.2017 -0.3235  0.1530
17962SOL    HW159016   5.054  10.950   8.551  0.7477 -0.3182  0.3483
17962SOL    HW259017   5.111  11.009   8.679 -1.3547  1.3453  0.5458
17963SOL     OW59018   8.418   4.762   8.394  0.1695 -0.2018  0.5753
17963SOL    HW159019   8.461   4.719   8.468  0.2286  1.1203  1.3385
17963SOL    HW259020   8.340   4.803   8.432 -0.1022  0.0216 -0.2056
17964SOL     OW59021   0.130   5.268   3.049  0.1189  0.6682 -0.0931
17964SOL    HW159022   0.116   5.343   2.992  1.2158  0.6050 -0.4503
17964SOL    HW259023   0.068   5.202   3.018 -0.4729  1.2303 -0.1145
17965SOL     OW59024   4.962  10.528  11.263  0.4079 -0.2005 -0.4458
17965SOL    HW159025   4.922  10.585  11.196  0.8244 -0.6161 -1.0535
17965SOL    HW259026   4.976  10.445  11.218 -0.7818 -0.9950  0.6273
17966SOL     OW59027   0.059   8.942   2.427  0.3782 -0.0686  0.5036
17966SOL    HW159028   0.047   9.031   2.460  1.2679 -1.1979  4.0743
17966SOL    HW259029   0.127   8.950   2.360  0.1834  1.9663  0.5198
17967SOL     OW59030   1.936   5.605   8.422  0.1485 -0.0655  0.0090
17967SOL    HW159031   1.940   5.568   8.334  0.5369  1.6404 -0.6886
17967SOL    HW259032   1.929   5.699   8.409  2.4807  0.3917  1.8270
17968SOL     OW59033   1.552   1.196   2.542 -0.1247  0.9845 -0.1517
17968SOL    HW159034   1.568   1.107   2.512 -1.7057  0.2169  1.2290
17968SOL    HW259035   1.545   1.189   2.637 -1.6815  2.3457 -0.1491
17969SOL     OW59036  11.257   6.329   0.772  0.4350  0.4347  0.0059
17969SOL    HW159037  11.350   6.347   0.758  0.6541  0.8264  1.7997
17969SOL    HW259038  11.232   6.386   0.845 -0.3183 -2.2517  1.9429
17970SOL     OW59039   0.827   6.490   4.207 -0.4319 -0.0687  0.2963
17970SOL    HW159040   0.790   6.527   4.127  0.5967  0.7772  0.1971
17970SOL    HW259041   0.899   6.435   4.177 -0.0587  0.2300  0.6265
17971SOL     OW59042   9.548   9.273   0.988 -0.4792  0.1142  0.2514
17971SOL    HW159043   9.549   9.197   0.929  0.7442 -0.2734  0.7403
17971SOL    HW259044   9.542   9.235   1.076  2.8199  0.4126  0.6714
17972SOL     OW59045   4.216  10.012   9.429 -0.6226  0.8458 -0.2478
17972SOL    HW159046   4.270  10.084   9.396  0.2560  0.0755 -0.5144
17972SOL    HW259047   4.169  10.050   9.503 -0.3144  1.7534 -0.5092
17973SOL     OW59048   6.478  11.158   0.376 -0.1051 -0.1590 -0.3749
17973SOL    HW159049   6.402  11.103   0.398 -0.1341  0.3752  0.8666
17973SOL    HW259050   6.510  11.189   0.460  1.8870 -0.8857 -0.8428
17974SOL     OW59051  10.015   3.390   9.077  0.1569 -0.1177  0.0568
17974SOL    HW159052  10.032   3.364   8.986 -0.3613  2.2495 -0.7448
17974SOL    HW259053   9.926   3.358   9.094 -0.0352  0.0881 -0.5264
17975SOL     OW59054   9.985   6.164   1.753  0.5640 -0.5597  0.3420
17975SOL    HW159055  10.033   6.086   1.781  1.5668  0.0839  0.4437
17975SOL    HW259056  10.050   6.234   1.756 -0.2635  0.2285 -0.0051
17976SOL     OW59057   3.860   0.775   9.536 -1.1561  0.4560  0.4521
17976SOL    HW159058   3.806   0.766   9.457 -0.0153 -1.1376 -0.1687
17976SOL    HW259059   3.828   0.705   9.594 -1.0070  0.6905  0.8183
17977SOL     OW59060   5.195   3.722   5.683 -0.1108  0.0866  0.4264
17977SOL    HW159061   5.226   3.701   5.594 -0.9491 -0.4622  0.2562
17977SOL    HW259062   5.251   3.669   5.740 -0.0354 -0.0946  0.1872
17978SOL     OW59063   8.364   1.099   3.950 -0.6335  0.5092  0.0064
17978SOL    HW159064   8.426   1.093   3.877 -1.9999 -1.7122 -1.0143
17978SOL    HW259065   8.296   1.158   3.918  0.0697  1.6278  0.5121
17979SOL     OW59066   3.871   8.861   3.899 -0.5248  0.2758 -0.8797
17979SOL    HW159067   3.878   8.955   3.879 -0.8913  0.2256 -1.2638
17979SOL    HW259068   3.797   8.856   3.960  0.7386  0.4583  0.6948
17980SOL     OW59069   6.607   3.500   7.143 -0.2466  0.5197  0.0597
17980SOL    HW159070   6.693   3.458   7.149 -0.6449 -0.3126  0.1128
17980SOL    HW259071   6.613   3.576   7.200  1.6908  2.6873 -2.8720
17981SOL     OW59072   6.668   4.702   3.937  0.3837  0.0036 -0.3079
17981SOL    HW159073   6.634   4.776   3.987 -0.0317  0.6381 -1.5261
17981SOL    HW259074   6.744   4.737   3.891  0.0646 -0.2838 -1.0510
17982SOL     OW59075  11.147   5.530   1.508 -0.4825 -0.1409 -0.3048
17982SOL    HW159076  11.192   5.550   1.590  1.1698  0.9119 -1.4399
17982SOL    HW259077  11.081   5.598   1.500  1.5488  1.7827 -1.4547
17983SOL     OW59078   2.420   0.969   7.882 -0.6605  0.7071 -0.0825
17983SOL    HW159079   2.405   1.028   7.809 -2.1931  0.7829  0.2699
17983SOL    HW259080   2.402   1.021   7.960 -1.8967 -0.1660  0.2355
17984SOL     OW59081   9.462   6.300   1.146  0.2795 -0.1325  0.2784
17984SOL    HW159082   9.422   6.382   1.119  1.0906  0.4761  0.8996
17984SOL    HW259083   9.388   6.248   1.181 -0.0013  0.9430  1.3299
17985SOL     OW59084   4.370   1.387   5.385  0.2966 -0.3714  0.4162
17985SOL    HW159085   4.406   1.306   5.349  2.4338  0.2017  1.1519
17985SOL    HW259086   4.360   1.370   5.478  0.1784  0.0044  0.4756
17986SOL     OW59087   5.389   7.087   0.663  0.2530  0.2537 -0.1131
17986SOL    HW159088   5.422   7.040   0.739  0.6409 -0.9102 -0.9837
17986SOL    HW259089   5.442   7.167   0.660 -0.2986  0.6781  1.2773
17987SOL     OW59090   6.186   2.367   8.120  0.0353  0.2754  0.3975
17987SOL    HW159091   6.209   2.442   8.065  0.5943 -0.5755 -0.5526
17987SOL    HW259092   6.130   2.404   8.188 -0.5175  1.4018 -0.6314
17988SOL     OW59093   4.928   9.437   1.148  0.1003 -0.0522 -0.2608
17988SOL    HW159094   4.845   9.475   1.176 -0.0082 -1.1202  0.8884
17988SOL    HW259095   4.906   9.386   1.071 -0.2660 -0.1087 -0.1211
17989SOL     OW59096   7.144   4.960   4.654 -0.0540 -0.1946  0.4279
17989SOL    HW159097   7.178   4.870   4.655  0.9735  0.1432 -1.6725
17989SOL    HW259098   7.146   4.987   4.745 -0.5221 -2.3536  1.1210
17990SOL     OW59099   6.850   6.226  10.074 -0.0290  0.0708 -0.1326
17990SOL    HW159100   6.771   6.230  10.128  0.9800 -1.7752  1.5716
17990SOL    HW259101   6.922   6.237  10.137  1.1278 -0.4649 -1.3294
17991SOL     OW59102   0.752   6.386   7.875 -0.3713 -0.0569 -0.0334
17991SOL    HW159103   0.658   6.374   7.863 -0.2220 -1.6546  0.2597
17991SOL    HW259104   0.759   6.456   7.940 -1.3446  0.2991 -0.2963
17992SOL     OW59105   9.168  11.186   3.250  0.0809  0.4995  0.6310
17992SOL    HW159106   9.077  11.215   3.250 -0.2322 -0.4036  2.3708
17992SOL    HW259107   9.189  11.172   3.158 -1.6892  0.2477  0.2493
17993SOL     OW59108   8.708   3.983   1.098 -0.6643 -0.0757  0.3831
17993SOL    HW159109   8.743   3.946   1.017  2.3271  0.8095  1.1829
17993SOL    HW259110   8.626   4.025   1.073 -0.1603 -0.4619 -2.0252
17994SOL     OW59111   3.002   2.029   6.349  0.5190 -0.9017  0.4180
17994SOL    HW159112   2.973   1.938   6.343  0.4712 -0.8969  0.5989
17994SOL    HW259113   2.933   2.079   6.306  0.6316 -0.9678  0.1559
17995SOL     OW59114   1.413  10.676   9.930  0.4549 -0.0004 -0.4120
17995SOL    HW159115   1.415  10.770   9.910 -1.3982 -0.1099 -1.3201
17995SOL    HW259116   1.446  10.634   9.850 -2.7160 -0.2537 -1.6700
17996SOL     OW59117   9.748   6.563   5.490 -0.2366  0.5886 -0.2910
17996SOL    HW159118   9.784   6.497   5.431  0.9239  1.5183 -0.6576
17996SOL    HW259119   9.660   6.579   5.458 -0.2047 -0.1216 -0.7511
17997SOL     OW59120   1.374   5.236   7.900  0.9795  0.4888 -0.6910
17997SOL    HW159121   1.402   5.314   7.949 -1.2180  1.5349 -1.0599
17997SOL    HW259122   1.306   5.197   7.955  0.3701  0.1926 -1.6482
17998SOL     OW59123  10.112   6.199  10.593 -0.1476  0.9333  0.7685
17998SOL    HW159124  10.071   6.121  10.554  1.4329  1.0474 -1.1933
17998SOL    HW259125  10.185   6.220  10.535 -0.5295  3.9001  1.2669
17999SOL     OW59126   7.548   9.373   0.074 -0.3486 -0.2435  0.0857
17999SOL    HW159127   7.519   9.415  -0.007  0.2876 -1.0881 -0.5910
17999SOL    HW259128   7.469   9.367   0.128 -0.5782  1.2022 -0.0682
18000SOL     OW59129   4.948   0.807   2.728 -0.3404  0.3377  0.0462
18000SOL    HW159130   4.885   0.854   2.674  1.6282  1.1168 -1.6677
18000SOL    HW259131   5.008   0.875   2.759  0.7378 -0.6100  0.0989
18001SOL     OW59132   6.949   2.801  11.068  0.1896 -0.1229 -0.6454
18001SOL    HW159133   6.992   2.827  10.986 -1.2427 -0.7620 -1.6094
18001SOL    HW259134   6.856   2.797  11.046 -0.6711  3.4021  1.9599
18002SOL     OW59135   9.617   9.454   6.613 -0.2127  0.4790  0.3359
18002SOL    HW159136   9.615   9.367   6.651  0.4924 -0.0156 -0.7241
18002SOL    HW259137   9.642   9.440   6.521  1.2503  1.8938  0.4836
18003SOL     OW59138   5.870   3.016   2.764  0.9970 -0.1862 -0.0081
18003SOL    HW159139   5.819   2.948   2.720 -2.4125  0.9164  2.0315
18003SOL    HW259140   5.833   3.098   2.731  2.0174  0.6562  0.9171
18004SOL     OW59141   1.508  10.592   8.836  0.1864 -0.9198 -0.3836
18004SOL    HW159142   1.525  10.567   8.926  0.8483  1.0412  0.0544
18004SOL    HW259143   1.481  10.684   8.841 -0.8499 -1.1150 -2.0677
18005SOL     OW59144   2.486   2.675  10.734  0.1335  0.1347  0.0058
18005SOL    HW159145   2.443   2.594  10.763  0.0174 -0.6818 -2.3657
18005SOL    HW259146   2.457   2.741  10.797 -1.4399 -1.2281  0.7534
18006SOL     OW59147   3.316  11.173   9.863  0.0931 -0.1341  0.3157
18006SOL    HW159148   3.243  11.125   9.903 -1.3897  0.9344 -1.0390
18006SOL    HW259149   3.382  11.106   9.846 -1.2229 -1.4135  0.1140
18007SOL     OW59150  11.064   8.448   4.397  0.0716 -0.6227  0.1540
18007SOL    HW159151  10.984   8.396   4.405  0.4103 -0.8597  2.2112
18007SOL    HW259152  11.036   8.527   4.351 -0.8164 -1.8060 -1.3989
18008SOL     OW59153  10.710   5.822   0.088  0.4288 -0.4685 -0.0552
18008SOL    HW159154  10.767   5.747   0.066  2.8806  0.8703  1.4314
18008SOL    HW259155  10.732   5.841   0.179 -1.0799  1.3153 -0.0521
18009SOL     OW59156   6.331   1.532   2.530 -0.1248  0.2864  0.4232
18009SOL    HW159157   6.425   1.520   2.540 -0.3270 -2.3011 -0.2246
18009SOL    HW259158   6.294   1.503   2.613 -0.3966  0.1080  0.2445
18010SOL     OW59159   8.956   7.142   8.322  0.3682 -0.5399 -0.4770
18010SOL    HW159160   9.027   7.205   8.333  0.2886 -0.7075  1.0058
18010SOL    HW259161   9.000   7.063   8.290  0.9159 -0.7932  0.8890
18011SOL     OW59162   0.029   7.274  11.261 -0.3558  0.1500  0.2206
18011SOL    HW159163   0.102   7.213  11.268 -0.3435 -0.2254 -2.6606
18011SOL    HW259164   0.047   7.340  11.328  1.8151 -0.7584  0.5755
18012SOL     OW59165   9.937   9.385   8.946  0.4132  0.6068  0.2049
18012SOL    HW159166  10.001   9.456   8.951  1.0209  0.0558  0.3051
18012SOL    HW259167   9.990   9.306   8.936 -0.2230  0.0832  0.9565
18013SOL     OW59168   8.953   1.781   2.074 -0.3494 -0.2400 -0.5440
18013SOL    HW159169   9.038   1.813   2.043 -1.0757  1.2668 -1.0362
18013SOL    HW259170   8.910   1.746   1.997 -0.5217 -0.1922 -0.4701
18014SOL     OW59171   4.622   5.864   5.479  0.5247  0.1312 -0.6405
18014SOL    HW159172   4.559   5.914   5.531  0.3428  0.2204 -0.9397
18014SOL    HW259173   4.705   5.910   5.489  0.7449 -0.4844  0.4635
18015SOL     OW59174   4.284   5.788   5.369  0.1803  0.8720 -0.2770
18015SOL    HW159175   4.378   5.802   5.381  0.3649  0.7284 -1.4599
18015SOL    HW259176   4.265   5.708   5.418  0.8439  0.4662 -0.6726
18016SOL     OW59177   0.516   2.881   6.959 -0.1867 -0.1319  0.4713
18016SOL    HW159178   0.500   2.807   7.018 -0.6186  0.5550  1.2338
18016SOL    HW259179   0.452   2.870   6.889  0.5576 -1.1449 -0.0672
18017SOL     OW59180   3.951   2.736   5.697 -0.0268 -0.1548 -0.4871
18017SOL    HW159181   3.990   2.761   5.781  0.2397 -1.0548 -0.3368
18017SOL    HW259182   3.919   2.647   5.711 -0.3899 -0.1392 -1.2082
18018SOL     OW59183   3.130  11.144   3.300 -0.1126  0.0370  0.2042
18018SOL    HW159184   3.125  11.209   3.230  1.1638 -0.3242 -0.2472
18018SOL    HW259185   3.039  11.127   3.324 -0.4463  2.2099  0.5466
18019SOL     OW59186  11.129   2.681   4.126  0.0454 -0.3887 -0.1151
18019SOL    HW159187  11.123   2.631   4.208 -1.5456  0.9530  0.6107
18019SOL    HW259188  11.201   2.742   4.140 -1.3863  1.0720  0.9854
18020SOL     OW59189   3.430   2.598   1.671 -0.6721 -0.8090  0.1880
18020SOL    HW159190   3.373   2.540   1.722  0.8012 -0.4777  2.2814
18020SOL    HW259191   3.519   2.568   1.691  0.0450  1.1686  0.0705
18021SOL     OW59192   9.591   9.554   3.879 -0.3341 -0.2038  0.2725
18021SOL    HW159193   9.579   9.497   3.803  0.0720 -0.7797  0.6472
18021SOL    HW259194   9.501   9.576   3.907 -0.4842 -0.0122 -0.3531
18022SOL     OW59195   9.722   5.366   5.799  0.3967 -0.4085  0.1996
18022SOL    HW159196   9.698   5.414   5.720 -1.2673 -1.4570  0.0579
18022SOL    HW259197   9.803   5.320   5.774  0.5059  0.1499 -0.5224
18023SOL     OW59198   1.114   3.575  10.427  0.1424  0.6952  0.1928
18023SOL    HW159199   1.089   3.488  10.395 -1.0005  0.6669  1.1639
18023SOL    HW259200   1.034   3.626  10.423  0.5791  1.4132  0.6206
18024SOL     OW59201   9.426   1.409  10.877  0.3147  0.1469  0.0783
18024SOL    HW159202   9.426   1.468  10.952 -0.6621  1.0823 -0.6435
18024SOL    HW259203   9.402   1.464  10.803  0.2942 -0.9723 -0.7583
18025SOL     OW59204  10.190  10.508   8.948 -0.2260  0.4816  0.0320
18025SOL    HW159205  10.244  10.535   9.022 -0.4127  0.0060  0.3482
18025SOL    HW259206  10.164  10.589   8.905  1.3059  0.6859 -0.5266
18026SOL     OW59207   1.002   1.002   6.080  0.2205  0.1870 -0.3988
18026SOL    HW159208   1.074   0.941   6.084  0.5823  0.5313 -1.4382
18026SOL    HW259209   0.957   0.993   6.164  1.0900 -0.4842 -0.0083
18027SOL     OW59210   5.843   1.948   7.505  0.7732  0.3376 -0.2349
18027SOL    HW159211   5.823   1.855   7.493  0.3476  0.4836 -0.6715
18027SOL    HW259212   5.765   1.994   7.474  0.5842  0.8107  0.9015
18028SOL     OW59213   2.120   4.073   7.243  0.0017  0.3688 -0.0736
18028SOL    HW159214   2.170   4.147   7.277  0.4096  0.2421 -0.3942
18028SOL    HW259215   2.108   4.093   7.150  0.9718 -0.4470 -0.3732
18029SOL     OW59216   6.381   4.166   5.727  0.1810  0.1714  0.2032
18029SOL    HW159217   6.434   4.160   5.647  1.1063  0.2243  0.8093
18029SOL    HW259218   6.353   4.076   5.744 -1.0385  0.3262 -0.8495
18030SOL     OW59219   3.574   3.155   2.970  0.3374 -0.0805  0.8239
18030SOL    HW159220   3.497   3.160   2.914  0.6133 -0.2324  0.4339
18030SOL    HW259221   3.631   3.090   2.928  0.1830 -0.8093  1.7180
18031SOL     OW59222   8.730   2.826   0.882  0.7852  0.3286  0.2604
18031SOL    HW159223   8.731   2.760   0.951  0.9424 -1.0186 -0.9987
18031SOL    HW259224   8.638   2.838   0.860  0.8486 -0.5033 -0.4674
18032SOL     OW59225   8.627   5.882   8.602 -0.0082  0.1231 -0.0565
18032SOL    HW159226   8.694   5.839   8.654 -1.5329 -1.7731  0.3801
18032SOL    HW259227   8.558   5.903   8.664 -0.4170  0.8501 -0.7375
18033SOL     OW59228   1.554   6.501   9.571 -0.8920 -0.3288  0.5757
18033SOL    HW159229   1.622   6.560   9.602 -0.7394 -0.6981  0.9516
18033SOL    HW259230   1.536   6.530   9.481  0.5831 -0.9534  0.0529
18034SOL     OW59231   8.415  10.205   2.711  0.7891  0.6224  0.0704
18034SOL    HW159232   8.459  10.135   2.663 -0.6873 -0.9013  0.8850
18034SOL    HW259233   8.395  10.271   2.645  2.1440  0.2633 -0.7187
18035SOL     OW59234   6.142   5.091   5.135  0.1792  0.1724 -0.1077
18035SOL    HW159235   6.165   5.174   5.093 -0.6068  0.1997 -0.4778
18035SOL    HW259236   6.197   5.089   5.213  1.0186  0.5192 -0.6801
18036SOL     OW59237   6.196   2.183   3.810  0.8787  0.5885 -0.5794
18036SOL    HW159238   6.269   2.209   3.867 -0.0830  1.6740  0.1778
18036SOL    HW259239   6.169   2.097   3.843  1.2411  0.5792 -0.3022
18037SOL     OW59240   6.717   0.638   1.015  0.3666  0.1301  0.3701
18037SOL    HW159241   6.700   0.706   1.080 -0.1768 -0.8497  1.2687
18037SOL    HW259242   6.780   0.678   0.955 -0.7657  1.7992  0.2615
18038SOL     OW59243   2.039   8.264   0.373 -0.1548 -0.5257  0.0188
18038SOL    HW159244   2.000   8.184   0.408  1.6947 -1.8876 -0.9163
18038SOL    HW259245   2.130   8.262   0.404  0.1391  0.7762 -0.7222
18039SOL     OW59246   9.379   4.302   0.502 -0.0206  0.0474  0.2537
18039SOL    HW159247   9.332   4.385   0.497  0.0052  0.1865  2.0223
18039SOL    HW259248   9.320   4.244   0.550  0.4074 -0.6327 -0.0414
18040SOL     OW59249   6.352   6.292   1.072 -0.2144  0.9086 -0.2055
18040SOL    HW159250   6.425   6.231   1.067  1.1995  2.4348  1.2106
18040SOL    HW259251   6.362   6.349   0.996 -0.9637  0.0389 -0.9756
18041SOL     OW59252   6.950   6.654   5.668 -0.8141 -0.7648  0.0076
18041SOL    HW159253   6.942   6.743   5.635  0.2723 -0.1605  1.3349
18041SOL    HW259254   6.864   6.615   5.652 -0.9123  0.1116 -1.7263
18042SOL     OW59255  10.438  10.496   2.279 -0.2665  0.2655 -0.4535
18042SOL    HW159256  10.416  10.561   2.212 -1.3567 -1.5076 -1.8671
18042SOL    HW259257  10.522  10.459   2.250 -0.4711 -0.1218 -0.5543
18043SOL     OW59258   1.991   3.675   9.075  0.2149 -0.0096  0.2024
18043SOL    HW159259   1.975   3.604   9.012  1.2859  0.2486 -0.3784
18043SOL    HW259260   1.904   3.699   9.107 -0.3682 -0.0531 -1.3035
18044SOL     OW59261   8.046   0.517   5.052  0.1136  0.3068 -0.6885
18044SOL    HW159262   8.007   0.531   4.966 -0.0791  1.5870 -0.4009
18044SOL    HW259263   7.977   0.544   5.114 -0.5181 -2.5191 -0.0811
18045SOL     OW59264   6.581   8.271  11.217  0.3898 -0.1518 -0.0581
18045SOL    HW159265   6.659   8.220  11.197  0.6987  0.9738 -1.8287
18045SOL    HW259266   6.511   8.206  11.225  1.3544 -1.1031  0.8464
18046SOL     OW59267   7.997  10.401   3.077  0.5192 -0.3649  0.2152
18046SOL    HW159268   7.913  10.444   3.062 -0.5316 -2.2365  0.5230
18046SOL    HW259269   8.009  10.342   3.002  0.5966 -1.5426  1.1294
18047SOL     OW59270   7.433   6.783   9.712  0.0890 -0.2336 -0.1475
18047SOL    HW159271   7.512   6.801   9.662 -0.1509 -0.5601 -0.6459
18047SOL    HW259272   7.463   6.775   9.803  1.2156 -4.0558 -0.7620
18048SOL     OW59273   3.379   0.320   9.751  0.4453  0.1204  0.1856
18048SOL    HW159274   3.298   0.289   9.791  0.0222  0.6954 -0.2092
18048SOL    HW259275   3.444   0.254   9.772 -0.3748 -0.8753 -0.3847
18049SOL     OW59276  10.389   3.865  10.666  0.3987  0.1402 -0.5430
18049SOL    HW159277  10.360   3.933  10.728  0.2237 -0.5758  0.1716
18049SOL    HW259278  10.410   3.790  10.722 -2.5372 -1.5101 -1.5969
18050SOL     OW59279   9.311  11.259   6.237 -0.1165  0.2579  0.0958
18050SOL    HW159280   9.276  11.322   6.300 -0.1980 -1.6486  2.0312
18050SOL    HW259281   9.235  11.206   6.213  0.2995 -0.2604 -0.0792
18051SOL     OW59282  11.080  10.709   9.730 -0.2123  0.1198  0.7617
18051SOL    HW159283  11.076  10.642   9.662  0.8163  1.3007 -0.4804
18051SOL    HW259284  11.023  10.779   9.698 -1.6359 -0.3109  2.2619
18052SOL     OW59285   2.758   8.767   3.100 -0.7909  0.2108  0.3294
18052SOL    HW159286   2.806   8.841   3.137 -1.7172  1.2909 -0.5635
18052SOL    HW259287   2.790   8.691   3.147  0.9989  1.0490  0.5042
18053SOL     OW59288  10.971   2.887   1.082  0.5119  1.2933  0.2813
18053SOL    HW159289  11.029   2.811   1.088 -2.1089 -0.9073 -1.2671
18053SOL    HW259290  10.983   2.919   0.992 -1.7790 -0.1402 -0.5667
18054SOL     OW59291   2.469   5.285   2.771 -0.0275  0.2310 -0.0931
18054SOL    HW159292   2.383   5.246   2.790  0.0210  0.6950  1.1312
18054SOL    HW259293   2.448   5.373   2.738 -0.0113  0.5962  0.8494
18055SOL     OW59294  11.249   0.124   2.192 -0.5177 -0.2424 -0.2616
18055SOL    HW159295  11.214   0.052   2.245 -1.6005  0.0846 -0.5275
18055SOL    HW259296  11.326   0.154   2.241 -1.4523  0.0027  1.0804
18056SOL     OW59297  10.514   1.478   8.410  0.3550 -0.0701 -0.2344
18056SOL    HW159298  10.517   1.424   8.488  1.5701 -0.7754 -0.7425
18056SOL    HW259299  10.428   1.519   8.411 -0.4144 -1.6836  0.3842
18057SOL     OW59300   3.504   6.458   3.779 -0.0788  0.3337  0.4248
18057SOL    HW159301   3.577   6.519   3.772 -0.6498  1.2087  1.7352
18057SOL    HW259302   3.524   6.405   3.856  0.7366 -1.6106 -1.0840
18058SOL     OW59303   5.771   8.526  10.887 -0.0637  0.1179  0.3799
18058SOL    HW159304   5.731   8.538  10.801  1.0915  1.8621  0.0512
18058SOL    HW259305   5.705   8.557  10.949 -0.1890  0.6100  0.0020
18059SOL     OW59306   7.603   5.119  10.989  0.0451 -0.5988 -0.5846
18059SOL    HW159307   7.613   5.031  11.025 -1.9180 -1.2278 -1.5138
18059SOL    HW259308   7.656   5.118  10.909  1.2678 -0.4353  0.2160
18060SOL     OW59309  10.567   6.199   5.161  0.4715 -0.1654  0.1873
18060SOL    HW159310  10.484   6.196   5.210  0.1392  1.6822 -0.2187
18060SOL    HW259311  10.547   6.160   5.077 -0.4248  1.6830 -0.4838
18061SOL     OW59312   5.376   5.570  10.553 -0.2719  0.6287 -0.6518
18061SOL    HW159313   5.323   5.634  10.506 -0.2305  2.2005  1.3650
18061SOL    HW259314   5.365   5.593  10.645  1.8880 -0.5962 -0.0536
18062SOL     OW59315   2.551   4.437   2.211 -0.5018  0.6633  0.4996
18062SOL    HW159316   2.575   4.380   2.284  0.3710  0.1228 -0.1848
18062SOL    HW259317   2.625   4.497   2.202  0.1811 -0.3666 -1.0000
18063SOL     OW59318   4.890   4.141   9.329  0.1302 -0.1367 -0.6762
18063SOL    HW159319   4.875   4.206   9.397  0.2566 -1.3663  0.5575
18063SOL    HW259320   4.980   4.112   9.343  0.6377  0.6067 -2.2694
18064SOL     OW59321  10.254  10.235   1.541 -0.3657 -0.3829 -0.3999
18064SOL    HW159322  10.206  10.206   1.619  0.7611 -0.9215  0.1016
18064SOL    HW259323  10.233  10.169   1.474 -0.0337 -0.8158 -0.0756
18065SOL     OW59324   5.364   9.249   5.999 -0.2577 -0.4417 -0.4272
18065SOL    HW159325   5.427   9.209   6.059  0.1896  0.1437 -0.4981
18065SOL    HW259326   5.286   9.263   6.051 -0.9301 -2.7314 -0.7633
18066SOL     OW59327   1.126  10.073   9.857 -0.5286  0.3695  0.4895
18066SOL    HW159328   1.078  10.055   9.775  1.5026  1.2245 -0.9324
18066SOL    HW259329   1.092  10.157   9.886 -0.4119  0.6449 -0.1465
18067SOL     OW59330   2.566   1.416   0.434 -0.2110  0.0383 -0.2882
18067SOL    HW159331   2.491   1.366   0.467  0.0724 -0.6344 -0.6751
18067SOL    HW259332   2.636   1.397   0.496 -0.6240  1.4608  0.6554
18068SOL     OW59333   1.024   1.497   1.789  0.3698  0.0629  0.6253
18068SOL    HW159334   1.093   1.486   1.723  0.0717 -1.6206  0.5838
18068SOL    HW259335   1.068   1.541   1.862  1.2469 -0.1000  0.2051
18069SOL     OW59336   2.296   7.804   2.121 -0.2748  0.6065 -0.2638
18069SOL    HW159337   2.389   7.791   2.103 -0.5549 -2.5322  0.2293
18069SOL    HW259338   2.261   7.845   2.042  1.3814  1.1940 -0.7122
18070SOL     OW59339   6.245   3.266   7.712 -0.0837  0.5139  0.5547
18070SOL    HW159340   6.211   3.202   7.650  1.5207  1.0272 -0.8695
18070SOL    HW259341   6.185   3.341   7.705 -0.6773  0.0466  0.6140
18071SOL     OW59342  10.912  10.838   7.326 -0.5203 -0.2969  0.4969
18071SOL    HW159343  10.955  10.915   7.362 -1.5551  0.5829 -0.1046
18071SOL    HW259344  10.843  10.873   7.270 -1.5057 -1.6671  0.8203
18072SOL     OW59345   1.028   2.522   1.094 -0.3428  0.3272  0.0491
18072SOL    HW159346   1.089   2.579   1.047 -0.1672  0.3735  0.3321
18072SOL    HW259347   0.958   2.580   1.123 -1.4337 -0.0387 -1.8319
18073SOL     OW59348   4.865   5.047   0.799 -0.1382  0.4419  0.2098
18073SOL    HW159349   4.936   4.989   0.770 -1.2649 -0.8565 -0.0164
18073SOL    HW259350   4.841   5.097   0.721  0.5263  0.8838  0.2870
18074SOL     OW59351   2.652   4.905   9.773  0.1904  0.5698  0.2847
18074SOL    HW159352   2.688   4.908   9.684  0.1473  0.6800  0.2714
18074SOL    HW259353   2.715   4.852   9.822 -0.2739 -0.2849 -0.0352
18075SOL     OW59354   8.562   5.945   6.430 -0.1897  0.1342 -0.5478
18075SOL    HW159355   8.641   5.997   6.417  0.6752 -1.1196 -0.2889
18075SOL    HW259356   8.557   5.930   6.524 -0.8762  0.4227 -0.5316
18076SOL     OW59357   7.490  10.296   9.557  0.1427 -0.8183 -0.1578
18076SOL    HW159358   7.473  10.204   9.577  0.7794 -0.9150 -0.0475
18076SOL    HW259359   7.409  10.328   9.518  0.0447 -1.5150 -0.5207
18077SOL     OW59360   0.468   5.102   8.405 -0.8553 -0.4350 -0.1812
18077SOL    HW159361   0.410   5.125   8.478 -0.8602  1.5950 -0.7737
18077SOL    HW259362   0.413   5.107   8.328  0.2269  2.3708 -0.8492
18078SOL     OW59363   3.336   6.771   4.358 -0.5529 -0.4476  0.9921
18078SOL    HW159364   3.292   6.769   4.443  1.1189 -1.3019  1.8645
18078SOL    HW259365   3.351   6.864   4.341  2.5192 -0.4225  3.4843
18079SOL     OW59366   0.940  10.884   0.610  0.1395 -0.1775 -0.3884
18079SOL    HW159367   0.887  10.939   0.552  2.2276  2.5748  0.1761
18079SOL    HW259368   0.887  10.874   0.689 -0.3817  0.9365 -0.5839
18080SOL     OW59369   1.218  10.846   9.618 -0.1720  0.0339 -0.3903
18080SOL    HW159370   1.165  10.809   9.547 -1.4495  2.8347 -0.9616
18080SOL    HW259371   1.292  10.887   9.573  0.8548 -1.1748  0.1810
18081SOL     OW59372   4.345   0.076   5.134  0.4935 -0.2683  0.3132
18081SOL    HW159373   4.430   0.091   5.175  0.0692  0.7909  0.8217
18081SOL    HW259374   4.281   0.112   5.196 -0.4698 -2.6722  0.7808
18082SOL     OW59375   7.709   2.877   1.461  0.0692  0.0186 -0.4065
18082SOL    HW159376   7.725   2.939   1.390 -1.3390  0.9814  0.1071
18082SOL    HW259377   7.682   2.931   1.535  0.3269 -1.0844  0.5023
18083SOL     OW59378   2.007  11.302   6.229  0.6932  0.9329 -0.0678
18083SOL    HW159379   1.977  11.218   6.265 -1.9912  1.6491 -0.4877
18083SOL    HW259380   2.019  11.358   6.305 -0.8850  1.1734  0.0311
18084SOL     OW59381   5.869   7.661   9.179 -0.4132  0.5143 -0.3800
18084SOL    HW159382   5.813   7.666   9.256  2.0456  2.2416  1.4034
18084SOL    HW259383   5.900   7.751   9.166  0.9508 -0.1538 -2.0174
18085SOL     OW59384   8.267   6.653   6.240  0.4547 -0.3411  0.2152
18085SOL    HW159385   8.173   6.642   6.224  0.5370 -1.9657  0.7643
18085SOL    HW259386   8.294   6.571   6.282  1.9843  0.3851  0.6780
18086SOL     OW59387   6.365   0.159  10.944 -0.2180 -0.1497 -0.2267
18086SOL    HW159388   6.403   0.223  11.005 -0.2039  0.8905 -1.3050
18086SOL    HW259389   6.433   0.092  10.934  0.7738  0.9573 -1.0197
18087SOL     OW59390   3.072   7.944   8.626 -0.9373 -0.1668 -0.4431
18087SOL    HW159391   3.084   7.984   8.712  0.1568  1.6558 -1.4202
18087SOL    HW259392   3.061   8.018   8.566 -1.6288 -1.4113 -1.8865
18088SOL     OW59393   5.673   2.284  10.350  0.4572  0.0468  0.1462
18088SOL    HW159394   5.763   2.287  10.384  0.2227 -1.2376  0.9461
18088SOL    HW259395   5.658   2.371  10.313  1.3121  0.9408  1.8457
18089SOL     OW59396   1.805   3.109   1.875 -0.2103  0.4773  0.2518
18089SOL    HW159397   1.896   3.133   1.858  0.0163 -0.8579 -0.4713
18089SOL    HW259398   1.800   3.016   1.853 -2.3767  1.1350 -2.2009
18090SOL     OW59399   1.542   8.367   4.577 -0.4533 -0.0575 -0.6775
18090SOL    HW159400   1.484   8.292   4.595 -1.2623  0.5520 -0.7167
18090SOL    HW259401   1.564   8.401   4.664  1.8651 -1.7937 -0.5501
18091SOL     OW59402  10.491   1.866   5.928  0.6358  0.0908 -0.4366
18091SOL    HW159403  10.556   1.849   5.996  1.8670  0.8523 -1.4086
18091SOL    HW259404  10.518   1.810   5.855  1.2530  1.7417 -1.4898
18092SOL     OW59405   9.230   8.430   2.324  0.0411 -0.3883  0.0607
18092SOL    HW159406   9.154   8.389   2.366  0.0434 -0.4037  0.0513
18092SOL    HW259407   9.294   8.439   2.394 -0.4509  0.8338  0.3596
18093SOL     OW59408   7.602   5.097   0.610 -0.3079  0.0885  0.6316
18093SOL    HW159409   7.610   5.003   0.592  0.7815  0.2504  0.1996
18093SOL    HW259410   7.686   5.133   0.582 -0.2763  1.0190  1.9017
18094SOL     OW59411   5.545   3.899   4.536  0.0131 -0.3504  0.5386
18094SOL    HW159412   5.562   3.811   4.570 -1.1111 -0.8870 -0.2569
18094SOL    HW259413   5.449   3.905   4.533  0.0750 -0.2457 -2.3054
18095SOL     OW59414   6.629   7.513   4.824 -0.1759  0.2690 -0.3572
18095SOL    HW159415   6.647   7.550   4.738  2.4706  0.4928  0.2624
18095SOL    HW259416   6.661   7.423   4.819  1.2961  0.7069  0.8163
18096SOL     OW59417   0.044   2.244  10.310 -0.2880 -0.3318 -0.0806
18096SOL    HW159418   0.047   2.338  10.289 -0.9584 -0.4765 -0.8464
18096SOL    HW259419  -0.026   2.209  10.254  0.5644 -1.4548 -0.4659
18097SOL     OW59420   7.493   7.758   9.695 -0.6316 -0.0371 -0.3390
18097SOL    HW159421   7.500   7.691   9.762 -1.6235  0.6602  0.4641
18097SOL    HW259422   7.582   7.793   9.687 -0.8080  0.9819  1.7761
18098SOL     OW59423  10.792   8.027   6.756  0.8102 -1.1931 -0.0486
18098SOL    HW159424  10.822   8.058   6.842  2.0706 -1.5585 -0.3489
18098SOL    HW259425  10.819   8.096   6.695  1.2528 -1.6308 -0.3520
18099SOL     OW59426   2.150   0.817   6.435 -0.5064 -0.0224  0.3755
18099SOL    HW159427   2.187   0.905   6.438 -0.7183  0.0756  0.1166
18099SOL    HW259428   2.221   0.761   6.405 -0.7412  0.2520 -0.6849
18100SOL     OW59429   7.718   8.941   4.927 -0.1792  0.7467  0.4288
18100SOL    HW159430   7.648   8.885   4.960  0.8007 -0.7146  0.0854
18100SOL    HW259431   7.734   9.004   4.997 -1.2106  0.5351  0.8624
18101SOL     OW59432   0.892   4.650   2.046 -0.6708  0.3849  0.6792
18101SOL    HW159433   0.913   4.564   2.010 -1.8610  0.3479  0.0513
18101SOL    HW259434   0.954   4.662   2.117  1.9331  0.6106 -1.5800
18102SOL     OW59435   0.636   5.708  11.075  0.5105  0.1897 -0.1467
18102SOL    HW159436   0.576   5.744  11.141  1.6167 -0.2057  1.0911
18102SOL    HW259437   0.594   5.627  11.046  0.3933 -0.0242  0.6243
18103SOL     OW59438   7.638   7.556   3.691  0.1372  0.5399 -0.0910
18103SOL    HW159439   7.685   7.590   3.767  2.5215 -0.2783 -1.1239
18103SOL    HW259440   7.673   7.467   3.679  0.4867  0.9665 -2.6327
18104SOL     OW59441   8.838   4.811  11.220  0.5639 -0.4506  0.1354
18104SOL    HW159442   8.778   4.786  11.290  0.1737  0.5298  0.1495
18104SOL    HW259443   8.866   4.727  11.182  0.2155 -0.9563  0.9813
18105SOL     OW59444   0.458   6.672   2.477 -0.1588 -0.2695 -0.0018
18105SOL    HW159445   0.506   6.729   2.416  0.0374 -1.3719 -0.8950
18105SOL    HW259446   0.527   6.627   2.526 -0.2993 -0.6260 -0.1344
18106SOL     OW59447   3.668  10.087  10.615  0.1986  0.1057 -0.4757
18106SOL    HW159448   3.710  10.145  10.678  1.0841 -1.1187  0.0822
18106SOL    HW259449   3.641  10.011  10.667 -1.6683  0.3591 -1.0413
18107SOL     OW59450   0.071   3.163   8.822  0.1163 -0.0324  0.3936
18107SOL    HW159451   0.089   3.153   8.728 -1.1330 -0.0220  0.1496
18107SOL    HW259452   0.128   3.235   8.849  1.7495 -1.1557  0.0210
18108SOL     OW59453   2.216   9.216   4.059 -0.1041 -0.1227 -0.6734
18108SOL    HW159454   2.201   9.184   4.149 -0.0038 -1.2897 -1.0591
18108SOL    HW259455   2.311   9.219   4.051 -0.1149  0.5050 -0.5624
18109SOL     OW59456   8.865   3.798   5.798  0.0911 -0.7329 -0.0300
18109SOL    HW159457   8.774   3.769   5.798  0.4647 -1.9866 -1.1305
18109SOL    HW259458   8.906   3.751   5.871 -0.0452 -0.4902  0.2026
18110SOL     OW59459   5.212   3.060  11.265 -0.0492 -0.0934 -0.3865
18110SOL    HW159460   5.249   3.144  11.240  1.7735 -0.6010  0.5312
18110SOL    HW259461   5.286   2.999  11.263 -0.7966 -1.1169  1.5752
18111SOL     OW59462   3.578  10.794   5.290  0.2324 -0.5424 -0.2257
18111SOL    HW159463   3.511  10.725   5.286  0.6361 -0.9425 -0.0357
18111SOL    HW259464   3.573  10.828   5.379  0.0274 -0.3134 -0.3214
18112SOL     OW59465   3.712   9.134   8.673 -0.1103 -0.3882 -0.0088
18112SOL    HW159466   3.628   9.155   8.714 -0.1498 -1.5719  0.5379
18112SOL    HW259467   3.767   9.211   8.690 -0.9806  0.2597 -0.0936
18113SOL     OW59468   0.531   0.544   2.066  0.2029  0.3411  0.1101
18113SOL    HW159469   0.502   0.555   1.976  0.9151 -0.6241 -0.2577
18113SOL    HW259470   0.465   0.588   2.119 -1.1371 -0.5624 -0.7759
18114SOL     OW59471   9.772   5.939   1.201 -0.0321 -0.0862  0.3251
18114SOL    HW159472   9.770   6.034   1.192  1.1198 -0.1668 -0.8744
18114SOL    HW259473   9.694   5.919   1.253  0.8585  1.6798  2.4098
18115SOL     OW59474   2.265   1.684   8.226  0.2253  0.8433 -0.4943
18115SOL    HW159475   2.331   1.754   8.228 -0.4585  1.4711  1.3633
18115SOL    HW259476   2.307   1.609   8.267 -0.3723  1.4118  1.1976
18116SOL     OW59477   6.091   1.656   3.431 -0.7437  0.7753 -0.4755
18116SOL    HW159478   6.152   1.652   3.505 -1.6082 -0.3851  0.1773
18116SOL    HW259479   6.005   1.640   3.469 -1.4671  2.3388 -1.4131
18117SOL     OW59480   1.200   5.421   5.902  0.2610 -0.1394 -0.0787
18117SOL    HW159481   1.148   5.449   5.826  0.2090  1.0636  0.3897
18117SOL    HW259482   1.184   5.488   5.967  1.6512 -0.2841  0.4171
18118SOL     OW59483   9.030   4.584   2.581  0.2737  0.5069 -0.1161
18118SOL    HW159484   8.950   4.635   2.585 -0.8731 -1.3086  0.6383
18118SOL    HW259485   9.062   4.582   2.672 -0.1942 -0.8750  0.0334
18119SOL     OW59486   7.486   3.342   5.548  0.3362  0.3727 -0.0335
18119SOL    HW159487   7.406   3.349   5.600 -0.7236 -0.0950 -1.5705
18119SOL    HW259488   7.470   3.268   5.490  1.8175  0.3951 -0.4767
18120SOL     OW59489   6.377   1.708   8.624 -0.2148  0.2947 -0.0464
18120SOL    HW159490   6.290   1.683   8.592  0.5523  0.0377 -2.0062
18120SOL    HW259491   6.378   1.804   8.617 -0.9553  0.4614  1.6925
18121SOL     OW59492   2.629   9.352   1.586  0.8924  0.7617 -0.2423
18121SOL    HW159493   2.685   9.287   1.629  1.0499  1.1144  0.0911
18121SOL    HW259494   2.635   9.429   1.642  0.2198  0.8618 -0.3069
18122SOL     OW59495   9.044   6.510  11.195  0.1920  0.3466 -0.3529
18122SOL    HW159496   9.037   6.511  11.099  2.1139 -0.0751 -0.5251
18122SOL    HW259497   8.970   6.457  11.224 -0.6642  0.8404 -1.5758
18123SOL     OW59498   9.086   5.289   9.895  0.1748  0.2530  0.0734
18123SOL    HW159499   9.132   5.205   9.906 -1.0787 -0.4061  0.3639
18123SOL    HW259500   9.091   5.307   9.801  1.3216  0.3730  0.1451
18124SOL     OW59501   9.084   3.382   8.082  0.1605  0.2782  1.1848
18124SOL    HW159502   9.158   3.434   8.049  0.9605 -2.5025 -1.6596
18124SOL    HW259503   9.011   3.406   8.025  0.2384 -0.8200  0.6163
18125SOL     OW59504   1.998   3.746  10.221 -0.3374  0.5012  0.0419
18125SOL    HW159505   2.064   3.779  10.159  0.6304 -1.4973 -0.0415
18125SOL    HW259506   1.920   3.733  10.168  0.4602 -1.1045 -0.7749
18126SOL     OW59507   0.709   4.076   5.914  0.3982 -0.2904 -0.1028
18126SOL    HW159508   0.616   4.099   5.908  0.5364  0.2248 -0.2730
18126SOL    HW259509   0.720   4.007   5.848 -0.2407 -1.5885  1.1223
18127SOL     OW59510   7.856   0.563   1.663  0.3070 -0.3217 -0.1563
18127SOL    HW159511   7.888   0.554   1.573  0.4476 -1.1476 -0.0251
18127SOL    HW259512   7.915   0.509   1.715  0.0795 -0.0341  0.4010
18128SOL     OW59513   4.078   4.379  11.311  0.1657  0.0467 -0.2579
18128SOL    HW159514   4.143   4.391  11.380 -0.3771  0.7348  0.1461
18128SOL    HW259515   4.021   4.456  11.318 -1.6983 -1.3627  0.5165
18129SOL     OW59516   1.266   2.431   4.476 -0.1483  0.2964 -0.3728
18129SOL    HW159517   1.253   2.522   4.449 -0.9338  0.9777  2.2301
18129SOL    HW259518   1.206   2.418   4.548  1.0414 -1.8523  0.2750
18130SOL     OW59519   6.420   6.273   7.403  0.4775  0.5243 -0.4294
18130SOL    HW159520   6.371   6.335   7.457  0.8352 -0.7109  1.3422
18130SOL    HW259521   6.362   6.256   7.328 -0.6600  1.1226  0.2985
18131SOL     OW59522   1.786   7.006   0.011  0.5651  0.1548  0.0995
18131SOL    HW159523   1.736   6.967  -0.061 -0.3905 -1.5063  1.6019
18131SOL    HW259524   1.876   6.978  -0.004 -0.1975 -3.3797  1.5257
18132SOL     OW59525   5.700   5.445   5.772  0.0269  0.3077  0.2186
18132SOL    HW159526   5.722   5.500   5.697  0.7897  0.4497  0.5345
18132SOL    HW259527   5.704   5.505   5.847 -2.7800  0.6414  0.1558
18133SOL     OW59528   9.582   8.647   7.684  0.5232 -0.1015  0.1088
18133SOL    HW159529   9.604   8.626   7.775 -1.2049  2.5309  1.1992
18133SOL    HW259530   9.642   8.718   7.661  0.5776 -0.3792 -0.6212
18134SOL     OW59531   1.048   9.195   1.075  0.6275  0.1706  0.0799
18134SOL    HW159532   0.995   9.187   0.995  0.8721 -1.3290  0.0664
18134SOL    HW259533   1.138   9.198   1.043  0.6107  2.0782  0.1482
18135SOL     OW59534   0.334   1.306   5.780  0.0296  0.3681 -0.2536
18135SOL    HW159535   0.269   1.317   5.711  2.1597  1.9737 -2.0608
18135SOL    HW259536   0.372   1.393   5.791  0.4353 -0.0985  2.2585
18136SOL     OW59537  10.392   9.979   3.769 -0.3330 -0.4595  0.2109
18136SOL    HW159538  10.310  10.023   3.792 -0.9774 -1.0454 -0.9425
18136SOL    HW259539  10.388   9.894   3.813 -0.2593 -0.4238  0.2881
18137SOL     OW59540   3.596   1.863   5.562 -0.4872 -0.1470 -0.5328
18137SOL    HW159541   3.665   1.909   5.610 -0.2632 -0.0203 -0.9804
18137SOL    HW259542   3.611   1.770   5.583  0.1141 -0.1609 -1.0213
18138SOL     OW59543   2.673   9.174   2.742 -0.4201 -0.1308  0.4384
18138SOL    HW159544   2.588   9.138   2.716 -1.1326 -0.4905  3.1192
18138SOL    HW259545   2.680   9.256   2.693 -0.3150 -2.1472 -3.1036
18139SOL     OW59546   8.281   9.772   2.426  0.2702 -0.0252 -0.1673
18139SOL    HW159547   8.297   9.682   2.455  0.6306  0.1456  0.1734
18139SOL    HW259548   8.204   9.799   2.475  0.4579  0.0197  0.1062
18140SOL     OW59549   9.110  10.827   6.963 -0.1778 -0.1198 -0.0084
18140SOL    HW159550   9.023  10.796   6.939 -0.6911  2.1236 -1.1767
18140SOL    HW259551   9.095  10.896   7.026  0.9102 -1.5659  1.8876
18141SOL     OW59552   3.314   7.150   0.144 -0.1719  0.6327 -0.0262
18141SOL    HW159553   3.337   7.220   0.205 -0.2205  1.6316 -1.1239
18141SOL    HW259554   3.397   7.109   0.121  0.0815  1.5078 -0.7457
18142SOL     OW59555   5.041   7.175   2.740 -0.1326  0.0107  0.2756
18142SOL    HW159556   4.981   7.213   2.804 -0.1229  0.5716 -0.0497
18142SOL    HW259557   4.989   7.107   2.696 -0.6708  0.7947 -0.3104
18143SOL     OW59558   5.921   2.708   9.133 -0.3001  0.0047  0.3396
18143SOL    HW159559   5.985   2.777   9.151  0.1482 -0.6152  1.1685
18143SOL    HW259560   5.964   2.628   9.163 -1.4343 -0.4293  0.8168
18144SOL     OW59561   1.423  10.384  10.026  0.5891  0.4153 -0.4016
18144SOL    HW159562   1.392  10.331   9.953  0.4735  3.1779 -2.4360
18144SOL    HW259563   1.419  10.474   9.994  2.6077  1.5312  2.2545
18145SOL     OW59564   1.934  10.649   4.070  0.0559  0.0913 -0.3836
18145SOL    HW159565   1.896  10.694   4.146 -0.6486 -1.3764  0.1612
18145SOL    HW259566   1.985  10.717   4.025 -0.2914  1.2170  0.8680
18146SOL     OW59567   9.079   1.189   8.640  0.3735 -0.2028 -0.1890
18146SOL    HW159568   9.048   1.147   8.720 -1.6815  1.5062 -0.0552
18146SOL    HW259569   9.008   1.177   8.577  0.7468  1.0282 -0.8619
18147SOL     OW59570   4.249   3.658   5.831  0.3937 -0.0040  0.3338
18147SOL    HW159571   4.227   3.726   5.895  1.4560  1.8419 -1.2148
18147SOL    HW259572   4.337   3.681   5.801  0.2990 -1.4064 -1.0935
18148SOL     OW59573   2.358   9.941   1.023  0.2788 -0.1264 -0.3724
18148SOL    HW159574   2.426  10.008   1.028  0.1303 -0.0023  0.0094
18148SOL    HW259575   2.406   9.858   1.014  0.5033 -0.1239  0.7495
18149SOL     OW59576   6.341   6.266   8.321 -0.2272  0.2727 -0.2780
18149SOL    HW159577   6.312   6.357   8.323 -0.2463  0.2468  1.1810
18149SOL    HW259578   6.421   6.268   8.268  0.0047  1.2027  0.0976
18150SOL     OW59579   6.108   1.062   1.192 -0.6512  0.0151  0.2133
18150SOL    HW159580   6.119   1.086   1.100 -3.9644  3.0276  0.4928
18150SOL    HW259581   6.078   0.971   1.190  0.9581 -0.5098 -1.5524
18151SOL     OW59582   8.760   9.215   4.508 -0.2348  0.3761  0.1548
18151SOL    HW159583   8.839   9.162   4.518  0.5765  1.7076  0.9523
18151SOL    HW259584   8.705   9.191   4.582 -0.5400 -0.4662 -0.3376
18152SOL     OW59585   0.546   2.518   3.697 -0.0741  0.1846  0.0107
18152SOL    HW159586   0.534   2.504   3.791  0.1977 -0.8941 -0.1062
18152SOL    HW259587   0.477   2.465   3.657  0.3772 -0.0691 -0.4241
18153SOL     OW59588   4.555   8.700  10.265  0.3551 -0.2593  0.3299
18153SOL    HW159589   4.547   8.691  10.360 -0.0702  0.6978  0.3947
18153SOL    HW259590   4.578   8.792  10.252  0.1857 -0.3330 -0.5064
18154SOL     OW59591   2.030   9.358   8.186 -0.1816 -0.3824  0.4193
18154SOL    HW159592   2.023   9.447   8.219  1.2910  0.3650 -1.1871
18154SOL    HW259593   1.961   9.352   8.119 -0.8610 -0.7423  1.1503
18155SOL     OW59594   7.263  10.783   4.021  0.3551 -0.3571 -0.0961
18155SOL    HW159595   7.241  10.796   3.929  0.9191  0.6923 -0.0860
18155SOL    HW259596   7.324  10.709   4.021  1.0618  0.2217 -0.6535
18156SOL     OW59597   4.080   4.402   6.329 -0.4955  0.0114 -0.1320
18156SOL    HW159598   4.076   4.309   6.306  1.8042 -0.0447 -0.3841
18156SOL    HW259599   4.034   4.408   6.412  1.9894 -1.9002  1.4454
18157SOL     OW59600   5.066   5.289  10.412  0.3786  0.5108  0.7935
18157SOL    HW159601   5.025   5.229  10.350 -0.0796  1.3023  0.3182
18157SOL    HW259602   5.142   5.324  10.364  0.0575  1.0793  0.6943
18158SOL     OW59603   7.255   2.066   8.869 -0.0036 -0.0646 -0.3347
18158SOL    HW159604   7.346   2.038   8.876 -0.2469 -0.3584  2.1397
18158SOL    HW259605   7.209   1.991   8.832  0.1416 -1.2926  1.9271
18159SOL     OW59606  10.149   1.020  10.616  0.3247 -0.2772  0.2242
18159SOL    HW159607  10.125   1.070  10.537  2.0337 -1.3655 -1.0441
18159SOL    HW259608  10.067   1.005  10.662 -0.7630  0.0432 -1.5754
18160SOL     OW59609  10.603   1.993   4.600 -0.1334 -0.2687  0.3727
18160SOL    HW159610  10.575   2.028   4.515 -0.7221 -1.8160 -0.0952
18160SOL    HW259611  10.534   2.019   4.661  0.6422  1.4664  0.5495
18161SOL     OW59612   8.998   2.301   0.639 -0.4251 -0.1881  0.5293
18161SOL    HW159613   9.078   2.271   0.682  0.1503  2.0535  1.1359
18161SOL    HW259614   9.027   2.340   0.557 -1.0617 -0.5987  0.0971
18162SOL     OW59615   3.568   3.890   4.210 -0.1590 -0.6273 -0.7110
18162SOL    HW159616   3.578   3.901   4.305 -0.8816 -0.4930 -0.6474
18162SOL    HW259617   3.599   3.973   4.173 -0.1996 -0.5524 -0.5770
18163SOL     OW59618   6.614   3.068   9.162 -0.6923  0.2267 -0.3411
18163SOL    HW159619   6.616   3.163   9.153 -1.4197  0.4955  1.9952
18163SOL    HW259620   6.694   3.038   9.118  1.3189  2.2192  1.8042
18164SOL     OW59621   3.750   6.966   0.343 -0.1364 -0.2733  0.1213
18164SOL    HW159622   3.787   7.031   0.283 -1.1925 -1.6659 -2.1025
18164SOL    HW259623   3.823   6.943   0.401  1.8103 -1.0621 -2.5300
18165SOL     OW59624   7.616   4.655   0.116 -0.0593 -0.1100 -0.1500
18165SOL    HW159625   7.672   4.702   0.179  0.9527 -1.7610  0.2018
18165SOL    HW259626   7.538   4.710   0.109  0.2641  0.6565  1.7443
18166SOL     OW59627   4.717   0.385   6.022 -0.5593  0.3805 -1.0832
18166SOL    HW159628   4.801   0.395   5.977 -1.5174  1.6689 -2.6347
18166SOL    HW259629   4.740   0.347   6.107  1.6577  1.3739 -1.2080
18167SOL     OW59630   0.907   6.768   9.309  0.8921 -0.0319  0.2872
18167SOL    HW159631   0.978   6.781   9.247  0.8242 -2.0055 -0.2265
18167SOL    HW259632   0.929   6.686   9.354 -0.5937 -0.1969  0.7328
18168SOL     OW59633   9.441   3.870  10.186  0.8255 -0.1226 -0.2528
18168SOL    HW159634   9.480   3.824  10.112 -2.2199 -0.2786 -1.8645
18168SOL    HW259635   9.414   3.955  10.150 -1.6075 -0.5899  0.3527
18169SOL     OW59636   1.678   4.107   8.262  0.0349  0.6042 -0.3041
18169SOL    HW159637   1.737   4.126   8.335 -0.3106 -0.5097  0.2705
18169SOL    HW259638   1.591   4.116   8.299 -0.1356 -1.4651 -0.1815
18170SOL     OW59639   3.782   5.661   8.724  0.0014 -0.0245 -0.9841
18170SOL    HW159640   3.692   5.684   8.746  0.2960 -0.0172  0.2203
18170SOL    HW259641   3.774   5.603   8.647 -1.2396 -2.6614  1.0582
18171SOL     OW59642   7.883  11.181   1.576  0.0726 -0.0831 -0.4094
18171SOL    HW159643   7.849  11.161   1.663  0.1198 -0.0251 -0.3776
18171SOL    HW259644   7.944  11.109   1.558 -1.8387 -1.5027 -1.4628
18172SOL     OW59645   6.522   6.277   0.711  0.0812 -0.2769  0.0661
18172SOL    HW159646   6.559   6.353   0.756  1.5116 -2.7701  3.3522
18172SOL    HW259647   6.428   6.288   0.718  0.2565  1.8165 -0.6240
18173SOL     OW59648   8.983   3.889   1.153  0.1882  0.0208  0.3625
18173SOL    HW159649   9.055   3.943   1.185  1.2101  1.2495 -3.7277
18173SOL    HW259650   8.904   3.939   1.173  0.8774  1.2717  0.0044
18174SOL     OW59651   5.708  10.864   0.316 -0.0883  0.1470 -0.2009
18174SOL    HW159652   5.700  10.777   0.278 -0.3698  0.3222 -0.5408
18174SOL    HW259653   5.781  10.904   0.269  0.5596 -0.1920  0.5051
18175SOL     OW59654   4.763  11.278   5.477  0.6540  0.3247 -0.7018
18175SOL    HW159655   4.843  11.323   5.503  0.4405  0.0486  0.4702
18175SOL    HW259656   4.779  11.186   5.496 -0.6104  0.4857  1.3594
18176SOL     OW59657   2.936   2.698   6.770  0.2169  0.1761 -0.0235
18176SOL    HW159658   2.944   2.786   6.807  0.1060 -0.1083  0.6881
18176SOL    HW259659   2.844   2.675   6.782  0.6561 -0.7990  1.5562
18177SOL     OW59660   2.275   1.777  10.260  0.5901 -0.2640 -0.3094
18177SOL    HW159661   2.344   1.742  10.204  2.1420  1.1421  0.6825
18177SOL    HW259662   2.242   1.853  10.212 -0.1981 -0.8533 -0.7185
18178SOL     OW59663   2.733  10.025   0.168 -0.5046  0.2678  0.2912
18178SOL    HW159664   2.732  10.100   0.108  0.2402  1.8162  2.1745
18178SOL    HW259665   2.790   9.961   0.125 -1.0958  0.7956 -1.3117
18179SOL     OW59666   1.012   1.710   2.753  0.0416 -0.3484 -0.2686
18179SOL    HW159667   1.082   1.773   2.773 -0.0061  0.0886 -1.4223
18179SOL    HW259668   0.983   1.679   2.838  2.2252 -1.1683  0.2120
18180SOL     OW59669   4.491   6.476   8.945  0.1468  0.3325  0.1340
18180SOL    HW159670   4.539   6.396   8.970 -0.8767 -0.8766 -1.6229
18180SOL    HW259671   4.399   6.455   8.962 -0.2860  0.5340 -1.8033
18181SOL     OW59672  10.592   8.108   9.294  0.3056  0.3643 -0.0306
18181SOL    HW159673  10.627   8.104   9.205  1.7417  1.4728  0.4658
18181SOL    HW259674  10.665   8.140   9.347  0.2711 -2.7518  2.0104
18182SOL     OW59675   1.861   3.505   8.585 -0.1728 -0.1663 -0.5932
18182SOL    HW159676   1.812   3.511   8.667 -0.4857  0.2378 -0.8101
18182SOL    HW259677   1.801   3.463   8.523 -0.7665  1.6675 -1.2701
18183SOL     OW59678   7.133   2.895   4.794 -0.7232 -0.1244  0.8797
18183SOL    HW159679   7.051   2.940   4.774  0.1561  1.0577 -0.1024
18183SOL    HW259680   7.159   2.856   4.711 -0.4592 -0.7925  1.2745
18184SOL     OW59681   7.276   2.088   7.452  0.3739  0.3789 -0.3339
18184SOL    HW159682   7.260   2.005   7.407 -0.1153  1.1768 -1.6454
18184SOL    HW259683   7.296   2.150   7.382  2.0712  1.0692  0.7400
18185SOL     OW59684   6.934   0.721   8.559 -0.3710 -0.1807  0.0405
18185SOL    HW159685   6.905   0.638   8.522 -0.9165 -1.3253  2.8794
18185SOL    HW259686   6.854   0.765   8.587 -0.0648  1.1998 -1.1923
18186SOL     OW59687   2.448   9.599   7.826 -0.3664  0.3117 -0.6715
18186SOL    HW159688   2.410   9.605   7.739 -0.1369  1.4015 -0.7071
18186SOL    HW259689   2.381   9.555   7.879 -1.1639  1.0941 -1.0226
18187SOL     OW59690   4.194   7.105  10.522 -0.0156  0.1792 -0.7632
18187SOL    HW159691   4.222   7.017  10.495 -1.7205 -0.9429  0.9314
18187SOL    HW259692   4.101   7.108  10.501 -0.8825  0.0703  2.7338
18188SOL     OW59693   2.590   1.772   6.117  0.5957 -0.4165 -0.0898
18188SOL    HW159694   2.570   1.730   6.033  0.3540 -0.2772 -0.1022
18188SOL    HW259695   2.596   1.865   6.096 -1.7071 -0.1204  0.4491
18189SOL     OW59696   6.541   9.916   3.390 -0.2687 -0.5502  0.3808
18189SOL    HW159697   6.451   9.889   3.410  0.0533 -2.0279 -0.1523
18189SOL    HW259698   6.531   9.999   3.343 -1.2289  0.7136  2.7105
18190SOL     OW59699   8.514   7.926   5.335  0.2397 -0.0530  0.3222
18190SOL    HW159700   8.426   7.933   5.300  0.0394  0.2901  0.8858
18190SOL    HW259701   8.562   7.873   5.271 -0.0499  0.7860 -0.5954
18191SOL     OW59702   8.222   7.270   4.410 -0.4346  0.3318  0.0211
18191SOL    HW159703   8.305   7.318   4.407 -0.1427 -0.2191 -1.2220
18191SOL    HW259704   8.227   7.218   4.490  0.4150  0.3226 -0.0300
18192SOL     OW59705   3.687   6.077   6.263  0.3121 -1.0724 -0.0106
18192SOL    HW159706   3.700   6.085   6.358  1.4992 -0.2929 -0.2407
18192SOL    HW259707   3.772   6.052   6.228 -0.1051 -1.2957 -0.8903
18193SOL     OW59708   9.561   4.308   3.400  0.2013  0.2070 -0.1774
18193SOL    HW159709   9.495   4.253   3.443  0.8540  1.3041  2.3104
18193SOL    HW259710   9.512   4.361   3.338 -0.8203 -1.1952 -0.5971
18194SOL     OW59711   1.026  10.258   3.584 -0.2947  0.4866  0.0873
18194SOL    HW159712   0.978  10.263   3.667  0.2378 -1.0211  0.5163
18194SOL    HW259713   1.094  10.192   3.600  0.4419  0.9071 -1.2423
18195SOL     OW59714   0.036  11.292   3.384  0.0739 -0.1726 -0.5682
18195SOL    HW159715   0.110  11.234   3.363 -1.1705 -1.3233 -1.8526
18195SOL    HW259716   0.009  11.265   3.472  1.6683  0.7943  0.2497
18196SOL     OW59717   4.184  10.861   9.551  0.5502  0.2802  0.0538
18196SOL    HW159718   4.182  10.899   9.640 -2.2872 -0.5045  0.3729
18196SOL    HW259719   4.199  10.768   9.565 -3.1965 -0.4230  0.0096
18197SOL     OW59720   7.827   7.286   6.445  0.0896  0.2257  0.2890
18197SOL    HW159721   7.764   7.222   6.414 -0.3681  0.5280  0.5748
18197SOL    HW259722   7.874   7.242   6.515 -0.1296  0.1504  0.3907
18198SOL     OW59723   1.724  10.803   1.060  0.3294  0.1359  0.1833
18198SOL    HW159724   1.761  10.718   1.084  0.7584 -0.0929 -1.2016
18198SOL    HW259725   1.775  10.867   1.109  1.3360 -0.2952 -0.2951
18199SOL     OW59726   8.794  10.666   9.285 -1.0440 -0.1164  0.0722
18199SOL    HW159727   8.831  10.751   9.308 -4.0523  0.9284  1.2622
18199SOL    HW259728   8.749  10.636   9.364 -0.7891 -2.4183 -0.6037
18200SOL     OW59729   8.604   6.204   2.179  0.2063 -0.6282 -0.1901
18200SOL    HW159730   8.546   6.261   2.128 -1.6717 -1.1508  1.3021
18200SOL    HW259731   8.690   6.214   2.138 -0.7167  0.9761 -1.7939
18201SOL     OW59732  10.439   4.648   0.163 -0.8083  0.2289  0.4385
18201SOL    HW159733  10.402   4.657   0.251  0.9005  2.7230  0.9571
18201SOL    HW259734  10.474   4.735   0.142  1.2369 -1.0011 -1.5879
18202SOL     OW59735   5.301   3.201   3.523 -0.7196  0.1492  0.6737
18202SOL    HW159736   5.307   3.210   3.428 -0.0230  0.8768  0.7872
18202SOL    HW259737   5.343   3.117   3.542 -1.7187 -0.4584  0.2496
18203SOL     OW59738   2.497   2.703   0.035 -0.0576 -0.4132  0.3834
18203SOL    HW159739   2.496   2.756  -0.045  0.5273 -0.6133  0.2457
18203SOL    HW259740   2.422   2.643   0.024  1.2937 -1.9247 -1.0220
18204SOL     OW59741   7.539   7.179   0.365  0.1303  0.3272  0.5688
18204SOL    HW159742   7.478   7.150   0.433  2.1426 -1.8220  1.5251
18204SOL    HW259743   7.626   7.168   0.404  1.2954  0.0351 -1.9843
18205SOL     OW59744   1.757   1.721  11.333  0.1816 -0.8420 -0.3065
18205SOL    HW159745   1.696   1.692  11.402  0.3798  0.9237  0.6366
18205SOL    HW259746   1.706   1.718  11.253 -1.6103  2.0199  0.6863
18206SOL     OW59747   0.966   3.031   4.993  0.2975  0.0314 -0.3294
18206SOL    HW159748   0.992   3.088   5.066  0.7498  0.4455 -0.8138
18206SOL    HW259749   0.903   2.970   5.032  0.4992  0.2811  0.3991
18207SOL     OW59750   4.131   1.103   7.849  0.6961  0.2451 -0.3627
18207SOL    HW159751   4.089   1.157   7.782  0.8764 -0.2301 -0.8627
18207SOL    HW259752   4.163   1.026   7.802 -0.6280 -0.8877  0.5397
18208SOL     OW59753   1.157  10.100   1.909  0.6268  0.6007  0.0393
18208SOL    HW159754   1.091  10.167   1.928 -0.6333 -0.4800 -0.4098
18208SOL    HW259755   1.107  10.027   1.874  2.1905  0.1198 -1.2433
18209SOL     OW59756   8.334   3.997   1.224  0.1389 -0.0418  0.0433
18209SOL    HW159757   8.284   4.071   1.258 -0.2759  0.7757 -2.2054
18209SOL    HW259758   8.390   4.036   1.157  0.3948 -1.6647 -0.6976
18210SOL     OW59759  10.021  10.185  10.341  0.0780 -0.0516  0.0902
18210SOL    HW159760  10.076  10.219  10.270 -0.0873 -0.0822 -0.0510
18210SOL    HW259761  10.055  10.097  10.357  2.7319  1.3468  2.7133
18211SOL     OW59762   6.896   5.052   3.705  0.0657 -0.2538  0.3058
18211SOL    HW159763   6.901   4.991   3.779 -0.3799  0.7982  1.2253
18211SOL    HW259764   6.805   5.046   3.675 -0.0602  0.1756  0.5948
18212SOL     OW59765   7.867  10.850   8.037  0.3808 -0.1316 -0.2168
18212SOL    HW159766   7.904  10.762   8.041 -0.0520 -0.4925 -2.9362
18212SOL    HW259767   7.843  10.871   8.127 -0.2864 -3.1317  0.3437
18213SOL     OW59768   2.893   0.491   6.013 -0.0408 -0.7187 -0.3691
18213SOL    HW159769   2.808   0.530   5.992  0.5934 -0.2187 -2.1131
18213SOL    HW259770   2.889   0.474   6.107 -1.8852 -0.2546 -0.3381
18214SOL     OW59771   5.659   2.593  11.320  0.6629 -0.3512 -0.3286
18214SOL    HW159772   5.730   2.625  11.377  0.1651  0.1521  0.0118
18214SOL    HW259773   5.671   2.640  11.238 -0.6238  1.4362  0.4728
18215SOL     OW59774   7.296   3.866   1.645  0.2124 -0.5081 -0.4440
18215SOL    HW159775   7.275   3.773   1.633 -1.4243 -0.0068 -1.6225
18215SOL    HW259776   7.210   3.908   1.655  0.9082  1.0041 -0.8047
18216SOL     OW59777  10.114   3.007   2.060 -0.2475  0.5160  0.4598
18216SOL    HW159778  10.189   3.049   2.019 -0.2357  1.3302  1.2874
18216SOL    HW259779  10.046   3.075   2.060 -1.7817 -0.9200 -2.3798
18217SOL     OW59780   2.072   2.456   2.459  0.0986 -1.2523  0.1485
18217SOL    HW159781   2.118   2.535   2.428  0.4955 -0.9366  1.5031
18217SOL    HW259782   2.138   2.409   2.509 -0.4833 -1.8557  0.3481
18218SOL     OW59783   7.189   6.023   4.290 -0.5081  0.3766 -0.3599
18218SOL    HW159784   7.158   5.938   4.321  0.9905 -0.0793 -0.0532
18218SOL    HW259785   7.162   6.085   4.358 -1.2755  0.0927 -0.4033
18219SOL     OW59786   0.623  10.908   0.327  0.0688 -0.4572  0.1135
18219SOL    HW159787   0.580  10.912   0.241 -0.6516 -1.4322  0.4156
18219SOL    HW259788   0.692  10.842   0.316 -0.6462 -1.2821  0.5484
18220SOL     OW59789   8.828   2.647   4.217  0.2076 -0.0501 -0.0004
18220SOL    HW159790   8.818   2.624   4.124 -2.0177 -0.4774  0.3230
18220SOL    HW259791   8.814   2.741   4.220 -0.6979 -0.1786  0.0139
18221SOL     OW59792   7.634   0.993   9.949 -0.2373  0.1840 -0.4241
18221SOL    HW159793   7.609   1.058  10.015  0.4914  1.1714 -1.0957
18221SOL    HW259794   7.601   1.029   9.867  1.2022  0.2903 -0.9672
18222SOL     OW59795   1.338   3.043   1.067 -0.7406 -0.3766  0.7079
18222SOL    HW159796   1.381   3.045   0.982  0.4167 -1.5901  1.2270
18222SOL    HW259797   1.245   3.055   1.048 -0.4182  0.0483 -0.6557
18223SOL     OW59798   4.096   3.568   8.714 -0.7315  0.0095  0.4045
18223SOL    HW159799   4.003   3.560   8.734 -1.2232 -1.5410 -2.2222
18223SOL    HW259800   4.100   3.630   8.641 -0.1005 -2.4086 -1.7030
18224SOL     OW59801   7.305   4.187  11.025  0.7221 -0.0573  0.0330
18224SOL    HW159802   7.305   4.282  11.036  3.0552 -0.1662  1.2756
18224SOL    HW259803   7.257   4.172  10.944  0.1416  2.1602 -0.0581
18225SOL     OW59804   3.294   3.334   3.271 -0.2598 -0.5622  0.5606
18225SOL    HW159805   3.363   3.279   3.234  0.6595  1.6824 -1.2588
18225SOL    HW259806   3.340   3.390   3.334 -0.9055 -0.9137  1.3411
18226SOL     OW59807   8.967   1.444   3.789  0.6582 -0.1274  0.2747
18226SOL    HW159808   8.881   1.471   3.822 -0.1641 -1.4204 -0.7710
18226SOL    HW259809   9.011   1.527   3.768 -0.8345  0.5206 -0.4107
18227SOL     OW59810   8.637   0.604   5.029  0.4402 -0.1573 -0.2317
18227SOL    HW159811   8.567   0.608   5.094  1.0002 -0.6893  0.4189
18227SOL    HW259812   8.614   0.528   4.974  0.5388 -0.3736  0.0241
18228SOL     OW59813   5.998   6.668   0.111  0.7637 -0.3481  0.3466
18228SOL    HW159814   5.911   6.684   0.148 -0.3544 -1.8282 -1.5968
18228SOL    HW259815   6.013   6.574   0.126  2.4540  0.0971  1.5441
18229SOL     OW59816   3.474  10.753  10.537 -0.3061 -0.0116 -0.3244
18229SOL    HW159817   3.425  10.819  10.487 -1.5847  0.1849  1.1460
18229SOL    HW259818   3.441  10.762  10.627  2.6296  0.3306  0.7973
18230SOL     OW59819  11.191   6.858   0.457  0.2347  0.0920 -0.3786
18230SOL    HW159820  11.191   6.869   0.552  1.2961 -0.2253 -0.3391
18230SOL    HW259821  11.111   6.902   0.427  0.2238  0.7236  0.5899
18231SOL     OW59822   7.369   6.456   0.038  0.4430 -0.3216  0.6350
18231SOL    HW159823   7.455   6.460  -0.004 -0.7441  0.6598 -1.8241
18231SOL    HW259824   7.322   6.387  -0.009 -0.6573  0.2513  0.8769
18232SOL     OW59825   0.083  10.001   9.482  0.4940  0.5091 -0.0671
18232SOL    HW159826   0.170  10.040   9.490  0.8792 -0.2913 -0.3119
18232SOL    HW259827   0.069   9.993   9.387 -0.0767  1.1367 -0.0425
18233SOL     OW59828   2.413   2.399   6.586  0.7940  0.3532  0.4032
18233SOL    HW159829   2.410   2.343   6.664  0.5368 -0.6346 -0.2971
18233SOL    HW259830   2.321   2.419   6.569  0.5965 -1.7954 -1.2878
18234SOL     OW59831   2.505   8.083  10.782 -0.3584  0.3259  0.1576
18234SOL    HW159832   2.564   8.104  10.709 -0.1449  1.2961  0.6037
18234SOL    HW259833   2.419   8.115  10.754 -0.5582 -0.5187 -0.2263
18235SOL     OW59834   1.272   6.616   1.580  0.3100  0.1902 -0.0723
18235SOL    HW159835   1.243   6.706   1.565  0.2965  0.3570  0.9465
18235SOL    HW259836   1.245   6.596   1.669  1.9658 -0.1665  0.3756
18236SOL     OW59837   2.024   9.801  10.663  0.3988 -0.0068 -0.3086
18236SOL    HW159838   1.979   9.751  10.731  0.6430 -1.4371 -1.1665
18236SOL    HW259839   2.113   9.813  10.696  0.1612  0.4165  0.1802
18237SOL     OW59840   6.372   6.731   6.410 -0.0440  0.1269 -0.8739
18237SOL    HW159841   6.306   6.678   6.454 -0.7074  3.0652  1.8563
18237SOL    HW259842   6.323   6.803   6.370  1.4236  2.4297  1.3075
18238SOL     OW59843   8.158   3.881   4.730 -0.6636  0.3655 -0.2262
18238SOL    HW159844   8.194   3.908   4.814 -0.1953 -2.5740  0.5692
18238SOL    HW259845   8.067   3.908   4.732 -0.4549  1.0029  0.9075
18239SOL     OW59846   8.346   5.737   0.806  0.9723 -0.2758 -0.0066
18239SOL    HW159847   8.425   5.718   0.756  0.6547 -1.2237 -0.1438
18239SOL    HW259848   8.325   5.828   0.783  1.5674 -0.2781 -0.5758
18240SOL     OW59849   2.737  11.295   5.892 -0.2292 -0.2493  0.0762
18240SOL    HW159850   2.798  11.368   5.875 -1.9477  1.5801  1.4808
18240SOL    HW259851   2.652  11.338   5.905 -1.5608 -2.6500 -0.5155
18241SOL     OW59852   2.288  10.003   8.135  0.5560  0.5010 -0.2076
18241SOL    HW159853   2.328   9.924   8.097  0.6168 -0.3180  1.5244
18241SOL    HW259854   2.194   9.982   8.139  0.6730  0.1661  1.0377
18242SOL     OW59855   9.775   4.718   9.849  0.2283  0.9286 -0.3303
18242SOL    HW159856   9.704   4.655   9.845  0.5659  0.4759  0.6116
18242SOL    HW259857   9.740   4.790   9.902  1.4143 -0.5774  2.6175
18243SOL     OW59858   2.223   8.046   1.353  0.0828  0.3274  0.0550
18243SOL    HW159859   2.277   8.107   1.403  0.1405  0.5677 -0.2976
18243SOL    HW259860   2.225   8.080   1.264  0.6924 -0.6061 -0.2812
18244SOL     OW59861   4.259   5.098   7.075  0.0869  0.2244 -0.1831
18244SOL    HW159862   4.320   5.147   7.020  0.9037 -0.7400 -0.1332
18244SOL    HW259863   4.270   5.136   7.162  0.3320  0.3041 -0.2483
18245SOL     OW59864   3.487   0.648   1.694  0.2729 -0.1983  0.6731
18245SOL    HW159865   3.516   0.568   1.739  0.4793 -0.1047  0.7082
18245SOL    HW259866   3.392   0.651   1.708  0.0151 -1.3049 -0.7308
18246SOL     OW59867   1.831   4.821   8.442 -0.3681  0.2998 -0.3985
18246SOL    HW159868   1.765   4.764   8.403 -1.5751 -1.0085  3.3875
18246SOL    HW259869   1.782   4.892   8.482  0.9065  2.0145 -1.7464
18247SOL     OW59870   1.609   6.944   2.203 -0.3846 -0.4120 -0.2946
18247SOL    HW159871   1.614   6.852   2.178  2.1509 -0.6056  0.7183
18247SOL    HW259872   1.560   6.945   2.284 -0.9635 -0.7923 -0.6386
18248SOL     OW59873  10.415   8.068  10.654  0.0261  0.3224 -0.1122
18248SOL    HW159874  10.341   8.015  10.682 -0.2507  0.7948  0.0670
18248SOL    HW259875  10.421   8.052  10.560 -0.1900  0.1384 -0.0964
18249SOL     OW59876   0.577   9.019   6.682 -0.4545 -0.1517  0.2504
18249SOL    HW159877   0.585   9.099   6.630 -1.6197 -0.5898 -0.6229
18249SOL    HW259878   0.575   9.050   6.773  2.1823  0.5798  0.1226
18250SOL     OW59879  11.156   0.575   8.902 -0.1431  0.3443  0.7343
18250SOL    HW159880  11.068   0.577   8.863  1.1908 -1.0836 -2.5252
18250SOL    HW259881  11.203   0.645   8.857  1.4592 -1.3856 -0.3515
18251SOL     OW59882  10.142   0.116   8.944  0.4042  0.4796  0.5448
18251SOL    HW159883  10.049   0.116   8.968  0.1983 -0.7140 -0.2299
18251SOL    HW259884  10.186   0.152   9.021 -0.7677  1.7532  0.6324
18252SOL     OW59885   4.986   5.679   4.627  0.0691  0.0847 -0.1311
18252SOL    HW159886   5.076   5.702   4.605 -0.3478  1.1047 -0.8048
18252SOL    HW259887   4.945   5.654   4.544 -0.4995  0.4472  0.0306
18253SOL     OW59888   3.583   8.772  10.434  0.0101  0.0170 -0.6420
18253SOL    HW159889   3.676   8.791  10.440  0.1473 -0.2287 -1.8168
18253SOL    HW259890   3.557   8.807  10.349 -0.8988 -0.1967 -0.4541
18254SOL     OW59891   7.610   3.955   0.455  0.2572 -0.3605  1.0706
18254SOL    HW159892   7.619   4.044   0.489 -0.8593  0.1487  0.0744
18254SOL    HW259893   7.591   3.901   0.532 -0.4580  0.4926  1.4966
18255SOL     OW59894   9.239   2.721   6.560  0.1091  0.2392 -0.1483
18255SOL    HW159895   9.164   2.671   6.591 -0.4584  1.6818  0.8849
18255SOL    HW259896   9.279   2.665   6.494 -1.2951 -0.9799 -0.0116
18256SOL     OW59897   8.432   5.302   1.387  0.2293  0.5017  0.0376
18256SOL    HW159898   8.429   5.278   1.480  1.7446  0.4742  0.0973
18256SOL    HW259899   8.415   5.220   1.341  0.0805  0.3870  0.2951
18257SOL     OW59900  10.541  11.317   4.634 -0.6320  0.3102  0.1499
18257SOL    HW159901  10.610  11.282   4.578 -0.8150 -1.9582  1.2833
18257SOL    HW259902  10.573  11.301   4.723 -2.7438 -1.1096  0.6921
18258SOL     OW59903   3.736   1.684   2.485 -0.0222 -0.0566  0.5520
18258SOL    HW159904   3.737   1.678   2.581 -2.9948  2.7626  0.8565
18258SOL    HW259905   3.646   1.664   2.461  0.3451  0.7229 -1.5441
18259SOL     OW59906   4.179  11.317   3.639 -0.1351  0.1917 -0.1750
18259SOL    HW159907   4.147  11.293   3.552 -1.3202 -3.5909  1.2215
18259SOL    HW259908   4.101  11.325   3.693  0.6070  2.2418  0.6545
18260SOL     OW59909   9.903   0.640   6.031  0.3000 -0.5119  0.3806
18260SOL    HW159910   9.905   0.569   6.095 -1.1070 -0.5260  0.4196
18260SOL    HW259911   9.874   0.598   5.950  2.2409 -0.5328 -0.3408
18261SOL     OW59912   7.338   9.056   9.821 -0.1000 -0.2125  0.8876
18261SOL    HW159913   7.428   9.023   9.814 -0.2056 -0.3214  0.0149
18261SOL    HW259914   7.291   9.013   9.749 -0.5690  0.7819  0.5916
18262SOL     OW59915   6.764   2.590   9.496 -0.0733 -0.8526 -0.3354
18262SOL    HW159916   6.770   2.501   9.461  1.7231 -0.5538 -0.8383
18262SOL    HW259917   6.833   2.638   9.452  0.0967  0.3620  1.2048
18263SOL     OW59918   1.827   1.334   1.810 -0.0230 -0.7938 -0.0721
18263SOL    HW159919   1.808   1.242   1.830 -0.7203 -0.9440 -1.3470
18263SOL    HW259920   1.923   1.338   1.807  0.0496 -1.1124  1.6127
18264SOL     OW59921   2.180   5.272   2.546  0.0430 -0.2159  0.2778
18264SOL    HW159922   2.101   5.258   2.494 -0.4376  0.1513  0.8949
18264SOL    HW259923   2.252   5.266   2.483 -0.4228 -1.3104 -0.1517
18265SOL     OW59924   4.485   9.032   6.205 -0.0441  0.2368 -0.1839
18265SOL    HW159925   4.536   9.022   6.285  0.6003  1.7361 -0.3924
18265SOL    HW259926   4.406   8.980   6.221  0.6901 -0.5833  0.8742
18266SOL     OW59927  10.875   0.985   8.268  0.8975  0.2056 -0.4878
18266SOL    HW159928  10.910   0.902   8.297  1.6399  0.6173 -0.1973
18266SOL    HW259929  10.949   1.046   8.272  0.3185  0.9251 -0.4941
18267SOL     OW59930   0.838   5.107   6.064  0.2248  0.2148  0.0962
18267SOL    HW159931   0.926   5.136   6.041 -0.0834  0.2950 -1.0095
18267SOL    HW259932   0.823   5.143   6.152  0.9242  1.0017 -0.0980
18268SOL     OW59933   1.182   2.996   1.881  0.5370  0.4130  0.4345
18268SOL    HW159934   1.193   2.937   1.956  1.6382  0.5263  0.3655
18268SOL    HW259935   1.260   3.051   1.882  1.7063 -1.1101 -2.1605
18269SOL     OW59936   9.032   3.672  10.948 -0.0762 -0.0070 -0.3188
18269SOL    HW159937   9.000   3.608  11.012 -1.2881 -2.5745 -3.3517
18269SOL    HW259938   8.968   3.744  10.951 -0.9334 -0.7916  0.3053
18270SOL     OW59939   6.960   5.656   1.674 -0.0308  0.1738  0.3404
18270SOL    HW159940   6.933   5.617   1.591  0.6954  0.2972  0.0429
18270SOL    HW259941   6.881   5.697   1.708 -1.0265 -2.2465  1.0514
18271SOL     OW59942   3.219   2.971   6.352 -0.3849 -0.3433  0.4127
18271SOL    HW159943   3.231   3.053   6.399  1.5140 -0.1332 -0.4026
18271SOL    HW259944   3.151   2.990   6.287  0.5428  0.7884 -0.2407
18272SOL     OW59945   0.442  11.017  11.004 -0.5574 -0.4399 -0.1645
18272SOL    HW159946   0.517  11.021  10.944  1.2272 -3.3016  1.7583
18272SOL    HW259947   0.457  11.088  11.066  0.8228 -1.2380  0.4445
18273SOL     OW59948   2.856   7.712   2.393  0.1017  0.2034 -0.7990
18273SOL    HW159949   2.819   7.797   2.370  2.0583  1.0465 -0.9215
18273SOL    HW259950   2.795   7.649   2.355 -0.8233  1.5443 -1.5969
18274SOL     OW59951   9.583   1.105   0.079 -0.6146 -0.1083  0.0063
18274SOL    HW159952   9.594   1.011   0.091 -0.2378 -0.3864 -2.2245
18274SOL    HW259953   9.513   1.129   0.140 -0.5360 -1.7903  0.7776
18275SOL     OW59954   3.556  10.807   3.889  0.0051 -0.3567 -0.1775
18275SOL    HW159955   3.563  10.733   3.950 -0.3004  0.4604  0.8556
18275SOL    HW259956   3.644  10.816   3.852 -0.4238 -2.4960 -1.8100
18276SOL     OW59957   9.598   2.238  10.819 -0.6428 -0.0685 -0.1747
18276SOL    HW159958   9.676   2.290  10.797 -1.5573  1.0237 -0.8985
18276SOL    HW259959   9.541   2.300  10.865 -0.1075 -1.4876  2.5189
18277SOL     OW59960   4.755   5.311  10.255  0.3455 -0.1054  0.5783
18277SOL    HW159961   4.805   5.348  10.182  0.0568 -0.5554  0.1441
18277SOL    HW259962   4.724   5.226  10.222 -2.7179  1.1677 -0.0326
18278SOL     OW59963   0.738   8.540   7.953 -0.7878 -0.1190  0.1886
18278SOL    HW159964   0.764   8.502   7.869  2.0600 -1.6628  1.6870
18278SOL    HW259965   0.752   8.469   8.016  0.5689  2.1084  2.4633
18279SOL     OW59966   6.090   6.620   5.786 -0.1064 -0.3710  0.6531
18279SOL    HW159967   6.047   6.537   5.804 -1.0105  0.0176  0.3369
18279SOL    HW259968   6.087   6.628   5.690  0.4127 -0.1989  0.6474
18280SOL     OW59969   7.814   1.677   4.389 -0.5058  0.1968 -0.0625
18280SOL    HW159970   7.868   1.748   4.353 -2.7203  0.5519 -2.9534
18280SOL    HW259971   7.747   1.723   4.440 -0.0149 -0.0117  0.7571
18281SOL     OW59972  10.070   5.069   2.061 -0.6352 -0.5823  0.3592
18281SOL    HW159973   9.983   5.030   2.058 -0.1597 -1.7128  0.9976
18281SOL    HW259974  10.130   4.997   2.040  0.3023 -0.4144  2.3200
18282SOL     OW59975   8.187   5.027   5.699  0.7754  0.4954  0.3072
18282SOL    HW159976   8.172   5.035   5.793  0.2088  2.2982  0.0782
18282SOL    HW259977   8.255   4.960   5.692 -0.4868 -0.9984  1.8852
18283SOL     OW59978   7.207   6.650   0.122 -0.3167 -0.6842 -0.1259
18283SOL    HW159979   7.136   6.681   0.065 -0.7537 -0.0702  0.7400
18283SOL    HW259980   7.251   6.583   0.070 -0.6088 -0.0242 -1.2510
18284SOL     OW59981   4.817   5.608   8.764  0.6516 -0.8038 -0.2599
18284SOL    HW159982   4.736   5.644   8.802  1.8119  0.3622  1.1572
18284SOL    HW259983   4.858   5.683   8.721  1.6225 -1.0975  0.1530
18285SOL     OW59984   0.911   3.175   3.152 -0.2301  0.8190 -0.1310
18285SOL    HW159985   0.933   3.262   3.186 -0.3458  0.5298  0.6954
18285SOL    HW259986   0.816   3.169   3.162 -0.0278 -0.0549  1.3963
18286SOL     OW59987   4.686  10.182   9.779 -0.2449 -0.3975  0.1184
18286SOL    HW159988   4.738  10.192   9.859 -0.0808 -0.9476  0.0763
18286SOL    HW259989   4.603  10.144   9.808 -0.2287 -0.4898  0.0401
18287SOL     OW59990   4.562   8.435   1.233 -0.2084 -0.7010 -0.2157
18287SOL    HW159991   4.508   8.492   1.288  0.6608  0.1874 -0.2663
18287SOL    HW259992   4.520   8.350   1.239  0.1387 -0.7465  2.2363
18288SOL     OW59993  10.521   0.450   6.268 -0.3915 -0.7307  0.1702
18288SOL    HW159994  10.507   0.358   6.244 -0.8687 -0.5812 -0.1221
18288SOL    HW259995  10.475   0.460   6.352  0.5196 -1.0188  0.7160
18289SOL     OW59996   9.986   9.996  10.613  0.3788  0.3766  0.1856
18289SOL    HW159997   9.908   9.955  10.576  1.2458 -0.7568 -0.4017
18289SOL    HW259998   9.955  10.080  10.648 -1.2755 -0.4601  0.7674
18290SOL     OW59999   0.804   6.056   1.615 -0.0786  0.1530  0.5440
18290SOL    HW160000   0.790   5.964   1.593  0.5219  0.2437 -0.2322
18290SOL    HW260001   0.797   6.103   1.532 -0.2156  0.7940  0.9093
18291SOL     OW60002   8.434   6.597   0.834 -0.2860 -0.0229 -0.0066
18291SOL    HW160003   8.459   6.646   0.912 -2.6689  0.2434  0.6352
18291SOL    HW260004   8.408   6.511   0.866  1.7909 -1.0133 -0.8928
18292SOL     OW60005   6.590   1.584   8.440 -0.1750  0.4828 -0.5455
18292SOL    HW160006   6.526   1.513   8.436 -0.1288  0.5345 -2.3690
18292SOL    HW260007   6.538   1.664   8.436 -0.4508  0.6854  4.1022
18293SOL     OW60008   5.570   0.001   4.149  0.1342 -0.6393  0.1867
18293SOL    HW160009   5.488  -0.008   4.198  0.1164  0.2255  0.3206
18293SOL    HW260010   5.555  -0.050   4.069 -0.9829  0.4570 -0.3342
18294SOL     OW60011   8.356   4.966   5.952 -0.2555 -0.1875 -0.3511
18294SOL    HW160012   8.353   4.927   5.865 -0.0692 -2.4472  0.5971
18294SOL    HW260013   8.264   4.979   5.975 -0.3441 -0.6758 -0.4280
18295SOL     OW60014   3.113   2.217   6.512 -0.2014  0.3609  0.2521
18295SOL    HW160015   3.196   2.236   6.468  0.7863 -1.0700  1.4720
18295SOL    HW260016   3.074   2.146   6.461  0.8162 -1.1135  1.5170
18296SOL     OW60017   9.559  11.053   1.056  0.2379  0.2018  0.2299
18296SOL    HW160018   9.595  11.136   1.085  0.4836  0.8834 -1.9908
18296SOL    HW260019   9.541  11.065   0.963 -1.5875 -1.5678  0.3158
18297SOL     OW60020   7.849   6.456   1.264  0.6064 -0.2055 -0.1869
18297SOL    HW160021   7.945   6.448   1.264  0.7988  1.6344 -1.3568
18297SOL    HW260022   7.822   6.423   1.349  2.4822  0.9527  0.9036
18298SOL     OW60023  11.049   7.708   2.515  0.3367 -0.2316  0.4826
18298SOL    HW160024  11.135   7.672   2.492 -0.4033 -0.5463 -1.8899
18298SOL    HW260025  11.066   7.800   2.533  1.3074 -0.4823  0.8843
18299SOL     OW60026   4.170   0.762   3.589  0.0003 -0.1840 -0.3641
18299SOL    HW160027   4.103   0.789   3.525 -1.9613  0.0620  1.7174
18299SOL    HW260028   4.120   0.745   3.669  2.4903  0.2749  1.3286
18300SOL     OW60029   7.906   1.402   6.072  0.5310  0.1451 -0.6949
18300SOL    HW160030   7.912   1.492   6.103 -0.3080 -0.5765  1.6467
18300SOL    HW260031   7.942   1.350   6.143 -0.5911 -1.5142 -1.3246
18301SOL     OW60032   8.713  11.248   4.405  0.0184 -1.0524 -0.6315
18301SOL    HW160033   8.687  11.314   4.469 -2.3515 -0.5667 -2.0334
18301SOL    HW260034   8.701  11.165   4.449  2.1133 -0.6175  0.8299
18302SOL     OW60035  10.652   5.010   9.753  0.2222  0.0297 -0.5251
18302SOL    HW160036  10.717   4.943   9.771  0.8444  0.2766 -1.8082
18302SOL    HW260037  10.568   4.964   9.757  0.6632 -0.8929 -1.6861
18303SOL     OW60038   3.895  10.371   0.363 -0.1161 -0.2919  0.9316
18303SOL    HW160039   3.972  10.424   0.344 -1.1530  1.3393  1.1603
18303SOL    HW260040   3.836  10.430   0.408 -2.5280 -0.7724 -1.4332
18304SOL     OW60041   0.613   1.507  10.423  0.1299 -0.2853 -0.2157
18304SOL    HW160042   0.547   1.478  10.486 -0.9473  1.1352 -0.6744
18304SOL    HW260043   0.673   1.433  10.415  0.1844 -0.5318  2.3442
18305SOL     OW60044   7.881   9.183   3.445  0.8444 -0.3802 -0.4490
18305SOL    HW160045   7.820   9.244   3.487  0.8404 -0.0375 -0.9567
18305SOL    HW260046   7.966   9.205   3.483  0.7312 -0.5530 -0.0867
18306SOL     OW60047   5.103   3.892   6.688 -0.0584 -0.0523  0.4766
18306SOL    HW160048   5.016   3.932   6.697 -1.4893 -3.0876  0.9080
18306SOL    HW260049   5.115   3.880   6.594  0.0629  0.7569  0.3918
18307SOL     OW60050   8.290   8.801   6.574 -0.0903 -0.8131 -0.0309
18307SOL    HW160051   8.385   8.794   6.587  0.2438  0.7006 -1.4726
18307SOL    HW260052   8.253   8.799   6.662  1.4525  0.7988  0.6789
18308SOL     OW60053   4.224   4.303   7.675 -0.6841 -0.3791 -0.0151
18308SOL    HW160054   4.288   4.276   7.740  0.0976  1.2525 -0.0629
18308SOL    HW260055   4.195   4.389   7.705 -0.3881  0.3516 -1.7390
18309SOL     OW60056   7.781  10.692   3.113 -0.3621 -0.1480 -0.0088
18309SOL    HW160057   7.781  10.597   3.101 -0.5061 -0.2076  0.4297
18309SOL    HW260058   7.699  10.721   3.073 -0.2671 -0.1952 -0.2370
18310SOL     OW60059   7.811   9.430   3.584  0.1225 -0.3199  0.0314
18310SOL    HW160060   7.803   9.469   3.671 -1.7082  1.1691 -0.7678
18310SOL    HW260061   7.899   9.454   3.555 -0.4511  2.0900  0.1345
18311SOL     OW60062   3.266   8.853   2.987  0.0652  0.2556 -0.4683
18311SOL    HW160063   3.189   8.903   2.957 -1.5890 -1.4906  0.7708
18311SOL    HW260064   3.290   8.799   2.912 -0.6328 -0.0427 -0.4775
18312SOL     OW60065   6.178   2.357   4.778 -0.0380 -0.5117 -0.0805
18312SOL    HW160066   6.186   2.388   4.689  1.5350  0.2237  0.3155
18312SOL    HW260067   6.150   2.265   4.769 -0.5427 -0.2440 -1.2973
18313SOL     OW60068   0.338   9.973   2.534  0.2198  0.1051  0.3135
18313SOL    HW160069   0.432   9.992   2.546  0.1748  3.0500 -3.2036
18313SOL    HW260070   0.334   9.920   2.455 -1.2294  2.1671 -1.0399
18314SOL     OW60071   7.409   7.310   8.772 -0.2277  0.0451  0.0264
18314SOL    HW160072   7.320   7.290   8.744  0.4175 -1.8283 -0.8371
18314SOL    HW260073   7.453   7.342   8.693 -0.1572  1.0706  0.4750
18315SOL     OW60074   8.697   7.306   3.657  0.3893  0.0135 -0.0297
18315SOL    HW160075   8.701   7.380   3.596  2.1659  1.0640  1.3286
18315SOL    HW260076   8.675   7.345   3.741  0.7986 -1.0807  0.5932
18316SOL     OW60077   5.399   6.092   9.750 -0.2081 -0.1277 -0.9490
18316SOL    HW160078   5.309   6.109   9.778 -0.0350 -0.8592  0.0990
18316SOL    HW260079   5.401   5.998   9.733  0.0849  0.0652 -2.0223
18317SOL     OW60080  10.835   3.927   3.068  0.6971  0.8940 -0.0564
18317SOL    HW160081  10.797   4.000   3.019  0.3928  0.4674 -0.4616
18317SOL    HW260082  10.762   3.892   3.119  0.6230  0.2944 -0.5664
18318SOL     OW60083   0.421   5.016   9.914  0.1426  0.2962  0.4546
18318SOL    HW160084   0.444   4.935   9.958  0.9993  1.1652  1.6257
18318SOL    HW260085   0.466   5.085   9.964 -0.1915  1.4458 -0.7864
18319SOL     OW60086   6.660   5.198   5.462 -0.1133  0.1975  0.1991
18319SOL    HW160087   6.600   5.212   5.535 -0.3116  1.4117 -0.1930
18319SOL    HW260088   6.632   5.115   5.424 -0.5252 -0.0367  1.0009
18320SOL     OW60089   1.859   7.726   5.240 -0.7755  0.1190 -0.2290
18320SOL    HW160090   1.865   7.738   5.145  1.2023 -1.1381 -0.2964
18320SOL    HW260091   1.936   7.771   5.274 -1.6093  0.7722  0.8172
18321SOL     OW60092   1.281   9.805  10.912 -0.2559 -0.4030 -0.1859
18321SOL    HW160093   1.359   9.750  10.920  0.3683  0.5715  0.5697
18321SOL    HW260094   1.307   9.874  10.852 -0.0121  0.7894  1.2467
18322SOL     OW60095   7.149   6.469   9.209  0.0842  0.2138  0.1296
18322SOL    HW160096   7.160   6.557   9.173 -0.1013 -0.1648 -0.8682
18322SOL    HW260097   7.146   6.482   9.304  0.7703  1.2061  0.0237
18323SOL     OW60098   2.429   5.380   5.112 -0.2215  0.3295  0.0256
18323SOL    HW160099   2.409   5.470   5.138  0.1889  0.5593 -0.4620
18323SOL    HW260100   2.442   5.384   5.018  0.1083 -0.1906  0.0473
18324SOL     OW60101   5.802   6.256  10.451 -0.6695  0.3239  0.6716
18324SOL    HW160102   5.851   6.315  10.394  0.0506 -1.2290 -0.3707
18324SOL    HW260103   5.832   6.168  10.426 -1.9594 -0.5074  1.9368
18325SOL     OW60104   0.988  10.706   5.050  0.0272 -0.9341 -0.3374
18325SOL    HW160105   1.068  10.749   5.022  0.3530  0.4106  2.5854
18325SOL    HW260106   1.016  10.620   5.082  0.0269 -1.2766 -1.2418
18326SOL     OW60107   5.839   4.823   8.962 -0.7423  0.3302  0.3643
18326SOL    HW160108   5.860   4.915   8.943 -0.5046  0.0525 -0.7170
18326SOL    HW260109   5.845   4.817   9.058 -2.9383  1.9607  0.6541
18327SOL     OW60110  10.279   5.685  10.557  0.1916  0.2398 -0.1598
18327SOL    HW160111  10.254   5.777  10.548  1.7644  0.3471 -4.2031
18327SOL    HW260112  10.221   5.637  10.498  0.4177 -1.2081  0.7542
18328SOL     OW60113   9.488   5.346   1.247  0.0750 -0.0674 -0.3568
18328SOL    HW160114   9.541   5.311   1.176  0.9740 -0.0118  0.2784
18328SOL    HW260115   9.476   5.272   1.307  0.4920  0.2440  0.1169
18329SOL     OW60116   8.003   4.706   2.461 -0.2413 -0.2178 -0.2205
18329SOL    HW160117   7.918   4.693   2.503 -0.9919 -2.7760 -2.3958
18329SOL    HW260118   7.996   4.792   2.419 -1.8507 -0.5250 -0.5973
18330SOL     OW60119   8.899  10.619   2.080 -0.1345 -0.1639  0.0519
18330SOL    HW160120   8.988  10.609   2.113 -0.6805 -1.2892  1.2186
18330SOL    HW260121   8.899  10.705   2.038  2.1721 -1.1788 -2.1880
18331SOL     OW60122   5.567   2.160   1.826 -0.0952 -0.4888  0.2395
18331SOL    HW160123   5.584   2.066   1.824 -0.3179 -0.5414  0.7105
18331SOL    HW260124   5.652   2.200   1.809  0.0029 -0.7738  0.0434
18332SOL     OW60125   9.205   9.048   4.338 -0.8253  0.4136 -0.3948
18332SOL    HW160126   9.231   9.066   4.248 -2.5171  0.7378 -0.8479
18332SOL    HW260127   9.261   8.976   4.366 -0.0848  0.5114 -1.6066
18333SOL     OW60128   5.488   7.275   5.068  0.2191 -0.2147 -0.2669
18333SOL    HW160129   5.414   7.215   5.060  1.0911 -1.1570 -1.4512
18333SOL    HW260130   5.519   7.263   5.158 -0.4522 -0.5482 -0.0779
18334SOL     OW60131   1.583   2.846   6.193 -0.4472 -0.0353 -0.7462
18334SOL    HW160132   1.518   2.842   6.263  0.8589  1.8021  0.6402
18334SOL    HW260133   1.642   2.773   6.212  0.6807  1.2734  0.9120
18335SOL     OW60134   7.860  10.853   5.134 -0.0297  0.4924  0.0915
18335SOL    HW160135   7.863  10.808   5.050 -1.0529  0.7396 -0.0832
18335SOL    HW260136   7.876  10.945   5.112  0.1656  0.4884  0.2191
18336SOL     OW60137  10.264   0.610   7.509  0.2855  0.1306 -0.2902
18336SOL    HW160138  10.168   0.604   7.505  0.2173 -0.0175  1.2412
18336SOL    HW260139  10.281   0.688   7.562  1.0170  0.1094 -0.4875
18337SOL     OW60140   0.855   7.397   6.728 -0.1063 -0.2475 -0.1093
18337SOL    HW160141   0.887   7.322   6.678 -1.1735 -2.3019  2.1787
18337SOL    HW260142   0.865   7.370   6.819 -2.9744  1.3343  0.7266
18338SOL     OW60143   5.226   3.782   3.241 -0.7310  0.0428  0.2589
18338SOL    HW160144   5.160   3.748   3.181 -0.7899  0.3936  0.1228
18338SOL    HW260145   5.309   3.776   3.193 -0.9997  1.8248 -0.4821
18339SOL     OW60146   8.139   9.977   9.277 -0.1234 -1.1229 -0.1886
18339SOL    HW160147   8.201   9.953   9.208 -1.5069 -0.4663 -1.6693
18339SOL    HW260148   8.087   9.898   9.291 -0.3011 -1.0423 -0.3897
18340SOL     OW60149   9.345   9.419   7.720  0.4446 -0.2551  0.3873
18340SOL    HW160150   9.354   9.515   7.717  1.9674 -0.4001  0.1138
18340SOL    HW260151   9.251   9.404   7.708  0.2837  1.1733 -0.2648
18341SOL     OW60152   8.951   1.248  10.504 -0.3218  0.3205 -0.2379
18341SOL    HW160153   8.994   1.202  10.577 -1.0839  0.4327  0.2914
18341SOL    HW260154   8.885   1.304  10.547 -1.0305  0.1047 -1.0285
18342SOL     OW60155   3.238   8.583   4.932 -0.4641  0.3809  0.2874
18342SOL    HW160156   3.163   8.555   4.879  1.7264 -0.4100 -2.5423
18342SOL    HW260157   3.255   8.509   4.990 -0.6282 -0.2597 -0.4735
18343SOL     OW60158   2.703   8.710   3.714  0.4519  0.4174  0.4378
18343SOL    HW160159   2.703   8.660   3.796  0.6254  1.7227  1.2472
18343SOL    HW260160   2.618   8.754   3.713  0.8211  1.1330  0.3777
18344SOL     OW60161   5.167   9.147   9.742 -0.3159 -0.7383 -0.0725
18344SOL    HW160162   5.243   9.169   9.796 -1.2315  0.7175  0.6306
18344SOL    HW260163   5.147   9.056   9.766  1.1210 -1.1099 -0.1891
18345SOL     OW60164   9.934   4.045   7.893  0.1453  0.0905 -0.4887
18345SOL    HW160165   9.853   4.008   7.857 -0.0923 -0.1389  0.2672
18345SOL    HW260166   9.946   3.999   7.976 -0.4426  2.0669  0.7301
18346SOL     OW60167   6.497   3.158   7.322 -0.4106  0.1033  0.0244
18346SOL    HW160168   6.462   3.085   7.271 -0.7519  0.8305 -0.8149
18346SOL    HW260169   6.582   3.128   7.353 -1.1016 -1.1163  0.7698
18347SOL     OW60170   0.707   5.505   6.997  0.6772 -0.4780 -0.4258
18347SOL    HW160171   0.769   5.432   6.994  0.4933 -0.7022  0.8954
18347SOL    HW260172   0.624   5.465   7.025  0.6259  0.2667  0.5020
18348SOL     OW60173   0.946   2.126   0.661 -0.0635 -0.7656  0.1957
18348SOL    HW160174   0.954   2.110   0.755 -0.1605  1.9595  0.7192
18348SOL    HW260175   0.870   2.184   0.653  0.7912  0.1699 -1.4109
18349SOL     OW60176   2.061   1.806   1.121  0.0775  0.2986  0.1160
18349SOL    HW160177   2.051   1.716   1.150  1.9223 -0.4349 -1.4298
18349SOL    HW260178   2.046   1.858   1.200 -2.2077 -1.2615  0.7552
18350SOL     OW60179   9.455  11.286   4.704 -0.2176  0.0022 -0.5879
18350SOL    HW160180   9.402  11.362   4.728  0.8818  0.2760  0.9980
18350SOL    HW260181   9.537  11.323   4.672 -0.5029 -0.4597 -1.8768
18351SOL     OW60182   1.510   0.476   2.889  0.6782  0.5297 -0.3743
18351SOL    HW160183   1.446   0.467   2.960  1.4037  0.4709  0.2717
18351SOL    HW260184   1.502   0.395   2.839 -0.2429  0.8169 -0.7066
18352SOL     OW60185   7.965   6.826   2.545 -0.2031 -0.7032  0.3193
18352SOL    HW160186   7.986   6.737   2.516  1.7121 -0.9241  2.2415
18352SOL    HW260187   7.967   6.821   2.640  0.4989  1.5331  0.4395
18353SOL     OW60188   1.654   3.783   5.311  0.0003  0.0871 -0.6490
18353SOL    HW160189   1.585   3.781   5.377  0.0468  1.4970 -0.5457
18353SOL    HW260190   1.672   3.691   5.292 -1.0211 -0.3029  0.2453
18354SOL     OW60191   6.600   5.502   4.849  0.1855  0.2094 -0.1327
18354SOL    HW160192   6.642   5.587   4.832  2.0172 -0.5133  0.6704
18354SOL    HW260193   6.665   5.438   4.820  0.9869 -0.9917  4.0859
18355SOL     OW60194   3.914   0.023   7.477 -0.2775 -0.5761 -0.6132
18355SOL    HW160195   3.982  -0.041   7.498  0.2178  0.0039 -0.4249
18355SOL    HW260196   3.832  -0.026   7.480  0.0620 -1.1133 -0.0995
18356SOL     OW60197  10.874   9.963   4.927 -0.1559 -0.1152  0.5687
18356SOL    HW160198  10.834   9.882   4.895  1.0910 -0.1138 -1.0876
18356SOL    HW260199  10.957   9.935   4.967  0.8263  0.4358 -1.0356
18357SOL     OW60200   9.006  11.318   7.863  0.0110 -0.4858  0.3202
18357SOL    HW160201   9.004  11.293   7.956 -1.1614  0.8151  0.6546
18357SOL    HW260202   9.088  11.281   7.831  1.3396  0.6342  2.3298
18358SOL     OW60203   6.368   1.970   8.570  0.6075  0.4387 -0.3618
18358SOL    HW160204   6.420   2.049   8.556 -0.7205  1.4913  0.5164
18358SOL    HW260205   6.277   2.001   8.574 -0.0913 -1.3417 -1.7022
18359SOL     OW60206   1.154   1.511   0.355  0.1270 -0.8142  0.1892
18359SOL    HW160207   1.129   1.440   0.414 -1.3661 -0.1374  0.3964
18359SOL    HW260208   1.071   1.546   0.322  0.7909  1.2701  0.6092
18360SOL     OW60209   7.615   1.612  10.860 -0.4056 -0.4055  0.1795
18360SOL    HW160210   7.604   1.677  10.929 -1.7361 -1.0706  0.6201
18360SOL    HW260211   7.545   1.548  10.876  2.0233 -2.9771  0.8876
18361SOL     OW60212   4.342   1.084   8.375  0.1686  0.4276  0.4850
18361SOL    HW160213   4.297   1.165   8.349  1.0638  0.5796 -0.6394
18361SOL    HW260214   4.321   1.074   8.468 -0.9613  1.2865  0.3388
18362SOL     OW60215   7.980   5.554   3.083 -0.1944  0.3654 -0.3583
18362SOL    HW160216   7.931   5.533   3.004  0.3056 -1.4681 -0.2019
18362SOL    HW260217   8.041   5.481   3.094  1.1604  1.5991  0.5830
18363SOL     OW60218  10.771   6.898   1.674 -0.4556  0.0929 -0.5396
18363SOL    HW160219  10.677   6.900   1.656 -0.6984 -0.6729  0.6500
18363SOL    HW260220  10.780   6.845   1.752  0.8914  0.9461 -0.0944
18364SOL     OW60221   5.411   9.037   9.310  0.0249 -0.3774  0.4795
18364SOL    HW160222   5.418   9.001   9.398 -0.0004 -0.8127  0.3067
18364SOL    HW260223   5.496   9.078   9.294 -0.7832  1.8030  1.6150
18365SOL     OW60224   4.313   1.342   3.962  0.1131  0.3284  0.6593
18365SOL    HW160225   4.319   1.395   4.042  0.0206  0.5380  0.5286
18365SOL    HW260226   4.378   1.381   3.903 -1.4904  1.6960 -0.2384
18366SOL     OW60227   4.261   0.060   5.500 -0.1421 -0.0114  0.3093
18366SOL    HW160228   4.233   0.138   5.451  2.3602  1.0840  0.5340
18366SOL    HW260229   4.180   0.010   5.514 -1.5878  1.8770 -1.0139
18367SOL     OW60230   5.608   3.580   0.304 -0.2650 -0.0637  0.1582
18367SOL    HW160231   5.686   3.603   0.253 -0.4352 -1.7644 -0.8970
18367SOL    HW260232   5.571   3.664   0.329  1.3674  0.7789 -0.1553
18368SOL     OW60233   3.424   3.841   1.080 -0.9082 -0.2304 -0.1703
18368SOL    HW160234   3.378   3.760   1.101 -2.5323  0.6902 -0.0494
18368SOL    HW260235   3.464   3.825   0.995  1.1452 -2.1051  1.0832
18369SOL     OW60236   0.639   5.197   0.266 -0.5806  0.6807  0.1985
18369SOL    HW160237   0.550   5.230   0.258 -0.6195 -0.0209 -2.7920
18369SOL    HW260238   0.628   5.105   0.290 -0.7367  0.0984 -2.0273
18370SOL     OW60239   7.525   9.700   4.694  0.6694 -0.1060  0.3565
18370SOL    HW160240   7.442   9.654   4.677 -0.0269  1.5037 -0.6431
18370SOL    HW260241   7.534   9.697   4.789 -0.7821  0.1340  0.5145
18371SOL     OW60242  10.911   6.780  10.715  0.2826 -0.2536 -0.5518
18371SOL    HW160243  10.944   6.752  10.630  0.3484 -2.0053  0.0466
18371SOL    HW260244  10.816   6.790  10.701  0.1909 -1.2139 -0.6586
18372SOL     OW60245   7.034   3.112   4.459 -0.3485 -0.0206 -0.4424
18372SOL    HW160246   6.976   3.143   4.389 -0.0140  1.6952  0.0133
18372SOL    HW260247   7.122   3.129   4.427 -0.1059 -1.7523 -0.7335
18373SOL     OW60248   9.810  10.910   8.028  0.1456  0.1901  0.2754
18373SOL    HW160249   9.797  11.004   8.026 -0.1446  0.1529  0.4711
18373SOL    HW260250   9.897  10.897   7.989  1.2836  0.7490  2.5636
18374SOL     OW60251  11.142   3.169   3.707 -0.6048 -0.3367 -0.0637
18374SOL    HW160252  11.076   3.218   3.756 -0.8113  1.7825 -2.3846
18374SOL    HW260253  11.222   3.181   3.757 -0.6748  2.3539 -0.5247
18375SOL     OW60254  10.459   7.910   2.136 -0.0950  0.4079 -0.2290
18375SOL    HW160255  10.536   7.858   2.160  0.1113  0.8840  0.1732
18375SOL    HW260256  10.482   7.948   2.051 -1.6364 -2.8701 -2.1858
18376SOL     OW60257   1.599   6.000   0.222 -0.5192 -0.4265 -0.3163
18376SOL    HW160258   1.547   5.922   0.242 -1.9650 -0.0538 -2.4438
18376SOL    HW260259   1.535   6.072   0.220  0.3582  0.3440 -1.1784
18377SOL     OW60260   8.108  10.433   2.668 -0.2521  0.2087 -0.0962
18377SOL    HW160261   8.104  10.475   2.754  1.1550  2.8025 -1.2651
18377SOL    HW260262   8.191  10.386   2.667  0.5309  1.5915 -0.6593
18378SOL     OW60263   8.972   7.957   5.132 -0.3379 -0.0299 -0.5840
18378SOL    HW160264   8.995   7.907   5.054  0.8007  0.3505 -0.4948
18378SOL    HW260265   8.890   8.000   5.109  0.2873  0.5411 -1.7789
18379SOL     OW60266   3.041   1.245   9.577  0.4757 -0.5487 -0.2149
18379SOL    HW160267   3.000   1.262   9.492 -1.1071 -0.2587  0.5842
18379SOL    HW260268   3.051   1.332   9.616  1.2563 -0.6760 -0.1299
18380SOL     OW60269   1.348   7.596   7.689  0.1989 -0.3344 -0.3751
18380SOL    HW160270   1.309   7.588   7.776  1.8505  1.0307  0.5311
18380SOL    HW260271   1.292   7.659   7.643 -0.1989 -0.4159 -0.0080
18381SOL     OW60272   1.567   8.229   3.009  0.0008  0.2924 -0.5019
18381SOL    HW160273   1.543   8.236   2.917  0.6653  1.2047 -0.6158
18381SOL    HW260274   1.487   8.251   3.057 -0.5957 -1.0826 -0.8527
18382SOL     OW60275   8.273   7.962   4.269 -0.2307 -0.1016  0.1743
18382SOL    HW160276   8.334   8.035   4.262 -1.6216  0.9773 -1.3581
18382SOL    HW260277   8.319   7.896   4.320  2.2920  0.5929 -1.1081
18383SOL     OW60278   0.116  10.278   7.938 -0.4603  0.0619  0.6918
18383SOL    HW160279   0.077  10.198   7.973 -0.0234  0.1375  1.3567
18383SOL    HW260280   0.053  10.308   7.872 -1.0980 -0.2993  1.1237
18384SOL     OW60281   7.236   6.634   1.801 -0.1563 -0.1613  0.9644
18384SOL    HW160282   7.330   6.615   1.796 -0.3350 -0.7388 -0.5417
18384SOL    HW260283   7.216   6.628   1.894  1.4168  0.5671  1.3795
18385SOL     OW60284   9.768   5.257   2.005  0.5525 -0.0102  0.3295
18385SOL    HW160285   9.818   5.298   1.935  0.8700  1.6126  1.4724
18385SOL    HW260286   9.746   5.329   2.064 -0.3312 -1.2271  1.5143
18386SOL     OW60287   8.710   3.018   3.288  0.2365  0.1049 -0.3139
18386SOL    HW160288   8.743   3.089   3.343 -1.6015 -0.6514  1.8764
18386SOL    HW260289   8.618   3.008   3.315 -0.0335 -1.8651 -1.8657
18387SOL     OW60290   5.135   1.454   6.126 -0.1926 -0.0088 -0.3453
18387SOL    HW160291   5.115   1.484   6.038  0.6146 -3.0650 -1.6399
18387SOL    HW260292   5.194   1.520   6.161 -0.8570  1.4560 -1.9206
18388SOL     OW60293   2.379   4.471   8.829 -0.9255 -0.4909 -0.2146
18388SOL    HW160294   2.298   4.422   8.841 -0.1598 -2.0694 -1.3826
18388SOL    HW260295   2.393   4.473   8.735 -0.1922  0.7426 -0.0947
18389SOL     OW60296   1.989   8.543   9.825  0.2858  0.5378  0.1141
18389SOL    HW160297   1.949   8.560   9.739  0.1889 -0.4334 -0.0351
18389SOL    HW260298   1.922   8.496   9.874  0.9461 -0.3723  0.1478
18390SOL     OW60299   3.667   3.937   2.698  0.4939 -0.2461 -0.6927
18390SOL    HW160300   3.575   3.949   2.672 -0.7010 -0.8472  2.9388
18390SOL    HW260301   3.705   4.025   2.694 -1.1569  0.5774  0.7999
18391SOL     OW60302   5.326   8.229   6.881 -0.1570  1.0117 -0.3359
18391SOL    HW160303   5.379   8.164   6.928  0.0290  0.5776 -1.1455
18391SOL    HW260304   5.238   8.219   6.918 -0.1797  0.1412 -0.6098
18392SOL     OW60305   8.324   9.429   0.961 -0.3932 -0.4668  0.1272
18392SOL    HW160306   8.326   9.405   1.053  1.7999  2.2186  0.8566
18392SOL    HW260307   8.285   9.517   0.959  0.2323 -0.1974 -1.4303
18393SOL     OW60308   5.523   2.080   3.363 -0.0649  0.2292  0.2638
18393SOL    HW160309   5.549   2.051   3.275 -0.3659 -0.4076  0.3871
18393SOL    HW260310   5.566   2.018   3.422  1.0276  1.3059  0.6171
18394SOL     OW60311   0.269   6.036   7.158 -0.1482  0.2010  0.1374
18394SOL    HW160312   0.197   6.075   7.109 -0.1509 -0.8639 -0.7410
18394SOL    HW260313   0.231   6.011   7.242 -0.5505  0.5741  0.0651
18395SOL     OW60314   9.998   9.560   0.882 -0.2391  0.3557 -0.3735
18395SOL    HW160315  10.037   9.566   0.795 -1.3340 -0.1074 -0.9058
18395SOL    HW260316   9.935   9.488   0.876  1.3422 -1.2898  1.4682
18396SOL     OW60317   4.523   3.483   7.450  0.3780  0.0159 -0.2560
18396SOL    HW160318   4.518   3.535   7.370 -0.6878 -0.5362 -0.5677
18396SOL    HW260319   4.432   3.456   7.465  0.3791  1.0308  1.7501
18397SOL     OW60320   6.853   4.360   5.189  0.2034 -0.2085 -0.1273
18397SOL    HW160321   6.882   4.356   5.098 -1.1375 -0.2697 -0.5612
18397SOL    HW260322   6.920   4.413   5.233 -0.7594  2.5122 -1.8111
18398SOL     OW60323   9.942   6.123   4.590  0.0531 -0.2450 -0.0945
18398SOL    HW160324   9.979   6.081   4.513 -0.0277 -0.7551  0.1385
18398SOL    HW260325  10.014   6.172   4.628  1.5262 -3.9658  2.2946
18399SOL     OW60326   6.818   8.381   5.561 -0.1121  0.0273  0.6830
18399SOL    HW160327   6.744   8.321   5.563  0.6710 -0.9617  0.0888
18399SOL    HW260328   6.851   8.376   5.472  0.1051  1.1772  0.6884
18400SOL     OW60329   6.790   3.336   3.436 -0.4744  0.0372 -0.3009
18400SOL    HW160330   6.749   3.262   3.391 -1.3805  0.0310  0.4962
18400SOL    HW260331   6.767   3.412   3.384 -1.1227 -0.0264 -0.1154
18401SOL     OW60332   8.394   2.867   6.305  0.3392  0.3185  0.2015
18401SOL    HW160333   8.332   2.834   6.240 -0.4461 -0.7638  1.4751
18401SOL    HW260334   8.466   2.804   6.303  0.4441  0.4389  0.2027
18402SOL     OW60335   0.433   3.733   6.519  0.4709 -0.2670 -0.7375
18402SOL    HW160336   0.387   3.815   6.537  0.2427 -0.6433  0.4542
18402SOL    HW260337   0.469   3.706   6.604  1.8828 -0.6006 -1.4149
18403SOL     OW60338   1.846   8.111   5.094 -0.6322  0.4341 -0.0123
18403SOL    HW160339   1.879   8.180   5.035 -0.4655  0.4437  0.0919
18403SOL    HW260340   1.796   8.158   5.160  0.1565  0.5350  0.5248
18404SOL     OW60341   2.571   1.587  11.296  0.1740  0.1374  0.5080
18404SOL    HW160342   2.490   1.635  11.316  1.1896  1.3430  1.8500
18404SOL    HW260343   2.557   1.501  11.336 -1.2066 -0.3531 -0.9466
18405SOL     OW60344   3.646   1.734   7.400  0.2112 -0.0576 -0.4030
18405SOL    HW160345   3.719   1.673   7.405  0.3016  0.0795 -0.0512
18405SOL    HW260346   3.591   1.712   7.475  0.8030  1.0036  0.3686
18406SOL     OW60347   2.512   5.867   7.475 -0.4214 -0.2684 -0.7337
18406SOL    HW160348   2.603   5.841   7.487 -0.0687  0.7437 -1.1771
18406SOL    HW260349   2.463   5.785   7.478  0.6624 -0.9679 -2.0576
18407SOL     OW60350   8.767   4.456   7.807 -0.9502  0.0609 -0.1329
18407SOL    HW160351   8.677   4.466   7.839 -0.5306  3.4192  0.1848
18407SOL    HW260352   8.779   4.530   7.747  1.7419 -0.1239  0.1291
18408SOL     OW60353   6.007   2.358   9.844 -0.1549 -0.1907  0.1323
18408SOL    HW160354   6.012   2.358   9.940  1.6284  1.0708  0.0696
18408SOL    HW260355   5.923   2.318   9.824 -0.6908 -0.1655  2.2436
18409SOL     OW60356   7.454   4.237   7.899  0.1160 -0.6032  0.2063
18409SOL    HW160357   7.504   4.286   7.834 -1.0187 -0.8258 -0.8457
18409SOL    HW260358   7.390   4.299   7.933 -0.0921 -0.8302  0.2312
18410SOL     OW60359   0.513   6.169   7.151  0.0295 -0.0617 -0.1252
18410SOL    HW160360   0.429   6.124   7.139 -0.0692 -0.7180  2.6579
18410SOL    HW260361   0.494   6.261   7.135 -0.9256 -0.3654 -0.7771
18411SOL     OW60362   3.173   7.877   2.745  0.2803  0.0231  0.4012
18411SOL    HW160363   3.160   7.932   2.822 -0.1238  0.8279 -0.2419
18411SOL    HW260364   3.087   7.839   2.729  0.2341  0.2944  0.0127
18412SOL     OW60365   9.445  10.716   0.089 -0.0502  1.1316 -0.5906
18412SOL    HW160366   9.498  10.795   0.099  4.2435 -1.3821 -1.8566
18412SOL    HW260367   9.441  10.702  -0.006 -0.1668 -0.4825 -0.3679
18413SOL     OW60368   6.552   2.805   2.739  0.1534 -0.4892  0.1268
18413SOL    HW160369   6.461   2.778   2.729  0.6374 -1.1502 -2.9612
18413SOL    HW260370   6.549   2.901   2.735 -0.5162 -0.4667  1.1521
18414SOL     OW60371   8.508   7.230   5.635 -0.1866  0.1331 -0.5090
18414SOL    HW160372   8.554   7.155   5.674 -0.4736  0.1553 -0.1254
18414SOL    HW260373   8.545   7.306   5.679 -0.1484  0.1948 -0.6474
18415SOL     OW60374   8.161   1.588   4.340 -0.2852  0.1364  0.3451
18415SOL    HW160375   8.129   1.558   4.425  0.7627  0.8179  0.9961
18415SOL    HW260376   8.196   1.675   4.357 -0.2430  0.3571 -0.8293
18416SOL     OW60377   9.095   7.707   9.920 -0.0856 -0.3872  0.1925
18416SOL    HW160378   9.063   7.790   9.955  0.2849 -0.3053  0.3341
18416SOL    HW260379   9.025   7.677   9.862 -0.0421  0.2345 -0.1854
18417SOL     OW60380   8.720   2.269   6.590 -0.0892  0.1870 -0.3711
18417SOL    HW160381   8.745   2.177   6.593  0.0629  0.2094 -0.8748
18417SOL    HW260382   8.717   2.296   6.682 -2.3955 -0.9034 -0.1144
18418SOL     OW60383  11.009   4.047   7.214  0.5311 -0.0710  0.1477
18418SOL    HW160384  10.925   4.005   7.232  0.9032 -0.5105  0.8400
18418SOL    HW260385  11.012   4.122   7.274  1.3166 -0.9492  1.2183
18419SOL     OW60386   0.352   1.450   3.928 -0.1985  0.1473  0.1018
18419SOL    HW160387   0.354   1.393   3.851 -0.9474 -0.0598  0.2304
18419SOL    HW260388   0.434   1.500   3.923 -0.5582  0.6354 -1.2045
18420SOL     OW60389   2.744   1.145   7.368 -0.4804 -0.0518 -0.3089
18420SOL    HW160390   2.697   1.212   7.319 -0.8428 -0.0847 -0.0119
18420SOL    HW260391   2.829   1.139   7.325 -0.7157  0.0696 -0.8034
18421SOL     OW60392   6.037   9.579   1.634 -0.0212 -0.1781  0.0583
18421SOL    HW160393   6.083   9.499   1.610 -1.1753 -0.6277 -0.7147
18421SOL    HW260394   5.986   9.602   1.557 -1.3043  0.1429  0.9715
18422SOL     OW60395   3.390   2.204   4.525 -0.3222 -0.0126  0.5406
18422SOL    HW160396   3.353   2.131   4.476  3.9250 -1.1355 -1.1352
18422SOL    HW260397   3.364   2.282   4.475  1.3505 -0.9315 -1.8274
18423SOL     OW60398   6.946   8.675   6.152 -0.3180 -0.0805 -0.1840
18423SOL    HW160399   6.897   8.623   6.216 -1.3797  1.3216  0.1579
18423SOL    HW260400   7.034   8.636   6.152 -0.6411 -0.8491  1.2373
18424SOL     OW60401   3.182  10.596  10.401  0.1198  0.3741 -0.0652
18424SOL    HW160402   3.194  10.610  10.495  2.1169  2.6269 -0.6154
18424SOL    HW260403   3.104  10.647  10.380  1.6523  2.7014 -0.2300
18425SOL     OW60404   7.408   7.233   8.179 -0.1517  0.3740 -0.0600
18425SOL    HW160405   7.389   7.179   8.256 -0.8989  0.4185 -0.2030
18425SOL    HW260406   7.498   7.212   8.156 -0.6354 -1.2842 -0.4869
18426SOL     OW60407   8.895   4.536   0.330  0.0171  0.2917  0.1452
18426SOL    HW160408   8.809   4.497   0.317 -0.5023  1.5215 -0.2180
18426SOL    HW260409   8.944   4.512   0.251  0.7951 -2.3620  1.3683
18427SOL     OW60410   0.441   4.823   0.949 -0.3583 -0.2377  0.5326
18427SOL    HW160411   0.387   4.901   0.954 -0.6400 -0.4579  1.0013
18427SOL    HW260412   0.426   4.778   1.032  0.9010 -0.0676  0.8625
18428SOL     OW60413   9.145   1.703   8.412 -0.0872 -0.4008  0.9283
18428SOL    HW160414   9.153   1.687   8.318 -1.9477 -0.4280  0.7487
18428SOL    HW260415   9.116   1.620   8.449  1.2330 -0.5639  1.6315
18429SOL     OW60416  11.277   8.534   7.291 -0.2662 -0.3981  0.2067
18429SOL    HW160417  11.208   8.580   7.339 -0.1181 -2.0119  2.0694
18429SOL    HW260418  11.352   8.535   7.351  0.4214 -1.1277 -0.6264
18430SOL     OW60419   5.512   3.988   6.725 -0.2518  0.2546  0.0745
18430SOL    HW160420   5.582   4.051   6.711 -0.7201  0.8036  0.1776
18430SOL    HW260421   5.433   4.032   6.694 -0.8602  0.4097  1.8108
18431SOL     OW60422   1.258  11.184   3.593  0.2792 -0.4712 -0.4781
18431SOL    HW160423   1.346  11.150   3.602 -0.0655 -1.8477 -2.1187
18431SOL    HW260424   1.252  11.253   3.659  1.4617 -2.5859  1.8875
18432SOL     OW60425   0.133   2.955   7.606  0.7166 -0.2314  0.0965
18432SOL    HW160426   0.089   2.911   7.533  0.4030 -1.3854  0.9743
18432SOL    HW260427   0.222   2.969   7.575  0.1481  0.7802 -1.1339
18433SOL     OW60428   8.664   2.302   6.852 -0.0935 -0.0575  0.1230
18433SOL    HW160429   8.729   2.239   6.884 -0.3639  0.2803  1.3864
18433SOL    HW260430   8.595   2.300   6.918 -0.0962  1.5559  0.1985
18434SOL     OW60431   2.093   1.271   0.829 -0.1565 -0.0883 -0.1983
18434SOL    HW160432   2.151   1.251   0.755 -0.0893 -1.0566  0.1138
18434SOL    HW260433   2.016   1.217   0.815  0.5943 -1.6262  1.3583
18435SOL     OW60434   8.082   9.559   0.687 -0.0323 -0.4005  0.7012
18435SOL    HW160435   8.001   9.604   0.710  0.9268  1.0469  1.3403
18435SOL    HW260436   8.116   9.608   0.612 -0.8328 -2.3309 -0.9688
18436SOL     OW60437   5.934   1.235   5.457 -0.0035 -0.3685  0.4827
18436SOL    HW160438   5.873   1.161   5.453  1.1097 -1.2092 -2.0966
18436SOL    HW260439   5.879   1.313   5.453 -0.9500 -1.1165 -1.5392
18437SOL     OW60440   9.545   4.386   9.328  0.1605 -0.5610 -0.2744
18437SOL    HW160441   9.525   4.478   9.348 -0.3702 -0.7965  0.2689
18437SOL    HW260442   9.640   4.385   9.316  0.2333 -0.0336  0.1979
18438SOL     OW60443  11.271   1.403   5.561 -0.4175  0.1639 -0.3258
18438SOL    HW160444  11.205   1.336   5.545  0.8053 -1.5849  1.7598
18438SOL    HW260445  11.352   1.366   5.526  0.1792  0.7302  0.4426
18439SOL     OW60446   8.475  10.450   5.373 -0.0543 -0.0272  0.5843
18439SOL    HW160447   8.395  10.457   5.425 -0.6297 -2.5598  0.0947
18439SOL    HW260448   8.528  10.384   5.417  1.7510  1.5617  0.8501
18440SOL     OW60449  10.071   5.670   9.945  0.0911  0.3215  0.1427
18440SOL    HW160450  10.123   5.617   9.885  0.3863  0.0862  0.6146
18440SOL    HW260451  10.125   5.679  10.023 -0.2675  0.6890  0.3504
18441SOL     OW60452   1.680   4.522   9.427 -0.5635  0.3869  0.0407
18441SOL    HW160453   1.767   4.511   9.388 -0.8898 -0.3735 -0.4782
18441SOL    HW260454   1.687   4.484   9.514  0.3807  2.7456  1.0486
18442SOL     OW60455   8.452   6.097   9.862 -0.1847  0.2156  0.4481
18442SOL    HW160456   8.428   6.161   9.795  0.5311 -0.6848 -0.6735
18442SOL    HW260457   8.368   6.063   9.893 -0.5024 -0.0382 -0.6555
18443SOL     OW60458   2.005  10.770   8.988 -0.4660 -0.1232 -0.0440
18443SOL    HW160459   2.069  10.704   9.012 -1.0045 -0.0655  1.6127
18443SOL    HW260460   2.052  10.853   8.992 -0.0243 -0.3119 -1.2303
18444SOL     OW60461   7.836   8.913   9.162  0.6788  0.3359 -0.0680
18444SOL    HW160462   7.834   8.968   9.083 -2.4192  0.0388 -0.2655
18444SOL    HW260463   7.913   8.856   9.150 -0.5454 -0.7030 -3.6030
18445SOL     OW60464   1.120   4.152   9.488  0.4338 -0.7152 -0.2170
18445SOL    HW160465   1.153   4.215   9.552  1.4154  0.2904 -1.6778
18445SOL    HW260466   1.165   4.071   9.509  0.3947 -0.5129  0.6607
18446SOL     OW60467   3.629   8.633   1.110  0.1703  0.0299  1.0528
18446SOL    HW160468   3.701   8.696   1.110  0.9260 -0.7883 -0.7704
18446SOL    HW260469   3.672   8.549   1.127 -0.1794 -0.6103 -1.0864
18447SOL     OW60470   5.819   8.279   3.888  0.4881  0.3653  0.1053
18447SOL    HW160471   5.865   8.195   3.885 -1.3705 -0.6809  0.0825
18447SOL    HW260472   5.745   8.264   3.947  0.2143  2.0288  0.2035
18448SOL     OW60473   3.153   4.615   6.965  0.2793  0.2764  0.1745
18448SOL    HW160474   3.115   4.536   7.004  0.5276  0.4640  0.7891
18448SOL    HW260475   3.101   4.630   6.886  0.0156 -0.3087  0.2352
18449SOL     OW60476  10.087   5.159   5.482 -0.0170 -0.1977  0.0001
18449SOL    HW160477  10.022   5.098   5.446 -0.2890 -1.6737  2.9265
18449SOL    HW260478  10.170   5.130   5.445 -0.8521  1.5100 -3.5224
18450SOL     OW60479   9.683   2.094   3.859  0.6560  0.2834  0.5225
18450SOL    HW160480   9.774   2.119   3.877  1.3522 -0.1960 -2.1042
18450SOL    HW260481   9.676   2.004   3.891  1.6578 -0.3233 -0.9343
18451SOL     OW60482   0.902   7.688   7.034  0.0089 -0.3434 -0.0600
18451SOL    HW160483   0.809   7.695   7.055  0.1887  0.1852  0.5705
18451SOL    HW260484   0.915   7.750   6.962 -0.0111  0.0123  0.2409
18452SOL     OW60485   1.499   0.879   2.685  0.0760  0.0924 -0.1142
18452SOL    HW160486   1.513   0.875   2.590 -0.8008 -1.3493 -0.1958
18452SOL    HW260487   1.420   0.931   2.695 -0.8687 -1.2701 -0.2980
18453SOL     OW60488   1.752   5.109  11.118 -0.1159 -0.2697  0.2351
18453SOL    HW160489   1.784   5.102  11.208 -0.7264 -1.1313  0.3936
18453SOL    HW260490   1.804   5.045  11.070  1.7526  1.7282 -0.4931
18454SOL     OW60491   6.954   6.904   8.992 -0.5637  0.5283 -0.1982
18454SOL    HW160492   6.931   6.839   9.058 -1.2142 -0.3041 -1.2073
18454SOL    HW260493   6.905   6.982   9.017 -1.2055  0.0598  0.0218
18455SOL     OW60494   3.400   2.369  10.606  0.3470  0.0716  0.3482
18455SOL    HW160495   3.349   2.432  10.657  1.9163  0.1154  1.9093
18455SOL    HW260496   3.480   2.416  10.581 -0.3220  0.0016 -2.0563
18456SOL     OW60497  10.550  10.015   7.811  0.3010 -0.8219  0.0690
18456SOL    HW160498  10.643  10.038   7.814  0.2999 -0.7209 -0.5217
18456SOL    HW260499  10.527  10.022   7.718  0.2636 -3.0667 -0.1271
18457SOL     OW60500   6.917   8.195  10.997  0.2861  0.9086  0.1280
18457SOL    HW160501   6.883   8.238  11.075 -1.4409 -1.8753  0.9474
18457SOL    HW260502   6.963   8.118  11.029 -1.0496 -0.6554 -1.6352
18458SOL     OW60503   2.678   7.625   4.593 -0.5495 -0.4091 -0.1612
18458SOL    HW160504   2.753   7.661   4.640  0.2414 -2.3062  0.0697
18458SOL    HW260505   2.690   7.654   4.503 -1.3093  2.0348  0.4699
18459SOL     OW60506   5.704   2.913   9.808 -0.3884  0.5633  0.9575
18459SOL    HW160507   5.692   2.908   9.713 -1.0746 -0.0640  1.0683
18459SOL    HW260508   5.794   2.944   9.819  0.8641 -2.5281  0.0984
18460SOL     OW60509   3.400   5.500   6.460  0.3006 -0.2843  0.2615
18460SOL    HW160510   3.308   5.502   6.433  0.6128 -2.0023 -1.0147
18460SOL    HW260511   3.435   5.585   6.433 -0.4034 -0.4348 -1.1329
18461SOL     OW60512   4.406   5.324   8.663 -0.3323  0.3316 -0.1098
18461SOL    HW160513   4.338   5.293   8.723  0.6196  1.6704  1.6943
18461SOL    HW260514   4.389   5.418   8.656  0.8310  0.5230 -0.3049
18462SOL     OW60515   1.250   9.365   8.915  0.3736 -0.3588  0.0994
18462SOL    HW160516   1.277   9.453   8.888 -0.1094  0.1695  1.3017
18462SOL    HW260517   1.319   9.337   8.976  0.3515 -0.6759 -0.0214
18463SOL     OW60518   0.619   6.985   6.870 -0.5099 -0.0986 -0.1598
18463SOL    HW160519   0.557   7.022   6.932 -0.0413  0.1353  0.1716
18463SOL    HW260520   0.635   6.896   6.902 -0.9060 -0.2623 -0.4171
18464SOL     OW60521   3.379   9.647   8.936 -0.4348 -0.1564 -0.7702
18464SOL    HW160522   3.320   9.673   8.865  1.2439 -0.1232 -2.1818
18464SOL    HW260523   3.414   9.730   8.968 -2.1724 -0.0732  1.0021
18465SOL     OW60524   6.779   0.896   4.484  0.0471  0.0121  0.1781
18465SOL    HW160525   6.805   0.845   4.560  0.4413 -1.3426 -0.8422
18465SOL    HW260526   6.771   0.832   4.414 -0.6420  1.1912 -0.8469
18466SOL     OW60527   1.294   6.600   2.340  0.0478 -0.1782 -0.1604
18466SOL    HW160528   1.327   6.585   2.252 -0.2421 -0.7632 -0.1721
18466SOL    HW260529   1.238   6.678   2.333 -0.7725 -0.8069 -0.6971
18467SOL     OW60530   3.013   4.895   9.760  0.4746  0.1692  0.5536
18467SOL    HW160531   3.086   4.936   9.806  0.0629  1.1407  0.3564
18467SOL    HW260532   3.007   4.942   9.677 -1.2943  1.1179  1.1849
18468SOL     OW60533   7.892   9.276   0.685 -0.1705 -0.1501  0.4387
18468SOL    HW160534   7.879   9.301   0.593 -0.2090  1.3438  0.8279
18468SOL    HW260535   7.888   9.181   0.685 -0.5862 -0.1493 -1.0512
18469SOL     OW60536   7.538   2.597   6.518 -0.2766  0.2597  0.2941
18469SOL    HW160537   7.468   2.645   6.475  1.5631  1.7660 -1.1536
18469SOL    HW260538   7.537   2.510   6.479 -0.8745  0.5099 -0.2408
18470SOL     OW60539  11.185   3.384   8.826  0.1460  0.6200 -0.4360
18470SOL    HW160540  11.279   3.388   8.843 -0.1770 -0.2755  1.7416
18470SOL    HW260541  11.169   3.291   8.808 -0.5524  0.5108  0.7262
18471SOL     OW60542   5.753   6.914   2.597  0.5712 -0.6605 -0.2351
18471SOL    HW160543   5.664   6.891   2.573  1.0810 -1.7451 -1.1586
18471SOL    HW260544   5.745   6.993   2.651 -1.0446 -1.5374  0.8495
18472SOL     OW60545   1.254   0.553   0.551 -0.2654 -0.8180  0.5350
18472SOL    HW160546   1.307   0.608   0.494  1.3278 -1.1481  1.6433
18472SOL    HW260547   1.278   0.463   0.528 -3.0026 -1.1053 -1.4057
18473SOL     OW60548   2.972   0.824   0.665  0.1782  0.1462  0.0781
18473SOL    HW160549   3.032   0.826   0.740  0.4157  2.9708 -0.1330
18473SOL    HW260550   2.891   0.864   0.698  0.5838  2.2244 -1.3763
18474SOL     OW60551   7.257   1.262   2.274 -0.2304  0.3438 -0.7295
18474SOL    HW160552   7.245   1.185   2.218 -0.5789  0.3930 -0.7247
18474SOL    HW260553   7.349   1.286   2.262 -0.1739  0.0528 -0.8935
18475SOL     OW60554  11.006  10.123   8.097 -0.2537 -0.6663 -0.0801
18475SOL    HW160555  11.063  10.051   8.069  0.8668 -0.1414  0.8448
18475SOL    HW260556  11.057  10.202   8.081  0.2668 -0.3319  3.0766
18476SOL     OW60557   0.416   3.134   6.392  0.6321 -0.4560 -0.0767
18476SOL    HW160558   0.373   3.162   6.312  1.2479 -1.5013 -0.7816
18476SOL    HW260559   0.500   3.097   6.363  0.7808 -1.0206  1.0288
18477SOL     OW60560   1.519  10.504   8.400  1.2376 -0.1290  0.5091
18477SOL    HW160561   1.565  10.420   8.400  1.0511 -0.2311  1.1122
18477SOL    HW260562   1.480  10.510   8.487  0.2667  0.0461  0.0691
18478SOL     OW60563   5.470   5.548   8.754 -0.2822  0.1504 -0.0847
18478SOL    HW160564   5.475   5.488   8.679  0.9840 -0.6126  0.5952
18478SOL    HW260565   5.468   5.635   8.715  0.1138 -0.2474 -1.0215
18479SOL     OW60566   5.070   3.324   2.048 -0.2176 -0.8807  0.0847
18479SOL    HW160567   5.009   3.266   2.002 -0.4284 -1.5796  1.2415
18479SOL    HW260568   5.048   3.411   2.015 -0.4499 -1.3531 -1.0489
18480SOL     OW60569  10.420   0.663   8.742  0.2361 -0.4118  0.2325
18480SOL    HW160570  10.383   0.658   8.830 -0.4019 -0.8522 -0.0619
18480SOL    HW260571  10.381   0.589   8.695  1.7256 -1.0881  0.0165
18481SOL     OW60572   0.629   4.201   2.706 -0.5187  0.0012  0.6192
18481SOL    HW160573   0.720   4.229   2.702  0.3941 -2.8866 -0.7064
18481SOL    HW260574   0.622   4.151   2.788 -0.8132 -0.0686  0.5545
18482SOL     OW60575   3.511  10.914   8.552  0.1181  0.5806  0.1207
18482SOL    HW160576   3.423  10.953   8.546 -0.7556 -1.5774 -1.9026
18482SOL    HW260577   3.545  10.917   8.463  1.6367  0.3071  0.6735
18483SOL     OW60578   8.513   4.778   6.221  0.5147 -0.1981  0.0160
18483SOL    HW160579   8.570   4.783   6.298  1.6444  1.8218 -0.9171
18483SOL    HW260580   8.497   4.869   6.197 -2.4084 -0.7428 -0.2898
18484SOL     OW60581   8.460   2.636   0.992  0.6848  0.1914  0.4727
18484SOL    HW160582   8.439   2.551   0.953  0.0229  1.0737 -1.1287
18484SOL    HW260583   8.548   2.625   1.027 -0.1456 -1.7656  2.0741
18485SOL     OW60584   5.391   4.494   8.937  0.1818  0.2882 -0.3508
18485SOL    HW160585   5.311   4.539   8.964  0.0517  0.7044 -1.4073
18485SOL    HW260586   5.459   4.561   8.943  0.2916  0.1739 -0.3171
18486SOL     OW60587   4.703   3.845   6.721  0.2661 -0.1581 -0.0897
18486SOL    HW160588   4.617   3.885   6.706  0.8515  1.7179  1.2566
18486SOL    HW260589   4.766   3.914   6.699  1.5031 -1.9280 -2.3116
18487SOL     OW60590   6.068   7.757   2.096  0.0534  0.0877 -0.0860
18487SOL    HW160591   6.090   7.823   2.030  0.6988 -0.4452 -0.4167
18487SOL    HW260592   6.064   7.675   2.046 -1.1732 -0.0511  0.2413
18488SOL     OW60593   8.091   6.886   1.820  0.4717  0.6350  0.7152
18488SOL    HW160594   8.010   6.927   1.849 -0.5218 -0.8017  0.0237
18488SOL    HW260595   8.090   6.798   1.859  1.4814  0.4403  0.3413
18489SOL     OW60596   0.248  10.798   8.353  0.1411  0.6946  0.7415
18489SOL    HW160597   0.239  10.704   8.339  0.3420  0.1647  3.8633
18489SOL    HW260598   0.331  10.821   8.311 -0.1578 -0.3879 -0.4783
18490SOL     OW60599   7.358   3.072   1.587  0.0997  0.7100 -0.6044
18490SOL    HW160600   7.384   3.149   1.537  1.1958  0.2847 -0.7057
18490SOL    HW260601   7.438   3.020   1.595 -1.0183 -1.3258 -2.1298
18491SOL     OW60602   7.556   0.981   7.342  0.3037 -0.1469 -0.1213
18491SOL    HW160603   7.622   1.050   7.330 -0.5315  1.1625  2.4716
18491SOL    HW260604   7.524   0.963   7.253  4.4047 -1.1323 -1.4941
18492SOL     OW60605   0.991   4.698  10.922  0.2717 -0.0164  0.3835
18492SOL    HW160606   1.005   4.625  10.862  0.8802  0.4567 -0.0643
18492SOL    HW260607   0.929   4.754  10.877  0.6388  0.2801  0.2399
18493SOL     OW60608   7.847   8.588   2.614 -0.2968 -0.0452  0.3660
18493SOL    HW160609   7.853   8.494   2.599 -1.7740 -0.4947  2.3618
18493SOL    HW260610   7.821   8.596   2.705  1.2021  2.3538  0.6251
18494SOL     OW60611   6.111   6.725   0.616  0.2200 -0.3110  0.0788
18494SOL    HW160612   6.207   6.734   0.621  0.3114 -1.3106  0.1025
18494SOL    HW260613   6.097   6.639   0.579 -0.6758  0.4635 -1.4058
18495SOL     OW60614   5.837   4.472   8.993 -0.2964  0.0356  0.4569
18495SOL    HW160615   5.786   4.518   9.059 -0.3959  0.1639  0.2915
18495SOL    HW260616   5.804   4.382   8.994 -0.9140  0.2555 -0.0444
18496SOL     OW60617   5.608   1.745   8.459 -0.0580  0.1218 -0.5594
18496SOL    HW160618   5.577   1.778   8.375  1.1204  0.4746 -0.8596
18496SOL    HW260619   5.549   1.784   8.524 -1.8807 -1.3007 -1.3250
18497SOL     OW60620  10.499   8.451   1.155 -0.3883  0.1595 -0.3319
18497SOL    HW160621  10.412   8.429   1.189 -1.0735 -0.3907 -2.3735
18497SOL    HW260622  10.505   8.404   1.072  1.3564  1.2424 -0.8451
18498SOL     OW60623   2.924   8.959   9.178 -0.1937  0.0961 -0.0707
18498SOL    HW160624   2.840   8.993   9.210 -0.5459 -0.0159 -0.8819
18498SOL    HW260625   2.987   8.983   9.247 -0.8271  0.4689  0.3832
18499SOL     OW60626   4.444   3.785   9.890 -0.6445  0.0705 -0.4472
18499SOL    HW160627   4.493   3.863   9.864 -0.3003 -0.0029 -0.0227
18499SOL    HW260628   4.505   3.712   9.879 -0.8565 -0.1008 -0.5167
18500SOL     OW60629   1.204   6.970   7.333  0.1815 -0.1572  0.3129
18500SOL    HW160630   1.110   6.968   7.351  0.2538 -1.7733  0.6200
18500SOL    HW260631   1.215   7.042   7.271 -1.4484 -0.8038 -0.7739
18501SOL     OW60632   8.208   6.893   6.715  0.1882  0.0243 -0.3527
18501SOL    HW160633   8.178   6.894   6.624 -1.1710  0.3445  0.0925
18501SOL    HW260634   8.132   6.920   6.766  1.8326  2.9941  0.6373
18502SOL     OW60635   8.999   5.638  10.463 -0.0473  0.0809 -0.2526
18502SOL    HW160636   8.916   5.659  10.505  0.2127 -0.1521  0.3886
18502SOL    HW260637   8.976   5.575  10.395 -0.0781 -1.9927  1.6282
18503SOL     OW60638   2.578   5.835   0.429 -0.1562  0.3143 -0.9016
18503SOL    HW160639   2.495   5.788   0.425 -0.5812  1.0676 -1.0433
18503SOL    HW260640   2.591   5.853   0.523 -1.0134  1.7017 -1.0394
18504SOL     OW60641   2.979   9.708   0.949 -0.0108 -0.6195  0.2896
18504SOL    HW160642   3.003   9.640   1.013  0.4889 -1.1950 -0.4987
18504SOL    HW260643   2.967   9.660   0.867  1.0477  0.3296 -0.4324
18505SOL     OW60644   1.892   0.557   6.500  0.0472 -0.4272  0.6503
18505SOL    HW160645   1.956   0.619   6.464 -0.0458 -0.2463  0.7965
18505SOL    HW260646   1.918   0.547   6.592 -1.1161  0.9175  1.1563
18506SOL     OW60647   8.027   7.558   1.894 -0.0268 -0.1274 -0.0777
18506SOL    HW160648   8.111   7.597   1.918 -0.1861  0.4337 -0.4290
18506SOL    HW260649   7.970   7.578   1.969 -0.1135  0.3416 -0.2639
18507SOL     OW60650   7.847   5.639  10.169 -0.8668 -0.4736  0.0294
18507SOL    HW160651   7.834   5.587  10.248 -2.1003 -1.9120 -1.1128
18507SOL    HW260652   7.760   5.645  10.129 -0.3201  0.5631 -1.0434
18508SOL     OW60653  10.257  11.062   2.928 -0.5803  0.4888 -0.1807
18508SOL    HW160654  10.226  10.979   2.894 -0.6514  0.3552  0.2006
18508SOL    HW260655  10.208  11.074   3.010  1.9539 -0.8225  1.6162
18509SOL     OW60656   6.737  10.222   0.198  0.1550 -0.3630 -0.3319
18509SOL    HW160657   6.815  10.277   0.200 -0.5142  0.5975  2.1245
18509SOL    HW260658   6.668  10.278   0.164 -0.8577  0.8991  3.5278
18510SOL     OW60659   7.624  10.019   2.881  0.4371 -0.5855  0.3990
18510SOL    HW160660   7.540  10.065   2.873  1.0922  0.4043 -0.9194
18510SOL    HW260661   7.600   9.931   2.911 -0.8862  0.3753  2.2470
18511SOL     OW60662   0.253   2.248   8.861 -0.2776  0.3513  0.6665
18511SOL    HW160663   0.229   2.270   8.771  0.5696  0.7137  0.5210
18511SOL    HW260664   0.171   2.226   8.904 -0.6981  0.3157 -0.1645
18512SOL     OW60665   3.327   2.940   8.365 -0.0829  0.0574 -0.1208
18512SOL    HW160666   3.327   2.991   8.446 -0.4352  3.5733 -2.2598
18512SOL    HW260667   3.251   2.883   8.372 -1.1397  1.6076  1.2733
18513SOL     OW60668   8.058   3.032  11.009 -0.0251  0.2114 -0.2520
18513SOL    HW160669   8.040   3.118  11.047  0.3682 -0.3815  1.2910
18513SOL    HW260670   7.975   3.005  10.970 -1.0095 -0.0804  1.9803
18514SOL     OW60671   0.050  10.283   8.236  0.2809  0.3188  0.1857
18514SOL    HW160672   0.097  10.211   8.278 -1.1571 -0.6693  0.1267
18514SOL    HW260673   0.044  10.258   8.144  0.1254  0.7188  0.0827
18515SOL     OW60674   4.720  10.280  11.094  0.0104 -0.6815 -0.7526
18515SOL    HW160675   4.725  10.370  11.062  0.6708  0.2701  1.9365
18515SOL    HW260676   4.639  10.276  11.143  0.6626 -1.1569  0.3055
18516SOL     OW60677   6.285   1.140   3.411  0.6597 -0.1875  0.5076
18516SOL    HW160678   6.247   1.131   3.499  1.3768 -0.5802  0.7772
18516SOL    HW260679   6.210   1.159   3.355 -0.1234 -2.1968  0.8372
18517SOL     OW60680   2.983  10.529   4.671 -0.5878 -0.7226  0.1533
18517SOL    HW160681   2.982  10.603   4.610 -2.7657  0.2332  1.2548
18517SOL    HW260682   2.976  10.452   4.616  1.0486 -0.0739 -0.9903
18518SOL     OW60683   5.279   2.039   6.621 -0.4543  0.1237  0.4402
18518SOL    HW160684   5.202   2.078   6.580 -0.0767  0.5674  0.1374
18518SOL    HW260685   5.313   2.107   6.679  0.0036  0.1263  0.1777
18519SOL     OW60686   8.680   5.292  10.375 -0.0238  0.3488 -0.3939
18519SOL    HW160687   8.700   5.260  10.287  2.6020 -0.3839  0.4049
18519SOL    HW260688   8.679   5.213  10.430 -1.3500  0.8299  0.2973
18520SOL     OW60689   1.166  11.074   6.384  0.5383  0.1957  0.0589
18520SOL    HW160690   1.174  11.170   6.390 -0.0620  0.2064  0.7647
18520SOL    HW260691   1.120  11.060   6.301  1.4438  0.4696 -0.4989
18521SOL     OW60692   1.244   9.280   7.131  0.6176 -0.3408  0.3671
18521SOL    HW160693   1.243   9.340   7.206 -0.0765  0.8400 -0.5866
18521SOL    HW260694   1.153   9.276   7.101  0.5783 -2.2030  0.6724
18522SOL     OW60695   8.123   4.477   7.471  0.7585 -0.3732 -0.4677
18522SOL    HW160696   8.069   4.491   7.549  1.0584 -0.7182 -0.1995
18522SOL    HW260697   8.099   4.549   7.413 -0.1380 -0.6232 -0.4298
18523SOL     OW60698   4.265   4.752   4.036 -0.0376  0.5090  0.1381
18523SOL    HW160699   4.213   4.807   3.977 -0.7909 -1.4861 -1.0932
18523SOL    HW260700   4.215   4.751   4.118 -1.4271 -0.5048 -0.6879
18524SOL     OW60701   8.973   9.946   4.937  0.4088 -0.4102 -0.5112
18524SOL    HW160702   8.958   9.984   5.023 -0.4679 -1.3385 -0.2459
18524SOL    HW260703   9.068   9.944   4.927  0.5312 -1.0353  0.7657
18525SOL     OW60704   8.720   4.150   0.434 -0.2405 -0.4417 -0.1466
18525SOL    HW160705   8.716   4.139   0.339 -1.2687 -0.5601 -0.0963
18525SOL    HW260706   8.684   4.237   0.450  1.7065  0.3600 -0.0060
18526SOL     OW60707   5.531   6.291   2.610  0.6818 -0.3724  0.0737
18526SOL    HW160708   5.567   6.377   2.591 -1.0479  0.5347  0.8243
18526SOL    HW260709   5.597   6.229   2.577  2.5070  1.2291  0.6617
18527SOL     OW60710   7.194   9.457   5.517 -0.0492  0.5368 -0.0185
18527SOL    HW160711   7.113   9.441   5.468 -0.5454  0.7043  0.7445
18527SOL    HW260712   7.262   9.456   5.450 -0.5354 -0.7900 -0.5164
18528SOL     OW60713  11.225   7.546  11.202 -0.1309  0.3322 -0.1359
18528SOL    HW160714  11.212   7.499  11.285 -1.3988 -0.4728 -0.7705
18528SOL    HW260715  11.204   7.481  11.135  1.4407  0.8104 -1.1090
18529SOL     OW60716  10.909  10.925   9.629 -0.0407 -0.1668  0.0285
18529SOL    HW160717  10.902  11.009   9.675  1.6076  0.1030 -0.1629
18529SOL    HW260718  10.932  10.949   9.539  0.3809 -0.8235 -0.0399
18530SOL     OW60719   6.984   1.170   9.597 -0.3683  0.2020  0.3934
18530SOL    HW160720   7.067   1.211   9.570 -0.4328  1.2296  1.6997
18530SOL    HW260721   6.981   1.183   9.692 -1.5998 -0.6444  0.4773
18531SOL     OW60722   6.164   1.376   4.774  0.1239 -0.0934 -0.3608
18531SOL    HW160723   6.231   1.326   4.819 -1.1983  0.3737  2.2022
18531SOL    HW260724   6.144   1.324   4.695  0.5090 -2.3611  0.9992
18532SOL     OW60725   8.033   4.329  10.003 -0.3717  0.2713 -0.3907
18532SOL    HW160726   7.965   4.285  10.055  0.3933 -0.0424  0.3600
18532SOL    HW260727   7.991   4.410   9.973 -0.9175  0.3378  0.5084
18533SOL     OW60728   5.933   3.750   8.401  0.1509  0.1015 -0.2593
18533SOL    HW160729   5.974   3.709   8.478  0.2877  0.9445  0.1206
18533SOL    HW260730   5.922   3.842   8.426  0.6581  0.4899 -1.4406
18534SOL     OW60731   8.814   8.846   2.546  0.1897  0.3200 -0.4166
18534SOL    HW160732   8.820   8.830   2.452 -0.3571  0.4141 -0.4678
18534SOL    HW260733   8.723   8.827   2.569  0.7242 -1.3467  0.4091
18535SOL     OW60734   9.948   0.390   6.229  0.3010  0.1930 -0.3908
18535SOL    HW160735   9.936   0.342   6.146  0.7402 -0.9685  0.2080
18535SOL    HW260736   9.943   0.322   6.296 -0.3496  1.1707  0.5668
18536SOL     OW60737   8.214   9.314   8.340  0.2920  0.0179 -0.1356
18536SOL    HW160738   8.211   9.218   8.336  0.2669  0.0156 -0.0405
18536SOL    HW260739   8.230   9.341   8.249 -1.4200 -0.0062 -0.4676
18537SOL     OW60740   8.939   3.062   4.076 -0.2306 -0.1601 -0.4423
18537SOL    HW160741   8.930   3.047   3.982 -2.0507  0.7108 -0.4307
18537SOL    HW260742   8.919   3.155   4.087  0.9406 -0.0354  0.6928
18538SOL     OW60743   8.833  10.149   1.833  0.0368 -0.5172  0.1060
18538SOL    HW160744   8.856  10.143   1.926  1.2613  1.3065 -0.0394
18538SOL    HW260745   8.790  10.234   1.824 -0.8897 -1.0757 -0.8409
18539SOL     OW60746   2.687   0.299   6.160  0.1203 -0.0186  0.3457
18539SOL    HW160747   2.635   0.222   6.183  0.3808 -0.4212 -0.3769
18539SOL    HW260748   2.656   0.323   6.073 -0.9526  1.5681  1.1576
18540SOL     OW60749   1.926   2.686   3.122  0.0438 -0.6649 -0.1191
18540SOL    HW160750   1.952   2.693   3.214  0.5926 -1.4490 -0.2084
18540SOL    HW260751   1.983   2.747   3.076 -0.7433  0.2897  0.1522
18541SOL     OW60752   9.473   3.572  10.362 -0.3174 -0.1566  0.0605
18541SOL    HW160753   9.466   3.524  10.280 -0.1995  0.7043 -0.4634
18541SOL    HW260754   9.504   3.507  10.425  0.4718 -0.6094 -0.7786
18542SOL     OW60755   8.663   8.619   8.224 -0.2195  0.0993  0.3248
18542SOL    HW160756   8.647   8.568   8.303 -0.3972 -0.8250 -0.2945
18542SOL    HW260757   8.578   8.660   8.204  0.0973  1.1901  1.2038
18543SOL     OW60758   3.612   4.405   7.104  0.7428 -0.2902 -0.1092
18543SOL    HW160759   3.566   4.424   7.023  2.2650  1.1788 -0.6606
18543SOL    HW260760   3.620   4.309   7.106 -1.0040 -0.4549 -0.7227
18544SOL     OW60761   5.444   3.779   3.074  0.2055 -0.1398 -0.4086
18544SOL    HW160762   5.434   3.861   3.025  0.0475  0.5975  0.8508
18544SOL    HW260763   5.533   3.750   3.054  0.5050  0.7076 -0.2942
18545SOL     OW60764   2.864   2.457   4.304  0.0122  0.4972 -0.0845
18545SOL    HW160765   2.803   2.409   4.360 -0.0103  0.2716 -0.3024
18545SOL    HW260766   2.864   2.546   4.340  0.7621  0.1090  0.8857
18546SOL     OW60767   1.904   2.682   0.028 -0.2224 -0.0448  0.1018
18546SOL    HW160768   1.870   2.768   0.003 -3.0495 -0.8101  1.1742
18546SOL    HW260769   1.837   2.645   0.085  0.7394 -3.1497 -0.6775
18547SOL     OW60770   3.447   2.998   9.478  0.3026 -0.4415 -0.3155
18547SOL    HW160771   3.369   2.955   9.442  0.6965 -1.3551 -0.1019
18547SOL    HW260772   3.472   2.944   9.553  1.5781 -0.5923 -0.8283
18548SOL     OW60773   5.477   3.189   5.096  0.1179 -0.0114  0.3618
18548SOL    HW160774   5.397   3.167   5.145 -0.7052  0.5490 -0.7088
18548SOL    HW260775   5.527   3.108   5.094 -0.4688 -0.3958  0.9640
18549SOL     OW60776   3.778   1.331   2.757  0.4980  0.3835 -0.3312
18549SOL    HW160777   3.711   1.268   2.785 -1.0863  1.7202 -1.0116
18549SOL    HW260778   3.771   1.333   2.662  0.1542  1.9694 -0.2872
18550SOL     OW60779  10.745   3.236   9.818 -0.0906 -0.1537  0.3176
18550SOL    HW160780  10.728   3.181   9.742  1.0553  0.2627 -0.2620
18550SOL    HW260781  10.797   3.309   9.783  0.8018 -0.1783  1.5769
18551SOL     OW60782   4.484   0.007   6.618  0.6050 -0.3204 -0.1067
18551SOL    HW160783   4.474   0.097   6.648 -0.8495  0.0813 -1.7162
18551SOL    HW260784   4.479  -0.045   6.698  1.2345  0.9999  0.8175
18552SOL     OW60785  10.491   1.165   1.395 -0.3009  0.2859  0.4639
18552SOL    HW160786  10.481   1.127   1.482  0.1842 -2.4847 -0.6412
18552SOL    HW260787  10.577   1.135   1.366 -1.1819 -0.2848 -1.6388
18553SOL     OW60788   9.554  11.023   1.846 -0.5208 -0.5752 -0.6543
18553SOL    HW160789   9.562  10.962   1.773 -0.4495 -2.9255  1.2914
18553SOL    HW260790   9.597  11.103   1.815 -0.5358 -1.5069 -3.1842
18554SOL     OW60791   6.907   0.426   1.436  0.8344 -0.4357 -0.3922
18554SOL    HW160792   6.977   0.364   1.418  0.9310 -0.5248  0.2787
18554SOL    HW260793   6.937   0.509   1.399 -0.0626 -1.1839 -2.8699
18555SOL     OW60794   5.127   7.399   2.591 -0.4404 -0.5144 -0.0872
18555SOL    HW160795   5.034   7.419   2.577 -0.4754 -0.4586  0.2122
18555SOL    HW260796   5.127   7.331   2.658 -0.3264 -1.6855 -1.2628
18556SOL     OW60797   3.143   3.082   9.566 -0.1102 -0.1166  0.7957
18556SOL    HW160798   3.053   3.050   9.570 -0.6446  1.4208  1.5804
18556SOL    HW260799   3.196   3.006   9.589 -1.1034 -1.4132 -1.0424
18557SOL     OW60800   1.021   8.094   8.039  0.5165 -0.6707  0.9164
18557SOL    HW160801   1.029   8.031   7.968  1.6506  0.4177  0.0554
18557SOL    HW260802   1.041   8.043   8.118 -1.6545 -2.0953  0.5798
18558SOL     OW60803   1.976   4.449   6.624  0.2381  0.2886  0.1876
18558SOL    HW160804   1.999   4.423   6.713 -0.3447 -1.1165 -0.0676
18558SOL    HW260805   1.942   4.369   6.583 -1.8113  1.4878 -0.5358
18559SOL     OW60806   8.889   6.705   3.067  0.1477 -0.2215 -0.7373
18559SOL    HW160807   8.980   6.682   3.085 -0.1346 -0.1921  0.8661
18559SOL    HW260808   8.894   6.787   3.017  1.0443 -1.4562 -2.7383
18560SOL     OW60809   3.555   4.423   8.427 -0.2137 -0.0343 -0.0895
18560SOL    HW160810   3.553   4.506   8.379  1.2964  1.6279  2.5989
18560SOL    HW260811   3.641   4.386   8.406  0.3081  0.5270  1.0384
18561SOL     OW60812   1.560   2.257   5.185 -0.0159 -0.0739  0.0672
18561SOL    HW160813   1.555   2.345   5.221  2.4035  0.0838  0.1116
18561SOL    HW260814   1.575   2.270   5.091 -2.6541 -0.4791 -0.4536
18562SOL     OW60815   9.398  11.193  10.447 -0.0275 -0.0167  0.3474
18562SOL    HW160816   9.373  11.227  10.533 -1.3635  0.5057 -0.2264
18562SOL    HW260817   9.493  11.190  10.449 -0.0763 -1.0315  2.2378
18563SOL     OW60818  10.581   3.329   3.671 -0.2863 -0.3993 -0.1247
18563SOL    HW160819  10.628   3.246   3.679  0.4424 -0.0537 -0.7353
18563SOL    HW260820  10.502   3.317   3.725  1.4070 -0.3303  2.4705
18564SOL     OW60821   3.088  10.081   3.189  0.5194  0.3930 -0.1767
18564SOL    HW160822   3.180  10.072   3.168  0.9050 -0.6219  1.8234
18564SOL    HW260823   3.085  10.083   3.285 -1.6485 -0.9498 -0.1877
18565SOL     OW60824   8.256   9.770   6.243 -0.6970  0.2269 -0.7806
18565SOL    HW160825   8.263   9.756   6.148 -2.1997 -0.7627 -0.7681
18565SOL    HW260826   8.341   9.744   6.278 -0.5059 -0.4681 -1.7404
18566SOL     OW60827   1.134  10.591   9.129  0.3306  0.0606 -0.0352
18566SOL    HW160828   1.088  10.674   9.139  0.4067 -0.1229  2.0947
18566SOL    HW260829   1.111  10.561   9.041 -1.5874  1.1805  0.0550
18567SOL     OW60830   5.061   5.231   8.613  0.3383 -0.6861  0.7539
18567SOL    HW160831   5.078   5.182   8.533 -1.8091  2.0471 -1.4869
18567SOL    HW260832   4.967   5.219   8.629  0.0097  1.6419  0.8189
18568SOL     OW60833   9.149   0.204  10.689 -0.3432  0.0561  0.2972
18568SOL    HW160834   9.177   0.272  10.628  1.6679 -0.4642  0.6011
18568SOL    HW260835   9.098   0.143  10.636 -0.4614  0.7461 -0.3941
18569SOL     OW60836   9.323   8.830  11.135  0.1222 -0.8917  0.4016
18569SOL    HW160837   9.407   8.793  11.161  1.7955  1.7717 -0.9750
18569SOL    HW260838   9.266   8.813  11.210  2.4133 -1.0545  2.1919
18570SOL     OW60839   4.721   8.409   8.576 -0.2077  0.3132 -0.0880
18570SOL    HW160840   4.628   8.422   8.591 -0.0779  0.0907  0.9592
18570SOL    HW260841   4.754   8.495   8.550 -0.3512  0.8288  1.4344
18571SOL     OW60842   6.854   1.601   5.804  0.3334  0.9688 -0.1078
18571SOL    HW160843   6.889   1.643   5.882  2.7921 -2.9287  1.0371
18571SOL    HW260844   6.759   1.602   5.818  0.5701  2.6245  1.6792
18572SOL     OW60845   8.293   7.039   9.534 -0.5163 -0.1902  0.0283
18572SOL    HW160846   8.364   7.069   9.590 -2.0775  0.1480  1.8556
18572SOL    HW260847   8.250   7.119   9.504  2.7173 -0.1188 -5.0135
18573SOL     OW60848   8.539   6.963   4.491  0.3486  0.0123 -0.3069
18573SOL    HW160849   8.554   7.045   4.445  0.0081  0.2397 -0.0123
18573SOL    HW260850   8.555   6.895   4.425 -0.5832  0.3486 -0.8909
18574SOL     OW60851   9.788  11.158   5.249 -0.3510  0.3925 -0.4725
18574SOL    HW160852   9.874  11.199   5.259 -0.5242  0.6203  0.0647
18574SOL    HW260853   9.763  11.177   5.159 -0.8794  2.3143  0.0730
18575SOL     OW60854   1.391   8.052   2.376 -0.6356 -0.3886  0.6650
18575SOL    HW160855   1.469   8.005   2.346 -0.6911 -0.0615 -0.0072
18575SOL    HW260856   1.331   7.984   2.404 -0.3166 -0.6667  0.6780
18576SOL     OW60857   0.821   8.925   6.906  0.1507  0.5123  0.0317
18576SOL    HW160858   0.868   8.907   6.987 -0.2119 -0.0483  0.1210
18576SOL    HW260859   0.793   9.016   6.914  0.2498  0.5044  0.4653
18577SOL     OW60860  10.583  10.529   1.849  0.0637 -0.1233  0.4424
18577SOL    HW160861  10.492  10.557   1.839  0.2620  0.0879 -0.9224
18577SOL    HW260862  10.579  10.434   1.856 -0.1686 -0.2292 -1.0315
18578SOL     OW60863   2.158   9.519   6.597  0.2857  0.2143 -0.5658
18578SOL    HW160864   2.180   9.427   6.611 -0.8139  0.0165 -0.1364
18578SOL    HW260865   2.211   9.566   6.661 -0.2412 -0.2293  0.2051
18579SOL     OW60866   4.960   3.121   4.709 -0.5465  0.4810  0.1466
18579SOL    HW160867   4.873   3.087   4.689 -0.2822 -0.7209  0.9955
18579SOL    HW260868   4.977   3.186   4.641 -1.0430 -1.1278 -1.5476
18580SOL     OW60869   4.426   3.583   4.221 -0.3716  0.1129 -0.1834
18580SOL    HW160870   4.351   3.633   4.252  1.0324  1.1539  1.6126
18580SOL    HW260871   4.456   3.534   4.298  2.5219  1.9030 -0.1082
18581SOL     OW60872   1.838   1.047   1.812 -0.5777  0.2636  0.2027
18581SOL    HW160873   1.747   1.027   1.790  0.8106 -2.7167 -3.4011
18581SOL    HW260874   1.863   0.978   1.874 -1.0987  1.8946  2.2947
18582SOL     OW60875   0.497   0.630   8.852 -0.4947  0.7662  0.0679
18582SOL    HW160876   0.429   0.565   8.865  0.9524 -0.4935  1.6347
18582SOL    HW260877   0.485   0.661   8.762 -1.5718 -1.2476 -0.4936
18583SOL     OW60878   2.855   2.277   4.080 -0.2247 -0.3141 -0.0789
18583SOL    HW160879   2.857   2.355   4.136 -0.1772 -1.1191  1.0630
18583SOL    HW260880   2.810   2.211   4.133 -0.2178 -1.0730 -1.0161
18584SOL     OW60881   2.319   9.065   1.754 -0.3165 -0.2948 -0.5966
18584SOL    HW160882   2.323   9.038   1.662 -1.3577 -0.7782 -0.5049
18584SOL    HW260883   2.292   8.987   1.801  1.5184 -0.4212  0.3175
18585SOL     OW60884   0.384   9.758   7.517 -0.0430 -0.2469 -0.0188
18585SOL    HW160885   0.368   9.852   7.528 -3.2065 -0.8173  0.8496
18585SOL    HW260886   0.474   9.746   7.544  1.1816  2.8836 -2.3643
18586SOL     OW60887  10.102   6.796  11.123 -0.0313 -0.5995  0.2024
18586SOL    HW160888  10.186   6.799  11.077 -0.3633 -0.8558 -0.4325
18586SOL    HW260889  10.069   6.886  11.117 -0.2118 -0.6993 -0.3269
18587SOL     OW60890   9.971   8.661   2.184 -0.0081 -0.3842  0.2554
18587SOL    HW160891   9.923   8.651   2.266  1.0360 -0.7746  0.8177
18587SOL    HW260892  10.012   8.576   2.169  0.7146  0.0202 -0.1002
18588SOL     OW60893   6.813  10.144   4.566 -0.1641  0.0775  0.3125
18588SOL    HW160894   6.743  10.134   4.630  0.2985  3.0571  1.3225
18588SOL    HW260895   6.894  10.141   4.617  0.4125 -1.5801 -0.6388
18589SOL     OW60896   6.602   4.743   9.930 -0.1297  0.0219  0.6125
18589SOL    HW160897   6.690   4.781   9.921  0.6098 -1.6960  0.4934
18589SOL    HW260898   6.563   4.751   9.843 -0.0664  0.6750  0.6363
18590SOL     OW60899   6.837   7.556   5.024  0.4240  0.0845  0.1384
18590SOL    HW160900   6.757   7.527   4.982  0.1597  1.5536 -0.3872
18590SOL    HW260901   6.902   7.489   5.000 -0.6275 -1.1488  0.6344
18591SOL     OW60902   8.355   2.843   0.605  0.1859  0.1893 -0.1268
18591SOL    HW160903   8.284   2.797   0.560 -1.5884  2.5489  0.2144
18591SOL    HW260904   8.348   2.815   0.696  1.6110 -1.8850 -0.6062
18592SOL     OW60905   6.433   6.938   8.909 -0.3854  0.1182 -0.7412
18592SOL    HW160906   6.393   6.997   8.845 -1.1562  0.2874 -0.1078
18592SOL    HW260907   6.375   6.941   8.985  0.0208 -0.8054 -0.3811
18593SOL     OW60908   4.550  10.667   9.822  0.1595  0.4422  0.1261
18593SOL    HW160909   4.488  10.593   9.824 -0.1375  0.6299 -1.3735
18593SOL    HW260910   4.636  10.625   9.820  0.0607  0.1667  1.2553
18594SOL     OW60911   6.526   8.987  10.623 -0.7412 -0.1662 -0.3546
18594SOL    HW160912   6.515   9.010  10.530  0.0809  2.4719  0.1372
18594SOL    HW260913   6.440   9.001  10.661 -0.4919  1.2634 -0.2649
18595SOL     OW60914   1.065   5.940   2.494 -0.0030  0.3802  0.4281
18595SOL    HW160915   1.141   5.949   2.436 -0.4570  2.4365  0.1056
18595SOL    HW260916   1.036   5.850   2.482  0.6749  0.4070 -1.5917
18596SOL     OW60917   8.564   9.189   4.692 -0.6046  0.6134  0.6307
18596SOL    HW160918   8.507   9.259   4.725 -1.9452  0.6811 -1.6945
18596SOL    HW260919   8.504   9.128   4.648  0.7157 -1.2855  1.3970
18597SOL     OW60920   2.207   2.373  10.641 -0.2935  0.2993  0.1503
18597SOL    HW160921   2.277   2.381  10.577 -0.9567  2.3595 -0.3510
18597SOL    HW260922   2.219   2.448  10.699 -1.3794 -0.0009  0.7745
18598SOL     OW60923  10.295   2.598  11.254  0.2361  0.2391 -0.1586
18598SOL    HW160924  10.378   2.551  11.262  0.1773  0.0914 -0.4053
18598SOL    HW260925  10.275   2.626  11.343 -0.6679 -1.7934  0.3082
18599SOL     OW60926   9.564   5.405   3.767  0.6283 -0.3659 -0.4830
18599SOL    HW160927   9.521   5.412   3.852 -1.9196  0.4497 -1.7823
18599SOL    HW260928   9.651   5.444   3.780 -1.1674  3.4521  0.7783
18600SOL     OW60929   3.128   5.709   2.265  0.2298  0.4316  0.2446
18600SOL    HW160930   3.069   5.667   2.201  1.1433  1.0062 -0.9931
18600SOL    HW260931   3.146   5.640   2.329  0.5482 -0.6547 -0.9699
18601SOL     OW60932   5.698   2.755   2.028 -0.1510  0.6822 -0.3287
18601SOL    HW160933   5.743   2.698   1.966  0.9163  2.1737 -0.9529
18601SOL    HW260934   5.741   2.738   2.112  0.0443  0.4338 -0.4780
18602SOL     OW60935  11.140  10.777  10.491  0.3836 -0.1988 -0.2215
18602SOL    HW160936  11.181  10.839  10.551 -1.7687 -0.9948  2.1095
18602SOL    HW260937  11.175  10.802  10.405  1.4677  2.6506  0.9662
18603SOL     OW60938   4.092   3.612  10.491  0.1220  0.4139  0.3085
18603SOL    HW160939   4.015   3.629  10.437  1.0577  1.6010 -0.6950
18603SOL    HW260940   4.165   3.612  10.429  0.8684 -1.2656  1.1601
18604SOL     OW60941  10.591   3.918   4.897 -0.4325 -0.2383 -0.6384
18604SOL    HW160942  10.621   3.929   4.987 -0.0049  1.6630 -1.0037
18604SOL    HW260943  10.566   3.826   4.892 -0.4602 -0.3705  1.4201
18605SOL     OW60944   0.517   3.249   3.498  0.4967 -0.4669 -0.2428
18605SOL    HW160945   0.474   3.235   3.582  1.6362 -0.4043  0.3544
18605SOL    HW260946   0.449   3.230   3.433 -0.4364 -0.3441  0.6871
18606SOL     OW60947  10.360   3.000   4.646 -0.7966  0.5069 -0.0828
18606SOL    HW160948  10.347   2.929   4.708 -0.9242  0.7263  0.1444
18606SOL    HW260949  10.392   2.957   4.567 -0.1375  0.2804  0.2990
18607SOL     OW60950  10.507   8.536   0.817 -0.4556 -0.0503  0.7654
18607SOL    HW160951  10.500   8.510   0.725  2.5270 -0.9210  0.7280
18607SOL    HW260952  10.510   8.453   0.865 -0.2302  0.3770  1.4913
18608SOL     OW60953   1.410  11.199   9.202 -0.2817  0.3735 -0.0346
18608SOL    HW160954   1.481  11.207   9.265 -0.6166  0.5990  0.3202
18608SOL    HW260955   1.399  11.288   9.167 -1.3150  0.6543  0.9420
18609SOL     OW60956   0.130   3.527   1.045 -0.0528 -0.5715  0.2758
18609SOL    HW160957   0.221   3.498   1.044  0.2588  0.2565  2.1912
18609SOL    HW260958   0.090   3.478   1.116 -1.5404 -2.1254 -1.5898
18610SOL     OW60959   5.950  11.221   0.267 -0.0950  0.8316 -0.1375
18610SOL    HW160960   6.036  11.251   0.297 -0.3492  0.7101  0.7510
18610SOL    HW260961   5.894  11.298   0.279 -0.2211  0.7490 -0.2033
18611SOL     OW60962   7.780   5.803   8.807  0.4071 -0.0320  0.3001
18611SOL    HW160963   7.774   5.898   8.809  4.5821  0.4059 -1.7431
18611SOL    HW260964   7.774   5.776   8.898 -0.1328  2.2347  0.9668
18612SOL     OW60965  10.480   7.646  10.801 -0.1642 -0.6826  0.5003
18612SOL    HW160966  10.464   7.713  10.735 -0.9863  0.1380  1.4970
18612SOL    HW260967  10.570   7.661  10.829 -0.1687 -0.3363  0.3354
18613SOL     OW60968   2.310   7.534   7.235  0.0417 -0.0258  0.5379
18613SOL    HW160969   2.379   7.546   7.300 -0.0227  0.2405  0.5606
18613SOL    HW260970   2.228   7.543   7.284 -0.0170 -1.1443  0.6534
18614SOL     OW60971   0.507   0.020   8.351  0.2525 -0.0334 -0.3027
18614SOL    HW160972   0.509   0.112   8.324 -0.0803  0.3745  1.0183
18614SOL    HW260973   0.583   0.010   8.407  0.4486 -0.6394 -0.6783
18615SOL     OW60974   5.803   5.303   6.914 -0.1528 -0.5158  0.5134
18615SOL    HW160975   5.786   5.212   6.940  0.0515 -0.8040 -0.3577
18615SOL    HW260976   5.717   5.345   6.917 -0.3810 -0.9445  0.1335
18616SOL     OW60977   1.299   7.360   2.748 -0.1018  0.7542 -0.6370
18616SOL    HW160978   1.379   7.405   2.719  0.7569  0.6281  1.4146
18616SOL    HW260979   1.294   7.379   2.842 -3.0587  1.5903 -0.9315
18617SOL     OW60980   3.644  11.103   5.593 -0.3623  0.4922  0.0410
18617SOL    HW160981   3.563  11.106   5.542 -0.3316 -1.8431 -0.1892
18617SOL    HW260982   3.708  11.150   5.539 -1.3273  1.5474 -0.1995
18618SOL     OW60983   1.003   7.590   0.633 -0.2688  0.2103  0.2439
18618SOL    HW160984   0.995   7.512   0.579 -0.5537  1.5734 -1.7291
18618SOL    HW260985   1.096   7.612   0.630 -0.7209  2.0205 -2.2660
18619SOL     OW60986   1.058   2.752   9.018 -0.1037 -0.1791 -0.6074
18619SOL    HW160987   1.081   2.699   9.094 -0.8099  0.3135 -0.0561
18619SOL    HW260988   0.979   2.798   9.043  0.1818  0.7060 -1.2986
18620SOL     OW60989   8.397   6.311  10.381 -0.1288  0.0782 -0.7098
18620SOL    HW160990   8.364   6.398  10.404 -0.2105  0.0685 -0.7885
18620SOL    HW260991   8.318   6.257  10.372 -0.2667  0.6385 -3.3253
18621SOL     OW60992   4.564   2.635   1.076  0.4389 -0.3193  0.0551
18621SOL    HW160993   4.475   2.599   1.086  0.2178  0.3647  0.6378
18621SOL    HW260994   4.618   2.559   1.056  0.0722 -1.0864  1.8127
18622SOL     OW60995  10.681   4.268   6.017 -0.0575 -0.2666 -0.3176
18622SOL    HW160996  10.775   4.258   6.009  0.0483  0.3969  0.0517
18622SOL    HW260997  10.657   4.333   5.950  0.1696  1.7467  1.4822
18623SOL     OW60998  10.261   2.281  10.333  0.0360  0.3944 -0.0413
18623SOL    HW160999  10.270   2.277  10.428 -3.0660  2.0328  0.4150
18623SOL    HW261000  10.263   2.190  10.304 -0.8888 -0.2510  1.8442
18624SOL     OW61001   2.155   9.086   2.447  0.2794 -0.4527  0.7086
18624SOL    HW161002   2.106   9.088   2.364 -1.7940 -0.6638  1.8885
18624SOL    HW261003   2.210   9.008   2.440 -0.8190 -1.1901  0.0373
18625SOL     OW61004  10.570  11.328   4.282 -0.0929  0.1367 -0.0736
18625SOL    HW161005  10.626  11.335   4.360 -0.0544 -1.1773  0.0188
18625SOL    HW261006  10.557  11.419   4.254  0.1523  0.6024  1.2815
18626SOL     OW61007   6.214   0.258   7.724  0.0420 -0.1579  0.3729
18626SOL    HW161008   6.181   0.335   7.770  0.4416 -0.4014  1.0625
18626SOL    HW261009   6.134   0.212   7.695 -0.1943  0.8393 -0.6063
18627SOL     OW61010   0.968  10.628   9.822  0.0481 -0.3258  0.0335
18627SOL    HW161011   0.938  10.624   9.913 -0.4277  0.0663 -0.1088
18627SOL    HW261012   0.905  10.575   9.773 -1.5886  2.1122 -0.5786
18628SOL     OW61013   0.910   8.207   9.997  0.4245 -0.4970 -0.7102
18628SOL    HW161014   0.924   8.232   9.906 -1.2932 -0.6347 -1.0305
18628SOL    HW261015   0.816   8.216  10.011  0.6880 -0.2420  1.1313
18629SOL     OW61016   7.989   3.705   4.097 -0.3795  0.5746 -0.5444
18629SOL    HW161017   7.922   3.636   4.098 -0.3453  0.5362  1.9148
18629SOL    HW261018   8.052   3.678   4.163  0.9231  1.7405 -1.2841
18630SOL     OW61019   6.734   1.177   4.377 -0.3633  0.2219  0.4362
18630SOL    HW161020   6.691   1.155   4.295  1.6920  1.3611 -0.9798
18630SOL    HW261021   6.766   1.094   4.412 -2.0664 -0.3835  0.5756
18631SOL     OW61022   7.202   5.088  10.500 -0.7440  0.2325  0.0090
18631SOL    HW161023   7.220   4.995  10.500 -0.4835  0.2839  0.5405
18631SOL    HW261024   7.135   5.100  10.568  0.5095  0.6843  1.1790
18632SOL     OW61025   7.483   6.805   2.843 -0.0590  0.0753 -0.5788
18632SOL    HW161026   7.529   6.809   2.759 -0.0218 -0.0667 -0.5659
18632SOL    HW261027   7.493   6.714   2.871  1.8183  0.6235  0.6260
18633SOL     OW61028   4.201   0.681   7.051 -0.2254  0.5353 -0.2796
18633SOL    HW161029   4.179   0.701   7.142  0.6315  0.0740  0.0383
18633SOL    HW261030   4.135   0.726   6.999 -1.1825  0.1721  0.6071
18634SOL     OW61031   2.843   4.009   1.179  0.0288 -0.2932  0.1160
18634SOL    HW161032   2.907   4.056   1.126 -0.3141 -0.1251 -0.1489
18634SOL    HW261033   2.858   4.041   1.268 -0.8579  1.0539 -0.2066
18635SOL     OW61034   8.828   9.170   5.984 -0.0915 -0.2288  0.5879
18635SOL    HW161035   8.904   9.213   6.023 -1.1473  1.8062  0.4969
18635SOL    HW261036   8.808   9.097   6.043  1.1393 -0.0081  1.2964
18636SOL     OW61037  10.247   5.666   5.102  0.7738 -0.4684 -0.8320
18636SOL    HW161038  10.320   5.722   5.130  0.1491  0.6588 -1.4484
18636SOL    HW261039  10.263   5.650   5.009  0.0605  0.0514 -1.0469
18637SOL     OW61040   3.745   4.739   8.256  0.4412 -0.6052 -0.0943
18637SOL    HW161041   3.767   4.731   8.349  0.4439 -3.1999 -0.2756
18637SOL    HW261042   3.828   4.729   8.210  0.3116 -0.2725 -0.4051
18638SOL     OW61043   1.830   2.009   1.036  0.0652  0.2112  0.1832
18638SOL    HW161044   1.898   1.966   1.088  1.2005  1.9563  0.1708
18638SOL    HW261045   1.829   1.960   0.953  1.4519  0.3067  0.1020
18639SOL     OW61046  11.058   1.032   6.676 -0.5990  0.3291 -0.1877
18639SOL    HW161047  11.075   1.012   6.768  1.4891  0.2035 -0.5777
18639SOL    HW261048  11.111   1.109   6.658  0.9245 -1.0847 -1.9157
18640SOL     OW61049   8.753  11.087   7.186  0.3589  0.5512 -0.4673
18640SOL    HW161050   8.718  11.004   7.155  0.8728  0.4720 -0.8341
18640SOL    HW261051   8.687  11.119   7.249  1.4180 -1.4061  1.7099
18641SOL     OW61052   6.353   1.657   6.188 -0.2811  0.1909 -0.0642
18641SOL    HW161053   6.308   1.741   6.175 -0.0769  0.1500 -1.0689
18641SOL    HW261054   6.444   1.674   6.163 -0.2327 -0.3238 -0.2464
18642SOL     OW61055   4.998   6.371   5.202 -0.2493 -0.0561 -0.4511
18642SOL    HW161056   4.951   6.386   5.284  1.3279 -0.7809  0.6053
18642SOL    HW261057   4.938   6.319   5.148 -1.6697  1.2364 -0.1382
18643SOL     OW61058   9.990   8.986   1.342 -0.0643 -0.3633  0.4466
18643SOL    HW161059   9.899   8.990   1.373  0.1364 -0.0781  1.0171
18643SOL    HW261060  10.032   8.924   1.401 -0.3684 -2.0749 -1.1072
18644SOL     OW61061   8.928   1.739   7.545 -0.5031 -0.1550  0.5495
18644SOL    HW161062   8.935   1.649   7.514 -0.2823  0.2132 -0.4789
18644SOL    HW261063   8.907   1.790   7.467  0.1719  0.8041  0.9818
18645SOL     OW61064   7.094  10.929   1.434  0.0120 -0.3830 -0.0530
18645SOL    HW161065   7.164  10.874   1.467  0.0236  0.6019  1.6420
18645SOL    HW261066   7.018  10.872   1.429  0.8867 -1.4306 -1.8073
18646SOL     OW61067  10.114   2.369   8.815 -0.1284  0.2921  0.1833
18646SOL    HW161068  10.127   2.445   8.759 -0.4776  0.5144  0.4004
18646SOL    HW261069  10.064   2.307   8.761  0.0131  0.2858  0.0638
18647SOL     OW61070   8.322  10.169   6.300 -0.5570 -0.0786  0.2964
18647SOL    HW161071   8.271  10.250   6.308  0.1673  0.3696  0.3964
18647SOL    HW261072   8.403  10.185   6.349 -1.3854 -1.6999  2.2845
18648SOL     OW61073   8.059   0.700   5.464  0.5179 -0.0690 -0.4894
18648SOL    HW161074   8.123   0.725   5.531 -1.0721  0.1761  0.9895
18648SOL    HW261075   8.035   0.610   5.485  0.4931 -0.2135 -1.1214
18649SOL     OW61076   3.497   9.617   1.132  0.5593 -0.4405 -0.1743
18649SOL    HW161077   3.427   9.675   1.103  1.3442  0.8758  0.5609
18649SOL    HW261078   3.475   9.532   1.093 -1.1850  0.0742 -0.3297
18650SOL     OW61079   7.431   8.413   7.982 -0.0371 -0.3361  0.2265
18650SOL    HW161080   7.500   8.394   8.047  1.0951 -0.4572 -0.9876
18650SOL    HW261081   7.436   8.508   7.969  0.1091 -0.3871 -0.0893
18651SOL     OW61082   1.403   9.965   9.811  0.0965 -0.4077 -0.1889
18651SOL    HW161083   1.414  10.058   9.791  1.1292 -0.6533 -0.8242
18651SOL    HW261084   1.309   9.953   9.823 -0.3729  0.1800 -2.8848
18652SOL     OW61085   3.059   1.773   3.104  0.1691 -0.0665 -0.5475
18652SOL    HW161086   2.996   1.702   3.098  0.9265 -1.0310  2.0377
18652SOL    HW261087   3.014   1.842   3.152 -0.5448  1.2519 -2.9996
18653SOL     OW61088   4.212  11.293   9.410  0.7855 -0.0036 -0.1848
18653SOL    HW161089   4.251  11.369   9.454  1.1708  0.1965 -0.8748
18653SOL    HW261090   4.201  11.320   9.319  3.0188 -1.5304 -0.9581
18654SOL     OW61091   6.306   8.120   0.770 -0.7794  0.2961 -0.3432
18654SOL    HW161092   6.398   8.103   0.747 -0.7944  0.4050 -0.4807
18654SOL    HW261093   6.285   8.201   0.725 -1.1631 -0.1174 -0.9160
18655SOL     OW61094  10.477   8.594  11.134  0.1114  0.4035  0.1087
18655SOL    HW161095  10.515   8.579  11.047  0.0615  0.4805  0.0733
18655SOL    HW261096  10.407   8.657  11.118  0.5919  0.9908  0.3244
18656SOL     OW61097   7.445  10.048  10.594 -0.3378  0.1989  0.2827
18656SOL    HW161098   7.414  10.138  10.606  1.0616  1.0557 -2.2611
18656SOL    HW261099   7.540  10.054  10.602 -0.2334 -1.0529  0.0581
18657SOL     OW61100   7.136   6.003   0.728 -0.3085 -0.2503 -0.0951
18657SOL    HW161101   7.112   5.924   0.680 -0.0428  0.4059 -1.3483
18657SOL    HW261102   7.139   6.071   0.660  0.8776  0.5366  0.7390
18658SOL     OW61103   9.848   9.513  10.577  0.4019 -0.0103  0.4521
18658SOL    HW161104   9.893   9.589  10.540 -1.1798  0.9098  0.3906
18658SOL    HW261105   9.897   9.493  10.657 -0.5807  2.5331  1.7204
18659SOL     OW61106   3.435   9.037   8.440  0.7509  0.9694 -0.0735
18659SOL    HW161107   3.343   9.023   8.417  0.0818  3.1903  1.1617
18659SOL    HW261108   3.434   9.055   8.534  2.6409 -0.5462  0.2725
18660SOL     OW61109   7.793   4.482   0.007  0.4176  0.2608 -0.6665
18660SOL    HW161110   7.782   4.471  -0.088 -1.1525 -2.8004 -0.1889
18660SOL    HW261111   7.721   4.539   0.033 -0.1540 -0.2751 -1.0634
18661SOL     OW61112   9.117   8.006  10.955 -0.3675  0.0752  0.0916
18661SOL    HW161113   9.103   8.010  11.049 -0.6852  0.7068  0.0161
18661SOL    HW261114   9.077   7.923  10.929  0.1385 -0.3284  0.5791
18662SOL     OW61115   7.470   2.148   4.605 -0.8775  0.3001 -0.2803
18662SOL    HW161116   7.398   2.090   4.579 -0.3137  0.3845 -2.0894
18662SOL    HW261117   7.472   2.216   4.538 -0.2933  1.3471  0.7859
18663SOL     OW61118   8.214   4.748  10.430  0.1435 -0.4324 -0.4611
18663SOL    HW161119   8.295   4.741  10.379  1.1430  3.1237  0.5472
18663SOL    HW261120   8.241   4.732  10.521 -0.4216 -0.0238 -0.2182
18664SOL     OW61121   8.416   2.814   0.139  0.1765  0.0770  0.8275
18664SOL    HW161122   8.433   2.784   0.050  0.7308 -0.0845  0.9899
18664SOL    HW261123   8.378   2.738   0.184 -1.4375  0.5617  0.3456
18665SOL     OW61124   8.444  10.101   9.511 -0.3040  0.3954  0.3346
18665SOL    HW161125   8.474  10.155   9.438 -0.3848 -0.8193 -0.6072
18665SOL    HW261126   8.516  10.105   9.574  0.4850  0.0938 -0.5303
18666SOL     OW61127   8.960   1.105   0.914 -0.5747 -0.1550 -0.6387
18666SOL    HW161128   8.935   1.193   0.942 -0.4717 -0.4593  0.4569
18666SOL    HW261129   8.884   1.073   0.865 -0.5780  0.5693 -1.1232
18667SOL     OW61130   5.668  11.086   8.695  0.0685 -0.0455 -0.2365
18667SOL    HW161131   5.726  11.152   8.732 -0.2813  0.4624 -0.5837
18667SOL    HW261132   5.597  11.077   8.759  1.3355 -1.8449  0.9716
18668SOL     OW61133  11.267   3.000   6.972 -0.2041 -0.1520  0.2805
18668SOL    HW161134  11.232   3.042   6.893 -2.2632 -2.1510  0.0452
18668SOL    HW261135  11.223   3.044   7.044 -1.4399 -1.0052  0.0841
18669SOL     OW61136   3.052   0.288   8.635 -0.0201  0.3863  0.1843
18669SOL    HW161137   3.082   0.328   8.717  0.6561  0.0655  0.0978
18669SOL    HW261138   3.035   0.197   8.658 -0.8406  0.5397  0.2068
18670SOL     OW61139   4.559   1.550   5.236 -0.1383  0.3890  0.2045
18670SOL    HW161140   4.503   1.508   5.302 -0.9843  0.6156 -0.3696
18670SOL    HW261141   4.648   1.536   5.269 -0.4759 -0.7724  0.6580
18671SOL     OW61142  11.232   2.741   9.224  0.4314  0.3288  0.1855
18671SOL    HW161143  11.139   2.743   9.247  0.8435  0.7880  1.8196
18671SOL    HW261144  11.237   2.792   9.143 -0.9972 -1.1757 -0.8831
18672SOL     OW61145   7.447   5.510   2.679 -0.3273 -0.3926  0.1981
18672SOL    HW161146   7.450   5.447   2.751 -0.1129 -0.5176  0.0799
18672SOL    HW261147   7.384   5.576   2.708  0.5884  0.1521  0.9990
18673SOL     OW61148   1.799  10.707   5.315 -0.0561 -0.2873 -0.1411
18673SOL    HW161149   1.786  10.704   5.410  0.5279 -0.7168 -0.0760
18673SOL    HW261150   1.790  10.617   5.287 -0.7334 -0.0882 -0.5634
18674SOL     OW61151   1.060   6.700   5.954  0.0220  0.0228  0.1977
18674SOL    HW161152   0.990   6.671   5.896  1.1953 -1.8016 -0.3512
18674SOL    HW261153   1.018   6.711   6.040 -1.0707 -0.3649 -0.2819
18675SOL     OW61154   3.829   0.537   0.832 -0.3996 -0.6529  0.1434
18675SOL    HW161155   3.821   0.566   0.741 -0.2245 -0.4281  0.2003
18675SOL    HW261156   3.842   0.442   0.825 -0.6855 -0.6791 -0.0513
18676SOL     OW61157   1.573   6.159   4.175 -0.4517 -0.5275  0.3652
18676SOL    HW161158   1.654   6.184   4.131 -1.5223  0.2864 -1.1554
18676SOL    HW261159   1.585   6.188   4.266  0.3727  0.9250 -0.1925
18677SOL     OW61160   6.240   3.006   4.063 -0.1058  0.2784 -0.6447
18677SOL    HW161161   6.227   3.053   3.980  1.0347  1.9855  0.1156
18677SOL    HW261162   6.152   2.981   4.090 -0.2857 -3.2104 -3.9644
18678SOL     OW61163   0.536   3.951   9.407 -0.3396 -0.2481  0.3008
18678SOL    HW161164   0.548   3.872   9.459 -0.8375 -0.5204  0.0008
18678SOL    HW261165   0.556   4.022   9.468  3.7234 -0.6732 -0.3872
18679SOL     OW61166   0.934   1.369  10.966 -0.3983  0.3559 -0.5399
18679SOL    HW161167   0.928   1.322  10.883  0.7862 -1.5356  0.4107
18679SOL    HW261168   0.939   1.462  10.942 -0.7723 -0.1268 -2.5245
18680SOL     OW61169   6.784   3.402   6.324  0.2712  0.1576  0.7894
18680SOL    HW161170   6.844   3.358   6.264 -2.0167 -0.6333 -1.0016
18680SOL    HW261171   6.741   3.469   6.271 -1.7440 -0.4969  1.5101
18681SOL     OW61172   6.496   4.450   1.428  0.3031 -0.4788  0.3123
18681SOL    HW161173   6.584   4.469   1.396 -0.2653  0.0439 -0.9957
18681SOL    HW261174   6.462   4.534   1.457 -0.9155 -0.0438 -2.1815
18682SOL     OW61175   2.615   6.838   9.558 -0.4282  0.4618  0.0242
18682SOL    HW161176   2.557   6.773   9.519  0.5747 -0.7288  0.4725
18682SOL    HW261177   2.640   6.800   9.642 -1.3050  2.2682  1.1550
18683SOL     OW61178   3.888   7.564   2.338  0.1077  0.1237 -0.1082
18683SOL    HW161179   3.892   7.652   2.299 -1.3463  0.8164  1.2586
18683SOL    HW261180   3.947   7.512   2.283  0.9226  1.9135 -1.0112
18684SOL     OW61181   9.400  10.837   1.034  0.2294 -0.3019 -0.2311
18684SOL    HW161182   9.465  10.904   1.055 -0.6869 -0.1578  2.2728
18684SOL    HW261183   9.447  10.754   1.043  0.5333 -0.1258 -0.2006
18685SOL     OW61184   1.364   7.609   3.883 -0.3167 -0.8024 -0.3574
18685SOL    HW161185   1.420   7.546   3.838  0.5066  0.7567 -1.5755
18685SOL    HW261186   1.311   7.556   3.943  3.3919 -2.2379  1.8528
18686SOL     OW61187   0.417   6.948   1.445  0.1638  0.5784 -0.2607
18686SOL    HW161188   0.396   6.909   1.360  0.4627 -0.2129  0.0216
18686SOL    HW261189   0.333   6.972   1.483 -0.0361  0.0562 -0.3700
18687SOL     OW61190   6.795   1.523   3.879 -0.2649 -1.2009  0.5150
18687SOL    HW161191   6.880   1.499   3.841 -0.1350 -0.8357  0.5717
18687SOL    HW261192   6.748   1.564   3.806  1.1033  2.2553  1.4828
18688SOL     OW61193   2.964   9.530   0.736  0.2061  0.1643 -0.6287
18688SOL    HW161194   2.896   9.464   0.729  0.9798 -1.0910  2.7926
18688SOL    HW261195   3.027   9.508   0.667 -0.1870 -1.9022 -0.3451
18689SOL     OW61196   0.536   3.626   1.158 -0.1064 -0.3658 -0.1954
18689SOL    HW161197   0.481   3.701   1.179  1.0348  0.7955 -1.2666
18689SOL    HW261198   0.617   3.641   1.206  1.4431  0.8844 -3.0763
18690SOL     OW61199  11.195   7.072   5.361  0.7362  0.0508  0.7700
18690SOL    HW161200  11.271   7.111   5.405 -0.2442  0.0294  2.5472
18690SOL    HW261201  11.122   7.089   5.421 -0.3647 -1.3154 -0.1598
18691SOL     OW61202   4.576   9.850   1.883 -0.0067  0.1515 -0.4271
18691SOL    HW161203   4.495   9.899   1.870 -0.3628 -0.3522 -0.0945
18691SOL    HW261204   4.638   9.916   1.916 -0.5838  0.3028  0.3579
18692SOL     OW61205   4.558   1.195   2.085 -0.3114 -0.3453 -0.3301
18692SOL    HW161206   4.486   1.183   2.023 -0.3004 -1.0298 -0.2206
18692SOL    HW261207   4.571   1.108   2.123 -0.3175  0.0718  0.6288
18693SOL     OW61208   6.011   0.856  11.134 -0.8195 -0.0610  0.6194
18693SOL    HW161209   6.012   0.919  11.062 -0.0309 -0.6412  0.1080
18693SOL    HW261210   6.024   0.771  11.091  3.3277 -0.1174  1.6977
18694SOL     OW61211   9.150   7.249   4.809 -0.0591  0.5854  0.2907
18694SOL    HW161212   9.102   7.169   4.830 -0.2349  0.7283  0.4394
18694SOL    HW261213   9.214   7.223   4.743  3.8760 -1.0136  4.4312
18695SOL     OW61214  10.826   4.659   8.150 -0.2253  0.1368  0.5634
18695SOL    HW161215  10.871   4.575   8.144  2.1482  1.2536  1.8913
18695SOL    HW261216  10.896   4.722   8.169 -1.4944  2.8864 -3.2043
18696SOL     OW61217   2.840   3.574  10.489  0.0386 -0.1400 -0.2508
18696SOL    HW161218   2.746   3.553  10.492 -0.2979  1.5141  1.3896
18696SOL    HW261219   2.844   3.662  10.452  1.0773 -0.8336 -1.8366
18697SOL     OW61220   3.725   7.157  11.043  0.0700  0.4910  0.0001
18697SOL    HW161221   3.652   7.178  11.101 -1.2525 -2.7952 -0.3551
18697SOL    HW261222   3.757   7.242  11.013 -1.1391  2.1296  3.1564
18698SOL     OW61223  11.115   1.654   0.727  0.0154 -0.6837  0.2684
18698SOL    HW161224  11.195   1.686   0.686 -0.6281 -0.6872 -1.0279
18698SOL    HW261225  11.053   1.643   0.654 -0.3575 -3.1612  0.8963
18699SOL     OW61226   9.491  10.999   8.361  0.2573 -0.0578 -0.6871
18699SOL    HW161227   9.418  10.997   8.424 -0.6173  1.6566 -1.6375
18699SOL    HW261228   9.494  10.910   8.326 -2.4019  0.2290 -1.7739
18700SOL     OW61229  10.758   9.043   0.834  0.3467  0.5092 -0.4472
18700SOL    HW161230  10.697   9.012   0.901  1.6560  1.3111  1.1499
18700SOL    HW261231  10.704   9.096   0.775 -0.3184  2.2384  1.6431
18701SOL     OW61232   7.370   7.527  10.556  0.2703  0.5761 -0.6563
18701SOL    HW161233   7.395   7.556  10.644  0.7563  0.4519 -0.7501
18701SOL    HW261234   7.446   7.478  10.525 -0.4562 -0.6279 -0.5817
18702SOL     OW61235   5.813  10.364   2.314 -0.4822  0.3835  0.7771
18702SOL    HW161236   5.859  10.306   2.254  0.9901 -1.5373  3.6333
18702SOL    HW261237   5.721  10.340   2.304 -0.6628  2.4427 -3.0815
18703SOL     OW61238  11.327   8.181   0.111  0.2719 -0.1764 -0.8384
18703SOL    HW161239  11.232   8.190   0.110  0.5306  3.2877 -0.2567
18703SOL    HW261240  11.355   8.206   0.023  0.8434  2.3029 -0.0021
18704SOL     OW61241   5.491   9.846   1.278  0.6273  0.0997  0.2949
18704SOL    HW161242   5.399   9.846   1.303  0.3980  0.2337 -0.5221
18704SOL    HW261243   5.533   9.903   1.343  0.0386  0.4888  0.3436
18705SOL     OW61244   2.504   1.702   8.506 -0.2087  0.1252 -0.4580
18705SOL    HW161245   2.445   1.628   8.488 -2.0982  1.9402 -2.0415
18705SOL    HW261246   2.562   1.706   8.430  0.3078 -0.1160 -0.0778
18706SOL     OW61247   7.271   9.292   7.738 -0.2277  0.5189  0.1924
18706SOL    HW161248   7.294   9.304   7.830  0.7679 -0.0842  0.0325
18706SOL    HW261249   7.339   9.339   7.690 -1.5769  2.0826 -0.2110
18707SOL     OW61250   7.463   4.385   6.116 -0.0761  0.0840 -0.3465
18707SOL    HW161251   7.389   4.352   6.067  0.3972  0.8536 -1.5891
18707SOL    HW261252   7.481   4.317   6.181 -2.0660  0.0568  0.1904
18708SOL     OW61253   6.817   6.859  10.016  0.0390  0.0360  0.3791
18708SOL    HW161254   6.900   6.887  10.056  0.5500 -1.0693  0.1108
18708SOL    HW261255   6.807   6.916   9.940  0.2721  0.5511  0.7285
18709SOL     OW61256   0.151   2.139   6.530  0.1756 -0.1200 -0.4914
18709SOL    HW161257   0.096   2.061   6.524 -1.7807  1.1036  0.9384
18709SOL    HW261258   0.233   2.107   6.570 -0.8091 -1.3317  0.6168
18710SOL     OW61259   9.476   4.766   7.326  0.1493 -0.1957 -0.3451
18710SOL    HW161260   9.397   4.819   7.317  1.1554  1.5908  0.9733
18710SOL    HW261261   9.446   4.684   7.365 -0.8093  1.2975  2.2364
18711SOL     OW61262   2.879   7.822   4.719 -0.4092  0.2634  0.4462
18711SOL    HW161263   2.925   7.796   4.639 -1.4409  2.1567 -0.8328
18711SOL    HW261264   2.947   7.824   4.786  0.9523  0.8693 -0.9108
18712SOL     OW61265   2.671   6.718   2.118 -0.2486  0.4007 -0.0184
18712SOL    HW161266   2.656   6.673   2.035 -0.8572 -1.7881  1.2282
18712SOL    HW261267   2.765   6.708   2.134  0.0221  1.5523 -0.8253
18713SOL     OW61268   9.611  11.024   6.797 -0.3425  0.2872  0.2235
18713SOL    HW161269   9.623  11.099   6.855 -0.5281  0.0635  0.5568
18713SOL    HW261270   9.547  10.969   6.842 -0.5073  0.1206 -0.2059
18714SOL     OW61271   0.122   5.022   4.752  0.2457  0.1978 -1.0263
18714SOL    HW161272   0.117   4.995   4.844 -0.9378  1.3091 -0.7340
18714SOL    HW261273   0.039   4.994   4.714 -0.2094  1.6719 -1.1790
18715SOL     OW61274   6.302   4.309   4.522  0.3914 -0.0297 -1.0544
18715SOL    HW161275   6.286   4.235   4.580 -0.4898  0.0490 -1.1968
18715SOL    HW261276   6.332   4.379   4.580  0.3547 -0.2184 -0.8058
18716SOL     OW61277   8.629   4.350  10.764  0.0148 -0.2896 -0.0735
18716SOL    HW161278   8.653   4.389  10.680  2.6685  0.7643  1.1150
18716SOL    HW261279   8.704   4.297  10.788 -0.5451 -0.2366  1.8472
18717SOL     OW61280   6.597   6.205   4.041 -0.0952 -0.3170  0.2106
18717SOL    HW161281   6.514   6.192   4.086  0.2325 -0.6055  0.7341
18717SOL    HW261282   6.596   6.140   3.970 -0.2807 -0.3719  0.2643
18718SOL     OW61283   1.473   0.931   9.720  0.2670 -0.6919  0.8614
18718SOL    HW161284   1.410   0.880   9.669 -0.6660 -0.4171  1.7315
18718SOL    HW261285   1.530   0.971   9.655  0.2463 -1.8559  0.1132
18719SOL     OW61286   2.946   3.445   7.453 -0.1972 -0.3081 -0.4656
18719SOL    HW161287   2.891   3.369   7.471  0.0320 -0.1528  0.9219
18719SOL    HW261288   2.899   3.493   7.384 -0.5763 -1.4454 -1.0132
18720SOL     OW61289  11.134   4.898   6.206 -0.0362  0.2786 -0.5092
18720SOL    HW161290  11.220   4.941   6.206 -0.0265  0.2566  0.5616
18720SOL    HW261291  11.115   4.883   6.113  1.2035  0.1138 -0.7438
18721SOL     OW61292   5.087   9.621   2.612 -0.1779  0.0707  0.3819
18721SOL    HW161293   5.078   9.708   2.650 -1.2467  0.0033  0.3107
18721SOL    HW261294   5.011   9.612   2.554  0.5272 -0.4792 -0.4649
18722SOL     OW61295   3.434   1.726   6.425  0.2374  0.0543  0.3479
18722SOL    HW161296   3.352   1.709   6.379  0.5735 -1.0440  0.1489
18722SOL    HW261297   3.502   1.694   6.366  0.7435 -0.2226  1.0770
18723SOL     OW61298   9.216   6.730   1.941 -0.4773  0.5964  0.2039
18723SOL    HW161299   9.158   6.712   2.015  1.6721  0.0044  1.7814
18723SOL    HW261300   9.251   6.818   1.959  3.1551 -1.1286  2.0642
18724SOL     OW61301  11.281   9.272   5.251 -0.0647 -0.4189 -0.1786
18724SOL    HW161302  11.342   9.330   5.297 -0.6360  0.1922 -0.2011
18724SOL    HW261303  11.284   9.300   5.160  0.1262 -0.8287 -0.3005
18725SOL     OW61304   7.402  10.888   8.992 -0.0333  0.1709  0.0973
18725SOL    HW161305   7.465  10.945   9.036  0.3570  0.5220 -0.9071
18725SOL    HW261306   7.410  10.804   9.038 -1.5762  1.2567  2.4767
18726SOL     OW61307   8.006   0.310   3.741 -0.1340  0.1434 -0.0205
18726SOL    HW161308   8.038   0.296   3.830  0.2250  1.5045  0.0836
18726SOL    HW261309   7.911   0.316   3.750 -0.0659  0.7356  0.3502
18727SOL     OW61310   4.458   1.787   5.174 -0.0593  0.2161  0.6379
18727SOL    HW161311   4.505   1.707   5.197 -0.0884 -0.0053 -0.0694
18727SOL    HW261312   4.504   1.822   5.098  0.0217  0.9326  1.0073
18728SOL     OW61313  10.595   9.018   4.326  0.1481  0.5460 -0.1266
18728SOL    HW161314  10.574   9.099   4.279 -0.8331  0.0033 -0.6389
18728SOL    HW261315  10.518   8.999   4.379  0.3857 -0.0360  0.0221
18729SOL     OW61316   3.921   3.387   1.948  0.4241  0.0171 -0.4597
18729SOL    HW161317   3.928   3.371   2.042  0.9987  1.4388 -0.2483
18729SOL    HW261318   3.828   3.402   1.932  0.4320  0.5995  0.0275
18730SOL     OW61319   8.735   5.489   5.239  0.0130 -0.2335  0.3777
18730SOL    HW161320   8.644   5.517   5.235  0.2666  0.5588  0.1901
18730SOL    HW261321   8.731   5.400   5.275 -0.8500 -0.3055  0.1066
18731SOL     OW61322   9.307   1.326   2.127 -0.8749 -0.3558 -0.1129
18731SOL    HW161323   9.306   1.367   2.040  0.4077 -0.5907 -0.2522
18731SOL    HW261324   9.322   1.233   2.110 -2.8200 -0.7723  0.2602
18732SOL     OW61325   0.011  10.478   6.391  0.1962 -0.7070 -0.1047
18732SOL    HW161326   0.060  10.543   6.341 -0.5221 -0.7245 -0.8451
18732SOL    HW261327   0.024  10.396   6.344 -0.0767 -0.8212  0.0184
18733SOL     OW61328   1.952   4.914   6.428  0.0806 -0.1443  0.0271
18733SOL    HW161329   1.944   4.835   6.481  0.5044 -1.6724 -2.1364
18733SOL    HW261330   2.046   4.925   6.415  0.0730  1.2811  1.1422
18734SOL     OW61331   4.890   1.744   9.209  0.5180  0.1192 -0.3206
18734SOL    HW161332   4.884   1.657   9.170  1.3929 -0.7683  1.4400
18734SOL    HW261333   4.984   1.757   9.222  0.2052 -0.1326  2.5441
18735SOL     OW61334   9.281   8.886   8.435 -0.3431  0.0458  0.0675
18735SOL    HW161335   9.265   8.885   8.341 -0.6406  0.4419  0.1131
18735SOL    HW261336   9.345   8.956   8.448 -0.7013  0.3420  0.2230
18736SOL     OW61337  11.099   5.933   5.963 -0.1691 -0.7111  0.1540
18736SOL    HW161338  11.132   6.018   5.936  1.9550 -1.0613  1.5221
18736SOL    HW261339  11.057   5.897   5.885  0.8161  0.6815 -1.0306
18737SOL     OW61340   7.406   2.532   7.628  0.1472 -0.7005  0.1342
18737SOL    HW161341   7.398   2.441   7.599 -0.2585 -0.3704 -0.8161
18737SOL    HW261342   7.492   2.560   7.597 -0.2473 -0.3774 -0.6940
18738SOL     OW61343   3.360   7.769   3.618 -0.1561 -0.0900  0.2297
18738SOL    HW161344   3.329   7.719   3.694  0.7512  0.7906  1.2088
18738SOL    HW261345   3.444   7.728   3.596 -0.2628 -0.1353 -0.0956
18739SOL     OW61346   1.714   5.079   4.595 -0.1793  0.3509  0.4479
18739SOL    HW161347   1.732   4.997   4.641 -0.4640  0.4859  0.8016
18739SOL    HW261348   1.701   5.144   4.665 -0.0718  0.6707  0.1722
18740SOL     OW61349   0.683   8.405   1.346  0.2129 -0.0331  0.2830
18740SOL    HW161350   0.648   8.494   1.354 -0.5500 -0.1414 -1.5067
18740SOL    HW261351   0.751   8.399   1.413  0.5447  2.0468  0.1609
18741SOL     OW61352   8.360   6.290   1.158 -0.1361 -0.0290  0.7288
18741SOL    HW161353   8.425   6.332   1.214 -0.7942  1.7791  0.1936
18741SOL    HW261354   8.396   6.204   1.139  1.5405  0.5062  1.3892
18742SOL     OW61355   8.000  11.278  10.358 -0.0141  0.0667 -0.7947
18742SOL    HW161356   8.004  11.207  10.295  0.3619 -0.8682  0.2669
18742SOL    HW261357   8.090  11.287  10.390 -0.4079 -0.2627  0.4564
18743SOL     OW61358  10.069   0.056   6.063 -0.2605 -0.2334 -0.3307
18743SOL    HW161359  10.135   0.058   6.132 -0.8907  1.1394  0.2604
18743SOL    HW261360  10.119   0.051   5.982  0.5668  0.4936  0.1266
18744SOL     OW61361   1.724   8.795   1.025 -0.0488 -0.5019  0.1821
18744SOL    HW161362   1.657   8.789   0.957  1.5106  2.0161 -1.6850
18744SOL    HW261363   1.698   8.872   1.076 -0.3662 -1.4803  1.5122
18745SOL     OW61364   7.608   9.430   7.888 -0.1893  1.0054 -0.2354
18745SOL    HW161365   7.614   9.400   7.798  0.4422 -0.0525  0.1443
18745SOL    HW261366   7.516   9.416   7.912 -0.1526  0.4365 -0.4223
18746SOL     OW61367   7.758   6.995   8.399  0.0625 -0.2575 -0.2951
18746SOL    HW161368   7.718   6.974   8.484  0.1941 -1.4531 -0.5242
18746SOL    HW261369   7.697   6.961   8.335 -0.2041  0.9566 -0.6980
18747SOL     OW61370   0.733   2.278  10.507  0.4268 -0.2510 -1.0313
18747SOL    HW161371   0.686   2.348  10.463  1.2361 -1.2897 -3.6600
18747SOL    HW261372   0.698   2.197  10.470  0.3300 -1.2345  1.0971
18748SOL     OW61373   7.930   9.153   8.746 -0.0688 -0.1838  0.0909
18748SOL    HW161374   7.940   9.184   8.656  0.1798  0.6381  0.3986
18748SOL    HW261375   7.978   9.217   8.799  1.7313 -1.8925  0.5908
18749SOL     OW61376   8.642   8.030   7.912  0.1657 -0.1748  0.5403
18749SOL    HW161377   8.598   8.048   7.829 -0.1101  1.2506  0.9829
18749SOL    HW261378   8.581   8.061   7.979  1.2815  0.6683  1.1976
18750SOL     OW61379   3.354   8.084   2.500  0.1152 -0.2301 -0.2909
18750SOL    HW161380   3.334   8.022   2.430  0.1249  0.7121 -1.1443
18750SOL    HW261381   3.376   8.165   2.454 -1.9794  1.0352  0.8296
18751SOL     OW61382   2.321   9.378   9.769 -0.0439 -0.2723 -0.3379
18751SOL    HW161383   2.285   9.462   9.797  0.4648  0.0583 -0.6850
18751SOL    HW261384   2.286   9.315   9.833 -1.4979 -0.0078 -0.8465
18752SOL     OW61385   3.017   5.121   8.222  0.3114  0.0718 -0.3187
18752SOL    HW161386   2.957   5.076   8.163 -0.6463  1.9121 -0.7593
18752SOL    HW261387   2.965   5.139   8.300  0.2069  1.8554 -0.7841
18753SOL     OW61388   7.976   6.331   5.668 -0.0227 -0.3693  0.3187
18753SOL    HW161389   7.893   6.291   5.693 -0.7996  0.2937 -1.1534
18753SOL    HW261390   8.033   6.318   5.744 -1.0325 -2.0447  0.8122
18754SOL     OW61391  10.581   2.747   5.236  0.1655 -0.2896  0.2769
18754SOL    HW161392  10.577   2.672   5.177  1.7335 -0.1599 -0.0149
18754SOL    HW261393  10.618   2.712   5.317 -1.1852 -0.2881  0.9032
18755SOL     OW61394   6.178   7.420   9.081 -0.2132 -0.2122  0.3104
18755SOL    HW161395   6.254   7.468   9.112 -0.5596  0.8601 -0.4816
18755SOL    HW261396   6.103   7.469   9.115 -0.5782  0.3517 -1.2579
18756SOL     OW61397   8.009   0.581   9.755  0.0929 -0.1546  0.1412
18756SOL    HW161398   7.993   0.671   9.782 -0.0307 -0.1867  0.1790
18756SOL    HW261399   7.929   0.555   9.709  0.0316 -0.3212  0.3397
18757SOL     OW61400   4.696  10.960   3.457 -0.3842 -0.3135 -0.1426
18757SOL    HW161401   4.601  10.955   3.463 -0.2659 -1.4801  0.9771
18757SOL    HW261402   4.715  11.053   3.448 -1.5839  0.0023  0.5963
18758SOL     OW61403   9.158   2.070   7.536 -0.1075 -0.5647 -0.1875
18758SOL    HW161404   9.096   2.103   7.601 -0.3446 -1.1997 -0.0888
18758SOL    HW261405   9.148   1.975   7.539  0.0879 -0.6132 -0.9456
18759SOL     OW61406   7.002   9.235  10.404  0.0749  0.1737  0.0948
18759SOL    HW161407   7.028   9.143  10.396  0.5300  0.0625  2.4599
18759SOL    HW261408   6.907   9.231  10.416  0.2361 -0.1027  1.4147
18760SOL     OW61409   1.656   8.492   8.007  0.3065 -0.6498  0.2296
18760SOL    HW161410   1.601   8.523   8.080  2.3445  1.5540  0.8941
18760SOL    HW261411   1.682   8.404   8.032  0.9061  0.0484  2.1474
18761SOL     OW61412   1.471  11.300   6.645  0.2019  0.2357 -0.1372
18761SOL    HW161413   1.538  11.344   6.591  0.9849  0.6336  1.1222
18761SOL    HW261414   1.480  11.207   6.623  1.4595  0.2364  0.3157
18762SOL     OW61415  10.749   6.062   1.220 -0.1761  0.1002 -0.4285
18762SOL    HW161416  10.822   6.008   1.189 -0.8238 -0.1973 -1.4451
18762SOL    HW261417  10.763   6.067   1.315  1.1396  0.0097 -0.5961
18763SOL     OW61418   5.090   3.722   7.355  0.5088 -0.1798 -0.0773
18763SOL    HW161419   5.118   3.632   7.339  0.2918 -0.0078 -1.4707
18763SOL    HW261420   5.031   3.715   7.430 -0.8683 -1.4472 -1.2371
18764SOL     OW61421   6.383  10.662  10.565 -0.0343  0.3344  0.0148
18764SOL    HW161422   6.380  10.679  10.471  0.0723  0.2873  0.0024
18764SOL    HW261423   6.470  10.625  10.580 -0.5160 -0.8220 -0.0656
18765SOL     OW61424   3.164   1.844  10.593 -0.4457  0.3402 -0.3705
18765SOL    HW161425   3.175   1.782  10.665 -1.4873  1.8316  1.1049
18765SOL    HW261426   3.212   1.922  10.621  0.0379  0.5519 -1.7660
18766SOL     OW61427   6.774   8.329   0.359  0.3137 -0.3750  0.4014
18766SOL    HW161428   6.740   8.375   0.282  1.8216  1.0832  0.5687
18766SOL    HW261429   6.706   8.341   0.426 -0.6172 -0.9089 -0.4405
18767SOL     OW61430   8.460  10.518   2.810 -0.2921 -0.1296  0.0055
18767SOL    HW161431   8.521  10.567   2.866 -0.9048 -0.7979  1.2788
18767SOL    HW261432   8.511  10.498   2.731  0.6064  0.7647  0.3512
18768SOL     OW61433   9.789   9.829   7.396  0.4726 -0.4061  0.1714
18768SOL    HW161434   9.724   9.763   7.372  0.7213 -0.5218 -0.1823
18768SOL    HW261435   9.777   9.899   7.333  1.3187 -0.8351 -0.4695
18769SOL     OW61436   9.526   3.996   0.764 -0.3240 -0.4476  0.2346
18769SOL    HW161437   9.436   4.005   0.731 -0.4206 -1.1641  0.2811
18769SOL    HW261438   9.578   4.054   0.709 -0.5361 -1.3879 -0.9943
18770SOL     OW61439   3.386   9.477   0.072 -0.4054  0.4888  0.7073
18770SOL    HW161440   3.402   9.548   0.009 -1.4524  1.3101  1.3404
18770SOL    HW261441   3.439   9.404   0.040 -2.5772  0.1353 -2.4199
18771SOL     OW61442  10.105   2.419   2.711  0.3672 -0.4306  0.1455
18771SOL    HW161443  10.026   2.463   2.679 -0.7638 -2.1978  0.4271
18771SOL    HW261444  10.171   2.488   2.715 -0.7443  0.7758 -1.5510
18772SOL     OW61445   6.267   8.504   4.016  0.3488  0.5273 -0.1910
18772SOL    HW161446   6.273   8.564   3.942 -0.3441  0.7344 -0.0795
18772SOL    HW261447   6.244   8.559   4.091 -0.8088  0.0506 -0.1902
18773SOL     OW61448   9.445   7.984   0.705 -0.5992 -0.3934 -0.3654
18773SOL    HW161449   9.381   7.936   0.652 -1.3526  0.8241 -0.5681
18773SOL    HW261450   9.405   7.988   0.792  0.2791 -1.6992  0.1137
18774SOL     OW61451   0.769   8.049   1.159 -0.1069 -0.2616 -0.5869
18774SOL    HW161452   0.817   7.973   1.127  0.7869 -0.1026  0.3511
18774SOL    HW261453   0.679   8.034   1.129  0.3804 -0.8862 -1.7901
18775SOL     OW61454   0.911   4.560   8.267  0.2662 -0.0526 -0.1643
18775SOL    HW161455   0.878   4.620   8.334  0.1065  0.3745 -0.6108
18775SOL    HW261456   0.853   4.575   8.192  0.6188 -0.3115 -0.4902
18776SOL     OW61457   2.845  11.112   4.263  0.0043 -0.1946 -0.3316
18776SOL    HW161458   2.860  11.151   4.349  2.2582  3.2845 -2.1579
18776SOL    HW261459   2.931  11.080   4.235 -0.5261 -0.5318 -1.6447
18777SOL     OW61460   7.969   5.933   2.359  0.3401 -0.3960  0.2721
18777SOL    HW161461   8.043   5.985   2.327 -1.2495  0.1607 -2.6458
18777SOL    HW261462   7.968   5.950   2.454  2.7965  1.0525  0.0942
18778SOL     OW61463   0.860   1.620   9.659 -0.6691  0.0440  0.2760
18778SOL    HW161464   0.831   1.553   9.597 -0.6072  0.3317 -0.0688
18778SOL    HW261465   0.842   1.703   9.615 -0.8198  0.2565  0.7341
18779SOL     OW61466   0.681   5.588   8.346  0.1584 -0.0519 -0.3296
18779SOL    HW161467   0.664   5.682   8.334  0.2813  0.0830  0.4817
18779SOL    HW261468   0.598   5.545   8.326 -0.4206  0.3814  1.0430
18780SOL     OW61469   6.131  10.774   9.440  0.1926 -0.4884  0.1953
18780SOL    HW161470   6.089  10.774   9.353  0.4915 -0.5576  0.0487
18780SOL    HW261471   6.071  10.823   9.496  0.7966  0.9954 -0.4371
18781SOL     OW61472   6.174  10.449  10.223 -0.8305  0.7146 -0.2096
18781SOL    HW161473   6.133  10.481  10.304  1.9897  0.0891  1.5586
18781SOL    HW261474   6.264  10.480  10.229  0.0579 -1.4213 -1.9296
18782SOL     OW61475   1.470   7.996   6.299 -0.5617  0.1990 -0.4522
18782SOL    HW161476   1.484   8.000   6.393 -1.6400  0.3721 -0.2923
18782SOL    HW261477   1.529   7.926   6.269 -1.1264 -0.7206  0.5269
18783SOL     OW61478   1.936   9.871   9.554  0.7134  0.5185  0.0750
18783SOL    HW161479   1.988   9.798   9.589  0.0107 -0.5199 -1.0246
18783SOL    HW261480   1.966   9.880   9.463 -0.6335  0.2916 -0.3906
18784SOL     OW61481   8.025   1.826   0.907 -0.4309  0.6393 -0.3286
18784SOL    HW161482   7.968   1.843   0.832  1.0783 -0.1999 -1.6920
18784SOL    HW261483   7.994   1.742   0.942 -0.1544  0.2731 -0.9551
18785SOL     OW61484   2.839   1.338   9.072  0.2166  0.2343 -0.1835
18785SOL    HW161485   2.884   1.399   9.014 -1.1506  1.4990  0.0568
18785SOL    HW261486   2.802   1.272   9.013 -0.4317  1.0307 -0.6688
18786SOL     OW61487   3.505   3.440   7.039 -0.4909  0.4241 -0.4604
18786SOL    HW161488   3.456   3.423   7.120 -1.6952  1.4568 -0.9563
18786SOL    HW261489   3.465   3.381   6.974 -0.5160  0.6558 -0.6568
18787SOL     OW61490   1.012   7.564   0.939  0.8524 -0.2446 -0.0458
18787SOL    HW161491   0.978   7.581   0.851  1.8054  1.5340 -0.1032
18787SOL    HW261492   1.099   7.527   0.923  1.3022  0.7244  0.1518
18788SOL     OW61493   2.988  10.333  10.223 -0.3262 -0.4708 -0.2184
18788SOL    HW161494   2.950  10.393  10.287  0.1691 -0.9030  0.4958
18788SOL    HW261495   2.984  10.380  10.140 -2.5996 -0.6143 -0.2034
18789SOL     OW61496  10.171   7.046   8.945 -0.7332 -0.9317  0.4152
18789SOL    HW161497  10.164   6.951   8.949 -1.6532 -0.8989 -0.1762
18789SOL    HW261498  10.256   7.066   8.983 -0.7456 -1.9565  1.0000
18790SOL     OW61499   5.802   3.696   0.066  0.1980  0.3927 -0.0592
18790SOL    HW161500   5.889   3.656   0.065 -0.3383 -0.7862 -0.6578
18790SOL    HW261501   5.768   3.680  -0.022 -1.4450 -1.0122  0.8103
18791SOL     OW61502   4.990   3.409   9.690 -0.6729  0.0854  0.2647
18791SOL    HW161503   4.960   3.487   9.736 -0.9738  0.8766 -1.2301
18791SOL    HW261504   5.069   3.436   9.644 -1.2074 -0.2437 -0.8952
18792SOL     OW61505   2.605   8.625   2.369 -0.4963 -0.0082 -0.0461
18792SOL    HW161506   2.682   8.599   2.319  0.3757  0.4474  1.0526
18792SOL    HW261507   2.629   8.709   2.408 -1.4353 -0.0162  0.5563
18793SOL     OW61508  10.359   7.952   9.019  0.3390 -0.6237  0.0369
18793SOL    HW161509  10.390   8.042   9.008  1.9183 -1.2491 -0.7546
18793SOL    HW261510  10.360   7.915   8.931  1.1719 -1.8806  0.5544
18794SOL     OW61511   7.867   4.359   5.094  0.3714  0.1406 -0.2667
18794SOL    HW161512   7.825   4.353   5.180  0.6345  0.6767 -0.0988
18794SOL    HW261513   7.920   4.279   5.088  0.9782  0.4807  0.4104
18795SOL     OW61514   5.582   3.724   5.679  0.8753 -0.3177  0.2707
18795SOL    HW161515   5.527   3.680   5.745  1.6541  0.4342  1.4493
18795SOL    HW261516   5.671   3.702   5.705  1.1602 -1.3079 -1.4756
18796SOL     OW61517   8.356   7.047   5.071 -0.0882  0.0021 -0.1197
18796SOL    HW161518   8.329   6.974   5.015 -2.2112 -0.8161  1.9151
18796SOL    HW261519   8.323   7.024   5.158  1.4910  2.1622  1.0827
18797SOL     OW61520   7.682   7.729   5.346  0.3686 -0.0208  0.2228
18797SOL    HW161521   7.653   7.638   5.352  2.1752 -0.6160  0.2689
18797SOL    HW261522   7.723   7.747   5.430  0.8471  0.5449 -0.1238
18798SOL     OW61523   7.630  10.812   5.280 -0.3817  0.3537  0.1163
18798SOL    HW161524   7.581  10.892   5.261  0.9101  0.7989 -1.4432
18798SOL    HW261525   7.701  10.812   5.216  0.4256 -1.3505  0.9892
18799SOL     OW61526   6.364   6.751   0.659  0.5380  0.6140 -0.9089
18799SOL    HW161527   6.431   6.683   0.646 -0.0170 -0.4026  1.2156
18799SOL    HW261528   6.393   6.797   0.738  0.7325  2.6681 -2.1537
18800SOL     OW61529   4.038   2.327   5.566 -0.2590  0.3010 -0.2049
18800SOL    HW161530   4.076   2.273   5.636 -0.7246 -0.1284 -0.2787
18800SOL    HW261531   4.014   2.263   5.498  2.4566  0.9089 -1.8350
18801SOL     OW61532   9.278   1.736   0.173 -0.2234 -0.2993  0.1866
18801SOL    HW161533   9.264   1.817   0.223  1.9451  0.0561  0.2564
18801SOL    HW261534   9.367   1.709   0.194 -0.6348 -2.2864 -0.4722
18802SOL     OW61535   5.244   3.557   2.382  0.0353 -0.7107  0.1211
18802SOL    HW161536   5.242   3.530   2.474  0.4322  1.9078  0.9395
18802SOL    HW261537   5.153   3.556   2.354 -0.0777 -1.6173  0.4848
18803SOL     OW61538  10.567   4.353   9.670 -0.0907  0.3130 -0.4546
18803SOL    HW161539  10.522   4.283   9.622  1.1416 -1.4746  0.9007
18803SOL    HW261540  10.650   4.363   9.624  0.1161  0.2215 -0.1041
18804SOL     OW61541   2.468   5.411   9.688  0.2499 -0.1215  0.0396
18804SOL    HW161542   2.386   5.419   9.640 -0.4938  1.7414  1.5487
18804SOL    HW261543   2.527   5.366   9.627 -1.8991 -1.6194 -1.0194
18805SOL     OW61544   3.495   9.763   0.895  0.3284 -0.1850  0.1866
18805SOL    HW161545   3.464   9.780   0.806  1.9672 -0.2170 -0.4052
18805SOL    HW261546   3.441   9.819   0.951 -0.2989  0.2808 -0.8786
18806SOL     OW61547   1.926   7.047   9.652 -0.0299  0.0624  0.4622
18806SOL    HW161548   1.951   6.955   9.645 -0.2033  0.1211 -1.0821
18806SOL    HW261549   2.008   7.094   9.663  0.0310 -0.2969  1.6435
18807SOL     OW61550   7.148   9.212   6.912 -0.4918 -0.8679 -0.1770
18807SOL    HW161551   7.062   9.182   6.941 -0.5137 -0.5826  0.0552
18807SOL    HW261552   7.179   9.143   6.854 -1.0390 -0.7954 -0.5593
18808SOL     OW61553   2.224   8.951  10.093 -0.1956  0.3391  0.2068
18808SOL    HW161554   2.304   8.965  10.043  0.5670 -0.0616  1.2947
18808SOL    HW261555   2.193   8.864  10.066 -0.7112  0.8309 -0.8061
18809SOL     OW61556   4.464   8.920   1.162 -0.4708 -0.0578 -0.1428
18809SOL    HW161557   4.398   8.917   1.093  0.0253 -0.2447 -0.6180
18809SOL    HW261558   4.532   8.979   1.129  0.0140 -0.5495 -0.0420
18810SOL     OW61559   4.623   7.144   1.801 -0.1140  0.0814  0.3410
18810SOL    HW161560   4.579   7.178   1.879 -1.3137  1.7155 -0.9781
18810SOL    HW261561   4.582   7.192   1.729  2.0773 -0.2293 -1.1578
18811SOL     OW61562   1.042   8.329   0.519 -0.1655  0.0805 -0.2125
18811SOL    HW161563   1.052   8.390   0.446 -1.4652  0.5637 -0.0136
18811SOL    HW261564   1.123   8.278   0.520  0.9441  1.8230 -0.3596
18812SOL     OW61565   0.843   8.119   7.562 -0.0757  0.2748 -0.0172
18812SOL    HW161566   0.894   8.040   7.582  0.4508  1.2011  2.5620
18812SOL    HW261567   0.902   8.191   7.584 -1.1313  1.3908 -0.7763
18813SOL     OW61568   6.331   5.593   2.267 -0.1379 -0.2909  0.4336
18813SOL    HW161569   6.348   5.498   2.265  1.8144  0.0621 -2.5218
18813SOL    HW261570   6.257   5.606   2.208  0.9005  0.2150 -0.7917
18814SOL     OW61571   1.073   3.311   6.186  0.3099 -0.6691 -0.0982
18814SOL    HW161572   1.155   3.268   6.208  1.7825  1.1948 -1.7389
18814SOL    HW261573   1.068   3.308   6.091 -1.0243  0.1236 -0.0727
18815SOL     OW61574   4.988  10.682   7.339  0.0769  0.3811 -0.0080
18815SOL    HW161575   4.981  10.588   7.353  0.0254  0.5624  1.2027
18815SOL    HW261576   4.898  10.710   7.321  0.4550 -0.2063 -3.1092
18816SOL     OW61577   8.893   2.577   5.047  0.4236  0.5769  0.4820
18816SOL    HW161578   8.819   2.638   5.050 -0.3147 -0.2263 -0.8871
18816SOL    HW261579   8.871   2.509   5.111 -0.6226 -0.2960 -0.7714
18817SOL     OW61580   2.783   9.174   1.216 -0.1659 -0.2638  0.5183
18817SOL    HW161581   2.768   9.260   1.254 -1.6158 -0.5646  0.6753
18817SOL    HW261582   2.730   9.173   1.136  0.0865 -0.8940  0.3484
18818SOL     OW61583   9.525   0.753   4.087  0.4497  0.2637 -0.0330
18818SOL    HW161584   9.503   0.710   4.170 -0.1118  1.2860  0.3460
18818SOL    HW261585   9.477   0.835   4.088  0.1489  0.1289 -1.5390
18819SOL     OW61586   3.373   6.453   9.373  0.3632  0.0107 -0.1982
18819SOL    HW161587   3.430   6.492   9.307 -0.6291  0.7222 -0.6403
18819SOL    HW261588   3.286   6.486   9.353 -0.2602 -1.2839  0.3102
18820SOL     OW61589   6.857   3.205   2.639 -0.3291 -0.0594  0.1331
18820SOL    HW161590   6.896   3.235   2.721  0.1855  3.0641 -1.1989
18820SOL    HW261591   6.916   3.238   2.571 -0.7023 -2.6861 -1.5113
18821SOL     OW61592   2.497   0.023   6.811  0.1870 -0.0363 -0.5284
18821SOL    HW161593   2.548  -0.057   6.824  1.1973  0.8078  0.7938
18821SOL    HW261594   2.459   0.013   6.724 -0.9986 -2.6823  0.2430
18822SOL     OW61595  10.026   8.295   4.798 -0.0638  0.6344 -0.2893
18822SOL    HW161596  10.061   8.304   4.887  0.5220  0.0024 -0.4546
18822SOL    HW261597   9.961   8.225   4.805  0.6213 -0.0297 -0.5425
18823SOL     OW61598   5.089   2.624   4.508  0.2722  0.2090  0.3089
18823SOL    HW161599   5.061   2.715   4.497  0.8445  0.4463  0.7706
18823SOL    HW261600   5.016   2.572   4.476 -0.8516  0.8082  1.8544
18824SOL     OW61601   0.003   3.542  10.588  0.3745  0.3811  0.7534
18824SOL    HW161602   0.093   3.552  10.618  0.3381  0.2049  0.9205
18824SOL    HW261603  -0.007   3.448  10.572  0.3883  0.4667  0.2133
18825SOL     OW61604   1.476   6.024   3.836  0.2366  0.6411  0.2379
18825SOL    HW161605   1.552   5.981   3.875  1.0907  1.1544 -0.8565
18825SOL    HW261606   1.494   6.117   3.844 -0.1524  0.7650 -0.2774
18826SOL     OW61607   0.658   6.745   3.728  0.1481 -0.3201  0.3795
18826SOL    HW161608   0.586   6.738   3.791 -0.7581  1.7204 -0.4093
18826SOL    HW261609   0.686   6.836   3.733 -0.0175 -0.0869 -2.2532
18827SOL     OW61610   9.755   6.054  11.265  0.0968 -0.1557  0.3880
18827SOL    HW161611   9.841   6.095  11.279  0.1902 -0.1057 -0.2951
18827SOL    HW261612   9.693   6.114  11.306  0.3208  0.2167  0.1855
18828SOL     OW61613   8.107   0.650   4.435 -0.0804  0.4072  0.4633
18828SOL    HW161614   8.163   0.727   4.438  0.1711  0.2667 -0.4285
18828SOL    HW261615   8.031   0.673   4.488  0.2019  1.0953  0.5700
18829SOL     OW61616   2.014   1.089   4.691 -0.4564 -0.6252 -0.2033
18829SOL    HW161617   1.979   1.006   4.660  2.0302 -1.0696 -2.0331
18829SOL    HW261618   2.000   1.150   4.618  1.2364 -0.4734 -0.4287
18830SOL     OW61619  11.180   4.962   9.516  0.8467 -0.1237  0.2192
18830SOL    HW161620  11.167   4.946   9.422 -0.5048  0.1798  0.3476
18830SOL    HW261621  11.139   5.048   9.531 -0.3285 -0.8735  1.3802
18831SOL     OW61622   1.579   2.369   3.968  0.3918 -0.0410 -0.6451
18831SOL    HW161623   1.599   2.283   4.005 -2.3978 -0.6446 -0.4265
18831SOL    HW261624   1.586   2.430   4.042  0.5264 -0.3729 -0.3869
18832SOL     OW61625   9.488   6.620   1.312 -0.5412 -0.4923  0.4209
18832SOL    HW161626   9.456   6.710   1.322  1.5879  0.4160 -0.5413
18832SOL    HW261627   9.451   6.590   1.229 -0.7509 -0.2609  0.4327
18833SOL     OW61628   3.778   7.360   8.087 -0.5020  0.0894  0.1121
18833SOL    HW161629   3.723   7.438   8.097 -0.6213  0.0136  0.0408
18833SOL    HW261630   3.750   7.301   8.156 -0.3688  0.1324  0.2047
18834SOL     OW61631   8.117   7.952   1.973 -0.1124 -0.4266  0.2577
18834SOL    HW161632   8.193   8.008   1.983 -0.2858 -0.2110  0.3713
18834SOL    HW261633   8.126   7.886   2.042  0.5496 -1.0699 -0.4392
18835SOL     OW61634   6.876   0.249   4.605  0.3931  0.5590 -0.4861
18835SOL    HW161635   6.936   0.208   4.668  0.6246  1.2302 -0.2666
18835SOL    HW261636   6.790   0.217   4.629  0.5728  0.2096 -0.3065
18836SOL     OW61637   2.512   2.976   3.077 -0.0413  0.3747 -0.5338
18836SOL    HW161638   2.455   2.992   3.002 -1.1567  0.1471  0.2523
18836SOL    HW261639   2.475   2.899   3.120  2.5840 -1.6113 -1.6578
18837SOL     OW61640   0.565   2.675  10.185  0.0435 -0.2137 -0.3638
18837SOL    HW161641   0.541   2.733  10.113  0.3903  0.5144  0.1047
18837SOL    HW261642   0.612   2.731  10.247  1.4031 -1.2478 -0.4486
18838SOL     OW61643   2.373   2.703   5.234 -0.3659  0.3688  0.4722
18838SOL    HW161644   2.381   2.619   5.190 -1.3759  0.1660  0.6546
18838SOL    HW261645   2.288   2.699   5.278 -0.4716  1.5145  0.3938
18839SOL     OW61646   8.444   0.021   8.908 -0.1064 -0.3697 -0.2626
18839SOL    HW161647   8.489  -0.038   8.848 -1.2886 -0.2734 -1.2546
18839SOL    HW261648   8.498   0.101   8.909 -0.0930 -0.3689 -1.1973
18840SOL     OW61649   1.877   3.161   0.535  0.2319  0.4006 -0.3483
18840SOL    HW161650   1.849   3.072   0.515  1.6658 -0.2531  0.5488
18840SOL    HW261651   1.925   3.154   0.618 -0.8982  2.2239  0.5099
18841SOL     OW61652   7.018   2.723   0.344  0.0947 -0.4657 -0.9114
18841SOL    HW161653   7.027   2.698   0.252 -0.8520 -3.8103 -0.1745
18841SOL    HW261654   6.926   2.704   0.365  0.2236  0.5627  0.6373
18842SOL     OW61655   5.012   4.159  11.261 -0.3625  0.4879 -0.7530
18842SOL    HW161656   5.037   4.072  11.292  0.8097  0.6892 -1.0807
18842SOL    HW261657   5.082   4.183  11.200 -0.7052  1.6290 -0.7078
18843SOL     OW61658   4.330   8.022   9.429 -0.3512 -0.4394  0.4157
18843SOL    HW161659   4.404   8.081   9.444  0.0905 -1.2357  1.4015
18843SOL    HW261660   4.326   7.968   9.508 -0.6991 -1.7786 -0.5011
18844SOL     OW61661  10.025   7.059   1.627  0.2817  0.3611 -0.3634
18844SOL    HW161662  10.078   7.139   1.626  0.1315  0.4476 -1.1092
18844SOL    HW261663   9.938   7.089   1.651  0.4784  0.2663  0.5002
18845SOL     OW61664   1.910   2.135   2.258 -0.0036 -0.2268  0.1583
18845SOL    HW161665   1.900   2.143   2.353  0.0631 -1.2484  0.2606
18845SOL    HW261666   1.920   2.225   2.227  0.7805  0.0693  1.2136
18846SOL     OW61667  10.045  11.336   1.118 -0.1559  0.1113 -0.2121
18846SOL    HW161668  10.104  11.387   1.173  0.8124 -0.1174 -1.0295
18846SOL    HW261669  10.039  11.386   1.036 -1.4595  0.3703  0.0261
18847SOL     OW61670  10.446   7.819  10.105 -0.0188  0.5091  0.0366
18847SOL    HW161671  10.390   7.895  10.121 -1.8321 -0.4386 -1.5445
18847SOL    HW261672  10.388   7.744  10.118  0.8984 -0.4915 -1.5096
18848SOL     OW61673   5.637   8.384   3.010  0.1711 -0.2197  0.2354
18848SOL    HW161674   5.704   8.360   2.946  0.3568  2.9018 -0.8505
18848SOL    HW261675   5.676   8.455   3.060 -1.5375  0.2077  0.9994
18849SOL     OW61676   9.054   1.248   2.844 -0.2844 -0.4173  0.4875
18849SOL    HW161677   8.986   1.305   2.880 -1.6926 -2.1773  0.6791
18849SOL    HW261678   9.126   1.254   2.907 -0.5883  0.8166  0.7268
18850SOL     OW61679   8.125   4.833   9.079 -0.0543  0.0681  0.6852
18850SOL    HW161680   8.089   4.809   9.164 -0.2241  0.2464  0.6649
18850SOL    HW261681   8.087   4.919   9.060 -0.1112 -0.0248  0.3714
18851SOL     OW61682   1.310   3.166   2.907 -0.2213  0.1539 -0.3289
18851SOL    HW161683   1.362   3.225   2.962  0.6348 -0.3793 -0.5617
18851SOL    HW261684   1.363   3.154   2.828 -0.2952 -1.1031 -0.1865
18852SOL     OW61685   7.736   8.174   8.818 -0.0179 -0.5667  0.2030
18852SOL    HW161686   7.763   8.118   8.745  1.0121  1.0441 -0.6755
18852SOL    HW261687   7.641   8.184   8.806  0.0923 -0.5910 -0.7282
18853SOL     OW61688  10.754  10.076   3.596  0.2029 -0.3598  0.6665
18853SOL    HW161689  10.820  10.080   3.527 -0.5788 -1.5036 -0.1579
18853SOL    HW261690  10.699  10.153   3.581  0.8147  0.1156  0.8294
18854SOL     OW61691   0.525   2.486   2.498  0.0632  0.0921  0.1033
18854SOL    HW161692   0.444   2.533   2.518  0.4038  0.6347  0.2128
18854SOL    HW261693   0.510   2.398   2.532 -0.9377 -0.1488 -0.9385
18855SOL     OW61694   4.774   6.132   3.184 -0.0393 -0.1328  0.1359
18855SOL    HW161695   4.682   6.142   3.211 -0.6002  1.3437 -2.1613
18855SOL    HW261696   4.806   6.060   3.237 -2.9219 -1.5513  0.0766
18856SOL     OW61697   6.938   5.143   1.897 -0.0891 -0.5316  1.0668
18856SOL    HW161698   6.951   5.153   1.803 -1.7133  3.0108  1.1523
18856SOL    HW261699   7.016   5.097   1.927  1.0997 -0.5001 -1.7784
18857SOL     OW61700   6.066   3.669   7.228  0.1213 -0.5776 -0.4945
18857SOL    HW161701   6.034   3.738   7.287 -0.1031 -0.0820 -1.1855
18857SOL    HW261702   6.061   3.708   7.141  2.9189 -0.3904 -0.6052
18858SOL     OW61703   2.921   0.531   0.279 -0.1241 -0.0136  0.3446
18858SOL    HW161704   2.901   0.564   0.367  0.0872 -0.6856  0.6552
18858SOL    HW261705   3.011   0.560   0.263 -0.3092  0.4624  0.1838
18859SOL     OW61706   6.437   0.844   8.009 -0.5012  0.7008  0.2343
18859SOL    HW161707   6.463   0.783   7.941 -1.3546 -0.7489  1.1671
18859SOL    HW261708   6.393   0.916   7.963  4.0634  2.6926 -1.2586
18860SOL     OW61709   3.775   6.789  10.175 -0.1175  0.0732 -0.3904
18860SOL    HW161710   3.738   6.701  10.165  0.0991 -0.1543  0.7378
18860SOL    HW261711   3.823   6.785  10.257  0.7635  0.9506 -0.8590
18861SOL     OW61712   3.452   8.862   8.140  0.3734 -0.0412 -0.4151
18861SOL    HW161713   3.514   8.919   8.186  2.0808 -0.9215 -1.5316
18861SOL    HW261714   3.482   8.863   8.049 -1.8470  0.2280 -1.1642
18862SOL     OW61715   1.232   6.497   6.756  0.2865  0.1757  0.4519
18862SOL    HW161716   1.224   6.575   6.811  0.5047  0.0387  0.6829
18862SOL    HW261717   1.302   6.446   6.797  0.1685 -0.1244  0.2845
18863SOL     OW61718  10.240   9.789   5.770 -0.0734 -0.4743 -0.6629
18863SOL    HW161719  10.278   9.850   5.708  0.1441  0.2474  0.1720
18863SOL    HW261720  10.148   9.817   5.778  0.4404  0.7920  0.9810
18864SOL     OW61721   1.965   9.473   7.157  0.0599 -0.3066 -0.0442
18864SOL    HW161722   2.032   9.518   7.105 -0.5768 -0.1315 -0.7279
18864SOL    HW261723   1.972   9.381   7.132  1.1188 -0.5312  1.0823
18865SOL     OW61724   1.397   8.975  11.094  0.3115  0.3719  0.4294
18865SOL    HW161725   1.439   8.892  11.070  1.6197  0.9579  0.6076
18865SOL    HW261726   1.471   9.036  11.105 -0.7418  2.2567 -2.3087
18866SOL     OW61727   7.867   7.323   9.428  0.1327 -0.2427 -0.2173
18866SOL    HW161728   7.811   7.268   9.482 -0.7610 -0.8435 -1.7148
18866SOL    HW261729   7.873   7.406   9.476 -0.6850 -0.7344  0.7611
18867SOL     OW61730   1.103   1.617   9.200 -0.2486 -0.4671 -0.1639
18867SOL    HW161731   1.139   1.680   9.262  0.2367 -1.5685  0.6879
18867SOL    HW261732   1.030   1.663   9.159  0.0280  0.6028  0.5344
18868SOL     OW61733   8.588   6.031   5.632 -0.1331 -0.1181  0.0228
18868SOL    HW161734   8.574   6.125   5.632 -2.5400 -0.4572 -0.0999
18868SOL    HW261735   8.682   6.021   5.616  0.7094  2.2970  3.1474
18869SOL     OW61736   9.534   9.715   5.474  0.3074  0.4693 -0.1927
18869SOL    HW161737   9.610   9.768   5.498  0.8846 -0.2713 -0.3638
18869SOL    HW261738   9.517   9.661   5.551 -0.0077  0.5987 -0.1724
18870SOL     OW61739  11.132   9.617  10.580 -0.1022  0.4167  0.2338
18870SOL    HW161740  11.062   9.668  10.540  0.2671  0.3052 -0.5630
18870SOL    HW261741  11.106   9.526  10.567 -0.2680  0.3877  0.7646
18871SOL     OW61742   1.478   1.442   6.745  0.4846 -0.2373  0.1237
18871SOL    HW161743   1.482   1.531   6.710  0.2161 -0.5833 -0.8002
18871SOL    HW261744   1.483   1.386   6.668 -2.4130 -0.9858  0.4334
18872SOL     OW61745   2.051   1.369   9.845  0.4370  0.7867 -0.2321
18872SOL    HW161746   1.959   1.393   9.856 -0.0479 -1.0048 -0.3679
18872SOL    HW261747   2.079   1.339   9.932 -0.3465 -2.8438 -1.1668
18873SOL     OW61748   7.989   4.852   9.960  0.1941  0.6507 -0.6500
18873SOL    HW161749   8.020   4.859  10.050  2.6044  0.0261 -1.3889
18873SOL    HW261750   7.913   4.909   9.956  0.3517  1.0602  1.6565
18874SOL     OW61751  10.212  10.527  11.282 -0.2519 -0.3491  0.1147
18874SOL    HW161752  10.178  10.496  11.198  0.6502  0.3089 -0.4996
18874SOL    HW261753  10.261  10.607  11.260 -0.0901 -0.1236  1.2734
18875SOL     OW61754   0.495   3.722   9.561  0.1920 -0.0569  0.0936
18875SOL    HW161755   0.463   3.785   9.626 -1.2168  1.3746 -1.9012
18875SOL    HW261756   0.433   3.649   9.565 -0.0630  0.1642  0.1589
18876SOL     OW61757   3.828   4.627  10.575  0.1470  0.6881 -0.6355
18876SOL    HW161758   3.773   4.549  10.573  0.0375  0.7482 -0.1199
18876SOL    HW261759   3.890   4.615  10.503 -0.6212  0.6780 -1.3085
18877SOL     OW61760   1.280  10.781   0.371 -0.1370  0.2039  0.0766
18877SOL    HW161761   1.239  10.831   0.301  0.8846 -0.4267 -0.9786
18877SOL    HW261762   1.369  10.816   0.376 -0.6099  1.2084  2.0061
18878SOL     OW61763   3.485   2.324   4.747 -0.5103 -0.2692  0.0093
18878SOL    HW161764   3.420   2.273   4.699 -0.9037 -1.2520  1.5274
18878SOL    HW261765   3.448   2.335   4.835  1.0942 -0.3451  0.7298
18879SOL     OW61766   3.904   4.641   6.209 -0.3255 -0.5029  0.0733
18879SOL    HW161767   3.966   4.587   6.257  0.4960 -0.3031 -0.7419
18879SOL    HW261768   3.956   4.713   6.174 -0.3218 -2.0954 -3.4440
18880SOL     OW61769   0.770   0.836   1.133  0.1574 -0.4511 -0.8565
18880SOL    HW161770   0.776   0.893   1.057  1.7400  0.8181  0.1730
18880SOL    HW261771   0.797   0.892   1.207 -0.6863 -1.8354  0.5247
18881SOL     OW61772   8.181   0.522   0.266  0.2918 -0.3677  0.2983
18881SOL    HW161773   8.240   0.526   0.341  0.5862 -1.1326  0.1190
18881SOL    HW261774   8.095   0.505   0.305  0.5578 -1.4741  0.4309
18882SOL     OW61775   5.142  11.277   9.138  0.3747 -0.2563 -0.4040
18882SOL    HW161776   5.050  11.268   9.112  0.4699 -0.1975 -0.7703
18882SOL    HW261777   5.140  11.272   9.233  0.1225 -1.4038 -0.4568
18883SOL     OW61778   6.957   8.251   5.891  0.4062  0.1062 -0.1046
18883SOL    HW161779   6.910   8.216   5.967 -1.1352  1.9820 -0.1667
18883SOL    HW261780   6.930   8.196   5.818  1.9161 -1.7287  0.6702
18884SOL     OW61781   3.308  10.250   1.980  0.2886  0.5700  0.0287
18884SOL    HW161782   3.292  10.235   1.887  2.6099  0.3742 -0.3639
18884SOL    HW261783   3.378  10.188   2.003  0.0869  0.9547  1.7831
18885SOL     OW61784   9.197   0.207   9.633  0.0164 -0.4114  0.5410
18885SOL    HW161785   9.178   0.113   9.632  1.8447 -0.8618  3.0921
18885SOL    HW261786   9.288   0.213   9.602 -0.3040  0.6016 -0.2351
18886SOL     OW61787   2.865   1.007   3.825 -0.0695  0.0659 -0.1289
18886SOL    HW161788   2.908   0.931   3.866  0.7283  0.2376 -0.6460
18886SOL    HW261789   2.853   0.981   3.734 -0.5820  0.2245 -0.1046
18887SOL     OW61790   3.558   8.897   3.942 -0.1708 -0.3182 -0.2398
18887SOL    HW161791   3.511   8.814   3.931 -2.0484  0.9935 -2.3030
18887SOL    HW261792   3.503   8.948   4.001  1.2105 -0.6647  1.3944
18888SOL     OW61793   0.427   6.269  11.249  0.1180 -0.5544  0.3480
18888SOL    HW161794   0.392   6.322  11.177 -0.1230 -0.3957  0.5831
18888SOL    HW261795   0.390   6.182  11.235  0.3968 -0.6277  0.0475
18889SOL     OW61796   9.717   7.399   0.050 -0.0595 -0.2828 -0.1946
18889SOL    HW161797   9.718   7.453  -0.029 -1.5532 -1.1433 -0.8298
18889SOL    HW261798   9.800   7.418   0.093 -0.3184  2.1328 -0.6617
18890SOL     OW61799   0.521   2.048   9.264 -0.2170  0.1950  0.4094
18890SOL    HW161800   0.431   2.029   9.235  0.1162 -0.8548  0.0712
18890SOL    HW261801   0.544   2.127   9.216 -0.0421 -0.9569 -1.4633
18891SOL     OW61802   9.806   4.796  10.302  0.2076 -0.3015  0.7906
18891SOL    HW161803   9.891   4.771  10.266  0.8702 -0.2713  2.2915
18891SOL    HW261804   9.814   4.780  10.396 -0.1929  3.1336  1.4678
18892SOL     OW61805   5.727   4.236   8.988  0.4175  0.1505  0.0661
18892SOL    HW161806   5.755   4.145   8.984  0.6089  0.0321  3.0013
18892SOL    HW261807   5.633   4.233   8.976  0.5158 -0.3514 -0.6052
18893SOL     OW61808  10.239  10.553   2.647 -0.8389  0.1120 -0.4171
18893SOL    HW161809  10.319  10.605   2.637  0.6571 -2.4510 -2.1851
18893SOL    HW261810  10.232  10.537   2.741  1.5447 -0.8300 -0.3684
18894SOL     OW61811   6.200   6.457   9.879  0.3497  0.3337  0.1817
18894SOL    HW161812   6.158   6.406   9.810  0.0840 -0.1844  0.7209
18894SOL    HW261813   6.128   6.500   9.924  0.5889  1.3472 -0.3955
18895SOL     OW61814   0.933  10.763   2.533 -0.0778  0.5253 -0.1594
18895SOL    HW161815   0.903  10.793   2.619  0.5427 -0.5204  0.4407
18895SOL    HW261816   0.876  10.807   2.471 -0.3493  1.5252  0.7828
18896SOL     OW61817   2.567   3.335  10.715  0.0388 -0.2464  0.2467
18896SOL    HW161818   2.498   3.364  10.775  1.1915 -0.3424  1.6381
18896SOL    HW261819   2.572   3.405  10.650 -0.0378  0.6932  1.2341
18897SOL     OW61820   1.629   0.215   9.665  0.2693  0.0395  0.8265
18897SOL    HW161821   1.605   0.201   9.574 -1.5929  2.2934  0.9219
18897SOL    HW261822   1.689   0.143   9.686 -0.2040 -1.1639 -1.8089
18898SOL     OW61823   1.813   2.164   1.471 -0.2646  0.0259 -0.2740
18898SOL    HW161824   1.899   2.203   1.457  0.0289  0.1019  1.5258
18898SOL    HW261825   1.760   2.235   1.506 -0.1909 -0.7479  1.4715
18899SOL     OW61826   3.581   1.457   9.362 -0.2295  0.3280 -0.3093
18899SOL    HW161827   3.516   1.387   9.373  1.3693 -1.2081 -0.3724
18899SOL    HW261828   3.614   1.472   9.451  2.7894 -2.3434 -0.9178
18900SOL     OW61829   9.307   6.575   2.313  0.6242 -0.5652 -0.5382
18900SOL    HW161830   9.231   6.519   2.326  0.2199  0.3529  1.2240
18900SOL    HW261831   9.271   6.658   2.282  0.8979 -0.1155  0.3403
18901SOL     OW61832   2.939   8.536   5.314 -0.6161 -0.0945 -0.2777
18901SOL    HW161833   2.897   8.487   5.244 -2.3916  2.4769 -1.0797
18901SOL    HW261834   2.891   8.510   5.393  1.6211 -3.2707  0.1426
18902SOL     OW61835   1.743   7.576   9.037 -0.0535  0.1000  0.3670
18902SOL    HW161836   1.668   7.585   8.979  0.9175  0.9862 -0.7684
18902SOL    HW261837   1.818   7.603   8.984  0.9309  0.2565  1.8164
18903SOL     OW61838   8.158   0.294   6.597 -0.4798  0.3374  0.1391
18903SOL    HW161839   8.251   0.305   6.576 -0.2791 -1.8626 -0.3562
18903SOL    HW261840   8.158   0.246   6.679 -1.1615  0.0024 -0.0535
18904SOL     OW61841   5.728   2.716   8.692 -0.0958 -0.2743  0.1187
18904SOL    HW161842   5.811   2.763   8.694 -1.1293  1.5808  1.4723
18904SOL    HW261843   5.690   2.730   8.779 -1.7504 -1.2113 -0.4153
18905SOL     OW61844   7.903   8.841   9.552 -0.5745 -0.2919  0.1171
18905SOL    HW161845   7.972   8.880   9.498 -2.7286  2.1297 -1.0109
18905SOL    HW261846   7.930   8.859   9.642 -0.3273  1.7686 -0.3442
18906SOL     OW61847   9.457   7.656   4.583  0.3039 -0.2557  0.3391
18906SOL    HW161848   9.425   7.610   4.505 -0.8145 -0.1521  0.7225
18906SOL    HW261849   9.517   7.722   4.549  1.3827 -1.5278 -0.2731
18907SOL     OW61850   5.440   2.662   5.321  0.6035  0.0036  0.0903
18907SOL    HW161851   5.520   2.617   5.295  0.0837 -0.3377 -0.9296
18907SOL    HW261852   5.435   2.737   5.263  0.5796  0.4500  0.6660
18908SOL     OW61853  10.463   5.735   3.009  0.0439  0.1290  0.4141
18908SOL    HW161854  10.376   5.745   3.047  0.2466  2.0885  0.4234
18908SOL    HW261855  10.516   5.802   3.052  1.4135 -0.6277 -0.0374
18909SOL     OW61856   9.284   8.333   1.143 -0.4385 -0.2221  0.4368
18909SOL    HW161857   9.192   8.311   1.130 -0.2301 -1.7538  1.4497
18909SOL    HW261858   9.302   8.402   1.078 -2.7789  1.4681  1.5247
18910SOL     OW61859   5.545   5.802  10.844  0.4670  0.4853  0.6040
18910SOL    HW161860   5.462   5.763  10.872  2.0319 -1.3239  2.9854
18910SOL    HW261861   5.539   5.893  10.873 -0.2720  0.1060  1.6824
18911SOL     OW61862   7.642  10.541   1.858  0.0881  0.5807 -0.3750
18911SOL    HW161863   7.736  10.534   1.871  0.1098  0.3845 -0.6220
18911SOL    HW261864   7.605  10.471   1.913  0.1119  0.4216 -0.5588
18912SOL     OW61865   5.861  10.057   0.497 -0.9405 -0.2254 -0.1128
18912SOL    HW161866   5.897  10.118   0.433  1.1432  0.0435  1.2724
18912SOL    HW261867   5.871   9.971   0.456  2.2642 -0.2594  0.6332
18913SOL     OW61868  11.259   4.130   3.512 -0.4349  0.3400 -0.3346
18913SOL    HW161869  11.195   4.168   3.571 -0.4255  1.3803 -0.9677
18913SOL    HW261870  11.244   4.175   3.428  2.4884  2.1813  0.0421
18914SOL     OW61871   9.716   3.732   6.705 -0.2526  0.1723 -0.6235
18914SOL    HW161872   9.700   3.797   6.773 -0.1801  1.4888 -1.8371
18914SOL    HW261873   9.678   3.770   6.626 -1.7388 -2.0112 -1.0169
18915SOL     OW61874   9.181   3.887   7.364  0.1213  0.7426  0.2315
18915SOL    HW161875   9.173   3.982   7.357  0.4121  0.8635  1.3438
18915SOL    HW261876   9.128   3.863   7.440  0.3412  0.0664  0.1837
18916SOL     OW61877   0.035   5.505   2.472 -1.1705 -0.1137  0.0462
18916SOL    HW161878  -0.020   5.438   2.431  0.0754 -0.5770 -0.9284
18916SOL    HW261879   0.035   5.483   2.565 -0.5601 -1.6401 -0.3023
18917SOL     OW61880   3.174   5.143   9.048  0.2413  0.4018 -0.0540
18917SOL    HW161881   3.210   5.101   8.970  1.8150 -0.7992  1.2508
18917SOL    HW261882   3.109   5.204   9.016 -0.0372 -0.9980 -2.2152
18918SOL     OW61883  10.685  10.141  11.114  0.3919  0.1190  0.2480
18918SOL    HW161884  10.744  10.216  11.121 -2.6731  2.9078 -2.1975
18918SOL    HW261885  10.617  10.159  11.179  0.1194 -1.0695  0.3045
18919SOL     OW61886   8.431   9.794   6.587 -0.2843  0.1134 -0.5503
18919SOL    HW161887   8.346   9.770   6.624 -0.5860 -0.1957 -1.4181
18919SOL    HW261888   8.433   9.889   6.592 -0.7670  0.1362 -0.6782
18920SOL     OW61889   3.561   7.827   7.989 -1.0206  0.5097 -0.4677
18920SOL    HW161890   3.531   7.740   7.961 -2.1806  0.1738  1.7349
18920SOL    HW261891   3.605   7.811   8.072 -0.1119  1.8788 -0.6762
18921SOL     OW61892   6.138   9.307   1.738 -0.4507  0.1300 -0.0139
18921SOL    HW161893   6.053   9.300   1.783  0.0908  0.0059  1.0184
18921SOL    HW261894   6.199   9.333   1.807  0.3977 -0.0173 -0.7004
18922SOL     OW61895   8.858  10.195   1.520  0.4343  0.0398 -0.2657
18922SOL    HW161896   8.810  10.177   1.440  0.1384  0.7292 -0.2530
18922SOL    HW261897   8.948  10.210   1.492 -0.0415  2.3044 -0.7408
18923SOL     OW61898   6.103   0.647  10.981  0.2062  0.0559  0.0406
18923SOL    HW161899   6.111   0.696  10.899  1.4262 -0.0971  0.0660
18923SOL    HW261900   6.187   0.603  10.991  0.1702  0.3223  1.5426
18924SOL     OW61901   9.845   9.369   3.343  0.7863  0.1066 -0.5842
18924SOL    HW161902   9.867   9.380   3.251 -0.6489  0.4686 -0.8887
18924SOL    HW261903   9.754   9.339   3.343  0.0998  2.0700  0.7799
18925SOL     OW61904   3.783   7.680   3.933 -0.5387  0.3483  0.2393
18925SOL    HW161905   3.730   7.617   3.982  0.3110  0.8328  1.7919
18925SOL    HW261906   3.833   7.627   3.871 -1.7594 -0.2420 -0.2674
18926SOL     OW61907  10.907   9.069   7.165  0.1624  0.0232 -0.5591
18926SOL    HW161908  10.954   9.133   7.219  0.3139 -0.0018 -0.6606
18926SOL    HW261909  10.817   9.100   7.164 -0.3776 -1.3604  1.8238
18927SOL     OW61910   3.775   9.779   7.760 -0.3420 -0.1318 -0.1995
18927SOL    HW161911   3.709   9.774   7.830  0.3776  1.2960  0.5886
18927SOL    HW261912   3.848   9.726   7.793  0.6539  1.8476  0.8887
18928SOL     OW61913   4.109  10.422   2.202  0.6884 -0.4418  0.6293
18928SOL    HW161914   4.125  10.334   2.168  0.9729 -0.3011  0.4001
18928SOL    HW261915   4.183  10.474   2.170 -0.3696  0.2782 -0.6589
18929SOL     OW61916  10.246   2.685   1.907  0.4697  0.3102 -0.0449
18929SOL    HW161917  10.160   2.711   1.941 -0.2755 -0.1648 -1.5233
18929SOL    HW261918  10.308   2.723   1.968 -0.8385 -0.5867  1.8777
18930SOL     OW61919   3.929  10.406   3.552  0.1849 -0.1806  0.0833
18930SOL    HW161920   3.964  10.473   3.610 -1.7135  0.6063  0.3343
18930SOL    HW261921   3.882  10.454   3.484  1.8108 -1.1146 -1.7662
18931SOL     OW61922   9.876   6.502   8.242 -0.2793  0.0189 -0.6888
18931SOL    HW161923   9.814   6.443   8.201 -0.8979 -0.0792  0.3538
18931SOL    HW261924   9.864   6.488   8.336  0.3653  0.9707 -0.4480
18932SOL     OW61925   1.212   4.655   2.265 -0.2078  0.3380 -0.1404
18932SOL    HW161926   1.293   4.707   2.266 -0.7236  1.1519  0.6142
18932SOL    HW261927   1.237   4.572   2.224  1.1646  0.3199  0.6936
18933SOL     OW61928   1.818   7.366   8.137  0.1035  0.4275  0.1146
18933SOL    HW161929   1.782   7.279   8.156  1.4117 -0.2117 -0.2858
18933SOL    HW261930   1.874   7.352   8.061  0.2324  1.6553 -0.0176
18934SOL     OW61931   5.024   5.090   7.927  0.2645  0.4313  0.4208
18934SOL    HW161932   5.061   5.178   7.918  0.5968  0.2424 -0.0561
18934SOL    HW261933   5.100   5.034   7.943  0.2162  0.0021 -0.8270
18935SOL     OW61934   2.616   4.074   6.434  0.6472 -0.6131 -0.5814
18935SOL    HW161935   2.611   4.007   6.503  0.1789  1.8961  1.9217
18935SOL    HW261936   2.526   4.104   6.423  1.2181  1.5564  0.3760
18936SOL     OW61937   1.146   1.848   9.872 -0.3657 -0.1238 -0.3881
18936SOL    HW161938   1.060   1.883   9.893  0.8280  2.3216  0.6698
18936SOL    HW261939   1.169   1.793   9.947 -1.2112 -1.2529 -0.9362
18937SOL     OW61940   9.460  10.701   3.584  0.1608  0.4469 -0.6917
18937SOL    HW161941   9.512  10.674   3.508  0.0126 -0.7055 -0.3932
18937SOL    HW261942   9.370  10.683   3.559  0.1554 -0.5045 -0.0238
18938SOL     OW61943   7.802   9.223   6.437  0.2264 -0.3676  0.5679
18938SOL    HW161944   7.778   9.299   6.384  0.9318 -1.2405 -1.0268
18938SOL    HW261945   7.896   9.234   6.454  0.8373 -2.0607 -1.6337
18939SOL     OW61946   0.584   4.708   2.509  0.8026  0.3116 -0.4505
18939SOL    HW161947   0.623   4.738   2.591  0.0941  1.0075 -0.3529
18939SOL    HW261948   0.650   4.728   2.442  0.8341  1.0073 -0.2223
18940SOL     OW61949   1.749   1.774   4.272  0.0884 -0.3527 -0.6191
18940SOL    HW161950   1.765   1.822   4.354  0.4746  1.8956 -1.9703
18940SOL    HW261951   1.661   1.738   4.283 -0.5068  1.2591  0.1922
18941SOL     OW61952   4.185   5.969  10.908 -0.2231  0.1213 -0.1052
18941SOL    HW161953   4.236   6.037  10.865 -0.7508  0.8751  0.4334
18941SOL    HW261954   4.212   5.887  10.866  0.4330  0.6628 -0.7412
18942SOL     OW61955   6.372   3.818   5.672  0.6630  0.1323 -0.3528
18942SOL    HW161956   6.345   3.739   5.718 -0.3341  0.6353 -0.0622
18942SOL    HW261957   6.452   3.793   5.625 -0.4384 -1.4571 -1.4344
18943SOL     OW61958   3.892   3.761   7.201 -0.3379  0.0856  0.9849
18943SOL    HW161959   3.798   3.743   7.211 -0.1846  0.3283  2.9916
18943SOL    HW261960   3.934   3.676   7.210 -0.1436  0.4020  3.3930
18944SOL     OW61961   1.790  10.330   7.857  0.2091 -0.3442 -0.3700
18944SOL    HW161962   1.775  10.373   7.942  1.4985  1.5858 -1.0830
18944SOL    HW261963   1.708  10.344   7.809 -1.0044 -2.5585  0.9820
18945SOL     OW61964   4.504   1.095   0.174 -0.5231  0.8853 -0.1910
18945SOL    HW161965   4.444   1.162   0.140 -0.3808  1.7227  1.1810
18945SOL    HW261966   4.585   1.110   0.124 -0.9975  0.6701 -1.0409
18946SOL     OW61967   5.673   4.569   8.364 -0.4526  0.2297  0.1188
18946SOL    HW161968   5.688   4.488   8.314 -2.0151  0.1391 -0.2160
18946SOL    HW261969   5.578   4.577   8.368 -0.3311  2.7877 -1.0250
18947SOL     OW61970   5.654   9.822  10.612  0.9458  0.3224  0.2012
18947SOL    HW161971   5.611   9.767  10.547  2.6875  1.6458 -2.1215
18947SOL    HW261972   5.582   9.871  10.653 -0.4786 -2.5729  1.3468
18948SOL     OW61973   8.793  10.998   3.096 -0.1589 -0.5119  0.9195
18948SOL    HW161974   8.716  11.026   3.047  0.3398  0.7491  0.8465
18948SOL    HW261975   8.854  10.966   3.029 -0.2700 -0.6743  0.8963
18949SOL     OW61976   7.632   4.001   9.029 -0.4196 -0.0919  0.0331
18949SOL    HW161977   7.608   3.910   9.046 -1.7231  0.2875  0.2969
18949SOL    HW261978   7.559   4.035   8.978 -0.6382  1.2182  1.2117
18950SOL     OW61979  11.109   8.145   7.493 -0.0408 -0.0586  0.2843
18950SOL    HW161980  11.190   8.097   7.513 -0.6274 -1.8090 -1.3380
18950SOL    HW261981  11.042   8.076   7.488 -1.1992  1.1157 -0.6045
18951SOL     OW61982   4.124   8.972   4.053  0.4146 -0.1802 -0.2345
18951SOL    HW161983   4.060   8.905   4.030  0.1198 -0.6903  1.9855
18951SOL    HW261984   4.073   9.038   4.102  1.4655 -0.3219  1.0693
18952SOL     OW61985  10.355  10.188   4.497  0.0446  0.4607  0.5341
18952SOL    HW161986  10.271  10.223   4.526 -0.5874 -0.5614 -0.0195
18952SOL    HW261987  10.341  10.093   4.493  1.2279  0.2812  0.4456
18953SOL     OW61988   5.939   4.200   5.014  0.3500  0.2938  0.0827
18953SOL    HW161989   5.899   4.205   5.100  1.7319  1.4635  0.6742
18953SOL    HW261990   5.925   4.286   4.975 -0.3076 -0.2422 -0.8833
18954SOL     OW61991   8.969   6.484   3.460  0.0174  0.5235 -0.0279
18954SOL    HW161992   8.900   6.429   3.423  0.3467  0.8917 -1.2283
18954SOL    HW261993   8.968   6.563   3.405  1.9127  0.1997 -0.5451
18955SOL     OW61994   7.472   3.151  10.899 -0.1378 -0.5420  0.1427
18955SOL    HW161995   7.497   3.229  10.851 -1.1238 -0.3315 -0.0346
18955SOL    HW261996   7.475   3.177  10.992  0.9249 -0.7033  0.1531
18956SOL     OW61997   3.547   0.568   6.603 -0.2853  0.0437 -0.1004
18956SOL    HW161998   3.532   0.662   6.612 -0.7917  0.0377 -0.8954
18956SOL    HW261999   3.638   0.556   6.633 -0.3017  0.7400  0.2437
18957SOL     OW62000   2.676   9.728   5.940 -0.5450 -0.1507  0.2818
18957SOL    HW162001   2.693   9.730   5.845 -1.8539  1.1009  0.0471
18957SOL    HW262002   2.610   9.659   5.951 -2.1767  1.2984 -0.0720
18958SOL     OW62003   2.813   7.605   3.145  0.4159  0.1985 -0.4705
18958SOL    HW162004   2.730   7.562   3.162  0.5471  0.9779  2.5932
18958SOL    HW262005   2.806   7.689   3.190  2.7326  0.4047 -0.4140
18959SOL     OW62006   3.109   9.471   0.503  0.1518 -0.4342 -0.2742
18959SOL    HW162007   3.060   9.443   0.426  0.8864 -2.8242  0.1131
18959SOL    HW262008   3.201   9.459   0.479  0.4084 -0.4684  0.7155
18960SOL     OW62009   5.963   1.652   7.650 -0.5145 -0.8551 -0.3152
18960SOL    HW162010   6.027   1.581   7.643  0.0957 -0.2982 -0.4357
18960SOL    HW262011   5.942   1.675   7.560 -0.2989 -0.5132 -0.2791
18961SOL     OW62012   9.314  10.065   1.519  0.2455  0.5272  0.3246
18961SOL    HW162013   9.404  10.037   1.536  0.6632  0.9235 -1.1107
18961SOL    HW262014   9.286  10.010   1.446 -0.2846  1.1706  0.0400
18962SOL     OW62015   9.156  10.897   4.736 -0.0041  0.5824 -0.4771
18962SOL    HW162016   9.166  10.950   4.815 -2.9953 -3.5164  2.8577
18962SOL    HW262017   9.230  10.835   4.740  0.5695  1.1763 -1.6354
18963SOL     OW62018   3.307   6.755   0.256  0.1634 -0.3426  0.1161
18963SOL    HW162019   3.393   6.797   0.267  0.0560 -0.2526  0.6409
18963SOL    HW262020   3.313   6.674   0.306 -0.6040  0.4598  1.5544
18964SOL     OW62021   1.663  10.427   5.908  0.3884  0.7106 -0.2605
18964SOL    HW162022   1.748  10.470   5.917  1.7644 -1.2604 -3.0610
18964SOL    HW262023   1.662  10.395   5.818 -1.4380 -3.2643  1.0592
18965SOL     OW62024   4.817   5.698   1.056 -0.0945 -0.0587  0.1123
18965SOL    HW162025   4.875   5.690   1.131 -0.3844 -1.2932  0.2176
18965SOL    HW262026   4.731   5.671   1.089 -0.3484 -0.0298 -0.5171
18966SOL     OW62027   9.325   7.667   6.301  0.4066 -0.1391  0.6256
18966SOL    HW162028   9.396   7.725   6.330  1.5586 -1.2516  0.0767
18966SOL    HW262029   9.357   7.579   6.322 -1.3537 -0.5707  1.5149
18967SOL     OW62030  10.202   9.959   1.727  0.5198 -0.1044  0.4157
18967SOL    HW162031  10.157   9.894   1.781 -1.2815 -0.5167 -1.4806
18967SOL    HW262032  10.266   9.909   1.677 -0.3083 -0.3303 -0.4469
18968SOL     OW62033   0.136   0.198   8.750 -0.1843  0.4872  0.2312
18968SOL    HW162034   0.046   0.168   8.765  0.9765 -3.1741  0.4040
18968SOL    HW262035   0.140   0.217   8.657 -0.9998  0.0725  0.1082
18969SOL     OW62036   5.745   2.657   4.689  0.4977 -0.0374  0.4222
18969SOL    HW162037   5.766   2.750   4.677 -1.5728  0.6152  1.5652
18969SOL    HW262038   5.829   2.612   4.679  1.3445  1.8311 -1.2732
18970SOL     OW62039  10.379   5.403   7.986 -0.1760 -0.2424  0.3669
18970SOL    HW162040  10.440   5.351   7.933 -1.1820 -0.9378 -0.1391
18970SOL    HW262041  10.393   5.493   7.957  2.2360 -0.0855  1.8954
18971SOL     OW62042  11.072   6.347   9.908 -0.0576 -0.0395  0.2318
18971SOL    HW162043  11.014   6.271   9.908 -2.1835  1.5151 -0.4876
18971SOL    HW262044  11.055   6.390   9.992  0.1897  0.3378  0.0877
18972SOL     OW62045   3.280   7.687   8.536 -0.6348  0.6233  0.3762
18972SOL    HW162046   3.293   7.608   8.483  2.1942 -0.2659  2.2866
18972SOL    HW262047   3.186   7.704   8.531 -0.7727 -0.7188 -3.0454
18973SOL     OW62048   3.746   2.957   4.308  0.1500 -0.1444  0.1900
18973SOL    HW162049   3.770   2.925   4.395  0.6262  1.1945  0.5668
18973SOL    HW262050   3.826   2.947   4.256  0.6683  1.4977  0.6313
18974SOL     OW62051   3.620   5.385   6.675 -0.2805 -0.1209 -0.5950
18974SOL    HW162052   3.577   5.318   6.623 -1.1049  0.6035 -0.8566
18974SOL    HW262053   3.550   5.426   6.725  0.3247  0.0517  0.1202
18975SOL     OW62054   0.944   6.809   3.410 -0.1195 -0.3439  0.0589
18975SOL    HW162055   0.877   6.860   3.365 -0.2382 -0.0705  0.5392
18975SOL    HW262056   0.981   6.870   3.474  0.9103 -0.3464 -0.5098
18976SOL     OW62057   9.977   6.203   9.622 -0.2344 -0.4326  0.4060
18976SOL    HW162058   9.938   6.262   9.686  1.9392  0.6463  0.7824
18976SOL    HW262059  10.029   6.142   9.673  0.2509 -0.5448 -0.2139
18977SOL     OW62060   0.232   8.189   0.953  0.5110 -0.8693  0.3584
18977SOL    HW162061   0.201   8.168   1.041 -0.5722 -0.3325  0.1044
18977SOL    HW262062   0.158   8.171   0.896 -0.3149  3.0776  0.0645
18978SOL     OW62063   4.904   5.087   1.501 -0.7191  0.0153 -0.3025
18978SOL    HW162064   4.895   5.062   1.409 -1.9149 -0.5933 -0.0333
18978SOL    HW262065   4.989   5.052   1.528 -0.2921  0.3499 -1.2237
18979SOL     OW62066  10.034   5.448  10.917  0.2363  0.2318 -1.0929
18979SOL    HW162067  10.014   5.517  10.980  2.1722  0.9851 -1.2694
18979SOL    HW262068  10.091   5.387  10.964 -0.0442 -0.3355 -1.4739
18980SOL     OW62069   3.078   2.473   8.966 -0.4287 -0.2545 -0.1488
18980SOL    HW162070   3.104   2.389   9.006 -1.0420  0.0997  1.0051
18980SOL    HW262071   3.007   2.505   9.021  0.7691  1.7309  0.2869
18981SOL     OW62072   6.821   1.731   4.691  0.1540 -0.2743 -0.5212
18981SOL    HW162073   6.835   1.638   4.707  0.9407 -0.3670 -1.6859
18981SOL    HW262074   6.736   1.735   4.646  0.1737 -0.4478 -0.5752
18982SOL     OW62075   1.261  11.325   6.458 -0.2191  0.0132  0.0627
18982SOL    HW162076   1.258  11.420   6.471  0.4202  0.1668 -0.8283
18982SOL    HW262077   1.324  11.295   6.523  0.3851  0.3416 -0.3638
18983SOL     OW62078   4.180   6.075   7.539  0.5027  0.6615  0.2548
18983SOL    HW162079   4.249   6.125   7.581  1.3305 -1.0450  0.9993
18983SOL    HW262080   4.221   6.039   7.461  0.5551 -0.5577  0.8279
18984SOL     OW62081   6.890   1.324   6.884 -0.4258  0.1904  0.0418
18984SOL    HW162082   6.962   1.311   6.946 -0.5503  0.1710  0.1834
18984SOL    HW262083   6.864   1.236   6.858  0.5167  0.2355 -1.0744
18985SOL     OW62084   7.454   1.383   7.565  0.4321 -0.3261  0.0335
18985SOL    HW162085   7.475   1.381   7.658 -2.1541 -0.4080  0.6497
18985SOL    HW262086   7.416   1.297   7.548  1.2423 -0.4467 -1.1843
18986SOL     OW62087  10.324   9.904   4.419  0.0495 -0.7083 -0.4240
18986SOL    HW162088  10.239   9.878   4.382 -0.9911  0.5850  1.0482
18986SOL    HW262089  10.380   9.918   4.342 -1.2672 -0.8587 -1.4238
18987SOL     OW62090   0.705   9.931   0.389  0.3484  0.1615  0.3685
18987SOL    HW162091   0.621   9.953   0.428  0.4314  0.4057  0.4088
18987SOL    HW262092   0.691   9.938   0.294  0.2685  0.0027  0.3685
18988SOL     OW62093  10.934   7.875   4.230  0.0410 -0.1129 -0.2552
18988SOL    HW162094  10.986   7.935   4.177  0.8661 -0.6056 -0.0170
18988SOL    HW262095  10.888   7.931   4.292  1.4128  0.2094  0.4885
18989SOL     OW62096   5.260   2.869   1.289  1.2221  0.0166  0.2794
18989SOL    HW162097   5.332   2.807   1.297  1.0432 -0.2083  0.1689
18989SOL    HW262098   5.181   2.814   1.291  1.1171  0.0368 -1.7299
18990SOL     OW62099   4.194   6.813   9.316  0.0754  0.1266  0.3329
18990SOL    HW162100   4.211   6.856   9.399 -2.5072 -0.8584  1.4229
18990SOL    HW262101   4.165   6.884   9.258  0.8038  0.6369  0.5803
18991SOL     OW62102  10.926   1.610   6.460 -0.1152 -0.3901  0.4702
18991SOL    HW162103  10.844   1.576   6.423 -0.6649  1.8976 -0.5172
18991SOL    HW262104  10.907   1.623   6.553 -0.6020 -0.6752  0.4140
18992SOL     OW62105   8.658   6.157   0.652 -0.0179 -0.2575 -0.2348
18992SOL    HW162106   8.737   6.210   0.642 -0.5718  0.3573 -1.3952
18992SOL    HW262107   8.647   6.114   0.567 -0.7808 -0.5490  0.0075
18993SOL     OW62108   3.577   2.894   3.332 -0.7187 -0.0073 -0.0602
18993SOL    HW162109   3.626   2.812   3.324  0.2008  0.4915  0.4102
18993SOL    HW262110   3.492   2.868   3.369 -1.2359 -1.0091 -1.8737
18994SOL     OW62111   7.159   9.551   0.017 -0.1012 -0.2327  0.7584
18994SOL    HW162112   7.071   9.557  -0.019 -0.0368 -0.6301  0.5292
18994SOL    HW262113   7.197   9.638   0.003  0.2220 -0.6260 -0.9390
18995SOL     OW62114  10.516   8.989   0.961 -0.3817 -0.0749 -0.3422
18995SOL    HW162115  10.468   8.928   1.017 -0.2751 -1.5733 -1.8280
18995SOL    HW262116  10.448   9.036   0.914 -0.4482  0.2443  0.0706
18996SOL     OW62117   1.342   2.854   9.364 -0.1448 -0.3150 -0.4978
18996SOL    HW162118   1.376   2.879   9.449  0.5512  0.8974 -1.1171
18996SOL    HW262119   1.248   2.871   9.368 -0.0606  0.0273 -0.0830
18997SOL     OW62120   9.857   4.165   6.982 -0.4572 -0.5596  0.0705
18997SOL    HW162121   9.777   4.154   6.931  0.5561 -0.6548 -1.5300
18997SOL    HW262122   9.927   4.166   6.917  0.9637 -1.6904  1.5428
18998SOL     OW62123   6.099  10.504   9.135 -0.6366  0.1593  0.5559
18998SOL    HW162124   6.188  10.494   9.169 -0.4671 -1.0026 -0.1791
18998SOL    HW262125   6.094  10.597   9.110 -0.1317  0.5704  1.9360
18999SOL     OW62126  10.101   1.871   5.156  0.0471 -0.0552  0.4563
18999SOL    HW162127  10.088   1.867   5.251  1.1400  1.1417  0.6705
18999SOL    HW262128  10.037   1.935   5.125 -0.2777 -0.4104  0.3922
19000SOL     OW62129   1.881  10.316   3.358  0.2610 -0.1104 -0.3949
19000SOL    HW162130   1.815  10.349   3.297  1.4588 -0.1168 -1.7249
19000SOL    HW262131   1.836  10.248   3.408 -0.5113 -0.7168 -1.8809
19001SOL     OW62132   2.545   0.658   3.342 -0.7075  0.2130 -0.4229
19001SOL    HW162133   2.565   0.674   3.249 -0.1679 -1.6052 -0.6465
19001SOL    HW262134   2.453   0.632   3.342  0.0448 -2.7382 -0.8890
19002SOL     OW62135   2.868   5.545   0.957  0.5886 -0.4338 -0.1698
19002SOL    HW162136   2.913   5.623   0.989 -0.6338  0.8354 -1.4131
19002SOL    HW262137   2.936   5.494   0.913  0.9724  1.1593 -1.4920
19003SOL     OW62138   8.468   5.541   1.015 -0.2119 -0.2085 -0.0982
19003SOL    HW162139   8.521   5.535   0.936 -1.1886  0.5969 -0.8202
19003SOL    HW262140   8.382   5.570   0.985 -0.8036 -0.5778  1.1717
19004SOL     OW62141   2.644   8.255  10.300  0.1256 -0.5528 -0.1728
19004SOL    HW162142   2.567   8.309  10.316  0.5635 -0.2255  0.8666
19004SOL    HW262143   2.619   8.168  10.333 -1.2717 -1.5333 -3.5608
19005SOL     OW62144   7.725   5.849  10.431  0.1650  0.0321  0.0630
19005SOL    HW162145   7.775   5.768  10.430 -2.3441 -1.5576  0.2397
19005SOL    HW262146   7.668   5.842  10.507 -0.0316  2.0063  0.1309
19006SOL     OW62147   5.198   9.114   0.003 -0.3717 -0.1428 -0.3662
19006SOL    HW162148   5.143   9.067  -0.059  1.8610 -3.1593 -0.1724
19006SOL    HW262149   5.283   9.123  -0.041 -0.0010  1.4064  0.6322
19007SOL     OW62150   6.981   1.689   8.699  0.1100 -0.2275  0.0887
19007SOL    HW162151   6.922   1.764   8.712  1.2615  0.7790 -0.4119
19007SOL    HW262152   6.923   1.618   8.672 -1.2000  0.0515  2.0164
19008SOL     OW62153   4.258   5.870   1.759 -0.3375 -0.0495  0.1976
19008SOL    HW162154   4.201   5.792   1.756 -1.8430  1.0634 -3.4833
19008SOL    HW262155   4.344   5.837   1.733 -0.4530 -0.8474  0.7885
19009SOL     OW62156   2.016  10.420   7.597 -0.3574 -0.4418  0.7010
19009SOL    HW162157   2.067  10.488   7.640  1.4873 -0.8117 -0.8077
19009SOL    HW262158   1.984  10.462   7.517  0.0802 -1.0756  0.1883
19010SOL     OW62159   1.742   7.032   2.593 -0.7493 -0.4095 -0.1426
19010SOL    HW162160   1.650   7.044   2.571 -0.8171  1.5569  1.1420
19010SOL    HW262161   1.788   7.099   2.541 -0.1762 -0.5565  0.1653
19011SOL     OW62162   0.741   3.291   6.260 -0.1320  0.0775 -0.6722
19011SOL    HW162163   0.733   3.338   6.343  1.7540 -1.4945  0.4589
19011SOL    HW262164   0.773   3.356   6.198  0.1123  0.8563  0.2656
19012SOL     OW62165   0.906   9.956   3.197  0.5938 -0.4177 -0.1790
19012SOL    HW162166   0.922   9.911   3.115 -0.5191 -1.7126  0.3039
19012SOL    HW262167   0.813   9.978   3.195  0.7010  0.1188  0.4567
19013SOL     OW62168   3.915   5.024   9.227 -0.2601  0.5734  0.0736
19013SOL    HW162169   3.880   5.112   9.217  1.6461  1.3058 -0.3996
19013SOL    HW262170   3.872   4.973   9.158 -1.8042  0.9912  0.7302
19014SOL     OW62171  10.926   0.427   7.291 -0.0491  0.1188 -0.0664
19014SOL    HW162172  10.846   0.466   7.327  0.4999  0.5769  0.6823
19014SOL    HW262173  10.968   0.386   7.367 -0.8736 -2.4401 -0.9214
19015SOL     OW62174   9.979   3.688   9.055 -0.3126 -0.2005 -0.3752
19015SOL    HW162175  10.018   3.604   9.032  1.9975  0.6364  0.3278
19015SOL    HW262176   9.962   3.682   9.149 -1.2393 -0.2900 -0.5417
19016SOL     OW62177   6.997   7.392   4.849  0.2454 -0.4292 -0.4526
19016SOL    HW162178   6.983   7.352   4.764  2.8412 -0.5983 -0.8217
19016SOL    HW262179   7.021   7.483   4.830  1.4722 -0.6362  0.0599
19017SOL     OW62180  10.633   9.075   6.205 -0.6225  0.5743 -0.4571
19017SOL    HW162181  10.649   9.015   6.132  0.5821  1.3297 -0.8296
19017SOL    HW262182  10.642   9.162   6.167 -1.5611  0.9998  0.2561
19018SOL     OW62183   0.780   5.366   3.958  0.7619 -0.1501  0.7440
19018SOL    HW162184   0.859   5.373   4.012  1.9176 -1.6651 -0.7316
19018SOL    HW262185   0.812   5.353   3.869 -1.1397  1.6067 -0.2470
19019SOL     OW62186   7.582   8.488   5.363  0.1123  0.5220  0.5384
19019SOL    HW162187   7.557   8.428   5.433 -1.3355 -0.5377 -0.8625
19019SOL    HW262188   7.637   8.436   5.305  1.9057  1.5961  1.2180
19020SOL     OW62189   8.219   9.246   1.712 -0.5512  0.8525  0.7295
19020SOL    HW162190   8.142   9.240   1.656  0.1852 -1.2783 -0.1087
19020SOL    HW262191   8.194   9.199   1.792  0.1434 -0.6184  0.1063
19021SOL     OW62192   5.797   5.103   2.886 -0.0647  0.1858  0.4522
19021SOL    HW162193   5.851   5.025   2.900  0.1631  0.2877  0.1676
19021SOL    HW262194   5.743   5.082   2.810  0.6592  0.6434 -0.2002
19022SOL     OW62195   7.623   0.626  11.198 -0.1908 -0.2877 -0.0693
19022SOL    HW162196   7.637   0.544  11.150 -2.2308 -0.3017 -0.6847
19022SOL    HW262197   7.625   0.693  11.130 -1.1037 -0.1024  0.0807
19023SOL     OW62198   3.588   3.595   8.211  0.2434 -0.1458  0.0041
19023SOL    HW162199   3.599   3.544   8.131 -1.0379  0.4694 -0.5879
19023SOL    HW262200   3.546   3.676   8.182  2.2885  1.2888  0.9119
19024SOL     OW62201   2.025  10.301   5.838  0.4642 -0.7112 -0.1578
19024SOL    HW162202   1.976  10.222   5.857  0.7197 -0.6226  0.8926
19024SOL    HW262203   1.995  10.365   5.902 -1.0334  0.6044 -2.0934
19025SOL     OW62204   7.140   0.337   2.980 -0.2449  0.2472 -0.0589
19025SOL    HW162205   7.153   0.258   2.927 -2.0824 -1.4604  1.8970
19025SOL    HW262206   7.064   0.316   3.034  0.0859  2.8668  1.4911
19026SOL     OW62207   4.732   5.016   9.117 -0.0369  0.7030 -0.0893
19026SOL    HW162208   4.773   5.089   9.071 -0.0104  1.1700  0.6647
19026SOL    HW262209   4.697   5.054   9.198  0.5485 -0.2408  0.6269
19027SOL     OW62210   4.314   2.709   9.200 -0.7805  0.0680  0.4016
19027SOL    HW162211   4.359   2.773   9.256 -0.5484  1.4149 -1.2958
19027SOL    HW262212   4.232   2.751   9.177 -1.9904 -1.5106  1.7220
19028SOL     OW62213   7.206   7.838   6.319 -0.3376 -0.4154 -0.3732
19028SOL    HW162214   7.123   7.791   6.321 -0.3145 -0.4296  0.4136
19028SOL    HW262215   7.204   7.888   6.237 -1.7395  0.6923  0.3170
19029SOL     OW62216   9.771   4.251   3.201 -0.2034 -0.2566 -0.1499
19029SOL    HW162217   9.834   4.323   3.208 -1.4064  0.8031 -0.0205
19029SOL    HW262218   9.687   4.291   3.223 -1.4274 -0.9111 -3.4002
19030SOL     OW62219   2.425   2.084   3.741 -0.0281  0.1470  0.4713
19030SOL    HW162220   2.465   2.006   3.701  0.6635  0.8799 -0.2692
19030SOL    HW262221   2.429   2.066   3.835 -0.3311 -0.9409  0.2900
19031SOL     OW62222   7.764   9.727  10.238  0.1824 -0.0262 -0.2602
19031SOL    HW162223   7.828   9.692  10.177  0.7063  0.2090  0.1472
19031SOL    HW262224   7.698   9.659  10.246  0.5245 -0.3826 -0.4732
19032SOL     OW62225   3.639   1.378   7.102 -0.6747 -0.4405  0.1330
19032SOL    HW162226   3.552   1.341   7.117 -0.5387 -0.9911 -0.4138
19032SOL    HW262227   3.657   1.360   7.010  0.1519 -0.6240  0.3252
19033SOL     OW62228  11.104   1.129   9.760 -0.1591 -0.0914 -0.0976
19033SOL    HW162229  11.167   1.060   9.741 -2.2963 -2.7374  1.9723
19033SOL    HW262230  11.031   1.111   9.701 -0.4729  0.7961  0.0113
19034SOL     OW62231   8.463  10.810   9.898  0.3213  0.3233 -0.0610
19034SOL    HW162232   8.408  10.733   9.909 -0.6175  0.7180 -1.8854
19034SOL    HW262233   8.551  10.775   9.884  0.2557 -0.3464  1.1172
19035SOL     OW62234   8.920  10.968   9.030  0.9248  0.0610  0.1261
19035SOL    HW162235   8.949  10.982   8.940  2.0496 -0.2516  0.4400
19035SOL    HW262236   8.970  11.031   9.081  2.4900 -1.7900  0.9279
19036SOL     OW62237  11.283   5.112  10.276  0.1036  0.0896  0.3858
19036SOL    HW162238  11.301   5.018  10.284 -1.8834 -0.3771 -0.1777
19036SOL    HW262239  11.232   5.134  10.354 -0.5952  0.3810 -0.1430
19037SOL     OW62240   7.845   1.297   0.674 -0.2170 -0.5092  0.7364
19037SOL    HW162241   7.758   1.324   0.703 -0.5435  1.3870 -1.8164
19037SOL    HW262242   7.832   1.266   0.584  1.6121 -1.0134  0.6257
19038SOL     OW62243   0.015   4.490   4.366 -0.3374  0.6457 -0.0643
19038SOL    HW162244  -0.005   4.518   4.277 -1.2679  1.2396  0.3170
19038SOL    HW262245   0.005   4.394   4.365  0.0840  0.6089 -0.6935
19039SOL     OW62246   9.985   7.119   0.159  0.4478 -0.0859  0.4507
19039SOL    HW162247  10.053   7.185   0.170  0.2278  0.0065  1.3055
19039SOL    HW262248   9.912   7.151   0.213 -1.1195  0.9517 -2.1677
19040SOL     OW62249   1.033   9.067   1.789 -0.0183 -0.1671  0.4925
19040SOL    HW162250   0.966   9.004   1.763 -0.1244  0.2281 -0.1993
19040SOL    HW262251   1.111   9.040   1.740  0.7691 -1.5482  2.4310
19041SOL     OW62252   4.629  10.552   1.427  0.2850  0.2482  0.2231
19041SOL    HW162253   4.632  10.646   1.445  3.5241  0.6610 -1.9335
19041SOL    HW262254   4.699  10.515   1.481  1.6996 -0.2856 -1.9150
19042SOL     OW62255   8.881  10.392   3.427 -0.0058  0.1478 -0.3487
19042SOL    HW162256   8.828  10.454   3.377 -1.4782 -1.6273 -1.0512
19042SOL    HW262257   8.851  10.403   3.517 -0.1500  0.5625 -0.4421
19043SOL     OW62258   0.160   9.156   4.248  0.2122 -0.6597  0.2415
19043SOL    HW162259   0.082   9.208   4.270  0.9746 -0.0929  1.6981
19043SOL    HW262260   0.133   9.103   4.173 -0.0767  3.0676 -2.4483
19044SOL     OW62261   9.583   8.031   8.428 -0.0505 -0.1852  0.2527
19044SOL    HW162262   9.661   7.975   8.424  0.3590  0.4636 -1.3225
19044SOL    HW262263   9.616   8.119   8.410 -1.2053  0.0236 -0.9032
19045SOL     OW62264   1.527   1.299   0.428 -0.2905  0.0474 -0.1165
19045SOL    HW162265   1.598   1.357   0.402  0.7837 -1.3472 -0.3430
19045SOL    HW262266   1.508   1.323   0.519 -0.0422  0.9197 -0.2890
19046SOL     OW62267   3.864   0.099   8.433  0.6382  0.7117 -0.1787
19046SOL    HW162268   3.912   0.022   8.401  0.9723  1.9021 -2.6628
19046SOL    HW262269   3.778   0.064   8.458  1.2805 -0.7004  0.1361
19047SOL     OW62270   1.736  10.728   9.323 -0.1872 -0.4646  0.6568
19047SOL    HW162271   1.804  10.703   9.386 -0.1326  0.7980  1.1130
19047SOL    HW262272   1.739  10.824   9.321 -2.0345 -0.3894  0.7429
19048SOL     OW62273   7.081   3.610   7.251 -0.5276 -0.4883 -0.2796
19048SOL    HW162274   7.159   3.558   7.272 -1.1612 -1.6550 -0.7608
19048SOL    HW262275   7.112   3.701   7.250  0.9567 -0.9888 -1.0813
19049SOL     OW62276   9.272   6.961   5.119  0.3434 -0.4516 -0.0010
19049SOL    HW162277   9.265   6.872   5.083  2.9370 -1.6500  2.1910
19049SOL    HW262278   9.342   7.002   5.068  2.5738 -1.4434  2.1094
19050SOL     OW62279   5.601   9.233  10.440 -0.2072  0.8290  0.1429
19050SOL    HW162280   5.572   9.213  10.351 -1.9711  0.8951  0.6921
19050SOL    HW262281   5.697   9.239  10.433 -0.3992  2.0100 -1.9782
19051SOL     OW62282   3.570   3.879   8.940 -0.2630  0.0491 -0.1384
19051SOL    HW162283   3.618   3.843   8.866 -1.8186  3.5036 -2.9745
19051SOL    HW262284   3.492   3.824   8.947 -0.4501  0.1171 -1.5615
19052SOL     OW62285   7.215   9.608   6.228 -0.0659 -0.6788  0.0568
19052SOL    HW162286   7.271   9.678   6.262 -0.2228  0.5585 -2.1139
19052SOL    HW262287   7.276   9.549   6.183 -0.0393 -1.5131  1.1586
19053SOL     OW62288   5.699  10.938   4.027 -0.1847 -0.0570 -0.2121
19053SOL    HW162289   5.777  10.993   4.027  0.2622 -0.6632 -1.6668
19053SOL    HW262290   5.660  10.952   3.940 -1.8653  0.4607  0.5853
19054SOL     OW62291   5.606  10.058   9.562 -0.0626 -0.3063  0.5165
19054SOL    HW162292   5.524  10.092   9.598 -0.2569 -1.0272  0.7618
19054SOL    HW262293   5.582  10.021   9.477  0.5951  2.4142 -0.9108
19055SOL     OW62294   2.168   7.024   3.238 -0.0685  1.2976  0.1538
19055SOL    HW162295   2.156   7.075   3.318  0.3788 -0.5417  1.4096
19055SOL    HW262296   2.199   6.939   3.268  0.8933  0.8518 -2.0326
19056SOL     OW62297   0.148  10.836   8.629 -0.3815 -0.2872 -0.2474
19056SOL    HW162298   0.191  10.820   8.545  0.8327  0.9142  0.1284
19056SOL    HW262299   0.105  10.920   8.619 -0.5353 -0.3085  0.2168
19057SOL     OW62300   7.341   3.980   6.567 -0.0824 -0.0703  0.4939
19057SOL    HW162301   7.257   3.934   6.571 -0.1320 -0.0447 -0.2585
19057SOL    HW262302   7.400   3.920   6.521  0.0275  0.3576  0.0789
19058SOL     OW62303   1.199   1.481   5.131  0.1630  0.0418 -0.3984
19058SOL    HW162304   1.280   1.498   5.081 -0.1356  2.1296 -0.2364
19058SOL    HW262305   1.136   1.543   5.095 -1.3550 -1.5008 -0.4389
19059SOL     OW62306   0.160   8.691   4.726  0.0670 -0.3636  0.4714
19059SOL    HW162307   0.081   8.642   4.706  0.3345 -0.9292  0.8036
19059SOL    HW262308   0.227   8.652   4.670  0.0169  0.4138 -0.1477
19060SOL     OW62309   6.301   7.389   2.794  0.2552 -0.6079 -0.7546
19060SOL    HW162310   6.354   7.467   2.780 -0.9747  0.5944  1.0578
19060SOL    HW262311   6.260   7.402   2.879 -1.2447 -2.5017 -1.1364
19061SOL     OW62312   7.071   8.235   2.270 -0.7841 -0.0032 -0.7000
19061SOL    HW162313   7.116   8.167   2.220 -0.3056 -0.0790 -0.1658
19061SOL    HW262314   7.064   8.309   2.209  0.6269  0.2350 -0.5988
19062SOL     OW62315   3.746   6.848   5.149  0.1194 -0.0393  0.3150
19062SOL    HW162316   3.696   6.921   5.113 -0.7234  0.1800  1.8909
19062SOL    HW262317   3.816   6.888   5.200  0.8139 -0.3410 -0.3985
19063SOL     OW62318   4.905   1.518   9.035  0.1135  0.5049 -0.5721
19063SOL    HW162319   4.946   1.486   8.955  0.1856 -0.0051 -0.3342
19063SOL    HW262320   4.812   1.523   9.014  0.0937  0.0677 -0.5875
19064SOL     OW62321   9.490  11.203   3.167  0.0147  0.0035 -0.0981
19064SOL    HW162322   9.501  11.294   3.197  1.1603 -0.1319 -0.1112
19064SOL    HW262323   9.409  11.205   3.116  1.1351  1.4673 -1.8590
19065SOL     OW62324   5.023   5.655   8.166  0.2950 -0.5968  1.2447
19065SOL    HW162325   4.934   5.690   8.170 -0.0046 -1.4806  2.3299
19065SOL    HW262326   5.011   5.561   8.149  1.0537 -0.5012  0.1021
19066SOL     OW62327   5.112   0.197   2.407 -0.6656 -0.3343  0.0940
19066SOL    HW162328   5.182   0.140   2.375 -1.2094 -0.8573 -0.1751
19066SOL    HW262329   5.049   0.137   2.447 -1.3540  0.0563 -0.3934
19067SOL     OW62330   0.048   7.137   6.787  0.0293 -0.3675  0.1970
19067SOL    HW162331   0.027   7.136   6.694 -0.8902 -0.5360  0.4043
19067SOL    HW262332   0.123   7.077   6.796  0.4899  0.0959 -0.5095
19068SOL     OW62333   9.910  10.101   3.436  0.1135  0.2173  0.0876
19068SOL    HW162334   9.881  10.020   3.477 -1.0230  0.1484 -0.8374
19068SOL    HW262335   9.928  10.077   3.345  0.5274  0.8360  0.0023
19069SOL     OW62336   1.013   4.540   4.669 -0.0184 -1.0521 -0.1249
19069SOL    HW162337   1.032   4.618   4.722  1.5970 -0.6545 -1.2339
19069SOL    HW262338   1.018   4.467   4.731  1.1829 -0.5294  0.4131
19070SOL     OW62339   1.819   8.080   3.610  0.1546  0.1914 -0.1644
19070SOL    HW162340   1.751   8.137   3.645  1.3168  0.8095  1.1225
19070SOL    HW262341   1.885   8.139   3.574  0.5053 -0.3770 -0.4725
19071SOL     OW62342   9.246   7.120  10.026  0.3516 -0.4038  0.1732
19071SOL    HW162343   9.237   7.195  10.084 -0.1575  0.6359 -1.2221
19071SOL    HW262344   9.198   7.049  10.069 -2.9772  1.2993 -0.6221
19072SOL     OW62345   8.761   9.430   3.105  0.2017 -0.2969  0.1503
19072SOL    HW162346   8.794   9.379   3.031 -0.9768  0.8530 -1.1935
19072SOL    HW262347   8.769   9.521   3.077 -0.2962  0.1571  1.4307
19073SOL     OW62348   3.842   6.055   9.511 -0.3516  0.0212 -0.3514
19073SOL    HW162349   3.852   5.976   9.564 -2.0773  0.2710  0.3740
19073SOL    HW262350   3.893   6.038   9.433 -1.4676 -2.2227 -0.6336
19074SOL     OW62351   7.900   1.854   1.397  0.0408 -0.4122 -0.6629
19074SOL    HW162352   7.870   1.923   1.338  0.9258  0.0181 -0.6121
19074SOL    HW262353   7.931   1.901   1.475 -1.2997 -0.9867  0.2244
19075SOL     OW62354   5.485   8.789   4.190  0.3319 -0.5128  0.2089
19075SOL    HW162355   5.464   8.881   4.204  1.2621 -0.2927  0.1842
19075SOL    HW262356   5.501   8.781   4.096  2.5885 -0.1871  0.5309
19076SOL     OW62357   0.555   1.522  10.848 -0.3548 -0.1915 -0.1550
19076SOL    HW162358   0.587   1.483  10.929  1.8897 -1.7904 -1.7551
19076SOL    HW262359   0.461   1.534  10.863 -0.0283 -0.6769  2.5621
19077SOL     OW62360   2.586   2.867   6.466  0.1793  0.2833 -0.3043
19077SOL    HW162361   2.494   2.879   6.491  0.4897  0.1685  0.9449
19077SOL    HW262362   2.635   2.895   6.543  1.1465 -1.3155 -0.3122
19078SOL     OW62363  11.073   0.896   2.600  0.5086  1.3409  0.2274
19078SOL    HW162364  11.145   0.901   2.537  0.1464  3.1385 -0.0478
19078SOL    HW262365  11.039   0.807   2.589  1.5377  1.0681 -0.8996
19079SOL     OW62366   6.579  10.511   7.728  0.0178 -0.0807  0.0709
19079SOL    HW162367   6.594  10.475   7.816  2.5819 -1.6849 -0.9550
19079SOL    HW262368   6.572  10.605   7.742  0.9350 -0.2569  1.9568
19080SOL     OW62369   9.604   7.254   0.525  0.0749  0.1457  0.3755
19080SOL    HW162370   9.630   7.307   0.449 -1.6820 -0.4039 -0.6497
19080SOL    HW262371   9.599   7.316   0.597  2.3042  0.5806  0.1741
19081SOL     OW62372   7.365   2.266   3.549  0.7410 -0.2528  0.5871
19081SOL    HW162373   7.395   2.274   3.458 -1.4347  1.0021 -0.0643
19081SOL    HW262374   7.354   2.172   3.562 -0.1943 -0.3708 -0.9107
19082SOL     OW62375   0.213   9.985   5.255  0.2839 -0.1827 -0.0423
19082SOL    HW162376   0.230  10.053   5.320  0.3074  0.6888 -0.9461
19082SOL    HW262377   0.263  10.013   5.178 -0.9089 -0.4395 -0.9189
19083SOL     OW62378   5.311   9.198   1.839 -0.4180 -0.2957 -0.1944
19083SOL    HW162379   5.291   9.109   1.812  0.1390 -0.0979 -1.3106
19083SOL    HW262380   5.313   9.248   1.757  2.6089  0.0631  0.0410
19084SOL     OW62381   5.266  10.046   3.571 -0.4684  0.1967  0.2531
19084SOL    HW162382   5.253  10.136   3.542 -2.6279  0.0490  0.6499
19084SOL    HW262383   5.183  10.002   3.551  0.2297 -1.4681  0.9043
19085SOL     OW62384  11.322   5.605   7.044 -0.0747 -0.0224  0.1948
19085SOL    HW162385  11.388   5.626   7.110 -1.1338 -1.2597  1.6957
19085SOL    HW262386  11.346   5.518   7.012  0.1015  0.3281 -0.6356
19086SOL     OW62387  10.120   1.040   7.101 -0.1580 -1.0648  0.3080
19086SOL    HW162388  10.075   1.084   7.029 -0.1781 -1.8501 -0.1697
19086SOL    HW262389  10.212   1.039   7.074 -0.1274 -1.1246  0.4120
19087SOL     OW62390   6.664   9.665   3.259 -0.2640 -0.6160 -0.0240
19087SOL    HW162391   6.657   9.601   3.330  0.5774 -0.8624 -0.1546
19087SOL    HW262392   6.603   9.735   3.283  0.5680 -0.3323  1.3174
19088SOL     OW62393   7.062   6.713   8.190  0.0284  0.5220 -0.0582
19088SOL    HW162394   6.992   6.755   8.141 -0.1471 -0.3481 -0.5561
19088SOL    HW262395   7.071   6.766   8.269 -0.8309  0.9420 -0.2394
19089SOL     OW62396   6.283   1.766   2.811  0.3199 -0.1972 -0.4346
19089SOL    HW162397   6.314   1.815   2.735  1.2989 -0.7804 -0.4184
19089SOL    HW262398   6.207   1.816   2.842  0.0306  0.1583 -1.6651
19090SOL     OW62399   4.819   3.207  10.805  0.2291 -0.4298 -0.5445
19090SOL    HW162400   4.740   3.155  10.812  0.6082 -0.8339  0.8445
19090SOL    HW262401   4.887   3.154  10.847  0.8181  0.7588  0.0382
19091SOL     OW62402   4.719   6.121   7.064  0.5264  0.2549  0.3717
19091SOL    HW162403   4.658   6.061   7.021 -0.2501  2.1449 -1.2276
19091SOL    HW262404   4.669   6.157   7.138 -0.9204  2.9581 -1.8230
19092SOL     OW62405   2.024   7.051   5.068 -0.5489  0.4720 -0.3146
19092SOL    HW162406   2.031   6.960   5.095  0.4860  0.3575 -0.9866
19092SOL    HW262407   1.979   7.093   5.142  0.2382 -0.2945  0.6237
19093SOL     OW62408   6.004   5.817   4.770  0.1777 -0.1667 -0.4673
19093SOL    HW162409   6.082   5.784   4.725  0.9556 -2.1677  2.1896
19093SOL    HW262410   6.039   5.877   4.836 -0.8285  1.6362 -1.5499
19094SOL     OW62411   8.038   0.669  11.244 -0.0973 -0.6594  0.4396
19094SOL    HW162412   8.029   0.641  11.152 -0.8670 -1.0630  0.6381
19094SOL    HW262413   7.952   0.703  11.267  0.1964 -0.2369  0.9139
19095SOL     OW62414   0.236   2.957   8.957 -0.1819  0.5966  0.1831
19095SOL    HW162415   0.226   3.052   8.950 -0.9636  0.5433  0.5761
19095SOL    HW262416   0.280   2.931   8.875 -0.2807  1.2468 -0.0722
19096SOL     OW62417  10.897  10.772   1.804 -0.4227 -0.1072  0.3123
19096SOL    HW162418  10.878  10.745   1.714 -2.3205  0.3408  0.5465
19096SOL    HW262419  10.925  10.863   1.796 -1.2145  0.1364  0.2167
19097SOL     OW62420   1.650   9.865   6.935  0.2491  0.0270  0.0191
19097SOL    HW162421   1.583   9.916   6.981  0.2224 -1.2882  1.5094
19097SOL    HW262422   1.710   9.837   7.004  2.2857  1.0649 -1.2867
19098SOL     OW62423   3.037   0.767   2.326  0.9615  0.1336  0.2528
19098SOL    HW162424   3.004   0.683   2.296  0.0848  0.4312  0.3805
19098SOL    HW262425   2.977   0.794   2.395  0.9402  1.1022 -0.1340
19099SOL     OW62426   6.277  10.024   1.790 -0.0511 -0.2359  0.0857
19099SOL    HW162427   6.320  10.104   1.821  0.4760 -1.0668  1.5355
19099SOL    HW262428   6.347   9.972   1.751 -0.0939 -0.7013  0.6216
19100SOL     OW62429   6.119   8.211   3.739  0.0420 -0.1828  0.2593
19100SOL    HW162430   6.067   8.133   3.759 -0.8403  0.3043 -0.1141
19100SOL    HW262431   6.126   8.211   3.643  3.1433 -1.7929  0.4355
19101SOL     OW62432   4.012   1.332   8.663 -0.5359 -0.3934 -0.3993
19101SOL    HW162433   4.098   1.356   8.628 -0.7059 -0.0696 -0.6019
19101SOL    HW262434   3.962   1.305   8.586 -0.3976 -1.2512 -0.1922
19102SOL     OW62435   3.505   2.663   4.761 -0.1367  0.1406 -0.0257
19102SOL    HW162436   3.533   2.581   4.720  1.3712  1.0133 -0.8242
19102SOL    HW262437   3.489   2.640   4.853 -1.4657 -1.4014 -0.6226
19103SOL     OW62438   2.657   7.354   4.565  0.3482  0.8731 -0.4090
19103SOL    HW162439   2.631   7.446   4.572  0.0377  0.7522  0.0487
19103SOL    HW262440   2.668   7.325   4.655 -0.1745  0.2896 -0.5269
19104SOL     OW62441   9.781   3.430   3.165 -0.1781  0.5338 -0.0050
19104SOL    HW162442   9.685   3.428   3.172 -0.2727  1.4397 -1.0405
19104SOL    HW262443   9.805   3.516   3.200  0.3738 -0.2072  1.4954
19105SOL     OW62444   0.981   6.521   0.816 -0.2666  0.0976 -0.4802
19105SOL    HW162445   0.901   6.538   0.866  1.5062  2.3349  1.7209
19105SOL    HW262446   1.007   6.432   0.841  0.3705  1.0397  2.3489
19106SOL     OW62447   6.425   5.437   7.458  0.1473 -0.1466 -0.1750
19106SOL    HW162448   6.509   5.441   7.411  0.3054 -0.3510  0.0860
19106SOL    HW262449   6.359   5.455   7.391  0.4010  0.0132 -0.3839
19107SOL     OW62450  10.868   5.620  10.415  0.3999 -0.2518 -0.0525
19107SOL    HW162451  10.916   5.685  10.363 -2.2703  1.3141 -0.6413
19107SOL    HW262452  10.860   5.660  10.501 -1.7432  0.5129 -0.5714
19108SOL     OW62453   3.572   4.447   6.717 -0.2280  0.1361 -0.2021
19108SOL    HW162454   3.531   4.431   6.802  1.1686  0.6980  0.6055
19108SOL    HW262455   3.518   4.513   6.675 -0.3841  0.5608  0.6698
19109SOL     OW62456   6.219  10.678  11.151  0.2199 -0.1941 -0.2710
19109SOL    HW162457   6.152  10.619  11.118  1.9145 -3.4936  1.9256
19109SOL    HW262458   6.187  10.706  11.237  1.6311 -1.9534  0.8865
19110SOL     OW62459   8.931   4.100   3.673  0.1627  0.7417  0.3463
19110SOL    HW162460   8.973   4.026   3.629 -1.4889  0.6909 -1.2098
19110SOL    HW262461   8.848   4.065   3.704 -0.0753  1.6269  0.7099
19111SOL     OW62462   2.060  10.868  10.496  0.1719  0.0946  0.4366
19111SOL    HW162463   2.087  10.944  10.548 -0.6235 -0.4049  1.5745
19111SOL    HW262464   1.969  10.854  10.520  0.2055 -0.9853 -0.0717
19112SOL     OW62465   8.043   7.178   9.270  0.2309 -0.2929 -0.1107
19112SOL    HW162466   7.964   7.220   9.305 -0.3086 -1.2363 -0.1588
19112SOL    HW262467   8.109   7.247   9.270 -0.7121  0.6369 -0.4820
19113SOL     OW62468   7.806  11.135   2.781 -0.4523 -0.2414 -0.1692
19113SOL    HW162469   7.824  11.064   2.843 -0.2376 -0.5581 -0.5941
19113SOL    HW262470   7.891  11.155   2.743 -0.6693 -0.3788 -0.7226
19114SOL     OW62471   5.796   3.918   3.659  0.0674  0.2720 -0.1473
19114SOL    HW162472   5.765   3.869   3.735  0.5137 -0.2888 -0.3256
19114SOL    HW262473   5.718   3.928   3.604 -0.6144  1.9565  1.0391
19115SOL     OW62474   6.204   7.962   3.334  0.1455  0.0566 -0.2299
19115SOL    HW162475   6.121   7.918   3.350 -0.3224  0.5444 -1.2453
19115SOL    HW262476   6.251   7.903   3.275  0.5126 -0.2089  0.3280
19116SOL     OW62477   4.806   9.179   2.027 -0.3634 -0.0785 -0.6232
19116SOL    HW162478   4.899   9.155   2.020 -0.3986 -0.4686  0.1956
19116SOL    HW262479   4.806   9.274   2.017 -0.0154 -0.1944 -1.8857
19117SOL     OW62480   1.136   5.276  10.507  0.4530  0.1043  0.5763
19117SOL    HW162481   1.166   5.296  10.418  2.5655  0.1269  1.2621
19117SOL    HW262482   1.054   5.229  10.494 -0.3738  1.9695 -1.3177
19118SOL     OW62483   5.517   3.234   2.755  0.0242 -0.9418 -0.3234
19118SOL    HW162484   5.593   3.200   2.708 -0.2958 -0.8147 -0.9415
19118SOL    HW262485   5.539   3.325   2.774  0.0463 -0.9185 -0.4599
19119SOL     OW62486   3.242   3.366   9.293  0.3701  0.2472 -0.3813
19119SOL    HW162487   3.266   3.386   9.384  1.6226 -0.6932 -0.4862
19119SOL    HW262488   3.147   3.361   9.294  0.4023 -0.3807  1.0324
19120SOL     OW62489   1.837  10.833  11.023  0.3544  0.5258 -0.1457
19120SOL    HW162490   1.874  10.917  10.994  1.8792  0.5641  1.7589
19120SOL    HW262491   1.785  10.855  11.101  0.6347 -0.2642  0.2726
19121SOL     OW62492   7.592   7.340   9.775 -0.4689  0.1451 -0.3152
19121SOL    HW162493   7.522   7.378   9.722  0.0533  0.7589 -0.5687
19121SOL    HW262494   7.573   7.246   9.777 -1.4751  0.3490 -0.1165
19122SOL     OW62495   1.660   2.882   7.254  0.2296  0.2975 -0.4027
19122SOL    HW162496   1.639   2.959   7.307 -0.5832  0.4066 -0.8590
19122SOL    HW262497   1.577   2.835   7.248  0.6918 -0.5340 -0.2572
19123SOL     OW62498  10.991   2.612   1.651 -0.2369 -0.0759  0.0243
19123SOL    HW162499  10.928   2.632   1.582 -1.7689  0.6423  1.5866
19123SOL    HW262500  11.046   2.691   1.657 -1.1056  0.4856  0.6803
19124SOL     OW62501   8.169   1.237   0.326 -0.0273 -0.1267  0.9426
19124SOL    HW162502   8.143   1.165   0.268  0.6945  0.3858 -0.0359
19124SOL    HW262503   8.264   1.234   0.327  0.0116  0.8124  0.8953
19125SOL     OW62504   3.842   4.465  11.148 -0.2559 -0.1126  0.0584
19125SOL    HW162505   3.794   4.459  11.066 -0.9246 -1.5369  0.5426
19125SOL    HW262506   3.858   4.559  11.159 -1.5210  0.2373 -0.9060
19126SOL     OW62507   0.124   4.361   2.977 -0.1406 -0.1597  0.8029
19126SOL    HW162508   0.171   4.327   2.902 -0.4099 -1.7249  1.3219
19126SOL    HW262509   0.192   4.401   3.032  0.0490  0.9939 -0.2689
19127SOL     OW62510  11.247   4.768   2.713 -0.0362  0.5349  0.1080
19127SOL    HW162511  11.281   4.857   2.714 -1.5793  1.1259  0.4427
19127SOL    HW262512  11.164   4.772   2.762 -1.2774 -0.5937 -1.8225
19128SOL     OW62513   9.502   3.913   5.026 -0.2355 -0.0865 -0.0467
19128SOL    HW162514   9.445   3.982   5.061  0.0843 -0.2313  0.7711
19128SOL    HW262515   9.465   3.832   5.060  1.2534 -0.0900  1.6467
19129SOL     OW62516   0.300   6.975   3.775 -0.2110  0.1593 -0.3208
19129SOL    HW162517   0.376   6.980   3.832 -0.0040  0.4897 -0.6195
19129SOL    HW262518   0.259   7.062   3.783  0.2845  0.4987 -1.3022
19130SOL     OW62519   4.345   8.957  10.489 -0.2027  0.3869 -0.2776
19130SOL    HW162520   4.275   9.022  10.488 -0.2598  0.3213 -1.2745
19130SOL    HW262521   4.301   8.874  10.475 -0.3848 -0.1633  3.1715
19131SOL     OW62522   5.657   8.433   6.739  0.2565 -0.8682  0.2324
19131SOL    HW162523   5.733   8.394   6.783 -1.5646 -2.7098  1.8807
19131SOL    HW262524   5.662   8.526   6.760  0.7535 -1.3536  2.3802
19132SOL     OW62525   0.929   5.676   0.396  0.6902  0.0888  0.2731
19132SOL    HW162526   0.876   5.666   0.316  0.2290  0.6058  0.5085
19132SOL    HW262527   0.937   5.588   0.430 -1.8935  0.2466  1.4249
19133SOL     OW62528   8.489   3.730   7.565 -0.3624  0.8288  0.2164
19133SOL    HW162529   8.413   3.764   7.612 -1.5058 -1.0304 -0.2550
19133SOL    HW262530   8.477   3.635   7.564  1.5042  0.5690 -0.6570
19134SOL     OW62531   6.996   0.696   4.198  0.1486 -0.2231 -0.0601
19134SOL    HW162532   7.044   0.757   4.252  0.0047  0.0641 -0.2555
19134SOL    HW262533   6.904   0.709   4.222 -0.1448  1.4891 -1.9335
19135SOL     OW62534   8.593   9.109   8.238 -0.1512  0.2237  0.6516
19135SOL    HW162535   8.600   9.192   8.190  0.5757 -0.9844 -1.3910
19135SOL    HW262536   8.681   9.096   8.275 -0.0055 -0.0912  0.1966
19136SOL     OW62537   6.841   4.266   1.311  0.4581  0.4037 -0.0592
19136SOL    HW162538   6.806   4.350   1.339 -1.1001 -0.2726  0.0853
19136SOL    HW262539   6.766   4.220   1.272  1.5898 -0.3896 -1.3781
19137SOL     OW62540   7.436   8.704   8.964  0.2657 -0.4700 -0.2155
19137SOL    HW162541   7.415   8.741   9.050  0.0348 -1.1291  0.0160
19137SOL    HW262542   7.352   8.673   8.930  0.0491  1.4285 -1.4777
19138SOL     OW62543   5.722   8.635   4.965 -0.2779 -0.0741 -0.0520
19138SOL    HW162544   5.730   8.604   5.055  0.9132  0.6456  0.1058
19138SOL    HW262545   5.767   8.720   4.965  0.4407 -0.4332 -1.4963
19139SOL     OW62546   5.433  11.079  10.345  0.4074  0.1179 -0.1723
19139SOL    HW162547   5.428  11.106  10.436  1.6027 -0.1463 -0.0222
19139SOL    HW262548   5.354  11.116  10.305 -1.0376 -1.2469  1.3304
19140SOL     OW62549   5.288   6.984  10.253 -0.5140  0.2434 -0.0102
19140SOL    HW162550   5.257   7.064  10.212  0.1053  0.7746  0.5602
19140SOL    HW262551   5.383   6.995  10.260 -0.0837 -1.6405 -2.3218
19141SOL     OW62552   5.327   5.370   8.580  0.1378 -0.4410  0.2699
19141SOL    HW162553   5.292   5.333   8.661 -1.1342  0.6633  0.2414
19141SOL    HW262554   5.261   5.348   8.514  0.7506 -0.5792 -0.2931
19142SOL     OW62555   9.639   6.148   6.829  0.2873 -0.2785  0.1326
19142SOL    HW162556   9.703   6.203   6.875 -0.2588 -0.7383  1.4690
19142SOL    HW262557   9.598   6.206   6.765  0.4701  0.5887  0.7990
19143SOL     OW62558   4.559   1.502   6.499  0.0272 -0.0683 -0.0899
19143SOL    HW162559   4.561   1.582   6.552 -1.8177  0.3554 -0.6000
19143SOL    HW262560   4.603   1.436   6.552 -1.1048  0.5422  1.6463
19144SOL     OW62561   8.177   6.169  10.486  0.2384  0.9494  0.3611
19144SOL    HW162562   8.083   6.169  10.506  0.6318  3.5325  2.4386
19144SOL    HW262563   8.199   6.076  10.479 -2.5964  0.2957 -0.9330
19145SOL     OW62564   8.182   4.116   3.599 -0.7877  0.9163 -0.0200
19145SOL    HW162565   8.253   4.140   3.658  0.5204 -0.0793 -1.1760
19145SOL    HW262566   8.149   4.033   3.634 -1.6299  1.5508  0.7186
19146SOL     OW62567   2.493   2.929   3.392 -0.2213  0.3039 -0.0467
19146SOL    HW162568   2.499   3.008   3.338 -0.8852  0.7550  0.5314
19146SOL    HW262569   2.581   2.892   3.392  0.0196  0.8871 -0.5592
19147SOL     OW62570  10.301   7.209   2.323  0.2358 -0.1095  0.4428
19147SOL    HW162571  10.241   7.202   2.397 -1.6609 -1.5914 -1.1728
19147SOL    HW262572  10.255   7.165   2.251  2.6466  0.0208 -1.2218
19148SOL     OW62573   1.780   0.205   2.513  0.2515 -0.6666 -0.5720
19148SOL    HW162574   1.795   0.154   2.593  0.8857 -0.8222 -0.7847
19148SOL    HW262575   1.862   0.196   2.464 -0.2847 -0.9208 -1.4337
19149SOL     OW62576   5.232   9.685   3.011  0.3748 -0.1442 -0.8468
19149SOL    HW162577   5.325   9.674   3.029  0.4875 -0.9753 -1.8964
19149SOL    HW262578   5.205   9.604   2.969 -0.7680  0.1900 -0.7937
19150SOL     OW62579   3.561  10.908   3.019  0.1401  0.0564 -0.3344
19150SOL    HW162580   3.484  10.964   3.011  0.7396  0.9959  0.3569
19150SOL    HW262581   3.529  10.820   3.003 -0.9287  0.5343 -0.8434
19151SOL     OW62582   5.877   7.906   0.170 -0.1995  0.0844  0.0871
19151SOL    HW162583   5.922   7.913   0.254 -0.5126  0.7646  0.1998
19151SOL    HW262584   5.875   7.812   0.152  1.4466  0.0602 -0.0161
19152SOL     OW62585   0.162   1.807   6.230 -0.5708 -0.2375 -0.4929
19152SOL    HW162586   0.125   1.763   6.153 -1.2394 -1.4731  0.5030
19152SOL    HW262587   0.253   1.826   6.206 -0.4134 -1.7349 -1.1431
19153SOL     OW62588   2.288   4.521   6.166  0.6927 -0.0214  0.6748
19153SOL    HW162589   2.313   4.431   6.184 -1.1180 -0.8574 -0.7597
19153SOL    HW262590   2.194   4.525   6.186  0.6361  1.4017  0.2537
19154SOL     OW62591  10.644   6.227   3.162 -0.2736 -0.2491 -0.3266
19154SOL    HW162592  10.714   6.293   3.169  0.9894 -1.4470 -1.2738
19154SOL    HW262593  10.591   6.256   3.088  0.2391 -0.2632 -0.7005
19155SOL     OW62594   9.027   8.125   1.812  0.0257  0.4541 -0.0637
19155SOL    HW162595   8.935   8.131   1.834  0.2481  2.5694  0.3628
19155SOL    HW262596   9.068   8.087   1.890 -0.3680  0.2428  0.0390
19156SOL     OW62597   7.681   2.684  11.260 -0.1560 -0.1026  0.4253
19156SOL    HW162598   7.650   2.758  11.312 -0.1100  0.2589 -0.0647
19156SOL    HW262599   7.708   2.722  11.177  1.7699 -0.3927  0.9020
19157SOL     OW62600   0.762   4.345   3.070  0.0233 -0.2155  0.2861
19157SOL    HW162601   0.783   4.340   2.977  0.3098 -0.4733  0.3641
19157SOL    HW262602   0.679   4.393   3.073  0.0743 -0.0996 -0.0919
19158SOL     OW62603   5.514   5.662   5.245  0.3194  0.5038  0.3321
19158SOL    HW162604   5.502   5.642   5.152  1.0399 -0.0755  0.3601
19158SOL    HW262605   5.592   5.614   5.270  1.5045  2.5425  0.6761
19159SOL     OW62606   6.460  11.258  10.538 -0.2124 -0.0491  0.0810
19159SOL    HW162607   6.413  11.296  10.464  1.7824 -0.6389 -1.5219
19159SOL    HW262608   6.500  11.332  10.583 -1.3192  0.2971  0.5069
19160SOL     OW62609   3.338   6.684  10.378 -0.1317 -0.2495  0.2455
19160SOL    HW162610   3.261   6.627  10.379 -0.0600 -0.3441  1.9635
19160SOL    HW262611   3.375   6.675  10.465  1.7961 -0.1292 -0.5419
19161SOL     OW62612   9.471  10.412   7.607 -0.3113 -0.4342 -0.1224
19161SOL    HW162613   9.428  10.458   7.534  0.9659 -0.5222 -0.9390
19161SOL    HW262614   9.398  10.379   7.660 -1.2532  1.6224 -0.0970
19162SOL     OW62615  10.369   4.851   0.804 -0.0539  0.6673  0.1113
19162SOL    HW162616  10.457   4.865   0.840 -0.5114 -0.0062  1.5251
19162SOL    HW262617  10.384   4.829   0.712  1.2585  0.6100  0.3295
19163SOL     OW62618   6.473   1.675   2.197 -0.3664  0.0398  0.3433
19163SOL    HW162619   6.486   1.692   2.103  1.2996 -0.4696  0.4659
19163SOL    HW262620   6.379   1.665   2.206 -0.6847  1.5608 -1.0318
19164SOL     OW62621   9.997  10.675   2.081 -0.1512 -0.4011  0.8304
19164SOL    HW162622  10.049  10.708   2.154  0.4680  0.1952  0.1348
19164SOL    HW262623   9.997  10.747   2.018  1.1204 -1.6921 -0.6686
19165SOL     OW62624  11.257   5.497  10.330  0.1514 -0.3127  0.0406
19165SOL    HW162625  11.198   5.572  10.337 -2.1764 -2.0869 -0.4104
19165SOL    HW262626  11.248   5.451  10.414  1.0271 -0.5086  0.0362
19166SOL     OW62627   9.402  10.353   8.974 -0.4109 -0.6690 -0.5935
19166SOL    HW162628   9.361  10.275   9.011  1.3127 -1.4173 -0.2192
19166SOL    HW262629   9.420  10.409   9.049  1.1882 -1.2837 -0.4980
19167SOL     OW62630   6.298   7.914   2.530  0.0611  0.1372 -0.2637
19167SOL    HW162631   6.338   7.961   2.603  0.9731 -1.5788  0.3664
19167SOL    HW262632   6.371   7.893   2.472 -0.7041  1.8239 -1.8895
19168SOL     OW62633   2.382   9.243   5.495 -0.1805 -0.4428  0.2247
19168SOL    HW162634   2.330   9.290   5.430  0.1362  0.4819  0.6327
19168SOL    HW262635   2.382   9.152   5.465  0.3724  0.0603 -1.3152
19169SOL     OW62636  11.178   0.725   5.513 -0.2901  0.6289  0.0416
19169SOL    HW162637  11.094   0.690   5.545  0.1611  0.1466  0.6988
19169SOL    HW262638  11.175   0.818   5.534 -1.6551  1.1009 -2.0463
19170SOL     OW62639   8.069   4.044  10.770 -0.1085  0.2457  0.2689
19170SOL    HW162640   8.057   4.130  10.809 -0.0968  0.4674 -0.2162
19170SOL    HW262641   8.024   3.984  10.830 -0.4311  0.6309  0.4131
19171SOL     OW62642   9.981   1.903  10.735 -0.0545 -0.2214 -0.1235
19171SOL    HW162643   9.923   1.964  10.690  0.0704 -0.2283 -0.2913
19171SOL    HW262644   9.971   1.926  10.828 -0.6035 -0.4685 -0.1228
19172SOL     OW62645   2.524   2.711   5.957 -0.2438  0.4663 -0.8173
19172SOL    HW162646   2.488   2.743   5.874 -2.1373  0.0031 -0.2012
19172SOL    HW262647   2.452   2.721   6.019  1.1827  0.8961  0.8033
19173SOL     OW62648   2.381   5.310   3.536 -0.0198  0.0082 -0.2763
19173SOL    HW162649   2.441   5.342   3.469  0.6958  0.8318  0.7549
19173SOL    HW262650   2.425   5.327   3.619 -1.1776 -0.4214  0.4419
19174SOL     OW62651   1.207   5.910   6.216 -0.5704  0.0932 -0.1539
19174SOL    HW162652   1.248   5.825   6.205  0.1813  0.5059 -0.6028
19174SOL    HW262653   1.113   5.894   6.205 -0.6459 -1.0418  1.9981
19175SOL     OW62654  10.463   3.716  10.161 -0.2508 -0.2123 -0.0934
19175SOL    HW162655  10.407   3.791  10.142 -1.5919 -1.0396  0.5095
19175SOL    HW262656  10.494   3.731  10.251  1.2142  0.6697 -0.7224
19176SOL     OW62657   4.429  10.919  11.207 -0.6339 -0.4563 -0.1417
19176SOL    HW162658   4.501  10.883  11.156  2.4002  0.9643  2.9440
19176SOL    HW262659   4.405  11.000  11.163 -0.0805 -0.7331 -0.9481
19177SOL     OW62660   1.954   9.700   8.815 -0.1135  0.3347 -0.0204
19177SOL    HW162661   1.910   9.738   8.740 -1.2248  1.4866  1.1894
19177SOL    HW262662   2.018   9.766   8.842  2.1440 -1.1431 -1.5015
19178SOL     OW62663   6.397  11.258   3.520 -0.4551 -0.4156 -0.2621
19178SOL    HW162664   6.330  11.267   3.587 -0.0279  1.4666 -0.0579
19178SOL    HW262665   6.348  11.246   3.439 -1.1169  2.1448 -0.2971
19179SOL     OW62666   4.572   5.354   9.024 -0.1178  0.2439  0.5470
19179SOL    HW162667   4.647   5.333   8.969  0.8031 -1.3856  2.3603
19179SOL    HW262668   4.522   5.272   9.028 -1.9195  1.2589 -0.4966
19180SOL     OW62669   1.002   3.559   7.073 -0.2024 -0.1825  0.0927
19180SOL    HW162670   1.022   3.604   6.991 -3.1262  1.2571  0.1097
19180SOL    HW262671   1.013   3.625   7.140  1.8777 -1.2789  0.8839
19181SOL     OW62672   0.979   1.465   8.440 -0.0028  0.0391 -0.4811
19181SOL    HW162673   0.968   1.384   8.390 -1.9866 -0.5386  0.8582
19181SOL    HW262674   1.066   1.457   8.479  0.1171 -1.1019 -0.9551
19182SOL     OW62675   5.146   7.314   9.803 -0.2448 -0.4469  0.2598
19182SOL    HW162676   5.194   7.344   9.726  1.1937  1.5869  1.9110
19182SOL    HW262677   5.054   7.315   9.775  0.2055  0.7862 -1.2562
19183SOL     OW62678   8.427   4.987   5.013  1.0569 -0.0385  0.1021
19183SOL    HW162679   8.427   4.896   4.982  0.8757  0.0982 -0.3146
19183SOL    HW262680   8.335   5.005   5.032  1.1197 -0.0015  0.3660
19184SOL     OW62681   0.817   6.470   4.472  0.1658 -0.4401 -0.3018
19184SOL    HW162682   0.878   6.399   4.494  0.9918  0.0263 -1.0811
19184SOL    HW262683   0.826   6.482   4.378 -1.3539 -0.5597 -0.4725
19185SOL     OW62684   4.520   3.940   2.300  0.1759 -0.4412 -0.2552
19185SOL    HW162685   4.426   3.944   2.282  0.0071 -1.0044  0.4758
19185SOL    HW262686   4.529   3.980   2.387  0.5260 -0.9681 -0.0496
19186SOL     OW62687   4.873   1.615   6.683 -0.2908 -0.0203  0.0554
19186SOL    HW162688   4.951   1.564   6.705 -0.2805  0.1141  0.3222
19186SOL    HW262689   4.803   1.578   6.736  0.0034  1.1307  1.2767
19187SOL     OW62690   7.662   7.117   3.086  0.1144 -0.3692 -0.4938
19187SOL    HW162691   7.665   7.195   3.141  1.7261 -0.4511 -0.4537
19187SOL    HW262692   7.574   7.081   3.101  0.5340 -0.4120  2.0379
19188SOL     OW62693   2.455   2.836  10.063 -0.7686 -0.6828 -0.3554
19188SOL    HW162694   2.537   2.872  10.097 -1.1865  0.2792 -0.3425
19188SOL    HW262695   2.434   2.892   9.988  0.0120 -2.6169 -2.0803
19189SOL     OW62696   4.596   1.978  11.216  0.0039 -0.1256  0.4418
19189SOL    HW162697   4.611   1.884  11.203 -0.1395  0.0250 -0.9650
19189SOL    HW262698   4.593   1.989  11.311  0.8761 -1.4018  0.6354
19190SOL     OW62699   8.894   2.015  10.973  0.6766 -0.2101 -0.4115
19190SOL    HW162700   8.872   1.924  10.995 -0.1666  0.1198  0.1161
19190SOL    HW262701   8.987   2.023  10.997  0.0641 -0.1703  2.0893
19191SOL     OW62702   7.456   9.399   5.413  0.0053 -0.0255 -0.2624
19191SOL    HW162703   7.479   9.463   5.480  0.2670 -0.8469  0.4501
19191SOL    HW262704   7.511   9.323   5.432  0.3577 -0.1285 -1.6502
19192SOL     OW62705   4.364   1.040   9.143 -0.3599 -0.1437  0.4057
19192SOL    HW162706   4.303   1.092   9.195 -0.0604  0.5991  0.0228
19192SOL    HW262707   4.319   0.957   9.129 -0.9420  0.0975  0.8184
19193SOL     OW62708  11.115   5.521   7.804 -0.4529  0.6061 -1.0427
19193SOL    HW162709  11.033   5.482   7.774 -0.4796 -1.4070  1.4770
19193SOL    HW262710  11.087   5.583   7.872  0.1533 -1.0605  0.7752
19194SOL     OW62711   9.767   5.736  11.164  0.0077  0.3738 -0.2714
19194SOL    HW162712   9.835   5.671  11.185 -1.0315 -0.7160 -0.2169
19194SOL    HW262713   9.737   5.767  11.249 -1.9365 -1.6634 -0.1715
19195SOL     OW62714   2.694   9.713   0.748  0.1616 -0.1740  0.7249
19195SOL    HW162715   2.606   9.714   0.712 -0.0394 -1.8015  1.1511
19195SOL    HW262716   2.722   9.622   0.743  1.9648  0.3711  0.2712
19196SOL     OW62717   4.882   9.238   2.696  0.1006 -0.6542 -1.1864
19196SOL    HW162718   4.849   9.183   2.626 -4.4586  1.3164 -0.7073
19196SOL    HW262719   4.853   9.195   2.776  1.3810 -0.4755 -0.6024
19197SOL     OW62720   7.455   5.777   4.921 -0.1538 -0.2149 -0.0628
19197SOL    HW162721   7.360   5.767   4.919 -0.3261  0.9073  1.4727
19197SOL    HW262722   7.469   5.870   4.937  1.2073 -0.3566 -0.3764
19198SOL     OW62723   1.761   6.305   5.616  0.1385 -0.0899  0.7251
19198SOL    HW162724   1.784   6.391   5.581  2.4379 -1.0890 -0.3132
19198SOL    HW262725   1.674   6.287   5.581  0.9822  0.4330 -1.7520
19199SOL     OW62726   4.351   4.422   4.347 -0.6441 -0.9182  0.1716
19199SOL    HW162727   4.285   4.352   4.346 -0.8221 -0.7602 -1.3340
19199SOL    HW262728   4.354   4.452   4.256  0.0222  0.4829  0.6458
19200SOL     OW62729   1.479   9.241   8.243  0.2329 -0.5104 -0.5654
19200SOL    HW162730   1.554   9.193   8.276 -0.3210 -1.1499 -0.2338
19200SOL    HW262731   1.406   9.180   8.252 -0.4033  0.2644 -0.4691
19201SOL     OW62732  10.419   4.812   1.201 -0.2869  0.2350  0.4100
19201SOL    HW162733  10.346   4.851   1.153 -2.1418  0.3555  3.2045
19201SOL    HW262734  10.383   4.732   1.239  0.5105  1.0960  3.1265
19202SOL     OW62735   1.655   5.383   5.183  0.9384 -0.1892 -0.2576
19202SOL    HW162736   1.647   5.325   5.259 -0.2175  1.0190  0.5643
19202SOL    HW262737   1.602   5.342   5.116  1.2093 -0.7804 -0.1142
19203SOL     OW62738  10.770   1.020   2.346 -0.0195 -0.1050  0.7417
19203SOL    HW162739  10.837   0.981   2.290 -0.5545  0.2918 -0.1923
19203SOL    HW262740  10.785   1.114   2.340 -1.5452  0.0771 -0.6511
19204SOL     OW62741   9.771   6.787   4.278 -0.0729 -0.1912 -0.2296
19204SOL    HW162742   9.763   6.826   4.192  0.3351  0.8048  0.1799
19204SOL    HW262743   9.862   6.759   4.284 -0.1301 -0.3715 -0.1669
19205SOL     OW62744   3.279   0.667  10.141  0.5181 -0.4382 -0.0938
19205SOL    HW162745   3.262   0.575  10.161  1.2152 -0.5387  0.0511
19205SOL    HW262746   3.199   0.712  10.167  0.1053 -1.0241 -0.3339
19206SOL     OW62747   6.599  10.442  10.012 -0.0915 -0.0720 -0.5063
19206SOL    HW162748   6.577  10.425  10.103  0.9053 -0.4668 -0.3260
19206SOL    HW262749   6.517  10.469   9.971  0.1266  3.6313  1.3000
19207SOL     OW62750   1.588  10.388   2.494  0.1537 -0.3114 -0.0291
19207SOL    HW162751   1.622  10.329   2.561  2.1338  2.1546  1.2582
19207SOL    HW262752   1.552  10.462   2.543  0.9054  1.1670 -1.6194
19208SOL     OW62753   7.962   7.905   1.581 -0.1413  0.4130 -0.1513
19208SOL    HW162754   7.969   7.949   1.497 -0.6124  2.5642  0.9009
19208SOL    HW262755   8.052   7.903   1.615 -0.1506  0.8050 -0.0973
19209SOL     OW62756   7.672   0.424  11.026  0.0563  0.5236 -0.4109
19209SOL    HW162757   7.648   0.413  10.934  1.1863 -0.6787 -0.5723
19209SOL    HW262758   7.735   0.354  11.043 -0.9152  0.1066  1.5561
19210SOL     OW62759   0.577   7.515   8.378  0.6636  0.1409  0.1482
19210SOL    HW162760   0.616   7.573   8.313  1.3487  0.0715  0.5017
19210SOL    HW262761   0.621   7.537   8.460 -2.2738  2.3874  1.2490
19211SOL     OW62762   1.832   7.949  10.192  0.1230  0.6314 -0.1424
19211SOL    HW162763   1.749   7.938  10.146  0.8650  0.0540 -1.3762
19211SOL    HW262764   1.854   7.862  10.224  2.1171 -0.0550 -3.1431
19212SOL     OW62765   4.168   7.700   4.208  0.1915  0.7015  0.0161
19212SOL    HW162766   4.170   7.781   4.261 -0.2508  1.9347 -1.8174
19212SOL    HW262767   4.076   7.674   4.208  0.3490  0.1028  0.6943
19213SOL     OW62768   8.907   8.543   4.802  0.0470 -0.7931  0.0143
19213SOL    HW162769   8.968   8.504   4.866  0.9904  0.2887 -0.2062
19213SOL    HW262770   8.963   8.597   4.746 -1.2815  1.1468  0.5265
19214SOL     OW62771   2.720   4.731   7.754 -0.2441  0.2711 -0.3874
19214SOL    HW162772   2.637   4.683   7.755 -0.1496  0.1090 -0.0995
19214SOL    HW262773   2.783   4.669   7.792 -0.4623  1.2176  1.5961
19215SOL     OW62774   5.167   5.935   6.014 -0.6213 -0.2863  0.5498
19215SOL    HW162775   5.142   5.844   5.997 -0.8271 -0.1162 -0.0818
19215SOL    HW262776   5.232   5.930   6.084 -0.7871 -0.9033  0.6613
19216SOL     OW62777   2.913   1.610   1.778 -0.3444  0.0710  0.6196
19216SOL    HW162778   2.920   1.565   1.695  0.8617 -0.9173  1.2349
19216SOL    HW262779   2.989   1.669   1.779 -1.8489  2.0600 -0.1370
19217SOL     OW62780   0.697   3.839  10.688  0.3328  0.2090 -0.4687
19217SOL    HW162781   0.638   3.898  10.735  1.6637  1.9383 -0.8849
19217SOL    HW262782   0.707   3.764  10.746 -0.4747  0.9175  0.6157
19218SOL     OW62783   3.443   4.668   6.616 -0.4147  0.3540 -0.3214
19218SOL    HW162784   3.352   4.638   6.613 -0.3142 -0.0108  0.2465
19218SOL    HW262785   3.446   4.726   6.692  0.0054 -0.2321  0.1170
19219SOL     OW62786   9.101   4.757   9.274 -0.0151  0.5031  0.4905
19219SOL    HW162787   9.182   4.783   9.317 -0.5023 -0.6144  2.1731
19219SOL    HW262788   9.079   4.673   9.315 -0.6811 -0.4423 -1.7491
19220SOL     OW62789   3.729   7.152   1.839  0.0485  0.6522  0.3728
19220SOL    HW162790   3.824   7.163   1.840  0.1040  0.2152  1.8336
19220SOL    HW262791   3.716   7.057   1.829 -0.2071  0.5675  1.4822
19221SOL     OW62792   2.157   8.075  11.012  0.3031 -0.0438 -0.0212
19221SOL    HW162793   2.201   8.071  11.097 -1.0006 -1.6963  0.6061
19221SOL    HW262794   2.156   7.984  10.981 -1.0043  0.2519 -0.8733
19222SOL     OW62795   1.072   5.393   1.044 -0.3215  0.1529 -0.0795
19222SOL    HW162796   1.066   5.305   1.007 -1.0318  0.4974 -0.7887
19222SOL    HW262797   1.051   5.451   0.971 -1.3506  0.8582  0.7737
19223SOL     OW62798   0.677   4.761   5.515  0.1246 -0.2100 -0.3323
19223SOL    HW162799   0.723   4.844   5.504  0.5610 -0.5802 -1.3395
19223SOL    HW262800   0.637   4.767   5.602  2.1138  0.1033  0.5861
19224SOL     OW62801   4.310   6.741  10.910  0.4065 -0.4380 -0.1595
19224SOL    HW162802   4.307   6.647  10.928  0.2987 -0.1077  1.5686
19224SOL    HW262803   4.397   6.755  10.873  0.1623 -1.3218 -1.1107
19225SOL     OW62804   6.836   5.268   8.345  0.4160 -0.8412  0.1181
19225SOL    HW162805   6.779   5.322   8.400  0.8599 -0.1267 -0.1138
19225SOL    HW262806   6.867   5.328   8.277  0.9881 -1.3657 -0.0895
19226SOL     OW62807   2.493   3.670   8.957 -0.3477 -0.0558  0.5400
19226SOL    HW162808   2.415   3.676   9.012 -1.1933 -1.2432 -0.5126
19226SOL    HW262809   2.490   3.748   8.901 -0.6648 -0.0029  0.6324
19227SOL     OW62810   1.308   7.762   5.266 -1.0541 -0.8865  0.4827
19227SOL    HW162811   1.262   7.809   5.197 -0.7092 -0.2672  0.6591
19227SOL    HW262812   1.400   7.785   5.253 -1.0875 -0.0233  1.6910
19228SOL     OW62813   7.627   6.885   6.279 -0.2408  0.4084 -0.3347
19228SOL    HW162814   7.555   6.947   6.271 -0.6086  0.1810  1.0358
19228SOL    HW262815   7.692   6.930   6.334 -0.9994 -0.8098  1.6237
19229SOL     OW62816  10.498   0.291   1.786  0.0999  0.1483  0.3281
19229SOL    HW162817  10.493   0.242   1.703  1.7900 -3.2491  2.1340
19229SOL    HW262818  10.414   0.274   1.828  0.0444  0.1320  0.2115
19230SOL     OW62819   1.343   4.306   7.212  0.6590  0.6497  0.1797
19230SOL    HW162820   1.299   4.335   7.132 -1.1924 -1.7010  0.2850
19230SOL    HW262821   1.410   4.245   7.182  0.2576  0.1062  0.3739
19231SOL     OW62822   3.322   9.888   9.797  0.1794  0.2675  0.0082
19231SOL    HW162823   3.409   9.893   9.837 -0.1146 -1.1377  0.8441
19231SOL    HW262824   3.268   9.948   9.849  0.3678  0.2373  0.2392
19232SOL     OW62825   8.706   8.201   5.629 -0.0989  0.3866  0.2755
19232SOL    HW162826   8.788   8.184   5.674  1.0450  1.8454 -1.1804
19232SOL    HW262827   8.640   8.154   5.680  1.6122 -0.7151  1.5199
19233SOL     OW62828   5.276  10.880   3.783 -0.3505  0.1878  0.6377
19233SOL    HW162829   5.285  10.859   3.876  2.0466 -0.6410  0.2490
19233SOL    HW262830   5.227  10.963   3.782 -1.2727 -0.3010  2.5756
19234SOL     OW62831   0.985   7.144  11.333  0.4828 -0.2003  0.3910
19234SOL    HW162832   0.991   7.113  11.423  1.3947 -0.7747  0.1413
19234SOL    HW262833   0.932   7.078  11.288  1.1109 -0.5877  0.2159
19235SOL     OW62834   6.162   3.962   5.602  0.0876 -0.4538 -0.6673
19235SOL    HW162835   6.251   3.931   5.620  1.0265  2.1824 -0.5538
19235SOL    HW262836   6.107   3.917   5.666  1.3517 -1.9838 -0.6353
19236SOL     OW62837   4.510   1.425   2.559  0.2246  0.2219 -0.4197
19236SOL    HW162838   4.420   1.400   2.579 -0.4848  2.5065 -0.6749
19236SOL    HW262839   4.516   1.419   2.463  0.4275 -0.1531 -0.3865
19237SOL     OW62840   3.302   0.177   8.336 -0.2204  0.2635  0.2460
19237SOL    HW162841   3.366   0.226   8.285 -2.3210  2.0733 -0.7135
19237SOL    HW262842   3.268   0.112   8.275  2.1851 -2.1599  1.3685
19238SOL     OW62843   9.993  10.025   5.838  0.3470  0.3528  0.2713
19238SOL    HW162844   9.983  10.092   5.771  1.1676 -0.2359 -0.4469
19238SOL    HW262845   9.987  10.073   5.921 -0.7076  1.0747 -0.2049
19239SOL     OW62846   6.127   4.177   0.626 -0.4146  0.1159  0.5286
19239SOL    HW162847   6.038   4.175   0.593  0.5269 -0.2534 -2.0976
19239SOL    HW262848   6.158   4.266   0.606 -0.2662  0.3151  1.6288
19240SOL     OW62849   5.087   2.835   7.421 -0.3156  0.0852  0.2369
19240SOL    HW162850   4.997   2.803   7.419 -0.7200  1.2196 -1.3556
19240SOL    HW262851   5.123   2.802   7.503 -1.7755 -1.4747  0.2799
19241SOL     OW62852  10.273   7.635   1.583 -0.0544 -0.4725  0.1036
19241SOL    HW162853  10.194   7.680   1.611  1.6693  2.8704 -0.2347
19241SOL    HW262854  10.311   7.601   1.664 -0.1440  0.7424  0.6590
19242SOL     OW62855   9.648   4.567  10.245  0.2856 -0.0987 -0.0448
19242SOL    HW162856   9.650   4.524  10.331  0.3732  0.3663  0.1894
19242SOL    HW262857   9.724   4.625  10.246  1.1113 -1.1429 -0.9891
19243SOL     OW62858   2.971   2.312   8.740 -0.4653 -0.1761  0.5981
19243SOL    HW162859   2.964   2.339   8.649  0.0658 -0.0721  0.5826
19243SOL    HW262860   2.992   2.393   8.787  0.7013 -0.4804  0.6146
19244SOL     OW62861   3.935   1.858   3.529 -0.0145 -0.3683 -0.3039
19244SOL    HW162862   4.010   1.833   3.474  0.2425  0.0088 -0.1227
19244SOL    HW262863   3.958   1.828   3.617  0.1790  0.2765 -0.1363
19245SOL     OW62864   3.872  10.600   7.555 -0.3443 -0.4029  0.9855
19245SOL    HW162865   3.926  10.541   7.503  0.9273  0.8957  0.8071
19245SOL    HW262866   3.920  10.611   7.637 -0.4201  0.6363  0.8907
19246SOL     OW62867   6.026   5.436   3.131 -0.4461  0.3758 -0.5326
19246SOL    HW162868   5.973   5.426   3.052 -0.6234  0.2526 -0.3978
19246SOL    HW262869   6.037   5.530   3.141 -2.0271  0.4809  0.3639
19247SOL     OW62870   9.202   0.590   4.583  0.0752  0.0300 -0.2087
19247SOL    HW162871   9.154   0.661   4.626  0.0099 -0.5883  0.7633
19247SOL    HW262872   9.248   0.546   4.655 -0.3610 -1.2832 -0.7305
19248SOL     OW62873   2.232   6.899   8.166 -0.4706 -0.4549  0.1324
19248SOL    HW162874   2.166   6.966   8.151 -1.0216 -0.5123  2.2267
19248SOL    HW262875   2.220   6.837   8.094 -1.3116  0.6077 -0.6495
19249SOL     OW62876   8.137   4.937   2.055  0.1445  0.3306  0.1612
19249SOL    HW162877   8.047   4.962   2.033  0.2637  0.4881 -0.1581
19249SOL    HW262878   8.186   5.019   2.049  0.2905  0.2650  0.4460
19250SOL     OW62879  10.544   3.372   0.451 -0.5843  0.2428 -0.4328
19250SOL    HW162880  10.532   3.447   0.392 -1.5166  0.8907  0.5655
19250SOL    HW262881  10.619   3.396   0.506 -0.0842 -0.1136 -0.9481
19251SOL     OW62882   7.002   1.914   9.785  0.0249  0.0853 -0.2666
19251SOL    HW162883   7.087   1.886   9.750  0.5260  0.2253  0.8158
19251SOL    HW262884   7.004   2.009   9.778 -0.5566  0.0195 -1.3972
19252SOL     OW62885   6.924   3.423   9.507 -0.2020  0.2280 -0.3933
19252SOL    HW162886   7.002   3.465   9.544  0.8302 -1.6062 -0.4186
19252SOL    HW262887   6.951   3.332   9.492 -1.7756  0.0120 -2.1233
19253SOL     OW62888   5.471   1.505   1.089  0.1146  0.2366  0.6639
19253SOL    HW162889   5.414   1.579   1.113  0.2731  1.6903 -3.1986
19253SOL    HW262890   5.559   1.534   1.113 -0.1715 -0.1565  2.3178
19254SOL     OW62891   2.286   7.841   8.585 -0.5131 -0.1127 -0.1473
19254SOL    HW162892   2.296   7.818   8.493 -0.6797 -1.4995  0.1731
19254SOL    HW262893   2.300   7.935   8.588 -1.3828  0.0883 -1.7296
19255SOL     OW62894   8.809   7.544   0.361  0.4120  0.4932 -0.4900
19255SOL    HW162895   8.877   7.566   0.297  0.3440  0.7115 -0.4880
19255SOL    HW262896   8.728   7.574   0.320  0.0663 -1.5046 -1.3639
19256SOL     OW62897   1.664   7.363   4.250 -0.3798 -0.4108 -0.3979
19256SOL    HW162898   1.607   7.438   4.260 -0.2615 -0.4861  1.0240
19256SOL    HW262899   1.744   7.387   4.298  0.9832 -0.1132 -2.7382
19257SOL     OW62900   5.080   4.156   8.959  0.1444 -0.4485 -0.4788
19257SOL    HW162901   5.100   4.068   8.989 -0.8816  0.1639  2.0567
19257SOL    HW262902   5.131   4.214   9.016  0.9022  0.6095 -2.1829
19258SOL     OW62903   2.516   2.448   5.595 -0.4489  0.3347 -0.7138
19258SOL    HW162904   2.457   2.473   5.667  0.6714  0.4022  0.2009
19258SOL    HW262905   2.545   2.531   5.558  1.0769  0.3833  0.5160
19259SOL     OW62906   6.844   4.836  10.210 -0.1516  0.4118 -0.8805
19259SOL    HW162907   6.836   4.830  10.115  0.6336 -4.4944 -0.7719
19259SOL    HW262908   6.757   4.813  10.242  0.0448  0.3469 -0.3964
19260SOL     OW62909   6.462   4.420   7.103 -0.0518 -0.0780  0.2349
19260SOL    HW162910   6.398   4.391   7.039 -0.1495  1.0889 -0.2107
19260SOL    HW262911   6.453   4.515   7.104 -0.1320 -0.0960  2.0661
19261SOL     OW62912   4.459   0.539   6.382  0.0868 -0.2297 -0.0136
19261SOL    HW162913   4.520   0.609   6.361 -1.2287  0.6855 -0.8004
19261SOL    HW262914   4.437   0.552   6.474  2.0036 -1.2969  0.6256
19262SOL     OW62915   5.136   1.508   6.564 -0.0170  0.2605 -0.5935
19262SOL    HW162916   5.159   1.505   6.656 -0.0243  0.7389 -0.5730
19262SOL    HW262917   5.179   1.432   6.525 -0.9794 -0.6136  0.0174
19263SOL     OW62918   3.176   6.844   3.371  0.1913 -0.5814  0.0619
19263SOL    HW162919   3.183   6.749   3.381  2.0425 -0.3029  1.6250
19263SOL    HW262920   3.180   6.858   3.276  0.5064 -1.9973 -0.1494
19264SOL     OW62921   4.455   8.012   4.935  0.0175 -0.2241 -0.0773
19264SOL    HW162922   4.526   7.974   4.987  1.8960 -0.6275 -2.7787
19264SOL    HW262923   4.443   8.100   4.970 -0.1290 -1.1297  2.2529
19265SOL     OW62924   1.881  10.557   0.504  0.0508 -0.0283 -0.1352
19265SOL    HW162925   1.856  10.488   0.443 -2.5811 -0.0086  0.8466
19265SOL    HW262926   1.952  10.518   0.556 -2.0791 -2.4360  1.1018
19266SOL     OW62927   3.220   4.241   1.457  0.3766  0.3476  0.0803
19266SOL    HW162928   3.253   4.296   1.386  2.1962 -0.2528  0.4436
19266SOL    HW262929   3.184   4.303   1.521 -0.1621  0.9496 -0.7930
19267SOL     OW62930   9.732   7.069   6.642  0.0723  0.3058  0.2144
19267SOL    HW162931   9.779   7.152   6.641  0.7171 -0.0531 -0.9793
19267SOL    HW262932   9.791   7.009   6.688  1.1443 -0.3125 -1.8597
19268SOL     OW62933  10.957   7.244   6.116  0.1644 -0.5975  0.1209
19268SOL    HW162934  10.980   7.307   6.048 -2.2372  0.5242  0.3301
19268SOL    HW262935  11.036   7.190   6.125  2.1750  2.1491 -0.2629
19269SOL     OW62936   9.010  10.258   5.350  0.1191 -0.7162  0.2648
19269SOL    HW162937   9.078  10.282   5.286  0.3379 -1.7037  0.1116
19269SOL    HW262938   8.972  10.341   5.378 -0.9063 -0.3384 -2.1568
19270SOL     OW62939   8.744   1.667   1.206  0.5440  0.2228  0.1862
19270SOL    HW162940   8.796   1.618   1.143  2.0098  0.6667  1.0318
19270SOL    HW262941   8.753   1.758   1.179  0.3142  0.3158  0.4174
19271SOL     OW62942   2.242  11.086   5.325  0.2961  0.4644  0.0444
19271SOL    HW162943   2.202  10.999   5.317  2.6903 -0.7833  1.2642
19271SOL    HW262944   2.201  11.124   5.402 -1.4382  0.8201 -1.0228
19272SOL     OW62945   2.320   5.626   5.179  0.6605 -0.6504  0.2968
19272SOL    HW162946   2.282   5.644   5.265  0.6043  0.2552  0.0865
19272SOL    HW262947   2.364   5.708   5.155 -1.6296  0.0066 -1.7611
19273SOL     OW62948   4.071   7.022   2.613  0.0752  0.0974 -0.3869
19273SOL    HW162949   3.991   7.071   2.598 -1.3513 -1.5843  1.4521
19273SOL    HW262950   4.064   6.945   2.557 -1.2229 -1.7539  2.1937
19274SOL     OW62951  11.076   0.829  11.025  0.4232 -0.3499 -0.7283
19274SOL    HW162952  11.144   0.859  11.086  2.0437 -0.0006 -2.6826
19274SOL    HW262953  11.058   0.739  11.052 -0.1288  0.3341  1.3422
19275SOL     OW62954   8.385   8.835   1.136 -0.3684  0.0398 -0.4967
19275SOL    HW162955   8.452   8.770   1.157 -0.7236 -0.2466 -0.2535
19275SOL    HW262956   8.359   8.814   1.046  0.5025  0.7014 -0.9069
19276SOL     OW62957  10.119   0.593   9.833 -0.4777  1.0246 -0.0138
19276SOL    HW162958  10.090   0.535   9.762 -0.2428 -0.8045  1.3347
19276SOL    HW262959  10.166   0.663   9.789 -1.0666  0.3705 -1.7349
19277SOL     OW62960   8.615   5.296   9.926  0.1700 -0.0590  0.0284
19277SOL    HW162961   8.591   5.208   9.896  1.0739 -0.7562  1.2524
19277SOL    HW262962   8.533   5.335   9.955 -0.4000 -0.0903 -1.5535
19278SOL     OW62963  10.389   9.383   8.357  0.2595 -0.6466  0.8387
19278SOL    HW162964  10.422   9.459   8.309  0.1149 -1.8250 -1.1708
19278SOL    HW262965  10.466   9.347   8.400  0.7641 -0.6887 -0.0753
19279SOL     OW62966   4.961  10.018   2.509 -0.3955 -0.5343  0.3298
19279SOL    HW162967   4.992   9.959   2.578 -0.1277 -2.5591 -1.4854
19279SOL    HW262968   5.039  10.039   2.458 -0.7138  0.4145  0.2211
19280SOL     OW62969   6.936   0.420   9.275  0.4160  0.1002  0.7282
19280SOL    HW162970   6.896   0.333   9.282  1.0637 -0.3088 -0.5445
19280SOL    HW262971   7.030   0.402   9.272  0.5617  0.8709  0.6778
19281SOL     OW62972   9.551   8.618   3.453  0.1093 -0.2116 -0.2264
19281SOL    HW162973   9.601   8.624   3.534  0.1820  1.2837 -0.3635
19281SOL    HW262974   9.571   8.699   3.406  0.3728 -1.2279 -1.9235
19282SOL     OW62975   3.600   0.258   7.339 -0.0442  0.2137 -0.5715
19282SOL    HW162976   3.665   0.191   7.317 -0.0079  0.0911 -0.1030
19282SOL    HW262977   3.646   0.316   7.400 -0.8916 -0.8214  1.0779
19283SOL     OW62978   3.136   2.767   7.178  0.1554  0.0509 -0.7663
19283SOL    HW162979   3.134   2.846   7.232  1.4156  0.5714 -1.4694
19283SOL    HW262980   3.045   2.755   7.150 -0.2536  0.5661  0.3231
19284SOL     OW62981   6.418   0.837   9.476  0.4750 -0.8124  0.6591
19284SOL    HW162982   6.386   0.861   9.389 -0.2515 -0.2341  1.0811
19284SOL    HW262983   6.512   0.821   9.464  0.1299 -2.0240 -0.4891
19285SOL     OW62984   1.756   3.522  10.243 -0.1757 -0.2545  0.6225
19285SOL    HW162985   1.701   3.499  10.167  0.2229  0.4195  0.1259
19285SOL    HW262986   1.695   3.562  10.305 -0.6255 -1.3846  0.9367
19286SOL     OW62987   8.219   5.947   9.147 -0.7374 -0.0396  0.0312
19286SOL    HW162988   8.234   6.042   9.158  0.6075  0.0603 -2.3595
19286SOL    HW262989   8.161   5.924   9.220 -0.1157  2.3872  1.3811
19287SOL     OW62990   2.973   5.823   4.568  0.8710  0.0272  0.4136
19287SOL    HW162991   2.903   5.880   4.536  0.9674 -0.1227 -0.0781
19287SOL    HW262992   2.989   5.852   4.657 -0.2974 -0.3840  0.7725
19288SOL     OW62993   4.024  11.030   5.790 -0.5936 -0.4764  0.1708
19288SOL    HW162994   4.009  11.069   5.876 -1.0223  1.8768 -0.9174
19288SOL    HW262995   3.941  10.986   5.768 -1.6021  1.6101 -0.3549
19289SOL     OW62996   0.363   7.477   3.868 -0.0524 -0.0774 -0.7096
19289SOL    HW162997   0.305   7.521   3.931 -1.4662  0.0148 -2.0610
19289SOL    HW262998   0.451   7.498   3.900 -0.7329 -0.1415  1.3159
19290SOL     OW62999   1.630   3.240  10.481 -0.7665 -0.8653  0.0493
19290SOL    HW163000   1.617   3.329  10.514 -1.4974 -0.8610 -0.2205
19290SOL    HW263001   1.718   3.240  10.444  0.4623 -1.1597  2.8541
19291SOL     OW63002   4.509   7.817   2.496  0.4650 -0.2333  0.2478
19291SOL    HW163003   4.557   7.735   2.486  0.4951 -0.0402 -1.2256
19291SOL    HW263004   4.568   7.885   2.462 -0.6565  0.0496 -1.2090
19292SOL     OW63005   8.708   3.648   0.136  0.1378 -0.4008  0.5196
19292SOL    HW163006   8.771   3.705   0.180  0.4399 -0.9293  0.7788
19292SOL    HW263007   8.759   3.572   0.108 -0.1557 -0.2838 -0.3213
19293SOL     OW63008   4.001   6.200  10.839 -0.1815  0.0714  0.0743
19293SOL    HW163009   4.067   6.135  10.819 -0.0718  0.6293 -1.4266
19293SOL    HW263010   3.922   6.149  10.859 -0.0670 -0.5168 -0.9704
19294SOL     OW63011   7.047   1.395   3.727 -0.7468 -0.1927 -0.2225
19294SOL    HW163012   7.037   1.488   3.709 -0.2205 -0.0559  0.1778
19294SOL    HW263013   7.084   1.359   3.647  0.7668  0.2642  0.2486
19295SOL     OW63014   6.262   8.831   9.367  0.4938 -0.3828  0.1126
19295SOL    HW163015   6.191   8.845   9.429 -0.0805 -0.2173 -0.5687
19295SOL    HW263016   6.232   8.875   9.287  1.6501  0.2627  0.0225
19296SOL     OW63017   0.310   9.234   2.453 -0.3322  0.4096  0.3412
19296SOL    HW163018   0.383   9.186   2.493 -1.1632 -1.6181 -0.4903
19296SOL    HW263019   0.233   9.200   2.498 -0.9358  1.0527 -0.2026
19297SOL     OW63020   3.641   1.744   0.473 -0.4400 -0.5589 -0.0839
19297SOL    HW163021   3.608   1.833   0.477  0.1070 -0.2622 -1.5825
19297SOL    HW263022   3.562   1.690   0.461 -0.5396  0.0150 -2.2451
19298SOL     OW63023   7.801   2.424   5.371  0.6259 -0.1987 -0.0189
19298SOL    HW163024   7.890   2.459   5.371  0.7004 -0.3810 -0.2808
19298SOL    HW263025   7.812   2.332   5.346  0.4745 -0.5140  1.0334
19299SOL     OW63026   3.986   1.793   3.185 -0.0236  0.7288  0.4409
19299SOL    HW163027   4.053   1.759   3.125  0.4016  1.2107  0.6320
19299SOL    HW263028   3.916   1.728   3.183 -0.9962  1.7918 -2.2535
19300SOL     OW63029   2.181   7.542   3.123 -0.3514  0.0937 -0.3754
19300SOL    HW163030   2.261   7.595   3.121  1.3520 -2.3028  1.9303
19300SOL    HW263031   2.166   7.524   3.216 -3.4236  0.2285 -0.7843
19301SOL     OW63032   5.876   4.215   4.317 -0.6574 -0.1633 -0.5497
19301SOL    HW163033   5.854   4.300   4.353 -1.5623 -1.5265  2.2505
19301SOL    HW263034   5.797   4.162   4.328  0.2066 -1.6736 -1.2981
19302SOL     OW63035   0.089   8.925   8.798  0.1789  0.7326 -0.1723
19302SOL    HW163036   0.007   8.974   8.799 -0.6957 -0.6763  1.9044
19302SOL    HW263037   0.079   8.863   8.726 -1.5120 -0.8501  1.3638
19303SOL     OW63038   3.272   8.235   0.179 -0.0194 -0.3307 -0.0058
19303SOL    HW163039   3.304   8.176   0.248 -0.1103 -1.9362 -1.3147
19303SOL    HW263040   3.286   8.322   0.215  0.4651 -1.1240  1.8269
19304SOL     OW63041   7.297   0.123   0.823  0.4702 -0.0359 -0.5338
19304SOL    HW163042   7.202   0.116   0.818  0.4818 -0.1089 -0.6405
19304SOL    HW263043   7.313   0.213   0.853  0.2938 -0.8263  2.0711
19305SOL     OW63044   1.696  11.117   0.147 -0.2580  0.0971  0.3963
19305SOL    HW163045   1.760  11.160   0.204  1.4628 -1.1947 -0.5337
19305SOL    HW263046   1.699  11.166   0.065  0.5085 -0.7413 -0.0937
19306SOL     OW63047   5.726   5.298   6.293  0.6900  0.6422 -0.0071
19306SOL    HW163048   5.650   5.273   6.240  0.6686 -0.8445  0.6918
19306SOL    HW263049   5.753   5.216   6.334  2.9671  1.0602 -0.6241
19307SOL     OW63050   4.179   3.327   8.555  0.1854  0.4746  0.3161
19307SOL    HW163051   4.141   3.255   8.606  1.6807  0.2476  1.1448
19307SOL    HW263052   4.133   3.405   8.586 -1.3416 -0.0897 -0.4821
19308SOL     OW63053   3.662  10.729   7.672  0.1373 -0.2101  0.5711
19308SOL    HW163054   3.738  10.693   7.626  2.1376  3.2244  1.0443
19308SOL    HW263055   3.676  10.707   7.764 -0.5683 -1.4245  0.4020
19309SOL     OW63056   6.857   1.102  10.966 -0.3311  0.0156  0.0781
19309SOL    HW163057   6.849   1.179  11.021  1.9440 -0.7162  1.4786
19309SOL    HW263058   6.820   1.129  10.882 -0.5572  2.2655  0.8693
19310SOL     OW63059   1.440   1.196   4.210  0.2643 -0.0744 -0.1298
19310SOL    HW163060   1.492   1.205   4.129  3.2447  1.3794  1.8551
19310SOL    HW263061   1.427   1.101   4.218  2.6798 -0.5162 -0.7242
19311SOL     OW63062   6.570   0.617   1.696 -0.1842  0.2018  0.2658
19311SOL    HW163063   6.653   0.661   1.713  0.7533 -0.6867 -1.7701
19311SOL    HW263064   6.574   0.537   1.749 -0.1872  0.6828  0.9800
19312SOL     OW63065   0.056  10.390   7.159 -0.5069 -0.3114  0.2359
19312SOL    HW163066   0.020  10.316   7.110  0.0059 -0.6835  0.4194
19312SOL    HW263067   0.139  10.409   7.116  0.8460 -1.8381  2.0920
19313SOL     OW63068   5.009   2.568   2.934  0.3661  0.7918  0.2376
19313SOL    HW163069   5.016   2.643   2.876  1.4675  0.6268  0.1467
19313SOL    HW263070   5.099   2.547   2.957  0.0528 -0.3641  0.4426
19314SOL     OW63071   0.134   4.195  10.119  0.0830  0.0939 -0.0572
19314SOL    HW163072   0.166   4.281  10.148 -0.4179  0.2894 -0.0815
19314SOL    HW263073   0.210   4.137  10.128  1.0535  0.9979 -2.0834
19315SOL     OW63074   4.762   8.848   8.127 -0.4821 -0.0175 -0.2538
19315SOL    HW163075   4.761   8.872   8.220 -3.5075  0.0529 -0.2681
19315SOL    HW263076   4.744   8.754   8.126 -1.0536  0.0977 -0.8055
19316SOL     OW63077   6.883   4.170   7.090  0.1353 -0.1777 -0.8490
19316SOL    HW163078   6.807   4.159   7.034 -1.7303 -0.0729  1.5412
19316SOL    HW263079   6.877   4.261   7.121  2.1589  0.3420 -1.9116
19317SOL     OW63080   0.973   9.077   3.489 -0.7452 -0.0991  0.1122
19317SOL    HW163081   1.049   9.019   3.499  0.5230  1.4519 -0.3267
19317SOL    HW263082   0.947   9.066   3.398  0.6007  1.2986 -0.4759
19318SOL     OW63083   7.838   9.674   2.129 -0.3098  0.0509  0.4913
19318SOL    HW163084   7.849   9.766   2.155 -1.4024  0.0801  0.8865
19318SOL    HW263085   7.926   9.636   2.137 -0.0111  0.8541  1.1339
19319SOL     OW63086  11.130   0.401   3.304  0.0240  0.2531 -0.1385
19319SOL    HW163087  11.150   0.332   3.241  0.1182 -0.0240  0.2011
19319SOL    HW263088  11.162   0.369   3.388 -0.2312  0.5629  0.0818
19320SOL     OW63089   3.116   0.174   9.491  0.5878 -0.5358 -0.7429
19320SOL    HW163090   3.182   0.214   9.435 -0.1615  0.5640 -0.8553
19320SOL    HW263091   3.167   0.124   9.556  1.5906  1.8045  0.3068
19321SOL     OW63092   2.569   4.660  10.167 -0.3559  0.7073  0.1379
19321SOL    HW163093   2.475   4.673  10.153 -1.0059 -1.4322  2.2133
19321SOL    HW263094   2.577   4.643  10.261  1.8673 -1.0677 -0.3283
19322SOL     OW63095   6.104   9.867   1.004 -0.7914 -0.2229 -0.4076
19322SOL    HW163096   6.112   9.949   1.053  1.9164 -1.1650  0.8170
19322SOL    HW263097   6.085   9.895   0.914  0.4384  1.7630 -0.0897
19323SOL     OW63098   0.876   2.216   1.401  0.1254 -0.0367  0.5777
19323SOL    HW163099   0.853   2.309   1.394  0.2873  0.1165  1.9594
19323SOL    HW263100   0.922   2.209   1.485 -1.3018 -1.6314  1.2618
19324SOL     OW63101   0.565  10.642   0.796  0.4465  0.1795  0.2747
19324SOL    HW163102   0.619  10.584   0.850 -1.3758 -1.3107  0.5579
19324SOL    HW263103   0.627  10.705   0.760  1.9851  0.1678  2.7246
19325SOL     OW63104   1.160   1.421   8.007  0.1330 -0.3942 -0.0528
19325SOL    HW163105   1.201   1.428   7.921  0.3742 -1.8140 -0.0747
19325SOL    HW263106   1.224   1.372   8.059  1.0940  2.5601  1.6681
19326SOL     OW63107   8.397   2.969   4.870 -0.0878 -0.4499 -0.4462
19326SOL    HW163108   8.458   3.031   4.910  2.1900 -2.1445 -1.1626
19326SOL    HW263109   8.343   3.022   4.812  0.5949  1.1321  0.3424
19327SOL     OW63110   0.978   8.866   5.609  0.0059  0.3872 -0.3899
19327SOL    HW163111   0.915   8.847   5.539 -1.1110  3.0838 -0.1749
19327SOL    HW263112   0.924   8.884   5.686  1.2332 -2.5556  1.2010
19328SOL     OW63113   3.338   9.379   0.392  0.2728 -0.1386  0.3841
19328SOL    HW163114   3.287   9.368   0.312 -0.5651  2.1054  0.5929
19328SOL    HW263115   3.429   9.377   0.363 -0.0475  1.9369 -0.8156
19329SOL     OW63116   5.334   5.408   7.972 -0.6855  0.4104  0.0968
19329SOL    HW163117   5.255   5.403   7.919 -0.9555 -1.3319  0.6328
19329SOL    HW263118   5.313   5.360   8.052  0.7906  0.2459  0.4003
19330SOL     OW63119   7.061   4.328   9.689  0.7070  0.2440 -0.5178
19330SOL    HW163120   6.980   4.331   9.740  0.4443  2.2992 -1.0135
19330SOL    HW263121   7.032   4.306   9.600  1.0205 -1.8945 -0.1292
19331SOL     OW63122   7.821   3.649   2.595 -0.0836 -0.4138  0.7256
19331SOL    HW163123   7.832   3.568   2.544 -0.1311 -1.2335  1.9913
19331SOL    HW263124   7.829   3.621   2.686  0.1157  1.0544  1.1746
19332SOL     OW63125   6.881   1.112   8.567  0.3123 -0.0360  0.4930
19332SOL    HW163126   6.946   1.058   8.613 -0.0438 -0.7605  0.1513
19332SOL    HW263127   6.929   1.190   8.542  0.6418  0.1375  1.6541
19333SOL     OW63128   8.612   1.099   6.176  0.0265 -0.1403  0.7541
19333SOL    HW163129   8.586   1.134   6.090 -0.1403 -0.6395  0.6013
19333SOL    HW263130   8.701   1.067   6.162  0.0337 -0.1370  0.7898
19334SOL     OW63131   1.759   1.115   4.949  0.1988 -0.3052  0.7248
19334SOL    HW163132   1.848   1.101   4.980  0.8645 -0.3092 -1.1189
19334SOL    HW263133   1.707   1.128   5.029  1.7327 -0.8957  1.8403
19335SOL     OW63134   3.333   7.025   5.023 -0.3907  0.0775 -0.5311
19335SOL    HW163135   3.337   6.935   5.054  0.5451 -0.5686 -2.4389
19335SOL    HW263136   3.338   7.078   5.102 -0.2733 -1.5183  0.5637
19336SOL     OW63137   6.697   0.136   9.857  0.0467  0.1160 -0.1354
19336SOL    HW163138   6.691   0.136   9.761  1.2266  0.3376 -0.2114
19336SOL    HW263139   6.748   0.057   9.878  0.0981  0.2623  0.2873
19337SOL     OW63140   1.647   5.324   2.297  0.4233  0.1516 -0.4740
19337SOL    HW163141   1.700   5.366   2.229  2.6326 -1.0546  0.4556
19337SOL    HW263142   1.644   5.232   2.271 -1.7020  0.2601 -0.7710
19338SOL     OW63143  10.489   8.806   9.404  0.2211  0.6037 -0.2824
19338SOL    HW163144  10.428   8.772   9.338  0.9970  1.2188 -1.3319
19338SOL    HW263145  10.518   8.889   9.368  1.3924  0.4916  0.3940
19339SOL     OW63146   6.900   2.396   1.544  0.4434 -0.2265 -0.5624
19339SOL    HW163147   6.925   2.334   1.613  1.1595  1.9313  1.1979
19339SOL    HW263148   6.805   2.388   1.537  0.4198 -0.8255  0.3531
19340SOL     OW63149   1.327   8.303   0.891 -0.2362  0.5362  0.1526
19340SOL    HW163150   1.366   8.284   0.806  0.8554  0.2589  0.7115
19340SOL    HW263151   1.364   8.388   0.915  0.5231 -0.0184  0.9718
19341SOL     OW63152   2.539   1.576   9.090  0.3759 -0.0423 -0.0682
19341SOL    HW163153   2.533   1.648   9.153  1.7251  0.8089 -0.8733
19341SOL    HW263154   2.470   1.594   9.026  0.2949  0.1935  0.0864
19342SOL     OW63155   3.318   9.595   1.932 -0.4543  0.5271 -0.3892
19342SOL    HW163156   3.252   9.541   1.888 -0.9253  2.2837 -1.9222
19342SOL    HW263157   3.339   9.663   1.868  2.4045  0.3554  0.3097
19343SOL     OW63158   3.139   8.587   3.096  0.3900  0.1082 -0.7748
19343SOL    HW163159   3.172   8.662   3.046 -2.4225  2.3883  0.6717
19343SOL    HW263160   3.059   8.561   3.051 -0.4999  0.1966  0.7296
19344SOL     OW63161   3.158   5.451   0.063  0.0963  0.1285 -0.5417
19344SOL    HW163162   3.120   5.445  -0.025 -0.0456  2.4847 -0.6829
19344SOL    HW263163   3.248   5.478   0.048  0.2750 -0.1869 -0.0057
19345SOL     OW63164   6.199   1.808   1.527 -0.1113 -0.3654  0.4040
19345SOL    HW163165   6.225   1.720   1.500 -2.2333 -0.1748 -2.3606
19345SOL    HW263166   6.277   1.862   1.511  0.3388 -1.2379 -0.3672
19346SOL     OW63167   3.182   7.044   3.798 -0.0335  0.1959 -0.0569
19346SOL    HW163168   3.242   7.094   3.853 -1.6263  1.2162  0.7819
19346SOL    HW263169   3.146   7.108   3.737  0.8699 -0.7063 -1.5597
19347SOL     OW63170  10.060   1.438   8.724 -0.1590  0.2283 -0.0753
19347SOL    HW163171  10.105   1.358   8.751 -2.7269 -0.5191  2.3334
19347SOL    HW263172  10.010   1.413   8.646 -0.6831 -0.4713  0.4705
19348SOL     OW63173   4.008   3.147   1.115 -0.3657 -0.9242 -0.1603
19348SOL    HW163174   4.091   3.148   1.161 -0.3213 -2.3462 -0.2027
19348SOL    HW263175   4.031   3.164   1.023 -0.4224  1.5729  0.2658
19349SOL     OW63176  10.984   9.614   6.384 -0.0873 -0.3062  0.5264
19349SOL    HW163177  11.020   9.690   6.337 -0.1950 -0.7733 -0.3190
19349SOL    HW263178  10.902   9.595   6.339 -0.2091 -0.7421  0.9310
19350SOL     OW63179   9.777  11.318   0.845 -0.0904  0.0761  0.2402
19350SOL    HW163180   9.734  11.370   0.776 -0.9927  0.1008  0.8127
19350SOL    HW263181   9.865  11.355   0.852 -0.6974  1.4840  0.5952
19351SOL     OW63182   0.038   1.587   2.897  0.0719  0.1751 -0.0150
19351SOL    HW163183   0.056   1.580   2.991  0.9057 -0.5449 -0.2083
19351SOL    HW263184  -0.055   1.605   2.891 -0.5378 -2.4686  0.8871
19352SOL     OW63185   5.717   5.297   4.480 -0.2853 -0.3620 -0.1413
19352SOL    HW163186   5.749   5.303   4.570 -2.4106  1.0854  0.5651
19352SOL    HW263187   5.783   5.342   4.427 -0.5572  1.5653  1.1178
19353SOL     OW63188   7.991   4.633   1.413  0.2246 -0.0401 -0.3081
19353SOL    HW163189   7.995   4.714   1.362 -1.5827  0.2053 -0.1132
19353SOL    HW263190   7.933   4.653   1.486  2.6124 -0.4659  1.7760
19354SOL     OW63191   2.146   1.242   6.773 -0.3987  0.2978  0.5165
19354SOL    HW163192   2.075   1.301   6.746 -1.6683 -0.4908  2.0502
19354SOL    HW263193   2.178   1.280   6.855  0.5619  0.3166  0.1328
19355SOL     OW63194   2.157   3.873   3.510 -0.2654 -0.3780 -0.3882
19355SOL    HW163195   2.077   3.894   3.558  0.1142  0.4936 -0.1191
19355SOL    HW263196   2.161   3.939   3.440  0.3495 -0.2499 -0.2339
19356SOL     OW63197   3.477   1.516   4.038  0.2888 -0.1262 -0.1609
19356SOL    HW163198   3.524   1.539   4.118 -0.7117 -1.8812  0.9734
19356SOL    HW263199   3.539   1.462   3.988  0.4536 -0.1136  0.0306
19357SOL     OW63200   6.403   2.316   5.238 -0.4622 -0.2158 -0.1663
19357SOL    HW163201   6.378   2.224   5.223  1.2490 -0.7132 -0.0259
19357SOL    HW263202   6.392   2.357   5.152 -0.8014 -0.6572 -0.3394
19358SOL     OW63203   7.508   5.705   5.190  0.4300 -0.0367  0.8833
19358SOL    HW163204   7.492   5.746   5.105 -0.5947 -1.2221  0.5074
19358SOL    HW263205   7.518   5.779   5.250 -1.8805  0.7845  0.2910
19359SOL     OW63206   5.526   6.425   5.420 -0.0848 -0.3880 -0.0610
19359SOL    HW163207   5.479   6.343   5.408 -0.4960 -0.1901  0.1716
19359SOL    HW263208   5.507   6.450   5.510 -1.1250  0.6826 -0.5632
19360SOL     OW63209   1.632   5.000   3.853 -0.5615 -0.1993  0.4939
19360SOL    HW163210   1.682   4.924   3.882  0.3163  0.5750  1.0501
19360SOL    HW263211   1.582   5.028   3.930 -2.1192 -1.1563 -0.1449
19361SOL     OW63212   1.172   8.442   1.575 -0.5314 -0.0074 -0.1464
19361SOL    HW163213   1.225   8.516   1.606 -1.5100  0.5497  0.1980
19361SOL    HW263214   1.236   8.371   1.563  0.2077  0.4643  0.9020
19362SOL     OW63215   7.051   1.598   1.329  0.2366  0.1342 -0.3984
19362SOL    HW163216   7.129   1.653   1.324  2.1006 -2.3665 -0.0186
19362SOL    HW263217   7.039   1.582   1.422 -0.0318 -0.4486 -0.5309
19363SOL     OW63218   2.954   5.976  10.489  0.5755  1.1640 -0.9785
19363SOL    HW163219   3.001   6.056  10.511  2.6356 -0.2305 -0.2628
19363SOL    HW263220   2.893   6.003  10.419  0.8093  3.4579 -0.3312
19364SOL     OW63221   3.324   7.715   9.464 -0.5221 -0.0115  0.9622
19364SOL    HW163222   3.414   7.747   9.461  0.1276 -1.9006 -1.4984
19364SOL    HW263223   3.270   7.793   9.458  1.0158  0.8863 -2.8178
19365SOL     OW63224   4.475  10.606   5.356 -0.3282 -0.6743  0.2924
19365SOL    HW163225   4.399  10.554   5.329  0.8688 -2.3924  0.1280
19365SOL    HW263226   4.466  10.615   5.450 -0.4657 -1.3221  0.3410
19366SOL     OW63227   7.311   8.874   4.666  0.0608 -0.1301  0.1390
19366SOL    HW163228   7.326   8.935   4.739 -0.4928  1.0698 -0.7419
19366SOL    HW263229   7.377   8.898   4.601 -0.6786  0.0683 -0.5459
19367SOL     OW63230  10.658  10.545   4.880 -0.0535 -0.6142 -0.2634
19367SOL    HW163231  10.622  10.611   4.940 -0.3835 -0.6544 -0.4180
19367SOL    HW263232  10.584  10.519   4.826 -0.5491 -2.9358  1.4360
19368SOL     OW63233   3.196  11.020   2.035 -0.5817  0.4202 -0.2788
19368SOL    HW163234   3.197  10.932   1.998 -1.9634  0.1733  0.2257
19368SOL    HW263235   3.167  11.008   2.125 -1.6824  1.4719 -0.4730
19369SOL     OW63236   3.817   9.096  10.752  0.3012 -0.2986  0.1476
19369SOL    HW163237   3.841   9.004  10.754 -0.4485 -0.4775  1.2659
19369SOL    HW263238   3.778   9.113  10.838 -0.1308  0.9006 -0.2684
19370SOL     OW63239   6.508   6.052   1.092  0.6442 -0.0226 -0.0347
19370SOL    HW163240   6.525   6.025   1.182 -1.1542 -0.7376  0.1121
19370SOL    HW263241   6.544   5.982   1.038 -0.9583 -1.1001  0.2454
19371SOL     OW63242   5.675   0.570  11.017  0.0200 -0.4695  0.0799
19371SOL    HW163243   5.592   0.584  10.971 -0.1877 -0.6393  0.4048
19371SOL    HW263244   5.673   0.631  11.090  1.3614  1.4818 -1.4431
19372SOL     OW63245  10.835   5.322   0.602 -0.2201 -0.3637  0.1252
19372SOL    HW163246  10.788   5.293   0.524  0.1937 -0.7387  0.0095
19372SOL    HW263247  10.773   5.309   0.674 -0.4536 -0.4229 -0.0864
19373SOL     OW63248   6.145   3.362   2.205 -0.2856 -0.1030 -0.1865
19373SOL    HW163249   6.217   3.416   2.172 -0.9430  0.3811 -0.8319
19373SOL    HW263250   6.184   3.313   2.278  0.9836 -0.6058 -1.1718
19374SOL     OW63251   6.308   4.964   5.863 -0.4036 -0.0676 -0.1023
19374SOL    HW163252   6.294   5.027   5.792 -0.4317  0.1444  0.0921
19374SOL    HW263253   6.225   4.917   5.870  0.0230 -0.9949 -1.0931
19375SOL     OW63254   9.938   2.068  10.127  0.5675 -0.9758  0.2180
19375SOL    HW163255  10.021   2.023  10.139  0.5339 -1.2113 -0.4272
19375SOL    HW263256   9.932   2.083  10.033  0.8678  0.9148  0.4807
19376SOL     OW63257   5.484   2.554   8.914  0.4528  0.6412  0.1797
19376SOL    HW163258   5.473   2.558   9.009 -1.3036 -0.4498  0.0460
19376SOL    HW263259   5.426   2.622   8.880  0.7456  0.7380 -0.1295
19377SOL     OW63260   6.456   1.174  11.102 -0.2601  0.2054  0.4096
19377SOL    HW163261   6.543   1.138  11.081 -0.6631 -0.2673 -0.4891
19377SOL    HW263262   6.395   1.117  11.054 -0.8967  2.1876 -1.2058
19378SOL     OW63263   0.034   6.677   8.735  0.0747  0.1510 -0.0625
19378SOL    HW163264   0.029   6.663   8.829  3.7892 -0.0895  0.1528
19378SOL    HW263265  -0.001   6.766   8.722  0.1015  0.4062  1.5876
19379SOL     OW63266   5.559  10.595   2.606 -1.0095  0.2599 -0.2576
19379SOL    HW163267   5.653  10.577   2.605 -0.9885  0.4051 -1.2313
19379SOL    HW263268   5.552  10.687   2.583 -1.3233  0.5887  1.1348
19380SOL     OW63269   2.235   6.162   5.743  0.1270  0.1257 -0.0314
19380SOL    HW163270   2.153   6.184   5.698 -0.3019  1.1145  1.1796
19380SOL    HW263271   2.304   6.195   5.685 -0.3381 -0.4965 -0.9465
19381SOL     OW63272   2.587  10.998   3.066 -0.7223 -0.2507  0.0092
19381SOL    HW163273   2.508  10.996   3.012 -0.8651  0.4464  0.1905
19381SOL    HW263274   2.658  11.021   3.006 -0.5865 -1.2726 -0.2326
19382SOL     OW63275  10.004   3.653   0.836  0.1963 -0.0905 -0.1938
19382SOL    HW163276   9.948   3.646   0.759  0.8362 -0.3900 -0.6419
19382SOL    HW263277  10.007   3.565   0.873 -1.1522  0.3131  0.9370
19383SOL     OW63278   2.191   3.923   1.758  0.0373 -0.3820 -0.0847
19383SOL    HW163279   2.134   3.907   1.683  0.1254  0.7391 -0.4093
19383SOL    HW263280   2.238   4.004   1.735  1.1719 -0.8629  0.5168
19384SOL     OW63281   8.799   0.017   0.318 -0.4821 -0.0607  0.1897
19384SOL    HW163282   8.729  -0.015   0.261 -1.7246 -1.4023  2.3857
19384SOL    HW263283   8.756   0.031   0.402  1.7831 -0.3582  1.4284
19385SOL     OW63284   1.789  10.331   4.301  0.6828 -0.2520  1.0739
19385SOL    HW163285   1.824  10.289   4.222  1.3435  0.9028  0.7423
19385SOL    HW263286   1.725  10.394   4.268  0.4445 -0.2661  1.5097
19386SOL     OW63287  10.166   2.768   6.696 -0.5714  0.0079  0.7889
19386SOL    HW163288  10.094   2.794   6.639 -0.7648 -0.3257  0.8773
19386SOL    HW263289  10.149   2.814   6.779  0.0997  1.0569  0.3565
19387SOL     OW63290   5.140   0.173  11.175  0.9361  0.8538 -0.0779
19387SOL    HW163291   5.150   0.149  11.083  2.0274 -1.0297  0.4912
19387SOL    HW263292   5.087   0.102  11.213 -0.3352  2.1139  0.5458
19388SOL     OW63293   5.794   6.229   4.265 -0.3256 -0.3838  0.0119
19388SOL    HW163294   5.805   6.222   4.360 -4.2935  0.9765  0.6716
19388SOL    HW263295   5.755   6.145   4.239  0.7496 -0.7520 -0.4087
19389SOL     OW63296   6.668   5.670   5.318  0.8041 -0.4428  0.1477
19389SOL    HW163297   6.744   5.725   5.339  0.3858  0.7238 -1.3260
19389SOL    HW263298   6.605   5.688   5.388  1.3017 -0.2895  0.5580
19390SOL     OW63299  11.063   3.782   0.597 -0.0224  0.3001  0.4969
19390SOL    HW163300  10.988   3.832   0.628 -1.1822 -0.0416 -1.6911
19390SOL    HW263301  11.139   3.831   0.627 -1.1233  1.3527  1.6014
19391SOL     OW63302   5.322   7.105   5.211  0.2710 -0.4422 -0.7058
19391SOL    HW163303   5.385   7.040   5.182  0.2975 -0.5307 -0.4473
19391SOL    HW263304   5.357   7.139   5.293 -0.2710 -0.8549 -0.2981
19392SOL     OW63305   1.237   6.778   4.182  0.1661 -0.4678 -0.2165
19392SOL    HW163306   1.198   6.754   4.098 -1.5046  1.3756 -0.0103
19392SOL    HW263307   1.225   6.701   4.237 -2.3203 -0.2898 -0.4713
19393SOL     OW63308   4.287   3.425   2.036  0.2910  0.1756 -0.3368
19393SOL    HW163309   4.269   3.497   1.976  0.3364  0.2195 -0.2966
19393SOL    HW263310   4.228   3.355   2.007 -2.0198  1.2708  1.5497
19394SOL     OW63311   7.096   0.887   4.349  0.1122  0.0329  0.5254
19394SOL    HW163312   7.189   0.872   4.369 -0.1021 -0.3614  1.2312
19394SOL    HW263313   7.077   0.971   4.389  0.0004 -0.1910  0.9519
19395SOL     OW63314   4.069  10.998   6.745 -0.2447  0.4192 -0.2293
19395SOL    HW163315   4.049  10.941   6.820 -3.2972  2.3006  0.4496
19395SOL    HW263316   4.126  11.066   6.781 -0.2278  0.3099 -0.0472
19396SOL     OW63317   0.690   8.422   6.540 -0.1074 -0.5562  0.2421
19396SOL    HW163318   0.757   8.353   6.531 -1.0223 -1.6310  1.3990
19396SOL    HW263319   0.703   8.478   6.463  1.3998 -1.3669 -0.1298
19397SOL     OW63320   8.433   4.996   7.536 -0.5800  0.6487 -1.0402
19397SOL    HW163321   8.425   5.068   7.598  1.6580 -0.1385  0.2378
19397SOL    HW263322   8.377   4.927   7.572 -0.2000  0.6088 -0.5244
19398SOL     OW63323   2.051   0.624   0.349 -0.0936 -0.1725  0.3049
19398SOL    HW163324   2.034   0.718   0.346  3.0664  0.4417 -0.6938
19398SOL    HW263325   2.006   0.589   0.273  0.5469  0.8925 -0.5822
19399SOL     OW63326   4.272   9.254   0.569  0.8975  0.1723 -0.4046
19399SOL    HW163327   4.256   9.252   0.475  0.4519 -1.2437 -0.3219
19399SOL    HW263328   4.309   9.167   0.589  0.5872  0.3009  0.7841
19400SOL     OW63329   3.173   7.854  10.107  0.6971 -0.6297  0.1118
19400SOL    HW163330   3.098   7.910  10.085  2.0423  1.0830 -0.2602
19400SOL    HW263331   3.148   7.767  10.076 -0.9167  0.0187 -0.4731
19401SOL     OW63332   7.167   7.906   3.324 -0.4246  0.0669  0.1883
19401SOL    HW163333   7.173   7.862   3.240 -0.1766 -0.4742  0.4865
19401SOL    HW263334   7.201   7.843   3.387 -0.2439  0.6157  0.6462
19402SOL     OW63335   3.810  11.236   5.458 -0.4382  0.5626  0.5010
19402SOL    HW163336   3.766  11.231   5.374 -1.7277  2.8053  1.0104
19402SOL    HW263337   3.809  11.329   5.480  4.1194  0.6562  0.7683
19403SOL     OW63338   2.227   0.611   7.720  0.6103  0.1434  0.5541
19403SOL    HW163339   2.187   0.525   7.736 -1.3641  0.8439 -0.4453
19403SOL    HW263340   2.211   0.660   7.800 -1.3385  0.6979 -0.1472
19404SOL     OW63341   7.902   6.170   4.248  0.0876 -0.8351  0.1634
19404SOL    HW163342   7.834   6.170   4.181 -0.6431  0.6025  0.8706
19404SOL    HW263343   7.893   6.085   4.291 -0.9290 -0.8637 -0.0874
19405SOL     OW63344   6.927  10.031   8.296  0.6433 -0.5411  0.4311
19405SOL    HW163345   6.856  10.012   8.235 -0.0031  1.0754  0.6401
19405SOL    HW263346   6.968  10.110   8.260 -0.0690  0.7384  2.3228
19406SOL     OW63347   9.287   0.958   0.458 -0.2158  0.0282  0.0213
19406SOL    HW163348   9.350   1.012   0.411  0.2745  0.0776  0.7240
19406SOL    HW263349   9.257   1.013   0.531 -1.5280  0.2288 -0.6500
19407SOL     OW63350  11.174   8.472   2.924 -0.4808 -0.3972  0.2497
19407SOL    HW163351  11.169   8.567   2.930 -0.0902 -0.2820 -1.1159
19407SOL    HW263352  11.210   8.455   2.837 -3.5257 -1.8570 -0.8134
19408SOL     OW63353   3.075   1.699   4.845 -0.3183 -0.1154 -0.2893
19408SOL    HW163354   2.983   1.714   4.824 -0.5009  0.7325  1.1032
19408SOL    HW263355   3.086   1.735   4.933  1.1934 -0.7824 -0.1945
19409SOL     OW63356   8.082   1.351  11.096  0.3128  0.2310  0.3816
19409SOL    HW163357   8.017   1.350  11.167 -1.2421  1.2206 -0.9811
19409SOL    HW263358   8.166   1.361  11.140 -0.4521 -1.1404  2.2009
19410SOL     OW63359   0.726   0.961   0.664  0.8714  0.2846  0.1867
19410SOL    HW163360   0.687   0.896   0.723  0.4585  2.2902  2.1858
19410SOL    HW263361   0.730   0.916   0.579  0.6723 -2.3691  1.5079
19411SOL     OW63362   1.058   5.664   8.831  0.5286  0.2688  0.1794
19411SOL    HW163363   1.092   5.654   8.742  2.1666 -2.3112  1.0270
19411SOL    HW263364   0.990   5.597   8.839  1.8479 -0.9826  1.4764
19412SOL     OW63365   4.400   7.271   9.034  0.0670 -0.2660 -0.2893
19412SOL    HW163366   4.314   7.287   8.994  0.3310  0.9578 -0.3880
19412SOL    HW263367   4.461   7.324   8.984  1.3272 -3.0300 -1.7952
19413SOL     OW63368   0.656   5.796   5.464  0.4858 -0.4992  0.0530
19413SOL    HW163369   0.739   5.844   5.474 -0.2652  0.7192  0.6004
19413SOL    HW263370   0.647   5.785   5.370  0.0341  1.6464 -0.1925
19414SOL     OW63371   2.378   4.234   6.049 -0.0674  0.5841 -0.2212
19414SOL    HW163372   2.305   4.181   6.080  0.1341  1.0955  1.2154
19414SOL    HW263373   2.443   4.228   6.120  0.1306  2.3902 -0.2179
19415SOL     OW63374   2.826  10.386   0.781  0.1329  0.0739  0.2611
19415SOL    HW163375   2.875  10.448   0.835  0.3230 -1.5199  1.9454
19415SOL    HW263376   2.760  10.440   0.737 -1.1150  1.1683  3.3584
19416SOL     OW63377   8.037   2.299   1.342  0.8706  0.0444 -0.3689
19416SOL    HW163378   8.098   2.228   1.320  3.0936  1.3761  1.2860
19416SOL    HW263379   8.031   2.350   1.261  1.1710 -0.6639 -0.8454
19417SOL     OW63380   7.327   3.803   2.284 -0.6048  0.3264 -0.4488
19417SOL    HW163381   7.274   3.879   2.308 -0.6670 -0.3587  1.6467
19417SOL    HW263382   7.312   3.740   2.354  1.1166 -0.7995 -1.0651
19418SOL     OW63383   4.907   6.743   1.100  0.3194  0.2658 -0.1565
19418SOL    HW163384   4.999   6.722   1.085  0.4206 -0.0128  0.8610
19418SOL    HW263385   4.907   6.803   1.175 -0.1721  1.8324 -1.3651
19419SOL     OW63386   1.086   4.357   9.950 -0.6499  0.1050 -0.3997
19419SOL    HW163387   1.020   4.416   9.987  0.5976  1.3811 -0.1830
19419SOL    HW263388   1.093   4.287  10.015 -0.7869  0.6851  0.2495
19420SOL     OW63389  10.367  11.165   4.131 -0.3615 -0.0860 -0.5752
19420SOL    HW163390  10.414  11.162   4.047  2.1028  0.5340  0.7340
19420SOL    HW263391  10.434  11.144   4.196 -2.0343  0.3695  1.3321
19421SOL     OW63392   0.655   3.841   8.788  0.4093  0.0821 -0.4796
19421SOL    HW163393   0.586   3.791   8.832 -0.0843  0.2797 -1.0176
19421SOL    HW263394   0.727   3.779   8.777 -0.3637 -0.6386 -1.5369
19422SOL     OW63395   7.408   5.400   3.112  0.0128  0.9080 -0.3018
19422SOL    HW163396   7.342   5.441   3.169 -1.5077 -0.9956 -0.6400
19422SOL    HW263397   7.491   5.416   3.157 -1.1248 -0.3578  2.3826
19423SOL     OW63398   6.289   7.810   4.495  0.1586 -0.2739  0.0481
19423SOL    HW163399   6.339   7.853   4.426 -0.4513 -0.4154 -0.4872
19423SOL    HW263400   6.315   7.854   4.576  0.3858  0.3281 -0.3575
19424SOL     OW63401   6.577   4.924   2.400  0.3268  0.2603 -0.4528
19424SOL    HW163402   6.517   4.955   2.468  0.6311  0.0167 -0.0686
19424SOL    HW263403   6.520   4.902   2.326 -0.2770 -1.8605  0.5888
19425SOL     OW63404   5.666   4.724   1.957 -0.5320  0.4721 -0.6606
19425SOL    HW163405   5.749   4.725   2.005 -1.2701 -1.4102  0.7085
19425SOL    HW263406   5.619   4.800   1.991 -1.2053 -1.0531  1.9773
19426SOL     OW63407  10.089   7.767   4.173  0.1516 -0.3062  0.5737
19426SOL    HW163408  10.085   7.772   4.077 -0.2486  0.0596  0.6097
19426SOL    HW263409  10.136   7.685   4.190  0.7777 -0.0609  0.0582
19427SOL     OW63410   8.410   3.754   4.742 -0.2867  0.2738  0.0954
19427SOL    HW163411   8.333   3.733   4.689 -0.4512  2.2738 -0.5182
19427SOL    HW263412   8.418   3.849   4.735  3.9763 -0.1098 -2.2722
19428SOL     OW63413   1.512   4.344   1.879 -0.1725  0.5344 -0.1402
19428SOL    HW163414   1.606   4.345   1.862 -0.3509  1.2489 -1.1738
19428SOL    HW263415   1.473   4.312   1.797 -0.9548  2.2857 -0.4922
19429SOL     OW63416   3.031   7.106   0.435  0.8021  0.3143 -0.3988
19429SOL    HW163417   3.029   7.067   0.348  0.6951 -1.9307  0.5730
19429SOL    HW263418   3.011   7.199   0.421 -0.9880 -0.3686 -2.5658
19430SOL     OW63419   4.096   6.964   3.331  0.1120 -0.8162 -0.2200
19430SOL    HW163420   4.144   7.047   3.322 -0.1140 -0.7038 -0.3810
19430SOL    HW263421   4.005   6.991   3.342  0.1240 -1.0195  0.3789
19431SOL     OW63422   5.442   2.105   1.457 -0.4990 -0.3964  0.3432
19431SOL    HW163423   5.468   2.197   1.453 -1.2308 -0.1557  0.9753
19431SOL    HW263424   5.498   2.061   1.392  0.0408  0.4429  0.2332
19432SOL     OW63425   7.259   3.420   5.999 -0.2447 -0.1719  0.3311
19432SOL    HW163426   7.323   3.438   6.069 -0.9088  1.1945  0.6169
19432SOL    HW263427   7.181   3.469   6.026 -0.3987  0.6481 -1.5525
19433SOL     OW63428   2.073   0.467   1.428  0.0233 -0.5714 -0.7819
19433SOL    HW163429   1.983   0.477   1.460  0.1476 -0.1766 -0.5423
19433SOL    HW263430   2.067   0.478   1.333  0.3009  3.1576 -0.4664
19434SOL     OW63431   1.778   9.102   8.730  0.3349 -0.5041 -0.2702
19434SOL    HW163432   1.777   9.057   8.814 -0.4622  0.7670  0.4093
19434SOL    HW263433   1.715   9.053   8.676  1.2824 -1.6743 -0.3441
19435SOL     OW63434   2.093   2.104   2.777  0.2091 -0.3459 -0.3817
19435SOL    HW163435   2.043   2.169   2.827  0.1583  0.1246 -1.0434
19435SOL    HW263436   2.046   2.022   2.792 -0.1618 -0.0943 -0.1517
19436SOL     OW63437   2.355  10.145   0.421 -0.4576  0.4148 -0.5040
19436SOL    HW163438   2.350  10.138   0.326 -1.0068 -0.6444 -0.4135
19436SOL    HW263439   2.445  10.120   0.442 -0.5683 -0.1775 -0.7007
19437SOL     OW63440   4.947   4.710   6.164  0.1862 -0.8128 -0.3071
19437SOL    HW163441   4.938   4.627   6.117 -3.0038 -1.5204  1.3700
19437SOL    HW263442   4.872   4.762   6.135  0.0642  0.0241  1.4739
19438SOL     OW63443   1.835   2.873  10.358 -0.5083 -0.1984 -0.5310
19438SOL    HW163444   1.851   2.964  10.333  0.2522 -0.3843 -0.7395
19438SOL    HW263445   1.832   2.825  10.275 -1.3181 -0.3072 -0.4458
19439SOL     OW63446   9.588   5.998   8.929 -0.0574  0.2684 -0.2390
19439SOL    HW163447   9.661   5.990   8.868  0.5281  1.4464  0.3093
19439SOL    HW263448   9.574   6.092   8.939 -1.2837  0.0643  0.1031
19440SOL     OW63449  10.762   8.540   7.017 -0.4803  0.5835 -0.1417
19440SOL    HW163450  10.673   8.577   7.012  0.2319  2.0129 -3.0629
19440SOL    HW263451  10.750   8.447   6.999 -1.4177  0.7055 -0.1957
19441SOL     OW63452   8.960   1.444   5.169  0.6741 -0.0402 -0.1500
19441SOL    HW163453   9.015   1.476   5.242  2.1940 -0.5062 -1.0680
19441SOL    HW263454   8.871   1.467   5.195  1.4051  1.7980  0.8436
19442SOL     OW63455   2.352   4.663   2.226  0.1050  0.2747  0.0182
19442SOL    HW163456   2.423   4.653   2.288  0.7083  0.4313 -0.6341
19442SOL    HW263457   2.394   4.656   2.140 -0.6492  0.4553 -0.3726
19443SOL     OW63458   0.556   7.000   5.575  0.3390 -0.1109  0.0238
19443SOL    HW163459   0.577   6.994   5.481  1.6982  0.9842  0.2374
19443SOL    HW263460   0.641   6.989   5.618 -0.2324 -0.2291  1.1160
19444SOL     OW63461  10.059  10.668   7.833  0.1379 -0.5349 -0.1893
19444SOL    HW163462   9.973  10.668   7.791  0.3777 -1.5615 -0.7026
19444SOL    HW263463  10.065  10.754   7.875 -1.2372 -0.5511  0.0759
19445SOL     OW63464   8.400  10.142   1.123  0.0629 -0.0565 -0.2827
19445SOL    HW163465   8.495  10.139   1.111  0.2330 -0.2466  1.1148
19445SOL    HW263466   8.379  10.063   1.173 -0.9205 -0.3323 -1.1015
19446SOL     OW63467   5.261   5.337   2.334 -0.3488 -0.1706 -0.0477
19446SOL    HW163468   5.202   5.391   2.386  0.4798  0.0199  0.7089
19446SOL    HW263469   5.274   5.258   2.387  0.1135 -0.1962 -0.1974
19447SOL     OW63470   0.028   7.108   7.428 -0.5214 -0.2039 -0.5823
19447SOL    HW163471  -0.053   7.082   7.385 -0.0547 -4.1413  0.7295
19447SOL    HW263472  -0.000   7.143   7.512 -0.8710 -2.0381  0.0833
19448SOL     OW63473   9.063   4.383   6.425  0.2056  0.5041 -0.4470
19448SOL    HW163474   8.976   4.346   6.413  0.2721 -0.4374  1.7579
19448SOL    HW263475   9.049   4.463   6.475  0.4454  1.3188 -1.6681
19449SOL     OW63476   7.705   9.108  10.508 -0.3924 -0.5672  0.4667
19449SOL    HW163477   7.683   9.149  10.591 -0.9856 -0.9691  0.5211
19449SOL    HW263478   7.792   9.141  10.486  0.3630 -1.5182  1.9246
19450SOL     OW63479   3.117   2.364   5.163  0.2576 -0.5447 -0.2519
19450SOL    HW163480   3.160   2.391   5.243 -0.5232 -1.6778  0.5718
19450SOL    HW263481   3.057   2.294   5.190 -2.2206  1.0941 -1.3231
19451SOL     OW63482   7.362   5.485   7.579  0.2934 -0.0540  0.3652
19451SOL    HW163483   7.363   5.410   7.520 -0.4921 -1.6637  2.3096
19451SOL    HW263484   7.429   5.465   7.644  1.0316  1.5969  0.1216
19452SOL     OW63485   6.525   6.115   6.967  0.0081 -0.0102  0.1258
19452SOL    HW163486   6.619   6.123   6.982  0.2234 -1.9193 -0.0731
19452SOL    HW263487   6.506   6.022   6.980 -1.5140  0.0046 -1.7203
19453SOL     OW63488  10.330   2.681   5.090  0.2632 -0.7514 -0.0404
19453SOL    HW163489  10.395   2.709   5.155 -1.0168  0.0851  0.8944
19453SOL    HW263490  10.264   2.634   5.141 -1.6122  1.3466 -0.4474
19454SOL     OW63491   5.709  11.108   4.281  0.0776 -0.6395  0.4209
19454SOL    HW163492   5.653  11.186   4.273  0.4147 -0.3560  0.7917
19454SOL    HW263493   5.793  11.142   4.312  0.6781 -0.9759 -0.8182
19455SOL     OW63494   6.514   8.887   1.889  0.3691  0.0841  0.6182
19455SOL    HW163495   6.449   8.952   1.862 -1.3468 -1.7810  0.1147
19455SOL    HW263496   6.583   8.894   1.823 -1.4280 -0.9456 -1.4517
19456SOL     OW63497   3.918   9.851   8.766 -0.3452  0.2843  0.3027
19456SOL    HW163498   4.005   9.812   8.761 -0.6027 -0.1964 -0.5714
19456SOL    HW263499   3.859   9.777   8.781 -0.9179  0.1962 -2.1320
19457SOL     OW63500   3.228   9.307   3.688  0.3176  0.0838 -0.1987
19457SOL    HW163501   3.220   9.345   3.776 -0.9747  1.4888 -0.9211
19457SOL    HW263502   3.310   9.257   3.692 -1.1638 -2.3286  2.7303
19458SOL     OW63503   8.943   2.301   9.961 -0.6769 -0.9865 -0.1425
19458SOL    HW163504   8.857   2.266   9.984 -2.1997  1.5441 -1.7892
19458SOL    HW263505   8.931   2.396   9.960  1.6540 -0.6665 -2.3029
19459SOL     OW63506   5.900   1.080   7.530 -0.1119 -0.0449 -0.3975
19459SOL    HW163507   5.936   1.096   7.443 -0.7632 -0.8546 -0.8200
19459SOL    HW263508   5.965   1.118   7.590  0.3305  0.5284 -1.2282
19460SOL     OW63509  10.336   1.961  10.909 -0.4327  0.0772 -0.1196
19460SOL    HW163510  10.409   1.992  10.856 -0.8660  1.5959  0.1621
19460SOL    HW263511  10.288   1.902  10.851 -0.4386  1.0761 -1.1472
19461SOL     OW63512   6.466   6.799   2.025  0.0673 -0.3504  0.3710
19461SOL    HW163513   6.502   6.887   2.016 -0.0921  0.0496  3.1276
19461SOL    HW263514   6.372   6.810   2.016 -0.1546  0.1553  2.8078
19462SOL     OW63515  10.627   8.193   9.991 -0.0043  0.2063 -0.2061
19462SOL    HW163516  10.619   8.136   9.914 -0.8856 -0.8825  0.6833
19462SOL    HW263517  10.707   8.163  10.035  0.3333  0.6291 -0.5250
19463SOL     OW63518   5.799  11.206   9.333  0.6866 -0.2163  0.2387
19463SOL    HW163519   5.803  11.113   9.311  0.5263 -0.0693 -0.4328
19463SOL    HW263520   5.726  11.212   9.396  0.4195 -0.4774 -0.0446
19464SOL     OW63521   2.419   6.765   3.699 -0.3506 -0.2274  0.5241
19464SOL    HW163522   2.442   6.688   3.750 -0.5434  2.1932  4.4769
19464SOL    HW263523   2.326   6.756   3.681 -0.2218 -1.2256  0.3290
19465SOL     OW63524   6.816   3.891   4.458  0.6172  0.9722  0.4596
19465SOL    HW163525   6.729   3.893   4.418 -0.4034 -0.3897  2.5745
19465SOL    HW263526   6.854   3.977   4.437 -1.0790  1.4491 -0.7466
19466SOL     OW63527   2.130   5.251   5.546 -0.0278  0.6914 -0.0769
19466SOL    HW163528   2.173   5.332   5.573 -0.6130  1.1954 -0.6351
19466SOL    HW263529   2.059   5.280   5.488 -2.6280  0.0320  2.6769
19467SOL     OW63530   1.852   7.357   6.515  0.1318 -0.2635 -0.8860
19467SOL    HW163531   1.860   7.326   6.425  0.0308 -0.1205 -0.9435
19467SOL    HW263532   1.896   7.442   6.516  2.0974 -1.2537 -0.2919
19468SOL     OW63533   9.237   0.120  11.002 -0.2008 -0.1834 -0.1049
19468SOL    HW163534   9.217   0.134  11.095 -0.3887  2.6725 -0.5312
19468SOL    HW263535   9.215   0.204  10.960 -0.0327 -1.4012 -2.7162
19469SOL     OW63536   8.304   5.727   1.868  0.0560 -1.0605 -0.7801
19469SOL    HW163537   8.344   5.781   1.800 -1.2348  0.3622 -0.4199
19469SOL    HW263538   8.241   5.785   1.912  1.1267 -1.8224  1.8735
19470SOL     OW63539  11.179   9.469   1.289 -0.2623  0.2219  0.4665
19470SOL    HW163540  11.174   9.415   1.209 -0.1322 -1.1811  1.3921
19470SOL    HW263541  11.198   9.406   1.359 -0.4672  1.4385  1.6220
19471SOL     OW63542   6.619   8.127  10.577  0.4703 -0.2590  0.2554
19471SOL    HW163543   6.632   8.055  10.516  0.4194 -0.9337  1.0286
19471SOL    HW263544   6.653   8.094  10.660 -0.3272  0.2927  0.8072
19472SOL     OW63545   7.013   7.386   2.572  0.5395  0.2462  0.2873
19472SOL    HW163546   6.965   7.448   2.627 -0.2570  0.5285 -0.7038
19472SOL    HW263547   7.032   7.312   2.630  1.9965  1.6412  1.6234
19473SOL     OW63548   0.107   7.817   3.436  0.4948  0.0347 -0.7713
19473SOL    HW163549   0.127   7.911   3.435  0.3447  0.1245  1.3309
19473SOL    HW263550   0.190   7.775   3.459  0.3529 -0.2691 -0.8112
19474SOL     OW63551   4.824  10.100   5.929  0.2805 -0.4483 -0.3753
19474SOL    HW163552   4.837  10.131   5.839  4.2568 -1.0960 -0.0989
19474SOL    HW263553   4.740  10.138   5.955  0.7312  2.7346 -3.1386
19475SOL     OW63554   8.878   9.965   2.632 -0.1259  0.6506 -0.2117
19475SOL    HW163555   8.950  10.024   2.651  0.0947 -0.0351  1.1325
19475SOL    HW263556   8.832   9.956   2.716 -0.6351 -0.4298 -0.6004
19476SOL     OW63557   5.526   0.338   1.448 -0.2163  0.3312  0.0092
19476SOL    HW163558   5.538   0.413   1.506 -0.1254 -0.4525  1.0362
19476SOL    HW263559   5.487   0.271   1.504  1.5878 -1.0685 -0.3577
19477SOL     OW63560   6.543   9.931   4.722  0.6601 -0.0357  0.1830
19477SOL    HW163561   6.603   9.989   4.770  0.4081 -0.5377  1.1163
19477SOL    HW263562   6.463   9.983   4.713  0.1416 -0.5198  1.7608
19478SOL     OW63563   0.334   1.413   0.885 -0.6791  0.1046 -0.0049
19478SOL    HW163564   0.252   1.462   0.888 -0.0231  1.1725  0.7179
19478SOL    HW263565   0.401   1.477   0.909  0.1978 -1.1341  0.8941
19479SOL     OW63566   9.325  10.876  11.226 -0.4114 -0.0904 -0.0578
19479SOL    HW163567   9.328  10.879  11.130 -0.8177  0.0641 -0.0678
19479SOL    HW263568   9.369  10.957  11.254 -1.4981  0.5439 -0.1421
19480SOL     OW63569  11.320   0.383   9.040  0.8003  0.3192  0.1156
19480SOL    HW163570  11.274   0.359   9.120  1.2915  1.2333  0.6829
19480SOL    HW263571  11.266   0.453   9.002 -0.4024 -1.3416 -1.3085
19481SOL     OW63572  10.484   3.527   0.206  0.1332  0.1701 -0.1529
19481SOL    HW163573  10.466   3.556   0.117  0.1391  1.8199  0.3841
19481SOL    HW263574  10.579   3.534   0.214  0.1223  0.1211  0.0203
19482SOL     OW63575   6.446   8.644   1.730 -0.6729 -0.0641  0.1441
19482SOL    HW163576   6.494   8.591   1.793 -1.4916 -1.5986 -0.5131
19482SOL    HW263577   6.447   8.733   1.767  2.0474 -0.2084  0.4736
19483SOL     OW63578   2.246   9.647   8.970 -0.3797  0.2956 -0.0059
19483SOL    HW163579   2.176   9.600   9.015 -0.4194  1.2380  0.9459
19483SOL    HW263580   2.204   9.725   8.935  0.2213  0.9748  0.7560
19484SOL     OW63581  10.870   6.056   9.079 -0.1520 -0.5004 -0.0829
19484SOL    HW163582  10.812   5.985   9.107 -1.2779  0.3727 -0.1417
19484SOL    HW263583  10.828   6.135   9.113  0.9519  0.1650 -0.2380
19485SOL     OW63584   8.038   5.512   2.759  0.0842  0.1164  0.4118
19485SOL    HW163585   7.946   5.520   2.786  0.6274  1.4309  1.9159
19485SOL    HW263586   8.079   5.594   2.787  2.4656 -1.7723  2.7498
19486SOL     OW63587   1.690   9.424   9.460 -0.0730 -0.1167 -0.3527
19486SOL    HW163588   1.599   9.410   9.434  0.6481 -0.5611 -2.8030
19486SOL    HW263589   1.712   9.347   9.513 -0.9304 -0.3075 -0.2690
19487SOL     OW63590   1.852   2.150   2.531 -1.0448 -0.0969  0.2534
19487SOL    HW163591   1.939   2.121   2.557 -0.3849  1.7542  0.1578
19487SOL    HW263592   1.794   2.077   2.555  0.2307 -0.4789  2.2936
19488SOL     OW63593   5.827   2.340   1.906  0.0070 -0.2961 -1.0988
19488SOL    HW163594   5.827   2.435   1.896  0.5787 -0.0075  1.4381
19488SOL    HW263595   5.918   2.314   1.892  0.5305 -0.0501  1.6312
19489SOL     OW63596   3.482  10.627   8.319 -0.1129 -0.1408  0.3772
19489SOL    HW163597   3.395  10.588   8.315  0.1442 -0.7831  1.0015
19489SOL    HW263598   3.542  10.555   8.302  0.3633 -0.0309  1.5478
19490SOL     OW63599   2.130  10.731   3.748 -0.3192 -0.3257 -0.5052
19490SOL    HW163600   2.176  10.811   3.720  1.1207 -0.5477  1.1320
19490SOL    HW263601   2.070  10.712   3.676  0.4439  1.3469 -1.6306
19491SOL     OW63602   4.100   0.074   3.316  0.0347 -0.0017  0.2190
19491SOL    HW163603   4.027   0.014   3.306 -0.7645  0.6912  1.6726
19491SOL    HW263604   4.061   0.161   3.308  0.7345  0.3651  0.7414
19492SOL     OW63605   1.006   9.866   4.652 -1.0099  0.3289 -0.5706
19492SOL    HW163606   0.967   9.944   4.613  1.6772  0.6721 -2.7340
19492SOL    HW263607   1.088   9.897   4.691  0.0236 -1.3875 -1.3401
19493SOL     OW63608   7.648   8.821   2.880  0.3014 -0.1730 -0.0770
19493SOL    HW163609   7.696   8.894   2.838  1.4740 -0.0249  1.4614
19493SOL    HW263610   7.565   8.817   2.833  1.6752 -0.2084 -2.6167
19494SOL     OW63611   1.868   5.685   0.565  0.1938 -0.1350 -0.5099
19494SOL    HW163612   1.897   5.719   0.650  0.1551  0.6041 -0.7886
19494SOL    HW263613   1.782   5.647   0.584 -0.0605  0.5206 -0.3248
19495SOL     OW63614   0.087   7.541   2.885 -0.9454  0.5212  0.7330
19495SOL    HW163615   0.080   7.505   2.973  0.9794 -1.7654  0.0050
19495SOL    HW263616   0.165   7.597   2.888 -2.0042  2.0078  0.9764
19496SOL     OW63617   2.269   3.432   7.318 -0.4028 -0.7919 -0.1529
19496SOL    HW163618   2.199   3.458   7.257 -0.8984 -0.8588  0.3869
19496SOL    HW263619   2.345   3.484   7.290 -0.4640 -1.2525 -1.1944
19497SOL     OW63620  11.032   3.131   7.066 -0.3423 -0.2876 -0.1367
19497SOL    HW163621  10.988   3.062   7.116 -2.0328  0.2350 -0.8894
19497SOL    HW263622  11.081   3.180   7.132 -1.2085 -0.6308  0.7810
19498SOL     OW63623  10.689   5.857   6.273  0.0520 -0.8894  0.1575
19498SOL    HW163624  10.720   5.839   6.184  0.3760 -0.9499  0.2841
19498SOL    HW263625  10.594   5.860   6.264  0.0993 -0.5220 -0.2624
19499SOL     OW63626   6.760  11.125   3.133  0.2612 -0.2517  0.3230
19499SOL    HW163627   6.680  11.171   3.156  0.0140  0.7762 -2.3983
19499SOL    HW263628   6.737  11.075   3.054  1.6754 -1.7617  0.8319
19500SOL     OW63629   1.182   4.282   2.651  0.1438  0.5519 -0.2837
19500SOL    HW163630   1.180   4.284   2.556 -1.9235 -1.1312 -0.3202
19500SOL    HW263631   1.093   4.304   2.678 -0.1015 -1.9131  1.1308
19501SOL     OW63632   9.847  10.429   0.768 -0.1225  0.2301  0.0559
19501SOL    HW163633   9.905  10.505   0.768 -0.7003  0.7164 -1.9551
19501SOL    HW263634   9.857  10.391   0.855  1.2188  1.8118  0.6254
19502SOL     OW63635   2.696   9.219   2.027 -0.6278 -0.0103  0.0532
19502SOL    HW163636   2.768   9.246   2.083 -0.0042 -1.6353  0.0695
19502SOL    HW263637   2.628   9.285   2.042  0.3591  0.8077  1.0282
19503SOL     OW63638   2.704   5.178   9.115  0.1884 -0.2324 -0.0672
19503SOL    HW163639   2.683   5.099   9.065 -0.4173  0.4399 -0.9083
19503SOL    HW263640   2.763   5.227   9.058  0.8256 -0.2327  0.5908
19504SOL     OW63641   1.084   1.661   4.116 -0.1960 -0.4876  0.0172
19504SOL    HW163642   1.162   1.686   4.067 -0.9708  2.2066  0.0606
19504SOL    HW263643   1.084   1.718   4.193 -1.8135 -0.9718  0.4087
19505SOL     OW63644   2.137   4.256   9.553  0.5669 -0.1643  0.1292
19505SOL    HW163645   2.111   4.202   9.479  2.5080  0.8724 -1.3419
19505SOL    HW263646   2.070   4.240   9.619 -2.1839  0.1905 -2.4641
19506SOL     OW63647   4.395   5.929   4.842  0.3465  0.1093  0.5483
19506SOL    HW163648   4.369   5.906   4.932  0.6532  0.3475  0.6996
19506SOL    HW263649   4.387   6.024   4.839 -0.2690  0.0408  0.1280
19507SOL     OW63650   4.955   9.743   6.100  0.2929 -0.4305 -0.7030
19507SOL    HW163651   5.002   9.783   6.026 -0.3494  0.0463 -0.8517
19507SOL    HW263652   4.899   9.813   6.134  0.4778 -0.6870  0.1506
19508SOL     OW63653   7.500   1.362   6.573  0.1479  0.1635  0.1039
19508SOL    HW163654   7.565   1.327   6.634  0.5739 -0.9753 -0.9776
19508SOL    HW263655   7.527   1.453   6.559  1.5698 -0.3189 -0.4096
19509SOL     OW63656   2.554   5.417   8.779 -0.1597  0.0452  0.5482
19509SOL    HW163657   2.488   5.399   8.846  2.4359 -2.3104  2.6133
19509SOL    HW263658   2.545   5.344   8.717 -0.7263  0.7509 -0.2176
19510SOL     OW63659   1.513   8.707   2.677 -0.6136  0.4223  0.0571
19510SOL    HW163660   1.525   8.797   2.708  0.5064 -0.2190  1.4999
19510SOL    HW263661   1.503   8.655   2.756  0.4208 -0.9747 -0.7149
19511SOL     OW63662   1.575   0.353  10.756  0.9431  0.1384 -0.2812
19511SOL    HW163663   1.506   0.315  10.701  0.3045  0.2766  0.4184
19511SOL    HW263664   1.578   0.445  10.731  1.6927 -0.1078 -1.1487
19512SOL     OW63665   7.062   2.309   5.277  0.2127 -0.8426 -0.2250
19512SOL    HW163666   6.991   2.343   5.331  0.1546 -0.7312 -0.3711
19512SOL    HW263667   7.020   2.244   5.221 -0.1211  0.4822 -1.5524
19513SOL     OW63668   2.254   8.604   2.526  0.5246  0.1931  0.7164
19513SOL    HW163669   2.170   8.649   2.534  0.8985  1.0474  0.0284
19513SOL    HW263670   2.311   8.646   2.591  1.3237  1.8188 -0.9805
19514SOL     OW63671   5.195   7.050   3.415  0.0214 -0.1566  0.1658
19514SOL    HW163672   5.253   6.985   3.455 -0.6441 -1.6252 -1.1796
19514SOL    HW263673   5.252   7.100   3.357  0.2146 -0.6926 -0.1131
19515SOL     OW63674   8.902   0.911   1.255 -0.4598  0.0145  0.1367
19515SOL    HW163675   8.879   0.999   1.227  1.8967 -0.3152 -3.1324
19515SOL    HW263676   8.838   0.854   1.212 -0.4942 -0.0391  0.2591
19516SOL     OW63677   7.766   7.647   1.215  1.1431  0.4618 -1.0376
19516SOL    HW163678   7.745   7.596   1.293 -0.5589  1.2531 -0.9402
19516SOL    HW263679   7.823   7.717   1.246 -0.2070  1.2630 -0.3350
19517SOL     OW63680   1.585   2.646   0.968 -0.5199  1.1522  0.0521
19517SOL    HW163681   1.649   2.662   0.898 -0.4464  0.0831 -0.1342
19517SOL    HW263682   1.594   2.552   0.987 -1.7876  1.0726  0.2685
19518SOL     OW63683   8.055   2.871   7.155 -0.0709 -0.2314  0.2380
19518SOL    HW163684   8.017   2.907   7.235 -0.4580 -1.9238  0.8445
19518SOL    HW263685   8.142   2.841   7.182  0.3754  0.5397 -0.3348
19519SOL     OW63686   2.026   6.056   4.613  0.0488  0.5833 -0.1903
19519SOL    HW163687   1.933   6.053   4.635  0.0372 -0.6231 -0.4056
19519SOL    HW263688   2.035   6.001   4.535  1.0926 -0.0291  0.3514
19520SOL     OW63689   0.138  10.664   6.819  0.3392 -0.0867  0.1682
19520SOL    HW163690   0.059  10.717   6.810 -0.3078 -1.0609  0.0400
19520SOL    HW263691   0.112  10.577   6.791  0.4575 -1.3109  3.6163
19521SOL     OW63692   0.845   4.656   3.750  0.1908 -0.0285 -1.1104
19521SOL    HW163693   0.846   4.732   3.809 -1.0478 -0.7617 -0.1070
19521SOL    HW263694   0.921   4.668   3.693  0.8023  1.2495 -0.0474
19522SOL     OW63695   4.047  10.367   9.218 -0.1933 -0.0068 -0.5533
19522SOL    HW163696   4.122  10.309   9.232  0.8011  0.6513 -2.9576
19522SOL    HW263697   4.068  10.414   9.137 -2.0828  1.9736  0.0675
19523SOL     OW63698  10.007   4.822   9.722  0.3054 -0.0131  0.2308
19523SOL    HW163699   9.925   4.803   9.768 -0.4790  0.7814 -0.8203
19523SOL    HW263700  10.067   4.752   9.751 -0.1358  0.4804  2.4756
19524SOL     OW63701   3.668   8.558   7.861  0.3530 -0.0551 -0.5130
19524SOL    HW163702   3.686   8.464   7.861  1.8839  0.2173 -0.3321
19524SOL    HW263703   3.747   8.597   7.822  0.0336  1.1969  0.0630
19525SOL     OW63704   9.735   5.318   4.134  0.3389 -0.3220  0.0015
19525SOL    HW163705   9.810   5.316   4.193  1.1176  0.3674 -0.9670
19525SOL    HW263706   9.717   5.225   4.115 -0.2021 -0.5675  1.6625
19526SOL     OW63707   7.665   7.431   0.578  0.3215 -0.3323 -0.0463
19526SOL    HW163708   7.677   7.339   0.603  3.3318  0.0457  0.0370
19526SOL    HW263709   7.693   7.480   0.655 -0.8903  0.6810 -0.2388
19527SOL     OW63710   9.331   8.449   7.996 -0.8561  0.6890  0.8401
19527SOL    HW163711   9.378   8.517   7.948  0.1217 -0.8797 -0.5339
19527SOL    HW263712   9.347   8.468   8.088  3.0070 -0.0698  0.4215
19528SOL     OW63713  10.405   9.554   7.748  0.4102  0.5720  0.1361
19528SOL    HW163714  10.457   9.529   7.825  0.7994  0.1811 -0.2515
19528SOL    HW263715  10.347   9.622   7.780 -0.3686 -0.5317  1.1049
19529SOL     OW63716   9.781  11.138   0.105  0.0150  0.2598  0.1291
19529SOL    HW163717   9.753  11.161   0.193 -0.4463 -0.4670  0.1762
19529SOL    HW263718   9.781  11.042   0.105  0.2240  0.2610 -0.5924
19530SOL     OW63719   4.185   5.227   9.548  0.3041 -0.0378  0.0286
19530SOL    HW163720   4.151   5.208   9.461  0.8851  2.2331 -0.7342
19530SOL    HW263721   4.271   5.266   9.532  1.0520 -0.9571  1.6927
19531SOL     OW63722   2.485   7.510   8.088 -0.4666  0.2386 -0.1220
19531SOL    HW163723   2.578   7.500   8.110 -0.2213  0.6450 -0.9444
19531SOL    HW263724   2.476   7.602   8.064 -1.6288  0.8495  2.4361
19532SOL     OW63725   3.164   5.715  10.301  0.0629 -0.1935 -0.6827
19532SOL    HW163726   3.094   5.655  10.327  1.5739 -2.1117 -0.9389
19532SOL    HW263727   3.118   5.790  10.263 -1.8788 -1.0465 -0.0742
19533SOL     OW63728   7.018   0.661   0.545  0.3559 -0.2188 -0.4713
19533SOL    HW163729   6.969   0.692   0.621 -0.9113 -0.7370 -1.0666
19533SOL    HW263730   7.107   0.692   0.560 -0.6837  2.9956 -0.6772
19534SOL     OW63731   3.892   5.337   2.793  0.3709  0.2176  0.1912
19534SOL    HW163732   3.845   5.367   2.716  3.0387  2.0306 -0.7802
19534SOL    HW263733   3.890   5.412   2.853 -1.5792 -1.1314  1.8633
19535SOL     OW63734   7.849   5.838   8.040  0.6636 -0.3106 -0.0783
19535SOL    HW163735   7.912   5.770   8.065  0.3677 -0.8879 -0.8851
19535SOL    HW263736   7.787   5.840   8.113  0.5727 -1.0381 -0.1238
19536SOL     OW63737  10.665  10.970   7.313 -0.4660 -0.4847 -0.4769
19536SOL    HW163738  10.669  10.946   7.405  2.7077  0.6932 -0.2611
19536SOL    HW263739  10.646  11.064   7.313  0.4860 -0.2824 -0.9770
19537SOL     OW63740  10.799   3.927   0.662 -0.2277  0.1978 -0.7225
19537SOL    HW163741  10.821   3.963   0.748  0.7976 -0.4337 -0.7191
19537SOL    HW263742  10.739   3.855   0.680  1.2680 -0.9938 -0.4082
19538SOL     OW63743   3.577   6.079   1.640 -0.8121  0.0638 -0.5069
19538SOL    HW163744   3.529   5.997   1.650  0.7269 -0.8097 -0.1485
19538SOL    HW263745   3.654   6.056   1.589  0.7102  0.8317  1.3802
19539SOL     OW63746   4.647   5.215   1.498  0.5875  0.3431 -0.3004
19539SOL    HW163747   4.737   5.185   1.499  0.5363 -0.1347 -4.3181
19539SOL    HW263748   4.652   5.310   1.485  0.5156  0.1764 -1.5976
19540SOL     OW63749   4.503   3.958   1.474 -0.7386 -0.3318 -0.4230
19540SOL    HW163750   4.424   3.907   1.456 -1.0002 -0.2174  0.3789
19540SOL    HW263751   4.481   4.009   1.552 -0.1957  0.3954 -0.7389
19541SOL     OW63752   8.203   5.564   0.944 -0.1515  0.1554  0.1578
19541SOL    HW163753   8.172   5.585   1.032  0.6738 -0.6996  0.6695
19541SOL    HW263754   8.235   5.647   0.909  2.6549 -0.0801  1.9577
19542SOL     OW63755   6.207   8.083   7.104 -0.2668 -0.2501 -0.7959
19542SOL    HW163756   6.289   8.065   7.059 -0.6100 -1.6446 -0.9057
19542SOL    HW263757   6.212   8.031   7.184 -0.3048  1.0343  0.0483
19543SOL     OW63758  11.111   0.491   7.037 -0.4907  0.6498 -0.2429
19543SOL    HW163759  11.084   0.468   7.126  2.7807 -0.6561  0.4816
19543SOL    HW263760  11.100   0.411   6.986 -0.7202  0.9056 -0.5987
19544SOL     OW63761   2.337   5.432   0.887  0.9331  0.5215  0.0405
19544SOL    HW163762   2.407   5.470   0.941  1.3856 -1.2890  0.7802
19544SOL    HW263763   2.363   5.451   0.797  2.2379  0.0998  0.3197
19545SOL     OW63764   9.034  10.118   1.130 -0.3860 -0.2137  0.4236
19545SOL    HW163765   9.079  10.158   1.205  1.8273 -2.1661  0.2116
19545SOL    HW263766   9.092  10.136   1.056 -0.4524 -1.8541 -0.0523
19546SOL     OW63767   8.751  10.264   2.658 -0.1019 -0.3569 -0.2454
19546SOL    HW163768   8.767  10.231   2.746 -1.9665  0.6381  0.4917
19546SOL    HW263769   8.818  10.221   2.604  2.5945  0.8003  2.0219
19547SOL     OW63770   8.489   9.526   0.271 -0.4783 -0.8165  0.0575
19547SOL    HW163771   8.415   9.465   0.280 -0.2855 -1.5066 -2.5493
19547SOL    HW263772   8.495   9.541   0.177  0.9664  1.4320  0.4975
19548SOL     OW63773   7.907   2.142   9.780  0.4812 -0.5455  0.4054
19548SOL    HW163774   7.990   2.135   9.732  0.2338  0.2427 -0.1565
19548SOL    HW263775   7.931   2.132   9.872  1.0605 -1.3482  0.1757
19549SOL     OW63776   6.011   1.438   5.670  0.3541  0.5257  0.0992
19549SOL    HW163777   5.964   1.510   5.630  0.3602  0.4255 -0.0923
19549SOL    HW263778   5.990   1.362   5.615 -1.3666 -0.0710  1.5070
19550SOL     OW63779   9.856   6.499   3.140  0.3113  0.3728 -0.1414
19550SOL    HW163780   9.883   6.568   3.201  0.4959  1.3630 -1.3329
19550SOL    HW263781   9.788   6.451   3.187 -0.1559  1.6592  0.5250
19551SOL     OW63782  10.726   8.401   9.702 -0.0317  0.4083 -0.4235
19551SOL    HW163783  10.655   8.341   9.725  1.8346 -1.4684  0.5603
19551SOL    HW263784  10.696   8.444   9.622 -2.3269 -0.2709  0.0431
19552SOL     OW63785   7.012   9.160  10.942 -0.3513  0.3379 -0.0721
19552SOL    HW163786   7.079   9.227  10.927 -0.5153  0.4401 -0.3576
19552SOL    HW263787   6.960   9.161  10.862 -2.0616  1.8070  1.0220
19553SOL     OW63788   9.681   8.365   0.889 -0.1147  0.0054  0.1631
19553SOL    HW163789   9.680   8.422   0.813  0.9290  1.2818  1.0907
19553SOL    HW263790   9.773   8.362   0.916 -0.4521 -0.5575  1.2908
19554SOL     OW63791   7.665   8.301   7.601  0.4395  0.0950  0.0276
19554SOL    HW163792   7.727   8.325   7.670  0.0091 -0.8866  0.7632
19554SOL    HW263793   7.685   8.209   7.582  1.3628  0.6864 -2.0135
19555SOL     OW63794   1.515   8.708   8.560  0.7493 -0.0166  0.0539
19555SOL    HW163795   1.534   8.745   8.474 -0.0519  0.8630  0.2621
19555SOL    HW263796   1.420   8.708   8.567  0.8216  0.4213  1.1619
19556SOL     OW63797   7.954  10.896   1.923 -0.0630 -0.0879 -0.2083
19556SOL    HW163798   8.003  10.897   1.841  1.9665  1.0969  0.9889
19556SOL    HW263799   7.944  10.988   1.946  1.3258 -0.4448  1.9871
19557SOL     OW63800   8.922   9.902   1.604 -0.2753  0.0904  0.2520
19557SOL    HW163801   9.004   9.909   1.653  0.2050  0.8027 -0.6407
19557SOL    HW263802   8.944   9.848   1.528 -0.6123  0.3568 -0.0372
19558SOL     OW63803   5.671   4.626  10.657 -0.4679 -0.5129  0.4384
19558SOL    HW163804   5.736   4.621  10.587 -2.0991 -0.9530 -1.1127
19558SOL    HW263805   5.650   4.719  10.664 -1.2688 -0.6045 -0.6131
19559SOL     OW63806   8.151   8.572   7.692  0.1181  0.0381  0.2403
19559SOL    HW163807   8.124   8.491   7.735  0.7721 -0.2589  0.0836
19559SOL    HW263808   8.246   8.569   7.691  0.1252  0.2854 -0.7661
19560SOL     OW63809   5.048   4.089   2.887 -0.0643  0.4590 -0.1935
19560SOL    HW163810   5.141   4.064   2.892 -0.1965  0.4588  2.5714
19560SOL    HW263811   5.001   4.005   2.889 -0.1592  0.4425 -1.8776
19561SOL     OW63812   1.916   4.068   8.763 -0.4528 -0.8697 -0.7914
19561SOL    HW163813   1.895   3.989   8.713 -1.5490  0.6403 -2.8130
19561SOL    HW263814   2.011   4.076   8.758 -0.5550 -0.6079 -2.9557
19562SOL     OW63815   3.469   6.999  10.391  0.2649  0.4459  0.0826
19562SOL    HW163816   3.404   6.943  10.435 -2.2565  2.3867 -1.0494
19562SOL    HW263817   3.481   7.073  10.450  1.2391  0.2335  0.1542
19563SOL     OW63818   7.472   8.778   2.052  0.1195  0.2068 -0.2156
19563SOL    HW163819   7.534   8.787   1.980  0.3200 -1.2264 -0.2393
19563SOL    HW263820   7.422   8.859   2.051  1.4554  1.0287 -0.7103
19564SOL     OW63821   3.377  11.251   8.028  0.7194 -0.4187 -0.5050
19564SOL    HW163822   3.438  11.274   7.958  0.3722  0.6694 -0.4714
19564SOL    HW263823   3.432  11.236   8.105  0.7972  4.4081  0.5655
19565SOL     OW63824   9.285   3.203   4.295 -0.9216 -0.5351 -0.5074
19565SOL    HW163825   9.287   3.239   4.384  0.8844  0.1670 -0.8185
19565SOL    HW263826   9.228   3.126   4.302 -0.6532 -0.5911  1.2954
19566SOL     OW63827  10.666   8.208   1.762 -0.2683 -0.1624 -0.5102
19566SOL    HW163828  10.625   8.291   1.737 -0.4084  0.1654  0.7689
19566SOL    HW263829  10.722   8.185   1.688 -1.1473  0.4632 -1.3838
19567SOL     OW63830   6.661   0.334   3.614 -0.1793  0.4061  0.3187
19567SOL    HW163831   6.641   0.253   3.661  2.3700  0.4415  1.4927
19567SOL    HW263832   6.662   0.308   3.522 -1.1173 -0.5075  0.5516
19568SOL     OW63833  10.308  10.520   3.410  0.5309 -0.0827 -0.5341
19568SOL    HW163834  10.339  10.469   3.485  0.4804 -1.0286 -1.1494
19568SOL    HW263835  10.216  10.538   3.430  0.3315 -0.9119 -0.6766
19569SOL     OW63836   0.127   7.463  10.623 -0.3217  0.0634  0.2265
19569SOL    HW163837   0.190   7.408  10.670 -0.6636 -0.2891  0.2741
19569SOL    HW263838   0.063   7.401  10.589  0.2915  0.2614 -1.2902
19570SOL     OW63839  10.066   4.816  11.150  0.2265 -0.0991  0.3263
19570SOL    HW163840   9.972   4.801  11.134  0.1093  0.2292  0.7142
19570SOL    HW263841  10.075   4.808  11.245  0.5425  0.1715  0.3159
19571SOL     OW63842  10.124   7.307   3.494  0.1150  0.1977 -0.2343
19571SOL    HW163843  10.086   7.395   3.490  0.4206  0.3059 -1.0232
19571SOL    HW263844  10.112   7.272   3.405 -2.0261 -1.4362  0.6600
19572SOL     OW63845   3.885   2.692   6.963 -0.5659 -0.0435 -0.0257
19572SOL    HW163846   3.953   2.631   6.934 -0.4233  1.2754 -2.6237
19572SOL    HW263847   3.923   2.736   7.038  2.2113  1.9032 -2.4695
19573SOL     OW63848  11.195   8.357   8.804  0.0243 -0.0517 -0.3790
19573SOL    HW163849  11.107   8.358   8.843  0.7010  1.0739  1.1799
19573SOL    HW263850  11.191   8.424   8.736 -0.2756  0.1610 -0.1582
19574SOL     OW63851   3.725   0.172   5.491  0.6882 -0.4361 -0.0324
19574SOL    HW163852   3.732   0.256   5.537  2.3424  0.1260 -1.2721
19574SOL    HW263853   3.632   0.165   5.468  0.4103  0.7231  0.6805
19575SOL     OW63854   6.818  10.787  11.249  0.7856 -0.2999 -0.0431
19575SOL    HW163855   6.892  10.755  11.300  1.6312  2.0841  0.2964
19575SOL    HW263856   6.742  10.772  11.306  1.1927 -1.3091  0.2533
19576SOL     OW63857   4.532   5.543   1.079  0.4308  0.0807  0.2718
19576SOL    HW163858   4.485   5.525   0.998  1.7239 -1.0475 -0.2490
19576SOL    HW263859   4.464   5.563   1.143 -0.7667 -1.8310 -0.3846
19577SOL     OW63860  10.529   0.425   8.881 -0.7150 -0.0021 -0.2236
19577SOL    HW163861  10.560   0.458   8.796  1.8305  0.0985  0.6932
19577SOL    HW263862  10.544   0.331   8.877  2.6393  0.3774  1.3000
19578SOL     OW63863   0.795   3.456   9.296 -0.5272 -0.1432 -0.0439
19578SOL    HW163864   0.706   3.420   9.293 -0.0457 -1.4802  1.1033
19578SOL    HW263865   0.828   3.431   9.382  0.7153  0.9627 -0.1812
19579SOL     OW63866   4.345  10.359  10.737  0.2556  0.2919  0.2514
19579SOL    HW163867   4.409  10.310  10.686 -0.6662  0.8019 -1.4287
19579SOL    HW263868   4.353  10.324  10.826  0.0183 -2.4992 -0.7875
19580SOL     OW63869   7.384   7.058   5.478  0.8396 -0.2055  0.1242
19580SOL    HW163870   7.346   6.982   5.434  0.7966  0.4347 -0.9660
19580SOL    HW263871   7.322   7.129   5.462  0.6626 -0.0335  1.5066
19581SOL     OW63872  10.495   3.918  11.185  0.0002  0.0277 -0.7122
19581SOL    HW163873  10.577   3.921  11.234  0.7509  1.2077 -1.9808
19581SOL    HW263874  10.441   3.986  11.225  0.0877  0.0467 -0.6269
19582SOL     OW63875   2.427   5.615   9.870  0.0112 -0.6480  0.3126
19582SOL    HW163876   2.421   5.544   9.806 -2.9382 -0.4803  0.3012
19582SOL    HW263877   2.401   5.574   9.953 -1.1335  0.2460  0.4094
19583SOL     OW63878   0.674   2.723  11.205  0.9719  0.1039 -0.2728
19583SOL    HW163879   0.611   2.651  11.210 -1.3160  2.1888  3.3744
19583SOL    HW263880   0.753   2.683  11.168 -0.6636 -3.9529  0.3162
19584SOL     OW63881  10.914   7.498   3.269  0.2164 -0.5927 -0.5493
19584SOL    HW163882  10.943   7.410   3.242 -0.2091 -1.7514  2.5541
19584SOL    HW263883  10.823   7.503   3.239  0.1267 -1.3868 -0.4349
19585SOL     OW63884   0.410  10.332   4.290  0.1362 -0.2929 -0.3241
19585SOL    HW163885   0.356  10.312   4.366 -1.0268  1.2042 -0.7408
19585SOL    HW263886   0.404  10.254   4.235 -0.1720 -0.8186  0.4544
19586SOL     OW63887   4.984   0.956  10.397  0.7748  0.1392  0.6931
19586SOL    HW163888   4.980   1.050  10.413 -2.0010  0.8223 -3.3600
19586SOL    HW263889   5.039   0.947  10.319  0.5718 -1.5607  0.7156
19587SOL     OW63890   7.305   4.522   8.240  0.0579  0.2881 -0.0589
19587SOL    HW163891   7.303   4.443   8.295 -1.7177 -0.5294 -1.2482
19587SOL    HW263892   7.388   4.564   8.262  0.5147 -1.3217  1.4344
19588SOL     OW63893   7.984   4.958   9.593 -0.1637 -0.3441  0.0051
19588SOL    HW163894   7.891   4.939   9.582 -0.7787  1.7356  1.3298
19588SOL    HW263895   7.993   5.050   9.569  1.2625 -0.1054  1.3642
19589SOL     OW63896   3.672   4.216   9.584 -0.3466  0.5361 -0.6298
19589SOL    HW163897   3.585   4.237   9.550 -0.2251  0.8311 -0.7642
19589SOL    HW263898   3.699   4.295   9.631  0.1678  0.7379 -1.2480
19590SOL     OW63899   3.709   0.307   9.189  0.1640  0.2987  0.2198
19590SOL    HW163900   3.711   0.226   9.239 -0.6282  0.6909  0.9070
19590SOL    HW263901   3.699   0.279   9.098  0.3908 -0.3868  0.4054
19591SOL     OW63902   7.222   4.421   4.720  0.5223 -0.1291 -0.3202
19591SOL    HW163903   7.270   4.338   4.723  1.3434  0.3399 -0.2508
19591SOL    HW263904   7.202   4.440   4.811 -0.2118 -0.5633 -0.3911
19592SOL     OW63905   0.868   9.460   7.391 -0.1737  0.4117  0.3536
19592SOL    HW163906   0.939   9.523   7.379  0.3014 -0.1593  0.0977
19592SOL    HW263907   0.898   9.403   7.462 -0.8425  0.8052  0.9608
19593SOL     OW63908   9.590   7.706   1.375 -0.2160  0.0835 -0.2324
19593SOL    HW163909   9.572   7.746   1.290 -1.0550 -0.6440 -0.4037
19593SOL    HW263910   9.512   7.654   1.394  0.3506 -0.4866  0.5559
19594SOL     OW63911   6.162   3.701   8.216  0.6626  0.6201 -0.0753
19594SOL    HW163912   6.166   3.661   8.129 -0.8877  0.7536 -0.2231
19594SOL    HW263913   6.177   3.795   8.199 -0.3616  0.7517 -0.2990
19595SOL     OW63914   3.688   3.347   5.688  0.5799  0.2178 -0.2134
19595SOL    HW163915   3.728   3.301   5.614 -1.4783 -0.2319 -1.0841
19595SOL    HW263916   3.759   3.401   5.724  2.1845 -1.2045 -1.1519
19596SOL     OW63917   7.596   6.954   0.192  0.5871  0.3299 -0.4431
19596SOL    HW163918   7.567   7.037   0.228 -0.2032  0.0333 -0.3851
19596SOL    HW263919   7.648   6.914   0.263 -0.4763  0.0056  0.1628
19597SOL     OW63920   0.420   5.931   9.012  0.1377  0.2066  0.2877
19597SOL    HW163921   0.355   5.942   9.082 -0.4673  1.0315 -0.3903
19597SOL    HW263922   0.460   5.846   9.030 -1.0913 -0.2924  0.7646
19598SOL     OW63923   4.628   3.227   6.944  0.0836 -0.6223  0.1359
19598SOL    HW163924   4.587   3.311   6.926 -0.3071 -0.7615  0.3750
19598SOL    HW263925   4.713   3.232   6.900  0.2801  0.0916  0.5968
19599SOL     OW63926   9.059   7.373   6.131 -0.2146 -0.0202  0.0827
19599SOL    HW163927   9.078   7.433   6.059  1.5746  0.4661  0.9269
19599SOL    HW263928   8.964   7.359   6.127 -1.1865  5.0398  1.5669
19600SOL     OW63929   3.384   5.456   9.587  0.1870  0.3268 -0.5080
19600SOL    HW163930   3.408   5.392   9.654  0.4549 -0.9427 -1.8019
19600SOL    HW263931   3.301   5.493   9.617  0.3644 -0.1531  0.5825
19601SOL     OW63932   9.695  11.062   8.641  0.1904  0.2440  0.1680
19601SOL    HW163933   9.637  11.085   8.568 -0.6966  0.5982  0.9892
19601SOL    HW263934   9.751  11.139   8.652 -1.4754  1.2732  1.6273
19602SOL     OW63935   5.650   4.901   2.398 -0.1985 -0.0071  0.2431
19602SOL    HW163936   5.713   4.855   2.342  1.4333  1.1522  1.0666
19602SOL    HW263937   5.650   4.852   2.480  0.9710  0.9898  0.8548
19603SOL     OW63938   4.291   6.509  10.582 -0.4603 -0.0131  0.2717
19603SOL    HW163939   4.217   6.481  10.527 -1.9066  1.3274  1.4754
19603SOL    HW263940   4.282   6.604  10.586  1.9475  0.2767 -0.3780
19604SOL     OW63941   4.710   1.724   4.352  0.2965 -0.3059 -0.6450
19604SOL    HW163942   4.743   1.793   4.410  1.4973 -1.0378 -0.4406
19604SOL    HW263943   4.783   1.705   4.293  0.1756 -1.7893 -0.3378
19605SOL     OW63944   3.165   1.689   2.857 -0.3210 -0.4019  0.2423
19605SOL    HW163945   3.117   1.719   2.935  0.6994  1.2833  0.2557
19605SOL    HW263946   3.244   1.648   2.892  0.8870  1.7115  0.0989
19606SOL     OW63947  10.595   7.059   0.339 -0.2689  0.1297  0.2567
19606SOL    HW163948  10.635   7.142   0.314 -0.1933  0.3876  1.2060
19606SOL    HW263949  10.662   7.014   0.389 -0.7182  0.0074  0.7534
19607SOL     OW63950   0.610   3.217   4.735  0.1457 -0.1758  0.3411
19607SOL    HW163951   0.577   3.243   4.649  1.3852  0.9797  0.1901
19607SOL    HW263952   0.687   3.163   4.716  1.2622  1.2411  0.7017
19608SOL     OW63953   8.858   7.354  11.204  0.0637 -0.3279 -0.4875
19608SOL    HW163954   8.925   7.348  11.272  0.6952  0.0407 -1.0655
19608SOL    HW263955   8.784   7.399  11.246  0.3197 -0.3995  0.0450
19609SOL     OW63956   6.527   6.851   1.119 -0.8011  0.0818  0.4862
19609SOL    HW163957   6.479   6.777   1.156 -0.7545  0.0657  0.5149
19609SOL    HW263958   6.482   6.928   1.153 -0.5547  0.0688  0.8444
19610SOL     OW63959   4.320   3.703   8.899  0.2534 -0.8755  0.2510
19610SOL    HW163960   4.247   3.729   8.954  0.1166 -1.0118  0.1350
19610SOL    HW263961   4.397   3.745   8.939 -0.2571  1.5054 -1.2025
19611SOL     OW63962   5.130   4.333   5.353 -0.0809  0.3809  0.3110
19611SOL    HW163963   5.128   4.249   5.308  0.3878  1.3901 -1.6074
19611SOL    HW263964   5.222   4.352   5.366 -0.1732  0.8781  0.2408
19612SOL     OW63965   1.698   7.298  10.094 -0.7312 -0.7097 -0.4301
19612SOL    HW163966   1.640   7.366  10.061  0.0171 -0.3263 -0.9567
19612SOL    HW263967   1.786   7.327  10.071 -0.1471 -0.2663  2.1501
19613SOL     OW63968   0.463   5.806  10.118  0.3783  0.1239 -0.1040
19613SOL    HW163969   0.493   5.722  10.085  0.9004  0.1475  0.2885
19613SOL    HW263970   0.483   5.803  10.212  0.4663  0.7125 -0.1031
19614SOL     OW63971   6.348   2.102   3.212 -0.3433 -0.4092 -0.1249
19614SOL    HW163972   6.303   2.049   3.278  1.4896 -0.3179  1.2100
19614SOL    HW263973   6.439   2.074   3.217 -0.1181 -0.1265 -2.3705
19615SOL     OW63974   3.895   4.832   4.938  0.3089 -0.2465  0.0269
19615SOL    HW163975   3.986   4.829   4.966  0.9190 -0.2419 -1.9129
19615SOL    HW263976   3.868   4.741   4.933  1.1333 -0.3843 -2.3050
19616SOL     OW63977  10.676   7.674   3.520  0.1826 -0.1541 -0.2772
19616SOL    HW163978  10.589   7.695   3.555 -0.2129  0.3962 -1.5496
19616SOL    HW263979  10.696   7.746   3.460  1.6579 -0.1183  0.2249
19617SOL     OW63980   1.166   5.936   9.785 -0.0819 -0.0707  0.3470
19617SOL    HW163981   1.096   6.000   9.781  0.2056  0.3634  1.9545
19617SOL    HW263982   1.191   5.922   9.694 -0.7560  1.4326 -0.0845
19618SOL     OW63983   2.479   9.866   3.299  0.0720 -0.3978 -0.3273
19618SOL    HW163984   2.496   9.788   3.351  1.7516 -1.3424 -2.2456
19618SOL    HW263985   2.560   9.881   3.249 -0.4719  2.1360 -0.5517
19619SOL     OW63986   9.113   6.232   7.530 -0.2099  0.1218  0.1631
19619SOL    HW163987   9.146   6.143   7.537  2.9361  1.0460 -1.6831
19619SOL    HW263988   9.031   6.223   7.481 -0.6328 -1.8802  1.2104
19620SOL     OW63989   1.998  10.376   9.822  0.1463 -0.0639  0.0353
19620SOL    HW163990   2.061  10.373   9.750 -0.5705 -1.1044 -0.5635
19620SOL    HW263991   2.025  10.451   9.875  0.7563  0.6377 -1.2547
19621SOL     OW63992   1.954   5.039  11.305  0.3245  0.1523  0.7166
19621SOL    HW163993   1.995   5.125  11.294 -1.0427  0.7603  0.2266
19621SOL    HW263994   2.012   4.978  11.259 -0.6141  1.3703 -2.1855
19622SOL     OW63995   8.098   7.406   5.803  0.2480 -0.1923 -0.1847
19622SOL    HW163996   8.116   7.313   5.791  2.6068  0.2482 -0.2694
19622SOL    HW263997   8.026   7.409   5.867  0.1248 -2.0604 -0.2272
19623SOL     OW63998   3.513   7.878   3.170 -0.3596  0.3862  0.2334
19623SOL    HW163999   3.572   7.920   3.233 -0.3069 -0.8319  1.0205
19623SOL    HW264000   3.475   7.951   3.120  1.6470  1.1940 -0.1445
19624SOL     OW64001   0.138   8.071   0.325  0.4008  0.4803 -0.4558
19624SOL    HW164002   0.077   8.111   0.263  0.1709  1.4536  0.3751
19624SOL    HW264003   0.090   7.996   0.361  0.0713  0.6414 -0.5551
19625SOL     OW64004   9.460   6.716   3.380 -0.1301  0.1837 -0.8050
19625SOL    HW164005   9.470   6.716   3.475 -0.5355  0.9865 -0.7499
19625SOL    HW264006   9.397   6.646   3.363 -0.9090  0.7574 -0.3685
19626SOL     OW64007   3.965   5.913   7.261 -0.3869  0.0474  0.1936
19626SOL    HW164008   3.931   5.997   7.293 -1.1768 -0.1576 -0.0938
19626SOL    HW264009   4.026   5.885   7.329  0.6460  1.3357 -0.1785
19627SOL     OW64010   8.703   6.866   3.617  0.1060 -0.2522  0.4476
19627SOL    HW164011   8.761   6.937   3.589 -0.9054  0.7397  0.8059
19627SOL    HW264012   8.657   6.901   3.693 -1.2277 -0.8652 -0.0506
19628SOL     OW64013   8.799   4.512   3.616  0.2041  0.0158  0.2703
19628SOL    HW164014   8.719   4.526   3.564 -1.2203 -3.1915  1.4513
19628SOL    HW264015   8.772   4.530   3.706  1.8526  2.4875  0.3265
19629SOL     OW64016   6.196   5.268   0.082  0.2167  0.1734 -0.3100
19629SOL    HW164017   6.244   5.209   0.140  0.3120 -0.6755 -1.2496
19629SOL    HW264018   6.242   5.351   0.089  0.2072  0.0842  0.8554
19630SOL     OW64019   1.906   4.013   9.944 -0.0276 -0.1436  0.5389
19630SOL    HW164020   1.931   4.066  10.019  0.8758 -0.2979  0.3525
19630SOL    HW264021   1.867   3.934   9.982  1.5191 -0.7701  0.8915
19631SOL     OW64022   5.723  11.294   0.876 -0.4039  0.4847 -0.4695
19631SOL    HW164023   5.629  11.312   0.885 -0.3406  0.1056  1.1144
19631SOL    HW264024   5.761  11.326   0.957  0.6610 -0.5085 -0.5705
19632SOL     OW64025   5.238   1.312   8.539 -0.2007 -0.2389  0.2634
19632SOL    HW164026   5.176   1.239   8.530 -1.1093  0.7136 -1.5548
19632SOL    HW264027   5.205   1.363   8.613 -0.2421 -1.0179  0.7879
19633SOL     OW64028   7.510   1.782   1.070  0.0345 -0.3427 -0.3378
19633SOL    HW164029   7.440   1.840   1.038  0.5052  0.7771  0.6161
19633SOL    HW264030   7.591   1.829   1.050  0.4499 -0.9872 -0.1778
19634SOL     OW64031   4.996   6.222   0.088  0.2985  0.0684  0.2755
19634SOL    HW164032   4.990   6.305   0.041  0.1183  0.5400  1.1249
19634SOL    HW264033   4.913   6.179   0.071 -0.6773  1.2246  1.9840
19635SOL     OW64034   8.902   4.131  11.251  0.3039 -0.0168 -0.2936
19635SOL    HW164035   8.940   4.053  11.209 -0.8408 -0.9169  0.3246
19635SOL    HW264036   8.978   4.186  11.270  1.1428 -1.0037 -0.6910
19636SOL     OW64037   9.709   3.049   1.242 -0.2657 -0.3594  0.3544
19636SOL    HW164038   9.652   3.115   1.280  1.7437  1.5642  0.1108
19636SOL    HW264039   9.743   3.000   1.317  0.7417  0.9914  0.8062
19637SOL     OW64040   0.697   5.150   7.307 -0.0985  0.2439  0.2544
19637SOL    HW164041   0.682   5.191   7.221  1.3636  0.9202  0.2993
19637SOL    HW264042   0.610   5.127   7.338 -0.6080 -0.6510 -1.7283
19638SOL     OW64043   9.463   3.301   4.704  0.2640 -0.2213  0.5423
19638SOL    HW164044   9.534   3.244   4.674 -2.1405 -2.2653 -1.5485
19638SOL    HW264045   9.443   3.270   4.792 -0.0677 -1.7514 -0.0402
19639SOL     OW64046   8.708   6.733   6.469 -0.0433 -0.6080  0.5884
19639SOL    HW164047   8.613   6.729   6.480 -0.5466  0.0680 -2.8020
19639SOL    HW264048   8.734   6.813   6.515 -0.8060 -1.7703  3.1146
19640SOL     OW64049  11.030   0.491  10.582  0.2416  0.0327 -0.0578
19640SOL    HW164050  11.065   0.403  10.570  2.0936  0.5391  1.4121
19640SOL    HW264051  10.968   0.482  10.655 -0.9034 -0.3767 -1.0595
19641SOL     OW64052   7.024   4.366   1.110  0.1732  0.0566  0.2426
19641SOL    HW164053   6.962   4.306   1.153  1.2859 -1.5591 -0.3713
19641SOL    HW264054   7.079   4.398   1.181 -1.2903  1.4429  0.7843
19642SOL     OW64055   5.449  10.469   1.070 -0.7757  0.1362 -0.3257
19642SOL    HW164056   5.417  10.380   1.056 -1.8405  0.4539  0.0365
19642SOL    HW264057   5.517  10.460   1.136 -0.8782 -0.4132 -0.2922
19643SOL     OW64058   2.801   9.812   9.808 -0.3870 -0.0735  0.1699
19643SOL    HW164059   2.857   9.887   9.787 -0.8408  0.2439  0.1025
19643SOL    HW264060   2.712   9.841   9.788 -0.5747 -0.5976  0.2300
19644SOL     OW64061  10.799   4.134   1.536 -0.4698  0.3430 -0.5639
19644SOL    HW164062  10.740   4.077   1.584  0.4029 -1.3812 -1.4900
19644SOL    HW264063  10.742   4.191   1.485 -1.3568  0.5032  0.5867
19645SOL     OW64064   9.236  11.165   3.786  0.0780  0.2278 -0.2491
19645SOL    HW164065   9.314  11.147   3.839  0.4102  1.2514 -0.3627
19645SOL    HW264066   9.269  11.219   3.714 -0.4109 -0.9225 -1.3541
19646SOL     OW64067   8.436   7.728   0.022  0.4866 -0.1498  0.2212
19646SOL    HW164068   8.388   7.809   0.038  1.3233  0.5427 -0.7441
19646SOL    HW264069   8.442   7.721  -0.073  2.0468 -0.3659  0.3186
19647SOL     OW64070   7.808   8.038  11.165 -0.7235 -0.1317 -0.0128
19647SOL    HW164071   7.832   7.957  11.209 -0.0231  0.2856  0.3816
19647SOL    HW264072   7.822   8.107  11.231  1.1582  0.5910 -1.1238
19648SOL     OW64073   3.637   4.858   2.984 -0.5532  0.5093  0.1343
19648SOL    HW164074   3.690   4.924   2.939 -0.5289 -1.4217 -2.8071
19648SOL    HW264075   3.682   4.844   3.067  0.9078  2.2796 -0.3206
19649SOL     OW64076  10.308   1.110   8.281  0.2672  0.0795  0.2587
19649SOL    HW164077  10.221   1.074   8.265 -0.0322  0.3874  1.1507
19649SOL    HW264078  10.299   1.160   8.363  1.0987  0.7114 -0.0229
19650SOL     OW64079   5.687   6.815   5.437 -0.0489 -0.1025 -0.0391
19650SOL    HW164080   5.681   6.766   5.519  1.6571  0.4632  0.4523
19650SOL    HW264081   5.740   6.892   5.459 -1.2762  1.1062 -1.1939
19651SOL     OW64082   8.303   4.140   6.588  0.6213 -0.3869 -0.0753
19651SOL    HW164083   8.363   4.212   6.568 -1.1030  0.2688 -3.3396
19651SOL    HW264084   8.245   4.175   6.655  0.8030  0.6911 -0.4762
19652SOL     OW64085   0.181   5.577   0.339 -0.1796  0.0511 -0.4138
19652SOL    HW164086   0.093   5.595   0.371 -0.2906 -1.0919 -0.0531
19652SOL    HW264087   0.169   5.549   0.249  0.1439  3.3927 -1.5745
19653SOL     OW64088   4.963   1.682   1.642  0.0617  0.2148 -0.5454
19653SOL    HW164089   5.034   1.627   1.675  0.1531  0.8995  0.4106
19653SOL    HW264090   4.998   1.770   1.644 -0.1761  0.3529 -1.8388
19654SOL     OW64091   9.299   4.877   9.401 -0.0600  0.4670  0.1681
19654SOL    HW164092   9.377   4.821   9.402  0.5185  1.2420 -0.3896
19654SOL    HW264093   9.326   4.955   9.450 -0.3122  0.9574 -0.4686
19655SOL     OW64094  10.016  10.069   5.137  0.0663 -0.5766 -0.1710
19655SOL    HW164095  10.005  10.050   5.044 -3.9675  2.4920 -0.4700
19655SOL    HW264096   9.956  10.009   5.181  0.1661 -0.3940  0.2186
19656SOL     OW64097   8.349   0.794   2.496  0.5788  0.0802 -0.1700
19656SOL    HW164098   8.409   0.797   2.570 -0.1150  1.6169  0.3391
19656SOL    HW264099   8.285   0.727   2.520 -0.1794  1.2168  1.0454
19657SOL     OW64100   2.828   6.444   9.919 -0.5533  0.4934 -0.4280
19657SOL    HW164101   2.912   6.455   9.875 -0.0722  0.2143  0.4110
19657SOL    HW264102   2.845   6.465  10.011 -0.9663 -1.3084  0.0904
19658SOL     OW64103   4.963   2.001   5.323 -0.0213  0.2916 -0.0518
19658SOL    HW164104   4.939   2.063   5.254 -0.9508 -0.1123 -0.1027
19658SOL    HW264105   4.881   1.986   5.371  0.1963 -0.9041 -0.0424
19659SOL     OW64106   0.142   3.794  10.573 -0.1744  0.1974  0.1916
19659SOL    HW164107   0.147   3.856  10.646  3.3055 -0.0222  0.2183
19659SOL    HW264108   0.114   3.846  10.498 -2.0138  0.7790  1.2405
19660SOL     OW64109   7.477   1.539   5.907  0.2056  0.4034 -0.3967
19660SOL    HW164110   7.391   1.547   5.864 -0.2852  1.1724  0.7112
19660SOL    HW264111   7.510   1.454   5.878 -0.4941  0.5320 -1.6133
19661SOL     OW64112  10.956   9.596   3.466  0.2400 -0.0387  0.6678
19661SOL    HW164113  10.933   9.504   3.453 -0.8721  0.3569 -0.3193
19661SOL    HW264114  10.874   9.644   3.451  1.3451  1.2997 -1.3837
19662SOL     OW64115   6.117   7.502  10.112 -0.1189  0.0117  0.1145
19662SOL    HW164116   6.063   7.470  10.185 -0.8984  0.5207 -0.2266
19662SOL    HW264117   6.079   7.587  10.091  1.5293  0.8729  0.5892
19663SOL     OW64118   3.423  10.907   3.367 -0.2232  0.2195  0.0622
19663SOL    HW164119   3.406  10.999   3.348  0.5898  0.0817 -1.4003
19663SOL    HW264120   3.337  10.866   3.368 -0.8040  1.3883  2.9995
19664SOL     OW64121   8.635   2.669   2.507 -0.2311  0.4806 -0.2852
19664SOL    HW164122   8.640   2.707   2.595 -0.8465 -0.4200  0.1495
19664SOL    HW264123   8.655   2.742   2.448 -0.9770  1.3671  0.5429
19665SOL     OW64124  11.239   7.382   0.432 -0.8001  0.6236  0.1118
19665SOL    HW164125  11.183   7.311   0.401 -0.5350  0.5822 -0.2749
19665SOL    HW264126  11.216   7.391   0.525  0.9553 -1.6672  0.8164
19666SOL     OW64127   4.605  11.075   0.051  0.1945 -0.3444  0.0638
19666SOL    HW164128   4.596  11.075   0.147 -2.3736  0.7513 -0.1456
19666SOL    HW264129   4.517  11.091   0.019  1.3016  0.8540 -2.4830
19667SOL     OW64130   2.136   2.305   6.832  0.2684 -0.0534 -0.0710
19667SOL    HW164131   2.204   2.262   6.885 -1.3773 -1.6363  0.8140
19667SOL    HW264132   2.105   2.377   6.888  0.4309 -0.0267 -0.0133
19668SOL     OW64133   1.158  10.570   8.515 -0.1501  0.0532  0.0638
19668SOL    HW164134   1.161  10.665   8.509  0.1070 -0.0360 -1.4537
19668SOL    HW264135   1.189  10.550   8.604 -0.8283  1.3998  0.6048
19669SOL     OW64136   1.096   0.777   7.072 -0.4007  0.6808  0.1096
19669SOL    HW164137   1.028   0.787   7.138 -0.7844 -0.0858 -0.1625
19669SOL    HW264138   1.147   0.702   7.102 -0.3018  0.6113 -0.2299
19670SOL     OW64139   3.564   2.499   0.891  0.5469  0.2624 -0.0609
19670SOL    HW164140   3.510   2.422   0.876  1.0799 -0.2845  0.8510
19670SOL    HW264141   3.508   2.573   0.866  0.1121 -0.4254 -1.1210
19671SOL     OW64142   6.041   1.371   1.136 -0.3134 -0.2604  0.1529
19671SOL    HW164143   6.134   1.390   1.123 -0.4881  0.1913 -0.5024
19671SOL    HW264144   6.006   1.366   1.047 -0.9485 -0.2631  0.4036
19672SOL     OW64145   7.840   9.197   3.912  0.0696 -0.1169  0.0023
19672SOL    HW164146   7.766   9.244   3.874 -1.3003 -0.5877  2.0138
19672SOL    HW264147   7.866   9.249   3.987  0.1650 -1.2245  0.7572
19673SOL     OW64148   1.258   2.283   5.847 -0.5186 -0.1993  0.2816
19673SOL    HW164149   1.204   2.228   5.790  0.1168  0.0717 -0.6026
19673SOL    HW264150   1.206   2.294   5.926 -1.8855  0.2501 -0.6421
19674SOL     OW64151   8.588   0.217   9.624 -0.2414 -0.3769  0.0611
19674SOL    HW164152   8.613   0.293   9.676 -4.4493 -0.3483  2.2211
19674SOL    HW264153   8.543   0.254   9.547 -0.2727 -0.6081 -0.0339
19675SOL     OW64154   8.724   7.499   7.700 -0.9425 -0.8345  0.4104
19675SOL    HW164155   8.769   7.439   7.759 -1.9880 -2.4418 -0.3766
19675SOL    HW264156   8.671   7.554   7.757 -0.2917 -0.9435  1.1246
19676SOL     OW64157   9.754   7.529   6.572  0.0360  0.0716 -0.4022
19676SOL    HW164158   9.755   7.528   6.477  1.0447  0.3793 -0.4051
19676SOL    HW264159   9.816   7.461   6.598  1.5709  1.6022  0.0006
19677SOL     OW64160   2.474   2.074   0.499  0.4015  0.0727 -0.3121
19677SOL    HW164161   2.435   1.988   0.481 -0.8302  0.3046  1.1670
19677SOL    HW264162   2.503   2.068   0.590 -0.1853  1.4006 -0.0266
19678SOL     OW64163   7.121   7.594   3.693  0.2257  0.3406 -0.4054
19678SOL    HW164164   7.106   7.571   3.601 -1.5139 -1.1461  0.2079
19678SOL    HW264165   7.152   7.513   3.732 -0.4812  0.5677  0.6266
19679SOL     OW64166   8.196   3.373   5.268 -0.4281 -0.1793  0.0045
19679SOL    HW164167   8.176   3.290   5.311 -0.0532 -0.6234 -0.6643
19679SOL    HW264168   8.113   3.421   5.270 -0.3214 -0.0498  1.5268
19680SOL     OW64169   0.684  11.247   0.071  0.1570 -0.5483 -0.3410
19680SOL    HW164170   0.697  11.304   0.148 -0.8342 -0.5220 -0.1851
19680SOL    HW264171   0.759  11.188   0.072  0.7753  0.2333 -0.0343
19681SOL     OW64172  11.045   1.508   2.876 -0.3745 -0.5289  0.0253
19681SOL    HW164173  11.047   1.600   2.850 -0.1163 -0.0312  1.7832
19681SOL    HW264174  11.035   1.509   2.971  0.0025 -2.3139  0.1089
19682SOL     OW64175   8.476   0.424   4.907  0.1424  0.3928 -0.0757
19682SOL    HW164176   8.485   0.396   4.817 -0.8338  0.8091 -0.3086
19682SOL    HW264177   8.402   0.485   4.906 -1.3885 -1.3583  1.4009
19683SOL     OW64178   2.539  11.269   2.392  0.1520  0.3591  0.3072
19683SOL    HW164179   2.622  11.306   2.420 -0.2049  0.6877  0.9386
19683SOL    HW264180   2.486  11.264   2.472 -1.3060  2.4474 -0.4806
19684SOL     OW64181   4.751   6.539   1.272  0.1737  0.4339  0.0492
19684SOL    HW164182   4.834   6.500   1.301  0.4391  1.2228  0.3548
19684SOL    HW264183   4.775   6.596   1.200 -0.1500  0.4330 -0.0597
19685SOL     OW64184   6.095   4.486   8.132 -0.5498 -0.3577 -0.2912
19685SOL    HW164185   6.064   4.548   8.066 -0.2133  0.3285  0.1782
19685SOL    HW264186   6.184   4.464   8.105  0.2164  1.2526  0.8410
19686SOL     OW64187  10.002   0.964   7.468 -0.7183  0.1513  0.3683
19686SOL    HW164188   9.929   1.020   7.440  0.2256  0.9803 -0.4890
19686SOL    HW264189  10.002   0.891   7.406  0.9031  1.5983 -1.4120
19687SOL     OW64190   5.560   2.086  10.591 -0.0590 -0.4833  0.0916
19687SOL    HW164191   5.585   2.166  10.639 -2.8717  0.1517  0.5836
19687SOL    HW264192   5.633   2.071  10.531  2.1889  0.4019  2.4800
19688SOL     OW64193   9.287   4.851   1.270  0.3836  0.2535  0.1398
19688SOL    HW164194   9.257   4.889   1.187 -1.5265 -2.0949 -0.3034
19688SOL    HW264195   9.239   4.900   1.336  0.4415  0.8245 -0.2314
19689SOL     OW64196   0.760   7.193  11.116 -0.2799 -0.4057  0.3325
19689SOL    HW164197   0.740   7.231  11.031  3.3768  2.7021  0.7655
19689SOL    HW264198   0.718   7.251  11.179 -0.2268 -0.8486  0.7841
19690SOL     OW64199   4.087   1.396  11.139  0.2851  0.0189 -0.5092
19690SOL    HW164200   4.010   1.431  11.095  0.5222  1.2093  0.0039
19690SOL    HW264201   4.159   1.452  11.110  0.5029  0.5964  1.1119
19691SOL     OW64202  11.271   5.539   1.749 -0.0132  0.8535  0.5305
19691SOL    HW164203  11.294   5.463   1.802 -1.5342  0.8662  1.2478
19691SOL    HW264204  11.271   5.612   1.812 -0.3713  1.1230  0.2185
19692SOL     OW64205   1.912  10.730   3.533 -0.8204 -0.5164  0.8593
19692SOL    HW164206   1.899  10.741   3.438 -2.7924 -0.0163  1.1554
19692SOL    HW264207   1.824  10.714   3.567 -0.1657 -0.4107  2.6548
19693SOL     OW64208   9.121   8.529  10.859  0.1915  0.1524 -0.0230
19693SOL    HW164209   9.047   8.536  10.799  0.8885 -1.3741 -1.1108
19693SOL    HW264210   9.174   8.607  10.842  1.0468 -0.8914 -2.3671
19694SOL     OW64211   1.610   2.106   5.428 -0.5049 -0.3419  0.0382
19694SOL    HW164212   1.553   2.120   5.504 -1.1122  0.7724 -0.6050
19694SOL    HW264213   1.558   2.136   5.354  1.0863  1.1071 -0.5107
19695SOL     OW64214   3.535   2.696   8.945 -0.4775  0.7180 -0.2609
19695SOL    HW164215   3.442   2.701   8.968 -0.3002 -0.9284  0.8741
19695SOL    HW264216   3.580   2.684   9.029  0.4221 -2.3347 -1.1177
19696SOL     OW64217   9.694   3.315   6.260  0.0549 -0.0456 -0.4092
19696SOL    HW164218   9.781   3.306   6.220 -0.2575 -0.2555 -1.0528
19696SOL    HW264219   9.654   3.388   6.213 -1.1751 -1.7319 -2.0666
19697SOL     OW64220   7.525   3.819   3.854 -0.1873 -0.0737 -0.2819
19697SOL    HW164221   7.508   3.840   3.762  1.1469 -1.4468 -0.8623
19697SOL    HW264222   7.568   3.733   3.852 -1.8954 -1.0166  1.7644
19698SOL     OW64223   0.130   4.972   7.258 -0.1403  0.0925  0.0135
19698SOL    HW164224   0.136   4.920   7.178 -0.7293 -1.1981  0.7976
19698SOL    HW264225   0.086   4.915   7.321  1.3052  0.6711  1.6027
19699SOL     OW64226   2.104   2.892  10.029  0.1320  0.4646 -0.8388
19699SOL    HW164227   2.161   2.916   9.956  0.3735  0.9431 -0.4959
19699SOL    HW264228   2.070   2.975  10.062  0.3497  0.2878 -0.1490
19700SOL     OW64229   2.549   7.785  10.265 -0.2758 -0.0598 -0.4153
19700SOL    HW164230   2.569   7.812  10.176  0.2934 -0.1057 -0.3042
19700SOL    HW264231   2.559   7.689  10.264  0.7532  0.0388 -0.0503
19701SOL     OW64232   1.016   0.690   2.223  0.2431  0.2933 -0.7428
19701SOL    HW164233   1.004   0.690   2.318  1.1666  1.6014 -0.6251
19701SOL    HW264234   0.937   0.647   2.190  0.4051 -1.1747  0.6670
19702SOL     OW64235   0.685   3.965   9.964 -0.2102 -0.1805  0.5662
19702SOL    HW164236   0.771   3.987   9.928  0.1920 -1.9450  0.4207
19702SOL    HW264237   0.622   4.005   9.904  0.4666 -1.9922 -1.3945
19703SOL     OW64238   4.021   6.037   9.316 -0.2463  0.0527  0.0657
19703SOL    HW164239   4.013   5.970   9.248  3.7323  0.7202 -1.1918
19703SOL    HW264240   4.093   6.006   9.371 -1.0501  1.3344  1.8817
19704SOL     OW64241   0.864   1.126   3.377  0.8969  0.1069 -0.2861
19704SOL    HW164242   0.922   1.056   3.348  0.0042 -0.5968 -0.3812
19704SOL    HW264243   0.857   1.114   3.471  0.1293 -0.3913 -0.4108
19705SOL     OW64244   5.925   3.600   5.034  0.0339  0.2983 -0.3521
19705SOL    HW164245   5.846   3.654   5.032 -0.4215 -0.2940  1.0187
19705SOL    HW264246   5.978   3.638   5.103  0.0497 -0.5128  0.0959
19706SOL     OW64247   1.214   9.526   6.275  0.4304  0.3051  0.0629
19706SOL    HW164248   1.196   9.572   6.193  2.8860  0.8928 -0.1837
19706SOL    HW264249   1.127   9.501   6.308 -0.6032  0.2018 -2.6028
19707SOL     OW64250   1.738   4.706   2.162 -0.3052  0.3479 -0.8474
19707SOL    HW164251   1.809   4.754   2.203 -1.0646 -0.5622  1.6037
19707SOL    HW264252   1.778   4.625   2.131 -0.6185 -1.2300  2.5885
19708SOL     OW64253   3.439   1.339   1.449 -0.3039 -0.0491 -0.3112
19708SOL    HW164254   3.455   1.245   1.443 -1.0713 -0.2371  0.4754
19708SOL    HW264255   3.351   1.346   1.487  0.7919  0.9867  2.1514
19709SOL     OW64256   3.934   1.463  10.588 -0.2276 -0.1687  0.4556
19709SOL    HW164257   4.013   1.460  10.534 -1.1323 -1.6649 -0.8471
19709SOL    HW264258   3.956   1.415  10.667  0.3317 -0.0951  0.3471
19710SOL     OW64259   0.725   9.664   3.780 -0.3304  0.2622 -0.0084
19710SOL    HW164260   0.800   9.723   3.783  0.5280 -0.8182  0.1097
19710SOL    HW264261   0.716   9.632   3.869  1.6161 -2.7147 -0.8163
19711SOL     OW64262   2.508   6.171   0.834 -1.0358  0.2474 -0.1931
19711SOL    HW164263   2.601   6.185   0.852 -1.3870  0.4950  1.5547
19711SOL    HW264264   2.464   6.242   0.882 -2.1791 -0.5341 -0.0785
19712SOL     OW64265   7.977   6.178   5.048  0.0237  0.0545 -0.2490
19712SOL    HW164266   8.014   6.092   5.067 -1.8633 -0.7361 -0.0152
19712SOL    HW264267   7.929   6.202   5.128  0.2621  1.1893 -0.4247
19713SOL     OW64268   3.889   6.975   4.190 -0.1129  0.2606  0.5312
19713SOL    HW164269   3.890   7.043   4.123  0.4191  0.2167  0.4900
19713SOL    HW264270   3.798   6.945   4.194 -0.1232  0.1978 -0.2354
19714SOL     OW64271   6.624  10.820   7.290 -0.1920 -0.6935 -0.2407
19714SOL    HW164272   6.568  10.897   7.281  0.0032 -0.6084 -0.7113
19714SOL    HW264273   6.713  10.854   7.283 -0.1386 -1.2410 -2.6927
19715SOL     OW64274  11.105   6.498   3.443  0.4278 -0.1441 -0.1745
19715SOL    HW164275  11.019   6.537   3.450  0.6249  0.1781  0.4978
19715SOL    HW264276  11.089   6.408   3.413 -0.0635  0.2300 -1.0381
19716SOL     OW64277   8.075  11.229   6.656  0.1406  0.4009 -0.0416
19716SOL    HW164278   8.041  11.181   6.732  0.1218  0.8871  0.2563
19716SOL    HW264279   8.100  11.160   6.595 -2.9080  0.0116 -0.9516
19717SOL     OW64280   4.870   9.463   1.981  0.1559 -0.1328  0.0446
19717SOL    HW164281   4.899   9.538   2.033 -1.1278  0.4353 -0.0531
19717SOL    HW264282   4.791   9.493   1.937  0.4833 -1.0373 -1.2146
19718SOL     OW64283   6.919   6.152  10.500 -0.6459  0.6594  0.2043
19718SOL    HW164284   6.902   6.161  10.594 -0.4347  2.1292  0.1214
19718SOL    HW264285   6.904   6.240  10.465  1.9818  0.7674 -0.7041
19719SOL     OW64286   7.053   5.132   9.756 -0.2654  0.4988  0.3202
19719SOL    HW164287   7.122   5.189   9.791 -0.2952  1.1905 -0.7175
19719SOL    HW264288   6.981   5.191   9.735 -1.1914 -0.2217  1.3870
19720SOL     OW64289   6.583   5.953  11.160 -0.1197 -0.6625  0.3056
19720SOL    HW164290   6.611   5.911  11.079  0.8574  2.7479 -1.2256
19720SOL    HW264291   6.494   5.920  11.175 -1.4511  0.7711 -3.7652
19721SOL     OW64292   8.738  10.778   4.118 -0.3264 -0.1849  0.0189
19721SOL    HW164293   8.759  10.696   4.164  0.5621 -0.4096 -0.7733
19721SOL    HW264294   8.822  10.820   4.103 -0.8448  1.3234  1.2021
19722SOL     OW64295   2.061   7.286   4.179 -0.2593  0.0832 -0.6139
19722SOL    HW164296   2.147   7.326   4.163  0.3311 -0.9194  0.0017
19722SOL    HW264297   2.020   7.343   4.244  0.1740  0.2508 -0.4847
19723SOL     OW64298   8.735   9.031   3.362 -0.9020 -0.2607  0.3410
19723SOL    HW164299   8.779   8.967   3.418 -2.5212 -0.0876  1.8457
19723SOL    HW264300   8.773   9.115   3.386  0.5693 -0.5177 -0.9905
19724SOL     OW64301   7.448   7.943   9.054 -0.7704  0.6774  0.2419
19724SOL    HW164302   7.497   7.938   8.971 -0.6975 -0.8095  0.3551
19724SOL    HW264303   7.514   7.929   9.121 -0.9737  1.0306  0.5171
19725SOL     OW64304   4.774  10.791   3.688  0.0539 -0.4315 -0.0292
19725SOL    HW164305   4.701  10.746   3.645  0.4773  0.4284 -1.6935
19725SOL    HW264306   4.784  10.873   3.638  0.8677  0.3782  1.4218
19726SOL     OW64307   1.250  10.377   7.700 -0.4997  0.4968 -0.0561
19726SOL    HW164308   1.330  10.332   7.726  0.6371  3.7268  2.3714
19726SOL    HW264309   1.279  10.444   7.639 -1.6047  0.6720 -0.4034
19727SOL     OW64310   5.961  10.030   7.839 -0.4634 -0.4155 -0.0403
19727SOL    HW164311   5.946  10.050   7.931  2.1477 -0.8691  0.5023
19727SOL    HW264312   6.054  10.044   7.825 -0.6560 -1.1916 -2.4037
19728SOL     OW64313   5.866   0.891   1.134  0.2126  0.5810  0.1702
19728SOL    HW164314   5.856   0.933   1.220  1.4514  0.5171  0.3571
19728SOL    HW264315   5.795   0.927   1.081  0.0274  1.3528  0.9360
19729SOL     OW64316   1.834   5.208   4.401  0.2819 -0.7165  0.6048
19729SOL    HW164317   1.771   5.278   4.416 -1.6562 -2.3487  0.2622
19729SOL    HW264318   1.808   5.139   4.462  0.3594 -2.2892 -1.1189
19730SOL     OW64319  11.320   8.639   9.744  0.2374 -0.0139 -0.2083
19730SOL    HW164320  11.386   8.634   9.813 -0.2581 -2.7200  0.1310
19730SOL    HW264321  11.366   8.610   9.665  0.5447  2.1635 -0.8627
19731SOL     OW64322   3.810   3.308   2.568  0.2762 -0.2612  0.6895
19731SOL    HW164323   3.730   3.340   2.526  1.3883  1.1121 -0.4341
19731SOL    HW264324   3.878   3.370   2.541  1.2185  0.1273  3.7484
19732SOL     OW64325   0.473   9.763   0.942 -0.1574 -0.8548  0.3804
19732SOL    HW164326   0.377   9.754   0.939 -0.1871 -1.5850  2.4487
19732SOL    HW264327   0.491   9.839   0.887 -2.2410  1.0774  2.2335
19733SOL     OW64328   4.444   3.064   3.815  0.4480 -0.5357 -0.1112
19733SOL    HW164329   4.363   3.108   3.794  1.0568  0.1546 -1.0298
19733SOL    HW264330   4.509   3.134   3.824  0.7036 -0.9803  1.7777
19734SOL     OW64331  10.603   3.225   5.218  0.1004 -0.4904  0.4737
19734SOL    HW164332  10.525   3.272   5.189 -1.7376 -2.7346  1.6935
19734SOL    HW264333  10.623   3.165   5.146  1.2222  0.6354 -0.1842
19735SOL     OW64334   3.785   0.202   9.963 -0.2088 -0.0552  0.1072
19735SOL    HW164335   3.714   0.149   9.928 -0.9416  1.4382 -0.6600
19735SOL    HW264336   3.742   0.267  10.018  0.6441  0.1847  0.4976
19736SOL     OW64337   9.641   8.460   9.432 -0.2033 -0.0009 -0.2708
19736SOL    HW164338   9.642   8.549   9.397 -0.2510  0.6814  1.4236
19736SOL    HW264339   9.720   8.453   9.485 -0.9887 -0.4309  0.8786
19737SOL     OW64340   9.098   9.299   8.808  0.5020 -0.1741  0.2636
19737SOL    HW164341   9.147   9.376   8.836 -0.3834  0.4897 -0.0032
19737SOL    HW264342   9.056   9.325   8.726  0.5124 -1.0696 -0.0392
19738SOL     OW64343   3.301   2.098   0.272 -0.3417  0.4141 -0.0636
19738SOL    HW164344   3.273   2.153   0.345  1.6659  0.4107  0.7259
19738SOL    HW264345   3.226   2.098   0.213 -1.4965  1.5167  1.3552
19739SOL     OW64346   4.811   2.003   3.148  0.1343 -0.0567 -0.3912
19739SOL    HW164347   4.772   2.016   3.234 -0.7727  0.1870 -0.8328
19739SOL    HW264348   4.740   1.966   3.095  0.7907 -0.5495 -0.9345
19740SOL     OW64349  11.158   4.591   1.474  0.0604  0.4494  0.0615
19740SOL    HW164350  11.143   4.609   1.381  0.6068  0.2563 -0.0669
19740SOL    HW264351  11.242   4.546   1.476  0.3784  1.0771  0.7222
19741SOL     OW64352   1.913   8.099  10.433  0.4493  0.3340 -0.5551
19741SOL    HW164353   1.847   8.156  10.472  0.5180  0.0075  0.0436
19741SOL    HW264354   1.865   8.047  10.369 -0.3316 -1.4384  1.4080
19742SOL     OW64355   8.446   4.149   9.251 -0.2168  0.3422  0.2941
19742SOL    HW164356   8.528   4.197   9.251 -0.9346  1.6053  0.8413
19742SOL    HW264357   8.379   4.215   9.232 -1.1576 -0.5572  0.4074
19743SOL     OW64358   0.682   5.510   0.321 -0.7153 -0.6146 -0.1120
19743SOL    HW164359   0.635   5.577   0.271 -1.0947  0.1886  1.2959
19743SOL    HW264360   0.681   5.433   0.264 -2.8057 -0.2857 -0.5678
19744SOL     OW64361   8.863   5.387   3.263 -0.2429  0.5174  0.7987
19744SOL    HW164362   8.820   5.470   3.245  0.3819  0.7650  0.4173
19744SOL    HW264363   8.799   5.321   3.237 -0.0361  0.8804 -0.6841
19745SOL     OW64364   8.537   9.981   3.065 -0.3417  0.1144 -0.0226
19745SOL    HW164365   8.487  10.060   3.048  0.0214  0.3362 -0.0807
19745SOL    HW264366   8.611  10.010   3.118 -1.0283 -0.4412  1.2723
19746SOL     OW64367   2.499   4.485   3.871  0.4331 -0.3099  0.7417
19746SOL    HW164368   2.586   4.458   3.898  0.8746 -2.4289 -2.4777
19746SOL    HW264369   2.504   4.580   3.863  3.5452 -0.6550 -2.7375
19747SOL     OW64370  10.490   0.575   1.733  0.9751  0.2033 -0.1926
19747SOL    HW164371  10.515   0.523   1.810  0.1734 -0.6909 -0.5265
19747SOL    HW264372  10.397   0.594   1.747  1.0673  0.8646 -0.4712
19748SOL     OW64373   6.570   6.460   5.935  0.2901 -0.1594  0.1499
19748SOL    HW164374   6.568   6.482   6.029  0.1020  0.2339  0.0561
19748SOL    HW264375   6.488   6.496   5.901  0.1763 -0.6462 -0.0905
19749SOL     OW64376  11.298  10.592   7.969 -0.3107  0.5867  0.2381
19749SOL    HW164377  11.291  10.575   7.876  0.1897 -0.4931  0.3981
19749SOL    HW264378  11.392  10.605   7.984 -0.3295  0.1912  0.6909
19750SOL     OW64379   2.864  10.044   6.372  0.2658 -0.2225  0.0004
19750SOL    HW164380   2.930  10.112   6.357  0.1265  0.5290  2.5553
19750SOL    HW264381   2.871   9.987   6.296  2.0356  1.3318 -1.0516
19751SOL     OW64382   0.510   8.305   2.829  0.6668  0.9171  0.0101
19751SOL    HW164383   0.492   8.352   2.910  1.4804 -1.2043  1.4527
19751SOL    HW264384   0.424   8.284   2.794  0.3123  1.0550  0.7841
19752SOL     OW64385   8.106   2.541   7.168 -0.5549 -0.2039 -0.3818
19752SOL    HW164386   8.172   2.610   7.176 -1.8947  0.9032  1.4557
19752SOL    HW264387   8.150   2.461   7.196  0.2272  0.3981  0.1060
19753SOL     OW64388   0.463   1.858   2.283  0.0533 -0.0704  0.1368
19753SOL    HW164389   0.536   1.914   2.258  0.9104 -1.5918 -0.8368
19753SOL    HW264390   0.423   1.832   2.199 -1.7374  0.8921  0.6497
19754SOL     OW64391   7.361  10.877   6.318 -0.2270 -0.3414  0.4734
19754SOL    HW164392   7.445  10.832   6.304 -0.1458 -0.2675  0.7192
19754SOL    HW264393   7.381  10.945   6.382 -0.9519 -1.6957  2.1649
19755SOL     OW64394   1.014   7.868   3.361 -0.5655 -0.0039  0.0473
19755SOL    HW164395   1.032   7.889   3.453  0.7156 -0.2256 -0.1349
19755SOL    HW264396   0.998   7.774   3.360 -2.4469  0.3119  0.3104
19756SOL     OW64397   7.695   7.616   6.212 -0.2353 -0.3227 -0.1733
19756SOL    HW164398   7.635   7.551   6.249  2.1046 -1.5606  1.5824
19756SOL    HW264399   7.640   7.692   6.194 -2.0962 -0.9027  2.7234
19757SOL     OW64400   3.213   9.366   1.731  0.0723 -0.3066 -0.2298
19757SOL    HW164401   3.204   9.356   1.637 -0.4907  1.2558 -0.3560
19757SOL    HW264402   3.123   9.375   1.763  0.4256  2.4825  0.0511
19758SOL     OW64403   6.473   5.802   4.751  0.1329  0.1530  0.3772
19758SOL    HW164404   6.566   5.821   4.739 -0.2153  1.3147 -0.5597
19758SOL    HW264405   6.446   5.861   4.822 -0.0307  0.2614  0.2247
19759SOL     OW64406   7.568   3.359   4.841 -0.4485  0.2409  0.3533
19759SOL    HW164407   7.651   3.376   4.795  0.1130 -1.8879  0.5115
19759SOL    HW264408   7.532   3.446   4.857  1.8596  1.2321  0.4716
19760SOL     OW64409  11.016   2.170   4.824 -0.4740  0.0198 -0.0956
19760SOL    HW164410  10.965   2.108   4.876  2.8104 -0.8779  2.1624
19760SOL    HW264411  11.035   2.123   4.743 -1.5734 -0.3086 -0.1819
19761SOL     OW64412   5.359   2.282   4.361  1.0659  0.1706  0.1879
19761SOL    HW164413   5.284   2.239   4.401  2.2418  0.6931  3.0732
19761SOL    HW264414   5.321   2.346   4.301 -0.7657 -0.0517  1.0885
19762SOL     OW64415   1.616   7.388   1.535 -0.2572  0.1445 -0.5281
19762SOL    HW164416   1.553   7.340   1.589 -1.7236 -0.3480 -2.6137
19762SOL    HW264417   1.668   7.319   1.492  0.0217  0.4909 -0.7477
19763SOL     OW64418   5.298   0.579   8.378 -0.4356  0.2243 -0.1805
19763SOL    HW164419   5.285   0.545   8.289  1.6831  2.3985 -1.3808
19763SOL    HW264420   5.235   0.651   8.385  1.9712  2.5381 -1.3850
19764SOL     OW64421   9.128   3.376   2.248  0.8144  0.3117  0.0498
19764SOL    HW164422   9.206   3.427   2.228  2.1792 -1.5546  0.5583
19764SOL    HW264423   9.156   3.285   2.246 -1.4229 -0.4194 -0.0793
19765SOL     OW64424   9.533   7.556   1.887 -0.2902  0.1288  0.0222
19765SOL    HW164425   9.487   7.544   1.803  2.9981 -0.7568 -1.7423
19765SOL    HW264426   9.620   7.587   1.862  1.0554 -1.0342  3.0836
19766SOL     OW64427   5.276   0.376  10.403 -0.1050 -0.5193 -0.4641
19766SOL    HW164428   5.190   0.385  10.360 -0.0958  0.0085 -0.3743
19766SOL    HW264429   5.257   0.328  10.483 -0.6271  1.2569  0.4982
19767SOL     OW64430   4.545   6.121  10.819 -0.5009 -0.6401  0.1659
19767SOL    HW164431   4.499   6.166  10.748 -0.7045 -0.2409  0.5440
19767SOL    HW264432   4.587   6.191  10.869 -0.3882 -0.9123  0.4562
19768SOL     OW64433   2.352   4.294   9.758  0.3274 -0.5807  0.9640
19768SOL    HW164434   2.360   4.336   9.672  0.4336 -1.2111  0.6616
19768SOL    HW264435   2.265   4.321   9.789  0.7188  0.5165  1.1378
19769SOL     OW64436   1.759   7.746   3.255 -0.1205 -0.0277  0.0635
19769SOL    HW164437   1.742   7.754   3.348  0.0073 -0.0229  0.0866
19769SOL    HW264438   1.725   7.827   3.216  1.8041  0.9655  0.3771
19770SOL     OW64439   4.373   0.923   3.359 -0.2974 -0.0097 -0.0636
19770SOL    HW164440   4.295   0.977   3.373 -0.0751  0.7185 -1.4762
19770SOL    HW264441   4.341   0.846   3.311 -0.3157 -0.2145  0.2787
19771SOL     OW64442   5.023   7.343   4.281 -0.5933  0.2837  0.3474
19771SOL    HW164443   5.117   7.362   4.279 -0.6972  0.7995 -1.7548
19771SOL    HW264444   4.982   7.429   4.286 -0.9635  0.2926 -1.9744
19772SOL     OW64445   3.498  10.914   0.583  0.2473  0.2713 -0.6182
19772SOL    HW164446   3.538  10.967   0.652 -0.8667 -1.8103  1.7069
19772SOL    HW264447   3.406  10.940   0.584  0.2241  0.2174 -1.3171
19773SOL     OW64448   8.541   7.912   3.809  0.2823 -0.4324 -0.5778
19773SOL    HW164449   8.523   7.861   3.887 -2.0633 -1.2128 -1.5672
19773SOL    HW264450   8.507   8.000   3.829 -0.7682 -0.7604 -0.8579
19774SOL     OW64451   4.023   7.385   0.112 -0.6278  0.3545  0.3262
19774SOL    HW164452   4.116   7.365   0.122 -0.7655 -0.6427 -0.3523
19774SOL    HW264453   4.017   7.431   0.029 -0.9825 -1.2868 -0.5842
19775SOL     OW64454   6.955   3.012   5.849 -0.2610  0.2243 -0.4002
19775SOL    HW164455   6.945   2.960   5.769 -1.8492  2.1245 -1.4647
19775SOL    HW264456   6.891   2.975   5.909  0.6202 -0.9109 -0.1352
19776SOL     OW64457   9.666   4.814   3.457  0.1179  0.2214 -0.7273
19776SOL    HW164458   9.746   4.842   3.504 -0.9842 -0.4852  1.6365
19776SOL    HW264459   9.677   4.720   3.445  0.1471  0.3137 -1.4017
19777SOL     OW64460   4.022   3.874   6.329  0.1881 -0.0224 -0.6198
19777SOL    HW164461   4.005   3.791   6.374 -0.8688 -0.5145 -1.8951
19777SOL    HW264462   3.987   3.941   6.387 -0.9789 -0.6370 -0.6033
19778SOL     OW64463   8.794   8.222   2.940 -0.1472 -0.3903  0.4789
19778SOL    HW164464   8.713   8.173   2.953 -1.3685  1.6161  0.6694
19778SOL    HW264465   8.767   8.314   2.938  2.1786  0.3571  0.9923
19779SOL     OW64466   3.962   1.246   9.690 -0.0030  0.0811  0.1578
19779SOL    HW164467   3.966   1.229   9.785 -0.2139  0.4924  0.2424
19779SOL    HW264468   3.890   1.309   9.681 -0.4065 -0.4503 -0.3448
19780SOL     OW64469  10.045   1.848   4.853  0.0176 -0.2174  0.0666
19780SOL    HW164470   9.995   1.847   4.935  1.6483  0.2876  1.0956
19780SOL    HW264471  10.137   1.845   4.881  0.5726 -0.9731 -1.7767
19781SOL     OW64472   8.817   3.208   8.013 -0.4036  0.5015  0.7210
19781SOL    HW164473   8.809   3.282   7.953  1.7865  0.8965  0.8708
19781SOL    HW264474   8.836   3.133   7.956 -1.8042  0.2051  0.6387
19782SOL     OW64475   8.848   6.746  10.448 -0.4222  0.4724  0.0653
19782SOL    HW164476   8.876   6.674  10.392 -0.2603 -0.9896  1.9488
19782SOL    HW264477   8.921   6.759  10.509 -0.9194  1.4506  0.4717
19783SOL     OW64478   3.335  10.483   2.094  0.0780  0.6943 -0.7216
19783SOL    HW164479   3.304  10.410   2.040 -1.3674  0.8299 -0.0774
19783SOL    HW264480   3.276  10.555   2.074 -1.8841  0.1238  2.6257
19784SOL     OW64481   5.292   5.655   5.402 -0.1453  0.2394 -0.4986
19784SOL    HW164482   5.364   5.675   5.343 -0.1240 -1.5605 -1.1162
19784SOL    HW264483   5.330   5.598   5.469 -0.5576  0.8726  0.2873
19785SOL     OW64484   8.559   6.736   7.039  0.3071  0.3245  0.1164
19785SOL    HW164485   8.524   6.647   7.034 -0.7073  0.7654 -0.8029
19785SOL    HW264486   8.652   6.726   7.020  0.0661 -0.4548 -0.6966
19786SOL     OW64487   8.176   8.724   5.218 -0.5493  0.7288  0.0185
19786SOL    HW164488   8.095   8.774   5.210 -1.0213  0.1536  1.0512
19786SOL    HW264489   8.218   8.733   5.132 -0.4142  3.2082  0.3301
19787SOL     OW64490   4.698   2.090   4.678  0.3462  0.4194 -0.0710
19787SOL    HW164491   4.791   2.115   4.677  0.4464  0.0916  0.8053
19787SOL    HW264492   4.688   2.035   4.600  1.1413 -0.4060  0.4002
19788SOL     OW64493   4.953   8.815   5.529 -0.1712 -0.1759 -0.4701
19788SOL    HW164494   5.040   8.796   5.565  0.7180  1.0171 -1.9611
19788SOL    HW264495   4.894   8.804   5.604  1.1669 -1.6681  0.4036
19789SOL     OW64496   1.892   2.852  10.722  0.3250  0.4683 -0.1237
19789SOL    HW164497   1.814   2.834  10.671  0.6480  1.2976 -0.9047
19789SOL    HW264498   1.958   2.791  10.687 -1.1636 -3.5379  3.5717
19790SOL     OW64499   5.104   0.095   5.263 -0.2318  0.5040  0.0249
19790SOL    HW164500   5.065   0.082   5.177  1.8203 -1.6380 -0.6230
19790SOL    HW264501   5.049   0.044   5.322 -1.8075  2.1994  0.0723
19791SOL     OW64502   8.872   7.018   5.964 -0.5606 -0.4567 -0.1056
19791SOL    HW164503   8.935   7.031   6.035 -1.2942 -3.1357  1.1085
19791SOL    HW264504   8.787   7.040   6.003 -0.8387 -0.8856 -0.4629
19792SOL     OW64505   4.256   6.432   9.081  0.1223  0.1731  0.2418
19792SOL    HW164506   4.180   6.374   9.067  0.2456  0.4432 -1.7188
19792SOL    HW264507   4.218   6.519   9.093  0.1250  0.6246 -2.5238
19793SOL     OW64508   7.067   8.470   2.113  0.2696 -0.0166 -0.4624
19793SOL    HW164509   7.162   8.475   2.104  0.2655  0.4665 -0.2272
19793SOL    HW264510   7.043   8.549   2.160 -0.2126 -0.3188 -0.1960
19794SOL     OW64511   7.898  10.444   6.445  0.2365 -0.0209  0.1419
19794SOL    HW164512   7.831  10.461   6.511  1.3359  2.4018  0.6724
19794SOL    HW264513   7.940  10.363   6.473 -2.0045 -1.2265  0.1522
19795SOL     OW64514   9.006   1.217   2.552  0.3440 -0.2000 -0.0551
19795SOL    HW164515   8.966   1.302   2.534  2.0847  0.3456 -1.4578
19795SOL    HW264516   9.051   1.229   2.636  0.6545  0.3001 -0.2913
19796SOL     OW64517   2.437   1.568   2.708 -0.3659 -0.5127 -0.3237
19796SOL    HW164518   2.464   1.631   2.774 -1.2414  0.3977 -0.8208
19796SOL    HW264519   2.391   1.620   2.643 -0.7764 -1.6175 -0.9279
19797SOL     OW64520   5.509   8.524   2.459  0.1117 -0.0951 -0.0638
19797SOL    HW164521   5.552   8.603   2.493  0.4580 -0.2071 -0.2409
19797SOL    HW264522   5.581   8.463   2.444 -0.0943 -0.2139 -0.5495
19798SOL     OW64523   8.279   3.732   1.196 -0.3160  0.3322 -0.8562
19798SOL    HW164524   8.205   3.708   1.251 -0.8517 -0.7515 -2.0439
19798SOL    HW264525   8.286   3.827   1.205  1.0078  0.0005  2.8561
19799SOL     OW64526   4.540  10.399   7.795  0.5832  0.1050 -0.4026
19799SOL    HW164527   4.519  10.320   7.745 -3.0084  0.4819  0.3520
19799SOL    HW264528   4.603  10.370   7.861 -1.3660 -2.3574  0.4374
19800SOL     OW64529   4.454   9.054   2.210 -0.5189  0.8370  0.3718
19800SOL    HW164530   4.515   9.016   2.147 -0.6851  0.5508  0.3813
19800SOL    HW264531   4.380   8.994   2.211 -1.4328  1.9026 -0.6994
19801SOL     OW64532  11.086   9.117   0.287  0.0707  0.0793 -0.6422
19801SOL    HW164533  11.152   9.060   0.327  1.7154  1.4962 -1.2771
19801SOL    HW264534  11.053   9.068   0.212 -0.3491 -1.0617  0.2804
19802SOL     OW64535   2.458   4.658   7.726  0.1771 -0.0280 -0.7213
19802SOL    HW164536   2.389   4.592   7.725  1.1808 -1.1070  0.3560
19802SOL    HW264537   2.413   4.739   7.748 -1.0375 -0.3668 -1.8925
19803SOL     OW64538   6.854   2.045   8.853 -0.3044 -0.0156 -0.1758
19803SOL    HW164539   6.795   2.005   8.788 -0.0258 -2.5211  1.0350
19803SOL    HW264540   6.917   2.095   8.801 -0.7124 -1.1321 -1.7774
19804SOL     OW64541   3.066   3.400   0.463  0.2460  0.1693  0.0645
19804SOL    HW164542   3.016   3.478   0.438  0.6767  0.3447 -0.2633
19804SOL    HW264543   3.009   3.354   0.524  1.0921  2.1700  2.4609
19805SOL     OW64544   1.169   7.214   2.040  0.2096  0.3086 -0.5068
19805SOL    HW164545   1.234   7.247   2.103  0.1217 -0.2576 -0.1144
19805SOL    HW264546   1.090   7.202   2.092  0.0753  0.0356 -0.7767
19806SOL     OW64547   6.145   9.047   5.695  0.1298  0.0892 -0.6326
19806SOL    HW164548   6.185   9.018   5.777  0.6675  2.4273 -0.0479
19806SOL    HW264549   6.101   8.969   5.662  0.6831 -1.1389  1.4125
19807SOL     OW64550   7.039   8.750   2.754  0.4459 -0.4487 -0.2167
19807SOL    HW164551   7.058   8.670   2.803  1.0988 -0.7472 -0.9378
19807SOL    HW264552   7.100   8.815   2.788  0.1178 -0.3398  0.1644
19808SOL     OW64553   6.953   8.232   1.247 -0.1015 -0.5131 -0.0970
19808SOL    HW164554   7.042   8.260   1.268 -0.1844  0.4647 -0.9874
19808SOL    HW264555   6.958   8.136   1.243  0.7751 -0.4939  0.4073
19809SOL     OW64556   0.829   8.394   3.284 -0.2705  0.1137  0.3058
19809SOL    HW164557   0.867   8.336   3.349 -0.4529 -2.9985 -2.2230
19809SOL    HW264558   0.751   8.348   3.253 -0.1268  1.4330 -2.1647
19810SOL     OW64559   8.827   8.560   5.223  0.3300  0.1902 -0.6728
19810SOL    HW164560   8.855   8.471   5.200  2.2223  0.6695 -0.2888
19810SOL    HW264561   8.885   8.617   5.173  1.1582  1.2134  1.4088
19811SOL     OW64562   5.853   7.273   9.904 -0.3207 -0.0353  0.3638
19811SOL    HW164563   5.785   7.259   9.838 -0.5431  0.3370  0.5128
19811SOL    HW264564   5.805   7.284   9.986 -0.2219  2.5487  0.1169
19812SOL     OW64565   3.768   8.156  10.122  0.1982  0.7207  0.6105
19812SOL    HW164566   3.694   8.217  10.132 -0.1374  0.2916  0.7656
19812SOL    HW264567   3.746   8.082  10.179  0.0450 -0.0697 -0.4564
19813SOL     OW64568   4.376   8.640   9.578 -0.1800 -0.2304 -0.7320
19813SOL    HW164569   4.333   8.716   9.618  1.7979  1.8358 -2.4367
19813SOL    HW264570   4.442   8.614   9.643 -0.5877 -0.2543 -0.3211
19814SOL     OW64571   2.729   9.777   9.018  0.6731 -0.0068 -0.2113
19814SOL    HW164572   2.639   9.744   9.016  0.9140 -0.6095 -1.8536
19814SOL    HW264573   2.778   9.711   9.067  0.5398 -0.5259 -0.7759
19815SOL     OW64574   9.106   4.148   5.447 -0.1635  0.1786 -0.1733
19815SOL    HW164575   9.179   4.146   5.509 -0.4233  1.0761  0.1598
19815SOL    HW264576   9.035   4.189   5.496 -1.1038 -1.3024 -0.2733
19816SOL     OW64577   1.827   5.339   3.690 -0.3081 -0.4056  0.2039
19816SOL    HW164578   1.876   5.259   3.669 -1.1626 -1.2295  1.2207
19816SOL    HW264579   1.847   5.399   3.619 -0.6325 -1.9661 -1.2340
19817SOL     OW64580   0.983   6.994   2.672 -0.0513  0.1602 -0.1565
19817SOL    HW164581   0.979   6.966   2.580  0.2141 -1.8802  0.4347
19817SOL    HW264582   0.894   6.981   2.705  0.2326 -0.6621  0.3039
19818SOL     OW64583   0.334   0.930   4.806 -0.3954  0.2606  0.0560
19818SOL    HW164584   0.300   0.913   4.894  2.4084  0.3119  1.1960
19818SOL    HW264585   0.371   1.019   4.811 -0.6634  0.4720 -1.3411
19819SOL     OW64586   2.463   3.783   9.460  0.6740 -0.4800  0.4208
19819SOL    HW164587   2.460   3.832   9.378  1.5657 -2.7337 -0.9711
19819SOL    HW264588   2.431   3.846   9.526 -0.2942  1.2594 -1.6526
19820SOL     OW64589   1.012   5.205   2.823 -0.1124 -0.3409 -0.3721
19820SOL    HW164590   0.981   5.291   2.796  0.8561  0.1132 -0.0486
19820SOL    HW264591   0.949   5.177   2.889  0.7335  1.0084  1.0214
19821SOL     OW64592  11.012   8.713   3.714 -0.2742 -0.0147  0.1390
19821SOL    HW164593  10.984   8.727   3.624 -0.0646 -0.5786 -0.0171
19821SOL    HW264594  10.991   8.621   3.732  0.5850 -0.1806  0.3353
19822SOL     OW64595   0.365   3.590   7.449 -0.6213 -0.0576 -0.3174
19822SOL    HW164596   0.404   3.527   7.389  0.1356 -0.2293  0.3424
19822SOL    HW264597   0.322   3.536   7.516 -0.8395  0.1318 -0.3016
19823SOL     OW64598   8.922   5.985   1.253 -0.1358  0.2645 -0.3475
19823SOL    HW164599   8.853   6.044   1.284  1.5320  0.9719  2.1444
19823SOL    HW264600   8.983   5.979   1.326  2.3231 -0.5726 -2.4046
19824SOL     OW64601   2.973   4.816   2.860  0.0920  0.6088 -0.1493
19824SOL    HW164602   2.989   4.721   2.857 -2.7387  0.1337 -1.1970
19824SOL    HW264603   3.020   4.851   2.785  0.9039  0.0038  0.0683
19825SOL     OW64604  10.596   2.627   3.660 -0.6257  0.0685 -0.3268
19825SOL    HW164605  10.504   2.645   3.639 -1.0926 -0.8428  0.8363
19825SOL    HW264606  10.637   2.713   3.666 -1.6961  0.5492  0.3206
19826SOL     OW64607   3.187   6.654   2.176 -0.0276  0.1177 -0.4337
19826SOL    HW164608   3.093   6.645   2.195 -0.4833 -0.0249 -2.5971
19826SOL    HW264609   3.228   6.580   2.220 -1.0260 -0.2072 -0.0321
19827SOL     OW64610   0.368   9.686   3.285 -0.0859  0.1339 -0.1095
19827SOL    HW164611   0.276   9.675   3.311 -0.1063  0.0064 -0.2362
19827SOL    HW264612   0.411   9.605   3.313  0.2706  0.7481  1.1752
19828SOL     OW64613   6.275   3.016   0.286 -0.2509  0.4376  0.2287
19828SOL    HW164614   6.212   3.025   0.357  0.8286  3.3003  0.8746
19828SOL    HW264615   6.342   2.957   0.320 -0.2844  0.9590  1.2059
19829SOL     OW64616   5.452   7.760   7.045 -0.7988 -0.0792 -0.3399
19829SOL    HW164617   5.381   7.797   7.097 -1.1492  1.7247 -2.0405
19829SOL    HW264618   5.530   7.808   7.073 -0.6139 -0.5525 -0.0255
19830SOL     OW64619   7.758   2.060   9.105  0.4419  0.0138 -0.2254
19830SOL    HW164620   7.769   2.063   9.200  0.8039 -1.8649 -0.1972
19830SOL    HW264621   7.688   2.122   9.087  0.6850  0.7286  1.2157
19831SOL     OW64622   5.033  10.434   1.759 -0.0342 -0.3135 -0.6370
19831SOL    HW164623   4.974  10.417   1.832  1.3502 -1.3877  0.2690
19831SOL    HW264624   5.069  10.348   1.738  2.8070  0.5992  0.2537
19832SOL     OW64625   3.182   8.509  10.312 -0.7142 -0.4669  0.8016
19832SOL    HW164626   3.123   8.520  10.238  0.0121  1.3250  0.4610
19832SOL    HW264627   3.168   8.419  10.341 -4.5459  0.2489  1.5088
19833SOL     OW64628   5.570  11.255   8.002 -0.2765 -0.4744 -0.5278
19833SOL    HW164629   5.530  11.277   7.918 -1.2639 -1.6323 -0.3746
19833SOL    HW264630   5.597  11.339   8.039  0.5595  0.0000 -2.1923
19834SOL     OW64631   9.070   3.060   5.744  0.0510  0.0092  0.4174
19834SOL    HW164632   9.012   3.004   5.795 -1.1302 -0.8325 -1.7651
19834SOL    HW264633   9.130   3.099   5.808 -0.5906 -1.9498  2.2383
19835SOL     OW64634   1.530  10.575   4.818  0.4262  0.2854  0.1213
19835SOL    HW164635   1.540  10.523   4.738 -0.1803 -0.1914  0.3502
19835SOL    HW264636   1.488  10.656   4.789 -0.7094 -0.2945  0.0920
19836SOL     OW64637   4.564   1.541   8.293  0.1942  0.0559  0.6529
19836SOL    HW164638   4.634   1.591   8.252  0.6182 -1.5442 -0.6193
19836SOL    HW264639   4.603   1.507   8.374  2.1014 -3.7535 -1.7244
19837SOL     OW64640   8.545   3.938   8.125 -0.2326  0.2681  0.3749
19837SOL    HW164641   8.597   3.867   8.162 -0.3710 -1.4515 -2.5598
19837SOL    HW264642   8.609   4.007   8.107  0.3125 -0.0873  0.9302
19838SOL     OW64643   2.729   3.855   5.075 -0.7298  0.0039 -0.0661
19838SOL    HW164644   2.794   3.812   5.130  2.0898  2.2351 -1.5397
19838SOL    HW264645   2.717   3.941   5.115 -1.5542  0.2230 -0.7706
19839SOL     OW64646  10.773   4.657   1.617 -0.1581 -0.2164 -0.0468
19839SOL    HW164647  10.753   4.751   1.622 -1.0689 -0.3691 -0.5987
19839SOL    HW264648  10.861   4.649   1.653 -0.2049  0.8089  0.3231
19840SOL     OW64649   4.978   4.642  10.076  0.3279 -0.0368 -0.1580
19840SOL    HW164650   5.064   4.607  10.099  0.5904  0.0732 -0.9813
19840SOL    HW264651   4.991   4.737  10.071 -0.3142  0.1714  1.7595
19841SOL     OW64652   8.793  10.172   2.922  0.4889  0.1765 -0.0106
19841SOL    HW164653   8.716  10.207   2.964  0.5920  0.6148 -0.1865
19841SOL    HW264654   8.863  10.182   2.986  0.0938 -1.6101  0.7379
19842SOL     OW64655   1.030   0.416   1.242  0.1243  0.1963  0.5086
19842SOL    HW164656   1.095   0.404   1.173  1.3581  1.7120  1.4100
19842SOL    HW264657   0.973   0.486   1.210  1.1281  1.4010  1.3365
19843SOL     OW64658   9.728   5.868   7.828 -0.1020 -0.1970 -0.7490
19843SOL    HW164659   9.677   5.940   7.790 -0.9064 -1.4827 -2.1275
19843SOL    HW264660   9.815   5.877   7.789 -1.0470 -1.7898 -3.3328
19844SOL     OW64661   9.287   1.024   1.227  0.1652  0.3205 -0.7422
19844SOL    HW164662   9.330   0.945   1.260  2.6386  1.5371 -0.9126
19844SOL    HW264663   9.214   1.039   1.287  0.8078 -1.0117  0.4101
19845SOL     OW64664   5.553   2.679   2.855  0.5349 -0.1166 -0.4994
19845SOL    HW164665   5.576   2.594   2.818  2.5553  1.3404 -2.7303
19845SOL    HW264666   5.474   2.705   2.809  1.1553  0.1742 -1.4192
19846SOL     OW64667   8.425  10.321   6.583 -0.0402 -0.3889 -0.0557
19846SOL    HW164668   8.415  10.403   6.630 -1.2523 -0.2180 -0.6121
19846SOL    HW264669   8.509  10.330   6.537 -0.1602  0.5175 -0.0986
19847SOL     OW64670   5.197   3.029  10.721 -0.1437  0.2078  0.7228
19847SOL    HW164671   5.247   3.104  10.689  1.1792 -0.6377  0.7644
19847SOL    HW264672   5.144   3.001  10.646 -0.4847  1.0369  0.6463
19848SOL     OW64673  11.163  10.016   0.080 -0.0003 -0.3022  0.2169
19848SOL    HW164674  11.200   9.938   0.122  0.3861 -1.6750 -2.5346
19848SOL    HW264675  11.148   9.989  -0.011  2.1847  3.4853 -1.3759
19849SOL     OW64676   5.190   9.073  10.854 -0.0603  0.2489  0.5942
19849SOL    HW164677   5.175   9.139  10.923 -0.0434  2.9300 -1.8904
19849SOL    HW264678   5.108   9.024  10.851 -0.7913  1.3799  1.2010
19850SOL     OW64679   4.808   9.889   0.307  0.0425  0.4435  0.5871
19850SOL    HW164680   4.822   9.909   0.399  1.3799 -1.4962  0.8190
19850SOL    HW264681   4.722   9.848   0.304 -0.3887  1.3084  0.8312
19851SOL     OW64682   1.073   3.664   6.817  0.1599 -0.0256 -0.4628
19851SOL    HW164683   1.092   3.586   6.763 -1.3916 -0.3802 -0.5147
19851SOL    HW264684   1.092   3.738   6.759 -1.0000 -0.4032 -1.3444
19852SOL     OW64685   5.904   3.840   3.058 -0.3784  0.2690  0.0963
19852SOL    HW164686   5.969   3.778   3.091  1.2858  2.5431  1.2746
19852SOL    HW264687   5.895   3.818   2.965  1.0284 -0.9984  0.2397
19853SOL     OW64688   8.416   3.204  11.097  0.3019  0.0485 -0.4386
19853SOL    HW164689   8.411   3.225  11.003 -0.5171 -0.2801 -0.4696
19853SOL    HW264690   8.388   3.113  11.102 -0.4899  0.3320  0.2352
19854SOL     OW64691   4.329   4.309  10.132  0.3302 -0.3922  0.3138
19854SOL    HW164692   4.390   4.345  10.069  0.7566 -3.2382 -1.0067
19854SOL    HW264693   4.242   4.330  10.097  0.5451  1.0723  0.6431
19855SOL     OW64694   4.599   4.151   7.213  0.6075 -0.4240  0.0282
19855SOL    HW164695   4.594   4.234   7.166 -0.1032 -1.1896 -1.2549
19855SOL    HW264696   4.596   4.084   7.145  2.2192 -1.5003  0.9801
19856SOL     OW64697   4.172   2.827   4.607  0.4899 -0.2613 -0.0891
19856SOL    HW164698   4.114   2.884   4.658  1.6152  0.1243  0.7775
19856SOL    HW264699   4.142   2.739   4.627 -0.0644 -0.0521  0.0223
19857SOL     OW64700   0.431   2.716   2.923  0.4889 -0.7573  0.2764
19857SOL    HW164701   0.485   2.793   2.903  0.9460 -1.5348 -1.5787
19857SOL    HW264702   0.365   2.748   2.984 -1.0264  1.7822 -2.5838
19858SOL     OW64703   8.892   3.290   5.951 -0.0370  0.1227 -0.2716
19858SOL    HW164704   8.848   3.237   5.884  0.6075 -0.6493 -0.1000
19858SOL    HW264705   8.981   3.256   5.953 -0.0400  0.1692  0.9506
19859SOL     OW64706   7.103  10.791   4.753 -0.1263 -0.4730 -0.3894
19859SOL    HW164707   7.008  10.781   4.753 -0.0687 -1.1879  0.5408
19859SOL    HW264708   7.132  10.735   4.825  0.8562  1.1247  0.4707
19860SOL     OW64709   3.097   7.322   1.316  0.1346 -0.5403  0.1463
19860SOL    HW164710   3.121   7.230   1.331  2.8735  0.2825  1.0489
19860SOL    HW264711   3.026   7.339   1.378 -0.1219 -1.9339  0.2509
19861SOL     OW64712   4.343   5.939   5.928 -0.0371 -0.5240  0.4155
19861SOL    HW164713   4.347   6.002   6.000  2.3492 -0.2254  0.0600
19861SOL    HW264714   4.269   5.968   5.875  0.9288  1.8749  0.3411
19862SOL     OW64715   1.185  11.149   0.914  0.4476 -0.1529 -0.2568
19862SOL    HW164716   1.190  11.110   0.826  1.0830  1.5821 -0.9958
19862SOL    HW264717   1.120  11.218   0.906 -0.4627 -0.8345  0.9961
19863SOL     OW64718   4.631   7.505   0.997  0.5079  0.2966  0.1188
19863SOL    HW164719   4.617   7.418   1.036  1.0445  0.5119  0.8171
19863SOL    HW264720   4.545   7.545   0.997  0.5244  0.3476  1.2524
19864SOL     OW64721   0.033   1.406   1.668  0.0817 -0.0218 -0.0582
19864SOL    HW164722   0.051   1.371   1.755 -2.0505  1.2128  0.9241
19864SOL    HW264723  -0.017   1.486   1.684 -1.6886 -0.5720 -2.4381
19865SOL     OW64724   4.292  10.387  11.294  0.4709  0.1040  0.1444
19865SOL    HW164725   4.219  10.327  11.315 -0.0820 -0.3914 -2.9550
19865SOL    HW264726   4.249  10.470  11.274  0.9800  0.5705  0.9823
19866SOL     OW64727   7.760   5.731   1.135  0.4512  0.7284 -0.0977
19866SOL    HW164728   7.755   5.730   1.230 -0.3321 -2.3600 -0.1200
19866SOL    HW264729   7.688   5.788   1.108 -0.7851 -0.2357  1.1004
19867SOL     OW64730   2.418   6.267   8.458  0.0561  0.2545  0.1855
19867SOL    HW164731   2.405   6.180   8.496  1.3299 -0.7679 -1.6560
19867SOL    HW264732   2.394   6.258   8.366  2.4667  1.2058 -0.5990
19868SOL     OW64733  10.201   6.218   7.002 -0.3470  0.3557  0.0544
19868SOL    HW164734  10.249   6.249   6.925  2.4575  0.2064  1.6575
19868SOL    HW264735  10.154   6.294   7.034  0.1611  0.9517 -0.5943
19869SOL     OW64736   7.325   5.826  11.067 -0.6619 -0.3718 -0.4006
19869SOL    HW164737   7.333   5.867  10.981  0.3509 -0.4537 -0.3527
19869SOL    HW264738   7.341   5.733  11.050 -0.6535 -0.4136 -0.1522
19870SOL     OW64739   2.317   4.705  10.134 -0.1153  0.1841 -0.5897
19870SOL    HW164740   2.247   4.737  10.191  0.0312  1.0571 -0.8989
19870SOL    HW264741   2.272   4.655  10.066 -0.3581 -0.1112 -0.2131
19871SOL     OW64742  11.273   5.678   9.818  0.6026  0.2755 -0.1360
19871SOL    HW164743  11.291   5.612   9.751  0.9970  0.1207  0.1175
19871SOL    HW264744  11.208   5.736   9.778 -0.8675 -1.1129  0.1730
19872SOL     OW64745   3.637  10.564  10.747 -0.3746 -0.4207  0.3813
19872SOL    HW164746   3.551  10.602  10.730 -0.4497 -1.8210 -2.8843
19872SOL    HW264747   3.619  10.471  10.763  0.5608 -0.8727 -1.0861
19873SOL     OW64748   0.102   3.477  11.152 -0.2614  0.2492 -0.1329
19873SOL    HW164749   0.147   3.558  11.129 -1.1319  1.1301  1.1840
19873SOL    HW264750   0.171   3.418  11.182  0.2416  0.8908 -0.0459
19874SOL     OW64751   8.947   9.420   7.505  0.2748 -0.1497 -0.3690
19874SOL    HW164752   8.938   9.511   7.534  0.3503 -0.1522 -0.3372
19874SOL    HW264753   8.863   9.399   7.466 -0.1025 -0.4047  0.5690
19875SOL     OW64754  11.095   1.660   8.970 -0.0502  0.0272 -0.1904
19875SOL    HW164755  11.172   1.717   8.968 -0.8036  1.1157  0.7916
19875SOL    HW264756  11.029   1.711   9.018 -1.4049 -0.8518 -1.0763
19876SOL     OW64757   7.664   4.461   3.475 -0.2487  0.4011 -0.6113
19876SOL    HW164758   7.743   4.408   3.470 -0.1586  0.5851 -1.1141
19876SOL    HW264759   7.691   4.548   3.447 -0.6321  0.4601 -0.8024
19877SOL     OW64760   0.736   4.439   8.664 -0.5735 -0.2937 -0.0780
19877SOL    HW164761   0.741   4.481   8.750 -2.3704 -1.4390  0.5960
19877SOL    HW264762   0.702   4.352   8.682  0.5664 -1.1212 -1.7877
19878SOL     OW64763  10.267   3.520   0.732  0.5478 -0.3091 -0.3661
19878SOL    HW164764  10.281   3.547   0.641  0.7357 -0.5972 -0.4219
19878SOL    HW264765  10.197   3.578   0.763  1.0060  0.2929 -0.4639
19879SOL     OW64766   4.082   6.158   3.419  0.5813  0.4321 -0.2735
19879SOL    HW164767   4.164   6.208   3.420  0.7239  0.1947 -0.0481
19879SOL    HW264768   4.023   6.208   3.475  0.9261  0.0063  0.4668
19880SOL     OW64769   7.110  10.375   5.718  0.4320  0.5305  0.2936
19880SOL    HW164770   7.024  10.340   5.743  0.7535 -2.0047 -1.9425
19880SOL    HW264771   7.172  10.327   5.773  0.6340 -0.1059 -0.4745
19881SOL     OW64772   1.343   6.967   8.950  0.1112  0.0261 -0.0383
19881SOL    HW164773   1.415   7.011   8.996 -0.7665  0.7688  0.6406
19881SOL    HW264774   1.264   7.009   8.984 -0.5679  0.4279 -2.0739
19882SOL     OW64775   7.146   7.138  10.686 -0.2877 -0.1682  0.0585
19882SOL    HW164776   7.137   7.148  10.591  1.3112 -1.4414 -0.2419
19882SOL    HW264777   7.066   7.093  10.713 -0.3993 -0.4861 -0.7894
19883SOL     OW64778   0.012  10.572   5.401 -0.5137  0.2381 -0.7825
19883SOL    HW164779  -0.036  10.491   5.414 -0.1521 -0.1751 -2.0301
19883SOL    HW264780  -0.010  10.600   5.312 -0.3689  1.3275 -0.4864
19884SOL     OW64781   3.673  10.240  11.095 -0.5552  0.0335 -0.3163
19884SOL    HW164782   3.702  10.257  11.184  2.1524  1.5234 -1.4133
19884SOL    HW264783   3.700  10.150  11.077 -3.6863 -1.3005  1.2745
19885SOL     OW64784   8.001   1.053   0.200 -0.1914  0.1097  0.1263
19885SOL    HW164785   7.983   1.023   0.289  1.5799 -0.8653  0.1836
19885SOL    HW264786   8.047   0.980   0.159  1.0352  1.4077 -0.8691
19886SOL     OW64787  10.231   5.993   4.165  0.1017 -0.3722  0.0979
19886SOL    HW164788  10.278   5.909   4.167  0.4514 -0.1332  2.7268
19886SOL    HW264789  10.263   6.041   4.241 -1.4345  1.4460 -0.3615
19887SOL     OW64790  10.356  10.554  10.160 -0.2088 -0.0579  0.4939
19887SOL    HW164791  10.395  10.640  10.144  0.5022 -0.6100 -0.7784
19887SOL    HW264792  10.366  10.507  10.077 -2.9984 -0.4518  0.3248
19888SOL     OW64793   7.847   4.537   0.343 -0.1636  0.2120  0.4804
19888SOL    HW164794   7.852   4.449   0.307  0.1224 -0.2848  1.7206
19888SOL    HW264795   7.865   4.595   0.268  0.0623 -0.7862 -0.2407
19889SOL     OW64796   6.424   6.852  10.800 -0.5135  0.3552  0.5341
19889SOL    HW164797   6.420   6.820  10.710  1.2766 -1.2879  0.9864
19889SOL    HW264798   6.344   6.903  10.811 -1.8861 -1.3051 -1.2649
19890SOL     OW64799  10.252   5.882   5.738  0.6351 -0.6248  0.1801
19890SOL    HW164800  10.183   5.905   5.800 -0.1607 -0.5630 -0.7126
19890SOL    HW264801  10.285   5.967   5.709 -0.5618 -0.6061 -1.1947
19891SOL     OW64802   2.907  10.730  10.606  0.1012  0.5160 -0.1133
19891SOL    HW164803   2.975  10.787  10.642 -0.9806  1.4046  0.5555
19891SOL    HW264804   2.826  10.780  10.614 -0.2866  0.4557 -3.1884
19892SOL     OW64805   1.318   7.417   1.325  0.2067  0.4723  0.1349
19892SOL    HW164806   1.371   7.353   1.277  0.2879 -0.5085  1.4976
19892SOL    HW264807   1.347   7.408   1.416 -0.8976  1.3410  0.5838
19893SOL     OW64808   3.045   0.047   2.038 -0.2415 -0.7528 -0.3506
19893SOL    HW164809   3.129   0.048   1.992  0.5916 -1.4287  1.1309
19893SOL    HW264810   3.000  -0.030   2.004 -0.8014  0.2821 -2.0476
19894SOL     OW64811   8.566   2.099   3.789 -0.5652 -0.1025  0.1686
19894SOL    HW164812   8.630   2.170   3.787  0.2430 -0.8730 -1.8592
19894SOL    HW264813   8.481   2.143   3.778 -0.0401  0.5354 -1.4663
19895SOL     OW64814   7.144   5.963   7.538  0.2796 -0.6840  0.4466
19895SOL    HW164815   7.208   5.902   7.502 -2.1197 -2.8489 -0.2383
19895SOL    HW264816   7.172   5.977   7.629  2.9812  0.2044 -0.4752
19896SOL     OW64817   1.719   8.714   7.643 -0.0172 -0.0734 -0.0585
19896SOL    HW164818   1.663   8.790   7.626 -1.5597 -0.8939  1.1408
19896SOL    HW264819   1.804   8.750   7.666 -0.6507  1.2763  0.1681
19897SOL     OW64820  10.149   0.340   5.713  0.0409  0.2849 -0.0916
19897SOL    HW164821  10.148   0.380   5.800 -0.2438 -0.9384  0.4710
19897SOL    HW264822  10.134   0.413   5.653  1.2528  1.3029  0.8150
19898SOL     OW64823   4.047   9.589  10.506  0.2680  0.5902 -0.7552
19898SOL    HW164824   4.000   9.649  10.448 -1.5569  1.2245  1.3158
19898SOL    HW264825   4.111   9.645  10.550  2.0992 -0.0124 -2.5673
19899SOL     OW64826  10.833   0.281   8.809  0.2414 -0.2378  0.2212
19899SOL    HW164827  10.806   0.300   8.720 -0.4806  1.9059  0.8691
19899SOL    HW264828  10.806   0.190   8.823  0.9026 -0.7831 -1.9147
19900SOL     OW64829   3.959   3.012   6.949  0.0654 -0.0458 -0.8247
19900SOL    HW164830   3.951   2.968   7.034  1.7425 -0.9360 -1.0985
19900SOL    HW264831   3.874   3.053   6.935 -0.0979  0.4987  1.5018
19901SOL     OW64832  11.011   2.987  10.210  0.0082  0.2750 -0.0497
19901SOL    HW164833  10.978   3.021  10.127 -0.9926 -1.9096 -0.5619
19901SOL    HW264834  10.965   3.037  10.277 -0.5648  0.7433 -0.7935
19902SOL     OW64835   8.483   1.177   6.672 -0.3446 -0.0814  0.7469
19902SOL    HW164836   8.449   1.172   6.761 -1.5705  0.0757  0.2989
19902SOL    HW264837   8.483   1.086   6.641 -0.0459 -0.1203  0.8634
19903SOL     OW64838   6.808   2.530  10.822  0.2618  0.6271  0.0890
19903SOL    HW164839   6.866   2.550  10.748  0.1988  0.0327 -0.1248
19903SOL    HW264840   6.730   2.582  10.805  0.4066  0.8012 -0.0547
19904SOL     OW64841   7.487  10.406   1.626 -0.0928 -0.5801  0.2512
19904SOL    HW164842   7.524  10.449   1.703  2.6315 -0.6718 -0.9442
19904SOL    HW264843   7.561  10.363   1.584 -1.4913 -0.4946 -2.4463
19905SOL     OW64844  10.796   5.867   1.507  0.1921  0.2268 -0.0761
19905SOL    HW164845  10.782   5.933   1.575  0.9382 -0.2438  0.5385
19905SOL    HW264846  10.745   5.792   1.536  1.6090 -0.4643  0.6880
19906SOL     OW64847   7.569   6.414   0.671  0.0919  0.5982 -0.1143
19906SOL    HW164848   7.481   6.449   0.684  0.5503  0.7962  2.6482
19906SOL    HW264849   7.562   6.321   0.695  0.2502  0.1871 -1.6063
19907SOL     OW64850   0.183   6.577   4.657  0.7849 -0.3088 -0.1463
19907SOL    HW164851   0.092   6.549   4.672  0.5603  1.1424  1.2916
19907SOL    HW264852   0.179   6.672   4.657  2.0248 -0.2363 -2.0322
19908SOL     OW64853  10.862   8.781   6.225  0.4743 -0.4061 -0.6316
19908SOL    HW164854  10.904   8.855   6.268 -0.9012  1.9709 -3.2046
19908SOL    HW264855  10.772   8.781   6.259  0.9826 -2.1418  0.8038
19909SOL     OW64856   9.245  10.420   2.343 -0.2906 -0.4183 -0.9744
19909SOL    HW164857   9.295  10.475   2.403 -0.6899 -0.5424 -0.5265
19909SOL    HW264858   9.238  10.472   2.263  0.5460 -0.3974 -1.0415
19910SOL     OW64859   4.203   2.531   8.645 -0.2887 -0.2209 -0.3689
19910SOL    HW164860   4.246   2.470   8.705 -1.8437  0.8912  1.9570
19910SOL    HW264861   4.269   2.598   8.626  0.1886 -0.5450  0.1534
19911SOL     OW64862   5.944   2.834   0.021 -0.3125 -0.2307  0.2772
19911SOL    HW164863   5.921   2.779   0.096 -1.3092  0.5825  0.5768
19911SOL    HW264864   6.018   2.887   0.050  0.3968 -1.1234  0.1182
19912SOL     OW64865   3.903   0.230   7.303  0.6511  0.6363 -0.4708
19912SOL    HW164866   3.906   0.166   7.375 -0.1782  1.6931  0.5284
19912SOL    HW264867   3.876   0.179   7.227  0.1027 -0.2332  0.2924
19913SOL     OW64868   3.541   7.959   1.146 -0.2047  0.5247 -0.4164
19913SOL    HW164869   3.622   7.921   1.110 -0.3083 -0.3144  0.2126
19913SOL    HW264870   3.540   8.049   1.113  2.8257  1.7338  2.3750
19914SOL     OW64871   8.725   7.002   0.420  0.1736  0.2056 -0.4341
19914SOL    HW164872   8.681   6.936   0.473 -0.1171 -0.0016 -0.9297
19914SOL    HW264873   8.712   6.972   0.330 -0.5938  1.3335 -0.6969
19915SOL     OW64874   9.306   4.978   6.181 -0.6677 -0.0682 -0.1016
19915SOL    HW164875   9.301   4.893   6.138  0.1092 -0.4101  0.4725
19915SOL    HW264876   9.309   4.957   6.274 -1.6798  0.6396  0.1031
19916SOL     OW64877   8.379  10.380  10.636 -0.2939  0.0604 -0.0553
19916SOL    HW164878   8.312  10.361  10.571  2.3470 -1.1587 -2.5364
19916SOL    HW264879   8.413  10.294  10.661  0.8401  0.6844  0.6160
19917SOL     OW64880   2.024   9.960   8.053  0.0060 -0.2674  0.1136
19917SOL    HW164881   2.018   9.949   7.958 -1.6197 -1.7253  0.3312
19917SOL    HW264882   1.948  10.014   8.075 -0.8288 -1.6482  0.7638
19918SOL     OW64883   1.421  10.936   6.363 -1.0051 -0.1120 -0.3256
19918SOL    HW164884   1.343  10.991   6.371 -1.1877 -0.4283  0.1105
19918SOL    HW264885   1.389  10.854   6.328 -0.7245  0.0700 -1.0180
19919SOL     OW64886   0.198   8.068   3.464  0.7792 -0.4171 -0.2138
19919SOL    HW164887   0.210   8.127   3.538  2.1183  0.1554 -0.8597
19919SOL    HW264888   0.135   8.112   3.407  0.7551 -0.2325 -0.0431
19920SOL     OW64889  10.723  10.665   9.372  0.1929 -0.2349  0.6449
19920SOL    HW164890  10.721  10.755   9.404  0.0700  0.1457 -0.4230
19920SOL    HW264891  10.722  10.673   9.276 -1.6214 -1.4020  0.5454
19921SOL     OW64892   7.770   8.688   0.983 -0.2091 -0.4311 -0.3623
19921SOL    HW164893   7.699   8.635   0.948  0.2894 -0.9882 -0.5492
19921SOL    HW264894   7.745   8.705   1.073 -1.8392  1.5975 -1.1663
19922SOL     OW64895   4.539   6.138   7.274  0.7786  0.3122 -0.4735
19922SOL    HW164896   4.579   6.067   7.323  0.9308  1.5243  1.1712
19922SOL    HW264897   4.462   6.097   7.232  1.1711 -0.9339 -0.0014
19923SOL     OW64898  11.305   0.292   1.689  0.0038  0.1119  0.6357
19923SOL    HW164899  11.219   0.333   1.683  0.1733  0.5854  1.4248
19923SOL    HW264900  11.323   0.287   1.783  0.9369  0.2324  0.4681
19924SOL     OW64901   1.681   5.455   6.769  0.1009  0.4599 -0.3360
19924SOL    HW164902   1.718   5.535   6.806  0.5777  0.1152 -0.0558
19924SOL    HW264903   1.645   5.408   6.844 -0.6739  0.6707 -0.5751
19925SOL     OW64904   2.311   2.504  11.324  0.0822  0.6594  0.3148
19925SOL    HW164905   2.329   2.456  11.243  0.0998 -0.7343  1.1258
19925SOL    HW264906   2.240   2.564  11.301 -1.9752 -1.7968 -0.0084
19926SOL     OW64907   9.838   9.474   0.376  0.3847 -0.9029 -0.4445
19926SOL    HW164908   9.754   9.435   0.399 -0.0005  0.5213  0.6327
19926SOL    HW264909   9.903   9.411   0.406 -0.2356 -1.0476  0.6101
19927SOL     OW64910   2.913   0.658   1.380 -0.5622 -0.1985 -0.0275
19927SOL    HW164911   2.972   0.734   1.381 -0.4100 -0.3132 -0.5372
19927SOL    HW264912   2.967   0.586   1.347 -0.8911 -0.3882 -0.1498
19928SOL     OW64913   6.646   3.856   8.929  0.1499 -0.1055 -0.0214
19928SOL    HW164914   6.563   3.902   8.941 -0.6881 -1.0276 -1.9556
19928SOL    HW264915   6.708   3.924   8.903 -0.2910  0.4192  0.2934
19929SOL     OW64916   0.210   0.080   7.468  0.5480  0.1973  0.0001
19929SOL    HW164917   0.282   0.090   7.405  2.2713 -1.3501  1.6420
19929SOL    HW264918   0.250   0.097   7.553 -1.4375  0.9446  0.8080
19930SOL     OW64919   3.484   1.988   8.699  0.8497 -0.0752  0.2018
19930SOL    HW164920   3.534   1.912   8.728 -0.6492 -1.6607 -1.2624
19930SOL    HW264921   3.471   2.040   8.778  2.1057 -1.2291  1.1754
19931SOL     OW64922   1.550   0.911   4.878  0.4150  0.1682  0.0734
19931SOL    HW164923   1.645   0.924   4.884  0.2880  0.6282  1.1889
19931SOL    HW264924   1.513   0.999   4.882 -0.1275 -0.1023  0.9567
19932SOL     OW64925   4.290  11.228  10.103  0.1514  0.7574  1.0114
19932SOL    HW164926   4.343  11.261  10.175  0.5695 -0.3976  1.2443
19932SOL    HW264927   4.260  11.306  10.057  2.2929  1.4206  0.6872
19933SOL     OW64928   8.907  10.015   9.128 -0.1202 -0.1156  0.1420
19933SOL    HW164929   8.993   9.976   9.141 -1.5345 -2.8595  1.7600
19933SOL    HW264930   8.859   9.997   9.209 -2.2381  1.3154 -0.7344
19934SOL     OW64931   7.768   7.501   0.819 -0.2251  0.5252 -0.2385
19934SOL    HW164932   7.696   7.482   0.879 -1.7760  1.6453 -1.7298
19934SOL    HW264933   7.802   7.585   0.848 -1.6445  1.5680 -1.5291
19935SOL     OW64934   1.542   9.883   1.063  0.0583  0.2807  0.6303
19935SOL    HW164935   1.512   9.806   1.111  0.7846  0.0929  0.7835
19935SOL    HW264936   1.637   9.876   1.063  0.0110 -1.1287 -3.1297
19936SOL     OW64937   2.308   6.646   0.957 -0.0920 -0.1931 -0.1231
19936SOL    HW164938   2.243   6.643   1.027 -0.2812 -2.1473 -0.3390
19936SOL    HW264939   2.358   6.725   0.974 -1.1740  0.2088  1.2885
19937SOL     OW64940   1.704   6.810   5.267  0.0031 -0.5251  0.1709
19937SOL    HW164941   1.789   6.845   5.241 -0.7944  2.1964  1.0548
19937SOL    HW264942   1.652   6.811   5.186 -0.2197  1.0398  0.3195
19938SOL     OW64943   5.921   3.492   1.560  0.4227 -0.1088 -0.0418
19938SOL    HW164944   5.890   3.410   1.521 -1.3892  1.3725 -1.8611
19938SOL    HW264945   5.879   3.496   1.645  0.9995 -1.3541  0.3065
19939SOL     OW64946   1.150   3.090   6.318  0.4524 -0.1036  0.2792
19939SOL    HW164947   1.073   3.124   6.272  0.4124 -0.8699 -0.2277
19939SOL    HW264948   1.152   2.997   6.295  1.6936 -0.0278  0.0537
19940SOL     OW64949   0.102  10.940   9.869  0.0630 -0.1668  0.2522
19940SOL    HW164950   0.115  10.925   9.962 -1.0654 -1.4353  0.2227
19940SOL    HW264951   0.025  10.998   9.864  0.0357 -0.2153  0.1084
19941SOL     OW64952   5.087   2.996   6.759  0.5447  0.6994  0.0410
19941SOL    HW164953   5.169   3.044   6.742  1.2544  0.2720  2.1860
19941SOL    HW264954   5.097   2.963   6.848 -0.6415 -2.0749 -0.8232
19942SOL     OW64955   0.296   0.856   9.876  0.8345  0.0416 -0.1394
19942SOL    HW164956   0.268   0.869   9.786 -1.8314  0.2130  0.6801
19942SOL    HW264957   0.340   0.937   9.901  0.0245  0.6558 -0.7247
19943SOL     OW64958   1.515  10.532   2.017 -0.0345  0.4214  0.0551
19943SOL    HW164959   1.471  10.462   1.968  0.2822 -0.0306  0.4141
19943SOL    HW264960   1.452  10.605   2.015 -0.0017  0.4380 -1.0777
19944SOL     OW64961   7.181   4.739   8.578 -0.2867 -0.4765 -0.1427
19944SOL    HW164962   7.127   4.755   8.655 -0.9015 -0.3247 -0.6062
19944SOL    HW264963   7.236   4.664   8.603  0.4181  0.3782  0.8980
19945SOL     OW64964   9.556  10.427  10.807  0.0125  0.1158 -0.3939
19945SOL    HW164965   9.590  10.516  10.810 -0.4140  0.2332  1.6438
19945SOL    HW264966   9.476  10.430  10.859  0.3419 -1.5873  0.2608
19946SOL     OW64967   8.582   3.308   5.686  0.1404 -0.5782  0.0606
19946SOL    HW164968   8.544   3.315   5.774 -0.5755 -0.6132 -0.2467
19946SOL    HW264969   8.674   3.285   5.702 -0.2786 -1.7971  0.7664
19947SOL     OW64970   1.790  11.316   5.840 -0.0458 -1.3981  1.3681
19947SOL    HW164971   1.703  11.353   5.854  1.1273  1.2116  1.9493
19947SOL    HW264972   1.850  11.377   5.882  2.5239 -0.2952 -3.4688
19948SOL     OW64973  10.685   8.756  10.523  0.5697 -0.2081  0.2692
19948SOL    HW164974  10.770   8.712  10.529  0.7675 -0.0542 -1.3336
19948SOL    HW264975  10.625   8.689  10.492  0.6170  0.3122 -0.9671
19949SOL     OW64976   2.411  10.646  10.344 -0.1031  0.1062  0.2637
19949SOL    HW164977   2.479  10.616  10.404 -0.1401 -0.7419 -0.1142
19949SOL    HW264978   2.332  10.648  10.396 -0.0241 -0.0764  0.3898
19950SOL     OW64979   1.067   7.671   5.688 -0.1460  0.2768 -0.3913
19950SOL    HW164980   1.146   7.673   5.743 -0.4819 -0.8952  0.1554
19950SOL    HW264981   1.005   7.617   5.738 -1.3265  1.2593 -0.7750
19951SOL     OW64982  10.578  11.044   3.047  0.6355 -0.0911  0.2828
19951SOL    HW164983  10.511  11.075   2.986  0.8629 -0.2779 -0.0633
19951SOL    HW264984  10.610  10.963   3.008  1.9567  0.6525 -0.1992
19952SOL     OW64985   1.958   1.720   0.681  0.6417  1.2232  0.0692
19952SOL    HW164986   2.024   1.654   0.659  0.8225  1.1715  0.7278
19952SOL    HW264987   1.918   1.743   0.598  0.5853  0.2891 -0.1704
19953SOL     OW64988   1.733   6.202  10.302 -0.3355 -0.3653 -0.2724
19953SOL    HW164989   1.687   6.219  10.385  1.1011 -1.0198  0.6682
19953SOL    HW264990   1.733   6.107  10.294  1.8753 -0.4436  0.3407
19954SOL     OW64991   2.032   9.404   5.520 -0.2494  0.4893 -0.4359
19954SOL    HW164992   2.108   9.450   5.555  1.8771 -2.6701 -0.7072
19954SOL    HW264993   2.039   9.415   5.425 -0.0029  0.0689 -0.4709
19955SOL     OW64994   1.972   5.188   9.345 -0.3134  0.4498 -0.1019
19955SOL    HW164995   1.944   5.248   9.414 -0.5560  1.6195 -1.1923
19955SOL    HW264996   2.038   5.237   9.296 -0.4316 -0.2070 -0.9259
19956SOL     OW64997   6.091   6.195   8.392  0.0233  0.2624 -0.3445
19956SOL    HW164998   6.073   6.199   8.486 -1.3900 -0.1840 -0.5861
19956SOL    HW264999   6.187   6.190   8.386  0.1745  1.3446  1.0310
19957SOL     OW65000   9.133   9.748   3.376  0.3834  0.3773  0.5560
19957SOL    HW165001   9.170   9.735   3.464 -0.1293 -0.5781  0.6329
19957SOL    HW265002   9.104   9.661   3.349  0.4514  0.6854 -0.5277
19958SOL     OW65003  10.102   7.735   5.596 -0.3223 -0.0227  1.3918
19958SOL    HW165004  10.140   7.651   5.621 -1.4606 -1.0580 -0.2235
19958SOL    HW265005  10.090   7.728   5.501 -1.7087  1.4413  1.4396
19959SOL     OW65006   0.368   7.696   7.201 -0.2085 -0.4769  0.5670
19959SOL    HW165007   0.341   7.786   7.222 -1.1641 -0.4086 -0.8901
19959SOL    HW265008   0.297   7.662   7.147  0.6531 -1.7574  0.2300
19960SOL     OW65009   2.678  10.050   6.791 -0.1801 -0.3883 -0.5541
19960SOL    HW165010   2.701  10.041   6.883 -2.5540 -0.0380  0.1082
19960SOL    HW265011   2.755  10.092   6.751  0.0479  1.4143  1.6862
19961SOL     OW65012  10.753   6.593   2.117  0.4797  0.0322  0.1860
19961SOL    HW165013  10.792   6.602   2.030 -0.4128  2.4235 -0.0007
19961SOL    HW265014  10.826   6.598   2.178  0.9354 -0.1506 -0.3471
19962SOL     OW65015   9.669   8.437   7.549 -0.6198 -0.3354  0.0507
19962SOL    HW165016   9.637   8.452   7.460 -1.2687 -0.2522  0.2903
19962SOL    HW265017   9.613   8.493   7.604 -0.0793 -0.2143  0.4875
19963SOL     OW65018   7.528   9.876   5.004  0.9422  0.1415 -0.0204
19963SOL    HW165019   7.582   9.891   5.082  2.0699  2.0165 -1.1325
19963SOL    HW265020   7.535   9.782   4.988 -1.0028 -0.6431  3.3508
19964SOL     OW65021   8.507   7.243   9.321  0.0145  0.4147  0.3258
19964SOL    HW165022   8.437   7.179   9.309 -1.8490  2.1658  1.5090
19964SOL    HW265023   8.532   7.269   9.232  0.5680 -1.6486 -0.1619
19965SOL     OW65024   8.701   2.704   5.366 -0.2944 -0.0173  0.4161
19965SOL    HW165025   8.679   2.621   5.408 -1.5871 -0.8474 -1.8109
19965SOL    HW265026   8.619   2.734   5.327  0.5932  1.3183 -0.4921
19966SOL     OW65027  10.608   8.235   9.030 -0.1119  0.3896  0.2477
19966SOL    HW165028  10.524   8.216   8.990 -0.3837  1.0038  0.5165
19966SOL    HW265029  10.646   8.304   8.974 -0.4817  1.2309  1.0258
19967SOL     OW65030   7.309   2.256   7.252 -0.5389 -0.7740 -0.1695
19967SOL    HW165031   7.236   2.236   7.193 -0.2429 -0.0893 -0.7797
19967SOL    HW265032   7.387   2.239   7.200 -0.2771 -0.1770  0.0273
19968SOL     OW65033   2.604   0.167   1.601  0.0756  0.6003  0.4196
19968SOL    HW165034   2.537   0.122   1.654 -1.4774  1.7475 -0.5167
19968SOL    HW265035   2.636   0.099   1.542 -2.3808  0.6700 -1.1001
19969SOL     OW65036   6.961   7.146   4.997 -0.5036 -0.5592  0.0230
19969SOL    HW165037   6.897   7.092   4.950  0.6571 -1.4737 -0.5370
19969SOL    HW265038   6.980   7.218   4.938  1.7455 -2.2620 -1.4212
19970SOL     OW65039   6.442   0.608   0.173 -0.0284 -0.2510  0.2237
19970SOL    HW165040   6.369   0.665   0.196  0.5962 -0.3662  2.6876
19970SOL    HW265041   6.496   0.606   0.252  1.8769 -1.3324 -1.0658
19971SOL     OW65042   2.593   3.602  10.618  0.1978  1.2410 -0.1133
19971SOL    HW165043   2.535   3.668  10.581 -0.7404  0.8614  0.6660
19971SOL    HW265044   2.653   3.651  10.674 -1.3762  1.2995  1.5612
19972SOL     OW65045   0.138  10.963   5.289 -0.8986  0.2049 -0.1431
19972SOL    HW165046   0.183  10.880   5.306 -0.2673  0.5490 -0.1285
19972SOL    HW265047   0.046  10.945   5.309 -0.8403 -0.6370 -0.6383
19973SOL     OW65048   4.490   1.109   8.154  0.7693  0.4887 -0.1170
19973SOL    HW165049   4.570   1.144   8.194  0.4017 -0.7056  1.7445
19973SOL    HW265050   4.444   1.068   8.227 -0.8249 -0.1589 -1.4695
19974SOL     OW65051   3.478   9.502   4.609 -0.1501  0.4852 -0.0320
19974SOL    HW165052   3.508   9.551   4.686 -0.7966  0.1936  0.4068
19974SOL    HW265053   3.472   9.568   4.540 -2.0312  1.2293  0.8263
19975SOL     OW65054   2.084   8.212   8.522 -0.0061  0.6928  0.1293
19975SOL    HW165055   2.040   8.129   8.541 -0.6006  1.1876  0.9686
19975SOL    HW265056   2.172   8.187   8.494 -0.6395 -0.2908 -1.0502
19976SOL     OW65057   2.203   5.608  11.135 -0.0488 -0.0626 -0.5242
19976SOL    HW165058   2.224   5.528  11.086  1.3369 -0.0155 -0.0284
19976SOL    HW265059   2.288   5.645  11.158 -0.6868  0.5250  0.9567
19977SOL     OW65060   3.320   2.654   0.944 -0.4315 -0.1150 -0.2632
19977SOL    HW165061   3.249   2.593   0.965 -0.4630  0.0331  0.0617
19977SOL    HW265062   3.339   2.698   1.026  0.8258 -0.9662 -0.0667
19978SOL     OW65063   8.840   1.977   6.439 -0.2069  0.0185 -0.1738
19978SOL    HW165064   8.926   1.983   6.480  1.8498 -0.0747 -4.3102
19978SOL    HW265065   8.809   1.889   6.460  1.3342 -0.4566  0.1191
19979SOL     OW65066   1.857   9.430   2.164 -0.3686 -0.0846  0.4190
19979SOL    HW165067   1.902   9.419   2.248 -1.6326 -1.0010  0.9995
19979SOL    HW265068   1.919   9.479   2.110  0.6605  0.0983  1.7244
19980SOL     OW65069   6.838   5.429   4.562  0.1733 -0.1084 -0.5580
19980SOL    HW165070   6.800   5.516   4.574  2.3945  1.2819 -3.1464
19980SOL    HW265071   6.768   5.377   4.524 -0.9303  0.7446  0.2677
19981SOL     OW65072   0.282   9.839  10.905  0.6080  0.2642  0.5095
19981SOL    HW165073   0.194   9.859  10.872  0.6678 -1.8718 -1.0415
19981SOL    HW265074   0.268   9.785  10.982  0.5598 -0.7800 -0.2239
19982SOL     OW65075   0.442   8.758   0.620 -0.0144 -0.2999 -0.2243
19982SOL    HW165076   0.435   8.721   0.532 -0.8613 -2.3992  0.6889
19982SOL    HW265077   0.530   8.734   0.649  0.3260  0.5353 -0.5348
19983SOL     OW65078   8.533   3.313   4.162  0.1699  0.1709 -0.5547
19983SOL    HW165079   8.468   3.282   4.225 -0.5723  0.7286 -1.0322
19983SOL    HW265080   8.535   3.245   4.094 -0.0336  0.2244 -0.6155
19984SOL     OW65081   5.761   3.807   5.469  0.7926 -0.1186  0.3348
19984SOL    HW165082   5.727   3.733   5.419  1.3076 -0.2753  0.2178
19984SOL    HW265083   5.746   3.782   5.561 -1.9188  1.0011  0.2526
19985SOL     OW65084   9.284   1.625   0.686 -0.6425  0.3347 -0.1645
19985SOL    HW165085   9.222   1.559   0.719  0.4060  0.3578  1.9126
19985SOL    HW265086   9.298   1.600   0.595  0.7697 -3.2035  0.9075
19986SOL     OW65087  10.779   0.936   3.553  0.6948 -0.4257 -0.0293
19986SOL    HW165088  10.739   1.009   3.599  1.2195  0.3266 -0.7621
19986SOL    HW265089  10.732   0.931   3.470 -0.3339 -1.8574  0.6126
19987SOL     OW65090  11.150   4.427   5.760 -0.0948  0.1921  0.5554
19987SOL    HW165091  11.217   4.470   5.707 -1.4028  1.0307 -0.4843
19987SOL    HW265092  11.083   4.401   5.696 -1.3033  0.4450  1.7034
19988SOL     OW65093   7.641   9.269   1.291 -0.0678  0.2619 -0.3334
19988SOL    HW165094   7.734   9.246   1.290  0.0110  0.4849 -3.1970
19988SOL    HW265095   7.596   9.185   1.283 -0.1049  0.2123  0.3495
19989SOL     OW65096   4.572   3.986   6.987 -0.6155 -0.0871  0.4714
19989SOL    HW165097   4.634   3.918   7.014  1.0688 -0.3582 -3.6812
19989SOL    HW265098   4.493   3.938   6.963  0.2703 -0.5717 -1.6045
19990SOL     OW65099   4.411   8.247  10.554 -0.8844  0.1496  0.3720
19990SOL    HW165100   4.396   8.293  10.471 -0.3470 -0.4136 -0.0447
19990SOL    HW265101   4.499   8.274  10.581 -0.6879 -0.3863  0.2811
19991SOL     OW65102   6.177   9.358   1.463 -0.2399  0.3250  0.0933
19991SOL    HW165103   6.115   9.301   1.417 -0.1617 -0.5637  1.0769
19991SOL    HW265104   6.190   9.317   1.548  0.7420  1.1771  0.3739
19992SOL     OW65105   9.664   0.241  10.152 -0.0251 -0.3054 -0.1991
19992SOL    HW165106   9.595   0.286  10.103 -1.5589 -2.1770  0.1640
19992SOL    HW265107   9.643   0.148  10.142  1.7392 -0.8510  0.9902
19993SOL     OW65108   5.292   1.625   7.176 -0.6024 -0.0377 -0.3959
19993SOL    HW165109   5.320   1.556   7.117 -1.8323 -0.9837  0.0917
19993SOL    HW265110   5.196   1.618   7.179 -0.6954  1.1654  0.2823
19994SOL     OW65111   2.232   6.102   9.099  0.3246  0.9413  0.9705
19994SOL    HW165112   2.157   6.154   9.129 -1.8662 -1.0224 -0.9223
19994SOL    HW265113   2.256   6.141   9.015 -0.8132 -0.5838 -0.0725
19995SOL     OW65114   5.192   2.373   7.784 -0.2383  0.2846 -0.1570
19995SOL    HW165115   5.255   2.312   7.821  1.2238  2.3299  0.8592
19995SOL    HW265116   5.138   2.400   7.859  0.9984  2.3937  0.0220
19996SOL     OW65117   0.540   7.647   4.491 -0.7681  0.0885 -0.3835
19996SOL    HW165118   0.449   7.637   4.519 -1.6337  0.2804 -2.9722
19996SOL    HW265119   0.541   7.616   4.400  1.5414  0.9829 -0.7084
19997SOL     OW65120   3.833   4.850   1.264 -0.2600 -0.2021  0.3363
19997SOL    HW165121   3.811   4.943   1.263 -0.7299 -0.3035 -1.6739
19997SOL    HW265122   3.910   4.843   1.208  0.4210 -0.8918  1.3297
19998SOL     OW65123   6.148   5.019   9.017 -0.2831  0.4566 -0.0640
19998SOL    HW165124   6.126   4.934   9.056  0.6222 -0.4842 -1.5404
19998SOL    HW265125   6.064   5.056   8.992 -0.6505 -0.2760  0.0533
19999SOL     OW65126   4.756   8.215   1.590 -0.1474 -0.1267  0.0394
19999SOL    HW165127   4.790   8.297   1.554  0.1760 -0.2019  0.1650
19999SOL    HW265128   4.737   8.161   1.513 -0.2145  0.0116 -0.0398
20000SOL     OW65129   5.899   4.421   7.464  0.1521 -0.0443  0.0870
20000SOL    HW165130   5.859   4.506   7.447  0.3472 -0.0608 -0.4349
20000SOL    HW265131   5.990   4.441   7.484  0.0777 -0.0839  0.4719
20001SOL     OW65132   0.869  10.496   1.404  0.6141  0.5279 -0.1562
20001SOL    HW165133   0.948  10.549   1.415 -0.3123  1.6907  1.0297
20001SOL    HW265134   0.797  10.555   1.426 -0.5884 -0.5448 -1.1365
20002SOL     OW65135   6.946   6.239   8.877  0.3761  0.0076  0.3040
20002SOL    HW165136   6.869   6.197   8.916 -1.2008  2.0349 -0.5959
20002SOL    HW265137   6.990   6.168   8.830 -0.3079 -1.4076  1.7416
20003SOL     OW65138   1.017   0.438   6.407  0.0075  0.2580 -0.3584
20003SOL    HW165139   0.950   0.445   6.339 -0.0315  1.5003 -0.2014
20003SOL    HW265140   0.974   0.472   6.486 -0.2029 -1.8575  0.4907
20004SOL     OW65141   8.178   1.199   2.231  0.2437  0.7465 -0.3319
20004SOL    HW165142   8.156   1.242   2.314  1.5110  1.2028 -0.2263
20004SOL    HW265143   8.274   1.195   2.230  0.2179  0.0891 -1.4472
20005SOL     OW65144   2.806   5.111  10.842 -0.3649  0.3879 -0.7491
20005SOL    HW165145   2.749   5.138  10.771 -0.8028 -1.2582 -1.0440
20005SOL    HW265146   2.772   5.026  10.869  1.3674 -0.1873 -0.3054
20006SOL     OW65147   8.618  10.704  10.487 -0.3701  0.2722 -0.2839
20006SOL    HW165148   8.624  10.758  10.566 -0.8833  0.5478 -0.4284
20006SOL    HW265149   8.606  10.767  10.416  0.0308  0.0217 -0.5761
20007SOL     OW65150   1.783   0.058  10.332  0.1403  0.1414  0.0743
20007SOL    HW165151   1.713   0.054  10.267 -0.6043  0.1944  0.8642
20007SOL    HW265152   1.739   0.078  10.414  1.0921  0.2534  0.5720
20008SOL     OW65153   3.272   2.485   5.340 -0.3510  0.1902  0.5667
20008SOL    HW165154   3.249   2.578   5.334 -1.5882 -0.1672 -0.3435
20008SOL    HW265155   3.365   2.482   5.319 -0.2680  1.2463  0.7679
20009SOL     OW65156   9.941   1.794   4.236  0.0229  0.1675  0.3940
20009SOL    HW165157   9.871   1.747   4.281 -0.4045  1.3987  1.0249
20009SOL    HW265158   9.922   1.781   4.143 -0.9746  0.3755  0.5591
20010SOL     OW65159   9.670  10.044  10.778 -0.1700  0.4959 -0.0900
20010SOL    HW165160   9.732   9.998  10.835  1.1985  1.4539 -0.7740
20010SOL    HW265161   9.603   9.978  10.758 -0.5309  0.0712  2.3695
20011SOL     OW65162   1.803   3.070   7.146  0.7022  0.1366  0.5913
20011SOL    HW165163   1.759   2.985   7.154  1.6645 -0.3213  1.0671
20011SOL    HW265164   1.739   3.133   7.179 -0.2280 -0.3356 -0.2705
20012SOL     OW65165   6.224   9.070   0.808 -0.0309  0.3496  0.6824
20012SOL    HW165166   6.144   9.059   0.860 -0.6925  0.4581 -0.2903
20012SOL    HW265167   6.290   9.097   0.872 -1.2143  2.0815  1.2359
20013SOL     OW65168   1.168   9.927   9.386 -0.3033 -0.2984 -0.9000
20013SOL    HW165169   1.150  10.019   9.369  0.9241 -0.3490 -2.5855
20013SOL    HW265170   1.260   9.924   9.410 -0.6449 -0.9396  0.3550
20014SOL     OW65171   7.122  10.816   1.110 -0.2307 -0.2319 -0.5912
20014SOL    HW165172   7.047  10.869   1.136  0.4467 -0.6327  2.3702
20014SOL    HW265173   7.119  10.740   1.168  2.6989 -0.0608 -0.1518
20015SOL     OW65174   9.435   1.067   5.828 -0.3736 -0.1827  0.7660
20015SOL    HW165175   9.415   0.980   5.863 -1.0467 -0.1007  0.5841
20015SOL    HW265176   9.528   1.080   5.849 -0.6404 -0.3258  2.1357
20016SOL     OW65177   7.651   0.161   7.471 -0.1847 -0.2609 -0.4174
20016SOL    HW165178   7.666   0.170   7.377  0.5313  0.4546 -0.2350
20016SOL    HW265179   7.568   0.205   7.487  0.0086  0.1735 -0.6123
20017SOL     OW65180   1.669   3.088   3.068 -0.6088 -0.4348 -0.0673
20017SOL    HW165181   1.639   3.013   3.118 -2.0394 -0.3274 -0.7317
20017SOL    HW265182   1.615   3.087   2.988 -1.0017  1.5579  0.1344
20018SOL     OW65183   3.655  10.529   4.444  0.0220  0.3098 -0.0939
20018SOL    HW165184   3.646  10.492   4.532 -0.0298  0.5211 -0.0103
20018SOL    HW265185   3.610  10.613   4.448  1.1736  0.9311  0.0654
20019SOL     OW65186   9.944   3.915   6.065  0.4958  0.1435  0.4296
20019SOL    HW165187   9.863   3.867   6.079  0.9174 -0.7547 -0.2183
20019SOL    HW265188   9.955   3.966   6.146 -0.6836  0.2466  0.5373
20020SOL     OW65189  10.892   2.157   0.807 -0.2527  0.0597  0.5280
20020SOL    HW165190  10.807   2.141   0.766  0.6289  1.1775 -1.8781
20020SOL    HW265191  10.953   2.102   0.758  0.9517  1.9464 -0.1861
20021SOL     OW65192   8.155   5.872  10.417  0.5032 -0.1098 -0.3608
20021SOL    HW165193   8.173   5.778  10.418  0.7979 -0.0517 -0.0516
20021SOL    HW265194   8.082   5.882  10.356  0.6043 -0.5154 -0.5493
20022SOL     OW65195   7.161   2.940   7.200 -0.1342 -0.2410 -0.1009
20022SOL    HW165196   7.161   3.035   7.194  0.1101 -0.2387 -0.0744
20022SOL    HW265197   7.240   2.919   7.250  0.5164 -0.5163 -1.2158
20023SOL     OW65198   4.153   6.768  10.674  0.4134  0.0320 -0.3133
20023SOL    HW165199   4.210   6.815  10.613  1.8873 -1.7855 -0.3659
20023SOL    HW265200   4.189   6.789  10.761  0.9460 -0.8194 -0.3259
20024SOL     OW65201   0.587   1.340   1.412 -0.7293  0.0721 -0.0311
20024SOL    HW165202   0.530   1.372   1.482  1.0027  1.1941  0.8795
20024SOL    HW265203   0.664   1.306   1.457 -1.7707 -3.9524 -1.0732
20025SOL     OW65204   4.763   2.484   3.391  0.1268 -0.2515  0.2849
20025SOL    HW165205   4.691   2.512   3.334 -0.4341 -0.8756  0.6826
20025SOL    HW265206   4.722   2.429   3.458  0.7109  0.8032  1.5430
20026SOL     OW65207   5.524   6.074   1.705  0.0604  0.1826 -0.6081
20026SOL    HW165208   5.559   6.083   1.794  0.1765  0.3521 -0.6700
20026SOL    HW265209   5.430   6.065   1.717  0.2943 -2.1422 -0.3228
20027SOL     OW65210   7.168   2.569  11.203 -0.4102 -0.0010 -0.3092
20027SOL    HW165211   7.143   2.548  11.113 -0.4182  0.4108 -0.4057
20027SOL    HW265212   7.263   2.582  11.199 -0.4947  0.6087 -0.3756
20028SOL     OW65213   9.745   5.873   7.188 -0.1591  0.7233 -0.0163
20028SOL    HW165214   9.678   5.840   7.248 -0.0184  0.6284  0.0890
20028SOL    HW265215   9.705   5.868   7.101 -0.4689  1.1288  0.0979
20029SOL     OW65216   0.668   4.203   2.361 -0.0949 -0.4451 -0.1630
20029SOL    HW165217   0.755   4.221   2.396 -0.9773 -0.3806  2.0352
20029SOL    HW265218   0.607   4.239   2.425 -1.7617  0.5719 -2.2534
20030SOL     OW65219   6.391   4.197   1.381 -0.2868  0.4117 -0.5257
20030SOL    HW165220   6.316   4.207   1.324 -2.0368 -0.1036  1.6189
20030SOL    HW265221   6.426   4.286   1.391 -2.3883  1.1245  0.7645
20031SOL     OW65222  10.063   4.448  10.692  0.0400  0.7210  0.0791
20031SOL    HW165223  10.109   4.508  10.633 -0.5738  1.8985  0.7770
20031SOL    HW265224  10.041   4.501  10.768 -0.4502 -0.4181  0.7474
20032SOL     OW65225   7.627   3.465  11.141  0.0049  0.5835  0.0460
20032SOL    HW165226   7.616   3.551  11.183 -1.6801 -0.2725  1.4025
20032SOL    HW265227   7.644   3.486  11.049  0.3955  2.3856  0.4909
20033SOL     OW65228   0.247   6.484   9.294 -0.0617  0.9247 -0.2641
20033SOL    HW165229   0.307   6.429   9.243  0.6036  0.4271  1.0280
20033SOL    HW265230   0.164   6.438   9.290 -0.0372  0.9212 -0.9359
20034SOL     OW65231  10.125   0.438   5.444  0.3863  0.3470 -0.8376
20034SOL    HW165232  10.142   0.528   5.471  0.8351  0.2638 -0.8390
20034SOL    HW265233  10.038   0.440   5.406  1.0033  1.0957 -2.2459
20035SOL     OW65234   2.257   2.799   1.410  0.3940 -0.1335 -0.1797
20035SOL    HW165235   2.256   2.776   1.503  0.4992  0.0252 -0.1400
20035SOL    HW265236   2.200   2.734   1.369  1.7549 -1.3091 -0.2566
20036SOL     OW65237  10.961   7.811   6.712 -0.1053  0.3519 -0.0065
20036SOL    HW165238  10.889   7.868   6.737  1.0296  1.3936  1.0041
20036SOL    HW265239  10.978   7.831   6.620  0.5048  1.9338  0.4273
20037SOL     OW65240   0.812   0.148   6.832  0.5766 -0.0052 -0.1839
20037SOL    HW165241   0.770   0.156   6.746  1.9512  0.5111 -0.8160
20037SOL    HW265242   0.867   0.070   6.825 -0.9441 -1.2237  0.9515
20038SOL     OW65243   8.072  10.209   3.275 -0.6605  0.5232  0.1522
20038SOL    HW165244   7.998  10.148   3.281 -0.6689  0.5655  0.4780
20038SOL    HW265245   8.044  10.274   3.211  0.1087 -0.8858 -1.6817
20039SOL     OW65246   2.849   3.983   7.149  0.2666 -0.3376 -0.6100
20039SOL    HW165247   2.775   3.993   7.209  0.3061  1.5456 -0.8316
20039SOL    HW265248   2.812   3.998   7.063  0.9091  0.7496 -0.7117
20040SOL     OW65249   9.084   9.726   5.974  0.5019 -0.4212  0.4760
20040SOL    HW165250   9.009   9.716   5.915 -1.7103  0.9885  2.9413
20040SOL    HW265251   9.092   9.820   5.988  1.7006 -0.6567  1.4918
20041SOL     OW65252   8.334  11.017   0.313 -0.1626  0.3018 -0.3395
20041SOL    HW165253   8.376  11.058   0.389 -2.5064  0.2574  1.0154
20041SOL    HW265254   8.299  11.090   0.263 -2.1884  0.1584  0.7971
20042SOL     OW65255  10.180   9.476   4.363  0.1563 -0.0334 -0.0338
20042SOL    HW165256  10.135   9.401   4.402  1.5390  0.4748  2.7138
20042SOL    HW265257  10.126   9.551   4.388  1.0142  0.2900  0.9003
20043SOL     OW65258   6.057   0.502   6.943  0.0505 -0.1078  0.1388
20043SOL    HW165259   6.069   0.425   6.998 -0.9202  0.0339  0.5785
20043SOL    HW265260   5.963   0.521   6.950 -0.1771 -0.3175 -1.8811
20044SOL     OW65261   4.889   2.001   7.994 -0.3892  0.9946 -0.2028
20044SOL    HW165262   4.825   2.020   8.063 -0.2713  1.8442 -0.3173
20044SOL    HW265263   4.974   2.017   8.035 -0.3407  2.1787 -0.7327
20045SOL     OW65264   3.674   1.266   8.066 -0.1310  0.2286 -0.6669
20045SOL    HW165265   3.695   1.294   8.155 -1.4220  2.2089 -0.9697
20045SOL    HW265266   3.759   1.265   8.021  0.2713  1.0527  0.0640
20046SOL     OW65267   1.738   6.944   7.149  0.1975  0.2283 -0.2797
20046SOL    HW165268   1.765   6.856   7.124  1.7421  0.6026  0.0287
20046SOL    HW265269   1.762   6.951   7.242  0.8126  1.2427 -0.5105
20047SOL     OW65270   8.797   4.340   2.169  0.1035 -0.0604 -0.0047
20047SOL    HW165271   8.859   4.393   2.219  1.2119 -0.7169 -0.6811
20047SOL    HW265272   8.809   4.251   2.202  2.3196 -0.8648 -2.8230
20048SOL     OW65273   7.397   2.556   5.150  0.0921  0.0547 -0.1570
20048SOL    HW165274   7.490   2.537   5.137  0.3296  0.2969  1.0638
20048SOL    HW265275   7.392   2.651   5.147  0.1609  0.1279  1.3512
20049SOL     OW65276   5.722   6.679   0.124  0.6088  0.0537  0.0398
20049SOL    HW165277   5.658   6.728   0.072  2.4364  1.3722 -1.0443
20049SOL    HW265278   5.687   6.591   0.128 -0.9650  0.6028 -1.0683
20050SOL     OW65279   5.265   0.673   3.862  0.1703  0.0702  0.5433
20050SOL    HW165280   5.327   0.671   3.935  0.3766 -0.5716  0.3535
20050SOL    HW265281   5.222   0.588   3.865  0.3736 -0.0647 -0.2468
20051SOL     OW65282   0.818   7.658   3.524  0.0813  0.2499  0.5807
20051SOL    HW165283   0.839   7.573   3.486 -0.7557  0.6929 -0.9142
20051SOL    HW265284   0.896   7.681   3.575  0.5224 -1.1612  0.5620
20052SOL     OW65285   4.456   8.151   3.688 -0.2367  0.1394 -0.1298
20052SOL    HW165286   4.379   8.205   3.707 -0.0073  0.6431 -0.6100
20052SOL    HW265287   4.424   8.061   3.695 -0.6828  0.3420  0.4294
20053SOL     OW65288  10.880   4.571   3.926 -0.1838 -0.3125  0.0104
20053SOL    HW165289  10.793   4.579   3.887 -0.1054 -0.7045 -0.2500
20053SOL    HW265290  10.878   4.489   3.974  0.4113 -0.9133 -0.9665
20054SOL     OW65291   0.258   3.734   1.989 -0.5627 -0.1207 -0.0035
20054SOL    HW165292   0.351   3.756   1.992 -0.9447  1.4883  1.0801
20054SOL    HW265293   0.223   3.787   1.918 -0.7342 -0.3406 -0.0818
20055SOL     OW65294   6.010  10.942   2.467 -0.4012 -0.3236  0.1472
20055SOL    HW165295   6.049  11.028   2.480 -1.8649  0.5815 -1.1652
20055SOL    HW265296   6.081  10.887   2.435 -0.2753  1.3976 -2.6353
20056SOL     OW65297   5.050   5.974   4.491  0.4432 -0.1890 -0.3901
20056SOL    HW165298   5.015   6.047   4.542 -1.3245 -2.1924  1.3767
20056SOL    HW265299   5.145   5.978   4.505  0.1426  0.3173  1.6710
20057SOL     OW65300   5.285   9.248   3.094  0.0007 -0.0100 -0.1533
20057SOL    HW165301   5.192   9.233   3.076  0.0876  0.8662 -1.3985
20057SOL    HW265302   5.317   9.164   3.127 -0.2378 -1.6932 -3.9781
20058SOL     OW65303   1.903   0.458  10.408  0.0904  0.5237 -0.2668
20058SOL    HW165304   1.881   0.539  10.454  0.3159  1.5383 -1.9379
20058SOL    HW265305   1.889   0.390  10.474 -2.0350  1.7076  0.5687
20059SOL     OW65306   9.263  11.157   2.998  0.3196  0.3671 -0.1891
20059SOL    HW165307   9.186  11.188   2.952 -0.0271  0.2090  0.2777
20059SOL    HW265308   9.310  11.103   2.934  0.5581  1.2681 -0.7815
20060SOL     OW65309   3.821   1.780   0.279 -0.0067  0.4447  0.7525
20060SOL    HW165310   3.848   1.868   0.303 -0.7045  0.6097  0.9315
20060SOL    HW265311   3.764   1.751   0.351  0.6378 -0.3459  0.9536
20061SOL     OW65312   3.201   9.296  11.136  0.1797 -0.9937 -0.0542
20061SOL    HW165313   3.111   9.283  11.107 -0.1715 -0.5229  0.8189
20061SOL    HW265314   3.211   9.391  11.141 -0.0530 -1.0585  2.2176
20062SOL     OW65315  10.698   7.214   8.851  0.3643  0.2658  0.1711
20062SOL    HW165316  10.781   7.256   8.829  1.0055 -0.8979  0.3220
20062SOL    HW265317  10.683   7.238   8.942 -0.7005  2.4679 -0.5398
20063SOL     OW65318   2.035  10.243   6.752  0.0010 -0.2866 -0.0533
20063SOL    HW165319   1.945  10.212   6.765 -0.4648  1.3622  0.9876
20063SOL    HW265320   2.065  10.264   6.841  1.8056 -1.8288 -0.2881
20064SOL     OW65321   8.918   1.418  10.083 -0.1154  0.3788 -0.2463
20064SOL    HW165322   8.966   1.343  10.118  1.4243  1.7776  0.7127
20064SOL    HW265323   8.944   1.422   9.991  0.4502  0.2173 -0.0972
20065SOL     OW65324   9.831   2.906   7.416 -0.2061  0.1381 -0.2928
20065SOL    HW165325   9.908   2.962   7.402 -0.5743  0.6638 -0.2198
20065SOL    HW265326   9.868   2.823   7.447  0.3152  0.4908  0.0462
20066SOL     OW65327   2.782   4.880  10.548 -0.2157  0.0531  0.4219
20066SOL    HW165328   2.705   4.826  10.531 -0.2734  0.0531  0.6805
20066SOL    HW265329   2.747   4.968  10.563 -0.0543  0.3538 -0.8846
20067SOL     OW65330   4.608   7.652   6.126 -0.3240 -0.0513 -0.6710
20067SOL    HW165331   4.697   7.622   6.142 -0.0579  0.7410 -0.6379
20067SOL    HW265332   4.617   7.722   6.061 -0.8250  0.6229 -0.0278
20068SOL     OW65333   3.234   4.020   1.707  0.1050 -0.0563  0.2097
20068SOL    HW165334   3.179   4.023   1.628 -0.9401  0.3747  0.9359
20068SOL    HW265335   3.191   4.080   1.768  0.2643 -1.2261  1.5091
20069SOL     OW65336  10.925   4.746   7.592 -0.2447  0.2294  0.4115
20069SOL    HW165337  10.916   4.679   7.660 -0.0390  1.5106  1.7368
20069SOL    HW265338  10.844   4.741   7.542 -0.9444  0.0873  1.5224
20070SOL     OW65339   8.419   5.896   7.594 -0.1409  0.3285  0.3741
20070SOL    HW165340   8.395   5.977   7.639 -3.0707  0.1570 -0.7723
20070SOL    HW265341   8.393   5.826   7.654 -1.6006  0.1609 -0.4336
20071SOL     OW65342   4.928   2.543  10.567  0.2923 -0.1443 -0.0632
20071SOL    HW165343   4.870   2.565  10.493 -1.1649  0.3912  1.2198
20071SOL    HW265344   4.972   2.626  10.586 -1.1251  0.3420  1.2083
20072SOL     OW65345  11.242  10.880   6.839 -0.1307  0.7668 -0.5818
20072SOL    HW165346  11.234  10.897   6.932  1.2251  1.1911 -0.5232
20072SOL    HW265347  11.156  10.902   6.802 -0.8990 -0.1460  0.6605
20073SOL     OW65348   7.877   6.837   7.363  0.4679  0.2992 -0.0063
20073SOL    HW165349   7.832   6.761   7.403  0.2051  0.1550 -0.5727
20073SOL    HW265350   7.969   6.823   7.384  0.2855  0.4479  0.9270
20074SOL     OW65351   5.930   5.700  10.303 -0.5271 -0.5813  0.0452
20074SOL    HW165352   5.998   5.647  10.262 -0.7799 -0.7937 -0.1022
20074SOL    HW265353   5.849   5.650  10.290 -0.9172  0.2859 -0.9024
20075SOL     OW65354   1.233   2.538   5.453  0.6536 -0.5878  0.3948
20075SOL    HW165355   1.210   2.609   5.393  1.2902  0.5051  1.4292
20075SOL    HW265356   1.180   2.464   5.424 -0.4937  0.4913 -0.3005
20076SOL     OW65357   8.186  10.722   7.602 -0.0218 -0.0199  0.3275
20076SOL    HW165358   8.254  10.719   7.670 -0.4983  1.4358  0.9082
20076SOL    HW265359   8.208  10.799   7.550 -0.1624 -0.6286 -0.6377
20077SOL     OW65360   8.403   3.110   1.623  0.0580 -0.0485  0.0006
20077SOL    HW165361   8.400   3.179   1.556  1.3509  0.0305 -0.0007
20077SOL    HW265362   8.465   3.046   1.588 -1.0360 -1.1467  0.0685
20078SOL     OW65363  10.609   9.185   7.620 -0.0387 -0.2560 -0.0501
20078SOL    HW165364  10.582   9.225   7.537  1.6240 -0.0246 -0.5041
20078SOL    HW265365  10.595   9.091   7.607 -0.3823 -0.1632 -0.3592
20079SOL     OW65366  11.029   7.743   1.880  0.0900  0.3038 -0.1093
20079SOL    HW165367  11.117   7.765   1.847  0.5492 -1.3875 -0.0881
20079SOL    HW265368  11.043   7.721   1.972 -0.3567  0.0993 -0.0883
20080SOL     OW65369   6.145  10.192   0.211  0.1116 -0.0484 -0.5420
20080SOL    HW165370   6.138  10.287   0.220  2.1220  0.2520 -2.0061
20080SOL    HW265371   6.200  10.178   0.134  1.2479 -2.3816  0.6356
20081SOL     OW65372   4.849   4.961   9.614 -0.4418 -0.2236  0.1047
20081SOL    HW165373   4.937   4.941   9.645 -0.0967 -2.1104 -1.9185
20081SOL    HW265374   4.790   4.928   9.682  0.3815 -0.4961  0.6848
20082SOL     OW65375   8.954   5.237   7.317  0.2032  0.0133 -0.2450
20082SOL    HW165376   8.996   5.174   7.375 -0.3874  0.0168  0.1977
20082SOL    HW265377   8.885   5.186   7.274 -1.2332  0.6836  1.1992
20083SOL     OW65378   5.938   7.355   9.393  0.4456 -0.1487 -0.5073
20083SOL    HW165379   5.925   7.348   9.299  1.7017 -0.3700 -0.6769
20083SOL    HW265380   5.871   7.298   9.431 -0.2508  0.1721 -1.2553
20084SOL     OW65381   1.094   1.454   3.028  0.2148 -0.6356  0.1145
20084SOL    HW165382   1.011   1.497   3.048  0.3063 -1.0662  1.5104
20084SOL    HW265383   1.085   1.425   2.937  0.3824  2.8182 -1.0721
20085SOL     OW65384   0.708   7.182   2.360  0.8197 -0.1675 -0.6270
20085SOL    HW165385   0.739   7.241   2.429 -2.1920  0.7577  0.0077
20085SOL    HW265386   0.645   7.124   2.404 -0.0434 -0.5078 -2.2720
20086SOL     OW65387   1.915   6.127   9.233  0.4106  0.5326 -0.0809
20086SOL    HW165388   1.845   6.074   9.195  2.0780 -1.2055 -0.8090
20086SOL    HW265389   1.899   6.123   9.328  0.1323 -0.7530 -0.1677
20087SOL     OW65390   8.682   9.492   5.671  0.3155  0.8174 -0.4111
20087SOL    HW165391   8.697   9.411   5.622  0.4014  0.8942 -0.5119
20087SOL    HW265392   8.658   9.462   5.759  2.0615  0.7167  0.0362
20088SOL     OW65393   3.071   7.431   4.374  0.7270 -0.8330  0.0773
20088SOL    HW165394   3.132   7.402   4.442  1.5618 -0.7344 -0.6158
20088SOL    HW265395   2.994   7.375   4.385 -0.5042  1.3709  3.1908
20089SOL     OW65396   4.672   7.055   1.121 -0.2867  0.2304 -0.4086
20089SOL    HW165397   4.605   7.121   1.105 -0.8602 -0.1981  0.1976
20089SOL    HW265398   4.699   7.070   1.212 -0.2740 -0.2359 -0.3327
20090SOL     OW65399   8.741   7.348   8.571 -0.0801  0.2424 -0.0290
20090SOL    HW165400   8.729   7.348   8.476  0.5164  0.9513 -0.1105
20090SOL    HW265401   8.754   7.256   8.594 -1.8431 -0.1215 -0.4222
20091SOL     OW65402   5.499  10.292  11.015 -0.3006 -0.4549  0.2180
20091SOL    HW165403   5.530  10.226  10.953  0.0559 -0.3274  0.2590
20091SOL    HW265404   5.574  10.308  11.072 -1.2887 -2.1680  2.0555
20092SOL     OW65405   6.821   2.725   6.315  0.0066  0.0781  0.5222
20092SOL    HW165406   6.851   2.672   6.241  0.7342  1.6145 -0.2959
20092SOL    HW265407   6.727   2.704   6.322 -0.2898  0.6566 -1.4608
20093SOL     OW65408  10.935  11.287   6.613 -0.1394  0.6569 -0.0334
20093SOL    HW165409  10.916  11.376   6.584  0.0484  0.9706  0.8205
20093SOL    HW265410  11.004  11.297   6.678 -0.7238 -0.0444  0.6914
20094SOL     OW65411   2.252   8.280   5.111 -0.9801  0.7477 -0.3768
20094SOL    HW165412   2.235   8.372   5.129 -1.0347  0.4017  1.4168
20094SOL    HW265413   2.223   8.234   5.190 -0.0356 -0.7064 -0.8552
20095SOL     OW65414   2.830   5.537   5.745 -0.2749 -0.2383 -0.6070
20095SOL    HW165415   2.839   5.606   5.810  0.6270  1.2544 -2.3017
20095SOL    HW265416   2.915   5.493   5.744 -1.0512 -1.8543  0.9527
20096SOL     OW65417   7.404  10.308  10.723  0.6064  0.5252 -0.0011
20096SOL    HW165418   7.483  10.309  10.778  0.6441  0.6613 -0.0549
20096SOL    HW265419   7.390  10.400  10.701 -0.0946  0.6080  0.7581
20097SOL     OW65420   9.486   0.053   7.579  0.2728 -0.5665  0.6783
20097SOL    HW165421   9.522   0.112   7.513  1.4309  0.8493  2.5196
20097SOL    HW265422   9.398   0.032   7.548  0.1159  1.5677 -0.3832
20098SOL     OW65423  10.101   3.688  10.218  0.5514 -0.2159  0.2027
20098SOL    HW165424  10.125   3.774  10.251  0.4631 -0.2999  0.4880
20098SOL    HW265425  10.137   3.626  10.282 -1.2944 -0.3011  1.1782
20099SOL     OW65426   2.911   2.107   9.802  0.2946 -0.1814  0.0011
20099SOL    HW165427   2.843   2.131   9.740  0.6716  2.4578  0.5703
20099SOL    HW265428   2.910   2.011   9.802 -3.6512 -0.2082  0.3020
20100SOL     OW65429   6.241   7.285  10.582  0.5379 -0.0929  0.2199
20100SOL    HW165430   6.202   7.237  10.510 -0.8349  0.0347  0.8668
20100SOL    HW265431   6.280   7.218  10.638 -3.3982 -0.7559  2.3541
20101SOL     OW65432   1.508   2.411   6.360 -0.4489 -0.4225 -0.0327
20101SOL    HW165433   1.488   2.338   6.418 -3.0428  0.3109  0.0826
20101SOL    HW265434   1.422   2.447   6.337  0.6706  1.0715 -2.0353
20102SOL     OW65435  10.672   1.366  11.125  0.3833  0.3317 -0.0676
20102SOL    HW165436  10.596   1.406  11.167  0.3917  0.1082  0.1636
20102SOL    HW265437  10.708   1.434  11.069  0.7574  0.8534  0.7961
20103SOL     OW65438   3.664   4.349   1.957 -0.0422 -0.1271  0.4070
20103SOL    HW165439   3.610   4.270   1.950  0.9688 -1.0073  2.2145
20103SOL    HW265440   3.747   4.318   1.991  0.9391  1.5125 -0.4326
20104SOL     OW65441   7.292   3.063   2.646  0.1026  0.0432  0.0428
20104SOL    HW165442   7.214   3.017   2.679  0.6467 -1.1926 -0.3495
20104SOL    HW265443   7.300   3.032   2.556  0.5680  0.8214 -0.1829
20105SOL     OW65444   1.865   3.421   5.895 -0.0798  0.2252 -0.3515
20105SOL    HW165445   1.900   3.371   5.969 -1.8833 -0.4934  0.0359
20105SOL    HW265446   1.929   3.407   5.825  1.3397  0.4255  0.8682
20106SOL     OW65447   3.340   3.256   5.097 -0.3240  0.6951  0.4952
20106SOL    HW165448   3.424   3.223   5.129 -0.6717  0.2743  0.9852
20106SOL    HW265449   3.275   3.196   5.134 -0.7167 -0.0201 -1.2849
20107SOL     OW65450   5.622  10.090  10.812 -0.1893 -0.2588  0.4239
20107SOL    HW165451   5.667  10.046  10.884 -0.3939  0.1908  0.8298
20107SOL    HW265452   5.692  10.126  10.758 -0.0489  1.6801  1.8212
20108SOL     OW65453   3.236   8.327   7.285  0.0962 -0.0159  0.0863
20108SOL    HW165454   3.152   8.356   7.321  0.7670  1.6906  0.3033
20108SOL    HW265455   3.300   8.346   7.353  0.9426  0.4436 -0.8220
20109SOL     OW65456   0.271   3.878   0.197  0.3766  0.2361 -0.5414
20109SOL    HW165457   0.225   3.962   0.195 -1.0546 -0.4823  1.2094
20109SOL    HW265458   0.349   3.895   0.251  1.7538  1.2219 -2.7838
20110SOL     OW65459   4.646   0.170   0.406 -0.4989  0.1640 -0.1124
20110SOL    HW165460   4.729   0.159   0.451 -0.7157  0.6140  0.4003
20110SOL    HW265461   4.623   0.262   0.419 -0.4938  0.3365 -1.2612
20111SOL     OW65462   8.551   2.466   0.629  0.0316 -0.0813 -0.2056
20111SOL    HW165463   8.632   2.441   0.674  0.2874 -0.5042 -0.8969
20111SOL    HW265464   8.576   2.478   0.538 -0.3261  1.6002 -0.0936
20112SOL     OW65465   6.487   6.548  11.186  0.5165 -0.6069 -0.1487
20112SOL    HW165466   6.450   6.548  11.098 -1.4663 -1.4499  0.6597
20112SOL    HW265467   6.488   6.640  11.211 -1.3128 -0.5875 -0.0861
20113SOL     OW65468   3.264   1.135   9.311 -0.1008 -0.0743 -0.2744
20113SOL    HW165469   3.240   1.069   9.376  0.6195  1.7658  1.9425
20113SOL    HW265470   3.342   1.100   9.269 -1.0159 -1.6428 -0.7056
20114SOL     OW65471   3.294   6.638   3.769 -0.2798 -0.1176  0.2658
20114SOL    HW165472   3.367   6.577   3.758 -1.7158 -1.6719 -1.0669
20114SOL    HW265473   3.331   6.724   3.748  1.3666 -0.7487  0.4766
20115SOL     OW65474   6.239  10.119  11.102 -0.0238  0.0270  0.3756
20115SOL    HW165475   6.145  10.139  11.106 -0.1754 -0.1905 -1.7623
20115SOL    HW265476   6.243  10.024  11.114 -0.0116  0.1106  1.0766
20116SOL     OW65477   4.543   2.817   5.188  0.0610  0.9941  0.1478
20116SOL    HW165478   4.592   2.747   5.230  1.5195  1.9802  0.1517
20116SOL    HW265479   4.588   2.897   5.215  0.1124  1.7362 -2.0409
20117SOL     OW65480   8.236   4.808   4.300 -0.6114  0.1909 -0.0765
20117SOL    HW165481   8.261   4.762   4.219  1.3941  2.2699 -0.7037
20117SOL    HW265482   8.154   4.852   4.278 -1.1022 -0.8232 -0.3395
20118SOL     OW65483   9.415   1.552   8.940  0.2541 -0.0388 -0.2869
20118SOL    HW165484   9.393   1.460   8.957 -1.1586  0.2948 -0.2587
20118SOL    HW265485   9.495   1.548   8.888 -0.3028 -1.3153 -1.0649
20119SOL     OW65486   3.187   7.442   5.265 -0.3921 -0.2390  0.2748
20119SOL    HW165487   3.171   7.365   5.211 -0.5365 -2.2244  3.0546
20119SOL    HW265488   3.176   7.516   5.205 -2.7900 -2.2387 -1.8606
20120SOL     OW65489   7.551   2.569   1.881 -0.0556  0.3264 -0.0044
20120SOL    HW165490   7.532   2.570   1.975  1.3330  1.5531  0.2857
20120SOL    HW265491   7.635   2.613   1.873  0.8597 -1.6508 -1.6247
20121SOL     OW65492   4.717   6.723   2.718 -0.2557  0.1742 -0.4561
20121SOL    HW165493   4.671   6.655   2.767  0.5742 -0.3312 -0.3758
20121SOL    HW265494   4.708   6.802   2.771  1.8553 -0.6816  1.2353
20122SOL     OW65495   5.708  10.825   3.638 -0.0909 -0.0713  0.1057
20122SOL    HW165496   5.695  10.744   3.588 -0.6568 -0.4099  0.8128
20122SOL    HW265497   5.799  10.821   3.667 -0.6812 -1.4012  1.8258
20123SOL     OW65498   5.767   0.346   2.910 -0.2456  0.5660 -0.2269
20123SOL    HW165499   5.719   0.418   2.951 -0.5339 -0.4020  1.1729
20123SOL    HW265500   5.728   0.267   2.948  1.0277 -0.2801 -0.6617
20124SOL     OW65501   5.789   9.830   4.270 -0.5100 -0.5654  0.1815
20124SOL    HW165502   5.870   9.810   4.316 -0.5438 -1.8222 -0.2818
20124SOL    HW265503   5.777   9.924   4.282  0.1280 -0.6589  1.6750
20125SOL     OW65504   4.084   2.975   7.578 -0.0339 -0.5346 -0.4451
20125SOL    HW165505   4.045   2.891   7.602 -0.4123 -0.6274 -1.3842
20125SOL    HW265506   4.047   2.995   7.492  0.6427  0.2234 -0.5607
20126SOL     OW65507   5.124   5.361   4.013  0.3400  0.6564 -0.0550
20126SOL    HW165508   5.209   5.399   3.990 -0.7324  2.1390 -1.8130
20126SOL    HW265509   5.143   5.271   4.039  2.6479  1.5228  1.3887
20127SOL     OW65510   7.552   0.274   7.006  0.3880 -0.3115 -0.1384
20127SOL    HW165511   7.587   0.363   7.014  0.3843 -0.2556 -0.7688
20127SOL    HW265512   7.625   0.222   6.975  0.1597 -0.3664 -0.5888
20128SOL     OW65513   3.890   5.606   2.601  0.3670 -0.4346  0.1269
20128SOL    HW165514   3.930   5.683   2.642  3.7414 -2.7005  1.2507
20128SOL    HW265515   3.942   5.591   2.522 -0.2249 -1.5742 -0.0534
20129SOL     OW65516   0.219   4.396   0.015  0.4035  0.1298 -0.0535
20129SOL    HW165517   0.229   4.476  -0.037  2.1040  0.1471  0.2669
20129SOL    HW265518   0.300   4.390   0.066 -0.9286 -0.2341  2.1108
20130SOL     OW65519   8.364   4.290   0.588  0.5529  0.4080  0.2038
20130SOL    HW165520   8.360   4.378   0.625 -0.6219  1.3663 -2.1360
20130SOL    HW265521   8.273   4.264   0.576  0.8937 -0.9894  0.5118
20131SOL     OW65522   5.433   6.806   5.358  0.1931  0.2213 -0.1473
20131SOL    HW165523   5.432   6.723   5.309  0.8959  0.9785 -1.4543
20131SOL    HW265524   5.522   6.813   5.391 -0.1785 -0.0976  0.9375
20132SOL     OW65525  10.175   9.769   3.060 -0.1519 -0.4068 -0.5091
20132SOL    HW165526  10.204   9.762   3.151 -0.2785 -0.7187 -0.4904
20132SOL    HW265527  10.198   9.684   3.022  1.4722  0.3504 -1.2235
20133SOL     OW65528   5.507   2.608  10.556 -0.2591  0.0319  0.0466
20133SOL    HW165529   5.421   2.625  10.518 -0.2397  0.6788  0.2895
20133SOL    HW265530   5.569   2.645  10.494 -0.1565 -0.4404 -0.1315
20134SOL     OW65531   8.662   5.637   7.479 -0.3859  0.1060 -0.4905
20134SOL    HW165532   8.679   5.635   7.573 -0.0081  1.3766 -0.5189
20134SOL    HW265533   8.685   5.550   7.448 -0.8177 -0.4174  0.6495
20135SOL     OW65534   3.180   4.823   3.430 -0.3983 -0.3427  0.3110
20135SOL    HW165535   3.087   4.815   3.407 -0.0060 -0.1777 -1.4286
20135SOL    HW265536   3.225   4.820   3.346  1.2599 -1.5590  1.2224
20136SOL     OW65537  10.271   3.831   1.312 -0.2565  0.4160 -0.3445
20136SOL    HW165538  10.178   3.813   1.307 -0.3770  0.8832  0.1445
20136SOL    HW265539  10.305   3.765   1.373 -0.1179 -0.2970 -1.1852
20137SOL     OW65540   4.153  10.364   4.909 -0.4560  0.2239  0.2862
20137SOL    HW165541   4.138  10.449   4.867  1.1621  0.5599  0.3808
20137SOL    HW265542   4.107  10.302   4.852  2.4581  0.5564 -2.5823
20138SOL     OW65543  10.717   1.436   0.329 -0.5688 -0.4597  0.1113
20138SOL    HW165544  10.686   1.417   0.418 -2.5720 -0.2475 -0.5182
20138SOL    HW265545  10.778   1.366   0.310 -1.1011 -1.2395  1.1801
20139SOL     OW65546   8.293   2.831   0.886  0.3547 -0.0499  0.5990
20139SOL    HW165547   8.355   2.762   0.908  0.9108  0.6281  1.2020
20139SOL    HW265548   8.211   2.804   0.928  0.3104 -0.8173  0.0179
20140SOL     OW65549   4.044   8.029   9.416  0.3258 -0.1579 -0.5323
20140SOL    HW165550   4.005   8.114   9.393  0.0509 -0.1078  0.1077
20140SOL    HW265551   4.137   8.038   9.395  0.0703 -0.1496 -1.7305
20141SOL     OW65552   2.111   7.958   6.094 -0.1568 -0.2865  0.1566
20141SOL    HW165553   2.080   7.924   6.178 -3.8484  1.3460 -0.4218
20141SOL    HW265554   2.076   7.897   6.029 -2.3966  1.5881 -0.5103
20142SOL     OW65555   8.859   3.921   6.940 -0.4912  0.6519  0.6270
20142SOL    HW165556   8.914   3.959   7.008 -0.2229  0.1376  0.6991
20142SOL    HW265557   8.843   3.831   6.969  1.9878 -0.4868 -1.3591
20143SOL     OW65558   1.674  10.760   3.645  0.4834  0.7107 -0.2371
20143SOL    HW165559   1.665  10.799   3.732 -0.1669  1.2178 -0.5332
20143SOL    HW265560   1.638  10.825   3.585 -0.2113 -0.1649 -0.7760
20144SOL     OW65561   9.535   9.823   6.882 -0.2274  0.0211  0.3743
20144SOL    HW165562   9.630   9.816   6.891 -0.1977  0.7794  0.7570
20144SOL    HW265563   9.520   9.914   6.856 -0.6637 -0.8001 -2.4724
20145SOL     OW65564   0.993   0.019   9.772  0.1689 -0.4564  0.4617
20145SOL    HW165565   0.989   0.091   9.709 -0.4172 -0.5111  0.4307
20145SOL    HW265566   1.071   0.037   9.825 -0.8611  1.0763  1.5089
20146SOL     OW65567   1.384   3.033   8.541 -0.5203 -0.0688 -0.5317
20146SOL    HW165568   1.346   2.951   8.573 -1.5073  1.4992  2.5439
20146SOL    HW265569   1.477   3.027   8.562 -0.3615 -0.8875 -1.4357
20147SOL     OW65570   9.246   5.900   0.814 -0.1397  0.0563 -0.2717
20147SOL    HW165571   9.238   5.811   0.780  0.3389  0.3492 -1.1505
20147SOL    HW265572   9.319   5.895   0.876  1.4605  0.3549 -2.0860
20148SOL     OW65573   3.456   9.638   3.589 -0.1269  0.1433  0.0754
20148SOL    HW165574   3.468   9.551   3.627  1.2127  0.4625  0.3853
20148SOL    HW265575   3.454   9.623   3.495 -1.1538 -0.3704  0.1748
20149SOL     OW65576   2.126   4.201   2.626 -0.0322 -0.1458  0.3285
20149SOL    HW165577   2.078   4.142   2.568 -0.2065  0.3106  0.0078
20149SOL    HW265578   2.129   4.154   2.710  0.7965 -1.1001 -0.2107
20150SOL     OW65579   2.983   2.232   6.742  0.1361 -0.0040 -0.2659
20150SOL    HW165580   2.890   2.219   6.721 -0.6711  1.4508  2.1780
20150SOL    HW265581   3.028   2.221   6.658 -2.3551  0.3556 -1.7192
20151SOL     OW65582  10.492   9.659   5.723 -0.2316 -0.5096 -0.3311
20151SOL    HW165583  10.461   9.724   5.786  1.2583  0.6306 -0.7436
20151SOL    HW265584  10.414   9.635   5.673 -1.4633 -1.5392  2.0259
20152SOL     OW65585   5.646   5.629  10.522 -0.2501  0.1660 -0.2722
20152SOL    HW165586   5.641   5.724  10.515  0.5737  0.2556  0.2973
20152SOL    HW265587   5.590   5.607  10.596  1.9561  0.5017  1.5370
20153SOL     OW65588   3.814   6.341   4.433  0.1576  0.2976  0.3617
20153SOL    HW165589   3.869   6.277   4.388 -0.0041 -0.6808  1.5498
20153SOL    HW265590   3.833   6.424   4.388  2.2619 -0.0989  0.4422
20154SOL     OW65591   0.757   6.705   5.644  0.2561 -0.1791 -0.3191
20154SOL    HW165592   0.831   6.718   5.584 -1.7396  1.3762 -2.5442
20154SOL    HW265593   0.697   6.648   5.596 -0.3564 -0.7963  1.1446
20155SOL     OW65594   2.540   7.615   5.632 -0.0340 -0.0731  0.0236
20155SOL    HW165595   2.600   7.619   5.557 -0.0680  0.6210  0.0311
20155SOL    HW265596   2.473   7.680   5.612 -0.1550 -0.0321  0.5699
20156SOL     OW65597   8.052   5.215   3.327 -0.0098 -0.5047 -0.6986
20156SOL    HW165598   8.074   5.222   3.234  1.4480  0.7311 -0.2590
20156SOL    HW265599   8.136   5.210   3.372 -0.7064 -0.9951  0.5767
20157SOL     OW65600   5.192   4.615   3.991  0.2735  0.2832 -0.0209
20157SOL    HW165601   5.258   4.638   3.926  1.5230  2.7209  2.0232
20157SOL    HW265602   5.203   4.521   4.005  1.9518  0.2984 -1.2002
20158SOL     OW65603   5.127   5.644   3.921 -0.3801 -0.0948  0.1268
20158SOL    HW165604   5.090   5.562   3.952 -2.3313  0.0233 -1.7965
20158SOL    HW265605   5.106   5.707   3.989  1.3770 -1.1912  1.7524
20159SOL     OW65606   2.008   5.404   8.594 -0.1430 -0.3226 -0.0629
20159SOL    HW165607   1.930   5.372   8.638  0.4174 -1.6388  0.0063
20159SOL    HW265608   1.979   5.481   8.545 -0.8399  0.9619  2.3205
20160SOL     OW65609   4.102   6.961   5.013 -0.1129 -0.0695 -0.3589
20160SOL    HW165610   4.132   6.972   5.103  0.7889 -1.1096 -0.5193
20160SOL    HW265611   4.086   6.867   5.005 -0.6838  0.0867 -1.1345
20161SOL     OW65612   9.624   5.800   2.936  0.7749  0.4218 -0.6944
20161SOL    HW165613   9.584   5.729   2.986  1.9686 -0.3431 -0.7946
20161SOL    HW265614   9.553   5.862   2.921  0.1506  0.1886  1.0879
20162SOL     OW65615   1.331   2.205   9.124 -0.0929  0.0386 -0.2883
20162SOL    HW165616   1.363   2.206   9.214  0.7829  0.8708 -0.6046
20162SOL    HW265617   1.268   2.133   9.121  0.6342 -0.6303  0.7211
20163SOL     OW65618   7.392   5.247   4.638  0.2806  0.3286 -0.3797
20163SOL    HW165619   7.437   5.166   4.612  0.4880  0.2169  0.3087
20163SOL    HW265620   7.314   5.250   4.582 -0.9011 -1.5126  1.1069
20164SOL     OW65621   6.634   1.715   9.100 -0.5862 -0.1070  0.6651
20164SOL    HW165622   6.712   1.757   9.064 -0.6207  0.1800  0.9308
20164SOL    HW265623   6.578   1.700   9.023 -1.1088  1.4637  0.7246
20165SOL     OW65624   6.745   3.335   8.630 -0.2576  0.0122 -0.7677
20165SOL    HW165625   6.682   3.350   8.560 -1.1938  0.2537  0.1088
20165SOL    HW265626   6.704   3.269   8.686  1.2738 -1.5052 -1.4218
20166SOL     OW65627   7.661   5.809   0.115  0.0552  0.2367  0.1660
20166SOL    HW165628   7.591   5.823   0.050 -0.2771  0.9421  0.6780
20166SOL    HW265629   7.741   5.830   0.068 -0.0649 -0.5503 -0.4207
20167SOL     OW65630   3.985   2.176   4.324 -0.6478  0.7685 -0.5320
20167SOL    HW165631   3.908   2.212   4.280 -1.0137  0.4462 -0.1652
20167SOL    HW265632   3.972   2.081   4.323 -0.1585  0.7031 -0.6469
20168SOL     OW65633   7.424   7.821   0.398  0.4539  0.3750  0.3679
20168SOL    HW165634   7.388   7.807   0.310  4.0342 -0.3948 -1.0341
20168SOL    HW265635   7.427   7.916   0.407 -0.1882  0.4583 -0.1984
20169SOL     OW65636   6.606   8.453   4.564 -0.7876  0.2741 -0.2431
20169SOL    HW165637   6.646   8.508   4.497 -0.4486  0.1992 -0.1057
20169SOL    HW265638   6.522   8.427   4.527 -0.6500  0.3243 -0.5931
20170SOL     OW65639   5.758   7.119   3.240  0.8723  0.4726 -0.3684
20170SOL    HW165640   5.730   7.074   3.161  2.7097 -1.6196  0.1338
20170SOL    HW265641   5.738   7.211   3.223 -3.2070 -0.4877 -1.2926
20171SOL     OW65642  11.223   2.920   5.685  0.5242  0.5884  0.9007
20171SOL    HW165643  11.292   2.978   5.654  1.2756 -0.6133  0.2630
20171SOL    HW265644  11.194   2.874   5.606 -1.1968  1.2695  1.1130
20172SOL     OW65645  11.329   6.615   4.111 -0.1799 -0.0781  0.4921
20172SOL    HW165646  11.401   6.598   4.171 -0.0327 -0.7593  0.1281
20172SOL    HW265647  11.363   6.591   4.025 -0.1052  1.6498  0.0058
20173SOL     OW65648   9.467   5.373   7.014  0.0777 -0.2101 -0.1567
20173SOL    HW165649   9.471   5.295   7.069  0.4593  0.4022  0.6862
20173SOL    HW265650   9.559   5.396   6.998 -0.0294  0.5538  0.2949
20174SOL     OW65651  10.294   8.400   1.894 -1.1959  0.0897 -0.5626
20174SOL    HW165652  10.294   8.496   1.890 -0.5681  0.1170  0.0597
20174SOL    HW265653  10.296   8.372   1.802 -0.3425  0.6753 -0.7253
20175SOL     OW65654   6.467   8.511   3.789  0.0250 -0.0283 -0.6999
20175SOL    HW165655   6.446   8.420   3.772 -0.4227 -0.3906  1.6565
20175SOL    HW265656   6.554   8.509   3.829 -1.3064  0.2638  2.3129
20176SOL     OW65657   6.914   1.760  10.819 -0.2917 -0.1269  0.0286
20176SOL    HW165658   6.976   1.780  10.890 -0.0366  0.5779 -0.3908
20176SOL    HW265659   6.840   1.818  10.835  1.2622  2.5847 -2.2841
20177SOL     OW65660   6.391   3.323   7.135  0.5595  0.1152  0.1645
20177SOL    HW165661   6.424   3.267   7.205 -0.1756  1.1893  1.4071
20177SOL    HW265662   6.454   3.395   7.130  1.8661 -1.1109 -1.8795
20178SOL     OW65663   7.143   8.189  11.287 -0.7110  0.4693 -0.5486
20178SOL    HW165664   7.075   8.238  11.332 -1.1649  0.3951 -1.1416
20178SOL    HW265665   7.097   8.143  11.216 -1.0402 -4.2600  2.5310
20179SOL     OW65666   8.549   5.008   4.687 -0.4586  0.1461  0.4084
20179SOL    HW165667   8.559   4.913   4.681  1.5117  0.2022  2.0434
20179SOL    HW265668   8.455   5.023   4.689 -0.7793 -1.9004  1.8547
20180SOL     OW65669   0.380   5.571   6.257  0.0669  0.0926  0.6090
20180SOL    HW165670   0.322   5.500   6.230  0.9421 -0.2442 -0.3910
20180SOL    HW265671   0.360   5.583   6.350 -1.1338 -0.4608  0.4398
20181SOL     OW65672   0.251   5.410   7.747 -0.2862 -0.2973  0.1470
20181SOL    HW165673   0.162   5.376   7.740 -0.6916  0.7752 -0.0938
20181SOL    HW265674   0.307   5.336   7.725 -1.1335 -0.8427 -0.2164
20182SOL     OW65675   7.616   1.741   7.819 -0.0775 -0.1782 -0.5766
20182SOL    HW165676   7.633   1.664   7.764  0.3298 -1.5457  1.4232
20182SOL    HW265677   7.690   1.800   7.801  0.9098 -1.3103 -0.2681
20183SOL     OW65678   0.429  10.577   1.430 -0.5904 -0.2415  0.0055
20183SOL    HW165679   0.494  10.639   1.398  0.8623 -1.1972  1.0589
20183SOL    HW265680   0.346  10.624   1.422  0.3884  1.5435  0.0700
20184SOL     OW65681   2.480   1.714   7.036  0.0098 -0.1792 -0.2067
20184SOL    HW165682   2.554   1.664   7.069 -0.1866 -0.0795  0.3940
20184SOL    HW265683   2.464   1.780   7.103 -0.9735 -0.5496 -0.0729
20185SOL     OW65684   2.763   7.738   8.471  0.7695  0.0510  0.1130
20185SOL    HW165685   2.698   7.668   8.468  0.2412  0.5249  0.4298
20185SOL    HW265686   2.757   7.773   8.560  0.5341  0.9639 -0.2595
20186SOL     OW65687   1.982   3.316   9.637  0.6885  0.2731  0.3218
20186SOL    HW165688   1.933   3.316   9.719 -0.3358  2.0884 -0.2674
20186SOL    HW265689   1.920   3.284   9.571  1.1687 -0.1412  0.0674
20187SOL     OW65690   9.761   1.544   5.702 -0.3453 -0.3650  0.2866
20187SOL    HW165691   9.687   1.605   5.704 -1.0263 -1.1437 -0.3471
20187SOL    HW265692   9.734   1.472   5.759 -0.1346 -0.7072 -0.0437
20188SOL     OW65693   3.530   6.531   9.139 -0.3865 -0.3982 -0.0744
20188SOL    HW165694   3.610   6.522   9.191  1.1394  0.0162 -2.2971
20188SOL    HW265695   3.534   6.619   9.102 -0.7153 -1.1750 -2.0345
20189SOL     OW65696   6.886   3.053   2.392 -0.1277  0.1171  0.1145
20189SOL    HW165697   6.961   2.994   2.402  0.0771  0.4916  0.8264
20189SOL    HW265698   6.924   3.141   2.392 -0.6018  0.3267  0.8719
20190SOL     OW65699   9.402   2.780   9.471 -0.1544 -0.7706 -0.0529
20190SOL    HW165700   9.403   2.686   9.489  1.3416 -0.8038 -0.1831
20190SOL    HW265701   9.360   2.787   9.385  1.2953 -1.4935 -0.8416
20191SOL     OW65702   4.160   7.886  10.730 -0.2974 -0.1621  0.1550
20191SOL    HW165703   4.110   7.846  10.801  0.0244  0.4625  0.7337
20191SOL    HW265704   4.182   7.813  10.672 -1.3892 -0.5328  0.1906
20192SOL     OW65705   1.727   5.251  10.181  0.1334 -0.2679  0.0785
20192SOL    HW165706   1.748   5.228  10.090  1.6181  0.6731  0.1554
20192SOL    HW265707   1.677   5.177  10.214  0.6764 -1.1924 -1.1309
20193SOL     OW65708  10.786   7.571   2.241 -0.2755  0.2143 -0.4080
20193SOL    HW165709  10.749   7.541   2.324 -1.1250  0.4676 -0.6919
20193SOL    HW265710  10.711   7.579   2.182  0.2822  0.3306 -1.1151
20194SOL     OW65711   0.801   8.328   1.074 -0.4169 -0.0341 -0.4647
20194SOL    HW165712   0.824   8.238   1.096 -1.5769 -0.3687 -0.5642
20194SOL    HW265713   0.774   8.368   1.157  0.3881  0.3169 -0.3680
20195SOL     OW65714   8.759   3.835   4.475 -0.2995  0.0588 -0.0015
20195SOL    HW165715   8.719   3.878   4.550 -1.1696  0.3978 -0.6450
20195SOL    HW265716   8.826   3.778   4.512  0.9364  2.0450  0.8572
20196SOL     OW65717   1.172   6.859   1.574  0.1252  0.8982  0.4574
20196SOL    HW165718   1.183   6.918   1.649  2.7025  1.7501 -0.5208
20196SOL    HW265719   1.210   6.907   1.500  0.0686 -1.0248 -0.8667
20197SOL     OW65720   0.097   6.602   3.852 -0.3752  0.1929 -0.4287
20197SOL    HW165721   0.075   6.586   3.761  0.5239 -0.0961 -0.6002
20197SOL    HW265722   0.079   6.696   3.865 -3.3540 -0.3805 -0.0710
20198SOL     OW65723   1.318   2.958   8.921  0.6543 -0.0883  0.3958
20198SOL    HW165724   1.342   2.907   8.844 -2.1178 -2.7258  1.1647
20198SOL    HW265725   1.231   2.994   8.901  0.7612  0.8689  1.5160
20199SOL     OW65726   7.569   4.029   1.108  0.5639 -0.4931  0.4979
20199SOL    HW165727   7.510   4.102   1.126  1.7732  0.5473  0.3348
20199SOL    HW265728   7.631   4.030   1.181  1.7266 -0.1601 -0.4796
20200SOL     OW65729   0.006   7.502   1.503  0.0340  0.5549 -0.2748
20200SOL    HW165730  -0.068   7.464   1.456  1.8172 -1.3790 -1.5977
20200SOL    HW265731  -0.000   7.466   1.592  0.0283 -0.4962 -0.7023
20201SOL     OW65732   5.828   1.273   6.374 -0.1242  0.5776 -0.0937
20201SOL    HW165733   5.748   1.284   6.425 -0.9652 -1.6450 -0.8640
20201SOL    HW265734   5.889   1.230   6.433 -0.5052 -0.3786 -0.3756
20202SOL     OW65735   8.393   1.135   2.427 -0.7851 -0.0127  0.2398
20202SOL    HW165736   8.442   1.141   2.508  1.4773  2.1352 -1.2259
20202SOL    HW265737   8.445   1.077   2.372 -1.8054 -0.6793 -0.0457
20203SOL     OW65738   1.879   5.248   2.514 -0.0266  0.0776  0.6549
20203SOL    HW165739   1.814   5.194   2.470  0.3493 -0.3467  0.6183
20203SOL    HW265740   1.889   5.208   2.600 -0.1467  0.4130  0.8276
20204SOL     OW65741   3.001   5.934   6.663 -0.3790  0.0512 -0.2764
20204SOL    HW165742   3.060   5.920   6.589 -0.5729 -0.3584 -0.3533
20204SOL    HW265743   2.965   5.847   6.683  0.0819  0.0630  0.6489
20205SOL     OW65744  10.308   1.900   7.988 -0.0508 -0.4009 -0.4574
20205SOL    HW165745  10.315   1.811   8.024 -0.1593 -0.2637 -0.0932
20205SOL    HW265746  10.298   1.887   7.894  0.6825 -0.7540 -0.4926
20206SOL     OW65747   7.660  10.554   5.698  0.7848 -0.0843 -0.3496
20206SOL    HW165748   7.727  10.553   5.630  0.0493 -0.1546 -1.0897
20206SOL    HW265749   7.587  10.603   5.659  0.6528  0.5714  0.6853
20207SOL     OW65750   7.129   1.045   6.047  0.4116 -0.0781  0.1609
20207SOL    HW165751   7.210   1.007   6.012  1.5426  1.7628  0.7225
20207SOL    HW265752   7.144   1.049   6.142 -0.5487 -0.1758  0.3179
20208SOL     OW65753   3.214   6.159   7.058  0.2028 -0.1336 -0.0080
20208SOL    HW165754   3.132   6.135   7.015 -0.1132  0.5288  0.2230
20208SOL    HW265755   3.202   6.251   7.082  2.4821  1.1911 -3.4599
20209SOL     OW65756   4.210   7.385   9.647 -0.1830  0.1104 -0.2947
20209SOL    HW165757   4.263   7.321   9.695 -0.1889  0.0635 -0.3518
20209SOL    HW265758   4.132   7.337   9.621 -0.4536  0.2968  0.1611
20210SOL     OW65759   9.809   3.363   6.877  0.5559  0.3929  0.1416
20210SOL    HW165760   9.732   3.390   6.927  0.6354  1.2693 -0.2056
20210SOL    HW265761   9.857   3.444   6.862  1.3499 -0.0960  0.0155
20211SOL     OW65762  11.020   7.734   9.413  0.0769  0.2408 -0.1170
20211SOL    HW165763  10.932   7.732   9.375 -0.0760 -1.8240  0.2862
20211SOL    HW265764  11.025   7.818   9.458 -1.9271  0.1177  0.3879
20212SOL     OW65765   4.019  10.797   6.933 -0.9796  0.6365  0.2146
20212SOL    HW165766   3.968  10.721   6.904 -2.0754  1.5419 -0.2791
20212SOL    HW265767   3.989  10.813   7.023 -1.4335  1.0549 -0.0107
20213SOL     OW65768   4.469   9.869   7.490  0.5910 -0.3057  0.3680
20213SOL    HW165769   4.483   9.855   7.584 -0.3964  0.1131  0.5883
20213SOL    HW265770   4.389   9.922   7.486  0.4023 -0.6707 -0.7207
20214SOL     OW65771   1.569   1.456   2.885  0.2433 -0.2056 -0.3168
20214SOL    HW165772   1.557   1.476   2.978 -2.2422 -0.6709 -0.5193
20214SOL    HW265773   1.525   1.528   2.839  3.1280  1.0782 -1.2079
20215SOL     OW65774   2.469  10.032   2.953 -0.2509 -0.7606  0.6890
20215SOL    HW165775   2.375  10.036   2.936  0.1725 -0.0479 -1.6125
20215SOL    HW265776   2.498   9.952   2.910  0.6291  0.4467 -1.0624
20216SOL     OW65777   3.274   3.666   6.962 -0.7110  0.5576 -0.3714
20216SOL    HW165778   3.356   3.619   6.949 -0.5250  0.3253  1.5521
20216SOL    HW265779   3.300   3.758   6.960 -0.1034  0.4690  1.9187
20217SOL     OW65780   2.166   9.393   0.602  0.0330 -0.0062  0.3966
20217SOL    HW165781   2.094   9.456   0.606  1.3140  1.4855  1.0194
20217SOL    HW265782   2.156   9.350   0.518 -0.9788  0.9284  0.0213
20218SOL     OW65783   0.402   6.213  10.320 -0.1827  0.1963  0.7905
20218SOL    HW165784   0.361   6.295  10.292  1.7557  1.2464  0.9186
20218SOL    HW265785   0.442   6.178  10.240  0.9324  0.5524  1.1794
20219SOL     OW65786   9.074   3.644   2.706 -0.4754  0.3682 -0.4356
20219SOL    HW165787   9.167   3.635   2.725 -0.1021  0.0119 -2.3761
20219SOL    HW265788   9.049   3.726   2.748  0.7200  0.5075  0.0245
20220SOL     OW65789   1.989   2.812   8.437 -0.6772 -0.3055 -0.3384
20220SOL    HW165790   2.064   2.783   8.384  0.6294  2.6126 -0.1583
20220SOL    HW265791   1.994   2.759   8.517  0.1730 -1.3480 -1.0709
20221SOL     OW65792   8.187   6.659   0.501  0.3503 -0.3164 -0.5532
20221SOL    HW165793   8.216   6.613   0.422 -0.2259 -0.3672 -0.7357
20221SOL    HW265794   8.105   6.617   0.524 -0.1429  0.5767 -0.6804
20222SOL     OW65795   3.747   6.116   0.874 -0.6308 -0.4160 -0.2282
20222SOL    HW165796   3.665   6.076   0.903 -0.1182 -1.3630 -0.0620
20222SOL    HW265797   3.727   6.209   0.868 -1.9490 -0.7226 -0.9337
20223SOL     OW65798   4.254   4.149   6.898  0.1660  0.3132 -0.2665
20223SOL    HW165799   4.272   4.058   6.922  0.0727  0.0872 -1.0108
20223SOL    HW265800   4.194   4.181   6.965  2.3411  0.6852  1.5532
20224SOL     OW65801   1.536   3.177   2.021  0.6175 -0.2476  0.1494
20224SOL    HW165802   1.507   3.086   2.032 -1.0418  0.0729 -1.2480
20224SOL    HW265803   1.622   3.169   1.980 -0.4465 -1.2098 -1.9896
20225SOL     OW65804   3.284   5.301  10.833  0.7628  0.3355  0.3873
20225SOL    HW165805   3.239   5.248  10.898  1.3668  1.7045  1.9415
20225SOL    HW265806   3.367   5.255  10.818  1.1680  0.6847  1.5276
20226SOL     OW65807   7.971   0.519   9.096  0.1345 -0.0578  0.1209
20226SOL    HW165808   7.972   0.492   9.005  1.0833  2.1861 -0.5796
20226SOL    HW265809   7.910   0.459   9.139 -0.1945 -1.2292 -1.9483
20227SOL     OW65810   5.019   3.804   9.939  0.2062  0.1971 -0.0948
20227SOL    HW165811   4.936   3.852   9.946  0.2281  0.3940 -1.0944
20227SOL    HW265812   5.086   3.870   9.960  0.1139  0.0711  0.5873
20228SOL     OW65813   7.588   2.309   8.258  0.0830  0.2526  0.5784
20228SOL    HW165814   7.554   2.220   8.264 -0.7345  0.4025 -1.4003
20228SOL    HW265815   7.680   2.298   8.232 -0.2833 -0.0021 -0.6361
20229SOL     OW65816   7.739   2.711   2.507 -0.2390  0.2028 -0.6029
20229SOL    HW165817   7.768   2.759   2.430  1.0366  1.3179  0.5497
20229SOL    HW265818   7.819   2.671   2.541 -0.8948 -0.7683 -0.1914
20230SOL     OW65819   0.236  10.246   2.513  0.3840  0.6111  0.3890
20230SOL    HW165820   0.319  10.200   2.499  0.5860  1.3498 -1.0231
20230SOL    HW265821   0.175  10.178   2.540  0.7853 -0.4224 -1.2147
20231SOL     OW65822  10.505   4.790   0.566  0.2490 -0.2837  0.0111
20231SOL    HW165823  10.560   4.868   0.560 -0.3439  0.3864  2.8456
20231SOL    HW265824  10.566   4.718   0.582  0.4883  0.1612  1.1425
20232SOL     OW65825   3.538   1.089   3.645 -0.0175 -0.1630  0.0848
20232SOL    HW165826   3.509   1.098   3.555  1.4623 -0.9066 -0.4839
20232SOL    HW265827   3.517   0.998   3.668 -0.4178  0.0311  0.5034
20233SOL     OW65828   6.827   4.654   4.849 -0.0723 -0.0773  0.2601
20233SOL    HW165829   6.904   4.672   4.903 -0.3350  0.4271  0.4660
20233SOL    HW265830   6.770   4.730   4.862  0.4622  0.7148 -1.8157
20234SOL     OW65831  10.847   0.747   1.494  0.7671 -0.2964  0.1362
20234SOL    HW165832  10.825   0.709   1.409  0.7469  0.5107 -0.2302
20234SOL    HW265833  10.933   0.788   1.480  0.7854 -0.2034  0.5125
20235SOL     OW65834   0.902  10.247   1.982  0.0242  0.1107  0.7164
20235SOL    HW165835   0.833  10.221   1.921  1.3785 -1.0549 -0.3471
20235SOL    HW265836   0.879  10.336   2.008 -0.5634  0.6242 -1.5083
20236SOL     OW65837  11.325   2.847   4.225  0.4422 -0.0945  0.0969
20236SOL    HW165838  11.350   2.938   4.210 -0.1202  0.1364  0.5485
20236SOL    HW265839  11.343   2.831   4.318 -0.1497 -0.2224  0.1908
20237SOL     OW65840   4.941  10.433   0.736 -0.5649  0.2900 -0.5663
20237SOL    HW165841   4.902  10.352   0.771 -0.4782 -0.7316 -2.7254
20237SOL    HW265842   4.878  10.462   0.669  0.8477  0.3352 -1.9080
20238SOL     OW65843   3.563   4.379  10.360  0.3875 -0.1258 -0.0666
20238SOL    HW165844   3.491   4.443  10.366  0.8125  0.1890  1.7200
20238SOL    HW265845   3.538   4.324  10.285 -0.3532  1.6620 -1.1951
20239SOL     OW65846   8.295  10.096   2.970 -0.3891 -0.5240  0.2481
20239SOL    HW165847   8.341  10.136   2.897  0.3041 -1.1832  0.3177
20239SOL    HW265848   8.233  10.036   2.930  0.9553 -1.9227  0.2214
20240SOL     OW65849  10.019   0.909   1.546 -0.5488 -0.7448  0.3839
20240SOL    HW165850  10.074   0.922   1.623 -1.5165 -0.7254  1.0854
20240SOL    HW265851  10.008   0.996   1.509 -1.8311 -0.4404  1.4555
20241SOL     OW65852   2.138   2.176   0.303  0.4096  0.1208 -0.2572
20241SOL    HW165853   2.224   2.206   0.272 -0.7399  0.5315 -3.2493
20241SOL    HW265854   2.104   2.250   0.352  1.3478  0.3392  0.0813
20242SOL     OW65855   2.641   0.544   8.413  0.1075  0.1538 -0.1000
20242SOL    HW165856   2.720   0.502   8.448  0.9044  1.7084 -0.0177
20242SOL    HW265857   2.673   0.616   8.360 -1.2760  1.4382  0.7550
20243SOL     OW65858   2.321  11.329   4.108  0.2120 -0.0207  0.3269
20243SOL    HW165859   2.289  11.266   4.044 -0.5641 -0.8443  1.5005
20243SOL    HW265860   2.411  11.301   4.127  0.6543  0.5814 -0.8234
20244SOL     OW65861   0.793   4.305   4.213 -0.3863 -0.2682  0.0223
20244SOL    HW165862   0.882   4.271   4.199 -0.2269  0.2704 -0.2917
20244SOL    HW265863   0.804   4.375   4.277 -0.0111  2.3855 -2.8259
20245SOL     OW65864   5.761   5.510   6.698  0.2133  0.0788 -0.0366
20245SOL    HW165865   5.766   5.578   6.631 -2.6309 -0.8821 -1.2817
20245SOL    HW265866   5.712   5.550   6.770 -0.7339 -0.3744 -0.4271
20246SOL     OW65867   5.705   4.541   1.215 -0.5475  0.2432 -0.3038
20246SOL    HW165868   5.736   4.463   1.169 -0.4337  0.7284 -1.0692
20246SOL    HW265869   5.777   4.565   1.273 -0.4483 -0.0219 -0.3148
20247SOL     OW65870  10.519   2.316   9.223  0.0056 -0.2671 -0.4552
20247SOL    HW165871  10.444   2.317   9.164 -1.7968  2.7910  1.7509
20247SOL    HW265872  10.580   2.379   9.186  0.6422 -1.2923 -1.1747
20248SOL     OW65873   5.169   0.754   9.364 -0.1831  0.8249 -0.3614
20248SOL    HW165874   5.224   0.795   9.431  1.0712 -1.0015 -0.2382
20248SOL    HW265875   5.166   0.819   9.293  1.0386  1.4984  0.1822
20249SOL     OW65876   5.209   3.339  10.566  0.3947 -0.0965 -0.0200
20249SOL    HW165877   5.127   3.289  10.564  0.2918  0.0638  0.1702
20249SOL    HW265878   5.244   3.323  10.654 -0.4826  1.5291  0.6386
20250SOL     OW65879   5.325   8.469   0.985  0.5449 -0.0997 -0.1211
20250SOL    HW165880   5.362   8.544   0.940  0.1698 -0.4343 -1.0100
20250SOL    HW265881   5.387   8.449   1.055  1.4864  0.0103 -0.9199
20251SOL     OW65882   7.725   3.829   0.231  0.3267  0.5274  0.3019
20251SOL    HW165883   7.690   3.879   0.304  1.2919  0.6107  0.7144
20251SOL    HW265884   7.818   3.852   0.228  0.5265 -0.3157 -0.2614
20252SOL     OW65885   6.875   2.525   2.799 -0.2613 -0.1221  0.3560
20252SOL    HW165886   6.810   2.554   2.863 -0.3740 -0.1213  0.2411
20252SOL    HW265887   6.953   2.507   2.851 -0.0822  0.7226  0.3926
20253SOL     OW65888  10.659   7.004   4.928 -0.1547  0.3458  0.0723
20253SOL    HW165889  10.737   6.975   4.881 -0.4543  0.9636 -0.8112
20253SOL    HW265890  10.678   7.094   4.952  0.3973 -0.2504  2.0264
20254SOL     OW65891   4.522   8.615   3.051 -0.1565  0.1388  0.2013
20254SOL    HW165892   4.534   8.642   3.142  0.3631  0.8977 -0.0882
20254SOL    HW265893   4.600   8.564   3.030  0.7057  1.6871 -0.4390
20255SOL     OW65894   9.730   6.213   4.444 -0.1797 -0.2751  0.2545
20255SOL    HW165895   9.756   6.287   4.389 -1.3051  1.5785  2.1067
20255SOL    HW265896   9.812   6.170   4.468  0.4923  0.3422 -0.8884
20256SOL     OW65897  11.177   6.851   0.730  0.3361 -0.6240 -0.0742
20256SOL    HW165898  11.138   6.768   0.757  2.1325 -1.2278  0.7023
20256SOL    HW265899  11.143   6.915   0.793  1.1483 -1.2661  1.0260
20257SOL     OW65900   1.632   1.712   7.651  0.2380  0.1374 -0.6584
20257SOL    HW165901   1.539   1.728   7.638 -0.1433 -2.0026 -0.7510
20257SOL    HW265902   1.674   1.759   7.579 -0.6532  2.1727  0.1173
20258SOL     OW65903   2.626  10.401   6.699 -0.1752 -0.0526  0.2018
20258SOL    HW165904   2.614  10.388   6.605  1.5022 -0.1322 -0.0196
20258SOL    HW265905   2.612  10.315   6.737 -2.7222  0.3459  0.2551
20259SOL     OW65906  11.293   3.905   3.069  0.4598  0.3835 -0.3214
20259SOL    HW165907  11.226   3.908   3.137  0.4396  1.5952 -0.3849
20259SOL    HW265908  11.376   3.920   3.115  0.8329 -2.0794 -0.0964
20260SOL     OW65909   6.098   5.381   3.897  0.8120 -0.1457  0.5085
20260SOL    HW165910   6.059   5.306   3.943  1.9290 -0.9313  0.2197
20260SOL    HW265911   6.031   5.448   3.898 -0.0061 -0.9640  1.2857
20261SOL     OW65912   6.437   3.253   9.547 -0.3749 -0.0937 -0.2376
20261SOL    HW165913   6.421   3.310   9.473 -0.6560 -0.7780 -0.7108
20261SOL    HW265914   6.389   3.172   9.527 -2.4565  0.5765  1.8088
20262SOL     OW65915   1.271   3.402  10.674 -0.1729  0.3275  0.3186
20262SOL    HW165916   1.229   3.478  10.632  1.3316  1.5587  0.9949
20262SOL    HW265917   1.324   3.363  10.605  0.2174  0.7746  0.3646
20263SOL     OW65918   0.963   2.132   8.028 -0.8722 -0.5350  0.3878
20263SOL    HW165919   0.966   2.079   8.107 -1.2207 -0.8323  0.2049
20263SOL    HW265920   0.899   2.201   8.047 -0.8879 -0.5523  0.3978
20264SOL     OW65921  10.459   9.440   3.109 -0.4813 -0.3776 -0.4935
20264SOL    HW165922  10.418   9.483   3.185  0.5237 -0.6924  0.2383
20264SOL    HW265923  10.491   9.357   3.143  1.7337  0.3180 -0.7723
20265SOL     OW65924  11.186   9.463   1.744  0.6833 -0.5798 -0.2822
20265SOL    HW165925  11.139   9.535   1.785  0.4283 -0.4075 -0.8768
20265SOL    HW265926  11.121   9.422   1.686  0.4724 -1.9989  0.9042
20266SOL     OW65927   3.217   0.919   7.043 -0.0127 -0.7872  0.6495
20266SOL    HW165928   3.210   0.868   6.962  0.0957  1.3363 -0.7223
20266SOL    HW265929   3.289   0.980   7.027  1.0529 -1.3811  2.9505
20267SOL     OW65930   6.855   9.708   0.794 -0.0686 -0.3864  0.0238
20267SOL    HW165931   6.894   9.622   0.808  0.8649  0.2001  1.1088
20267SOL    HW265932   6.796   9.720   0.869 -0.8603 -0.4507 -0.5885
20268SOL     OW65933   5.697   6.697   8.888  0.0063 -0.1664 -0.1229
20268SOL    HW165934   5.766   6.752   8.925 -0.1004 -0.9101  1.2222
20268SOL    HW265935   5.733   6.608   8.892  0.3884 -0.1784 -2.7614
20269SOL     OW65936  10.094   4.843  10.293  0.3953 -0.2242  0.3634
20269SOL    HW165937  10.159   4.875  10.355  0.7772 -0.8405  0.2896
20269SOL    HW265938  10.077   4.917  10.235  2.1938 -0.5414 -0.5796
20270SOL     OW65939   6.071   1.529   6.970  0.4499  0.2880  0.7160
20270SOL    HW165940   6.160   1.496   6.971  1.2602  2.4243  1.0134
20270SOL    HW265941   6.046   1.530   6.878  1.0087  0.3917  0.5668
20271SOL     OW65942   6.479  10.251   9.401  0.1137  0.4000  0.0805
20271SOL    HW165943   6.529  10.259   9.482  2.2053 -0.9366 -1.0428
20271SOL    HW265944   6.505  10.327   9.350  0.7679 -0.1070 -0.3564
20272SOL     OW65945   5.235   9.579   1.829  0.3039  0.0544 -0.4092
20272SOL    HW165946   5.249   9.535   1.913  1.2753 -0.0202 -0.6050
20272SOL    HW265947   5.140   9.589   1.823  0.2799  0.9860  1.1645
20273SOL     OW65948   2.200  10.909   2.486 -0.0098  0.2692  0.0841
20273SOL    HW165949   2.144  10.891   2.410 -0.8936 -0.6083  0.9268
20273SOL    HW265950   2.140  10.904   2.561  1.0174  0.3168  0.9098
20274SOL     OW65951   9.424   8.465  10.118 -0.3979 -0.1474  0.2346
20274SOL    HW165952   9.453   8.413  10.194  3.0746 -0.2125 -1.0429
20274SOL    HW265953   9.461   8.552  10.133 -2.2538  0.6926  0.0570
20275SOL     OW65954   6.393   0.103   0.021 -0.0462 -0.1853 -0.1657
20275SOL    HW165955   6.370   0.188   0.058 -1.0014 -0.0554 -1.0237
20275SOL    HW265956   6.320   0.082  -0.037  0.7310 -1.0507 -0.8503
20276SOL     OW65957  10.908   5.704   1.783  0.0839 -0.5305 -0.0859
20276SOL    HW165958  10.831   5.691   1.728 -1.6341 -0.1750  2.2056
20276SOL    HW265959  10.879   5.760   1.854  3.2030  2.0655 -0.7125
20277SOL     OW65960   9.186   3.183   6.246 -0.6052  0.2628  0.6218
20277SOL    HW165961   9.192   3.106   6.302  1.2706  0.1046  0.2635
20277SOL    HW265962   9.269   3.229   6.260  0.0227  0.0929 -2.1770
20278SOL     OW65963   9.091   2.745   5.359 -0.1639 -0.0557 -0.5411
20278SOL    HW165964   9.170   2.799   5.371 -1.6778  2.2885 -0.8468
20278SOL    HW265965   9.022   2.808   5.339 -1.3746 -2.3583 -4.0415
20279SOL     OW65966   6.074   3.339   6.252  0.2413 -0.1226  0.0412
20279SOL    HW165967   6.066   3.367   6.344  0.9315 -1.0339  0.3867
20279SOL    HW265968   6.146   3.392   6.217  1.6444 -1.5323  0.7345
20280SOL     OW65969   8.100   9.233   5.079  0.1785 -0.2250  0.6703
20280SOL    HW165970   8.178   9.192   5.116  1.0486  1.1849  0.4466
20280SOL    HW265971   8.120   9.327   5.079 -0.7523 -0.0067 -1.1470
20281SOL     OW65972   7.338   2.134   8.065  0.0639 -0.1061  0.0558
20281SOL    HW165973   7.343   2.092   8.151 -1.0363  0.1875  0.2764
20281SOL    HW265974   7.246   2.123   8.038  0.2284  0.4391 -0.7496
20282SOL     OW65975   4.362   4.729   7.313  0.2350 -0.3254  0.8131
20282SOL    HW165976   4.378   4.668   7.386  0.8073  0.3896  1.2948
20282SOL    HW265977   4.448   4.743   7.274 -0.4448 -2.8501 -1.7708
20283SOL     OW65978   4.310   9.011   3.081  0.0365  0.2911  0.7755
20283SOL    HW165979   4.313   9.099   3.120 -0.0029  0.9749 -0.7459
20283SOL    HW265980   4.217   8.989   3.078 -0.0040  0.5170  0.4305
20284SOL     OW65981   5.279   4.698   2.058 -0.0670 -0.0792 -0.5250
20284SOL    HW165982   5.307   4.726   2.145  2.0979  0.1694 -1.2671
20284SOL    HW265983   5.214   4.630   2.075 -0.2414  0.4961  1.2837
20285SOL     OW65984   1.840   9.008   5.584 -0.6028 -0.2198 -0.8263
20285SOL    HW165985   1.799   8.968   5.661 -0.2699  0.3169 -0.3710
20285SOL    HW265986   1.812   9.099   5.585  0.4156  0.1046 -0.6325
20286SOL     OW65987   1.026   8.977   0.476  0.1635 -0.0732  0.3957
20286SOL    HW165988   1.103   8.934   0.439  0.8051  0.2955  1.2685
20286SOL    HW265989   0.988   8.913   0.536 -0.3232 -0.3226 -0.1742
20287SOL     OW65990   3.403   3.356   2.226  0.0169  0.5884 -0.5322
20287SOL    HW165991   3.313   3.330   2.247  0.5631 -2.8337 -2.1144
20287SOL    HW265992   3.400   3.381   2.134  0.7785  0.0464 -0.7062
20288SOL     OW65993  10.415   7.266   9.978  0.6742  0.0476  0.3857
20288SOL    HW165994  10.446   7.277  10.068  1.4768  2.5678 -0.1663
20288SOL    HW265995  10.325   7.299   9.980 -0.1109 -2.0104  0.7239
20289SOL     OW65996   3.632   5.089  11.265 -0.2251  0.3027  0.9569
20289SOL    HW165997   3.702   5.086  11.330 -0.3711  1.2760  1.1606
20289SOL    HW265998   3.603   5.180  11.264 -1.0562  0.0420  0.4107
20290SOL     OW65999   9.200   8.512   1.915 -0.1811 -0.1183  0.2746
20290SOL    HW166000   9.256   8.435   1.904  0.2191  0.2798 -0.5691
20290SOL    HW266001   9.261   8.586   1.911 -0.9143  0.3922 -1.9915
20291SOL     OW66002   3.482   1.617   2.380  0.2168 -0.1526  0.5506
20291SOL    HW166003   3.403   1.668   2.391 -0.1420 -0.4415 -0.6176
20291SOL    HW266004   3.452   1.532   2.348  1.1106  0.3309 -1.6713
20292SOL     OW66005   9.908   5.149  10.283 -0.3758  0.5639 -0.6340
20292SOL    HW166006   9.957   5.201  10.346  0.8785 -2.1607  0.7002
20292SOL    HW266007   9.966   5.143  10.207 -1.0593  2.1383 -1.3119
20293SOL     OW66008  11.078   4.247   6.615  0.0303 -0.0533 -0.9800
20293SOL    HW166009  10.994   4.288   6.593 -0.9133 -1.5148 -0.1925
20293SOL    HW266010  11.124   4.313   6.668 -1.0538  0.3537 -0.5368
20294SOL     OW66011   4.272   5.168   7.325  0.2884 -0.2616 -0.7772
20294SOL    HW166012   4.319   5.231   7.379  0.4194 -0.3773 -0.7580
20294SOL    HW266013   4.260   5.092   7.381 -1.7616  0.5373 -0.0745
20295SOL     OW66014   7.079   9.746   5.511 -0.2013  0.2974  0.2606
20295SOL    HW166015   7.095   9.655   5.535  1.4753  0.7687  0.9851
20295SOL    HW266016   7.115   9.797   5.584  1.5619  1.6351 -1.4886
20296SOL     OW66017   5.602   4.257   0.828 -0.3238  0.6227 -0.3516
20296SOL    HW166018   5.630   4.211   0.749 -1.4961 -3.2216  1.3530
20296SOL    HW266019   5.548   4.329   0.796  0.9210  0.3919 -3.1069
20297SOL     OW66020   5.147   7.966   6.478  0.0479  0.3038  0.1053
20297SOL    HW166021   5.200   8.039   6.511 -1.0440  1.6898 -1.1657
20297SOL    HW266022   5.176   7.956   6.387  1.5518 -2.1246  0.8162
20298SOL     OW66023  10.798   2.098   9.171  0.1993 -0.1783 -0.3772
20298SOL    HW166024  10.820   2.175   9.118 -1.3395  1.1319  0.8380
20298SOL    HW266025  10.825   2.122   9.260 -1.3676 -0.5870  0.2170
20299SOL     OW66026   1.836   0.212   2.139 -0.0293  0.0839 -0.4642
20299SOL    HW166027   1.885   0.201   2.220 -0.4065  1.8312  0.0082
20299SOL    HW266028   1.750   0.176   2.157 -0.6051  1.8750  0.4140
20300SOL     OW66029  10.819   5.079   0.196 -0.0748  0.4496  0.2290
20300SOL    HW166030  10.913   5.067   0.205 -0.3393 -0.4845  2.0433
20300SOL    HW266031  10.784   4.990   0.192 -0.7579  0.7778 -2.2436
20301SOL     OW66032  10.719   0.727   8.171 -0.6225 -0.0771 -0.1411
20301SOL    HW166033  10.799   0.709   8.121 -0.6760 -2.3052  0.5320
20301SOL    HW266034  10.750   0.744   8.260 -0.8040  0.5357 -0.1886
20302SOL     OW66035   2.860   5.951   3.271  0.2899 -0.2893 -0.7935
20302SOL    HW166036   2.807   5.903   3.207 -1.2660  0.2717  0.0579
20302SOL    HW266037   2.813   5.941   3.354  1.3358  0.5076 -0.0945
20303SOL     OW66038   1.745   1.933   4.690  0.4995  0.1572 -0.3210
20303SOL    HW166039   1.755   1.985   4.770  2.5362  0.2445 -0.6048
20303SOL    HW266040   1.782   1.847   4.713 -1.1241 -0.5937 -0.4401
20304SOL     OW66041  10.512  10.088   0.134 -0.0883  0.4757 -0.1292
20304SOL    HW166042  10.481  10.073   0.223 -0.6174 -1.3719 -0.6037
20304SOL    HW266043  10.434  10.117   0.086 -0.8059 -2.5728 -0.9340
20305SOL     OW66044   4.037   5.331   1.660 -0.6093 -0.5158 -0.0251
20305SOL    HW166045   4.036   5.249   1.709 -0.1703 -0.9958 -0.8019
20305SOL    HW266046   3.970   5.385   1.701  0.5533 -0.4628  1.8518
20306SOL     OW66047   2.660   2.525   8.487 -0.2790  0.2425  0.2375
20306SOL    HW166048   2.631   2.466   8.418  0.6803 -0.6701  0.6017
20306SOL    HW266049   2.686   2.467   8.559  2.8009  0.9706 -0.2025
20307SOL     OW66050   0.778   6.461  10.177  0.3535 -0.6385  0.1435
20307SOL    HW166051   0.710   6.477  10.242 -1.5841  1.0951 -2.2318
20307SOL    HW266052   0.734   6.414  10.106  1.4119  1.0819 -1.7253
20308SOL     OW66053   8.472   6.613  11.274 -0.0377 -0.0651 -0.0321
20308SOL    HW166054   8.533   6.634  11.345 -0.6985 -1.1660  0.8757
20308SOL    HW266055   8.386   6.618  11.314 -0.4286 -0.4460 -0.8264
20309SOL     OW66056   0.329   2.069   4.562  0.3343 -0.1276 -0.4881
20309SOL    HW166057   0.264   2.001   4.580  0.1554  0.2591  0.3389
20309SOL    HW266058   0.412   2.028   4.584  0.2763 -0.2788 -0.5479
20310SOL     OW66059   7.693   1.561   0.233 -0.2825 -0.0581 -0.2892
20310SOL    HW166060   7.632   1.618   0.279  1.1067  0.7351  0.6082
20310SOL    HW266061   7.726   1.613   0.161  0.8708  0.2217  0.4380
20311SOL     OW66062   3.181   2.680   7.941  0.0569  0.2306  0.2546
20311SOL    HW166063   3.166   2.629   7.861 -1.3495 -0.4891  0.9458
20311SOL    HW266064   3.222   2.618   8.002  0.7435  0.6608  0.2356
20312SOL     OW66065   3.747   3.374   6.267  0.1477  0.2223 -0.2371
20312SOL    HW166066   3.739   3.386   6.361 -0.1369  0.6826 -0.3217
20312SOL    HW266067   3.742   3.279   6.255  0.6778  0.1245  0.2557
20313SOL     OW66068   2.521   7.711   8.708 -0.0968  0.3677  0.1929
20313SOL    HW166069   2.441   7.757   8.684  0.2282  0.3952 -0.8292
20313SOL    HW266070   2.524   7.718   8.804 -1.2915  0.3915  0.2335
20314SOL     OW66071   1.557   7.270   5.644  0.6138  0.4086  0.3897
20314SOL    HW166072   1.532   7.211   5.715  0.7072 -1.5892 -1.1880
20314SOL    HW266073   1.642   7.238   5.615 -0.2916 -0.0596 -1.8886
20315SOL     OW66074   4.673   0.270   4.842  0.1957  0.1438 -0.0376
20315SOL    HW166075   4.653   0.192   4.791  1.6916 -1.2579  1.4616
20315SOL    HW266076   4.588   0.296   4.880 -0.1870 -1.1623  0.0213
20316SOL     OW66077   9.242   7.103   8.790  0.0998  0.1235  0.0228
20316SOL    HW166078   9.165   7.093   8.846  0.7495 -0.3896  0.8567
20316SOL    HW266079   9.219   7.172   8.729 -0.0511  1.8283  1.9654
20317SOL     OW66080   3.503   3.339   8.317  0.2522 -0.1386  0.1840
20317SOL    HW166081   3.518   3.424   8.274 -1.2329  0.7669  1.4257
20317SOL    HW266082   3.587   3.293   8.308  1.9320  2.4806  1.8053
20318SOL     OW66083   3.774   3.311  10.180  0.0248 -0.0999  0.0725
20318SOL    HW166084   3.832   3.288  10.253  1.5035  0.2245 -0.9641
20318SOL    HW266085   3.747   3.401  10.199  0.5503  0.0493  0.1384
20319SOL     OW66086  10.472   8.263   0.965 -0.0878 -0.0640 -1.0181
20319SOL    HW166087  10.423   8.240   0.886  0.5098 -1.2838 -1.0568
20319SOL    HW266088  10.553   8.212   0.957 -0.1426 -0.3989  0.5098
20320SOL     OW66089   0.716  10.853   9.572 -0.7194  0.4373 -0.3422
20320SOL    HW166090   0.673  10.825   9.653 -0.5994  0.4741 -0.2656
20320SOL    HW266091   0.808  10.832   9.585 -0.7726 -0.0075 -0.6643
20321SOL     OW66092   2.335   3.927  11.163  0.2964  0.1288  0.0121
20321SOL    HW166093   2.370   3.884  11.085 -0.0346  2.2163 -1.2977
20321SOL    HW266094   2.412   3.945  11.216  0.6701 -0.0199 -0.4742
20322SOL     OW66095   6.373   4.931   8.030 -0.1261  0.0540  0.2376
20322SOL    HW166096   6.284   4.962   8.014 -0.4440 -1.5371 -1.2276
20322SOL    HW266097   6.427   5.010   8.027 -1.5146  1.0613  1.4474
20323SOL     OW66098   7.660   2.414  10.941  0.3498  0.4398  0.1527
20323SOL    HW166099   7.753   2.421  10.964  0.3273 -0.3428  0.5074
20323SOL    HW266100   7.621   2.367  11.015 -0.3029  0.6590 -0.0524
20324SOL     OW66101   5.764  11.165   3.290 -0.2660  0.5461  0.0215
20324SOL    HW166102   5.697  11.106   3.255  1.0685 -1.9798  1.5339
20324SOL    HW266103   5.817  11.189   3.214  0.9722 -2.6846 -0.2081
20325SOL     OW66104   9.316   3.473  11.088 -0.2695  0.0896  0.2506
20325SOL    HW166105   9.402   3.474  11.046 -0.2530  0.2493  0.2900
20325SOL    HW266106   9.320   3.544  11.153 -0.7903  0.8003 -0.4748
20326SOL     OW66107   0.407   4.349   8.526 -0.3307  0.5348 -0.3813
20326SOL    HW166108   0.438   4.287   8.592 -1.1962  1.7902  1.2617
20326SOL    HW266109   0.311   4.344   8.531 -0.4048  1.6007 -0.5975
20327SOL     OW66110   0.017   4.073   5.573  0.1354  0.2083 -0.5210
20327SOL    HW166111   0.010   4.062   5.668 -1.2969 -1.3374 -0.7828
20327SOL    HW266112   0.071   4.152   5.562  1.6001 -0.4499  1.5563
20328SOL     OW66113   1.065   7.377   8.508  0.2329  0.1352 -0.3181
20328SOL    HW166114   1.020   7.413   8.432  0.1547  0.5906 -0.0546
20328SOL    HW266115   1.002   7.316   8.547  0.8451 -1.3162 -1.5286
20329SOL     OW66116  10.563   2.358   4.237  0.0011 -0.1325 -0.1999
20329SOL    HW166117  10.606   2.342   4.321  0.0871 -0.1410 -0.2449
20329SOL    HW266118  10.537   2.450   4.240  0.9269  0.1445 -0.5799
20330SOL     OW66119   0.404   1.967   1.738  0.2130  0.4742  0.1514
20330SOL    HW166120   0.368   2.046   1.698 -0.4349  0.1593  0.1179
20330SOL    HW266121   0.467   1.934   1.674 -0.6141  0.1287 -0.4832
20331SOL     OW66122   0.149   1.095   6.241  0.0514  0.3010 -0.2022
20331SOL    HW166123   0.219   1.107   6.306 -0.8196 -3.2754  1.5101
20331SOL    HW266124   0.068   1.096   6.292 -0.7108 -1.6933 -1.3269
20332SOL     OW66125   6.828   8.041   0.814 -0.1167 -0.3713 -0.0378
20332SOL    HW166126   6.916   8.058   0.848 -0.3435  0.5812  0.0956
20332SOL    HW266127   6.843   8.004   0.727  0.4254 -0.2228 -0.0120
20333SOL     OW66128   4.083   2.764   0.361 -0.0701 -0.0201  0.3652
20333SOL    HW166129   4.109   2.696   0.300  0.4247  0.5481 -0.0635
20333SOL    HW266130   4.004   2.802   0.321 -0.3096 -0.3002  0.5726
20334SOL     OW66131   1.694   0.875   3.659  0.6352  0.3329 -0.0592
20334SOL    HW166132   1.771   0.904   3.611  0.7554 -1.3324 -0.9203
20334SOL    HW266133   1.664   0.797   3.612 -1.5160  0.8923  0.3293
20335SOL     OW66134   6.113   3.293   6.749  0.1014  0.5530  0.6550
20335SOL    HW166135   6.199   3.333   6.767 -0.1985  1.5414 -0.0788
20335SOL    HW266136   6.050   3.363   6.765 -0.6108 -0.2733  1.5384
20336SOL     OW66137   2.271   6.935   2.606 -0.0672  0.0337  0.1543
20336SOL    HW166138   2.308   6.941   2.518  0.7079 -1.2949  0.3880
20336SOL    HW266139   2.332   6.983   2.662  0.9158 -1.4996  0.4138
20337SOL     OW66140   4.012   0.332   3.271  0.3586 -0.2430 -0.9069
20337SOL    HW166141   4.080   0.391   3.239 -0.5137  0.3408 -1.6945
20337SOL    HW266142   3.935   0.354   3.220 -1.3950  1.5174  2.3226
20338SOL     OW66143   5.017   2.635   2.129 -0.7179  0.7165  0.4419
20338SOL    HW166144   5.099   2.635   2.179  1.1790  0.0339 -2.5258
20338SOL    HW266145   4.971   2.714   2.158  0.6575  0.7512  2.6626
20339SOL     OW66146   6.667   6.718   3.208  0.8318 -0.2977  0.6081
20339SOL    HW166147   6.742   6.670   3.243  0.3004 -0.3193  1.7263
20339SOL    HW266148   6.591   6.666   3.232  0.3807  0.2111  0.2921
20340SOL     OW66149   8.115   6.205   3.083  0.5113  0.7729  0.7690
20340SOL    HW166150   8.107   6.207   3.178  0.0346 -0.5914  0.7639
20340SOL    HW266151   8.034   6.164   3.052  1.1052  0.2684 -0.1605
20341SOL     OW66152   5.458   5.685   8.158  0.5967  0.1387  0.0379
20341SOL    HW166153   5.505   5.605   8.181 -0.8599 -0.9794 -0.8318
20341SOL    HW266154   5.423   5.717   8.241 -0.0078 -0.9010  0.1857
20342SOL     OW66155   0.700   7.239   4.651  0.0606  0.3187 -0.2573
20342SOL    HW166156   0.650   7.279   4.581  0.2012 -1.3288 -1.3195
20342SOL    HW266157   0.644   7.168   4.683  0.9253 -0.3521 -0.2067
20343SOL     OW66158   1.431   8.018   8.231  0.2075  0.1468 -0.0077
20343SOL    HW166159   1.464   8.016   8.321  2.2098 -0.3316 -0.7251
20343SOL    HW266160   1.489   7.959   8.183 -0.2939  1.0765 -1.7865
20344SOL     OW66161  10.324   8.725  10.434 -0.4808 -0.4462  0.5499
20344SOL    HW166162  10.289   8.754  10.350  2.5109 -0.2584 -0.7004
20344SOL    HW266163  10.310   8.799  10.493  0.0608  0.5666 -0.5716
20345SOL     OW66164   5.889   8.270   1.350  0.1712 -0.4122  0.1266
20345SOL    HW166165   5.933   8.197   1.394 -1.3500 -1.5114 -0.1260
20345SOL    HW266166   5.861   8.234   1.266  2.2327  1.4105 -1.4024
20346SOL     OW66167   4.600   4.070   0.127 -0.0905  0.3560  0.0898
20346SOL    HW166168   4.575   4.157   0.158 -0.7260  0.1027  0.2910
20346SOL    HW266169   4.556   4.062   0.042  2.2778  1.3636 -1.2733
20347SOL     OW66170   7.128   6.362  10.471 -0.4078  0.3402 -0.2698
20347SOL    HW166171   7.193   6.291  10.473 -0.4095  0.2849 -2.1753
20347SOL    HW266172   7.179   6.441  10.456 -0.4054  0.7963  1.8786
20348SOL     OW66173  10.870   3.069   1.264 -0.5816  0.1267 -0.2550
20348SOL    HW166174  10.777   3.060   1.245 -0.3935 -0.7603 -0.7647
20348SOL    HW266175  10.913   3.005   1.207  0.0632 -2.1984  2.7829
20349SOL     OW66176   9.408   9.697   2.219 -0.6081  0.6041  0.1279
20349SOL    HW166177   9.352   9.620   2.225 -1.0512  0.8462 -0.7963
20349SOL    HW266178   9.351   9.770   2.240  0.2080  0.5480  2.6456
20350SOL     OW66179   6.635   4.422   6.476  0.5517 -0.3922  0.4834
20350SOL    HW166180   6.714   4.387   6.515 -1.0750 -2.0697  2.4032
20350SOL    HW266181   6.572   4.426   6.548 -0.9703  1.3772 -0.8802
20351SOL     OW66182   0.023   8.936   1.957  0.0383  0.0094 -0.5569
20351SOL    HW166183   0.065   8.957   2.041 -2.0068  0.3473  0.4030
20351SOL    HW266184   0.092   8.950   1.892  1.2408  1.1560  0.9214
20352SOL     OW66185   2.622   8.356   8.374  0.0846  0.2737 -0.5031
20352SOL    HW166186   2.546   8.372   8.318 -0.0449  0.7350 -0.1963
20352SOL    HW266187   2.696   8.392   8.325  0.1296 -0.2788 -0.8545
20353SOL     OW66188   8.969   0.017  11.323  0.1268  0.4177  0.1265
20353SOL    HW166189   8.904   0.080  11.292  0.4057  1.1203  0.9433
20353SOL    HW266190   8.926  -0.068  11.316 -1.1215  0.9325  1.2625
20354SOL     OW66191   8.308   5.987   0.721 -0.1626 -0.2620  0.3809
20354SOL    HW166192   8.345   6.063   0.766 -1.4897  0.0429  0.9571
20354SOL    HW266193   8.272   6.023   0.639 -1.1087 -0.2078  0.8179
20355SOL     OW66194   6.815   5.435  10.464 -0.9138  0.2637  0.3713
20355SOL    HW166195   6.750   5.504  10.449 -0.2293  0.2119 -3.3628
20355SOL    HW266196   6.883   5.477  10.516 -2.8527  0.9207  2.4719
20356SOL     OW66197   7.043   5.986   7.094  0.0597  0.9399 -0.0923
20356SOL    HW166198   6.949   5.973   7.104  0.5262 -1.7898  1.0948
20356SOL    HW266199   7.067   6.044   7.166 -0.2683 -0.6675  1.3367
20357SOL     OW66200   1.401   7.840   0.699  0.3300 -0.1436 -0.1735
20357SOL    HW166201   1.405   7.817   0.792 -0.3127  2.8635  0.6393
20357SOL    HW266202   1.308   7.834   0.677  0.2112  1.2066 -0.0608
20358SOL     OW66203   9.341   3.238   1.723 -0.1424 -0.1885 -0.0407
20358SOL    HW166204   9.267   3.296   1.740  0.5412  0.3136  1.2904
20358SOL    HW266205   9.405   3.260   1.791  1.6866  0.1908 -1.8258
20359SOL     OW66206  11.298   5.961   8.899  0.4960  0.0217 -0.2726
20359SOL    HW166207  11.235   6.025   8.932 -0.5069 -0.1698 -1.7960
20359SOL    HW266208  11.262   5.876   8.927  1.5720  0.0527  1.3148
20360SOL     OW66209   9.837   8.407   7.028 -0.3224 -0.1305 -0.0643
20360SOL    HW166210   9.774   8.380   6.961  3.0029 -0.0751 -3.3155
20360SOL    HW266211   9.872   8.324   7.063  1.9575 -0.1857 -2.3671
20361SOL     OW66212   2.956   8.952   3.200  0.2897  0.1386  0.7041
20361SOL    HW166213   2.916   9.039   3.206  2.2478  1.0779  0.5383
20361SOL    HW266214   3.048   8.970   3.179  0.5927 -1.9974  0.1486
20362SOL     OW66215   0.887   2.408   4.119 -0.5870 -0.0464  0.0473
20362SOL    HW166216   0.877   2.502   4.136  0.4424 -0.3436  2.4725
20362SOL    HW266217   0.970   2.401   4.071 -2.1040  0.5115 -2.8139
20363SOL     OW66218   7.148   4.648   9.422  0.1836 -0.6207  0.0298
20363SOL    HW166219   7.053   4.640   9.432 -0.0624  2.3793  0.7948
20363SOL    HW266220   7.184   4.610   9.501 -0.5840  0.9769  1.1853
20364SOL     OW66221   4.873   5.220   8.986 -0.4619  0.1831  0.2676
20364SOL    HW166222   4.923   5.284   9.036  0.3401 -1.2999  1.4300
20364SOL    HW266223   4.934   5.148   8.970 -1.0289  0.1398 -1.9260
20365SOL     OW66224   9.024   6.685   9.659 -0.2049 -0.1491 -0.0802
20365SOL    HW166225   9.006   6.729   9.576 -1.1412 -0.2350  0.0758
20365SOL    HW266226   9.094   6.624   9.639 -0.0395  0.2343 -0.6790
20366SOL     OW66227  10.243   4.885   6.971  0.4770 -0.6133  0.4672
20366SOL    HW166228  10.299   4.833   7.029 -0.6088 -1.3833  0.8437
20366SOL    HW266229  10.174   4.824   6.943  0.3525  0.0592 -0.7446
20367SOL     OW66230  10.089   1.051   1.131 -0.2525  0.0347 -0.5488
20367SOL    HW166231  10.142   1.117   1.085  2.1675 -2.1313 -0.9487
20367SOL    HW266232  10.152   0.995   1.175 -2.3764 -0.6300  1.7763
20368SOL     OW66233   6.914   6.825   2.005  0.1171  0.1412 -0.4719
20368SOL    HW166234   7.000   6.844   2.042 -0.7426  0.4449  1.4397
20368SOL    HW266235   6.854   6.833   2.079 -1.5143 -0.4151 -1.7045
20369SOL     OW66236   9.479   8.505   4.700 -0.0426 -0.6883  0.0761
20369SOL    HW166237   9.422   8.545   4.635  0.5532 -0.6888 -0.4534
20369SOL    HW266238   9.424   8.493   4.777 -0.3880  0.5939  0.0341
20370SOL     OW66239   6.544   8.073  10.974  0.2914 -0.3244  0.0678
20370SOL    HW166240   6.505   8.101  11.057  0.1871  2.7749 -0.9717
20370SOL    HW266241   6.497   8.123  10.907 -0.5948 -3.7751 -2.0515
20371SOL     OW66242   3.147  10.831   3.353  0.0227 -0.0240  0.2127
20371SOL    HW166243   3.108  10.746   3.372 -0.1226  0.7564  3.5766
20371SOL    HW266244   3.120  10.887   3.425  2.0384  2.2927 -0.7560
20372SOL     OW66245   2.562   0.245   2.384 -0.5210 -0.4068 -0.7386
20372SOL    HW166246   2.594   0.327   2.349  0.4391  0.7318  2.5963
20372SOL    HW266247   2.640   0.201   2.418 -1.3628 -1.5586 -0.2469
20373SOL     OW66248   1.174   7.641   8.210 -0.4727  0.0269 -0.5180
20373SOL    HW166249   1.251   7.640   8.153  0.2880  1.4382  0.4467
20373SOL    HW266250   1.107   7.686   8.159  0.2438  1.4074 -0.2661
20374SOL     OW66251   4.965   8.824   2.119  0.2311  0.2518  0.7994
20374SOL    HW166252   5.048   8.828   2.071  0.3056  0.9714  0.9659
20374SOL    HW266253   4.966   8.740   2.164  1.0597  0.4187  1.1085
20375SOL     OW66254   2.664   0.853   4.884  0.1789 -0.5658  0.1923
20375SOL    HW166255   2.749   0.861   4.927  0.0140  1.9467  0.1621
20375SOL    HW266256   2.601   0.880   4.951 -0.3849 -0.2355 -0.4628
20376SOL     OW66257   6.489   6.009   2.507  0.2944 -0.2570 -0.2815
20376SOL    HW166258   6.573   5.964   2.511  0.7401  0.6110  0.1296
20376SOL    HW266259   6.463   6.002   2.415  1.3053  0.3405 -0.6229
20377SOL     OW66260   3.901   0.141   8.803  0.5334 -0.1990  0.1944
20377SOL    HW166261   3.886   0.170   8.893  0.5879 -2.0467  0.8067
20377SOL    HW266262   3.902   0.046   8.808 -0.4880 -0.3518 -1.9395
20378SOL     OW66263   5.967  10.221   4.201  0.4662  0.3231 -0.3675
20378SOL    HW166264   6.056  10.256   4.199  0.8923 -0.6443  1.0082
20378SOL    HW266265   5.943  10.221   4.293 -1.2044  1.1406 -0.7830
20379SOL     OW66266   7.258   9.325  10.937 -0.3995  0.2938  0.4234
20379SOL    HW166267   7.283   9.415  10.960 -0.0098 -0.0083  1.2029
20379SOL    HW266268   7.222   9.332  10.849 -0.3420  1.2134  0.4662
20380SOL     OW66269  11.321   1.578   3.536  0.7281  0.2775  0.1390
20380SOL    HW166270  11.407   1.536   3.536  0.2760 -0.6599 -0.6220
20380SOL    HW266271  11.266   1.519   3.587  0.1690  0.0973 -0.6701
20381SOL     OW66272   8.871   0.323   6.046 -0.4074  0.0726  0.3747
20381SOL    HW166273   8.785   0.291   6.077 -0.7697 -0.8638 -1.5529
20381SOL    HW266274   8.906   0.250   5.995 -0.2485  1.9340 -2.2457
20382SOL     OW66275   6.014   5.631   6.143 -0.4214  0.2991 -0.6787
20382SOL    HW166276   6.095   5.580   6.154 -0.6515  0.3437  1.4841
20382SOL    HW266277   5.977   5.636   6.231 -2.0453  1.5183 -1.4051
20383SOL     OW66278   3.639   9.298   3.307 -0.5401  0.3485  0.3479
20383SOL    HW166279   3.709   9.360   3.290 -0.9111  0.3650 -1.1550
20383SOL    HW266280   3.614   9.265   3.221 -1.2938 -0.8433  1.0085
20384SOL     OW66281   5.673   3.837   8.189 -0.3799 -0.7167  0.0530
20384SOL    HW166282   5.669   3.780   8.265 -0.9494 -0.1851  0.4275
20384SOL    HW266283   5.753   3.811   8.143  0.9129  0.1281  1.7673
20385SOL     OW66284   3.775   1.174   0.031 -0.5163 -0.2446 -0.0920
20385SOL    HW166285   3.856   1.144  -0.011 -0.6659 -1.5462  0.5325
20385SOL    HW266286   3.805   1.217   0.112 -0.4515 -0.8690  0.2202
20386SOL     OW66287   2.697   5.382   7.280  0.3183  0.1691 -0.0792
20386SOL    HW166288   2.656   5.456   7.235  1.4172 -0.6803 -2.5434
20386SOL    HW266289   2.772   5.419   7.325 -0.5831  0.9758  0.7574
20387SOL     OW66290   8.723   3.671   5.479 -0.2903  0.1008  0.0225
20387SOL    HW166291   8.775   3.624   5.545  0.9564  2.5917  0.8878
20387SOL    HW266292   8.780   3.742   5.450 -1.2506 -0.2681 -2.9616
20388SOL     OW66293   2.460   3.817  10.488  0.0105  0.7627 -0.7918
20388SOL    HW166294   2.455   3.909  10.512 -1.3154  0.6537 -0.6591
20388SOL    HW266295   2.398   3.807  10.415 -1.1235 -0.3756  0.3149
20389SOL     OW66296  11.308   9.006   6.250 -0.0443  0.1726 -0.0024
20389SOL    HW166297  11.307   8.983   6.343 -1.7309 -0.6946 -0.2204
20389SOL    HW266298  11.293   8.923   6.205  1.4148  0.4681 -1.1009
20390SOL     OW66299   5.798   1.427   9.423  0.0057 -0.7840  0.0027
20390SOL    HW166300   5.756   1.450   9.505 -0.2384  0.9576 -0.5847
20390SOL    HW266301   5.888   1.405   9.446 -0.7785 -2.9764  1.0639
20391SOL     OW66302   1.771  11.216   8.998  1.0529 -0.4700 -0.6043
20391SOL    HW166303   1.714  11.142   9.018  0.6760 -0.4087 -1.4584
20391SOL    HW266304   1.714  11.280   8.956  1.3043  0.4496  0.4197
20392SOL     OW66305   0.319   9.717   2.935 -0.3729  0.1390  0.1821
20392SOL    HW166306   0.281   9.768   2.864 -0.6817 -0.6651 -0.2322
20392SOL    HW266307   0.244   9.677   2.979  0.0201 -2.1998 -1.2077
20393SOL     OW66308  10.288  10.777   4.745  0.6614 -0.1250  0.5178
20393SOL    HW166309  10.349  10.704   4.741  2.1834  1.1277  0.1372
20393SOL    HW266310  10.305  10.828   4.666 -1.5606 -0.2459 -0.0884
20394SOL     OW66311   1.492  10.320  11.233  0.1893  0.3464  0.0692
20394SOL    HW166312   1.507  10.403  11.188 -1.6281  0.7691  0.2390
20394SOL    HW266313   1.570  10.268  11.213  1.0134  1.8276 -0.6187
20395SOL     OW66314  10.823   8.616   5.839  0.1553 -0.7969  0.5797
20395SOL    HW166315  10.784   8.529   5.845 -0.2922 -0.8104 -2.1268
20395SOL    HW266316  10.748   8.675   5.831  0.5500 -0.4069 -0.2691
20396SOL     OW66317   9.791   3.235   0.369 -0.0203  0.1198  0.0970
20396SOL    HW166318   9.698   3.215   0.377  0.1310 -0.8152 -0.3704
20396SOL    HW266319   9.834   3.149   0.375  0.9211  0.7073  1.9790
20397SOL     OW66320   7.348   2.856   5.160  0.2224 -0.4069  0.1618
20397SOL    HW166321   7.279   2.920   5.176  0.9534  0.6725 -0.8620
20397SOL    HW266322   7.424   2.909   5.136  0.7639 -1.6797 -0.9824
20398SOL     OW66323   1.858   1.518   9.571  1.1269  0.1733  0.1686
20398SOL    HW166324   1.911   1.532   9.492  1.9794 -0.3209  0.6394
20398SOL    HW266325   1.851   1.422   9.578 -1.2151  0.2591 -0.7869
20399SOL     OW66326   9.878   2.518   1.956 -0.0794  0.3530  0.3919
20399SOL    HW166327   9.835   2.574   1.892 -0.2480 -0.6570 -0.4009
20399SOL    HW266328   9.952   2.570   1.989 -0.7767  1.3710  0.3553
20400SOL     OW66329  10.614   2.667   6.568 -0.4769  0.1606  0.0464
20400SOL    HW166330  10.541   2.608   6.586 -1.2846  1.3511  0.8231
20400SOL    HW266331  10.627   2.714   6.651 -0.3588  1.5808 -0.7604
20401SOL     OW66332   9.484   8.734   5.463  0.2201  0.4213 -0.0111
20401SOL    HW166333   9.543   8.805   5.436  1.3060 -0.4886 -0.0881
20401SOL    HW266334   9.525   8.655   5.428 -1.2837 -0.1874 -0.4083
20402SOL     OW66335   4.527  10.043   8.798 -0.6475  0.3063  0.4484
20402SOL    HW166336   4.592  10.056   8.866 -1.3054  0.4345  1.0628
20402SOL    HW266337   4.515   9.948   8.793 -1.0665  0.3343  0.9549
20403SOL     OW66338   0.759   0.452   5.920 -0.3010 -0.1294 -0.6140
20403SOL    HW166339   0.672   0.483   5.895 -0.2282  0.4448 -0.1655
20403SOL    HW266340   0.788   0.399   5.846 -1.7827 -1.8412 -0.0028
20404SOL     OW66341   7.967  11.163   1.910 -0.4813 -0.2402  0.2735
20404SOL    HW166342   7.935  11.245   1.947  1.1187  0.8729 -0.7658
20404SOL    HW266343   8.031  11.190   1.845 -0.9593 -2.2797 -1.0745
20405SOL     OW66344   6.311   1.107   1.709 -0.3482 -0.6132  0.4655
20405SOL    HW166345   6.407   1.106   1.711 -0.3316 -0.2547 -0.1713
20405SOL    HW266346   6.287   1.174   1.772 -0.1343  0.6907 -0.8256
20406SOL     OW66347   8.198   2.107  10.691  0.1984  0.1866  0.3242
20406SOL    HW166348   8.281   2.092  10.735  0.6199  0.7584 -0.2604
20406SOL    HW266349   8.204   2.197  10.659 -0.4633  0.0826 -0.1056
20407SOL     OW66350   1.321   8.732   6.409  0.4224 -0.1447  0.4755
20407SOL    HW166351   1.259   8.788   6.363  1.8416  1.8674  0.9634
20407SOL    HW266352   1.402   8.783   6.413  0.5485 -0.4593  4.6052
20408SOL     OW66353   4.783   5.488   0.553  0.7742  0.0513  0.1694
20408SOL    HW166354   4.786   5.506   0.647  2.5477  0.6983  0.0165
20408SOL    HW266355   4.874   5.472   0.529  0.6809  2.1513 -1.8418
20409SOL     OW66356   8.715   5.114   9.205 -0.2441 -0.5283  0.3890
20409SOL    HW166357   8.770   5.184   9.240 -1.1839 -1.3809  3.6747
20409SOL    HW266358   8.759   5.034   9.233 -1.5838 -1.2283  0.4865
20410SOL     OW66359   8.704   3.863   9.360  0.4167  0.2914  0.3640
20410SOL    HW166360   8.676   3.954   9.372 -2.2464 -0.2263 -1.4323
20410SOL    HW266361   8.672   3.840   9.273  0.4477 -2.5930  1.0757
20411SOL     OW66362   4.195   6.465   6.924  0.0465 -0.1956 -0.5927
20411SOL    HW166363   4.289   6.452   6.939  0.2127  2.6742  1.2005
20411SOL    HW266364   4.155   6.457   7.011 -1.0078  1.3244 -0.9190
20412SOL     OW66365   1.413   4.069   7.825 -0.5644 -0.5266 -0.5747
20412SOL    HW166366   1.341   4.007   7.832 -1.0309  0.0773 -0.0136
20412SOL    HW266367   1.467   4.052   7.903 -1.5684  0.8723  0.4483
20413SOL     OW66368   3.465   2.204   2.685 -0.1915  0.6566  0.3978
20413SOL    HW166369   3.469   2.157   2.768 -0.5019  0.1379  0.1269
20413SOL    HW266370   3.522   2.280   2.697 -1.6652  1.5633  1.6766
20414SOL     OW66371  11.091   3.963  10.132 -0.0385 -0.1098  0.3495
20414SOL    HW166372  11.058   4.031  10.190 -0.3688  0.3857 -0.4007
20414SOL    HW266373  11.012   3.918  10.101  0.1596 -0.6339  0.6025
20415SOL     OW66374   0.491   4.370   9.987  0.2498  0.5718  0.5038
20415SOL    HW166375   0.497   4.429  10.062  0.9920  2.0198 -0.6406
20415SOL    HW266376   0.504   4.428   9.911 -0.2056 -0.8938 -0.7114
20416SOL     OW66377   4.429   7.370   3.299  0.3472  0.5505 -0.1760
20416SOL    HW166378   4.483   7.344   3.374  0.1814  0.7410  0.0085
20416SOL    HW266379   4.450   7.462   3.285 -0.8090  0.9435  0.6331
20417SOL     OW66380   1.020   1.735   8.896 -0.5255 -0.5929 -0.4756
20417SOL    HW166381   1.087   1.780   8.846  0.4485 -0.6807  0.7261
20417SOL    HW266382   1.038   1.642   8.884  0.2884 -0.6148  0.7563
20418SOL     OW66383   5.127   8.227   2.407  0.0203 -0.3075 -0.9640
20418SOL    HW166384   5.146   8.191   2.494  2.2188 -0.4016 -1.4572
20418SOL    HW266385   5.167   8.314   2.408 -2.9260  1.1233 -0.7226
20419SOL     OW66386   1.024   5.273   9.136  0.1284  0.1317  0.6012
20419SOL    HW166387   0.988   5.258   9.048 -1.9909  0.0050  1.4561
20419SOL    HW266388   1.044   5.186   9.170  1.1052  0.1899  0.1992
20420SOL     OW66389   3.549   0.256   6.192 -0.1509  0.0998 -0.1564
20420SOL    HW166390   3.585   0.326   6.137  1.4490 -1.4994 -1.2104
20420SOL    HW266391   3.596   0.265   6.275  1.2168 -0.6800 -0.8241
20421SOL     OW66392   4.563   7.360   3.578  0.5301 -0.5947  0.3274
20421SOL    HW166393   4.530   7.397   3.660 -0.0553 -0.1513 -0.1037
20421SOL    HW266394   4.550   7.265   3.587  0.2402 -0.5243  0.6383
20422SOL     OW66395   3.320   5.916   9.412  0.0194 -0.2441 -0.9681
20422SOL    HW166396   3.391   5.853   9.421 -0.5851 -0.7523  0.4143
20422SOL    HW266397   3.240   5.863   9.411 -0.5245  0.5126  0.7306
20423SOL     OW66398   9.148   4.226  11.330 -0.2328 -0.2811 -0.1457
20423SOL    HW166399   9.157   4.215  11.425 -0.8284 -2.1698 -0.2700
20423SOL    HW266400   9.222   4.178  11.293  0.1275  0.6430 -0.6390
20424SOL     OW66401   6.095   9.013  11.189  0.5328  0.7185 -0.1258
20424SOL    HW166402   6.072   9.066  11.265 -0.0379 -0.1551  0.3117
20424SOL    HW266403   6.014   9.006  11.139  0.9279  1.3740 -0.8809
20425SOL     OW66404   3.896   4.758   4.615 -0.2675 -0.4830 -0.4269
20425SOL    HW166405   3.878   4.680   4.563  0.5152  0.3590 -2.0032
20425SOL    HW266406   3.978   4.738   4.660  0.2445 -0.3611 -1.2863
20426SOL     OW66407   5.197   0.802   6.728  0.4354  0.1049 -0.0066
20426SOL    HW166408   5.150   0.725   6.761 -1.3410  0.7247 -1.0330
20426SOL    HW266409   5.197   0.790   6.632  0.0690  1.4267 -0.1735
20427SOL     OW66410   3.564   2.898   1.390  0.4591  0.5603 -0.4185
20427SOL    HW166411   3.559   2.947   1.308 -1.4169 -0.6184 -1.0316
20427SOL    HW266412   3.630   2.832   1.375 -1.3400 -0.9796 -1.7355
20428SOL     OW66413  10.352   2.634   0.461 -0.0240  0.0616  0.8228
20428SOL    HW166414  10.380   2.710   0.410 -0.2054  0.7879  1.7949
20428SOL    HW266415  10.277   2.665   0.512 -0.1573 -0.7908  1.1607
20429SOL     OW66416   4.262   5.493  11.169  0.4735  0.0053  0.6345
20429SOL    HW166417   4.251   5.581  11.205  1.6598  0.4854 -0.1386
20429SOL    HW266418   4.351   5.493  11.133 -0.0425 -1.0323 -0.6642
20430SOL     OW66419   1.729   8.059   2.059 -0.2514 -0.0210 -0.4583
20430SOL    HW166420   1.733   7.992   1.991 -2.0098  0.7298 -1.3168
20430SOL    HW266421   1.743   8.142   2.012 -0.6503  0.4309  0.2142
20431SOL     OW66422   8.607  10.516   9.501  0.4347 -0.0023  0.0874
20431SOL    HW166423   8.547  10.458   9.454  0.6483  1.0623 -1.5231
20431SOL    HW266424   8.597  10.491   9.593 -0.1258 -1.9879 -0.4833
20432SOL     OW66425   1.680   9.830   7.636  0.6049 -0.4524  0.0050
20432SOL    HW166426   1.694   9.896   7.704 -0.1719 -0.2236 -0.0463
20432SOL    HW266427   1.585   9.825   7.627  0.7077 -0.2271 -1.3077
20433SOL     OW66428   7.898   0.655   7.014  0.2375  0.2748 -0.3529
20433SOL    HW166429   7.966   0.591   7.035 -1.2711 -1.0418  0.5854
20433SOL    HW266430   7.857   0.620   6.935  0.3005  0.7963 -0.6168
20434SOL     OW66431  11.272   3.972   0.624  0.3573 -0.6590 -0.2870
20434SOL    HW166432  11.290   4.006   0.537  0.9335 -0.7466 -0.2036
20434SOL    HW266433  11.244   4.049   0.674  1.2692 -0.3739 -0.2061
20435SOL     OW66434   7.312   7.427   4.463 -0.3461  0.2944  0.5790
20435SOL    HW166435   7.384   7.382   4.508  1.6748  0.7770 -2.0930
20435SOL    HW266436   7.342   7.517   4.455 -1.6772  0.7138  0.3100
20436SOL     OW66437   2.544   6.332   7.626  0.3919  0.5130 -0.0285
20436SOL    HW166438   2.489   6.376   7.562 -0.5735  0.0373  0.4662
20436SOL    HW266439   2.629   6.322   7.582 -0.6101 -0.9001 -1.6936
20437SOL     OW66440   8.145  10.293   8.696 -0.0208 -0.1679  0.0993
20437SOL    HW166441   8.064  10.243   8.708 -0.7373  0.3081 -2.4878
20437SOL    HW266442   8.176  10.267   8.609  1.6313  1.0218  0.3184
20438SOL     OW66443   2.095   6.885   2.070 -0.4359 -0.0583  0.1765
20438SOL    HW166444   2.062   6.940   2.141 -1.3896 -0.4681  0.0563
20438SOL    HW266445   2.136   6.811   2.113  2.7301  1.7502  0.4070
20439SOL     OW66446   4.197  10.147   3.976  0.0991 -0.0713  0.2556
20439SOL    HW166447   4.168  10.062   4.008  0.7251 -0.9473 -1.3985
20439SOL    HW266448   4.259  10.126   3.905  0.9348  1.7529  0.4052
20440SOL     OW66449   8.036   7.323   3.204  0.3561 -0.1420 -0.3380
20440SOL    HW166450   8.051   7.244   3.152  1.1751  0.4192 -0.9813
20440SOL    HW266451   7.949   7.311   3.243  0.7153 -1.6029  0.0355
20441SOL     OW66452   0.060   7.821   6.854 -0.0972  0.1060  0.0238
20441SOL    HW166453   0.104   7.823   6.769  0.8113  1.5011  0.5117
20441SOL    HW266454   0.095   7.743   6.897 -0.0688 -0.2400 -0.6263
20442SOL     OW66455   6.452   0.343   4.350 -0.1416  0.0622 -0.2699
20442SOL    HW166456   6.522   0.406   4.367 -1.6263  1.5986  0.3029
20442SOL    HW266457   6.441   0.296   4.433  2.0237 -2.0751 -1.1480
20443SOL     OW66458   8.368   7.179   7.330 -0.2316 -0.2957 -0.2531
20443SOL    HW166459   8.432   7.178   7.259  1.0826 -1.5232  0.9149
20443SOL    HW266460   8.305   7.246   7.304  0.0652 -0.9014 -2.7074
20444SOL     OW66461  10.384   3.040   8.974  0.6599  0.6309  0.1311
20444SOL    HW166462  10.342   2.970   8.923 -0.0804  2.1811 -1.4269
20444SOL    HW266463  10.325   3.053   9.049  1.0169 -0.6764  0.6625
20445SOL     OW66464   4.215   4.045   6.006 -1.0382  0.2462  0.1011
20445SOL    HW166465   4.182   4.034   5.916  0.3923 -0.5454 -0.3407
20445SOL    HW266466   4.221   3.956   6.040  1.8400  0.2646 -0.2763
20446SOL     OW66467   3.906   5.434   0.821 -0.0989  0.3994 -0.1180
20446SOL    HW166468   4.000   5.428   0.838  0.1510 -1.9516 -2.1586
20446SOL    HW266469   3.893   5.523   0.789  1.5146  0.5849 -0.2887
20447SOL     OW66470  10.003   4.062   5.845  0.5262  0.1377  0.1935
20447SOL    HW166471  10.093   4.054   5.814  0.8582  0.3818  1.0855
20447SOL    HW266472   9.998   4.005   5.922 -0.2213 -0.2735 -0.1510
20448SOL     OW66473   9.990   9.954   7.055  0.2237  0.1918 -0.2871
20448SOL    HW166474   9.978  10.036   7.103  0.6961  0.7545 -1.1078
20448SOL    HW266475  10.072   9.919   7.088  0.0920  0.1237 -0.0341
20449SOL     OW66476   7.198   3.766   8.935  0.1935 -0.1793 -0.2818
20449SOL    HW166477   7.269   3.787   8.875  0.7470 -2.4517 -0.4566
20449SOL    HW266478   7.123   3.747   8.879 -0.0317  0.3546 -0.1632
20450SOL     OW66479   7.160   8.150   6.809 -0.0854 -0.4554 -0.7089
20450SOL    HW166480   7.129   8.065   6.777 -1.5016 -0.3795  0.4236
20450SOL    HW266481   7.080   8.200   6.823  0.6145  0.1698  1.1267
20451SOL     OW66482  10.307   4.536   4.843  0.1599 -0.0003  0.0998
20451SOL    HW166483  10.214   4.546   4.822 -0.0944 -1.1064  0.6281
20451SOL    HW266484  10.323   4.442   4.835  0.9309  0.0234  1.2448
20452SOL     OW66485   7.589   2.925   0.055  0.0933 -0.1944  0.8993
20452SOL    HW166486   7.647   3.001   0.046 -1.8241  1.2590  0.2790
20452SOL    HW266487   7.586   2.909   0.149  2.6937 -1.2866  0.8292
20453SOL     OW66488   9.423  10.169   9.630 -0.4606 -0.3827 -0.3161
20453SOL    HW166489   9.485  10.102   9.599 -2.0222 -2.4068  0.7956
20453SOL    HW266490   9.345  10.119   9.655 -1.9141  1.9585 -0.0946
20454SOL     OW66491   5.290   0.871  11.121  0.1836 -0.1730  0.3119
20454SOL    HW166492   5.224   0.905  11.061 -0.2640 -3.0260 -0.9114
20454SOL    HW266493   5.369   0.922  11.103 -0.0358 -0.7960 -2.5319
20455SOL     OW66494   6.104   2.362   5.708 -0.1690  0.3411 -0.0787
20455SOL    HW166495   6.175   2.301   5.687  0.4690  0.6472  1.1530
20455SOL    HW266496   6.058   2.321   5.782  0.5466  1.5585  1.0581
20456SOL     OW66497   7.569   7.499   4.790 -0.0638  0.4047  0.4128
20456SOL    HW166498   7.612   7.538   4.867 -0.8644 -1.2369  1.7152
20456SOL    HW266499   7.488   7.462   4.824 -0.2995 -0.5795 -1.1836
20457SOL     OW66500   4.184  11.144   3.397  0.0908  1.1402  0.1880
20457SOL    HW166501   4.170  11.233   3.364 -1.4141 -0.5526 -4.1118
20457SOL    HW266502   4.275  11.124   3.376 -0.2934  0.8055 -1.2586
20458SOL     OW66503   4.110  11.093   3.046 -0.5529 -0.2513  0.2971
20458SOL    HW166504   4.021  11.081   3.079  0.2485 -2.0397  1.9016
20458SOL    HW266505   4.143  11.168   3.095 -1.2834  0.6508 -0.5707
20459SOL     OW66506   0.310   5.174   2.390 -0.1933  0.0407  0.5395
20459SOL    HW166507   0.365   5.212   2.321  0.0391  0.6569  1.0573
20459SOL    HW266508   0.343   5.084   2.400 -1.4256 -0.6468 -1.4103
20460SOL     OW66509   5.625   7.115   1.736 -0.0463  0.1221 -0.3768
20460SOL    HW166510   5.677   7.133   1.814  0.1407 -0.1865 -0.4292
20460SOL    HW266511   5.620   7.019   1.732  1.6569  0.0740 -1.8870
20461SOL     OW66512   8.478  10.730   3.310 -0.1057 -0.1233 -0.3039
20461SOL    HW166513   8.442  10.650   3.346  0.0909 -0.5736 -1.0995
20461SOL    HW266514   8.432  10.743   3.227 -0.6144  0.9498  0.1285
20462SOL     OW66515   2.711   0.227   9.726 -0.6043 -0.4772  0.1468
20462SOL    HW166516   2.639   0.169   9.749 -0.9343  0.0869  0.5592
20462SOL    HW266517   2.736   0.202   9.637 -1.6959 -0.2711 -0.2123
20463SOL     OW66518   7.081   1.768   7.293 -0.2160 -0.2517  0.0471
20463SOL    HW166519   7.079   1.712   7.216  2.7353 -0.7511  0.2884
20463SOL    HW266520   7.039   1.850   7.265  0.1495 -0.6944 -1.8353
20464SOL     OW66521  10.514   0.013   9.036  0.1762 -0.1876 -0.2426
20464SOL    HW166522  10.587  -0.017   9.090  0.8165 -0.2314 -1.1032
20464SOL    HW266523  10.556   0.067   8.969 -0.1533 -3.0134 -2.8486
20465SOL     OW66524   1.224   1.989   6.912 -0.2611 -0.0872 -0.1183
20465SOL    HW166525   1.317   2.002   6.930 -0.1111 -1.7509  0.3492
20465SOL    HW266526   1.208   1.896   6.930 -1.6581 -0.1931 -1.7305
20466SOL     OW66527  10.056   7.084   1.265  0.0376  0.2749 -0.4754
20466SOL    HW166528  10.116   7.113   1.196 -0.7929 -0.9556 -1.7508
20466SOL    HW266529  10.112   7.054   1.336  0.9109  1.5538 -0.6191
20467SOL     OW66530   4.922   0.525   9.019  0.0692  0.3014  0.5766
20467SOL    HW166531   4.921   0.535   9.114 -0.8790  0.1057  0.5919
20467SOL    HW266532   4.837   0.486   8.998  0.4872 -0.1579 -0.2973
20468SOL     OW66533  10.347   1.671   4.859  0.4708 -0.4918  0.2525
20468SOL    HW166534  10.380   1.723   4.933 -2.2553 -0.9382  1.8342
20468SOL    HW266535  10.348   1.733   4.785  1.7591  0.4084  0.9904
20469SOL     OW66536   9.755   7.000  10.103  0.3425 -0.1861 -0.4742
20469SOL    HW166537   9.751   7.049  10.185 -2.3182  1.9748 -1.8118
20469SOL    HW266538   9.665   6.973  10.086  0.9398 -1.1023 -2.3944
20470SOL     OW66539   8.393   5.710   7.076  0.0708 -0.1467 -0.1219
20470SOL    HW166540   8.377   5.626   7.119  0.2554 -0.5978 -0.9336
20470SOL    HW266541   8.485   5.705   7.048  0.8069  1.2659  1.9304
20471SOL     OW66542   0.063   0.721   7.220 -0.1962 -0.4150  0.4101
20471SOL    HW166543   0.063   0.672   7.138  1.3175  0.5793 -0.1885
20471SOL    HW266544  -0.004   0.678   7.273 -1.9833 -0.3418 -1.7525
20472SOL     OW66545   6.249  10.791   3.029 -0.2159  0.5545 -0.4301
20472SOL    HW166546   6.239  10.721   3.094  0.9405  1.5088  0.7985
20472SOL    HW266547   6.339  10.821   3.040 -0.1915  1.1143 -2.0947
20473SOL     OW66548   0.943   3.076   1.807  0.1187 -0.2219 -0.1559
20473SOL    HW166549   0.973   3.160   1.773  1.9177 -0.4497  0.7859
20473SOL    HW266550   1.024   3.031   1.832 -0.9658 -1.3840  1.3025
20474SOL     OW66551  11.105   9.653   2.021 -0.2609  0.0367 -0.1091
20474SOL    HW166552  11.088   9.675   2.113 -2.6334 -1.7913 -0.0804
20474SOL    HW266553  11.180   9.593   2.025  0.6469  1.1873  0.4858
20475SOL     OW66554   8.735   0.381   1.882 -0.1399 -0.6000  0.0416
20475SOL    HW166555   8.731   0.382   1.978  1.1836  0.5953  0.1054
20475SOL    HW266556   8.741   0.288   1.859  1.4118 -0.8123  1.2218
20476SOL     OW66557   3.923   9.437   9.133 -0.1207  0.0064 -0.1647
20476SOL    HW166558   3.984   9.392   9.191 -1.7334 -2.0075  0.0291
20476SOL    HW266559   3.963   9.429   9.046  0.9067  0.5433  0.2519
20477SOL     OW66560   2.648   3.834   4.819  0.5210  0.0281 -0.2844
20477SOL    HW166561   2.692   3.847   4.903 -0.3311  0.4692  0.0985
20477SOL    HW266562   2.626   3.741   4.818 -0.5374  0.2590  0.5174
20478SOL     OW66563   1.052   4.154   2.012  0.2191  0.1258 -0.2048
20478SOL    HW166564   1.141   4.176   1.984  0.9160 -0.3292  1.5669
20478SOL    HW266565   1.045   4.059   1.997 -0.0508  0.2046 -0.5742
20479SOL     OW66566   9.150   8.745   9.661  0.3578 -0.5266 -0.0722
20479SOL    HW166567   9.132   8.668   9.608  2.8215 -1.5133  0.4442
20479SOL    HW266568   9.142   8.715   9.751 -0.7594  0.3674  0.1392
20480SOL     OW66569   5.635   8.948  10.050  0.0112  0.6738 -0.1452
20480SOL    HW166570   5.663   8.875  10.104 -1.2194  0.7232  0.5756
20480SOL    HW266571   5.673   8.930   9.964  2.4865  0.9098  0.8499
20481SOL     OW66572   2.846   9.504  11.320  0.3103  0.3285 -0.2648
20481SOL    HW166573   2.893   9.540  11.244  1.0976 -0.6133 -0.2310
20481SOL    HW266574   2.753   9.510  11.296  0.5621 -0.2136 -1.4228
20482SOL     OW66575  11.217   9.659   5.863 -0.1218 -0.3749  0.6243
20482SOL    HW166576  11.227   9.634   5.955 -2.3788 -3.6885  0.0184
20482SOL    HW266577  11.262   9.591   5.814 -1.4332 -0.2042 -0.8601
20483SOL     OW66578   0.616   4.696   1.821 -0.9426 -0.6461  0.2589
20483SOL    HW166579   0.548   4.630   1.834 -2.1735  0.4747 -0.3548
20483SOL    HW266580   0.594   4.766   1.882  0.7105 -1.0521  1.3497
20484SOL     OW66581   3.102   3.954   8.231 -0.2708  0.2655  0.1724
20484SOL    HW166582   3.171   3.909   8.182 -0.1088  0.7135 -0.0129
20484SOL    HW266583   3.039   3.980   8.164 -0.7488 -0.3765  0.3746
20485SOL     OW66584   0.947   6.048  10.001 -0.0079 -0.2533 -0.5084
20485SOL    HW166585   0.990   6.025  10.084 -0.6933  0.0887 -0.0531
20485SOL    HW266586   0.875   5.986   9.993  0.4453 -0.6991 -1.1740
20486SOL     OW66587   9.499   8.329   3.420  0.1173 -0.3705 -0.0029
20486SOL    HW166588   9.405   8.322   3.437 -0.1168  0.3800 -0.9602
20486SOL    HW266589   9.525   8.412   3.458  0.1973 -0.1163 -0.6040
20487SOL     OW66590   7.734   7.079  11.275 -0.0463  0.3229 -0.0106
20487SOL    HW166591   7.676   7.102  11.202  1.6782 -0.5601 -1.7007
20487SOL    HW266592   7.675   7.048  11.343 -1.7453  1.7787 -0.7653
20488SOL     OW66593   5.603   0.096   3.612  0.4600  0.0452  0.2335
20488SOL    HW166594   5.575   0.059   3.528  2.5053  2.9365 -1.8460
20488SOL    HW266595   5.647   0.178   3.588  0.2325  1.4343  4.2389
20489SOL     OW66596   7.295   2.010   6.322  0.0523 -0.7538  0.3368
20489SOL    HW166597   7.384   2.045   6.316 -0.7521  1.2762 -0.1737
20489SOL    HW266598   7.261   2.016   6.233 -0.0932 -2.9973  0.1998
20490SOL     OW66599   0.322   8.266   7.025 -0.3011 -0.2411  0.5719
20490SOL    HW166600   0.299   8.278   7.117 -1.2662 -1.7659  0.5345
20490SOL    HW266601   0.258   8.204   6.991  0.6975 -0.5200 -0.8705
20491SOL     OW66602  11.096   4.716   4.983 -0.5639  0.3450  0.6728
20491SOL    HW166603  11.136   4.802   4.999  2.5639 -0.6447 -1.1691
20491SOL    HW266604  11.031   4.733   4.915  0.2338  1.2356  0.1112
20492SOL     OW66605  10.172   5.074   8.644  1.0273 -0.1525 -0.6422
20492SOL    HW166606  10.147   4.996   8.595  3.0727 -0.5297 -1.1242
20492SOL    HW266607  10.229   5.041   8.714  0.8131  0.7516 -0.0323
20493SOL     OW66608  10.629   1.169   0.811 -0.0545 -0.3340 -0.1244
20493SOL    HW166609  10.697   1.188   0.875  2.5607 -2.1841 -2.2318
20493SOL    HW266610  10.647   1.079   0.782 -4.3554 -1.5006  0.3709
20494SOL     OW66611   0.755  11.199   6.634  0.0084  0.2691  0.1398
20494SOL    HW166612   0.766  11.280   6.585 -0.3325  0.0982 -0.2185
20494SOL    HW266613   0.825  11.142   6.603 -1.0833 -0.3626 -1.2166
20495SOL     OW66614  10.107   5.159   8.328 -0.1655  0.3556  0.1669
20495SOL    HW166615  10.074   5.088   8.273  0.4164  0.3201 -0.1416
20495SOL    HW266616  10.186   5.190   8.282  1.2021 -0.6958  1.7733
20496SOL     OW66617   7.275   4.568   7.589  0.1509  0.2951 -0.2594
20496SOL    HW166618   7.200   4.618   7.555 -0.0094  1.2129  1.4019
20496SOL    HW266619   7.286   4.496   7.527 -1.5184  0.6854 -1.0330
20497SOL     OW66620   6.324   5.333   9.876  0.1266  0.0058  0.0738
20497SOL    HW166621   6.324   5.249   9.831  2.2211 -0.8203  1.5389
20497SOL    HW266622   6.264   5.388   9.825 -1.4237 -2.4104 -0.7783
20498SOL     OW66623   4.157  10.343   3.133 -0.9505  0.1024  0.0405
20498SOL    HW166624   4.111  10.332   3.216 -1.6143  0.5538 -0.2653
20498SOL    HW266625   4.129  10.269   3.080  0.0371 -0.5949  0.4633
20499SOL     OW66626   1.065   3.278   5.881  0.5314  0.7110  0.2867
20499SOL    HW166627   1.132   3.221   5.844 -0.4470 -0.3975  0.2324
20499SOL    HW266628   1.074   3.360   5.832  3.1641  1.2717  1.6117
20500SOL     OW66629   7.683   3.282   1.809  0.3808 -0.2676  0.0182
20500SOL    HW166630   7.591   3.296   1.828  1.5826  5.7796  2.3528
20500SOL    HW266631   7.712   3.218   1.874 -1.7076 -0.8550  0.3933
20501SOL     OW66632  10.985   6.624   2.234  0.1433 -0.2448  0.7644
20501SOL    HW166633  10.982   6.719   2.218 -3.1155 -0.5430 -0.9136
20501SOL    HW266634  11.065   6.595   2.191  0.4374  1.5694  0.0401
20502SOL     OW66635   4.595   4.934  10.426  0.2735 -0.0261 -0.3495
20502SOL    HW166636   4.591   4.898  10.337  1.1343 -0.0355 -0.3928
20502SOL    HW266637   4.688   4.956  10.438  0.2673 -0.6300  0.7883
20503SOL     OW66638   8.467  10.404   4.629  0.2586  0.0399 -0.1236
20503SOL    HW166639   8.513  10.322   4.649  0.3059  0.0813 -0.0575
20503SOL    HW266640   8.532  10.472   4.647  0.0267  0.1254  0.4065
20504SOL     OW66641   4.876   7.576   0.992  0.1672 -0.2651 -0.2895
20504SOL    HW166642   4.898   7.586   0.900 -2.0699 -2.1515 -1.0647
20504SOL    HW266643   4.781   7.564   0.994  0.1624 -0.2009  2.2520
20505SOL     OW66644   4.473   7.870  11.187 -0.3895  0.0291  0.0851
20505SOL    HW166645   4.410   7.799  11.176 -1.7058  1.0999  0.6393
20505SOL    HW266646   4.523   7.846  11.264 -1.8153  0.4169  1.1514
20506SOL     OW66647   8.653   3.330   7.562 -0.2368 -0.1658  0.0469
20506SOL    HW166648   8.718   3.366   7.502  0.5409 -0.2738  0.8162
20506SOL    HW266649   8.576   3.312   7.507  0.1581  0.5562 -0.7486
20507SOL     OW66650   3.194   7.266   3.205  0.3904  0.1295  0.4777
20507SOL    HW166651   3.119   7.206   3.199 -0.6861  1.5470 -0.2850
20507SOL    HW266652   3.156   7.350   3.228  1.8684  0.6547  1.0686
20508SOL     OW66653   0.817   4.184   1.230 -0.4474  0.2928 -0.1837
20508SOL    HW166654   0.870   4.181   1.310  0.2642 -1.2320 -0.6955
20508SOL    HW266655   0.859   4.122   1.171 -4.0489 -2.5848  0.1312
20509SOL     OW66656  11.304   4.690   0.079  0.3233 -0.6650  0.6962
20509SOL    HW166657  11.282   4.610   0.031  1.3096 -1.9070  2.2576
20509SOL    HW266658  11.373   4.663   0.140  1.4276  1.6192  0.5255
20510SOL     OW66659   0.031   1.772   3.380 -0.3384 -0.0467 -0.3359
20510SOL    HW166660   0.118   1.810   3.389 -0.2073 -0.7227  1.4719
20510SOL    HW266661   0.024   1.711   3.454 -2.0790 -0.5168 -0.8674
20511SOL     OW66662   8.235   8.508   1.548  0.2832 -0.3554 -0.1125
20511SOL    HW166663   8.277   8.450   1.485  2.3775 -0.5659  1.4199
20511SOL    HW266664   8.307   8.555   1.589 -1.2325  1.7565  0.2312
20512SOL     OW66665  10.422   0.845   7.574  0.6713  0.5397 -0.0970
20512SOL    HW166666  10.492   0.906   7.600 -0.7039  1.5167  1.3680
20512SOL    HW266667  10.418   0.781   7.646 -0.9606  1.3791  0.5845
20513SOL     OW66668   4.424   6.739   3.977 -0.0428 -0.7772 -0.0906
20513SOL    HW166669   4.411   6.664   4.035  1.8541  0.5584  2.1504
20513SOL    HW266670   4.405   6.815   4.032  0.1728  0.4628 -1.7028
20514SOL     OW66671   7.374   1.113   7.503 -0.2246 -0.2334 -0.7919
20514SOL    HW166672   7.300   1.056   7.522 -0.5389 -0.3643 -2.3505
20514SOL    HW266673   7.424   1.067   7.436 -1.2836  1.9430 -3.1644
20515SOL     OW66674   3.154   3.398   6.970 -0.1527 -0.0745 -0.4356
20515SOL    HW166675   3.213   3.473   6.968  0.2824 -0.4323 -2.3279
20515SOL    HW266676   3.114   3.397   6.883  0.2350 -2.3310 -0.6199
20516SOL     OW66677   0.638   8.717   0.206  0.2660 -0.2363 -0.0953
20516SOL    HW166678   0.590   8.758   0.134 -0.3690  0.5445  0.7742
20516SOL    HW266679   0.700   8.658   0.162 -1.5581 -1.3479 -1.2146
20517SOL     OW66680   0.597   0.804   9.143  0.4472  0.2166  0.3712
20517SOL    HW166681   0.638   0.779   9.226  0.8386 -2.8555 -0.6909
20517SOL    HW266682   0.539   0.731   9.122 -0.0900  1.2322 -1.7850
20518SOL     OW66683   6.897  10.916   5.692  0.3903 -0.2292  0.3473
20518SOL    HW166684   6.905  10.863   5.613 -0.2086 -1.2626  0.9823
20518SOL    HW266685   6.899  11.007   5.660  0.7673 -0.6365 -0.7899
20519SOL     OW66686   6.661   3.269  10.760 -0.0805  0.2805 -0.0092
20519SOL    HW166687   6.630   3.278  10.851  0.9447 -0.9465  0.4839
20519SOL    HW266688   6.698   3.181  10.757 -0.2038  0.2858 -1.6595
20520SOL     OW66689   6.684   9.543   2.863  0.3243  0.0145  0.4954
20520SOL    HW166690   6.755   9.482   2.883  1.2973  1.2929  1.0150
20520SOL    HW266691   6.684   9.548   2.767  0.7074 -0.2638  0.4786
20521SOL     OW66692   6.091   3.491  10.040 -0.3275 -0.0590  0.0797
20521SOL    HW166693   6.120   3.421   9.982 -0.3023  0.7517 -0.9115
20521SOL    HW266694   6.140   3.477  10.121 -1.7085 -2.2761  0.5798
20522SOL     OW66695   6.924   9.990   0.717  0.0776 -0.1175 -0.1161
20522SOL    HW166696   6.874   9.909   0.726 -0.4070  0.0206 -1.4056
20522SOL    HW266697   7.015   9.964   0.735 -0.3572 -0.4881  1.6372
20523SOL     OW66698   4.259  11.189   0.370  0.2051 -0.0185  0.5169
20523SOL    HW166699   4.202  11.210   0.445  0.5019 -0.0854  0.7634
20523SOL    HW266700   4.219  11.113   0.329  1.5266 -1.6700  2.2228
20524SOL     OW66701   7.941   6.503  10.021 -0.2804  0.3672  0.5230
20524SOL    HW166702   7.951   6.593  10.051 -0.1453  0.5282 -0.0042
20524SOL    HW266703   7.984   6.451  10.089 -2.8373  0.4775  2.3093
20525SOL     OW66704   9.645   6.636   2.513  0.1132  0.2538  0.0262
20525SOL    HW166705   9.700   6.590   2.449  1.3844  1.6343  0.1026
20525SOL    HW266706   9.603   6.706   2.463 -1.1450 -0.4432  0.0942
20526SOL     OW66707   2.104   9.850   6.357  0.4588 -0.0124  0.1881
20526SOL    HW166708   2.060   9.934   6.344  2.0120  1.2804  2.8994
20526SOL    HW266709   2.195   9.867   6.333  0.6475 -1.1115  0.1133
20527SOL     OW66710   1.440   9.331   9.113  0.3890  0.2822  0.3982
20527SOL    HW166711   1.400   9.364   9.194 -0.6467  0.3271 -0.1299
20527SOL    HW266712   1.532   9.314   9.137 -0.4269 -1.8958  2.2267
20528SOL     OW66713   6.876   4.254   8.276  0.2138  0.3566  0.3178
20528SOL    HW166714   6.865   4.344   8.306  0.6378  1.0363 -1.4661
20528SOL    HW266715   6.787   4.224   8.259  0.1041  0.6146  0.4261
20529SOL     OW66716   9.139   6.331   1.371  0.6199  0.1535  0.2843
20529SOL    HW166717   9.067   6.383   1.333  0.4640  0.9331  1.6308
20529SOL    HW266718   9.098   6.282   1.442  0.7635 -1.8724 -1.0097
20530SOL     OW66719   0.862   1.339   5.020 -0.7024  0.3149  1.2774
20530SOL    HW166720   0.846   1.380   4.935  2.5027 -0.5519  0.1652
20530SOL    HW266721   0.873   1.412   5.081  1.2665  1.0697  0.0601
20531SOL     OW66722   1.794   6.803   0.233 -0.1341 -0.0623 -0.0217
20531SOL    HW166723   1.829   6.877   0.182 -1.8759  1.0138  0.3126
20531SOL    HW266724   1.754   6.746   0.168  0.8948 -0.5567 -0.2397
20532SOL     OW66725   4.113   2.123   6.454  0.5141  0.4354  0.4419
20532SOL    HW166726   4.153   2.203   6.419 -0.6888  0.8109 -0.0792
20532SOL    HW266727   4.034   2.153   6.498 -0.9537 -0.6560 -1.3739
20533SOL     OW66728   5.733   7.946  10.612 -0.1600  0.1253 -0.6298
20533SOL    HW166729   5.772   8.009  10.552 -1.2377 -0.0004 -1.4870
20533SOL    HW266730   5.751   7.860  10.573  0.6344 -0.0661  0.1338
20534SOL     OW66731   3.146   5.607   4.044 -0.0460 -0.3170  0.2666
20534SOL    HW166732   3.199   5.666   3.991 -1.4245  2.4814  1.8612
20534SOL    HW266733   3.057   5.620   4.012 -0.4417 -1.0939  1.0473
20535SOL     OW66734   9.062   7.837   6.888 -0.4021  0.9853 -0.3333
20535SOL    HW166735   9.018   7.882   6.960 -1.3368  0.4081 -0.5236
20535SOL    HW266736   9.107   7.763   6.930 -1.4781  0.2723 -0.4066
20536SOL     OW66737   8.246   3.466   3.958  0.0598 -0.1436  1.0844
20536SOL    HW166738   8.197   3.515   3.891 -1.1203 -1.1058  1.2173
20536SOL    HW266739   8.297   3.532   4.005 -0.1957  0.7206  0.1511
20537SOL     OW66740   7.028   9.206   4.799 -0.3182 -0.2287 -0.4842
20537SOL    HW166741   6.965   9.234   4.865 -0.9411  0.7083 -1.4470
20537SOL    HW266742   7.113   9.213   4.842 -0.8251 -1.0573  0.6804
20538SOL     OW66743  11.195   1.367   3.633 -0.1940 -0.1895  0.0088
20538SOL    HW166744  11.224   1.317   3.709  1.6136  0.2195 -0.3878
20538SOL    HW266745  11.110   1.329   3.610 -1.1247  0.1828  2.6781
20539SOL     OW66746   4.069   8.923   5.415  0.5249  0.3785 -0.0673
20539SOL    HW166747   4.073   8.975   5.495  1.3104  0.1492  0.0438
20539SOL    HW266748   4.034   8.838   5.443  0.9446  0.2474  0.0589
20540SOL     OW66749   6.735   2.950   6.044 -0.2226 -0.6038 -0.0703
20540SOL    HW166750   6.657   3.006   6.036 -0.5897 -1.3627 -2.3694
20540SOL    HW266751   6.707   2.878   6.101 -0.9562 -0.4253 -0.1934
20541SOL     OW66752   2.472   8.801   4.087 -0.0039  0.3038 -0.4328
20541SOL    HW166753   2.542   8.770   4.144  1.8504  1.3022 -2.0924
20541SOL    HW266754   2.505   8.785   3.998 -2.4122 -0.3524 -1.2337
20542SOL     OW66755   9.229   6.932   4.410 -0.3107  0.2579 -0.4141
20542SOL    HW166756   9.206   6.870   4.479 -2.1484  0.5641 -0.7338
20542SOL    HW266757   9.305   6.892   4.367 -1.1985 -1.5724 -0.3389
20543SOL     OW66758   4.832   2.575   1.201  0.2814  0.2809 -0.6287
20543SOL    HW166759   4.836   2.571   1.105 -0.7718 -0.1403 -0.6592
20543SOL    HW266760   4.871   2.492   1.230 -1.2209 -0.4859 -0.7502
20544SOL     OW66761   5.033  11.098   1.145 -0.1124 -0.5866 -0.4375
20544SOL    HW166762   5.108  11.117   1.202  0.3607 -1.5866 -0.7311
20544SOL    HW266763   5.072  11.073   1.062 -0.7811 -1.2575 -0.5457
20545SOL     OW66764   7.354   2.878   2.962 -0.0009 -0.1052  0.0326
20545SOL    HW166765   7.294   2.857   3.033  0.1893 -0.8466 -0.0160
20545SOL    HW266766   7.401   2.796   2.946 -0.4523 -0.1131 -1.3323
20546SOL     OW66767  10.004   5.596   0.953  0.3982  0.1784  0.1024
20546SOL    HW166768   9.957   5.678   0.964 -1.0171 -0.9295  2.7140
20546SOL    HW266769  10.073   5.598   1.020  1.5175  0.0193 -1.0184
20547SOL     OW66770  10.347   2.779   6.052 -0.0820  0.8153  0.5955
20547SOL    HW166771  10.420   2.717   6.054 -0.7955 -0.0431  0.9527
20547SOL    HW266772  10.385   2.862   6.079  1.0500  0.7000 -0.6293
20548SOL     OW66773   8.565   6.093   2.432 -0.1240  0.0394 -0.1895
20548SOL    HW166774   8.579   6.114   2.339  3.6822  0.0270  0.2701
20548SOL    HW266775   8.542   6.000   2.432  1.4591 -0.3858 -1.0748
20549SOL     OW66776   2.974   0.277   1.760 -0.6326  0.0394 -0.4254
20549SOL    HW166777   2.944   0.289   1.670 -1.7761  2.0254  0.1708
20549SOL    HW266778   2.916   0.210   1.796 -1.8032  1.0278 -0.4499
20550SOL     OW66779   5.055   3.553   2.625  0.1790  0.5331  0.3798
20550SOL    HW166780   5.137   3.512   2.651  0.2032  0.1353 -0.3053
20550SOL    HW266781   4.994   3.479   2.616  0.3293  0.5876 -1.2588
20551SOL     OW66782   8.215   8.575   4.874  0.0116  0.9305 -0.1174
20551SOL    HW166783   8.157   8.509   4.912  0.5908  0.9706  0.8340
20551SOL    HW266784   8.299   8.530   4.864 -0.1770  0.8642 -1.5076
20552SOL     OW66785   8.870   0.515   8.800 -0.3223 -0.1024  0.3083
20552SOL    HW166786   8.872   0.516   8.895  0.0082 -1.4743  0.3254
20552SOL    HW266787   8.784   0.550   8.777  0.2302  1.8064  1.0576
20553SOL     OW66788   5.161   4.180   7.454 -0.1765 -0.0169 -0.0588
20553SOL    HW166789   5.089   4.242   7.465 -0.5835 -0.5001  0.0532
20553SOL    HW266790   5.120   4.104   7.412  0.0566 -0.7093  0.9535
20554SOL     OW66791   7.461   0.822   3.147  0.2844  0.0396 -0.7593
20554SOL    HW166792   7.399   0.860   3.085 -0.1084 -0.7518 -0.8702
20554SOL    HW266793   7.434   0.730   3.153  0.2560  0.1367  0.6619
20555SOL     OW66794   9.139   3.671   1.318  0.9886  0.3393 -0.3111
20555SOL    HW166795   9.178   3.640   1.235  1.3851  1.0831 -0.4065
20555SOL    HW266796   9.056   3.711   1.292  0.1296 -1.2549 -0.1062
20556SOL     OW66797   6.793   2.651   0.465 -0.0544 -0.1244 -0.0706
20556SOL    HW166798   6.848   2.632   0.540 -0.9219 -1.0095  0.3372
20556SOL    HW266799   6.775   2.566   0.425 -2.2009  0.0070  0.5523
20557SOL     OW66800  10.519   7.353   9.527 -0.2586  0.1105  0.3395
20557SOL    HW166801  10.588   7.323   9.587 -1.1575 -0.3291  1.1604
20557SOL    HW266802  10.538   7.307   9.445  1.3831  1.2475  0.0707
20558SOL     OW66803   3.506   6.392  10.887 -0.4047 -0.2824 -0.0570
20558SOL    HW166804   3.464   6.478  10.889  0.0184 -0.0987  1.9318
20558SOL    HW266805   3.582   6.404  10.831 -0.4752  0.5721  0.0199
20559SOL     OW66806   3.619  10.972   0.189 -0.0316 -0.1808  0.6529
20559SOL    HW166807   3.635  11.067   0.191  1.1769 -0.2839 -2.3479
20559SOL    HW266808   3.703  10.933   0.213  0.0627 -0.5032 -0.1834
20560SOL     OW66809   5.264   0.036   7.309  0.2668  0.0450  0.1407
20560SOL    HW166810   5.214  -0.028   7.360  0.7169 -0.6009 -0.2226
20560SOL    HW266811   5.284   0.106   7.371 -0.5545  0.0233  0.4445
20561SOL     OW66812   6.881   2.841   0.006  0.6458 -0.0561 -0.1856
20561SOL    HW166813   6.884   2.816  -0.086  1.1634  1.5396 -0.6178
20561SOL    HW266814   6.960   2.804   0.044  0.7379 -0.1908 -0.5096
20562SOL     OW66815  10.652   3.074   0.211 -0.3044  0.1772  0.0881
20562SOL    HW166816  10.723   3.058   0.148  0.1598 -0.6595  0.8150
20562SOL    HW266817  10.574   3.088   0.156 -0.1278 -1.6531 -0.6748
20563SOL     OW66818   5.967   1.200   3.802 -0.5218 -0.7894  0.2760
20563SOL    HW166819   6.028   1.262   3.761 -0.8469 -0.7623 -0.1661
20563SOL    HW266820   6.017   1.118   3.808 -0.2010 -0.5741  0.5628
20564SOL     OW66821   4.808  11.239   1.885 -0.0042 -0.2831  0.5518
20564SOL    HW166822   4.863  11.163   1.899  0.8227 -0.1159 -1.6026
20564SOL    HW266823   4.720  11.203   1.871  0.1215 -0.7296  0.8948
20565SOL     OW66824   3.921   4.018   7.456 -0.5917  0.4870 -0.3890
20565SOL    HW166825   3.966   3.971   7.385 -0.8120 -0.7239  0.2593
20565SOL    HW266826   3.874   3.950   7.503 -1.5319  1.4853  0.1177
20566SOL     OW66827   9.475   7.301   7.175  0.9050 -0.1905  0.0902
20566SOL    HW166828   9.485   7.340   7.088 -0.6799 -0.4953 -0.2383
20566SOL    HW266829   9.531   7.354   7.232  2.0079 -0.0287 -1.1198
20567SOL     OW66830   8.085   2.640   2.614 -0.5364 -0.1056 -0.1405
20567SOL    HW166831   8.085   2.657   2.520 -1.2129 -3.1734 -0.7467
20567SOL    HW266832   8.171   2.668   2.643 -0.3926  1.0726 -1.6315
20568SOL     OW66833   2.297   9.339   9.260  0.3344 -0.2738 -0.0075
20568SOL    HW166834   2.294   9.314   9.352 -1.1794 -0.7436 -0.1722
20568SOL    HW266835   2.390   9.353   9.242  0.6383 -0.1498  1.5925
20569SOL     OW66836   6.839   2.707   5.384  0.1157 -0.6152  0.1155
20569SOL    HW166837   6.823   2.646   5.312  0.3206 -0.8578  0.2724
20569SOL    HW266838   6.774   2.776   5.371  0.7630 -0.1760 -0.8308
20570SOL     OW66839   1.539  10.762   5.414 -0.0797  0.0245  0.0342
20570SOL    HW166840   1.511  10.736   5.502  4.6037 -2.0056  1.1097
20570SOL    HW266841   1.550  10.679   5.367 -0.4315  0.9774 -1.7608
20571SOL     OW66842   6.126   2.231   3.079 -0.0152  0.0630 -0.0742
20571SOL    HW166843   6.101   2.146   3.041  0.7103 -0.5007  0.7046
20571SOL    HW266844   6.201   2.211   3.135  1.0296  1.4347 -0.9478
20572SOL     OW66845   1.357   7.320   2.200 -0.0997 -0.4906  0.5964
20572SOL    HW166846   1.371   7.404   2.245  1.7116  1.1346 -2.8133
20572SOL    HW266847   1.445   7.291   2.175 -1.0980 -0.8133 -2.7291
20573SOL     OW66848  10.520   4.110   8.377  0.2289 -0.0904  0.1000
20573SOL    HW166849  10.576   4.181   8.346 -0.7181  1.5246  1.9817
20573SOL    HW266850  10.481   4.074   8.297  1.5227  0.8234 -0.9612
20574SOL     OW66851   5.279  11.025   9.247 -0.2361  0.3025 -0.7792
20574SOL    HW166852   5.335  10.947   9.249 -0.7683 -0.0917 -0.9867
20574SOL    HW266853   5.252  11.033   9.155 -1.2104 -0.0202 -0.5328
20575SOL     OW66854   7.092   6.126   6.027  0.1583 -0.4751  0.1744
20575SOL    HW166855   7.076   6.168   5.943 -1.2068 -1.3318 -0.0022
20575SOL    HW266856   7.060   6.037   6.016  0.1278 -0.6392  1.5450
20576SOL     OW66857  10.798   9.352   3.016 -0.5687 -0.7149  0.4582
20576SOL    HW166858  10.820   9.294   3.089  0.2738 -0.1465  0.6639
20576SOL    HW266859  10.715   9.318   2.983 -0.1180 -2.0182  0.6074
20577SOL     OW66860  10.009   4.853   6.803 -0.1166 -0.1253  0.5337
20577SOL    HW166861  10.038   4.813   6.721  2.5363  1.0032  0.8954
20577SOL    HW266862   9.915   4.833   6.807  0.1362 -1.9732 -1.7398
20578SOL     OW66863   1.352   1.697   4.705 -0.2601  0.2650  0.6972
20578SOL    HW166864   1.305   1.674   4.624 -0.5636 -1.1980  1.2788
20578SOL    HW266865   1.359   1.792   4.701  0.7142  0.1398 -1.5994
20579SOL     OW66866   9.810   8.674   8.513  0.0174 -0.2411  0.0346
20579SOL    HW166867   9.874   8.607   8.536  0.4605  0.6826  1.5985
20579SOL    HW266868   9.837   8.751   8.564 -1.7516  0.4599 -0.0592
20580SOL     OW66869  10.480   9.648  11.261  0.6978  0.9029  0.2274
20580SOL    HW166870  10.441   9.723  11.307 -0.5119 -0.8912  2.2639
20580SOL    HW266871  10.405   9.595  11.234  1.5806 -1.1602  1.6559
20581SOL     OW66872   6.888   9.478   6.802 -0.0172  0.2325  0.2557
20581SOL    HW166873   6.879   9.477   6.898 -0.8066 -0.2760  0.1838
20581SOL    HW266874   6.833   9.405   6.773  1.9561 -1.0023 -0.4568
20582SOL     OW66875   1.863   2.778   5.308  0.0456  0.2324 -0.2121
20582SOL    HW166876   1.931   2.817   5.362 -1.1071  0.5141  1.0904
20582SOL    HW266877   1.839   2.697   5.354 -2.0192  1.2394  0.5801
20583SOL     OW66878   1.348   1.300   2.760  0.0710 -0.1224 -0.1245
20583SOL    HW166879   1.410   1.369   2.784 -0.5483 -0.5920  3.1145
20583SOL    HW266880   1.267   1.325   2.807 -1.0956 -1.3865 -1.4411
20584SOL     OW66881   1.431   9.439   0.431  0.1551 -0.0152  0.3486
20584SOL    HW166882   1.341   9.411   0.417 -0.0001  0.1993  0.8964
20584SOL    HW266883   1.450   9.417   0.523  0.3269  0.8258  0.5269
20585SOL     OW66884   7.045  10.208   7.293 -0.0301  0.2546  0.3843
20585SOL    HW166885   6.972  10.239   7.240  0.5763  1.5374  0.2699
20585SOL    HW266886   7.039  10.258   7.374 -0.1132 -0.6730  0.9633
20586SOL     OW66887   7.265   6.258   6.448  0.2257 -0.0249  0.0653
20586SOL    HW166888   7.189   6.265   6.391  0.0511 -1.5890  0.0975
20586SOL    HW266889   7.230   6.250   6.536  0.4462 -0.0324  0.1547
20587SOL     OW66890   6.866   5.433   1.101 -0.4128  0.0790  0.2463
20587SOL    HW166891   6.961   5.444   1.095 -0.2041  0.4096  3.2405
20587SOL    HW266892   6.844   5.372   1.031  1.8094  0.9721 -1.3041
20588SOL     OW66893   9.352   6.890   5.516 -0.7225  0.2131 -0.8541
20588SOL    HW166894   9.303   6.811   5.493 -1.3208 -0.0177  1.0702
20588SOL    HW266895   9.443   6.859   5.525 -1.0100 -0.3510  0.2287
20589SOL     OW66896   5.501   5.075   0.447  0.7239 -0.0363  0.2927
20589SOL    HW166897   5.560   5.024   0.393  1.2849  0.2587  0.6215
20589SOL    HW266898   5.453   5.011   0.499 -0.6947 -0.4009 -1.4151
20590SOL     OW66899   8.990  10.334  10.660 -0.2265 -0.4120 -0.0102
20590SOL    HW166900   8.913  10.333  10.604  1.0875  1.0476 -1.8833
20590SOL    HW266901   9.008  10.242  10.678 -1.5535 -0.8155 -0.7340
20591SOL     OW66902   6.038   7.951  10.994  0.5549 -0.7299  0.0250
20591SOL    HW166903   6.104   7.893  10.955 -0.1472 -0.6098 -1.3855
20591SOL    HW266904   6.049   8.034  10.947  1.4201  0.2579  1.8877
20592SOL     OW66905   9.972   8.808   9.914  0.2890  0.3311  0.7859
20592SOL    HW166906  10.059   8.827   9.948  0.7501  0.5994 -0.4936
20592SOL    HW266907   9.985   8.798   9.819 -0.6651 -1.9851  0.8602
20593SOL     OW66908   3.569   6.719   5.307  0.2757 -0.0013 -0.1907
20593SOL    HW166909   3.628   6.687   5.375  1.5248 -1.6981 -2.0349
20593SOL    HW266910   3.625   6.773   5.251 -0.4465  0.2897 -0.6337
20594SOL     OW66911   0.623   7.096  10.716  0.0488 -0.3521 -0.1824
20594SOL    HW166912   0.674   7.054  10.646 -0.8357  0.1218 -1.1290
20594SOL    HW266913   0.664   7.065  10.797  1.5913 -0.2752 -0.9150
20595SOL     OW66914   8.713   5.003   3.073 -0.1028 -0.0700  0.5563
20595SOL    HW166915   8.645   5.069   3.082  0.5767  0.6994  0.1514
20595SOL    HW266916   8.676   4.924   3.113 -1.3791  0.2217 -0.0182
20596SOL     OW66917   9.934   8.551   1.443  0.3086 -0.2308 -0.2840
20596SOL    HW166918   9.862   8.565   1.381  1.0767  0.0642 -1.1275
20596SOL    HW266919   9.991   8.627   1.431  0.2387  0.0532  1.1200
20597SOL     OW66920   1.632   2.227   0.766  0.3959  0.1552 -0.0546
20597SOL    HW166921   1.621   2.139   0.730  0.4353 -0.1948  0.7683
20597SOL    HW266922   1.588   2.285   0.703 -0.9527 -0.6062  0.1697
20598SOL     OW66923   3.374   4.543   1.426 -0.1784  0.4333 -0.8971
20598SOL    HW166924   3.337   4.507   1.346  1.4489  1.6850 -2.2453
20598SOL    HW266925   3.460   4.499   1.434  0.4695  1.6925 -0.8719
20599SOL     OW66926  10.035   6.822   5.167 -0.1159 -0.3085 -0.0869
20599SOL    HW166927   9.964   6.759   5.153 -1.1714  1.1964 -1.8021
20599SOL    HW266928   9.992   6.896   5.211  0.4145  0.5467 -1.0021
20600SOL     OW66929   7.366   5.042  10.033 -0.1281 -0.4004  0.1305
20600SOL    HW166930   7.272   5.024  10.033 -0.1317 -0.3818 -0.3275
20600SOL    HW266931   7.376   5.114  10.095 -0.4080 -0.4504  0.2328
20601SOL     OW66932   3.764   4.736   9.340 -0.1868  0.2901 -0.1385
20601SOL    HW166933   3.829   4.685   9.291  0.8633  1.2717  0.2081
20601SOL    HW266934   3.723   4.673   9.399 -1.5403 -0.9349 -2.3321
20602SOL     OW66935   3.067   5.677   1.502 -0.1059  0.1018  0.1157
20602SOL    HW166936   3.128   5.640   1.566 -0.2073 -0.7555 -0.2649
20602SOL    HW266937   3.037   5.601   1.452 -0.4433  0.6955 -0.5898
20603SOL     OW66938   8.899   8.001   4.749 -0.4813  0.1204  0.0949
20603SOL    HW166939   8.990   8.003   4.719  0.9433 -3.3324  3.7094
20603SOL    HW266940   8.867   7.915   4.722 -2.1071  0.6039  0.4225
20604SOL     OW66941   2.271  10.338   9.963 -0.3205  0.7686 -0.0102
20604SOL    HW166942   2.235  10.255   9.995  1.9682  0.1405  1.0285
20604SOL    HW266943   2.198  10.399   9.968 -1.6202 -0.7952  0.7018
20605SOL     OW66944   5.123   3.721   4.991 -0.3760 -0.4291 -0.0953
20605SOL    HW166945   5.029   3.722   4.972 -0.4369 -1.1660  0.1798
20605SOL    HW266946   5.142   3.631   5.016  0.3585 -0.2250  0.0923
20606SOL     OW66947   2.386   9.649   9.705  0.3078 -0.3814 -0.0024
20606SOL    HW166948   2.450   9.618   9.769 -1.1399 -2.3002  0.5374
20606SOL    HW266949   2.430   9.639   9.621  1.4565  0.2009  0.5198
20607SOL     OW66950   9.545   8.251   2.200 -0.1676  0.3135  0.4430
20607SOL    HW166951   9.501   8.336   2.203  0.2841  0.5122  2.0609
20607SOL    HW266952   9.628   8.265   2.244  0.8909 -0.4387 -1.2583
20608SOL     OW66953   3.619   3.163   4.030 -0.4644 -0.4289 -1.0849
20608SOL    HW166954   3.586   3.238   3.980  1.2149  1.0359 -0.0588
20608SOL    HW266955   3.679   3.119   3.970 -0.2838 -0.0603 -1.1774
20609SOL     OW66956   0.600   5.322   6.769 -0.4195  0.0963 -0.2943
20609SOL    HW166957   0.617   5.278   6.853  1.6603  1.3881  0.0030
20609SOL    HW266958   0.508   5.345   6.772 -0.6665 -1.0006  1.1015
20610SOL     OW66959   0.362   5.431   9.790 -0.3293 -0.5664 -0.1241
20610SOL    HW166960   0.327   5.349   9.754  0.7842 -1.7976  1.4692
20610SOL    HW266961   0.457   5.415   9.797 -0.2975  0.2721  1.6156
20611SOL     OW66962   6.047   3.902   7.433 -0.8636  0.4846  0.1836
20611SOL    HW166963   5.961   3.916   7.393 -0.3623  1.1091 -0.6807
20611SOL    HW266964   6.035   3.929   7.525 -1.4458  1.1211 -0.0702
20612SOL     OW66965   1.191   1.518   5.648  0.1144 -0.8008 -0.6161
20612SOL    HW166966   1.211   1.479   5.733 -0.5074  1.4468  0.6132
20612SOL    HW266967   1.273   1.513   5.600  1.0746 -0.1611  0.9131
20613SOL     OW66968   5.453   4.906   5.892  0.4963 -0.8155  0.2805
20613SOL    HW166969   5.381   4.969   5.892  0.2920 -1.0142  2.5397
20613SOL    HW266970   5.506   4.929   5.816 -0.1074  1.4493  0.5323
20614SOL     OW66971   5.677   4.006  10.685 -0.7343  0.4193 -0.0979
20614SOL    HW166972   5.609   4.039  10.743  0.2298  1.7827  0.2530
20614SOL    HW266973   5.698   4.079  10.628  1.0991  0.2883  0.3968
20615SOL     OW66974   1.315  11.169   5.245  0.3325 -0.2350  0.4180
20615SOL    HW166975   1.282  11.220   5.171  0.1868 -0.3520  0.4021
20615SOL    HW266976   1.378  11.109   5.206 -0.7496 -1.2284  0.1951
20616SOL     OW66977   6.592   9.281   1.459 -0.8998  0.4225 -0.7327
20616SOL    HW166978   6.666   9.308   1.514 -1.2504  1.2886 -0.6705
20616SOL    HW266979   6.552   9.364   1.433 -3.1228 -0.0763  0.9615
20617SOL     OW66980  10.085   5.793  11.049 -0.6005 -0.2843 -0.0181
20617SOL    HW166981  10.151   5.755  11.107 -0.2883 -1.0022 -0.8188
20617SOL    HW266982  10.005   5.743  11.068 -0.9848  0.7510  1.1263
20618SOL     OW66983   7.005   4.247   9.258  0.7645 -0.0409 -0.5132
20618SOL    HW166984   7.097   4.245   9.284  0.2431 -0.3207  1.3322
20618SOL    HW266985   6.960   4.192   9.322 -0.6388 -0.2873 -1.6709
20619SOL     OW66986   3.995   2.825   1.203  0.4487  0.0794 -0.1951
20619SOL    HW166987   3.970   2.875   1.280  2.7724 -1.5391  1.6766
20619SOL    HW266988   4.018   2.739   1.237  1.0132 -0.8271 -2.7703
20620SOL     OW66989   3.308  10.864   0.344 -0.5704 -0.3077 -0.0222
20620SOL    HW166990   3.368  10.790   0.355 -2.1966 -1.7457 -0.6463
20620SOL    HW266991   3.267  10.874   0.430 -1.3527 -1.0161 -0.3128
20621SOL     OW66992   8.021   9.075   2.238 -0.1557  0.1137  0.7909
20621SOL    HW166993   7.983   9.113   2.317 -0.5953  0.1299  0.5738
20621SOL    HW266994   7.983   9.126   2.166  0.8575  0.6363  0.6034
20622SOL     OW66995  11.048   4.732   2.163  0.1028  0.3777  0.3969
20622SOL    HW166996  11.099   4.655   2.187  0.5166  0.5370  0.0280
20622SOL    HW266997  11.051   4.734   2.067 -0.8500  0.2104  0.3614
20623SOL     OW66998  11.135   1.052   4.499  0.4384 -0.0504  0.3310
20623SOL    HW166999  11.146   1.147   4.502  1.6921 -0.2263  1.6178
20623SOL    HW267000  11.145   1.030   4.406 -0.3238  1.1230 -0.0378
20624SOL     OW67001   7.708   8.454  11.033  0.6642 -0.1065  0.2056
20624SOL    HW167002   7.765   8.378  11.022  1.2592  0.1393  1.4373
20624SOL    HW267003   7.674   8.445  11.122 -1.2180 -0.2324 -0.5134
20625SOL     OW67004   3.120  11.015   9.930  0.0363 -0.0149 -0.1880
20625SOL    HW167005   3.129  10.940   9.989 -0.0486 -0.1021 -0.2844
20625SOL    HW267006   3.084  11.084   9.985 -1.1741 -0.4503 -0.4048
20626SOL     OW67007   2.253   0.955  11.122 -0.6596  0.0560  0.3578
20626SOL    HW167008   2.306   0.998  11.055  0.3036 -2.8992 -0.9034
20626SOL    HW267009   2.180   0.916  11.074 -1.5616  0.3566  1.4575
20627SOL     OW67010   2.119   7.681   0.908  0.0173  0.1349  0.0235
20627SOL    HW167011   2.032   7.643   0.917 -0.0404 -0.1922 -1.7202
20627SOL    HW267012   2.110   7.745   0.837  1.5881 -1.1905 -1.4317
20628SOL     OW67013   4.783  11.278  11.309 -0.0155  0.5561 -0.0910
20628SOL    HW167014   4.716  11.210  11.319 -0.0369  0.4868 -0.6661
20628SOL    HW267015   4.740  11.347  11.258  0.1392  0.8104  0.1224
20629SOL     OW67016  11.041   1.095   4.180  0.2151  0.0228  0.2015
20629SOL    HW167017  11.035   1.014   4.130 -1.2062 -0.8865  1.8056
20629SOL    HW267018  10.985   1.081   4.256  2.4954  1.3128  2.1880
20630SOL     OW67019   6.603   8.255   3.671 -0.0279 -0.4349 -0.1447
20630SOL    HW167020   6.586   8.204   3.750 -0.2471 -1.2973 -0.7408
20630SOL    HW267021   6.697   8.274   3.675  0.1455 -1.2573 -0.1221
20631SOL     OW67022   7.624   8.489   4.547  0.2101 -0.0905 -0.0012
20631SOL    HW167023   7.536   8.456   4.531  0.7091 -0.0780 -3.0779
20631SOL    HW267024   7.682   8.423   4.508  1.5141  0.6202  0.6894
20632SOL     OW67025   9.106   4.303   8.688 -0.0827  0.2666  0.0297
20632SOL    HW167026   9.186   4.252   8.676  0.3805  0.9912  0.0020
20632SOL    HW267027   9.041   4.259   8.634  0.2929 -0.3489  0.0829
20633SOL     OW67028   3.217   4.287   5.785 -1.0727 -0.0136  0.2604
20633SOL    HW167029   3.209   4.201   5.827  0.3130 -0.3198 -0.0816
20633SOL    HW267030   3.238   4.347   5.857  0.7395 -0.4452  0.1140
20634SOL     OW67031   3.383   6.468   8.018  0.2919  0.2555 -0.0698
20634SOL    HW167032   3.469   6.425   8.024  0.5387  0.8587  1.0046
20634SOL    HW267033   3.335   6.419   7.952  0.2575 -2.2128  1.7310
20635SOL     OW67034   5.896   5.815   7.313  0.0238 -0.4236  0.0852
20635SOL    HW167035   5.959   5.837   7.382 -1.0256 -1.5007  1.4419
20635SOL    HW267036   5.851   5.898   7.294  0.6505 -0.0186  0.3537
20636SOL     OW67037   1.388   9.702   1.221 -0.2036  0.0093  0.0783
20636SOL    HW167038   1.393   9.608   1.235 -0.2446  0.0431  0.3177
20636SOL    HW267039   1.324   9.712   1.150 -0.4758 -0.1199  0.3050
20637SOL     OW67040   3.214   4.547   2.026  0.0178 -0.3019  0.2371
20637SOL    HW167041   3.270   4.584   1.958 -2.4007  0.7356 -1.2802
20637SOL    HW267042   3.142   4.506   1.978 -1.5936  0.1914  2.1435
20638SOL     OW67043   1.029   2.668   5.040  0.2551  0.0894  0.2561
20638SOL    HW167044   0.971   2.631   4.973  1.6111 -0.5174 -0.6130
20638SOL    HW267045   0.971   2.714   5.100 -1.2061 -1.1359 -0.1844
20639SOL     OW67046   6.090   5.058   0.556 -0.1378 -0.4367 -0.1047
20639SOL    HW167047   6.107   5.150   0.573  0.0413 -0.7104  1.2563
20639SOL    HW267048   6.067   5.054   0.463  0.2416  0.9151 -0.2583
20640SOL     OW67049   0.100  10.776   7.238 -0.3552 -0.0927  0.6342
20640SOL    HW167050   0.151  10.714   7.291  0.5115 -1.5477 -1.8066
20640SOL    HW267051   0.166  10.827   7.191 -1.1301  0.1081 -0.2360
20641SOL     OW67052   8.345   0.866   8.675 -0.1781  0.0283  0.4742
20641SOL    HW167053   8.293   0.895   8.750  0.2384 -0.5843  1.0051
20641SOL    HW267054   8.403   0.799   8.711  0.2423 -0.0418 -0.3331
20642SOL     OW67055   3.404   9.592  10.277  0.2548  0.0754  0.6199
20642SOL    HW167056   3.423   9.669  10.331  1.2508  0.5730 -0.4374
20642SOL    HW267057   3.335   9.546  10.326  1.3604  0.3428  2.4882
20643SOL     OW67058   0.046   2.872   0.537  0.3874 -0.1830 -0.1397
20643SOL    HW167059  -0.035   2.919   0.519  0.7782  0.2290 -0.8576
20643SOL    HW267060   0.020   2.798   0.592 -0.7815 -1.2387 -2.0839
20644SOL     OW67061  10.719   8.821   2.610  0.5431 -0.6331 -0.1824
20644SOL    HW167062  10.804   8.782   2.587  0.5709 -0.4311 -0.4294
20644SOL    HW267063  10.680   8.842   2.525  0.1674 -0.8934 -0.0716
20645SOL     OW67064   5.308   2.276   2.726  0.0457 -0.3355  0.2703
20645SOL    HW167065   5.386   2.273   2.671  0.2682  2.1564  0.3921
20645SOL    HW267066   5.257   2.350   2.692 -1.2936 -0.6824  1.4556
20646SOL     OW67067   5.698   3.223   4.220  0.0454  0.6539 -0.2812
20646SOL    HW167068   5.788   3.244   4.196  0.2332  0.8616  0.5957
20646SOL    HW267069   5.705   3.186   4.308 -0.5331 -0.9573 -0.8998
20647SOL     OW67070   4.042   7.428   0.469 -0.0346 -0.2469 -0.3848
20647SOL    HW167071   4.025   7.362   0.536 -1.7598  1.8231  1.2948
20647SOL    HW267072   3.956   7.453   0.437  0.6570  0.3574 -1.8390
20648SOL     OW67073   3.791  11.318   2.657 -0.2135  0.2888 -0.3804
20648SOL    HW167074   3.799  11.323   2.752 -0.5791  1.6751 -0.4161
20648SOL    HW267075   3.718  11.376   2.635  1.7136  2.2868 -1.7540
20649SOL     OW67076   5.349   9.218   0.927 -0.2625  0.0540  0.6781
20649SOL    HW167077   5.412   9.148   0.912  0.0874  0.4896  0.0868
20649SOL    HW267078   5.298   9.222   0.846  0.2394  1.0018  0.4029
20650SOL     OW67079   2.217  10.350   6.213  0.4646  0.6915 -0.0747
20650SOL    HW167080   2.240  10.353   6.120  0.0044 -0.3702 -0.2338
20650SOL    HW267081   2.285  10.297   6.253 -0.9869 -1.4534 -0.3455
20651SOL     OW67082   8.865   9.211   3.883  0.0114  0.0416 -0.7024
20651SOL    HW167083   8.914   9.151   3.827 -0.6257 -1.1071 -0.0603
20651SOL    HW267084   8.787   9.161   3.909 -0.7696  1.3109 -0.5232
20652SOL     OW67085   2.091   0.172   4.854  0.4463  0.0341  0.1565
20652SOL    HW167086   2.162   0.218   4.899  1.2564 -2.0633  1.0967
20652SOL    HW267087   2.018   0.175   4.916  0.6250 -0.2702  0.3857
20653SOL     OW67088   9.046   4.285   4.239  0.3075  0.3736  0.3910
20653SOL    HW167089   9.042   4.361   4.298 -1.0817  0.2838  0.4315
20653SOL    HW267090   9.075   4.322   4.155 -2.7347  1.4215 -0.2821
20654SOL     OW67091   3.459   5.833   5.957 -0.5863 -0.0325 -0.5684
20654SOL    HW167092   3.458   5.745   5.920  1.0161 -0.6559  0.7745
20654SOL    HW267093   3.501   5.822   6.043  0.5025  2.1954 -0.7861
20655SOL     OW67094   2.547   9.852   7.477  0.5290  0.1677  0.0279
20655SOL    HW167095   2.574   9.765   7.447  0.2943 -0.1394  0.6985
20655SOL    HW267096   2.465   9.837   7.523  0.8467  0.6413  0.7619
20656SOL     OW67097  10.772   6.732   3.748 -0.3073 -0.5823 -0.7486
20656SOL    HW167098  10.790   6.759   3.838 -1.0625  0.7978 -0.9971
20656SOL    HW267099  10.777   6.636   3.750 -0.8997 -0.5949  0.8775
20657SOL     OW67100   7.895   6.837   0.169  0.3470 -0.4329 -0.0228
20657SOL    HW167101   7.909   6.926   0.202  0.4588  0.2090 -1.7292
20657SOL    HW267102   7.976   6.816   0.122 -0.3570 -0.7583 -1.1031
20658SOL     OW67103  10.946   6.770   5.649  0.0722  0.6578 -0.1032
20658SOL    HW167104  10.928   6.855   5.610  0.5096  0.5956 -0.4464
20658SOL    HW267105  11.025   6.784   5.702  0.2090  0.4378 -0.2488
20659SOL     OW67106   3.506   4.810   6.827 -0.0712  0.3869  0.0356
20659SOL    HW167107   3.598   4.785   6.821  0.0157  0.2840  1.7706
20659SOL    HW267108   3.506   4.905   6.816  0.3886  0.5582  1.4672
20660SOL     OW67109   7.254  11.208   6.400  0.0556 -0.1718  0.1090
20660SOL    HW167110   7.251  11.295   6.440 -3.6482  0.1624 -0.6630
20660SOL    HW267111   7.316  11.216   6.327  1.4477  1.1595  1.4079
20661SOL     OW67112   0.866   7.104   1.559  0.2072  0.1710  0.2868
20661SOL    HW167113   0.911   7.061   1.632  0.4455  1.9082  1.1877
20661SOL    HW267114   0.934   7.156   1.516 -0.2177  0.1829 -0.3714
20662SOL     OW67115  10.379   9.783   1.600  0.0540 -0.0913  0.9943
20662SOL    HW167116  10.462   9.740   1.582  0.3346  0.3281  1.2553
20662SOL    HW267117  10.313   9.716   1.585  0.4318 -0.3790  0.6183
20663SOL     OW67118   7.880   2.744   4.969  0.7353 -0.0072  0.1766
20663SOL    HW167119   7.882   2.698   4.885 -1.5007  3.4640 -1.8798
20663SOL    HW267120   7.802   2.710   5.012  0.8352 -0.4034  0.0513
20664SOL     OW67121   8.592   7.677   0.259 -0.4104  0.2219  0.0237
20664SOL    HW167122   8.545   7.701   0.179 -0.6957  0.2905  0.2124
20664SOL    HW267123   8.524   7.671   0.326 -0.1105  0.5896  0.3575
20665SOL     OW67124   0.765   3.603   5.171 -0.0104 -0.3060 -0.6447
20665SOL    HW167125   0.793   3.526   5.123 -0.8844 -0.4124 -0.9788
20665SOL    HW267126   0.798   3.589   5.260 -0.0027 -0.9651 -0.7530
20666SOL     OW67127   9.962   3.773  11.047  0.1407 -0.5199  0.3526
20666SOL    HW167128   9.923   3.820  11.120  2.6363  1.0305  0.7534
20666SOL    HW267129   9.989   3.841  10.986  2.8395 -1.4138  0.4507
20667SOL     OW67130   0.965   9.309   7.056  0.4484 -0.2896 -0.3654
20667SOL    HW167131   0.936   9.382   7.110 -0.4926 -0.5044 -0.5569
20667SOL    HW267132   0.885   9.279   7.012  0.7155 -1.7761  0.1381
20668SOL     OW67133   1.671   0.480   9.321  0.2790  0.0997  0.5717
20668SOL    HW167134   1.719   0.470   9.239 -0.6441  2.5180 -0.3058
20668SOL    HW267135   1.738   0.498   9.387  0.9392 -0.9548  0.1953
20669SOL     OW67136   0.296   3.582  10.469 -0.0171 -0.4767  0.2066
20669SOL    HW167137   0.238   3.656  10.488 -1.4599 -1.6554  0.4808
20669SOL    HW267138   0.288   3.526  10.546 -1.1087 -2.2869 -1.2090
20670SOL     OW67139   1.885   7.592   8.789  0.2939  0.5629 -0.0285
20670SOL    HW167140   1.973   7.558   8.771  0.3333  1.2932 -1.2896
20670SOL    HW267141   1.830   7.556   8.720 -0.5432 -0.3651  1.0938
20671SOL     OW67142   7.062   4.085   1.409  0.7533  0.3696 -0.3473
20671SOL    HW167143   6.992   4.144   1.381  0.9710  0.1375 -1.3722
20671SOL    HW267144   7.047   4.074   1.503  0.4803  1.7506 -0.2173
20672SOL     OW67145  10.656   3.941   2.761  0.2997 -0.5721  0.6005
20672SOL    HW167146  10.654   4.008   2.829  3.1629  0.8859 -0.6455
20672SOL    HW267147  10.749   3.935   2.737  0.1216 -4.9674  0.6417
20673SOL     OW67148   7.229   4.512   0.796 -0.0857  0.0116  0.3774
20673SOL    HW167149   7.239   4.543   0.706 -0.6541  0.7460  0.5491
20673SOL    HW267150   7.307   4.460   0.813 -0.4891 -1.0560 -0.9048
20674SOL     OW67151  10.412   7.904   7.773 -0.2791  0.0201 -0.2173
20674SOL    HW167152  10.410   7.999   7.776  2.1766  0.2524 -3.2111
20674SOL    HW267153  10.477   7.879   7.838  0.5342  0.5360 -0.8195
20675SOL     OW67154  10.252   4.475   7.602 -1.0196 -0.0316 -0.1012
20675SOL    HW167155  10.263   4.533   7.677  2.0547  0.8857 -1.1727
20675SOL    HW267156  10.307   4.399   7.623 -1.4607 -0.5178 -0.6933
20676SOL     OW67157   3.931   1.059  10.189 -0.3746 -0.1521  0.2704
20676SOL    HW167158   3.993   1.023  10.252 -0.1563  1.7737  1.1981
20676SOL    HW267159   3.850   1.070  10.239  0.3560  3.3078  0.8813
20677SOL     OW67160   7.349   7.009  10.189  0.1112  0.0157 -0.6979
20677SOL    HW167161   7.415   7.039  10.127  2.9335  0.6272  2.4418
20677SOL    HW267162   7.361   6.914  10.194 -1.0012 -0.2022 -2.0340
20678SOL     OW67163   0.108   5.959   3.301  0.1685  0.3098 -0.3106
20678SOL    HW167164   0.018   5.983   3.326  0.4317  1.5860 -0.5576
20678SOL    HW267165   0.128   5.884   3.357 -0.2723  1.3815  1.3454
20679SOL     OW67166   7.192   4.092   3.918 -0.5926 -0.1586 -0.0857
20679SOL    HW167167   7.147   4.176   3.926 -0.2668  0.2530 -2.1818
20679SOL    HW267168   7.130   4.035   3.874 -0.3265 -0.6106  0.1230
20680SOL     OW67169   5.575   5.774   3.418  0.5905  0.9208  0.5320
20680SOL    HW167170   5.515   5.707   3.450  1.5612 -0.7797 -1.1158
20680SOL    HW267171   5.520   5.850   3.400 -0.7893 -0.0346  0.7061
20681SOL     OW67172   1.188   7.177   7.172 -0.0678  0.1670  0.0165
20681SOL    HW167173   1.102   7.145   7.144 -0.3358  0.5374  0.4069
20681SOL    HW267174   1.203   7.255   7.119  0.0810  0.0297 -0.1403
20682SOL     OW67175   8.823   2.748   9.646 -0.2466  0.0151  0.0712
20682SOL    HW167176   8.797   2.691   9.574  1.8681 -1.8140  0.6531
20682SOL    HW267177   8.843   2.832   9.606  0.9261 -0.9909 -1.5110
20683SOL     OW67178  10.152   8.001  10.660  0.1445 -0.1965 -0.1180
20683SOL    HW167179  10.097   8.079  10.656  0.7964  0.2258 -0.9083
20683SOL    HW267180  10.111   7.939  10.600  1.8546  0.9804 -2.5743
20684SOL     OW67181   9.314   6.721  10.029 -0.0329  0.0603 -0.5733
20684SOL    HW167182   9.405   6.707  10.001  0.5773  0.2616  1.2947
20684SOL    HW267183   9.304   6.668  10.108 -0.9233  1.6543  0.3991
20685SOL     OW67184   8.000   0.243   4.732 -0.2193 -0.6667  0.1525
20685SOL    HW167185   8.001   0.210   4.822  0.9592 -0.7515  0.1224
20685SOL    HW267186   7.909   0.266   4.716 -0.6168 -1.5663  1.0367
20686SOL     OW67187   2.230   6.708   9.677  0.0538  0.1131 -0.7164
20686SOL    HW167188   2.289   6.690   9.604  2.1176 -3.7864  1.7445
20686SOL    HW267189   2.281   6.762   9.737 -0.0823 -0.3282 -0.1947
20687SOL     OW67190   5.061   2.376   2.219  0.1858 -0.4998  0.3789
20687SOL    HW167191   5.070   2.330   2.135  1.4617  1.4274 -0.5849
20687SOL    HW267192   5.024   2.461   2.195 -3.6345 -1.5266  2.3059
20688SOL     OW67193   7.080  10.592   3.869 -0.2820  0.3409  0.4506
20688SOL    HW167194   7.112  10.662   3.811  0.1211  0.8887  1.3298
20688SOL    HW267195   7.032  10.638   3.938 -2.5884 -0.4289 -0.5692
20689SOL     OW67196   9.199   7.858   0.062  0.1496  0.6041 -0.5347
20689SOL    HW167197   9.243   7.898  -0.013  0.3551  0.3901 -0.5288
20689SOL    HW267198   9.106   7.862   0.040  0.1920  0.7675 -0.6890
20690SOL     OW67199   1.445   1.539   5.531  0.2055 -0.7642  0.1692
20690SOL    HW167200   1.507   1.552   5.460 -1.6477  0.1217 -1.3343
20690SOL    HW267201   1.491   1.483   5.594  2.2336 -0.7059 -1.2367
20691SOL     OW67202   3.825   2.941   3.965  0.1493  0.3373  0.1223
20691SOL    HW167203   3.770   2.874   3.924  2.7185 -0.5730 -1.9200
20691SOL    HW267204   3.851   2.902   4.049  0.5756 -0.7037 -0.4835
20692SOL     OW67205   4.598   6.515   2.860  0.0075 -0.0857 -0.3097
20692SOL    HW167206   4.604   6.483   2.950  0.6611  0.4559 -0.1522
20692SOL    HW267207   4.626   6.441   2.806 -0.5401 -0.4640 -0.0766
20693SOL     OW67208   5.973   3.069   8.053 -0.0854 -0.2732  0.1773
20693SOL    HW167209   5.884   3.048   8.082 -0.1518 -0.4500 -0.1533
20693SOL    HW267210   5.961   3.112   7.968  0.1293 -0.0452  0.2593
20694SOL     OW67211   8.163   3.049   3.710 -0.6102 -0.3139  0.1393
20694SOL    HW167212   8.220   3.104   3.763  0.7152 -2.0953  0.6404
20694SOL    HW267213   8.096   3.018   3.771  0.2751 -1.4757  0.5472
20695SOL     OW67214   1.829   6.385   9.855 -0.1959  0.0711 -0.0533
20695SOL    HW167215   1.861   6.308   9.807 -0.5405 -1.0107  1.4004
20695SOL    HW267216   1.867   6.376   9.943  0.1878  1.8532 -0.0288
20696SOL     OW67217   6.865   3.605   1.076 -0.6238  0.3664  0.1852
20696SOL    HW167218   6.952   3.634   1.047  0.1723  0.1026  2.1716
20696SOL    HW267219   6.818   3.686   1.096 -0.5538  0.4875 -0.1440
20697SOL     OW67220  11.049   0.802   2.932 -0.4688 -0.2567 -0.2546
20697SOL    HW167221  11.059   0.897   2.931  1.8813 -0.4850 -0.0369
20697SOL    HW267222  11.138   0.768   2.936 -1.3062 -2.4691  0.4100
20698SOL     OW67223   5.277   8.702   1.197  0.1475 -0.0677  0.0194
20698SOL    HW167224   5.335   8.762   1.151  1.9724 -0.9853  1.0693
20698SOL    HW267225   5.333   8.658   1.261 -1.6452 -1.1807  0.8825
20699SOL     OW67226   1.092   2.636   9.606 -0.0021 -0.4350  0.1433
20699SOL    HW167227   1.145   2.562   9.575  0.3580 -0.5984  1.1147
20699SOL    HW267228   1.073   2.614   9.697  0.1190  0.6852  0.4386
20700SOL     OW67229   7.889   1.123   2.566  0.2458 -0.3189 -0.3111
20700SOL    HW167230   7.833   1.048   2.547  0.0916 -0.5775  1.1438
20700SOL    HW267231   7.968   1.107   2.513 -0.0477 -1.1818 -0.5005
20701SOL     OW67232   4.824   0.189   6.831  0.1920  0.0356  0.1427
20701SOL    HW167233   4.857   0.186   6.921  1.5755  1.4589 -0.2874
20701SOL    HW267234   4.765   0.114   6.824  0.1927 -0.1763  2.1846
20702SOL     OW67235   8.164   6.941   5.935  0.1573  0.0820 -0.0997
20702SOL    HW167236   8.099   6.875   5.909 -0.9383  0.3455  1.8564
20702SOL    HW267237   8.245   6.892   5.947 -0.3445 -0.6967  0.1103
20703SOL     OW67238   1.523   6.824   3.722  0.3660 -0.1206  0.2441
20703SOL    HW167239   1.568   6.742   3.746  0.7523  0.1142  0.3275
20703SOL    HW267240   1.479   6.804   3.639  0.0834 -0.5513  0.4974
20704SOL     OW67241   5.332   1.092   6.205  0.2889  0.1184 -0.2227
20704SOL    HW167242   5.382   1.073   6.284 -0.8684  0.6277  0.6400
20704SOL    HW267243   5.241   1.089   6.233 -0.0702  4.3539 -0.5867
20705SOL     OW67244   1.874  10.034   7.356 -0.1827 -0.0034 -0.3182
20705SOL    HW167245   1.830  10.043   7.271  0.4289  0.8861 -0.5521
20705SOL    HW267246   1.840  10.107   7.408 -1.4578 -1.2276  0.6213
20706SOL     OW67247   1.712   8.028  11.265  0.9672  0.0809  0.5529
20706SOL    HW167248   1.679   8.067  11.184  1.0507 -0.1997  0.3853
20706SOL    HW267249   1.805   8.053  11.267  0.7452  0.9027  1.0467
20707SOL     OW67250   8.492   1.627   6.192  0.3669 -0.2622  0.2438
20707SOL    HW167251   8.560   1.570   6.228  1.1483  0.2753 -0.3666
20707SOL    HW267252   8.457   1.578   6.117  0.7763 -0.1063 -0.0501
20708SOL     OW67253   9.872   1.278   7.592  0.1376 -0.6337  0.9945
20708SOL    HW167254   9.793   1.282   7.646 -0.3585 -0.9887  0.3095
20708SOL    HW267255   9.842   1.238   7.510  0.7234  0.5423  0.1939
20709SOL     OW67256  10.630   5.391   8.131  0.0162 -0.3884 -0.0270
20709SOL    HW167257  10.620   5.365   8.223 -2.6355  0.6413  0.0455
20709SOL    HW267258  10.546   5.433   8.110  0.6392 -0.5173 -2.8888
20710SOL     OW67259   7.509   3.734   9.097  0.6915  0.9596 -0.6602
20710SOL    HW167260   7.436   3.729   9.159 -0.0956 -0.0345 -1.6375
20710SOL    HW267261   7.581   3.689   9.141  0.0666  0.0464 -0.5653
20711SOL     OW67262   3.394   5.062   0.320  0.4631 -0.1236 -0.1734
20711SOL    HW167263   3.415   5.007   0.396 -2.9349 -0.2440  0.7769
20711SOL    HW267264   3.353   5.002   0.257  0.6761  0.5018 -0.9130
20712SOL     OW67265   3.525   8.529   8.089 -0.1330 -0.1192 -0.1494
20712SOL    HW167266   3.430   8.525   8.093 -0.0624 -1.2382  0.8237
20712SOL    HW267267   3.544   8.559   8.000 -1.3989  1.1581 -0.0096
20713SOL     OW67268   7.010   5.305   3.692  0.8243 -0.0301  0.2325
20713SOL    HW167269   7.101   5.281   3.711  0.7824  0.0079  0.4902
20713SOL    HW267270   6.977   5.232   3.639  0.9017 -0.2138  0.4335
20714SOL     OW67271   7.471   7.655   0.011  0.0828  0.1250 -0.4977
20714SOL    HW167272   7.400   7.609  -0.033 -0.3501 -0.3038  0.6282
20714SOL    HW267273   7.479   7.612   0.096  3.6980 -1.8490 -1.7131
20715SOL     OW67274   9.272   0.603   2.267 -0.2367 -0.6082 -0.0938
20715SOL    HW167275   9.180   0.605   2.241  0.2421  0.5933 -1.8468
20715SOL    HW267276   9.281   0.524   2.320 -2.5563 -0.0289  1.2224
20716SOL     OW67277   1.974   2.458  10.516  0.0971 -0.7663 -0.1934
20716SOL    HW167278   2.059   2.422  10.539 -0.2704 -0.7755  1.1912
20716SOL    HW267279   1.975   2.547  10.550 -1.7244 -1.8922  3.0489
20717SOL     OW67280   4.136   8.206   1.822 -0.3324  0.1886  0.0639
20717SOL    HW167281   4.157   8.247   1.906 -0.9218  0.0054  0.3117
20717SOL    HW267282   4.193   8.130   1.818 -1.5052 -0.7861  1.1204
20718SOL     OW67283   2.603  11.225   0.704 -0.7874  0.1639 -0.0494
20718SOL    HW167284   2.576  11.210   0.614 -1.1069  0.0020  0.0702
20718SOL    HW267285   2.643  11.312   0.704 -1.0373  0.2781 -0.2932
20719SOL     OW67286   4.044   3.039  11.296  0.6332  0.1131 -0.6337
20719SOL    HW167287   4.006   2.959  11.260  1.9110 -1.5646  1.6207
20719SOL    HW267288   4.137   3.035  11.271  0.8118  0.6090 -0.0570
20720SOL     OW67289   8.439   5.357   2.717  0.3996  0.2780 -0.0014
20720SOL    HW167290   8.505   5.418   2.751  0.5840 -0.2791  0.6497
20720SOL    HW267291   8.367   5.361   2.781 -0.8143  1.9442 -1.4414
20721SOL     OW67292   2.909   7.779   2.665  0.2072 -0.4851  0.5363
20721SOL    HW167293   2.847   7.745   2.729 -0.8203 -2.2688 -1.3976
20721SOL    HW267294   2.879   7.746   2.581  1.2392  2.2703 -0.9798
20722SOL     OW67295   8.448  10.950   5.128 -0.3549 -0.0594  0.6556
20722SOL    HW167296   8.374  10.967   5.186 -1.9547 -0.2423 -1.3208
20722SOL    HW267297   8.433  11.006   5.052  2.7366  1.6502  1.2020
20723SOL     OW67298  11.029  10.046   0.829 -0.0383  0.1617  0.0718
20723SOL    HW167299  11.104   9.988   0.820 -0.2159 -0.1033  0.3088
20723SOL    HW267300  10.965  10.013   0.766  0.1141  0.5015 -0.2639
20724SOL     OW67301   3.015   3.201   1.127  0.0219 -0.1080 -0.2250
20724SOL    HW167302   3.066   3.229   1.203 -1.2130  0.4996  0.4028
20724SOL    HW267303   2.957   3.133   1.161 -0.9925  0.6261 -0.4770
20725SOL     OW67304   1.924  11.085   8.791  0.0320 -0.4923  0.4064
20725SOL    HW167305   1.878  11.120   8.868 -1.1041 -0.1117 -0.4289
20725SOL    HW267306   2.003  11.044   8.827  0.6171  1.5746  1.5527
20726SOL     OW67307   8.657   5.550   9.304 -0.3735  0.6884  0.3047
20726SOL    HW167308   8.705   5.548   9.387 -0.2428  1.7154  0.2570
20726SOL    HW267309   8.717   5.511   9.240 -0.8582 -1.0205  0.8860
20727SOL     OW67310   6.540   0.592   0.418  0.0388  0.3972 -0.6031
20727SOL    HW167311   6.496   0.664   0.463 -0.5071  0.9924 -2.0491
20727SOL    HW267312   6.543   0.521   0.483 -1.4106  0.9782  0.1177
20728SOL     OW67313   9.737   5.077   0.591  0.4213  0.3391 -0.4290
20728SOL    HW167314   9.826   5.105   0.569  0.2067  1.6899  0.3638
20728SOL    HW267315   9.701   5.046   0.509  1.3104  0.6782 -0.9561
20729SOL     OW67316  10.440   0.380  10.250  0.0069 -0.2802 -0.4857
20729SOL    HW167317  10.460   0.289  10.231  0.9888  0.3997 -2.9901
20729SOL    HW267318  10.345   0.387  10.239 -0.2948 -1.3196  1.3204
20730SOL     OW67319   1.749   7.521   4.568 -0.2967 -0.2486 -0.3796
20730SOL    HW167320   1.761   7.609   4.534  1.6835  0.5814  2.2946
20730SOL    HW267321   1.725   7.533   4.660 -1.7588 -2.4664 -0.4287
20731SOL     OW67322   4.213   1.011   6.611 -0.6063 -0.3871 -0.1837
20731SOL    HW167323   4.293   0.985   6.566  0.4678  2.7609 -0.2341
20731SOL    HW267324   4.189   0.935   6.664  0.4211 -2.6378 -2.8236
20732SOL     OW67325   9.263   0.402   9.326  0.1736  0.1101  0.0958
20732SOL    HW167326   9.200   0.382   9.257  1.6372  1.9099 -1.8668
20732SOL    HW267327   9.299   0.317   9.352 -1.5577 -0.7270 -0.2099
20733SOL     OW67328   1.566   1.961   5.001 -0.1122 -0.0233  0.1784
20733SOL    HW167329   1.475   1.978   5.027 -1.2425 -2.8650 -1.7440
20733SOL    HW267330   1.605   2.048   4.995 -3.0612  1.3477 -0.1694
20734SOL     OW67331   0.746   9.849   4.845  0.1051 -0.1940 -0.5231
20734SOL    HW167332   0.690   9.910   4.893 -1.3539 -1.2315 -0.8923
20734SOL    HW267333   0.757   9.889   4.759  0.4397  0.3027 -0.2547
20735SOL     OW67334  10.560   5.961  11.089  0.3678  0.1580 -0.0213
20735SOL    HW167335  10.528   5.911  11.014  2.3511 -0.2980 -0.5854
20735SOL    HW267336  10.482   5.972  11.145 -0.6697 -1.3019 -1.1325
20736SOL     OW67337  11.174   9.901   2.526 -0.2029 -0.4841 -0.2550
20736SOL    HW167338  11.249   9.904   2.467  0.2149  3.3287  0.3161
20736SOL    HW267339  11.212   9.893   2.613 -0.4729  1.0154  0.0045
20737SOL     OW67340   8.767   9.862   2.067  0.5313  0.1920 -0.2100
20737SOL    HW167341   8.769   9.769   2.088 -1.5337 -0.2517 -1.8287
20737SOL    HW267342   8.721   9.902   2.141  2.3565  0.1165  1.0054
20738SOL     OW67343   7.554  10.701   6.226  0.0638 -0.4031 -0.4239
20738SOL    HW167344   7.617  10.770   6.245 -0.5516  0.4119 -1.3397
20738SOL    HW267345   7.596  10.621   6.258  1.5800  0.1187 -1.0863
20739SOL     OW67346   1.083   3.290   3.631 -0.1970  0.3970 -0.3921
20739SOL    HW167347   1.123   3.309   3.716  1.4972  1.6590 -1.4424
20739SOL    HW267348   1.081   3.374   3.586 -0.5217 -0.3740 -1.8489
20740SOL     OW67349   9.913   9.176   8.751  0.2246  0.4558 -0.2698
20740SOL    HW167350   9.984   9.236   8.729 -0.3184  0.6144 -1.5999
20740SOL    HW267351   9.849   9.231   8.797  0.4561  0.5428 -0.0460
20741SOL     OW67352   2.967   7.539   0.149 -0.2917  0.4268 -0.4446
20741SOL    HW167353   2.876   7.569   0.157 -0.1430  0.4141  1.4362
20741SOL    HW267354   2.964   7.448   0.179  0.3289  0.3875 -0.5020
20742SOL     OW67355   8.916  10.255   8.147 -0.4401 -0.4009 -0.0548
20742SOL    HW167356   8.988  10.192   8.153 -0.5805 -0.5425  0.1315
20742SOL    HW267357   8.946  10.320   8.083 -0.5176 -0.9385 -0.6312
20743SOL     OW67358   5.083   9.718   4.030 -0.3237 -0.0992  0.0443
20743SOL    HW167359   5.103   9.795   4.083 -0.5089 -2.0914  3.2012
20743SOL    HW267360   4.988   9.716   4.025 -0.4441 -1.2805  1.9462
20744SOL     OW67361   7.825   3.138   4.309  0.3938  0.0329 -0.6621
20744SOL    HW167362   7.790   3.075   4.373 -2.9231  2.2427 -0.1702
20744SOL    HW267363   7.905   3.171   4.349  0.1938 -1.1633  0.7629
20745SOL     OW67364   9.603   4.037  11.065  0.1708  0.3216 -0.0311
20745SOL    HW167365   9.520   4.082  11.078 -1.2419 -2.1285 -0.3445
20745SOL    HW267366   9.600   4.006  10.974  0.5402 -1.4827  0.5475
20746SOL     OW67367   2.896   4.716  10.735 -0.2998  0.2123 -0.1932
20746SOL    HW167368   2.837   4.759  10.674  2.1470  2.9382 -0.7409
20746SOL    HW267369   2.984   4.739  10.704  1.1231 -3.4160  0.7847
20747SOL     OW67370   2.379   1.963   1.181 -0.2461 -0.2976 -0.2169
20747SOL    HW167371   2.421   2.031   1.129  1.0758 -0.4247  0.6504
20747SOL    HW267372   2.378   1.886   1.124  0.0640 -0.0951 -0.4970
20748SOL     OW67373   0.930  11.121  10.463  0.0805 -0.4094  0.5727
20748SOL    HW167374   0.956  11.057  10.529  0.1977  0.4001  1.3244
20748SOL    HW267375   1.011  11.145  10.419 -0.0772 -1.3775 -0.2661
20749SOL     OW67376  10.639   0.438   1.534  0.0173 -0.3530 -0.4899
20749SOL    HW167377  10.713   0.401   1.583 -0.3517 -1.3905 -0.6923
20749SOL    HW267378  10.581   0.473   1.602  0.1043 -0.6520 -0.2602
20750SOL     OW67379   5.081   3.413   8.445 -0.3688  0.0355  0.4596
20750SOL    HW167380   5.170   3.394   8.417 -0.4316  0.3805  0.0269
20750SOL    HW267381   5.074   3.374   8.533  0.0292 -0.4755  0.2652
20751SOL     OW67382   2.150   4.755   1.067  0.0955 -0.3557 -0.3716
20751SOL    HW167383   2.208   4.717   1.132  0.5829  1.3308  0.2083
20751SOL    HW267384   2.064   4.756   1.109 -0.3107 -2.4838 -1.0834
20752SOL     OW67385  10.371   9.458   5.977 -0.2987 -0.7939 -0.5453
20752SOL    HW167386  10.397   9.549   5.970  0.4106 -0.9352  0.2204
20752SOL    HW267387  10.308   9.445   5.906 -2.2961  0.9412  0.8509
20753SOL     OW67388   1.882   3.471   4.754  0.1676  0.1617 -0.3178
20753SOL    HW167389   1.977   3.465   4.759  0.2620  1.1025 -0.8937
20753SOL    HW267390   1.864   3.565   4.755 -0.8557 -0.0297  1.5788
20754SOL     OW67391   5.375   1.392   7.071 -0.1945  0.0825  0.4265
20754SOL    HW167392   5.397   1.301   7.092  0.2132  0.4862  1.7874
20754SOL    HW267393   5.371   1.394   6.975  1.3931 -1.0041  0.3144
20755SOL     OW67394   9.634   3.177  10.985  0.3062 -0.3106  0.0938
20755SOL    HW167395   9.611   3.154  11.075  1.7648 -0.6830  0.3790
20755SOL    HW267396   9.730   3.180  10.984  0.4056 -2.4655 -1.9819
20756SOL     OW67397   4.774   5.755   8.154 -0.0886  0.2968 -0.2208
20756SOL    HW167398   4.792   5.822   8.088  0.8501  0.8913  0.6156
20756SOL    HW267399   4.763   5.674   8.104 -0.7607  0.9843 -1.2027
20757SOL     OW67400   7.671   4.335   1.163 -0.4121  0.5915  0.0127
20757SOL    HW167401   7.703   4.281   1.091 -0.8109 -0.3941  0.5652
20757SOL    HW267402   7.745   4.341   1.223  0.4456  2.7379 -1.2067
20758SOL     OW67403   6.481   5.408   4.504 -0.3238 -0.0044 -0.4421
20758SOL    HW167404   6.560   5.402   4.450 -0.8757  0.5893 -1.3272
20758SOL    HW267405   6.503   5.360   4.584  0.6049 -0.6539 -1.0767
20759SOL     OW67406   3.432   2.867   1.623 -0.7445 -0.1137  0.1905
20759SOL    HW167407   3.480   2.886   1.542 -1.0286 -0.0210  0.0446
20759SOL    HW267408   3.420   2.772   1.622 -0.4223 -0.1578  0.3069
20760SOL     OW67409   6.439   2.424   2.256 -0.0669  0.3050  0.2930
20760SOL    HW167410   6.461   2.331   2.249 -1.7797 -0.1436  0.5075
20760SOL    HW267411   6.483   2.454   2.335  0.1048 -0.4540  0.4833
20761SOL     OW67412  11.311   7.312   9.439  0.0275  0.1891 -0.0782
20761SOL    HW167413  11.289   7.251   9.509 -0.6303  0.6318  0.1051
20761SOL    HW267414  11.406   7.311   9.436  0.0172 -1.1990 -0.3905
20762SOL     OW67415   3.411   8.314   7.517  0.4582  0.6390 -0.1299
20762SOL    HW167416   3.364   8.321   7.600 -2.6924  1.7110 -1.9408
20762SOL    HW267417   3.487   8.371   7.527  0.9058 -0.3501  2.4969
20763SOL     OW67418   3.358   8.347   2.346 -0.5112 -0.6133 -0.2523
20763SOL    HW167419   3.273   8.350   2.302 -0.4467 -0.7180 -0.3836
20763SOL    HW267420   3.421   8.330   2.275 -0.2265  0.8679 -0.3811
20764SOL     OW67421  11.134   4.195   0.760  0.5158  0.1237 -0.0095
20764SOL    HW167422  11.148   4.122   0.822  0.6413  0.1485 -0.0088
20764SOL    HW267423  11.191   4.265   0.793  0.6812  0.0915 -0.2297
20765SOL     OW67424  10.166   1.273   7.351  0.0011 -0.5221 -0.3267
20765SOL    HW167425  10.215   1.192   7.360  1.5962  0.4220 -0.2862
20765SOL    HW267426  10.194   1.327   7.425 -0.5271  0.3252 -0.7322
20766SOL     OW67427   6.960   7.742   8.940  0.2533 -0.2205 -0.3910
20766SOL    HW167428   7.053   7.758   8.953  0.2547 -1.5694  1.5383
20766SOL    HW267429   6.930   7.816   8.887  2.3569  0.3622 -0.8132
20767SOL     OW67430   3.910  10.294   7.734  0.3079  0.0109 -0.1691
20767SOL    HW167431   3.874  10.215   7.694 -0.7424 -0.1543  1.0656
20767SOL    HW267432   3.981  10.261   7.790  0.4142  0.0243 -0.2949
20768SOL     OW67433  10.671   3.700   9.766  0.3798 -0.3258  0.4565
20768SOL    HW167434  10.652   3.721   9.675  0.9914  2.5981  0.9562
20768SOL    HW267435  10.598   3.644   9.794 -0.3613 -0.3667 -1.5097
20769SOL     OW67436   1.838   3.316   4.016 -0.2004 -0.3055 -0.0976
20769SOL    HW167437   1.810   3.404   4.043 -1.0603 -0.0486 -1.7844
20769SOL    HW267438   1.905   3.332   3.950  0.7356 -0.9431  0.6779
20770SOL     OW67439   3.407   8.684   8.339 -0.1345 -0.1788  0.3464
20770SOL    HW167440   3.439   8.738   8.266 -1.3293  0.8229  0.5483
20770SOL    HW267441   3.366   8.609   8.297  1.5992 -0.9827  0.0611
20771SOL     OW67442   8.425   9.163  10.921 -0.6537 -0.3066 -0.2226
20771SOL    HW167443   8.468   9.143  11.005 -0.8977  0.1961  0.0277
20771SOL    HW267444   8.462   9.100  10.860 -0.6612 -0.8514  0.3235
20772SOL     OW67445  10.400   7.986   9.604  0.8165  0.3715 -0.1589
20772SOL    HW167446  10.370   8.076   9.611  1.3462  0.3763  2.3849
20772SOL    HW267447  10.348   7.938   9.668  1.3680 -0.9220 -0.6538
20773SOL     OW67448   1.237  10.197   3.309 -0.7473  0.7748 -0.3401
20773SOL    HW167449   1.177  10.212   3.236  0.6035  2.2431 -1.1970
20773SOL    HW267450   1.288  10.121   3.282 -1.3818  0.2986 -0.1849
20774SOL     OW67451   9.232   8.523   8.751  0.1289 -0.0599  0.0687
20774SOL    HW167452   9.210   8.605   8.706  2.0838  0.2022 -0.4542
20774SOL    HW267453   9.242   8.459   8.680  0.6793 -0.2562  0.3220
20775SOL     OW67454  10.222   3.793   4.901  0.6620  0.0126  0.5872
20775SOL    HW167455  10.294   3.730   4.899  0.7731  0.1885 -2.3482
20775SOL    HW267456  10.263   3.878   4.882 -0.1211  0.3172  0.2142
20776SOL     OW67457   6.616   4.878   0.276  0.1793 -0.0644 -0.0735
20776SOL    HW167458   6.693   4.931   0.297  0.3147  0.0628 -0.8694
20776SOL    HW267459   6.641   4.829   0.198 -0.2776 -0.5971  0.1166
20777SOL     OW67460   9.662   1.972   5.483 -0.1721  0.4879 -0.3781
20777SOL    HW167461   9.668   1.911   5.410  0.7107  2.0564 -1.6561
20777SOL    HW267462   9.723   1.938   5.548  0.4162  0.0871 -1.1311
20778SOL     OW67463   6.263   7.870   6.200  0.0165  0.1037 -0.1545
20778SOL    HW167464   6.219   7.918   6.270  0.7144 -0.2087  0.5165
20778SOL    HW267465   6.225   7.782   6.204 -3.3779  1.2874 -3.2719
20779SOL     OW67466  10.128   6.765   9.086 -0.3162  0.1452  0.7353
20779SOL    HW167467  10.084   6.829   9.142  1.1489  0.4669  1.5350
20779SOL    HW267468  10.194   6.725   9.142 -0.0807 -0.8676 -0.2467
20780SOL     OW67469   4.291   5.326   5.305 -0.2188  0.2263  0.5199
20780SOL    HW167470   4.227   5.365   5.364 -3.1339  0.6869 -2.7932
20780SOL    HW267471   4.309   5.240   5.342 -1.0731  0.9641  2.7003
20781SOL     OW67472   9.026   5.841   3.852 -0.0433  0.0259 -0.2768
20781SOL    HW167473   9.024   5.937   3.849  0.3772  0.0874  0.8768
20781SOL    HW267474   8.934   5.815   3.857 -0.2038  0.3203 -1.7241
20782SOL     OW67475   8.351   8.095  10.003  0.4718 -0.2900 -0.0350
20782SOL    HW167476   8.283   8.099   9.935 -0.4006 -1.7699  0.7139
20782SOL    HW267477   8.406   8.021   9.977  0.3542 -0.6275  0.6699
20783SOL     OW67478   1.801   3.214   7.872  0.2519  0.3164 -0.4287
20783SOL    HW167479   1.874   3.176   7.823 -0.2305 -0.3715 -0.6292
20783SOL    HW267480   1.825   3.205   7.964  0.1161 -0.5403 -0.4740
20784SOL     OW67481   0.718   6.959   0.654 -0.1886  0.2005 -0.2538
20784SOL    HW167482   0.644   6.898   0.656 -0.4961  0.5202 -1.6413
20784SOL    HW267483   0.733   6.981   0.746 -1.9464  0.2925  0.0246
20785SOL     OW67484   0.004   0.861   7.566  0.1720  0.3419  0.6726
20785SOL    HW167485   0.072   0.797   7.543  1.1003  1.3153  0.6936
20785SOL    HW267486   0.008   0.866   7.662  0.1157  0.4688  0.6680
20786SOL     OW67487   7.373   8.584  11.287  0.0578  0.0187 -0.3107
20786SOL    HW167488   7.303   8.548  11.233  0.0035  0.0379 -0.2537
20786SOL    HW267489   7.449   8.530  11.267 -0.0334 -0.1525 -0.1931
20787SOL     OW67490   5.153   6.700  10.271  0.5286 -0.5396 -1.1341
20787SOL    HW167491   5.135   6.662  10.357  2.9812 -1.0620 -0.7880
20787SOL    HW267492   5.176   6.791  10.289  0.4848 -0.5005 -1.2789
20788SOL     OW67493  10.901   4.923  10.911  0.4815 -0.6207 -0.7426
20788SOL    HW167494  10.963   4.956  10.976  1.0048 -0.5470 -1.2739
20788SOL    HW267495  10.820   4.972  10.927  1.2392  0.9210 -1.5049
20789SOL     OW67496   1.057   3.852   5.707 -0.1035  0.4492 -0.6339
20789SOL    HW167497   1.116   3.807   5.767  0.4377  0.4810 -1.1380
20789SOL    HW267498   1.101   3.934   5.686  0.8900 -0.6480 -3.0238
20790SOL     OW67499   1.501   8.315   9.518 -0.0525 -0.4767 -0.2999
20790SOL    HW167500   1.464   8.402   9.533  0.0246 -0.6765  1.1223
20790SOL    HW267501   1.586   8.332   9.478  0.7910  0.1715  1.7401
20791SOL     OW67502   5.263   9.533   4.156 -0.5807  0.4769  0.6769
20791SOL    HW167503   5.304   9.582   4.228  1.3971  0.7368 -0.5731
20791SOL    HW267504   5.201   9.594   4.117 -0.9079  0.6801  1.5106
20792SOL     OW67505   7.973   1.942   0.453  0.3034 -0.2024  0.6605
20792SOL    HW167506   7.952   2.009   0.387  0.5314 -1.8472 -1.1361
20792SOL    HW267507   7.981   1.861   0.402  3.0099 -1.0716  2.3785
20793SOL     OW67508   4.240   4.234   6.625 -0.3541  0.2734 -0.4566
20793SOL    HW167509   4.240   4.165   6.559  0.4882 -1.9972  1.8421
20793SOL    HW267510   4.219   4.189   6.707  1.1458  2.5775  1.2662
20794SOL     OW67511   7.878   0.953   2.256  0.3474 -0.1089  0.2839
20794SOL    HW167512   7.839   0.866   2.269 -0.7031  0.2798 -0.1620
20794SOL    HW267513   7.954   0.954   2.313 -0.6754 -0.6572  1.6978
20795SOL     OW67514   1.869   4.064   7.345 -0.4346  0.5993 -0.9252
20795SOL    HW167515   1.957   4.047   7.311 -1.3128 -2.4957 -1.8829
20795SOL    HW267516   1.830   4.126   7.283  0.7880  1.3746 -0.9232
20796SOL     OW67517   1.988   7.422   5.662  0.2401  0.2110  0.2559
20796SOL    HW167518   1.942   7.391   5.740  1.2845 -0.5657  0.5764
20796SOL    HW267519   1.992   7.345   5.605  1.0457  0.3049  0.1847
20797SOL     OW67520   5.045   8.635  10.911  0.2218  0.1748  0.0026
20797SOL    HW167521   4.954   8.651  10.886  0.3143  1.1743  0.2544
20797SOL    HW267522   5.070   8.556  10.864 -0.3093  0.7422 -1.2512
20798SOL     OW67523   9.640   9.969   8.079 -0.3046  0.4513 -0.3514
20798SOL    HW167524   9.669   9.897   8.134 -0.1412  0.1996 -0.7640
20798SOL    HW267525   9.586   9.927   8.011  0.7551  0.5803 -1.2752
20799SOL     OW67526  11.044   7.219   1.535  0.5168 -0.1006  0.0352
20799SOL    HW167527  11.029   7.253   1.447  0.1156  0.5781  0.3618
20799SOL    HW267528  11.025   7.293   1.593  0.0180 -0.7696  0.7368
20800SOL     OW67529  10.779   1.407   3.288  0.2203  0.1419 -0.0647
20800SOL    HW167530  10.762   1.377   3.198  3.5772 -0.0706 -0.7168
20800SOL    HW267531  10.742   1.338   3.344 -2.2050  0.4328 -1.2420
20801SOL     OW67532   5.498   7.212   2.514  0.2471  0.2743 -0.0600
20801SOL    HW167533   5.438   7.241   2.445 -0.4027  0.5252  0.5935
20801SOL    HW267534   5.476   7.267   2.589  2.2758  1.3569 -0.2183
20802SOL     OW67535   7.025   2.805   9.033  0.1586  0.0858 -0.7698
20802SOL    HW167536   7.017   2.897   9.056 -1.6368  0.0520 -1.2262
20802SOL    HW267537   7.067   2.765   9.109  2.8993  1.6224 -1.4097
20803SOL     OW67538   3.454   3.844   8.192  0.5899 -0.0040 -0.0752
20803SOL    HW167539   3.441   3.806   8.279  1.9582 -0.5388 -0.0848
20803SOL    HW267540   3.366   3.849   8.154  0.1157 -0.8332  0.8972
20804SOL     OW67541   7.042   8.556   4.727 -0.2279  0.5575  0.1547
20804SOL    HW167542   7.002   8.619   4.668 -1.0445  0.1384  0.2523
20804SOL    HW267543   7.053   8.477   4.674 -1.0310  0.1556  0.5773
20805SOL     OW67544   1.884   6.691   2.244 -0.1133  0.4311 -0.5220
20805SOL    HW167545   1.876   6.786   2.256  0.1110  0.4187 -0.2571
20805SOL    HW267546   1.902   6.658   2.332  0.6522  0.2297 -0.7520
20806SOL     OW67547   1.997   2.964   3.483 -0.0610  0.0180 -0.1613
20806SOL    HW167548   2.082   3.009   3.492 -0.5701  1.0016 -0.1742
20806SOL    HW267549   1.932   3.032   3.501 -0.8790 -0.2906 -1.8561
20807SOL     OW67550   7.618   0.624   7.298  0.0136  0.4185 -0.4504
20807SOL    HW167551   7.677   0.552   7.320  0.7433  0.6598 -1.5999
20807SOL    HW267552   7.587   0.605   7.210 -0.2906  1.1898 -0.5171
20808SOL     OW67553  11.334   4.264   1.109  0.6571 -0.4145  0.3777
20808SOL    HW167554  11.335   4.357   1.088 -0.0884 -0.7779 -1.3459
20808SOL    HW267555  11.403   4.225   1.055  0.9662 -0.8681  1.0862
20809SOL     OW67556   3.562   6.650   4.961  0.2589  0.3761  0.2987
20809SOL    HW167557   3.537   6.675   4.872 -0.1872 -1.4799 -0.1107
20809SOL    HW267558   3.490   6.683   5.016 -0.4984 -0.3133 -0.2700
20810SOL     OW67559   9.380   9.806  11.279 -0.3692 -0.6597  0.3443
20810SOL    HW167560   9.442   9.875  11.256  0.3643 -1.3686  0.1664
20810SOL    HW267561   9.409   9.730  11.229 -1.1375 -1.1126  0.5761
20811SOL     OW67562   8.402   3.429   0.069  0.5049 -0.7174  0.1849
20811SOL    HW167563   8.491   3.395   0.075  1.2384  1.2743  1.1394
20811SOL    HW267564   8.353   3.377   0.133  0.9877 -1.8085 -0.3260
20812SOL     OW67565   0.285  10.615  10.831  0.0583 -0.1219  0.4027
20812SOL    HW167566   0.310  10.675  10.902  0.2752  0.9024 -0.5215
20812SOL    HW267567   0.200  10.648  10.802  1.4277  1.4856 -1.9680
20813SOL     OW67568   1.011   5.000   6.542  0.2106 -0.3735  0.2895
20813SOL    HW167569   0.954   4.954   6.603  0.4079 -0.5233  0.3612
20813SOL    HW267570   1.004   4.950   6.461  1.3049 -1.1974  0.6907
20814SOL     OW67571   2.190   5.594   2.718 -0.6622  0.3589  0.2946
20814SOL    HW167572   2.185   5.503   2.747 -1.4666  0.8479  1.7427
20814SOL    HW267573   2.130   5.599   2.644 -1.5828 -0.0089  1.0007
20815SOL     OW67574   4.467   1.813   6.636  0.0527 -0.2898 -0.3280
20815SOL    HW167575   4.379   1.848   6.646 -0.1938 -0.6676 -1.1520
20815SOL    HW267576   4.525   1.888   6.652 -0.4355  0.1735 -0.7181
20816SOL     OW67577   3.920   0.310   8.600  0.9332  0.0520 -0.0541
20816SOL    HW167578   3.912   0.258   8.680 -0.7237  0.1529 -0.1275
20816SOL    HW267579   3.908   0.248   8.529  0.1547  0.3238 -0.1666
20817SOL     OW67580   0.234   4.917   5.413 -0.2713 -0.3384 -0.3079
20817SOL    HW167581   0.301   4.849   5.413 -0.2238 -0.3126  1.4189
20817SOL    HW267582   0.267   4.984   5.353  0.9623 -0.6166  0.0532
20818SOL     OW67583   1.829   5.899   8.442 -0.1694  0.3465  0.4477
20818SOL    HW167584   1.851   5.955   8.368 -0.2487 -0.2908 -0.0600
20818SOL    HW267585   1.737   5.878   8.430 -0.4808  1.1380  1.3312
20819SOL     OW67586   9.249   0.726   7.335 -0.2240  0.0894 -0.2147
20819SOL    HW167587   9.259   0.821   7.338  0.0190  0.0397  0.8707
20819SOL    HW267588   9.250   0.704   7.242 -1.6777  1.2836 -0.5223
20820SOL     OW67589   9.605   6.181   0.883 -0.2990  0.4478 -0.4269
20820SOL    HW167590   9.580   6.145   0.968 -1.2666  0.5165 -0.6709
20820SOL    HW267591   9.522   6.212   0.845 -0.3523 -2.0030 -2.5224
20821SOL     OW67592   1.413   0.636   7.374 -0.4009  0.0513 -0.3499
20821SOL    HW167593   1.503   0.606   7.366 -0.0252  1.3133 -1.0979
20821SOL    HW267594   1.420   0.731   7.378 -1.6889  0.1537 -0.3047
20822SOL     OW67595   4.939  10.187   4.993  0.3414 -0.1905 -0.1386
20822SOL    HW167596   4.997  10.258   4.966  0.2854 -0.3490 -0.6922
20822SOL    HW267597   4.954  10.118   4.928  0.6564 -0.8263  0.5980
20823SOL     OW67598   6.762   3.829  11.131 -0.2754 -0.0574  0.7220
20823SOL    HW167599   6.773   3.878  11.211  1.2151  0.7691  0.0331
20823SOL    HW267600   6.668   3.810  11.126 -0.7276  1.9018  1.4633
20824SOL     OW67601   5.812   4.002   1.150 -0.1557 -0.4188  0.2381
20824SOL    HW167602   5.766   4.087   1.149 -0.4100 -0.5530  0.5761
20824SOL    HW267603   5.800   3.968   1.061  0.7740  0.3391 -0.1843
20825SOL     OW67604   8.657   5.113   9.548 -0.0237 -0.3020 -0.3465
20825SOL    HW167605   8.607   5.192   9.527  0.0720 -0.2160 -0.2532
20825SOL    HW267606   8.606   5.042   9.510  1.0509  0.0063 -2.5177
20826SOL     OW67607   7.731   0.347   3.407 -0.0571  0.1865  0.2373
20826SOL    HW167608   7.764   0.258   3.399 -0.2300  0.3564 -3.2152
20826SOL    HW267609   7.653   0.339   3.462  1.6747 -1.2739  2.5783
20827SOL     OW67610   1.556   6.701   7.370 -0.1542 -0.2983 -0.0777
20827SOL    HW167611   1.463   6.705   7.392 -0.0498  0.2493  0.2619
20827SOL    HW267612   1.557   6.686   7.276 -0.5978 -1.8974  0.1581
20828SOL     OW67613   1.628   3.593   8.124 -0.0654 -0.7760  0.7349
20828SOL    HW167614   1.540   3.618   8.153 -0.2082  0.8446 -1.0464
20828SOL    HW267615   1.624   3.498   8.116 -1.2283 -0.8506  2.0580
20829SOL     OW67616   8.294   5.385   8.603 -0.0217 -0.0317 -0.7058
20829SOL    HW167617   8.329   5.471   8.625  0.8691 -0.7006  0.5422
20829SOL    HW267618   8.339   5.361   8.522  1.5359 -0.3566  0.2380
20830SOL     OW67619   8.652   1.874   2.480  0.1575  0.6827  0.5394
20830SOL    HW167620   8.735   1.895   2.524 -0.7956  2.1741  1.6951
20830SOL    HW267621   8.586   1.914   2.536 -1.4962 -2.1031  0.6580
20831SOL     OW67622   2.305   1.972   7.916  0.3881 -0.0050  0.3623
20831SOL    HW167623   2.306   2.037   7.846  1.1691 -0.1419  0.2374
20831SOL    HW267624   2.317   1.888   7.872 -1.0672 -0.2878  0.4824
20832SOL     OW67625   7.669   0.907   2.485 -0.5121 -0.5741 -0.2150
20832SOL    HW167626   7.627   0.972   2.542  0.6544  0.3051 -0.3476
20832SOL    HW267627   7.609   0.899   2.411  0.3934  2.0168 -1.2787
20833SOL     OW67628  10.638   6.774  10.710 -0.3177  0.4913 -0.3069
20833SOL    HW167629  10.635   6.700  10.650  0.3686  0.9064 -0.8549
20833SOL    HW267630  10.567   6.831  10.682  0.0715  0.7372 -0.7918
20834SOL     OW67631   0.336   8.663   3.419 -0.5202  0.0558  0.3143
20834SOL    HW167632   0.340   8.648   3.513  3.3056  2.4512  0.6138
20834SOL    HW267633   0.419   8.632   3.385 -1.8183 -0.7400 -2.3150
20835SOL     OW67634   3.431   1.046   9.993 -0.1782 -0.6249  0.1808
20835SOL    HW167635   3.468   0.958   9.984 -1.0517 -1.0970  1.0103
20835SOL    HW267636   3.354   1.046   9.935 -0.5466 -0.6292  0.6632
20836SOL     OW67637   6.082   1.933   3.269 -0.1191 -0.9461 -0.0317
20836SOL    HW167638   6.124   1.852   3.300  1.2134  1.0049  3.5320
20836SOL    HW267639   6.023   1.958   3.339 -0.2284  1.3861 -0.9150
20837SOL     OW67640   0.852   3.075  10.992  0.5556 -0.0237 -0.2105
20837SOL    HW167641   0.811   3.150  10.950 -2.4516 -0.7273  1.3286
20837SOL    HW267642   0.892   3.025  10.921 -2.6703 -0.1349 -2.0176
20838SOL     OW67643   9.436   0.917   9.496  0.3625 -0.1804 -0.1304
20838SOL    HW167644   9.527   0.888   9.502  1.0857  2.0317 -0.0378
20838SOL    HW267645   9.436   0.984   9.428 -1.7632 -2.1575 -2.1723
20839SOL     OW67646   0.804  10.717   3.082  0.2621 -0.6085  0.1021
20839SOL    HW167647   0.839  10.781   3.145 -0.4951 -1.0701  1.0108
20839SOL    HW267648   0.853  10.637   3.100  0.5835 -0.5247 -0.4182
20840SOL     OW67649  10.685   0.213  10.027  0.7407  0.5202 -0.4389
20840SOL    HW167650  10.690   0.297   9.980  3.1468 -0.0896 -1.3621
20840SOL    HW267651  10.663   0.149   9.959  0.0543  0.2424  0.0461
20841SOL     OW67652   0.608   4.472   9.223  0.2386  0.3490 -0.2772
20841SOL    HW167653   0.539   4.468   9.289  0.6165  0.7107  0.1422
20841SOL    HW267654   0.586   4.548   9.169 -0.4531 -0.3553 -1.0016
20842SOL     OW67655   7.692  11.176   2.502  0.3489  0.3336 -0.1694
20842SOL    HW167656   7.623  11.109   2.505  0.1094  0.6273  1.7009
20842SOL    HW267657   7.753  11.150   2.571  2.1327  0.0732 -1.8222
20843SOL     OW67658   8.574  10.215   1.356  0.2999  0.8121  0.3302
20843SOL    HW167659   8.574  10.297   1.405  0.9080  1.7606 -1.2422
20843SOL    HW267660   8.535  10.237   1.271  0.1797 -0.5909  0.0045
20844SOL     OW67661   4.955   5.566   2.830  0.4349 -0.6042 -0.0966
20844SOL    HW167662   5.039   5.568   2.876  0.0106 -1.7203  0.7468
20844SOL    HW267663   4.913   5.649   2.854  1.3299  0.0150 -0.6185
20845SOL     OW67664   0.195   9.116   7.336 -0.8546 -0.5542  0.6492
20845SOL    HW167665   0.188   9.204   7.372  0.3773  0.6144 -1.8397
20845SOL    HW267666   0.120   9.069   7.372 -2.2761  1.9035  0.9736
20846SOL     OW67667   4.597   6.402   3.117 -0.1974  0.6117  0.7343
20846SOL    HW167668   4.523   6.344   3.098 -0.1400  0.5163  0.8069
20846SOL    HW267669   4.631   6.372   3.201  1.1119 -0.5607 -0.1899
20847SOL     OW67670   8.981   0.312   4.183  0.3183  0.0306  0.9548
20847SOL    HW167671   8.903   0.281   4.230 -0.2987 -1.4532 -0.9893
20847SOL    HW267672   9.041   0.338   4.253 -0.2703 -2.8312  2.6427
20848SOL     OW67673   4.989   2.876   9.285  0.7869 -0.1025  0.0944
20848SOL    HW167674   4.943   2.847   9.364 -0.0379  1.2384  0.1371
20848SOL    HW267675   4.964   2.813   9.218 -0.1193 -0.1140  0.4351
20849SOL     OW67676   6.044  10.659   4.155 -0.0633  0.4117  0.2527
20849SOL    HW167677   5.974  10.607   4.116 -0.1385  0.6914  0.0098
20849SOL    HW267678   6.059  10.730   4.092  0.4916  0.3065  0.2629
20850SOL     OW67679   1.536   1.218  10.157  0.5621 -0.1829 -0.0302
20850SOL    HW167680   1.541   1.253  10.246  0.3692  0.5466 -0.3032
20850SOL    HW267681   1.483   1.138  10.165 -0.0555  0.2639  0.3933
20851SOL     OW67682   9.702   6.645   7.765  0.1335  0.6274 -0.2611
20851SOL    HW167683   9.646   6.572   7.792  1.3030  0.2115  1.0995
20851SOL    HW267684   9.767   6.652   7.835  3.0947 -0.2902 -2.8048
20852SOL     OW67685   2.295   3.203  10.565 -0.3236  0.0732  0.2974
20852SOL    HW167686   2.213   3.152  10.565  0.1029 -0.6211  0.2784
20852SOL    HW267687   2.268   3.291  10.589 -1.1252 -0.0847  0.0136
20853SOL     OW67688   9.497  10.580   0.501 -0.1460 -0.1575 -0.2341
20853SOL    HW167689   9.472  10.570   0.409 -0.6308 -0.1489 -0.1037
20853SOL    HW267690   9.508  10.491   0.533  0.0685 -0.1596 -0.3091
20854SOL     OW67691   1.094   0.488   9.208  0.2946  0.0205 -0.4803
20854SOL    HW167692   1.181   0.449   9.215  0.1907 -0.3624 -1.3075
20854SOL    HW267693   1.042   0.423   9.162 -0.3375  0.4028 -0.3115
20855SOL     OW67694   9.885   1.672   3.667 -0.2005 -0.2207 -0.1131
20855SOL    HW167695   9.943   1.600   3.641 -0.6928 -0.3943 -0.7661
20855SOL    HW267696   9.870   1.721   3.586 -0.3740  0.2529  0.2007
20856SOL     OW67697   9.415   9.528   8.417 -0.0252 -0.3975  0.7526
20856SOL    HW167698   9.364   9.607   8.404  2.4189  1.1682  0.3345
20856SOL    HW267699   9.415   9.485   8.331 -1.3873 -0.8690  0.9887
20857SOL     OW67700   3.226   3.419   0.227 -0.3347 -0.0905 -0.0148
20857SOL    HW167701   3.184   3.429   0.313 -1.8398  1.1166 -0.8538
20857SOL    HW267702   3.319   3.417   0.245 -0.6186  0.8435  1.5932
20858SOL     OW67703   4.771   4.712   4.894 -0.0590 -0.4599  0.7214
20858SOL    HW167704   4.710   4.673   4.831  0.9772 -0.6820 -0.1550
20858SOL    HW267705   4.773   4.805   4.872  2.4121 -0.9611 -1.4086
20859SOL     OW67706   8.901   3.662   9.286 -0.0974  0.1361  0.0973
20859SOL    HW167707   8.956   3.696   9.215  1.1505  0.0900  1.0155
20859SOL    HW267708   8.873   3.740   9.334 -1.0079  0.1727 -0.4964
20860SOL     OW67709   1.710   8.682   6.447  0.3244 -0.1426 -0.2736
20860SOL    HW167710   1.650   8.756   6.452  0.5200  0.0812 -1.1285
20860SOL    HW267711   1.724   8.669   6.353  2.2907  0.3590 -0.0554
20861SOL     OW67712   7.526   6.209   6.425 -0.0616  0.2082 -0.7719
20861SOL    HW167713   7.436   6.237   6.409  0.3333  1.0427 -1.6162
20861SOL    HW267714   7.557   6.178   6.339 -0.0812 -1.6486 -0.1295
20862SOL     OW67715   8.163   0.831   6.949  0.2530 -0.2198 -0.1075
20862SOL    HW167716   8.077   0.805   6.981  0.1196 -0.2887 -0.5114
20862SOL    HW267717   8.160   0.813   6.855  0.3722  0.6572 -0.2859
20863SOL     OW67718   7.848   8.210   1.057 -0.2589 -0.1610  0.2338
20863SOL    HW167719   7.879   8.259   0.981 -2.1976 -1.0536 -1.1824
20863SOL    HW267720   7.823   8.125   1.022 -0.1930 -0.9613  2.0734
20864SOL     OW67721   3.789   6.302   8.593  0.2446  0.3379 -0.1372
20864SOL    HW167722   3.764   6.374   8.534 -0.9179  1.3171  1.4931
20864SOL    HW267723   3.746   6.225   8.556 -0.4224  0.9311 -0.6071
20865SOL     OW67724   2.422  10.186   1.171  0.0462  0.4483 -1.0559
20865SOL    HW167725   2.367  10.185   1.249 -0.8221  0.9358 -1.6485
20865SOL    HW267726   2.481  10.111   1.182 -1.6568 -0.9316 -1.0588
20866SOL     OW67727  10.591   2.568   9.128  0.0793 -0.4307  0.1180
20866SOL    HW167728  10.532   2.608   9.191  0.1234 -0.5195  0.2164
20866SOL    HW267729  10.678   2.596   9.156 -0.0667  1.6588 -1.4039
20867SOL     OW67730   7.751   0.091   8.604 -0.2376 -0.1233 -0.6530
20867SOL    HW167731   7.734   0.182   8.581 -0.0085  0.0062 -0.3221
20867SOL    HW267732   7.839   0.093   8.644 -0.3977 -0.4232 -0.2857
20868SOL     OW67733   9.165   8.999   1.333  0.4429  0.1983 -1.1901
20868SOL    HW167734   9.233   8.972   1.395 -1.3027 -1.6497 -0.0227
20868SOL    HW267735   9.176   8.940   1.259  1.3939  1.2547 -1.9132
20869SOL     OW67736  10.837   2.876   9.567  0.1979  0.1068 -0.0498
20869SOL    HW167737  10.780   2.800   9.576  0.1226  0.1767  0.0754
20869SOL    HW267738  10.778   2.951   9.569  0.0881  0.0985 -2.1015
20870SOL     OW67739   3.990  10.501   0.740  0.4287 -0.2378 -0.0339
20870SOL    HW167740   4.016  10.591   0.760  0.8394 -0.1457 -0.9728
20870SOL    HW267741   4.072  10.451   0.745  0.4683 -0.2837 -1.0541
20871SOL     OW67742   7.205   8.902   7.310  0.1444 -0.7458 -0.5036
20871SOL    HW167743   7.202   8.966   7.382 -0.1882 -2.9131  1.4706
20871SOL    HW267744   7.260   8.944   7.244  0.6679  1.2132  1.0929
20872SOL     OW67745   8.315   6.624   7.965 -0.5263  0.7573 -0.2838
20872SOL    HW167746   8.408   6.619   7.942 -0.0576 -0.5385  1.6919
20872SOL    HW267747   8.275   6.550   7.919  0.2977 -1.4692  2.4052
20873SOL     OW67748  10.588   0.944  11.165 -0.3156 -0.5467  0.1617
20873SOL    HW167749  10.617   0.901  11.085 -0.0395 -0.9500  0.4761
20873SOL    HW267750  10.669   0.977  11.205 -0.5035  0.1223  0.0106
20874SOL     OW67751   9.912   3.126   2.821  0.2137 -0.2998  0.2317
20874SOL    HW167752   9.818   3.105   2.823 -0.2887  1.9958  0.9926
20874SOL    HW267753   9.934   3.147   2.911  1.3183 -0.1007 -0.0839
20875SOL     OW67754   6.580   7.219   6.104  0.0416 -0.3760  0.3092
20875SOL    HW167755   6.654   7.279   6.094 -0.3850  0.0858 -0.1273
20875SOL    HW267756   6.566   7.184   6.016 -0.4264 -0.2579  0.3374
20876SOL     OW67757   2.386  10.368   8.665 -0.1292  0.0983  0.0224
20876SOL    HW167758   2.419  10.395   8.751  1.0471 -1.0290 -0.0637
20876SOL    HW267759   2.463  10.331   8.620 -0.3013  2.2277 -2.1604
20877SOL     OW67760   5.897   9.685   4.745 -0.0648  0.4625 -0.7635
20877SOL    HW167761   5.869   9.616   4.806  0.7443 -0.6258 -1.5960
20877SOL    HW267762   5.847   9.668   4.665  0.0099  0.9468 -0.9144
20878SOL     OW67763   5.195   0.919   6.985 -0.1363  0.2056  0.0502
20878SOL    HW167764   5.214   0.906   6.892  1.8632 -1.2148  0.6223
20878SOL    HW267765   5.114   0.969   6.986 -0.5300 -0.3175 -2.4534
20879SOL     OW67766  10.224   0.681   6.878 -0.0170 -0.9893 -0.2541
20879SOL    HW167767  10.266   0.751   6.828  2.7908 -1.0758  1.8480
20879SOL    HW267768  10.131   0.692   6.862  0.3868  3.0217 -0.2558
20880SOL     OW67769   2.033   7.072   8.098  0.2511  0.2334  0.2052
20880SOL    HW167770   2.000   7.027   8.020  0.5630 -0.5709  0.5348
20880SOL    HW267771   1.954   7.098   8.145  0.0653  0.1985 -0.0860
20881SOL     OW67772   5.725  10.881   9.431  0.6780 -0.3063 -0.3887
20881SOL    HW167773   5.697  10.837   9.351  0.0174  0.5693 -0.6385
20881SOL    HW267774   5.749  10.809   9.490  1.3684 -0.9527 -1.4314
20882SOL     OW67775   1.551   5.156   7.005  0.3241  0.1162 -0.2200
20882SOL    HW167776   1.647   5.150   7.001  0.4570  0.4111  1.7420
20882SOL    HW267777   1.520   5.087   6.948  1.7023  1.3825 -2.5907
20883SOL     OW67778   9.006   3.061   8.454 -0.3733 -0.0375 -0.0213
20883SOL    HW167779   9.071   3.100   8.395 -0.5942  0.3453 -0.0077
20883SOL    HW267780   8.923   3.100   8.428 -0.0459  2.6321  2.6618
20884SOL     OW67781  10.105   5.215   9.380 -0.0577 -0.2981  0.5077
20884SOL    HW167782  10.044   5.287   9.393  0.3740  0.2338 -0.3420
20884SOL    HW267783  10.063   5.140   9.422 -0.8585  0.2782  0.7490
20885SOL     OW67784  11.248  10.371   4.143  0.0306 -0.0929 -0.4772
20885SOL    HW167785  11.308  10.444   4.128 -0.3147 -0.0182 -1.5744
20885SOL    HW267786  11.199  10.363   4.061 -2.3123  0.6365  0.7902
20886SOL     OW67787  10.879   2.566   3.957 -0.4239 -0.3292 -0.3101
20886SOL    HW167788  10.907   2.616   4.033  0.0131  0.1719 -0.7967
20886SOL    HW267789  10.897   2.623   3.883  1.0003 -1.5819 -0.9543
20887SOL     OW67790   1.565  11.230   2.350  0.4237  0.0288 -0.7190
20887SOL    HW167791   1.642  11.209   2.298  0.8417 -0.0080 -0.0835
20887SOL    HW267792   1.497  11.170   2.318  0.8258 -0.3521 -0.8591
20888SOL     OW67793   7.236   6.215   0.210  0.0976 -0.2067 -0.6138
20888SOL    HW167794   7.265   6.274   0.280  1.5105 -2.8159  1.0775
20888SOL    HW267795   7.140   6.219   0.214  0.1429 -0.8731  1.9703
20889SOL     OW67796   9.099   1.481   8.528  0.1945 -0.2449  0.2127
20889SOL    HW167797   9.128   1.391   8.513 -0.3230 -0.3323 -0.2788
20889SOL    HW267798   9.131   1.503   8.615  0.8197 -0.7085  0.0966
20890SOL     OW67799   5.160   0.914   9.117  0.0571 -0.0629  0.7855
20890SOL    HW167800   5.133   0.837   9.067  0.2468 -0.3571  1.1319
20890SOL    HW267801   5.234   0.949   9.068  0.2930 -0.3958  0.8951
20891SOL     OW67802   0.008  10.229   0.021 -0.1754  0.1218  0.1152
20891SOL    HW167803  -0.058  10.163   0.042 -0.5774 -0.6833 -3.3973
20891SOL    HW267804  -0.042  10.311   0.019  0.1818  0.5159  3.7062
20892SOL     OW67805   4.323   1.106   1.939 -0.2632 -0.4436  0.0953
20892SOL    HW167806   4.304   1.073   2.027  0.3059  0.2627  0.4802
20892SOL    HW267807   4.241   1.146   1.910 -0.9270 -2.0642 -0.3242
20893SOL     OW67808   8.545   1.832   3.936 -0.4884 -0.3226  0.1630
20893SOL    HW167809   8.539   1.923   3.967  1.7692 -0.4004  0.9409
20893SOL    HW267810   8.518   1.780   4.012 -0.1724 -0.3519  0.2550
20894SOL     OW67811   5.356   1.433   0.101  0.3720 -0.1166  0.2920
20894SOL    HW167812   5.362   1.338   0.102  0.3205 -0.1452 -0.7577
20894SOL    HW267813   5.330   1.457   0.190  0.3720 -1.0797  0.5575
20895SOL     OW67814   9.442   8.928   3.118  0.2668  0.3527  0.0169
20895SOL    HW167815   9.431   8.862   3.050 -0.5117  1.4763 -0.9856
20895SOL    HW267816   9.397   8.891   3.195 -1.8166  0.5074 -1.0875
20896SOL     OW67817   0.768   3.667   5.496  0.0478  0.1982 -0.1702
20896SOL    HW167818   0.702   3.724   5.535 -0.7769 -0.5922 -0.3942
20896SOL    HW267819   0.850   3.717   5.503 -0.0570  0.0377  2.6361
20897SOL     OW67820   2.694   8.764   4.216 -0.8557  0.1512  0.1463
20897SOL    HW167821   2.727   8.679   4.245  0.0109  0.2008 -0.6752
20897SOL    HW267822   2.739   8.828   4.272 -0.1350  0.1700 -0.4450
20898SOL     OW67823   4.430   4.389   5.093  0.5564  0.2196  0.1989
20898SOL    HW167824   4.397   4.473   5.126  2.1322  1.1816 -0.6290
20898SOL    HW267825   4.524   4.392   5.109  0.7775 -0.9239 -0.8521
20899SOL     OW67826   0.822   9.696  11.249 -0.2232  0.4165  0.2298
20899SOL    HW167827   0.898   9.659  11.294  0.0898 -1.3447 -1.6584
20899SOL    HW267828   0.856   9.724  11.164 -1.5436  0.1688 -0.3930
20900SOL     OW67829   0.697   0.991  10.982 -0.1391  0.1601 -0.0918
20900SOL    HW167830   0.663   1.055  10.920 -3.4686  0.4198  1.8738
20900SOL    HW267831   0.709   0.912  10.931 -0.6605  0.9948 -1.5243
20901SOL     OW67832   3.823   6.062   3.621 -0.4310  0.0473  0.0821
20901SOL    HW167833   3.847   6.149   3.589  1.2648 -0.9054 -1.2606
20901SOL    HW267834   3.877   6.050   3.699  0.7742 -0.5845 -0.8392
20902SOL     OW67835   9.216   8.783   0.365 -0.0183  0.0363 -0.1249
20902SOL    HW167836   9.243   8.770   0.456 -1.2015  1.2919  0.4342
20902SOL    HW267837   9.147   8.717   0.352  1.3587 -1.3170 -0.6804
20903SOL     OW67838  10.569   3.866   2.131  0.1697 -0.0076  0.0344
20903SOL    HW167839  10.600   3.858   2.221  0.8898  0.5447 -0.1610
20903SOL    HW267840  10.625   3.932   2.092 -0.7613  0.4516 -0.5541
20904SOL     OW67841   1.981   3.260   6.084 -0.1117 -0.3372 -0.2612
20904SOL    HW167842   1.893   3.233   6.112 -0.8300  0.1145 -2.0572
20904SOL    HW267843   2.019   3.181   6.045 -0.1294 -0.2327 -0.4874
20905SOL     OW67844  11.190  10.929  11.214 -1.0080 -0.0497  0.8885
20905SOL    HW167845  11.173  10.835  11.212 -0.6240 -0.1600  2.2215
20905SOL    HW267846  11.161  10.957  11.301  0.9692  0.6342  1.3588
20906SOL     OW67847   1.326   5.219   1.081 -0.2077  0.2174 -0.0315
20906SOL    HW167848   1.249   5.234   1.027 -1.6434  2.1270  2.4178
20906SOL    HW267849   1.370   5.304   1.086  0.6650 -0.2593  0.6284
20907SOL     OW67850   5.875   5.086   8.982 -0.2954 -0.2353 -0.2965
20907SOL    HW167851   5.808   5.104   9.047  1.3191 -0.3517  1.4556
20907SOL    HW267852   5.920   5.170   8.970  0.0728 -0.4567 -0.5006
20908SOL     OW67853   8.073   0.133   3.560 -0.0464  0.7518  0.3063
20908SOL    HW167854   8.048   0.197   3.626 -0.9830 -1.0603  1.7475
20908SOL    HW267855   8.156   0.097   3.591 -0.4657 -0.0741  0.4777
20909SOL     OW67856   3.660   7.050   5.991  0.2003  0.0009 -0.1936
20909SOL    HW167857   3.744   7.058   6.035 -0.8087 -1.0507  1.9740
20909SOL    HW267858   3.611   7.127   6.019 -1.2414 -1.8051  2.3292
20910SOL     OW67859   6.933   4.670   6.887  0.5244 -0.3057 -0.4984
20910SOL    HW167860   6.997   4.602   6.907  1.7941  1.2373  0.8004
20910SOL    HW267861   6.982   4.737   6.840 -0.1412  0.8423  0.3991
20911SOL     OW67862   1.183   9.485   0.811  0.2176 -0.2309  0.4817
20911SOL    HW167863   1.096   9.458   0.783  0.0153  2.1616 -1.3779
20911SOL    HW267864   1.239   9.409   0.795 -0.8015 -0.4829 -2.0607
20912SOL     OW67865  10.265   6.502   3.517  0.1802  0.0113  0.0276
20912SOL    HW167866  10.331   6.434   3.501 -0.3768 -0.1490 -1.6640
20912SOL    HW267867  10.189   6.454   3.551  0.7195  0.1322  1.4512
20913SOL     OW67868   0.183   7.225   6.282  0.3816 -0.2431  0.1720
20913SOL    HW167869   0.162   7.270   6.364  1.1012 -2.4717  1.6214
20913SOL    HW267870   0.279   7.229   6.276  0.4652 -1.6555  0.3742
20914SOL     OW67871   3.890   6.261   9.940 -0.0492  0.2384  0.5634
20914SOL    HW167872   3.962   6.303   9.988 -0.1314 -0.6788  1.5069
20914SOL    HW267873   3.814   6.314   9.962  0.1995  0.7643  0.1698
20915SOL     OW67874   9.059   9.636  10.516 -0.0986 -0.2723  0.5610
20915SOL    HW167875   9.008   9.569  10.470  0.7027 -0.2921 -0.3095
20915SOL    HW267876   9.003   9.662  10.589 -1.1749 -0.6197 -0.1140
20916SOL     OW67877   7.731   6.955   2.431  0.1747  0.5336 -0.1106
20916SOL    HW167878   7.738   6.954   2.336  0.4891 -0.3959 -0.0768
20916SOL    HW267879   7.822   6.963   2.461  0.0146  1.7375  0.1088
20917SOL     OW67880   2.698   7.254   4.802 -0.2583 -0.3270 -0.1200
20917SOL    HW167881   2.626   7.214   4.850 -1.5086  0.3669 -1.3727
20917SOL    HW267882   2.774   7.198   4.819 -1.0539 -0.9451  1.3711
20918SOL     OW67883   3.172   0.183   5.666  0.6006  0.0692 -0.0058
20918SOL    HW167884   3.161   0.174   5.761 -2.2135 -0.7352 -0.3475
20918SOL    HW267885   3.173   0.093   5.634 -0.1731  0.3539 -0.8674
20919SOL     OW67886   5.232   0.352   2.977 -0.1402  0.4475  0.6776
20919SOL    HW167887   5.229   0.407   3.055 -0.3566  0.5506  0.5966
20919SOL    HW267888   5.274   0.271   3.006  0.3014  0.7078  0.7632
20920SOL     OW67889  10.740  10.991   5.668  0.0992  0.2431  0.3406
20920SOL    HW167890  10.833  10.983   5.690 -0.0637 -1.5483  0.4671
20920SOL    HW267891  10.696  10.984   5.752 -0.1550  0.9912  0.2672
20921SOL     OW67892   9.564   6.896   7.737  0.5708  0.1289 -0.0225
20921SOL    HW167893   9.613   6.816   7.755  0.9565  0.0705 -1.2810
20921SOL    HW267894   9.592   6.922   7.650 -2.0558 -0.2040 -1.0247
20922SOL     OW67895   7.589   6.557   1.269 -0.6047  0.2022  0.0996
20922SOL    HW167896   7.670   6.513   1.242 -2.2117 -0.7550 -3.4561
20922SOL    HW267897   7.589   6.640   1.221 -1.5571  0.3506  0.3351
20923SOL     OW67898   4.721   8.909   8.948  0.0737  0.1926  0.9286
20923SOL    HW167899   4.767   8.861   8.879 -0.3863  1.1537 -0.0521
20923SOL    HW267900   4.782   8.909   9.022  0.6856 -0.5770  0.4350
20924SOL     OW67901  10.308   4.062   2.276  0.4718  0.5661 -0.4582
20924SOL    HW167902  10.302   4.045   2.370  2.4357 -0.0555 -0.4264
20924SOL    HW267903  10.358   3.988   2.241 -0.2850  0.7680 -2.0040
20925SOL     OW67904   8.775   6.603   1.286 -0.5216 -0.6944 -0.5330
20925SOL    HW167905   8.758   6.690   1.323 -2.4442 -1.2572 -0.0238
20925SOL    HW267906   8.788   6.547   1.363 -0.5657 -1.1020 -0.8229
20926SOL     OW67907   4.239   9.453   3.021 -0.3828 -0.5746  0.0625
20926SOL    HW167908   4.314   9.428   2.967 -0.1058  0.0540  0.1601
20926SOL    HW267909   4.164   9.449   2.961 -0.2724 -1.1572 -0.0441
20927SOL     OW67910   4.144   2.756   7.415 -0.2432  0.1850  0.2824
20927SOL    HW167911   4.108   2.674   7.447 -1.0002 -0.1261 -1.2818
20927SOL    HW267912   4.228   2.731   7.375 -0.6337  0.0951 -0.5028
20928SOL     OW67913   0.945   6.016   1.213  0.4122 -0.5366  0.0588
20928SOL    HW167914   0.910   5.943   1.263 -2.6930  0.7942 -0.0146
20928SOL    HW267915   0.916   5.999   1.123  0.3038  0.3863 -0.0887
20929SOL     OW67916   8.155   2.831   8.834  0.5857 -0.3717 -0.3316
20929SOL    HW167917   8.099   2.755   8.822  0.7588 -0.0462 -3.3888
20929SOL    HW267918   8.177   2.829   8.927 -1.3079 -2.7030  0.1237
20930SOL     OW67919  11.161   0.939   8.268 -0.2017  0.1704 -0.2340
20930SOL    HW167920  11.220   1.004   8.229 -0.3883  0.0029 -0.7937
20930SOL    HW267921  11.209   0.906   8.344  0.4240  0.0436 -0.6796
20931SOL     OW67922   2.175   1.848   3.913 -0.0819  0.2643  0.1033
20931SOL    HW167923   2.117   1.786   3.958 -1.1452  0.2340 -1.3090
20931SOL    HW267924   2.117   1.910   3.870  0.9425  0.7180 -0.6611
20932SOL     OW67925   3.971   9.149   2.947 -0.1608  0.2578  0.3252
20932SOL    HW167926   3.943   9.238   2.967  0.6537  0.1664  1.9954
20932SOL    HW267927   4.003   9.115   3.030  0.4153 -1.2743 -0.5011
20933SOL     OW67928   1.253   4.456   0.637 -0.0488  0.2812  0.3853
20933SOL    HW167929   1.296   4.372   0.621  1.9659  1.1229  1.2349
20933SOL    HW267930   1.307   4.520   0.590  0.0073  1.4335  1.9762
20934SOL     OW67931   1.700   5.066   2.276  0.0818  0.0448 -0.8624
20934SOL    HW167932   1.655   5.026   2.350 -1.3252  0.3464 -1.5184
20934SOL    HW267933   1.667   5.018   2.199  0.7294  0.4098 -1.3725
20935SOL     OW67934  10.499  10.689   2.965  0.2581  0.1514  0.0200
20935SOL    HW167935  10.540  10.605   2.985  0.6361  0.5384  0.9247
20935SOL    HW267936  10.460  10.716   3.048  1.1684  1.4325  0.0371
20936SOL     OW67937   9.189   5.641   0.769 -0.1803 -0.6359  0.2628
20936SOL    HW167938   9.106   5.648   0.816 -0.6826 -2.7552 -0.2342
20936SOL    HW267939   9.189   5.552   0.735  2.1027 -0.4997 -0.1510
20937SOL     OW67940   2.784   1.730   3.350 -0.7619 -0.2746 -0.5189
20937SOL    HW167941   2.871   1.734   3.389 -0.6456  0.2119 -0.8182
20937SOL    HW267942   2.729   1.688   3.416  0.0542 -2.0695 -0.9623
20938SOL     OW67943  10.322   5.321   8.569 -0.1837 -0.4832 -0.3769
20938SOL    HW167944  10.264   5.255   8.605 -0.6390 -0.5947 -1.3037
20938SOL    HW267945  10.402   5.273   8.546  0.1143 -0.4091  0.4695
20939SOL     OW67946   6.423   6.604   2.489 -0.7422 -0.4746 -0.3370
20939SOL    HW167947   6.353   6.597   2.424 -0.1882  0.0633 -1.0088
20939SOL    HW267948   6.443   6.514   2.513 -1.6966 -0.6265 -0.1060
20940SOL     OW67949   2.445   4.709   1.675 -0.1236 -0.0608  0.0916
20940SOL    HW167950   2.418   4.724   1.585  0.4113  0.2426 -0.0239
20940SOL    HW267951   2.535   4.742   1.679  0.1354 -0.7966  0.5299
20941SOL     OW67952   5.018  11.113   6.507 -0.4724 -0.3517  0.1862
20941SOL    HW167953   4.948  11.087   6.447 -0.2028 -1.0602  0.1831
20941SOL    HW267954   4.973  11.132   6.589 -0.4643 -2.8167  0.8055
20942SOL     OW67955   1.178   5.003   4.846  0.6214  0.3246  0.1826
20942SOL    HW167956   1.241   4.967   4.908  2.2679  0.5896 -1.2824
20942SOL    HW267957   1.209   5.093   4.829  0.9101 -0.1231 -1.8896
20943SOL     OW67958   3.139  10.812   5.244  0.4600 -0.0920  0.0449
20943SOL    HW167959   3.106  10.790   5.157  0.4560 -1.2317  0.3278
20943SOL    HW267960   3.203  10.744   5.264  1.1293  0.6804  0.5584
20944SOL     OW67961   0.451   7.505   9.306  0.9244  0.0617  0.2565
20944SOL    HW167962   0.497   7.529   9.225  0.7803 -0.2381  0.0837
20944SOL    HW267963   0.518   7.468   9.362  0.8424 -0.6826 -0.1231
20945SOL     OW67964  10.188   0.132   7.463 -0.2837 -0.3523 -0.3614
20945SOL    HW167965  10.273   0.177   7.466  0.1474 -1.2221  0.5925
20945SOL    HW267966  10.178   0.107   7.371  0.8224 -0.8704 -0.3468
20946SOL     OW67967   9.881   9.646  10.253 -0.6749 -0.1841  0.0742
20946SOL    HW167968   9.971   9.677  10.253 -0.9057  0.4723 -0.2480
20946SOL    HW267969   9.888   9.552  10.270  0.0100  0.0402  1.0636
20947SOL     OW67970   0.237   1.908   5.830  0.5172 -0.0442 -0.2467
20947SOL    HW167971   0.327   1.938   5.815  0.7725  0.1538  1.5324
20947SOL    HW267972   0.185   1.988   5.830  0.7312  0.1139  1.2786
20948SOL     OW67973   7.934   9.761   9.675  0.1383  0.0649  0.2174
20948SOL    HW167974   7.937   9.771   9.770 -0.3183  0.1294  0.2294
20948SOL    HW267975   7.991   9.830   9.641  1.0408 -0.5489  0.4754
20949SOL     OW67976   6.132   3.720   2.385  0.0083 -0.2031  0.1763
20949SOL    HW167977   6.040   3.702   2.368  0.0229 -1.3179  1.2210
20949SOL    HW267978   6.145   3.695   2.477  0.7062  2.5487  0.8664
20950SOL     OW67979   1.722   8.171   6.736  0.4307 -0.0715  0.0653
20950SOL    HW167980   1.683   8.085   6.756 -0.5418 -0.1613 -2.0351
20950SOL    HW267981   1.816   8.158   6.748  0.1233 -0.8272  1.8253
20951SOL     OW67982   7.712   3.251   0.076 -0.1567  0.0397 -0.2542
20951SOL    HW167983   7.713   3.272   0.170 -0.7642 -0.4629 -0.1303
20951SOL    HW267984   7.778   3.309   0.038 -1.2354  1.5851  0.1888
20952SOL     OW67985   1.132   9.608   9.716  0.1790 -0.1479  0.2151
20952SOL    HW167986   1.226   9.594   9.722  0.2864  0.6576  0.4181
20952SOL    HW267987   1.099   9.593   9.805  0.2195  0.3563  0.3126
20953SOL     OW67988   1.208   4.415  10.506 -0.4596 -0.1334 -0.0657
20953SOL    HW167989   1.248   4.483  10.451 -1.4154 -1.2063 -2.0903
20953SOL    HW267990   1.240   4.436  10.594  1.1598  1.5448 -1.0007
20954SOL     OW67991  10.997   6.369   5.131  0.5440 -0.0272  0.1774
20954SOL    HW167992  11.059   6.365   5.059 -0.1635 -0.3843 -0.4130
20954SOL    HW267993  11.039   6.425   5.196  0.4836  1.6410 -1.1795
20955SOL     OW67994   3.121   3.969   9.988 -0.9193  0.3461  0.4178
20955SOL    HW167995   3.213   3.972  10.013 -1.0494  2.7416  0.7817
20955SOL    HW267996   3.073   3.960  10.070 -1.0169 -0.5636  0.2598
20956SOL     OW67997   6.315   7.221   0.517  0.5937  0.8422 -0.1369
20956SOL    HW167998   6.366   7.150   0.555 -0.9922 -0.1761  0.1224
20956SOL    HW267999   6.262   7.254   0.590 -0.2644  0.8610 -0.7663
20957SOL     OW68000  10.616   4.788  11.004 -0.2118  1.4935  0.4940
20957SOL    HW168001  10.537   4.737  10.988  0.3080  1.7373 -3.2984
20957SOL    HW268002  10.683   4.724  11.025 -0.6460  1.0195  0.4322
20958SOL     OW68003  10.588   0.177   3.658  0.8372  0.3097  0.1816
20958SOL    HW168004  10.507   0.145   3.618  0.2434  0.6062  1.1078
20958SOL    HW268005  10.658   0.137   3.607  0.1029 -0.8975  0.1030
20959SOL     OW68006   7.828   1.007   0.987 -0.5368  0.0417  0.0489
20959SOL    HW168007   7.827   1.096   0.953  1.3013 -0.1018 -0.4074
20959SOL    HW268008   7.908   1.001   1.038 -1.2240 -1.0117  1.0408
20960SOL     OW68009   3.970   5.131   6.896  0.4069 -0.4070 -0.2482
20960SOL    HW168010   3.943   5.218   6.926  0.9856  0.0308 -0.9531
20960SOL    HW268011   4.065   5.130   6.909  0.4682 -0.7376 -0.7054
20961SOL     OW68012   6.672   3.569   6.620  1.0045  0.1811  0.6202
20961SOL    HW168013   6.658   3.551   6.712  0.3978  0.5683  0.6024
20961SOL    HW268014   6.653   3.486   6.576 -0.7552  0.5587  0.6425
20962SOL     OW68015   0.446   0.384   3.689 -0.1824 -0.1770  0.7122
20962SOL    HW168016   0.469   0.305   3.738  3.8769  0.5974  0.2330
20962SOL    HW268017   0.526   0.408   3.643 -2.5118  1.9042 -2.4664
20963SOL     OW68018   1.062   1.528  11.206 -0.4453  0.1348 -0.4900
20963SOL    HW168019   1.069   1.436  11.180 -1.3411 -0.2494  0.5904
20963SOL    HW268020   0.975   1.535  11.244 -0.9291  1.7727 -1.8731
20964SOL     OW68021   0.533   0.662   8.155 -0.1044 -0.2953 -0.0738
20964SOL    HW168022   0.606   0.723   8.148 -0.3665 -0.0422 -0.6192
20964SOL    HW268023   0.469   0.707   8.209 -0.1388 -0.2389 -0.1612
20965SOL     OW68024   6.431   1.955   9.414 -0.5437  0.2982 -0.0394
20965SOL    HW168025   6.490   1.887   9.381 -0.4510 -0.9135  2.4694
20965SOL    HW268026   6.352   1.946   9.361  0.0202 -0.7834 -0.7197
20966SOL     OW68027   1.135  11.283   7.940 -0.1001 -0.2312 -0.4377
20966SOL    HW168028   1.168  11.193   7.939 -1.0572 -0.5830 -1.4507
20966SOL    HW268029   1.101  11.297   7.851  1.3072  1.6114 -0.7176
20967SOL     OW68030   5.512   4.287   3.738  0.5292  0.2297  0.1634
20967SOL    HW168031   5.440   4.268   3.798  0.9996  1.1502  1.0406
20967SOL    HW268032   5.590   4.284   3.793  1.3694 -2.5249 -1.1351
20968SOL     OW68033   4.339  10.376   4.035  0.1883 -0.3121  0.3382
20968SOL    HW168034   4.279  10.449   4.052 -1.4645 -0.2808 -4.9296
20968SOL    HW268035   4.284  10.298   4.043  0.1428 -0.4791 -1.5702
20969SOL     OW68036   6.256   9.375   3.006 -0.6282  0.2351 -0.3250
20969SOL    HW168037   6.301   9.386   3.090 -0.1064  2.0735 -0.8052
20969SOL    HW268038   6.164   9.391   3.026 -0.5819  0.0854  0.0095
20970SOL     OW68039   3.116   7.191   4.710 -0.3144 -0.4043 -0.2289
20970SOL    HW168040   3.049   7.246   4.749  0.2620  0.1409  0.0015
20970SOL    HW268041   3.067   7.121   4.666 -0.9438 -1.7430  2.5030
20971SOL     OW68042   3.389   1.371   0.135  0.0697 -0.2426  0.4989
20971SOL    HW168043   3.321   1.311   0.166  1.8681 -2.5923 -0.0196
20971SOL    HW268044   3.420   1.331   0.053  1.4032  1.3145  0.2301
20972SOL     OW68045   2.146  10.518  10.249 -0.1136 -0.5784  0.2656
20972SOL    HW168046   2.219  10.457  10.258  0.4639  0.1213  0.4026
20972SOL    HW268047   2.136  10.530  10.155  0.3198 -0.2335  0.2642
20973SOL     OW68048   5.416  10.459   2.949 -0.0807 -0.9516  0.1605
20973SOL    HW168049   5.452  10.405   2.878 -0.3661 -1.6810  0.5608
20973SOL    HW268050   5.322  10.439   2.948 -0.2891  0.0264 -0.0974
20974SOL     OW68051   7.916   1.940   3.471 -0.5616 -0.0804 -0.0173
20974SOL    HW168052   7.939   1.980   3.387  1.7135  1.5977  1.3370
20974SOL    HW268053   7.967   1.859   3.474 -2.2057 -1.1885 -1.0914
20975SOL     OW68054   3.655   1.829   2.227 -0.3787 -0.0986  0.0116
20975SOL    HW168055   3.576   1.876   2.200 -0.5794  0.9451  2.3327
20975SOL    HW268056   3.648   1.743   2.184 -1.1481  1.1446 -2.4064
20976SOL     OW68057   1.369   0.566   8.928 -0.6344 -0.0045  0.4388
20976SOL    HW168058   1.344   0.565   9.020 -1.0176  1.5214  0.3582
20976SOL    HW268059   1.434   0.636   8.921  1.3358 -1.8290  0.0384
20977SOL     OW68060   5.616   1.596   7.264  0.2934  0.6789  0.0302
20977SOL    HW168061   5.665   1.662   7.214  0.9930 -0.5318 -0.9247
20977SOL    HW268062   5.545   1.570   7.205  0.2455  0.3103  0.2506
20978SOL     OW68063   4.214   5.787   0.004 -0.0567 -0.1379  0.0929
20978SOL    HW168064   4.239   5.841  -0.071 -0.0986  1.1274  0.9652
20978SOL    HW268065   4.293   5.784   0.058 -0.0743 -0.9105  0.0805
20979SOL     OW68066   8.919   7.448   4.106 -1.0019 -0.5774 -0.3546
20979SOL    HW168067   8.905   7.542   4.096 -1.6492 -0.5512  0.7199
20979SOL    HW268068   8.889   7.428   4.195  0.2113 -1.5908 -0.1445
20980SOL     OW68069   0.503   7.424  10.465  0.4363  0.9997  0.1610
20980SOL    HW168070   0.577   7.436  10.405  0.2335 -0.5901 -0.4645
20980SOL    HW268071   0.530   7.466  10.546  1.5524  1.4425 -0.4269
20981SOL     OW68072   7.627   4.621   5.248  0.5139 -0.4715 -0.0732
20981SOL    HW168073   7.703   4.610   5.191  0.3112  1.3217 -0.7166
20981SOL    HW268074   7.559   4.568   5.208  1.2125 -1.5637  0.1454
20982SOL     OW68075   7.073   7.731   5.559  0.5295  0.0151  0.2491
20982SOL    HW168076   7.142   7.665   5.549  1.0460  0.5818  0.0578
20982SOL    HW268077   6.993   7.680   5.569  1.1449 -0.6704  1.8259
20983SOL     OW68078  10.256   9.458  11.277 -1.7199 -0.2831 -0.0422
20983SOL    HW168079  10.206   9.515  11.220 -2.2389 -0.8370 -0.1412
20983SOL    HW268080  10.223   9.477  11.365 -2.1408 -0.6832 -0.1128
20984SOL     OW68081   9.063   1.626   1.106  0.1593  0.6123  0.2280
20984SOL    HW168082   9.102   1.607   1.191  0.2965  1.2482  0.3105
20984SOL    HW268083   9.109   1.569   1.044 -0.2645 -0.1913  0.6520
20985SOL     OW68084   0.385   0.954   3.635 -0.0240 -0.2344 -0.5262
20985SOL    HW168085   0.460   0.921   3.683 -1.5636 -2.1798  0.6101
20985SOL    HW268086   0.408   0.943   3.543  1.1749 -0.5411 -0.1906
20986SOL     OW68087   9.133   4.662   1.845 -0.0843  0.4727  0.0010
20986SOL    HW168088   9.177   4.584   1.878 -0.4183  0.2882  0.0156
20986SOL    HW268089   9.203   4.717   1.812  0.3137  0.9456  1.5990
20987SOL     OW68090   7.588   7.887  10.101  0.1057  0.1714  0.2176
20987SOL    HW168091   7.497   7.870  10.126 -0.4492  1.7024 -0.7288
20987SOL    HW268092   7.588   7.976  10.066  2.3309  0.8977  1.9287
20988SOL     OW68093   6.283   5.401   3.688  0.7965  0.1752 -0.2676
20988SOL    HW168094   6.222   5.392   3.761  1.2227  0.1522  0.0893
20988SOL    HW268095   6.232   5.445   3.619 -0.1420 -1.4263 -0.6243
20989SOL     OW68096   8.137  10.021   7.585 -0.6053  0.2180  0.4116
20989SOL    HW168097   8.198  10.076   7.537 -0.0413  0.2575  1.1586
20989SOL    HW268098   8.100  10.079   7.652 -0.3816 -0.1792  0.8834
20990SOL     OW68099  10.640   8.679   6.681  0.2110  0.1082 -0.1964
20990SOL    HW168100  10.657   8.631   6.762 -0.9789 -0.9261 -0.5287
20990SOL    HW268101  10.591   8.756   6.709  0.9489  0.4279  0.2091
20991SOL     OW68102   5.480  11.168   8.897  0.4694  0.2909 -0.2366
20991SOL    HW168103   5.483  11.127   8.984  2.0332  0.3104 -0.2754
20991SOL    HW268104   5.388  11.193   8.886 -0.0724 -1.2155  0.7125
20992SOL     OW68105   7.867   3.128   8.819  0.4084 -0.1836  0.0888
20992SOL    HW168106   7.940   3.089   8.867 -0.4381 -1.1197  0.6503
20992SOL    HW268107   7.841   3.061   8.756  0.2354  0.2610 -0.3115
20993SOL     OW68108   4.256   2.190   4.244  0.2137  0.3702 -0.2954
20993SOL    HW168109   4.300   2.156   4.321  0.4749 -0.3959 -0.7793
20993SOL    HW268110   4.163   2.174   4.260  0.3329 -0.5590 -0.5128
20994SOL     OW68111   0.797   9.428   8.112 -0.2112  0.2559  0.4765
20994SOL    HW168112   0.870   9.411   8.171  0.1405 -0.1595 -0.0756
20994SOL    HW268113   0.761   9.512   8.141 -0.5256 -0.3169  1.7651
20995SOL     OW68114   8.901   0.513   4.537  0.6200 -0.4645 -0.2897
20995SOL    HW168115   8.981   0.548   4.575 -0.8805 -1.1894  3.8472
20995SOL    HW268116   8.907   0.418   4.550 -0.4695 -0.6318 -0.8730
20996SOL     OW68117  10.760   2.466   4.800  0.1934 -0.3076 -0.2028
20996SOL    HW168118  10.795   2.497   4.883  0.2587 -2.9568  0.8179
20996SOL    HW268119  10.833   2.475   4.738  0.9597 -0.6854  0.6350
20997SOL     OW68120   9.576  10.916  10.851 -0.0017  0.4254  0.2884
20997SOL    HW168121   9.601  10.878  10.767 -0.7815  1.2649 -0.3446
20997SOL    HW268122   9.584  11.011  10.838 -0.8326  0.5957  0.9162
20998SOL     OW68123   3.962   0.323   1.619 -0.3799 -0.5877 -0.2328
20998SOL    HW168124   3.869   0.312   1.642 -0.0913  0.4340  1.5084
20998SOL    HW268125   3.997   0.378   1.688  1.8780 -2.1004 -0.1249
20999SOL     OW68126  10.410   2.341   8.546  0.3583 -0.2054  0.5826
20999SOL    HW168127  10.421   2.409   8.613 -0.0611 -0.3835  0.8320
20999SOL    HW268128  10.482   2.280   8.561  1.2272  0.6135 -0.1641
21000SOL     OW68129   0.394   9.741  10.684  0.1335 -0.1930  0.4995
21000SOL    HW168130   0.456   9.679  10.722 -0.9897 -0.8486  1.2839
21000SOL    HW268131   0.345   9.776  10.759 -1.5389 -0.8868 -0.2365
21001SOL     OW68132   9.698   3.672   7.817  0.2095 -0.1364  0.0767
21001SOL    HW168133   9.614   3.678   7.773  0.4487 -1.2510 -0.5479
21001SOL    HW268134   9.711   3.579   7.833  1.5331 -0.0262 -0.2486
21002SOL     OW68135   1.457   7.586   8.946 -0.0465  0.2513  0.2881
21002SOL    HW168136   1.362   7.576   8.938 -0.1099  0.5531  0.6657
21002SOL    HW268137   1.473   7.680   8.933  0.1988  0.2054  0.2462
21003SOL     OW68138   2.199   7.246   5.498 -0.2948  0.1426 -0.5015
21003SOL    HW168139   2.211   7.294   5.416  0.1604 -0.3891 -0.7484
21003SOL    HW268140   2.288   7.230   5.530 -0.4328 -0.7515 -0.5471
21004SOL     OW68141  10.855   5.000   6.531  0.4398 -0.0179  0.6075
21004SOL    HW168142  10.786   5.024   6.593 -0.5653  2.2187 -1.2831
21004SOL    HW268143  10.922   5.067   6.542  0.9197 -0.4506  0.3106
21005SOL     OW68144   7.399   5.363   2.411 -0.0600  0.3058 -0.6917
21005SOL    HW168145   7.400   5.398   2.500 -1.5722 -3.3318  0.8648
21005SOL    HW268146   7.309   5.335   2.397  0.5154 -0.5992 -2.7961
21006SOL     OW68147   8.669   6.136   7.840 -0.0669 -0.3901 -0.4251
21006SOL    HW168148   8.720   6.190   7.780 -2.2294  1.8031 -0.3435
21006SOL    HW268149   8.733   6.108   7.907  1.1699  1.7765 -0.6670
21007SOL     OW68150   4.200   1.459   9.265 -0.1545  0.2127 -0.0411
21007SOL    HW168151   4.209   1.524   9.334 -0.6509 -1.5953  1.7772
21007SOL    HW268152   4.272   1.398   9.280  0.8730  0.8073 -2.2954
21008SOL     OW68153   1.026   2.250   9.150  0.0242 -0.0759 -0.0557
21008SOL    HW168154   1.058   2.162   9.135  0.3618 -0.5175  2.9688
21008SOL    HW268155   1.081   2.285   9.220 -0.8440  2.1132 -0.4017
21009SOL     OW68156  11.005   4.099   2.248  0.5410 -0.3948  0.2534
21009SOL    HW168157  11.027   4.011   2.215  1.0712  0.0761 -0.6748
21009SOL    HW268158  10.922   4.087   2.293 -1.0771 -0.7479 -2.7245
21010SOL     OW68159   0.312   6.515   0.541  0.3111  0.3030  0.2920
21010SOL    HW168160   0.295   6.598   0.497  0.9347 -0.0981 -0.7087
21010SOL    HW268161   0.376   6.471   0.486 -0.4385 -1.0994  0.5131
21011SOL     OW68162   5.190   1.375   1.901 -0.2892  0.2226  0.0808
21011SOL    HW168163   5.114   1.413   1.857  0.2159  0.8023 -0.3007
21011SOL    HW268164   5.179   1.399   1.993 -1.1599 -0.6794  0.2183
21012SOL     OW68165   3.922   6.916   2.920  0.0939  0.3869 -0.2129
21012SOL    HW168166   3.882   6.852   2.861 -0.0497  0.3362 -0.0582
21012SOL    HW268167   3.904   7.000   2.879 -1.4379  0.4677  0.6263
21013SOL     OW68168   4.960   9.988   0.744 -0.5264 -0.2354  0.7086
21013SOL    HW168169   4.906   9.948   0.677  1.3723 -1.1280 -0.3513
21013SOL    HW268170   4.932   9.946   0.826 -1.6240 -0.4467  0.2308
21014SOL     OW68171   1.807   4.048   1.816 -0.2981 -0.2985 -0.1115
21014SOL    HW168172   1.851   4.064   1.732 -0.2286  0.0760 -0.0063
21014SOL    HW268173   1.792   3.954   1.818 -0.8475 -0.2295 -0.8192
21015SOL     OW68174  11.062  10.930   1.150 -0.2470 -0.2517  0.4011
21015SOL    HW168175  11.042  10.874   1.225  2.7190 -0.6892  0.9118
21015SOL    HW268176  11.142  10.976   1.174  0.2532  0.2920 -2.1393
21016SOL     OW68177   9.675   7.940   8.702  0.0611  0.0524 -0.3089
21016SOL    HW168178   9.627   7.905   8.627  2.1821  1.2474 -2.2777
21016SOL    HW268179   9.730   7.867   8.731  0.4128  0.0653 -0.9351
21017SOL     OW68180   6.807   8.432   8.404 -0.2536 -0.2893  0.1639
21017SOL    HW168181   6.862   8.385   8.467  0.6454 -0.3808 -0.6807
21017SOL    HW268182   6.809   8.523   8.435 -0.8469 -0.5488  0.9853
21018SOL     OW68183   3.127   5.695   0.611  0.4521  0.2566  0.0752
21018SOL    HW168184   3.201   5.741   0.651  0.1676 -0.5767  1.5898
21018SOL    HW268185   3.049   5.737   0.649  0.1898 -1.1906  1.1864
21019SOL     OW68186   1.151   6.093   7.468  0.2291  0.0310  0.2494
21019SOL    HW168187   1.126   6.027   7.404 -0.9186  0.3110  0.3989
21019SOL    HW268188   1.194   6.161   7.417  1.2861 -0.7628  0.0775
21020SOL     OW68189   3.970   8.663   0.311 -0.3933  0.1120  0.1010
21020SOL    HW168190   3.947   8.620   0.229  0.3451 -0.0903 -0.0008
21020SOL    HW268191   4.019   8.597   0.360 -0.4822  0.3662  0.5394
21021SOL     OW68192   8.333   2.071   5.141 -0.3192  0.2227 -0.0199
21021SOL    HW168193   8.262   2.022   5.182 -0.6651  0.7727  0.0457
21021SOL    HW268194   8.370   2.011   5.077 -1.0029  0.0155 -0.2241
21022SOL     OW68195   1.316   2.141  10.583 -0.4629 -0.1411  0.2145
21022SOL    HW168196   1.237   2.189  10.608 -0.9592 -0.5372 -0.5739
21022SOL    HW268197   1.316   2.142  10.488 -0.1560 -1.1946  0.1942
21023SOL     OW68198   1.068   8.482  11.013 -0.2078  0.8186 -0.1397
21023SOL    HW168199   1.126   8.432  10.956  1.0694 -0.4614  2.2253
21023SOL    HW268200   1.008   8.527  10.953  3.5904  2.7058 -2.7096
21024SOL     OW68201   3.859   5.558   5.303 -0.4064  0.6082 -0.2759
21024SOL    HW168202   3.789   5.613   5.338  1.6353  3.3738 -0.3779
21024SOL    HW268203   3.931   5.618   5.285  2.4291 -2.2775  0.8118
21025SOL     OW68204   5.568   5.440   3.227  1.2815 -0.1467  0.2176
21025SOL    HW168205   5.531   5.438   3.315  2.1106  0.1229  0.5728
21025SOL    HW268206   5.653   5.396   3.235  1.3474 -0.1507 -0.4523
21026SOL     OW68207   8.610   0.099  10.184  0.0276  0.1610  0.2371
21026SOL    HW168208   8.575   0.062  10.103 -0.8094  0.9113  0.2491
21026SOL    HW268209   8.637   0.188  10.161 -0.3308  0.4231  0.8091
21027SOL     OW68210   5.961   2.357  10.111  0.6657  0.5306 -0.3293
21027SOL    HW168211   5.886   2.406  10.143  0.7593  1.3699 -1.3584
21027SOL    HW268212   6.030   2.373  10.176  0.1552  0.2760  0.2820
21028SOL     OW68213   4.013   4.954   4.294  0.0861 -0.0488  0.3774
21028SOL    HW168214   4.090   5.010   4.308  0.7215 -0.6657 -0.5896
21028SOL    HW268215   4.044   4.866   4.313 -0.4167 -0.2853  0.1017
21029SOL     OW68216   2.353   1.092   4.276  0.8683 -0.0762 -0.1434
21029SOL    HW168217   2.321   1.002   4.270 -0.1840  0.4224 -2.8050
21029SOL    HW268218   2.369   1.106   4.369 -0.1715 -2.5847  0.4560
21030SOL     OW68219  10.803   4.272   9.530  0.2010  0.2360  0.7407
21030SOL    HW168220  10.825   4.186   9.566  0.9737  0.7547  1.5251
21030SOL    HW268221  10.775   4.254   9.440  1.8009 -0.6804  0.4031
21031SOL     OW68222   5.331   9.298   4.028  0.6862 -0.5189  0.2467
21031SOL    HW168223   5.308   9.379   4.074 -0.2210 -2.6475  3.7405
21031SOL    HW268224   5.426   9.298   4.024  0.6777  1.0090 -0.4227
21032SOL     OW68225   9.352   2.728   2.629  0.4035  0.3209  0.4516
21032SOL    HW168226   9.277   2.740   2.571  0.5490  0.3774  0.2747
21032SOL    HW268227   9.349   2.636   2.654 -0.3989  0.5857  1.3728
21033SOL     OW68228   8.200   7.603   5.648  0.0529 -0.2436 -0.2468
21033SOL    HW168229   8.165   7.550   5.720  0.3131 -1.8312 -1.2524
21033SOL    HW268230   8.291   7.620   5.673 -0.3080  0.5848  0.5428
21034SOL     OW68231   0.616   9.797   6.610 -0.3451 -0.1554 -0.2788
21034SOL    HW168232   0.660   9.761   6.687 -1.0191 -1.2494 -0.3985
21034SOL    HW268233   0.678   9.785   6.538 -0.6819 -1.3827 -0.3780
21035SOL     OW68234   8.150   8.952   3.680 -0.2342  0.4378  0.1283
21035SOL    HW168235   8.141   8.888   3.609  1.0420  0.7501 -0.3234
21035SOL    HW268236   8.168   9.035   3.635 -1.8725  1.1256  0.7082
21036SOL     OW68237   4.779   5.480   0.850  0.2685 -0.3548 -0.5651
21036SOL    HW168238   4.808   5.534   0.924 -1.4319 -0.1436 -0.0200
21036SOL    HW268239   4.801   5.391   0.875 -1.6819 -0.4745  0.9538
21037SOL     OW68240   4.094   2.877   4.955  0.1952  0.7781 -0.4366
21037SOL    HW168241   4.127   2.898   5.043 -1.5382  0.2905  0.3495
21037SOL    HW268242   4.072   2.784   4.959 -1.2217  1.0848 -0.9551
21038SOL     OW68243   9.608  10.224   8.767 -0.2441 -0.3383  0.3649
21038SOL    HW168244   9.691  10.235   8.722 -1.0343  0.6706 -0.8716
21038SOL    HW268245   9.616  10.277   8.847 -1.4096  3.7114 -2.0786
21039SOL     OW68246   8.282   7.246   1.284 -0.0682 -0.5827 -0.0345
21039SOL    HW168247   8.330   7.214   1.360 -0.3449  0.3484  0.5308
21039SOL    HW268248   8.346   7.242   1.212  0.3821 -0.8258  0.3776
21040SOL     OW68249  10.624   5.994   7.392 -0.3774 -0.0731  0.2441
21040SOL    HW168250  10.689   5.925   7.403 -0.4276  0.1339  1.9781
21040SOL    HW268251  10.653   6.064   7.450 -2.3014 -0.1005  1.2805
21041SOL     OW68252   2.800   1.041  10.860  0.4622 -0.2745  0.5887
21041SOL    HW168253   2.811   1.131  10.889  1.6568 -0.7999  1.8309
21041SOL    HW268254   2.706   1.030  10.848  0.3689  1.3584 -0.3176
21042SOL     OW68255   7.255   0.923   7.165 -0.5673  0.0900  0.2610
21042SOL    HW168256   7.280   0.934   7.074 -0.2238  0.0726  0.3536
21042SOL    HW268257   7.189   0.990   7.180 -0.6868  0.0387 -0.0227
21043SOL     OW68258  10.740   5.737   2.539  0.5941  0.0045 -0.9424
21043SOL    HW168259  10.743   5.716   2.446 -1.8225 -1.2526 -0.7715
21043SOL    HW268260  10.744   5.832   2.542 -2.1467  0.2231 -2.5226
21044SOL     OW68261   2.920   9.061   8.106  0.1936  0.3512 -0.2595
21044SOL    HW168262   3.007   9.022   8.118  0.3138  0.4172 -0.9312
21044SOL    HW268263   2.935   9.155   8.119  0.1375  0.3145  0.0743
21045SOL     OW68264   7.982   5.277   2.117 -0.3912 -0.0028 -0.3102
21045SOL    HW168265   7.945   5.316   2.037 -2.3376  0.4773  0.7889
21045SOL    HW268266   7.960   5.184   2.109  0.7743 -0.2210 -1.0556
21046SOL     OW68267   3.855   6.187   0.459 -0.7990 -0.4168  0.0546
21046SOL    HW168268   3.916   6.260   0.464 -0.0827 -1.0218  0.2228
21046SOL    HW268269   3.850   6.166   0.365 -2.3780  0.9826 -0.2045
21047SOL     OW68270   6.174   6.947   5.302 -0.2857  0.2398 -0.0557
21047SOL    HW168271   6.228   6.891   5.247 -0.1258  0.1080  0.2349
21047SOL    HW268272   6.089   6.903   5.306 -1.1607  1.5772 -2.3859
21048SOL     OW68273   7.943   6.907   3.065  0.1367 -0.0177  0.5700
21048SOL    HW168274   7.892   6.988   3.062  0.5174  0.2811  1.8231
21048SOL    HW268275   7.878   6.838   3.079 -0.1805  0.0649 -0.4335
21049SOL     OW68276   0.319   9.798   6.198 -0.4363  0.1966  0.1420
21049SOL    HW168277   0.328   9.888   6.227  0.5972 -0.4222  1.7808
21049SOL    HW268278   0.268   9.804   6.117 -0.1568  2.2575  0.1002
21050SOL     OW68279   3.414   9.627   2.500 -0.2465 -0.1215  0.1131
21050SOL    HW168280   3.431   9.718   2.521 -1.5037  0.1909 -0.1753
21050SOL    HW268281   3.498   9.583   2.511 -0.2008  0.5628  2.9147
21051SOL     OW68282   4.397   4.512   8.222  0.0825  0.7273  0.1948
21051SOL    HW168283   4.404   4.525   8.317  1.6371 -1.4484  0.4158
21051SOL    HW268284   4.347   4.431   8.213 -0.5414  1.2198 -0.8837
21052SOL     OW68285   2.252   2.211   4.939 -0.0397 -0.1910  0.4584
21052SOL    HW168286   2.255   2.213   5.035  0.4217 -0.1135  0.4437
21052SOL    HW268287   2.158   2.215   4.918 -0.1661 -0.7034  0.9167
21053SOL     OW68288  10.914   5.213   7.509 -0.3158 -0.3123 -0.5439
21053SOL    HW168289  10.864   5.147   7.460 -1.2581 -0.9538  1.2475
21053SOL    HW268290  10.964   5.162   7.573 -1.2801  0.7423  1.0545
21054SOL     OW68291   6.103   2.048   1.640  0.0506  0.0037  0.2478
21054SOL    HW168292   6.150   2.060   1.723  0.7056 -0.4260 -0.0610
21054SOL    HW268293   6.114   1.955   1.620  1.7002  0.5342 -1.4128
21055SOL     OW68294   0.151   4.688   6.804 -0.5659  0.3673 -0.2453
21055SOL    HW168295   0.233   4.646   6.776 -0.2496  0.1980  0.9020
21055SOL    HW268296   0.119   4.632   6.875 -1.6427  0.4749 -0.6398
21056SOL     OW68297   8.558   1.971   8.800 -0.2663  0.2982 -0.6717
21056SOL    HW168298   8.557   2.052   8.851 -0.5493  0.1677 -0.4740
21056SOL    HW268299   8.470   1.936   8.807 -0.1586 -0.0085 -0.7940
21057SOL     OW68300   0.696   8.663   4.140  0.2299  0.2199 -0.0729
21057SOL    HW168301   0.608   8.629   4.123  1.3000 -1.1570 -3.1415
21057SOL    HW268302   0.734   8.602   4.203 -0.4454 -0.0173  0.1125
21058SOL     OW68303   7.102   0.989   8.130 -0.1063 -0.0990  0.0319
21058SOL    HW168304   7.087   0.954   8.217  0.7990  0.1206  0.2766
21058SOL    HW268305   7.115   0.912   8.074  0.5622 -0.2002  0.3257
21059SOL     OW68306   3.317   9.339  10.819 -0.5092  0.1228  0.0005
21059SOL    HW168307   3.290   9.431  10.808 -0.5790  0.0928 -0.0740
21059SOL    HW268308   3.252   9.289  10.770 -0.9369 -0.0267  0.7193
21060SOL     OW68309   1.631   5.167   8.217  0.3163  0.8004  0.0781
21060SOL    HW168310   1.536   5.167   8.225  0.3410  1.5574  0.4636
21060SOL    HW268311   1.653   5.258   8.195  0.8609  0.3939 -1.0892
21061SOL     OW68312   0.482   5.140   5.524  0.2867  0.0937 -0.5158
21061SOL    HW168313   0.393   5.176   5.521 -0.1492 -0.8256  0.8575
21061SOL    HW268314   0.477   5.060   5.471  0.6834  0.8367 -1.6862
21062SOL     OW68315   4.150   2.397   6.754 -0.4064  0.5102 -0.3934
21062SOL    HW168316   4.117   2.322   6.803 -0.4237 -0.4030 -1.7689
21062SOL    HW268317   4.218   2.435   6.811 -1.6666  0.5754  1.1035
21063SOL     OW68318   1.759   7.731   7.642  0.1408  0.2078 -0.0372
21063SOL    HW168319   1.685   7.672   7.629  1.1021 -0.6791 -1.5669
21063SOL    HW268320   1.836   7.675   7.637  1.0558  1.5355 -1.1568
21064SOL     OW68321   4.291   8.043  11.310  0.2177 -0.2139  0.3063
21064SOL    HW168322   4.289   8.129  11.267  1.8652 -0.2794  0.0665
21064SOL    HW268323   4.345   7.989  11.253  2.5862 -0.2676  2.4867
21065SOL     OW68324   8.080   2.892   5.613  0.1595  0.2629  0.4920
21065SOL    HW168325   8.097   2.809   5.658  2.2788  0.0505 -0.6420
21065SOL    HW268326   7.998   2.877   5.566  1.3145 -1.7430 -0.9596
21066SOL     OW68327  10.163   9.262   4.857 -0.4227 -0.6152 -0.4991
21066SOL    HW168328  10.117   9.319   4.796  0.6434  0.0930 -0.6693
21066SOL    HW268329  10.205   9.196   4.802  1.1128  0.4328 -0.6221
21067SOL     OW68330  10.611   9.883   1.064 -0.0025  0.2035  0.2756
21067SOL    HW168331  10.653   9.819   1.122 -0.5543  0.2413  0.7222
21067SOL    HW268332  10.517   9.872   1.081 -0.3817 -1.7916 -2.7100
21068SOL     OW68333   4.969   1.511   9.533  0.0128 -0.2714  0.4100
21068SOL    HW168334   5.017   1.518   9.450 -1.3699 -1.7005 -0.5486
21068SOL    HW268335   5.036   1.491   9.598  0.8154 -1.5382 -0.7852
21069SOL     OW68336  10.016   2.166   2.621  0.2299  0.1226  0.1592
21069SOL    HW168337   9.951   2.209   2.566 -0.7484  0.3977  1.5225
21069SOL    HW268338  10.067   2.237   2.659  0.2359 -0.0317  0.4366
21070SOL     OW68339  10.227  10.435   9.719 -0.0706 -0.2319 -0.3567
21070SOL    HW168340  10.144  10.468   9.754  0.2333  1.4710 -1.1403
21070SOL    HW268341  10.201  10.372   9.652 -0.6993 -0.9349  0.5397
21071SOL     OW68342   0.611   7.698   2.808  0.5602  0.6874 -0.3794
21071SOL    HW168343   0.613   7.619   2.755  0.4379  0.4416 -0.0212
21071SOL    HW268344   0.521   7.702   2.843  1.2585 -0.3689  1.6160
21072SOL     OW68345   4.178   2.098   2.958 -0.0783  0.2403  0.6389
21072SOL    HW168346   4.132   2.180   2.976  0.9653  1.6192 -2.4823
21072SOL    HW268347   4.108   2.035   2.940 -0.9269  1.9312 -2.5140
21073SOL     OW68348   8.930  10.871  10.729  0.1732  0.4273  0.5258
21073SOL    HW168349   8.862  10.935  10.752  0.5234  0.9318  0.1677
21073SOL    HW268350   8.890  10.786  10.748 -1.5974  0.5634 -2.3100
21074SOL     OW68351   6.951   4.871   7.689 -0.0035 -0.4336 -0.1356
21074SOL    HW168352   6.918   4.959   7.669  1.7490 -0.0631 -1.4597
21074SOL    HW268353   6.953   4.869   7.785  1.1307  1.4357 -0.0855
21075SOL     OW68354   7.782   2.678   1.884 -0.7812  1.0414  0.1390
21075SOL    HW168355   7.861   2.714   1.844 -3.0460  2.2248 -3.5071
21075SOL    HW268356   7.814   2.614   1.947  3.0454 -0.0591 -2.7509
21076SOL     OW68357   6.324  10.954   4.846 -0.1348 -0.8055  0.7268
21076SOL    HW168358   6.413  10.981   4.868 -0.6326 -0.0726  1.8929
21076SOL    HW268359   6.292  10.911   4.926 -1.0241 -0.5743  0.4971
21077SOL     OW68360   1.346   3.270   6.104  0.4887  0.5231 -0.3925
21077SOL    HW168361   1.415   3.248   6.042  1.7156  0.9823  0.7895
21077SOL    HW268362   1.389   3.323   6.171 -1.2148  1.6848 -0.1649
21078SOL     OW68363   6.302   6.957   3.623  0.3733  0.1293  0.1683
21078SOL    HW168364   6.238   7.012   3.579 -0.7550 -0.2118  1.3337
21078SOL    HW268365   6.315   6.882   3.564 -0.2392  0.2451 -0.1142
21079SOL     OW68366   9.511   1.584   5.402  0.0626 -0.2235 -0.0482
21079SOL    HW168367   9.450   1.567   5.330  0.1976  0.5507 -0.3524
21079SOL    HW268368   9.463   1.642   5.461  0.4634  0.3092 -0.2396
21080SOL     OW68369   1.966   0.101   7.886 -0.3283 -0.2769 -0.1820
21080SOL    HW168370   2.002   0.049   7.814  1.1180 -0.0974  0.4159
21080SOL    HW268371   1.959   0.189   7.850  0.1089 -0.2501 -0.2030
21081SOL     OW68372   6.886   3.616   7.500  0.2265  0.0633  0.1356
21081SOL    HW168373   6.971   3.571   7.505  0.1116 -0.2340 -0.5029
21081SOL    HW268374   6.908   3.709   7.496  0.6188 -0.1124 -2.2505
21082SOL     OW68375   9.923   3.171   4.805  0.2184 -0.1123  0.3524
21082SOL    HW168376   9.929   3.266   4.804  1.1362 -0.1512  1.4889
21082SOL    HW268377   9.849   3.152   4.862 -3.0284  0.0048 -3.5451
21083SOL     OW68378  10.090   7.259   4.117  0.2293  0.1478 -0.5193
21083SOL    HW168379  10.120   7.292   4.033  1.4129  0.0810 -0.1242
21083SOL    HW268380  10.169   7.248   4.169 -0.2670 -1.9016 -0.1343
21084SOL     OW68381   0.349   4.318   7.618  0.0964  0.0154  0.1676
21084SOL    HW168382   0.360   4.400   7.666 -0.4516 -0.0623  0.4349
21084SOL    HW268383   0.418   4.319   7.551 -0.5215  1.1469 -0.4596
21085SOL     OW68384   3.755   0.694   3.202  0.5393 -0.4300 -0.5310
21085SOL    HW168385   3.719   0.733   3.281 -0.4712 -0.5296 -0.9418
21085SOL    HW268386   3.705   0.732   3.130  1.7634  0.0105 -1.1673
21086SOL     OW68387   7.545   0.026   0.456  0.0614 -0.2420  0.6009
21086SOL    HW168388   7.531   0.078   0.376  1.2660  0.9019  1.1163
21086SOL    HW268389   7.570  -0.060   0.424  2.5217  0.7728 -0.2783
21087SOL     OW68390  10.708   5.620   1.602 -0.1965  0.3225 -0.4301
21087SOL    HW168391  10.751   5.552   1.551 -0.8400  0.0370 -0.5925
21087SOL    HW268392  10.618   5.590   1.611  0.2545 -0.3638  2.1579
21088SOL     OW68393   5.894   2.244   6.299 -0.0052  0.2813 -0.3113
21088SOL    HW168394   5.974   2.287   6.268  0.1563  0.8958  0.9043
21088SOL    HW268395   5.835   2.246   6.224  0.6212  1.0920 -0.7968
21089SOL     OW68396   3.800   1.732  10.956  0.8829 -0.0253  0.6424
21089SOL    HW168397   3.825   1.741  10.864 -1.6757 -1.2835 -0.2156
21089SOL    HW268398   3.710   1.762  10.960  1.2479  0.8644  2.9314
21090SOL     OW68399   6.131   4.391   0.086 -0.2016 -0.2227  0.1272
21090SOL    HW168400   6.156   4.309   0.129  1.3119 -0.4924 -1.2287
21090SOL    HW268401   6.170   4.386  -0.001  0.7690  2.3571  0.3617
21091SOL     OW68402  11.006   3.825   2.206  0.3634 -0.1473  0.4754
21091SOL    HW168403  10.916   3.808   2.179  0.5439  0.9587 -0.8608
21091SOL    HW268404  11.031   3.747   2.256 -0.7852 -1.1744 -0.5229
21092SOL     OW68405   2.987   5.992   9.716  0.1208  0.3511  0.1789
21092SOL    HW168406   3.017   6.072   9.673  1.3213  0.9666  2.0635
21092SOL    HW268407   2.923   6.023   9.781 -0.0301 -0.3109  0.3499
21093SOL     OW68408   6.355   4.277   7.486 -0.2252  0.3558 -0.3589
21093SOL    HW168409   6.293   4.331   7.535 -0.3144 -0.0694  0.0043
21093SOL    HW268410   6.300   4.225   7.427  0.0381  2.4448 -2.4909
21094SOL     OW68411   3.307   2.932   0.916  0.2135  0.5417  0.1254
21094SOL    HW168412   3.223   2.978   0.922 -0.7791 -1.0049 -1.4013
21094SOL    HW268413   3.284   2.840   0.927  1.9703  0.2428  1.5049
21095SOL     OW68414   9.660  11.312  10.439 -0.3128 -0.0500 -0.8112
21095SOL    HW168415   9.671  11.327  10.345 -0.0308 -0.2623 -0.8119
21095SOL    HW268416   9.699  11.389  10.481  0.0598 -0.2179 -0.8520
21096SOL     OW68417   5.068   4.044  10.472  0.4512 -0.5111 -0.1942
21096SOL    HW168418   5.116   4.015  10.549  0.9492  0.9591  0.0668
21096SOL    HW268419   5.007   4.111  10.504  1.9438  1.4536 -1.2999
21097SOL     OW68420   3.664   5.535   1.452  0.1363 -0.9755 -0.6751
21097SOL    HW168421   3.587   5.558   1.503 -0.2857 -2.3891 -0.6644
21097SOL    HW268422   3.731   5.598   1.480  0.3821 -2.6962  2.7772
21098SOL     OW68423   2.610  10.211   8.162 -0.0872 -0.1349 -0.1260
21098SOL    HW168424   2.680  10.160   8.201  0.0462 -0.1177 -0.3401
21098SOL    HW268425   2.611  10.294   8.210 -1.1159 -0.7957  1.0618
21099SOL     OW68426   2.833   2.678   1.903 -0.2840  0.5389  0.5063
21099SOL    HW168427   2.878   2.630   1.972  0.0492  2.0101  1.3506
21099SOL    HW268428   2.772   2.735   1.951  0.4859  2.1246 -0.3687
21100SOL     OW68429   5.062   3.091   4.360  0.2756  0.3003  0.4825
21100SOL    HW168430   5.110   3.075   4.279  1.5283  0.8872  1.1002
21100SOL    HW268431   5.004   3.016   4.369  0.1244  0.2329 -0.9534
21101SOL     OW68432   6.860   6.711   9.168 -0.5006  0.0014  0.0828
21101SOL    HW168433   6.862   6.631   9.221 -0.2707  0.1867  0.3565
21101SOL    HW268434   6.774   6.749   9.185 -2.1308 -2.1060 -2.9165
21102SOL     OW68435   0.146   8.807   5.943  0.0202 -0.0965  0.2495
21102SOL    HW168436   0.225   8.778   5.897  1.2905 -0.0208  2.3383
21102SOL    HW268437   0.148   8.902   5.937  1.2788  0.0305  2.1545
21103SOL     OW68438   1.896   8.407   2.848 -0.4298 -0.4968  0.2893
21103SOL    HW168439   1.873   8.343   2.916 -1.2892 -0.5362 -0.0450
21103SOL    HW268440   1.916   8.487   2.897 -0.0054 -0.8234  0.6615
21104SOL     OW68441   0.029   4.127  11.236 -0.1847  0.6707  0.1107
21104SOL    HW168442   0.017   4.151  11.144 -0.7188  0.0764  0.0196
21104SOL    HW268443  -0.059   4.107  11.267  0.0065  0.7929  0.7273
21105SOL     OW68444   2.661   2.618  10.235  0.2457 -0.9254  0.0383
21105SOL    HW168445   2.673   2.696  10.180 -0.6828  0.4966  1.7842
21105SOL    HW268446   2.660   2.545  10.173 -0.3403  0.5861 -1.7951
21106SOL     OW68447   9.719   2.993   3.113 -0.2074  0.0475  0.3253
21106SOL    HW168448   9.800   3.045   3.112 -1.5723  2.2035 -0.0867
21106SOL    HW268449   9.719   2.952   3.199  0.5143  1.3373  0.9575
21107SOL     OW68450   8.920   3.866   3.874  0.0644  0.1448  0.0635
21107SOL    HW168451   8.896   3.830   3.789  0.3334 -0.7889  0.3815
21107SOL    HW268452   8.892   3.800   3.938 -0.0598  0.7970  0.6942
21108SOL     OW68453  10.245  10.809   9.528 -0.3076 -0.7433  0.0324
21108SOL    HW168454  10.253  10.841   9.618 -1.1970 -0.0166 -0.1404
21108SOL    HW268455  10.299  10.730   9.526  2.9176  1.3782  0.1437
21109SOL     OW68456   6.613  10.411   5.849 -0.2372  0.3450 -0.2905
21109SOL    HW168457   6.548  10.344   5.830  0.7228 -0.5980 -0.2716
21109SOL    HW268458   6.566  10.494   5.834 -1.7211 -0.2968  0.6912
21110SOL     OW68459   1.329   8.202   8.027  0.0957  0.5826 -0.2631
21110SOL    HW168460   1.235   8.184   8.029  0.4882 -2.0586 -2.4883
21110SOL    HW268461   1.362   8.162   8.107 -0.1363 -2.1422 -1.4802
21111SOL     OW68462   3.742   6.680   0.620 -0.2302  0.1002 -0.2216
21111SOL    HW168463   3.659   6.655   0.660 -0.2236 -1.0544 -0.8981
21111SOL    HW268464   3.788   6.727   0.689 -0.7356 -0.7602  0.7274
21112SOL     OW68465   4.680   4.727   5.158  0.3126  0.5235 -0.2393
21112SOL    HW168466   4.760   4.764   5.196  0.0533  1.6813 -0.7909
21112SOL    HW268467   4.711   4.655   5.103  0.9626  0.8256 -0.2830
21113SOL     OW68468  11.190   3.866   9.842 -0.3821  0.7854 -0.3276
21113SOL    HW168469  11.257   3.885   9.907  0.6368 -0.0005 -1.1197
21113SOL    HW268470  11.187   3.943   9.786 -1.6643  1.6965  0.9695
21114SOL     OW68471   6.237   1.933  10.088  0.3207 -0.1975  0.4759
21114SOL    HW168472   6.272   1.854  10.046  0.4366 -1.3788  2.7092
21114SOL    HW268473   6.143   1.931  10.068  0.4855 -0.3646 -0.2938
21115SOL     OW68474  10.551   9.988   1.717 -0.1537  0.4332 -0.3080
21115SOL    HW168475  10.578   9.927   1.786  2.3880 -0.2572 -1.8808
21115SOL    HW268476  10.523   9.932   1.645 -2.2400  1.1598 -0.1022
21116SOL     OW68477   0.815   6.058   2.947 -0.1811  0.3033 -0.1328
21116SOL    HW168478   0.903   6.071   2.912  0.8653  0.0583  2.2902
21116SOL    HW268479   0.767   6.016   2.876  1.6239  0.5606 -1.5414
21117SOL     OW68480   1.840   9.350   7.990 -0.0232  0.1189 -0.1852
21117SOL    HW168481   1.884   9.409   7.928 -2.2871  0.7853 -1.2382
21117SOL    HW268482   1.830   9.268   7.942  0.4437 -0.1562  0.1930
21118SOL     OW68483   0.894   3.738   1.672 -0.1101  0.7060 -0.0728
21118SOL    HW168484   0.875   3.658   1.624  0.1700  1.9244 -2.3203
21118SOL    HW268485   0.985   3.727   1.702 -0.7076 -0.5897  1.2833
21119SOL     OW68486  10.887   6.502   8.329  0.0402  0.5945  0.4470
21119SOL    HW168487  10.797   6.498   8.363 -1.1093  0.5996 -2.4267
21119SOL    HW268488  10.905   6.413   8.299  0.7185  0.7809  0.3060
21120SOL     OW68489  10.634   2.810   7.954 -0.2685 -0.3619 -0.0330
21120SOL    HW168490  10.676   2.739   8.002  0.7747  0.5523  0.4130
21120SOL    HW268491  10.703   2.848   7.901 -1.2452 -0.8717 -1.7166
21121SOL     OW68492   1.189   2.356   8.343  0.1803  0.6152 -0.0635
21121SOL    HW168493   1.160   2.446   8.358 -0.9907  0.1486  0.4851
21121SOL    HW268494   1.202   2.352   8.248 -1.3590  0.8863 -0.2920
21122SOL     OW68495   0.466   7.149   6.288  0.5312 -0.8475 -0.3152
21122SOL    HW168496   0.516   7.099   6.352 -0.2900  0.3871  1.3496
21122SOL    HW268497   0.520   7.227   6.272 -0.2681 -0.1000  0.5617
21123SOL     OW68498   4.470   6.507   1.917  0.2286  0.1472 -0.4655
21123SOL    HW168499   4.398   6.514   1.855  0.9015 -0.8967 -1.3631
21123SOL    HW268500   4.458   6.582   1.976 -1.1206  0.4295 -1.0903
21124SOL     OW68501   8.248   3.050   7.901 -0.0779  0.1579  0.3287
21124SOL    HW168502   8.261   3.036   7.994  1.9692 -2.1168 -0.2392
21124SOL    HW268503   8.171   2.998   7.879  0.6475 -0.9404  0.3788
21125SOL     OW68504  10.894   9.365  10.626  0.0379  0.0471 -0.3506
21125SOL    HW168505  10.983   9.355  10.595 -0.3521  1.6132 -2.1112
21125SOL    HW268506  10.841   9.312  10.566 -0.5393  1.7802 -1.4373
21126SOL     OW68507   0.218   8.618   9.561 -0.6910 -0.8816  0.3695
21126SOL    HW168508   0.206   8.531   9.523 -0.9078 -0.8639  0.3993
21126SOL    HW268509   0.245   8.601   9.651 -0.6454 -0.9198  0.3503
21127SOL     OW68510   6.880   7.913  10.575 -0.6534  0.2038  0.0919
21127SOL    HW168511   6.846   7.824  10.566 -0.5355  0.0869  0.7342
21127SOL    HW268512   6.826   7.953  10.643 -0.8254  0.6860 -0.3251
21128SOL     OW68513   5.643   3.837   0.979  0.4322 -0.0852  0.3008
21128SOL    HW168514   5.559   3.860   0.938  0.0368 -1.7548  0.1068
21128SOL    HW268515   5.624   3.832   1.072 -0.0832 -1.9473  0.1239
21129SOL     OW68516   8.026  10.684   6.438 -0.0562 -0.1590 -0.3947
21129SOL    HW168517   7.995  10.722   6.521  2.2452 -0.6718  0.7417
21129SOL    HW268518   7.973  10.605   6.427 -3.3215  2.1014 -1.6249
21130SOL     OW68519   1.514   2.662   3.908  0.5709 -0.3708  0.0067
21130SOL    HW168520   1.591   2.619   3.872  1.1219  0.8827 -0.3233
21130SOL    HW268521   1.548   2.717   3.979  0.0347  0.5257 -0.4269
21131SOL     OW68522   0.285   4.359   4.959  0.0821  0.2222  0.3714
21131SOL    HW168523   0.285   4.430   4.895 -1.1571 -1.3042 -1.3878
21131SOL    HW268524   0.351   4.297   4.926 -0.0496 -0.2422  0.9705
21132SOL     OW68525   3.607   2.694   9.249 -0.1539 -0.1668  0.3486
21132SOL    HW168526   3.578   2.605   9.273 -3.0785  0.1304 -1.7703
21132SOL    HW268527   3.555   2.751   9.305  1.6135  0.2473  1.5955
21133SOL     OW68528   8.549   3.183   4.959  1.1099  0.2054  0.0646
21133SOL    HW168529   8.546   3.185   5.055 -0.4223  0.0349  0.0428
21133SOL    HW268530   8.599   3.261   4.935  1.1171  0.4937  0.9997
21134SOL     OW68531   1.212   0.440   0.079 -0.2388  0.2077 -0.3629
21134SOL    HW168532   1.283   0.385   0.110 -0.5146  1.0492  1.8627
21134SOL    HW268533   1.239   0.467  -0.009  0.7370 -1.9392 -0.7551
21135SOL     OW68534   4.385   9.261   4.473  0.1597 -0.3412  0.5260
21135SOL    HW168535   4.389   9.317   4.550 -0.9590  1.2160 -0.5011
21135SOL    HW268536   4.463   9.205   4.478  0.6677  0.5068  2.1755
21136SOL     OW68537   0.741   3.572   9.054  0.6851  0.0735  0.1299
21136SOL    HW168538   0.784   3.524   9.124 -0.6596 -0.8573  0.3385
21136SOL    HW268539   0.757   3.520   8.976 -0.3897 -0.5085  0.2813
21137SOL     OW68540   9.541   6.169   1.456 -0.1261 -0.0733 -0.1797
21137SOL    HW168541   9.498   6.254   1.458 -0.0690 -0.0271 -0.6701
21137SOL    HW268542   9.595   6.172   1.377  1.5550  0.2408  0.9708
21138SOL     OW68543   0.099   6.723   7.608 -0.0622  0.6071 -0.2375
21138SOL    HW168544   0.172   6.672   7.643 -1.0707 -1.0443 -0.4666
21138SOL    HW268545   0.043   6.740   7.684  0.7343  2.1843  0.0027
21139SOL     OW68546   7.737   3.539   7.148 -0.4118 -0.0760  0.2760
21139SOL    HW168547   7.789   3.574   7.076  0.9645 -1.6380  0.4815
21139SOL    HW268548   7.774   3.579   7.226  1.2560 -1.9957  0.5250
21140SOL     OW68549   6.236   6.715   9.204  0.2550  0.3023  0.0919
21140SOL    HW168550   6.184   6.656   9.149  0.9858  0.3973 -0.6990
21140SOL    HW268551   6.322   6.717   9.163  1.1694 -0.5487  1.8806
21141SOL     OW68552   6.170   4.225  10.787 -0.4587  0.2523  0.1828
21141SOL    HW168553   6.231   4.286  10.829 -1.1765  0.3518  1.1168
21141SOL    HW268554   6.217   4.141  10.785  0.3477  0.7190 -0.6694
21142SOL     OW68555   6.580   0.971  10.520 -0.2400  1.0310  0.2248
21142SOL    HW168556   6.590   0.881  10.489 -1.1853  1.3542 -1.0309
21142SOL    HW268557   6.658   1.016  10.488 -0.0031  0.7842  0.4452
21143SOL     OW68558   5.028  10.683   3.765  0.1537 -0.1673  0.5194
21143SOL    HW168559   5.012  10.678   3.859 -0.0811  3.6695  0.7443
21143SOL    HW268560   4.982  10.762   3.737  0.6104 -0.9982 -2.7634
21144SOL     OW68561   4.052   4.086   4.951  0.0955  0.2958  0.1103
21144SOL    HW168562   4.147   4.078   4.950 -0.0271 -1.2257  0.4623
21144SOL    HW268563   4.034   4.150   5.020  0.8218  0.0049  0.5742
21145SOL     OW68564  10.406   3.701   7.121 -0.4028 -0.2591 -0.2723
21145SOL    HW168565  10.325   3.723   7.167 -0.3765 -2.9967  1.1702
21145SOL    HW268566  10.376   3.669   7.036 -0.6746  1.1424 -0.7161
21146SOL     OW68567   9.270   1.333   2.422  0.6389  0.1979  0.2954
21146SOL    HW168568   9.285   1.340   2.328  1.9081  0.0415  0.4776
21146SOL    HW268569   9.297   1.243   2.444  1.7638  0.7122  1.0530
21147SOL     OW68570   1.752   9.757   2.862 -0.1979 -0.2072  0.0662
21147SOL    HW168571   1.790   9.680   2.819  1.3353  0.3217  0.4427
21147SOL    HW268572   1.783   9.751   2.952 -0.1177  0.8352  0.1078
21148SOL     OW68573   8.342   8.388   7.045  0.6296  0.7382 -0.3660
21148SOL    HW168574   8.351   8.351   6.957  1.8927  1.8165 -0.7000
21148SOL    HW268575   8.277   8.332   7.088 -0.2098  0.3824 -2.0730
21149SOL     OW68576   5.731  11.210  10.509  0.6265  0.2156  0.8064
21149SOL    HW168577   5.764  11.249  10.590  3.0434 -1.4371  0.6701
21149SOL    HW268578   5.710  11.120  10.533  2.6360 -0.6911 -0.6649
21150SOL     OW68579  10.146  10.275   0.857 -0.8010 -0.0241  0.3380
21150SOL    HW168580  10.083  10.207   0.831 -0.1290 -1.1835  1.6486
21150SOL    HW268581  10.227  10.226   0.873 -0.1116  1.2012  0.5958
21151SOL     OW68582   4.958   1.359   3.856  0.4436 -0.1969  0.2833
21151SOL    HW168583   5.010   1.300   3.801 -0.2728 -1.7748  1.2691
21151SOL    HW268584   5.009   1.367   3.937 -0.5472 -1.2859  1.0281
21152SOL     OW68585  11.177  10.945   3.601 -0.3508  0.1354 -0.0375
21152SOL    HW168586  11.261  10.907   3.627 -0.3655 -0.2086 -0.4995
21152SOL    HW268587  11.118  10.924   3.673  0.1607  1.0964  0.6837
21153SOL     OW68588   9.203  10.797   1.301 -0.1546  0.0347  0.0115
21153SOL    HW168589   9.280  10.747   1.329  0.8109  0.2893 -2.0399
21153SOL    HW268590   9.235  10.887   1.294 -0.5239  0.0839 -1.1832
21154SOL     OW68591  10.670  10.804   0.899  0.2430  0.3323 -0.1641
21154SOL    HW168592  10.719  10.884   0.919 -1.6013  1.0708  1.5071
21154SOL    HW268593  10.728  10.734   0.928  0.6438  1.1726  1.1568
21155SOL     OW68594   4.080   6.232   5.926 -0.1992 -0.2627 -0.5397
21155SOL    HW168595   4.112   6.204   6.011  0.5997 -0.6069 -0.9483
21155SOL    HW268596   4.090   6.155   5.870  1.2845  0.5890 -1.4768
21156SOL     OW68597   6.109   6.322   3.298  0.1134  0.1788 -0.4359
21156SOL    HW168598   6.168   6.248   3.294 -1.9945 -1.5322 -0.9455
21156SOL    HW268599   6.152   6.390   3.246  1.5246 -1.0771 -0.9476
21157SOL     OW68600   5.575   8.914   5.141 -0.1946 -0.1674 -0.0147
21157SOL    HW168601   5.574   8.821   5.166  0.5358 -0.4682 -1.0486
21157SOL    HW268602   5.586   8.912   5.046  1.2869  0.9978  0.1218
21158SOL     OW68603  10.777   1.068   8.826 -0.5738 -0.0358 -0.0538
21158SOL    HW168604  10.700   1.090   8.880 -0.2396 -0.4853  0.6155
21158SOL    HW268605  10.745   1.071   8.736 -1.3580 -0.1212  0.2165
21159SOL     OW68606   9.906   4.156   1.332 -0.4746 -0.1578  0.5676
21159SOL    HW168607   9.972   4.130   1.267 -0.4634 -1.4243  1.0888
21159SOL    HW268608   9.933   4.113   1.413 -1.0841  0.5719  1.1637
21160SOL     OW68609   3.091   4.963   6.148  0.1083 -0.0953  0.7055
21160SOL    HW168610   3.159   5.010   6.197  1.3049 -1.8871  0.8232
21160SOL    HW268611   3.079   4.881   6.196 -0.0431 -1.0687 -0.9437
21161SOL     OW68612   2.758   9.709   8.210  0.1135  0.0212  0.0089
21161SOL    HW168613   2.689   9.773   8.230  0.3116 -0.0826  1.0896
21161SOL    HW268614   2.752   9.645   8.281  2.2998  0.8070  0.9420
21162SOL     OW68615  10.918   3.590   0.480 -0.0764 -0.4219 -0.1084
21162SOL    HW168616  10.945   3.661   0.538  1.1342 -0.7557 -0.2452
21162SOL    HW268617  10.998   3.565   0.433 -0.4679 -1.9046 -0.0230
21163SOL     OW68618   3.936   0.583   6.902 -0.0160  0.7223  0.3164
21163SOL    HW168619   3.926   0.490   6.925  0.8226  0.5745  0.1278
21163SOL    HW268620   3.887   0.630   6.969 -3.2037  0.0126 -1.4443
21164SOL     OW68621   2.201   7.542  10.042 -0.0665 -0.0318  0.5282
21164SOL    HW168622   2.288   7.561  10.077  1.5354 -0.9207 -2.7475
21164SOL    HW268623   2.210   7.455  10.004 -1.7572  0.8088 -1.8554
21165SOL     OW68624   9.374   9.920   4.077  0.1642 -0.6351 -0.3831
21165SOL    HW168625   9.443   9.936   4.141 -0.4701  0.3146  0.0657
21165SOL    HW268626   9.421   9.896   3.997  1.0310  0.5592 -0.2412
21166SOL     OW68627   7.922  10.633   7.241  0.0658  0.3586  0.1399
21166SOL    HW168628   7.866  10.598   7.171  1.9962 -2.6622  0.0311
21166SOL    HW268629   7.891  10.590   7.320  1.5890 -0.6457  0.2150
21167SOL     OW68630   3.782   9.119   0.916  0.1617  0.1489  0.6945
21167SOL    HW168631   3.868   9.158   0.897  0.2496 -0.5502 -0.3889
21167SOL    HW268632   3.743   9.178   0.981  1.3637  0.6027  1.0269
21168SOL     OW68633   0.098   8.122   2.803  0.0149 -0.2015 -0.3138
21168SOL    HW168634   0.148   8.066   2.862  0.0770  0.1564 -0.0253
21168SOL    HW268635   0.007   8.112   2.832  0.2907  1.6139  1.1969
21169SOL     OW68636   0.555   0.142   5.286  0.0019 -0.3421  0.3758
21169SOL    HW168637   0.461   0.130   5.275 -0.3294  1.9394  0.4728
21169SOL    HW268638   0.563   0.213   5.350  1.7420  0.9882 -1.2582
21170SOL     OW68639   2.049   4.676   8.581  0.6056  0.0914  0.0841
21170SOL    HW168640   2.013   4.588   8.588 -0.0405  0.3738  0.3640
21170SOL    HW268641   1.987   4.724   8.527 -0.8297  1.2871  2.6930
21171SOL     OW68642  10.411   1.374  10.920 -0.2417  0.4112  0.3434
21171SOL    HW168643  10.416   1.417  11.006 -1.7582 -0.4251  0.8853
21171SOL    HW268644  10.335   1.414  10.878 -0.1261  0.0742 -0.1857
21172SOL     OW68645   1.944   3.951   5.462 -0.3594 -0.2106 -0.3727
21172SOL    HW168646   1.877   4.019   5.462  1.2411  1.4261 -1.5323
21172SOL    HW268647   1.936   3.910   5.375  0.1050 -0.0501 -0.4910
21173SOL     OW68648   2.760   7.742   0.256 -0.7387  0.2565  0.3223
21173SOL    HW168649   2.699   7.809   0.226  0.4959  1.6949  0.9258
21173SOL    HW268650   2.758   7.750   0.352  0.9404  0.8652  0.3293
21174SOL     OW68651   2.454   5.238   1.144  0.0893 -0.6090 -0.7403
21174SOL    HW168652   2.436   5.330   1.165  0.2652 -1.0051  1.2555
21174SOL    HW268653   2.546   5.226   1.166  0.1526 -1.2002 -1.2976
21175SOL     OW68654   2.930   8.748  10.489 -0.0070 -0.3483 -0.3222
21175SOL    HW168655   2.988   8.738  10.564  1.5256 -0.5051 -1.5005
21175SOL    HW268656   2.917   8.659  10.456  3.2590  0.0808 -3.1002
21176SOL     OW68657   2.016   0.360   2.671 -0.1115  0.2285 -0.3503
21176SOL    HW168658   2.011   0.318   2.757 -0.2399 -2.0790 -1.4556
21176SOL    HW268659   2.108   0.355   2.647 -0.2796 -0.3398 -0.9089
21177SOL     OW68660   1.064   0.587   1.492 -0.5486  0.1674  0.4603
21177SOL    HW168661   1.068   0.548   1.404 -1.4939 -0.2836  0.6051
21177SOL    HW268662   1.154   0.609   1.513 -0.1841 -0.6330 -0.2289
21178SOL     OW68663   6.240   1.452   5.786  0.5017 -0.3115 -0.1648
21178SOL    HW168664   6.274   1.363   5.774 -0.3854 -0.8012  0.9072
21178SOL    HW268665   6.152   1.450   5.750  0.3176  0.0218  0.2596
21179SOL     OW68666   4.306   2.024   2.257 -0.0156 -0.1808  0.0002
21179SOL    HW168667   4.321   2.007   2.350  0.7176  1.4282  0.1975
21179SOL    HW268668   4.352   1.953   2.212  0.6636 -0.2789  0.8413
21180SOL     OW68669   1.658   9.703   9.439 -0.2774  0.2475 -0.4400
21180SOL    HW168670   1.674   9.727   9.348  1.1606  0.1979 -0.2071
21180SOL    HW268671   1.672   9.609   9.442 -0.8495  0.1662 -0.2750
21181SOL     OW68672   2.194   0.322   3.284 -0.6584 -0.2236  0.1009
21181SOL    HW168673   2.149   0.340   3.367 -2.0680  0.8327 -0.8657
21181SOL    HW268674   2.222   0.231   3.291  0.0725  0.1283  2.1190
21182SOL     OW68675   6.592  10.320   4.087 -0.4259 -0.4739  0.0799
21182SOL    HW168676   6.684  10.298   4.070 -0.3889 -0.5295  0.3532
21182SOL    HW268677   6.589  10.415   4.080  0.1238 -0.2680  2.3746
21183SOL     OW68678   6.980   9.099   5.187 -0.0505  0.0205  0.6969
21183SOL    HW168679   6.933   9.016   5.189 -0.2225  0.1087  0.2439
21183SOL    HW268680   7.017   9.108   5.275 -3.1102  1.2404  1.9275
21184SOL     OW68681   0.921   8.486   4.579  0.1779 -0.1389  0.0110
21184SOL    HW168682   0.930   8.516   4.669  0.0670  2.8682 -0.9134
21184SOL    HW268683   1.008   8.499   4.541  0.3288 -1.7520 -0.2398
21185SOL     OW68684   1.618   3.721   4.585 -0.5238  0.1793 -0.1579
21185SOL    HW168685   1.685   3.734   4.652 -1.0506 -1.7349  0.7771
21185SOL    HW268686   1.535   3.732   4.631 -0.8682  1.0315 -0.9795
21186SOL     OW68687   4.610   7.175  10.038 -0.1263 -0.3898  0.7990
21186SOL    HW168688   4.687   7.182   9.982 -1.0010  0.6168 -0.3088
21186SOL    HW268689   4.598   7.263  10.073 -0.3171 -0.7290  1.5829
21187SOL     OW68690  11.248   2.450   8.588 -0.8975 -0.0647  0.1314
21187SOL    HW168691  11.279   2.374   8.538 -1.5459 -0.7599  0.7814
21187SOL    HW268692  11.199   2.502   8.524 -1.5423 -0.8436 -0.0098
21188SOL     OW68693   4.493  10.659   7.747 -0.2211  0.5838 -0.7488
21188SOL    HW168694   4.513  10.566   7.743  0.1727  0.7230 -2.2746
21188SOL    HW268695   4.542  10.697   7.674  1.2394  2.2772  1.0405
21189SOL     OW68696   2.374   4.417   4.951 -0.2265 -0.0025 -0.2673
21189SOL    HW168697   2.466   4.440   4.939 -0.4288  1.0006  0.1215
21189SOL    HW268698   2.376   4.326   4.981  0.6747  0.3360  0.7156
21190SOL     OW68699   0.308  10.631   5.677 -0.0225  0.7715 -0.6977
21190SOL    HW168700   0.345  10.717   5.698  1.4415  0.0588 -0.2890
21190SOL    HW268701   0.214  10.648   5.666  0.1046  2.2673  0.2337
21191SOL     OW68702   0.631   0.940   5.448 -0.2503 -0.1536  0.5413
21191SOL    HW168703   0.584   1.022   5.432 -0.8192 -0.3978  0.9671
21191SOL    HW268704   0.630   0.930   5.543 -1.2806 -1.2885  0.4183
21192SOL     OW68705   0.179   5.262   4.480  0.1758  0.0424 -0.2485
21192SOL    HW168706   0.094   5.260   4.434 -0.0602  0.4970  0.1635
21192SOL    HW268707   0.201   5.170   4.493  0.2544 -0.0950 -1.2938
21193SOL     OW68708  11.008   6.406   9.220  0.1448  0.0350  0.2699
21193SOL    HW168709  10.985   6.481   9.275 -2.3458 -0.1965 -0.4322
21193SOL    HW268710  11.010   6.442   9.131 -1.8540 -0.8759 -0.1619
21194SOL     OW68711   0.362   2.188   7.151  0.3777 -0.0003  0.1129
21194SOL    HW168712   0.308   2.169   7.074  0.9775  0.6741 -0.4931
21194SOL    HW268713   0.340   2.120   7.214 -0.0990 -0.5828 -0.6794
21195SOL     OW68714   7.177   6.195   9.532  0.2866 -0.2286  0.0540
21195SOL    HW168715   7.081   6.202   9.527  0.3804 -0.0321 -2.1536
21195SOL    HW268716   7.209   6.275   9.492  1.3772 -0.4881  0.3967
21196SOL     OW68717   0.957   6.549   1.238  0.1926 -0.4188  0.0162
21196SOL    HW168718   1.004   6.501   1.306 -0.3231 -1.7780 -0.5704
21196SOL    HW268719   0.911   6.481   1.188 -0.8640  0.7214 -0.5879
21197SOL     OW68720   1.680   4.910   2.957 -0.2911 -0.1454 -0.2104
21197SOL    HW168721   1.636   4.915   2.872 -0.7464 -2.2021 -0.1142
21197SOL    HW268722   1.738   4.986   2.959 -0.4658  0.0508 -2.2526
21198SOL     OW68723  10.368   2.479   5.320 -0.0496  0.4073  0.0181
21198SOL    HW168724  10.323   2.526   5.390  2.3144  0.8320  1.2969
21198SOL    HW268725  10.439   2.432   5.364 -1.0085 -2.5984 -1.5513
21199SOL     OW68726   2.325   2.891   9.154 -0.2764  0.3216  0.0704
21199SOL    HW168727   2.400   2.948   9.139 -0.6664  0.7272 -0.3355
21199SOL    HW268728   2.297   2.864   9.067 -0.2643 -0.2640  0.2473
21200SOL     OW68729   1.778   0.561   3.194  0.6552  0.6711  0.5920
21200SOL    HW168730   1.766   0.481   3.246 -1.8953  1.2118  0.9228
21200SOL    HW268731   1.872   0.579   3.199  1.3577 -2.5664  0.0834
21201SOL     OW68732   3.811   9.629   0.332  0.5038  1.0603 -0.3597
21201SOL    HW168733   3.825   9.713   0.375 -0.4123  0.3647  1.3374
21201SOL    HW268734   3.896   9.585   0.338  0.6451  1.3565 -0.1439
21202SOL     OW68735   0.897   9.371   1.711  0.1792 -0.2534 -0.0292
21202SOL    HW168736   0.924   9.445   1.765 -1.2964  0.6390 -0.4637
21202SOL    HW268737   0.970   9.357   1.650  0.0472  1.5338 -0.6206
21203SOL     OW68738   1.579  11.166   5.399  0.1534 -0.1470  0.2783
21203SOL    HW168739   1.560  11.219   5.322  0.3855 -0.1145  0.2427
21203SOL    HW268740   1.494  11.155   5.442  0.4749  2.3394  1.6166
21204SOL     OW68741   4.570   3.214   8.730  0.3604 -0.2862 -0.5308
21204SOL    HW168742   4.595   3.246   8.817 -0.1584 -0.9778 -0.1135
21204SOL    HW268743   4.653   3.193   8.687  0.6162 -0.0700 -0.1434
21205SOL     OW68744   1.305   8.686  10.248  0.1120 -0.4901  0.6059
21205SOL    HW168745   1.378   8.704  10.307 -1.5913  3.1473  1.7576
21205SOL    HW268746   1.320   8.744  10.173 -0.9513 -0.5659  0.3201
21206SOL     OW68747   5.449   3.128   6.979  0.1530 -0.0945 -0.3139
21206SOL    HW168748   5.419   3.108   6.891  0.8418  0.1059 -0.6007
21206SOL    HW268749   5.369   3.133   7.032 -0.2109 -0.8595 -0.7874
21207SOL     OW68750   3.330   4.526  10.306  0.5506  0.4276  0.5595
21207SOL    HW168751   3.351   4.619  10.302 -0.4394  0.6262 -0.1068
21207SOL    HW268752   3.298   4.505  10.218  1.0233 -0.6086  0.6195
21208SOL     OW68753   3.129   5.486   2.484 -0.0385 -0.3976  0.3437
21208SOL    HW168754   3.135   5.391   2.498 -0.6459 -0.3187  1.1624
21208SOL    HW268755   3.090   5.520   2.564 -0.5461  0.4542 -0.2517
21209SOL     OW68756   1.041  11.301   6.920  0.3375  0.1198  0.7299
21209SOL    HW168757   1.079  11.214   6.930  0.3473  0.0424  0.0356
21209SOL    HW268758   1.107  11.350   6.872  0.1773  0.4099  0.8050
21210SOL     OW68759   6.755   8.016   5.490  0.1450 -0.1628  0.0769
21210SOL    HW168760   6.736   8.076   5.418  2.6491  0.4487 -0.0997
21210SOL    HW268761   6.847   7.991   5.478  0.9342  0.6992  3.5859
21211SOL     OW68762  10.188  10.355   6.219  0.3027 -0.1025  0.1421
21211SOL    HW168763  10.104  10.344   6.174  0.1078  1.8752 -0.0269
21211SOL    HW268764  10.178  10.306   6.301 -0.2015 -1.7188 -0.8552
21212SOL     OW68765   6.010   2.472   7.122  0.4476  0.4248  0.1515
21212SOL    HW168766   6.082   2.528   7.093  0.8170 -0.1416 -0.0322
21212SOL    HW268767   6.042   2.383   7.109  0.2778  0.1539  1.4499
21213SOL     OW68768  11.289   8.992   5.709  0.2074 -0.9719 -0.3128
21213SOL    HW168769  11.335   9.014   5.790 -0.8070  0.4646 -0.1060
21213SOL    HW268770  11.225   8.925   5.736  0.8292 -1.5287 -0.2112
21214SOL     OW68771   0.711   5.580   7.297 -0.4432  0.3437  0.2294
21214SOL    HW168772   0.645   5.645   7.317 -1.5876 -0.8565  0.4521
21214SOL    HW268773   0.661   5.503   7.270  0.8921 -0.2014 -0.7481
21215SOL     OW68774  10.945  10.394   5.958 -0.0501 -0.4070  0.2196
21215SOL    HW168775  10.881  10.353   5.899 -2.0176  0.4959  1.6947
21215SOL    HW268776  10.994  10.320   5.995  0.0031 -1.0819 -1.1466
21216SOL     OW68777   8.032   1.910  10.753  0.2875  0.0165 -0.3336
21216SOL    HW168778   7.955   1.922  10.698 -0.7909  0.5309  1.2264
21216SOL    HW268779   8.092   1.980  10.727 -0.1569  0.1712 -0.9391
21217SOL     OW68780   6.440   2.063  10.206  0.1091  0.0631 -0.0652
21217SOL    HW168781   6.368   2.004  10.185  0.6609  0.1716 -2.3504
21217SOL    HW268782   6.516   2.006  10.216 -0.2701 -0.0585  2.4053
21218SOL     OW68783   1.581   0.865   0.777 -0.0673  0.2420 -0.1879
21218SOL    HW168784   1.628   0.816   0.844  1.1435 -0.3477 -1.4419
21218SOL    HW268785   1.515   0.915   0.825  0.1101 -0.9531  1.3262
21219SOL     OW68786   3.191  11.083   4.223 -0.8786 -0.1077 -0.2510
21219SOL    HW168787   3.255  11.100   4.292 -0.3179 -0.6448 -0.6321
21219SOL    HW268788   3.237  11.104   4.142 -1.5493  0.5638 -0.4639
21220SOL     OW68789   4.822   1.511   5.297  0.4351 -0.1562  0.4534
21220SOL    HW168790   4.881   1.587   5.293 -0.2820  0.3527 -2.9454
21220SOL    HW268791   4.873   1.439   5.260 -0.0966 -0.4044  0.1967
21221SOL     OW68792   1.035   4.289   3.873  0.3803  0.2748  0.7793
21221SOL    HW168793   1.035   4.373   3.917  1.9473 -0.2919  1.9079
21221SOL    HW268794   1.030   4.311   3.780 -0.9103  1.5382  1.1316
21222SOL     OW68795   9.489   7.126   8.925 -0.2642  0.6013 -0.6374
21222SOL    HW168796   9.523   7.206   8.884 -0.2121  0.1823 -1.4202
21222SOL    HW268797   9.414   7.102   8.872 -0.1298 -0.0110 -0.5515
21223SOL     OW68798   2.158   2.590   2.936  0.2842 -0.4510 -0.1209
21223SOL    HW168799   2.083   2.649   2.926  0.2998 -0.0028  2.0239
21223SOL    HW268800   2.232   2.648   2.952  0.8776 -0.9426 -1.0672
21224SOL     OW68801  11.293  11.208   3.632  0.2040 -0.0912 -0.1475
21224SOL    HW168802  11.246  11.125   3.623 -1.0078  0.5062  0.5062
21224SOL    HW268803  11.234  11.263   3.683  1.0445  1.1374 -0.4809
21225SOL     OW68804   6.173   9.960   4.421  0.1787  0.7767 -0.1034
21225SOL    HW168805   6.101  10.023   4.417 -2.1024 -1.7954 -2.8220
21225SOL    HW268806   6.151   9.902   4.494  0.4682  1.0990  0.2392
21226SOL     OW68807   0.665   7.506   5.912  0.6428 -0.1962 -0.8595
21226SOL    HW168808   0.640   7.490   5.821 -1.5367 -0.1615 -0.3060
21226SOL    HW268809   0.599   7.567   5.945 -0.2573 -2.3308  1.5051
21227SOL     OW68810   4.007   5.872   2.607 -0.1463 -0.1352 -0.0705
21227SOL    HW168811   3.963   5.898   2.688  1.7293 -0.4307  1.0794
21227SOL    HW268812   4.096   5.903   2.617  0.3746 -1.0612 -1.6056
21228SOL     OW68813   2.825   1.642   5.847 -0.5085  0.4242 -0.2727
21228SOL    HW168814   2.886   1.706   5.883  0.8711 -0.2683 -1.2877
21228SOL    HW268815   2.882   1.576   5.807 -1.9407  0.9717 -3.3605
21229SOL     OW68816   9.567   3.048  10.196  0.3682  0.0518 -0.1743
21229SOL    HW168817   9.591   3.029  10.105  0.9540  1.6236 -0.3671
21229SOL    HW268818   9.650   3.043  10.244  0.4022  1.2410 -0.0905
21230SOL     OW68819   9.773   7.369   1.612  0.0815 -0.0904 -0.6995
21230SOL    HW168820   9.750   7.456   1.578  0.3109  0.8214  1.3902
21230SOL    HW268821   9.868   7.374   1.628  0.3891 -1.2732 -2.0414
21231SOL     OW68822   7.800   8.461   6.727 -0.5177  0.3895 -0.1631
21231SOL    HW168823   7.877   8.482   6.780 -0.6182  0.6257 -0.1066
21231SOL    HW268824   7.750   8.543   6.725 -0.5879  0.3401 -0.4989
21232SOL     OW68825   0.151   1.393   9.886  0.0624  0.4440  0.4252
21232SOL    HW168826   0.186   1.382   9.975 -0.5583  1.2856  0.7873
21232SOL    HW268827   0.225   1.375   9.829  0.0722 -1.7267  1.0526
21233SOL     OW68828   2.178   6.598   7.038 -0.0972 -0.4046 -0.4054
21233SOL    HW168829   2.176   6.637   6.950  1.6243 -0.5865 -0.5477
21233SOL    HW268830   2.270   6.604   7.064 -0.4713 -1.0393  1.0859
21234SOL     OW68831   2.764   5.056   1.176 -0.0692 -0.2936  0.2764
21234SOL    HW168832   2.784   5.075   1.268 -1.5494  1.4012  0.2714
21234SOL    HW268833   2.843   5.081   1.129 -0.2135  1.2894  0.8275
21235SOL     OW68834   9.077  11.112   4.585 -0.1840  0.3195 -0.0194
21235SOL    HW168835   9.090  11.036   4.642  0.5733 -1.1398 -2.0631
21235SOL    HW268836   8.984  11.108   4.561 -0.5824  1.1316  1.3679
21236SOL     OW68837   4.823   1.812  10.648  0.0317 -0.2500  0.1187
21236SOL    HW168838   4.744   1.867  10.650 -0.1227 -0.4358 -0.6943
21236SOL    HW268839   4.886   1.860  10.701 -1.1914 -0.9913  2.2999
21237SOL     OW68840   5.364   2.588   6.580 -0.2006  0.4871  0.8706
21237SOL    HW168841   5.306   2.591   6.657 -1.7416 -0.3429 -0.2263
21237SOL    HW268842   5.364   2.496   6.554  1.0685  0.6105  0.4361
21238SOL     OW68843   2.126   4.425   1.860 -0.1260  0.5624  0.2791
21238SOL    HW168844   2.118   4.519   1.874 -0.3419  0.3348  1.8410
21238SOL    HW268845   2.220   4.410   1.848 -0.2726  1.1985 -1.8400
21239SOL     OW68846  10.245  11.055   0.893 -0.0373  0.3113 -0.2279
21239SOL    HW168847  10.317  11.000   0.925 -0.2330 -1.6368 -2.9605
21239SOL    HW268848  10.285  11.110   0.826 -0.6184  0.8203 -0.1594
21240SOL     OW68849   3.948   2.116  10.567 -0.1282  0.6857 -0.3361
21240SOL    HW168850   3.936   2.202  10.609 -0.5318 -0.5476  2.1952
21240SOL    HW268851   3.863   2.073  10.578  0.4190 -0.4478 -0.5769
21241SOL     OW68852  10.337   3.034   6.671  0.1690 -0.0640 -0.6562
21241SOL    HW168853  10.313   2.961   6.728  0.2332 -0.6114 -1.3137
21241SOL    HW268854  10.253   3.066   6.637  0.0160  1.2744  0.9595
21242SOL     OW68855   0.921   8.314   1.761 -0.4323 -0.5913  0.4928
21242SOL    HW168856   1.016   8.307   1.766 -0.3034 -0.0187 -1.1379
21242SOL    HW268857   0.896   8.355   1.844  0.9517  1.3912 -0.0371
21243SOL     OW68858   3.843   5.857   7.815 -0.4604  0.1720 -0.3033
21243SOL    HW168859   3.931   5.864   7.780 -0.4819 -1.1662 -0.6832
21243SOL    HW268860   3.799   5.938   7.788  0.4683  0.5664 -0.6354
21244SOL     OW68861   4.681   9.551   9.939  0.0444  0.3132  0.3337
21244SOL    HW168862   4.634   9.575   9.859 -1.7497  0.4209  1.3974
21244SOL    HW268863   4.692   9.456   9.933 -2.5376 -0.0542  1.2435
21245SOL     OW68864   7.773   8.306   6.192  0.3441  0.4770 -0.1913
21245SOL    HW168865   7.733   8.236   6.140 -0.7273  0.3172  0.8495
21245SOL    HW268866   7.782   8.270   6.280  0.7228  1.2959  0.1173
21246SOL     OW68867   2.434   1.314  11.235 -0.1586  0.5269  0.0116
21246SOL    HW168868   2.370   1.244  11.243 -0.1504  0.5098 -0.0748
21246SOL    HW268869   2.480   1.315  11.319 -1.7821  2.0010  0.9453
21247SOL     OW68870   5.011   4.805   7.875 -0.0308 -0.0735  0.3450
21247SOL    HW168871   4.984   4.891   7.907  0.3504  0.7479 -1.4662
21247SOL    HW268872   5.093   4.786   7.921  1.7779  2.1729 -1.8349
21248SOL     OW68873   2.406  10.655   5.392 -0.7655 -0.2123  0.1487
21248SOL    HW168874   2.381  10.616   5.308 -0.6115 -0.0123  0.0061
21248SOL    HW268875   2.494  10.622   5.408 -0.7021 -0.0613  0.1122
21249SOL     OW68876   0.019   8.262   2.331 -0.5471  0.6599  0.4889
21249SOL    HW168877   0.065   8.339   2.365  1.1687  0.6346 -1.7361
21249SOL    HW268878  -0.041   8.297   2.265 -0.3436  0.1762  0.0465
21250SOL     OW68879   0.557   1.105   6.087 -0.3241 -0.1168  0.1762
21250SOL    HW168880   0.647   1.136   6.079  0.6753 -1.9825  3.4366
21250SOL    HW268881   0.513   1.171   6.141 -0.6165  0.1219 -0.3380
21251SOL     OW68882   7.764   4.323  10.095  0.2790 -0.4236 -0.3043
21251SOL    HW168883   7.816   4.299  10.172  0.7237  2.4774  0.3229
21251SOL    HW268884   7.676   4.336  10.128  0.2689 -0.0867 -0.4661
21252SOL     OW68885   0.115   4.199   8.315  0.2034  0.1942  0.4840
21252SOL    HW168886   0.176   4.147   8.262 -0.3159  0.1163 -0.0520
21252SOL    HW268887   0.111   4.283   8.269  1.1060  0.7485  1.3965
21253SOL     OW68888   2.246   4.629   3.928 -0.4113 -0.2012  0.5247
21253SOL    HW168889   2.194   4.677   3.864 -2.0884 -1.9706  0.5144
21253SOL    HW268890   2.282   4.554   3.880  3.7994  1.9723  0.0436
21254SOL     OW68891   9.168   3.102   2.689  0.5007 -0.3971  0.2511
21254SOL    HW168892   9.126   3.110   2.603  0.8733  1.1751  0.1964
21254SOL    HW268893   9.096   3.080   2.748 -0.2595  1.3161 -0.0056
21255SOL     OW68894   4.786   1.788   9.701  0.0197  0.0384  0.1745
21255SOL    HW168895   4.765   1.707   9.654  0.1303  0.2589 -0.2557
21255SOL    HW268896   4.876   1.807   9.676 -0.0371  0.3430  0.2052
21256SOL     OW68897   8.437   8.901   8.226  0.6933 -0.1036  0.0846
21256SOL    HW168898   8.497   8.973   8.246  0.0672  0.7870 -1.1628
21256SOL    HW268899   8.404   8.921   8.138  0.4015 -1.8384 -0.2235
21257SOL     OW68900   8.955   7.639   7.920  0.0479  0.6116 -0.6407
21257SOL    HW168901   8.949   7.628   8.015 -0.4257 -1.4274 -0.8752
21257SOL    HW268902   8.952   7.733   7.906 -0.2397  0.9154  1.3533
21258SOL     OW68903   6.336   4.150   3.693  0.3326 -0.6419 -0.1766
21258SOL    HW168904   6.295   4.154   3.779 -1.9925 -0.8369 -1.2462
21258SOL    HW268905   6.360   4.058   3.683  1.3788 -0.4683  0.5809
21259SOL     OW68906   3.850   8.808   1.053  0.4525  0.1789  0.1788
21259SOL    HW168907   3.891   8.833   1.136  1.2774  2.2891 -0.8379
21259SOL    HW268908   3.827   8.891   1.011 -3.7778 -0.8810  0.1375
21260SOL     OW68909   2.628  10.631   0.563  0.0422  0.8029 -0.2651
21260SOL    HW168910   2.595  10.559   0.509  1.8820  1.7643 -2.7668
21260SOL    HW268911   2.550  10.675   0.595 -1.0923 -1.1819 -0.2384
21261SOL     OW68912   3.021   1.863   4.504  0.2497  0.4230 -0.2733
21261SOL    HW168913   3.095   1.857   4.564 -1.6412  2.3748  2.3345
21261SOL    HW268914   3.035   1.945   4.457 -0.7387  1.2585  0.8872
21262SOL     OW68915   9.670   2.256   4.768  0.5438  0.2006 -0.5377
21262SOL    HW168916   9.594   2.246   4.712 -1.1864 -1.4904  2.0239
21262SOL    HW268917   9.731   2.188   4.738  0.0423 -0.0551 -0.9782
21263SOL     OW68918  11.328   5.369   8.897  0.4088 -0.5100  0.0321
21263SOL    HW168919  11.337   5.461   8.873  1.5262 -0.3315  1.0311
21263SOL    HW268920  11.245   5.364   8.945  0.6591  0.1044  0.5310
21264SOL     OW68921   4.540   9.171   1.412  0.3599 -0.0276  0.2931
21264SOL    HW168922   4.622   9.126   1.433 -0.0397 -0.5815  0.6773
21264SOL    HW268923   4.508   9.202   1.496 -1.4302 -2.5665  0.6089
21265SOL     OW68924   1.991   0.830   7.167  0.1668  0.3654  1.0180
21265SOL    HW168925   2.082   0.850   7.144  0.3540 -1.7460 -0.2147
21265SOL    HW268926   1.942   0.849   7.087  0.1290 -2.3556  0.3415
21266SOL     OW68927  10.551   9.305   6.086 -0.2695  0.3973  0.2304
21266SOL    HW168928  10.601   9.272   6.012  1.5945  3.1250  0.1894
21266SOL    HW268929  10.499   9.377   6.051  0.4202  1.5390  1.4845
21267SOL     OW68930   4.218   4.680   9.057 -0.7799 -0.4257 -0.1669
21267SOL    HW168931   4.195   4.771   9.072 -1.4174 -0.4872 -0.7267
21267SOL    HW268932   4.273   4.682   8.978 -0.7332 -0.5173 -0.1368
21268SOL     OW68933   0.761   2.596   2.698  0.1939  0.1141 -0.0389
21268SOL    HW168934   0.809   2.673   2.728  1.9968 -0.7347 -0.6533
21268SOL    HW268935   0.669   2.618   2.711  0.6831  2.4269 -0.3799
21269SOL     OW68936  10.988   2.668  10.776  0.3397  0.6315 -0.0512
21269SOL    HW168937  10.895   2.692  10.775  0.3063  0.5211  0.5228
21269SOL    HW268938  11.021   2.704  10.858  0.7702  0.5341 -0.1851
21270SOL     OW68939  10.637  11.156   1.953 -0.0159  1.1741  0.3406
21270SOL    HW168940  10.579  11.107   1.895 -0.2707  2.5402 -0.5699
21270SOL    HW268941  10.581  11.180   2.028 -0.7472  2.7983 -0.7015
21271SOL     OW68942   1.729   8.597   7.219 -0.2032  0.6101  0.1693
21271SOL    HW168943   1.666   8.544   7.171  1.3443 -0.1088 -1.1538
21271SOL    HW268944   1.692   8.606   7.306 -1.5905 -0.7348 -0.2521
21272SOL     OW68945   4.693   7.617   2.451 -0.8966  0.1663  0.3842
21272SOL    HW168946   4.664   7.610   2.360  0.1618  2.6057 -0.1684
21272SOL    HW268947   4.779   7.576   2.452 -0.8746  0.2112  0.2779
21273SOL     OW68948   4.405  11.328   1.675 -0.2506  0.3355  0.1627
21273SOL    HW168949   4.500  11.333   1.663 -0.2991 -0.5485 -0.6521
21273SOL    HW268950   4.376  11.419   1.682 -0.0142  0.9423 -4.8958
21274SOL     OW68951   9.893   6.471   9.632  0.7383 -0.0734 -0.0932
21274SOL    HW168952   9.977   6.484   9.588  0.8928  0.5511  0.3767
21274SOL    HW268953   9.858   6.560   9.645  0.1663 -0.3094  0.0186
21275SOL     OW68954   9.465   9.144   6.639 -0.2429 -0.5774  0.1603
21275SOL    HW168955   9.540   9.160   6.696 -1.2657  0.4711  1.2386
21275SOL    HW268956   9.397   9.110   6.697 -0.6293 -1.4782 -0.7980
21276SOL     OW68957   1.621   8.303   1.533 -0.1536  0.3992 -0.2183
21276SOL    HW168958   1.669   8.222   1.516 -0.3017  0.2514  0.0719
21276SOL    HW268959   1.689   8.369   1.548 -0.0221  0.5009 -1.2367
21277SOL     OW68960   7.577   2.624   4.711  0.1440  0.7254 -0.2212
21277SOL    HW168961   7.516   2.613   4.638  0.2235 -1.3843  0.0235
21277SOL    HW268962   7.530   2.678   4.774 -1.3389 -0.5988 -0.1815
21278SOL     OW68963   6.137   4.474   4.347  0.2854  0.1574  0.3492
21278SOL    HW168964   6.204   4.421   4.391  1.4640  0.6651 -0.7919
21278SOL    HW268965   6.185   4.550   4.314 -0.7137  0.1235 -1.2092
21279SOL     OW68966   5.538   0.724   3.470  0.4425 -0.2343  0.3367
21279SOL    HW168967   5.627   0.699   3.446 -0.4849 -3.4420  0.0267
21279SOL    HW268968   5.496   0.749   3.388  0.6495 -0.0128  0.2983
21280SOL     OW68969   6.486   0.393   6.517 -0.1420  0.5980  0.0342
21280SOL    HW168970   6.466   0.400   6.423 -0.5926  0.0498  0.0866
21280SOL    HW268971   6.507   0.301   6.530  1.6594  1.0110  0.1339
21281SOL     OW68972   1.520   3.210   0.037  0.6898  0.2428  0.3843
21281SOL    HW168973   1.500   3.198  -0.056 -1.7228  2.1982  0.6224
21281SOL    HW268974   1.614   3.231   0.038  0.7105  0.3656 -1.6227
21282SOL     OW68975   6.096   6.100   4.631 -0.8847 -0.3408 -0.3156
21282SOL    HW168976   6.135   6.012   4.624  0.4496  0.1166  1.0828
21282SOL    HW268977   6.003   6.086   4.615 -0.6567 -2.0049 -0.2840
21283SOL     OW68978   8.865   1.246   1.911 -0.8480  0.1465  0.1574
21283SOL    HW168979   8.897   1.263   2.000 -0.3616 -1.1056  0.2222
21283SOL    HW268980   8.826   1.159   1.915 -1.0318  0.1821 -0.7985
21284SOL     OW68981   7.579   1.033   1.969  0.0064  0.0948  0.6168
21284SOL    HW168982   7.498   1.056   2.014 -0.1968 -0.8657  0.7581
21284SOL    HW268983   7.645   1.031   2.038  0.0296  0.2534  0.6006
21285SOL     OW68984   8.578   6.205  10.733  0.2300  0.4428 -0.1994
21285SOL    HW168985   8.621   6.133  10.778  0.4810  0.9456  0.3824
21285SOL    HW268986   8.503   6.226  10.789  0.3492  0.8436 -0.1882
21286SOL     OW68987   0.331   6.462   8.664 -0.4814 -0.5431 -0.2321
21286SOL    HW168988   0.397   6.414   8.613 -0.4683 -1.0483  0.2555
21286SOL    HW268989   0.292   6.396   8.721  1.1410  0.4459  2.1395
21287SOL     OW68990   1.556   5.175   0.751 -0.0555  0.0171 -0.2379
21287SOL    HW168991   1.596   5.125   0.822  0.1702 -1.6312 -1.4832
21287SOL    HW268992   1.536   5.109   0.684  1.7460  1.7663 -2.6178
21288SOL     OW68993   3.799   6.016   6.971 -0.1274 -0.5182  0.2954
21288SOL    HW168994   3.785   6.110   6.974 -1.1542 -0.5322 -2.2084
21288SOL    HW268995   3.888   6.005   6.935 -0.4476 -0.4755 -0.5371
21289SOL     OW68996  10.606  10.067  10.319  0.0848  0.0046 -0.0516
21289SOL    HW168997  10.661  10.102  10.389 -0.1490  0.2943 -0.0086
21289SOL    HW268998  10.606  10.135  10.252 -2.3389  1.1657  1.0766
21290SOL     OW68999  10.769   2.695   6.025  0.3396  0.5047  0.7322
21290SOL    HW169000  10.853   2.674   5.986  0.1365 -0.8802  1.0056
21290SOL    HW269001  10.772   2.789   6.042  1.8700  0.4379  0.8417
21291SOL     OW69002   2.995   9.324   9.212  0.2301  0.3376 -0.5403
21291SOL    HW169003   3.017   9.239   9.175 -0.5031 -1.2072  2.3836
21291SOL    HW269004   2.956   9.304   9.297  2.0885  3.6878  1.2419
21292SOL     OW69005   3.332   5.934   5.586 -0.1585 -0.0351 -0.1794
21292SOL    HW169006   3.320   5.847   5.550  0.8343 -0.3837  0.3153
21292SOL    HW269007   3.424   5.938   5.610 -0.2696  1.0278  0.1227
21293SOL     OW69008   0.985   4.459  10.726  0.1893 -0.8763 -0.1923
21293SOL    HW169009   0.973   4.371  10.689 -1.1557 -0.7671 -0.0516
21293SOL    HW269010   0.896   4.491  10.739  0.6442 -0.6617  2.5866
21294SOL     OW69011   7.524   6.803   3.737 -0.0395 -0.4665  0.0781
21294SOL    HW169012   7.584   6.839   3.802 -0.9655 -0.2937  0.8628
21294SOL    HW269013   7.557   6.834   3.653  0.2967  0.6067  0.5989
21295SOL     OW69014   3.755   0.370   1.202 -0.4327 -0.5152  0.0756
21295SOL    HW169015   3.808   0.312   1.148 -0.5809  0.7726 -1.4979
21295SOL    HW269016   3.815   0.441   1.227 -1.3712  1.0160 -1.8216
21296SOL     OW69017   5.803   6.700   4.847  0.0528 -0.3964 -0.0669
21296SOL    HW169018   5.748   6.630   4.882  0.9856 -0.9638  0.2894
21296SOL    HW269019   5.798   6.689   4.752 -1.9336  0.7171 -0.0971
21297SOL     OW69020  10.696   5.111  10.604  0.4576  0.1342  0.5205
21297SOL    HW169021  10.763   5.105  10.672  0.9912 -0.2548 -0.0331
21297SOL    HW269022  10.734   5.168  10.537  0.6722 -0.9212 -0.2786
21298SOL     OW69023   6.432  10.399   0.801 -0.2039  0.6935  0.6035
21298SOL    HW169024   6.363  10.377   0.864 -0.1861  0.1541  0.4388
21298SOL    HW269025   6.397  10.371   0.716  0.4825 -0.1876  0.6037
21299SOL     OW69026   7.214  10.836   2.481  0.1207  0.3048 -0.7911
21299SOL    HW169027   7.267  10.894   2.426 -0.0740 -0.7692 -2.1624
21299SOL    HW269028   7.175  10.774   2.419 -1.3838  0.0346  0.3966
21300SOL     OW69029   1.610   8.970   5.377  0.1970 -0.0778 -0.2517
21300SOL    HW169030   1.583   8.951   5.467  2.4990 -0.5856  0.3751
21300SOL    HW269031   1.609   8.884   5.333 -1.2870  0.2234 -0.8325
21301SOL     OW69032  10.230   0.615  10.688  0.0677  0.2979  0.0693
21301SOL    HW169033  10.143   0.620  10.648  1.5764  0.3713 -3.3713
21301SOL    HW269034  10.273   0.543  10.642  2.0947  0.7170  1.2592
21302SOL     OW69035   0.424   7.484   1.206 -0.2073 -0.0493 -0.4481
21302SOL    HW169036   0.332   7.504   1.225  0.1697  2.6675 -1.2782
21302SOL    HW269037   0.428   7.388   1.203 -2.7396 -0.2346  0.8709
21303SOL     OW69038   2.671   3.681   2.220 -0.6557  0.4421 -0.4652
21303SOL    HW169039   2.586   3.710   2.187 -0.8753  0.2369 -0.0850
21303SOL    HW269040   2.725   3.670   2.141 -0.9646  0.6201 -0.7020
21304SOL     OW69041   2.169   9.415  10.576 -0.0281  0.2466  0.1269
21304SOL    HW169042   2.158   9.465  10.495  1.0198 -0.2365 -0.3322
21304SOL    HW269043   2.237   9.462  10.624  0.2705 -0.1939  0.1356
21305SOL     OW69044   1.994   1.533   3.139  0.6717  0.3270  0.2370
21305SOL    HW169045   1.981   1.561   3.049  2.7302  0.4163 -0.0538
21305SOL    HW269046   1.991   1.614   3.190 -1.5679  0.1716  0.4176
21306SOL     OW69047   4.652   1.268  10.878  0.7094 -0.1293  0.3479
21306SOL    HW169048   4.601   1.269  10.959 -0.8851  0.1781 -0.6189
21306SOL    HW269049   4.651   1.359  10.849  1.7542 -0.1399  0.2650
21307SOL     OW69050  10.371   5.956   7.396 -0.0198  0.1055 -0.2188
21307SOL    HW169051  10.463   5.978   7.381  0.4513 -1.0775  0.8422
21307SOL    HW269052  10.350   5.891   7.328  0.1825 -0.2657  0.0709
21308SOL     OW69053   1.334   9.218   0.796  0.0145 -0.0398 -0.6615
21308SOL    HW169054   1.408   9.161   0.816  1.3362  1.3000 -1.5901
21308SOL    HW269055   1.285   9.171   0.729 -1.3875 -2.0550  1.7162
21309SOL     OW69056   3.332   1.732   6.021  1.1013 -0.0144 -0.4688
21309SOL    HW169057   3.407   1.674   6.030  0.9231 -0.3010 -0.8282
21309SOL    HW269058   3.369   1.816   5.994  1.3390 -0.0217 -0.1569
21310SOL     OW69059   8.399   0.851  10.374 -0.1788 -0.4458  0.3933
21310SOL    HW169060   8.339   0.781  10.398 -0.5980  0.0074  0.6989
21310SOL    HW269061   8.469   0.808  10.325 -1.3542 -0.8119 -0.9991
21311SOL     OW69062   7.504   7.558   1.453  0.3779 -0.1605 -0.0349
21311SOL    HW169063   7.448   7.533   1.527  0.1689 -1.7207 -0.6952
21311SOL    HW269064   7.574   7.610   1.493 -0.3969  0.0463  1.0887
21312SOL     OW69065   3.169  10.057   3.846  0.1899 -0.0394  0.0604
21312SOL    HW169066   3.196  10.036   3.756 -0.3032 -0.9486  0.1233
21312SOL    HW269067   3.079  10.024   3.852 -1.1717  3.4195 -0.3275
21313SOL     OW69068   9.437   5.311   2.571 -0.4395  0.3121  0.0829
21313SOL    HW169069   9.375   5.326   2.500  0.2501  0.4825 -0.4984
21313SOL    HW269070   9.444   5.396   2.614 -1.1937  0.0975  0.6326
21314SOL     OW69071   7.876  10.750   8.566  0.1906 -0.5181  0.3707
21314SOL    HW169072   7.946  10.764   8.502 -0.4152 -0.7084 -0.3497
21314SOL    HW269073   7.917  10.700   8.636  0.8814 -0.2602  0.1541
21315SOL     OW69074   9.105   0.938   3.328  0.0063  0.1931  0.3377
21315SOL    HW169075   9.060   0.884   3.263 -1.1630  1.6453 -0.0893
21315SOL    HW269076   9.079   1.027   3.307  1.3886  0.8756  1.4442
21316SOL     OW69077   2.979   7.655   8.158  0.0647  0.5917 -0.5852
21316SOL    HW169078   2.972   7.716   8.231  1.8073  0.3008 -0.1502
21316SOL    HW269079   3.068   7.668   8.124  0.1071 -0.9813 -1.1261
21317SOL     OW69080   5.469   3.429  10.649 -0.0696 -0.4860 -0.1804
21317SOL    HW169081   5.430   3.366  10.710 -0.9376 -0.8922 -1.1439
21317SOL    HW269082   5.470   3.384  10.565  1.1382  0.0659 -0.4724
21318SOL     OW69083   8.689   1.936   4.785 -0.2030  0.3765  0.1076
21318SOL    HW169084   8.703   2.004   4.719  0.8771 -0.2027 -0.2607
21318SOL    HW269085   8.746   1.864   4.758 -1.4423 -0.7490  0.4053
21319SOL     OW69086   0.683   6.607   7.547 -0.3553 -0.1841 -0.4966
21319SOL    HW169087   0.613   6.542   7.550 -1.1705  0.7475  2.4194
21319SOL    HW269088   0.752   6.571   7.602  0.5208 -0.0293 -1.4792
21320SOL     OW69089   1.853   2.627   8.114  0.5272  0.1427  0.1788
21320SOL    HW169090   1.802   2.707   8.102  0.1781  0.0705  1.1383
21320SOL    HW269091   1.878   2.601   8.025  0.1721  1.0071 -0.1790
21321SOL     OW69092   9.609   2.387   7.479 -0.3559  0.6263  0.0003
21321SOL    HW169093   9.671   2.316   7.497  1.2275  2.3939  1.9148
21321SOL    HW269094   9.524   2.352   7.507  0.3825 -0.5375  0.8646
21322SOL     OW69095   2.932   7.011   7.337 -0.0184 -0.3165 -0.2147
21322SOL    HW169096   2.989   7.080   7.302 -0.1298 -0.7291 -1.2361
21322SOL    HW269097   2.930   7.026   7.431  1.1875  0.1573 -0.2602
21323SOL     OW69098   8.060   9.801   7.858  0.1857 -0.0690 -0.3306
21323SOL    HW169099   8.120   9.873   7.874 -0.3712  1.1037 -3.3000
21323SOL    HW269100   7.973   9.841   7.861 -0.2335 -0.9634 -0.2228
21324SOL     OW69101   3.536   5.844  11.327 -0.2312  0.2302  0.3766
21324SOL    HW169102   3.610   5.878  11.277 -0.7779 -0.0513 -0.6581
21324SOL    HW269103   3.500   5.920  11.372 -0.4742  0.7415 -0.6533
21325SOL     OW69104   0.035   1.455   6.136  0.5420 -0.1830 -0.2384
21325SOL    HW169105   0.050   1.374   6.087 -0.1459  0.9430 -2.3975
21325SOL    HW269106   0.048   1.525   6.071 -0.9435  1.3454  1.0565
21326SOL     OW69107   1.143   4.066   8.386  0.1749 -0.3749  0.2215
21326SOL    HW169108   1.163   4.031   8.299 -1.2392  0.6463 -0.5318
21326SOL    HW269109   1.077   4.133   8.370  1.6524  1.5273  1.8180
21327SOL     OW69110   5.133  10.178   1.666  0.1175  0.2667 -0.7290
21327SOL    HW169111   5.114  10.147   1.577  1.0089 -0.3593 -0.7137
21327SOL    HW269112   5.219  10.140   1.686  0.3719  1.2257  0.0215
21328SOL     OW69113   1.039   1.283   2.533 -0.2465 -0.8545  0.1490
21328SOL    HW169114   1.048   1.188   2.527  1.0435 -0.6409 -1.5920
21328SOL    HW269115   1.114   1.317   2.485 -1.0854  1.0491  0.1598
21329SOL     OW69116   6.047   4.219   9.643  0.1094  0.2577  0.1395
21329SOL    HW169117   6.121   4.227   9.703 -0.4487  1.5147  0.6715
21329SOL    HW269118   5.985   4.162   9.690 -0.8002  2.1206  1.2607
21330SOL     OW69119   6.661   5.331   7.801 -0.0685  0.2139 -0.4040
21330SOL    HW169120   6.670   5.360   7.892  0.7433 -1.8842  0.1982
21330SOL    HW269121   6.732   5.375   7.755  0.8991 -0.4785  0.4208
21331SOL     OW69122   1.428   5.700   4.145  0.4283  0.2445 -0.0150
21331SOL    HW169123   1.501   5.758   4.123  1.4786 -1.2396 -0.5734
21331SOL    HW269124   1.379   5.747   4.212  2.3991  0.9104  0.9924
21332SOL     OW69125   8.904   8.146   6.708 -0.4859 -0.0184 -0.0557
21332SOL    HW169126   8.891   8.140   6.803 -0.2221 -2.1234 -0.1371
21332SOL    HW269127   8.994   8.116   6.694 -1.0715 -1.3436 -1.1156
21333SOL     OW69128   0.606   9.648   0.156  0.3683 -0.3137  0.1156
21333SOL    HW169129   0.596   9.738   0.124 -0.7378 -0.9318 -1.3191
21333SOL    HW269130   0.672   9.655   0.225  2.1340  1.1958 -1.6724
21334SOL     OW69131   2.007   3.385   2.280  0.2028  0.0203 -0.3916
21334SOL    HW169132   2.068   3.394   2.207  1.3942  2.2046  0.8233
21334SOL    HW269133   2.053   3.328   2.342 -0.9204 -2.0626 -1.3801
21335SOL     OW69134  10.447   6.086   6.511  0.3855 -0.2461 -0.4307
21335SOL    HW169135  10.530   6.131   6.519  0.1099  0.1002  0.5917
21335SOL    HW269136  10.439   6.036   6.592 -0.8713  0.5449 -0.0421
21336SOL     OW69137   5.162   2.565   2.562 -0.3491  0.2098  0.1440
21336SOL    HW169138   5.231   2.630   2.547 -0.7984  0.5119 -0.6672
21336SOL    HW269139   5.081   2.612   2.542 -0.7798 -0.2046  0.8824
21337SOL     OW69140  10.179   8.780  10.690 -0.0072  0.5671 -0.2204
21337SOL    HW169141  10.178   8.872  10.662 -1.0786  0.9686  1.0639
21337SOL    HW269142  10.192   8.785  10.785 -0.9911 -0.5691 -0.0161
21338SOL     OW69143   0.615   0.066   5.900 -0.2145  0.4223  0.0795
21338SOL    HW169144   0.637   0.109   5.983 -0.5724 -0.1714  0.4833
21338SOL    HW269145   0.546   0.121   5.862  0.8298  1.3937 -0.4266
21339SOL     OW69146   9.317   2.606   7.431  0.7158 -0.0076 -0.3023
21339SOL    HW169147   9.343   2.526   7.385  0.2865  0.0532 -0.6456
21339SOL    HW269148   9.364   2.676   7.386  3.3217 -0.3389  1.7272
21340SOL     OW69149   1.824   3.675   6.122 -0.0208 -0.1263  0.5730
21340SOL    HW169150   1.739   3.640   6.094  0.9819 -2.8425  0.8315
21340SOL    HW269151   1.859   3.716   6.043 -0.9581 -0.1992  0.1032
21341SOL     OW69152  11.068   3.326   6.506 -0.5267 -0.6122 -0.0504
21341SOL    HW169153  10.989   3.326   6.559 -0.9494  1.6624 -0.6088
21341SOL    HW269154  11.055   3.398   6.444  1.5029 -0.9075 -0.8623
21342SOL     OW69155   5.594   8.774   2.515  0.1749  0.2809  0.2374
21342SOL    HW169156   5.651   8.813   2.581  1.0764 -1.7392  0.7017
21342SOL    HW269157   5.518   8.831   2.511  0.9579  1.4434  1.6851
21343SOL     OW69158   0.614   1.044  10.265 -0.4948 -0.5818 -0.2973
21343SOL    HW169159   0.693   1.095  10.248 -1.1867  0.9273  0.8815
21343SOL    HW269160   0.609   0.981  10.193  1.8307 -0.7690 -0.3147
21344SOL     OW69161   0.021   4.220   2.051  0.0687  0.4058 -0.3664
21344SOL    HW169162  -0.029   4.188   1.976 -1.7296  1.4141  0.3627
21344SOL    HW269163  -0.041   4.215   2.124  1.7910 -0.5456  1.0485
21345SOL     OW69164   4.018   8.392  10.426 -0.5942  0.2390 -0.1406
21345SOL    HW169165   4.035   8.303  10.395 -1.1248 -0.2925  1.0688
21345SOL    HW269166   3.924   8.395  10.441 -0.5147  0.8618  0.2608
21346SOL     OW69167   2.607   4.507   7.929 -0.2480 -0.3048 -0.0564
21346SOL    HW169168   2.558   4.461   7.862  0.1930  2.3777 -2.2821
21346SOL    HW269169   2.696   4.514   7.894 -0.2872  2.1360  0.2644
21347SOL     OW69170   8.558   1.745  10.610 -0.0596 -0.1387 -0.0405
21347SOL    HW169171   8.598   1.813  10.664 -1.9461  0.3527  0.7713
21347SOL    HW269172   8.585   1.766  10.521 -0.1061  1.3220  0.2732
21348SOL     OW69173  10.024  11.228   2.776 -0.1568 -0.3375  0.0274
21348SOL    HW169174  10.074  11.310   2.782  0.7704 -0.9496  0.7477
21348SOL    HW269175  10.079  11.170   2.723 -0.1117 -0.9894  0.7687
21349SOL     OW69176   6.507  10.033  10.585 -0.0644  0.0480  1.3293
21349SOL    HW169177   6.493   9.951  10.537  0.8152  0.6751 -0.0502
21349SOL    HW269178   6.600  10.052  10.572 -0.7340  2.4686 -0.3796
21350SOL     OW69179   9.646   9.667   9.132  0.3873 -0.1184  0.4457
21350SOL    HW169180   9.648   9.589   9.077 -1.1289  0.7631 -0.8826
21350SOL    HW269181   9.553   9.686   9.144  0.7421  1.6582  0.5019
21351SOL     OW69182   5.231   5.617   1.683 -0.0960  0.8845  0.2437
21351SOL    HW169183   5.206   5.525   1.692  0.3262  0.7616  0.1858
21351SOL    HW269184   5.156   5.658   1.639 -0.3479  0.6010  0.4006
21352SOL     OW69185   0.182   2.670   8.955 -0.0574 -0.1443 -0.1306
21352SOL    HW169186   0.177   2.764   8.976 -0.8231  0.5867 -3.2152
21352SOL    HW269187   0.112   2.657   8.890  0.3713 -2.7501 -0.1256
21353SOL     OW69188   9.262   5.676  11.242 -0.1592 -0.1529 -0.3608
21353SOL    HW169189   9.227   5.622  11.170  0.9704  0.0130 -1.0424
21353SOL    HW269190   9.244   5.766  11.215  0.9950 -0.0564 -0.8295
21354SOL     OW69191   7.807  11.039   4.094  0.2671 -0.0995  0.1033
21354SOL    HW169192   7.849  10.953   4.094  0.6619  0.0903 -0.4445
21354SOL    HW269193   7.840  11.082   4.015 -1.7265 -0.3198 -0.8816
21355SOL     OW69194   0.916   6.305   8.254  0.4672  0.2159  0.1614
21355SOL    HW169195   0.893   6.215   8.230 -0.1586  0.6730 -1.0051
21355SOL    HW269196   1.002   6.319   8.215 -0.7753  1.1325 -2.3746
21356SOL     OW69197  10.681   4.703   7.930  0.1351  0.2072  0.7582
21356SOL    HW169198  10.703   4.781   7.879  2.2908 -0.8785 -0.0367
21356SOL    HW269199  10.730   4.713   8.011  1.0746 -0.7137  0.3075
21357SOL     OW69200   2.768   5.374   4.885  0.1692 -0.3726 -0.2185
21357SOL    HW169201   2.676   5.398   4.890  0.1433 -0.5203  0.0006
21357SOL    HW269202   2.783   5.318   4.961  0.5490  0.0170 -0.0085
21358SOL     OW69203   1.977   1.968   7.952 -0.0242  0.1514 -0.5419
21358SOL    HW169204   2.062   1.992   7.987  1.1475 -1.1330 -2.4135
21358SOL    HW269205   1.996   1.924   7.869 -2.5752  1.0787 -1.6796
21359SOL     OW69206   0.654   2.873   6.010  0.3647 -0.2737 -0.5412
21359SOL    HW169207   0.735   2.922   5.995  0.4439  0.0266  0.8039
21359SOL    HW269208   0.586   2.927   5.971  0.4311  1.0085  1.0864
21360SOL     OW69209   1.294   0.039   4.756 -0.1374 -0.0521 -0.4615
21360SOL    HW169210   1.277  -0.038   4.809  1.2588 -1.4139 -1.9163
21360SOL    HW269211   1.277   0.011   4.666 -1.8971  2.0255 -0.8173
21361SOL     OW69212  10.587   2.770   3.271  0.2393  0.1625  0.2463
21361SOL    HW169213  10.547   2.778   3.358  0.5301  0.9063  0.3169
21361SOL    HW269214  10.669   2.723   3.286 -0.1501 -0.5188  0.2409
21362SOL     OW69215   6.978  10.892   4.071  0.0030 -0.3426  0.1103
21362SOL    HW169216   6.912  10.824   4.083  0.3974 -0.4731  1.7852
21362SOL    HW269217   7.020  10.899   4.157 -0.0538  2.0511 -0.0190
21363SOL     OW69218   0.825   0.496   7.528  0.6739 -0.3367  0.2590
21363SOL    HW169219   0.755   0.435   7.502  0.6482  0.4889 -1.7064
21363SOL    HW269220   0.791   0.583   7.503  1.4048  0.3222  1.5117
21364SOL     OW69221   1.265   2.780   2.390  0.5381 -0.3335  0.0644
21364SOL    HW169222   1.304   2.751   2.473 -0.8551  1.0049  1.2076
21364SOL    HW269223   1.171   2.770   2.403  0.3841 -2.2311 -2.1861
21365SOL     OW69224   8.155   7.106   7.671  0.0697 -0.1422  0.4944
21365SOL    HW169225   8.186   7.041   7.733  0.1388 -2.3236 -1.7593
21365SOL    HW269226   8.204   7.088   7.591 -1.1129  1.6285 -0.6710
21366SOL     OW69227   4.151   1.127   9.499 -0.4644 -0.0066  0.1421
21366SOL    HW169228   4.103   1.045   9.490  0.7747 -0.7860  0.4120
21366SOL    HW269229   4.116   1.168   9.578 -1.0127 -0.3233  0.0637
21367SOL     OW69230   2.637   4.438   1.273 -0.6348 -0.3899  0.9159
21367SOL    HW169231   2.623   4.373   1.203  1.2667 -0.3786  0.4988
21367SOL    HW269232   2.562   4.496   1.266 -1.5254 -1.5925  0.2108
21368SOL     OW69233   8.907   9.992   6.826  0.2216  0.2599 -0.1467
21368SOL    HW169234   8.969  10.018   6.758  0.5958  0.4923  0.2758
21368SOL    HW269235   8.914  10.061   6.892 -0.5178  0.3008 -0.1119
21369SOL     OW69236   0.190   5.067   2.733 -0.4602  0.1706 -0.2111
21369SOL    HW169237   0.162   4.986   2.774  3.0428 -1.0808 -0.1180
21369SOL    HW269238   0.247   5.039   2.661 -0.8265  2.4917 -1.4568
21370SOL     OW69239  10.629   3.938   1.624  0.7078  0.6779 -0.1199
21370SOL    HW169240  10.686   3.889   1.683 -0.6992 -0.9538 -0.0591
21370SOL    HW269241  10.559   3.876   1.602  0.3807  1.7805 -2.2666
21371SOL     OW69242   1.113   8.334   5.521 -0.2214 -0.4860 -0.2080
21371SOL    HW169243   1.165   8.412   5.543  1.3759 -1.4762 -0.3324
21371SOL    HW269244   1.179   8.268   5.497 -1.4669 -2.2657  1.0977
21372SOL     OW69245   6.684   7.192   3.945 -0.6952 -0.0885  0.0629
21372SOL    HW169246   6.754   7.232   3.893  0.4557 -1.1653  0.7323
21372SOL    HW269247   6.615   7.172   3.883 -0.0003  0.1279 -0.7834
21373SOL     OW69248   2.898   6.649   0.128  0.3807  0.1161  0.2283
21373SOL    HW169249   2.981   6.696   0.128  0.6331 -0.3298  0.1219
21373SOL    HW269250   2.836   6.709   0.171  0.2911  1.2569 -1.4480
21374SOL     OW69251   8.637   4.869   8.679 -0.0968  0.5130 -0.0151
21374SOL    HW169252   8.686   4.867   8.762  0.7362 -1.3736 -0.5248
21374SOL    HW269253   8.592   4.954   8.680 -1.2234 -0.0428  3.0128
21375SOL     OW69254  10.216   2.330   1.515  0.3662  0.3148  0.3433
21375SOL    HW169255  10.167   2.249   1.530 -1.9576  2.0076  2.3742
21375SOL    HW269256  10.301   2.314   1.555  0.0498 -1.2685  0.4122
21376SOL     OW69257   6.455   3.166   6.587  0.0995  0.4768  0.3567
21376SOL    HW169258   6.397   3.183   6.513 -0.2896 -1.6098  0.1638
21376SOL    HW269259   6.541   3.198   6.558  0.0757 -0.8040 -1.2366
21377SOL     OW69260  10.725   4.754   8.795  0.2169 -0.4029 -0.6971
21377SOL    HW169261  10.683   4.669   8.780 -0.0856 -0.3833 -0.0092
21377SOL    HW269262  10.652   4.814   8.807  0.4327 -0.2622 -0.0571
21378SOL     OW69263   0.536   1.862   6.974 -0.0832 -0.2692  0.3507
21378SOL    HW169264   0.597   1.933   6.995 -0.9734  0.1323  1.6303
21378SOL    HW269265   0.456   1.906   6.948 -0.9372 -0.7790  2.0164
21379SOL     OW69266   6.111   7.018   1.123 -0.4858 -0.6372 -0.5053
21379SOL    HW169267   6.036   7.074   1.102 -0.4620 -0.1706  0.6272
21379SOL    HW269268   6.127   6.969   1.042 -2.4653 -1.2717 -0.5499
21380SOL     OW69269   7.651   2.232   0.342 -0.0302  0.0941 -0.5217
21380SOL    HW169270   7.581   2.219   0.406  0.6995  1.0284  0.4967
21380SOL    HW269271   7.607   2.269   0.265 -0.9657 -1.3476 -0.6943
21381SOL     OW69272   4.140   2.054   9.347  0.1492 -0.1821  0.1918
21381SOL    HW169273   4.202   2.079   9.416 -0.0564 -2.1786  1.1444
21381SOL    HW269274   4.105   2.137   9.314  1.6788  0.8714  1.1678
21382SOL     OW69275   6.594   4.388   4.885  0.3964 -0.1524  0.8629
21382SOL    HW169276   6.661   4.398   4.817  0.5090 -0.2917  0.9535
21382SOL    HW269277   6.530   4.328   4.848 -0.0372  0.5214  0.5011
21383SOL     OW69278   2.607   9.555   1.772  0.0129  0.0455 -0.4662
21383SOL    HW169279   2.556   9.635   1.763 -0.9137 -0.2624  1.7461
21383SOL    HW269280   2.641   9.558   1.861  2.2760 -0.7117 -1.2669
21384SOL     OW69281   0.821   0.551   2.057 -0.3737  0.0046 -0.3204
21384SOL    HW169282   0.741   0.566   2.007  0.0359 -0.3398 -1.0939
21384SOL    HW269283   0.890   0.548   1.991  0.3556  0.8713  0.4000
21385SOL     OW69284   2.979   1.307   4.163 -0.5129 -0.2361 -0.0015
21385SOL    HW169285   3.047   1.373   4.176  0.8138 -1.3402 -1.2043
21385SOL    HW269286   3.000   1.240   4.228 -1.4612  0.2100  0.7667
21386SOL     OW69287   6.066   1.943   8.777  0.1494 -0.5428  0.3162
21386SOL    HW169288   6.081   2.017   8.717  1.0570 -0.9319  0.0545
21386SOL    HW269289   5.989   1.899   8.742  1.8353 -1.9478 -1.7690
21387SOL     OW69290   5.335   6.621   9.603 -0.1558 -0.2445  0.0033
21387SOL    HW169291   5.374   6.649   9.520 -0.2402 -0.6118 -0.1615
21387SOL    HW269292   5.326   6.702   9.654 -1.3263  0.1900 -0.8613
21388SOL     OW69293   6.497   8.817   2.142 -0.2040  0.4771  0.1498
21388SOL    HW169294   6.500   8.853   2.053  1.0262 -0.3862 -0.1631
21388SOL    HW269295   6.542   8.733   2.135  1.1293  1.0257  1.8904
21389SOL     OW69296   5.771   8.241   7.092  0.4837  0.3231  0.0550
21389SOL    HW169297   5.680   8.216   7.080  1.1257 -2.8292  1.0412
21389SOL    HW269298   5.805   8.252   7.003  0.4414 -3.8438 -0.5842
21390SOL     OW69299   0.937   8.516   2.279  0.0560 -0.1873  0.0212
21390SOL    HW169300   1.010   8.574   2.258  0.1712 -0.4770 -0.3806
21390SOL    HW269301   0.913   8.540   2.369  0.9311 -0.3945  0.3140
21391SOL     OW69302   3.360   1.749   1.320  0.3096  0.4183  0.1019
21391SOL    HW169303   3.441   1.701   1.299  0.2162 -0.0566  0.8106
21391SOL    HW269304   3.315   1.694   1.384 -0.7547  0.5101 -0.5607
21392SOL     OW69305   5.958   6.833   1.482 -0.3202  0.1077 -0.1628
21392SOL    HW169306   6.014   6.831   1.559 -1.7551  0.8149  0.9252
21392SOL    HW269307   5.931   6.742   1.470 -1.2393  0.2113  1.0438
21393SOL     OW69308   2.830   0.520   8.892 -0.3566  0.4670  0.5110
21393SOL    HW169309   2.869   0.592   8.842 -3.5023  2.1955  0.4150
21393SOL    HW269310   2.838   0.547   8.983  0.6045 -0.2086  0.6341
21394SOL     OW69311  10.142   9.131   8.516  0.0365 -0.1284  0.4326
21394SOL    HW169312  10.180   9.128   8.428 -1.7846  1.3899 -0.4463
21394SOL    HW269313  10.210   9.170   8.571  1.1906 -1.0844 -0.2983
21395SOL     OW69314   1.855  10.845   0.822  0.0681 -0.1449  0.2322
21395SOL    HW169315   1.795  10.832   0.749 -0.6476  1.3225  0.5291
21395SOL    HW269316   1.801  10.829   0.900  0.7242 -1.3157  0.4508
21396SOL     OW69317  10.723   7.905   2.202  0.3703 -0.5029 -0.1603
21396SOL    HW169318  10.775   7.867   2.132  1.8313 -0.8847  1.1009
21396SOL    HW269319  10.787   7.941   2.263 -0.9214  1.5012  0.0718
21397SOL     OW69320   7.323   3.687   9.579  0.1670  0.3126  0.1342
21397SOL    HW169321   7.388   3.699   9.649  0.4225  1.1022 -0.2347
21397SOL    HW269322   7.370   3.639   9.511 -0.3251 -1.2136  0.8436
21398SOL     OW69323   9.781   4.047   9.141  0.1282  0.5221  0.1999
21398SOL    HW169324   9.761   3.965   9.187  0.2136  0.3564 -0.0559
21398SOL    HW269325   9.702   4.100   9.153 -0.2999  0.0360 -0.4299
21399SOL     OW69326   5.231   5.734   7.936  0.6148  0.3793  0.2647
21399SOL    HW169327   5.281   5.684   8.000 -0.9073  1.5650  2.4384
21399SOL    HW269328   5.161   5.675   7.909  1.0633 -0.0006 -0.0862
21400SOL     OW69329   2.190   2.809   7.353 -0.5375 -0.3804 -0.3222
21400SOL    HW169330   2.263   2.756   7.386  0.3938  1.3329  0.3993
21400SOL    HW269331   2.152   2.849   7.431  0.2314  1.8911 -1.0987
21401SOL     OW69332  11.332   1.776   6.915 -0.1610 -0.0594  0.3153
21401SOL    HW169333  11.250   1.816   6.889  0.7245  1.8667  0.3527
21401SOL    HW269334  11.396   1.808   6.852  0.9771  0.3378  1.6238
21402SOL     OW69335   8.538   2.394   1.348 -0.3246 -0.0663 -0.3933
21402SOL    HW169336   8.626   2.371   1.317  0.5677  0.6967  1.4823
21402SOL    HW269337   8.516   2.324   1.410 -1.0149 -0.2028 -0.7882
21403SOL     OW69338   3.687   9.034   7.022 -0.2141  0.3508 -0.1905
21403SOL    HW169339   3.604   8.993   7.044 -0.8760  2.4327  1.3490
21403SOL    HW269340   3.675   9.066   6.932  0.0362 -2.0520 -1.1030
21404SOL     OW69341   9.905   4.694   9.023  0.0128  0.1976  0.3876
21404SOL    HW169342   9.865   4.761   8.968  0.9728 -0.1436 -0.7512
21404SOL    HW269343   9.838   4.673   9.088 -1.2469  0.4061 -0.8271
21405SOL     OW69344   2.050   5.152   3.669  0.3057  0.2397 -0.7850
21405SOL    HW169345   2.115   5.106   3.722  1.6096  1.4847 -1.2882
21405SOL    HW269346   2.032   5.093   3.596  0.5418 -0.2942 -0.4169
21406SOL     OW69347   0.997   0.650   8.721 -0.2619 -0.0093 -0.2109
21406SOL    HW169348   0.940   0.606   8.658  1.2170 -0.4760 -1.2288
21406SOL    HW269349   1.084   0.613   8.706  0.0056 -0.6375  2.5703
21407SOL     OW69350   9.043  10.343   6.287  0.0489 -0.2285 -0.6269
21407SOL    HW169351   9.045  10.352   6.192 -1.3176  0.9891 -0.5678
21407SOL    HW269352   9.092  10.419   6.319 -2.1890  1.1302 -0.3198
21408SOL     OW69353   6.176   1.028   6.783 -0.1888  0.5662  0.0102
21408SOL    HW169354   6.150   0.938   6.802 -2.0027  1.1893  0.5811
21408SOL    HW269355   6.179   1.071   6.868  3.0510  0.4724 -0.0027
21409SOL     OW69356   7.665   9.601   0.740 -0.0539 -0.5311 -0.2601
21409SOL    HW169357   7.730   9.587   0.671 -0.8308 -0.8395 -0.9420
21409SOL    HW269358   7.581   9.596   0.695 -0.5408  0.3912  0.5204
21410SOL     OW69359  10.162   0.297   2.206  0.0458  0.1589  0.2513
21410SOL    HW169360  10.066   0.295   2.208 -0.0117  1.6738 -0.3865
21410SOL    HW269361  10.183   0.328   2.118  1.1120  0.2280  0.5336
21411SOL     OW69362   6.594   7.487   9.758 -0.4549 -0.6212 -0.2751
21411SOL    HW169363   6.597   7.539   9.838 -0.8441 -0.6248 -0.2555
21411SOL    HW269364   6.545   7.542   9.696  0.8056 -0.1378 -0.8624
21412SOL     OW69365   2.906   2.639   0.544  0.6026 -0.4038 -0.0829
21412SOL    HW169366   2.972   2.595   0.598  0.8843 -0.8642 -0.7879
21412SOL    HW269367   2.831   2.579   0.544  0.6311 -0.4399 -0.2644
21413SOL     OW69368   0.930   6.486   5.749  0.5448 -0.0309  0.1994
21413SOL    HW169369   0.961   6.402   5.783  0.8259  0.3407  0.8774
21413SOL    HW269370   0.904   6.468   5.658  1.9114 -0.5357 -0.0896
21414SOL     OW69371   9.672   5.569   5.615  0.5717 -0.2136  0.4662
21414SOL    HW169372   9.592   5.529   5.581  0.0230 -0.0845  1.5910
21414SOL    HW269373   9.642   5.648   5.661  1.3215 -0.2525  1.0307
21415SOL     OW69374   0.173   3.300   2.161  0.1504  0.2246 -0.1338
21415SOL    HW169375   0.193   3.323   2.252 -0.7772  0.2031  0.0830
21415SOL    HW269376   0.145   3.209   2.164  1.0340 -0.0642 -0.5814
21416SOL     OW69377   5.158   3.942   3.431  0.2159  0.0898  0.7739
21416SOL    HW169378   5.174   4.031   3.398  0.6238  0.3270  1.6179
21416SOL    HW269379   5.189   3.885   3.361  1.1171  0.5974  0.7566
21417SOL     OW69380   8.679   3.753   5.165  0.2085  0.5057  0.0014
21417SOL    HW169381   8.731   3.750   5.245 -1.1225 -1.3517  0.8151
21417SOL    HW269382   8.659   3.662   5.145  0.9004  0.8889 -2.7159
21418SOL     OW69383   0.973   9.469   3.380  0.0236 -0.6546  0.2136
21418SOL    HW169384   0.936   9.414   3.449  2.3233 -1.1660  1.1066
21418SOL    HW269385   0.942   9.557   3.400 -0.8763 -1.1021  0.8011
21419SOL     OW69386   8.488   0.689   6.839 -0.1063  0.0808  0.4279
21419SOL    HW169387   8.484   0.773   6.793  0.8666 -1.2910 -2.2268
21419SOL    HW269388   8.402   0.649   6.823  0.9937 -1.3667 -2.1942
21420SOL     OW69389   5.663   4.948   6.682 -0.2363  0.4151 -0.1721
21420SOL    HW169390   5.700   4.978   6.599 -2.8066  1.4239 -1.0037
21420SOL    HW269391   5.628   5.027   6.722  1.2832 -0.0204  2.0698
21421SOL     OW69392   8.538   9.957   6.335  0.0578  0.0534 -0.4877
21421SOL    HW169393   8.591   9.973   6.413 -0.2093 -0.1491 -0.2637
21421SOL    HW269394   8.448   9.961   6.366 -0.0331 -1.2710 -0.5378
21422SOL     OW69395   3.415   3.990   7.501  0.4768 -0.2733 -0.0708
21422SOL    HW169396   3.450   3.925   7.441  1.2405  0.8011 -0.8095
21422SOL    HW269397   3.468   3.981   7.580  1.5337  0.4180 -0.6931
21423SOL     OW69398   9.478   6.175   3.068  0.1685  0.1035  0.7416
21423SOL    HW169399   9.533   6.206   2.997  0.0022  0.2954  0.6960
21423SOL    HW269400   9.517   6.091   3.094  0.0167 -0.1425  0.1835
21424SOL     OW69401   7.815   0.740   5.989  0.1708 -0.8113 -0.3919
21424SOL    HW169402   7.760   0.787   6.051  1.5300 -0.1090  0.3207
21424SOL    HW269403   7.755   0.684   5.940 -1.3592  0.9987 -0.6230
21425SOL     OW69404   8.414   8.355   9.832  0.0606 -0.2032 -0.1102
21425SOL    HW169405   8.377   8.298   9.765 -0.5566  1.1464 -0.9392
21425SOL    HW269406   8.490   8.395   9.790 -0.1344  0.3946  0.1057
21426SOL     OW69407  10.728   2.456   8.910 -0.5977 -0.0612  0.5026
21426SOL    HW169408  10.820   2.440   8.933 -0.5735  1.0740  1.2633
21426SOL    HW269409  10.686   2.477   8.994 -1.2456  0.8072 -0.0298
21427SOL     OW69410   0.096   3.653   4.866  0.0826 -0.0750  0.1351
21427SOL    HW169411   0.063   3.725   4.812  0.1682 -1.6336 -2.0404
21427SOL    HW269412   0.017   3.611   4.901 -0.0551 -0.2903 -0.4286
21428SOL     OW69413   0.696   2.672   8.225 -0.1790 -0.0288 -0.0470
21428SOL    HW169414   0.731   2.703   8.308  1.1026  0.3650 -0.7271
21428SOL    HW269415   0.726   2.582   8.218 -0.1593 -0.0141 -0.1518
21429SOL     OW69416   3.113   8.302   4.940 -0.1732 -0.2696  0.0730
21429SOL    HW169417   3.021   8.285   4.958 -0.2690  1.4034  1.2640
21429SOL    HW269418   3.160   8.256   5.009 -0.2919  1.7153  1.5024
21430SOL     OW69419   2.395   7.919   4.691 -0.2323 -0.2955 -0.4054
21430SOL    HW169420   2.470   7.977   4.697  0.5377 -1.3084 -0.2118
21430SOL    HW269421   2.429   7.832   4.712 -1.2382 -0.9357 -1.3549
21431SOL     OW69422   8.785   5.459   2.696  0.2572 -0.0055  0.2757
21431SOL    HW169423   8.783   5.381   2.752  1.3607 -0.4230 -0.2696
21431SOL    HW269424   8.828   5.525   2.750  1.6323 -0.5061 -0.2010
21432SOL     OW69425   9.019  10.396   1.320  0.0197 -0.7571  0.0137
21432SOL    HW169426   8.988  10.480   1.352  1.0124  0.3131 -1.7408
21432SOL    HW269427   9.104  10.384   1.361 -0.1024 -0.8983  0.2266
21433SOL     OW69428   0.946   4.670   7.369 -0.2243  0.0807  0.1618
21433SOL    HW169429   0.883   4.732   7.407  1.8957  0.9806  2.3409
21433SOL    HW269430   0.919   4.585   7.403 -0.5013  0.4184  0.8024
21434SOL     OW69431   0.349   2.511   7.716 -0.5706 -0.1261 -0.2344
21434SOL    HW169432   0.262   2.506   7.755  0.1725 -0.1425  1.4868
21434SOL    HW269433   0.400   2.445   7.764  0.5991  0.4806 -0.6308
21435SOL     OW69434   9.636   3.330  10.546 -0.0656  0.2718 -0.0637
21435SOL    HW169435   9.588   3.249  10.564  2.9557 -1.1287  2.1288
21435SOL    HW269436   9.680   3.314  10.462 -2.2846  1.0854 -1.4419
21436SOL     OW69437   4.857  11.176   5.014  0.5226 -0.4839 -0.2706
21436SOL    HW169438   4.903  11.093   5.025 -1.0181 -1.3719 -0.2499
21436SOL    HW269439   4.781  11.168   5.072  0.1209  0.7667 -0.6121
21437SOL     OW69440   8.589   3.961   6.897  0.4340  0.5296 -0.6108
21437SOL    HW169441   8.571   3.988   6.988  0.0946 -0.3799 -0.3966
21437SOL    HW269442   8.684   3.957   6.891  0.4483 -0.6981  0.1158
21438SOL     OW69443   4.839   6.952   4.611  0.9253  0.1936 -0.1980
21438SOL    HW169444   4.907   6.951   4.679  0.5006  1.4055  0.2560
21438SOL    HW269445   4.857   7.030   4.559 -0.8799  1.2559  0.7194
21439SOL     OW69446   4.886   0.457   6.433  0.7124 -0.0286  0.1404
21439SOL    HW169447   4.911   0.450   6.525  1.5385  1.4332  0.0422
21439SOL    HW269448   4.844   0.543   6.427 -1.1603 -0.9639 -0.4362
21440SOL     OW69449   4.072   6.218   9.102 -0.4333 -0.2468  0.2058
21440SOL    HW169450   3.998   6.167   9.135 -0.2913 -0.5787  0.0200
21440SOL    HW269451   4.082   6.189   9.012 -0.0087 -0.2810  0.2634
21441SOL     OW69452  11.127   5.730   5.254 -0.1097 -0.0075  0.1998
21441SOL    HW169453  11.043   5.769   5.227 -0.6160  1.0273  3.1056
21441SOL    HW269454  11.108   5.637   5.263 -1.0879  0.2915  1.3146
21442SOL     OW69455   0.516   3.522   7.147  0.6961  0.0547 -0.0533
21442SOL    HW169456   0.573   3.599   7.142  0.2480  0.4055  0.1315
21442SOL    HW269457   0.432   3.552   7.110  0.0772  0.0819  1.3280
21443SOL     OW69458   5.861   1.258   8.333  0.1667 -0.6899 -0.4651
21443SOL    HW169459   5.891   1.333   8.282 -0.1069 -0.1210  0.2026
21443SOL    HW269460   5.779   1.287   8.373 -0.3661 -1.6306 -0.8551
21444SOL     OW69461   5.659   7.092   3.503  0.0239  0.4710  0.3210
21444SOL    HW169462   5.730   7.092   3.567 -0.6570  0.5344  1.0818
21444SOL    HW269463   5.703   7.087   3.418  0.9404  0.6546  0.7825
21445SOL     OW69464   0.419   9.600   5.746  0.1152 -0.4026 -0.5856
21445SOL    HW169465   0.478   9.543   5.795  0.1981  0.9085  0.8632
21445SOL    HW269466   0.454   9.599   5.657  1.2758 -1.0455 -0.1378
21446SOL     OW69467   1.771   3.428   3.099 -0.1898  0.0326 -0.0741
21446SOL    HW169468   1.716   3.383   3.035 -1.6125  1.3669  0.1904
21446SOL    HW269469   1.804   3.357   3.156 -0.8016 -0.8870 -0.8474
21447SOL     OW69470   4.001   5.745   7.055 -0.2785  0.1488 -0.3126
21447SOL    HW169471   3.916   5.728   7.013 -0.8495 -2.5099  1.7949
21447SOL    HW269472   3.982   5.808   7.124 -0.4883 -0.2329 -0.0221
21448SOL     OW69473   0.358   1.279   0.537 -0.1717  0.4035 -0.3926
21448SOL    HW169474   0.267   1.294   0.563 -0.4102 -0.5236 -0.6639
21448SOL    HW269475   0.406   1.354   0.571 -0.9013  0.4819  0.4715
21449SOL     OW69476   0.222   7.168   0.475  0.1000 -0.6684 -0.0955
21449SOL    HW169477   0.167   7.144   0.549  1.4825 -1.3536  0.7312
21449SOL    HW269478   0.161   7.201   0.409 -1.1606 -0.1045  1.3171
21450SOL     OW69479   4.518   0.695   9.480  0.0158  0.2748  0.1839
21450SOL    HW169480   4.514   0.758   9.408  0.4625  0.8828  0.6847
21450SOL    HW269481   4.469   0.735   9.551  0.8651  0.3709  0.7313
21451SOL     OW69482   1.476   7.925   0.030  0.4012  0.4031 -0.2857
21451SOL    HW169483   1.430   8.009   0.034  0.9863  0.7716 -1.1535
21451SOL    HW269484   1.560   7.945  -0.011  0.2853 -0.7105 -1.1050
21452SOL     OW69485   3.425   4.203   4.104 -0.3824  0.4282  0.4573
21452SOL    HW169486   3.417   4.290   4.141  0.9655  1.2816 -1.1636
21452SOL    HW269487   3.471   4.216   4.021 -1.6409 -1.6293 -0.6178
21453SOL     OW69488   5.096   1.694   6.333 -0.0507  0.3320 -0.2581
21453SOL    HW169489   5.005   1.676   6.309 -0.4707  1.1943  0.6776
21453SOL    HW269490   5.103   1.665   6.424  0.3873  1.0322 -0.0668
21454SOL     OW69491  10.672   0.316   9.779  0.0583 -0.0748 -0.4075
21454SOL    HW169492  10.605   0.359   9.726 -0.4541 -2.5017 -1.7711
21454SOL    HW269493  10.647   0.224   9.780  2.7401 -0.8342  0.0211
21455SOL     OW69494   2.375  11.031   4.335 -0.0341 -0.0605 -0.1944
21455SOL    HW169495   2.380  11.009   4.429  2.7568 -0.5772 -0.4145
21455SOL    HW269496   2.412  11.119   4.329  1.4928 -0.7330 -1.0044
21456SOL     OW69497  10.200   6.351   7.568  0.3035  0.5266 -0.0206
21456SOL    HW169498  10.271   6.411   7.588  0.6792  0.0226  0.1529
21456SOL    HW269499  10.162   6.385   7.486  1.8610 -0.2163 -1.0727
21457SOL     OW69500   5.194   3.236   2.269  1.0017 -0.4282  0.5263
21457SOL    HW169501   5.283   3.222   2.236  0.8609 -0.3856  0.1247
21457SOL    HW269502   5.150   3.283   2.198 -0.2262 -3.1292 -0.5496
21458SOL     OW69503   4.338   3.889   6.825 -0.0877  0.0802 -0.2563
21458SOL    HW169504   4.373   3.963   6.775 -0.0256  1.7296  2.1556
21458SOL    HW269505   4.364   3.812   6.775  0.6055  1.6417 -2.3662
21459SOL     OW69506  10.150   5.422   5.363  0.1748  0.2076 -0.2268
21459SOL    HW169507  10.139   5.384   5.276 -0.2849 -1.0676  0.3903
21459SOL    HW269508  10.158   5.348   5.422  0.7264  1.0656  0.8066
21460SOL     OW69509  10.790   3.491   3.565  0.3150 -0.5803 -0.4801
21460SOL    HW169510  10.836   3.531   3.639  0.6979  0.5264 -1.3079
21460SOL    HW269511  10.728   3.431   3.606 -0.0905  0.6648  0.7800
21461SOL     OW69512  10.671   3.439   8.880  0.1700  0.1643  0.2560
21461SOL    HW169513  10.665   3.383   8.802 -0.9812  0.2622  0.2674
21461SOL    HW269514  10.751   3.410   8.923  1.1378  0.5070 -1.2674
21462SOL     OW69515   2.140  11.195   0.456  0.0104 -0.4463 -0.0051
21462SOL    HW169516   2.198  11.199   0.531  1.2054 -2.9612 -0.7506
21462SOL    HW269517   2.198  11.203   0.380 -1.0112  0.5374 -0.6951
21463SOL     OW69518   9.812   9.061   8.195  0.3545  0.0725 -0.6623
21463SOL    HW169519   9.832   9.140   8.145 -1.0656  0.0974 -1.2048
21463SOL    HW269520   9.833   9.084   8.285 -1.7926  1.7241 -0.5283
21464SOL     OW69521   9.341   6.550   1.059  1.0742  0.1226 -0.0039
21464SOL    HW169522   9.394   6.591   0.990  0.8207  0.0529 -0.2382
21464SOL    HW269523   9.251   6.571   1.037  1.0686  1.3392  1.1079
21465SOL     OW69524   7.833   7.818   2.610  0.4977  0.2569  0.7205
21465SOL    HW169525   7.921   7.847   2.586  0.0877  1.0671  0.1681
21465SOL    HW269526   7.813   7.866   2.690 -0.1634  1.4935 -0.1686
21466SOL     OW69527   8.315  10.889   2.627  0.6442 -0.0868  0.6262
21466SOL    HW169528   8.352  10.810   2.587  2.2787  1.3531 -0.7661
21466SOL    HW269529   8.300  10.948   2.553 -0.8806  0.7970  1.6246
21467SOL     OW69530  10.175   5.173   3.502  0.1172  0.2763  0.6755
21467SOL    HW169531  10.091   5.221   3.506 -0.9648 -1.6625  2.3644
21467SOL    HW269532  10.199   5.175   3.410 -1.0630  2.0791  0.3628
21468SOL     OW69533   0.741   9.661   4.030  0.7914 -0.2798 -0.0969
21468SOL    HW169534   0.650   9.668   4.058  0.8759  1.0885 -0.1040
21468SOL    HW269535   0.790   9.649   4.111  0.7800  1.0176  0.1241
21469SOL     OW69536   4.223   3.545   5.582 -0.1733 -0.0626 -0.3304
21469SOL    HW169537   4.240   3.580   5.669  1.2026  1.7504 -1.3059
21469SOL    HW269538   4.132   3.567   5.565  0.2929  1.8963 -0.3874
21470SOL     OW69539   9.340   5.070   4.083  0.0864 -0.0462 -0.1464
21470SOL    HW169540   9.349   5.041   3.992 -1.4191 -0.7327 -0.0850
21470SOL    HW269541   9.316   4.991   4.131  2.9342 -0.1399  1.2198
21471SOL     OW69542   7.207   4.164   7.584 -0.2624 -0.5539  0.6680
21471SOL    HW169543   7.255   4.237   7.542 -0.7037 -1.1448 -0.9156
21471SOL    HW269544   7.127   4.204   7.616  0.1784 -0.0415  1.1469
21472SOL     OW69545   5.908   5.572  10.561 -0.5065  0.5513 -0.4874
21472SOL    HW169546   5.961   5.626  10.503  0.1450  1.1930  0.6887
21472SOL    HW269547   5.819   5.603  10.547 -0.2721  1.1734 -0.6394
21473SOL     OW69548   8.122   2.337  11.254  0.0862 -0.0261 -0.0804
21473SOL    HW169549   8.197   2.396  11.254  0.4632 -0.5016  1.0877
21473SOL    HW269550   8.072   2.360  11.332 -0.2920 -0.5921 -0.1490
21474SOL     OW69551   9.035   1.855   5.895  0.5848  0.1109 -0.3508
21474SOL    HW169552   9.118   1.879   5.937 -0.2213  1.9559  0.2446
21474SOL    HW269553   9.027   1.917   5.822 -0.3488  0.0526 -0.3003
21475SOL     OW69554   1.548   0.108   6.047  0.2471  0.4883  0.1632
21475SOL    HW169555   1.576   0.199   6.041 -1.0067  0.9046  0.3515
21475SOL    HW269556   1.526   0.095   6.139  2.5623 -0.6861  0.5851
21476SOL     OW69557   1.711   7.823   4.525 -0.2151 -0.0644 -0.3321
21476SOL    HW169558   1.624   7.787   4.540 -0.1995  0.2281  0.4969
21476SOL    HW269559   1.709   7.856   4.435 -0.7209 -0.7234 -0.5640
21477SOL     OW69560   0.917   3.563   4.785 -0.0006  0.1468  0.2082
21477SOL    HW169561   0.823   3.546   4.778 -0.2033  1.6231 -0.7676
21477SOL    HW269562   0.923   3.647   4.829  0.9234 -0.7658  1.8789
21478SOL     OW69563   1.386   8.711   7.865  0.4202  0.4361 -0.4003
21478SOL    HW169564   1.479   8.713   7.840  0.1823  2.1297 -1.2509
21478SOL    HW269565   1.373   8.625   7.904  2.1001 -0.2298 -1.2736
21479SOL     OW69566   6.410   3.370   9.833 -0.2138 -0.5505  0.6479
21479SOL    HW169567   6.321   3.333   9.837 -0.5627  0.2624  0.5965
21479SOL    HW269568   6.439   3.351   9.744 -0.8252  0.2725  0.2646
21480SOL     OW69569   3.920   4.840   2.539  0.1672  0.4743 -0.2359
21480SOL    HW169570   3.824   4.837   2.532  0.1503 -0.3300  0.2075
21480SOL    HW269571   3.951   4.830   2.449 -0.1794  2.0263 -0.5310
21481SOL     OW69572   5.706   3.672   2.100 -0.1937 -0.1344 -0.2556
21481SOL    HW169573   5.675   3.762   2.088  1.6126  0.3629 -1.3244
21481SOL    HW269574   5.731   3.643   2.013  2.6139 -0.4050  0.5864
21482SOL     OW69575   9.876   5.436   3.953  0.8317  0.1255 -0.3959
21482SOL    HW169576   9.940   5.371   3.922  0.5794  0.0010 -0.6619
21482SOL    HW269577   9.832   5.394   4.026  0.5609 -0.0634 -0.6674
21483SOL     OW69578   1.366   9.607   2.959  0.3944  0.0120  0.0585
21483SOL    HW169579   1.360   9.552   2.881 -1.9805  1.2997 -0.7286
21483SOL    HW269580   1.312   9.563   3.024 -1.6401  1.4003 -0.6227
21484SOL     OW69581   5.246   7.588   1.007 -0.1979 -0.3749 -0.1779
21484SOL    HW169582   5.223   7.510   0.958 -2.3180 -1.1532  1.9529
21484SOL    HW269583   5.332   7.568   1.045 -0.7379 -1.6830  0.3690
21485SOL     OW69584   1.521   6.942   1.147 -0.1539  0.0835 -0.4705
21485SOL    HW169585   1.563   6.938   1.061 -2.3651 -0.8380 -1.5358
21485SOL    HW269586   1.578   6.892   1.204  2.3326  2.2546 -0.9503
21486SOL     OW69587  11.025   6.823   2.051  0.5717  0.2468  0.3961
21486SOL    HW169588  11.111   6.805   2.013  0.1740 -0.1953 -0.3201
21486SOL    HW269589  11.020   6.918   2.054  0.3631  0.3119 -1.2709
21487SOL     OW69590   4.679   5.242   5.554 -0.1017 -0.8776  0.2855
21487SOL    HW169591   4.628   5.199   5.622 -3.4627  1.6704 -0.4909
21487SOL    HW269592   4.712   5.322   5.595  0.6707 -0.9964 -0.0983
21488SOL     OW69593   2.260   0.933   0.207 -0.2267  0.0465 -0.2219
21488SOL    HW169594   2.165   0.924   0.198 -0.1720  0.4809 -1.3695
21488SOL    HW269595   2.277   0.921   0.300 -1.5629  1.4146  0.2094
21489SOL     OW69596   4.332   7.406  10.798 -0.3199 -0.5997 -0.1767
21489SOL    HW169597   4.381   7.426  10.878 -0.8006 -1.3087  0.2966
21489SOL    HW269598   4.376   7.330  10.761  0.8126  0.6202 -1.3840
21490SOL     OW69599   4.742   3.894   4.621  0.0041  0.3420 -0.4800
21490SOL    HW169600   4.768   3.944   4.699  1.5077 -0.7644 -0.2391
21490SOL    HW269601   4.824   3.881   4.574 -0.4574 -1.4906 -0.7772
21491SOL     OW69602   6.016   5.278   4.320  0.1934 -0.3638  0.1199
21491SOL    HW169603   6.013   5.256   4.414 -3.9085 -1.4241 -0.1477
21491SOL    HW269604   6.101   5.319   4.308  0.7683 -0.0288  4.3715
21492SOL     OW69605   9.908   1.356   8.171  0.1670 -0.4843  0.4256
21492SOL    HW169606   9.831   1.305   8.197 -1.1717  1.2533 -0.0933
21492SOL    HW269607   9.903   1.360   8.076 -0.2135  1.3629  0.5127
21493SOL     OW69608   9.506   8.272   0.526 -0.1254 -0.5113  0.4276
21493SOL    HW169609   9.469   8.335   0.464 -0.5556 -0.3489  0.8431
21493SOL    HW269610   9.596   8.303   0.540  0.4642 -1.4020 -1.2367
21494SOL     OW69611   9.395  10.062  10.583  0.2291 -0.1641  0.7207
21494SOL    HW169612   9.357  10.109  10.657  0.4919 -0.2181  0.8904
21494SOL    HW269613   9.455  10.125  10.543 -0.8235  0.2686 -0.1744
21495SOL     OW69614  11.132  10.307   1.967 -0.0008  0.1075 -0.1377
21495SOL    HW169615  11.065  10.372   1.989  0.0319  0.5900 -1.4077
21495SOL    HW269616  11.083  10.231   1.936  0.0152  0.2321 -0.4696
21496SOL     OW69617   1.800   5.859   1.329  0.3188  0.3074 -0.0265
21496SOL    HW169618   1.781   5.813   1.247 -0.4015 -0.8605  0.7835
21496SOL    HW269619   1.878   5.911   1.309  2.1989 -2.6053 -0.4653
21497SOL     OW69620   3.640   0.122   4.469  0.3008  0.0908  0.1285
21497SOL    HW169621   3.684   0.037   4.457 -1.4649 -0.9082  0.4911
21497SOL    HW269622   3.707   0.187   4.448  0.9168 -1.4259 -2.7916
21498SOL     OW69623   3.852   3.008   1.399  0.0966  0.2586  0.5877
21498SOL    HW169624   3.774   3.052   1.364  0.6802 -0.5896 -1.7963
21498SOL    HW269625   3.829   2.989   1.490 -2.5897 -0.2248 -0.1593
21499SOL     OW69626   0.949  10.234   8.046 -0.3132 -0.4183 -0.0026
21499SOL    HW169627   0.855  10.232   8.030 -0.3889  0.2792  0.2922
21499SOL    HW269628   0.981  10.305   7.990 -0.3736  1.0843  1.8176
21500SOL     OW69629   7.223   3.898   2.026 -0.1598  0.0155 -0.0753
21500SOL    HW169630   7.308   3.878   1.987  0.7910  1.8693  0.9873
21500SOL    HW269631   7.240   3.906   2.120 -1.3111  1.3868  0.0439
21501SOL     OW69632   0.289  11.128   8.264  0.2640 -0.2663 -0.2103
21501SOL    HW169633   0.375  11.156   8.233  0.5762 -0.2030  0.6990
21501SOL    HW269634   0.284  11.036   8.241  1.2221 -0.6668  1.1290
21502SOL     OW69635   1.335   9.962   4.294 -0.3494  0.2737  0.1321
21502SOL    HW169636   1.390   9.926   4.363 -0.0455  0.3980 -0.0450
21502SOL    HW269637   1.325   9.890   4.231 -0.5417  0.1927  0.2515
21503SOL     OW69638   1.727  10.089   8.704  0.0402 -0.1415  0.2931
21503SOL    HW169639   1.705  10.183   8.708  0.7186  0.0167  0.3147
21503SOL    HW269640   1.678  10.050   8.776  0.9310  0.4294  1.2071
21504SOL     OW69641   0.811   6.535   2.091 -0.0415  0.1325  0.1261
21504SOL    HW169642   0.792   6.448   2.055  1.5906 -0.8851  1.7029
21504SOL    HW269643   0.725   6.578   2.095 -0.6575 -0.8297 -2.0961
21505SOL     OW69644   1.922  10.983   1.636 -0.1394  0.0284  0.2461
21505SOL    HW169645   1.980  10.908   1.645 -0.2686 -0.3716 -2.0139
21505SOL    HW269646   1.954  11.046   1.701  0.4927 -1.6305  1.5667
21506SOL     OW69647   8.954   3.398   9.626  0.1140 -0.6607  0.5766
21506SOL    HW169648   8.989   3.388   9.715  1.0193  0.1402  0.3266
21506SOL    HW269649   8.990   3.481   9.596 -2.4172  0.4389  0.4678
21507SOL     OW69650   5.944  10.133   8.912  0.6157  0.7586 -0.0792
21507SOL    HW169651   5.965  10.120   8.820 -3.5153 -1.8418 -0.7897
21507SOL    HW269652   6.021  10.178   8.949  3.5261 -0.7010 -4.0911
21508SOL     OW69653   7.321   1.705   0.644 -0.4533 -0.0285 -0.1685
21508SOL    HW169654   7.280   1.779   0.689 -1.1983 -0.2745 -0.4367
21508SOL    HW269655   7.351   1.648   0.715 -0.9571 -0.0544  0.0242
21509SOL     OW69656   1.528  10.917   0.274 -0.2123  0.2940 -0.0235
21509SOL    HW169657   1.592  10.986   0.262  1.7578 -1.4810 -0.0079
21509SOL    HW269658   1.462  10.932   0.206  0.2654  2.0722 -0.1034
21510SOL     OW69659   0.145   2.114   6.951 -0.4413 -0.5527 -0.0770
21510SOL    HW169660   0.114   2.189   6.900  0.2017 -0.1415  0.1296
21510SOL    HW269661   0.185   2.056   6.886  1.3629  0.4750  0.0761
21511SOL     OW69662   2.329   5.917   5.401  0.1300 -0.0566  0.1078
21511SOL    HW169663   2.240   5.944   5.422  0.4086  1.1713 -0.2628
21511SOL    HW269664   2.350   5.849   5.465 -0.0374  1.6566  2.0197
21512SOL     OW69665   1.277   2.784   0.380  0.1897  0.1346  0.7629
21512SOL    HW169666   1.307   2.875   0.386 -0.7263  0.6087 -1.3633
21512SOL    HW269667   1.235   2.768   0.464 -0.4553  1.9923  0.8345
21513SOL     OW69668  10.200  10.759   9.877 -0.0818 -0.0673 -0.1571
21513SOL    HW169669  10.175  10.845   9.909 -0.0832 -0.1627  0.0952
21513SOL    HW269670  10.288  10.745   9.911 -0.5470 -0.6822  0.8165
21514SOL     OW69671   5.120   8.462   3.368 -0.1918  0.1508 -0.1765
21514SOL    HW169672   5.080   8.456   3.282  0.5456 -0.5496 -0.4816
21514SOL    HW269673   5.057   8.510   3.421 -0.4014  1.0757 -1.2556
21515SOL     OW69674   8.016   4.117   3.936  0.3742 -0.2990  0.0245
21515SOL    HW169675   8.031   4.162   4.019 -2.1750 -0.3320  0.5359
21515SOL    HW269676   8.050   4.178   3.870  1.4717  0.1850  1.0168
21516SOL     OW69677   1.130   1.193   1.624  0.0857 -0.6322  0.3988
21516SOL    HW169678   1.086   1.151   1.698  1.9017  0.4266  2.1688
21516SOL    HW269679   1.160   1.277   1.659  1.4268 -0.3179 -1.4034
21517SOL     OW69680   7.572   8.684   4.061  0.0582 -0.1830  0.6202
21517SOL    HW169681   7.664   8.689   4.084 -0.0443 -1.9755  1.5005
21517SOL    HW269682   7.542   8.775   4.060  2.1266  0.4929 -0.9555
21518SOL     OW69683  11.251   4.125   9.947  0.1504  0.0606 -0.7278
21518SOL    HW169684  11.324   4.168   9.991 -0.0412  0.6529 -0.9798
21518SOL    HW269685  11.203   4.080  10.016  1.0243 -0.7223 -0.6262
21519SOL     OW69686   6.250   4.749   1.898  0.4391 -0.3198 -0.0907
21519SOL    HW169687   6.231   4.827   1.950 -0.4675 -1.8942  2.0291
21519SOL    HW269688   6.168   4.729   1.853  1.3999  1.4212 -2.7720
21520SOL     OW69689   4.409   5.896  10.087 -0.1413  0.1626  0.0604
21520SOL    HW169690   4.431   5.806  10.061 -0.4903 -0.1877  0.9502
21520SOL    HW269691   4.320   5.909  10.053  0.4657  0.6893 -1.3399
21521SOL     OW69692   0.176   7.371   0.931 -0.2770 -0.2167 -0.0671
21521SOL    HW169693   0.213   7.402   0.848  2.8877  1.4473  1.8379
21521SOL    HW269694   0.082   7.382   0.921  0.2247  2.6488 -2.3912
21522SOL     OW69695   4.816   6.257   4.813 -0.6887 -0.1261  0.0830
21522SOL    HW169696   4.875   6.332   4.805  0.8735 -1.1190  1.7625
21522SOL    HW269697   4.832   6.206   4.734 -0.4014  0.3708 -0.1883
21523SOL     OW69698   1.059   5.268   6.637 -0.2510 -0.0804 -0.3821
21523SOL    HW169699   1.033   5.187   6.593 -0.8166 -0.0200 -0.1693
21523SOL    HW269700   1.154   5.264   6.642 -0.2681 -0.6634 -0.5034
21524SOL     OW69701   4.877   5.927   3.340 -0.0974 -0.7205  0.1356
21524SOL    HW169702   4.818   5.853   3.357 -0.2025 -0.4896  0.7969
21524SOL    HW269703   4.944   5.920   3.408 -0.2296 -0.0842  0.3335
21525SOL     OW69704   7.431   3.531   4.470 -0.7187 -0.2861  0.0295
21525SOL    HW169705   7.430   3.438   4.446 -3.1707  0.0547 -1.2182
21525SOL    HW269706   7.442   3.578   4.388 -1.4455  0.6053  0.4288
21526SOL     OW69707  10.803  10.521   7.201 -0.4169 -0.6817  0.1553
21526SOL    HW169708  10.714  10.542   7.174  0.1764 -0.1468 -1.4747
21526SOL    HW269709  10.793  10.455   7.269 -2.1144  0.6047  1.2113
21527SOL     OW69710   2.706   0.996   0.705  0.1639 -0.8420 -0.0376
21527SOL    HW169711   2.629   0.986   0.761  0.0598 -0.4580 -0.1128
21527SOL    HW269712   2.674   1.043   0.628  0.6510  0.0743  0.3137
21528SOL     OW69713  10.006   0.258   3.911  0.0318 -0.3987  0.5312
21528SOL    HW169714  10.052   0.295   3.836 -1.5591  1.0591  0.2299
21528SOL    HW269715  10.075   0.228   3.970  1.2931 -1.8456 -1.6518
21529SOL     OW69716   6.158   6.532   8.118  0.5109 -0.4599 -0.4418
21529SOL    HW169717   6.214   6.541   8.195 -0.3233  0.2635  0.0920
21529SOL    HW269718   6.212   6.486   8.054  1.9628  0.8855 -0.1929
21530SOL     OW69719   5.016   9.036   5.049 -0.2515  0.1096 -0.1071
21530SOL    HW169720   5.042   8.995   5.131 -1.9316  1.1656  1.0034
21530SOL    HW269721   5.074   9.111   5.040  0.0937 -0.1452 -0.0075
21531SOL     OW69722   5.313   3.197   3.244 -0.1625 -0.4215 -0.0647
21531SOL    HW169723   5.246   3.204   3.176  1.0484 -0.8779 -1.3314
21531SOL    HW269724   5.346   3.108   3.235  0.9479 -0.0418  0.2238
21532SOL     OW69725   7.448   0.125   2.443 -0.1013 -0.5562 -0.1899
21532SOL    HW169726   7.372   0.103   2.388 -0.2430  0.5338 -0.4394
21532SOL    HW269727   7.465   0.217   2.425  0.3479 -0.3957  1.0189
21533SOL     OW69728   9.393   0.218   5.133 -0.3050  0.0708 -0.2066
21533SOL    HW169729   9.381   0.262   5.049  2.1476  1.3714  0.0948
21533SOL    HW269730   9.487   0.219   5.148 -0.3997 -3.0923  1.0310
21534SOL     OW69731  10.888   8.038   8.004 -0.2100  0.1909 -0.1641
21534SOL    HW169732  10.853   8.041   7.915 -0.5687 -0.0072 -0.0279
21534SOL    HW269733  10.840   8.106   8.051  1.5842  1.8817 -0.7051
21535SOL     OW69734   1.350   3.016   3.931 -0.0763  0.2960 -0.5619
21535SOL    HW169735   1.351   2.974   4.018  0.9432  0.7500 -0.3454
21535SOL    HW269736   1.265   2.992   3.894 -0.7659  0.5581  0.7938
21536SOL     OW69737   9.266   5.809   2.607 -0.7252  0.2902  0.2971
21536SOL    HW169738   9.212   5.875   2.563 -0.4549  0.4398  0.1886
21536SOL    HW269739   9.204   5.743   2.638 -0.9138  0.1870 -0.3107
21537SOL     OW69740   9.693  11.284   1.092 -0.0271 -0.3437 -0.0935
21537SOL    HW169741   9.776  11.277   1.139  0.2112 -0.7811 -0.5779
21537SOL    HW269742   9.718  11.301   1.001 -0.5039  1.3150  0.0723
21538SOL     OW69743   0.400   5.141   2.922  0.7021 -0.7821  0.3915
21538SOL    HW169744   0.464   5.142   2.851  0.1912 -1.5074 -0.0818
21538SOL    HW269745   0.317   5.117   2.881 -0.1463  1.3591  0.7991
21539SOL     OW69746   8.206   2.792   9.698 -0.6820 -0.6815  0.3689
21539SOL    HW169747   8.186   2.762   9.786 -0.6384  2.2031  1.4133
21539SOL    HW269748   8.166   2.879   9.693 -0.1167 -0.5323 -2.2279
21540SOL     OW69749   4.808   7.724   1.926 -0.5698  0.5993  0.4755
21540SOL    HW169750   4.873   7.666   1.964  1.3472  2.2577 -0.1350
21540SOL    HW269751   4.842   7.812   1.943 -1.0519  1.4391 -2.5745
21541SOL     OW69752   8.158   1.506   0.277 -0.2867 -0.6100  0.3881
21541SOL    HW169753   8.134   1.415   0.290  1.0339 -1.0636 -0.2529
21541SOL    HW269754   8.220   1.525   0.347 -0.2238 -0.3247  0.2555
21542SOL     OW69755   9.998   5.141   1.308 -0.3141  0.4900 -0.2134
21542SOL    HW169756   9.984   5.220   1.359 -0.8229  1.5657 -1.9907
21542SOL    HW269757  10.011   5.072   1.374 -1.6172  1.7155  1.3591
21543SOL     OW69758   7.217   4.952   4.952 -0.0356 -0.1079  0.4965
21543SOL    HW169759   7.261   5.035   4.935 -0.6744  0.0212 -0.6552
21543SOL    HW269760   7.155   4.970   5.022 -0.3159  0.4526  0.1071
21544SOL     OW69761   3.966   1.528   3.506  0.5534  0.5161  0.3213
21544SOL    HW169762   3.992   1.500   3.593  3.3968 -2.6929 -1.4234
21544SOL    HW269763   4.040   1.580   3.475  1.2234 -1.4895 -1.5307
21545SOL     OW69764  10.426   8.283   3.090  0.1502  0.3332  0.1051
21545SOL    HW169765  10.452   8.191   3.085  0.3572  0.5036 -3.1984
21545SOL    HW269766  10.346   8.283   3.143  0.9482 -1.5337  1.3532
21546SOL     OW69767   3.153   8.205   1.869  0.0642 -0.2784 -0.0062
21546SOL    HW169768   3.184   8.279   1.817  0.5249  0.1002  0.8111
21546SOL    HW269769   3.059   8.202   1.853  0.0415  0.4975 -0.0144
21547SOL     OW69770   7.913   8.311   2.605 -0.2833  0.5134 -0.1070
21547SOL    HW169771   7.867   8.247   2.552  1.2739 -0.1593 -0.6763
21547SOL    HW269772   7.994   8.267   2.631 -0.3073  1.3936  1.5161
21548SOL     OW69773   6.762   8.321   1.725  0.0316 -0.0026 -0.3529
21548SOL    HW169774   6.784   8.282   1.809  0.7911 -1.0136 -1.0031
21548SOL    HW269775   6.795   8.258   1.660  0.5773  1.3472 -1.4188
21549SOL     OW69776  10.245  10.450   2.926  0.0836 -0.3675 -0.0413
21549SOL    HW169777  10.235  10.427   3.018  0.7668 -1.4538 -0.2308
21549SOL    HW269778  10.323  10.402   2.897 -0.3632 -0.3696 -1.2863
21550SOL     OW69779   3.596   0.267   8.421 -0.2727 -0.1257  0.0985
21550SOL    HW169780   3.609   0.283   8.327  0.8062  2.1644  0.6108
21550SOL    HW269781   3.624   0.348   8.463 -1.3338 -0.9135  2.3762
21551SOL     OW69782   8.395   4.037  10.297  0.4794 -0.5267  0.1172
21551SOL    HW169783   8.464   4.007  10.238  0.1535  0.0962 -0.5863
21551SOL    HW269784   8.324   3.973  10.286 -0.1499  0.3702 -1.2614
21552SOL     OW69785   0.451   7.894  10.207 -0.7861  0.2949  0.3996
21552SOL    HW169786   0.427   7.802  10.193  0.2528 -0.1065  1.1514
21552SOL    HW269787   0.386   7.927  10.269 -0.9870 -0.0248  0.3564
21553SOL     OW69788   0.770   7.592   1.071  0.4359 -0.3222  0.2092
21553SOL    HW169789   0.855   7.602   1.028  0.8669 -1.4824  0.7685
21553SOL    HW269790   0.788   7.536   1.147 -0.7985 -0.4310  0.4336
21554SOL     OW69791   5.803   1.015  10.072 -0.4599 -0.0749 -0.6013
21554SOL    HW169792   5.832   0.968  10.151 -0.6324 -0.0068 -0.4993
21554SOL    HW269793   5.884   1.052  10.036 -0.2817 -0.6945 -0.8422
21555SOL     OW69794   1.884   0.684   8.820  0.0318 -0.3506 -0.2454
21555SOL    HW169795   1.914   0.621   8.754  1.5155 -1.3865  1.3856
21555SOL    HW269796   1.937   0.762   8.805 -0.9622  0.1147 -1.4815
21556SOL     OW69797   1.260   6.964   4.442 -0.1456 -0.3416  0.4567
21556SOL    HW169798   1.326   6.965   4.373 -0.6593 -2.2055 -0.1118
21556SOL    HW269799   1.191   6.907   4.407 -0.8178 -0.5839  2.1433
21557SOL     OW69800   3.206   9.300   8.736  0.1111 -0.0628 -0.0275
21557SOL    HW169801   3.120   9.328   8.707  0.3161  1.3661  0.6878
21557SOL    HW269802   3.208   9.320   8.830  1.5171  0.7730 -0.2066
21558SOL     OW69803  10.057   3.025   6.154  0.0517 -0.6499 -0.2446
21558SOL    HW169804   9.984   3.080   6.183  0.3998 -0.1460 -0.3080
21558SOL    HW269805  10.135   3.077   6.174  0.3615 -0.9387 -0.6990
21559SOL     OW69806   8.397   0.555   0.443 -0.4778  0.0871 -0.0123
21559SOL    HW169807   8.406   0.625   0.508 -1.1668  0.5218 -0.3808
21559SOL    HW269808   8.446   0.587   0.367 -0.6810  0.1055 -0.1342
21560SOL     OW69809   4.345   7.445   0.667  0.1818  0.4342 -0.1957
21560SOL    HW169810   4.326   7.450   0.574  1.3932  0.8209 -0.4262
21560SOL    HW269811   4.379   7.357   0.681  0.1364  0.4246 -0.1426
21561SOL     OW69812  10.241   6.188   6.305 -0.1642  0.3831 -0.3536
21561SOL    HW169813  10.232   6.157   6.215 -1.6924  0.7051 -0.3357
21561SOL    HW269814  10.280   6.114   6.352  1.6124  0.5781 -1.4694
21562SOL     OW69815   3.977   9.089   2.659 -0.2470 -0.1460 -0.2592
21562SOL    HW169816   4.012   9.004   2.630 -0.7787 -0.7347  0.8003
21562SOL    HW269817   4.008   9.098   2.749 -1.4233  0.0996  0.1248
21563SOL     OW69818   8.987   1.221   7.809 -0.4053  0.3395 -0.3920
21563SOL    HW169819   8.921   1.260   7.866  1.5841  0.2991  2.0377
21563SOL    HW269820   9.054   1.288   7.799  0.0970 -0.2731 -1.2900
21564SOL     OW69821   1.487   4.919   6.810 -0.3403  0.3013 -0.5782
21564SOL    HW169822   1.483   4.973   6.731 -1.0794  1.7173  0.4011
21564SOL    HW269823   1.403   4.933   6.853  0.0791 -0.4020  0.4970
21565SOL     OW69824   1.547   9.425   3.058 -0.2661  0.7786  0.4965
21565SOL    HW169825   1.521   9.509   3.021 -0.7028 -0.0619 -1.1839
21565SOL    HW269826   1.551   9.366   2.982  0.4229 -0.6089  1.5882
21566SOL     OW69827   9.714   5.714   3.543 -0.1517  0.7127  0.1111
21566SOL    HW169828   9.737   5.645   3.605 -4.0555 -0.9142 -0.0859
21566SOL    HW269829   9.652   5.770   3.591 -1.1741  0.9375 -1.4221
21567SOL     OW69830   2.391   7.237  11.070  0.3730  0.2909 -0.0078
21567SOL    HW169831   2.481   7.263  11.090 -0.1570  2.3183 -0.2058
21567SOL    HW269832   2.398   7.185  10.990  1.6064 -1.4360  1.1734
21568SOL     OW69833   4.096   6.636   9.686 -0.2325  0.2296 -0.2708
21568SOL    HW169834   4.103   6.639   9.781 -1.6094  0.7360 -0.1711
21568SOL    HW269835   4.182   6.605   9.656  0.2547  0.2178  1.1190
21569SOL     OW69836   3.544   0.883   6.577  0.3825 -0.4993 -0.3592
21569SOL    HW169837   3.451   0.894   6.558  0.3525  1.8736  1.0037
21569SOL    HW269838   3.588   0.907   6.495 -0.1823 -1.2646 -0.8918
21570SOL     OW69839   6.409   0.146   9.274 -0.3561 -0.5865  0.0775
21570SOL    HW169840   6.395   0.109   9.362  1.0429 -1.1827  0.0597
21570SOL    HW269841   6.470   0.218   9.288 -0.5737 -0.3238 -0.3321
21571SOL     OW69842   7.540   0.875  10.363 -0.2352 -0.8222  0.1407
21571SOL    HW169843   7.598   0.859  10.437 -0.0101 -1.9679 -0.2656
21571SOL    HW269844   7.594   0.857  10.286 -0.6883 -0.4126 -0.2774
21572SOL     OW69845   7.062   0.410   3.652 -0.4213 -0.0710 -0.3433
21572SOL    HW169846   7.148   0.451   3.639 -0.7477  1.4206  1.9673
21572SOL    HW269847   7.079   0.337   3.711 -0.6603 -0.1699 -0.3965
21573SOL     OW69848   1.727  11.209   4.624  0.2423 -0.1570 -0.4133
21573SOL    HW169849   1.682  11.286   4.590  0.0123 -0.7705 -1.5267
21573SOL    HW269850   1.762  11.237   4.709  1.9819  1.8143 -1.7253
21574SOL     OW69851   1.143   0.265   4.518  0.3299  0.3875 -0.0543
21574SOL    HW169852   1.071   0.205   4.536  0.5627 -0.4042 -1.6392
21574SOL    HW269853   1.119   0.308   4.436  2.4822 -1.2581 -1.6157
21575SOL     OW69854   5.773   5.901   2.006 -0.2679 -0.3860  0.7480
21575SOL    HW169855   5.691   5.950   2.005 -0.4982 -0.7835 -0.4773
21575SOL    HW269856   5.779   5.861   1.919  2.6553  1.9870 -0.2319
21576SOL     OW69857   4.687   4.816   6.396 -0.3614  0.0155  0.0552
21576SOL    HW169858   4.646   4.902   6.393 -2.0499 -0.6507  2.3851
21576SOL    HW269859   4.738   4.810   6.315 -2.4885  2.0649 -1.4778
21577SOL     OW69860  11.027   3.975  10.469 -0.4436 -0.1007 -0.3004
21577SOL    HW169861  10.952   3.970  10.529 -0.1907 -0.7086 -0.0290
21577SOL    HW269862  11.072   3.892  10.480  0.7166  0.5677  0.1126
21578SOL     OW69863  10.163   1.685   8.694 -0.0581 -0.4022  0.3586
21578SOL    HW169864  10.087   1.726   8.651  1.7047  0.4201 -2.0970
21578SOL    HW269865  10.140   1.592   8.700 -1.4334 -0.0940 -0.0037
21579SOL     OW69866  10.339  11.110   0.362  0.2868  0.0472  0.4508
21579SOL    HW169867  10.389  11.044   0.313 -0.3872  0.3188 -0.6294
21579SOL    HW269868  10.396  11.187   0.363  0.6417 -0.2223  0.7970
21580SOL     OW69869   0.938   1.773   5.785  0.2931 -0.4201 -0.1986
21580SOL    HW169870   0.875   1.842   5.805  0.2901 -0.8358  1.2864
21580SOL    HW269871   1.010   1.818   5.740 -0.1347  0.3892 -0.0788
21581SOL     OW69872   3.400   1.902   8.462 -0.5841  0.1648  0.5530
21581SOL    HW169873   3.338   1.975   8.457  1.1844  1.6436 -0.7439
21581SOL    HW269874   3.433   1.905   8.552  0.9922  2.3345 -0.0474
21582SOL     OW69875  10.714   2.313   0.295  0.1143 -0.0535  0.4736
21582SOL    HW169876  10.735   2.392   0.345  0.8592 -0.6439  1.1093
21582SOL    HW269877  10.724   2.242   0.358 -1.6863 -0.5624  0.2083
21583SOL     OW69878   5.906   5.785  11.097  0.4218 -0.2103 -0.3305
21583SOL    HW169879   5.967   5.859  11.094  0.6865 -0.4074  0.1211
21583SOL    HW269880   5.885   5.766  11.006 -0.2129  0.8901 -0.4224
21584SOL     OW69881   7.818   9.975   6.613 -0.1856 -0.7499  0.0666
21584SOL    HW169882   7.896   9.949   6.661 -0.4618  0.9675  1.4626
21584SOL    HW269883   7.770  10.032   6.673  0.0421  2.4422 -2.6363
21585SOL     OW69884   0.497   6.822   5.828 -0.6071 -0.2133  0.0935
21585SOL    HW169885   0.512   6.822   5.733 -2.3434 -0.0423 -0.1890
21585SOL    HW269886   0.564   6.764   5.863 -1.3750 -2.0755 -1.4667
21586SOL     OW69887   7.109   9.305   5.857 -0.6551  0.1128 -0.1487
21586SOL    HW169888   7.161   9.259   5.922  0.3765  0.4711 -0.7004
21586SOL    HW269889   7.141   9.395   5.860  0.2706 -0.1315 -1.9899
21587SOL     OW69890   3.714   2.182   6.365 -0.4256  0.3016 -0.4186
21587SOL    HW169891   3.711   2.277   6.361 -0.3434  0.3807  1.0475
21587SOL    HW269892   3.635   2.153   6.320 -0.6303  1.0768 -0.5535
21588SOL     OW69893   3.256   1.836   8.799 -0.4880 -0.6417 -0.2358
21588SOL    HW169894   3.329   1.807   8.745 -0.6538 -1.0000 -0.2718
21588SOL    HW269895   3.236   1.924   8.767  0.1744 -0.3883  0.0405
21589SOL     OW69896   3.935   8.595   0.886  0.2612 -0.6285 -0.4006
21589SOL    HW169897   3.990   8.616   0.811  1.4244 -0.4245  0.4997
21589SOL    HW269898   3.908   8.680   0.921  0.2695 -0.7116 -0.1899
21590SOL     OW69899   2.116   4.326   1.328  0.2548 -0.5193  0.0101
21590SOL    HW169900   2.139   4.314   1.236  1.2819  2.1867 -0.1591
21590SOL    HW269901   2.023   4.308   1.332 -0.3859  1.8971 -2.1472
21591SOL     OW69902   2.585   9.812   4.853  0.0810  0.9387 -0.6175
21591SOL    HW169903   2.589   9.853   4.767 -0.5509  1.3671 -0.4492
21591SOL    HW269904   2.643   9.736   4.847 -0.0079  0.9325 -1.4359
21592SOL     OW69905   6.220   4.025   9.168 -0.2572  0.1759  0.5631
21592SOL    HW169906   6.153   4.007   9.103  1.9473  0.9764 -2.0309
21592SOL    HW269907   6.189   4.103   9.214 -2.0502 -0.6565  0.8114
21593SOL     OW69908   2.808   3.562   4.599 -0.3439  0.2510 -0.3708
21593SOL    HW169909   2.812   3.475   4.559  1.7732 -0.7331  1.8187
21593SOL    HW269910   2.887   3.606   4.566  0.1278  0.2826  0.7847
21594SOL     OW69911   6.276   3.498   4.727 -0.2057 -0.2427  0.1128
21594SOL    HW169912   6.221   3.449   4.789  0.5344  0.0760  1.0373
21594SOL    HW269913   6.350   3.439   4.710  0.0941  0.0786  0.3117
21595SOL     OW69914   1.992   3.772   4.471  0.4872 -0.2141  0.4192
21595SOL    HW169915   2.069   3.726   4.436 -0.8280 -1.9050 -0.3297
21595SOL    HW269916   1.968   3.834   4.402 -1.4387 -2.7740 -1.2875
21596SOL     OW69917  11.159   3.275  10.060 -0.4529 -0.0313  0.4466
21596SOL    HW169918  11.210   3.354  10.078  1.0715 -0.6763 -0.8965
21596SOL    HW269919  11.225   3.209  10.041 -1.8047 -0.9036 -1.2771
21597SOL     OW69920  10.529   9.248   4.701  0.2748 -0.1486 -0.1169
21597SOL    HW169921  10.599   9.284   4.646  0.3374  2.2435  1.4085
21597SOL    HW269922  10.571   9.235   4.786  0.1101 -3.5004 -0.5199
21598SOL     OW69923  10.288   4.259  10.132 -0.5226 -0.1334 -0.1544
21598SOL    HW169924  10.211   4.300  10.092 -1.5388  0.7088  2.5775
21598SOL    HW269925  10.354   4.327  10.134 -1.0756  0.3866  1.2102
21599SOL     OW69926  11.209   0.906   6.361 -0.2779  0.4720  0.2189
21599SOL    HW169927  11.161   0.849   6.420 -0.4560 -0.4818 -0.8410
21599SOL    HW269928  11.218   0.856   6.280  1.3211  1.1503 -0.0506
21600SOL     OW69929   5.244   7.558   9.226  0.2422 -0.4927 -0.1407
21600SOL    HW169930   5.319   7.546   9.167 -0.2934  1.0237 -1.1737
21600SOL    HW269931   5.172   7.512   9.183 -0.0853  0.3995 -0.5709
21601SOL     OW69932   6.523   6.682   8.818  0.5277  0.4707  0.0622
21601SOL    HW169933   6.576   6.690   8.739  0.5918  0.2736  0.0864
21601SOL    HW269934   6.501   6.773   8.841 -0.2464  0.4767 -0.6911
21602SOL     OW69935   5.140   8.380  10.880 -0.3966 -1.0421  0.0859
21602SOL    HW169936   5.223   8.392  10.926 -0.4289 -1.2345  0.1945
21602SOL    HW269937   5.076   8.359  10.949 -0.7199 -0.0031  0.1050
21603SOL     OW69938   8.168   5.327   3.038  0.3306  0.2950  0.2091
21603SOL    HW169939   8.183   5.330   2.943 -1.1103  2.1321  0.0022
21603SOL    HW269940   8.256   5.322   3.076  0.8790 -1.8899 -1.2308
21604SOL     OW69941  10.850   8.015   7.265 -0.6438 -0.1315  0.5664
21604SOL    HW169942  10.939   7.999   7.233 -0.6706 -0.3110  0.5804
21604SOL    HW269943  10.851   7.982   7.355 -0.6218  0.2018  0.6865
21605SOL     OW69944   7.671   7.067  10.401 -0.3065  0.1382  0.8616
21605SOL    HW169945   7.591   7.085  10.450  0.3145  0.5229  1.7542
21605SOL    HW269946   7.740   7.110  10.451  0.3450  0.5537 -0.3779
21606SOL     OW69947  10.978   6.725   4.947  0.1394 -0.1727  0.3730
21606SOL    HW169948  11.048   6.660   4.958 -0.9297 -1.3471  0.4131
21606SOL    HW269949  10.900   6.681   4.981 -0.8387  0.6870 -0.7442
21607SOL     OW69950   8.425   6.402   4.151  0.0916  0.1328  0.1056
21607SOL    HW169951   8.491   6.361   4.206  1.3655  1.7474 -0.1757
21607SOL    HW269952   8.414   6.342   4.078  1.5488  0.0179 -0.0334
21608SOL     OW69953   3.729  10.190   4.641  0.2133 -0.1151  0.3500
21608SOL    HW169954   3.695  10.146   4.718 -1.6417  2.1501  0.8917
21608SOL    HW269955   3.697  10.139   4.567 -3.2331  1.1379  0.9095
21609SOL     OW69956   0.672   5.721   3.654 -0.2977  1.4809 -0.4251
21609SOL    HW169957   0.609   5.680   3.595 -1.5764  1.3358  1.0204
21609SOL    HW269958   0.747   5.662   3.653 -1.5409 -0.1505  0.4991
21610SOL     OW69959   6.337   4.959  11.244  0.0992  0.4336 -0.2908
21610SOL    HW169960   6.249   4.933  11.217  0.0177  0.5303 -0.1211
21610SOL    HW269961   6.336   4.951  11.339  0.5085 -0.2841 -0.3457
21611SOL     OW69962   6.239   5.511   9.661  0.3647  0.0711 -0.1563
21611SOL    HW169963   6.218   5.452   9.588  3.7968 -1.4081 -0.0693
21611SOL    HW269964   6.304   5.571   9.625 -1.7529  2.7175  0.2856
21612SOL     OW69965   2.297   6.166   2.068  0.0474  0.3309  0.1854
21612SOL    HW169966   2.334   6.101   2.128  1.2115  3.2591  2.8040
21612SOL    HW269967   2.203   6.153   2.073  0.3279 -2.6484 -1.1823
21613SOL     OW69968   6.411   1.561   2.975 -0.3802  0.2935 -0.7301
21613SOL    HW169969   6.366   1.616   2.911  0.2233 -1.1542 -2.4364
21613SOL    HW269970   6.473   1.510   2.924 -0.0758 -1.1033  0.9774
21614SOL     OW69971  10.559   9.592   4.910  0.3907 -0.4019  0.8012
21614SOL    HW169972  10.568   9.499   4.928  0.1211 -1.1328 -2.6814
21614SOL    HW269973  10.466   9.605   4.890  0.7574  0.2515 -0.5747
21615SOL     OW69974   4.636  10.786   5.519  0.4445 -0.2092 -0.2636
21615SOL    HW169975   4.626  10.837   5.599 -4.6514 -0.7727 -0.3670
21615SOL    HW269976   4.701  10.720   5.540 -0.4389 -0.0465  3.2505
21616SOL     OW69977   3.617   3.152   7.868  0.0731  0.4411  0.5660
21616SOL    HW169978   3.587   3.211   7.937 -0.4820 -0.2266  0.9064
21616SOL    HW269979   3.656   3.079   7.915 -3.3556 -1.6638  0.3222
21617SOL     OW69980   3.065   6.539   0.432 -0.4134  0.3713  0.1419
21617SOL    HW169981   3.153   6.503   0.428 -0.6677 -0.2319 -0.1153
21617SOL    HW269982   3.010   6.475   0.386 -1.0682  0.4896  0.7350
21618SOL     OW69983   8.931   4.354   0.581  0.0244  0.6863 -0.2441
21618SOL    HW169984   8.946   4.416   0.510  1.1219  0.0532 -0.5759
21618SOL    HW269985   8.836   4.358   0.597  0.1088  2.5517 -0.1451
21619SOL     OW69986   9.962   0.853   3.279 -0.0585  0.5483  0.2077
21619SOL    HW169987   9.897   0.844   3.210 -0.1148  0.6462  0.2476
21619SOL    HW269988   9.913   0.883   3.355 -0.4748 -2.1595  1.0665
21620SOL     OW69989   0.256   3.414  10.686  0.2007 -0.0350 -0.1796
21620SOL    HW169990   0.345   3.382  10.676 -0.1547 -0.7527 -1.0495
21620SOL    HW269991   0.220   3.364  10.759  0.9244  1.1717  1.0269
21621SOL     OW69992   5.276   8.276   9.235  0.8519 -0.1943  0.5402
21621SOL    HW169993   5.359   8.230   9.246  1.1264 -0.4919 -2.5268
21621SOL    HW269994   5.301   8.368   9.226  0.9015 -0.3367 -0.8392
21622SOL     OW69995   3.380   4.034   9.061  0.0639 -0.4124  0.4273
21622SOL    HW169996   3.459   4.016   9.009 -0.1195  0.0771 -0.0240
21622SOL    HW269997   3.388   3.975   9.136  0.6009 -0.7431  0.1224
21623SOL     OW69998   6.073   2.158   8.302 -0.3241  0.4111 -0.3854
21623SOL    HW169999   5.983   2.148   8.271 -0.2854  1.2443 -0.7796
21623SOL    HW270000   6.097   2.247   8.276  0.5292  0.2736 -0.0657
21624SOL     OW70001   4.660   0.293   1.878 -0.8985 -0.2669 -0.8939
21624SOL    HW170002   4.743   0.265   1.840 -0.7602  1.1851 -1.7127
21624SOL    HW270003   4.636   0.224   1.939  1.5821 -0.0552  0.3531
21625SOL     OW70004   1.411   9.009   9.462  0.3875  0.5580 -0.0051
21625SOL    HW170005   1.334   9.064   9.451  0.3496  0.3487 -0.7685
21625SOL    HW270006   1.470   9.062   9.517 -0.2438  0.7628  0.4807
21626SOL     OW70007   7.468   3.638   4.223 -0.0373  0.0237 -0.7411
21626SOL    HW170008   7.491   3.554   4.183 -2.2739 -0.8644 -0.2406
21626SOL    HW270009   7.400   3.674   4.166 -1.5757 -0.1629  0.9337
21627SOL     OW70010   0.648  10.696   1.252  0.2818 -0.2925 -0.9391
21627SOL    HW170011   0.709  10.745   1.197  0.1558 -0.0069 -0.8227
21627SOL    HW270012   0.668  10.724   1.341  0.2513 -0.5002 -0.8674
21628SOL     OW70013   1.230   4.045   4.982 -0.2105  0.2828  0.1105
21628SOL    HW170014   1.170   3.984   5.024 -0.6585  0.3446 -0.4230
21628SOL    HW270015   1.205   4.043   4.889 -0.0763  1.0957  0.0497
21629SOL     OW70016   4.107   5.856   7.742  0.2218  0.5437  0.6468
21629SOL    HW170017   4.171   5.797   7.783 -1.2310 -0.5690  1.3949
21629SOL    HW270018   4.151   5.889   7.664  2.4791  1.4589  2.2537
21630SOL     OW70019   6.505   6.267   1.824 -0.2281  0.0991 -1.0179
21630SOL    HW170020   6.464   6.199   1.878  0.0940  0.5564 -0.1901
21630SOL    HW270021   6.594   6.273   1.857 -0.4262  1.3381 -0.6806
21631SOL     OW70022   7.432   5.664   6.293  0.0955  0.2279 -0.1057
21631SOL    HW170023   7.413   5.729   6.225 -1.5720  0.0962  0.2260
21631SOL    HW270024   7.434   5.580   6.246  1.3696  0.3969 -0.3836
21632SOL     OW70025   2.596  11.090  11.240 -0.3213  0.2566 -0.2863
21632SOL    HW170026   2.624  11.116  11.153 -1.8597  0.3672 -0.7688
21632SOL    HW270027   2.662  11.027  11.270 -0.0568 -0.1600 -1.7350
21633SOL     OW70028   8.739   3.854   2.053  0.5408  0.9733 -0.4092
21633SOL    HW170029   8.692   3.821   2.130  0.8023  0.4618 -0.4676
21633SOL    HW270030   8.766   3.775   2.006 -0.2535  1.2988 -1.4215
21634SOL     OW70031   8.926   9.269   2.888 -0.9724  0.0531 -0.1134
21634SOL    HW170032   8.842   9.284   2.845 -0.1597 -1.5147 -2.3250
21634SOL    HW270033   8.990   9.269   2.817  0.6130 -1.1037  1.2673
21635SOL     OW70034   5.063   9.303   2.500  0.3759  0.2526 -0.2033
21635SOL    HW170035   5.017   9.273   2.422 -0.7757  1.2088  0.1059
21635SOL    HW270036   5.002   9.287   2.572  1.5155 -0.8348  0.5528
21636SOL     OW70037   2.932   4.640   6.101  0.0447 -0.0511  0.8087
21636SOL    HW170038   2.855   4.665   6.049  0.1116  0.8243  1.1178
21636SOL    HW270039   2.912   4.551   6.131  0.2069 -0.7650 -1.0772
21637SOL     OW70040  11.014   1.988   2.244 -0.5770  0.0145  0.4713
21637SOL    HW170041  11.038   1.980   2.336  1.6371 -0.7743 -0.1372
21637SOL    HW270042  11.016   2.082   2.226  2.5897 -0.0238  0.3565
21638SOL     OW70043   5.206   5.364  10.195 -0.3078 -0.1428  0.2078
21638SOL    HW170044   5.118   5.382  10.162 -0.8727 -3.0436 -0.0333
21638SOL    HW270045   5.264   5.403  10.130 -1.4021  0.9185 -0.1616
21639SOL     OW70046   1.741  10.566   7.640 -0.5884 -0.0262 -0.8055
21639SOL    HW170047   1.661  10.544   7.687 -0.8080  1.1346 -0.6179
21639SOL    HW270048   1.808  10.570   7.708 -0.9305  1.7779 -0.5423
21640SOL     OW70049   9.392   8.082   1.226 -0.1794 -0.3791 -0.1422
21640SOL    HW170050   9.355   8.170   1.225 -0.7990 -0.5519  2.8371
21640SOL    HW270051   9.477   8.092   1.269 -0.9096 -1.4235  1.6159
21641SOL     OW70052   1.056   5.745   5.458  0.7256 -0.5498 -0.7643
21641SOL    HW170053   1.088   5.834   5.445 -2.0740  0.3422 -1.9554
21641SOL    HW270054   1.064   5.704   5.372 -0.5708 -0.5722 -0.8722
21642SOL     OW70055   3.191   1.651   6.283  0.4979 -0.3824  0.1031
21642SOL    HW170056   3.144   1.569   6.271 -2.5708  1.2577  0.4003
21642SOL    HW270057   3.227   1.671   6.196  0.6322 -1.6503 -0.1340
21643SOL     OW70058   3.734  10.172   0.028 -0.1495  0.4035  0.0376
21643SOL    HW170059   3.677  10.245   0.051  1.1371  1.5343 -0.2765
21643SOL    HW270060   3.793  10.163   0.103 -1.3111 -1.3669  0.7690
21644SOL     OW70061   4.365   7.763   6.932 -0.6945 -0.6188  0.0435
21644SOL    HW170062   4.332   7.700   6.868  0.7614 -1.2299 -0.1224
21644SOL    HW270063   4.366   7.846   6.885 -2.6441 -0.4534  0.2666
21645SOL     OW70064  10.222   8.639   7.658 -0.0207 -0.3017  0.3840
21645SOL    HW170065  10.182   8.595   7.583  0.8455 -1.3256  0.5006
21645SOL    HW270066  10.313   8.652   7.632 -0.0316  0.5093  0.7557
21646SOL     OW70067   4.198   7.306  11.152  0.2193 -0.0300  0.4927
21646SOL    HW170068   4.245   7.244  11.096  0.7102  0.8134 -0.0285
21646SOL    HW270069   4.136   7.251  11.201 -0.6228 -0.6957 -1.2852
21647SOL     OW70070   4.462   0.131  11.070 -0.2526 -0.2776 -0.0863
21647SOL    HW170071   4.480   0.145  10.977 -0.6717 -0.7745 -0.2440
21647SOL    HW270072   4.451   0.219  11.106  3.2909  0.1215  0.1846
21648SOL     OW70073   1.930   6.600  10.965  0.3349  0.6925  0.3517
21648SOL    HW170074   1.856   6.540  10.968  1.3231 -0.4610  1.6436
21648SOL    HW270075   1.950   6.619  11.056  1.8802  0.7048  0.0199
21649SOL     OW70076   5.362   2.893   8.048  0.0099  0.2493 -0.0134
21649SOL    HW170077   5.411   2.888   8.130  0.1185 -2.6381 -0.2207
21649SOL    HW270078   5.412   2.955   7.995  0.7200  1.0696  1.5765
21650SOL     OW70079  11.049   3.143   8.786  0.3107  0.2262 -0.4209
21650SOL    HW170080  11.087   3.060   8.755 -0.2266  0.2075 -1.0492
21650SOL    HW270081  11.002   3.177   8.710 -0.5857  0.4557  0.2297
21651SOL     OW70082   2.279   3.763   7.975  0.9477 -0.9546 -0.4286
21651SOL    HW170083   2.235   3.687   8.014  1.4008  0.2648  2.6599
21651SOL    HW270084   2.371   3.749   7.994  1.0971  0.0350 -0.4087
21652SOL     OW70085   7.826   0.155  10.278  0.2231  0.2060 -0.8953
21652SOL    HW170086   7.764   0.112  10.220  0.2870 -0.4458 -0.4815
21652SOL    HW270087   7.885   0.085  10.306 -0.9856  0.1063  1.5238
21653SOL     OW70088   5.956  11.288   6.092 -0.3926 -0.4917 -0.3048
21653SOL    HW170089   5.934  11.311   6.002  1.5483 -1.9594 -1.1844
21653SOL    HW270090   5.888  11.226   6.119 -2.0971  1.4164 -0.0358
21654SOL     OW70091   6.475   8.869   5.121  0.2250  0.0060 -0.3678
21654SOL    HW170092   6.505   8.785   5.155  2.1466  0.1024 -1.7506
21654SOL    HW270093   6.475   8.927   5.198  2.3789 -0.3523 -0.0632
21655SOL     OW70094   6.670   9.099   0.209 -0.3150  0.0615 -0.0393
21655SOL    HW170095   6.620   9.181   0.212  0.5438  0.6059 -0.3275
21655SOL    HW270096   6.607   9.034   0.178 -0.9793  0.6296  0.0944
21656SOL     OW70097  10.942   2.295  11.256  0.0682  0.0792 -0.0828
21656SOL    HW170098  11.033   2.323  11.242  0.7158 -1.6714  0.4817
21656SOL    HW270099  10.914   2.261  11.171 -0.0946  0.6902 -0.2769
21657SOL     OW70100   3.130   2.095   2.462 -0.1552  0.6939  0.4986
21657SOL    HW170101   3.140   2.014   2.411 -2.0770  0.2108  0.8576
21657SOL    HW270102   3.219   2.116   2.491  0.3012 -1.5365  0.7844
21658SOL     OW70103   4.718   3.392   3.184  0.2181  0.0841  0.0584
21658SOL    HW170104   4.633   3.348   3.180  0.2787 -0.0776  0.5874
21658SOL    HW270105   4.779   3.325   3.213  0.2398  0.6129  1.2473
21659SOL     OW70106   5.229   5.197   0.093 -0.1242  0.2145 -0.2212
21659SOL    HW170107   5.271   5.205   0.007  3.0532  0.3331  1.2743
21659SOL    HW270108   5.225   5.103   0.110 -0.0815  0.2229 -0.1639
21660SOL     OW70109   3.517   8.726   2.560 -0.1451  0.6852 -0.5207
21660SOL    HW170110   3.480   8.638   2.550 -0.0919  0.8120 -1.8615
21660SOL    HW270111   3.488   8.753   2.648  2.0445 -1.6981  1.0118
21661SOL     OW70112  10.402   0.791  10.569  0.3703  0.3950  0.5505
21661SOL    HW170113  10.383   0.877  10.606  2.2953  0.5464  1.2393
21661SOL    HW270114  10.354   0.730  10.625  0.7476  0.8672  1.3998
21662SOL     OW70115  11.032  10.687   4.137  0.2444  0.2681 -0.2150
21662SOL    HW170116  11.021  10.634   4.216 -2.4039  1.2566  0.1190
21662SOL    HW270117  11.124  10.674   4.113 -0.0709 -3.7465  0.3391
21663SOL     OW70118   9.870   1.803   3.409 -0.4659 -0.5149  0.0957
21663SOL    HW170119   9.952   1.767   3.375 -0.6911 -0.2955 -0.7052
21663SOL    HW270120   9.859   1.886   3.362 -0.3254  0.2358  1.3857
21664SOL     OW70121   3.718   2.469   0.668  0.2966 -0.0128 -0.3253
21664SOL    HW170122   3.646   2.480   0.729 -0.3280  0.1540 -1.0874
21664SOL    HW270123   3.796   2.491   0.719 -0.2578  0.5775  0.2821
21665SOL     OW70124   3.546   1.732   6.846  0.2020 -0.2038  0.3872
21665SOL    HW170125   3.542   1.687   6.931 -1.7795 -1.1637 -0.1752
21665SOL    HW270126   3.479   1.800   6.851  1.0165  0.6347  0.0742
21666SOL     OW70127   6.757   7.097   1.195 -0.1350 -0.5480 -0.1843
21666SOL    HW170128   6.729   7.050   1.273 -2.1774 -0.9310 -1.1329
21666SOL    HW270129   6.768   7.030   1.128 -3.1613  0.2803 -1.5769
21667SOL     OW70130   1.882  10.596   5.917  0.6243 -0.0798  0.0812
21667SOL    HW170131   1.965  10.569   5.956  1.9563  1.9180 -1.2583
21667SOL    HW270132   1.873  10.688   5.941 -1.2976 -0.2984  0.3213
21668SOL     OW70133   0.450   3.694   8.892  0.1871  0.1160  0.1949
21668SOL    HW170134   0.394   3.772   8.889  0.0242  0.0250  0.6511
21668SOL    HW270135   0.418   3.638   8.821  0.7155  0.7333 -0.5308
21669SOL     OW70136   4.173   8.816   4.318 -0.1109  0.0140 -0.1902
21669SOL    HW170137   4.265   8.842   4.326 -0.4514  1.2733 -0.2609
21669SOL    HW270138   4.124   8.898   4.326 -1.2900 -0.7667  0.8565
21670SOL     OW70139  10.674   6.604   0.642 -0.9624  0.0252 -0.5650
21670SOL    HW170140  10.606   6.564   0.696 -0.0217  0.5840  1.0909
21670SOL    HW270141  10.749   6.546   0.653 -0.4986  0.6196 -0.5426
21671SOL     OW70142   0.456  11.228   5.755  0.0635  0.6088  0.0064
21671SOL    HW170143   0.521  11.277   5.805  1.6132 -0.2718 -1.0914
21671SOL    HW270144   0.397  11.193   5.820  0.2439  2.0666  0.9753
21672SOL     OW70145   0.916   3.911  11.043 -0.0188  0.1956 -0.0615
21672SOL    HW170146   1.011   3.925  11.042 -0.0233  0.1944 -0.5357
21672SOL    HW270147   0.903   3.833  11.096 -0.0134  2.1787  2.9833
21673SOL     OW70148   6.259   2.543   9.454  0.4791 -0.3746  0.2742
21673SOL    HW170149   6.219   2.462   9.486 -2.1333  1.0654  0.8411
21673SOL    HW270150   6.307   2.517   9.376  1.1209 -2.7567  1.4076
21674SOL     OW70151  11.167   5.828   3.533  0.3133 -0.1187 -0.0160
21674SOL    HW170152  11.200   5.918   3.525  1.7931 -0.6496  0.0239
21674SOL    HW270153  11.132   5.808   3.446 -0.8638  0.7976  0.2199
21675SOL     OW70154   1.588   6.656   1.008 -0.3869 -0.7039  0.3837
21675SOL    HW170155   1.502   6.698   1.014  0.2347  0.5057  1.1836
21675SOL    HW270156   1.580   6.576   1.060 -1.2858 -1.0562 -0.2876
21676SOL     OW70157   7.073   6.767   5.929 -0.0492 -0.2023 -0.1787
21676SOL    HW170158   7.035   6.852   5.910  1.9828  0.7333 -0.2348
21676SOL    HW270159   7.071   6.720   5.846 -1.5710 -0.3987 -0.0499
21677SOL     OW70160   2.879  10.418   4.099  0.4644 -0.5170  0.1629
21677SOL    HW170161   2.817  10.345   4.100  0.0905 -0.1870  1.0979
21677SOL    HW270162   2.934  10.404   4.176  2.1070 -1.2699 -1.1169
21678SOL     OW70163   2.449  10.919   2.517  0.3988 -0.1398  0.1364
21678SOL    HW170164   2.356  10.936   2.504  0.2761  0.3297  1.5549
21678SOL    HW270165   2.452  10.838   2.569  0.7426  0.3173  0.8405
21679SOL     OW70166   1.438   7.234   9.962 -0.8992 -0.1347  0.5435
21679SOL    HW170167   1.533   7.222   9.971 -0.9729  0.0979  1.6301
21679SOL    HW270168   1.423   7.232   9.867  0.3157  0.7639  0.3219
21680SOL     OW70169   2.920   4.951   8.930  0.3311  0.3633  0.6655
21680SOL    HW170170   2.916   4.906   9.014  0.5516  2.0770  1.5912
21680SOL    HW270171   2.830   4.951   8.898  0.2212 -0.1187  0.9736
21681SOL     OW70172   8.511   5.971   6.965  0.2997 -0.8270  0.2837
21681SOL    HW170173   8.512   5.925   7.049 -1.0763 -1.8851 -0.2665
21681SOL    HW270174   8.419   5.972   6.939  0.6184  0.1528 -0.8534
21682SOL     OW70175   8.603   9.063  11.114  0.1880  0.3697 -0.0499
21682SOL    HW170176   8.694   9.033  11.107  0.7862  2.3745 -1.2485
21682SOL    HW270177   8.575   9.035  11.201  2.0447 -0.0573  0.4230
21683SOL     OW70178   2.075  10.440  10.961 -0.1957  0.4389  0.2033
21683SOL    HW170179   2.133  10.371  10.994 -1.1745 -0.5491 -0.0847
21683SOL    HW270180   2.074  10.428  10.866 -1.6912 -0.2564  0.2861
21684SOL     OW70181   2.505  10.199   1.661  0.5433  0.0683  0.0156
21684SOL    HW170182   2.555  10.182   1.582 -1.1343 -1.1036 -0.8274
21684SOL    HW270183   2.540  10.282   1.695  2.1857 -0.1098 -1.1929
21685SOL     OW70184   0.257   4.322   0.515 -0.3067  0.0014 -0.9033
21685SOL    HW170185   0.272   4.343   0.607  0.5992 -1.7799 -0.6016
21685SOL    HW270186   0.339   4.346   0.471 -0.8030  1.0187 -1.2800
21686SOL     OW70187   3.855   5.814   5.848 -0.1199  0.1213  0.0615
21686SOL    HW170188   3.850   5.852   5.760 -0.4856 -0.4728 -0.1803
21686SOL    HW270189   3.885   5.886   5.903 -2.6265  1.3252 -0.0638
21687SOL     OW70190   2.452   4.098   8.628 -0.1758 -0.2408  0.4459
21687SOL    HW170191   2.496   4.100   8.543  1.1522 -1.3782  1.1040
21687SOL    HW270192   2.416   4.186   8.637  1.3716  0.5104 -0.4113
21688SOL     OW70193   5.866   1.907  10.342 -0.0900 -0.0370 -0.8200
21688SOL    HW170194   5.874   1.973  10.273  0.5703  0.0719 -0.6459
21688SOL    HW270195   5.910   1.947  10.418  0.3875 -0.7064 -0.7358
21689SOL     OW70196   8.418   2.292  10.906  0.0312  0.6185  0.3489
21689SOL    HW170197   8.490   2.290  10.843  1.5406  0.2094  2.0339
21689SOL    HW270198   8.397   2.200  10.921  2.2628  0.5094  3.2485
21690SOL     OW70199   5.942  10.490  10.491  0.6583 -0.7131  0.0985
21690SOL    HW170200   6.014  10.513  10.550 -0.2507 -0.5516  1.1692
21690SOL    HW270201   5.958  10.397  10.470  2.3703 -0.1089 -1.4331
21691SOL     OW70202   6.848   8.481   4.332 -0.0155  0.1378 -0.3436
21691SOL    HW170203   6.915   8.543   4.360  0.2815 -0.2950 -0.0766
21691SOL    HW270204   6.769   8.533   4.322 -0.3566  0.1529  2.2315
21692SOL     OW70205  11.152   1.144   6.145  0.4057 -0.0481 -0.0853
21692SOL    HW170206  11.073   1.091   6.140  0.6952 -0.6362  1.1900
21692SOL    HW270207  11.218   1.094   6.097 -0.0899  0.6410 -1.5018
21693SOL     OW70208   0.252   8.308   2.709  0.5114  0.0962 -0.2565
21693SOL    HW170209   0.201   8.389   2.714 -0.3262 -0.3368 -1.6620
21693SOL    HW270210   0.204   8.246   2.764 -1.8889 -1.0317 -3.4844
21694SOL     OW70211   7.562   5.366   1.434  0.2311  0.3097 -0.2586
21694SOL    HW170212   7.627   5.322   1.378 -0.7921 -0.7690 -0.6185
21694SOL    HW270213   7.569   5.459   1.410  1.6351  0.2127 -0.2863
21695SOL     OW70214   2.707  10.910   5.131 -0.3815 -0.7660 -0.2996
21695SOL    HW170215   2.775  10.977   5.121 -0.6604  0.0039  2.7261
21695SOL    HW270216   2.751  10.839   5.177 -1.4790 -0.4885  1.1947
21696SOL     OW70217   3.834   3.629   6.330  0.3195 -0.1223  0.8377
21696SOL    HW170218   3.795   3.551   6.291  0.4631 -1.0463  2.4817
21696SOL    HW270219   3.866   3.679   6.256  0.3389 -1.6807 -0.2415
21697SOL     OW70220  11.133   0.448   5.402 -0.2742 -0.2039  0.5013
21697SOL    HW170221  11.061   0.511   5.411 -0.4551 -0.5149  1.2816
21697SOL    HW270222  11.149   0.418   5.491  2.1525  1.3427  0.6134
21698SOL     OW70223   6.644   7.705   9.917 -0.2628  0.3396  0.1298
21698SOL    HW170224   6.707   7.768   9.885 -1.0575  0.6192 -0.9095
21698SOL    HW270225   6.577   7.757   9.961 -0.3076  0.1239  0.3238
21699SOL     OW70226  10.690   2.441   1.250  0.1457 -0.1410 -0.6707
21699SOL    HW170227  10.781   2.458   1.224 -0.3833 -0.6430 -2.9855
21699SOL    HW270228  10.653   2.528   1.266  0.7631  0.1238 -0.6484
21700SOL     OW70229   9.539   0.361  11.242 -1.0646 -0.0559  0.1801
21700SOL    HW170230   9.546   0.316  11.326 -1.0314 -1.8241 -0.7580
21700SOL    HW270231   9.617   0.415  11.237 -1.4213  0.6158  1.6067
21701SOL     OW70232   5.109   0.413   9.718 -0.6935 -0.5550 -0.3431
21701SOL    HW170233   5.070   0.466   9.649  0.6185  0.5385 -0.2775
21701SOL    HW270234   5.142   0.335   9.674 -1.7644 -0.8640 -0.6002
21702SOL     OW70235   4.144   8.917   9.540 -0.5661  0.1865  0.0241
21702SOL    HW170236   4.184   8.993   9.498 -1.4497  0.2224 -0.7779
21702SOL    HW270237   4.052   8.920   9.513 -1.0096 -0.1582  1.4436
21703SOL     OW70238   3.221   3.081   8.896  0.1981 -0.4492 -0.6409
21703SOL    HW170239   3.246   3.096   8.987 -0.8369 -1.3145 -0.2000
21703SOL    HW270240   3.146   3.139   8.882 -1.8315 -2.7924  0.1283
21704SOL     OW70241   0.472   6.721   6.680 -0.5749 -0.4493  0.3404
21704SOL    HW170242   0.560   6.730   6.716 -0.3126 -1.1466 -0.1065
21704SOL    HW270243   0.423   6.673   6.746 -1.3099  2.0128  1.6618
21705SOL     OW70244   1.250   2.436   6.242  0.0473 -0.3891 -1.0353
21705SOL    HW170245   1.170   2.387   6.223 -0.4587 -0.4069  0.9654
21705SOL    HW270246   1.233   2.525   6.210 -2.0148  0.4217  2.0205
21706SOL     OW70247   2.472   7.992   0.298  0.5096 -0.3260  0.7635
21706SOL    HW170248   2.424   7.912   0.319 -2.1301  1.0516  0.1383
21706SOL    HW270249   2.479   8.038   0.382 -1.0841  0.4114  0.5114
21707SOL     OW70250   5.750   0.993   3.933  0.1581 -0.1300 -0.4404
21707SOL    HW170251   5.738   0.959   3.844 -0.6496  2.1300 -1.2447
21707SOL    HW270252   5.843   1.014   3.938 -0.0315  0.9746 -1.2472
21708SOL     OW70253   6.974   8.742   0.429 -0.2525  0.3157 -0.4045
21708SOL    HW170254   6.993   8.648   0.431 -0.9094  0.1548 -1.4099
21708SOL    HW270255   6.975   8.769   0.521  0.7519 -0.5037 -0.1582
21709SOL     OW70256   9.508   8.899   0.569  0.4512  0.6129  0.7160
21709SOL    HW170257   9.598   8.869   0.583  1.0658  2.7334  1.5763
21709SOL    HW270258   9.454   8.822   0.586  2.1869 -1.1670 -1.6268
21710SOL     OW70259   9.683   2.646   7.794  0.3058 -0.1063 -0.1150
21710SOL    HW170260   9.643   2.560   7.804 -0.3883  0.1583 -0.5295
21710SOL    HW270261   9.759   2.645   7.852  0.9519 -1.3865 -0.9793
21711SOL     OW70262   0.028  10.498   9.292  0.6407  0.3002  0.1009
21711SOL    HW170263  -0.059  10.499   9.251 -0.5301  0.3794  2.4878
21711SOL    HW270264   0.067  10.582   9.268  0.3566 -0.0270 -1.5804
21712SOL     OW70265   4.357   7.051   0.172  0.3158  0.3092  0.3673
21712SOL    HW170266   4.428   7.039   0.109  0.2527  1.0563  0.1494
21712SOL    HW270267   4.312   6.967   0.174  1.0246 -0.0805  0.2867
21713SOL     OW70268   6.602   6.631   0.582  0.4325 -0.3238 -0.1598
21713SOL    HW170269   6.552   6.574   0.523  1.1481 -0.9839 -0.1395
21713SOL    HW270270   6.647   6.692   0.525  2.6573 -2.1831 -0.4560
21714SOL     OW70271   4.778   6.972   9.376  0.0288 -0.1214  0.1387
21714SOL    HW170272   4.755   7.045   9.319 -1.3704  0.1689  1.0292
21714SOL    HW270273   4.699   6.917   9.377  0.2767 -0.4732  1.2394
21715SOL     OW70274   1.768  11.198  11.225 -0.2023  0.2132  0.5465
21715SOL    HW170275   1.773  11.203  11.130 -1.6349  3.4075  0.5797
21715SOL    HW270276   1.858  11.210  11.255  0.2179 -0.6118 -0.3707
21716SOL     OW70277   0.914   2.672   6.788  0.0811 -0.0359 -0.3838
21716SOL    HW170278   0.897   2.666   6.882 -0.8618  1.5005 -0.4542
21716SOL    HW270279   0.857   2.606   6.749 -0.0458 -0.1921  0.0652
21717SOL     OW70280   6.963   9.053   2.624 -0.4153 -0.0606  0.5370
21717SOL    HW170281   6.902   8.979   2.613  0.0636 -0.2628 -0.8511
21717SOL    HW270282   6.906   9.128   2.638 -1.0308 -0.1946 -1.0693
21718SOL     OW70283   4.875   3.966   4.236  0.3837  0.6073 -0.8135
21718SOL    HW170284   4.889   3.877   4.202  2.3138  1.1793 -1.5793
21718SOL    HW270285   4.824   4.010   4.168 -2.1139 -0.3993  0.3454
21719SOL     OW70286   3.205   3.672   2.115 -0.3164  0.7115 -0.3799
21719SOL    HW170287   3.139   3.603   2.111 -1.5489  1.8803 -0.3552
21719SOL    HW270288   3.181   3.724   2.192  1.3726  0.4090  0.3739
21720SOL     OW70289   3.018   1.928   7.554 -0.3299  0.0819  0.7262
21720SOL    HW170290   2.972   1.911   7.636 -1.3731 -0.4159  0.0687
21720SOL    HW270291   2.949   1.920   7.487  0.6250 -0.1575 -0.2414
21721SOL     OW70292   8.913   9.970   6.004 -0.1143  0.4130 -0.0462
21721SOL    HW170293   8.949  10.055   5.980  0.9964  0.1923  0.7779
21721SOL    HW270294   8.888   9.929   5.921 -0.3430  1.4007 -0.4690
21722SOL     OW70295   3.579   0.802   3.962 -0.5038 -0.0188  0.3432
21722SOL    HW170296   3.596   0.794   3.868 -0.1047  1.2066  0.3037
21722SOL    HW270297   3.488   0.830   3.968  0.2268  2.4612  0.2137
21723SOL     OW70298   7.252   7.599  10.000  0.2309 -0.0547 -0.0595
21723SOL    HW170299   7.344   7.600   9.972  0.0308 -1.3395 -0.8019
21723SOL    HW270300   7.223   7.690   9.992  0.3089 -0.2936 -3.5876
21724SOL     OW70301   8.869   6.349   6.404 -0.0058 -0.7741 -0.2790
21724SOL    HW170302   8.807   6.393   6.462  0.4828 -0.0258 -0.3148
21724SOL    HW270303   8.892   6.268   6.451 -0.1642 -0.5238  0.2388
21725SOL     OW70304   2.582   4.031   2.276  0.5712 -0.3344  0.1849
21725SOL    HW170305   2.523   4.071   2.340  1.2074 -0.0118  0.5679
21725SOL    HW270306   2.640   4.102   2.249  1.9892 -1.1001  1.2011
21726SOL     OW70307   9.053  11.015   0.211 -0.0478 -0.7721  0.0704
21726SOL    HW170308   9.131  11.056   0.175 -0.1051 -0.7993 -0.0896
21726SOL    HW270309   8.980  11.055   0.164 -0.1489 -0.5265  0.4338
21727SOL     OW70310   7.454   5.252   9.549 -0.4897  0.2088  0.1702
21727SOL    HW170311   7.397   5.329   9.549 -0.4222  0.2619 -0.0471
21727SOL    HW270312   7.395   5.178   9.536 -0.7185  0.0854  1.8783
21728SOL     OW70313   7.608   8.535   0.395 -0.1128  0.5067 -0.1257
21728SOL    HW170314   7.548   8.461   0.408 -1.3813  1.2260 -1.7689
21728SOL    HW270315   7.666   8.532   0.471 -0.4629 -1.8776  0.0976
21729SOL     OW70316   4.865   2.777   9.518 -0.2894 -0.4651 -0.1092
21729SOL    HW170317   4.785   2.752   9.472 -1.1085  1.3314  0.3103
21729SOL    HW270318   4.835   2.833   9.590  1.1125 -1.9985  1.7024
21730SOL     OW70319   8.806   0.078   5.064  0.1834  0.1725 -0.7543
21730SOL    HW170320   8.763   0.012   5.118  1.7768  0.8439  1.4242
21730SOL    HW270321   8.771   0.161   5.097  0.2644  0.5473 -1.6053
21731SOL     OW70322  10.785   5.277   1.036  0.4527  0.2784  0.2086
21731SOL    HW170323  10.724   5.243   1.101 -2.5433  3.1461 -0.9885
21731SOL    HW270324  10.845   5.333   1.085 -0.0114  0.1969  0.8680
21732SOL     OW70325  10.138   1.615   0.960 -0.3365 -0.4978 -0.2003
21732SOL    HW170326  10.094   1.660   1.032 -2.8739 -3.3466  0.1183
21732SOL    HW270327  10.227   1.650   0.960 -0.8884  1.0486  2.9834
21733SOL     OW70328   8.806   3.472   7.346  0.0541  0.4271  0.1796
21733SOL    HW170329   8.885   3.520   7.321  0.4986  0.3237  1.3622
21733SOL    HW270330   8.734   3.522   7.307  0.6984  0.5725 -0.8159
21734SOL     OW70331   2.571   7.094   5.004  0.0417  0.4563 -0.0163
21734SOL    HW170332   2.485   7.121   5.035 -2.2328 -2.6743 -3.1066
21734SOL    HW270333   2.602   7.031   5.070 -0.3851  0.9835  0.6931
21735SOL     OW70334   1.308   6.310   6.162 -0.1262 -0.1623  0.1020
21735SOL    HW170335   1.299   6.226   6.207  0.8062 -0.6812 -0.6470
21735SOL    HW270336   1.403   6.323   6.155 -0.2451  1.8739  1.9058
21736SOL     OW70337   3.816   7.438  10.500 -0.4336  0.6048  0.2358
21736SOL    HW170338   3.832   7.390  10.419  1.7032  0.7849  0.5099
21736SOL    HW270339   3.810   7.530  10.472 -0.2699  0.6054  0.2005
21737SOL     OW70340  10.168   0.947   1.776  0.3744  0.0480  0.4387
21737SOL    HW170341  10.113   0.930   1.853  0.4910 -0.6483  0.3718
21737SOL    HW270342  10.188   1.041   1.781 -1.8461  0.5894 -0.2170
21738SOL     OW70343   2.466   1.254   7.206  0.2420  0.1572 -0.4509
21738SOL    HW170344   2.540   1.314   7.211 -0.1847  0.6798 -0.2441
21738SOL    HW270345   2.459   1.216   7.293 -1.0213  1.7062  0.1679
21739SOL     OW70346   2.042   6.205   6.835 -0.8694  0.0897  0.0369
21739SOL    HW170347   2.112   6.142   6.819 -0.7967  0.4526 -1.1337
21739SOL    HW270348   2.082   6.291   6.819 -0.9205  0.4689  1.7922
21740SOL     OW70349   9.692   6.534  10.602 -0.3721 -0.0026 -0.5729
21740SOL    HW170350   9.681   6.597  10.673  0.5306  1.9994 -2.1513
21740SOL    HW270351   9.787   6.529  10.590 -0.3503 -2.9317  0.6119
21741SOL     OW70352  11.327   6.278   8.325  0.1139 -0.2577 -0.1914
21741SOL    HW170353  11.381   6.317   8.394 -0.3530  0.2062 -0.0859
21741SOL    HW270354  11.244   6.257   8.369 -1.1252  2.3283 -1.1434
21742SOL     OW70355   2.027   4.993   3.461  0.2305  0.0565  0.4768
21742SOL    HW170356   1.990   4.920   3.412  0.9908  0.2489 -0.4034
21742SOL    HW270357   2.115   5.003   3.425  0.9652 -0.0687  2.1734
21743SOL     OW70358   6.357  11.245   8.330 -0.3570  0.0861  0.5468
21743SOL    HW170359   6.392  11.312   8.388 -1.7470 -0.6771  2.3430
21743SOL    HW270360   6.433  11.193   8.304  0.4778  1.3116  0.5454
21744SOL     OW70361   0.774   9.265   2.421 -0.4459 -0.0916 -0.3331
21744SOL    HW170362   0.772   9.361   2.419 -0.8550 -0.1318 -2.9889
21744SOL    HW270363   0.866   9.243   2.434 -0.0992  0.6399 -1.5182
21745SOL     OW70364   2.657   1.683   5.190 -0.2877  0.0951 -0.2306
21745SOL    HW170365   2.690   1.767   5.157 -1.2184  0.4921 -0.1689
21745SOL    HW270366   2.699   1.617   5.135  0.7054  0.5795 -0.0784
21746SOL     OW70367  11.023   9.051   0.030 -0.6735  0.2276  0.4537
21746SOL    HW170368  11.032   8.967  -0.015 -2.0613  0.3101  0.0013
21746SOL    HW270369  10.981   9.108  -0.034  0.8144  1.4494  0.5475
21747SOL     OW70370   8.894   4.047   2.212  0.1598  0.6447 -0.0009
21747SOL    HW170371   8.812   4.050   2.261  0.0700 -0.1944 -0.0843
21747SOL    HW270372   8.895   3.959   2.174  0.4629  1.1226 -1.1016
21748SOL     OW70373   1.617   4.888   4.226  0.8349 -0.5508  0.3323
21748SOL    HW170374   1.554   4.866   4.295  3.1097 -1.4096  2.2529
21748SOL    HW270375   1.639   4.980   4.242 -1.4717  0.3953 -1.6772
21749SOL     OW70376   8.004   2.108   7.860  0.0202  0.1596  0.6438
21749SOL    HW170377   8.041   2.053   7.929  2.7748  1.3304  0.1833
21749SOL    HW270378   8.079   2.129   7.803 -1.5906  1.6881 -0.9941
21750SOL     OW70379  10.641   7.639   7.667 -0.0308  0.1695 -0.1431
21750SOL    HW170380  10.651   7.650   7.761  0.9618 -0.0017 -0.2267
21750SOL    HW270381  10.558   7.593   7.657  0.4145 -0.8125  0.7026
21751SOL     OW70382   8.593   8.779   0.469  0.2801  0.2694 -0.3139
21751SOL    HW170383   8.566   8.847   0.407 -0.3013  0.5318  0.2234
21751SOL    HW270384   8.662   8.820   0.520  0.0247  0.4106 -0.0815
21752SOL     OW70385   4.696   1.931   8.174  0.0157 -0.3765  0.2043
21752SOL    HW170386   4.708   1.915   8.267  1.7750  0.1540  0.1016
21752SOL    HW270387   4.640   2.008   8.169  0.3673 -0.0722  0.8479
21753SOL     OW70388   2.897   4.835   9.217 -0.5422  0.3370 -0.0991
21753SOL    HW170389   2.814   4.789   9.210  0.0858 -1.1993  1.9540
21753SOL    HW270390   2.936   4.801   9.297  1.7158  1.6039 -0.6227
21754SOL     OW70391   5.905   9.688   2.975 -0.0410  0.4121 -0.1070
21754SOL    HW170392   5.917   9.660   2.884  1.1732 -0.3575  0.2770
21754SOL    HW270393   5.910   9.783   2.972  0.1487  0.3816 -0.8177
21755SOL     OW70394   1.009   5.873   4.061  0.1500  0.4585 -0.6182
21755SOL    HW170395   0.915   5.875   4.041  0.2482  1.2515 -0.9993
21755SOL    HW270396   1.015   5.912   4.149  0.0659 -0.1173 -0.3529
21756SOL     OW70397   8.621   2.561   7.724  0.2156 -0.2333 -0.4238
21756SOL    HW170398   8.567   2.639   7.732  0.9983  0.1562  1.2252
21756SOL    HW270399   8.598   2.524   7.638 -1.1962  1.0036 -0.5855
21757SOL     OW70400   2.513   8.751   5.174 -0.0208 -0.3338 -0.0513
21757SOL    HW170401   2.511   8.837   5.132 -0.7751  0.2059  1.0742
21757SOL    HW270402   2.522   8.770   5.268  0.3347 -1.4935  0.1612
21758SOL     OW70403   9.417   2.750  10.609 -0.1411  0.1854  0.3211
21758SOL    HW170404   9.373   2.808  10.671  0.1830  0.4989  0.2564
21758SOL    HW270405   9.366   2.759  10.528  0.0452  0.5626  0.2411
21759SOL     OW70406   9.018   5.453   0.315 -0.4075  0.3223  0.9733
21759SOL    HW170407   8.944   5.479   0.259 -1.3424 -3.5157  0.2452
21759SOL    HW270408   9.094   5.491   0.272 -1.4457 -0.0142 -1.2676
21760SOL     OW70409  10.795   8.380   2.290  0.1728 -0.1942  0.1974
21760SOL    HW170410  10.732   8.311   2.308 -0.7666  0.4374 -0.6311
21760SOL    HW270411  10.863   8.338   2.238 -0.1401 -0.6014  0.1141
21761SOL     OW70412   6.389   7.158   7.344 -0.3851  0.2136  0.0252
21761SOL    HW170413   6.481   7.131   7.343 -0.5067 -0.2456  0.6218
21761SOL    HW270414   6.372   7.184   7.434 -0.6965  0.8215 -0.2049
21762SOL     OW70415   8.599   2.659   3.243 -0.4249  0.5795  0.6276
21762SOL    HW170416   8.604   2.719   3.168  1.9445 -0.2636  0.0490
21762SOL    HW270417   8.506   2.655   3.264 -1.4450 -0.6049 -3.5123
21763SOL     OW70418  11.131   2.656   3.492 -0.3376  0.7438 -0.2486
21763SOL    HW170419  11.069   2.724   3.518 -1.1057  0.8197 -2.2100
21763SOL    HW270420  11.076   2.581   3.470  0.2899  0.6109 -1.4171
21764SOL     OW70421   8.803   9.825   8.962 -0.5213  0.3768 -0.1575
21764SOL    HW170422   8.781   9.778   9.043 -0.1255  0.5239  0.0368
21764SOL    HW270423   8.819   9.915   8.990 -0.4439  0.4415 -0.4094
21765SOL     OW70424   6.988  10.301   8.248  0.5523  0.2089  0.2101
21765SOL    HW170425   7.018  10.277   8.161  1.3232  2.3937 -0.1740
21765SOL    HW270426   6.912  10.357   8.232  0.9320  0.9408  0.9228
21766SOL     OW70427   8.368   4.010   0.263  0.1636 -0.2845  0.2217
21766SOL    HW170428   8.417   3.977   0.188 -0.8544 -0.1683 -0.4956
21766SOL    HW270429   8.348   4.101   0.241 -0.2816 -0.2964  0.5573
21767SOL     OW70430   0.099   9.942   4.843  0.6643 -0.1017 -0.0126
21767SOL    HW170431   0.069   9.854   4.865  0.7593 -0.4080 -1.0546
21767SOL    HW270432   0.071   9.954   4.752  1.2626  0.6741 -0.0941
21768SOL     OW70433   9.726   7.699   8.847  0.1568 -0.6561  0.1018
21768SOL    HW170434   9.746   7.750   8.925 -0.2711 -1.1854  0.5580
21768SOL    HW270435   9.771   7.616   8.860 -0.5267 -1.0250  0.1293
21769SOL     OW70436   3.949   6.005  10.068 -0.3675 -0.0285  0.4606
21769SOL    HW170437   3.873   5.958  10.034  1.8910 -2.2707 -1.7133
21769SOL    HW270438   3.951   6.086  10.017 -0.6746 -0.4609 -0.2486
21770SOL     OW70439   0.455   7.521   2.212 -0.3062  0.0567  0.1176
21770SOL    HW170440   0.391   7.537   2.282 -1.6480 -1.9849 -0.5956
21770SOL    HW270441   0.475   7.609   2.178 -1.0770  0.9101  1.8000
21771SOL     OW70442   3.880   0.784   4.317  0.0679 -0.4042 -0.0494
21771SOL    HW170443   3.793   0.806   4.351 -0.1460 -0.3527 -0.6324
21771SOL    HW270444   3.879   0.815   4.227  0.2971 -1.4485 -0.4134
21772SOL     OW70445   0.120   0.847   4.381  0.1896 -0.0122 -0.0911
21772SOL    HW170446   0.169   0.928   4.396  1.2398 -0.2617 -2.0601
21772SOL    HW270447   0.173   0.779   4.424  0.2702  0.0693 -0.0610
21773SOL     OW70448   3.805   0.599   6.666  0.2676  0.3319 -0.5154
21773SOL    HW170449   3.825   0.522   6.613 -0.1247  0.1839 -0.4492
21773SOL    HW270450   3.860   0.590   6.744 -0.1040 -0.1067 -0.3034
21774SOL     OW70451   7.044   2.104   1.995  0.0751 -0.1712 -0.2432
21774SOL    HW170452   6.984   2.053   2.049 -1.1744 -0.2389 -1.6529
21774SOL    HW270453   7.129   2.061   2.007 -0.4862 -1.1128  0.4560
21775SOL     OW70454   9.076   4.061   5.906  0.1600 -0.0940 -0.0438
21775SOL    HW170455   9.051   3.980   5.950  1.5042 -1.0974 -1.0746
21775SOL    HW270456   9.004   4.078   5.845 -0.5512 -0.0174  0.8041
21776SOL     OW70457   1.600   0.653   8.511  0.0067 -0.1249 -0.7176
21776SOL    HW170458   1.535   0.592   8.477 -1.1810  0.7223 -0.0054
21776SOL    HW270459   1.641   0.691   8.433 -1.2240  0.2516 -1.1910
21777SOL     OW70460   9.575   9.822   3.932 -0.7429  0.3690  0.4304
21777SOL    HW170461   9.595   9.729   3.935 -1.3306  0.2215 -0.0396
21777SOL    HW270462   9.652   9.862   3.893 -1.8286 -0.3647 -2.6306
21778SOL     OW70463   8.905   9.080   7.279 -0.2910 -0.7329 -0.0113
21778SOL    HW170464   8.843   9.104   7.210 -1.2787 -0.7558  0.8560
21778SOL    HW270465   8.880   9.136   7.354  0.8341 -0.6285  0.2891
21779SOL     OW70466  11.065   1.271  10.869 -0.4767 -0.0552 -0.1575
21779SOL    HW170467  11.053   1.318  10.952 -1.1988 -0.1483 -0.2050
21779SOL    HW270468  11.044   1.180  10.890  0.5665 -0.3048 -0.1524
21780SOL     OW70469  10.218  11.094   6.003  0.2290 -0.2054 -0.3303
21780SOL    HW170470  10.206  11.161   5.935  0.0392 -1.6185 -1.7308
21780SOL    HW270471  10.183  11.014   5.964 -0.4387 -0.9332  1.6925
21781SOL     OW70472   4.167   6.417   4.906 -0.2179  0.0430 -0.4688
21781SOL    HW170473   4.083   6.461   4.918 -0.5997 -1.0175  0.9187
21781SOL    HW270474   4.232   6.487   4.913 -0.8795  0.5691  0.5597
21782SOL     OW70475   9.635   1.923   6.901 -0.3013  0.3224  0.1033
21782SOL    HW170476   9.588   1.904   6.820 -2.9432  0.3572  1.5965
21782SOL    HW270477   9.727   1.902   6.881 -0.8333  0.7541 -3.0175
21783SOL     OW70478   4.161   2.432   7.199 -0.1480 -0.3734 -0.5665
21783SOL    HW170479   4.191   2.501   7.140 -0.9381  0.7252  0.3039
21783SOL    HW270480   4.075   2.462   7.230  0.3315 -0.8544  1.2743
21784SOL     OW70481   3.299   8.734   2.360  0.0793  0.2447  0.2528
21784SOL    HW170482   3.315   8.802   2.425  1.6489  0.0708  0.0816
21784SOL    HW270483   3.364   8.751   2.291  0.5878 -1.4843  0.2784
21785SOL     OW70484   8.531   2.715  11.182  0.7434  0.2496  0.5364
21785SOL    HW170485   8.576   2.635  11.155 -0.4949  0.6944 -3.0583
21785SOL    HW270486   8.439   2.689  11.191  0.7502  0.6840  2.0667
21786SOL     OW70487   6.020   9.858  11.145 -0.6368 -0.0216 -0.5824
21786SOL    HW170488   6.025   9.883  11.053  0.3635 -1.5524 -0.9642
21786SOL    HW270489   6.022   9.762  11.144  1.3262 -0.0314  1.1160
21787SOL     OW70490   0.549   6.629  10.280  0.4983  0.3526 -0.6315
21787SOL    HW170491   0.570   6.678  10.360 -0.0817  1.3953 -1.1064
21787SOL    HW270492   0.609   6.664  10.214 -0.8939  1.4481 -1.3285
21788SOL     OW70493   1.432   4.518   7.819 -0.7974  0.1532 -0.0182
21788SOL    HW170494   1.492   4.512   7.893 -0.9843  1.8939  0.2806
21788SOL    HW270495   1.462   4.449   7.759 -0.9661 -1.6064  1.8812
21789SOL     OW70496   0.292   7.442   0.684  0.1567  0.0414 -0.0769
21789SOL    HW170497   0.366   7.497   0.712  1.1970 -1.2443 -0.2349
21789SOL    HW270498   0.333   7.369   0.638 -1.1584 -1.1797  0.6555
21790SOL     OW70499   3.886   5.434   6.706 -0.1841  0.0627 -0.8478
21790SOL    HW170500   3.801   5.406   6.671 -0.6646  0.7829 -0.2807
21790SOL    HW270501   3.873   5.526   6.728  0.9153  0.3175 -1.2622
21791SOL     OW70502   9.571   3.340   8.790 -0.1350 -0.5685 -0.0536
21791SOL    HW170503   9.475   3.342   8.784 -0.2486 -0.9165  1.5270
21791SOL    HW270504   9.589   3.325   8.882  1.4542 -1.2411 -0.4595
21792SOL     OW70505   0.936   4.732   3.355  0.3778 -0.3209  0.7433
21792SOL    HW170506   0.878   4.808   3.350 -1.0544 -1.3367  1.6312
21792SOL    HW270507   0.933   4.695   3.267 -1.3836 -1.1148  1.1093
21793SOL     OW70508   3.269   4.444   8.976  0.3341  0.3496  0.1429
21793SOL    HW170509   3.192   4.430   9.031 -1.3410  0.2624 -2.1321
21793SOL    HW270510   3.237   4.497   8.903  2.2110 -0.4489 -1.3227
21794SOL     OW70511   0.579   4.568  11.103  0.7166 -0.1021 -0.4954
21794SOL    HW170512   0.646   4.502  11.122 -0.3416 -0.9486  0.4076
21794SOL    HW270513   0.496   4.520  11.112 -0.1138  1.5657  1.0608
21795SOL     OW70514   6.982   7.999   7.129  0.1320  0.1400 -0.2684
21795SOL    HW170515   7.068   8.041   7.118 -0.0775  0.7472  0.3645
21795SOL    HW270516   6.953   8.028   7.215 -0.8992  0.2847 -0.6597
21796SOL     OW70517   8.946   3.775   8.126  0.1001 -0.6049  0.6596
21796SOL    HW170518   8.988   3.836   8.065 -0.5211  0.8502  1.6549
21796SOL    HW270519   9.011   3.706   8.139  1.1454  0.2641  0.1535
21797SOL     OW70520   8.363   6.853   4.881 -0.0819 -0.1125  0.0921
21797SOL    HW170521   8.373   6.879   4.790  3.0277 -0.6159  0.2406
21797SOL    HW270522   8.325   6.765   4.877 -0.3675  0.0427 -0.6936
21798SOL     OW70523   5.965   4.504   2.589 -0.0596 -0.3114  0.1410
21798SOL    HW170524   5.955   4.599   2.582 -0.5620 -0.3748 -0.0794
21798SOL    HW270525   5.959   4.486   2.683  1.1254 -0.0179  0.2828
21799SOL     OW70526   5.389   4.784   7.138  0.2024  0.2818  1.1844
21799SOL    HW170527   5.375   4.691   7.157  2.5018 -0.1052  1.1177
21799SOL    HW270528   5.426   4.785   7.050  1.9780  1.1114  1.9206
21800SOL     OW70529   8.081   7.664   5.418  0.0303 -0.0864 -0.2021
21800SOL    HW170530   8.127   7.663   5.502  0.4622  1.1674 -0.4203
21800SOL    HW270531   8.149   7.643   5.353  0.4117  2.1199 -0.5612
21801SOL     OW70532   1.904   0.497   9.433 -0.2065 -0.2524  0.1349
21801SOL    HW170533   1.958   0.544   9.497 -1.5047 -0.5143  1.4470
21801SOL    HW270534   1.955   0.419   9.411  1.2241  0.9121 -0.8172
21802SOL     OW70535   2.612   5.852   2.005 -0.5244  0.2062 -0.1871
21802SOL    HW170536   2.549   5.876   1.937  0.6109 -0.0717 -1.3446
21802SOL    HW270537   2.692   5.830   1.958  0.8892  1.8818  1.3353
21803SOL     OW70538   5.997   0.203   8.492  0.0521  0.0362  0.0215
21803SOL    HW170539   5.922   0.220   8.434 -0.4053  0.7257  0.7981
21803SOL    HW270540   6.020   0.112   8.475  1.1374  0.7555 -2.6182
21804SOL     OW70541   2.686  10.894  10.573 -0.0979 -0.0208 -0.2553
21804SOL    HW170542   2.694  10.940  10.489  0.2488 -1.2603 -0.9041
21804SOL    HW270543   2.591  10.888  10.588 -0.1472  0.8582 -0.1824
21805SOL     OW70544   7.260   3.266   2.822  0.2029  0.3196 -0.2075
21805SOL    HW170545   7.302   3.221   2.896  1.4068  0.9708 -0.4787
21805SOL    HW270546   7.270   3.206   2.748 -0.4548 -0.0644  0.0111
21806SOL     OW70547   9.214   9.602   3.627  0.4258 -0.4432  0.2864
21806SOL    HW170548   9.123   9.572   3.619  0.9420 -1.3925 -2.5602
21806SOL    HW270549   9.208   9.682   3.680 -2.0746 -0.3913  0.0006
21807SOL     OW70550   6.034  10.489   2.754 -0.0787  0.4676  0.5537
21807SOL    HW170551   6.099  10.423   2.778  0.1480  0.6994  0.5756
21807SOL    HW270552   5.950  10.449   2.777 -0.0264 -0.3167 -0.5590
21808SOL     OW70553   1.755   7.349   0.617 -0.6690  0.0205 -0.5075
21808SOL    HW170554   1.765   7.280   0.683 -0.7378 -1.3279 -1.8644
21808SOL    HW270555   1.734   7.301   0.536  1.8331  1.4268 -2.0542
21809SOL     OW70556   4.379   1.919   0.400  0.1771 -0.2307 -0.0687
21809SOL    HW170557   4.382   1.843   0.458  1.5895 -0.0675  0.0820
21809SOL    HW270558   4.287   1.945   0.400  0.1148 -0.3575  1.9333
21810SOL     OW70559   3.755   3.947   8.690  0.4022 -0.1620  0.3460
21810SOL    HW170560   3.755   4.042   8.704 -0.2557 -0.0840 -0.1440
21810SOL    HW270561   3.719   3.936   8.602  0.8303 -0.8473  0.2541
21811SOL     OW70562   9.297   4.216   6.859 -0.3907  0.2359  0.0984
21811SOL    HW170563   9.227   4.202   6.795 -0.1373  0.7709 -0.2957
21811SOL    HW270564   9.297   4.136   6.913 -1.0821  0.0953 -0.1098
21812SOL     OW70565   4.430   2.826   9.489  0.2445 -0.1680  0.4830
21812SOL    HW170566   4.499   2.761   9.480 -1.5937 -2.1453  0.1098
21812SOL    HW270567   4.459   2.900   9.435  3.9885  0.8409  3.6436
21813SOL     OW70568   0.069   2.150   1.529 -0.0222  0.5243  0.4943
21813SOL    HW170569   0.160   2.121   1.525  0.0779  0.9914 -0.9972
21813SOL    HW270570   0.019   2.076   1.493 -0.3123 -0.0337  2.0243
21814SOL     OW70571   6.226   5.076   8.681 -0.0144 -0.0251  0.3963
21814SOL    HW170572   6.175   5.087   8.600 -1.9859  2.3221  1.8620
21814SOL    HW270573   6.209   4.986   8.707  0.0936 -0.6034 -1.4261
21815SOL     OW70574   5.139   4.364   5.649  0.3895 -0.4219 -0.0008
21815SOL    HW170575   5.156   4.337   5.559  1.4927 -0.7316  0.2918
21815SOL    HW270576   5.112   4.284   5.694 -1.6539  0.0086 -0.3890
21816SOL     OW70577  10.929   7.487   3.548 -0.0641 -0.4854 -0.1876
21816SOL    HW170578  10.932   7.493   3.453  0.2407  2.7477 -0.0279
21816SOL    HW270579  10.847   7.531   3.572  0.2178 -0.6168  1.0668
21817SOL     OW70580   9.291   2.496  10.652 -0.1717 -0.4976 -0.0200
21817SOL    HW170581   9.341   2.566  10.695 -1.1175 -1.4114  2.6449
21817SOL    HW270582   9.221   2.542  10.606 -0.5191  0.3704  1.3302
21818SOL     OW70583   2.751   1.046   6.960  0.3562  0.0337  0.2687
21818SOL    HW170584   2.691   1.015   6.892 -1.1266  0.5199  1.3291
21818SOL    HW270585   2.704   1.030   7.042  1.0500  1.8254  1.0320
21819SOL     OW70586   1.054   6.871   5.216 -0.0065  0.0700  0.5985
21819SOL    HW170587   1.029   6.883   5.124  1.7494  0.5173  0.1706
21819SOL    HW270588   1.139   6.827   5.213  0.1655  0.2832  2.0075
21820SOL     OW70589   1.876   7.336   2.882  0.1264 -0.7087 -0.0409
21820SOL    HW170590   1.818   7.274   2.926  0.9557 -0.2705  1.7331
21820SOL    HW270591   1.930   7.282   2.824 -1.6426 -1.1729 -1.2686
21821SOL     OW70592   3.880   9.580   7.536 -0.1389 -0.0943 -0.0492
21821SOL    HW170593   3.879   9.490   7.506  2.5907  0.1899 -1.1316
21821SOL    HW270594   3.917   9.576   7.624  0.0781 -0.0285 -0.1362
21822SOL     OW70595   5.431  10.147   0.772 -0.1994  0.3822  0.5083
21822SOL    HW170596   5.425  10.208   0.845 -0.7780  0.0333  0.7537
21822SOL    HW270597   5.342  10.142   0.737 -0.4314 -1.2540  1.2631
21823SOL     OW70598  11.033   2.039   1.615  0.6307  0.2250  0.0046
21823SOL    HW170599  11.087   2.118   1.611 -0.1811  0.8297  1.0798
21823SOL    HW270600  11.070   1.988   1.688  0.6069 -0.0028 -0.1405
21824SOL     OW70601  11.162   6.079   6.877 -0.5791  0.1771 -0.0919
21824SOL    HW170602  11.160   6.175   6.873 -2.0693  0.1735  0.2375
21824SOL    HW270603  11.195   6.052   6.791 -0.1542  0.9854 -0.1855
21825SOL     OW70604   1.938  10.521   2.353  0.4032  0.0172  0.2738
21825SOL    HW170605   1.951  10.580   2.279 -0.4831  1.5092  1.2699
21825SOL    HW270606   1.853  10.480   2.336  0.6914 -0.4342 -0.0684
21826SOL     OW70607   4.780   0.523   4.852 -0.1639 -0.1130  0.4029
21826SOL    HW170608   4.749   0.433   4.847 -0.8860  0.1715 -0.2337
21826SOL    HW270609   4.719   0.567   4.910  1.2388 -0.4648  2.1900
21827SOL     OW70610   2.550   7.127   4.108  0.3391 -0.2578 -0.3948
21827SOL    HW170611   2.517   7.075   4.035  2.3798 -1.0210 -0.8093
21827SOL    HW270612   2.597   7.200   4.067 -1.6928  1.4156  0.1861
21828SOL     OW70613   6.688   6.463   6.563 -0.4070 -0.0978  0.0525
21828SOL    HW170614   6.783   6.448   6.560 -0.3724 -0.0252  0.7782
21828SOL    HW270615   6.651   6.377   6.584 -0.5950 -0.4170 -1.5189
21829SOL     OW70616   0.260   6.274   5.416 -0.4147 -0.0424  0.0635
21829SOL    HW170617   0.339   6.307   5.459 -0.3686 -0.7325  0.5098
21829SOL    HW270618   0.280   6.279   5.323 -0.7920  2.1756  0.0527
21830SOL     OW70619   7.843   8.576   8.429  0.0022 -0.3426 -0.3314
21830SOL    HW170620   7.890   8.544   8.506  0.2552 -0.7230 -0.6349
21830SOL    HW270621   7.801   8.657   8.458 -0.0527 -0.5799  0.2509
21831SOL     OW70622   6.003   2.411   5.190 -0.7718 -0.5161  0.2279
21831SOL    HW170623   6.019   2.441   5.101 -0.8889  0.2670  0.4639
21831SOL    HW270624   5.911   2.432   5.207 -0.5397  0.0691  0.8038
21832SOL     OW70625   1.261   0.268   5.639 -0.5826  0.4810  0.0385
21832SOL    HW170626   1.341   0.231   5.603  0.0100  0.8672  0.9449
21832SOL    HW270627   1.285   0.296   5.728 -1.1397  2.5899 -0.4576
21833SOL     OW70628   7.175   8.431   5.975 -0.2067  0.2041 -0.0473
21833SOL    HW170629   7.107   8.372   5.942  2.3442 -3.3823  0.8009
21833SOL    HW270630   7.252   8.411   5.922  1.5925  0.4780  2.3689
21834SOL     OW70631   9.356   9.001   9.728  0.1655  0.4532 -0.3051
21834SOL    HW170632   9.262   9.018   9.719 -0.0657 -1.2122 -1.1369
21834SOL    HW270633   9.361   8.919   9.776  1.2181  0.8347  0.2544
21835SOL     OW70634   2.275   5.708   7.011 -0.2093  0.7918 -0.2555
21835SOL    HW170635   2.236   5.733   7.095 -0.6639 -1.4660  0.2635
21835SOL    HW270636   2.211   5.646   6.973  0.9547  0.2044 -1.2966
21836SOL     OW70637  11.316   2.507   9.484  0.2058 -0.3181  0.1018
21836SOL    HW170638  11.293   2.554   9.404 -0.8886  0.1569  0.6724
21836SOL    HW270639  11.314   2.574   9.553  2.7682 -0.3890  0.2919
21837SOL     OW70640   8.742   9.732   5.539  0.5696  0.1551  0.0880
21837SOL    HW170641   8.811   9.689   5.488  1.0201  2.1813 -1.0501
21837SOL    HW270642   8.701   9.660   5.587  0.8359 -1.6626 -2.2861
21838SOL     OW70643   1.494  10.620   2.611 -0.2253  0.4639 -0.1284
21838SOL    HW170644   1.486  10.635   2.517  1.5282  2.5833  0.0296
21838SOL    HW270645   1.453  10.696   2.652 -0.0814  0.0543  0.7992
21839SOL     OW70646   9.328   3.533   7.972 -0.3021  0.1011  0.0414
21839SOL    HW170647   9.379   3.584   7.909 -0.1581 -2.0174 -1.5787
21839SOL    HW270648   9.358   3.564   8.057  1.0153  1.5089 -0.9045
21840SOL     OW70649   0.597   0.188   3.248  0.3690 -0.2230 -0.0234
21840SOL    HW170650   0.654   0.158   3.178 -1.2155 -2.2140 -0.4806
21840SOL    HW270651   0.561   0.271   3.216  0.4396 -0.6160 -1.1293
21841SOL     OW70652  10.237   4.031   7.432  0.1537 -0.7861 -0.2460
21841SOL    HW170653  10.241   4.015   7.338 -1.3364 -2.6351 -0.0294
21841SOL    HW270654  10.144   4.048   7.449  0.2265 -1.6386  1.0541
21842SOL     OW70655   3.108   1.460  10.401 -0.0496  0.3806  0.4751
21842SOL    HW170656   3.080   1.528  10.463  1.0175  0.6412  0.6723
21842SOL    HW270657   3.181   1.416  10.445 -0.1491 -0.3080 -0.0427
21843SOL     OW70658   7.723   5.915   2.903  0.1866 -0.6206  0.2203
21843SOL    HW170659   7.781   5.990   2.891 -3.3576  2.2686  0.2125
21843SOL    HW270660   7.662   5.919   2.829 -0.8399 -2.7813  0.8929
21844SOL     OW70661   2.714   4.947   0.353 -0.3916 -0.4055 -0.6360
21844SOL    HW170662   2.746   5.033   0.327  0.9715 -0.7523 -0.1294
21844SOL    HW270663   2.764   4.885   0.299 -1.4282 -0.8825 -1.0647
21845SOL     OW70664   2.064  11.304   9.830  0.2167  0.5153 -0.0109
21845SOL    HW170665   2.048  11.399   9.833  0.3422  0.5127  1.0104
21845SOL    HW270666   2.050  11.275   9.920  1.6925 -0.1878  0.0038
21846SOL     OW70667   7.545   4.681   2.206 -0.0283  0.1322  0.5101
21846SOL    HW170668   7.607   4.639   2.265  0.6695  1.2746  0.5905
21846SOL    HW270669   7.597   4.709   2.131 -0.0317  2.9576  1.4987
21847SOL     OW70670   3.596   3.796   2.923 -0.2123 -0.3567  0.4102
21847SOL    HW170671   3.626   3.835   2.841  0.2384 -0.5930  0.4607
21847SOL    HW270672   3.585   3.703   2.903 -1.3202 -0.1991  0.2796
21848SOL     OW70673   3.203   7.235   6.105 -0.2830 -0.3651  0.2000
21848SOL    HW170674   3.164   7.240   6.192  0.2517  2.0412  0.3534
21848SOL    HW270675   3.130   7.250   6.045 -0.0270  1.9905  0.4145
21849SOL     OW70676   7.507   8.173   8.448  0.3509 -0.3767  0.3631
21849SOL    HW170677   7.541   8.263   8.443 -0.0638 -0.2625 -0.4639
21849SOL    HW270678   7.495   8.157   8.542 -0.8858  0.9276  0.4489
21850SOL     OW70679   5.847   2.112   1.702  0.2713  0.0853  0.2708
21850SOL    HW170680   5.844   2.206   1.682  0.3196  0.2674  1.0638
21850SOL    HW270681   5.930   2.082   1.665  1.7912  1.0424  2.7076
21851SOL     OW70682   0.820   9.028   2.681 -0.4028  0.2101 -0.0013
21851SOL    HW170683   0.869   8.978   2.746 -0.0066  0.3154 -0.2172
21851SOL    HW270684   0.883   9.046   2.612 -0.9231 -0.2580 -0.6141
21852SOL     OW70685   0.823   5.667   2.899  0.1635 -0.5442 -0.5668
21852SOL    HW170686   0.839   5.695   2.989 -1.4208 -1.8174  0.1384
21852SOL    HW270687   0.842   5.744   2.846  0.4731  0.4225  0.9181
21853SOL     OW70688  10.990   2.783   5.856  0.4671 -0.1359  0.0251
21853SOL    HW170689  11.041   2.733   5.921  0.3671 -1.8448 -1.1784
21853SOL    HW270690  11.042   2.779   5.776  0.3832  1.6030 -0.1285
21854SOL     OW70691   7.196   1.805  10.922 -0.2077 -0.3601  0.3724
21854SOL    HW170692   7.210   1.735  10.985  0.7264  0.3750  0.9825
21854SOL    HW270693   7.278   1.810  10.873 -0.5245 -0.1629 -0.1432
21855SOL     OW70694   5.190   5.880   8.173 -0.0769  0.0423  0.2374
21855SOL    HW170695   5.218   5.871   8.082  0.0714 -0.5208  0.3368
21855SOL    HW270696   5.134   5.804   8.189  1.9301 -1.2582  1.3586
21856SOL     OW70697   4.343   8.878   0.872 -0.3314 -0.3420 -0.5433
21856SOL    HW170698   4.313   8.789   0.854  0.7958 -0.7821 -0.3391
21856SOL    HW270699   4.395   8.902   0.795 -0.0031 -0.1520 -0.2667
21857SOL     OW70700   4.282   0.907   1.723 -0.0943 -0.0545  0.3276
21857SOL    HW170701   4.233   0.979   1.683  1.9321  0.7434 -0.8047
21857SOL    HW270702   4.325   0.947   1.799  0.0822 -0.3446  0.3786
21858SOL     OW70703   7.705   6.671  10.699  0.1165  0.1434  0.5578
21858SOL    HW170704   7.788   6.696  10.739  0.5327  1.2140 -0.9002
21858SOL    HW270705   7.722   6.586  10.658  0.3248  0.0763  0.7843
21859SOL     OW70706  10.547   4.645   4.894 -0.0915  0.3220 -0.3785
21859SOL    HW170707  10.474   4.583   4.899 -0.2715  0.5962  0.5215
21859SOL    HW270708  10.510   4.728   4.926  1.0626  0.0434  1.7676
21860SOL     OW70709   6.990   3.581   6.943  0.5790 -0.0220  0.1834
21860SOL    HW170710   7.032   3.663   6.915 -1.0537  0.4862 -0.8566
21860SOL    HW270711   7.011   3.575   7.036 -0.7050  2.5106  0.6994
21861SOL     OW70712   9.673   9.645   5.959  0.3334 -0.0764 -0.7735
21861SOL    HW170713   9.729   9.719   5.934  1.0606  0.1091  1.2872
21861SOL    HW270714   9.713   9.611   6.039 -0.5712 -2.0944 -1.1588
21862SOL     OW70715   6.495   2.867   3.372  0.0313 -0.9064 -0.3738
21862SOL    HW170716   6.440   2.795   3.341 -0.0360 -0.5921 -0.9912
21862SOL    HW270717   6.499   2.927   3.298  2.7040 -1.7932 -1.0221
21863SOL     OW70718  10.156   9.448   2.196 -0.0559  0.1962 -0.3162
21863SOL    HW170719  10.083   9.506   2.216 -1.8756 -1.7679 -1.0171
21863SOL    HW270720  10.120   9.360   2.208  2.1184 -0.8063 -0.9571
21864SOL     OW70721   3.019   4.265   2.238 -0.1116  1.1017  0.1884
21864SOL    HW170722   2.977   4.318   2.170 -2.2443  0.9350  1.3233
21864SOL    HW270723   3.067   4.328   2.291 -1.2312  1.6997  0.5166
21865SOL     OW70724  10.975   0.835   8.635  0.5428 -0.0464 -0.0475
21865SOL    HW170725  10.966   0.755   8.686  0.3356  0.5222  0.8332
21865SOL    HW270726  11.031   0.811   8.561  1.2959 -0.7606  0.7479
21866SOL     OW70727   7.567   8.574   0.812  0.6324 -0.3095 -0.3847
21866SOL    HW170728   7.510   8.606   0.743  0.1384 -0.4786 -0.0577
21866SOL    HW270729   7.511   8.519   0.866  0.6112  1.0583  1.0458
21867SOL     OW70730   0.603   3.529   1.463  0.3742  0.6185 -0.8336
21867SOL    HW170731   0.520   3.572   1.484  0.4824  0.0671  0.8537
21867SOL    HW270732   0.659   3.598   1.430 -1.7208  0.4693 -4.9489
21868SOL     OW70733   8.164  10.608   7.126  0.2981 -0.0798  0.7909
21868SOL    HW170734   8.224  10.544   7.165 -1.3653 -2.1012  0.1536
21868SOL    HW270735   8.096  10.620   7.192  0.1563  0.3901  0.5615
21869SOL     OW70736   0.649   4.218   9.379  0.1345 -0.8061  0.1949
21869SOL    HW170737   0.691   4.242   9.297  1.2590  1.5090  1.3938
21869SOL    HW270738   0.556   4.206   9.356  0.4873 -0.5127 -1.4451
21870SOL     OW70739   1.751   8.286   0.907  0.1131  0.4996 -0.1906
21870SOL    HW170740   1.733   8.199   0.943  1.3992 -0.1764 -1.1470
21870SOL    HW270741   1.810   8.327   0.970 -1.9558  1.4041  1.1995
21871SOL     OW70742   0.323   7.535   6.053  0.0813  0.2080  0.1673
21871SOL    HW170743   0.314   7.540   6.149 -0.4614  1.6450  0.0577
21871SOL    HW270744   0.346   7.444   6.036 -2.4693 -0.7385  1.4593
21872SOL     OW70745   5.015  10.893   1.711 -0.2962 -0.0895 -0.5609
21872SOL    HW170746   5.072  10.817   1.723  0.8601  1.1036  1.9080
21872SOL    HW270747   5.071  10.959   1.671  0.5645  1.5347  3.0668
21873SOL     OW70748   2.683   3.895  11.232  0.3050  0.0339 -0.1429
21873SOL    HW170749   2.771   3.880  11.267  0.6177 -0.1959 -0.9990
21873SOL    HW270750   2.624   3.863  11.299  0.9175 -2.1153 -0.5947
21874SOL     OW70751   0.061   0.385   8.250  0.0775 -0.1527  0.2567
21874SOL    HW170752   0.138   0.405   8.197 -0.9907 -0.5278 -1.4935
21874SOL    HW270753   0.028   0.471   8.277  0.1064  0.0903 -0.4769
21875SOL     OW70754   1.585   1.238  11.050 -0.0387 -0.0986 -0.0470
21875SOL    HW170755   1.513   1.291  11.015 -0.2232  0.0633  0.5853
21875SOL    HW270756   1.653   1.301  11.072 -0.2862 -0.1194  0.7722
21876SOL     OW70757   4.385   7.012   3.685  0.0481  0.1653 -0.0853
21876SOL    HW170758   4.435   7.075   3.634 -1.0638  2.3286  1.4515
21876SOL    HW270759   4.296   7.048   3.688 -0.9375 -2.1298 -0.2946
21877SOL     OW70760   7.159   7.135   8.888  0.0799  0.4301  0.5634
21877SOL    HW170761   7.111   7.083   8.953  0.7545  0.6900  1.2851
21877SOL    HW270762   7.252   7.121   8.911  0.2906  1.1992  0.1828
21878SOL     OW70763   8.761   5.494  10.975  0.8124  0.2076  0.5250
21878SOL    HW170764   8.844   5.466  10.936  0.0749  0.6695 -1.4037
21878SOL    HW270765   8.710   5.413  10.985  1.1093  0.0543  0.8074
21879SOL     OW70766   8.593   3.278   1.098 -0.0638  1.1302  0.2104
21879SOL    HW170767   8.556   3.243   1.017 -1.0850  2.8866 -0.1041
21879SOL    HW270768   8.530   3.344   1.127 -0.9991 -1.1689  3.7899
21880SOL     OW70769   4.809   9.045   1.246  0.3699  0.3050  0.0778
21880SOL    HW170770   4.904   9.045   1.235  0.4187 -1.1189  0.4814
21880SOL    HW270771   4.796   9.064   1.339  0.2990 -0.9929  0.3340
21881SOL     OW70772   1.457   3.939   1.529  0.3769  0.4684 -0.3675
21881SOL    HW170773   1.379   3.936   1.473 -0.4876  2.6447  0.6790
21881SOL    HW270774   1.430   3.897   1.610  0.0856  1.7619  0.2173
21882SOL     OW70775   0.523   3.121   7.298  0.4258 -0.6211 -0.1217
21882SOL    HW170776   0.458   3.056   7.272 -1.4074  1.1294 -0.0071
21882SOL    HW270777   0.548   3.164   7.217 -1.4364  1.3040  0.2859
21883SOL     OW70778   9.636   3.127   4.617  0.1433  0.5561 -0.1496
21883SOL    HW170779   9.730   3.121   4.601  0.0459 -0.7723 -0.2355
21883SOL    HW270780   9.603   3.038   4.604 -0.8146  0.5922  1.9518
21884SOL     OW70781   2.076   7.130   6.316  0.1009 -0.1627 -0.1969
21884SOL    HW170782   2.102   7.137   6.224 -1.8177 -0.6719 -0.8017
21884SOL    HW270783   2.008   7.197   6.326 -0.5612 -0.9531  0.5398
21885SOL     OW70784   7.390   3.596   6.927 -0.1797  0.1380  0.0587
21885SOL    HW170785   7.340   3.625   6.851 -0.0481  1.7110  0.5382
21885SOL    HW270786   7.408   3.504   6.911 -2.4406 -0.2209 -0.5474
21886SOL     OW70787   7.637  10.275   8.707 -0.0477  0.0647  0.3926
21886SOL    HW170788   7.704  10.219   8.667 -0.4705  0.4503 -0.8961
21886SOL    HW270789   7.671  10.364   8.694 -0.3693  0.2138  0.5717
21887SOL     OW70790   7.312   5.992  10.193 -0.0455  0.2077 -0.0215
21887SOL    HW170791   7.241   5.937  10.226  1.6883 -1.1598  1.5525
21887SOL    HW270792   7.392   5.942  10.212  1.3146  1.4202 -2.2933
21888SOL     OW70793   8.263   4.668   1.967  0.7495 -0.2120 -0.1091
21888SOL    HW170794   8.227   4.580   1.963  0.4415 -0.0442 -1.1514
21888SOL    HW270795   8.187   4.725   1.978  0.7351  0.0889 -1.6513
21889SOL     OW70796   7.444   1.887   0.239  0.2515 -0.7048  0.1543
21889SOL    HW170797   7.415   1.797   0.223  0.2234 -0.3002 -2.2820
21889SOL    HW270798   7.521   1.898   0.183 -1.2688  1.5576 -1.6194
21890SOL     OW70799   1.552   9.041   4.941  0.0878 -0.1389  0.2612
21890SOL    HW170800   1.556   8.946   4.949 -1.4969 -0.2796 -0.5080
21890SOL    HW270801   1.542   9.057   4.848  0.2899  0.7765  0.3932
21891SOL     OW70802   0.101   1.317   0.637 -0.6338 -0.7362  0.1396
21891SOL    HW170803   0.099   1.391   0.697 -0.2931 -2.6797  2.5969
21891SOL    HW270804   0.010   1.298   0.618 -0.7328  0.0640 -0.2115
21892SOL     OW70805  10.888   1.210   7.671 -0.4194 -0.4682  0.1819
21892SOL    HW170806  10.960   1.164   7.628  0.4949  1.1013 -0.0395
21892SOL    HW270807  10.905   1.197   7.765 -1.1711 -2.0432  0.1153
21893SOL     OW70808  10.615  10.621   6.697  0.8208  0.4898  0.7251
21893SOL    HW170809  10.673  10.568   6.642 -0.0093  1.3567 -1.0378
21893SOL    HW270810  10.672  10.654   6.767  2.5312  1.4156 -1.0319
21894SOL     OW70811   0.415  11.008   3.612  0.6080  0.1597  0.3474
21894SOL    HW170812   0.442  11.100   3.619  0.6137  0.2031 -0.2253
21894SOL    HW270813   0.326  11.012   3.576  0.5102 -0.0472  0.5688
21895SOL     OW70814   5.518   1.489   9.397 -0.1423 -0.3193 -0.1323
21895SOL    HW170815   5.602   1.535   9.395 -0.6182  0.6598  1.1686
21895SOL    HW270816   5.533   1.413   9.453  0.5785 -1.6566 -2.0819
21896SOL     OW70817   0.062   5.406   5.286  0.1781  1.0367  0.1396
21896SOL    HW170818   0.097   5.487   5.249 -0.8622  1.7264  0.6444
21896SOL    HW270819   0.019   5.433   5.367 -0.8488  0.0992 -0.0757
21897SOL     OW70820   6.260   3.466   2.673  0.6188 -0.3536  0.2655
21897SOL    HW170821   6.289   3.376   2.685 -0.3079 -0.5289  1.3017
21897SOL    HW270822   6.193   3.461   2.604  0.5310 -0.4657  0.3591
21898SOL     OW70823   8.266   1.335   6.481 -0.1589 -0.2961  0.8723
21898SOL    HW170824   8.294   1.422   6.510 -0.5383 -0.2529  1.1083
21898SOL    HW270825   8.323   1.315   6.407  0.0716  0.0638  0.9516
21899SOL     OW70826   3.375  10.641   0.523 -0.4819 -0.7994 -0.4615
21899SOL    HW170827   3.289  10.631   0.562  0.7830 -2.0025  2.1396
21899SOL    HW270828   3.414  10.715   0.569  1.1749 -2.4820  0.9207
21900SOL     OW70829   3.709   2.540   1.689  0.8874 -0.5480 -0.6195
21900SOL    HW170830   3.764   2.612   1.720 -0.6480  0.6003 -0.5025
21900SOL    HW270831   3.761   2.498   1.621  2.2973 -0.0817  0.1454
21901SOL     OW70832   3.220   2.566  10.723 -0.3927  0.3358  0.5131
21901SOL    HW170833   3.223   2.661  10.735 -1.5380  0.2320  1.7896
21901SOL    HW270834   3.129   2.543  10.739 -0.4131 -0.8216 -1.1734
21902SOL     OW70835   1.978   0.464   1.170  0.1089 -0.4469  0.6510
21902SOL    HW170836   1.989   0.505   1.085 -1.0800 -1.0362  0.2059
21902SOL    HW270837   2.011   0.375   1.159 -0.0930 -0.5395  0.7921
21903SOL     OW70838   8.649   3.651   3.928  0.3823  0.1751 -0.1948
21903SOL    HW170839   8.721   3.659   3.990 -0.0664  0.7969  0.2497
21903SOL    HW270840   8.683   3.596   3.858  0.6053 -1.2659  1.0211
21904SOL     OW70841   5.667   4.769   0.915 -0.4356 -0.1634 -0.3654
21904SOL    HW170842   5.710   4.688   0.886 -1.2759 -0.2739 -1.3490
21904SOL    HW270843   5.576   4.743   0.932 -0.8394  0.6703 -1.1850
21905SOL     OW70844   7.610   4.513   8.715  0.8119  0.5733  0.1361
21905SOL    HW170845   7.652   4.441   8.668 -0.7316 -0.0049 -0.3900
21905SOL    HW270846   7.617   4.489   8.808 -0.0483 -0.4767 -0.0569
21906SOL     OW70847   9.510   8.515   6.700  0.1271 -0.1995 -0.0695
21906SOL    HW170848   9.443   8.489   6.637 -0.7035 -1.9023  1.4580
21906SOL    HW270849   9.589   8.530   6.648 -0.7699 -0.6982 -1.5863
21907SOL     OW70850   5.042   3.717   1.025  0.4662 -0.3790 -0.0402
21907SOL    HW170851   4.948   3.711   1.012  0.3830  0.1438  0.2884
21907SOL    HW270852   5.053   3.706   1.120  0.5707  1.3953  0.1674
21908SOL     OW70853  10.533   3.329   6.432 -0.7704 -0.5097  0.0792
21908SOL    HW170854  10.605   3.283   6.389 -1.5462 -1.1744 -0.5259
21908SOL    HW270855  10.542   3.308   6.525 -0.5775 -1.1469 -0.0824
21909SOL     OW70856   5.561   9.757   9.942  0.0656  0.3189 -0.3972
21909SOL    HW170857   5.630   9.737   9.879 -0.9908  0.8635 -1.7342
21909SOL    HW270858   5.524   9.840   9.913 -2.7604 -1.1267 -1.1112
21910SOL     OW70859   2.091   1.391   2.712  0.4845  0.0753 -0.2907
21910SOL    HW170860   2.168   1.388   2.768 -0.7449  0.2336  1.4810
21910SOL    HW270861   2.080   1.300   2.682  1.8307  0.2254 -1.2247
21911SOL     OW70862   5.612   9.464   0.706  0.3360  0.0163  0.2157
21911SOL    HW170863   5.566   9.381   0.718 -1.1180  0.6266 -0.8596
21911SOL    HW270864   5.583   9.495   0.620 -0.4426  2.4264  1.2852
21912SOL     OW70865   8.956   3.655   2.420  0.3674 -0.1987 -0.1368
21912SOL    HW170866   9.028   3.626   2.476 -0.5140 -1.6322  0.2833
21912SOL    HW270867   8.904   3.714   2.476  1.2320  0.8643 -0.4536
21913SOL     OW70868   7.373   2.693   4.238 -0.5443  0.5101  0.1984
21913SOL    HW170869   7.347   2.754   4.170  0.0896  0.8736  0.2715
21913SOL    HW270870   7.294   2.677   4.288 -1.1031 -0.0574 -0.8507
21914SOL     OW70871   4.219   4.742   7.026  0.5031  0.1085  0.1663
21914SOL    HW170872   4.312   4.754   7.044 -0.2266  3.0593  2.5175
21914SOL    HW270873   4.192   4.674   7.088  0.9697 -0.2359 -0.0082
21915SOL     OW70874   4.031   2.154   3.779  0.9057 -0.1181 -0.1212
21915SOL    HW170875   3.969   2.099   3.827 -0.4556  0.5570 -1.0695
21915SOL    HW270876   4.097   2.178   3.844 -1.8907  2.2954  1.9438
21916SOL     OW70877   4.301   0.740   0.200 -0.4301  0.0174  0.0576
21916SOL    HW170878   4.265   0.654   0.219 -1.5490  0.3104 -0.6565
21916SOL    HW270879   4.305   0.744   0.104 -0.3021  0.7158  0.0853
21917SOL     OW70880   7.863   9.796   3.685 -0.1539 -0.1265  0.2329
21917SOL    HW170881   7.829   9.755   3.765  1.8467  0.1763  1.2858
21917SOL    HW270882   7.845   9.733   3.616 -1.5942 -0.5565  0.9677
21918SOL     OW70883   4.538   2.117  10.154 -0.2896  0.0700  0.3258
21918SOL    HW170884   4.575   2.041  10.199  3.4741 -0.1049 -2.8253
21918SOL    HW270885   4.467   2.082  10.101 -2.3784 -0.2494  3.1832
21919SOL     OW70886   0.160   4.818   8.702  0.6576 -0.5188  0.0339
21919SOL    HW170887   0.150   4.742   8.759 -0.2003  0.3384  1.0603
21919SOL    HW270888   0.242   4.858   8.729  0.5627 -0.4708  0.2573
21920SOL     OW70889   0.943   8.178   3.714  0.8974 -0.0809  0.8019
21920SOL    HW170890   0.874   8.231   3.754 -0.2980  0.0321 -1.3467
21920SOL    HW270891   0.936   8.093   3.759 -0.2793  0.1176  1.0146
21921SOL     OW70892   6.456   2.795   8.918 -0.7098 -0.1111 -0.1717
21921SOL    HW170893   6.436   2.882   8.952  0.7920  0.0805  0.2836
21921SOL    HW270894   6.515   2.757   8.984 -1.8983 -1.7438 -0.0100
21922SOL     OW70895   8.417   1.833   3.676 -0.2307 -0.2703  0.2960
21922SOL    HW170896   8.349   1.838   3.743 -0.5593 -0.7891  0.0065
21922SOL    HW270897   8.368   1.823   3.594  0.1289  1.3550 -0.1422
21923SOL     OW70898   5.854   1.309   4.377  0.2097  0.1700 -0.1281
21923SOL    HW170899   5.856   1.402   4.352 -0.6364  0.7476  1.8419
21923SOL    HW270900   5.946   1.286   4.388  0.4497  0.6661 -0.9987
21924SOL     OW70901   3.744   9.515   0.994  0.7170  0.6367 -0.0628
21924SOL    HW170902   3.700   9.598   1.015  0.3590  0.2704  0.6446
21924SOL    HW270903   3.688   9.475   0.927 -0.5243 -0.2372  1.4618
21925SOL     OW70904   0.726   7.598  10.660  0.0293 -0.0878 -0.0408
21925SOL    HW170905   0.643   7.560  10.688  0.1205  0.6481  1.2472
21925SOL    HW270906   0.737   7.676  10.714  2.1587 -0.8403  0.6557
21926SOL     OW70907   5.722   4.589   6.882 -0.2958 -0.4416 -0.2167
21926SOL    HW170908   5.792   4.595   6.816 -1.0680 -0.4131 -1.0526
21926SOL    HW270909   5.665   4.663   6.862 -1.1917 -1.1486 -0.2899
21927SOL     OW70910   0.769  10.461   9.718  0.5278  0.3117  0.0155
21927SOL    HW170911   0.757  10.412   9.637 -0.8470  0.1526  0.2906
21927SOL    HW270912   0.689  10.444   9.768  0.7872  1.4541  0.8442
21928SOL     OW70913  10.304   5.358   1.193 -0.2809 -0.0662  0.0391
21928SOL    HW170914  10.255   5.299   1.135 -1.3489  0.1982  0.6525
21928SOL    HW270915  10.260   5.349   1.278 -0.7861  1.9979  0.0138
21929SOL     OW70916   8.106   6.497   3.018 -0.2589 -0.1972  0.0741
21929SOL    HW170917   8.094   6.492   2.923 -1.5653 -1.4313  0.2957
21929SOL    HW270918   8.138   6.411   3.043  0.7746  0.3532  0.6681
21930SOL     OW70919   7.267   9.864   6.334 -0.2489 -0.2384  0.5735
21930SOL    HW170920   7.347   9.884   6.382 -1.0259 -0.4629  2.0132
21930SOL    HW270921   7.200   9.919   6.375 -0.8917 -0.2851 -0.3999
21931SOL     OW70922   9.570   3.781   1.378 -0.2837  0.1169  0.2532
21931SOL    HW170923   9.523   3.780   1.295  0.1910  1.1424 -0.0360
21931SOL    HW270924   9.549   3.866   1.417  0.1103 -0.0432  0.8289
21932SOL     OW70925   8.806   5.153   4.611 -0.4202 -0.0480  0.0732
21932SOL    HW170926   8.714   5.137   4.629 -0.7213  1.2613 -0.3032
21932SOL    HW270927   8.807   5.216   4.539  0.7736 -1.1561 -0.9234
21933SOL     OW70928   1.219   3.549   0.485  0.1719  0.3054 -0.1847
21933SOL    HW170929   1.200   3.554   0.391 -2.0691  0.0940  0.2107
21933SOL    HW270930   1.196   3.636   0.519  0.6714  0.2878  0.1996
21934SOL     OW70931   8.382  11.298   2.564  0.1252 -0.5614 -0.3034
21934SOL    HW170932   8.336  11.358   2.623 -2.3436 -1.4274 -1.2536
21934SOL    HW270933   8.320  11.284   2.492  1.2995 -2.9949 -0.8869
21935SOL     OW70934   9.696   3.510   9.103 -0.0806 -0.2058  0.1877
21935SOL    HW170935   9.660   3.421   9.093  1.4645 -0.9330  0.8949
21935SOL    HW270936   9.625   3.568   9.077 -0.9580 -1.6738 -0.7424
21936SOL     OW70937   6.802   5.262   2.629 -0.7493  0.5780  0.3066
21936SOL    HW170938   6.808   5.256   2.534  0.8484  2.4865  0.2605
21936SOL    HW270939   6.713   5.294   2.645 -1.4524 -0.9378 -0.4496
21937SOL     OW70940  10.081   6.847   3.557  0.1306 -0.3920  0.0798
21937SOL    HW170941  10.134   6.877   3.483 -1.1072 -0.7109 -0.9691
21937SOL    HW270942  10.065   6.925   3.609  0.4796 -0.0388 -0.3421
21938SOL     OW70943   6.384   8.263   4.855  0.5437  0.0581 -0.2009
21938SOL    HW170944   6.352   8.335   4.801 -1.4502 -1.1742 -0.7439
21938SOL    HW270945   6.380   8.187   4.796  4.0411 -0.2469 -0.1115
21939SOL     OW70946   3.801   0.437   3.119 -0.7693 -0.0440 -0.6608
21939SOL    HW170947   3.799   0.517   3.171  2.1431  0.5483 -1.3804
21939SOL    HW270948   3.758   0.372   3.175  0.2882  1.1020  1.5837
21940SOL     OW70949   3.638   5.294  11.046  0.3735  0.3751  0.5349
21940SOL    HW170950   3.708   5.356  11.026 -0.7005  0.8451 -1.8764
21940SOL    HW270951   3.566   5.348  11.079  0.0008  0.2524 -0.0664
21941SOL     OW70952   6.248   3.429  10.259 -0.1920  0.1600 -0.0721
21941SOL    HW170953   6.341   3.421  10.283 -0.2388  1.0874  0.4545
21941SOL    HW270954   6.201   3.402  10.338 -0.3879 -1.6390 -0.7913
21942SOL     OW70955   0.921   1.313   1.934  0.3443 -0.0521  0.0685
21942SOL    HW170956   0.898   1.352   2.019  0.5163  0.4640 -0.1191
21942SOL    HW270957   0.946   1.388   1.880  2.4234 -0.5893  0.2472
21943SOL     OW70958   3.335   2.136   8.036  0.0267  0.8550 -0.1174
21943SOL    HW170959   3.285   2.057   8.060 -2.7774  2.4547 -0.4402
21943SOL    HW270960   3.321   2.145   7.942  3.1777 -0.1224 -0.7232
21944SOL     OW70961   3.097   3.030  10.973  0.0649 -0.1769  0.4088
21944SOL    HW170962   3.052   3.106  10.937 -0.4802 -1.5500 -1.9344
21944SOL    HW270963   3.093   3.042  11.068  1.1365  3.3335  0.0630
21945SOL     OW70964   2.979   2.237   5.704 -0.0253  0.0341  0.6153
21945SOL    HW170965   2.921   2.311   5.724  1.4190  1.5754 -0.7479
21945SOL    HW270966   2.926   2.179   5.649 -0.8054  0.6228  0.7462
21946SOL     OW70967   9.314   6.516   8.600  0.0657  0.8036 -0.1214
21946SOL    HW170968   9.303   6.541   8.691 -1.7300  1.6004 -0.5314
21946SOL    HW270969   9.226   6.489   8.572  1.4577 -3.8661 -0.3367
21947SOL     OW70970   2.489   2.351   5.332  0.8115  0.2423 -0.0151
21947SOL    HW170971   2.542   2.272   5.344 -2.2127 -1.7149  0.9738
21947SOL    HW270972   2.484   2.389   5.420 -2.0783 -1.4117  0.6090
21948SOL     OW70973   9.258   0.216  10.261 -0.2987 -0.2989  0.0966
21948SOL    HW170974   9.317   0.281  10.300 -0.6975 -0.1175  0.4007
21948SOL    HW270975   9.208   0.266  10.197  0.0113 -0.4932 -0.2976
21949SOL     OW70976   7.052   1.212   7.486  0.3486 -0.1481  0.6020
21949SOL    HW170977   7.083   1.141   7.541  2.3654 -0.2799 -0.6519
21949SOL    HW270978   7.048   1.288   7.545 -0.8133 -1.0622  1.6993
21950SOL     OW70979   6.653   7.647   6.534  0.5376  0.0277  0.2895
21950SOL    HW170980   6.589   7.621   6.600  0.3989 -2.5775 -0.8342
21950SOL    HW270981   6.603   7.699   6.471  0.5105  1.8461  1.7627
21951SOL     OW70982   7.754   3.762   2.061 -0.1692 -0.2075 -0.1060
21951SOL    HW170983   7.772   3.679   2.017 -1.9537 -1.1986  0.9747
21951SOL    HW270984   7.829   3.775   2.118  0.1941 -1.0127 -0.3863
21952SOL     OW70985   8.966  11.233   5.746 -0.0301 -0.2526  0.2050
21952SOL    HW170986   8.943  11.152   5.791  0.5077  0.0940  1.1189
21952SOL    HW270987   9.044  11.212   5.696  0.6640 -0.0489  1.1960
21953SOL     OW70988   6.362   4.683   5.550  0.0433  0.4592 -0.3202
21953SOL    HW170989   6.450   4.719   5.537 -0.4455  1.9652  0.3917
21953SOL    HW270990   6.368   4.635   5.633  0.3584  0.0180 -0.5968
21954SOL     OW70991  10.898   4.501   4.776 -0.2073 -0.4916  0.1796
21954SOL    HW170992  10.985   4.473   4.803  0.8074  1.2707 -1.1993
21954SOL    HW270993  10.840   4.433   4.811  1.7185 -1.8289  0.8962
21955SOL     OW70994   2.274   6.753   6.122 -0.1921  0.0677 -0.3150
21955SOL    HW170995   2.192   6.704   6.134  0.1376 -0.1616  1.0816
21955SOL    HW270996   2.258   6.836   6.166  0.1087  0.2828 -0.6104
21956SOL     OW70997   1.825  10.601   5.629 -0.0515 -0.0028  0.5139
21956SOL    HW170998   1.905  10.634   5.587 -0.0669 -1.1522 -0.4433
21956SOL    HW270999   1.852  10.576   5.717  0.8946 -1.4216 -0.1666
21957SOL     OW71000   9.627   6.452   6.983  0.0161  0.1215  0.2494
21957SOL    HW171001   9.541   6.462   6.944  0.5149  1.9366 -0.4427
21957SOL    HW271002   9.613   6.395   7.058 -1.9381  1.0791  0.6366
21958SOL     OW71003  11.161   9.517   9.175  0.7661 -0.0437  0.1364
21958SOL    HW171004  11.159   9.423   9.162  0.1066  0.2345 -2.0648
21958SOL    HW271005  11.186   9.553   9.090 -0.9767  1.8359  0.3506
21959SOL     OW71006   4.238   2.990   8.238  0.1731  0.5990 -0.7181
21959SOL    HW171007   4.217   2.966   8.148  0.4330  1.0334 -0.8912
21959SOL    HW271008   4.157   3.030   8.271 -0.1894 -0.2846 -0.4994
21960SOL     OW71009   2.870  10.255   1.954 -0.1662 -0.1660 -0.4990
21960SOL    HW171010   2.885  10.340   1.912 -0.9842 -1.0830 -2.7763
21960SOL    HW271011   2.885  10.191   1.884  2.2256 -2.0389  1.6396
21961SOL     OW71012   5.317   0.374   0.447 -0.3658  0.0025  0.1363
21961SOL    HW171013   5.278   0.356   0.361  0.5957  1.1044 -0.5488
21961SOL    HW271014   5.412   0.371   0.431 -0.1796  1.9585  0.7659
21962SOL     OW71015   7.044   1.353   8.481  0.5112 -0.1490 -0.0857
21962SOL    HW171016   6.963   1.404   8.492 -0.4447 -1.9276  1.4289
21962SOL    HW271017   7.092   1.367   8.563  0.8140 -0.7044 -0.1671
21963SOL     OW71018  10.291   1.670   4.080 -0.1225 -0.2046 -0.0194
21963SOL    HW171019  10.371   1.678   4.132  0.4652  0.6326 -1.0291
21963SOL    HW271020  10.285   1.753   4.033 -1.6434 -0.2230  0.1189
21964SOL     OW71021   6.917   9.426   2.188 -0.4856  0.2105  0.1572
21964SOL    HW171022   6.989   9.463   2.239 -1.2352 -0.3163  1.6056
21964SOL    HW271023   6.923   9.331   2.203 -0.9302  0.0785 -0.4649
21965SOL     OW71024   6.734   8.688  11.151  0.0928  0.0152 -0.0468
21965SOL    HW171025   6.781   8.770  11.138  2.2483 -1.2045 -0.2255
21965SOL    HW271026   6.791   8.637  11.210 -0.1604 -2.1469 -1.5855
21966SOL     OW71027   3.643   2.594  10.815  0.4361 -0.3551 -0.0518
21966SOL    HW171028   3.561   2.640  10.834  1.9802  2.3876  0.2075
21966SOL    HW271029   3.650   2.597  10.720  0.6904  0.3011 -0.0211
21967SOL     OW71030   6.158   0.056   1.576 -0.3963  0.3284  0.0991
21967SOL    HW171031   6.203   0.023   1.654  0.3059  0.7994 -0.1066
21967SOL    HW271032   6.227   0.097   1.524 -1.2228  1.9923  0.2707
21968SOL     OW71033   3.090   4.258   3.488  0.5097  0.0830  0.3114
21968SOL    HW171034   3.076   4.299   3.573  1.8129 -0.9210  1.0191
21968SOL    HW271035   3.180   4.225   3.491  0.2095 -0.9139 -1.0433
21969SOL     OW71036  10.915   2.538   5.043  0.7718  0.2823  0.2627
21969SOL    HW171037  10.988   2.495   4.999 -0.1014 -0.1240 -0.8116
21969SOL    HW271038  10.914   2.500   5.131  2.6295  1.2184  0.7174
21970SOL     OW71039  10.538   7.251   2.170 -0.3591  0.0651  0.1672
21970SOL    HW171040  10.556   7.344   2.184 -1.5374  0.1563  1.2122
21970SOL    HW271041  10.442   7.245   2.172 -0.3092 -1.0694 -0.5715
21971SOL     OW71042   3.765   3.043   9.865 -0.2243  0.2721 -0.3779
21971SOL    HW171043   3.857   3.069   9.875 -0.3084  1.9851 -3.4414
21971SOL    HW271044   3.716   3.122   9.887 -1.1241 -1.1884  3.1766
21972SOL     OW71045   3.957   4.979   5.548 -0.2888  0.1903  0.2593
21972SOL    HW171046   4.037   4.926   5.544 -1.1498 -1.0268 -1.8091
21972SOL    HW271047   3.971   5.047   5.482 -0.9386  0.0009 -0.0777
21973SOL     OW71048   1.196   0.296   2.776  0.2376  0.2392 -0.3910
21973SOL    HW171049   1.277   0.250   2.799  0.3162  0.5809  0.0155
21973SOL    HW271050   1.221   0.354   2.704  0.6604  1.2916  0.5792
21974SOL     OW71051   0.284   4.317   2.381  0.6834 -0.3912 -0.1516
21974SOL    HW171052   0.350   4.256   2.415  2.6767  0.9841 -1.4423
21974SOL    HW271053   0.291   4.394   2.436 -1.3645 -1.0336  1.0467
21975SOL     OW71054   6.632   4.023   2.472  0.8407  0.6974  0.3662
21975SOL    HW171055   6.542   3.995   2.492  1.5156 -1.5361  0.4654
21975SOL    HW271056   6.677   4.022   2.556  1.9627 -2.1661 -0.2019
21976SOL     OW71057   7.426   9.140   8.211 -0.0356  0.1333  0.1528
21976SOL    HW171058   7.498   9.203   8.209  0.0323  0.0625  0.3405
21976SOL    HW271059   7.466   9.057   8.186  0.1455 -0.0965  1.1773
21977SOL     OW71060   7.111  10.406   4.231 -0.6461 -0.1345 -0.4446
21977SOL    HW171061   7.067  10.334   4.277 -0.9659  0.3919  0.0829
21977SOL    HW271062   7.200  10.373   4.217 -0.3990 -0.1426  0.9789
21978SOL     OW71063   3.874   4.203   5.787 -0.0700  0.3378  0.7774
21978SOL    HW171064   3.825   4.265   5.840  0.6382  0.6652  1.0538
21978SOL    HW271065   3.808   4.142   5.753 -0.7460  1.2027  0.5513
21979SOL     OW71066   2.189   4.389   5.319 -0.8887 -0.7448  0.0343
21979SOL    HW171067   2.280   4.414   5.301 -1.1538  0.2993  0.0818
21979SOL    HW271068   2.191   4.294   5.325  0.2210 -0.7294  0.1117
21980SOL     OW71069   4.343   1.527   0.713 -0.0040  0.4846  0.3793
21980SOL    HW171070   4.286   1.537   0.790 -0.7935  1.1828 -0.2782
21980SOL    HW271071   4.393   1.448   0.730  1.4023  1.7898  2.6110
21981SOL     OW71072   8.416   7.933   9.061 -0.1024  0.4623  0.3305
21981SOL    HW171073   8.489   7.923   9.000 -0.3215 -2.5731  0.5085
21981SOL    HW271074   8.352   7.868   9.032 -0.2658 -0.9445  3.6918
21982SOL     OW71075   1.058   0.765   6.667 -0.6115 -0.1116 -0.0190
21982SOL    HW171076   0.987   0.704   6.650  0.1068 -1.8526  2.8188
21982SOL    HW271077   1.020   0.829   6.728 -0.5705  0.6604 -0.7988
21983SOL     OW71078   9.501   9.707   8.686  0.1820  0.3799 -0.4893
21983SOL    HW171079   9.491   9.628   8.738 -0.2587  0.5405 -0.3303
21983SOL    HW271080   9.421   9.757   8.702 -0.4478 -0.0566 -2.1374
21984SOL     OW71081   4.202   3.486   4.062  0.1348  0.1523  0.0410
21984SOL    HW171082   4.147   3.481   3.984 -1.0973 -3.1264  1.0460
21984SOL    HW271083   4.287   3.515   4.029 -0.4965 -0.7120 -2.4841
21985SOL     OW71084   2.838   4.676   1.476  0.2615 -0.2773 -0.9412
21985SOL    HW171085   2.874   4.734   1.542  0.8766  0.0848 -1.5926
21985SOL    HW271086   2.744   4.693   1.478 -0.1646 -2.5383  2.0301
21986SOL     OW71087   3.475  11.165   8.724  0.1015  0.5913  0.6396
21986SOL    HW171088   3.526  11.094   8.764 -1.3043  0.5469  2.4340
21986SOL    HW271089   3.411  11.120   8.669  0.6952  0.5737 -0.0456
21987SOL     OW71090   2.220   5.003   5.913 -0.0895 -0.2810 -0.1812
21987SOL    HW171091   2.161   4.946   5.862  0.0530 -0.9540  0.3993
21987SOL    HW271092   2.303   4.999   5.865 -0.0876 -0.5344 -0.1564
21988SOL     OW71093   2.534   5.815   8.100  1.2002  0.6039 -0.3667
21988SOL    HW171094   2.515   5.723   8.117  1.9813  0.2500 -1.3470
21988SOL    HW271095   2.491   5.834   8.016 -0.6170  1.6766  0.7781
21989SOL     OW71096   1.399   7.615   7.985  0.2928  0.2603 -0.7991
21989SOL    HW171097   1.481   7.616   8.034  1.0846 -1.1177 -2.0528
21989SOL    HW271098   1.391   7.704   7.949  1.5230  0.2577 -1.1076
21990SOL     OW71099   2.924   6.605  11.203 -0.1964  0.5489  0.5108
21990SOL    HW171100   2.941   6.696  11.180  0.5375  0.5594  1.0697
21990SOL    HW271101   2.903   6.607  11.297 -0.1575  0.1434  0.5314
21991SOL     OW71102  10.492   7.367   0.164 -0.9926  0.1154 -0.4956
21991SOL    HW171103  10.467   7.386   0.074 -1.5976 -2.8437 -0.9993
21991SOL    HW271104  10.468   7.445   0.213 -0.5488  1.8168 -2.9061
21992SOL     OW71105   3.268   3.136   5.950  0.1654  0.0386  0.3864
21992SOL    HW171106   3.218   3.195   6.007 -0.8113 -1.4573  1.1159
21992SOL    HW271107   3.359   3.163   5.962  0.0320 -0.4845  3.0044
21993SOL     OW71108   7.677   8.220   5.836  0.6270  0.0473  0.1877
21993SOL    HW171109   7.754   8.269   5.806  0.2240  0.0188 -0.9147
21993SOL    HW271110   7.637   8.187   5.755 -1.4994  1.4902  0.6044
21994SOL     OW71111  10.473  11.253   5.070 -0.4231 -0.5442  0.4071
21994SOL    HW171112  10.428  11.266   5.154 -1.4595 -0.1104 -0.2033
21994SOL    HW271113  10.454  11.162   5.047  0.4982 -0.9017  0.9968
21995SOL     OW71114   5.135   7.100   4.050  0.2127 -0.2147 -0.4640
21995SOL    HW171115   5.040   7.093   4.051  0.3091 -1.8218 -0.2534
21995SOL    HW271116   5.162   7.081   4.140  0.7475 -0.2177 -0.6223
21996SOL     OW71117   3.000  10.187   8.543 -0.2809 -0.4377 -0.5263
21996SOL    HW171118   2.940  10.183   8.469  0.6759 -1.1969 -1.2788
21996SOL    HW271119   3.081  10.148   8.510  0.1735 -0.7292  0.9043
21997SOL     OW71120   1.707  10.262   1.363 -0.8233  0.2140  0.2206
21997SOL    HW171121   1.627  10.306   1.392 -1.4338 -0.2070 -0.7798
21997SOL    HW271122   1.703  10.176   1.406 -0.9304  0.1843  0.1538
21998SOL     OW71123   0.590   4.468   6.061  0.0671 -0.1748 -0.1053
21998SOL    HW171124   0.542   4.392   6.093 -0.8742  0.8226  0.9065
21998SOL    HW271125   0.522   4.529   6.034  0.8124  0.3610 -0.7986
21999SOL     OW71126   9.083   6.262   1.686  0.2304  0.2327  0.4266
21999SOL    HW171127   9.093   6.169   1.662 -0.8593 -0.1846  1.5226
21999SOL    HW271128   8.991   6.270   1.711 -0.1748  2.0642 -1.5273
22000SOL     OW71129  10.381   3.614  11.293 -0.8762 -0.2490  0.4609
22000SOL    HW171130  10.366   3.553  11.221 -0.0462 -0.9320  0.8654
22000SOL    HW271131  10.311   3.679  11.283  0.3013  0.6987 -2.0493
22001SOL     OW71132   1.720   5.722   0.224  0.2199 -0.1860 -0.0391
22001SOL    HW171133   1.757   5.810   0.223 -0.3201  0.0558  0.9789
22001SOL    HW271134   1.796   5.664   0.210  0.8374  0.3525  1.0658
22002SOL     OW71135   9.079   5.121   5.794  0.1866  0.1451 -0.4822
22002SOL    HW171136   9.096   5.031   5.823  0.9878  0.4986  0.1270
22002SOL    HW271137   9.156   5.145   5.743  0.4189  0.8457  0.1967
22003SOL     OW71138   1.896   1.394   7.008 -0.3413 -0.0296  0.0844
22003SOL    HW171139   1.826   1.456   7.026  0.5671  1.1228 -0.2585
22003SOL    HW271140   1.885   1.371   6.916 -1.6784 -1.6820  0.6355
22004SOL     OW71141   7.023   8.034   4.906  0.0937  0.0826  0.5597
22004SOL    HW171142   7.054   7.976   4.976  1.4930  0.7396  0.5236
22004SOL    HW271143   6.994   7.975   4.837 -0.5151 -0.5739  1.3576
22005SOL     OW71144  10.891  10.384   5.222  0.2592  0.0653 -0.2112
22005SOL    HW171145  10.828  10.449   5.254 -0.3272 -0.8369  0.5018
22005SOL    HW271146  10.910  10.411   5.132  2.4835  3.0439  1.1083
22006SOL     OW71147   5.939   3.186   7.785  0.0250  0.3068  0.4060
22006SOL    HW171148   5.851   3.224   7.788 -0.4120 -0.7257  0.6734
22006SOL    HW271149   5.986   3.241   7.722 -1.3057 -0.1716 -1.0373
22007SOL     OW71150   5.850   1.816   1.753 -0.5690  0.3804  0.3886
22007SOL    HW171151   5.857   1.765   1.672  0.3155 -0.2242  0.8283
22007SOL    HW271152   5.822   1.903   1.725 -2.1365 -0.3473 -0.3762
22008SOL     OW71153   2.282   3.618   0.081 -0.2882  0.0707 -0.1565
22008SOL    HW171154   2.232   3.613   0.163  0.0241 -0.2547  0.0131
22008SOL    HW271155   2.330   3.700   0.087 -0.4520  0.1649 -0.1219
22009SOL     OW71156   4.117   1.220   2.259  0.8703 -0.3129 -0.0887
22009SOL    HW171157   4.054   1.228   2.331 -0.3624 -0.0967 -1.1730
22009SOL    HW271158   4.064   1.197   2.183  1.8809  1.6235 -1.4096
22010SOL     OW71159   8.076   0.373   8.481  0.0781 -0.4961  1.1910
22010SOL    HW171160   8.138   0.445   8.465 -1.5303  0.4070 -1.3917
22010SOL    HW271161   7.999   0.416   8.519 -1.3191 -0.5906 -1.3746
22011SOL     OW71162  11.080   4.562   8.628  0.0779  0.0256  0.3597
22011SOL    HW171163  11.145   4.614   8.581  1.6305 -2.0389  0.1935
22011SOL    HW271164  11.004   4.561   8.570  0.2523  1.5758  0.0836
22012SOL     OW71165  11.116   3.256   7.283 -0.4839 -0.6801 -0.2043
22012SOL    HW171166  11.179   3.250   7.354 -0.0004 -0.7050 -0.6342
22012SOL    HW271167  11.036   3.289   7.324  0.1943  0.5844  0.1050
22013SOL     OW71168   8.372   5.090   2.987 -0.0734 -0.4857  0.1627
22013SOL    HW171169   8.309   5.104   2.917  1.2164 -1.3862 -1.2173
22013SOL    HW271170   8.428   5.168   2.985 -2.1084  1.1084  2.4921
22014SOL     OW71171   3.860   0.559   0.262 -0.3219 -0.0001  0.2025
22014SOL    HW171172   3.851   0.653   0.250 -2.1588 -0.1777  0.0580
22014SOL    HW271173   3.942   0.548   0.311  0.1679  1.6185 -0.2378
22015SOL     OW71174   3.007   0.827   4.743  0.1170  0.1270  0.4185
22015SOL    HW171175   2.968   0.839   4.657 -1.1476 -0.8324  0.8425
22015SOL    HW271176   3.101   0.840   4.729 -0.1072  0.2488 -1.0438
22016SOL     OW71177   8.022   4.663   6.389 -0.0183 -0.0939 -0.0389
22016SOL    HW171178   8.079   4.677   6.314  0.7153  0.3641  0.5975
22016SOL    HW271179   7.975   4.746   6.401  0.3283  0.0388  0.3966
22017SOL     OW71180   5.541  11.213   0.548 -0.4626  0.0667  0.0242
22017SOL    HW171181   5.508  11.145   0.607 -0.6855 -0.0245 -0.2046
22017SOL    HW271182   5.507  11.188   0.462  1.3426 -0.7988 -0.4585
22018SOL     OW71183   1.998   8.086   7.403 -0.1728 -0.3089 -0.1451
22018SOL    HW171184   1.935   8.155   7.382 -0.2352 -0.2379  0.2661
22018SOL    HW271185   1.950   8.026   7.460  0.6298  0.6369  1.5652
22019SOL     OW71186   9.950  10.082   0.805 -0.0303  0.0294  0.0876
22019SOL    HW171187   9.881  10.106   0.867 -1.1188 -1.2159 -0.6049
22019SOL    HW271188   9.903  10.067   0.723  0.9598 -1.7627 -0.1628
22020SOL     OW71189   3.170   1.139   4.561 -0.2568 -0.0482  0.3683
22020SOL    HW171190   3.245   1.083   4.539  0.1875  0.3609  0.8107
22020SOL    HW271191   3.206   1.228   4.561 -0.7205  0.1406  0.7037
22021SOL     OW71192   7.164   1.086   1.255  0.1556  0.2195  0.2022
22021SOL    HW171193   7.184   0.994   1.268  0.4106  0.1752 -0.4813
22021SOL    HW271194   7.181   1.102   1.163  0.4415  1.0303  0.3836
22022SOL     OW71195  10.194  10.807   7.073 -0.0806 -0.7565  0.0823
22022SOL    HW171196  10.200  10.729   7.018  0.8187 -1.1364  0.7167
22022SOL    HW271197  10.134  10.782   7.143  0.3567 -0.9481  0.3919
22023SOL     OW71198   4.387   1.642   4.044 -0.1807  0.2146  0.6973
22023SOL    HW171199   4.377   1.676   3.956 -1.1035 -1.7392  0.0116
22023SOL    HW271200   4.354   1.711   4.101 -2.9003  0.1441 -0.7072
22024SOL     OW71201   4.653   7.125   3.480  0.3688  0.3734  0.0781
22024SOL    HW171202   4.615   7.075   3.408 -0.7248  0.7265  0.3898
22024SOL    HW271203   4.747   7.116   3.469  0.2173  0.4994 -1.4536
22025SOL     OW71204   2.267   5.881   0.693 -0.1921  0.8063 -0.2786
22025SOL    HW171205   2.205   5.951   0.676 -0.4476  1.0942  1.7100
22025SOL    HW271206   2.279   5.882   0.788 -1.7410 -3.0992  0.0489
22026SOL     OW71207   1.653  10.498   4.181  0.3086  0.1943 -0.2874
22026SOL    HW171208   1.733  10.539   4.149  0.4412 -1.2480 -1.8519
22026SOL    HW271209   1.589  10.515   4.113 -0.3689  0.1541  0.3346
22027SOL     OW71210   9.629   2.300  10.314  0.9256 -0.1731  0.1429
22027SOL    HW171211   9.584   2.305  10.398  1.3811  1.3554  0.3092
22027SOL    HW271212   9.590   2.369  10.261 -0.2887 -1.9704 -1.3939
22028SOL     OW71213  10.646   7.813   6.704  0.2980  0.4067 -0.0888
22028SOL    HW171214  10.607   7.780   6.785  0.5450 -0.7359 -0.4225
22028SOL    HW271215  10.697   7.890   6.731  1.0018 -0.4149  0.9617
22029SOL     OW71216   1.122   3.300  10.338 -0.3729 -0.2685 -0.5318
22029SOL    HW171217   1.203   3.289  10.388  1.2593  0.4896 -2.9402
22029SOL    HW271218   1.087   3.212  10.330  1.1892 -0.8529 -1.0750
22030SOL     OW71219   2.221   7.212   1.784 -0.0821  0.4526  0.4245
22030SOL    HW171220   2.146   7.219   1.725 -0.8867  0.6112  1.4596
22030SOL    HW271221   2.213   7.287   1.843  0.6499  0.2314  0.8145
22031SOL     OW71222   0.741   5.825   9.974  0.3703  0.3023 -0.6996
22031SOL    HW171223   0.680   5.765  10.016  1.3525  0.1886  0.5880
22031SOL    HW271224   0.827   5.797  10.004  1.0064  0.8892 -1.9579
22032SOL     OW71225  10.779   1.270   2.222 -0.6373 -0.3329  0.0197
22032SOL    HW171226  10.805   1.253   2.132 -0.8751 -2.1750  0.2940
22032SOL    HW271227  10.822   1.353   2.243 -1.4285  0.6662 -2.1175
22033SOL     OW71228   8.982   4.381   3.989  0.6070  0.2606 -0.2719
22033SOL    HW171229   9.026   4.385   3.904  1.6731 -0.2579  0.2423
22033SOL    HW271230   8.905   4.327   3.975  1.6724 -1.2270 -0.5340
22034SOL     OW71231  10.958   4.467   0.242  0.0748  0.3100 -0.6461
22034SOL    HW171232  11.034   4.412   0.259  0.1494  0.0855 -1.6447
22034SOL    HW271233  10.993   4.556   0.236  0.0091  0.4199  0.5878
22035SOL     OW71234   4.917  10.050   3.955 -0.0572 -0.0841 -0.2114
22035SOL    HW171235   4.860   9.975   3.971  0.0454 -0.5393 -1.8839
22035SOL    HW271236   4.899  10.075   3.864  2.0159  0.0843 -0.5956
22036SOL     OW71237   8.112   3.696  10.644 -0.3960 -0.1721 -0.2517
22036SOL    HW171238   8.037   3.650  10.680  1.0158 -2.5898 -0.2566
22036SOL    HW271239   8.122   3.661  10.556  0.6102  0.2424 -0.3175
22037SOL     OW71240   2.781   2.006   2.142  0.6125  0.0036  0.0465
22037SOL    HW171241   2.750   2.062   2.213  0.5539 -0.6861  0.5799
22037SOL    HW271242   2.744   2.044   2.063 -1.5029 -0.7046  0.6492
22038SOL     OW71243   8.442   1.959   4.895  0.0709  0.5270  0.7599
22038SOL    HW171244   8.525   1.959   4.847 -0.7721 -1.7545 -0.7915
22038SOL    HW271245   8.389   2.027   4.851  0.0725 -0.0655 -0.1782
22039SOL     OW71246   0.690   5.723   4.574 -0.0291  0.2268  0.4159
22039SOL    HW171247   0.759   5.680   4.625 -0.9423 -0.2065  1.3010
22039SOL    HW271248   0.632   5.761   4.639 -0.2209  1.2437 -0.3423
22040SOL     OW71249   9.353   2.038   6.694  0.1721 -0.4566 -0.1276
22040SOL    HW171250   9.386   1.949   6.682  1.3622 -0.6326  3.8733
22040SOL    HW271251   9.430   2.089   6.719 -0.8609  1.3093 -0.4319
22041SOL     OW71252   2.415   3.275   9.325 -0.4178  0.2842  0.6442
22041SOL    HW171253   2.433   3.361   9.365 -1.2017  0.5083  0.5377
22041SOL    HW271254   2.342   3.292   9.266  1.2833  0.1218 -1.5570
22042SOL     OW71255   9.628   8.443   7.239  0.2902  0.2901  0.7493
22042SOL    HW171256   9.560   8.493   7.195  0.3524 -0.5983 -0.4066
22042SOL    HW271257   9.694   8.428   7.171 -0.6252 -2.9981  0.4771
22043SOL     OW71258   0.231  10.088   1.874  0.4601 -0.1609 -0.1843
22043SOL    HW171259   0.155  10.122   1.827  0.0154  1.6420  1.7583
22043SOL    HW271260   0.302  10.090   1.810  0.1935  3.5316 -0.4724
22044SOL     OW71261   1.317   5.698   6.935  0.3529 -0.4051 -0.0458
22044SOL    HW171262   1.284   5.787   6.932  0.4292 -0.3941 -0.6253
22044SOL    HW271263   1.285   5.657   6.855 -0.1083 -1.0556  0.4573
22045SOL     OW71264   8.182   6.158   0.551  0.3617 -0.2680 -0.8905
22045SOL    HW171265   8.113   6.125   0.493 -0.0801 -2.0723  0.6157
22045SOL    HW271266   8.137   6.220   0.608  0.0326 -1.1744 -0.1465
22046SOL     OW71267   4.808   3.553  10.358 -0.5166 -0.2185 -0.0933
22046SOL    HW171268   4.844   3.478  10.311  0.9319 -0.2065  0.9414
22046SOL    HW271269   4.847   3.547  10.446 -1.1330  1.1929  0.2909
22047SOL     OW71270   0.363   2.695   1.128 -0.0178 -0.3191 -0.1340
22047SOL    HW171271   0.369   2.669   1.036 -0.3980  1.4695 -0.6832
22047SOL    HW271272   0.293   2.760   1.130  0.4264  0.1282  1.3131
22048SOL     OW71273   1.037  10.973   3.873  0.4711  0.4394 -0.0627
22048SOL    HW171274   1.008  10.967   3.964  1.4007  0.5504  0.2454
22048SOL    HW271275   0.982  11.042   3.835 -0.8938 -0.5792  0.0212
22049SOL     OW71276   2.093   9.512   9.179 -0.2983 -0.2541 -0.4449
22049SOL    HW171277   2.039   9.449   9.131  0.1775 -0.0569 -1.2371
22049SOL    HW271278   2.176   9.467   9.192  0.3276  0.5214 -1.7412
22050SOL     OW71279   8.035   8.538   1.341  0.2443  0.6008 -0.3224
22050SOL    HW171280   8.088   8.527   1.420 -0.5594 -0.1960  0.1303
22050SOL    HW271281   7.965   8.598   1.368  0.7627  1.4353 -0.8353
22051SOL     OW71282   0.298   2.816   0.474  0.5933  0.0679 -0.6485
22051SOL    HW171283   0.320   2.856   0.390 -0.3292 -0.1734 -1.0068
22051SOL    HW271284   0.206   2.837   0.488  1.2089  1.7375  1.2319
22052SOL     OW71285   9.789   8.813   7.913 -0.2058 -0.2564 -0.3227
22052SOL    HW171286   9.706   8.854   7.939 -1.6167 -1.1660 -3.1568
22052SOL    HW271287   9.781   8.723   7.942 -0.1934 -0.3260 -0.5333
22053SOL     OW71288   8.932   9.593   5.401 -0.2317 -0.9574  0.0774
22053SOL    HW171289   8.976   9.518   5.440 -0.3326 -1.1420 -0.1672
22053SOL    HW271290   8.942   9.581   5.307 -1.8074 -1.6093 -0.0248
22054SOL     OW71291   8.619   1.836   9.138  0.1453 -0.5952 -0.3379
22054SOL    HW171292   8.574   1.883   9.068  0.0840 -1.0753 -0.6243
22054SOL    HW271293   8.612   1.893   9.214 -2.3031 -1.3521  0.0441
22055SOL     OW71294   7.477   6.534   3.720 -0.2750  0.2668 -0.2982
22055SOL    HW171295   7.526   6.612   3.695  0.5368 -0.4579 -1.0188
22055SOL    HW271296   7.458   6.490   3.637  0.4037 -0.9557  0.1780
22056SOL     OW71297   8.361   2.765   6.014 -0.1734 -0.6359  0.2134
22056SOL    HW171298   8.274   2.764   5.974  0.2284  1.0764 -0.7734
22056SOL    HW271299   8.398   2.679   5.994 -1.0456 -0.7951 -0.7400
22057SOL     OW71300   4.989   2.111   9.817 -0.4782 -0.1335 -0.0542
22057SOL    HW171301   4.946   2.030   9.844 -1.2845  0.5753  0.8539
22057SOL    HW271302   4.937   2.143   9.743 -0.6411 -0.0452  0.0957
22058SOL     OW71303   2.414  10.290  11.309  0.4563  0.1712  0.1637
22058SOL    HW171304   2.472  10.364  11.328  2.1310 -1.0779  0.0042
22058SOL    HW271305   2.471  10.225  11.267 -1.1758 -0.8705 -0.4776
22059SOL     OW71306   7.583   6.733   4.136  0.4143  0.2535  0.1039
22059SOL    HW171307   7.660   6.757   4.187  0.2282 -0.5648  0.7639
22059SOL    HW271308   7.619   6.691   4.058  0.6617  0.6505 -0.0007
22060SOL     OW71309   0.937   5.614  10.282 -0.0770 -0.2364 -0.0224
22060SOL    HW171310   0.947   5.639  10.373  0.9295 -1.7933  0.3280
22060SOL    HW271311   0.971   5.689  10.233 -0.8071  0.6855  0.8620
22061SOL     OW71312   7.861   4.363   1.361  0.3781 -0.2739 -0.4510
22061SOL    HW171313   7.899   4.450   1.355  3.2206 -1.3713  0.7523
22061SOL    HW271314   7.802   4.366   1.436  0.2680  0.6593 -0.5759
22062SOL     OW71315   0.928   1.810   3.800  0.2587  0.3255  0.2145
22062SOL    HW171316   0.932   1.715   3.788  2.7974  0.3618  0.5041
22062SOL    HW271317   0.917   1.844   3.711  0.9755 -0.1636 -0.0655
22063SOL     OW71318   1.898   5.398  10.746 -0.5459 -0.4470  0.1570
22063SOL    HW171319   1.968   5.409  10.682 -0.5946 -0.1609  0.1525
22063SOL    HW271320   1.941   5.359  10.822 -0.1725  0.6986  0.5449
22064SOL     OW71321   5.238   2.498   5.353  0.1800 -0.1629 -0.4049
22064SOL    HW171322   5.256   2.439   5.425 -0.9342  0.1718  0.1691
22064SOL    HW271323   5.313   2.557   5.350 -0.3233  0.5866  1.2686
22065SOL     OW71324   6.737   7.582   3.938 -0.0482 -0.0683 -0.0335
22065SOL    HW171325   6.721   7.545   4.025  1.5518 -1.0109 -0.1252
22065SOL    HW271326   6.714   7.674   3.946 -0.3940 -0.2681  1.2551
22066SOL     OW71327   6.450   5.985   2.919  0.2722 -0.8327 -0.4572
22066SOL    HW171328   6.542   5.963   2.902 -0.0381 -1.7467 -0.9715
22066SOL    HW271329   6.404   5.901   2.916 -0.5519 -0.3994 -0.0055
22067SOL     OW71330  11.251   6.392   4.406 -0.1024  0.5026  0.0196
22067SOL    HW171331  11.243   6.300   4.379  1.2749  0.4766 -0.3396
22067SOL    HW271332  11.178   6.436   4.362 -2.4856 -0.8939  2.4386
22068SOL     OW71333   5.930   9.808   0.385 -0.3492  0.3213  0.2990
22068SOL    HW171334   5.998   9.873   0.370 -1.7660  2.0286  1.0326
22068SOL    HW271335   5.965   9.752   0.455  2.0339 -1.4955 -2.2198
22069SOL     OW71336   9.802   0.518   0.215 -0.2302 -0.5360  0.1505
22069SOL    HW171337   9.888   0.503   0.176 -0.7647 -0.9260 -0.8849
22069SOL    HW271338   9.755   0.436   0.203 -1.2725  0.1635 -0.6433
22070SOL     OW71339   0.035   5.981   2.375 -0.5452 -0.1854  0.3122
22070SOL    HW171340   0.071   6.066   2.399  0.8983 -0.5957 -0.3446
22070SOL    HW271341   0.038   5.929   2.455  0.4289 -0.2424  0.2440
22071SOL     OW71342   5.058   2.995   2.299 -0.1441  0.2886 -0.1175
22071SOL    HW171343   4.993   3.007   2.368  1.2869 -1.7166  1.6213
22071SOL    HW271344   5.100   3.081   2.291  0.3676  0.2870  2.2340
22072SOL     OW71345   0.004   1.733   2.370  0.0919 -0.2538 -0.6250
22072SOL    HW171346   0.100   1.730   2.374 -0.0090 -2.0997  1.7767
22072SOL    HW271347  -0.016   1.743   2.277  2.6032 -1.0254 -1.2960
22073SOL     OW71348   5.836   1.952   2.526  0.5921  0.4215 -0.7672
22073SOL    HW171349   5.860   2.016   2.593  1.9147 -1.2619  0.4468
22073SOL    HW271350   5.769   1.898   2.568  1.1461 -0.4009 -0.9292
22074SOL     OW71351   2.715   9.709   4.137 -0.3909  0.1460 -0.3242
22074SOL    HW171352   2.767   9.763   4.197  0.4274 -0.5712 -0.3982
22074SOL    HW271353   2.770   9.698   4.060 -0.8239 -0.2567 -0.5793
22075SOL     OW71354   2.343   4.464   1.044 -0.1445  0.0622  0.3844
22075SOL    HW171355   2.437   4.449   1.046 -0.5347 -2.3054  3.6638
22075SOL    HW271356   2.331   4.548   1.089  0.2989 -0.1990  0.9880
22076SOL     OW71357   3.555   0.768   3.688 -0.5377  0.3717 -0.5880
22076SOL    HW171358   3.613   0.745   3.616  1.5746 -0.7267  1.4048
22076SOL    HW271359   3.498   0.692   3.698  0.2993 -0.1936 -0.0242
22077SOL     OW71360   3.183   0.264   2.359  0.2820  0.4371 -0.0207
22077SOL    HW171361   3.130   0.269   2.439  0.4982  1.2088  0.0803
22077SOL    HW271362   3.130   0.213   2.298 -0.7479  1.4973 -0.0395
22078SOL     OW71363   0.901  10.348  10.286  0.2435  0.3102  0.1039
22078SOL    HW171364   0.934  10.411  10.351  0.7525 -1.4555  1.5880
22078SOL    HW271365   0.837  10.296  10.334  0.1283 -0.5838 -0.9975
22079SOL     OW71366   8.007   1.264   0.013  0.0607 -0.1358  0.1959
22079SOL    HW171367   7.967   1.195   0.066 -0.3089  0.5129  0.7718
22079SOL    HW271368   8.095   1.232  -0.006 -0.4042 -1.1523 -0.2754
22080SOL     OW71369   8.747  11.191  11.180 -0.2501 -0.0421 -0.2954
22080SOL    HW171370   8.655  11.173  11.200 -0.6767  1.9683 -0.3452
22080SOL    HW271371   8.747  11.278  11.141  1.4718 -0.7698 -2.0356
22081SOL     OW71372   0.719   4.042   6.692  0.2914  0.0390  0.1097
22081SOL    HW171373   0.767   3.964   6.663 -0.9422 -0.2190 -1.2943
22081SOL    HW271374   0.682   4.078   6.612 -0.7224  1.0181  1.0058
22082SOL     OW71375   7.618  10.264  11.218 -1.0110 -0.0402  0.2593
22082SOL    HW171376   7.648  10.182  11.260  0.4598  0.6410  0.5841
22082SOL    HW271377   7.597  10.321  11.292 -0.4675  0.4269  0.0559
22083SOL     OW71378   7.842   1.602   9.561 -0.1918 -0.0379  0.6281
22083SOL    HW171379   7.841   1.689   9.521  2.8279 -0.7385 -1.1427
22083SOL    HW271380   7.909   1.608   9.629  0.6471 -1.1967 -0.0791
22084SOL     OW71381   2.467   0.426  10.055  0.4924  0.4928 -0.0409
22084SOL    HW171382   2.380   0.411  10.019  0.0770  0.6650  0.8840
22084SOL    HW271383   2.517   0.465   9.983 -0.8734  2.6600  0.1466
22085SOL     OW71384  10.171   7.850   2.499  0.2776 -0.2643  0.6643
22085SOL    HW171385  10.253   7.853   2.548  1.5643 -1.0409 -1.3755
22085SOL    HW271386  10.178   7.772   2.444 -1.4123  0.1928 -0.2574
22086SOL     OW71387   2.207   1.063   5.283 -0.1749  0.0543  0.5456
22086SOL    HW171388   2.241   1.116   5.355 -0.2477  0.2123  0.4653
22086SOL    HW271389   2.260   0.984   5.284  0.1770  0.2860  0.4400
22087SOL     OW71390   1.917   0.255   7.482  0.3762 -0.1162  0.9344
22087SOL    HW171391   2.012   0.247   7.468  0.3981 -1.1656  1.5961
22087SOL    HW271392   1.879   0.256   7.395  0.7040 -3.6691  0.6789
22088SOL     OW71393  10.220  11.253   4.926  0.0010 -0.2834 -0.2130
22088SOL    HW171394  10.295  11.292   4.972  0.6157 -0.0617 -1.3791
22088SOL    HW271395  10.185  11.189   4.988  1.0831 -0.3018  0.4042
22089SOL     OW71396   6.725  11.272   8.449  0.3261  0.1002  0.1359
22089SOL    HW171397   6.656  11.259   8.514  1.5310  1.5752  1.7415
22089SOL    HW271398   6.739  11.185   8.412 -1.6889 -0.4119  0.4701
22090SOL     OW71399   7.042   5.896   1.979  0.1793  0.1366 -0.8422
22090SOL    HW171400   6.946   5.895   1.981  0.2110 -0.6200  0.4706
22090SOL    HW271401   7.063   5.972   1.924 -1.1687 -0.1606 -1.8190
22091SOL     OW71402   3.973   9.027   8.900  0.1787 -0.3680 -0.3145
22091SOL    HW171403   4.041   8.990   8.956 -0.4956 -1.1490  0.0011
22091SOL    HW271404   4.005   9.114   8.877  0.4674 -0.0400  1.2969
22092SOL     OW71405   7.032   5.435  10.732 -0.1388  0.0712 -0.5232
22092SOL    HW171406   6.993   5.478  10.808 -1.6160  0.4006 -1.4541
22092SOL    HW271407   6.998   5.345  10.736  0.0147  0.0078 -0.6388
22093SOL     OW71408   4.001   7.821   9.607 -0.2359 -0.4794  0.0461
22093SOL    HW171409   3.915   7.859   9.625 -0.4327 -0.1450 -1.4922
22093SOL    HW271410   4.043   7.884   9.548  0.4061 -1.4311 -0.5339
22094SOL     OW71411   1.055  10.666   0.484 -0.1435  0.3359 -0.4183
22094SOL    HW171412   1.144  10.694   0.461  0.2508 -0.2741  0.3693
22094SOL    HW271413   1.017  10.742   0.529  0.2783  0.2763  0.0379
22095SOL     OW71414   1.819   3.407   6.675 -0.4435 -0.6253 -0.7819
22095SOL    HW171415   1.751   3.355   6.718 -0.4759  1.1378  1.3941
22095SOL    HW271416   1.818   3.377   6.584 -1.8675 -2.9331 -0.0579
22096SOL     OW71417   0.186   9.623   4.372 -0.2849  0.5533  0.0333
22096SOL    HW171418   0.105   9.641   4.419  1.0830  0.5414  2.5345
22096SOL    HW271419   0.171   9.655   4.283 -2.8937  0.8201  0.5407
22097SOL     OW71420   2.020   9.754   6.962  0.3772  1.0398 -0.3106
22097SOL    HW171421   1.954   9.798   7.015 -0.0509  1.4240 -1.1398
22097SOL    HW271422   1.973   9.729   6.882 -0.1134 -3.2351  1.1636
22098SOL     OW71423   7.978  10.998   2.417 -0.2021 -0.1018  0.2043
22098SOL    HW171424   7.958  11.073   2.474 -1.8203  0.5695 -1.1833
22098SOL    HW271425   8.025  11.037   2.343 -1.1528 -0.4391 -0.5770
22099SOL     OW71426   9.642   3.766   4.000  0.1641  0.0052  0.4875
22099SOL    HW171427   9.570   3.824   4.022  0.6427  0.4915  0.7908
22099SOL    HW271428   9.611   3.718   3.923 -0.0233  1.0717 -0.1133
22100SOL     OW71429   0.513   8.883   1.596 -0.3910 -0.4943 -1.0782
22100SOL    HW171430   0.501   8.831   1.517  2.2411  0.8056 -2.3860
22100SOL    HW271431   0.494   8.973   1.569  0.6237 -0.0236 -0.2714
22101SOL     OW71432   7.758   0.868   8.636 -0.0487 -0.5591 -0.0760
22101SOL    HW171433   7.706   0.813   8.694 -0.9573 -1.8095 -2.0356
22101SOL    HW271434   7.738   0.958   8.665 -2.6595 -1.0411 -0.2259
22102SOL     OW71435   2.481   3.445   5.726 -0.0528 -0.3107 -0.2637
22102SOL    HW171436   2.448   3.382   5.790  0.7527 -2.2404 -1.7082
22102SOL    HW271437   2.504   3.522   5.778  1.6785 -2.2573  1.9856
22103SOL     OW71438   8.876   9.125   8.325  0.2682  0.4754  0.5766
22103SOL    HW171439   8.965   9.157   8.339  0.3158  0.1382  1.0615
22103SOL    HW271440   8.886   9.032   8.309  0.0283  0.4970  0.2896
22104SOL     OW71441  11.145   2.086  10.939 -0.5285 -0.6205  0.0139
22104SOL    HW171442  11.190   2.042  11.011  0.1040 -1.5393 -0.9209
22104SOL    HW271443  11.209   2.087  10.868 -0.8983  0.9096 -0.3098
22105SOL     OW71444  10.953   6.084   9.892 -0.7277 -0.4452 -0.1340
22105SOL    HW171445  10.995   6.029   9.827  0.2831  0.5326 -0.3071
22105SOL    HW271446  10.936   6.025   9.966 -0.1220 -1.1029 -0.5212
22106SOL     OW71447   9.257   6.013   1.737 -0.4531 -0.0888 -0.0596
22106SOL    HW171448   9.319   6.034   1.807  1.5369 -1.8976 -1.2194
22106SOL    HW271449   9.224   5.926   1.759  1.5975 -1.4917 -2.2444
22107SOL     OW71450   3.706   5.566   6.365  0.0793 -0.3269  0.6844
22107SOL    HW171451   3.654   5.600   6.438 -0.1382  0.7298  0.0572
22107SOL    HW271452   3.778   5.629   6.357  0.6647 -1.0035  0.6382
22108SOL     OW71453   3.782   6.275   1.276  0.3160 -0.3583  0.5559
22108SOL    HW171454   3.851   6.335   1.247  0.7745 -1.1797 -0.0531
22108SOL    HW271455   3.713   6.284   1.211 -0.3855  0.8359  1.4315
22109SOL     OW71456   7.640   6.390   7.685  0.2230  0.3305 -0.3981
22109SOL    HW171457   7.713   6.391   7.624  0.3743  1.2253 -0.2165
22109SOL    HW271458   7.647   6.306   7.731  2.4645  1.3480  1.2019
22110SOL     OW71459   3.557  11.019   9.862  0.6068  0.6538  0.2657
22110SOL    HW171460   3.544  10.937   9.909  0.5541  0.8752  0.6403
22110SOL    HW271461   3.614  10.996   9.788  0.2348  0.1998  0.1191
22111SOL     OW71462   0.050   3.160   2.872 -0.1034 -0.3154  0.0707
22111SOL    HW171463   0.011   3.229   2.818  0.5368  0.9581  1.2023
22111SOL    HW271464   0.119   3.204   2.921 -0.5697 -1.4807  1.8186
22112SOL     OW71465   9.943   0.003   9.651 -0.0026 -0.7476  0.6621
22112SOL    HW171466   9.891   0.020   9.572  1.7160 -1.1428 -0.5878
22112SOL    HW271467   9.935  -0.092   9.664 -0.1931 -0.6985  0.9172
22113SOL     OW71468   7.510   7.360   8.507  0.1073  0.1833 -0.1617
22113SOL    HW171469   7.600   7.340   8.484  0.9503  1.5308  1.7579
22113SOL    HW271470   7.486   7.432   8.449 -0.5984 -1.7626 -2.3500
22114SOL     OW71471   1.793   7.609  11.091  0.0213 -0.7006  0.2351
22114SOL    HW171472   1.862   7.555  11.130  0.6347 -0.9581 -1.2018
22114SOL    HW271473   1.748   7.550  11.030 -0.3568 -0.0338 -0.1322
22115SOL     OW71474   6.852   7.783   0.008 -0.1308  0.3601  0.1155
22115SOL    HW171475   6.793   7.721   0.051  0.1969 -0.6137 -0.8284
22115SOL    HW271476   6.905   7.729  -0.051 -0.0137  1.5631 -0.8996
22116SOL     OW71477   0.100   0.027   6.024 -0.0408  0.0299  0.3375
22116SOL    HW171478   0.122  -0.064   6.042  0.3101  0.1621  0.6000
22116SOL    HW271479   0.049   0.025   5.943  2.3765 -0.1248 -1.2283
22117SOL     OW71480   7.643   3.690   2.306 -0.2236  0.0290 -0.2068
22117SOL    HW171481   7.569   3.734   2.264 -0.2871  1.6469  1.5319
22117SOL    HW271482   7.713   3.693   2.240 -1.3199 -0.4267 -1.4072
22118SOL     OW71483   8.402   5.199   1.650  0.2970  0.3119  0.1633
22118SOL    HW171484   8.441   5.129   1.703  1.7672  1.0938  0.1487
22118SOL    HW271485   8.396   5.273   1.709 -0.0336  0.5665 -0.1879
22119SOL     OW71486   5.541   9.554   0.457 -0.0110  0.2085  0.1148
22119SOL    HW171487   5.568   9.464   0.437 -0.4512  0.0255  0.3464
22119SOL    HW271488   5.585   9.607   0.390 -1.4646 -0.4055 -1.3493
22120SOL     OW71489  10.122   2.677   0.575 -0.0787 -0.0397 -0.1312
22120SOL    HW171490  10.192   2.655   0.637  1.0201  0.5087 -1.1482
22120SOL    HW271491  10.107   2.770   0.588 -0.2900 -0.0588 -0.2408
22121SOL     OW71492  10.721   7.148   7.789  0.4768  0.2631  0.0593
22121SOL    HW171493  10.673   7.150   7.706 -2.9083  0.3644  1.9617
22121SOL    HW271494  10.776   7.226   7.786 -1.0314  1.2977 -1.2612
22122SOL     OW71495   1.255   0.602   2.826 -0.3641  0.3196  0.5254
22122SOL    HW171496   1.241   0.529   2.887 -1.0449 -0.3891 -0.4621
22122SOL    HW271497   1.279   0.676   2.882 -1.4278 -0.1987  1.6949
22123SOL     OW71498   7.753   7.921  10.538  0.1416  0.2603  0.1343
22123SOL    HW171499   7.683   7.891  10.480  0.5825 -1.3362  0.3825
22123SOL    HW271500   7.715   7.915  10.626 -1.3561  5.0031 -0.0666
22124SOL     OW71501   6.078   7.123   9.759 -0.1287  0.3968  0.2194
22124SOL    HW171502   6.016   7.166   9.818 -2.2104 -1.3733 -0.6356
22124SOL    HW271503   6.141   7.192   9.737 -0.5249  1.6642  2.7841
22125SOL     OW71504   8.117   8.318  11.049  0.0542 -0.0014  0.1206
22125SOL    HW171505   8.123   8.389  10.985  2.7052 -1.0919 -0.9488
22125SOL    HW271506   8.202   8.275  11.043 -0.5470 -1.5998  2.7035
22126SOL     OW71507   3.213   0.025   8.686  0.6100  0.8110  0.5609
22126SOL    HW171508   3.250   0.099   8.639 -0.5968  1.7325  1.0407
22126SOL    HW271509   3.181  -0.033   8.617 -1.0646  2.1177  0.2051
22127SOL     OW71510  10.705   6.951   4.332  0.6608  0.6788  0.1885
22127SOL    HW171511  10.723   7.037   4.295 -2.0701  0.7106 -1.1398
22127SOL    HW271512  10.657   6.968   4.413 -1.2533  0.3903 -0.8676
22128SOL     OW71513  11.123   0.172   4.974  0.5769 -0.2606  0.4791
22128SOL    HW171514  11.107   0.262   4.946  1.3204 -0.2628  0.0499
22128SOL    HW271515  11.041   0.146   5.017 -0.4986 -0.1784 -1.4654
22129SOL     OW71516   1.801   2.652   9.447  0.3686  0.2077  0.0653
22129SOL    HW171517   1.884   2.619   9.482 -0.4633 -0.1989  1.6702
22129SOL    HW271518   1.753   2.682   9.523 -1.5821 -0.9169 -0.6984
22130SOL     OW71519   8.993   0.307   5.422  0.0278 -0.8519  0.5657
22130SOL    HW171520   8.917   0.258   5.451 -1.0519  0.2755 -0.3068
22130SOL    HW271521   8.963   0.397   5.416  1.2359 -0.4977 -0.4587
22131SOL     OW71522   3.604   6.780  11.006  0.4098  0.0266  0.0259
22131SOL    HW171523   3.533   6.720  10.984 -0.1938  0.9394 -0.5466
22131SOL    HW271524   3.618   6.831  10.926 -0.8078  2.3771  1.2489
22132SOL     OW71525   3.520   4.507   9.351  0.3169 -0.3791 -0.0970
22132SOL    HW171526   3.438   4.459   9.334  0.7322 -0.7527 -1.1048
22132SOL    HW271527   3.566   4.505   9.267  1.6166 -0.6535  0.6213
22133SOL     OW71528  10.094  10.275   6.901 -0.2563  0.5306  0.2594
22133SOL    HW171529  10.184  10.247   6.888 -0.0438  0.8949  0.9423
22133SOL    HW271530  10.047  10.239   6.826 -0.4364 -3.6185  2.2279
22134SOL     OW71531   2.490   5.674   1.438  1.0588 -0.1824 -0.3190
22134SOL    HW171532   2.491   5.682   1.342  1.2109 -2.0627 -0.4772
22134SOL    HW271533   2.404   5.636   1.458  1.1604 -0.1067  0.2724
22135SOL     OW71534   8.274  10.966   7.411 -0.5839  0.8242  0.1293
22135SOL    HW171535   8.322  11.044   7.437 -1.5343  1.1871  0.8246
22135SOL    HW271536   8.340  10.909   7.371  0.0556  2.0994 -0.6536
22136SOL     OW71537   4.045   8.924   3.554  0.4376  0.0347 -0.1549
22136SOL    HW171538   4.095   8.994   3.597  0.3433 -0.8605  1.4314
22136SOL    HW271539   3.969   8.969   3.516  1.5553  1.1414 -1.1532
22137SOL     OW71540  10.584  10.494   0.193 -0.9545 -0.1584 -0.2546
22137SOL    HW171541  10.622  10.472   0.278 -0.4731 -0.7693 -0.6247
22137SOL    HW271542  10.490  10.498   0.209 -0.6676  2.8736  1.0143
22138SOL     OW71543   9.942   5.134   0.258 -0.5015 -0.4407  0.1499
22138SOL    HW171544  10.022   5.134   0.310 -1.2069  0.9149  1.2888
22138SOL    HW271545   9.966   5.172   0.174 -0.1393  0.7980  0.8086
22139SOL     OW71546   0.745   3.195   6.583 -0.1257  0.0175  0.2273
22139SOL    HW171547   0.649   3.192   6.585 -0.0958 -1.0822  0.5677
22139SOL    HW271548   0.772   3.137   6.654  0.7953  0.9260  0.6203
22140SOL     OW71549   1.979   8.792   6.072 -0.0161  0.7456 -0.4944
22140SOL    HW171550   2.013   8.880   6.052  0.0765  0.5500 -1.2253
22140SOL    HW271551   2.039   8.733   6.027 -0.6529  0.3503 -0.8274
22141SOL     OW71552   9.971   9.843   7.797  0.2477  0.2151  0.2086
22141SOL    HW171553   9.877   9.845   7.778  0.0521  0.0642  1.1153
22141SOL    HW271554  10.004   9.927   7.765 -0.0460 -0.0571 -0.8296
22142SOL     OW71555   8.380   8.641   4.145 -0.0479 -1.1163  0.8487
22142SOL    HW171556   8.450   8.624   4.081 -0.1722  3.0575 -0.5600
22142SOL    HW271557   8.303   8.600   4.107 -0.2416  1.7546 -2.1398
22143SOL     OW71558   3.418   6.133   9.259 -0.0704  0.5248  0.2181
22143SOL    HW171559   3.405   6.066   9.326 -0.2326 -0.1398 -0.4778
22143SOL    HW271560   3.400   6.215   9.305 -1.1068  0.0159  0.7568
22144SOL     OW71561   2.617   3.621   2.494  0.1968 -0.1571 -0.7801
22144SOL    HW171562   2.643   3.661   2.411  1.8562  0.6352  0.0947
22144SOL    HW271563   2.550   3.557   2.470 -1.0525  1.7104 -2.4560
22145SOL     OW71564   7.513   1.791   9.789 -0.7433  0.2102 -0.3108
22145SOL    HW171565   7.591   1.844   9.772 -0.4857  0.5353  1.8290
22145SOL    HW271566   7.546   1.702   9.798 -0.5053  0.4733  1.4609
22146SOL     OW71567   2.842   7.227   5.680 -0.1955  0.0224 -0.3663
22146SOL    HW171568   2.823   7.133   5.682 -1.0630  0.1916  0.1194
22146SOL    HW271569   2.760   7.267   5.649 -0.3646  0.7269  0.9439
22147SOL     OW71570   6.999   6.613   0.600 -0.6115  0.1020 -0.2065
22147SOL    HW171571   7.087   6.618   0.564 -0.5133  2.7421  0.3454
22147SOL    HW271572   6.977   6.519   0.596  2.4769 -0.6979  0.3634
22148SOL     OW71573   1.202   5.382  10.270  0.6693  0.0144  0.1041
22148SOL    HW171574   1.248   5.466  10.275 -1.2899  1.2367 -1.6868
22148SOL    HW271575   1.119   5.403  10.226  0.1425 -2.8596 -0.3323
22149SOL     OW71576   0.856  10.133   1.132 -0.4774 -0.3700  0.5413
22149SOL    HW171577   0.793  10.180   1.079 -0.4957 -0.5073  0.4395
22149SOL    HW271578   0.819  10.045   1.141 -0.2932 -0.4543  0.4703
22150SOL     OW71579  11.179   5.322   6.338  0.4289  0.0141  0.3143
22150SOL    HW171580  11.259   5.362   6.305  1.1754 -0.7773  1.1568
22150SOL    HW271581  11.164   5.246   6.282 -0.0261  0.4582 -0.1742
22151SOL     OW71582   0.084   0.889  10.086 -0.2455 -0.6961  0.1240
22151SOL    HW171583   0.150   0.862  10.022 -0.6176 -1.0412 -0.1199
22151SOL    HW271584   0.030   0.952  10.040 -1.9870 -2.7278 -0.7145
22152SOL     OW71585   3.818   4.359   8.104  0.5339 -0.1639 -0.3941
22152SOL    HW171586   3.894   4.385   8.052 -0.4755  1.8834 -0.9007
22152SOL    HW271587   3.801   4.268   8.080  3.0643 -0.7875  0.0417
22153SOL     OW71588  11.057   4.479   4.194 -0.1835  0.3167 -0.4851
22153SOL    HW171589  11.025   4.408   4.249  0.7640 -0.6680 -1.1628
22153SOL    HW271590  11.114   4.435   4.130 -1.6086  1.3527 -2.5202
22154SOL     OW71591   5.366   4.643   6.648 -0.2139  0.1295  0.1048
22154SOL    HW171592   5.401   4.555   6.663 -1.0676 -0.2137  0.0894
22154SOL    HW271593   5.393   4.664   6.559  1.6506  0.6708  0.7620
22155SOL     OW71594   0.307   3.070  10.100 -0.1715  0.5511 -0.1944
22155SOL    HW171595   0.242   3.121  10.052 -0.4911  0.4549  0.1345
22155SOL    HW271596   0.257   3.002  10.144 -0.0195  1.2988  1.1544
22156SOL     OW71597   1.606   6.900   9.444 -0.2170 -0.3040  0.3220
22156SOL    HW171598   1.523   6.905   9.490 -0.3407  1.1708 -0.0352
22156SOL    HW271599   1.653   6.979   9.469 -0.5771  0.8933 -2.5996
22157SOL     OW71600  10.555   9.483   3.387  0.1439 -0.0012  1.0785
22157SOL    HW171601  10.545   9.395   3.423 -0.7296  0.1187  1.1520
22157SOL    HW271602  10.466   9.518   3.387  0.5823  1.1114  1.6350
22158SOL     OW71603   1.954   2.017   0.569  0.2739 -0.0283 -0.5063
22158SOL    HW171604   1.879   2.010   0.510 -0.2661 -2.4658  0.4458
22158SOL    HW271605   2.023   1.966   0.527  1.3533  1.9148 -1.2054
22159SOL     OW71606  10.244   5.825   6.768  0.1783  0.3866 -0.0746
22159SOL    HW171607  10.315   5.835   6.704  0.0728  0.9579 -0.0989
22159SOL    HW271608  10.271   5.749   6.820  0.4930  0.2007 -0.4944
22160SOL     OW71609   2.000   4.334  10.809 -0.3217  0.0437  0.4504
22160SOL    HW171610   1.906   4.344  10.795 -0.3047  1.3474  1.1599
22160SOL    HW271611   2.013   4.359  10.901  0.8051  0.5225  0.1672
22161SOL     OW71612   5.922   9.158   3.509 -0.3590  0.2559  0.0676
22161SOL    HW171613   5.886   9.201   3.587  0.0320  0.9038 -0.1067
22161SOL    HW271614   5.921   9.225   3.442  0.3846  0.0304 -0.1736
22162SOL     OW71615   2.227   3.042   8.346 -0.6214 -0.1632 -0.1971
22162SOL    HW171616   2.238   2.950   8.370  0.9473  0.4025  1.2843
22162SOL    HW271617   2.211   3.040   8.251  0.8453 -1.8519 -0.4293
22163SOL     OW71618   5.408  11.124   0.792  0.2021  0.1743 -0.2353
22163SOL    HW171619   5.345  11.138   0.721 -0.0533 -1.7937 -0.4322
22163SOL    HW271620   5.425  11.211   0.827 -1.4556  0.9046 -1.1929
22164SOL     OW71621  10.740   5.809   4.041 -0.7006  0.1666 -0.4226
22164SOL    HW171622  10.789   5.787   4.120  1.2277  0.2136 -1.5788
22164SOL    HW271623  10.793   5.775   3.969 -1.3485  2.0573 -1.8379
22165SOL     OW71624   0.451   9.409   9.541 -0.2494  0.7078 -0.5210
22165SOL    HW171625   0.491   9.474   9.484  0.3837  0.8722  0.0958
22165SOL    HW271626   0.401   9.460   9.605 -2.4411  0.4706 -1.9823
22166SOL     OW71627   5.420   7.999  10.276  0.1333 -0.5669 -0.0983
22166SOL    HW171628   5.436   8.062  10.207 -0.3340  0.2011  0.4768
22166SOL    HW271629   5.418   8.051  10.357 -1.1367 -1.1744  0.2896
22167SOL     OW71630   9.586   5.625   9.951  0.5306 -0.1816 -0.2978
22167SOL    HW171631   9.514   5.576   9.912 -1.9137  2.9807  0.0015
22167SOL    HW271632   9.603   5.697   9.890  1.1934  0.9765  1.2071
22168SOL     OW71633   5.960  10.142  11.134 -0.6252 -0.3809  0.1494
22168SOL    HW171634   5.934  10.051  11.147  0.1034 -0.5517  0.4368
22168SOL    HW271635   5.956  10.181  11.221 -0.3646 -0.2905  0.1222
22169SOL     OW71636   8.045   6.415   9.151  0.0927  0.0067 -0.0258
22169SOL    HW171637   8.083   6.394   9.066 -0.2444 -0.3485 -0.0869
22169SOL    HW271638   7.958   6.450   9.131 -0.6159 -1.5584  0.2607
22170SOL     OW71639   4.424   3.217  11.220 -0.0560  0.1252 -0.0961
22170SOL    HW171640   4.422   3.174  11.305  1.9482  0.3111  0.0755
22170SOL    HW271641   4.430   3.311  11.240 -0.1065  0.2035 -0.4407
22171SOL     OW71642   2.117   2.464   1.705 -0.4723  0.3318  0.2022
22171SOL    HW171643   2.212   2.455   1.698 -0.5642 -0.6015 -0.0265
22171SOL    HW271644   2.100   2.558   1.701  0.3670  0.4449 -0.7812
22172SOL     OW71645   7.457   7.639   0.958  0.2947 -0.2888 -0.1381
22172SOL    HW171646   7.437   7.647   0.865  1.8829 -0.4113 -0.5171
22172SOL    HW271647   7.525   7.571   0.961 -0.4039 -0.9441  1.2119
22173SOL     OW71648   3.710   5.086   0.409 -0.5961  0.0459 -0.5364
22173SOL    HW171649   3.776   5.106   0.475  1.0708 -1.8080 -1.5941
22173SOL    HW271650   3.626   5.102   0.453  0.5124  1.6033  1.0911
22174SOL     OW71651   8.172   9.911   4.303 -0.3127  0.8260 -0.1501
22174SOL    HW171652   8.253   9.861   4.306 -0.2100  1.0170  0.3732
22174SOL    HW271653   8.172   9.961   4.385 -1.3202  0.2472  0.2124
22175SOL     OW71654   4.392   0.149   3.780  0.3074 -0.4830 -0.3180
22175SOL    HW171655   4.333   0.084   3.742 -1.6526  0.3455  1.2009
22175SOL    HW271656   4.375   0.229   3.730  1.1894 -0.6032 -0.8126
22176SOL     OW71657   0.422   9.362   6.900  0.3509 -0.6704 -0.0300
22176SOL    HW171658   0.409   9.433   6.837  1.0928 -0.9205 -0.4718
22176SOL    HW271659   0.335   9.348   6.938  0.0715  0.0536 -0.3875
22177SOL     OW71660   4.996   4.616   8.286 -0.3726  0.4864 -0.3173
22177SOL    HW171661   5.025   4.554   8.353 -0.4206 -0.0936 -0.8238
22177SOL    HW271662   4.902   4.624   8.300 -0.3172  0.6696 -0.0631
22178SOL     OW71663   5.639   0.587   9.909 -0.1408 -0.5456  0.2713
22178SOL    HW171664   5.593   0.606   9.990  0.1024 -0.3422  0.3605
22178SOL    HW271665   5.647   0.672   9.865 -2.0620 -0.9352 -0.9086
22179SOL     OW71666   3.547   3.806   1.386 -0.2737  0.3185 -0.6358
22179SOL    HW171667   3.466   3.850   1.411  0.0794 -0.3222  1.7794
22179SOL    HW271668   3.614   3.874   1.393 -0.1070  0.0304  0.6509
22180SOL     OW71669   3.026  11.193   1.835 -0.9386  0.2044 -0.2496
22180SOL    HW171670   3.023  11.153   1.748  0.9799 -0.6386  0.0638
22180SOL    HW271671   3.047  11.121   1.894 -2.0296  0.8099  0.9132
22181SOL     OW71672   1.486   6.549   5.189 -0.3534  0.5630 -0.1446
22181SOL    HW171673   1.502   6.481   5.124 -0.1965 -0.9544  1.4453
22181SOL    HW271674   1.535   6.625   5.157 -1.2502  0.2332 -2.3887
22182SOL     OW71675   3.103   5.274   7.367  0.4918  0.2656  0.3953
22182SOL    HW171676   3.101   5.358   7.413  0.4472  0.7651 -0.4950
22182SOL    HW271677   3.059   5.292   7.284 -1.1701 -1.1187  0.9575
22183SOL     OW71678   5.821   5.323   3.286  0.1186 -0.3991  0.1009
22183SOL    HW171679   5.888   5.346   3.221 -0.3487  2.0103  0.4457
22183SOL    HW271680   5.870   5.300   3.364  0.5997 -0.7776 -0.3068
22184SOL     OW71681   0.057  10.910   4.094 -0.3624 -0.2022  0.2865
22184SOL    HW171682   0.151  10.920   4.111 -0.2311 -2.3801  1.0011
22184SOL    HW271683   0.050  10.907   3.999  0.3956 -0.9287  0.2470
22185SOL     OW71684   2.263   7.884  10.245 -0.7785 -0.0976 -0.0681
22185SOL    HW171685   2.353   7.853  10.232 -1.0012 -0.9270  0.3475
22185SOL    HW271686   2.272   7.979  10.257  0.0790 -0.2316  0.3833
22186SOL     OW71687   8.988   9.298   5.005 -1.0070  0.3471  0.8709
22186SOL    HW171688   8.912   9.287   4.948 -0.2570  0.4552 -0.1764
22186SOL    HW271689   9.059   9.322   4.945  0.1767 -1.1332  1.6559
22187SOL     OW71690   8.888   3.070   9.763 -0.6612 -0.2251 -0.1102
22187SOL    HW171691   8.857   3.124   9.690  1.1489  0.9998 -0.0093
22187SOL    HW271692   8.980   3.097   9.775  0.2417 -3.2572  0.0316
22188SOL     OW71693   0.786   8.335   8.561 -0.5693 -0.5248  0.3706
22188SOL    HW171694   0.842   8.401   8.603  0.9747 -1.3314 -0.3881
22188SOL    HW271695   0.766   8.372   8.475  1.0927 -1.4358 -0.4359
22189SOL     OW71696   1.805   1.577   8.264 -0.4512 -0.5902 -0.7652
22189SOL    HW171697   1.761   1.621   8.337 -0.3479  0.0400 -1.0757
22189SOL    HW271698   1.836   1.648   8.209  0.7321 -1.0406 -0.6843
22190SOL     OW71699   3.888   9.864   3.846  0.0912 -0.6879 -0.2159
22190SOL    HW171700   3.894   9.779   3.802 -0.7432 -0.2738 -1.1504
22190SOL    HW271701   3.875   9.927   3.774  0.5122  0.2049  0.4840
22191SOL     OW71702   0.692   1.358   5.820  0.4142 -0.2924  0.1195
22191SOL    HW171703   0.708   1.299   5.893  1.4133  1.1552  1.0913
22191SOL    HW271704   0.767   1.346   5.761  0.8084  0.2922  0.5047
22192SOL     OW71705   4.810   8.023   1.879  0.4000 -0.5031 -0.1491
22192SOL    HW171706   4.877   8.091   1.868  0.6679 -0.5242  1.2637
22192SOL    HW271707   4.744   8.064   1.935  0.2276 -1.1783  0.1484
22193SOL     OW71708   3.880   4.938   4.058 -0.2880  0.2132  0.0605
22193SOL    HW171709   3.788   4.964   4.064 -0.9674 -1.7803 -1.3830
22193SOL    HW271710   3.915   4.955   4.146 -1.8444  1.6474  0.4248
22194SOL     OW71711   3.490   9.265  11.295  0.2339 -0.0380  0.3072
22194SOL    HW171712   3.490   9.171  11.314  0.8965  0.1676  1.3474
22194SOL    HW271713   3.492   9.269  11.199 -2.0611 -1.0782  0.1731
22195SOL     OW71714   8.157   0.294   9.313  0.8588 -0.0769 -0.2065
22195SOL    HW171715   8.200   0.380   9.314  1.9016 -0.5859 -0.5311
22195SOL    HW271716   8.089   0.301   9.380  0.6290  1.1596 -0.5553
22196SOL     OW71717   9.558  10.251   3.566  0.1959 -0.2294  0.0476
22196SOL    HW171718   9.604  10.328   3.532 -0.4647  0.2784  0.2629
22196SOL    HW271719   9.573  10.183   3.501 -1.6099  0.9040 -1.6410
22197SOL     OW71720   9.857  10.826   3.108 -0.0472  0.5044 -0.5447
22197SOL    HW171721   9.948  10.842   3.082 -0.3118  0.4369 -1.5593
22197SOL    HW271722   9.817  10.913   3.110 -0.1078  0.4826 -0.7127
22198SOL     OW71723   8.993   6.758   0.302 -0.0223  0.2372 -0.4183
22198SOL    HW171724   9.014   6.850   0.284  0.5265  0.5007  1.5285
22198SOL    HW271725   8.932   6.760   0.375 -1.7600 -0.8778 -1.7839
22199SOL     OW71726  10.730   0.559   4.552  0.1868 -0.0220 -0.1273
22199SOL    HW171727  10.723   0.472   4.593 -0.0100 -0.0845 -0.2879
22199SOL    HW271728  10.644   0.573   4.512 -0.1443  0.7237  0.8371
22200SOL     OW71729   6.719   0.801   9.524 -0.2278  0.3146  0.1540
22200SOL    HW171730   6.759   0.798   9.611 -2.4833  1.1162  1.2403
22200SOL    HW271731   6.706   0.708   9.501 -0.1539  0.1089  0.9271
22201SOL     OW71732   2.907   2.586   7.801 -0.0493  0.3441  0.3737
22201SOL    HW171733   2.924   2.499   7.837  0.0832 -0.5917 -1.8804
22201SOL    HW271734   2.813   2.587   7.785 -0.1429  0.8401  0.9370
22202SOL     OW71735   3.552  10.615   1.126 -1.0768  0.3199 -0.0510
22202SOL    HW171736   3.611  10.688   1.144 -1.9060  1.3227 -1.3066
22202SOL    HW271737   3.479  10.628   1.188  0.4719 -1.5234  2.2477
22203SOL     OW71738   8.732   4.177   5.472 -0.2869  0.2367  0.0436
22203SOL    HW171739   8.756   4.175   5.380 -0.8877 -1.0871 -0.0889
22203SOL    HW271740   8.641   4.146   5.474 -0.2189  0.0870  1.1025
22204SOL     OW71741   9.760   2.219   2.179 -0.1896 -0.5187  0.0524
22204SOL    HW171742   9.790   2.277   2.249 -0.0186  0.0871 -0.5217
22204SOL    HW271743   9.672   2.251   2.157 -0.5324 -1.1493  0.4693
22205SOL     OW71744   6.331   8.690   4.658  0.0083  0.1506  0.7574
22205SOL    HW171745   6.247   8.736   4.655  0.9895  1.9544  0.4345
22205SOL    HW271746   6.385   8.742   4.717  1.7628  0.5065 -1.1020
22206SOL     OW71747   6.170   7.210   8.778  0.2455  1.0135  0.4220
22206SOL    HW171748   6.262   7.225   8.755  0.1234  1.7149  0.3827
22206SOL    HW271749   6.130   7.297   8.775 -0.5542  0.6285 -0.1469
22207SOL     OW71750   4.188   5.090   0.442 -0.1312  0.0808 -0.1535
22207SOL    HW171751   4.246   5.152   0.398 -0.2600 -0.9311 -1.7841
22207SOL    HW271752   4.109   5.141   0.463  0.1427  0.6996 -0.6311
22208SOL     OW71753  10.796   3.504   0.252 -0.0655 -0.5429 -0.1200
22208SOL    HW171754  10.799   3.414   0.286  0.3826 -0.2331  0.6699
22208SOL    HW271755  10.823   3.558   0.326  0.6246  0.1726 -0.8886
22209SOL     OW71756   5.462   6.672  10.875 -0.3438 -0.3000 -0.1721
22209SOL    HW171757   5.459   6.583  10.840  1.0870 -0.8267  1.0087
22209SOL    HW271758   5.539   6.711  10.835  0.2127 -0.2767  0.8982
22210SOL     OW71759   8.040   0.054   9.540 -0.0001  0.1299 -0.4072
22210SOL    HW171760   7.994  -0.028   9.554  2.5298 -1.0892  1.1754
22210SOL    HW271761   7.983   0.121   9.579 -0.0390 -1.4434  2.3362
22211SOL     OW71762  10.823  10.759   9.086 -0.5642 -0.8915 -0.0977
22211SOL    HW171763  10.850  10.837   9.038 -0.5593 -1.0136 -0.2979
22211SOL    HW271764  10.904  10.709   9.098 -0.3232 -0.1741  1.3094
22212SOL     OW71765   2.636   9.384   4.768  0.3216 -0.0488  0.0556
22212SOL    HW171766   2.675   9.328   4.701  0.6350 -0.4613  0.5756
22212SOL    HW271767   2.576   9.440   4.720 -0.3690 -1.1728 -0.4087
22213SOL     OW71768   7.911   4.642   8.591  0.6268 -0.2370 -0.1291
22213SOL    HW171769   7.912   4.644   8.687 -1.0264  0.0715 -0.1051
22213SOL    HW271770   7.923   4.549   8.569  1.8601 -0.2032  0.3433
22214SOL     OW71771   9.352   3.309   0.441 -0.0340  0.4067 -0.0640
22214SOL    HW171772   9.269   3.289   0.398 -0.6442  0.1964  1.1887
22214SOL    HW271773   9.359   3.404   0.437  0.2616  0.3516 -1.2329
22215SOL     OW71774  11.135   7.167   8.418 -0.0743  0.3604  0.8352
22215SOL    HW171775  11.196   7.106   8.376 -1.1526 -0.5377  0.5792
22215SOL    HW271776  11.070   7.187   8.350  0.2673  1.8033  0.9102
22216SOL     OW71777   1.038   3.840  10.096  0.1895  0.1005  0.1605
22216SOL    HW171778   1.009   3.751  10.116  1.2896  0.0534  1.6209
22216SOL    HW271779   1.046   3.883  10.181 -3.2315  2.5695 -0.6511
22217SOL     OW71780   6.377  10.840   9.348  0.1769  0.4522  0.4719
22217SOL    HW171781   6.292  10.806   9.377  1.3582 -1.7378  1.4790
22217SOL    HW271782   6.440  10.806   9.411  2.2256 -0.7407 -2.0900
22218SOL     OW71783   5.765  10.911   9.953 -0.1486 -0.1393 -0.4055
22218SOL    HW171784   5.830  10.947  10.013  0.3767  2.0562 -2.1839
22218SOL    HW271785   5.793  10.821   9.938 -0.4180 -0.7790  2.7627
22219SOL     OW71786   4.416   9.628   1.047 -0.0460  0.4872  0.7621
22219SOL    HW171787   4.399   9.534   1.043 -0.6870  0.5939  0.8447
22219SOL    HW271788   4.329   9.668   1.041 -0.0239  1.0019  3.2921
22220SOL     OW71789   5.209   6.507   3.250  0.3597 -0.7857  0.1248
22220SOL    HW171790   5.292   6.552   3.234 -0.3516 -0.0537 -1.5877
22220SOL    HW271791   5.214   6.480   3.342  2.0247  0.2204  0.3501
22221SOL     OW71792   6.510   4.778  11.147 -0.3056 -0.1792 -0.4173
22221SOL    HW171793   6.565   4.834  11.092  0.2059  0.7774  1.0448
22221SOL    HW271794   6.436   4.834  11.171  0.6375  0.1828  1.7623
22222SOL     OW71795  10.665   3.604   8.613  0.0613 -0.3386  0.5821
22222SOL    HW171796  10.648   3.525   8.665  1.5782 -0.9483  0.2067
22222SOL    HW271797  10.607   3.596   8.537  0.3369 -1.2116  0.4512
22223SOL     OW71798   5.304   2.616   7.974  0.3501  0.5272  1.1801
22223SOL    HW171799   5.339   2.701   8.000  0.8704  0.7120 -0.0589
22223SOL    HW271800   5.375   2.576   7.924 -0.7644  0.4167 -0.3647
22224SOL     OW71801   3.429   6.521   1.367  0.4106  0.3867 -0.5655
22224SOL    HW171802   3.477   6.469   1.431  0.6825  0.4678 -0.7009
22224SOL    HW271803   3.484   6.598   1.352  0.6670  0.0554 -1.3768
22225SOL     OW71804   2.265   4.455   7.429 -0.6902  0.3875 -0.3059
22225SOL    HW171805   2.187   4.404   7.406 -0.5368 -0.0128  0.0595
22225SOL    HW271806   2.263   4.459   7.524 -1.3146  2.0362 -0.3704
22226SOL     OW71807   2.455   1.330   2.527  0.0190  0.1931  0.2635
22226SOL    HW171808   2.493   1.355   2.443  2.4856 -0.2603  1.1975
22226SOL    HW271809   2.467   1.407   2.582  1.5992 -0.6955  1.1959
22227SOL     OW71810   0.618   3.885   4.095  0.2715 -0.0483 -0.2667
22227SOL    HW171811   0.553   3.948   4.062 -0.0109  0.2825  0.8956
22227SOL    HW271812   0.583   3.800   4.070  0.7674  0.2442 -2.0573
22228SOL     OW71813   5.456   7.889   1.269  0.3505  0.4937  0.0382
22228SOL    HW171814   5.367   7.864   1.294  0.1044 -0.3527 -1.6366
22228SOL    HW271815   5.477   7.963   1.326 -0.4864 -0.8839  2.1792
22229SOL     OW71816   7.472   7.240   9.216 -0.7558 -0.1072  0.0409
22229SOL    HW171817   7.514   7.218   9.300  0.3815  0.3265 -0.4046
22229SOL    HW271818   7.454   7.334   9.223 -1.7733 -0.3227  0.2811
22230SOL     OW71819   7.373   7.869   7.821  0.5487 -0.6630  0.0038
22230SOL    HW171820   7.285   7.880   7.784  0.2728 -0.0403  0.8568
22230SOL    HW271821   7.428   7.848   7.745 -0.1034  0.1753 -0.7047
22231SOL     OW71822  10.779   6.681   8.175  0.8221 -0.1087 -0.4779
22231SOL    HW171823  10.703   6.646   8.130  0.3984 -1.9559  1.6021
22231SOL    HW271824  10.823   6.605   8.213  0.5486  1.4226  3.1098
22232SOL     OW71825  10.319   9.058   1.845  0.1810  0.1085  0.3578
22232SOL    HW171826  10.342   9.066   1.752  0.9063 -0.8971  0.4447
22232SOL    HW271827  10.402   9.067   1.891 -0.0017 -0.6191  0.8403
22233SOL     OW71828   5.040   8.672  10.325 -0.5005  0.2432  0.0032
22233SOL    HW171829   5.070   8.581  10.324 -0.2633  0.2966 -2.1536
22233SOL    HW271830   5.113   8.721  10.286 -0.8508  1.2658  0.6243
22234SOL     OW71831  10.920   7.911   7.491  0.3042 -0.0041 -0.1596
22234SOL    HW171832  10.874   7.927   7.573 -2.0990  0.5061 -1.5545
22234SOL    HW271833  10.950   7.820   7.498  0.6594  0.2202  1.5085
22235SOL     OW71834   4.314   4.634  10.432 -0.2405 -0.5331 -0.0749
22235SOL    HW171835   4.350   4.656  10.519 -0.0893 -2.1047  0.2788
22235SOL    HW271836   4.222   4.613  10.449 -1.3332  3.0851 -0.9188
22236SOL     OW71837   9.533   9.346   9.951 -0.2115  0.2832  0.0475
22236SOL    HW171838   9.482   9.421   9.984 -0.5483  0.5007 -0.9689
22236SOL    HW271839   9.467   9.283   9.923  0.0734  0.6812 -1.5387
22237SOL     OW71840   9.416   4.194   0.237 -0.5225 -0.3380  0.9392
22237SOL    HW171841   9.446   4.251   0.308 -1.4575 -0.2931  1.3038
22237SOL    HW271842   9.334   4.157   0.269 -1.7605  0.8657 -0.7038
22238SOL     OW71843  11.130   8.946   8.756 -0.1009  0.1264  0.7104
22238SOL    HW171844  11.112   8.969   8.665 -0.2416 -0.7734  0.5116
22238SOL    HW271845  11.044   8.936   8.796 -0.0646 -1.9473  0.3179
22239SOL     OW71846   4.922   7.104   7.763  0.3128  0.2660 -0.9246
22239SOL    HW171847   4.836   7.147   7.764 -0.4528 -1.2646  0.2751
22239SOL    HW271848   4.983   7.176   7.746 -0.7706  2.2089  2.8618
22240SOL     OW71849   9.064   4.789   5.661  0.7740  0.4963 -0.4436
22240SOL    HW171850   9.126   4.810   5.591 -0.0026 -0.5498 -1.4520
22240SOL    HW271851   9.070   4.694   5.670  1.1042  0.6522  1.1423
22241SOL     OW71852   7.392   2.768   3.386  0.5524  0.1183 -0.1768
22241SOL    HW171853   7.443   2.733   3.313 -1.3765  0.1992 -1.5790
22241SOL    HW271854   7.385   2.862   3.367 -1.3425 -0.1212 -0.7835
22242SOL     OW71855   4.160   1.956   1.103 -0.4099  0.1399  0.5152
22242SOL    HW171856   4.183   1.883   1.046 -3.1905  0.7944 -1.5448
22242SOL    HW271857   4.188   2.034   1.056 -0.5931  0.5812  1.1318
22243SOL     OW71858   2.574   6.234  10.572 -0.2356 -0.2556 -0.2055
22243SOL    HW171859   2.487   6.271  10.585  0.6593  1.6384  0.6887
22243SOL    HW271860   2.612   6.230  10.660  1.5416  1.4725 -0.8353
22244SOL     OW71861  10.744  10.597  10.316  0.1105 -0.6304 -0.2307
22244SOL    HW171862  10.686  10.672  10.304  1.0033 -0.2675 -2.5167
22244SOL    HW271863  10.792  10.617  10.396 -0.6328  0.5720 -0.0663
22245SOL     OW71864   3.574   4.063   2.001 -0.3216  0.9287 -0.4432
22245SOL    HW171865   3.642   4.063   1.934 -2.6311 -1.1168 -2.8548
22245SOL    HW271866   3.553   3.971   2.015 -1.0208  1.3941  1.9607
22246SOL     OW71867   8.640   8.801   6.361  0.1308  0.0023 -0.3464
22246SOL    HW171868   8.587   8.855   6.420  2.3179  0.5577  1.1867
22246SOL    HW271869   8.686   8.740   6.419  1.9983  0.2826 -1.4853
22247SOL     OW71870   2.064   3.293   3.852 -0.3033 -0.4491  0.1524
22247SOL    HW171871   2.134   3.229   3.863  0.7989  0.3302 -1.9712
22247SOL    HW271872   2.100   3.357   3.790 -2.4023  0.6839  0.0622
22248SOL     OW71873   2.589   0.757   0.138 -0.7767  0.0087 -0.0715
22248SOL    HW171874   2.591   0.680   0.196 -1.9324 -0.2583 -0.3738
22248SOL    HW271875   2.525   0.734   0.071 -1.1004  1.2295 -0.1831
22249SOL     OW71876  11.181   5.233   5.454 -0.1245  0.6294 -0.1562
22249SOL    HW171877  11.267   5.194   5.469 -1.1101 -1.2710  0.5916
22249SOL    HW271878  11.157   5.204   5.366 -0.7038 -0.1485  0.2606
22250SOL     OW71879  10.848   9.556   8.107  0.0619 -0.3352 -0.5957
22250SOL    HW171880  10.895   9.495   8.164 -0.9164 -0.2533  0.2999
22250SOL    HW271881  10.866   9.642   8.144 -0.9332 -0.3172 -0.1369
22251SOL     OW71882   1.634   3.382   2.865 -0.8076  0.6778 -0.1167
22251SOL    HW171883   1.551   3.390   2.911 -1.6114  0.7547 -1.5531
22251SOL    HW271884   1.612   3.397   2.773  0.7792  0.6086 -0.5202
22252SOL     OW71885   4.159   3.187   9.280 -0.2250  0.3736  0.1871
22252SOL    HW171886   4.254   3.188   9.268 -0.4689 -0.4155 -2.0654
22252SOL    HW271887   4.147   3.151   9.368  1.5749  0.8206  0.6364
22253SOL     OW71888   7.175   1.821  10.243 -0.2795 -0.3651  0.3406
22253SOL    HW171889   7.113   1.752  10.221  0.0616 -0.1087 -1.5339
22253SOL    HW271890   7.216   1.792  10.324 -1.3501 -1.5291  0.4813
22254SOL     OW71891  10.700   1.430   4.246 -0.0625  0.1640  0.4056
22254SOL    HW171892  10.694   1.449   4.152  1.4321  0.4786  0.3680
22254SOL    HW271893  10.732   1.340   4.250 -0.9103 -0.1379  0.6265
22255SOL     OW71894   1.606   8.795  11.173  0.6561 -0.3767  0.1270
22255SOL    HW171895   1.659   8.716  11.160 -0.4566 -0.8415 -1.7266
22255SOL    HW271896   1.628   8.852  11.100  0.0869  0.2694  0.4491
22256SOL     OW71897   9.499   6.158   3.966 -0.0773  0.4012 -0.6577
22256SOL    HW171898   9.431   6.210   3.924  0.0797  0.8153 -0.3980
22256SOL    HW271899   9.580   6.205   3.948  0.3552 -0.9647 -2.3857
22257SOL     OW71900   2.522   3.698   2.916 -0.2348 -0.2168  0.0139
22257SOL    HW171901   2.472   3.617   2.904  1.3415 -1.4082  1.3446
22257SOL    HW271902   2.611   3.675   2.890  0.6439  0.5177  2.2663
22258SOL     OW71903   9.223   1.837   8.664  0.3213  0.3610  0.2228
22258SOL    HW171904   9.216   1.762   8.723  0.8423  0.2681  0.1697
22258SOL    HW271905   9.218   1.800   8.576  1.4186  0.2927  0.1857
22259SOL     OW71906   6.929   1.035   7.297  0.3427  0.6518 -0.2938
22259SOL    HW171907   6.920   0.947   7.336  0.7372 -0.3485 -2.4044
22259SOL    HW271908   6.984   1.082   7.360  2.2668 -1.4164 -0.3259
22260SOL     OW71909   9.744   4.960   8.424  0.4923 -0.6297  0.0459
22260SOL    HW171910   9.751   5.050   8.455  1.2463 -0.2997 -1.0255
22260SOL    HW271911   9.735   4.907   8.503 -2.0150  0.5603  0.5850
22261SOL     OW71912   1.140   8.968   5.898 -0.5683  0.4543  0.2802
22261SOL    HW171913   1.079   9.005   5.962 -2.7267 -1.2572 -0.7402
22261SOL    HW271914   1.149   9.036   5.831 -1.2660  0.7731  0.5093
22262SOL     OW71915   1.657   0.964   0.075 -0.1099 -0.2952 -0.0246
22262SOL    HW171916   1.615   0.971   0.160  1.1085  1.0876  0.4909
22262SOL    HW271917   1.679   1.055   0.052  1.5646 -0.8803 -0.7798
22263SOL     OW71918  10.318   1.634  10.262 -0.8401 -0.0615  0.0591
22263SOL    HW171919  10.317   1.714  10.315 -2.0939  0.6101 -0.9495
22263SOL    HW271920  10.408   1.626  10.233 -0.3590  0.1163  1.4558
22264SOL     OW71921   4.433  10.778   1.708  0.2838  0.6049 -0.3009
22264SOL    HW171922   4.487  10.854   1.685 -1.5371  1.5271 -1.6557
22264SOL    HW271923   4.398  10.799   1.795  2.9560 -0.5201  1.1108
22265SOL     OW71924   7.935   4.365   8.433  0.3263 -0.4907 -0.3594
22265SOL    HW171925   7.843   4.393   8.430  0.5647  0.1640 -2.0021
22265SOL    HW271926   7.953   4.334   8.344  1.5395 -1.1346  0.1069
22266SOL     OW71927   6.376   4.545   5.230  0.3472 -0.6340  0.4221
22266SOL    HW171928   6.328   4.617   5.187 -1.4969 -0.5083  2.5647
22266SOL    HW271929   6.468   4.563   5.211 -0.0079  2.6790  1.3512
22267SOL     OW71930   3.974   9.105   2.344  0.0228 -0.3931  0.2364
22267SOL    HW171931   3.949   9.042   2.411 -0.1091 -0.8938 -0.2828
22267SOL    HW271932   4.070   9.102   2.344  0.0786  0.8593  1.5862
22268SOL     OW71933   4.282   9.534   4.836 -0.7140 -0.4903  0.3795
22268SOL    HW171934   4.294   9.612   4.782  0.1464 -0.8945 -0.0122
22268SOL    HW271935   4.220   9.562   4.904 -1.3338  0.1853 -0.4506
22269SOL     OW71936   9.040   4.467   2.296  0.4604 -0.2423  0.3464
22269SOL    HW171937   9.026   4.528   2.369  0.4366 -0.1257  0.2449
22269SOL    HW271938   9.134   4.448   2.298  0.6231  0.4662 -0.1450
22270SOL     OW71939   5.466   5.533   2.964  0.3522  0.0548 -0.0546
22270SOL    HW171940   5.445   5.493   2.879  0.2626 -0.1345  0.0567
22270SOL    HW271941   5.467   5.460   3.025  1.2793  0.0760 -0.0458
22271SOL     OW71942   9.939   2.604   7.921  0.0816  0.1739  1.0045
22271SOL    HW171943  10.021   2.640   7.890 -0.2117 -0.6758 -0.8399
22271SOL    HW271944   9.950   2.509   7.913 -1.3677  0.0822 -0.0517
22272SOL     OW71945   9.478   7.269   2.763 -0.5152  0.2407 -0.2395
22272SOL    HW171946   9.495   7.212   2.839  2.1251  0.3389 -0.7227
22272SOL    HW271947   9.450   7.209   2.694  1.8071 -0.4436 -0.6090
22273SOL     OW71948   8.513   4.900   1.022  0.8112 -0.7905  0.4877
22273SOL    HW171949   8.537   4.929   0.934  0.4018 -0.6656  0.4170
22273SOL    HW271950   8.562   4.819   1.035 -0.1992 -1.5649 -0.4003
22274SOL     OW71951   5.818   8.324   5.763  0.0966 -0.2399 -0.6246
22274SOL    HW171952   5.884   8.329   5.831 -0.3647  2.1202 -0.3027
22274SOL    HW271953   5.735   8.319   5.810 -0.2313  1.5005 -0.9699
22275SOL     OW71954   7.321   9.529   3.990  0.3762  0.2128 -0.2524
22275SOL    HW171955   7.280   9.530   3.904  0.6315  0.9148 -0.3707
22275SOL    HW271956   7.262   9.579   4.045  0.3741  0.0375 -0.0957
22276SOL     OW71957  10.268   9.354   5.723 -0.3738  0.3153 -0.3955
22276SOL    HW171958  10.342   9.294   5.712 -0.4383  0.0117  0.7956
22276SOL    HW271959  10.191   9.297   5.726 -0.6021  0.5857 -0.9929
22277SOL     OW71960   0.867   0.650   9.232 -1.0077  0.2952 -0.1115
22277SOL    HW171961   0.826   0.628   9.148  0.1359  2.6980 -1.3581
22277SOL    HW271962   0.949   0.601   9.232 -1.4128 -0.3903  0.0088
22278SOL     OW71963   7.899   1.184   2.832 -0.5247 -0.2244 -0.3793
22278SOL    HW171964   7.826   1.241   2.856 -0.6398 -0.1959 -0.7979
22278SOL    HW271965   7.878   1.153   2.744 -1.1402 -2.0096  0.3693
22279SOL     OW71966   3.360   0.979   4.468  0.2794  0.1959 -0.2761
22279SOL    HW171967   3.384   0.900   4.517 -2.9449  1.1116  2.9732
22279SOL    HW271968   3.328   0.946   4.384  0.4239 -1.8401  0.4336
22280SOL     OW71969   4.462   5.114   5.770  0.4077  0.1774 -0.0169
22280SOL    HW171970   4.442   5.072   5.687 -0.0511  0.7027 -0.1696
22280SOL    HW271971   4.385   5.098   5.824 -0.6287  2.5685 -0.7490
22281SOL     OW71972   9.650   2.920   7.745  0.4106 -0.0197 -0.1337
22281SOL    HW171973   9.738   2.945   7.718  1.0780  0.2630  2.1720
22281SOL    HW271974   9.645   2.827   7.727  1.6751 -0.3107  0.9289
22282SOL     OW71975   7.535  10.133   7.310  0.3536  0.1570  0.2144
22282SOL    HW171976   7.607  10.175   7.358  0.2803  1.7577 -1.0355
22282SOL    HW271977   7.577  10.062   7.262  0.8128  0.0080  0.8175
22283SOL     OW71978   3.760   7.539  10.148  0.6908  0.1619 -0.0522
22283SOL    HW171979   3.842   7.491  10.139  0.8503  0.4356 -0.0509
22283SOL    HW271980   3.710   7.518  10.069  0.7756  0.0260 -0.0687
22284SOL     OW71981   0.297   7.804   7.597 -0.2249  0.1109  0.1241
22284SOL    HW171982   0.341   7.738   7.543 -1.9066 -1.4918  0.6461
22284SOL    HW271983   0.313   7.887   7.552  0.0643 -0.9378 -1.7552
22285SOL     OW71984   7.037   0.601   5.849  0.5688  0.2182  0.0324
22285SOL    HW171985   6.980   0.660   5.899  0.3280  0.3661 -0.4139
22285SOL    HW271986   6.990   0.586   5.767  0.9193 -0.1004 -0.1119
22286SOL     OW71987   2.984   2.506   6.479  0.5043 -0.4662  0.2035
22286SOL    HW171988   3.051   2.451   6.521  0.2868 -1.5536 -0.8452
22286SOL    HW271989   2.924   2.528   6.550  2.1588  0.8427  1.2469
22287SOL     OW71990   8.118   0.257   6.224  0.4701  0.1898  0.1365
22287SOL    HW171991   8.073   0.172   6.224  2.2314 -0.7723  0.3327
22287SOL    HW271992   8.070   0.310   6.160 -1.0305 -0.7362  0.4630
22288SOL     OW71993   1.579   2.303   1.273 -0.5399  0.3425 -0.1028
22288SOL    HW171994   1.555   2.308   1.181 -1.2952 -1.9757 -0.0721
22288SOL    HW271995   1.496   2.292   1.319 -0.1378  1.1425  0.8269
22289SOL     OW71996   3.921   5.121   2.364  0.4307  0.5127 -0.3024
22289SOL    HW171997   3.958   5.154   2.446 -1.3799 -0.2580  0.8567
22289SOL    HW271998   3.972   5.042   2.345  0.5118  0.4101  0.3369
22290SOL     OW71999   2.405   4.942   4.723  0.1115 -0.4211 -0.1698
22290SOL    HW172000   2.497   4.957   4.743 -0.5593  1.2319  1.8644
22290SOL    HW272001   2.361   4.950   4.808 -1.9553 -0.7860 -1.1827
22291SOL     OW72002   1.988   6.616   9.051  0.2042  0.0008 -0.0544
22291SOL    HW172003   1.989   6.664   8.968  1.3087  0.2480  0.1016
22291SOL    HW272004   1.956   6.680   9.115  0.3924  0.1339 -0.0935
22292SOL     OW72005   9.665   4.489   8.931  0.0944  0.5253  0.3131
22292SOL    HW172006   9.589   4.432   8.946  0.6109 -0.5351 -1.0213
22292SOL    HW272007   9.693   4.515   9.019 -0.3523 -1.0186  0.9275
22293SOL     OW72008   9.408   5.460   9.812  0.0244  0.2600  0.5552
22293SOL    HW172009   9.415   5.545   9.768  0.6889  0.1438  0.4414
22293SOL    HW272010   9.383   5.399   9.742 -0.8821  0.4346  0.7176
22294SOL     OW72011   9.668  10.641   5.662  0.1362 -0.0318  0.4008
22294SOL    HW172012   9.741  10.702   5.676 -0.1700 -0.0448  2.2464
22294SOL    HW272013   9.618  10.679   5.590  0.4316  1.4589  0.9586
22295SOL     OW72014   6.256   7.803   3.102 -0.4048 -0.0233 -0.0351
22295SOL    HW172015   6.222   7.756   3.026 -0.8554  0.5805 -0.2137
22295SOL    HW272016   6.243   7.896   3.080  0.8507  0.2003  0.1334
22296SOL     OW72017   1.891   3.580   0.307 -0.8631 -0.1603 -0.8172
22296SOL    HW172018   1.885   3.641   0.380 -0.9451  0.7300 -1.5675
22296SOL    HW272019   1.922   3.498   0.347  0.5194  0.7371 -0.0356
22297SOL     OW72020   5.057   4.679   6.430 -0.1720  0.3943 -0.0302
22297SOL    HW172021   4.999   4.737   6.382  1.0858  1.7240  0.0008
22297SOL    HW272022   5.142   4.723   6.428 -0.4235  1.4594  4.9310
22298SOL     OW72023   1.351   9.490   5.433  0.5367 -0.4198  0.5800
22298SOL    HW172024   1.443   9.510   5.452  0.3753 -1.0712  2.0950
22298SOL    HW272025   1.345   9.395   5.438 -0.1792 -0.3937  0.2614
22299SOL     OW72026  10.470   3.803   0.522  0.0304  0.0311  0.4349
22299SOL    HW172027  10.395   3.744   0.511 -0.7462  0.9625  0.6694
22299SOL    HW272028  10.487   3.837   0.435 -0.4844  0.6045  0.5504
22300SOL     OW72029  10.831   3.982   3.504 -0.0426 -0.5709 -0.1105
22300SOL    HW172030  10.745   4.004   3.468 -1.8646 -2.4481  2.8175
22300SOL    HW272031  10.851   3.896   3.468  0.1920 -0.5039 -0.1378
22301SOL     OW72032   0.514   4.581   1.516 -0.2563 -0.0594  0.7702
22301SOL    HW172033   0.548   4.499   1.483 -0.5069 -0.2838  1.0606
22301SOL    HW272034   0.590   4.638   1.526 -0.1530 -0.0737  0.0520
22302SOL     OW72035   3.914   8.643   7.771 -0.2392  0.4041 -0.0517
22302SOL    HW172036   3.984   8.592   7.730 -0.7898  0.0594 -0.5789
22302SOL    HW272037   3.944   8.658   7.861  1.8538  2.7632 -1.0802
22303SOL     OW72038   3.307  10.149   2.728 -0.4781 -0.3952  0.0537
22303SOL    HW172039   3.251  10.211   2.774  0.6785  0.1067  0.8142
22303SOL    HW272040   3.247  10.083   2.694 -1.7308  1.1520 -0.8136
22304SOL     OW72041   8.200  10.297   3.534  0.1658 -0.2554 -0.0961
22304SOL    HW172042   8.202  10.244   3.613 -0.5916  0.6440  0.5452
22304SOL    HW272043   8.179  10.236   3.464 -1.0303 -0.7575  0.6785
22305SOL     OW72044   1.909   7.909   1.655  0.3862 -0.1895 -0.5091
22305SOL    HW172045   1.941   7.950   1.736 -0.0556 -0.4937 -0.1763
22305SOL    HW272046   1.925   7.973   1.587 -0.6072  0.6660  0.0543
22306SOL     OW72047   1.173   3.373   7.252 -0.4455  0.4872  0.0818
22306SOL    HW172048   1.143   3.430   7.322  0.9306  0.3926  0.7436
22306SOL    HW272049   1.170   3.428   7.173  2.2135  1.9169  0.9340
22307SOL     OW72050   8.791   1.622   9.103  0.0963 -0.3301  0.0086
22307SOL    HW172051   8.790   1.620   9.007  1.7872  1.8660 -0.0695
22307SOL    HW272052   8.720   1.681   9.126  1.9238  1.9055 -0.0079
22308SOL     OW72053   3.040   2.403   3.588 -0.5341 -0.5457  0.2342
22308SOL    HW172054   3.074   2.487   3.619 -0.0133 -0.9868  0.8741
22308SOL    HW272055   2.982   2.373   3.658 -0.8456 -0.6446 -0.0652
22309SOL     OW72056   3.990   1.784   8.533  0.5446 -0.0361 -0.1288
22309SOL    HW172057   3.986   1.763   8.440  2.8898 -0.7217 -0.1108
22309SOL    HW272058   3.930   1.723   8.574  0.5836 -0.7028 -1.0493
22310SOL     OW72059   1.334   4.773   6.039  0.0247 -0.0754  0.4789
22310SOL    HW172060   1.417   4.730   6.016  0.1824  0.4233  0.1125
22310SOL    HW272061   1.327   4.845   5.977  0.1890  0.9538  1.6419
22311SOL     OW72062   0.817  11.177   7.486 -0.0197  0.1497 -0.1728
22311SOL    HW172063   0.722  11.161   7.490 -0.0785  0.3904 -0.6318
22311SOL    HW272064   0.845  11.131   7.408  0.6695 -2.1024  1.3437
22312SOL     OW72065   6.072   6.581   9.048  0.2704  0.5186 -0.0269
22312SOL    HW172066   6.043   6.511   8.990  0.9314  0.2477 -0.0444
22312SOL    HW272067   6.037   6.661   9.010  1.7851  0.4948 -1.5527
22313SOL     OW72068   0.955   0.111  11.135  0.0022 -0.4132  0.5282
22313SOL    HW172069   0.882   0.056  11.105 -0.5275  0.5785 -0.0340
22313SOL    HW272070   0.923   0.150  11.216  0.0210 -0.2191  0.4432
22314SOL     OW72071  10.424   4.523   3.645  0.1147 -0.3090  0.2455
22314SOL    HW172072  10.349   4.507   3.701 -0.4007 -1.4310 -0.7378
22314SOL    HW272073  10.497   4.481   3.690  0.0088  0.1328  0.8307
22315SOL     OW72074   4.590   4.785   0.726 -0.1661  0.4298 -0.0497
22315SOL    HW172075   4.671   4.753   0.687  0.0638  0.8482  0.0731
22315SOL    HW272076   4.592   4.879   0.711  0.1419  0.6629  1.3361
22316SOL     OW72077   3.129   5.568   9.641  0.2482  0.1437 -0.3341
22316SOL    HW172078   3.100   5.487   9.600  0.8572  0.1688 -0.8335
22316SOL    HW272079   3.050   5.620   9.650  0.0800  0.0923 -1.4084
22317SOL     OW72080   4.008   0.777   0.002 -0.4467 -0.9036 -0.0219
22317SOL    HW172081   3.995   0.685  -0.019 -2.1182 -0.6236 -0.2407
22317SOL    HW272082   3.949   0.794   0.075  1.8517 -0.6649  1.8610
22318SOL     OW72083   9.079   4.041   7.691  0.3487 -0.6304  0.2281
22318SOL    HW172084   9.154   4.098   7.675 -0.3828 -0.3912 -2.6278
22318SOL    HW272085   9.027   4.086   7.757  1.6520  0.2069  0.6882
22319SOL     OW72086   1.986   6.313   3.841  0.1549 -0.3913  0.0543
22319SOL    HW172087   2.063   6.269   3.805  1.7675  1.7532  0.7926
22319SOL    HW272088   1.946   6.356   3.765 -0.8540 -2.2672 -0.4907
22320SOL     OW72089   4.283   4.319  10.634  0.1783  0.0475 -0.1966
22320SOL    HW172090   4.298   4.238  10.684 -1.8036  0.0612  0.4894
22320SOL    HW272091   4.278   4.290  10.543  2.4503 -0.1669 -0.2906
22321SOL     OW72092   6.423   4.632   2.448  0.1244 -0.6131 -0.0995
22321SOL    HW172093   6.428   4.547   2.493  0.7071  0.0774  1.1712
22321SOL    HW272094   6.339   4.669   2.476  0.3325 -0.3290  0.1511
22322SOL     OW72095   6.223   6.447  10.942 -0.4874 -0.3163 -0.1469
22322SOL    HW172096   6.206   6.418  11.032 -1.6625  0.3743 -0.1274
22322SOL    HW272097   6.280   6.380  10.905  1.4898  0.2969  1.6701
22323SOL     OW72098   3.994   7.773  10.906  0.1510 -0.2611  0.2425
22323SOL    HW172099   4.009   7.690  10.860  0.8595 -1.0591  1.8567
22323SOL    HW272100   3.907   7.763  10.945  1.5532 -1.6689  3.2337
22324SOL     OW72101   9.794   3.911   4.297 -0.5125 -0.0543  0.2101
22324SOL    HW172102   9.813   3.845   4.364  0.8081  0.1106  0.0144
22324SOL    HW272103   9.698   3.916   4.294 -0.5928  0.2965  2.4492
22325SOL     OW72104   3.686   5.624   7.693 -0.4437 -0.2659  0.6459
22325SOL    HW172105   3.671   5.712   7.658 -0.7057 -0.7044 -0.3659
22325SOL    HW272106   3.705   5.638   7.786 -0.7504  0.8352  0.5501
22326SOL     OW72107   6.460   0.109   3.287  0.0102  0.0330  0.1073
22326SOL    HW172108   6.395   0.073   3.347 -0.6456  0.6272 -0.2216
22326SOL    HW272109   6.447   0.060   3.206  2.1232 -2.0132  0.9722
22327SOL     OW72110   9.422   1.678   1.461 -0.2090  0.3243 -0.7683
22327SOL    HW172111   9.509   1.717   1.447 -0.6233  1.4796 -0.1604
22327SOL    HW272112   9.438   1.583   1.459  1.1606  0.5319 -0.0585
22328SOL     OW72113   7.736   7.968   4.908  0.3055 -0.5914  0.0570
22328SOL    HW172114   7.755   8.055   4.944  0.4734 -1.1447  1.3377
22328SOL    HW272115   7.821   7.925   4.903  0.2901 -0.5097 -1.0690
22329SOL     OW72116   6.676   5.660   2.841  0.0062 -0.9472  0.1612
22329SOL    HW172117   6.734   5.620   2.776 -1.7783  1.2033 -2.8667
22329SOL    HW272118   6.610   5.593   2.860  0.5833 -1.6129 -0.1942
22330SOL     OW72119   7.287   0.842   9.867 -0.0957 -0.1984 -0.2642
22330SOL    HW172120   7.365   0.854   9.813  0.2712 -0.4292  0.2184
22330SOL    HW272121   7.215   0.869   9.810  0.3446  0.1576 -0.6591
22331SOL     OW72122   6.289   4.142   2.180 -0.7431  0.5467 -0.4181
22331SOL    HW172123   6.200   4.157   2.212 -1.0459 -0.8159 -0.5796
22331SOL    HW272124   6.289   4.051   2.151  0.2803  0.9869 -1.8450
22332SOL     OW72125   0.034   4.329   0.777 -0.4356 -0.4370 -0.1756
22332SOL    HW172126   0.122   4.365   0.763 -0.0029 -2.0888 -1.9560
22332SOL    HW272127   0.049   4.241   0.812 -1.4078 -0.4876  0.1356
22333SOL     OW72128   1.991   2.653   7.214  0.1890 -0.2216  0.2440
22333SOL    HW172129   1.932   2.712   7.167  0.8763  0.7705  0.6165
22333SOL    HW272130   2.051   2.711   7.260  1.1706 -1.2232  0.2336
22334SOL     OW72131   2.386   0.345   3.005 -0.5549  0.3216 -0.7376
22334SOL    HW172132   2.334   0.312   3.079 -0.1219 -0.3357 -0.7258
22334SOL    HW272133   2.342   0.310   2.928 -0.4992  0.2966 -0.7575
22335SOL     OW72134   2.356  11.208   6.265  0.2521  0.0715 -0.3143
22335SOL    HW172135   2.308  11.227   6.185 -1.2552 -1.1083  0.2699
22335SOL    HW272136   2.386  11.117   6.254  1.2604  0.3740 -0.1368
22336SOL     OW72137   2.200   0.346   4.350 -0.4823  0.4306  0.0653
22336SOL    HW172138   2.164   0.388   4.428 -0.5823  1.0688 -0.3285
22336SOL    HW272139   2.224   0.418   4.292 -2.1424 -0.0813 -1.2948
22337SOL     OW72140  11.268   6.070   7.418  0.0299  0.1933 -0.6411
22337SOL    HW172141  11.218   6.042   7.495  1.1632  0.6653  0.2898
22337SOL    HW272142  11.298   6.159   7.441  2.3033 -0.5327 -0.6595
22338SOL     OW72143  10.389   7.365   2.532 -0.9082 -0.7348 -0.0660
22338SOL    HW172144  10.373   7.308   2.457 -1.2581 -2.4337  1.2618
22338SOL    HW272145  10.424   7.307   2.599 -1.4767  0.5856  1.4128
22339SOL     OW72146   8.675   0.082   1.494 -0.2061  0.1454  0.2563
22339SOL    HW172147   8.752   0.113   1.448 -1.3145  1.9165 -0.4505
22339SOL    HW272148   8.667  -0.010   1.468  0.0983  0.6868 -1.8186
22340SOL     OW72149   8.329   4.940   8.834  0.2353  0.2121  0.0141
22340SOL    HW172150   8.348   5.034   8.835  0.3047  0.2014 -0.2960
22340SOL    HW272151   8.335   4.915   8.742  3.6801 -0.8174  0.4612
22341SOL     OW72152   7.649   3.789   2.880 -0.4030 -0.1977  0.2016
22341SOL    HW172153   7.556   3.806   2.897 -0.4248  0.2856 -0.3848
22341SOL    HW272154   7.695   3.850   2.937 -0.4642  0.6300 -0.6260
22342SOL     OW72155   1.927   0.544   5.186 -0.2539 -0.1361  0.3206
22342SOL    HW172156   1.859   0.555   5.119  0.5893  1.8459 -0.2205
22342SOL    HW272157   1.893   0.590   5.262  0.1987  0.2883  0.2632
22343SOL     OW72158   8.739   3.695   8.830 -0.4788  0.4787 -0.4483
22343SOL    HW172159   8.794   3.621   8.804  0.1203  0.2133  1.5022
22343SOL    HW272160   8.668   3.695   8.766  1.1083  0.0805 -2.2832
22344SOL     OW72161   0.229  10.707   5.339 -0.2121 -0.1006 -0.1984
22344SOL    HW172162   0.143  10.698   5.378  0.3365 -1.6161  0.7059
22344SOL    HW272163   0.251  10.619   5.308 -0.5853  1.0272 -3.8726
22345SOL     OW72164   2.025   7.797   2.269  0.0601  0.4524  0.1310
22345SOL    HW172165   2.079   7.777   2.346  1.9268  0.2510 -1.1945
22345SOL    HW272166   2.085   7.789   2.195 -2.0879 -1.0223 -1.5250
22346SOL     OW72167   6.178   0.574   0.418  0.3442 -0.3789 -0.8805
22346SOL    HW172168   6.224   0.654   0.394 -1.9027  1.0060 -0.7309
22346SOL    HW272169   6.243   0.505   0.410  2.6956  1.6427  0.2885
22347SOL     OW72170   7.994   6.299   6.854 -1.1511  0.5214 -0.3345
22347SOL    HW172171   8.063   6.299   6.921  0.6798  0.8446 -2.1632
22347SOL    HW272172   8.028   6.243   6.784 -3.2040 -0.1401 -0.8498
22348SOL     OW72173   2.098   8.261   6.008  0.2413  0.0110 -0.1394
22348SOL    HW172174   2.049   8.273   5.926  1.0836  0.4116 -0.5912
22348SOL    HW272175   2.131   8.171   6.003 -0.0008 -0.0830 -0.0750
22349SOL     OW72176  10.077   7.074   8.693 -0.2474 -0.6869 -0.1886
22349SOL    HW172177  10.151   7.031   8.652  0.3339 -0.2354  0.3832
22349SOL    HW272178  10.096   7.070   8.787 -1.5418 -1.6875  0.0617
22350SOL     OW72179   6.661  10.462   8.842  0.0213  0.0763 -0.6344
22350SOL    HW172180   6.685  10.386   8.894 -1.1523 -1.1810 -1.8853
22350SOL    HW272181   6.574  10.487   8.876  0.5960  1.1683  0.0838
22351SOL     OW72182   9.070   3.522   3.951 -0.0498  0.2500 -0.5071
22351SOL    HW172183   9.092   3.486   3.866  1.1186 -0.3954  0.0629
22351SOL    HW272184   9.145   3.500   4.007 -0.7697  0.7309  0.6628
22352SOL     OW72185   5.840   7.599   3.560  0.3213  0.4254 -0.1346
22352SOL    HW172186   5.882   7.683   3.582  1.6886 -0.0153 -0.9722
22352SOL    HW272187   5.852   7.591   3.465 -0.3521 -0.4277 -0.1500
22353SOL     OW72188   1.984  10.052   1.795 -0.2505 -0.0154 -0.3625
22353SOL    HW172189   2.018   9.974   1.839  0.5633  1.1872  1.2022
22353SOL    HW272190   2.051  10.073   1.730 -0.0186 -0.0688 -0.1424
22354SOL     OW72191   2.850   8.069   1.005 -0.1206  0.2081 -0.3206
22354SOL    HW172192   2.778   8.128   1.027  1.0379  2.0748 -1.4340
22354SOL    HW272193   2.909   8.075   1.081 -0.9398 -1.0378  0.4282
22355SOL     OW72194   4.830  11.216   7.109  0.2979  0.2242  0.4464
22355SOL    HW172195   4.786  11.218   7.024  1.0339 -1.4897  0.0125
22355SOL    HW272196   4.914  11.259   7.094 -0.0019  0.8673  0.5739
22356SOL     OW72197   9.927   7.009   2.492 -0.1268  0.3052 -0.2099
22356SOL    HW172198   9.912   6.967   2.407 -0.2269  0.5473 -0.3112
22356SOL    HW272199   9.957   6.938   2.548 -0.6029  0.0320 -0.2993
22357SOL     OW72200   8.664  10.715   2.844 -0.6540  0.0471 -0.0307
22357SOL    HW172201   8.680  10.666   2.764 -0.2117  0.2181 -0.0457
22357SOL    HW272202   8.738  10.775   2.851 -1.0809  0.5649  0.0963
22358SOL     OW72203   7.782   9.346   2.860  0.5956 -0.7798  0.9074
22358SOL    HW172204   7.774   9.258   2.896 -0.0117 -1.3500 -0.6001
22358SOL    HW272205   7.693   9.369   2.834  0.2755  1.2987  3.5706
22359SOL     OW72206   3.252   2.576   1.917 -0.4713 -0.2575 -0.0908
22359SOL    HW172207   3.303   2.496   1.907  0.7636  0.3505  1.1130
22359SOL    HW272208   3.297   2.624   1.987 -1.6973  1.0847 -0.2063
22360SOL     OW72209   5.305   0.141   6.402 -0.6312  0.2774  0.1554
22360SOL    HW172210   5.280   0.116   6.313  0.5945 -0.1490 -0.0854
22360SOL    HW272211   5.305   0.058   6.451  0.4357  0.2437  0.1077
22361SOL     OW72212   8.050   1.882   3.959  0.4639  1.0448  0.4262
22361SOL    HW172213   8.093   1.964   3.935  0.1277  0.8691 -0.8044
22361SOL    HW272214   8.115   1.814   3.936 -0.7903  0.7086 -2.3448
22362SOL     OW72215   9.090  10.060   1.817 -0.2952 -0.4815  0.2978
22362SOL    HW172216   9.139  10.116   1.757 -0.1050  1.3691  2.1096
22362SOL    HW272217   8.999  10.089   1.807 -0.7072 -2.2802 -1.3219
22363SOL     OW72218   9.317   1.462   4.034  0.5599 -0.0556 -0.0707
22363SOL    HW172219   9.374   1.404   4.084  0.6826  1.4204  1.5585
22363SOL    HW272220   9.377   1.519   3.985  0.4969  0.7003  0.7111
22364SOL     OW72221   6.028   2.769   0.783 -0.8848  0.4012  0.4169
22364SOL    HW172222   5.934   2.761   0.798 -1.0263  0.3724 -0.4432
22364SOL    HW272223   6.066   2.773   0.871 -1.6894  0.4579  0.7689
22365SOL     OW72224   4.293   6.571   4.662 -0.4566 -0.2443 -0.2061
22365SOL    HW172225   4.316   6.567   4.754  0.4935  0.7303 -0.3922
22365SOL    HW272226   4.312   6.661   4.636  1.1234 -1.0232 -1.8423
22366SOL     OW72227   1.658   8.081   8.635 -0.4982  0.5331  1.2045
22366SOL    HW172228   1.751   8.066   8.653 -0.1963  0.1628 -0.6066
22366SOL    HW272229   1.639   8.165   8.676  0.8135  0.9554  0.9523
22367SOL     OW72230   7.201   0.777   2.425 -0.4662 -0.2417 -0.4947
22367SOL    HW172231   7.201   0.822   2.509 -1.5228  0.2590 -0.7497
22367SOL    HW272232   7.250   0.697   2.440  1.8707  1.2107 -0.1511
22368SOL     OW72233   5.329   6.013   4.556  0.2170 -0.0347  0.4394
22368SOL    HW172234   5.308   5.934   4.605  0.8566 -0.2605  0.3477
22368SOL    HW272235   5.424   6.021   4.562  0.4122 -0.5990 -1.5865
22369SOL     OW72236   1.700   5.983   9.099 -0.3565 -0.1676  0.1623
22369SOL    HW172237   1.636   6.043   9.060  0.0398 -0.8873 -1.6701
22369SOL    HW272238   1.650   5.934   9.165 -1.8848 -1.1206 -1.6491
22370SOL     OW72239   8.038   7.559   1.111  0.1510  0.2255  0.0355
22370SOL    HW172240   8.095   7.549   1.187 -0.2032  4.1569  0.9467
22370SOL    HW272241   7.968   7.496   1.125  0.6010  0.2220  2.5030
22371SOL     OW72242   1.077   1.000   5.399  0.0711 -0.0234  0.1558
22371SOL    HW172243   0.987   1.001   5.431 -0.7580  2.1714 -2.1624
22371SOL    HW272244   1.115   1.081   5.432  1.0022 -0.6015  0.5269
22372SOL     OW72245   2.618   0.816   9.387  0.0629 -0.7111 -0.4807
22372SOL    HW172246   2.654   0.893   9.343 -0.5470  0.4315  0.9711
22372SOL    HW272247   2.694   0.767   9.417  0.4720 -1.1661 -2.2150
22373SOL     OW72248   1.369   1.749   1.938 -0.3660 -0.4561 -0.4324
22373SOL    HW172249   1.387   1.815   1.872  0.4588 -0.8667 -0.6294
22373SOL    HW272250   1.412   1.780   2.017  0.6601 -1.1081 -0.7225
22374SOL     OW72251   1.263   5.126   7.647  0.5496  0.3421 -0.0210
22374SOL    HW172252   1.300   5.085   7.724 -0.0326  0.2493  0.2118
22374SOL    HW272253   1.221   5.206   7.680 -2.2677 -1.1596  0.2416
22375SOL     OW72254   1.441   3.011   2.412  0.5384  0.0321  0.7766
22375SOL    HW172255   1.525   2.966   2.423  1.3866  0.5914 -2.7722
22375SOL    HW272256   1.379   2.942   2.388  0.6390  0.0204  0.5525
22376SOL     OW72257   5.418  10.384   8.733 -0.2597  0.2440 -0.0175
22376SOL    HW172258   5.422  10.411   8.825 -0.6486 -1.4298  0.5251
22376SOL    HW272259   5.509  10.375   8.706 -0.1470 -0.1007  0.4726
22377SOL     OW72260   3.366   6.646  10.959  0.0112  0.1156  0.3533
22377SOL    HW172261   3.343   6.729  11.001 -0.0647 -0.5978  1.7666
22377SOL    HW272262   3.294   6.587  10.982  0.1699 -0.4075 -0.4550
22378SOL     OW72263  10.940   1.379  10.581 -0.1490  0.2074  0.0111
22378SOL    HW172264  11.012   1.409  10.525  0.0105  1.5697  0.9201
22378SOL    HW272265  10.981   1.364  10.666 -1.0911  1.8190  0.7554
22379SOL     OW72266   0.300   9.001   9.229 -0.5534  0.4953 -0.3797
22379SOL    HW172267   0.218   8.954   9.220 -0.2968  0.4240 -2.6033
22379SOL    HW272268   0.342   8.962   9.305 -2.9845  1.1948  1.4015
22380SOL     OW72269   2.256   0.348   5.018  0.3783  0.5874 -0.1440
22380SOL    HW172270   2.194   0.417   4.996  0.2556 -0.6594 -4.1161
22380SOL    HW272271   2.339   0.395   5.031 -0.4175  1.8110  0.6018
22381SOL     OW72272   1.223   6.349   3.847 -0.3576 -0.0653  0.3838
22381SOL    HW172273   1.151   6.370   3.787 -0.1986  1.2877  0.6390
22381SOL    HW272274   1.194   6.271   3.893 -0.5346 -1.0608 -1.3750
22382SOL     OW72275   3.358   3.259   2.520  0.1891 -0.1294 -0.1830
22382SOL    HW172276   3.294   3.205   2.472 -0.1646  0.2933 -0.1862
22382SOL    HW272277   3.394   3.318   2.454  0.0027  0.1726 -0.0161
22383SOL     OW72278   3.932   3.145   5.989  0.1312  0.6568  0.0913
22383SOL    HW172279   3.878   3.093   6.050 -0.1797  0.6287 -0.2097
22383SOL    HW272280   3.944   3.229   6.034  2.0084 -0.2313  1.3244
22384SOL     OW72281   3.826   2.708   6.033  0.0904 -0.2156  0.9314
22384SOL    HW172282   3.899   2.727   6.092  0.4262  0.5370  0.2857
22384SOL    HW272283   3.854   2.632   5.983  0.1630 -0.3210  1.1301
22385SOL     OW72284  10.417   6.453   4.643  0.2998  0.6411  0.7741
22385SOL    HW172285  10.484   6.408   4.591 -0.2909 -0.0571  0.6232
22385SOL    HW272286  10.360   6.384   4.676  0.7663  1.0568  2.5202
22386SOL     OW72287   5.314   6.737   3.049  0.0362 -0.0426 -0.5535
22386SOL    HW172288   5.382   6.785   3.001  0.1662 -0.5209 -0.8472
22386SOL    HW272289   5.358   6.704   3.127 -0.7203  2.6927  1.0935
22387SOL     OW72290  10.002   4.642  10.932  0.4738 -0.1139 -0.0112
22387SOL    HW172291  10.021   4.703  11.004 -2.9040  1.7222 -0.5519
22387SOL    HW272292   9.972   4.562  10.976 -2.1242  1.1936  0.7021
22388SOL     OW72293   8.034   7.561   2.533 -0.3757  0.1338 -0.2519
22388SOL    HW172294   8.071   7.649   2.542 -0.4439 -0.0348  1.8915
22388SOL    HW272295   7.950   7.566   2.579 -0.7822 -0.8191 -0.8799
22389SOL     OW72296   1.169   3.062   0.210  0.1416 -0.3232  0.0683
22389SOL    HW172297   1.121   3.008   0.147 -0.0335 -0.6363  0.4682
22389SOL    HW272298   1.102   3.091   0.272  0.7737 -2.4499  1.8203
22390SOL     OW72299   7.842   2.157   8.373  0.1560  0.1737  0.0030
22390SOL    HW172300   7.844   2.238   8.423  1.7436 -0.5758  1.2069
22390SOL    HW272301   7.867   2.182   8.284  0.9527  0.9425  0.4434
22391SOL     OW72302   0.426   2.371  10.916  0.3520  0.2192 -0.4201
22391SOL    HW172303   0.446   2.281  10.941  1.8553  0.2467 -1.4886
22391SOL    HW272304   0.337   2.367  10.883 -0.3213 -0.4988  1.3978
22392SOL     OW72305   1.488   7.212   1.154 -0.0066  0.1526  0.3469
22392SOL    HW172306   1.415   7.194   1.094 -0.7294  0.9701  0.9673
22392SOL    HW272307   1.517   7.126   1.184  0.4372 -0.2739 -1.2668
22393SOL     OW72308   1.412   7.676   6.147  0.3078  0.2327 -0.4136
22393SOL    HW172309   1.413   7.671   6.242  0.8511  0.6137 -0.3955
22393SOL    HW272310   1.393   7.587   6.118 -1.5782  0.4536  0.0745
22394SOL     OW72311   1.395   1.102   7.166  0.1714 -0.0335  0.5447
22394SOL    HW172312   1.372   1.179   7.218 -0.5718  0.2820 -0.2251
22394SOL    HW272313   1.405   1.136   7.077  1.2513 -0.5918  0.4429
22395SOL     OW72314   9.102   9.847   8.159 -0.4979 -0.0712 -0.0354
22395SOL    HW172315   9.123   9.938   8.180 -0.6648  0.1776 -0.9673
22395SOL    HW272316   9.026   9.852   8.102 -0.7949 -0.8191  0.2816
22396SOL     OW72317   8.494   8.893   2.633  0.0376 -0.2433  0.0031
22396SOL    HW172318   8.402   8.866   2.630 -0.0297  0.1738 -1.9239
22396SOL    HW272319   8.517   8.888   2.726 -1.3221 -2.3503  0.2607
22397SOL     OW72320   4.604   0.503   9.152  0.0083 -0.5693  0.4317
22397SOL    HW172321   4.668   0.456   9.205  0.3233 -0.1944  0.3891
22397SOL    HW272322   4.626   0.481   9.062  2.2716  2.2557  0.2118
22398SOL     OW72323   4.731   4.760  10.851 -0.4247  0.5744 -0.3987
22398SOL    HW172324   4.692   4.744  10.937  0.5414 -1.0100 -0.2462
22398SOL    HW272325   4.740   4.855  10.846  2.8924  0.5223  2.7735
22399SOL     OW72326   0.501   7.409   3.113 -0.4344  0.3261 -0.0915
22399SOL    HW172327   0.565   7.350   3.154 -0.4959 -1.2205 -2.1395
22399SOL    HW272328   0.525   7.496   3.145  2.2531 -0.3240 -0.2203
22400SOL     OW72329   1.514   5.299   9.452 -0.3037  0.1992 -0.2128
22400SOL    HW172330   1.492   5.375   9.506 -2.7865 -0.2135 -0.5857
22400SOL    HW272331   1.474   5.225   9.498 -0.9200 -0.3970 -1.6860
22401SOL     OW72332   5.775  10.363  11.086  0.5093 -0.2673  0.1618
22401SOL    HW172333   5.855  10.311  11.081  0.2892 -0.6238  0.3640
22401SOL    HW272334   5.791  10.426  11.156 -0.3052 -1.9211  1.9090
22402SOL     OW72335  10.955  10.716   7.028  0.4804  0.5105 -0.4532
22402SOL    HW172336  11.017  10.788   7.017  1.3544 -0.1102  0.3792
22402SOL    HW272337  10.949  10.677   6.941  0.8453  0.9069 -0.6586
22403SOL     OW72338   0.932   8.721   9.537  0.2352  0.2176 -0.2028
22403SOL    HW172339   0.890   8.798   9.574  0.4414  0.1930  0.0954
22403SOL    HW272340   0.890   8.707   9.452 -0.7477 -0.1415  0.3306
22404SOL     OW72341   2.991  11.243  10.639 -1.0777 -0.0706  0.2142
22404SOL    HW172342   3.070  11.284  10.674 -0.0424 -1.1938 -0.7739
22404SOL    HW272343   2.945  11.315  10.595 -0.2445  0.4481  0.1729
22405SOL     OW72344   2.475   7.207   7.897  0.1271 -0.1756  0.0215
22405SOL    HW172345   2.471   7.293   7.855 -0.3126 -0.5520 -0.7099
22405SOL    HW272346   2.387   7.171   7.885 -0.1466 -0.1196  1.6252
22406SOL     OW72347   0.461   4.997  11.139  0.2435 -0.1041 -0.8234
22406SOL    HW172348   0.508   5.058  11.082  1.2427 -0.9613 -0.9462
22406SOL    HW272349   0.479   4.911  11.100  1.7787 -0.7964  1.3434
22407SOL     OW72350   0.832  10.641   0.953 -0.1165 -0.3453 -0.1697
22407SOL    HW172351   0.838  10.731   0.919 -1.6403 -0.3125 -0.3562
22407SOL    HW272352   0.868  10.587   0.882  0.0018  0.0405 -0.4107
22408SOL     OW72353   1.337   1.386  10.725  0.2709  0.1351 -0.2244
22408SOL    HW172354   1.391   1.308  10.712  1.5695  0.8080  0.9796
22408SOL    HW272355   1.399   1.459  10.724 -0.4121  0.8178  2.3639
22409SOL     OW72356  10.457  11.033  10.491 -0.2144  0.1278 -0.3399
22409SOL    HW172357  10.517  11.066  10.557 -2.0785  0.6750  1.1390
22409SOL    HW272358  10.423  11.112  10.448  0.0842 -0.1703 -1.1261
22410SOL     OW72359   6.850   6.246   7.131  0.2083  0.8790  0.6454
22410SOL    HW172360   6.881   6.229   7.220 -2.4257  0.1692  1.4837
22410SOL    HW272361   6.760   6.275   7.143 -0.0394  1.1861 -1.7828
22411SOL     OW72362  10.415   0.693   9.013 -0.4394 -0.7318  0.5492
22411SOL    HW172363  10.349   0.679   9.082 -1.1216 -0.1624  0.0245
22411SOL    HW272364  10.468   0.765   9.046 -0.1499 -1.1105  0.9204
22412SOL     OW72365   8.451   7.584   0.974 -0.0815 -0.0175 -0.2896
22412SOL    HW172366   8.382   7.558   0.913 -0.4913 -2.7298  1.2756
22412SOL    HW272367   8.414   7.658   1.022 -1.0206 -0.0161 -0.9862
22413SOL     OW72368   5.691   6.355   0.948 -0.5728  0.6389 -0.0923
22413SOL    HW172369   5.701   6.267   0.984  0.6063  0.9066  0.2492
22413SOL    HW272370   5.688   6.412   1.025 -0.8710  0.9485 -0.3293
22414SOL     OW72371   6.533   1.202   0.474  0.0669  0.0029 -0.6335
22414SOL    HW172372   6.564   1.293   0.470 -0.5778  0.2112 -0.9874
22414SOL    HW272373   6.458   1.205   0.533  0.2993 -0.3745 -0.3208
22415SOL     OW72374  10.472   3.243  10.359 -0.3447 -0.3280 -0.1435
22415SOL    HW172375  10.488   3.233  10.453 -0.3722  0.1272 -0.0873
22415SOL    HW272376  10.413   3.171  10.337  0.2725 -0.8890  0.0286
22416SOL     OW72377   2.854  10.917   2.113 -0.5085 -0.1887  0.1627
22416SOL    HW172378   2.918  10.895   2.046 -0.5836  2.5214 -0.8635
22416SOL    HW272379   2.836  10.835   2.158  1.3766 -1.5614 -1.5490
22417SOL     OW72380   2.150   8.638   8.771 -0.2026  0.2176 -0.3819
22417SOL    HW172381   2.147   8.544   8.790 -1.6079  0.6165  1.4777
22417SOL    HW272382   2.239   8.664   8.791  0.6586 -1.0002 -2.4340
22418SOL     OW72383   9.959   5.819   7.658 -0.0539 -0.3557  0.2338
22418SOL    HW172384  10.052   5.837   7.673  0.2536 -2.8172  1.4610
22418SOL    HW272385   9.957   5.774   7.573 -0.3497  1.2802 -0.6549
22419SOL     OW72386   0.180   8.336   4.777  0.0413  0.4754 -0.2808
22419SOL    HW172387   0.191   8.293   4.692  1.5758 -0.0527  0.1625
22419SOL    HW272388   0.104   8.393   4.766 -0.4633 -0.4438 -1.6611
22420SOL     OW72389   3.954   7.194   8.911  0.5827 -0.4647 -0.3164
22420SOL    HW172390   3.904   7.185   8.992  1.8746 -0.2939  0.5150
22420SOL    HW272391   4.026   7.252   8.933  1.3985 -1.0436 -1.3872
22421SOL     OW72392   9.861   2.111   0.073 -0.7013  0.2666 -0.3349
22421SOL    HW172393   9.778   2.135   0.032  0.0150  0.9296 -1.4095
22421SOL    HW272394   9.835   2.060   0.150 -2.0998  0.3959 -0.6993
22422SOL     OW72395   0.957   9.376   6.304 -0.1892  0.4691 -0.3946
22422SOL    HW172396   0.929   9.303   6.358  0.3779 -0.1671 -0.9426
22422SOL    HW272397   0.928   9.353   6.215  1.6753 -0.0369 -0.9116
22423SOL     OW72398   2.124   1.859   9.191  0.1459  0.2261  0.3796
22423SOL    HW172399   2.153   1.884   9.103  0.6985 -0.9374  0.2275
22423SOL    HW272400   2.070   1.933   9.219 -2.5272 -0.6552 -2.1355
22424SOL     OW72401   0.846   0.771   1.587  0.3757 -0.3676  0.0936
22424SOL    HW172402   0.926   0.790   1.636 -0.0618  0.2309  0.5842
22424SOL    HW272403   0.870   0.699   1.529  1.6861  0.7948 -0.8399
22425SOL     OW72404   8.566   5.768   8.856 -0.6059 -0.0574  0.2304
22425SOL    HW172405   8.531   5.811   8.934  2.2107  3.3011 -0.2426
22425SOL    HW272406   8.623   5.700   8.891  0.6930  1.4651  1.1354
22426SOL     OW72407   5.187   2.474   4.291  0.0693  0.3489  0.4376
22426SOL    HW172408   5.139   2.499   4.211  0.9717 -0.7173 -0.4514
22426SOL    HW272409   5.130   2.503   4.362 -1.0576  0.7484 -0.5883
22427SOL     OW72410   1.387  10.786   4.747 -0.1014  0.4282  0.5650
22427SOL    HW172411   1.357  10.823   4.664  1.3494  0.7383  0.1701
22427SOL    HW272412   1.450  10.850   4.780  0.4739 -0.4360  1.1626
22428SOL     OW72413   5.792   4.073   3.127  0.7144 -0.7381  0.5200
22428SOL    HW172414   5.833   3.998   3.084  1.4236 -0.8747  1.4237
22428SOL    HW272415   5.754   4.037   3.207 -0.1620 -0.3929  0.2655
22429SOL     OW72416   4.396   5.735   9.444  0.0408  0.1386  0.4122
22429SOL    HW172417   4.456   5.697   9.509 -0.5013 -2.4768 -0.5597
22429SOL    HW272418   4.449   5.742   9.364  0.6816  3.2704  1.0098
22430SOL     OW72419   2.553   4.150   9.526  0.2021  0.1553  0.2660
22430SOL    HW172420   2.491   4.208   9.483 -1.4324 -1.3646  0.5426
22430SOL    HW272421   2.501   4.077   9.558  1.8565 -0.3099  2.0630
22431SOL     OW72422   3.446   0.238   5.038  0.4740 -0.2460 -0.0930
22431SOL    HW172423   3.506   0.313   5.039 -0.3715  0.4244  1.3981
22431SOL    HW272424   3.362   0.273   5.065 -0.1431 -1.5679 -0.2312
22432SOL     OW72425   2.082   9.197   3.821  0.0881  0.0007 -0.2378
22432SOL    HW172426   2.160   9.214   3.873 -0.5105 -1.3358  1.1317
22432SOL    HW272427   2.009   9.209   3.882 -0.7102  0.1254 -1.2051
22433SOL     OW72428   0.241   5.155   9.745 -0.1887 -0.1410 -0.1145
22433SOL    HW172429   0.147   5.144   9.759 -0.5004  0.0844 -1.9004
22433SOL    HW272430   0.282   5.094   9.807 -1.3951  1.8066  2.6933
22434SOL     OW72431   5.384   7.686   1.699  0.2133 -0.1865  0.2720
22434SOL    HW172432   5.373   7.629   1.623 -0.5318  0.9832 -0.5066
22434SOL    HW272433   5.326   7.760   1.683  1.7634  1.1962  0.8774
22435SOL     OW72434   6.071   4.766   6.694 -0.0613 -0.6640  0.5425
22435SOL    HW172435   6.045   4.853   6.724 -0.8996 -0.9059  0.5413
22435SOL    HW272436   6.154   4.780   6.649 -1.1013  0.4548 -1.0986
22436SOL     OW72437   1.373   5.975   5.563 -0.9430 -0.3198 -0.5034
22436SOL    HW172438   1.438   6.032   5.603 -1.3873  0.6973 -1.2144
22436SOL    HW272439   1.392   5.888   5.599  0.7773 -0.0383 -0.6652
22437SOL     OW72440  11.004   1.234   9.981  0.2322  0.2215  0.5709
22437SOL    HW172441  11.053   1.193   9.910 -1.9518 -0.2515 -0.6905
22437SOL    HW272442  10.969   1.315   9.943 -1.1518 -0.1519  0.9995
22438SOL     OW72443   1.805   4.635   8.102 -0.0466  0.5254 -0.3172
22438SOL    HW172444   1.719   4.643   8.143 -0.7755 -0.9476 -1.5270
22438SOL    HW272445   1.834   4.547   8.124  0.9269  0.8193 -0.3766
22439SOL     OW72446   0.108   5.442   7.344 -0.1020 -0.1527 -0.0609
22439SOL    HW172447   0.153   5.507   7.291 -1.1470  3.1932  2.9328
22439SOL    HW272448   0.073   5.379   7.280  0.2237  2.6656 -3.1675
22440SOL     OW72449  10.530   7.555   5.333 -0.5695  0.0284  0.5346
22440SOL    HW172450  10.566   7.467   5.322 -0.2378  0.1333  0.7471
22440SOL    HW272451  10.459   7.561   5.269  0.2110  0.0375 -0.3427
22441SOL     OW72452   7.353   4.249   8.350 -0.3532  0.2670  0.0424
22441SOL    HW172453   7.279   4.202   8.388  0.3338  0.4519  1.6444
22441SOL    HW272454   7.426   4.187   8.352 -0.1576  0.4781 -0.4262
22442SOL     OW72455   1.756   7.764  10.758  0.2736  0.6058 -0.0430
22442SOL    HW172456   1.671   7.785  10.797  0.0258 -0.9430  0.2642
22442SOL    HW272457   1.770   7.671  10.778  0.9504  0.2358 -2.0899
22443SOL     OW72458   2.404   1.633   4.656 -0.2831 -0.1028  0.4782
22443SOL    HW172459   2.389   1.606   4.747 -4.4749  0.4986  0.0320
22443SOL    HW272460   2.416   1.552   4.608 -0.6179 -0.5438  1.1344
22444SOL     OW72461   7.799   2.756   7.880 -0.5347 -0.5859 -0.0855
22444SOL    HW172462   7.828   2.678   7.834  0.3574 -2.2921  3.2144
22444SOL    HW272463   7.786   2.727   7.970 -1.0894  2.8779  1.0176
22445SOL     OW72464   3.496   4.216   7.865 -0.6668  0.1910 -0.3767
22445SOL    HW172465   3.538   4.172   7.791 -2.4484  1.8541 -2.4301
22445SOL    HW272466   3.421   4.161   7.887 -1.4854  0.9098 -1.3485
22446SOL     OW72467   4.926   0.200   4.155 -0.3942 -0.0989 -0.8010
22446SOL    HW172468   5.000   0.249   4.121 -0.0551 -1.0020 -1.3631
22446SOL    HW272469   4.863   0.268   4.181  1.4670  0.7693  1.7161
22447SOL     OW72470   7.594   1.264   3.246 -0.0620 -0.1730  0.0611
22447SOL    HW172471   7.689   1.272   3.243  0.0020 -1.1215 -0.5295
22447SOL    HW272472   7.578   1.171   3.259 -0.9060  0.0902  1.0173
22448SOL     OW72473   8.764   1.652   2.352  0.0361 -0.2021  0.4835
22448SOL    HW172474   8.744   1.624   2.262  0.0444 -1.2627  0.8062
22448SOL    HW272475   8.713   1.732   2.364  0.0582 -0.0336 -0.4779
22449SOL     OW72476   0.561   5.669   0.153  0.3999  0.3479  0.1628
22449SOL    HW172477   0.503   5.715   0.214  1.6634  1.8127  0.3051
22449SOL    HW272478   0.552   5.717   0.071  2.6025  1.6084  0.6205
22450SOL     OW72479  10.850   7.751   8.796  0.2476 -0.6045  0.2137
22450SOL    HW172480  10.781   7.701   8.838  0.9913 -1.8457 -0.0301
22450SOL    HW272481  10.856   7.715   8.708 -0.0709  0.7722 -0.3908
22451SOL     OW72482   0.906   0.316   1.467 -0.1862 -0.3120  0.2729
22451SOL    HW172483   0.947   0.380   1.409  0.7559  0.2661  1.5439
22451SOL    HW272484   0.879   0.245   1.409 -0.2386  0.7185 -1.0128
22452SOL     OW72485   3.995   5.082   0.845  0.0445  0.3051 -0.1811
22452SOL    HW172486   4.020   5.149   0.908 -1.5047  1.9422 -1.2763
22452SOL    HW272487   4.077   5.037   0.825  0.8240  0.7911  1.7848
22453SOL     OW72488  10.375   2.805   1.052  0.0154 -0.1425  0.2214
22453SOL    HW172489  10.382   2.900   1.060 -1.8442 -0.0044  0.4787
22453SOL    HW272490  10.313   2.780   1.121 -2.0960 -1.1407 -1.9721
22454SOL     OW72491   3.729   8.338   3.259  0.5697 -0.5211 -0.2464
22454SOL    HW172492   3.821   8.345   3.236  1.2213 -1.4204  1.9949
22454SOL    HW272493   3.705   8.426   3.288  0.6363 -0.2275 -1.0614
22455SOL     OW72494   9.346   1.222   1.677 -0.4906  0.2231  0.0748
22455SOL    HW172495   9.386   1.138   1.701 -0.1446  0.4971  0.4589
22455SOL    HW272496   9.265   1.198   1.632 -0.0474 -0.3295 -0.4315
22456SOL     OW72497   3.206  11.295   4.787  0.0845 -0.3306 -0.0793
22456SOL    HW172498   3.301  11.309   4.778 -0.1622  1.4291 -0.2403
22456SOL    HW272499   3.181  11.351   4.860 -0.8701 -0.6609 -0.1482
22457SOL     OW72500  10.540   6.595   5.349  0.4022 -0.1345  0.0626
22457SOL    HW172501  10.486   6.662   5.307  0.7530 -0.4078 -0.8384
22457SOL    HW272502  10.579   6.639   5.424  0.9456  0.7993 -0.7483
22458SOL     OW72503   7.403   4.826   6.034  0.1437 -0.1207  0.0016
22458SOL    HW172504   7.412   4.731   6.029  1.6852  0.1097 -1.9435
22458SOL    HW272505   7.482   4.855   6.080  0.0858  0.3058 -0.1673
22459SOL     OW72506  11.187   1.212   1.556  0.2852  0.0846  0.2923
22459SOL    HW172507  11.256   1.270   1.589 -0.9316  1.6808  0.0780
22459SOL    HW272508  11.152   1.169   1.634  0.7181  0.1646  0.5314
22460SOL     OW72509   4.652   0.612   1.816 -0.4470 -0.1361 -0.0175
22460SOL    HW172510   4.646   0.520   1.842  0.9432  0.1531  1.4331
22460SOL    HW272511   4.611   0.615   1.730 -1.5463 -1.8994  0.4053
22461SOL     OW72512   4.189   2.548  11.242  0.6239  0.3209 -0.1334
22461SOL    HW172513   4.156   2.505  11.164 -0.6827  0.5978  0.2646
22461SOL    HW272514   4.208   2.638  11.214  1.8632 -0.0564 -0.5663
22462SOL     OW72515   2.256   2.672   8.608 -0.4610 -0.2464  0.2798
22462SOL    HW172516   2.328   2.708   8.558 -0.8308  0.4541  0.2468
22462SOL    HW272517   2.261   2.577   8.594  1.6450 -0.3973  1.8629
22463SOL     OW72518  10.557   8.247   6.444  0.2952  0.0761 -0.1348
22463SOL    HW172519  10.514   8.260   6.529  0.8949 -0.5934  0.2759
22463SOL    HW272520  10.591   8.334   6.422 -1.0306  0.5531 -0.3444
22464SOL     OW72521   6.201   1.318   2.770 -0.0740 -0.1256 -0.4501
22464SOL    HW172522   6.122   1.302   2.822 -0.0360  1.2137  0.0369
22464SOL    HW272523   6.263   1.250   2.799 -0.8039 -0.7529 -0.3431
22465SOL     OW72524   3.757   8.483   2.513  0.2345 -0.0564 -0.1845
22465SOL    HW172525   3.813   8.484   2.436  1.3295  0.9609  0.6131
22465SOL    HW272526   3.780   8.563   2.561  0.3194 -1.1902  1.7308
22466SOL     OW72527   1.617   4.183   6.242 -0.1766  0.0501  0.5050
22466SOL    HW172528   1.628   4.098   6.285  1.6260  0.9725  1.9306
22466SOL    HW272529   1.607   4.162   6.149 -0.4749 -1.7636  0.9309
22467SOL     OW72530   0.633   3.410   8.597  0.1173 -0.3061  0.0551
22467SOL    HW172531   0.650   3.439   8.507  0.7201 -1.3354 -0.1783
22467SOL    HW272532   0.713   3.432   8.645  0.4836 -1.2951 -0.0691
22468SOL     OW72533   1.750  10.819   6.866  0.3934  0.3156 -0.1404
22468SOL    HW172534   1.782  10.903   6.833 -0.3747 -0.3373 -2.6290
22468SOL    HW272535   1.804  10.754   6.823  0.4018 -0.5351  1.1187
22469SOL     OW72536   7.899   8.319   7.786 -0.1716 -0.2478 -1.0092
22469SOL    HW172537   7.919   8.238   7.832  0.8700  1.2911  1.3529
22469SOL    HW272538   7.980   8.343   7.741  0.1793  0.5330  0.0046
22470SOL     OW72539   1.417   0.849  10.480 -0.2114  0.2784 -0.1445
22470SOL    HW172540   1.426   0.944  10.470 -0.5970  0.3980  0.6071
22470SOL    HW272541   1.488   0.813  10.426  1.5026  1.0728  1.4923
22471SOL     OW72542   1.313   9.184   5.686  0.2251 -0.5849 -0.4097
22471SOL    HW172543   1.373   9.122   5.644 -0.3331 -1.2935 -0.1677
22471SOL    HW272544   1.255   9.212   5.615  1.9348  1.4806 -1.0648
22472SOL     OW72545   4.726   7.622   9.245 -0.3488 -0.3159 -0.4168
22472SOL    HW172546   4.706   7.540   9.291  1.9292 -0.7442 -0.1267
22472SOL    HW272547   4.660   7.627   9.176 -2.6136 -0.6575  1.6596
22473SOL     OW72548   4.130   9.092   6.818  0.2947 -0.1299 -0.1971
22473SOL    HW172549   4.145   9.002   6.844 -2.0650 -0.6681 -0.5188
22473SOL    HW272550   4.119   9.088   6.723 -2.2002  0.0633  0.0284
22474SOL     OW72551   2.059   1.376   4.051  0.8957  0.0792 -0.5915
22474SOL    HW172552   2.149   1.382   4.084  0.4605  0.2646  0.5638
22474SOL    HW272553   2.056   1.438   3.978  1.4898  0.6340 -0.1471
22475SOL     OW72554  11.133  10.762   6.501  0.5206 -0.6819 -0.0416
22475SOL    HW172555  11.117  10.856   6.490  0.2522 -0.7730 -0.4658
22475SOL    HW272556  11.228  10.753   6.501  0.5396 -0.4662 -0.4927
22476SOL     OW72557   5.405   4.466   7.965  0.3778 -0.2264  0.1890
22476SOL    HW172558   5.347   4.522   8.017 -1.6391 -1.3923 -0.7381
22476SOL    HW272559   5.437   4.524   7.896 -0.9363  0.0649 -0.1989
22477SOL     OW72560   8.461   4.130  10.589 -0.5058  0.3553 -0.0837
22477SOL    HW172561   8.511   4.212  10.590  1.6353 -0.9027  0.2474
22477SOL    HW272562   8.443   4.114  10.496  1.6327 -0.2589 -0.4213
22478SOL     OW72563   0.420   5.326  10.276  0.4263 -0.1682  0.3743
22478SOL    HW172564   0.452   5.257  10.334  0.1730 -1.0027 -0.4625
22478SOL    HW272565   0.326   5.331  10.294 -0.2050 -2.4250 -1.9575
22479SOL     OW72566   2.991   5.530   4.959 -0.5299 -1.3301  0.1727
22479SOL    HW172567   2.914   5.479   4.933  0.2788 -0.9660 -3.0811
22479SOL    HW272568   3.059   5.504   4.897  1.2866  0.1760  1.4752
22480SOL     OW72569  10.782   0.182   0.102  0.1322  0.1231 -0.1696
22480SOL    HW172570  10.860   0.236   0.091 -0.6233  1.1198 -0.6901
22480SOL    HW272571  10.714   0.243   0.131 -0.2494 -0.8806  1.0913
22481SOL     OW72572   0.864   3.486   7.960  0.1792  0.3208  0.1316
22481SOL    HW172573   0.894   3.499   7.870  0.9489 -0.2093  0.3153
22481SOL    HW272574   0.941   3.455   8.008 -0.8414 -1.8553  0.4204
22482SOL     OW72575   4.640  10.310   1.866  0.0791 -0.0287  0.0368
22482SOL    HW172576   4.680  10.256   1.799 -0.8734 -0.2309 -0.3756
22482SOL    HW272577   4.622  10.249   1.938 -0.5056 -0.1520 -0.2167
22483SOL     OW72578   3.621   2.733   6.629 -0.7255 -0.4455  0.4687
22483SOL    HW172579   3.566   2.774   6.562  0.6123  0.8964  0.1744
22483SOL    HW272580   3.562   2.719   6.703 -1.4759  0.9758  0.1563
22484SOL     OW72581   3.249   8.669   9.815 -0.3370  0.3009 -0.1437
22484SOL    HW172582   3.285   8.740   9.762  2.6907  1.4618  3.2283
22484SOL    HW272583   3.270   8.589   9.767  1.0719  1.3832 -1.3515
22485SOL     OW72584   4.588  11.310   5.977  0.2372 -0.1230 -0.2044
22485SOL    HW172585   4.672  11.285   5.939  0.0213 -0.1045 -0.6927
22485SOL    HW272586   4.525  11.296   5.907 -0.2763 -0.8596  0.4051
22486SOL     OW72587   6.036  11.074   5.278  0.0135  0.0133  0.2965
22486SOL    HW172588   6.036  11.054   5.184 -1.3364  1.3918 -0.0161
22486SOL    HW272589   6.012  10.991   5.319  3.2475 -1.3421 -0.3545
22487SOL     OW72590   3.015   5.638   5.203 -0.0969 -0.8098  0.2993
22487SOL    HW172591   3.025   5.566   5.141  1.4150 -2.6660  2.6070
22487SOL    HW272592   3.026   5.598   5.289 -0.2214  2.0155  1.7098
22488SOL     OW72593   5.475   9.759   4.669 -0.5619  0.1915  0.5202
22488SOL    HW172594   5.539   9.782   4.737 -2.0370  0.2998  1.9167
22488SOL    HW272595   5.416   9.698   4.713 -0.7015 -0.8828 -1.1204
22489SOL     OW72596   4.906   5.200   7.488 -0.1389 -0.1757  0.6123
22489SOL    HW172597   4.894   5.149   7.568  0.3993 -0.9632  0.1895
22489SOL    HW272598   4.995   5.233   7.493 -0.0996 -0.2335  0.3315
22490SOL     OW72599   8.800   2.450   0.766 -0.9920 -0.1268  0.6264
22490SOL    HW172600   8.779   2.401   0.846 -1.0712 -2.5421 -0.8125
22490SOL    HW272601   8.868   2.397   0.723 -1.3897  0.7965 -1.1944
22491SOL     OW72602   1.741   4.412   6.073 -0.3998 -0.4594 -0.2855
22491SOL    HW172603   1.648   4.394   6.055 -0.4429 -0.1966 -0.3320
22491SOL    HW272604   1.740   4.488   6.130 -0.1874 -0.0158 -0.8711
22492SOL     OW72605   5.593   0.413   8.962 -0.0976  0.2851 -0.0870
22492SOL    HW172606   5.640   0.359   9.026  0.4498  0.5725 -0.2443
22492SOL    HW272607   5.654   0.484   8.941 -0.9621  1.2081  0.4318
22493SOL     OW72608   5.077  10.921   2.714  0.3625  0.1377  0.6151
22493SOL    HW172609   5.163  10.890   2.685 -0.4616 -2.7336  1.1034
22493SOL    HW272610   5.039  10.847   2.762 -2.4425  1.3073  0.3118
22494SOL     OW72611  11.314   1.902  10.304 -0.1592 -0.9248 -0.2616
22494SOL    HW172612  11.308   1.916  10.209 -1.7218 -1.2502 -0.2260
22494SOL    HW272613  11.246   1.838  10.323  1.2253 -2.0838  0.8568
22495SOL     OW72614   0.170   5.300   2.620  0.5326 -0.0987  0.2461
22495SOL    HW172615   0.198   5.282   2.530  1.1491  0.2955  0.3520
22495SOL    HW272616   0.195   5.222   2.669 -1.5233 -1.1156 -0.2723
22496SOL     OW72617   2.978   7.684   4.476  0.3828  0.4165  0.5841
22496SOL    HW172618   3.035   7.622   4.431  1.1717  0.6906  1.1969
22496SOL    HW272619   2.905   7.697   4.416  1.4367  0.8248 -0.6397
22497SOL     OW72620   9.101   5.873   7.763  0.5183 -0.3431 -0.6204
22497SOL    HW172621   9.017   5.906   7.730  0.6965  0.0417 -0.7003
22497SOL    HW272622   9.166   5.907   7.701  1.1344  2.5422  1.4997
22498SOL     OW72623   2.425  11.104   8.611  0.3041  0.1652  0.1546
22498SOL    HW172624   2.332  11.121   8.593  0.3992  1.7098  1.0439
22498SOL    HW272625   2.468  11.114   8.526 -0.1841  0.5784 -0.0451
22499SOL     OW72626   7.238   8.030   9.597  0.2591 -0.2124  0.2668
22499SOL    HW172627   7.167   8.000   9.540  0.4120  0.9363 -0.5445
22499SOL    HW272628   7.242   8.125   9.582 -0.2968  0.2568  2.8632
22500SOL     OW72629   3.663   7.087   8.174 -0.1717  0.7369  0.3403
22500SOL    HW172630   3.571   7.060   8.168 -0.1990  0.9573 -0.2656
22500SOL    HW272631   3.677   7.103   8.267 -0.3633 -0.6158  0.6132
22501SOL     OW72632   6.255   0.990  10.989 -0.4151 -1.0996 -0.3909
22501SOL    HW172633   6.230   1.001  11.080  1.0444  0.8342 -0.1650
22501SOL    HW272634   6.290   0.901  10.983 -2.6277 -2.0366  0.3862
22502SOL     OW72635  10.805   5.749   0.994 -0.3226 -1.2853  0.6437
22502SOL    HW172636  10.760   5.744   1.078 -0.1582  1.1764  0.9306
22502SOL    HW272637  10.766   5.826   0.951  1.6628 -0.7385 -0.2513
22503SOL     OW72638   5.484   6.695   3.264 -0.0082 -0.1829 -0.0226
22503SOL    HW172639   5.575   6.716   3.281 -0.3328  1.0668  0.2047
22503SOL    HW272640   5.468   6.614   3.313  1.4674 -1.4264 -1.5501
22504SOL     OW72641   8.656  11.184   4.156  0.9009 -0.0434 -0.1555
22504SOL    HW172642   8.606  11.103   4.168  0.1657  0.4861  0.3774
22504SOL    HW272643   8.657  11.225   4.242  1.2433  0.5346 -0.4309
22505SOL     OW72644   9.444   5.509  10.628 -0.6868 -0.4752 -0.0026
22505SOL    HW172645   9.448   5.451  10.704 -1.0350  1.4153  1.4921
22505SOL    HW272646   9.521   5.565  10.637 -1.8424  1.1306  0.1125
22506SOL     OW72647   9.167  10.899   3.881  0.4283  0.3247  0.2654
22506SOL    HW172648   9.075  10.910   3.904  0.5968  2.3486  0.0239
22506SOL    HW272649   9.197  10.987   3.857  2.0995 -0.5201 -0.8628
22507SOL     OW72650   8.700   2.426   2.976 -0.0458 -0.0897  0.5012
22507SOL    HW172651   8.740   2.508   2.946  0.7125 -0.7630 -0.3357
22507SOL    HW272652   8.629   2.409   2.915 -0.0241 -0.2060  0.5084
22508SOL     OW72653   3.538   0.630   2.223  0.2023  0.5010  0.4953
22508SOL    HW172654   3.534   0.544   2.265 -0.0805  0.1759 -0.1873
22508SOL    HW272655   3.469   0.627   2.156 -1.1719  1.9920  1.8197
22509SOL     OW72656   6.372   1.957   4.637 -0.2357  0.0535 -0.2624
22509SOL    HW172657   6.301   1.918   4.586  1.1069 -0.0861 -2.0769
22509SOL    HW272658   6.327   2.014   4.700 -2.0730 -2.3572  0.6691
22510SOL     OW72659   0.657   2.205   7.646  0.2782 -0.3652 -0.2053
22510SOL    HW172660   0.604   2.231   7.570  1.2824 -0.9912 -1.1255
22510SOL    HW272661   0.654   2.281   7.704  2.3053  1.4646 -2.4015
22511SOL     OW72662  10.343   1.984   8.747 -0.0043  0.0163  0.2981
22511SOL    HW172663  10.318   1.895   8.724 -2.1301  0.7127 -0.2443
22511SOL    HW272664  10.271   2.038   8.713  2.2909  2.1475 -1.3533
22512SOL     OW72665   8.950  10.257   9.041 -0.3064 -0.6920 -0.4997
22512SOL    HW172666   8.922  10.169   9.067 -2.9379  0.4332  0.6334
22512SOL    HW272667   9.006  10.287   9.112 -0.4109 -0.9941 -0.2860
22513SOL     OW72668   9.504   4.433   5.038 -0.0196 -0.2156  0.4323
22513SOL    HW172669   9.570   4.500   5.024 -2.0220  1.8733  0.6058
22513SOL    HW272670   9.457   4.461   5.117 -0.2560 -2.3631  1.0975
22514SOL     OW72671  10.676  10.072   0.722  0.0133 -0.1590  0.4595
22514SOL    HW172672  10.646  10.142   0.780 -1.6378 -0.8605  0.4686
22514SOL    HW272673  10.710  10.005   0.781 -0.7830 -0.4587  0.5899
22515SOL     OW72674  10.245   5.836   2.073 -0.3393 -0.3700 -0.1739
22515SOL    HW172675  10.166   5.797   2.112 -1.5326  1.1162 -1.0577
22515SOL    HW272676  10.313   5.771   2.087 -1.8158 -1.8504  0.2834
22516SOL     OW72677  10.004   7.901   3.046  0.4309 -0.5449  1.0392
22516SOL    HW172678  10.070   7.900   3.115  0.2056  1.5879  1.3119
22516SOL    HW272679   9.929   7.855   3.084  0.4095  0.3698  2.1169
22517SOL     OW72680   3.567   9.353   0.791 -0.3173  0.0167 -0.3990
22517SOL    HW172681   3.596   9.410   0.720  0.3130  0.1168 -0.0666
22517SOL    HW272682   3.563   9.266   0.751  0.2421  0.0386 -0.5039
22518SOL     OW72683   0.261   8.347   0.309  0.0826  0.4360  0.5618
22518SOL    HW172684   0.205   8.271   0.298  0.7723 -0.2005  1.3762
22518SOL    HW272685   0.320   8.345   0.233 -0.1224  0.3472  0.4056
22519SOL     OW72686   9.867   8.565   3.473 -0.2204  0.1061  0.1835
22519SOL    HW172687   9.779   8.602   3.483  0.3112  0.6869  3.3268
22519SOL    HW272688   9.875   8.501   3.543  1.3286 -1.1185 -1.0574
22520SOL     OW72689   1.044   5.505   6.218  0.6049 -0.0934 -0.5571
22520SOL    HW172690   1.006   5.541   6.299  1.3250  1.4867 -0.9145
22520SOL    HW272691   1.053   5.411   6.236 -2.2046 -0.3194  0.0362
22521SOL     OW72692   8.099   5.448   1.378  0.4514 -0.7136  0.4297
22521SOL    HW172693   8.152   5.477   1.452  2.1003 -0.8552 -0.6633
22521SOL    HW272694   8.123   5.507   1.307  1.4499 -2.6604 -0.9133
22522SOL     OW72695   4.867  10.643   4.022  0.3510  0.0310  0.1748
22522SOL    HW172696   4.819  10.653   4.104 -0.2516 -1.8323  0.0773
22522SOL    HW272697   4.833  10.561   3.984  1.9311 -0.0892 -1.0341
22523SOL     OW72698   8.478   5.821  10.397  0.4399 -0.2218 -0.5482
22523SOL    HW172699   8.525   5.855  10.473 -0.9850  1.6493 -0.4503
22523SOL    HW272700   8.403   5.774  10.434  0.3055 -0.1733 -0.7530
22524SOL     OW72701   4.110   4.108   0.285  0.0277  0.2052 -0.4602
22524SOL    HW172702   4.055   4.075   0.214 -0.4988 -0.7022  0.3602
22524SOL    HW272703   4.162   4.032   0.312  0.6599  0.7018 -0.2828
22525SOL     OW72704   0.618   4.689   0.769  0.4416  0.2914  0.4782
22525SOL    HW172705   0.564   4.735   0.833  0.5785  3.4983 -1.5902
22525SOL    HW272706   0.707   4.693   0.805  0.2673  0.6047  0.8739
22526SOL     OW72707   9.146   8.185  10.198 -0.7420 -0.2169  0.4668
22526SOL    HW172708   9.193   8.227  10.126  1.4762 -1.4038  1.1859
22526SOL    HW272709   9.132   8.255  10.262 -0.9871  0.4033 -0.2599
22527SOL     OW72710   3.060   8.184   9.196 -0.6020  0.1632  0.5392
22527SOL    HW172711   3.104   8.109   9.236  0.0480 -0.0418 -0.5696
22527SOL    HW272712   3.114   8.207   9.121 -1.4826  0.9533  0.1426
22528SOL     OW72713   7.269  10.004   3.990 -0.6795 -0.4322  0.5943
22528SOL    HW172714   7.226  10.001   3.904 -1.6737  1.5346  1.0136
22528SOL    HW272715   7.198  10.020   4.052  0.3662  0.6533  1.5230
22529SOL     OW72716   0.083   0.374   0.404  0.0794  0.0785 -0.3697
22529SOL    HW172717   0.041   0.432   0.468 -1.0163 -0.3706 -0.6742
22529SOL    HW272718   0.051   0.404   0.319 -0.5621 -1.0138 -0.5223
22530SOL     OW72719   7.040   0.259  10.209 -0.1111 -0.3055 -0.0631
22530SOL    HW172720   7.026   0.301  10.124 -0.5532 -0.0921  0.1134
22530SOL    HW272721   7.121   0.297  10.241 -1.4368  1.8225  0.9290
22531SOL     OW72722   4.003   2.447   3.897 -0.3357 -0.1467  0.5134
22531SOL    HW172723   3.984   2.362   3.858  1.3353 -0.6457  0.7574
22531SOL    HW272724   3.934   2.505   3.864  0.0419 -0.9634 -1.7917
22532SOL     OW72725   0.113   1.180  11.028 -0.5009  0.3137  0.3336
22532SOL    HW172726   0.038   1.221  11.072 -0.0323  0.7988  0.6783
22532SOL    HW272727   0.073   1.128  10.958 -1.1486  0.7622  0.3606
22533SOL     OW72728   4.732   4.627   8.413  0.4266 -0.4640  0.0541
22533SOL    HW172729   4.722   4.721   8.396  1.3424 -0.0931  1.5404
22533SOL    HW272730   4.661   4.605   8.473 -0.7262 -1.0603 -1.4963
22534SOL     OW72731   7.899   8.617  10.307  0.3519 -0.8169 -0.3692
22534SOL    HW172732   7.987   8.621  10.271  1.0345 -0.5374  1.3127
22534SOL    HW272733   7.900   8.677  10.381 -0.7813 -2.0552  0.6767
22535SOL     OW72734   8.408   7.782   2.452 -0.2273 -0.2877  0.2495
22535SOL    HW172735   8.314   7.804   2.452 -0.4561 -1.2050  2.4836
22535SOL    HW272736   8.414   7.706   2.394 -0.6337  0.5872 -0.9814
22536SOL     OW72737   8.483   2.041   8.507 -0.2244 -0.5339  0.0226
22536SOL    HW172738   8.531   2.105   8.560 -1.6050 -0.5531  1.3098
22536SOL    HW272739   8.459   1.971   8.568  0.4413 -1.8257 -1.1780
22537SOL     OW72740   0.331  10.890   4.424 -0.1301 -0.2486  0.4295
22537SOL    HW172741   0.305  10.968   4.374 -1.5154  0.9371  2.9298
22537SOL    HW272742   0.425  10.902   4.437  0.2577 -0.5602 -1.8143
22538SOL     OW72743   9.863   8.645   2.430  0.0508  0.3830 -0.1146
22538SOL    HW172744   9.768   8.638   2.427 -0.0252  1.1041  0.3568
22538SOL    HW272745   9.882   8.683   2.516  0.7515  0.3860 -0.2634
22539SOL     OW72746   2.755   9.234   7.777  0.3135  0.1309  0.1565
22539SOL    HW172747   2.770   9.313   7.829  0.4890 -1.2638  2.2600
22539SOL    HW272748   2.809   9.246   7.699 -0.4255  2.5295 -0.0500
22540SOL     OW72749   9.872   7.393   1.973  0.9750  0.4292 -0.1325
22540SOL    HW172750   9.789   7.438   1.960  0.6494 -0.3633 -0.8321
22540SOL    HW272751   9.885   7.393   2.068  1.8258  3.5086 -0.2115
22541SOL     OW72752   4.766   4.178   8.082 -0.1790 -0.3474  0.3163
22541SOL    HW172753   4.696   4.149   8.023 -1.1653  1.6047  0.4910
22541SOL    HW272754   4.779   4.270   8.060  0.7060 -0.0768  1.9118
22542SOL     OW72755  10.013   4.075   6.761  0.8888 -0.0050  0.2534
22542SOL    HW172756   9.968   4.033   6.688 -0.1326  1.1388  0.2216
22542SOL    HW272757  10.058   4.003   6.806  1.3750 -0.7421 -1.3778
22543SOL     OW72758  10.776   6.227   7.643  0.1650 -0.0093  0.2178
22543SOL    HW172759  10.742   6.139   7.656  0.4603 -0.2120 -0.3975
22543SOL    HW272760  10.711   6.271   7.588  1.4134 -0.7344 -1.8695
22544SOL     OW72761   5.012   7.603   1.714  0.3407  0.2793 -0.5163
22544SOL    HW172762   5.046   7.582   1.627  2.3050 -0.3242  0.3786
22544SOL    HW272763   4.932   7.551   1.722 -0.6786  1.4682 -2.5146
22545SOL     OW72764   2.830   7.112   1.960  0.3269  0.4212  0.4465
22545SOL    HW172765   2.809   7.128   2.052  0.3450 -1.5768  0.8246
22545SOL    HW272766   2.921   7.082   1.961  0.3206  0.3804 -0.2192
22546SOL     OW72767   5.668   7.087   4.317 -0.0180 -0.2451  0.0278
22546SOL    HW172768   5.696   7.000   4.289  0.1034 -0.0042 -0.6021
22546SOL    HW272769   5.695   7.092   4.409  1.2572 -0.3250 -0.3384
22547SOL     OW72770  10.082   2.197   0.825  0.6561  0.2282 -0.4504
22547SOL    HW172771  10.126   2.152   0.753  0.3835 -0.1022 -0.4098
22547SOL    HW272772  10.019   2.134   0.858  0.0464  0.7588 -0.6040
22548SOL     OW72773   3.594   3.042  10.199 -0.1531 -0.2841  0.2128
22548SOL    HW172774   3.509   3.053  10.156 -1.1032  2.3652  2.5858
22548SOL    HW272775   3.634   3.129  10.195  1.0016 -0.7095  2.0160
22549SOL     OW72776   2.203   4.266   8.492  0.3018  0.0735  0.4161
22549SOL    HW172777   2.173   4.260   8.583 -0.8462  0.0980  0.0476
22549SOL    HW272778   2.142   4.327   8.451  0.1489 -0.7866 -0.6386
22550SOL     OW72779   0.524   8.990   5.475 -0.4287 -0.1540  0.6478
22550SOL    HW172780   0.530   9.005   5.569 -0.6779  1.6523  0.3999
22550SOL    HW272781   0.503   9.076   5.438 -0.8803 -0.9437 -1.0081
22551SOL     OW72782   4.933   8.920   7.934 -0.3694  0.0004 -0.6976
22551SOL    HW172783   4.874   8.893   8.005 -0.0850  0.5412 -0.2588
22551SOL    HW272784   4.886   8.895   7.854 -0.6694 -0.6564 -0.3204
22552SOL     OW72785  10.373   9.424   6.872  0.6830  0.0344  0.4490
22552SOL    HW172786  10.438   9.475   6.824 -1.9025  2.5843 -0.4859
22552SOL    HW272787  10.340   9.361   6.807  1.1519 -0.2747  0.5058
22553SOL     OW72788  10.519   1.177   9.984 -0.2898  0.4223 -0.2500
22553SOL    HW172789  10.475   1.194  10.068 -0.7980  0.5510 -0.5410
22553SOL    HW272790  10.526   1.081   9.980  0.4540  0.4470  0.3048
22554SOL     OW72791  11.181   2.374   0.389  0.4365 -0.4021 -0.3540
22554SOL    HW172792  11.128   2.447   0.421 -1.6072 -2.5240  1.3541
22554SOL    HW272793  11.251   2.365   0.453 -0.4885 -1.2043  0.5547
22555SOL     OW72794   4.696   6.877   2.129  0.2112 -0.3422  0.2171
22555SOL    HW172795   4.785   6.888   2.095  0.5496  0.3288  1.2774
22555SOL    HW272796   4.642   6.861   2.052  1.2924 -0.9845 -0.4081
22556SOL     OW72797   8.496   2.728   4.784  0.0861  0.5890  0.8322
22556SOL    HW172798   8.457   2.814   4.798 -0.6264  0.8960 -2.5355
22556SOL    HW272799   8.431   2.667   4.819 -0.5587  1.3344  0.9668
22557SOL     OW72800   1.925   5.507   3.088 -0.2009  0.6226 -0.3863
22557SOL    HW172801   1.865   5.505   3.163 -0.2664  4.8749 -0.2452
22557SOL    HW272802   1.870   5.537   3.015  0.6758 -0.1443 -1.3737
22558SOL     OW72803   7.423   0.774   7.778 -0.4335 -0.0193  0.3760
22558SOL    HW172804   7.468   0.754   7.696 -0.3942 -1.6743  0.7891
22558SOL    HW272805   7.378   0.693   7.802 -0.6172  0.5027  1.8765
22559SOL     OW72806  11.324   6.332   7.483  0.2919 -0.3229  0.7314
22559SOL    HW172807  11.253   6.361   7.425 -0.1611 -1.1147  0.8889
22559SOL    HW272808  11.301   6.367   7.569  0.2985 -0.2424  0.7005
22560SOL     OW72809   2.245   6.561   4.592  0.2325 -0.2001 -0.0078
22560SOL    HW172810   2.310   6.495   4.616  0.7315 -0.0238 -0.8558
22560SOL    HW272811   2.292   6.621   4.534 -0.4629  0.3969  0.0387
22561SOL     OW72812   8.669   5.468   8.710  0.2760  0.5213 -0.1392
22561SOL    HW172813   8.669   5.544   8.768  0.1892  0.6253 -0.2740
22561SOL    HW272814   8.594   5.483   8.651 -0.7675 -0.4942  0.9077
22562SOL     OW72815   0.926   6.237   4.506  0.0290 -0.2028  0.4665
22562SOL    HW172816   0.908   6.176   4.435 -0.1173 -0.4195  0.6864
22562SOL    HW272817   1.008   6.206   4.544  0.5150  0.3780 -0.1031
22563SOL     OW72818   8.420   8.091  10.477  0.7628  0.3024  0.6475
22563SOL    HW172819   8.452   8.011  10.437  0.1207 -0.2932  1.2904
22563SOL    HW272820   8.335   8.106  10.436 -0.0643 -0.5135  2.0096
22564SOL     OW72821   9.111   3.470   6.962 -0.4959  0.0593  0.0042
22564SOL    HW172822   9.132   3.462   7.055  1.1026  1.2670 -0.2389
22564SOL    HW272823   9.095   3.380   6.933  0.1433 -0.4373  1.1766
22565SOL     OW72824   7.586   5.889   2.664  0.1605  0.2135  0.0458
22565SOL    HW172825   7.631   5.809   2.635 -0.2909  0.7842 -2.3402
22565SOL    HW272826   7.512   5.857   2.715  1.4237 -0.8203  1.2886
22566SOL     OW72827   7.866   7.744   0.995 -0.0153  0.4772  0.0891
22566SOL    HW172828   7.954   7.716   1.022 -0.1129  0.5033  0.4386
22566SOL    HW272829   7.807   7.696   1.053 -0.1641  1.9531  1.1915
22567SOL     OW72830   8.149   5.521   7.722  0.1833 -0.3567  0.0020
22567SOL    HW172831   8.214   5.490   7.660  1.0187 -0.0719  0.7246
22567SOL    HW272832   8.114   5.442   7.763  1.0948 -0.4382  0.6281
22568SOL     OW72833   4.652   1.337   3.835 -0.5194 -0.1671  0.1064
22568SOL    HW172834   4.748   1.338   3.828 -0.5367  2.8080 -0.3681
22568SOL    HW272835   4.635   1.326   3.928  0.3021  0.1463  0.3001
22569SOL     OW72836   0.419   1.490   7.699 -0.0352  0.6495 -0.0249
22569SOL    HW172837   0.430   1.547   7.775  0.3378  0.4183  0.0952
22569SOL    HW272838   0.488   1.518   7.639 -2.0035  2.6991 -1.4433
22570SOL     OW72839  11.003   9.761   4.401  0.3708  0.3126  0.5697
22570SOL    HW172840  11.021   9.843   4.446  0.5659  0.1849  0.7212
22570SOL    HW272841  10.998   9.785   4.309 -2.4099  1.0005  0.8539
22571SOL     OW72842  10.126   7.510  10.687  0.4225  0.3716  0.1456
22571SOL    HW172843  10.110   7.429  10.639 -0.4717 -0.0690  1.1501
22571SOL    HW272844  10.187   7.484  10.757  1.6229  0.9794 -0.6551
22572SOL     OW72845   0.903   6.584   8.523  0.4693 -0.1261  0.3338
22572SOL    HW172846   0.911   6.648   8.593  0.5640 -0.3008  0.4822
22572SOL    HW272847   0.862   6.508   8.563  0.6478 -0.2772  0.2339
22573SOL     OW72848   9.378   3.845   6.529  0.3902  0.5691  0.0194
22573SOL    HW172849   9.357   3.763   6.485  1.0782  0.4559 -0.1005
22573SOL    HW272850   9.307   3.856   6.593  0.5673 -0.3850  0.3963
22574SOL     OW72851   2.718  10.485   4.494 -0.0294  0.1946  0.2084
22574SOL    HW172852   2.770  10.561   4.468  1.2473 -0.6638  0.1951
22574SOL    HW272853   2.634  10.498   4.452  0.6386  0.9096 -0.9305
22575SOL     OW72854   2.928   1.422   8.026  0.4282  0.0912 -0.1807
22575SOL    HW172855   2.929   1.385   7.938 -0.5568 -2.4261  0.8320
22575SOL    HW272856   2.838   1.413   8.055  0.8000  0.6795  1.2059
22576SOL     OW72857   2.301  10.092   0.159  0.5413 -0.0952 -0.6380
22576SOL    HW172858   2.251  10.143   0.096 -0.0695 -1.2507 -1.1128
22576SOL    HW272859   2.371  10.053   0.107  1.3247  0.6721 -0.1770
22577SOL     OW72860   3.210   9.679   3.717  0.1095 -0.2127  0.2667
22577SOL    HW172861   3.303   9.669   3.694  0.5095 -1.2061  2.1474
22577SOL    HW272862   3.163   9.662   3.636  1.5820  0.7691 -0.8267
22578SOL     OW72863  11.158   2.933   7.668 -0.3123 -0.3040  0.3300
22578SOL    HW172864  11.078   2.945   7.617  0.2532  0.8681 -0.2830
22578SOL    HW272865  11.181   3.021   7.698  0.3011 -0.7508  1.1873
22579SOL     OW72866   5.397   5.446   3.926  0.8326 -0.1444 -0.0374
22579SOL    HW172867   5.443   5.382   3.871 -0.0887 -0.4113 -0.5070
22579SOL    HW272868   5.429   5.430   4.014  1.4167 -0.5277 -0.3157
22580SOL     OW72869   5.478   2.548   5.630  0.3508  0.0836  0.3719
22580SOL    HW172870   5.405   2.497   5.665  0.4996 -0.3703  0.0238
22580SOL    HW272871   5.481   2.525   5.538  0.9179  0.1217  0.3808
22581SOL     OW72872   7.803   9.609   2.968 -0.1520  0.0957 -0.1211
22581SOL    HW172873   7.797   9.522   2.929  0.8242 -0.0862  0.1045
22581SOL    HW272874   7.871   9.600   3.035 -0.2891  0.9457  0.1395
22582SOL     OW72875   9.100   7.548   6.515 -0.2555 -0.4448 -0.3391
22582SOL    HW172876   9.094   7.461   6.478  0.7473 -0.5703 -0.2143
22582SOL    HW272877   9.010   7.571   6.538 -0.7798 -0.6854 -2.0936
22583SOL     OW72878   2.998   8.141   0.163  0.0824 -0.4824  0.3976
22583SOL    HW172879   2.973   8.150   0.071 -0.6472 -0.5412  0.5850
22583SOL    HW272880   3.091   8.163   0.165  0.3644 -1.4840 -0.5294
22584SOL     OW72881   4.316   0.085   6.330  0.3019 -0.1282  0.0149
22584SOL    HW172882   4.221   0.084   6.344  0.3824  0.7719  0.6512
22584SOL    HW272883   4.354   0.067   6.415  0.7046 -0.7640 -0.2967
22585SOL     OW72884   7.910   5.369   0.801 -0.2966 -0.4103 -0.7783
22585SOL    HW172885   7.971   5.328   0.862  1.3240  0.2651 -1.8914
22585SOL    HW272886   7.906   5.461   0.829  0.7006 -0.0227 -1.8254
22586SOL     OW72887   3.544   2.623   7.417 -0.4279 -0.3608 -0.5007
22586SOL    HW172888   3.513   2.589   7.332  0.7274  0.5247 -1.2930
22586SOL    HW272889   3.522   2.716   7.414 -2.5133 -0.7575  1.1729
22587SOL     OW72890  11.231   4.348   9.567 -0.0563 -0.0231 -0.2546
22587SOL    HW172891  11.297   4.336   9.636  0.5183  0.2032 -0.7581
22587SOL    HW272892  11.242   4.440   9.540 -0.0442 -0.2051 -0.8795
22588SOL     OW72893   3.720   7.935   2.802  0.4216 -0.1111 -0.1639
22588SOL    HW172894   3.639   7.930   2.753  0.5442  1.2889 -0.5482
22588SOL    HW272895   3.730   8.029   2.822  3.4303  0.1889 -2.6881
22589SOL     OW72896  10.516   0.331  10.779  0.2546 -0.0019 -0.1189
22589SOL    HW172897  10.449   0.321  10.711 -0.0035  1.5086 -0.1125
22589SOL    HW272898  10.508   0.423  10.807  0.9599 -0.3619  1.3177
22590SOL     OW72899   1.434   4.785   9.203  0.9846  0.1296 -0.4265
22590SOL    HW172900   1.373   4.713   9.217  1.2229  0.1563  0.8022
22590SOL    HW272901   1.451   4.819   9.290  0.8121  1.7369 -1.0124
22591SOL     OW72902   6.743   8.715   8.514  0.3569 -0.0989  0.0749
22591SOL    HW172903   6.738   8.747   8.424  1.1733  0.2818  0.1545
22591SOL    HW272904   6.657   8.678   8.532 -0.3796  1.4206 -0.2689
22592SOL     OW72905   9.431   5.634   1.855  0.0601 -0.3175 -0.7470
22592SOL    HW172906   9.452   5.680   1.936 -0.0344 -1.3532 -0.1238
22592SOL    HW272907   9.381   5.697   1.803 -2.4366 -0.5893  1.2296
22593SOL     OW72908   5.077   2.225   2.006  0.0387  0.3192 -0.2652
22593SOL    HW172909   5.129   2.250   1.930 -1.3240  0.1822 -1.2704
22593SOL    HW272910   5.032   2.144   1.979 -0.3816  0.2162  0.7102
22594SOL     OW72911   2.613  11.000   1.708 -0.2672 -0.7164  0.5000
22594SOL    HW172912   2.556  10.994   1.632 -0.3669 -2.0616  0.6554
22594SOL    HW272913   2.560  10.968   1.781  0.9894 -3.1071  0.4444
22595SOL     OW72914   8.822  11.255  10.727 -0.3543 -0.3983 -0.6159
22595SOL    HW172915   8.816  11.344  10.693 -1.0363 -0.7870 -1.5435
22595SOL    HW272916   8.888  11.213  10.672  0.1569 -0.3905 -0.0085
22596SOL     OW72917   9.889   2.845   3.804  0.3989 -0.4957 -0.2326
22596SOL    HW172918   9.927   2.806   3.883  0.7144  0.5434  0.1493
22596SOL    HW272919   9.804   2.879   3.833  0.4753 -0.1964 -0.3574
22597SOL     OW72920   8.692   7.737   4.262 -0.2083  0.1693 -0.3214
22597SOL    HW172921   8.735   7.821   4.249 -0.9741  0.4453 -1.1166
22597SOL    HW272922   8.601   7.759   4.283 -0.1882 -0.4347  0.4481
22598SOL     OW72923   7.330   2.796   1.824  0.1528  0.0015 -0.3893
22598SOL    HW172924   7.346   2.733   1.753 -0.0673  0.4033 -0.8016
22598SOL    HW272925   7.236   2.811   1.822  0.1978  0.3116 -0.2644
22599SOL     OW72926   1.842   4.999   8.781 -0.5281  0.0108  0.1229
22599SOL    HW172927   1.893   4.922   8.757 -2.6317 -2.0969  2.2410
22599SOL    HW272928   1.751   4.972   8.773 -1.3000  2.1159  1.3484
22600SOL     OW72929  10.822   5.804   3.430 -0.2119  0.1361  0.4389
22600SOL    HW172930  10.884   5.849   3.373  0.0600  1.3624  1.6672
22600SOL    HW272931  10.776   5.743   3.372  0.3254  1.0655 -1.0041
22601SOL     OW72932   3.941   6.097   1.049  0.1674 -0.1904  0.1158
22601SOL    HW172933   3.855   6.096   1.006  0.6047  1.1299 -0.8295
22601SOL    HW272934   3.947   6.184   1.088  1.2618 -0.1104 -0.2267
22602SOL     OW72935  10.772   3.503   5.056  0.1766 -0.6322 -0.2691
22602SOL    HW172936  10.857   3.533   5.086  0.3031  0.2828 -1.4760
22602SOL    HW272937  10.710   3.535   5.122  0.4415  1.3629 -0.9474
22603SOL     OW72938   4.414   7.428   3.800 -0.2366  0.1781 -0.8304
22603SOL    HW172939   4.458   7.499   3.846  1.5981 -1.7735  0.5482
22603SOL    HW272940   4.412   7.356   3.862 -0.8250 -1.4300 -2.6373
22604SOL     OW72941   3.505   9.843  11.319 -0.1085 -0.4866 -0.0188
22604SOL    HW172942   3.473   9.897  11.392  1.5000 -1.8156  1.6907
22604SOL    HW272943   3.578   9.793  11.355  0.3596 -1.6021 -2.3972
22605SOL     OW72944   8.777   3.256   3.437  0.3109  0.4464 -0.0027
22605SOL    HW172945   8.865   3.291   3.422 -0.5356  2.8966  0.6085
22605SOL    HW272946   8.748   3.298   3.518 -0.3570 -2.4806  1.3684
22606SOL     OW72947   4.520   9.433   8.048 -0.2480  0.0757 -0.4045
22606SOL    HW172948   4.537   9.382   8.127 -0.9649 -0.0713 -0.3393
22606SOL    HW272949   4.453   9.496   8.074  1.7643  2.1411 -0.0520
22607SOL     OW72950   7.958   0.497   1.080  0.2933  0.2956  0.3232
22607SOL    HW172951   7.868   0.511   1.053  0.1404  0.7725  1.0770
22607SOL    HW272952   7.952   0.469   1.172  0.8425 -0.6723  0.0738
22608SOL     OW72953   8.356   9.067   5.084 -0.0928 -0.2084  0.2493
22608SOL    HW172954   8.325   8.981   5.110 -0.5958  0.6018  2.4210
22608SOL    HW272955   8.347   9.068   4.989 -0.4274 -2.4012  0.2293
22609SOL     OW72956   6.694   8.046   5.955  0.1140 -0.7158  0.4527
22609SOL    HW172957   6.626   8.108   5.928  1.0118  0.5081  0.9960
22609SOL    HW272958   6.655   7.999   6.029  0.0407  0.3336  1.0897
22610SOL     OW72959   0.665   9.161   8.087  0.1731 -0.0225  0.3589
22610SOL    HW172960   0.727   9.232   8.070 -1.0633  0.8324 -0.6109
22610SOL    HW272961   0.583   9.205   8.110 -1.0802 -1.1085 -1.9442
22611SOL     OW72962   8.476   5.237   4.247 -0.0774 -1.4393 -0.1727
22611SOL    HW172963   8.540   5.195   4.191  1.6521 -0.2565  0.8622
22611SOL    HW272964   8.442   5.310   4.195 -0.2757 -1.8010 -0.5546
22612SOL     OW72965   8.309  11.105   1.189  0.3243  0.0830 -0.1415
22612SOL    HW172966   8.218  11.132   1.191 -0.5550 -2.6294 -1.3086
22612SOL    HW272967   8.334  11.115   1.097  0.6143 -1.0121 -0.1850
22613SOL     OW72968   3.259   5.107   3.546 -0.3290 -0.3742 -0.7326
22613SOL    HW172969   3.212   5.035   3.588 -0.2533 -0.4938 -0.8525
22613SOL    HW272970   3.233   5.103   3.454 -0.1253 -0.4100 -0.7901
22614SOL     OW72971   9.436   1.935   8.334 -0.3185  0.1459 -1.0916
22614SOL    HW172972   9.519   1.894   8.357 -0.8864 -0.7294 -0.6101
22614SOL    HW272973   9.374   1.863   8.327 -1.1439  0.8380 -1.0159
22615SOL     OW72974   1.272   3.396   7.538 -0.7410  0.2007 -0.0053
22615SOL    HW172975   1.218   3.316   7.538 -1.2179  0.4932 -1.6789
22615SOL    HW272976   1.208   3.467   7.533 -0.2912  0.6614  0.8255
22616SOL     OW72977   0.624   9.599   2.519 -0.1010 -0.0605  0.4891
22616SOL    HW172978   0.537   9.585   2.557 -0.0635 -0.9140  0.2720
22616SOL    HW272979   0.669   9.654   2.583 -1.1506  1.2827  0.1036
22617SOL     OW72980   4.953   5.655   7.162  0.1629 -0.5435  0.0970
22617SOL    HW172981   4.947   5.669   7.068 -1.5610  1.8307  0.5180
22617SOL    HW272982   5.046   5.665   7.182  0.1845  1.7887 -0.9760
22618SOL     OW72983  11.221   2.742   1.367  0.3616 -0.1258  0.1995
22618SOL    HW172984  11.183   2.785   1.443  0.4341  1.0427 -0.4162
22618SOL    HW272985  11.294   2.691   1.402  0.0990  0.0230  0.9714
22619SOL     OW72986   4.896   5.371   7.113  0.1986 -0.6478 -1.1149
22619SOL    HW172987   4.922   5.453   7.156  0.0176  0.3177 -2.8157
22619SOL    HW272988   4.839   5.328   7.177  0.9119  0.1680  0.1079
22620SOL     OW72989   5.033   4.988   1.713 -0.2977  0.8372 -0.9103
22620SOL    HW172990   4.939   4.972   1.715  0.0475 -1.3124 -0.9780
22620SOL    HW272991   5.066   4.946   1.793  0.6573  1.2025 -1.1028
22621SOL     OW72992   1.373  10.762   5.961 -0.1012 -0.1974  0.0627
22621SOL    HW172993   1.302  10.825   5.952 -0.5983 -1.1751 -3.6041
22621SOL    HW272994   1.450  10.808   5.927  0.1628 -0.5409  0.1896
22622SOL     OW72995   4.797   2.285   7.037 -0.5810 -0.2271  0.0167
22622SOL    HW172996   4.724   2.261   7.094  0.2811  1.3722  1.8587
22622SOL    HW272997   4.779   2.374   7.010  1.1225  0.5299  1.2526
22623SOL     OW72998   0.581   7.418   1.878  0.2762  0.1763 -0.3218
22623SOL    HW172999   0.579   7.358   1.952  1.7564  0.0547 -0.3694
22623SOL    HW273000   0.549   7.366   1.804 -4.4937  1.2252  0.8113
22624SOL     OW73001   8.853   0.530   7.074 -0.6104  0.4859 -0.0870
22624SOL    HW173002   8.812   0.515   6.988 -0.6364 -0.8270  0.1534
22624SOL    HW273003   8.890   0.445   7.098  2.6361  1.7293 -0.4766
22625SOL     OW73004   8.345   2.731   5.562 -0.1345 -0.1989 -0.0720
22625SOL    HW173005   8.414   2.675   5.599 -0.7647 -0.5973  0.5040
22625SOL    HW273006   8.393   2.803   5.520  0.6904 -1.4692 -1.3205
22626SOL     OW73007   5.810   4.138   2.596  0.2266 -0.7145 -0.1341
22626SOL    HW173008   5.886   4.164   2.544  1.4827 -0.9868  1.5268
22626SOL    HW273009   5.792   4.214   2.652  0.0402 -1.0967  0.3354
22627SOL     OW73010   5.225   3.325   1.627 -0.2006 -0.3244 -0.1534
22627SOL    HW173011   5.140   3.299   1.591  0.6194 -2.3594 -0.6886
22627SOL    HW273012   5.285   3.257   1.597  1.3969  0.4463  1.2292
22628SOL     OW73013   6.139   2.872   8.000  0.6643  0.6758 -0.6087
22628SOL    HW173014   6.230   2.887   8.025  0.0725  0.1637  2.0220
22628SOL    HW273015   6.092   2.948   8.035  0.0615  0.9317 -1.9371
22629SOL     OW73016   3.428  10.651   3.080  0.7593 -0.4709 -0.0904
22629SOL    HW173017   3.391  10.565   3.058  1.2250 -0.5634 -0.5367
22629SOL    HW273018   3.481  10.635   3.158 -1.5325  0.0117  1.6203
22630SOL     OW73019   3.097   1.687   8.974  0.2984 -0.2402 -0.5719
22630SOL    HW173020   3.073   1.602   8.937  0.6637  0.2995 -2.1276
22630SOL    HW273021   3.155   1.726   8.907 -0.0829  1.3343 -0.0099
22631SOL     OW73022   4.615   0.778   5.159  0.3848  0.8231 -0.2154
22631SOL    HW173023   4.690   0.812   5.110  0.7649  1.3787  0.7391
22631SOL    HW273024   4.589   0.699   5.111  2.0678  0.1875 -0.1189
22632SOL     OW73025   6.820   3.437   2.315 -0.1414  0.0881 -0.2772
22632SOL    HW173026   6.809   3.526   2.346  1.0387  0.2983 -0.4447
22632SOL    HW273027   6.733   3.398   2.323  0.0365  0.1920  3.0380
22633SOL     OW73028   8.230   6.529   0.053  0.2470  0.0558  0.1261
22633SOL    HW173029   8.165   6.481   0.106  0.2706 -0.0923  0.0213
22633SOL    HW273030   8.230   6.484  -0.031  0.1960  0.3057 -0.0066
22634SOL     OW73031   9.637   0.755  10.878 -0.2172 -0.2874  0.6239
22634SOL    HW173032   9.696   0.706  10.822 -1.7484 -2.4921  0.8955
22634SOL    HW273033   9.694   0.797  10.943  1.3099  0.1986 -0.9943
22635SOL     OW73034   3.928   3.579   9.379 -0.3247  0.8140 -0.0240
22635SOL    HW173035   3.950   3.497   9.335 -0.2363  1.3011 -0.8934
22635SOL    HW273036   3.996   3.590   9.445 -1.1259 -0.5234  1.0392
22636SOL     OW73037   8.086   4.638   0.754  0.1018 -0.2214  0.2421
22636SOL    HW173038   8.074   4.652   0.848  2.8776  1.9727  0.3206
22636SOL    HW273039   8.042   4.712   0.713  1.8889  0.7594  0.0166
22637SOL     OW73040   4.010   0.240   3.821 -0.7237  0.2967 -0.1097
22637SOL    HW173041   3.916   0.227   3.832 -0.7338 -0.6861 -1.2339
22637SOL    HW273042   4.019   0.273   3.731  0.0079  0.3716 -0.0101
22638SOL     OW73043   0.430  11.209   0.591  0.2760 -0.0855  0.1831
22638SOL    HW173044   0.479  11.136   0.628  0.6582  0.1930  0.2297
22638SOL    HW273045   0.489  11.284   0.600  0.4752 -0.0639 -1.2089
22639SOL     OW73046  11.010   1.507   3.161  0.3848 -0.4374  0.3241
22639SOL    HW173047  10.927   1.465   3.183 -0.2249  1.3686  1.6244
22639SOL    HW273048  10.992   1.601   3.170  2.4004 -0.0069  0.0299
22640SOL     OW73049   3.911  10.852   0.204 -0.0151 -0.1063 -0.1725
22640SOL    HW173050   3.881  10.855   0.295  2.2139  0.3577  0.5801
22640SOL    HW273051   3.901  10.760   0.179 -1.3136 -0.1080  0.2844
22641SOL     OW73052   7.172   2.461   1.867 -0.4702  0.1141  0.4794
22641SOL    HW173053   7.090   2.415   1.883  0.4822 -1.5840  0.7405
22641SOL    HW273054   7.160   2.505   1.783 -0.9150 -1.9176 -0.5565
22642SOL     OW73055   7.594   7.186   0.685  0.1672 -0.4731 -0.1947
22642SOL    HW173056   7.508   7.160   0.718 -0.8625  3.4683  0.5452
22642SOL    HW273057   7.650   7.186   0.763 -0.1024  0.4324  0.0112
22643SOL     OW73058  11.290  11.027   9.098  0.4245  0.0195  0.6495
22643SOL    HW173059  11.265  10.962   9.164 -2.5528  0.3199 -0.1145
22643SOL    HW273060  11.298  10.976   9.017  2.4161 -0.0688  0.8748
22644SOL     OW73061   2.291   0.458   8.316 -0.1930 -0.2487  0.2277
22644SOL    HW173062   2.330   0.532   8.269  0.2334  0.5646  1.8128
22644SOL    HW273063   2.362   0.425   8.370 -0.4482 -1.7016 -0.3039
22645SOL     OW73064   7.345   8.780   7.590 -0.7931 -0.3130 -0.4601
22645SOL    HW173065   7.301   8.844   7.646 -0.3255  1.5451 -2.1487
22645SOL    HW273066   7.434   8.775   7.625 -1.2195 -1.1095  0.5322
22646SOL     OW73067   6.639   4.891   7.170 -0.3999  0.3798 -0.2509
22646SOL    HW173068   6.628   4.902   7.264  1.9333  1.9625 -0.1470
22646SOL    HW273069   6.582   4.958   7.131  0.6706  1.4887  0.0852
22647SOL     OW73070   0.580   7.743   9.598 -0.2380 -0.3243  0.3605
22647SOL    HW173071   0.522   7.819   9.598 -0.8111 -0.7181 -2.0913
22647SOL    HW273072   0.533   7.676   9.647 -0.3773  0.4285  1.2561
22648SOL     OW73073   4.854   0.947   7.181 -0.2255 -0.0709  0.1256
22648SOL    HW173074   4.790   0.877   7.167 -1.2607  1.0853 -1.0282
22648SOL    HW273075   4.814   1.024   7.142  1.1487  1.0558  0.9018
22649SOL     OW73076   3.780   7.294   3.215  0.4220  0.0596 -0.0147
22649SOL    HW173077   3.843   7.263   3.150  1.3006 -0.3829  1.0326
22649SOL    HW273078   3.734   7.366   3.172 -0.0052 -1.1466 -1.6340
22650SOL     OW73079   2.397   6.594   5.307  0.4307 -0.8830 -0.3185
22650SOL    HW173080   2.479   6.546   5.317  2.5102  2.3313 -1.1458
22650SOL    HW273081   2.392   6.649   5.385 -0.3420 -0.2380 -0.8196
22651SOL     OW73082   9.932   3.448   4.344 -0.7759  0.7953 -0.1966
22651SOL    HW173083   9.905   3.527   4.391 -2.3669  0.5289 -0.6532
22651SOL    HW273084   9.859   3.388   4.352 -0.0581 -0.1917 -0.8853
22652SOL     OW73085   5.325   5.993   1.239 -0.1847  0.0552 -0.0809
22652SOL    HW173086   5.299   6.078   1.203 -1.1102  0.7242  2.0537
22652SOL    HW273087   5.361   5.945   1.165  0.0798  2.2057 -1.3845
22653SOL     OW73088   8.589   3.623   7.243 -0.2012  0.0527 -1.2060
22653SOL    HW173089   8.568   3.581   7.159 -2.3877  1.7455 -1.5263
22653SOL    HW273090   8.511   3.610   7.297  0.7016  0.0982  0.1284
22654SOL     OW73091   9.527   3.691   8.889 -0.4408  0.6089 -0.0231
22654SOL    HW173092   9.452   3.718   8.942 -0.7977  0.4563 -0.4450
22654SOL    HW273093   9.565   3.774   8.858 -0.2824  0.6947  0.3946
22655SOL     OW73094   9.004   4.755   3.706  0.6380  0.7222 -0.3432
22655SOL    HW173095   9.003   4.807   3.787  1.1484  0.7118 -0.3288
22655SOL    HW273096   8.913   4.752   3.679  0.4579  0.6867  0.2613
22656SOL     OW73097   7.823   0.451   9.589 -0.0949  0.2766 -0.2053
22656SOL    HW173098   7.885   0.485   9.525  0.3272  0.7384  0.4544
22656SOL    HW273099   7.846   0.358   9.598 -0.9091 -0.0785 -1.5984
22657SOL     OW73100   5.164   6.674  10.922  0.1106 -0.0887  0.2769
22657SOL    HW173101   5.077   6.650  10.892  0.8691 -2.7416  0.0824
22657SOL    HW273102   5.223   6.630  10.862  1.6261  1.9283  0.2122
22658SOL     OW73103   1.340   8.244   6.354 -0.1902  0.1785 -0.2788
22658SOL    HW173104   1.406   8.195   6.304  0.7443  0.7810  0.3400
22658SOL    HW273105   1.329   8.194   6.435 -1.2989 -0.5007 -0.8395
22659SOL     OW73106   5.491   3.425   6.491  0.3604 -0.1100 -0.6718
22659SOL    HW173107   5.582   3.446   6.509  0.0625 -0.4414  1.4029
22659SOL    HW273108   5.442   3.467   6.563 -1.1113  0.1043 -1.7813
22660SOL     OW73109   5.811   0.320  10.456 -0.3560  0.1600 -0.3008
22660SOL    HW173110   5.861   0.307  10.537 -1.1396 -1.4378 -0.0591
22660SOL    HW273111   5.721   0.329  10.486 -0.7147 -0.9833 -1.0398
22661SOL     OW73112   5.152   4.532   7.437 -0.4219 -0.0803 -0.0092
22661SOL    HW173113   5.109   4.596   7.494 -0.3414 -1.3685  1.5512
22661SOL    HW273114   5.231   4.507   7.485  0.6312  0.2357 -1.5859
22662SOL     OW73115  10.661   3.186   7.149 -0.0111  0.1439  0.6160
22662SOL    HW173116  10.684   3.156   7.237 -1.2846  1.4591  1.4361
22662SOL    HW273117  10.714   3.265   7.135 -0.9877  0.8539  0.8673
22663SOL     OW73118   0.888  11.315   5.275  0.5637  0.1390  0.4445
22663SOL    HW173119   0.828  11.299   5.202  1.1910 -1.2664  0.2242
22663SOL    HW273120   0.834  11.303   5.353  0.7706 -2.1201  0.2669
22664SOL     OW73121   3.575   3.847  10.180 -0.2548 -0.5851 -0.2061
22664SOL    HW173122   3.621   3.872  10.260  0.1840 -2.2895  0.0985
22664SOL    HW273123   3.643   3.846  10.112 -0.2429 -1.0448 -0.1900
22665SOL     OW73124   5.241   1.860   4.113 -0.2060  0.3469 -0.6829
22665SOL    HW173125   5.195   1.923   4.168 -1.4804 -1.0297 -0.1383
22665SOL    HW273126   5.226   1.775   4.155 -0.2713 -0.5925 -2.5321
22666SOL     OW73127   8.825   9.777   7.267 -0.2069 -1.0140  0.2601
22666SOL    HW173128   8.849   9.709   7.204 -1.7244 -1.3003 -0.0371
22666SOL    HW273129   8.886   9.849   7.250  0.4950 -1.7511 -0.3694
22667SOL     OW73130   3.738   8.629   0.024 -0.3602 -0.3782 -0.1783
22667SOL    HW173131   3.786   8.582  -0.044 -2.4295 -3.1298  0.2094
22667SOL    HW273132   3.709   8.562   0.085 -2.9848  1.4295  0.6569
22668SOL     OW73133   1.173  11.046   6.926  0.0656  0.2385  0.1235
22668SOL    HW173134   1.244  11.013   6.870  1.3145  2.0461  0.5790
22668SOL    HW273135   1.202  11.026   7.015 -1.0819 -1.0383  0.2201
22669SOL     OW73136   0.758   5.487   4.393  0.2595  0.4979  0.3025
22669SOL    HW173137   0.721   5.551   4.454  2.5868  1.0062  1.2596
22669SOL    HW273138   0.683   5.445   4.353 -1.3426  0.7423  2.9410
22670SOL     OW73139   6.704   0.401   9.995 -0.6348  0.2485  0.3076
22670SOL    HW173140   6.698   0.316   9.950 -0.9741 -0.1904  1.1750
22670SOL    HW273141   6.792   0.402  10.032 -1.1345 -0.3612  1.5410
22671SOL     OW73142  10.350   9.346   0.267  0.3012 -0.5897 -0.4135
22671SOL    HW173143  10.311   9.410   0.326 -2.5535 -0.9159 -1.8896
22671SOL    HW273144  10.436   9.382   0.247 -1.0973  2.5974 -0.9158
22672SOL     OW73145   5.738   3.214   6.436 -0.1660  0.3189 -0.2488
22672SOL    HW173146   5.693   3.270   6.500  0.1626 -0.8099  0.9980
22672SOL    HW273147   5.668   3.164   6.394 -0.4705  1.7031 -1.4362
22673SOL     OW73148   8.226   9.962   8.171  0.7038 -0.0441  0.1649
22673SOL    HW173149   8.181   9.883   8.202  1.2582  0.4236  2.2400
22673SOL    HW273150   8.313   9.956   8.210  1.0275  1.1688 -0.3600
22674SOL     OW73151   1.540   0.030   3.568  0.2892  0.3558 -0.0714
22674SOL    HW173152   1.485   0.010   3.643 -1.1503  1.2112 -0.8960
22674SOL    HW273153   1.586  -0.052   3.549  1.8257  0.5232  2.6638
22675SOL     OW73154   5.522   3.889   7.430 -0.7675 -0.1446  0.0278
22675SOL    HW173155   5.523   3.898   7.334 -0.3077  1.7264  0.2033
22675SOL    HW273156   5.503   3.976   7.462  1.4899 -0.2415  1.7289
22676SOL     OW73157  10.734   3.379  10.287 -0.2439  0.1376 -0.0145
22676SOL    HW173158  10.711   3.431  10.210 -0.8297  1.2141  0.8733
22676SOL    HW273159  10.657   3.323  10.301 -1.0219  1.4476  1.0363
22677SOL     OW73160   1.061   3.279   1.115 -0.0963 -0.0608 -0.3765
22677SOL    HW173161   1.001   3.336   1.164  0.9110  0.6643  0.0562
22677SOL    HW273162   1.139   3.333   1.103  0.3878 -0.9154 -1.1161
22678SOL     OW73163   3.474   0.154   5.940  0.1499 -0.4456 -0.5066
22678SOL    HW173164   3.380   0.146   5.956  0.0036 -0.1009 -1.1676
22678SOL    HW273165   3.510   0.190   6.021 -0.7228  2.3200 -1.3289
22679SOL     OW73166  11.275   1.334  10.205  0.5070 -0.3326 -0.1143
22679SOL    HW173167  11.359   1.379  10.203 -0.1902  1.0014 -0.0795
22679SOL    HW273168  11.215   1.396  10.247 -0.1583 -1.8589  1.2498
22680SOL     OW73169   3.079   0.302  10.680  0.6016  0.4226  0.4896
22680SOL    HW173170   3.131   0.232  10.642  1.0110  1.0352 -0.1041
22680SOL    HW273171   3.092   0.294  10.774  0.9242 -0.0836  0.4026
22681SOL     OW73172   4.529   5.941   2.230 -0.1820 -0.0671 -0.8564
22681SOL    HW173173   4.519   5.992   2.310  1.6605 -1.2992  0.2014
22681SOL    HW273174   4.608   5.976   2.189 -0.0458 -0.7090 -1.1473
22682SOL     OW73175   4.396  11.230   4.242 -0.7762  0.5777 -0.2394
22682SOL    HW173176   4.487  11.253   4.256 -0.8359  0.3718  0.5216
22682SOL    HW273177   4.399  11.144   4.199 -0.6304 -0.2640  1.4156
22683SOL     OW73178   4.449   8.346   0.040 -0.2687  0.2530  0.0039
22683SOL    HW173179   4.505   8.276   0.009 -0.7654 -1.2641  2.3546
22683SOL    HW273180   4.394   8.369  -0.035  0.7576 -1.0050 -1.1485
22684SOL     OW73181   0.017   5.148   9.179  0.7684  0.5826 -0.1396
22684SOL    HW173182  -0.044   5.222   9.184  1.6806  1.3713 -0.5368
22684SOL    HW273183  -0.017   5.085   9.243  0.4531  1.7089  0.8324
22685SOL     OW73184   0.201   2.429   6.553 -0.1666  0.0513  0.1384
22685SOL    HW173185   0.170   2.344   6.520 -0.3113  0.4019 -0.6605
22685SOL    HW273186   0.183   2.489   6.481  1.8077  0.3821 -0.0946
22686SOL     OW73187   1.006   9.274   2.011 -0.3508  0.2869 -0.4984
22686SOL    HW173188   1.035   9.214   1.942 -0.3211 -0.0017 -0.2360
22686SOL    HW273189   1.058   9.353   1.997  0.8430 -0.3574  0.1971
22687SOL     OW73190  10.148   2.955   3.713 -0.0834  0.3827  0.3443
22687SOL    HW173191  10.144   2.999   3.797 -1.8748 -0.6871  0.8416
22687SOL    HW273192  10.060   2.920   3.699  0.0322  0.9920 -2.2245
22688SOL     OW73193   5.432   3.165   9.249 -0.2015  0.1155 -0.1893
22688SOL    HW173194   5.407   3.073   9.260 -0.1171 -0.0579 -1.4182
22688SOL    HW273195   5.352   3.208   9.219 -0.7471  0.8173  2.1386
22689SOL     OW73196   8.735   2.256   0.532  0.0533 -0.2197 -0.3534
22689SOL    HW173197   8.829   2.254   0.553  0.1083 -3.0347 -0.6506
22689SOL    HW273198   8.693   2.223   0.611 -0.6737  0.8445 -0.2993
22690SOL     OW73199   1.591  11.137   6.936 -0.2118 -0.0679  0.3862
22690SOL    HW173200   1.549  11.126   6.851 -1.1793  1.2804  0.6823
22690SOL    HW273201   1.597  11.048   6.972  1.4587 -0.8164 -1.6568
22691SOL     OW73202   2.881   2.547   3.368  0.1784 -0.4718  0.1064
22691SOL    HW173203   2.902   2.523   3.278 -1.2847 -1.1945 -0.0433
22691SOL    HW273204   2.914   2.474   3.421  0.3343 -0.4079  0.0991
22692SOL     OW73205   6.228  11.186   8.053  0.0101 -0.5759 -0.1476
22692SOL    HW173206   6.258  11.235   8.129 -0.0349 -2.6258  1.2243
22692SOL    HW273207   6.294  11.118   8.040 -1.5062 -2.0788 -0.1142
22693SOL     OW73208   2.125  10.430  10.675  0.4144 -0.1013 -0.6627
22693SOL    HW173209   2.064  10.388  10.614  1.2953 -0.2300 -1.4654
22693SOL    HW273210   2.155  10.508  10.628 -0.3945  0.8554  0.3939
22694SOL     OW73211   0.333  10.156   9.484 -0.2434  0.2239 -0.1089
22694SOL    HW173212   0.276  10.188   9.555  0.8811  1.6077  0.1849
22694SOL    HW273213   0.348  10.233   9.430  0.8213 -0.2965 -0.5486
22695SOL     OW73214   4.567   7.345   1.382  0.0460  0.3287 -1.0461
22695SOL    HW173215   4.514   7.335   1.461 -1.1407 -0.2666 -1.9010
22695SOL    HW273216   4.607   7.432   1.390  1.7873 -0.6414  1.2912
22696SOL     OW73217   4.215   4.900   2.455  0.0036  0.1390 -1.3142
22696SOL    HW173218   4.158   4.914   2.531 -0.9996 -3.2009 -1.3870
22696SOL    HW273219   4.297   4.866   2.492  0.5147  1.1408 -1.5181
22697SOL     OW73220   4.638   9.457   1.201  0.6163  0.0799  0.8578
22697SOL    HW173221   4.613   9.367   1.220  0.4957  0.3311  1.8908
22697SOL    HW273222   4.588   9.480   1.123  0.9437 -0.8738  0.3577
22698SOL     OW73223   4.468   2.591   1.737 -0.1426 -0.0503 -0.2983
22698SOL    HW173224   4.439   2.534   1.809 -0.1225 -0.3010 -0.4922
22698SOL    HW273225   4.387   2.622   1.698 -0.1681  0.8532  0.4389
22699SOL     OW73226   6.222   8.250   2.815  0.1603 -0.2933 -0.3467
22699SOL    HW173227   6.170   8.324   2.847 -1.8150 -1.6445 -0.3212
22699SOL    HW273228   6.224   8.262   2.720  0.2609  0.0668 -0.2997
22700SOL     OW73229   0.151   3.935   4.280  0.2650  0.0041 -0.0657
22700SOL    HW173230   0.189   4.010   4.325 -2.7968  1.6094 -0.0191
22700SOL    HW273231   0.135   3.966   4.191 -2.4720 -0.0085  0.3668
22701SOL     OW73232   0.491   5.864   0.785  0.2778 -0.1533  0.1884
22701SOL    HW173233   0.503   5.822   0.870  1.0068  0.2348  0.2770
22701SOL    HW273234   0.401   5.843   0.761  0.2111 -0.6421  0.8487
22702SOL     OW73235   3.901   6.438   8.978  0.0808  0.3145  0.0173
22702SOL    HW173236   3.922   6.528   9.005 -1.1135  0.7797 -0.5539
22702SOL    HW273237   3.874   6.394   9.059  0.0015  0.6774  0.1912
22703SOL     OW73238   2.232   5.820  10.772 -0.6529  0.1810  0.1172
22703SOL    HW173239   2.168   5.799  10.840  0.2486 -1.9042  0.3597
22703SOL    HW273240   2.311   5.844  10.820 -0.3180 -0.3257 -0.1675
22704SOL     OW73241  10.445   3.027   3.867  0.3512  0.0938  0.2026
22704SOL    HW173242  10.401   3.087   3.927  0.3219 -0.1088  0.3839
22704SOL    HW273243  10.435   3.067   3.781  0.2701  0.3132  0.3152
22705SOL     OW73244   9.581   7.439   4.845  0.2429  0.0123 -0.8797
22705SOL    HW173245   9.509   7.502   4.845  1.1315  1.2187  3.6082
22705SOL    HW273246   9.645   7.476   4.784 -0.9287  1.3915 -1.3103
22706SOL     OW73247   6.785   8.889   7.878 -0.4305 -0.5696 -0.2705
22706SOL    HW173248   6.750   8.825   7.940 -2.2636  0.3473 -0.3147
22706SOL    HW273249   6.877   8.899   7.903 -0.8749 -1.0043  1.6203
22707SOL     OW73250   5.687   6.197   2.854  0.1387  0.0525  0.7949
22707SOL    HW173251   5.645   6.217   2.938  1.3947  2.1104  0.9729
22707SOL    HW273252   5.635   6.125   2.818 -2.7852  1.6859  1.5635
22708SOL     OW73253   8.612   0.449   7.509 -0.3060  0.0853  0.2597
22708SOL    HW173254   8.644   0.362   7.532 -0.3422 -0.7292 -2.7005
22708SOL    HW273255   8.680   0.486   7.452 -2.0198  0.5233 -1.5380
22709SOL     OW73256   4.587   8.024   0.433  0.4121 -0.6821 -0.3938
22709SOL    HW173257   4.652   8.090   0.408  1.8736 -1.2994  1.6626
22709SOL    HW273258   4.632   7.940   0.420  0.0208 -1.1120  1.0165
22710SOL     OW73259   7.088   8.106   5.244  0.4779  0.2416 -0.0561
22710SOL    HW173260   7.051   8.027   5.284 -0.3724  0.8941  0.4785
22710SOL    HW273261   7.138   8.074   5.169  1.6944 -0.9694  1.2222
22711SOL     OW73262   2.810   1.778   2.860  0.5070 -0.5117 -0.0476
22711SOL    HW173263   2.794   1.735   2.944 -0.5876 -1.1055 -0.5430
22711SOL    HW273264   2.853   1.860   2.883 -1.1052  0.0055  1.2144
22712SOL     OW73265   2.260   4.495   5.876 -0.4546 -0.6230  0.0082
22712SOL    HW173266   2.307   4.471   5.956 -1.0222 -0.2413  0.4622
22712SOL    HW273267   2.173   4.457   5.887 -0.5113 -0.6238 -0.4538
22713SOL     OW73268   9.884   0.595   7.785 -0.2821  0.1402 -0.5201
22713SOL    HW173269   9.937   0.673   7.770 -0.0035 -0.2898 -1.8555
22713SOL    HW273270   9.936   0.542   7.846  0.7380 -0.1917 -1.6698
22714SOL     OW73271   4.732   5.947   3.836 -0.5760 -0.0142 -0.4836
22714SOL    HW173272   4.706   5.952   3.928 -0.2826  0.8801 -0.4488
22714SOL    HW273273   4.711   5.857   3.811  2.1783 -1.2284  1.2957
22715SOL     OW73274   3.921   9.098  10.201 -0.2988  0.7003  0.0698
22715SOL    HW173275   3.940   9.116  10.293  1.1923  1.6732 -0.4128
22715SOL    HW273276   3.995   9.045  10.171 -0.7399  0.4501 -0.5962
22716SOL     OW73277   1.307  11.239   0.211  0.0521  0.3206 -0.2371
22716SOL    HW173278   1.332  11.208   0.298  1.5680  0.6135 -0.5471
22716SOL    HW273279   1.303  11.160   0.157 -1.0679  0.1163  0.1234
22717SOL     OW73280   2.899   9.865   4.271 -0.5475 -0.6392  0.6327
22717SOL    HW173281   2.876   9.956   4.287  0.9563 -0.2974  0.9551
22717SOL    HW273282   2.993   9.867   4.252 -0.4586 -2.1357  0.8319
22718SOL     OW73283   8.388   4.393   7.106  0.2246  0.1363  0.0578
22718SOL    HW173284   8.385   4.443   7.025  0.9252  0.7951  0.4234
22718SOL    HW273285   8.347   4.309   7.085 -1.4689  1.0704 -0.4101
22719SOL     OW73286   3.148  10.262   0.342 -0.2334  0.1012  0.2501
22719SOL    HW173287   3.148  10.282   0.436 -0.9637 -0.3495  0.3512
22719SOL    HW273288   3.236  10.231   0.324 -0.0310  0.3737  0.7494
22720SOL     OW73289   6.372   4.875   3.556  0.2074 -0.0833  0.2045
22720SOL    HW173290   6.317   4.828   3.618  0.5579 -0.3659  0.3013
22720SOL    HW273291   6.437   4.920   3.610  1.5576 -1.6808 -0.0379
22721SOL     OW73292   0.006   2.406   1.862  0.0722 -0.0921 -0.5588
22721SOL    HW173293   0.011   2.368   1.950  0.4915 -1.7222 -1.2777
22721SOL    HW273294  -0.088   2.412   1.844 -0.0426  0.9813  0.2890
22722SOL     OW73295   0.334   6.915   6.495  0.1208 -0.1345 -0.4408
22722SOL    HW173296   0.341   6.991   6.553 -1.8931 -0.1579 -0.1481
22722SOL    HW273297   0.360   6.841   6.549 -2.1779 -0.2141  0.6112
22723SOL     OW73298   9.822   5.653   9.770  0.4144 -0.5808 -0.0402
22723SOL    HW173299   9.829   5.718   9.700  1.9165  0.0991  0.7270
22723SOL    HW273300   9.886   5.680   9.835  0.6717 -2.5083  0.5547
22724SOL     OW73301   6.516   3.050   5.705  0.0358 -0.2311  0.1840
22724SOL    HW173302   6.436   3.004   5.731  0.7904 -0.8593  1.4441
22724SOL    HW273303   6.523   3.121   5.769  0.8040 -0.5338  0.4314
22725SOL     OW73304   7.779   2.745   6.932  0.5801 -0.2496 -0.4215
22725SOL    HW173305   7.822   2.824   6.898 -1.1999 -0.7524 -4.1477
22725SOL    HW273306   7.824   2.673   6.889 -0.5469 -1.0197 -0.3235
22726SOL     OW73307   2.478  10.767   4.160 -0.2666  0.2497 -0.1508
22726SOL    HW173308   2.554  10.709   4.155  0.4516  1.2327 -0.7751
22726SOL    HW273309   2.513  10.854   4.144 -0.9992  1.1413  2.8175
22727SOL     OW73310   6.509   2.157   2.341 -0.3210  0.0176  0.0967
22727SOL    HW173311   6.426   2.108   2.340  0.2390 -0.9422 -0.2011
22727SOL    HW273312   6.516   2.191   2.430 -0.4027 -0.9915  0.4951
22728SOL     OW73313   6.020   0.665   6.624  0.2839 -0.6821  0.0971
22728SOL    HW173314   5.979   0.580   6.609  0.3856 -0.7726  0.3355
22728SOL    HW273315   6.112   0.645   6.641  0.7795 -0.3515 -2.0770
22729SOL     OW73316   4.260  10.607   0.936  0.1002 -0.8911  0.9554
22729SOL    HW173317   4.280  10.522   0.974  3.5445  0.3161  1.9625
22729SOL    HW273318   4.244  10.664   1.011  0.1329 -0.1022  0.3686
22730SOL     OW73319   3.260   7.541  10.729 -0.6305 -0.0238  0.1347
22730SOL    HW173320   3.351   7.526  10.702 -0.6202  0.5706 -0.1622
22730SOL    HW273321   3.265   7.615  10.790 -0.5434 -1.8512  2.4368
22731SOL     OW73322   5.889   3.897   9.917 -0.0362 -0.2814 -0.0675
22731SOL    HW173323   5.867   3.944   9.837 -1.2672 -0.2595  0.2782
22731SOL    HW273324   5.830   3.934   9.983 -0.2706 -1.5619  0.4463
22732SOL     OW73325   1.564   2.037   8.858  0.2761  0.2318 -0.1505
22732SOL    HW173326   1.489   2.079   8.817 -1.9464 -0.9218  2.6272
22732SOL    HW273327   1.587   2.095   8.931 -0.2839 -1.2575  1.2482
22733SOL     OW73328   9.802   2.286   2.848 -0.0527  0.6826  0.4411
22733SOL    HW173329   9.747   2.363   2.833  0.0139  0.6267 -0.0805
22733SOL    HW273330   9.767   2.219   2.790  0.9534  0.8297 -0.3461
22734SOL     OW73331   4.495   2.157   8.090  0.2295  0.2256 -0.1993
22734SOL    HW173332   4.401   2.175   8.102  0.0247 -1.3728  0.7228
22734SOL    HW273333   4.539   2.221   8.146 -0.2440  1.6935 -1.4483
22735SOL     OW73334  10.810  10.009   6.519  0.1520 -0.0734 -0.4810
22735SOL    HW173335  10.736   9.997   6.460  1.5554 -0.5839 -2.1671
22735SOL    HW273336  10.771  10.048   6.598 -2.3707 -3.0583 -0.1291
22736SOL     OW73337   0.650   8.726   7.629 -0.3242  0.1620 -0.0521
22736SOL    HW173338   0.703   8.801   7.655 -1.2051  0.4340  0.9883
22736SOL    HW273339   0.706   8.676   7.569  0.3101  1.5716 -0.6453
22737SOL     OW73340  10.159   7.478   5.537 -0.6333  0.2430  0.9408
22737SOL    HW173341  10.238   7.433   5.565  1.3352  2.1598 -1.3020
22737SOL    HW273342  10.137   7.437   5.453 -0.8291  1.1255  0.5559
22738SOL     OW73343   2.204   6.902   6.358  0.4345 -0.4152 -0.4820
22738SOL    HW173344   2.146   6.830   6.334  0.8749 -0.4678 -1.4222
22738SOL    HW273345   2.150   6.981   6.348  0.0070 -0.5953  0.3715
22739SOL     OW73346  11.087   4.361   9.886 -0.4494  0.1437  0.4200
22739SOL    HW173347  11.042   4.407   9.815  0.4750  1.3568  0.6018
22739SOL    HW273348  11.176   4.349   9.854 -0.7590 -1.8597  0.2389
22740SOL     OW73349   1.345   5.714   2.299  0.1435 -0.2509  0.0716
22740SOL    HW173350   1.352   5.731   2.393 -1.3651 -2.6756  0.6447
22740SOL    HW273351   1.422   5.660   2.278 -1.4678 -2.8082  0.6642
22741SOL     OW73352   2.049   7.005  10.044  0.7115 -0.0258 -0.4289
22741SOL    HW173353   2.133   6.960  10.038  1.0828  0.7503 -1.3012
22741SOL    HW273354   1.985   6.941  10.016  0.9810 -0.7160  0.5232
22742SOL     OW73355   6.530   4.612   8.125 -0.5335 -0.0902  0.1007
22742SOL    HW173356   6.461   4.549   8.105  0.2163 -0.8404 -0.1319
22742SOL    HW273357   6.563   4.640   8.040 -2.8867  2.9093  0.0835
22743SOL     OW73358   3.740   4.038   1.789 -0.6335 -0.3223 -1.1563
22743SOL    HW173359   3.744   4.088   1.707  2.8305  2.5605  0.6363
22743SOL    HW273360   3.818   3.983   1.787 -0.8839 -0.7214 -0.0705
22744SOL     OW73361   7.853  11.223   0.133 -0.1174 -0.0019  0.1337
22744SOL    HW173362   7.885  11.193   0.218 -1.1153  0.9676  0.8539
22744SOL    HW273363   7.787  11.159   0.108 -0.6010  0.3142  0.5978
22745SOL     OW73364   3.352  10.628   1.801 -0.8692  0.7404  0.6656
22745SOL    HW173365   3.436  10.664   1.830 -1.2591  1.4230  0.9456
22745SOL    HW273366   3.291  10.647   1.873 -0.8452 -1.4166  1.2929
22746SOL     OW73367   5.138   0.684   1.785  0.0369 -0.3789 -0.1956
22746SOL    HW173368   5.163   0.654   1.873  0.7054 -1.0994 -0.6205
22746SOL    HW273369   5.048   0.715   1.795 -0.5922 -2.2593  0.3572
22747SOL     OW73370   3.571   5.701  10.981 -0.0370  0.2208 -0.0659
22747SOL    HW173371   3.490   5.650  10.989 -0.8031  1.6019  1.1598
22747SOL    HW273372   3.557   5.758  10.906 -1.7197  3.0974  2.3399
22748SOL     OW73373  10.609   7.049   8.222 -0.2273  0.1166 -0.2040
22748SOL    HW173374  10.605   7.112   8.294  0.0762 -0.3681  0.2441
22748SOL    HW273375  10.530   7.065   8.172  0.2454  1.4028 -0.5591
22749SOL     OW73376   5.775   9.562  10.423 -0.3668  0.2843 -0.1654
22749SOL    HW173377   5.852   9.598  10.378  0.1063 -0.7827 -0.2201
22749SOL    HW273378   5.783   9.467  10.411 -0.3796 -0.0099  1.9439
22750SOL     OW73379   5.422   0.692   1.655  0.2543 -0.0493  0.1485
22750SOL    HW173380   5.340   0.741   1.648  0.8941  0.9975 -0.1175
22750SOL    HW273381   5.455   0.711   1.743  1.6694  1.8848 -0.7713
22751SOL     OW73382  10.427   5.031   4.271 -0.0947 -0.2905 -0.1869
22751SOL    HW173383  10.356   4.994   4.219  1.6041 -2.5238 -1.0154
22751SOL    HW273384  10.489   5.063   4.206 -0.6251  2.2716  0.5330
22752SOL     OW73385   8.024   4.040   7.782 -0.0474  0.0126 -0.3756
22752SOL    HW173386   8.059   4.008   7.699 -0.0938  1.3689 -0.9221
22752SOL    HW273387   7.998   4.130   7.764 -2.1714 -0.4013  0.4903
22753SOL     OW73388   9.958   9.187   7.744  0.1671  0.2548  0.2214
22753SOL    HW173389   9.925   9.245   7.676 -1.1347  0.0089  0.6408
22753SOL    HW273390  10.046   9.165   7.714 -0.5024 -0.1256 -1.5559
22754SOL     OW73391   3.308   7.373   8.508 -0.0377 -0.3152  0.3352
22754SOL    HW173392   3.326   7.366   8.415 -1.5692  0.5524 -0.0367
22754SOL    HW273393   3.315   7.283   8.540 -1.1916 -0.8733 -0.9394
22755SOL     OW73394   6.658   9.728   1.605 -0.1242  0.1777 -0.5501
22755SOL    HW173395   6.702   9.797   1.556  1.3153  0.3129  0.8890
22755SOL    HW273396   6.565   9.737   1.581  0.5302  0.1948 -3.2598
22756SOL     OW73397   1.343   9.937   4.671 -0.5982  0.0763  0.0308
22756SOL    HW173398   1.269   9.995   4.691 -0.1916  0.8009 -0.5538
22756SOL    HW273399   1.397   9.939   4.749 -0.7811  0.1819  0.1553
22757SOL     OW73400  10.598   0.629  10.469  0.5468 -0.0718 -0.4910
22757SOL    HW173401  10.638   0.656  10.387  1.8666  0.8200  0.4279
22757SOL    HW273402  10.520   0.684  10.478  0.3375 -0.2497 -1.1766
22758SOL     OW73403   9.771  10.276   5.144  0.0334 -0.3816  0.4622
22758SOL    HW173404   9.719  10.337   5.092  1.0513 -1.0842 -1.4177
22758SOL    HW273405   9.859  10.282   5.108  0.0928 -3.1817  0.0239
22759SOL     OW73406   2.174   5.262   4.610  0.2418 -0.4851 -0.2378
22759SOL    HW173407   2.266   5.265   4.637  0.9423 -0.4690 -2.5120
22759SOL    HW273408   2.160   5.172   4.583 -0.8364 -0.8356  1.4233
22760SOL     OW73409   2.955   6.582   4.222 -0.3650 -0.2158  0.2783
22760SOL    HW173410   3.038   6.536   4.210  0.4868  0.6646  2.6737
22760SOL    HW273411   2.950   6.641   4.146  0.6479 -1.0555 -0.4675
22761SOL     OW73412  10.231   8.128   6.577 -0.5912 -0.0292  0.2313
22761SOL    HW173413  10.266   8.039   6.572  0.6077  0.5123 -1.4309
22761SOL    HW273414  10.305   8.181   6.607 -0.5541  0.7998 -1.2910
22762SOL     OW73415  10.917   7.933  11.083 -0.3731 -0.3717 -0.1182
22762SOL    HW173416  10.888   8.024  11.083 -0.0738 -0.2702 -1.3125
22762SOL    HW273417  10.999   7.934  11.035 -0.6727 -1.3655 -0.6598
22763SOL     OW73418   6.726  10.096   4.852 -0.0335  0.0206 -0.2781
22763SOL    HW173419   6.685  10.173   4.890  0.7399  1.1139 -1.6100
22763SOL    HW273420   6.819  10.117   4.846  0.1648 -0.9404 -0.8175
22764SOL     OW73421  10.458   3.638   8.414 -0.2778  0.1932 -0.8878
22764SOL    HW173422  10.369   3.653   8.446  0.4877  0.5784  1.1510
22764SOL    HW273423  10.465   3.694   8.337 -1.6110  0.6175 -0.7189
22765SOL     OW73424   7.649   7.076   6.997 -0.7121  0.0556  0.5735
22765SOL    HW173425   7.643   7.085   7.092  0.9101 -1.5047  0.8669
22765SOL    HW273426   7.629   7.163   6.963  1.5615  1.3963  2.4946
22766SOL     OW73427   8.628   1.419   7.107  0.5150  0.0900  0.3728
22766SOL    HW173428   8.673   1.352   7.055  0.4284  1.5207 -1.5572
22766SOL    HW273429   8.683   1.428   7.185  2.1221 -0.1260 -0.7121
22767SOL     OW73430  10.760   0.058   2.996  0.0218 -0.3473 -0.2953
22767SOL    HW173431  10.816  -0.005   3.042 -2.3445 -3.1146 -1.0256
22767SOL    HW273432  10.819   0.102   2.934  1.4024 -3.3211 -1.1992
22768SOL     OW73433   8.104   8.871   2.087  0.1871 -0.3545 -0.5047
22768SOL    HW173434   8.086   8.939   2.152  0.4799 -1.2775  0.5557
22768SOL    HW273435   8.162   8.810   2.132  0.8119 -0.7355 -1.8074
22769SOL     OW73436   3.176   9.895   0.426  0.0412  0.6634  0.1757
22769SOL    HW173437   3.243   9.835   0.391 -0.8427 -0.4014  0.2733
22769SOL    HW273438   3.093   9.856   0.399 -0.6339  0.4053  2.5343
22770SOL     OW73439   2.967   0.102   8.940 -0.6235 -1.0747 -0.3685
22770SOL    HW173440   2.972   0.090   9.035  0.5792  0.6872 -0.1841
22770SOL    HW273441   3.058   0.095   8.910 -0.8738 -0.5814 -1.2503
22771SOL     OW73442   4.395   7.607  10.639 -0.5902  0.1937  0.0195
22771SOL    HW173443   4.370   7.527  10.686  0.3953 -0.0169  0.1854
22771SOL    HW273444   4.359   7.595  10.551  1.6509 -1.5450 -0.7042
22772SOL     OW73445   7.181   2.394   9.593 -0.2353 -0.2818 -0.3359
22772SOL    HW173446   7.131   2.338   9.533 -0.7931  1.4046 -1.4566
22772SOL    HW273447   7.272   2.370   9.578 -0.5322 -1.6119 -0.0724
22773SOL     OW73448   5.156   5.634   4.314  0.9451 -0.0981 -0.1835
22773SOL    HW173449   5.205   5.667   4.389 -1.3692 -0.5195  1.5681
22773SOL    HW273450   5.138   5.542   4.336 -3.2759  0.8676  0.6545
22774SOL     OW73451   6.521   0.401   4.946  0.1030 -0.0759 -0.2224
22774SOL    HW173452   6.534   0.496   4.940 -0.7442  0.1046  0.7271
22774SOL    HW273453   6.444   0.384   4.892 -1.0317  0.0764  1.3288
22775SOL     OW73454   4.232   8.258  11.154  0.1304  0.0265  0.0068
22775SOL    HW173455   4.144   8.230  11.130 -0.0162  0.7550 -0.3307
22775SOL    HW273456   4.276   8.274  11.071  0.4404  0.0972  0.1811
22776SOL     OW73457   0.259   4.731   5.684  0.0432 -0.3169  0.0786
22776SOL    HW173458   0.204   4.713   5.760 -1.4644 -0.5394 -1.0445
22776SOL    HW273459   0.245   4.656   5.625  0.6724  0.1670 -0.7079
22777SOL     OW73460  10.752   2.801  11.128 -0.2556 -0.3925 -0.3886
22777SOL    HW173461  10.798   2.718  11.138  1.2955  0.6057  0.8975
22777SOL    HW273462  10.680   2.796  11.191  0.7098 -0.1617  0.7379
22778SOL     OW73463  10.094   3.893   2.824  0.1901 -0.3145  0.8283
22778SOL    HW173464  10.159   3.843   2.776 -1.0527 -1.1160 -0.0712
22778SOL    HW273465  10.072   3.967   2.766 -4.5325 -3.6394 -2.0074
22779SOL     OW73466   8.990   9.354   5.503  0.7912 -0.7761 -0.0502
22779SOL    HW173467   8.965   9.301   5.428  0.1890  0.1062 -0.4802
22779SOL    HW273468   8.954   9.308   5.578  1.7045 -1.8525 -0.2678
22780SOL     OW73469   8.269  10.564   6.093 -0.2397 -0.5034 -0.4150
22780SOL    HW173470   8.226  10.590   6.012 -0.3325 -2.8262 -1.1718
22780SOL    HW273471   8.311  10.480   6.071  1.4538 -0.1602  1.3698
22781SOL     OW73472   8.161   4.562   4.990  0.5864 -0.6422 -0.2949
22781SOL    HW173473   8.080   4.562   4.939 -0.3040  1.1339  1.0696
22781SOL    HW273474   8.199   4.475   4.975 -2.2108 -1.9608  0.0613
22782SOL     OW73475  10.247   7.828   9.234 -0.2538  0.1872 -0.5721
22782SOL    HW173476  10.301   7.749   9.236  0.8319  0.9203 -0.3948
22782SOL    HW273477  10.293   7.887   9.175 -0.5432  1.0541  0.0694
22783SOL     OW73478   9.099   3.613   9.511  0.6525 -0.6527 -0.0956
22783SOL    HW173479   9.045   3.647   9.440 -0.2785 -1.6781  0.0968
22783SOL    HW273480   9.123   3.690   9.562 -0.2060 -0.1184 -0.4820
22784SOL     OW73481   0.387   8.104   6.369 -0.0741 -0.2456  0.0400
22784SOL    HW173482   0.369   8.043   6.298  1.6616  0.0497 -0.6765
22784SOL    HW273483   0.427   8.180   6.327  1.0528 -0.0964  1.3262
22785SOL     OW73484   7.564   1.353  10.475  0.1379  0.4075  0.2036
22785SOL    HW173485   7.624   1.282  10.495  1.5624  1.0926 -1.4905
22785SOL    HW273486   7.615   1.433  10.491 -1.1557  1.0495  1.2590
22786SOL     OW73487   7.448   8.193  11.335  0.2369  0.4065 -0.1205
22786SOL    HW173488   7.462   8.167  11.426  0.2166  2.0621  0.3766
22786SOL    HW273489   7.353   8.207  11.329 -0.4048 -3.9302 -1.5935
22787SOL     OW73490   3.312  10.289   3.854  0.3127 -0.0262 -0.1767
22787SOL    HW173491   3.249  10.217   3.851  0.7809 -0.4354 -0.1434
22787SOL    HW273492   3.394  10.251   3.824  0.2874  0.7842 -1.2713
22788SOL     OW73493  10.075   5.290   3.884  0.1708 -0.0900  0.0994
22788SOL    HW173494  10.140   5.307   3.953 -0.5559 -0.6790  0.9339
22788SOL    HW273495  10.112   5.217   3.834  1.3027  1.1470 -0.9391
22789SOL     OW73496   8.816   9.626   2.228 -0.7653 -0.3844 -0.0912
22789SOL    HW173497   8.872   9.691   2.272 -0.5381  0.3431 -1.4192
22789SOL    HW273498   8.766   9.587   2.298  2.5532 -2.2080  1.3900
22790SOL     OW73499   9.530  10.969   0.132 -0.4065 -0.1667 -0.3199
22790SOL    HW173500   9.512  11.023   0.209 -3.6973  0.6117 -1.5787
22790SOL    HW273501   9.542  11.032   0.061  1.3922 -0.9337 -0.7222
22791SOL     OW73502   2.585   0.708   4.398  0.2932 -0.6246  0.1935
22791SOL    HW173503   2.555   0.740   4.483  0.2035 -0.4132  0.0824
22791SOL    HW273504   2.601   0.787   4.347  0.3238 -0.7521  0.0057
22792SOL     OW73505   0.656   7.327   0.652 -0.2948  0.0040 -0.2315
22792SOL    HW173506   0.654   7.411   0.698 -1.6362 -1.1743  1.9422
22792SOL    HW273507   0.578   7.327   0.598 -1.6177 -0.8177  1.6283
22793SOL     OW73508   3.921   2.823   9.394 -0.0557  0.1255  0.5610
22793SOL    HW173509   3.937   2.764   9.320  0.4336 -0.8303  1.4142
22793SOL    HW273510   3.846   2.785   9.439 -1.9901  2.1223 -0.8698
22794SOL     OW73511   0.761  10.821   7.492  0.1301 -0.0116 -0.0118
22794SOL    HW173512   0.689  10.848   7.435  2.0642 -0.2333 -2.6721
22794SOL    HW273513   0.840  10.850   7.445  1.8299 -1.2083  2.0374
22795SOL     OW73514  10.595  11.211   0.675  0.3291  0.4760 -0.0158
22795SOL    HW173515  10.640  11.152   0.615  1.5925  2.3813 -0.9787
22795SOL    HW273516  10.503  11.207   0.648  0.2063 -1.8041  0.6045
22796SOL     OW73517  11.322   7.124   3.017  0.3204  0.5298  0.3423
22796SOL    HW173518  11.262   7.162   2.953 -0.3489  1.3433  1.4351
22796SOL    HW273519  11.280   7.140   3.101  1.2699 -0.3874  0.9957
22797SOL     OW73520   0.734   1.177   2.535  0.2612  0.1334  0.7937
22797SOL    HW173521   0.724   1.142   2.446 -0.7189  2.1512  0.0948
22797SOL    HW273522   0.810   1.235   2.530  0.7089 -0.3765  1.4958
22798SOL     OW73523   3.334   2.588   8.266  0.1766 -0.3174  0.3026
22798SOL    HW173524   3.320   2.516   8.205 -1.0945  0.2422 -0.0984
22798SOL    HW273525   3.252   2.593   8.316  0.0268  1.1884 -0.0629
22799SOL     OW73526   9.533   9.366   7.542  0.6328  0.4905  0.8506
22799SOL    HW173527   9.456   9.366   7.599  1.0407 -0.2373  1.4193
22799SOL    HW273528   9.499   9.352   7.454  0.0981  0.3893  1.0741
22800SOL     OW73529   9.882   7.654   8.636 -0.1981 -0.3087 -0.4424
22800SOL    HW173530   9.949   7.623   8.697  1.6130  2.3523 -0.9972
22800SOL    HW273531   9.805   7.671   8.690  1.0827  1.0948  0.9833
22801SOL     OW73532   7.633   6.790   1.476  0.4300  0.1350  0.0276
22801SOL    HW173533   7.547   6.833   1.470 -0.4023 -1.3558  1.1199
22801SOL    HW273534   7.650   6.759   1.387  0.7881  2.1804 -0.6624
22802SOL     OW73535   1.066   3.990  10.308 -0.1539  0.4738  0.0114
22802SOL    HW173536   1.146   4.035  10.334  0.5506 -0.6240 -0.1976
22802SOL    HW273537   1.006   4.001  10.382  0.5648  0.4109  0.6067
22803SOL     OW73538   1.147   4.567   2.586 -0.0183 -0.4169  0.0997
22803SOL    HW173539   1.150   4.648   2.535 -1.8952  0.9774  2.0858
22803SOL    HW273540   1.195   4.503   2.533  2.8415  2.3440 -0.8336
22804SOL     OW73541  10.120   4.330   6.734 -0.0627  0.1342  0.1744
22804SOL    HW173542  10.102   4.236   6.739  0.2240 -0.0107 -1.1539
22804SOL    HW273543  10.171   4.339   6.653  0.2929  1.3753  0.5392
22805SOL     OW73544   7.247   5.688   9.027  0.4379 -0.3516  0.4686
22805SOL    HW173545   7.229   5.735   9.108 -1.3192  2.8497 -1.6866
22805SOL    HW273546   7.330   5.725   8.997  0.4550 -0.6280  0.1768
22806SOL     OW73547   6.168   0.038   0.611  0.4652  0.3788 -0.0581
22806SOL    HW173548   6.131   0.112   0.563  1.9078  0.6741 -0.7403
22806SOL    HW273549   6.188   0.074   0.698  0.4007  0.5760 -0.1245
22807SOL     OW73550   3.496   6.800   2.770  0.3694  0.0925 -0.3071
22807SOL    HW173551   3.566   6.769   2.712  0.7013  0.6499 -0.2057
22807SOL    HW273552   3.504   6.895   2.768  1.1918  0.0787  1.6469
22808SOL     OW73553   8.425   1.483  10.585  0.5618 -0.6009  0.2675
22808SOL    HW173554   8.453   1.573  10.570  0.7780 -0.7024  0.0519
22808SOL    HW273555   8.372   1.461  10.508  3.8395 -2.0064 -1.7232
22809SOL     OW73556   7.634   2.236   2.011 -0.4043 -0.0068 -0.6281
22809SOL    HW173557   7.539   2.248   2.009 -0.7990 -2.2439  1.3775
22809SOL    HW273558   7.646   2.143   1.988  1.2011 -0.0732  0.4433
22810SOL     OW73559   5.996   3.491   0.999  0.2126 -0.7205 -0.4603
22810SOL    HW173560   6.071   3.431   1.006  0.1656 -0.7727 -0.3998
22810SOL    HW273561   6.020   3.552   0.930  0.4245 -0.5741 -0.2565
22811SOL     OW73562   2.720   6.308   5.716 -0.0499 -0.2742 -0.3087
22811SOL    HW173563   2.764   6.352   5.788 -0.1229 -1.7058  0.6230
22811SOL    HW273564   2.667   6.376   5.675  0.8956  0.8172  0.2530
22812SOL     OW73565  11.235   3.557   8.543 -0.6486  0.7743 -0.5671
22812SOL    HW173566  11.216   3.563   8.449  0.6314 -1.1031 -0.9735
22812SOL    HW273567  11.197   3.473   8.569  0.5183  0.4852  0.2075
22813SOL     OW73568   3.083  10.040   2.398  0.1243  0.1107  0.0795
22813SOL    HW173569   3.050  10.129   2.416 -1.8405 -0.4534 -0.5499
22813SOL    HW273570   3.058  10.024   2.307  1.4844 -0.6620 -0.1567
22814SOL     OW73571   2.369   7.417   6.291  0.0877 -0.2479  0.9081
22814SOL    HW173572   2.427   7.342   6.309 -0.7938 -0.9299  0.9211
22814SOL    HW273573   2.394   7.445   6.203  0.1942 -0.7662  0.7671
22815SOL     OW73574   6.297   6.404   6.348  0.2127 -0.5534  0.1741
22815SOL    HW173575   6.226   6.409   6.285 -0.1773 -2.0627  0.4624
22815SOL    HW273576   6.339   6.319   6.331 -0.0838 -1.1217  2.1026
22816SOL     OW73577   1.150   1.453   6.752  0.7669  0.6886  0.0916
22816SOL    HW173578   1.229   1.498   6.721  0.8562  0.6337  0.2379
22816SOL    HW273579   1.079   1.514   6.733  0.8635  0.8082  0.1107
22817SOL     OW73580   6.974  10.247   1.453 -0.1410 -0.0216 -0.1039
22817SOL    HW173581   7.058  10.256   1.499 -0.6149 -0.1253  0.7809
22817SOL    HW273582   6.918  10.314   1.491 -0.9381 -0.9490  0.3869
22818SOL     OW73583   1.211  10.490  10.554 -0.5122  0.3565  0.8935
22818SOL    HW173584   1.264  10.459  10.481 -2.1437  1.0586 -0.6365
22818SOL    HW273585   1.122  10.460  10.534 -1.1605  1.4225  2.0599
22819SOL     OW73586   3.699   4.110   5.170  0.1509  0.1576 -0.0019
22819SOL    HW173587   3.643   4.128   5.095  1.3962  0.9156 -0.7545
22819SOL    HW273588   3.786   4.136   5.142  0.3755  1.9621  2.2432
22820SOL     OW73589  10.290   6.764   5.287 -0.4932 -0.1644 -0.2356
22820SOL    HW173590  10.235   6.699   5.331  1.1468 -2.1220 -1.0145
22820SOL    HW273591  10.229   6.820   5.240 -1.9584 -0.9482  0.7067
22821SOL     OW73592   6.153   9.963   5.439  0.1388  0.1635  0.1729
22821SOL    HW173593   6.228   9.934   5.386 -1.6578 -2.6964 -0.9266
22821SOL    HW273594   6.107  10.025   5.383  0.4070  0.1092 -0.1107
22822SOL     OW73595   8.349   3.794   8.482 -0.7680 -0.0205  0.2632
22822SOL    HW173596   8.372   3.823   8.570 -0.2070  1.6265 -0.3946
22822SOL    HW273597   8.388   3.707   8.474 -1.2606 -0.3987  1.8107
22823SOL     OW73598   3.143   9.050   3.398  0.0007  0.2755  0.0663
22823SOL    HW173599   3.117   8.961   3.419 -1.0816  0.6780  0.4699
22823SOL    HW273600   3.092   9.105   3.458  0.9186  1.1447  0.0744
22824SOL     OW73601   2.310   8.855   1.591  0.4942  0.3773  0.3248
22824SOL    HW173602   2.250   8.852   1.517  2.1513 -1.8574 -0.9888
22824SOL    HW273603   2.321   8.763   1.617  0.6492  1.0546  2.7702
22825SOL     OW73604   9.366  10.897   2.241  0.2770 -0.2907 -0.5300
22825SOL    HW173605   9.444  10.879   2.188 -0.6892 -0.8299 -1.8078
22825SOL    HW273606   9.380  10.985   2.275  2.7200 -1.4191  1.5553
22826SOL     OW73607   6.637  11.162  10.246 -0.2986  0.6254 -0.0546
22826SOL    HW173608   6.557  11.211  10.265 -0.9301  0.0134 -1.0924
22826SOL    HW273609   6.644  11.098  10.316 -0.1434  1.3633  0.6151
22827SOL     OW73610   0.778  10.536  10.913  0.0456 -0.3392 -0.2393
22827SOL    HW173611   0.727  10.475  10.966 -1.5972  2.0618  1.0106
22827SOL    HW273612   0.867  10.528  10.947 -0.0129 -2.4377 -0.4953
22828SOL     OW73613   9.865   3.516   3.832 -0.3103 -0.0292  0.4742
22828SOL    HW173614   9.808   3.587   3.800 -1.3118 -0.4540  1.2634
22828SOL    HW273615   9.877   3.536   3.925  1.8978  0.7468  0.0327
22829SOL     OW73616   3.811   4.062   3.893  0.2540 -0.3847  0.4793
22829SOL    HW173617   3.740   4.069   3.957  0.8756 -0.5604  1.1921
22829SOL    HW273618   3.826   3.968   3.883  0.3192 -0.3516  0.2514
22830SOL     OW73619  10.060  10.611   3.432 -0.0338  0.3588  0.0114
22830SOL    HW173620   9.972  10.574   3.422  0.1611 -0.2488  0.4884
22830SOL    HW273621  10.046  10.704   3.449 -0.5757  0.2961 -0.0927
22831SOL     OW73622   6.060   9.737   0.610 -0.3723 -0.0799  0.8837
22831SOL    HW173623   6.090   9.827   0.627 -1.3875  0.1794  1.3590
22831SOL    HW273624   6.102   9.684   0.678 -0.2042  0.1244  0.9400
22832SOL     OW73625   0.230   9.158  11.276  0.5199 -0.0150  0.3152
22832SOL    HW173626   0.309   9.140  11.224  1.5768  0.4421  1.7478
22832SOL    HW273627   0.232   9.092  11.345 -0.2682  0.1012  0.4452
22833SOL     OW73628   9.820   9.805   1.212  0.2076  0.1406 -0.5223
22833SOL    HW173629   9.839   9.711   1.213 -1.1536 -0.1479  0.1085
22833SOL    HW273630   9.808   9.825   1.119 -1.5914 -0.7796 -0.5145
22834SOL     OW73631   1.199   7.814  11.120 -0.3640 -0.1261  0.0268
22834SOL    HW173632   1.190   7.812  11.215  1.3754 -1.0204  0.1815
22834SOL    HW273633   1.258   7.887  11.102 -0.0161 -0.4831 -0.3056
22835SOL     OW73634   7.632   5.511   6.076 -0.1303 -0.2484 -0.9052
22835SOL    HW173635   7.692   5.475   6.010 -3.1579 -0.8323 -3.4795
22835SOL    HW273636   7.610   5.598   6.044 -0.2548  0.1687  0.2908
22836SOL     OW73637   9.164   2.065   7.232 -0.4107 -0.4084 -0.0305
22836SOL    HW173638   9.102   2.091   7.300  0.1478 -1.5455  0.9383
22836SOL    HW273639   9.188   1.975   7.255  0.0644 -0.6744 -1.5282
22837SOL     OW73640   9.686   6.425   4.032 -0.3893  0.4692  0.2336
22837SOL    HW173641   9.739   6.422   3.952 -0.6900  1.1787  0.0037
22837SOL    HW273642   9.747   6.404   4.102 -0.3955 -1.4557 -0.3045
22838SOL     OW73643   2.841   7.729   5.189  0.2069 -0.6253  1.0178
22838SOL    HW173644   2.896   7.803   5.164  0.8502 -0.7692  1.9819
22838SOL    HW273645   2.768   7.731   5.127 -0.6416  1.7974  2.0725
22839SOL     OW73646   6.331   3.801   1.353 -0.4317 -0.2373  0.8483
22839SOL    HW173647   6.279   3.805   1.433  0.9072  1.2831  1.6481
22839SOL    HW273648   6.331   3.708   1.330 -1.9258 -0.5114  1.8670
22840SOL     OW73649   3.907   0.665   3.938 -0.1970  0.2894 -0.8298
22840SOL    HW173650   3.889   0.754   3.971 -0.3423  1.0850 -2.9606
22840SOL    HW273651   3.997   0.647   3.965 -0.3382  0.8986  0.0565
22841SOL     OW73652   4.450   3.170   4.668  0.0843  0.0893  0.1938
22841SOL    HW173653   4.395   3.187   4.591 -0.4992 -2.1616  0.1001
22841SOL    HW273654   4.420   3.234   4.733 -1.7920 -0.2937 -0.2677
22842SOL     OW73655   0.073   8.515   1.750  0.1770 -0.3668  0.2566
22842SOL    HW173656   0.134   8.465   1.696 -0.3774  0.7739 -1.4513
22842SOL    HW273657   0.066   8.600   1.706 -0.9715  0.2680  1.6328
22843SOL     OW73658  10.681   8.143   2.581 -0.0316  0.2436 -0.6042
22843SOL    HW173659  10.588   8.141   2.560 -0.2154  0.3545  0.1856
22843SOL    HW273660  10.725   8.129   2.497 -0.7732 -1.5198 -0.7171
22844SOL     OW73661   6.574   1.467  10.410 -0.3838 -0.2016  0.2748
22844SOL    HW173662   6.538   1.419  10.335 -0.1044 -0.3256  0.2180
22844SOL    HW273663   6.520   1.442  10.484  0.2415 -1.2039  0.3967
22845SOL     OW73664   5.840  10.592   8.991 -0.6200 -0.8328 -0.6273
22845SOL    HW173665   5.884  10.541   9.059  0.3471  1.3912  0.4838
22845SOL    HW273666   5.905  10.601   8.922 -0.9279 -1.4275 -0.9995
22846SOL     OW73667  10.586  11.017   8.949  0.2359 -0.5403 -0.3807
22846SOL    HW173668  10.629  11.103   8.950  0.2181 -0.5363  0.3194
22846SOL    HW273669  10.566  11.002   8.857  0.9266 -0.1320 -0.6059
22847SOL     OW73670   3.529   2.195  10.452 -0.4107  0.4786  0.1320
22847SOL    HW173671   3.498   2.252  10.523  0.0877 -1.0384  1.6103
22847SOL    HW273672   3.589   2.250  10.402  1.0855  0.9168  2.3163
22848SOL     OW73673   0.578   4.016   3.759  0.4240 -0.4003  0.5571
22848SOL    HW173674   0.550   4.051   3.844  1.6018  1.0168  0.3744
22848SOL    HW273675   0.671   3.997   3.771  0.5272 -0.4564 -0.3343
22849SOL     OW73676   9.239   8.882   0.826 -0.7082 -0.2248  0.0925
22849SOL    HW173677   9.217   8.975   0.836 -0.0614 -0.0612  0.0165
22849SOL    HW273678   9.184   8.838   0.891  2.8642  0.7565  3.9887
22850SOL     OW73679   7.051   0.334  10.839  0.0617 -0.0207 -0.0517
22850SOL    HW173680   7.005   0.385  10.772 -2.0477 -0.7962  0.7384
22850SOL    HW273681   7.138   0.320  10.804 -0.7865  0.2041 -2.3292
22851SOL     OW73682   1.535   1.814   6.359 -0.4432  0.3979 -0.0778
22851SOL    HW173683   1.592   1.802   6.283  0.8159  0.4069  0.8562
22851SOL    HW273684   1.542   1.732   6.407 -1.0255  0.4948  0.1739
22852SOL     OW73685   6.540   8.087   0.642 -0.1041 -0.0063 -0.1519
22852SOL    HW173686   6.577   8.021   0.700 -1.7653  1.7019  2.9573
22852SOL    HW273687   6.566   8.058   0.554  1.8195 -3.0756  1.3240
22853SOL     OW73688   4.142   8.344   8.530 -0.0796 -0.2756 -0.5123
22853SOL    HW173689   4.196   8.299   8.596  1.6970  1.7256 -0.5531
22853SOL    HW273690   4.054   8.310   8.545  0.5636 -1.0263  1.8818
22854SOL     OW73691   5.003   4.732   2.613  0.2796 -0.2077  0.2526
22854SOL    HW173692   5.049   4.741   2.529  1.2033 -0.5203  0.7139
22854SOL    HW273693   4.924   4.682   2.592  0.5327 -0.3276 -0.4281
22855SOL     OW73694   2.524   4.652   0.271 -0.1319 -0.6905  0.2194
22855SOL    HW173695   2.436   4.650   0.308  0.1748 -0.4481  0.9682
22855SOL    HW273696   2.569   4.721   0.320  0.1133  0.0099 -0.9833
22856SOL     OW73697   7.917   5.352   3.506 -0.0511  0.2426 -0.5025
22856SOL    HW173698   7.933   5.443   3.481 -2.9234  0.8496 -0.1996
22856SOL    HW273699   7.955   5.301   3.435 -0.1176  1.7080 -1.6040
22857SOL     OW73700  10.793  10.679   8.455  0.2246 -0.4044 -0.1587
22857SOL    HW173701  10.846  10.747   8.495  0.4226  0.5467 -2.0096
22857SOL    HW273702  10.767  10.623   8.529  0.7686  1.1599  1.2557
22858SOL     OW73703   9.274   9.901   5.017  0.3915 -0.0451 -0.0298
22858SOL    HW173704   9.301   9.906   4.925  1.4398  1.1186  0.3308
22858SOL    HW273705   9.242   9.812   5.028  0.6693 -0.3217 -1.4178
22859SOL     OW73706  10.632   2.298  11.324  0.7077  0.3017 -0.6916
22859SOL    HW173707  10.669   2.222  11.280 -0.6735  0.3130 -1.9305
22859SOL    HW273708  10.551   2.266  11.364  0.5577  0.9158 -0.4895
22860SOL     OW73709   7.383   2.162   5.708 -0.0754 -0.0803 -0.0443
22860SOL    HW173710   7.468   2.174   5.749  0.4586 -0.4592 -1.0353
22860SOL    HW273711   7.322   2.212   5.763  0.7423 -0.0067  0.7941
22861SOL     OW73712  10.059   2.841   4.781  0.5554  0.0031 -0.0939
22861SOL    HW173713  10.032   2.771   4.841  0.4804  0.2570  0.1694
22861SOL    HW273714  10.046   2.921   4.831  0.6856  0.2028 -0.3815
22862SOL     OW73715   2.667   3.726   1.311  0.3081 -0.1894  0.7041
22862SOL    HW173716   2.704   3.798   1.362  0.7422  0.8467 -1.0336
22862SOL    HW273717   2.740   3.691   1.261 -0.4737  0.0313 -0.6224
22863SOL     OW73718   2.370   0.338   0.810 -0.3726 -0.6690 -0.0856
22863SOL    HW173719   2.297   0.287   0.775  0.7062 -2.5293  0.2722
22863SOL    HW273720   2.417   0.371   0.733  0.3925 -2.4006 -0.3821
22864SOL     OW73721   0.640   5.025   3.804 -0.4707 -0.1395 -0.2379
22864SOL    HW173722   0.587   5.071   3.740 -0.3705 -0.9365 -0.9115
22864SOL    HW273723   0.730   5.031   3.770 -0.3699 -0.2559  0.0046
22865SOL     OW73724   3.439   9.072   9.683  0.1401  0.3499  0.1570
22865SOL    HW173725   3.405   9.042   9.598 -0.2480 -0.3549  0.5546
22865SOL    HW273726   3.432   9.168   9.679  0.1813  0.3225 -0.6338
22866SOL     OW73727   9.935   0.005   9.311 -0.2972  0.2479  0.2840
22866SOL    HW173728   9.910   0.089   9.273 -1.9118 -1.6392 -3.0211
22866SOL    HW273729   9.853  -0.045   9.313  0.6578 -1.2838  2.1636
22867SOL     OW73730   4.327   5.245  10.163  0.0700  0.0644 -0.3613
22867SOL    HW173731   4.278   5.324  10.141  0.5059  0.4193 -0.0522
22867SOL    HW273732   4.409   5.276  10.201 -0.2224 -0.5333  0.8006
22868SOL     OW73733   8.404   8.451   3.768  0.4324 -0.1280 -0.4705
22868SOL    HW173734   8.352   8.517   3.724 -2.2624 -0.4230  2.1041
22868SOL    HW273735   8.461   8.500   3.827 -1.2975  0.0025  1.1587
22869SOL     OW73736   0.882   5.112   5.750 -0.0187 -0.4235 -0.3728
22869SOL    HW173737   0.817   5.053   5.790 -1.1632  1.4740  0.6128
22869SOL    HW273738   0.964   5.087   5.791 -0.8896  0.2709  1.9115
22870SOL     OW73739  10.269  11.281  10.723  0.3641  0.3223  0.2984
22870SOL    HW173740  10.256  11.365  10.765 -0.5486  1.3748 -1.9954
22870SOL    HW273741  10.196  11.227  10.753  1.9726 -0.3356  3.2537
22871SOL     OW73742   6.906   7.982   2.067 -0.4709 -0.3005 -0.2962
22871SOL    HW173743   6.819   7.997   2.030 -0.6509 -1.0660 -0.2013
22871SOL    HW273744   6.965   8.030   2.009 -1.0526  1.0903  0.2514
22872SOL     OW73745  11.091   7.598  10.822  0.0656 -0.7239  0.0358
22872SOL    HW173746  11.179   7.635  10.809  1.1868 -3.0041  0.8671
22872SOL    HW273747  11.106   7.518  10.872 -2.6108 -0.6201  1.0985
22873SOL     OW73748  10.813  10.797   3.978  0.1347 -0.0579 -0.1748
22873SOL    HW173749  10.878  10.748   4.029 -1.0426  0.1179  1.5315
22873SOL    HW273750  10.810  10.883   4.021  0.9412  0.9578 -2.0957
22874SOL     OW73751  10.854   5.675  10.866 -0.0419  0.1815  0.6104
22874SOL    HW173752  10.931   5.624  10.838 -0.3117  0.5472 -0.8671
22874SOL    HW273753  10.794   5.610  10.903 -0.0775 -0.4822 -0.5902
22875SOL     OW73754   0.131   6.539   5.228 -0.4278 -0.0372 -0.3228
22875SOL    HW173755   0.148   6.445   5.233 -3.4635 -0.5612  1.1008
22875SOL    HW273756   0.210   6.579   5.265  0.4920 -2.0441 -0.0290
22876SOL     OW73757   2.841   2.444   6.220  0.7082 -0.1546  0.3909
22876SOL    HW173758   2.930   2.457   6.252  1.0646  0.2775 -0.7336
22876SOL    HW273759   2.789   2.511   6.265  0.7906 -0.9630  1.6884
22877SOL     OW73760   2.600   8.686   9.085 -0.2787  0.0279 -0.5835
22877SOL    HW173761   2.684   8.667   9.128  0.2568  3.1175 -0.1530
22877SOL    HW273762   2.539   8.702   9.157 -0.5227  0.6289 -0.9211
22878SOL     OW73763   8.630   6.788  11.108 -0.3427 -0.0491  0.5453
22878SOL    HW173764   8.611   6.795  11.015  0.6331 -1.2266  0.2440
22878SOL    HW273765   8.562   6.729  11.142  0.8348 -1.7006  0.0761
22879SOL     OW73766   4.141  10.778   7.490 -0.3240  0.1814 -0.3264
22879SOL    HW173767   4.070  10.763   7.552 -0.7348 -1.0435 -1.0758
22879SOL    HW273768   4.175  10.864   7.513 -1.4149  0.3612  0.6594
22880SOL     OW73769   3.429   7.578   2.898  0.1919 -0.1476 -0.2518
22880SOL    HW173770   3.414   7.487   2.923  1.0115  0.0933  1.2401
22880SOL    HW273771   3.355   7.625   2.937  0.8074  0.0674  0.6759
22881SOL     OW73772   3.394   1.110   8.713 -0.0050 -0.1857  0.1473
22881SOL    HW173773   3.413   1.146   8.627  1.9539  2.5864  1.6416
22881SOL    HW273774   3.477   1.075   8.744 -0.5704 -0.7067  1.1228
22882SOL     OW73775   5.509   2.691   7.650  0.5645 -0.6116  0.2094
22882SOL    HW173776   5.499   2.729   7.562  1.3635 -0.0502  0.3592
22882SOL    HW273777   5.585   2.736   7.687  2.3502 -3.2738 -0.0970
22883SOL     OW73778   2.071   6.509   5.712  0.5757 -0.1674 -0.0956
22883SOL    HW173779   2.091   6.428   5.758 -1.3639  0.2391  1.4883
22883SOL    HW273780   2.123   6.576   5.756 -0.6612  0.0809  1.0033
22884SOL     OW73781   4.707   6.157   0.293  0.0509 -0.0174 -0.3279
22884SOL    HW173782   4.741   6.125   0.209  0.3621 -0.1419 -0.1534
22884SOL    HW273783   4.698   6.252   0.280 -1.1541 -0.1974 -0.9444
22885SOL     OW73784  11.085   9.147   5.613 -0.0655  0.2054 -0.4659
22885SOL    HW173785  11.149   9.089   5.656 -0.5803 -0.8433 -1.1101
22885SOL    HW273786  11.131   9.231   5.606  0.9169 -0.2841 -0.1022
22886SOL     OW73787   4.826   1.856   9.971 -0.0222  0.1273  0.3641
22886SOL    HW173788   4.805   1.836   9.880  0.5789  1.5110 -0.0926
22886SOL    HW273789   4.898   1.797   9.993 -1.1048 -1.2093  0.4074
22887SOL     OW73790  10.829   8.180   9.390 -0.5353 -0.4577 -0.0034
22887SOL    HW173791  10.876   8.181   9.307 -0.5662 -0.4645 -0.0199
22887SOL    HW273792  10.896   8.203   9.455 -0.6062 -0.0480 -0.0764
22888SOL     OW73793   3.312   1.099   5.390  0.2370  0.1072  0.1107
22888SOL    HW173794   3.250   1.030   5.367 -0.3640  0.5566  0.3850
22888SOL    HW273795   3.317   1.097   5.485  0.0790  0.5666  0.1288
22889SOL     OW73796   3.979   7.488   0.856 -0.2921 -0.3917  0.2894
22889SOL    HW173797   3.927   7.426   0.805  1.3698 -2.0566  0.5413
22889SOL    HW273798   4.000   7.558   0.795 -1.4262 -0.5199 -0.2633
22890SOL     OW73799  10.663   0.326   5.936  0.2437 -0.4278 -0.5354
22890SOL    HW173800  10.644   0.286   6.021  2.3692  0.7445  0.5328
22890SOL    HW273801  10.636   0.418   5.946  0.5042 -0.2858 -1.1082
22891SOL     OW73802   7.193  10.827   3.727  0.1166 -0.1211 -0.2362
22891SOL    HW173803   7.252  10.788   3.663  1.4787 -0.6291  1.2910
22891SOL    HW273804   7.187  10.919   3.701  2.1314  0.0931 -0.0271
22892SOL     OW73805   0.391   8.682   7.643 -0.0365  0.2302 -0.0709
22892SOL    HW173806   0.379   8.724   7.727 -0.6842  1.7141 -0.8927
22892SOL    HW273807   0.485   8.688   7.626 -0.1074  1.2317 -0.1239
22893SOL     OW73808   0.330   0.639   4.505 -0.1662  0.5381 -0.5868
22893SOL    HW173809   0.367   0.586   4.575 -1.1528  0.1924 -0.3066
22893SOL    HW273810   0.404   0.661   4.449  0.4896  0.0835  0.0906
22894SOL     OW73811   9.301   0.613   7.065 -1.0107  0.5741 -0.3832
22894SOL    HW173812   9.369   0.569   7.013 -0.4657  0.2063  0.6425
22894SOL    HW273813   9.220   0.571   7.037 -0.5325 -0.9133  0.3684
22895SOL     OW73814   3.010  10.820   4.205 -0.0842  0.2967  0.3503
22895SOL    HW173815   3.084  10.881   4.208 -1.3579  1.9966 -1.8911
22895SOL    HW273816   3.002  10.795   4.113 -1.4193 -0.9930  0.7871
22896SOL     OW73817   0.025   2.484   9.126 -0.2320 -0.0760 -0.3047
22896SOL    HW173818  -0.021   2.567   9.143 -0.6818  0.0612 -2.1142
22896SOL    HW273819   0.112   2.511   9.097 -0.3294 -0.2417 -0.7506
22897SOL     OW73820   4.604   4.003   9.821  0.1830  0.6241 -0.0482
22897SOL    HW173821   4.624   3.979   9.730 -1.5587  1.4553 -0.6522
22897SOL    HW273822   4.687   4.039   9.854  1.0828 -0.4877 -1.0150
22898SOL     OW73823   5.296   6.893   9.769  0.5013  0.4531 -0.6665
22898SOL    HW173824   5.218   6.946   9.749  0.6243  1.0607  0.4229
22898SOL    HW273825   5.276   6.853   9.853  2.1076  2.0707  0.5269
22899SOL     OW73826   8.126   3.869   2.573  0.3435  0.6149  0.3930
22899SOL    HW173827   8.130   3.965   2.565  1.4288  0.5730  0.3448
22899SOL    HW273828   8.158   3.838   2.488 -1.8558  0.2034 -0.3212
22900SOL     OW73829   3.052  11.263   3.565 -0.0885 -0.2518  0.0112
22900SOL    HW173830   3.042  11.171   3.591  1.1594 -0.6026 -0.7281
22900SOL    HW273831   3.010  11.269   3.479 -0.2412 -0.1089  0.0950
22901SOL     OW73832   0.197   2.536   3.854 -0.0504  0.6473 -0.0638
22901SOL    HW173833   0.181   2.488   3.936 -0.8463  1.2992  0.1731
22901SOL    HW273834   0.169   2.476   3.785 -1.0552  0.7554  0.2323
22902SOL     OW73835   4.107  10.613   3.241 -0.2850 -0.4539  0.7427
22902SOL    HW173836   4.179  10.633   3.181 -2.3671  0.6402 -1.4660
22902SOL    HW273837   4.148  10.563   3.312  3.0908  2.2514  0.8289
22903SOL     OW73838   9.704   3.816   3.269 -0.6004 -0.3276 -0.7026
22903SOL    HW173839   9.737   3.744   3.322  1.0014  0.7153 -0.2644
22903SOL    HW273840   9.697   3.890   3.330 -0.9964  0.2441 -1.4305
22904SOL     OW73841  10.417   9.312   1.664  0.5819 -0.0596 -0.0034
22904SOL    HW173842  10.486   9.362   1.621  0.1048 -0.2299 -0.9918
22904SOL    HW273843  10.343   9.373   1.668  1.6693  1.1668  3.8013
22905SOL     OW73844   2.708   2.923   4.447 -0.0043 -0.0438 -0.1313
22905SOL    HW173845   2.613   2.936   4.450  0.2439  1.9142 -0.2314
22905SOL    HW273846   2.737   2.937   4.537  0.2811  0.1450 -0.2501
22906SOL     OW73847   4.393  11.009   4.091  0.1098 -0.6055  0.7961
22906SOL    HW173848   4.352  10.975   4.171  1.9078  1.4529  2.6534
22906SOL    HW273849   4.323  11.056   4.046 -0.9448 -1.8789  1.0662
22907SOL     OW73850   8.787   2.436   4.460 -0.0691 -0.0780 -0.0240
22907SOL    HW173851   8.793   2.498   4.387 -1.1801  0.4186  0.2925
22907SOL    HW273852   8.789   2.492   4.538  2.5909 -0.6924  0.4038
22908SOL     OW73853   4.044   4.489   4.709 -0.1752  0.0886 -0.0771
22908SOL    HW173854   4.118   4.509   4.767 -1.0485  0.7679  0.8132
22908SOL    HW273855   4.027   4.396   4.722  1.5937 -0.4794 -1.5483
22909SOL     OW73856  10.279   3.853   3.748 -0.1270 -0.2692  0.1551
22909SOL    HW173857  10.319   3.903   3.819 -0.0499 -1.4505  0.9582
22909SOL    HW273858  10.325   3.881   3.670  0.5772  0.2057  0.7391
22910SOL     OW73859   4.192   6.304   3.699 -0.1028  0.3919  0.2343
22910SOL    HW173860   4.112   6.356   3.685  0.1994  1.0571  0.9067
22910SOL    HW273861   4.255   6.342   3.638 -0.4959 -0.5904 -0.7943
22911SOL     OW73862   0.077   1.037   9.530 -0.2118  0.3205  0.3173
22911SOL    HW173863   0.057   1.123   9.567 -1.2513 -0.2551  1.1328
22911SOL    HW273864   0.034   1.037   9.444 -1.0648  0.2634  0.7332
22912SOL     OW73865   3.838   6.902   3.233  0.2229  0.1520 -0.0562
22912SOL    HW173866   3.775   6.972   3.246  0.9439  0.4714  1.9625
22912SOL    HW273867   3.794   6.823   3.264  1.0804  0.5188  2.2134
22913SOL     OW73868   6.201   9.914   5.051  0.4970 -0.2077  0.3799
22913SOL    HW173869   6.294   9.931   5.064  0.7111 -1.3687  0.4433
22913SOL    HW273870   6.197   9.822   5.024 -0.4312  0.5338 -2.1017
22914SOL     OW73871   2.268   9.826  10.734  0.0489  0.5923 -0.5981
22914SOL    HW173872   2.306   9.884  10.800 -1.0563 -0.2101  0.7535
22914SOL    HW273873   2.324   9.839  10.657  1.3181  1.5821  0.4528
22915SOL     OW73874   7.192   6.824   2.086  0.6496 -0.1207 -0.1070
22915SOL    HW173875   7.177   6.729   2.095  0.5933 -0.0765  0.2820
22915SOL    HW273876   7.233   6.849   2.169  2.9367 -0.2517 -1.1746
22916SOL     OW73877   2.779  10.143   2.611 -0.2379 -0.2180  0.7444
22916SOL    HW173878   2.689  10.114   2.599 -0.9402  0.9319  3.0718
22916SOL    HW273879   2.820  10.074   2.663  0.2735 -0.7434 -0.3151
22917SOL     OW73880   3.840   8.449   8.967 -0.0392  0.5301  0.0569
22917SOL    HW173881   3.910   8.454   9.031  0.3483 -0.2825 -0.3007
22917SOL    HW273882   3.875   8.493   8.889 -0.5024  1.5018  0.3840
22918SOL     OW73883  10.715   0.745   9.281  0.4041 -0.0500 -0.6156
22918SOL    HW173884  10.709   0.668   9.224  0.3976  0.7522 -1.7274
22918SOL    HW273885  10.660   0.810   9.239  0.4677  0.5873  0.2781
22919SOL     OW73886  11.019  10.594   2.735 -0.0961  0.0124 -0.0324
22919SOL    HW173887  11.077  10.566   2.806 -0.7211 -1.5573 -0.1182
22919SOL    HW273888  11.065  10.667   2.694  1.0298 -0.1272  0.9492
22920SOL     OW73889  11.244   2.595   3.714  0.6333 -0.3923 -0.1747
22920SOL    HW173890  11.214   2.626   3.628 -0.9066  0.0025  0.4930
22920SOL    HW273891  11.304   2.523   3.693 -1.7140 -2.0325 -1.5420
22921SOL     OW73892   5.656   0.184   3.984  0.1395  0.0612  0.3185
22921SOL    HW173893   5.722   0.127   3.944 -1.0618 -0.1494 -1.4562
22921SOL    HW273894   5.626   0.136   4.061  0.1646 -1.0508 -0.3536
22922SOL     OW73895   6.515   9.888   9.577  0.6172 -0.6393  0.6398
22922SOL    HW173896   6.522   9.933   9.492  1.5328 -0.2359  0.9235
22922SOL    HW273897   6.532   9.957   9.641 -1.3210 -0.6617  1.2117
22923SOL     OW73898   1.979   8.586   4.967  0.0291  0.6369  0.3574
22923SOL    HW173899   1.969   8.491   4.969 -0.0342  0.6719  1.9244
22923SOL    HW273900   1.892   8.618   4.942 -0.4406  0.3594  1.5957
22924SOL     OW73901  10.054   8.594   6.167 -0.4533 -0.7029 -0.2007
22924SOL    HW173902   9.996   8.669   6.183 -1.8904 -1.8826  0.2594
22924SOL    HW273903  10.046   8.578   6.073 -2.9031 -2.4317  0.2521
22925SOL     OW73904   3.693   7.812  10.165 -0.1850 -0.5860 -0.3159
22925SOL    HW173905   3.598   7.820  10.157 -0.2045 -0.7960 -0.2924
22925SOL    HW273906   3.708   7.719  10.180 -0.1578 -0.2180  2.1005
22926SOL     OW73907   8.008   5.886   4.245  0.5115 -0.5109 -0.1080
22926SOL    HW173908   7.918   5.911   4.224  0.1469 -0.2582  1.6681
22926SOL    HW273909   8.001   5.834   4.326  2.1186  1.2273  1.2056
22927SOL     OW73910   1.950   6.795   5.923  0.2969  0.3967  0.0081
22927SOL    HW173911   1.921   6.807   5.833  2.9969  1.2879 -0.7998
22927SOL    HW273912   1.907   6.865   5.972 -0.6341  0.3381 -0.7117
22928SOL     OW73913   3.484   5.385   1.682 -0.4307  0.6542 -0.0879
22928SOL    HW173914   3.472   5.430   1.766  1.2476  1.6365 -0.3615
22928SOL    HW273915   3.543   5.312   1.703 -1.3902 -0.1339 -0.0873
22929SOL     OW73916   1.097   8.829   4.326 -0.7957 -0.6756  0.6727
22929SOL    HW173917   1.189   8.842   4.349 -0.5296  0.7096 -1.0939
22929SOL    HW273918   1.053   8.822   4.411  0.2887  3.2810  1.6980
22930SOL     OW73919   4.720   0.475   3.811 -0.3256  0.4121 -0.4297
22930SOL    HW173920   4.762   0.419   3.746 -0.0054  0.1152  0.0357
22930SOL    HW273921   4.636   0.499   3.771 -0.6659 -0.7728 -0.4300
22931SOL     OW73922   1.856   8.631   8.732  0.4873 -0.6043  0.4826
22931SOL    HW173923   1.952   8.636   8.734  0.4541  0.2251 -0.0277
22931SOL    HW273924   1.835   8.601   8.644  0.2386  0.1156  0.2937
22932SOL     OW73925   5.642   7.583   9.729  0.1125  0.3333  0.3223
22932SOL    HW173926   5.548   7.585   9.749  0.0484 -0.1059  0.0740
22932SOL    HW273927   5.648   7.615   9.639  0.1160 -0.4482  0.0430
22933SOL     OW73928   4.375   4.583   3.291 -0.4120 -0.6282  0.2787
22933SOL    HW173929   4.467   4.587   3.265 -0.3951 -0.5970  0.3439
22933SOL    HW273930   4.375   4.529   3.370 -0.4391 -0.5624  0.3237
22934SOL     OW73931   2.106   6.390  10.251  0.2983  0.1407 -0.0745
22934SOL    HW173932   2.132   6.451  10.319 -0.0066 -0.7715  0.8666
22934SOL    HW273933   2.178   6.327  10.245 -0.3696 -0.6916  0.5089
22935SOL     OW73934   8.711   3.211   1.702 -0.0324  0.1430 -0.1974
22935SOL    HW173935   8.706   3.304   1.679 -1.3163  0.8594  2.6496
22935SOL    HW273936   8.622   3.178   1.688  0.3750 -0.6087 -1.0174
22936SOL     OW73937   0.891   3.215   9.074 -1.1656  0.2319 -0.4721
22936SOL    HW173938   0.892   3.121   9.059 -1.5647  0.2433 -0.5603
22936SOL    HW273939   0.877   3.225   9.168  0.6469  0.1744 -0.1665
22937SOL     OW73940  10.256   3.336   9.257 -0.4754  0.4551  0.0188
22937SOL    HW173941  10.181   3.365   9.204 -0.5970  1.6772  0.8564
22937SOL    HW273942  10.332   3.376   9.216 -0.2177 -1.0342 -1.0183
22938SOL     OW73943   2.176   5.494   3.005  0.6027  0.0052 -0.0794
22938SOL    HW173944   2.185   5.419   2.945  0.5358 -0.6590  0.7235
22938SOL    HW273945   2.085   5.493   3.031  0.9227 -0.4903  1.0283
22939SOL     OW73946   4.882   5.415   5.389 -0.3998 -0.4151  0.5608
22939SOL    HW173947   4.926   5.463   5.458 -0.7064  0.3074  0.2572
22939SOL    HW273948   4.861   5.481   5.323  0.8531 -1.2750 -0.7182
22940SOL     OW73949   8.211   5.523   9.931 -0.0561 -0.1476  0.4563
22940SOL    HW173950   8.283   5.483   9.980  0.3053  1.9520  1.6807
22940SOL    HW273951   8.249   5.546   9.847  0.7154  0.9350  1.0945
22941SOL     OW73952   2.202   7.297   9.924 -0.2099  0.3974 -0.3972
22941SOL    HW173953   2.128   7.242   9.900 -0.5637  1.4273 -1.7280
22941SOL    HW273954   2.246   7.316   9.842  2.4325 -1.4118  0.5576
22942SOL     OW73955   3.981   4.467   2.040 -0.4083  0.3484  0.1087
22942SOL    HW173956   3.944   4.406   2.103 -0.7849  0.0332 -0.4092
22942SOL    HW273957   4.051   4.512   2.088 -1.2761  0.7540  1.0099
22943SOL     OW73958   9.397   7.371   2.125  0.0072  0.5535 -0.2634
22943SOL    HW173959   9.459   7.435   2.092  0.7818  0.1860  0.4480
22943SOL    HW273960   9.363   7.327   2.047 -0.6999  1.9842 -0.7605
22944SOL     OW73961  11.278   9.340   6.840  0.3753 -0.0505 -0.0421
22944SOL    HW173962  11.336   9.383   6.776 -0.7286  0.3000 -0.8268
22944SOL    HW273963  11.288   9.392   6.920  1.3281 -0.1364 -0.1064
22945SOL     OW73964   8.114   6.614   8.859 -0.3118  0.5909  0.7101
22945SOL    HW173965   8.131   6.688   8.919 -0.8058  3.0675 -2.1002
22945SOL    HW273966   8.021   6.620   8.840 -0.4914 -1.2165  0.9701
22946SOL     OW73967  10.714  10.337  10.190  0.2104 -1.0417 -0.1508
22946SOL    HW173968  10.759  10.421  10.185 -1.0708 -0.3660 -0.4652
22946SOL    HW273969  10.760  10.282  10.127  2.2759 -1.1948  1.3939
22947SOL     OW73970   2.076   0.062   8.826 -0.0458  0.2631  0.1011
22947SOL    HW173971   2.013   0.028   8.762  0.2075  0.0981 -0.0622
22947SOL    HW273972   2.094   0.152   8.796 -1.5313  0.9279  1.1445
22948SOL     OW73973   6.773   5.173   0.340  0.7838 -0.0173 -0.3885
22948SOL    HW173974   6.816   5.135   0.418  0.3319 -1.8689 -1.0055
22948SOL    HW273975   6.836   5.158   0.269  0.0824 -0.7446 -0.8690
22949SOL     OW73976   8.828   0.639  11.005  0.5297 -0.3310  0.0425
22949SOL    HW173977   8.876   0.674  11.080  1.2887 -0.6961 -0.2641
22949SOL    HW273978   8.812   0.715  10.948 -1.3331  0.2131  1.2465
22950SOL     OW73979  10.033  10.840   2.690  0.4225  0.2121 -0.4529
22950SOL    HW173980  10.086  10.906   2.645  0.2496  0.5388 -0.1846
22950SOL    HW273981  10.090  10.805   2.758 -0.6698  2.7828  1.8955
22951SOL     OW73982   9.341   8.002   4.161  0.9415 -0.2463  0.5246
22951SOL    HW173983   9.347   8.090   4.123  0.2869 -0.6226 -0.4638
22951SOL    HW273984   9.381   7.945   4.095 -0.1777 -0.9072  0.4055
22952SOL     OW73985   3.078   4.113   5.236 -0.1307  0.3949  0.3064
22952SOL    HW173986   3.145   4.118   5.305  1.5254  1.1967 -1.3295
22952SOL    HW273987   3.014   4.179   5.261 -1.7328 -2.1959  3.3239
22953SOL     OW73988   1.012   0.580   1.835 -0.3162  0.1368  0.5197
22953SOL    HW173989   1.077   0.625   1.782 -0.9207  0.6359  0.1999
22953SOL    HW273990   0.958   0.532   1.772  0.9391 -1.8720  0.9212
22954SOL     OW73991   8.400   4.095   9.681  0.0778 -0.1089  0.3669
22954SOL    HW173992   8.331   4.162   9.680  0.7738  0.6116 -0.7559
22954SOL    HW273993   8.406   4.069   9.773 -1.9668 -0.4873  0.4261
22955SOL     OW73994   3.061   9.224   3.194 -1.0363 -0.3899 -0.4280
22955SOL    HW173995   3.098   9.186   3.274  1.9870  1.8328 -0.6921
22955SOL    HW273996   3.125   9.203   3.126 -1.6316  1.1565 -1.4841
22956SOL     OW73997   9.257   7.600   2.221  0.8844 -0.5219 -1.0007
22956SOL    HW173998   9.273   7.546   2.144 -0.5311  0.4002 -1.9862
22956SOL    HW273999   9.242   7.538   2.291  1.2307 -1.3931 -1.6869
22957SOL     OW74000   7.049   3.138   8.473 -0.3196  0.1432 -0.2329
22957SOL    HW174001   6.976   3.118   8.532 -0.4510 -1.2937 -0.8641
22957SOL    HW274002   7.097   3.055   8.465 -0.0127  0.4450 -1.7339
22958SOL     OW74003  10.062   2.791  10.568 -0.1757 -0.4425 -0.7465
22958SOL    HW174004  10.091   2.868  10.618 -0.9814 -0.4570 -0.2557
22958SOL    HW274005  10.072   2.817  10.477  3.1906 -1.0974 -0.6436
22959SOL     OW74006   1.615   6.239   9.617 -0.4080 -0.1954  0.5019
22959SOL    HW174007   1.604   6.244   9.712  0.3735  2.3760  0.5088
22959SOL    HW274008   1.580   6.323   9.585 -1.4132 -1.3556 -1.5700
22960SOL     OW74009  10.259   0.627   9.254  0.2761 -0.0198 -0.1956
22960SOL    HW174010  10.166   0.650   9.247  0.5590  0.8039 -1.2115
22960SOL    HW274011  10.267   0.546   9.203  0.0611 -0.2764  0.1687
22961SOL     OW74012   2.075   7.763   6.309 -0.0568  0.1552 -0.0918
22961SOL    HW174013   2.108   7.759   6.399  2.0695 -0.5838 -0.8645
22961SOL    HW274014   2.072   7.672   6.281 -1.2668  0.3412 -0.5958
22962SOL     OW74015   4.078   6.187   8.478  0.2198 -0.2999 -0.1398
22962SOL    HW174016   4.150   6.147   8.526  0.7475  0.0070 -0.6596
22962SOL    HW274017   4.097   6.168   8.386 -0.4443 -0.3450 -0.2707
22963SOL     OW74018   3.395   1.763   9.374 -0.0277  0.2637 -0.0028
22963SOL    HW174019   3.337   1.721   9.310  1.0162  0.5565 -1.1630
22963SOL    HW274020   3.344   1.835   9.409 -1.2195 -0.9171  0.7282
22964SOL     OW74021   8.521   4.296   7.304 -0.1877 -0.6329  0.7082
22964SOL    HW174022   8.463   4.305   7.380  0.2929  0.4006  0.9616
22964SOL    HW274023   8.477   4.344   7.234 -0.7081 -1.7162  0.2821
22965SOL     OW74024   1.091   2.508   0.560  0.0024  0.0637 -0.3760
22965SOL    HW174025   0.999   2.531   0.543 -0.3339  0.6802  2.0277
22965SOL    HW274026   1.130   2.588   0.595  1.0225 -0.6377  0.1399
22966SOL     OW74027   1.719  10.562  10.869 -0.0799 -0.1262  0.1991
22966SOL    HW174028   1.673  10.612  10.935 -1.4570  0.9525 -1.5451
22966SOL    HW274029   1.728  10.474  10.907 -1.7639  0.2003  1.3696
22967SOL     OW74030  10.372   1.071   6.134 -0.0229 -0.0854 -0.1405
22967SOL    HW174031  10.353   1.016   6.058 -0.2577  1.0107 -0.8869
22967SOL    HW274032  10.294   1.125   6.146  0.8652  1.3315 -0.5154
22968SOL     OW74033   2.940   8.925   1.291  0.1931 -0.0317 -0.4585
22968SOL    HW174034   3.021   8.955   1.331 -0.3591  1.0610 -0.1465
22968SOL    HW274035   2.890   9.005   1.274 -0.8093 -0.6874 -0.6597
22969SOL     OW74036  10.173   0.528   5.156 -0.5187  0.0195 -0.0886
22969SOL    HW174037  10.091   0.523   5.205 -0.8277  0.6217 -0.5504
22969SOL    HW274038  10.204   0.437   5.153 -0.6813 -0.0734  0.9049
22970SOL     OW74039   8.742   6.468   2.206 -0.4842  0.5623  0.0786
22970SOL    HW174040   8.797   6.398   2.171  1.8556  1.9387  0.9137
22970SOL    HW274041   8.728   6.527   2.132 -0.4424  0.4590 -0.0117
22971SOL     OW74042  10.457   1.040   1.993 -0.3113  0.0488 -0.1384
22971SOL    HW174043  10.382   1.099   2.006  1.1560  2.0991 -0.6853
22971SOL    HW274044  10.482   1.014   2.081  0.1624  1.7514  0.2540
22972SOL     OW74045   6.856   0.798   9.769 -0.1899  0.3692  0.5355
22972SOL    HW174046   6.831   0.887   9.795 -0.7952  0.4117 -0.1691
22972SOL    HW274047   6.948   0.806   9.744  0.0789  0.5554  1.5578
22973SOL     OW74048   9.747   1.180   6.095  0.4504  0.3895 -0.2984
22973SOL    HW174049   9.696   1.241   6.148  0.6501  0.0177  0.3254
22973SOL    HW274050   9.835   1.216   6.093  0.4337  0.4251 -0.4084
22974SOL     OW74051   8.138   7.464   3.443 -0.2483 -0.0442  0.3283
22974SOL    HW174052   8.056   7.506   3.469 -0.8319  0.5855 -2.3923
22974SOL    HW274053   8.119   7.427   3.357  1.8175 -1.4306  0.4432
22975SOL     OW74054   1.521  10.276   0.509  0.3616 -0.4986  0.0127
22975SOL    HW174055   1.587  10.245   0.571  0.9217 -2.7233 -1.6234
22975SOL    HW274056   1.441  10.281   0.560  1.4155  0.5891  1.6132
22976SOL     OW74057   7.089   7.708  11.195  0.1573  0.2888 -0.1335
22976SOL    HW174058   7.158   7.641  11.192 -0.3046 -0.2650  1.3367
22976SOL    HW274059   7.123   7.775  11.255 -0.3590  0.2738  0.1747
22977SOL     OW74060   9.227   3.461   7.233  0.5179 -0.1988 -0.2086
22977SOL    HW174061   9.296   3.501   7.286 -0.3600  0.7581  0.2331
22977SOL    HW274062   9.217   3.374   7.270  0.3765  0.2261  0.7897
22978SOL     OW74063   8.595   0.071   4.656 -0.7286 -0.9206 -0.5086
22978SOL    HW174064   8.525   0.085   4.720 -0.6949  0.3797 -0.7383
22978SOL    HW274065   8.675   0.098   4.701 -0.4530 -1.8250 -0.4539
22979SOL     OW74066   0.569   9.730   2.816 -0.6596  0.1916 -0.0429
22979SOL    HW174067   0.490   9.732   2.870 -0.7677  1.6077 -0.2500
22979SOL    HW274068   0.619   9.808   2.841 -0.6207  0.7798 -1.8406
22980SOL     OW74069   9.517  10.478   0.211  0.2827  0.1460  0.1440
22980SOL    HW174070   9.612  10.482   0.209  0.4397 -2.5338  0.4946
22980SOL    HW274071   9.488  10.563   0.177  2.7676  1.9738  2.4156
22981SOL     OW74072   7.476   8.127   0.258 -0.0189 -0.3877  0.3317
22981SOL    HW174073   7.382   8.143   0.269 -0.0541 -1.0443  1.0025
22981SOL    HW274074   7.516   8.163   0.337  0.4364  1.0662 -0.5383
22982SOL     OW74075   8.506   3.602   7.905  0.1372 -0.1052  0.3937
22982SOL    HW174076   8.465   3.672   7.853 -0.0175 -0.9346 -0.6269
22982SOL    HW274077   8.447   3.588   7.978  0.0022  0.6055  0.4254
22983SOL     OW74078   1.072   3.274   2.387  0.1333  0.2935  0.0280
22983SOL    HW174079   1.055   3.356   2.435  0.4394  0.6542 -0.4718
22983SOL    HW274080   1.039   3.291   2.298  0.2545 -0.1070 -0.0941
22984SOL     OW74081   4.166   9.251   0.283  0.0754 -0.1587 -0.6387
22984SOL    HW174082   4.253   9.226   0.254 -0.1442 -0.7036 -0.8431
22984SOL    HW274083   4.112   9.174   0.266 -0.3253 -0.0254  0.0265
22985SOL     OW74084   4.800   4.626   7.861 -0.0001  0.5547  0.1291
22985SOL    HW174085   4.831   4.552   7.914  0.0404  0.2051 -0.3741
22985SOL    HW274086   4.869   4.692   7.869 -0.5773  1.0183  1.5396
22986SOL     OW74087   2.939   4.106   8.842  0.6197  0.1879  0.3094
22986SOL    HW174088   2.992   4.143   8.913 -0.4419  0.9945  0.6727
22986SOL    HW274089   2.942   4.171   8.772  0.6979 -0.0952  0.0418
22987SOL     OW74090   8.000   1.245   9.329 -0.1587  0.2580 -0.2167
22987SOL    HW174091   7.915   1.283   9.307 -0.0784  0.2915 -0.4620
22987SOL    HW274092   8.043   1.229   9.245  1.0992  2.5821 -0.0717
22988SOL     OW74093   6.858   8.309   3.417 -0.0463 -0.1486  0.0067
22988SOL    HW174094   6.887   8.336   3.504  0.5392  2.3906 -0.9261
22988SOL    HW274095   6.933   8.262   3.381  0.0688 -0.3459  0.5012
22989SOL     OW74096   3.095   2.669   5.693 -0.1735 -0.2735  0.1383
22989SOL    HW174097   3.143   2.740   5.651  1.2722 -1.9107 -1.0493
22989SOL    HW274098   3.011   2.665   5.647  0.2458 -0.1524 -0.6407
22990SOL     OW74099   6.070   7.088   3.496  0.3009  0.0755 -0.0924
22990SOL    HW174100   6.100   7.048   3.414  0.0049 -0.5194  0.0931
22990SOL    HW274101   6.088   7.182   3.484 -0.0478  0.0357 -0.9741
22991SOL     OW74102   7.008   8.602   3.350 -0.0434  0.7394  0.6632
22991SOL    HW174103   7.033   8.584   3.259 -0.0939 -0.5965  0.8999
22991SOL    HW274104   6.914   8.615   3.347 -0.0157  0.9007  0.4921
22992SOL     OW74105   0.421  10.594   1.022  0.0732 -0.1258  0.3289
22992SOL    HW174106   0.489  10.584   1.089  1.2613  0.3390 -0.8014
22992SOL    HW274107   0.460  10.650   0.955 -1.1311 -0.5219 -0.7331
22993SOL     OW74108   3.728  10.015   1.079 -0.0080  0.0287 -0.5634
22993SOL    HW174109   3.738   9.982   0.990  0.8576  1.1177 -0.8822
22993SOL    HW274110   3.636  10.042   1.086 -1.7844 -5.7857  0.8851
22994SOL     OW74111   2.855   6.617   5.619 -0.2496  0.0781  0.8802
22994SOL    HW174112   2.914   6.673   5.670 -1.0616  2.0751 -0.3244
22994SOL    HW274113   2.910   6.543   5.593  1.3214  1.1401  1.0709
22995SOL     OW74114  10.701   3.762   2.370  0.3788 -0.1945 -0.3242
22995SOL    HW174115  10.614   3.769   2.409  0.5927  0.9563 -0.0252
22995SOL    HW274116  10.755   3.727   2.441 -0.1491 -2.3614 -0.9828
22996SOL     OW74117   7.732  10.448   2.968  0.3676  0.2331 -0.1613
22996SOL    HW174118   7.637  10.449   2.961  0.2536 -0.8197  1.0475
22996SOL    HW274119   7.763  10.488   2.886 -1.1628  3.7066  0.8900
22997SOL     OW74120   6.742   0.465   0.162  0.6833 -0.4849 -0.1970
22997SOL    HW174121   6.751   0.460   0.257 -1.1003 -1.2117 -0.0523
22997SOL    HW274122   6.730   0.558   0.144  0.8110 -0.3695  0.3002
22998SOL     OW74123   8.832   2.466   2.424 -0.4881  0.3719 -0.2248
22998SOL    HW174124   8.826   2.387   2.479 -1.2856  0.5481 -0.0386
22998SOL    HW274125   8.750   2.513   2.443 -0.0963  1.1510 -0.4728
22999SOL     OW74126   4.365   1.167   4.675 -0.2204 -0.1296  0.1702
22999SOL    HW174127   4.396   1.131   4.758  2.2076 -0.4523 -0.8460
22999SOL    HW274128   4.299   1.105   4.645  0.3814 -1.1193  0.8712
23000SOL     OW74129   4.984   3.500  10.072 -0.4038  0.1080  0.0217
23000SOL    HW174130   5.070   3.541  10.071  0.2673 -1.1470  1.9525
23000SOL    HW274131   4.978   3.460  10.159 -2.6268 -0.4656 -0.3642
23001SOL     OW74132   5.660   7.358   3.155  0.0290  0.0253  0.8126
23001SOL    HW174133   5.571   7.333   3.130  0.1648  1.0026 -0.7024
23001SOL    HW274134   5.672   7.445   3.117  2.6940 -1.3643 -1.7053
23002SOL     OW74135  10.672   2.114   5.011  0.2772  0.1706 -0.2765
23002SOL    HW174136  10.602   2.090   5.071  1.9787 -1.2194  1.2012
23002SOL    HW274137  10.642   2.195   4.970 -2.5452 -0.8505 -0.2987
23003SOL     OW74138   6.729   4.471   8.407 -0.0399 -0.1946 -0.1861
23003SOL    HW174139   6.765   4.556   8.432  0.1381  0.0978 -1.4108
23003SOL    HW274140   6.650   4.462   8.460  0.7854  0.0258  1.0954
23004SOL     OW74141   0.038   5.139   0.533  0.2406  0.0449  0.0092
23004SOL    HW174142   0.037   5.218   0.586 -0.7750  0.8407 -1.1597
23004SOL    HW274143   0.019   5.170   0.444 -0.4565 -1.5486 -0.4098
23005SOL     OW74144   6.684   6.798   2.662 -0.2664 -0.3543 -0.2044
23005SOL    HW174145   6.757   6.844   2.703  0.1342  0.6385 -1.9614
23005SOL    HW274146   6.608   6.823   2.714  0.5559 -0.9378  1.2971
23006SOL     OW74147  10.397   7.294   6.834 -0.3820 -0.5842  1.2158
23006SOL    HW174148  10.415   7.208   6.797 -0.0444 -0.2329  0.5573
23006SOL    HW274149  10.460   7.302   6.907  0.0973 -0.5885  0.8048
23007SOL     OW74150   2.725   8.579   8.092 -0.2277 -0.2581  0.0418
23007SOL    HW174151   2.708   8.651   8.031 -1.1145 -0.3556  0.1785
23007SOL    HW274152   2.699   8.613   8.177 -4.6506 -2.1452 -0.4332
23008SOL     OW74153   4.722   2.898   5.508  0.0094  0.2363 -0.1313
23008SOL    HW174154   4.675   2.824   5.547  0.0594  0.2016 -0.1363
23008SOL    HW274155   4.776   2.932   5.579  0.3934 -0.0660 -0.2770
23009SOL     OW74156   8.978   1.739   1.613 -0.0279 -0.2531  0.2934
23009SOL    HW174157   8.963   1.658   1.565 -1.6379  0.1557  0.0735
23009SOL    HW274158   8.957   1.808   1.550  1.4285  0.3391  0.4445
23010SOL     OW74159   7.490   1.639   6.535  0.1840 -0.0611 -0.2483
23010SOL    HW174160   7.492   1.712   6.598  1.7274 -0.3032 -0.0052
23010SOL    HW274161   7.398   1.613   6.532 -0.1619  1.0077  0.7012
23011SOL     OW74162   0.277   2.696   7.033  0.0153 -0.1080 -0.0571
23011SOL    HW174163   0.266   2.651   6.949 -0.4112 -3.4798  1.7102
23011SOL    HW274164   0.188   2.718   7.061  0.1624  1.0838 -0.5044
23012SOL     OW74165   0.646  11.141   4.765  0.0411 -0.3218  0.2318
23012SOL    HW174166   0.592  11.074   4.724 -0.3930  0.5009 -0.5538
23012SOL    HW274167   0.603  11.160   4.848 -0.1464 -0.6100  0.1982
23013SOL     OW74168   5.709   3.050   8.083 -0.8970  0.4168  0.6329
23013SOL    HW174169   5.716   2.955   8.073  0.0309  0.5789 -0.4327
23013SOL    HW274170   5.634   3.075   8.028 -1.4815  0.2420  1.3464
23014SOL     OW74171   6.479   2.502   4.629  0.5286  0.2006 -0.1911
23014SOL    HW174172   6.506   2.579   4.579  1.1958  1.1604  1.6168
23014SOL    HW274173   6.384   2.497   4.616  0.5925  0.8518 -0.9556
23015SOL     OW74174   6.835   6.791   1.168 -0.3567 -0.1835 -0.5737
23015SOL    HW174175   6.810   6.713   1.120  1.2439 -0.5346 -0.8777
23015SOL    HW274176   6.785   6.787   1.250 -0.4174 -1.4258 -0.6688
23016SOL     OW74177  10.808   5.907   5.373 -0.0597 -0.4968  0.5478
23016SOL    HW174178  10.740   5.975   5.367  0.0975 -0.1140  2.7614
23016SOL    HW274179  10.890   5.954   5.359 -0.1286 -0.6925 -0.5483
23017SOL     OW74180   7.302   3.760   5.002  0.2548  0.1342 -0.0909
23017SOL    HW174181   7.281   3.668   5.017 -1.2528  0.3479 -0.8065
23017SOL    HW274182   7.221   3.798   4.969  1.1126  1.5264 -0.6439
23018SOL     OW74183   0.686   3.533   1.927 -0.1642  0.3820 -0.0031
23018SOL    HW174184   0.754   3.466   1.938 -0.5909  0.0908  0.9179
23018SOL    HW274185   0.611   3.498   1.975 -1.0366  0.6059 -1.1964
23019SOL     OW74186   4.704   7.196   4.142  0.7992  0.3190  0.8798
23019SOL    HW174187   4.651   7.123   4.174 -0.7674  1.1849  0.3080
23019SOL    HW274188   4.724   7.248   4.220 -0.7365  0.9573  0.8703
23020SOL     OW74189   3.733   6.027   7.421 -0.6032 -0.5357  0.6024
23020SOL    HW174190   3.718   5.949   7.367 -0.5726  0.3852 -0.7764
23020SOL    HW274191   3.744   6.098   7.357  2.4469  0.0819  1.7282
23021SOL     OW74192   7.018   7.339   4.330  0.0068  0.0903 -1.1176
23021SOL    HW174193   7.026   7.353   4.424 -0.0748  2.3962 -1.4149
23021SOL    HW274194   6.964   7.261   4.322  0.7634 -0.6574  0.7500
23022SOL     OW74195   4.707   5.023   3.517  0.0874 -0.0182  0.0626
23022SOL    HW174196   4.639   5.030   3.584  0.3713  0.0749  0.3442
23022SOL    HW274197   4.781   5.073   3.553  0.9562 -1.6469  0.5884
23023SOL     OW74198   4.713   5.005   1.870 -0.2026  0.6634  0.2290
23023SOL    HW174199   4.724   4.946   1.795 -0.9222 -0.5131  1.0323
23023SOL    HW274200   4.624   4.989   1.900  0.1243  1.0257  1.4290
23024SOL     OW74201   4.462   0.463   1.028 -0.0074 -0.5180  0.8121
23024SOL    HW174202   4.424   0.508   0.952  0.4755  2.3007  2.1773
23024SOL    HW274203   4.541   0.421   0.994 -0.7525 -0.8078 -0.6141
23025SOL     OW74204   2.651  10.866   5.734 -0.2757 -0.0914 -0.4214
23025SOL    HW174205   2.720  10.882   5.669  0.7045  0.7745  0.8114
23025SOL    HW274206   2.615  10.781   5.709 -0.1851  0.3951 -2.3289
23026SOL     OW74207   1.022   1.916  11.295 -0.2315  0.5857 -1.1716
23026SOL    HW174208   1.107   1.918  11.252  0.0557  0.8396 -0.5918
23026SOL    HW274209   0.987   1.829  11.275 -0.2780  0.8576 -2.2633
23027SOL     OW74210  10.079   9.647   8.078 -0.5779 -0.5550 -0.0673
23027SOL    HW174211  10.148   9.621   8.018  0.6364 -0.4222  1.2509
23027SOL    HW274212  10.080   9.743   8.076 -0.6257 -0.5510  0.0702
23028SOL     OW74213  10.622   8.018   9.771  0.0896  0.2585  0.0711
23028SOL    HW174214  10.693   8.000   9.709 -0.0991 -1.8802  0.4134
23028SOL    HW274215  10.542   7.999   9.722 -0.0801 -0.9156  0.7652
23029SOL     OW74216   5.406   4.237   7.277 -0.7316 -0.4004  0.4217
23029SOL    HW174217   5.343   4.181   7.321 -1.7380  0.1463 -0.3182
23029SOL    HW274218   5.393   4.324   7.316 -0.1363 -0.3777  0.5774
23030SOL     OW74219   6.536   0.207   7.031 -0.2359  0.1295 -0.2963
23030SOL    HW174220   6.559   0.118   7.002  0.1762 -0.2620  1.2063
23030SOL    HW274221   6.617   0.257   7.019  0.3613 -0.3674  1.4534
23031SOL     OW74222  10.343   5.079   2.916 -0.1231 -0.0563  0.8756
23031SOL    HW174223  10.402   5.102   2.987 -0.9375  0.4168  1.4076
23031SOL    HW274224  10.319   5.163   2.877 -1.2826 -0.1624  1.3461
23032SOL     OW74225   6.949   8.549   4.041 -0.3969 -0.1958  0.6347
23032SOL    HW174226   7.019   8.518   3.984 -0.3629 -1.6717  1.4647
23032SOL    HW274227   6.988   8.552   4.128 -0.9929  0.2359  0.8922
23033SOL     OW74228   2.072   4.036   8.434  0.1539  0.3819 -0.6054
23033SOL    HW174229   2.117   3.985   8.501 -0.8379 -0.1667 -0.3519
23033SOL    HW274230   2.105   4.125   8.445 -1.6435  0.7508  2.0683
23034SOL     OW74231   5.531   5.020   8.622  0.3967 -0.0670 -0.4033
23034SOL    HW174232   5.555   5.013   8.714 -1.7804 -1.7752  0.0859
23034SOL    HW274233   5.568   5.103   8.593  3.3950 -0.7398  1.2843
23035SOL     OW74234   0.743   8.953   7.766 -0.4903 -0.1231 -0.1865
23035SOL    HW174235   0.729   9.047   7.777 -0.6415 -0.2249  0.4828
23035SOL    HW274236   0.703   8.913   7.843  3.0965 -0.4516  1.5991
23036SOL     OW74237   7.940   5.907  10.217  0.2488  0.1071  0.0551
23036SOL    HW174238   7.904   5.819  10.211  1.4232 -0.6218  2.9073
23036SOL    HW274239   7.887   5.950  10.284 -1.3387  2.1494 -2.3940
23037SOL     OW74240   2.224   4.399   3.368 -0.0092 -1.2728 -0.3485
23037SOL    HW174241   2.253   4.321   3.320  0.2136 -1.2212 -0.2956
23037SOL    HW274242   2.250   4.383   3.458  1.0423 -0.6397 -0.5309
23038SOL     OW74243  10.592  10.915   2.675  0.0823  0.3380  0.4780
23038SOL    HW174244  10.628  11.003   2.664 -0.4978  0.5976  0.6842
23038SOL    HW274245  10.637  10.880   2.752  0.5039  0.3562  0.2410
23039SOL     OW74246   8.043   5.229   1.249 -0.3931 -0.4666  0.1179
23039SOL    HW174247   8.080   5.157   1.300 -1.1525 -0.5587  0.5610
23039SOL    HW274248   8.075   5.308   1.291 -1.3555 -0.5378  1.0210
23040SOL     OW74249   6.236   9.575   3.346  0.3840  0.6115 -0.0246
23040SOL    HW174250   6.315   9.579   3.292 -0.8929  0.1914 -1.9471
23040SOL    HW274251   6.194   9.660   3.334 -1.6725 -0.6737 -2.4927
23041SOL     OW74252  10.189   8.684  11.082 -0.4180 -0.0477 -0.6621
23041SOL    HW174253  10.193   8.764  11.030  0.2365  0.5697  0.3238
23041SOL    HW274254  10.228   8.617  11.027  1.0143  0.7689 -0.6701
23042SOL     OW74255   8.513   7.983   6.802 -0.1257 -0.4538  0.5694
23042SOL    HW174256   8.439   7.986   6.862 -0.5231  0.4956  0.0400
23042SOL    HW274257   8.561   8.064   6.820  0.1448 -0.5141  0.1118
23043SOL     OW74258   3.890   0.507  10.404 -0.5868  0.2094  0.1944
23043SOL    HW174259   3.850   0.420  10.412  0.8149 -0.3179  1.5816
23043SOL    HW274260   3.865   0.553  10.484 -0.1429  0.5886  0.1190
23044SOL     OW74261   4.031   4.218   2.885  0.3234  0.1533 -0.1341
23044SOL    HW174262   4.086   4.279   2.836  1.6348 -2.7457 -2.3903
23044SOL    HW274263   4.089   4.181   2.952  0.0890 -0.0902 -0.0629
23045SOL     OW74264   1.533  11.213   5.847  0.1742  0.3111 -0.0820
23045SOL    HW174265   1.546  11.123   5.877 -0.9622 -0.1228 -0.8410
23045SOL    HW274266   1.506  11.261   5.925  0.9470  0.0342  0.3587
23046SOL     OW74267   6.612   4.280   5.291  0.0206  0.1807  0.3315
23046SOL    HW174268   6.694   4.313   5.254  0.4808 -1.6292 -0.3204
23046SOL    HW274269   6.574   4.227   5.220 -0.8052 -0.4850  1.2623
23047SOL     OW74270   1.479   1.338   6.079 -0.2302 -0.1002  0.3883
23047SOL    HW174271   1.531   1.258   6.084  1.7164  1.0791 -0.4242
23047SOL    HW274272   1.542   1.408   6.096 -1.6692  1.3247 -0.0960
23048SOL     OW74273   0.711   1.295   8.047 -0.5512 -0.1821 -0.4417
23048SOL    HW174274   0.625   1.293   8.005 -1.2301  0.2647  0.8805
23048SOL    HW274275   0.764   1.232   7.998 -1.9416 -1.2197 -0.6186
23049SOL     OW74276   3.211   6.780   4.614 -0.0131 -0.4383  0.1341
23049SOL    HW174277   3.137   6.767   4.673 -1.0785  1.2308 -0.8130
23049SOL    HW274278   3.247   6.865   4.640  1.6076 -1.2585  0.6177
23050SOL     OW74279  10.232   9.535   2.925  1.0769 -0.1237 -0.6446
23050SOL    HW174280  10.320   9.522   2.960  2.0754  2.9594 -1.8247
23050SOL    HW274281  10.238   9.507   2.834  0.0541 -2.5268 -0.0100
23051SOL     OW74282   1.714   9.422   8.484 -0.2364 -0.0298 -0.2817
23051SOL    HW174283   1.776   9.397   8.553  1.3130  0.0433 -1.6265
23051SOL    HW274284   1.648   9.475   8.529  1.0253  0.4223  1.0621
23052SOL     OW74285   6.696   7.476   4.183 -0.4861 -0.3090 -0.3476
23052SOL    HW174286   6.690   7.381   4.181  0.7530 -0.4183  0.7159
23052SOL    HW274287   6.628   7.503   4.245  0.1566 -0.6064  0.5002
23053SOL     OW74288   5.485   9.593   4.973 -0.5646  0.1522  0.1480
23053SOL    HW174289   5.395   9.562   4.961 -0.4342 -0.2768  0.2467
23053SOL    HW274290   5.539   9.519   4.944 -0.2385  0.8347 -1.0082
23054SOL     OW74291   9.227  11.295   9.965  0.0692  0.5697  0.7869
23054SOL    HW174292   9.260  11.285  10.054  0.9901  0.7588  0.4745
23054SOL    HW274293   9.160  11.228   9.956  0.0601  0.4734  1.5846
23055SOL     OW74294   4.643  10.312   8.664  0.0723 -0.3204  0.0944
23055SOL    HW174295   4.718  10.325   8.606 -2.6286  1.6901 -3.0554
23055SOL    HW274296   4.625  10.218   8.659  0.7824 -0.3920 -1.1688
23056SOL     OW74297   5.522   1.060   8.380 -0.3864 -0.2638  0.0272
23056SOL    HW174298   5.564   1.092   8.460 -0.2886 -0.5092  0.0747
23056SOL    HW274299   5.518   0.965   8.392 -1.0622 -0.2303  0.0772
23057SOL     OW74300   2.140   6.974  10.643 -0.0665 -0.0692  0.3300
23057SOL    HW174301   2.085   7.045  10.608 -0.4589 -1.0231 -1.0175
23057SOL    HW274302   2.206   6.959  10.575  1.1981  0.3021  1.4518
23058SOL     OW74303   3.186  10.058   0.644 -0.1790  0.1275  0.6511
23058SOL    HW174304   3.144  10.007   0.714 -1.8957  0.5234 -0.0767
23058SOL    HW274305   3.183  10.000   0.568  0.2774  0.2924  0.5092
23059SOL     OW74306   1.328   5.715   9.844  0.0451  0.2471 -0.1251
23059SOL    HW174307   1.286   5.801   9.848 -0.2440  0.1434 -0.8943
23059SOL    HW274308   1.406   5.724   9.900 -0.3713  0.7847  0.3786
23060SOL     OW74309   9.242   8.521   0.030 -0.2449  0.2663 -0.0333
23060SOL    HW174310   9.251   8.616   0.021  0.5007  0.2983  0.9991
23060SOL    HW274311   9.267   8.487  -0.056 -1.7166  1.0699 -0.7900
23061SOL     OW74312   4.472   6.392  11.317 -0.5662  0.4562  0.3500
23061SOL    HW174313   4.383   6.368  11.345 -0.7669  0.5794 -0.1753
23061SOL    HW274314   4.488   6.477  11.358 -1.5682  1.5009 -1.3803
23062SOL     OW74315   1.002   9.395   3.929 -0.0866  0.0001 -0.1194
23062SOL    HW174316   1.038   9.417   3.843  2.0117 -0.2800  0.6548
23062SOL    HW274317   1.002   9.478   3.977 -0.9589  0.0950 -0.2698
23063SOL     OW74318   3.787   9.313   1.194  0.1935 -0.1737  0.8674
23063SOL    HW174319   3.872   9.288   1.158  0.2600  1.6761 -0.3642
23063SOL    HW274320   3.769   9.398   1.154 -2.3881 -0.6836  0.8773
23064SOL     OW74321   7.143   4.375   1.593  0.6869  0.0297 -0.4749
23064SOL    HW174322   7.211   4.308   1.585  0.8444  0.1505 -0.1209
23064SOL    HW274323   7.082   4.339   1.658  1.6517  0.9865  0.9682
23065SOL     OW74324   4.212   7.221   5.085 -0.1721  0.1995 -0.1828
23065SOL    HW174325   4.269   7.174   5.024 -1.1018 -0.2912 -0.6818
23065SOL    HW274326   4.164   7.152   5.131 -0.7070  0.6127 -0.1137
23066SOL     OW74327   1.952   7.521   7.614  0.2290 -0.0843  0.1513
23066SOL    HW174328   2.031   7.493   7.568 -0.1665  2.7451 -2.3847
23066SOL    HW274329   1.881   7.475   7.569  0.3067 -1.9830  1.8964
23067SOL     OW74330   5.501   9.830   2.716  0.0784  0.1153 -0.2043
23067SOL    HW174331   5.467   9.761   2.659  2.3634 -1.1824 -0.0523
23067SOL    HW274332   5.559   9.881   2.659 -2.0931  2.3488 -0.4877
23068SOL     OW74333   9.034  11.305   0.970  0.1511 -0.1565  0.0295
23068SOL    HW174334   9.001  11.223   1.006  3.3210 -1.5861 -0.1913
23068SOL    HW274335   9.106  11.330   1.028 -0.5270  2.2626 -0.1466
23069SOL     OW74336   0.921  10.740   3.788  0.7341 -0.3666  0.0535
23069SOL    HW174337   0.835  10.783   3.780  0.2764 -1.2885 -0.0054
23069SOL    HW274338   0.978  10.809   3.823 -0.1077  0.1547  0.4376
23070SOL     OW74339   6.168   3.801   5.968 -0.1810  0.6162 -0.1094
23070SOL    HW174340   6.245   3.843   5.929  0.7359  0.8197  1.8486
23070SOL    HW274341   6.159   3.843   6.054  1.0377 -3.4910  2.1611
23071SOL     OW74342   3.404   4.605   7.826 -0.4695  0.0001  0.5585
23071SOL    HW174343   3.402   4.535   7.761  0.0786  0.3034  0.2013
23071SOL    HW274344   3.467   4.576   7.891 -2.0624 -0.9375  1.7019
23072SOL     OW74345   9.808   0.414   1.196  0.8768 -0.6991  0.0391
23072SOL    HW174346   9.842   0.445   1.280 -0.0825  0.6560 -0.0517
23072SOL    HW274347   9.730   0.363   1.220  0.0297  0.5305 -0.0917
23073SOL     OW74348   5.387   5.037  10.401  0.3408  0.3538 -0.3104
23073SOL    HW174349   5.441   5.075  10.332 -1.0589  0.4714 -1.3399
23073SOL    HW274350   5.348   5.112  10.446  0.8249  0.2597  0.2759
23074SOL     OW74351  10.414   7.868   5.274 -0.6443  0.1258  0.6516
23074SOL    HW174352  10.419   7.830   5.187 -0.7971 -0.7914  1.0333
23074SOL    HW274353  10.327   7.845   5.306 -0.9153  1.1933  0.7202
23075SOL     OW74354  10.781   3.786   4.166 -0.3216 -0.4855  0.4244
23075SOL    HW174355  10.696   3.829   4.161  0.8972  2.2483  2.0290
23075SOL    HW274356  10.789   3.758   4.257  0.9996  0.4349  0.6086
23076SOL     OW74357   9.695   2.566   4.941 -0.0710  0.2468  0.0670
23076SOL    HW174358   9.683   2.471   4.930 -1.0418  0.1146  2.0691
23076SOL    HW274359   9.608   2.599   4.962  0.1798  1.6859 -1.0522
23077SOL     OW74360   2.474   1.010   2.948 -0.1461 -0.4177  0.0136
23077SOL    HW174361   2.383   1.037   2.959 -0.0515 -0.5216  1.0916
23077SOL    HW274362   2.513   1.079   2.894 -1.7030 -2.1018 -3.4291
23078SOL     OW74363   2.895  10.619   5.692  0.3895 -0.5176 -0.0805
23078SOL    HW174364   2.857  10.554   5.634  0.4173 -1.1015  0.5411
23078SOL    HW274365   2.870  10.591   5.780 -0.4941  0.9027  0.1434
23079SOL     OW74366   8.215   1.680   3.891 -0.2251  0.6451  0.0793
23079SOL    HW174367   8.310   1.667   3.893 -0.0399  1.8661  0.2169
23079SOL    HW274368   8.180   1.612   3.949  0.2816 -1.7995 -2.3980
23080SOL     OW74369   4.537   5.062   4.289 -0.5293  0.3350 -0.8295
23080SOL    HW174370   4.471   5.024   4.347 -1.0650  0.6859 -1.2022
23080SOL    HW274371   4.565   5.142   4.333 -0.3030  0.1481 -0.6370
23081SOL     OW74372   7.285  10.606   1.697  0.3353 -0.4703 -0.3693
23081SOL    HW174373   7.268  10.578   1.787 -0.7499 -1.7809 -0.9786
23081SOL    HW274374   7.326  10.530   1.656 -1.2042 -0.6304 -1.6038
23082SOL     OW74375   8.201   1.156  10.588 -0.2650 -0.1414 -0.1744
23082SOL    HW174376   8.145   1.102  10.532 -3.3377  1.5824  1.0667
23082SOL    HW274377   8.154   1.158  10.672  1.9707  0.9483  1.0765
23083SOL     OW74378   2.879   8.729   2.245  0.2646 -0.2132  0.0341
23083SOL    HW174379   2.831   8.806   2.277 -0.4798 -0.6217 -0.1014
23083SOL    HW274380   2.916   8.758   2.162  0.5810  0.2251  0.3202
23084SOL     OW74381   5.664   7.471   0.282 -0.0859 -0.7411 -0.0858
23084SOL    HW174382   5.620   7.398   0.238 -0.5133  0.6870 -2.0525
23084SOL    HW274383   5.728   7.503   0.218  1.3404 -0.5011  1.4225
23085SOL     OW74384   4.927   3.619   1.869 -0.0677  0.2114  0.2845
23085SOL    HW174385   5.011   3.584   1.841 -0.0956  0.4458 -0.0905
23085SOL    HW274386   4.944   3.657   1.955  0.3999  1.0152 -0.1605
23086SOL     OW74387   0.248   0.914   7.284  0.1474 -0.5253  0.0103
23086SOL    HW174388   0.308   0.913   7.210 -0.1769 -0.7329 -0.2510
23086SOL    HW274389   0.193   0.836   7.271 -0.9620  0.3201 -0.4036
23087SOL     OW74390   1.411   6.952   7.846 -0.3108  0.1538 -0.2962
23087SOL    HW174391   1.349   7.016   7.809 -0.2591 -0.1262 -0.8818
23087SOL    HW274392   1.410   6.880   7.783 -0.1300 -0.2837  0.2007
23088SOL     OW74393   3.557   1.667   4.296  0.2838  0.3433  0.0935
23088SOL    HW174394   3.570   1.725   4.220  1.1875  0.6757  0.4937
23088SOL    HW274395   3.473   1.694   4.332 -0.5377 -0.3441 -1.2462
23089SOL     OW74396   9.458   0.657  11.323 -0.0198  0.1634  0.2070
23089SOL    HW174397   9.377   0.708  11.321  0.7021  1.3443  0.3499
23089SOL    HW274398   9.464   0.616  11.237  0.0988  1.4705 -0.4172
23090SOL     OW74399  10.101   7.535   8.034 -0.5061 -0.4275  0.1560
23090SOL    HW174400  10.151   7.571   7.961 -1.5342 -0.6340 -0.6589
23090SOL    HW274401  10.048   7.608   8.065 -0.3451 -0.4410  0.4720
23091SOL     OW74402   3.965   8.809   2.503 -0.0767  0.5439  0.3204
23091SOL    HW174403   3.958   8.740   2.569 -1.0351 -0.3764 -0.7198
23091SOL    HW274404   3.876   8.817   2.468  0.7264 -0.0519 -1.9152
23092SOL     OW74405   9.288   7.348   0.465 -0.2248 -0.1497 -0.3360
23092SOL    HW174406   9.315   7.340   0.557  1.7412  0.1420 -0.8714
23092SOL    HW274407   9.346   7.415   0.429  0.4658 -1.7851 -2.3495
23093SOL     OW74408   6.008   7.554   0.546 -0.2840 -0.1835  0.4943
23093SOL    HW174409   6.004   7.626   0.610 -2.4918 -0.4180  0.6743
23093SOL    HW274410   5.968   7.480   0.591  0.7872 -1.1718 -0.1619
23094SOL     OW74411  10.241   8.680   9.296  0.1256 -0.5127  0.3661
23094SOL    HW174412  10.170   8.660   9.358  1.0584  0.3142  1.7046
23094SOL    HW274413  10.200   8.738   9.232 -1.1524 -2.2725 -0.4655
23095SOL     OW74414   7.679   6.639   4.514  0.3063  0.3412 -0.1568
23095SOL    HW174415   7.724   6.646   4.430 -0.2733 -1.3936 -0.6298
23095SOL    HW274416   7.586   6.644   4.492  0.2215  4.1333  0.8341
23096SOL     OW74417   9.711   4.139   9.514 -0.1699  0.2767  0.6384
23096SOL    HW174418   9.726   4.224   9.474 -0.2784 -0.0786 -0.1661
23096SOL    HW274419   9.792   4.091   9.498 -0.3001  0.0533  0.6450
23097SOL     OW74420   9.702   2.364   6.538 -0.6485 -0.1715 -0.1882
23097SOL    HW174421   9.692   2.378   6.443 -2.9406  1.6159  0.2656
23097SOL    HW274422   9.790   2.395   6.557 -0.0538 -0.8195 -1.7824
23098SOL     OW74423   2.613   9.223   3.960 -0.3518  0.2097 -0.0132
23098SOL    HW174424   2.638   9.210   4.052 -1.1608  0.7799  0.2903
23098SOL    HW274425   2.693   9.254   3.918  0.0660 -0.1901  0.4664
23099SOL     OW74426   4.286   3.354   0.560 -0.1870  0.1942  0.1413
23099SOL    HW174427   4.333   3.426   0.601 -0.2002  0.5295 -0.4275
23099SOL    HW274428   4.273   3.382   0.469  2.1158 -1.6192 -0.8183
23100SOL     OW74429   0.549   4.267   8.211  0.1494 -0.1886 -0.0829
23100SOL    HW174430   0.569   4.342   8.154 -0.9147  1.0867  1.1934
23100SOL    HW274431   0.615   4.202   8.188  0.7694  0.9249 -1.5966
23101SOL     OW74432   3.536   5.013   7.235 -0.0787 -0.5738 -0.2275
23101SOL    HW174433   3.494   4.963   7.166 -2.8678  2.3928 -0.8007
23101SOL    HW274434   3.607   5.060   7.190 -0.1039 -0.8262 -0.5318
23102SOL     OW74435   7.813   7.328   3.799  0.0573 -0.3792 -0.0124
23102SOL    HW174436   7.739   7.329   3.859  0.7654 -0.5480  0.8755
23102SOL    HW274437   7.890   7.339   3.855  0.6532  0.6985 -0.9990
23103SOL     OW74438   8.288   7.579   3.912  0.3691 -0.2712  0.0681
23103SOL    HW174439   8.299   7.614   3.823 -0.6041 -0.8534 -0.2901
23103SOL    HW274440   8.310   7.486   3.904 -0.7053 -0.5463  0.2138
23104SOL     OW74441   0.425   3.175   4.990 -0.1048  0.4291 -0.4354
23104SOL    HW174442   0.395   3.262   5.014 -2.3570 -0.0902 -1.2801
23104SOL    HW274443   0.478   3.188   4.912 -1.2379  0.9518 -1.1328
23105SOL     OW74444   6.636   2.775   7.855  0.1098  0.2353 -0.2178
23105SOL    HW174445   6.642   2.807   7.765 -1.7191  1.4896  0.0733
23105SOL    HW274446   6.657   2.851   7.909  3.4468 -1.0763  0.4248
23106SOL     OW74447   8.744   9.520   2.458  0.1761 -0.4769  0.4031
23106SOL    HW174448   8.802   9.485   2.525 -0.8805 -1.6750  0.7129
23106SOL    HW274449   8.692   9.586   2.504  0.5541 -0.1574  0.3771
23107SOL     OW74450   5.366   0.272   8.910  0.1648 -0.0094 -0.1060
23107SOL    HW174451   5.354   0.232   8.996  0.3937 -1.6267 -0.7981
23107SOL    HW274452   5.446   0.322   8.918 -0.0271  0.1730  0.7383
23108SOL     OW74453   9.995   2.946   9.310 -0.5571  0.2728  0.1060
23108SOL    HW174454  10.089   2.951   9.294 -0.4627  1.2169  0.9128
23108SOL    HW274455   9.983   2.863   9.356 -0.0394  0.4418  0.5477
23109SOL     OW74456   8.240   8.032   3.590 -0.3677 -0.3214 -0.2660
23109SOL    HW174457   8.278   7.965   3.646 -1.0199  1.3319  2.2274
23109SOL    HW274458   8.300   8.107   3.598 -0.2619 -0.1919 -2.0981
23110SOL     OW74459   8.677   8.384   7.759 -0.3816  0.7765 -0.1941
23110SOL    HW174460   8.701   8.477   7.750  0.2031  0.8656  1.8222
23110SOL    HW274461   8.754   8.336   7.728 -0.0781  1.0048  0.1858
23111SOL     OW74462  10.765  10.846   1.526 -0.4993 -0.7817 -0.1566
23111SOL    HW174463  10.729  10.759   1.508 -1.6127 -0.0771 -1.3837
23111SOL    HW274464  10.689  10.900   1.550  0.0391  0.1256 -0.4599
23112SOL     OW74465   5.355   8.320   0.445 -0.0947 -0.5493  0.4792
23112SOL    HW174466   5.428   8.259   0.434  0.4519 -0.2788  2.5263
23112SOL    HW274467   5.391   8.405   0.419 -0.3406 -0.7825 -0.6526
23113SOL     OW74468   5.866   5.058   5.512 -0.1558  0.1423  0.4552
23113SOL    HW174469   5.928   5.004   5.463 -1.5950 -1.0498 -0.0846
23113SOL    HW274470   5.832   5.120   5.447 -2.4774 -1.7958 -0.2594
23114SOL     OW74471   7.009   4.220   3.102 -0.1230  0.2474  0.1636
23114SOL    HW174472   7.030   4.207   3.009  0.5027  0.5776  0.2571
23114SOL    HW274473   6.919   4.254   3.101 -0.4062 -0.4801 -0.2763
23115SOL     OW74474   4.513   2.755  11.138 -0.2944  0.1613  0.6032
23115SOL    HW174475   4.572   2.719  11.204  0.6053 -1.1691 -0.8961
23115SOL    HW274476   4.560   2.831  11.104 -0.6161  0.6575  1.2554
23116SOL     OW74477   6.825   2.396   3.298  0.5090 -0.0726  0.0038
23116SOL    HW174478   6.801   2.467   3.237  0.9562  0.7092  0.7301
23116SOL    HW274479   6.886   2.437   3.359 -1.6540 -0.2619  2.3485
23117SOL     OW74480   2.328   7.768   5.574  0.2004 -0.1681 -0.1903
23117SOL    HW174481   2.297   7.687   5.617  0.1189 -0.4363 -0.7540
23117SOL    HW274482   2.283   7.838   5.621  0.0400 -0.4675  0.1101
23118SOL     OW74483   4.417   8.954   8.621 -0.5700  0.3446  0.0725
23118SOL    HW174484   4.493   9.001   8.654 -0.2365 -0.6431  0.7131
23118SOL    HW274485   4.447   8.865   8.606 -0.8031  0.6709 -2.6124
23119SOL     OW74486   8.192   5.558   1.609  0.0076  0.2538 -0.6102
23119SOL    HW174487   8.205   5.567   1.703  0.1260 -0.1651 -0.5859
23119SOL    HW274488   8.167   5.646   1.580  0.8969  0.6091 -0.3344
23120SOL     OW74489  10.577   7.621   0.822  0.2097  0.4697 -0.2428
23120SOL    HW174490  10.523   7.601   0.745  1.0110  0.5521 -0.8258
23120SOL    HW274491  10.532   7.578   0.894  0.2924 -0.9007 -1.0025
23121SOL     OW74492   1.874   9.835   1.337  0.1437  0.1356 -0.0485
23121SOL    HW174493   1.905   9.764   1.280 -1.6219 -0.0453 -0.8276
23121SOL    HW274494   1.851   9.905   1.276 -0.8443  0.3069  0.5257
23122SOL     OW74495   7.209   6.409   8.878 -0.6626  0.1556  0.0217
23122SOL    HW174496   7.126   6.361   8.873 -0.9700  0.6593  0.1992
23122SOL    HW274497   7.194   6.475   8.947 -0.7994  1.5486 -1.3140
23123SOL     OW74498   3.801   6.722   7.976  0.0707  0.5305 -0.2025
23123SOL    HW174499   3.792   6.817   7.968 -1.1872  0.5713  1.3573
23123SOL    HW274500   3.828   6.708   8.067 -0.5135 -0.6447 -0.1967
23124SOL     OW74501   9.051   2.749   0.242  0.3737 -0.4561  0.0162
23124SOL    HW174502   9.064   2.833   0.287  0.3653 -0.1715 -0.5040
23124SOL    HW274503   9.128   2.697   0.265 -0.1752 -0.7203  1.2536
23125SOL     OW74504   4.266   9.603   4.114  0.4435  0.4885  0.6485
23125SOL    HW174505   4.330   9.553   4.166  1.6015  0.9190 -0.3511
23125SOL    HW274506   4.211   9.536   4.073 -0.1079  0.1296  1.9422
23126SOL     OW74507   5.734   4.780  11.143  0.2186 -0.2717  0.0463
23126SOL    HW174508   5.751   4.717  11.073 -2.9227 -0.2748 -0.7991
23126SOL    HW274509   5.732   4.865  11.098 -1.9876 -0.2952  0.0668
23127SOL     OW74510   7.042   8.081   1.862  0.0453 -0.2097 -0.3196
23127SOL    HW174511   7.007   8.163   1.827  0.3449  0.5787  1.2001
23127SOL    HW274512   6.999   8.013   1.810 -2.6110  0.7797  0.4805
23128SOL     OW74513   8.285   2.427   6.008  0.1013 -0.0079 -0.7997
23128SOL    HW174514   8.249   2.345   6.041  0.1031  0.4309  0.3205
23128SOL    HW274515   8.380   2.414   6.009  0.0810 -0.1715 -1.0987
23129SOL     OW74516   6.775   2.686   6.653  0.6646  0.9561  0.1051
23129SOL    HW174517   6.817   2.718   6.573  2.5061 -1.4068  0.0603
23129SOL    HW274518   6.847   2.656   6.708 -0.8240 -2.2977  0.4541
23130SOL     OW74519   4.636   5.775   3.391  0.2039  0.2299  0.0458
23130SOL    HW174520   4.641   5.712   3.319 -1.3139  1.0868 -0.8262
23130SOL    HW274521   4.573   5.737   3.452 -0.2037  0.5717 -0.1575
23131SOL     OW74522   9.092  10.075  10.686 -0.1351 -0.0355  0.2445
23131SOL    HW174523   9.183  10.090  10.712 -0.6540  0.3947  1.8665
23131SOL    HW274524   9.054  10.024  10.757 -0.6832 -1.8378 -1.3082
23132SOL     OW74525  10.376   9.992   1.327 -0.0551 -0.0175 -0.1974
23132SOL    HW174526  10.431   9.913   1.326  1.0447  0.6224  3.2363
23132SOL    HW274527  10.288   9.959   1.343  0.3807 -0.6160  1.1272
23133SOL     OW74528   3.869   8.789  10.460 -0.4061  0.0487 -0.0551
23133SOL    HW174529   3.911   8.875  10.459  1.3283 -0.7909 -0.6433
23133SOL    HW274530   3.869   8.762  10.368 -2.4951  0.1491 -0.1061
23134SOL     OW74531   8.599   0.239   8.966 -0.5916 -0.1586 -0.9088
23134SOL    HW174532   8.587   0.331   8.990 -0.8784 -0.1804 -0.9642
23134SOL    HW274533   8.673   0.239   8.905 -0.8539  0.0846 -1.2288
23135SOL     OW74534   3.909   7.664   4.254  0.1512  0.1139  0.6367
23135SOL    HW174535   3.845   7.604   4.217 -1.0588  0.7667  1.6011
23135SOL    HW274536   3.868   7.750   4.246  0.4197  0.4194  2.2458
23136SOL     OW74537   0.592   5.295   3.274  0.0714 -0.3953 -0.2114
23136SOL    HW174538   0.514   5.346   3.294  0.3312 -0.7385  1.7088
23136SOL    HW274539   0.633   5.341   3.200 -0.8587  0.9194  0.0929
23137SOL     OW74540   2.325  10.678   4.979  0.7282  0.0852  0.2982
23137SOL    HW174541   2.248  10.687   5.035  1.7729  1.4609  1.5677
23137SOL    HW274542   2.344  10.768   4.951  0.6070 -0.5044 -1.7652
23138SOL     OW74543   0.817   2.727   1.495  0.0797  0.0024 -0.8901
23138SOL    HW174544   0.734   2.692   1.526  1.1204 -2.0784 -0.3421
23138SOL    HW274545   0.836   2.800   1.554 -0.5847 -0.5086 -0.0320
23139SOL     OW74546   6.452   5.693   0.156  0.3248  0.0194  0.1555
23139SOL    HW174547   6.498   5.756   0.211 -1.8333  1.3915  0.4689
23139SOL    HW274548   6.414   5.630   0.218  0.8688 -0.4865 -0.0224
23140SOL     OW74549   7.534   5.062   2.435  1.4042 -0.3699  0.1908
23140SOL    HW174550   7.548   5.153   2.460 -0.6505  0.6132 -2.0189
23140SOL    HW274551   7.500   5.067   2.345 -0.3163 -3.1975  0.6154
23141SOL     OW74552   1.329   2.931   6.642  0.5755  0.7961 -0.1789
23141SOL    HW174553   1.321   2.876   6.720  0.8554 -0.5271 -1.0744
23141SOL    HW274554   1.242   2.929   6.602  0.8127  0.3026 -0.6748
23142SOL     OW74555  10.838   3.704   7.905 -0.0800  0.7944 -0.3782
23142SOL    HW174556  10.918   3.725   7.857 -0.5413 -1.8245 -2.4237
23142SOL    HW274557  10.802   3.627   7.860 -1.9155 -0.2012  2.6071
23143SOL     OW74558   0.410   9.277   8.837  0.0391  0.8413 -0.3702
23143SOL    HW174559   0.406   9.320   8.752 -0.2341  2.0058  0.2252
23143SOL    HW274560   0.502   9.285   8.864 -0.0726  1.3195 -0.1262
23144SOL     OW74561   7.165   6.311   1.397  0.1320 -0.0448 -0.0861
23144SOL    HW174562   7.179   6.281   1.487 -1.1712 -1.9369 -0.4785
23144SOL    HW274563   7.087   6.366   1.403  0.6633  0.7000  0.1016
23145SOL     OW74564   3.392   8.226   1.676  0.1407 -0.4600  0.4944
23145SOL    HW174565   3.401   8.319   1.698  0.7785 -0.3387 -0.2927
23145SOL    HW274566   3.443   8.181   1.744 -1.7209 -0.3618  2.0008
23146SOL     OW74567   4.462   6.952   3.100  0.6385  0.2929  0.0759
23146SOL    HW174568   4.420   7.034   3.072  0.5907 -0.1874 -1.3106
23146SOL    HW274569   4.555   6.966   3.083  0.7016  0.2818  0.4124
23147SOL     OW74570  10.965   1.674   3.454 -0.0428 -0.2132  0.2499
23147SOL    HW174571  10.973   1.593   3.404 -0.8567 -0.7242  0.9350
23147SOL    HW274572  10.962   1.743   3.387 -1.2781 -0.8961 -0.4262
23148SOL     OW74573   8.649   1.326  10.655 -0.7085  0.0894  0.2512
23148SOL    HW174574   8.570   1.381  10.656 -0.6242  0.1921  1.1899
23148SOL    HW274575   8.719   1.387  10.630 -0.6546  0.3593  1.0578
23149SOL     OW74576   6.193   1.977   0.203 -0.1884  0.2548 -0.2297
23149SOL    HW174577   6.259   1.940   0.145  0.2100  1.5928 -0.6268
23149SOL    HW274578   6.198   2.071   0.190 -0.5390  0.5407  1.4837
23150SOL     OW74579  10.746   3.439   0.634 -0.1183 -0.7346 -0.0851
23150SOL    HW174580  10.789   3.405   0.712 -0.6395  0.1466  0.5896
23150SOL    HW274581  10.813   3.491   0.590 -0.5237  0.7860  1.0561
23151SOL     OW74582   3.150   0.015   8.158 -0.1273  0.0405 -0.1538
23151SOL    HW174583   3.236  -0.006   8.122 -0.6734 -0.9610 -0.8764
23151SOL    HW274584   3.098  -0.064   8.145 -0.8292  0.2339  1.3153
23152SOL     OW74585   9.012   9.193   0.685 -0.2664  0.1467  0.3011
23152SOL    HW174586   9.062   9.274   0.696  0.1052 -0.1762  1.0116
23152SOL    HW274587   8.965   9.183   0.768 -0.5032 -0.2339  0.1174
23153SOL     OW74588   5.974   3.585   5.967  0.0775  0.6052  0.0242
23153SOL    HW174589   6.062   3.613   5.942  0.4345 -0.1266  0.4439
23153SOL    HW274590   5.974   3.583   6.062 -0.2382  0.1293  0.0211
23154SOL     OW74591   8.331   2.230   1.036 -0.1102 -0.2975 -0.0855
23154SOL    HW174592   8.271   2.165   1.001  1.1718 -0.5142 -1.9290
23154SOL    HW274593   8.332   2.300   0.970 -1.0771  1.3900  1.6156
23155SOL     OW74594   9.106   7.608   3.049 -0.1087  0.6850 -0.1190
23155SOL    HW174595   9.053   7.680   3.017 -0.1123 -0.0099 -1.6985
23155SOL    HW274596   9.194   7.645   3.057  0.1838  0.5225 -2.2614
23156SOL     OW74597   5.494  10.003   1.518 -0.7798  0.0932 -0.4154
23156SOL    HW174598   5.567   9.952   1.554 -0.7097 -0.3171 -1.1430
23156SOL    HW274599   5.418   9.972   1.567 -0.4634  0.5782  0.3990
23157SOL     OW74600   1.269   6.116   6.367  0.1199 -0.4905  0.5894
23157SOL    HW174601   1.257   6.048   6.301  0.3609  0.1436 -0.1234
23157SOL    HW274602   1.327   6.077   6.432  1.5657 -0.4337 -0.6328
23158SOL     OW74603   1.075  10.556   1.689 -0.3943  0.3257  0.4525
23158SOL    HW174604   1.140  10.606   1.739  0.7239  1.0665 -1.6862
23158SOL    HW274605   1.113  10.469   1.680 -1.9077 -0.7174  3.3340
23159SOL     OW74606   8.270  11.334  10.832  0.2799 -0.2457  0.3267
23159SOL    HW174607   8.185  11.333  10.875  0.5109  2.6465  0.9762
23159SOL    HW274608   8.309  11.249  10.852 -1.7193 -0.9082  1.5068
23160SOL     OW74609   7.113   7.284  10.097 -0.3672 -0.2250 -0.4187
23160SOL    HW174610   7.056   7.339  10.044 -0.6044  0.0202  0.0951
23160SOL    HW274611   7.073   7.284  10.184 -0.3447 -1.1651 -0.4026
23161SOL     OW74612   5.366   6.814   1.795 -0.5837  0.7521 -0.5014
23161SOL    HW174613   5.336   6.730   1.759  0.2748  0.7014 -1.1168
23161SOL    HW274614   5.438   6.840   1.737  0.5511  0.8818  0.9481
23162SOL     OW74615   6.160   7.500  10.939 -0.0148  0.4396 -0.2902
23162SOL    HW174616   6.165   7.593  10.918  0.1449  0.3057 -0.8456
23162SOL    HW274617   6.247   7.465  10.918  0.3783  0.4386  1.2538
23163SOL     OW74618   1.042   1.216   8.641 -0.0516 -0.3039 -0.4549
23163SOL    HW174619   0.988   1.202   8.564  0.9501 -0.5401 -1.1349
23163SOL    HW274620   0.984   1.199   8.715 -0.7661 -1.0153 -1.1735
23164SOL     OW74621  11.117  11.294  11.330 -0.0669 -0.1510 -0.3057
23164SOL    HW174622  11.083  11.234  11.263 -0.9965 -0.3901  0.3726
23164SOL    HW274623  11.099  11.381  11.295 -1.2964 -0.2742 -0.0017
23165SOL     OW74624   7.890   0.243   1.577 -0.9650  0.4100  0.0350
23165SOL    HW174625   7.980   0.276   1.581 -1.2589  1.1641  0.8013
23165SOL    HW274626   7.885   0.194   1.496  0.0381  0.6809 -0.1923
23166SOL     OW74627   2.399   6.547   8.547  0.2010  0.2381 -0.0400
23166SOL    HW174628   2.439   6.502   8.473  2.0695 -1.1228  1.7116
23166SOL    HW274629   2.361   6.477   8.600 -1.3377  1.2168  0.1651
23167SOL     OW74630   6.998   4.135   9.002 -0.1496 -0.1929  0.5727
23167SOL    HW174631   7.074   4.079   9.015  0.5998  0.7959  0.5619
23167SOL    HW274632   6.977   4.168   9.089  0.8501  1.3080  0.2752
23168SOL     OW74633   7.619   3.194   0.961 -0.0539  0.0878  0.8390
23168SOL    HW174634   7.550   3.231   1.016  0.9245 -0.4940  2.5007
23168SOL    HW274635   7.633   3.105   0.995 -0.5129 -0.8704 -1.3680
23169SOL     OW74636   1.378   0.756   2.388 -0.0587  0.7606  0.3657
23169SOL    HW174637   1.313   0.774   2.455 -0.3627 -0.0472  0.2931
23169SOL    HW274638   1.329   0.711   2.318  1.0903 -2.4337  1.5181
23170SOL     OW74639   5.333   1.016   5.214  0.1026 -0.0315  0.3009
23170SOL    HW174640   5.355   0.988   5.125 -1.8564  0.2643 -0.3046
23170SOL    HW274641   5.390   0.964   5.270  1.2864 -0.3121 -1.1113
23171SOL     OW74642   3.279   3.759   0.097 -0.2103 -0.1972  0.1843
23171SOL    HW174643   3.348   3.774   0.032 -0.2716 -0.0641  0.1496
23171SOL    HW274644   3.320   3.702   0.162 -0.2203 -0.5105 -0.0844
23172SOL     OW74645   7.112   9.564   9.902 -0.4277 -0.2317  0.1939
23172SOL    HW174646   7.159   9.482   9.913  0.2418  0.2521  1.0973
23172SOL    HW274647   7.104   9.599   9.991 -2.2028 -0.1373  0.0081
23173SOL     OW74648   1.230   8.717   2.449 -0.0134 -0.4008 -0.9635
23173SOL    HW174649   1.305   8.773   2.428 -0.5130  0.4455 -0.5298
23173SOL    HW274650   1.163   8.740   2.385  0.8249 -2.6976 -2.7209
23174SOL     OW74651   6.821   5.854   3.260 -0.3557  0.3651 -0.4594
23174SOL    HW174652   6.827   5.937   3.308 -0.5329 -0.9065  1.8368
23174SOL    HW274653   6.735   5.856   3.219  0.5212  2.2717 -2.3074
23175SOL     OW74654   5.509   4.805   5.016  0.7781  0.2045 -0.4616
23175SOL    HW174655   5.421   4.783   4.985  1.2796 -1.1513 -0.9348
23175SOL    HW274656   5.517   4.760   5.100  2.1417 -2.2244 -1.8573
23176SOL     OW74657   2.617   3.722   5.892 -0.3203 -0.5288 -0.0991
23176SOL    HW174658   2.591   3.804   5.935 -1.0157 -0.9392  0.2825
23176SOL    HW274659   2.665   3.750   5.814 -1.4732  0.2588 -0.5473
23177SOL     OW74660   6.452   2.215   1.151 -0.2739 -0.2952 -0.2575
23177SOL    HW174661   6.379   2.263   1.190  0.0483 -0.4992  0.5961
23177SOL    HW274662   6.520   2.281   1.137 -1.4459  0.3798 -3.2408
23178SOL     OW74663   6.592   1.069   0.235  0.3443  0.1493  0.3871
23178SOL    HW174664   6.571   1.137   0.299  0.9689 -0.8192  1.6608
23178SOL    HW274665   6.606   0.990   0.288  2.7332 -0.2513 -0.7874
23179SOL     OW74666  10.065   0.938   8.914  0.3875 -0.2315  0.4388
23179SOL    HW174667  10.002   1.010   8.922  1.4761  0.8558 -0.4728
23179SOL    HW274668  10.013   0.864   8.883 -0.5884  0.4398  0.4372
23180SOL     OW74669   1.593   1.593   6.491  0.5426  0.5277  0.1277
23180SOL    HW174670   1.584   1.498   6.486  1.2533  0.5107 -1.0919
23180SOL    HW274671   1.680   1.610   6.454  1.2960  1.4753  2.2384
23181SOL     OW74672   0.292  10.970   7.169  0.0356 -0.1649  0.2289
23181SOL    HW174673   0.220  11.016   7.125  0.6699  1.1856  0.5498
23181SOL    HW274674   0.284  10.996   7.261  1.0418  0.1467  0.2319
23182SOL     OW74675  10.092   1.500   7.201  0.3425 -0.4170 -0.1219
23182SOL    HW174676  10.151   1.572   7.224  0.5732 -1.0658  1.4334
23182SOL    HW274677  10.119   1.429   7.260 -0.9722 -1.2253 -0.4933
23183SOL     OW74678   5.470   2.213   2.506 -0.1192  0.8861 -0.1136
23183SOL    HW174679   5.386   2.208   2.459 -0.0956 -0.8570 -0.0175
23183SOL    HW274680   5.502   2.123   2.506  1.4162  1.4233  0.4863
23184SOL     OW74681   9.600   8.823  10.804  0.2879 -0.9639 -0.2292
23184SOL    HW174682   9.644   8.738  10.797  0.6721 -0.7976  0.1575
23184SOL    HW274683   9.597   8.841  10.898  2.9513  0.8789 -0.4412
23185SOL     OW74684   7.797   4.459   6.858 -0.6382 -0.0387  0.5330
23185SOL    HW174685   7.890   4.456   6.884 -0.2062 -0.3365 -1.0371
23185SOL    HW274686   7.781   4.551   6.837 -0.5159 -0.1054  0.1481
23186SOL     OW74687   2.876   5.011   1.438 -0.1766 -0.6182 -0.3660
23186SOL    HW174688   2.865   5.094   1.486 -1.4764 -0.7236 -0.4653
23186SOL    HW274689   2.926   4.956   1.498 -0.3328 -0.1652  0.1909
23187SOL     OW74690   8.341   8.292   6.736 -0.8623  0.4568  0.0479
23187SOL    HW174691   8.341   8.387   6.719  1.8495  0.7055  1.1951
23187SOL    HW274692   8.376   8.253   6.656 -0.0540  0.5955  0.3317
23188SOL     OW74693   4.396   0.614   3.575 -0.0083  0.5847  0.1978
23188SOL    HW174694   4.471   0.673   3.571  0.4994 -0.1008 -0.4835
23188SOL    HW274695   4.320   0.672   3.562  0.4556  1.1485 -0.0215
23189SOL     OW74696   3.048  11.170   6.300 -0.3973  0.7036 -0.5793
23189SOL    HW174697   3.064  11.123   6.382 -1.4677 -0.1034 -0.8276
23189SOL    HW274698   3.133  11.167   6.255  0.4209  1.8700  0.8421
23190SOL     OW74699   1.551   3.937  10.191 -0.5340 -0.3637  0.3417
23190SOL    HW174700   1.550   4.017  10.139  0.5478 -1.4461 -1.4200
23190SOL    HW274701   1.583   3.964  10.277  0.1707  1.0355 -0.3341
23191SOL     OW74702   1.454   8.023   4.051  0.6713 -0.0055 -0.2382
23191SOL    HW174703   1.395   8.092   4.019  0.3304 -0.0871  0.2143
23191SOL    HW274704   1.540   8.064   4.051  0.5310  0.2953 -0.3564
23192SOL     OW74705   7.529   2.419   7.881  0.7241 -0.3688 -0.3688
23192SOL    HW174706   7.622   2.437   7.894  0.6429 -0.3194  0.1545
23192SOL    HW274707   7.525   2.327   7.857  0.7363 -0.8983  1.6078
23193SOL     OW74708   3.102   7.738   0.264 -0.2193  0.4542 -0.6405
23193SOL    HW174709   3.038   7.675   0.231 -1.1511  0.4501  1.1193
23193SOL    HW274710   3.081   7.820   0.219 -0.1678 -0.0389 -1.5722
23194SOL     OW74711   5.831   4.762   2.210  0.6236  0.6252 -0.2819
23194SOL    HW174712   5.924   4.744   2.223  0.8952  2.3605  0.2877
23194SOL    HW274713   5.786   4.696   2.263  1.4991 -0.7191 -1.1781
23195SOL     OW74714   1.637   9.086   7.144 -0.1871  0.4825  0.3377
23195SOL    HW174715   1.582   9.159   7.172 -1.8055 -0.1029 -1.2331
23195SOL    HW274716   1.586   9.008   7.163 -0.0706 -0.0508 -1.4614
23196SOL     OW74717   4.799   0.712   6.544  0.3988 -0.1621  0.0953
23196SOL    HW174718   4.831   0.801   6.531  0.6762 -0.3496 -0.5455
23196SOL    HW274719   4.823   0.690   6.634  0.0712  0.5166  0.3479
23197SOL     OW74720   1.898   2.017   7.003 -0.0781  0.0749  0.7666
23197SOL    HW174721   1.893   2.059   6.917 -0.0959  0.2044  0.8320
23197SOL    HW274722   1.987   1.983   7.008  0.6256  2.0319  1.6350
23198SOL     OW74723   7.605   3.490   8.727 -0.4120 -0.0003 -0.3302
23198SOL    HW174724   7.637   3.580   8.730  1.3240 -0.6475  1.9887
23198SOL    HW274725   7.566   3.482   8.640  0.7162  2.5294 -1.1403
23199SOL     OW74726   2.596  10.777   0.855  0.3060  0.4139  0.0548
23199SOL    HW174727   2.683  10.817   0.851  0.0232  0.9011 -1.4705
23199SOL    HW274728   2.612  10.689   0.888  1.3348  0.6479  0.1961
23200SOL     OW74729   7.134  10.249   1.063 -0.6889  0.2548  0.6285
23200SOL    HW174730   7.179  10.165   1.072  0.5539  0.9088  0.5961
23200SOL    HW274731   7.156  10.278   0.974 -0.2800  1.0917  0.9991
23201SOL     OW74732  11.014   0.412   8.412  0.1901 -0.1556 -0.4066
23201SOL    HW174733  10.990   0.419   8.320  1.2543  0.6534 -0.6313
23201SOL    HW274734  11.042   0.321   8.423  1.9516  0.2544 -1.3590
23202SOL     OW74735   9.509   0.736   6.867  0.4465 -0.4738  0.1026
23202SOL    HW174736   9.524   0.642   6.857  0.8102 -0.4119  0.0545
23202SOL    HW274737   9.433   0.754   6.811  0.8486 -0.6036 -0.4949
23203SOL     OW74738   8.704   1.292   0.157 -0.3832  0.2111  0.2993
23203SOL    HW174739   8.646   1.353   0.203 -0.7328 -1.3770  2.0291
23203SOL    HW274740   8.651   1.258   0.085 -0.1119  2.0914 -0.8043
23204SOL     OW74741   2.252   3.630   6.239  0.2714 -0.3830 -0.3011
23204SOL    HW174742   2.246   3.671   6.153  0.6746 -1.1291 -0.6880
23204SOL    HW274743   2.181   3.565   6.240 -0.2097  0.1502  0.2141
23205SOL     OW74744   7.231   0.212  11.086 -0.4658 -0.4466 -0.0989
23205SOL    HW174745   7.171   0.138  11.095 -0.0217 -0.6345  1.3350
23205SOL    HW274746   7.179   0.289  11.111 -0.4142 -0.4773  0.0988
23206SOL     OW74747   5.052   2.296  10.857 -0.1382  0.1915 -0.5189
23206SOL    HW174748   4.997   2.374  10.855 -1.0112 -0.3759  0.5595
23206SOL    HW274749   5.058   2.273  10.950 -0.7687 -1.6105 -0.8976
23207SOL     OW74750   1.988   0.920  10.787  0.4101  0.1273  0.2426
23207SOL    HW174751   2.064   0.949  10.738  0.8528 -0.7491  0.4117
23207SOL    HW274752   2.022   0.859  10.852 -0.5318 -0.8645 -0.1792
23208SOL     OW74753   7.286   0.605   5.776 -0.0461 -0.0476  0.8976
23208SOL    HW174754   7.191   0.619   5.782  0.0426  0.3605  1.3270
23208SOL    HW274755   7.294   0.514   5.747 -0.5875  0.1885 -0.0268
23209SOL     OW74756   0.940   1.060   8.928 -0.3002  0.4850 -0.4397
23209SOL    HW174757   0.897   1.031   9.009 -2.7291  0.3386 -1.7501
23209SOL    HW274758   0.910   1.150   8.917  0.5743  0.7267 -0.8228
23210SOL     OW74759   2.058   8.637   7.333  0.0882 -0.0367  0.0912
23210SOL    HW174760   2.062   8.641   7.237  1.8262 -2.4584  0.0203
23210SOL    HW274761   2.080   8.725   7.362 -1.2727  0.9484 -1.7281
23211SOL     OW74762   7.161   9.929   7.270  0.5793 -0.4939 -0.2897
23211SOL    HW174763   7.131  10.018   7.289  1.4725  0.0463 -1.3616
23211SOL    HW274764   7.248   9.925   7.309  0.4795 -0.9467 -0.1157
23212SOL     OW74765   2.185   2.983   9.408 -0.1123  0.2833  0.3039
23212SOL    HW174766   2.270   2.994   9.366 -0.2296  1.5716  0.3850
23212SOL    HW274767   2.123   2.982   9.335 -0.1922  1.1750  0.3559
23213SOL     OW74768   6.994   7.586   1.765  0.2280  0.3859 -0.8133
23213SOL    HW174769   6.901   7.608   1.771  0.1701  0.0578 -0.5014
23213SOL    HW274770   6.998   7.491   1.776  0.7067  0.5364  0.3895
23214SOL     OW74771   3.437   5.276   1.424  0.0485  0.2435 -0.4578
23214SOL    HW174772   3.485   5.316   1.496  0.4617  0.2825 -0.7561
23214SOL    HW274773   3.345   5.293   1.445 -0.0700 -3.0023  2.0012
23215SOL     OW74774  11.333   8.443   6.170  0.1296 -0.4971  0.2864
23215SOL    HW174775  11.373   8.524   6.200 -1.1724 -0.1983  1.2898
23215SOL    HW274776  11.292   8.406   6.249  3.7811 -4.0022  0.6869
23216SOL     OW74777   6.366   1.568   7.070  1.0076 -1.0013 -0.0400
23216SOL    HW174778   6.452   1.607   7.059  0.4206 -0.2365 -2.1151
23216SOL    HW274779   6.319   1.631   7.126  0.8199  0.1269 -1.4355
23217SOL     OW74780   0.470   7.588   8.108 -0.5176  0.1957  0.1542
23217SOL    HW174781   0.380   7.596   8.140 -0.6736 -1.1783  0.1106
23217SOL    HW274782   0.474   7.644   8.030 -1.1636  0.7325  0.5144
23218SOL     OW74783   9.320  10.271   7.775  0.3846 -0.2501 -0.7917
23218SOL    HW174784   9.389  10.303   7.833 -1.4723  2.1735  0.1957
23218SOL    HW274785   9.311  10.179   7.797  3.8261 -0.8296 -1.5266
23219SOL     OW74786   3.132  10.812   9.246  0.2966  0.0523  0.2484
23219SOL    HW174787   3.163  10.721   9.247 -2.1511 -0.8110 -0.1397
23219SOL    HW274788   3.090  10.825   9.331 -0.5585  0.3920 -0.2196
23220SOL     OW74789   2.759   3.240   5.780  0.4556  0.3545 -0.2460
23220SOL    HW174790   2.709   3.251   5.699 -0.3276 -1.5133 -0.0426
23220SOL    HW274791   2.692   3.235   5.849  1.0082 -0.0659  0.2659
23221SOL     OW74792   0.655  10.064   3.222  0.2369 -0.0955 -0.5125
23221SOL    HW174793   0.662  10.158   3.206 -0.8606  0.1007  0.0964
23221SOL    HW274794   0.562  10.050   3.241  0.8209 -0.9146  1.8862
23222SOL     OW74795   5.388   7.530   9.834 -0.1096  0.0010  0.3214
23222SOL    HW174796   5.382   7.464   9.903 -0.0069  1.4525  1.7334
23222SOL    HW274797   5.338   7.493   9.761 -3.4953  0.0944  2.4835
23223SOL     OW74798   5.753  10.080   4.657 -0.2258 -0.4226 -0.1132
23223SOL    HW174799   5.740  10.169   4.689  1.7175  0.2179 -1.0024
23223SOL    HW274800   5.736  10.085   4.563  0.3308 -0.8733 -0.2459
23224SOL     OW74801   3.468   0.329   5.439  0.6950  0.2303  0.3267
23224SOL    HW174802   3.403   0.267   5.406  3.0036 -1.6053 -0.8952
23224SOL    HW274803   3.465   0.319   5.534 -2.5300  1.9986  0.4908
23225SOL     OW74804   9.113   9.593   6.268  0.1733  0.1670 -0.1063
23225SOL    HW174805   9.187   9.640   6.306 -0.4081  1.0959 -0.1039
23225SOL    HW274806   9.112   9.619   6.176  0.2203 -0.3215 -0.2456
23226SOL     OW74807   5.258   2.328  10.692 -0.0307 -0.2714 -0.3428
23226SOL    HW174808   5.172   2.314  10.731 -0.6123 -0.4463 -1.6570
23226SOL    HW274809   5.241   2.383  10.616  1.1264  0.3622 -0.1522
23227SOL     OW74810   7.961   9.304   2.459 -0.4427  0.4920 -0.5439
23227SOL    HW174811   7.969   9.399   2.454  0.2821  0.4935  0.4066
23227SOL    HW274812   8.028   9.278   2.523 -1.0497 -0.5938 -0.3350
23228SOL     OW74813   2.714   8.873   3.418  0.2802  0.0287  0.3213
23228SOL    HW174814   2.809   8.864   3.412  0.2073 -0.9988  0.7477
23228SOL    HW274815   2.685   8.795   3.464 -0.7042  0.6865  0.8332
23229SOL     OW74816   6.344   3.687  11.074  0.0647  0.0957  0.4987
23229SOL    HW174817   6.341   3.611  11.016 -0.7586 -0.9258  1.8434
23229SOL    HW274818   6.410   3.744  11.036 -0.5140 -0.5129 -1.4801
23230SOL     OW74819   2.468   2.481   5.104  0.2247  0.4871  0.2120
23230SOL    HW174820   2.414   2.436   5.039  0.8703  1.0678 -0.7520
23230SOL    HW274821   2.474   2.419   5.177 -0.0589 -0.4171 -0.5093
23231SOL     OW74822   9.350   4.599   8.381 -0.2322  0.0059 -0.3497
23231SOL    HW174823   9.383   4.668   8.323  2.1687 -0.3012  0.6004
23231SOL    HW274824   9.307   4.647   8.452 -0.8127  0.4375 -0.9762
23232SOL     OW74825   7.697   4.678   5.511 -0.3134  0.4270 -0.1137
23232SOL    HW174826   7.790   4.692   5.494  0.1316 -2.4980 -0.2123
23232SOL    HW274827   7.661   4.651   5.427 -1.3108  1.7609 -0.1264
23233SOL     OW74828   2.123   2.424   5.529 -0.4167  0.2410 -0.2218
23233SOL    HW174829   2.037   2.389   5.507 -1.3315  1.2307  1.5929
23233SOL    HW274830   2.178   2.347   5.540 -1.3266 -0.4475 -0.4194
23234SOL     OW74831   4.874   0.736   1.844  0.0193  0.5713  0.4060
23234SOL    HW174832   4.890   0.744   1.938 -0.6760  0.3139  0.5510
23234SOL    HW274833   4.788   0.693   1.838 -0.2807  1.2625 -0.3481
23235SOL     OW74834   5.113   9.077   5.998  0.4351 -0.1257 -0.2735
23235SOL    HW174835   5.102   9.162   6.039 -0.8116  0.4582 -1.7545
23235SOL    HW274836   5.199   9.080   5.957  0.6839  0.1603  0.2698
23236SOL     OW74837  10.256  11.121  10.244 -0.5617 -0.0936 -0.0108
23236SOL    HW174838  10.338  11.072  10.238 -0.8720 -0.6276  0.1266
23236SOL    HW274839  10.277  11.195  10.301  0.2014  0.5414 -1.0976
23237SOL     OW74840   1.193   0.341   8.092  0.1252  0.2810  0.2812
23237SOL    HW174841   1.222   0.427   8.123 -0.0358  1.1885 -1.9869
23237SOL    HW274842   1.239   0.328   8.009  0.6768 -2.1491  0.9041
23238SOL     OW74843   6.934   9.265   8.111 -0.3440  0.1214  0.8334
23238SOL    HW174844   6.983   9.241   8.032  0.5500  1.2374  1.0215
23238SOL    HW274845   6.878   9.190   8.128  0.0608 -0.4835 -0.3846
23239SOL     OW74846   5.127  10.901   8.368 -0.1677 -0.3543  0.4265
23239SOL    HW174847   5.115  10.811   8.337 -0.1272  0.2649 -1.4459
23239SOL    HW274848   5.222  10.911   8.375 -0.0059  0.4913 -2.3693
23240SOL     OW74849   6.516   3.348   7.538 -0.1806  0.1452  0.0282
23240SOL    HW174850   6.421   3.337   7.534 -0.3538  0.7132  2.1420
23240SOL    HW274851   6.550   3.280   7.480 -1.8005 -1.3919  0.8214
23241SOL     OW74852   1.748   1.716   9.155  0.1183 -0.3302 -0.2626
23241SOL    HW174853   1.750   1.669   9.071  0.0148 -0.6774 -0.0707
23241SOL    HW274854   1.714   1.653   9.217 -0.7381  0.2421 -0.1452
23242SOL     OW74855   8.472   0.670   6.251 -0.6615  0.1077  0.1893
23242SOL    HW174856   8.445   0.689   6.341  0.5977  0.1973  0.5543
23242SOL    HW274857   8.544   0.608   6.260 -1.4172 -0.9344 -0.8159
23243SOL     OW74858  10.311   2.541   6.975  0.0753  0.1874 -0.3012
23243SOL    HW174859  10.247   2.522   7.043 -0.1691 -0.0159 -0.5856
23243SOL    HW274860  10.266   2.518   6.893  0.7185 -0.4948 -0.4607
23244SOL     OW74861   5.263   9.037   3.480  0.3472 -0.2892 -0.0267
23244SOL    HW174862   5.339   9.039   3.539  0.9932  3.2947 -0.8528
23244SOL    HW274863   5.194   9.080   3.529  0.0693  0.1907 -0.8427
23245SOL     OW74864   7.443   9.474   7.596  0.5916 -0.1967 -0.2665
23245SOL    HW174865   7.494   9.530   7.539 -0.6482  0.1539 -1.0521
23245SOL    HW274866   7.412   9.531   7.666  0.8645 -0.3010 -0.0613
23246SOL     OW74867   3.669   3.406   3.580  0.6841  0.3127  0.0129
23246SOL    HW174868   3.624   3.351   3.516  1.1092 -0.3632  0.2989
23246SOL    HW274869   3.679   3.490   3.535  2.3746 -0.6191 -1.4030
23247SOL     OW74870   7.464   2.270   7.567  0.0698 -0.8161 -0.1511
23247SOL    HW174871   7.478   2.260   7.661 -0.8962  0.7760  0.1906
23247SOL    HW274872   7.388   2.215   7.548 -0.4800 -0.2063  0.2407
23248SOL     OW74873   5.197   1.484   8.756  0.0602  0.3049 -0.2244
23248SOL    HW174874   5.232   1.544   8.822  0.5732  1.5256 -1.5707
23248SOL    HW274875   5.129   1.435   8.802 -0.8334  2.3869  0.7607
23249SOL     OW74876   3.713   2.027  10.171  0.3602  0.1318  0.7309
23249SOL    HW174877   3.631   2.047  10.216 -0.5386  0.7181 -1.1279
23249SOL    HW274878   3.696   2.047  10.079  2.0966 -1.2431  0.0756
23250SOL     OW74879   5.720   4.575   9.261 -0.3157  0.1887 -0.0479
23250SOL    HW174880   5.631   4.610   9.252 -1.0555 -1.4693  0.7876
23250SOL    HW274881   5.714   4.510   9.331  1.4950 -0.1503 -0.1891
23251SOL     OW74882  11.050   2.682   0.501  0.5754  0.0115 -0.0659
23251SOL    HW174883  10.978   2.679   0.564 -0.4455 -0.8398 -1.2459
23251SOL    HW274884  11.128   2.699   0.554 -0.7621  3.1667  0.9891
23252SOL     OW74885   7.813   4.486   9.647 -0.4256  0.2612  0.3750
23252SOL    HW174886   7.777   4.411   9.693  0.8969  0.1924  1.3235
23252SOL    HW274887   7.869   4.530   9.711  1.0454  0.4501 -0.9872
23253SOL     OW74888   5.825  11.248   8.844  0.6308 -0.1546  0.2568
23253SOL    HW174889   5.768  11.253   8.921  0.1377 -2.5228  0.0665
23253SOL    HW274890   5.816  11.334   8.803 -0.2809  0.6192  2.0064
23254SOL     OW74891   5.135   8.464   5.119 -0.0584  0.1585 -0.5986
23254SOL    HW174892   5.127   8.526   5.192 -0.3350 -1.1613  0.5217
23254SOL    HW274893   5.060   8.406   5.129  0.5849 -0.7793 -1.2097
23255SOL     OW74894   5.511   5.469   0.591  0.0045 -0.3605 -0.9075
23255SOL    HW174895   5.571   5.404   0.628  0.0058  0.5781  0.7740
23255SOL    HW274896   5.433   5.464   0.646 -0.3229  0.4923 -1.2865
23256SOL     OW74897   6.236   2.431   8.704 -0.1167  0.4454 -0.2094
23256SOL    HW174898   6.306   2.477   8.750  0.6666  1.0628 -1.9722
23256SOL    HW274899   6.282   2.374   8.641 -1.1738  0.1410 -0.7135
23257SOL     OW74900   8.158   2.675   8.565  0.3151  0.2484 -0.2182
23257SOL    HW174901   8.158   2.667   8.469  1.2578  1.3458 -0.3232
23257SOL    HW274902   8.249   2.696   8.587  0.0963  0.0302  0.9265
23258SOL     OW74903   2.344   4.750   8.870 -0.0021  0.2405  0.4995
23258SOL    HW174904   2.384   4.663   8.866 -1.7672 -0.6223  1.0496
23258SOL    HW274905   2.367   4.791   8.787  0.5092 -0.9019  0.0714
23259SOL     OW74906   0.623   2.341   1.104 -0.2677 -0.6816 -1.2982
23259SOL    HW174907   0.705   2.293   1.110  0.5654  0.8684 -0.0871
23259SOL    HW274908   0.556   2.273   1.093  1.0068 -2.0515 -0.7055
23260SOL     OW74909   1.314   7.858  10.584  0.5584  0.2706  0.5410
23260SOL    HW174910   1.271   7.793  10.529  0.0394  1.8586 -0.9423
23260SOL    HW274911   1.257   7.867  10.660  0.4937 -0.7837  0.6284
23261SOL     OW74912   7.991   0.227   5.432 -0.2710 -0.3638  0.0993
23261SOL    HW174913   8.020   0.136   5.442  0.0752 -0.3019 -0.3271
23261SOL    HW274914   7.937   0.226   5.352  1.3152  0.1813 -0.9984
23262SOL     OW74915   1.325   1.506   0.127  0.1266 -0.0463 -0.1869
23262SOL    HW174916   1.284   1.514   0.213  0.5270 -0.3240  0.0293
23262SOL    HW274917   1.314   1.593   0.087  0.0559  0.1188  0.1926
23263SOL     OW74918   1.645   6.050   7.577  0.7204  0.6112  0.0560
23263SOL    HW174919   1.706   6.008   7.516  0.1732 -0.8710  0.5130
23263SOL    HW274920   1.683   6.033   7.664  0.0084  0.2813  0.2992
23264SOL     OW74921   9.807   5.111   9.927 -0.0129 -0.2298 -0.3277
23264SOL    HW174922   9.763   5.092   9.844 -0.2687 -0.9607 -0.0333
23264SOL    HW274923   9.779   5.200   9.949 -1.2105 -0.6128 -0.2447
23265SOL     OW74924   4.509   6.230  11.094  0.1576  0.3108 -0.1744
23265SOL    HW174925   4.523   6.308  11.148  0.9647  0.4978 -0.6455
23265SOL    HW274926   4.432   6.251  11.041 -0.1179  0.4651  0.2838
23266SOL     OW74927   4.807   8.042  10.402  0.2049  0.2805 -0.0611
23266SOL    HW174928   4.824   8.133  10.378 -1.9744  0.8328  0.3131
23266SOL    HW274929   4.767   8.003  10.324  1.0667 -0.3286 -0.2001
23267SOL     OW74930   8.277   2.685   5.274  0.1900  0.2147  0.2307
23267SOL    HW174931   8.244   2.711   5.360 -1.3502 -0.8164 -0.0251
23267SOL    HW274932   8.270   2.764   5.220  0.6045  0.7009  0.8856
23268SOL     OW74933   0.855   0.909   9.135  0.3470 -0.0218  0.4321
23268SOL    HW174934   0.900   0.860   9.204 -1.7281 -1.4414  0.8315
23268SOL    HW274935   0.779   0.855   9.113  0.2758  1.0262 -2.0872
23269SOL     OW74936  11.320   3.654   2.873 -0.9626 -0.2208  0.0043
23269SOL    HW174937  11.360   3.709   2.941 -0.9003 -0.6944  0.3500
23269SOL    HW274938  11.378   3.664   2.797  0.2985 -1.5918  0.7730
23270SOL     OW74939   9.340   5.112   8.129  0.8093  0.1652  0.0968
23270SOL    HW174940   9.258   5.153   8.100 -0.2641 -2.9883 -1.5161
23270SOL    HW274941   9.321   5.081   8.217  0.4108 -0.1517 -0.0994
23271SOL     OW74942   1.024  11.194   4.358 -0.3920 -0.1973  0.0856
23271SOL    HW174943   1.058  11.240   4.282  0.4686 -1.2181 -0.1564
23271SOL    HW274944   1.066  11.108   4.355 -0.3507 -0.2479  1.7175
23272SOL     OW74945   8.331  10.401   3.801 -0.0408  0.1586 -0.5763
23272SOL    HW174946   8.263  10.446   3.851 -0.2257 -0.3869 -0.3223
23272SOL    HW274947   8.305  10.309   3.804  1.1704 -0.1643  0.2601
23273SOL     OW74948  10.732   0.284   8.009 -0.4533 -0.6642  0.2173
23273SOL    HW174949  10.765   0.290   7.919 -0.0200 -1.4721  0.3218
23273SOL    HW274950  10.653   0.339   8.009  0.7059  1.0400 -0.0992
23274SOL     OW74951   4.022   8.467   1.103  0.2951  0.0676 -0.0020
23274SOL    HW174952   4.012   8.525   1.028 -0.4450  0.1729  0.1731
23274SOL    HW274953   4.076   8.517   1.165 -1.0356  0.9175  0.4933
23275SOL     OW74954   7.564  10.334   4.366  0.6708  0.2630 -0.2152
23275SOL    HW174955   7.547  10.414   4.415 -0.3423 -0.9953  1.5372
23275SOL    HW274956   7.659  10.324   4.370  0.6900  0.7023  0.6389
23276SOL     OW74957   3.034   3.696   0.182  0.4065  0.4184  0.3400
23276SOL    HW174958   3.111   3.731   0.137  1.7799 -0.0876  2.2273
23276SOL    HW274959   3.066   3.671   0.269 -2.3001  1.9647  1.8470
23277SOL     OW74960   1.841   0.334   0.669 -0.1545 -0.3747  0.0206
23277SOL    HW174961   1.752   0.351   0.639 -0.7531  0.3794  2.0911
23277SOL    HW274962   1.895   0.393   0.616 -0.9854 -0.2039 -0.6559
23278SOL     OW74963  11.326   7.370   4.466  0.6239 -0.1439  0.7184
23278SOL    HW174964  11.334   7.391   4.560  0.3196  0.4969  0.6047
23278SOL    HW274965  11.291   7.281   4.465  0.0813  0.0586  1.2176
23279SOL     OW74966   0.885   2.397   4.945  0.6725 -0.2983 -0.7749
23279SOL    HW174967   0.894   2.307   4.915 -1.3225 -0.4053 -1.1309
23279SOL    HW274968   0.825   2.392   5.019  0.2010  0.7787 -1.0680
23280SOL     OW74969   7.254   2.697   6.318  0.7924 -0.4240 -0.3175
23280SOL    HW174970   7.264   2.658   6.404 -0.7467 -0.1634 -0.0234
23280SOL    HW274971   7.296   2.783   6.325  2.1552 -1.0622 -0.3288
23281SOL     OW74972   7.579  11.103   0.339 -0.1178 -0.0990  0.0814
23281SOL    HW174973   7.544  11.019   0.367 -2.9447  0.7948 -0.6404
23281SOL    HW274974   7.624  11.083   0.256 -0.6327 -0.9011 -0.0097
23282SOL     OW74975   0.125   7.573   8.870 -0.0648  0.6517 -0.2299
23282SOL    HW174976   0.082   7.568   8.785 -0.0344  0.8501 -0.2548
23282SOL    HW274977   0.138   7.666   8.886  2.0783  0.5010 -1.0584
23283SOL     OW74978   4.748   7.896  11.062  0.3790 -0.1618  0.2494
23283SOL    HW174979   4.660   7.879  11.098  0.9127  0.9807  2.1920
23283SOL    HW274980   4.807   7.883  11.136  1.9169 -1.4144 -1.1726
23284SOL     OW74981   7.753  10.988   9.332  0.2087  0.0989 -0.9088
23284SOL    HW174982   7.694  10.985   9.256 -2.7567  3.1377  1.1040
23284SOL    HW274983   7.824  11.047   9.305 -1.9602  2.9299 -0.7025
23285SOL     OW74984  10.932   4.823   5.737  0.3545  0.1510 -0.4902
23285SOL    HW174985  10.991   4.895   5.714 -0.9256  0.6982 -2.2052
23285SOL    HW274986  10.909   4.783   5.653 -1.9482  0.1481  0.1046
23286SOL     OW74987   9.709   3.891   7.463  0.5633 -0.0074 -0.0329
23286SOL    HW174988   9.737   3.914   7.374 -1.0210 -2.7140 -1.3177
23286SOL    HW274989   9.716   3.795   7.466 -2.0583 -0.1929  1.7925
23287SOL     OW74990   3.365   6.336   9.749  0.6278 -0.0110  0.7353
23287SOL    HW174991   3.425   6.374   9.684 -1.0976  0.1729 -0.8054
23287SOL    HW274992   3.346   6.249   9.715 -1.2703  0.5495  0.3189
23288SOL     OW74993   7.526   7.457   3.193 -0.3077  0.2178  0.2708
23288SOL    HW174994   7.506   7.534   3.245  2.3185  0.7774  0.5140
23288SOL    HW274995   7.544   7.490   3.105  2.1526  0.0795  0.6868
23289SOL     OW74996   6.189   7.923  10.517 -0.5594 -0.7008 -0.5248
23289SOL    HW174997   6.150   7.850  10.565  0.5103 -0.8115  0.2022
23289SOL    HW274998   6.266   7.886  10.475 -0.4393 -0.1660 -0.7817
23290SOL     OW74999   8.120   2.177   5.915 -0.3284 -0.0996  0.3438
23290SOL    HW175000   8.162   2.095   5.890 -0.3967  0.0574 -0.3093
23290SOL    HW275001   8.128   2.181   6.010  2.1277  0.4408  0.1572
23291SOL     OW75002   4.162   0.637   4.828  0.5441  0.2807 -0.0340
23291SOL    HW175003   4.076   0.676   4.813  0.7766  0.0236 -2.2475
23291SOL    HW275004   4.224   0.698   4.787  1.3162 -0.0752  0.5842
23292SOL     OW75005   8.992   6.743   3.762 -0.2662 -1.0134  0.0600
23292SOL    HW175006   8.951   6.757   3.848 -0.6781 -0.4192 -0.2309
23292SOL    HW275007   8.918   6.724   3.704 -0.1370  0.0981 -0.4758
23293SOL     OW75008   2.506   0.956   6.832 -0.0787 -0.1701 -0.7812
23293SOL    HW175009   2.475   1.035   6.876  1.4845 -0.0518  0.1648
23293SOL    HW275010   2.428   0.903   6.820 -0.8062  0.5419  0.6139
23294SOL     OW75011   0.357   9.723   1.831  0.1625 -0.1066  0.4279
23294SOL    HW175012   0.334   9.791   1.895  0.5919 -0.3286  0.8197
23294SOL    HW275013   0.276   9.707   1.783  0.4819  1.9890 -0.9053
23295SOL     OW75014   0.804   8.809   6.630  0.0721  0.0531 -0.0520
23295SOL    HW175015   0.719   8.854   6.638 -0.6884 -1.5782  1.4665
23295SOL    HW275016   0.848   8.826   6.714  0.1998 -1.1511  0.1324
23296SOL     OW75017   7.982  11.037   5.944  0.2973 -0.5124 -0.0791
23296SOL    HW175018   7.922  11.104   5.912  0.2606 -0.4545  0.1146
23296SOL    HW275019   7.927  10.961   5.959 -0.1328  0.2470  2.3535
23297SOL     OW75020   9.969   3.394   0.915  0.1119  0.4703 -0.0413
23297SOL    HW175021  10.005   3.321   0.865  1.3976  0.1634  1.2936
23297SOL    HW275022   9.886   3.360   0.950  1.4023 -0.9006  1.7954
23298SOL     OW75023   8.828   4.176   8.796  0.1238  0.0560  0.5208
23298SOL    HW175024   8.782   4.101   8.757  2.0552 -0.4876 -0.7733
23298SOL    HW275025   8.912   4.140   8.825  1.2484  1.8179 -0.5062
23299SOL     OW75026   1.769   8.164   5.491  0.1468  0.3820 -0.3270
23299SOL    HW175027   1.780   8.132   5.581  0.4661 -0.0734 -0.5271
23299SOL    HW275028   1.857   8.161   5.454  0.3313  2.3215 -0.0740
23300SOL     OW75029   1.514   0.129   5.618  0.4502 -0.2829  0.5853
23300SOL    HW175030   1.478   0.064   5.558 -0.8649 -0.1644  1.2464
23300SOL    HW275031   1.503   0.091   5.705 -0.8088  1.0343  1.0203
23301SOL     OW75032   8.697   9.122   1.100  0.0596  0.4347  0.4882
23301SOL    HW175033   8.721   9.204   1.057  1.0429  0.4709  1.0858
23301SOL    HW275034   8.772   9.102   1.156  0.7107 -1.9536 -1.1724
23302SOL     OW75035   7.068   4.784   4.393 -0.0779  0.3920  0.2173
23302SOL    HW175036   7.079   4.713   4.329  0.4195 -0.8649  1.6762
23302SOL    HW275037   7.130   4.762   4.463 -0.8498  1.5913  1.2751
23303SOL     OW75038   8.263   9.084   6.130 -0.1684 -0.3327 -0.3674
23303SOL    HW175039   8.232   9.174   6.140  1.2565  0.1110  0.2084
23303SOL    HW275040   8.262   9.048   6.219  1.6357 -0.0643 -0.2078
23304SOL     OW75041   8.939   6.259   2.503  0.1382  0.4176  0.0758
23304SOL    HW175042   8.879   6.333   2.488  0.7957  1.0240  0.3857
23304SOL    HW275043   9.005   6.294   2.563 -0.8617 -1.1179  2.1458
23305SOL     OW75044  11.122   6.241   4.661  0.3652  0.1130  0.2376
23305SOL    HW175045  11.170   6.217   4.740  0.4742  0.3431  0.2430
23305SOL    HW275046  11.068   6.316   4.687  0.9653  0.6708 -0.0948
23306SOL     OW75047   7.260   4.499   3.017 -0.2521  0.8496  0.1949
23306SOL    HW175048   7.177   4.518   3.060 -0.6068  0.6940 -0.4131
23306SOL    HW275049   7.270   4.567   2.951 -1.5179 -0.9692 -1.9718
23307SOL     OW75050   3.011   1.308   3.398  0.2908  0.0257  0.0108
23307SOL    HW175051   2.928   1.356   3.401  0.1838 -0.0906 -0.9815
23307SOL    HW275052   3.057   1.335   3.477 -1.0833 -0.6123  1.0423
23308SOL     OW75053   1.832   9.127   7.401  0.1175  0.0012  0.4442
23308SOL    HW175054   1.777   9.054   7.428 -0.1661  0.1342  0.2244
23308SOL    HW275055   1.799   9.152   7.315  0.1648  0.4388  0.5512
23309SOL     OW75056   1.431   9.750   2.261  0.3275 -0.3813  0.1957
23309SOL    HW175057   1.369   9.777   2.193  0.5183 -0.8045 -0.1471
23309SOL    HW275058   1.479   9.830   2.283  1.0818 -0.4945 -1.0156
23310SOL     OW75059   5.194   5.011   1.463  0.1133 -0.0615 -0.2174
23310SOL    HW175060   5.261   5.071   1.429 -0.0710  0.1364 -0.2297
23310SOL    HW275061   5.165   5.051   1.545  0.1479 -0.2479 -0.1139
23311SOL     OW75062   2.792   1.471   5.041  0.1566  0.0808 -0.3999
23311SOL    HW175063   2.859   1.403   5.045 -1.1430 -1.1794  0.5546
23311SOL    HW275064   2.775   1.483   4.948 -1.0373 -2.4022 -0.5587
23312SOL     OW75065   1.819   6.151   2.892 -0.4513 -0.2623  0.1724
23312SOL    HW175066   1.776   6.081   2.843 -4.8217  0.5355  2.6117
23312SOL    HW275067   1.784   6.232   2.855  1.4856  0.5482  0.0538
23313SOL     OW75068   6.537   4.187   7.277  0.9907  0.2612 -0.1714
23313SOL    HW175069   6.465   4.250   7.286  0.0585 -0.8945  0.5103
23313SOL    HW275070   6.616   4.240   7.286  0.2073  0.9627  3.0184
23314SOL     OW75071   9.584  10.248  11.255 -0.0332 -0.3627  0.3881
23314SOL    HW175072   9.666  10.251  11.305 -0.0228 -0.6934  0.3882
23314SOL    HW275073   9.565  10.340  11.236 -0.3675 -0.1709  1.5597
23315SOL     OW75074   1.000   3.631   9.916 -0.2006  0.6794 -0.3353
23315SOL    HW175075   1.023   3.711   9.963  0.4989 -0.5962  1.5390
23315SOL    HW275076   0.905   3.635   9.906 -0.1151  1.9552 -0.6594
23316SOL     OW75077   4.127   0.495   0.396  0.3238 -0.4073  0.5106
23316SOL    HW175078   4.161   0.465   0.480 -0.1545  0.3403  0.9759
23316SOL    HW275079   4.141   0.421   0.336 -0.1887 -1.2820  1.4679
23317SOL     OW75080   6.005   9.050   2.248 -0.1667 -0.2561  0.6393
23317SOL    HW175081   6.079   8.991   2.232  0.5642  1.4300 -2.5442
23317SOL    HW275082   5.928   9.000   2.221  0.2748 -0.4019 -0.3636
23318SOL     OW75083   1.466   5.788   7.983 -0.1608 -0.6635  0.1076
23318SOL    HW175084   1.433   5.820   7.899  0.6012 -1.9394 -0.6874
23318SOL    HW275085   1.456   5.863   8.042 -2.2420 -0.2869 -0.6927
23319SOL     OW75086   3.613  10.066   7.509  0.0974  0.3018 -0.2502
23319SOL    HW175087   3.630   9.993   7.449  1.4893 -0.1045  0.6175
23319SOL    HW275088   3.568  10.130   7.455 -1.8769 -1.5136 -0.8290
23320SOL     OW75089   8.566   5.975   8.190 -0.4047 -0.5035  0.4260
23320SOL    HW175090   8.574   6.064   8.225 -0.9873 -0.9347  1.6745
23320SOL    HW275091   8.492   5.980   8.129  0.9097  0.3608 -1.1554
23321SOL     OW75092   8.338   5.912   4.836  0.1886  0.1190 -0.4948
23321SOL    HW175093   8.388   5.832   4.818 -0.3976 -0.8540  1.9559
23321SOL    HW275094   8.405   5.981   4.843  1.3041 -1.2267  3.1061
23322SOL     OW75095   2.519   5.654   6.869  0.3560 -0.3100  0.2661
23322SOL    HW175096   2.437   5.647   6.918 -1.5551  1.7069 -2.4971
23322SOL    HW275097   2.567   5.725   6.912 -1.1542  1.2226 -0.5203
23323SOL     OW75098   7.363   5.666   5.825  0.2038 -0.4564  0.0255
23323SOL    HW175099   7.279   5.649   5.868 -0.6708  1.1502 -1.0358
23323SOL    HW275100   7.368   5.600   5.756  0.2319 -1.1058  0.6327
23324SOL     OW75101   8.092   5.347   5.967  0.7376  0.2259  0.6458
23324SOL    HW175102   8.074   5.431   6.008 -0.6555  0.0089  0.5030
23324SOL    HW275103   8.055   5.282   6.028 -0.5656 -0.1402 -0.5048
23325SOL     OW75104   3.791   9.643   8.894 -0.3171  0.8709 -0.2320
23325SOL    HW175105   3.703   9.632   8.860  0.2446  1.7535 -2.1023
23325SOL    HW275106   3.779   9.683   8.980 -1.8120 -1.8563  0.8530
23326SOL     OW75107   2.006   9.576   5.917 -0.0873 -0.3322  0.6447
23326SOL    HW175108   1.987   9.495   5.963  1.1110 -0.9445  0.0899
23326SOL    HW275109   2.067   9.622   5.975  1.0832 -0.9071 -0.1039
23327SOL     OW75110   9.501  10.968   3.649  0.2641 -0.5018  0.4726
23327SOL    HW175111   9.480  10.875   3.639 -0.5237 -0.2785  0.0491
23327SOL    HW275112   9.432  11.014   3.602 -0.8726  0.4117  2.9545
23328SOL     OW75113   2.934   4.363   5.269 -0.6304 -0.0530  0.0333
23328SOL    HW175114   2.966   4.386   5.181 -0.5284  1.8800  0.5703
23328SOL    HW275115   2.957   4.438   5.324 -3.1272 -0.0511  1.1466
23329SOL     OW75116   4.906   4.234  10.550 -0.8535 -0.3416  0.0026
23329SOL    HW175117   4.822   4.204  10.584 -1.0747 -1.2677 -1.3201
23329SOL    HW275118   4.887   4.263  10.461 -0.4779  2.9483  0.8957
23330SOL     OW75119   8.846   7.967   5.483 -0.3770  0.4533  0.6071
23330SOL    HW175120   8.939   7.976   5.459  0.0429  1.3284  2.4902
23330SOL    HW275121   8.808   8.053   5.467 -1.0220 -0.0657 -0.7319
23331SOL     OW75122   6.742   3.655   8.681  0.1330  0.9146 -0.2933
23331SOL    HW175123   6.678   3.709   8.726 -0.1044  0.5667 -0.2075
23331SOL    HW275124   6.700   3.569   8.673  0.8271  0.5051  0.3322
23332SOL     OW75125   3.895  10.789   2.341  0.4254 -0.5263 -0.0806
23332SOL    HW175126   3.834  10.863   2.346 -0.1182 -1.0412  0.9445
23332SOL    HW275127   3.949  10.797   2.420  2.7805  0.8524 -1.7495
23333SOL     OW75128   0.630   0.355   4.293 -0.1154  0.2608 -0.1742
23333SOL    HW175129   0.564   0.324   4.355 -0.8409 -0.2689 -1.1982
23333SOL    HW275130   0.635   0.449   4.308 -0.0501  0.0953  0.9011
23334SOL     OW75131   8.166   8.349   1.741 -0.3496 -0.1845 -0.2990
23334SOL    HW175132   8.198   8.424   1.690  1.0809 -1.0700 -0.7199
23334SOL    HW275133   8.190   8.273   1.689 -2.3873 -0.9373 -0.2064
23335SOL     OW75134   3.546   2.339   0.104 -0.3326  0.5637 -0.7790
23335SOL    HW175135   3.503   2.420   0.130  0.5051  0.5263  0.7287
23335SOL    HW275136   3.600   2.315   0.179 -1.8477 -2.2924 -0.5457
23336SOL     OW75137  10.762   3.140   0.980 -0.1087  0.3789 -0.8011
23336SOL    HW175138  10.781   3.050   0.953  0.9957  0.8721 -1.6767
23336SOL    HW275139  10.699   3.130   1.052 -0.9312 -1.0400 -1.6845
23337SOL     OW75140   5.760   0.758   2.008  0.3390 -0.1753  0.3566
23337SOL    HW175141   5.763   0.829   1.944 -0.5207  1.1079  1.7115
23337SOL    HW275142   5.710   0.688   1.964 -3.5599  2.0965  0.9366
23338SOL     OW75143   3.220   1.449   4.133  0.4140 -0.4165  0.0386
23338SOL    HW175144   3.311   1.463   4.107  0.7057  0.7838  1.6441
23338SOL    HW275145   3.169   1.476   4.057  1.3522 -0.3071 -0.5692
23339SOL     OW75146   9.934  10.667   9.241 -0.6151 -0.0306  0.1492
23339SOL    HW175147   9.914  10.586   9.195 -0.1180  0.0537 -0.2181
23339SOL    HW275148   9.941  10.733   9.172 -1.4714  0.4149  0.4892
23340SOL     OW75149   9.401   8.190   6.540 -0.0070  0.1789  0.0445
23340SOL    HW175150   9.448   8.127   6.595 -0.5763  0.3541  0.7366
23340SOL    HW275151   9.470   8.241   6.499  0.4775 -1.0674 -0.7417
23341SOL     OW75152   9.401   0.547   1.535  0.0654 -0.2613 -0.1035
23341SOL    HW175153   9.441   0.627   1.502 -0.1223  0.9167  2.4576
23341SOL    HW275154   9.475   0.489   1.555  0.3285  0.3506  0.7089
23342SOL     OW75155   7.992   1.728   2.540  0.3576 -0.1047  0.8641
23342SOL    HW175156   7.960   1.807   2.496  2.6873  0.7979  0.7169
23342SOL    HW275157   8.010   1.667   2.468  2.3066  0.6739  0.6542
23343SOL     OW75158   3.576   1.594   1.360 -0.4734 -0.0186  0.4440
23343SOL    HW175159   3.548   1.510   1.396 -1.4486  0.1914  0.2051
23343SOL    HW275160   3.579   1.653   1.435  0.1231 -0.2401  0.5969
23344SOL     OW75161   7.339  10.061  10.300  1.0266  0.1053 -0.2231
23344SOL    HW175162   7.377  10.001  10.236 -1.5173 -1.4188 -0.3721
23344SOL    HW275163   7.332  10.009  10.380 -2.5188 -0.3568 -0.7358
23345SOL     OW75164   7.725  11.251   8.995  0.1795  0.0053  0.0152
23345SOL    HW175165   7.802  11.222   8.945  0.8915  0.0224  1.0922
23345SOL    HW275166   7.666  11.286   8.928  1.1292  0.0448 -0.8269
23346SOL     OW75167   6.715   3.944   5.136  0.1638  0.1799 -0.1955
23346SOL    HW175168   6.741   3.941   5.228  1.0839  1.4662 -0.3977
23346SOL    HW275169   6.673   4.030   5.126  2.0469  0.9910 -1.4671
23347SOL     OW75170   6.712   1.558  11.219  0.1163  0.0927 -0.0100
23347SOL    HW175171   6.800   1.591  11.234  0.5694 -1.5753  1.2568
23347SOL    HW275172   6.660   1.595  11.290  0.0051  0.3608 -0.2337
23348SOL     OW75173   4.130   6.652   0.978  0.2203 -0.4860 -0.2842
23348SOL    HW175174   4.109   6.702   1.057  0.5598  0.0337 -0.5239
23348SOL    HW275175   4.225   6.647   0.978  0.2329 -0.2178 -0.8283
23349SOL     OW75176   0.964   4.340   3.263 -0.1171  0.3205  0.5878
23349SOL    HW175177   0.954   4.245   3.267  1.0815  0.1513 -0.3082
23349SOL    HW275178   0.905   4.367   3.192  0.7076  0.0692 -0.1981
23350SOL     OW75179   6.245  10.780   4.511 -0.1662  0.1295 -0.2502
23350SOL    HW175180   6.166  10.826   4.484 -1.1053 -1.6940 -0.6404
23350SOL    HW275181   6.253  10.706   4.451  3.4273  1.8485 -2.0752
23351SOL     OW75182  10.897   7.684   0.835 -0.3499  0.0904 -0.2060
23351SOL    HW175183  10.804   7.669   0.850 -0.3917  0.3625 -0.1918
23351SOL    HW275184  10.941   7.626   0.897 -0.4882 -1.0147 -1.1274
23352SOL     OW75185   3.120  11.192   6.574 -0.8271 -0.4101  0.2573
23352SOL    HW175186   3.167  11.259   6.623  1.9175 -1.2504 -1.1577
23352SOL    HW275187   3.088  11.131   6.640  2.9689 -1.6275  1.0457
23353SOL     OW75188   7.546   5.504   7.861  0.0846 -0.0794 -0.4063
23353SOL    HW175189   7.459   5.542   7.850 -0.1385 -0.1574  0.9549
23353SOL    HW275190   7.606   5.574   7.834 -0.3558  0.7861  0.7937
23354SOL     OW75191   9.548  10.021   3.396  0.1751 -0.0736  0.3189
23354SOL    HW175192   9.514   9.959   3.461  0.4843  1.0649  1.5783
23354SOL    HW275193   9.627   9.979   3.362  0.0153 -0.6702  0.6785
23355SOL     OW75194   4.646   9.840   3.907  0.0407  0.1811 -0.2206
23355SOL    HW175195   4.625   9.848   3.814  1.4373 -1.4058 -0.6919
23355SOL    HW275196   4.562   9.852   3.951 -1.3246 -2.7073 -1.8745
23356SOL     OW75197   4.421   2.399   0.067 -0.1546 -0.0029  0.9279
23356SOL    HW175198   4.477   2.402  -0.010 -1.6782  0.0823 -0.1841
23356SOL    HW275199   4.343   2.449   0.042 -2.3076 -3.1079  1.2075
23357SOL     OW75200   3.977   0.474  10.697  0.5316  0.2187 -0.1222
23357SOL    HW175201   3.994   0.414  10.770  0.9680  0.0655 -0.3442
23357SOL    HW275202   4.061   0.518  10.682  0.6495 -0.2952 -1.0145
23358SOL     OW75203   9.997   8.691   7.363 -0.1858 -0.3639 -0.0605
23358SOL    HW175204  10.081   8.735   7.348 -0.2259 -0.6542 -1.1960
23358SOL    HW275205   9.942   8.719   7.290 -0.2933 -2.0909 -0.6667
23359SOL     OW75206   7.499   3.649   4.857 -0.6492 -0.6462  0.6078
23359SOL    HW175207   7.514   3.698   4.776  0.8687 -1.8918  0.1099
23359SOL    HW275208   7.425   3.693   4.899 -1.4920 -0.0225 -1.4816
23360SOL     OW75209   2.270   4.213   1.072 -0.0905 -0.4495 -0.7153
23360SOL    HW175210   2.293   4.305   1.068 -0.2791 -0.3949 -0.5240
23360SOL    HW275211   2.341   4.168   1.025  0.3909 -0.2841 -0.1420
23361SOL     OW75212   3.468   3.804   6.703 -0.4515  0.2129  0.0568
23361SOL    HW175213   3.554   3.778   6.736  0.2322  1.1522 -0.9267
23361SOL    HW275214   3.460   3.896   6.729 -1.5970 -0.1480  1.0117
23362SOL     OW75215   4.926   4.431   7.301  0.2518 -0.1450 -0.7009
23362SOL    HW175216   4.976   4.467   7.374  1.5567  1.7867 -2.4901
23362SOL    HW275217   4.835   4.441   7.328  0.6850  1.7171  0.1313
23363SOL     OW75218   6.196  10.506   9.509  0.4071 -0.8881 -0.0607
23363SOL    HW175219   6.170  10.587   9.464 -0.1887 -1.7838 -1.3767
23363SOL    HW275220   6.246  10.536   9.585 -0.8895  0.7672  0.1879
23364SOL     OW75221   1.340   7.303   0.154  0.2948 -0.1417  0.0104
23364SOL    HW175222   1.381   7.357   0.223  0.8488 -0.3201 -0.1760
23364SOL    HW275223   1.390   7.323   0.075  0.9781 -1.4768  0.0885
23365SOL     OW75224   8.616   9.234  10.125  0.3766  0.4681 -0.2034
23365SOL    HW175225   8.710   9.242  10.115  0.5954  0.7265  1.7782
23365SOL    HW275226   8.582   9.321  10.105  0.5626  0.4144 -0.7696
23366SOL     OW75227   3.718   7.292   0.987 -0.2498  0.0460  0.0052
23366SOL    HW175228   3.701   7.317   0.896  0.7521 -0.2944 -0.2874
23366SOL    HW275229   3.777   7.359   1.020  0.9638 -0.8910 -0.2135
23367SOL     OW75230  11.276   7.555   6.185 -0.4524  0.4360 -0.1584
23367SOL    HW175231  11.212   7.614   6.226 -0.9108  0.3544 -0.7542
23367SOL    HW275232  11.296   7.596   6.101  0.5101  0.6174  0.1515
23368SOL     OW75233   1.291   7.873   1.743  0.5339 -0.1142  0.0675
23368SOL    HW175234   1.203   7.847   1.717  0.7804  0.8546 -1.7825
23368SOL    HW275235   1.335   7.790   1.764 -0.7450 -0.6152  0.8783
23369SOL     OW75236   9.526   0.952   8.737 -0.4219  0.1781  0.0002
23369SOL    HW175237   9.581   0.933   8.661 -0.6712  0.9297 -0.3738
23369SOL    HW275238   9.443   0.982   8.699 -0.8052 -0.1522  0.5649
23370SOL     OW75239   3.832   4.799   0.467 -0.2797 -0.1711 -0.1916
23370SOL    HW175240   3.749   4.838   0.440  0.0022 -1.4964 -3.1942
23370SOL    HW275241   3.806   4.728   0.526 -1.3348 -0.7105 -1.2675
23371SOL     OW75242   6.284   5.804   9.631 -1.0979  0.0235  0.0482
23371SOL    HW175243   6.365   5.852   9.613 -0.3622 -0.7859  1.1541
23371SOL    HW275244   6.215   5.869   9.623 -0.1557  1.1532  0.9895
23372SOL     OW75245   3.964  10.004   0.519  0.0370 -0.1772 -0.2056
23372SOL    HW175246   3.977  10.022   0.612 -1.4279 -1.4460  0.2800
23372SOL    HW275247   4.040   9.953   0.492  0.2394 -0.1958  0.4137
23373SOL     OW75248   1.387   2.816   3.635 -0.2360 -0.4795 -0.2739
23373SOL    HW175249   1.302   2.835   3.595 -1.2218  0.5679  2.2116
23373SOL    HW275250   1.451   2.847   3.570 -1.7072 -1.9560 -2.5021
23374SOL     OW75251   7.825   7.644   0.406 -0.0680  0.0674 -0.1729
23374SOL    HW175252   7.790   7.569   0.453 -0.9557  0.2674 -0.4988
23374SOL    HW275253   7.810   7.719   0.464 -4.8346  0.9695 -2.3344
23375SOL     OW75254   2.976   9.418   1.882 -0.2962 -0.2704  0.3940
23375SOL    HW175255   2.890   9.445   1.851 -0.5538 -0.3674  1.0193
23375SOL    HW275256   2.962   9.395   1.974  0.0463 -1.9114  0.0519
23376SOL     OW75257   8.839   2.581  10.154 -0.1080  0.5851  0.2703
23376SOL    HW175258   8.778   2.511  10.131  0.9197 -0.2516  0.0190
23376SOL    HW275259   8.800   2.625  10.229 -0.3620 -0.8057  0.9632
23377SOL     OW75260   9.190   0.128   5.522  0.0488 -0.3491  0.0253
23377SOL    HW175261   9.157   0.062   5.461 -1.2766  0.1478  0.2002
23377SOL    HW275262   9.133   0.204   5.509  0.2443  0.0290  1.3428
23378SOL     OW75263   0.391   7.913   8.283 -0.1085 -0.0890 -0.2021
23378SOL    HW175264   0.446   7.973   8.233  0.0214  0.8623  1.0659
23378SOL    HW275265   0.453   7.853   8.324 -0.1318 -0.0472 -0.1077
23379SOL     OW75266   6.302   5.342   8.372  1.0925 -0.0899  0.3006
23379SOL    HW175267   6.308   5.427   8.330  2.1863 -0.1152  0.3977
23379SOL    HW275268   6.299   5.280   8.300  0.5879  0.0061  0.2349
23380SOL     OW75269   2.448   6.983   4.610 -0.1440  0.4185 -0.2373
23380SOL    HW175270   2.511   6.942   4.670  1.7328  0.8191 -1.8708
23380SOL    HW275271   2.403   7.048   4.664  0.9774  0.2592  0.9280
23381SOL     OW75272   9.116   1.130   0.621  0.3240 -0.5503  0.1092
23381SOL    HW175273   9.091   1.135   0.713 -0.0674  1.9434 -0.0984
23381SOL    HW275274   9.036   1.150   0.573  1.0768  0.6117 -0.6987
23382SOL     OW75275   2.025   3.760   8.131  0.3075 -0.1451  0.1361
23382SOL    HW175276   2.034   3.693   8.063  1.9070  0.2502 -0.0539
23382SOL    HW275277   1.982   3.715   8.203 -0.5393 -0.8242 -0.7724
23383SOL     OW75278   4.856   6.409   9.836  0.2319  0.4579  0.3763
23383SOL    HW175279   4.936   6.386   9.884 -0.5125  0.1611  1.5068
23383SOL    HW275280   4.886   6.429   9.748  1.2134 -2.4071  0.0089
23384SOL     OW75281   5.374  11.253   5.981 -0.4083 -0.3578  0.4755
23384SOL    HW175282   5.459  11.256   5.936 -0.5815 -1.3259  0.0825
23384SOL    HW275283   5.311  11.274   5.912 -0.4834  0.5351  0.8054
23385SOL     OW75284   4.293   0.207  10.834  0.2085  0.5205 -0.9262
23385SOL    HW175285   4.292   0.297  10.867  0.4252  0.3469 -0.4413
23385SOL    HW275286   4.352   0.210  10.758  1.7222  0.4057  0.2121
23386SOL     OW75287   1.150   8.994   5.266  0.7588 -0.4503 -0.4607
23386SOL    HW175288   1.093   9.070   5.253  0.1679 -0.6296  0.9369
23386SOL    HW275289   1.090   8.919   5.265  1.1424 -0.7588 -0.3707
23387SOL     OW75290   7.483   4.645   0.914  0.0932 -0.4861  0.5732
23387SOL    HW175291   7.474   4.666   1.007 -0.9727 -2.5378  0.9620
23387SOL    HW275292   7.532   4.563   0.913  1.6673  0.4304 -0.7783
23388SOL     OW75293   3.351   6.281   5.594 -0.3672  0.4894 -0.2290
23388SOL    HW175294   3.360   6.228   5.514  0.6087 -1.1839  0.9553
23388SOL    HW275295   3.437   6.320   5.606 -0.4489  0.5544  0.1340
23389SOL     OW75296   9.170   9.230  10.664 -0.1947  0.4217  0.0825
23389SOL    HW175297   9.213   9.306  10.704 -0.1675  0.6970 -0.4660
23389SOL    HW275298   9.236   9.195  10.603 -1.3194  1.8366 -2.0130
23390SOL     OW75299   4.742  10.092   3.232  0.3472 -0.3019 -0.3038
23390SOL    HW175300   4.744  10.188   3.235 -1.1946 -0.2543  0.0066
23390SOL    HW275301   4.809  10.068   3.169 -0.1063  1.0575 -1.3321
23391SOL     OW75302   7.597  10.148   8.994 -0.1650  0.2655  0.3331
23391SOL    HW175303   7.666  10.086   9.014 -0.5022 -0.3530 -0.4102
23391SOL    HW275304   7.606  10.166   8.900 -1.3305 -0.2215  0.1141
23392SOL     OW75305   5.306   4.382   9.547 -0.0670 -0.2564 -0.6877
23392SOL    HW175306   5.398   4.356   9.556 -0.3187 -1.2640 -1.0286
23392SOL    HW275307   5.306   4.440   9.470  0.3805  0.2275 -0.3270
23393SOL     OW75308   6.821   8.412   7.633  0.0658  0.0388 -0.2366
23393SOL    HW175309   6.843   8.476   7.565 -1.1365  0.3848 -0.3004
23393SOL    HW275310   6.731   8.432   7.657  0.5394  0.0226  1.5937
23394SOL     OW75311   1.136   8.599   6.952 -0.0656  0.0707  0.6164
23394SOL    HW175312   1.167   8.653   6.880  0.7435 -0.8213  0.2974
23394SOL    HW275313   1.052   8.565   6.922  1.0407 -1.6669 -0.6173
23395SOL     OW75314   6.448   4.198   0.189  0.1356 -0.2260 -0.0316
23395SOL    HW175315   6.441   4.220   0.096  1.9635 -1.5238 -0.5123
23395SOL    HW275316   6.358   4.191   0.220 -0.4816  0.4600 -1.6427
23396SOL     OW75317   1.583   6.723   6.775 -0.2571  0.3425  0.0610
23396SOL    HW175318   1.488   6.738   6.773  0.1441  3.3220  0.6257
23396SOL    HW275319   1.617   6.795   6.828  2.4523 -0.0197 -1.1116
23397SOL     OW75320   1.334   8.343   3.215  0.6426 -0.1771 -0.3754
23397SOL    HW175321   1.249   8.366   3.178 -0.6460 -2.4619  1.0347
23397SOL    HW275322   1.351   8.412   3.279 -2.0341 -1.7048  2.1078
23398SOL     OW75323   8.801   9.427   4.107 -0.4454 -0.1345 -0.4700
23398SOL    HW175324   8.768   9.372   4.178 -0.6371 -0.6695 -0.9662
23398SOL    HW275325   8.838   9.365   4.044 -0.1218  0.3442 -0.7590
23399SOL     OW75326   2.366   8.761   8.557 -0.1228 -0.8683  0.1233
23399SOL    HW175327   2.331   8.674   8.575 -1.1417 -0.2912  0.9227
23399SOL    HW275328   2.425   8.779   8.630  0.0103 -0.8273  0.0081
23400SOL     OW75329   6.137   4.162   4.292  0.2806  0.4731 -0.0357
23400SOL    HW175330   6.168   4.205   4.371  0.1909 -0.7319  0.6663
23400SOL    HW275331   6.043   4.181   4.290  0.2512  0.3588  0.2350
23401SOL     OW75332   3.612   8.844   9.272  0.0195 -0.0852  0.5417
23401SOL    HW175333   3.699   8.884   9.280  0.6320 -1.2895 -0.0974
23401SOL    HW275334   3.619   8.786   9.197 -1.2235 -0.5010  0.7435
23402SOL     OW75335   7.845   8.018   1.958  0.1774  0.2535  0.4847
23402SOL    HW175336   7.940   8.015   1.975  0.2152 -0.4665  0.1695
23402SOL    HW275337   7.809   8.067   2.032  0.5144 -1.5234  1.8655
23403SOL     OW75338  10.594   0.511   2.769 -0.4694  0.3025 -0.3626
23403SOL    HW175339  10.633   0.465   2.844  0.1505 -3.2519 -2.7072
23403SOL    HW275340  10.531   0.571   2.807  1.6238  0.4104  3.1308
23404SOL     OW75341   0.726   7.479  10.277  0.0173 -0.0273 -0.1440
23404SOL    HW175342   0.774   7.397  10.267 -0.8570 -0.8703  2.2859
23404SOL    HW275343   0.670   7.483  10.200  0.4172 -1.4677 -0.5260
23405SOL     OW75344   4.594   9.329  11.046 -0.1417 -0.7606  0.6763
23405SOL    HW175345   4.565   9.342  10.955 -0.3476 -0.0830  0.8352
23405SOL    HW275346   4.526   9.274  11.085 -0.1012 -0.9760  0.4491
23406SOL     OW75347   9.204   8.794  10.880 -0.6044 -0.0659 -0.0187
23406SOL    HW175348   9.231   8.791  10.972 -0.5599  0.3927 -0.0149
23406SOL    HW275349   9.117   8.834  10.882 -0.3840  0.4279 -0.2208
23407SOL     OW75350   6.036   3.567   9.501 -0.4648  0.1690 -0.3059
23407SOL    HW175351   6.088   3.583   9.580  1.4883 -2.8567 -0.8877
23407SOL    HW275352   5.948   3.548   9.534  0.7633 -3.0666  1.3958
23408SOL     OW75353   0.845   2.537   3.619 -0.3637  0.0203 -0.3443
23408SOL    HW175354   0.753   2.516   3.635 -0.2915  0.1293  0.2389
23408SOL    HW275355   0.853   2.538   3.524 -0.9202 -0.1884 -0.3980
23409SOL     OW75356  10.514   9.716   4.561  0.7974  0.0616 -0.0658
23409SOL    HW175357  10.460   9.779   4.513  1.5209  0.6303 -0.1416
23409SOL    HW275358  10.535   9.649   4.496 -0.5162 -0.6204  0.1823
23410SOL     OW75359   4.957   1.995   6.841 -0.0613  0.1862  0.3146
23410SOL    HW175360   5.017   1.920   6.837  1.3943  1.2819  0.9880
23410SOL    HW275361   4.953   2.028   6.751  0.4001  0.1452  0.2783
23411SOL     OW75362   0.054   6.118   0.006 -0.2462 -0.1910  0.3342
23411SOL    HW175363   0.053   6.101   0.100  0.7403 -1.6838  0.0929
23411SOL    HW275364  -0.030   6.085  -0.026 -1.5409  2.3229  0.9912
23412SOL     OW75365   7.295   0.285   0.380 -0.1888 -0.2439  0.1483
23412SOL    HW175366   7.202   0.294   0.404 -0.6069 -0.8136 -1.2707
23412SOL    HW275367   7.328   0.375   0.383 -0.8870  0.0162  0.2237
23413SOL     OW75368   5.182   4.266   6.241 -0.7857 -0.0771 -0.6457
23413SOL    HW175369   5.125   4.304   6.308 -0.0819  1.0539 -0.6937
23413SOL    HW275370   5.222   4.341   6.197  0.8724 -0.8741 -0.5149
23414SOL     OW75371  11.019   1.483   1.701 -0.1527  0.2402 -0.7514
23414SOL    HW175372  11.097   1.536   1.714  0.3593 -0.3686 -1.3070
23414SOL    HW275373  11.020   1.462   1.607  1.1691 -3.0938 -0.0570
23415SOL     OW75374   0.502   2.347   1.421 -0.1580  0.0352  0.1521
23415SOL    HW175375   0.549   2.419   1.463 -0.4003  1.7205 -2.3702
23415SOL    HW275376   0.439   2.391   1.363 -0.6702 -2.2121 -1.0279
23416SOL     OW75377   1.600   9.034   1.671  0.0424 -0.6602 -0.0979
23416SOL    HW175378   1.546   9.051   1.748 -0.0886  1.6772 -0.6579
23416SOL    HW275379   1.542   8.987   1.611 -0.7247 -0.0662  0.1608
23417SOL     OW75380  11.260   0.107   6.233 -0.2142 -0.0616  0.1891
23417SOL    HW175381  11.168   0.094   6.213 -1.1618  4.7938  0.7653
23417SOL    HW275382  11.304   0.111   6.148 -1.2891  1.9823 -0.3018
23418SOL     OW75383   1.098   4.561   3.945 -0.5189 -0.0825  0.2057
23418SOL    HW175384   1.049   4.643   3.953  2.5717  1.5789  3.8016
23418SOL    HW275385   1.176   4.584   3.895 -0.1153 -1.0656  0.3608
23419SOL     OW75386   3.558   9.637   4.393  0.3436 -0.8617  0.3588
23419SOL    HW175387   3.572   9.715   4.338  1.4420 -0.9663  0.4643
23419SOL    HW275388   3.589   9.564   4.339  0.4001 -1.0882  0.6958
23420SOL     OW75389   5.012   5.104   2.269  0.2186  0.0413 -0.4741
23420SOL    HW175390   4.955   5.175   2.299  0.1668  0.1027 -0.7212
23420SOL    HW275391   5.051   5.070   2.350  0.9772  0.9702 -0.4348
23421SOL     OW75392   9.759   6.231   8.648  0.5907 -0.0767  0.0797
23421SOL    HW175393   9.800   6.145   8.663  4.7019  1.5450 -1.0407
23421SOL    HW275394   9.779   6.281   8.727  1.1312  0.8725 -0.6447
23422SOL     OW75395   1.487  10.471   7.049 -0.1688  0.2084 -0.4747
23422SOL    HW175396   1.512  10.535   7.115 -0.2650  0.3328 -0.5578
23422SOL    HW275397   1.569  10.441   7.011  0.0293 -1.4096  1.1431
23423SOL     OW75398   7.344   2.356   5.412 -0.3179 -0.2106 -0.2297
23423SOL    HW175399   7.349   2.288   5.478  2.4241 -0.0107 -0.1643
23423SOL    HW275400   7.435   2.376   5.391 -1.1125  1.0647 -2.6925
23424SOL     OW75401   3.150   3.303   6.182 -0.3964  0.0860 -0.1038
23424SOL    HW175402   3.113   3.383   6.146  0.0395  0.4552  0.2622
23424SOL    HW275403   3.076   3.242   6.188 -0.2540 -0.3828 -2.6924
23425SOL     OW75404   6.076   0.442   4.033  0.5230  0.7450  0.2629
23425SOL    HW175405   6.169   0.419   4.041  0.2162 -0.6583 -0.1365
23425SOL    HW275406   6.037   0.415   4.116  0.1629 -0.1814 -0.2024
23426SOL     OW75407   3.871   7.517   8.751  0.1175  0.5960  0.2737
23426SOL    HW175408   3.874   7.491   8.843 -1.6958 -1.3347 -0.1780
23426SOL    HW275409   3.787   7.485   8.720  1.5308 -0.5011 -2.5832
23427SOL     OW75410   7.856   4.695   6.655  0.0243  0.3171 -0.4896
23427SOL    HW175411   7.825   4.785   6.645  1.8650  0.9457 -0.5520
23427SOL    HW275412   7.823   4.649   6.578 -0.6532  1.0039 -0.6096
23428SOL     OW75413   7.373   1.773   5.318  0.1560  1.0761  0.1924
23428SOL    HW175414   7.412   1.697   5.360  0.9549  0.9305 -0.8124
23428SOL    HW275415   7.279   1.753   5.315  0.0848  1.0752  1.8582
23429SOL     OW75416  10.503   3.044   8.103  0.2499 -0.3894  0.6544
23429SOL    HW175417  10.419   3.020   8.141 -0.1442 -2.5053 -1.4424
23429SOL    HW275418  10.531   2.966   8.055  1.9819  1.2735 -1.1479
23430SOL     OW75419   3.778   1.019   1.902  0.3683 -0.1533 -0.5427
23430SOL    HW175420   3.762   1.027   1.808 -0.3490 -0.4540 -0.4527
23430SOL    HW275421   3.823   0.935   1.911  1.5349  0.4392 -0.7395
23431SOL     OW75422  10.216   9.631   1.342  0.0067 -0.8352 -0.2128
23431SOL    HW175423  10.287   9.573   1.315  0.4744 -0.4606  0.1999
23431SOL    HW275424  10.180   9.590   1.420  2.3342  0.9714  1.9084
23432SOL     OW75425   4.451   2.252   2.122 -0.2203  0.1671  0.1734
23432SOL    HW175426   4.537   2.216   2.099 -0.1578  0.5756 -0.2349
23432SOL    HW275427   4.410   2.184   2.174  0.9724  0.5897  1.7070
23433SOL     OW75428   3.324   0.835   3.418 -0.7696 -0.0726  0.0673
23433SOL    HW175429   3.296   0.800   3.502 -0.5565  1.7365  0.9211
23433SOL    HW275430   3.251   0.890   3.390  0.0461  1.0597  0.1284
23434SOL     OW75431   2.212   3.866  10.779 -0.2322 -0.3337 -0.1604
23434SOL    HW175432   2.300   3.833  10.797  0.7167  2.2720  0.2787
23434SOL    HW275433   2.198   3.849  10.686  2.5296  3.0616 -1.3095
23435SOL     OW75434  10.465  10.129   4.911 -0.4331 -0.1570 -0.9765
23435SOL    HW175435  10.486  10.038   4.891  2.3821  0.8528 -3.0260
23435SOL    HW275436  10.538  10.160   4.965 -0.8826  1.1293 -1.0813
23436SOL     OW75437   5.317   8.932   7.990 -0.7080  0.0536  0.3441
23436SOL    HW175438   5.400   8.937   8.037  0.0717  0.2106 -1.0500
23436SOL    HW275439   5.279   8.848   8.018  0.7407 -0.8534 -0.3758
23437SOL     OW75440   3.493  10.319  10.881 -0.5532  0.5635  0.3761
23437SOL    HW175441   3.489  10.231  10.844  1.7098  1.1836 -1.4464
23437SOL    HW275442   3.543  10.309  10.962  0.7902  0.3563 -0.4681
23438SOL     OW75443   9.269   6.303   6.404  0.8837 -0.2285 -0.5966
23438SOL    HW175444   9.327   6.253   6.462  1.1180 -0.7017 -1.2296
23438SOL    HW275445   9.320   6.314   6.324  0.2566 -0.2920 -1.0059
23439SOL     OW75446   4.437   4.757   6.608 -0.7695 -0.2074 -0.3422
23439SOL    HW175447   4.406   4.833   6.559  2.3573  0.4094 -1.5182
23439SOL    HW275448   4.424   4.683   6.548  0.5776  0.1530 -1.1096
23440SOL     OW75449   5.779   8.746   4.566 -0.1302  0.5122 -0.0922
23440SOL    HW175450   5.783   8.812   4.635 -0.8438 -0.4092  0.8533
23440SOL    HW275451   5.687   8.718   4.565  0.1218 -0.3288 -0.5995
23441SOL     OW75452   1.989   8.686   2.549  0.1927  0.0656 -0.3607
23441SOL    HW175453   1.915   8.742   2.572  1.5265  0.7213  2.5337
23441SOL    HW275454   1.952   8.598   2.544 -1.1156  0.6299 -0.7663
23442SOL     OW75455   9.080   9.888   0.762 -0.0083 -0.4223 -0.2229
23442SOL    HW175456   9.145   9.872   0.694  0.6227  0.6259  0.1246
23442SOL    HW275457   9.062   9.982   0.756 -1.7447 -0.7620 -0.5403
23443SOL     OW75458   2.100   4.568   9.073 -0.1617  0.2266 -0.5641
23443SOL    HW175459   2.135   4.654   9.050 -2.3193  1.2141 -0.3535
23443SOL    HW275460   2.041   4.586   9.146 -0.7934 -1.4144 -0.6511
23444SOL     OW75461   8.465   7.443   4.118  0.0871  0.1335  0.1549
23444SOL    HW175462   8.375   7.458   4.089 -0.8044 -3.8863  0.5236
23444SOL    HW275463   8.463   7.463   4.212 -0.6302 -0.6123  0.3099
23445SOL     OW75464   1.656   0.047   8.823 -0.0934  0.2518 -0.3368
23445SOL    HW175465   1.575   0.026   8.776 -0.1117  0.8951 -0.5988
23445SOL    HW275466   1.682   0.133   8.788 -0.2272  0.8381  0.9823
23446SOL     OW75467   8.021   9.667   2.813  0.3535 -0.3350  0.1252
23446SOL    HW175468   7.931   9.682   2.843  1.0137  1.2876  1.3473
23446SOL    HW275469   8.072   9.657   2.894  1.5190  0.2195 -0.5295
23447SOL     OW75470   6.871   0.774   2.448 -0.5537 -0.5858 -0.3053
23447SOL    HW175471   6.839   0.845   2.392  0.1203 -0.2063 -0.2142
23447SOL    HW275472   6.823   0.786   2.530 -0.6003 -0.3671 -0.3626
23448SOL     OW75473   3.099   6.066   6.231 -0.2342  0.1160 -0.0851
23448SOL    HW175474   3.184   6.081   6.188 -0.1154  1.6843  0.6751
23448SOL    HW275475   3.045   6.140   6.203 -1.1019 -0.4464  0.0944
23449SOL     OW75476   1.513   0.932   5.392  0.0821  0.2734 -0.7003
23449SOL    HW175477   1.559   0.944   5.475  0.3634 -0.7710 -0.7087
23449SOL    HW275478   1.422   0.915   5.417  0.4323 -1.4102 -0.5563
23450SOL     OW75479   7.538   1.792  10.506  0.1135  0.1883 -0.1356
23450SOL    HW175480   7.625   1.795  10.547  0.1245  1.8861 -0.2573
23450SOL    HW275481   7.552   1.741  10.426  1.1460  0.9848 -0.4777
23451SOL     OW75482  10.264   3.801   9.301  0.8158 -0.1217  0.3078
23451SOL    HW175483  10.306   3.719   9.275  0.0612 -0.0901 -1.0151
23451SOL    HW275484  10.182   3.774   9.342 -0.2322  0.0303 -1.6510
23452SOL     OW75485   7.333   6.412   0.792 -0.1000 -0.0565 -0.4377
23452SOL    HW175486   7.243   6.445   0.802 -0.1163  0.0664 -0.9724
23452SOL    HW275487   7.324   6.317   0.797 -0.7247 -0.2466 -3.8053
23453SOL     OW75488   7.364  10.810   1.390  0.0333  0.7496 -0.1476
23453SOL    HW175489   7.367  10.858   1.307 -0.8182  1.9001  0.4703
23453SOL    HW275490   7.387  10.720   1.367  1.2837  1.3679 -1.3923
23454SOL     OW75491   0.516   5.899   7.588 -0.2008  0.3502  0.3743
23454SOL    HW175492   0.518   5.983   7.542  0.9615  0.0159 -0.2069
23454SOL    HW275493   0.459   5.915   7.663 -1.3226  1.1886 -0.6260
23455SOL     OW75494   2.670   4.498   9.625  0.0402  0.3044  0.2599
23455SOL    HW175495   2.693   4.500   9.718  2.0745  3.7804 -0.2397
23455SOL    HW275496   2.745   4.457   9.582  0.5224  1.6237 -0.1786
23456SOL     OW75497   4.763   6.322   2.707 -0.1801  0.3279 -0.1437
23456SOL    HW175498   4.780   6.315   2.801 -2.6297  3.1108  0.5867
23456SOL    HW275499   4.832   6.380   2.675  0.5805 -0.5189 -0.0412
23457SOL     OW75500   6.807   8.774   8.249 -0.1509 -0.0940 -0.1300
23457SOL    HW175501   6.734   8.835   8.237  0.2259  0.2896 -0.4652
23457SOL    HW275502   6.884   8.830   8.252  0.2888 -0.6186 -1.3436
23458SOL     OW75503   2.320  10.314   7.162 -0.2045 -0.3529 -0.1808
23458SOL    HW175504   2.276  10.335   7.080 -0.5752  1.0296  0.3706
23458SOL    HW275505   2.383  10.384   7.175 -0.8805  0.0084  1.2528
23459SOL     OW75506   9.332   9.712   5.271  0.0539  0.3855 -0.3317
23459SOL    HW175507   9.357   9.628   5.234 -2.9720 -0.5090 -0.4469
23459SOL    HW275508   9.406   9.737   5.326  1.2090 -2.0586 -0.7250
23460SOL     OW75509   1.670   3.805   4.344  0.5855  0.4122  0.3779
23460SOL    HW175510   1.660   3.781   4.436 -2.3764  0.3917  0.1261
23460SOL    HW275511   1.604   3.751   4.299  0.4194  2.0759 -1.4344
23461SOL     OW75512   5.074   1.248   1.209  0.3661 -0.4014 -0.2309
23461SOL    HW175513   5.165   1.279   1.215  0.2183  0.1372 -0.7243
23461SOL    HW275514   5.074   1.187   1.136 -0.0043  0.8423 -1.3001
23462SOL     OW75515   3.570   2.093  10.808 -0.5593  0.5150 -0.3486
23462SOL    HW175516   3.593   2.176  10.849 -0.3558  1.3513 -2.0722
23462SOL    HW275517   3.493   2.062  10.856 -0.5763  1.6523  0.3621
23463SOL     OW75518   2.890   5.240   4.657 -0.2180 -0.7092 -0.0891
23463SOL    HW175519   2.847   5.289   4.586  0.8656 -1.4732 -1.2977
23463SOL    HW275520   2.858   5.281   4.737 -0.7654  0.7705 -1.0403
23464SOL     OW75521   4.746   3.697  10.799  0.7347 -0.3577  0.4244
23464SOL    HW175522   4.766   3.619  10.851 -1.5240 -1.2605  0.0060
23464SOL    HW275523   4.699   3.755  10.859  0.9206 -0.0468  0.2694
23465SOL     OW75524   8.483   4.603   9.210  0.0037  0.5740 -0.7589
23465SOL    HW175525   8.495   4.666   9.138  0.4909  0.8655 -0.4227
23465SOL    HW275526   8.435   4.652   9.277  1.9490  1.1501  0.2466
23466SOL     OW75527   9.967   8.518   5.152  0.3214  0.0878 -0.3418
23466SOL    HW175528   9.979   8.612   5.161  2.0982 -0.0465 -1.1883
23466SOL    HW275529  10.008   8.482   5.231  1.2726 -0.0698 -0.8941
23467SOL     OW75530   9.455   7.758   7.847 -0.2969  0.5152  0.2486
23467SOL    HW175531   9.549   7.755   7.827 -0.0059 -1.0367  1.7437
23467SOL    HW275532   9.414   7.719   7.770  0.3889  0.1103  0.0756
23468SOL     OW75533   5.978   6.321   7.896  0.3092  0.0077  0.4261
23468SOL    HW175534   5.893   6.362   7.905  0.5181  0.1894  1.6145
23468SOL    HW275535   5.993   6.277   7.979  1.9465  1.0904  0.7291
23469SOL     OW75536   7.260   3.268  11.176  0.3534 -0.0316  0.2943
23469SOL    HW175537   7.204   3.190  11.176  0.0073  0.2115  0.2749
23469SOL    HW275538   7.208   3.333  11.128  0.9850 -0.0384 -0.4031
23470SOL     OW75539   5.264   8.492   0.109 -0.2693  0.1797  0.2623
23470SOL    HW175540   5.247   8.481   0.203  1.9070  0.7388  0.7361
23470SOL    HW275541   5.288   8.584   0.099 -0.9556  0.2476 -0.9404
23471SOL     OW75542  10.532   2.408   8.083 -0.4239  0.4167 -0.3392
23471SOL    HW175543  10.573   2.376   8.163  0.4544  2.2703 -0.0209
23471SOL    HW275544  10.439   2.390   8.095 -0.1904 -0.1834  0.6774
23472SOL     OW75545   1.372   7.852   5.969  0.3966 -0.4919  0.6452
23472SOL    HW175546   1.361   7.791   5.895  1.6073  0.4717 -0.3573
23472SOL    HW275547   1.404   7.797   6.040 -3.0579 -1.8900  1.2409
23473SOL     OW75548   9.093   8.449   0.419 -0.1944 -0.4046  0.4798
23473SOL    HW175549   9.059   8.361   0.400 -1.6209  0.3684 -0.7161
23473SOL    HW275550   9.188   8.440   0.410 -0.2575 -2.0151  1.2198
23474SOL     OW75551   1.295   2.783   6.903  0.0298  0.1779  0.1892
23474SOL    HW175552   1.267   2.747   6.987  2.0489 -0.1865  0.7296
23474SOL    HW275553   1.215   2.819   6.865 -1.0263 -0.1878  1.9945
23475SOL     OW75554  11.003   1.910   9.046 -0.3903  0.0528  0.0677
23475SOL    HW175555  10.958   1.975   9.099  0.9704  0.3296  0.9173
23475SOL    HW275556  11.063   1.961   8.992  0.4125 -0.4573  0.4654
23476SOL     OW75557   2.642   1.021   1.767 -0.0126 -0.1918  0.6678
23476SOL    HW175558   2.549   1.041   1.767  0.3244  1.5117  2.6563
23476SOL    HW275559   2.648   0.935   1.808 -0.9272 -1.7266 -2.2567
23477SOL     OW75560   3.128   3.110   0.905 -0.5360  0.2759 -0.0829
23477SOL    HW175561   3.093   3.138   0.990 -1.3499 -0.2218 -0.2494
23477SOL    HW275562   3.051   3.097   0.850 -0.0667 -0.3704 -0.6025
23478SOL     OW75563   8.378   5.546   9.430 -0.2581 -0.1169  0.7960
23478SOL    HW175564   8.302   5.603   9.421  1.4121  2.1639  0.6842
23478SOL    HW275565   8.445   5.588   9.376  1.3642 -1.5719  1.6464
23479SOL     OW75566   5.118  11.023   2.171 -0.2886 -0.3121 -0.3844
23479SOL    HW175567   5.085  11.068   2.249 -0.6650 -2.6565  0.8644
23479SOL    HW275568   5.039  10.991   2.127  0.0233 -0.6557 -0.6964
23480SOL     OW75569   8.778   7.718   1.950  0.0565 -0.7182  0.0446
23480SOL    HW175570   8.709   7.673   1.900 -0.0371 -0.7524  0.2056
23480SOL    HW275571   8.746   7.719   2.040 -0.6477  1.0431 -0.2013
23481SOL     OW75572   1.980   7.197   4.859  0.6528  0.1674 -0.0614
23481SOL    HW175573   1.995   7.131   4.928 -0.4801 -2.0649 -1.8727
23481SOL    HW275574   2.041   7.172   4.789  0.7111  1.4914 -0.4893
23482SOL     OW75575   4.424  11.094   1.543 -0.4565 -0.3061  0.3278
23482SOL    HW175576   4.416  11.182   1.581 -0.9799 -0.2624  0.1258
23482SOL    HW275577   4.484  11.048   1.601 -0.7568 -0.0419  0.8541
23483SOL     OW75578   9.178   8.103   9.021 -0.0864  0.0873 -0.3918
23483SOL    HW175579   9.142   8.062   9.099 -0.3592 -0.8788 -1.0101
23483SOL    HW275580   9.271   8.081   9.023  0.0534  0.6885  0.0344
23484SOL     OW75581   8.634   4.613   1.508  0.1681  0.4445  0.0715
23484SOL    HW175582   8.604   4.544   1.568  2.5262 -0.1382  0.6307
23484SOL    HW275583   8.688   4.670   1.562  1.3343  0.5937 -1.2303
23485SOL     OW75584   8.656   2.896  10.727  0.2915 -0.1077 -0.4901
23485SOL    HW175585   8.633   2.927  10.815  0.7063 -0.3819 -0.2817
23485SOL    HW275586   8.677   2.803  10.740  1.5040  0.1401 -0.6770
23486SOL     OW75587   1.430   6.381   8.706 -0.4965  0.5695  0.3307
23486SOL    HW175588   1.473   6.368   8.790  0.2256  0.6613 -0.0241
23486SOL    HW275589   1.352   6.433   8.727 -1.1046 -0.6271  1.1417
23487SOL     OW75590  10.351   6.306   7.278 -0.1804 -0.0948 -0.0239
23487SOL    HW175591  10.322   6.219   7.251  1.3349 -1.0433  1.3460
23487SOL    HW275592  10.270   6.357   7.284 -0.9195 -0.8290 -2.7667
23488SOL     OW75593   1.669  10.181   2.689 -0.3065 -0.2391 -0.2114
23488SOL    HW175594   1.599  10.235   2.725 -0.2042 -1.4002  1.7954
23488SOL    HW275595   1.628  10.095   2.676  0.5834 -0.7600  0.4228
23489SOL     OW75596   2.478   7.079  10.305  0.2369 -0.0301  0.3748
23489SOL    HW175597   2.512   7.007  10.252 -0.9562 -0.3931  0.0956
23489SOL    HW275598   2.428   7.133  10.244 -0.3469  0.0680  0.9304
23490SOL     OW75599   3.787  10.210  10.815 -0.2048 -0.4798 -0.2252
23490SOL    HW175600   3.876  10.235  10.790  0.0589  0.2656  1.3932
23490SOL    HW275601   3.779  10.238  10.907 -1.2504 -2.8067  0.4314
23491SOL     OW75602   9.675   8.420  10.719  0.0141 -0.3523 -0.1174
23491SOL    HW175603   9.635   8.483  10.660 -0.1048 -1.5875 -1.3794
23491SOL    HW275604   9.766   8.450  10.728 -0.7590  1.6087  1.5919
23492SOL     OW75605   2.336   3.297   5.467  0.1317 -0.2629  0.6276
23492SOL    HW175606   2.240   3.292   5.464  0.0658  1.0873 -0.6894
23492SOL    HW275607   2.360   3.334   5.382  1.9303 -1.8829  0.3958
23493SOL     OW75608  10.579   4.351  10.449  0.4891 -0.1672  0.2109
23493SOL    HW175609  10.587   4.418  10.381 -0.1226 -1.5254 -1.2534
23493SOL    HW275610  10.629   4.277  10.415 -0.1315 -0.9960  1.0776
23494SOL     OW75611   3.349   2.377   5.002 -0.5080  0.0900  0.4667
23494SOL    HW175612   3.278   2.393   5.064 -1.1009 -3.7729  0.8966
23494SOL    HW275613   3.429   2.387   5.054 -0.7610  2.3649  0.4704
23495SOL     OW75614   2.746   8.104  11.061 -0.6886 -0.6238  0.0605
23495SOL    HW175615   2.685   8.172  11.088 -0.5713 -0.3972 -0.2378
23495SOL    HW275616   2.691   8.041  11.014 -0.3887  0.5778 -1.9698
23496SOL     OW75617   7.103   7.411   5.090  0.4794  0.0552  0.9646
23496SOL    HW175618   7.184   7.456   5.068  0.2289  0.6170  1.1525
23496SOL    HW275619   7.067   7.383   5.006 -0.2982  1.8799  0.6561
23497SOL     OW75620  11.011  10.144   7.115 -0.0786  0.1018  0.5220
23497SOL    HW175621  10.938  10.187   7.070 -0.5179 -1.2601 -0.1041
23497SOL    HW275622  10.970  10.070   7.160  0.4613  1.0366  2.6187
23498SOL     OW75623  11.178   2.232   5.249 -0.2091 -0.5627 -0.4139
23498SOL    HW175624  11.180   2.279   5.166  0.4556  1.0008  0.4691
23498SOL    HW275625  11.130   2.289   5.308  0.4858 -1.0475  0.6376
23499SOL     OW75626   0.845   1.254   7.762 -0.2398 -0.1292  0.0563
23499SOL    HW175627   0.887   1.327   7.808 -0.6120  0.3547 -0.3627
23499SOL    HW275628   0.898   1.243   7.683  0.3132 -0.8653  0.5197
23500SOL     OW75629   5.733   3.978   7.584  0.6651  0.1824 -0.9230
23500SOL    HW175630   5.695   3.946   7.666 -0.5823  2.6802 -0.4804
23500SOL    HW275631   5.695   3.923   7.516 -0.6361  0.0305 -0.0869
23501SOL     OW75632   5.238   5.654   7.178  0.9002 -0.6624 -0.4994
23501SOL    HW175633   5.296   5.727   7.202  1.0978 -0.8701 -0.3530
23501SOL    HW275634   5.292   5.597   7.124  1.3163 -1.6749  0.9486
23502SOL     OW75635  10.359   9.479   3.792 -0.0409 -0.0265  0.5708
23502SOL    HW175636  10.403   9.397   3.769  0.9016  0.3377  1.0448
23502SOL    HW275637  10.300   9.496   3.718 -1.5440 -2.0253  1.2538
23503SOL     OW75638  10.338   5.003   2.644  0.3060  0.2855 -0.0196
23503SOL    HW175639  10.376   4.924   2.607  1.2524  1.1215 -0.8775
23503SOL    HW275640  10.305   4.977   2.730 -0.3561 -1.2722 -0.7412
23504SOL     OW75641   3.944   4.395   3.414 -0.4647 -0.3992  0.5228
23504SOL    HW175642   3.882   4.431   3.478 -0.9812 -0.8640  0.2875
23504SOL    HW275643   3.915   4.305   3.401 -1.9313  0.4313 -2.2883
23505SOL     OW75644  10.959  11.095   3.537 -0.0432 -0.3837 -0.0092
23505SOL    HW175645  10.958  11.167   3.473 -0.0087 -1.4528 -1.2149
23505SOL    HW275646  11.035  11.042   3.513  0.3222 -0.4724  1.2888
23506SOL     OW75647   2.251   5.663   4.878 -0.0304 -0.1307 -0.1498
23506SOL    HW175648   2.168   5.711   4.878  0.4036  0.6573  0.7794
23506SOL    HW275649   2.257   5.626   4.967  1.0765  0.6748  0.1240
23507SOL     OW75650   6.049   5.694   2.793 -0.0784  0.6568 -0.1034
23507SOL    HW175651   6.000   5.749   2.855 -0.7271  0.2710 -0.2689
23507SOL    HW275652   5.997   5.698   2.713 -0.4798 -0.7320  0.0799
23508SOL     OW75653   0.730   0.065   9.902 -0.1730  0.0628 -0.4110
23508SOL    HW175654   0.751   0.101   9.988  0.0188 -0.9531 -0.0231
23508SOL    HW275655   0.653   0.113   9.874 -0.8376 -0.2881  0.7760
23509SOL     OW75656   8.312   7.310   2.665 -0.5384 -0.0075 -0.0767
23509SOL    HW175657   8.333   7.322   2.572 -1.3457 -1.6708 -0.4858
23509SOL    HW275658   8.380   7.250   2.696  0.4553  1.5007  0.7217
23510SOL     OW75659   2.243   9.511   7.997 -0.1516  0.1381 -0.4155
23510SOL    HW175660   2.191   9.430   7.990  0.3315 -0.0963 -1.3436
23510SOL    HW275661   2.181   9.575   8.033 -0.0753 -1.0623  2.0003
23511SOL     OW75662   1.353   5.104   7.397 -0.4950 -0.0244 -0.5504
23511SOL    HW175663   1.269   5.080   7.358 -0.6177 -1.9915  0.8555
23511SOL    HW275664   1.333   5.119   7.490  0.8021 -1.0952 -0.0800
23512SOL     OW75665   8.215   7.291   6.153  0.1263  0.0661 -0.1518
23512SOL    HW175666   8.195   7.380   6.124 -0.6073  0.1121  0.4772
23512SOL    HW275667   8.281   7.302   6.221 -2.0198  0.3536  1.9373
23513SOL     OW75668   9.274  10.237   3.533  0.1320  0.5071 -0.0992
23513SOL    HW175669   9.222  10.304   3.578 -1.6214 -2.1053  1.9451
23513SOL    HW275670   9.363  10.251   3.565  0.1484  2.9545 -1.0774
23514SOL     OW75671   0.323   6.540   6.453 -0.0281 -0.5761 -0.0852
23514SOL    HW175672   0.372   6.614   6.488  2.0703 -2.3839  0.9643
23514SOL    HW275673   0.289   6.494   6.530 -2.3456 -0.0650 -0.7648
23515SOL     OW75674   2.976   1.525   5.274 -0.4506 -0.1915 -0.2477
23515SOL    HW175675   2.966   1.448   5.329  1.3678 -1.9182 -2.2283
23515SOL    HW275676   2.924   1.507   5.196 -0.1124  0.6175 -0.6816
23516SOL     OW75677   5.619   7.231   5.564 -0.3574 -0.8143 -0.3052
23516SOL    HW175678   5.702   7.264   5.600 -0.7636 -0.5239  0.3642
23516SOL    HW275679   5.601   7.151   5.613 -0.1760 -1.1971 -0.8562
23517SOL     OW75680   6.350  10.226   0.000 -0.0843  0.2135 -0.3322
23517SOL    HW175681   6.296  10.183  -0.066 -2.1163  0.6664  0.9931
23517SOL    HW275682   6.428  10.254  -0.047 -0.2779 -1.8410 -1.9472
23518SOL     OW75683   9.421   4.602   8.779  0.1361 -0.0395  0.0451
23518SOL    HW175684   9.428   4.669   8.847  0.3466  0.7196 -0.7094
23518SOL    HW275685   9.398   4.522   8.826  0.3067  0.4695  1.0067
23519SOL     OW75686   5.023   8.025   3.950  0.0386 -0.1632  0.1737
23519SOL    HW175687   5.024   8.092   4.018  0.8471 -0.1273  0.1261
23519SOL    HW275688   4.930   8.004   3.939 -0.1646  0.4517  0.6723
23520SOL     OW75689   9.296   3.096  11.104  0.3041  0.2070  0.3049
23520SOL    HW175690   9.280   3.165  11.169 -2.3769 -0.0070 -0.0827
23520SOL    HW275691   9.279   3.139  11.020 -3.0740 -1.3017  0.1398
23521SOL     OW75692   1.765   1.936   2.099  0.6619 -0.5809 -0.9247
23521SOL    HW175693   1.760   1.979   2.014 -0.0622  1.2826  0.0307
23521SOL    HW275694   1.789   2.006   2.160  0.4673 -1.7450  0.5197
23522SOL     OW75695   4.528   1.391   0.413  0.7890  0.2611 -0.2279
23522SOL    HW175696   4.554   1.332   0.485  2.4652 -1.3298 -2.0789
23522SOL    HW275697   4.433   1.386   0.412  0.8276 -1.1508  0.7159
23523SOL     OW75698   5.646   3.199   4.738  0.0863 -0.7503 -0.6170
23523SOL    HW175699   5.713   3.216   4.805 -0.5131 -1.6618  0.2199
23523SOL    HW275700   5.659   3.269   4.674  1.0602 -0.2152  0.1413
23524SOL     OW75701   2.174   4.854   6.149 -0.1727 -0.2502  0.6553
23524SOL    HW175702   2.175   4.896   6.235 -1.7647 -0.0324  0.5846
23524SOL    HW275703   2.204   4.921   6.089 -0.5360  0.0847  0.8460
23525SOL     OW75704   0.087  10.380  10.449 -0.4334  0.2398  0.3741
23525SOL    HW175705   0.037  10.443  10.501 -1.6437 -0.9547  0.6823
23525SOL    HW275706   0.026  10.351  10.381 -0.0610 -1.0092  0.5716
23526SOL     OW75707   8.325   1.365  10.341 -0.0457 -0.0792 -1.4672
23526SOL    HW175708   8.238   1.330  10.360  0.0046  0.4966 -0.0932
23526SOL    HW275709   8.376   1.289  10.315 -0.1168 -0.9574  0.8384
23527SOL     OW75710   1.991   2.948   2.744  0.1211 -0.0044 -0.3901
23527SOL    HW175711   2.065   2.973   2.688  0.1431  0.3058 -0.2262
23527SOL    HW275712   1.965   2.862   2.713  0.2705  0.0751 -0.7404
23528SOL     OW75713   1.258   7.136  11.222 -0.0962  0.0022 -0.0924
23528SOL    HW175714   1.172   7.101  11.246 -0.6399  0.6865 -1.0258
23528SOL    HW275715   1.249   7.159  11.129  0.7807  1.0253  0.0751
23529SOL     OW75716  11.106   5.517   4.386  0.4258  0.1420  0.2979
23529SOL    HW175717  11.054   5.445   4.350  0.7999 -0.3495  0.7267
23529SOL    HW275718  11.064   5.596   4.352  0.4219 -0.2950 -0.7469
23530SOL     OW75719  10.994  11.155   5.499 -0.2632 -0.3435 -0.2337
23530SOL    HW175720  10.969  11.080   5.445 -3.4853  0.6091 -0.1459
23530SOL    HW275721  10.929  11.222   5.479  0.8009  1.3945  1.9293
23531SOL     OW75722   6.296   2.156   8.010  0.2087 -0.5755  0.3644
23531SOL    HW175723   6.257   2.239   8.037  2.1042 -0.1599  1.9071
23531SOL    HW275724   6.381   2.180   7.973  1.5671 -1.9567  2.5037
23532SOL     OW75725  11.041  10.890   4.762  0.0663  0.1385 -0.1270
23532SOL    HW175726  10.974  10.882   4.830 -0.3893 -0.4187 -0.6421
23532SOL    HW275727  11.109  10.828   4.789  1.3327  2.1777  1.4966
23533SOL     OW75728   4.983   6.276  10.081 -0.6009  0.3858 -0.6405
23533SOL    HW175729   4.900   6.279  10.130  0.1058  0.1123  0.5826
23533SOL    HW275730   5.013   6.185  10.091  0.6089  0.8662  0.2149
23534SOL     OW75731   7.054   8.660   2.325  0.7012  0.2050  0.3755
23534SOL    HW175732   7.147   8.638   2.337  0.3702 -0.7639  1.2807
23534SOL    HW275733   7.054   8.751   2.297  1.8646  0.6543  1.7787
23535SOL     OW75734   0.623   6.619   2.863  0.6027  0.0315  0.3478
23535SOL    HW175735   0.690   6.604   2.796  1.4550  0.7823  1.0256
23535SOL    HW275736   0.549   6.656   2.815  0.5986 -0.9428 -0.4303
23536SOL     OW75737   4.937   2.276   5.617 -0.1057  0.5102  0.2277
23536SOL    HW175738   4.855   2.324   5.606 -0.5648 -0.4823 -0.7944
23536SOL    HW275739   4.952   2.276   5.711 -1.9757 -0.4302  0.5424
23537SOL     OW75740   4.197   1.946   3.389 -0.5658  0.0803  0.4347
23537SOL    HW175741   4.265   1.995   3.343  0.0031 -0.1865  0.9729
23537SOL    HW275742   4.175   1.875   3.329  1.8677 -1.6654  1.4974
23538SOL     OW75743   2.346   1.152   8.928  0.0590  0.0838  0.3002
23538SOL    HW175744   2.404   1.209   8.877 -1.4225  1.8375  0.5513
23538SOL    HW275745   2.406   1.102   8.984  1.4315  0.8120 -0.4738
23539SOL     OW75746   2.558   1.807   1.617  0.2737  0.0245  0.0709
23539SOL    HW175747   2.598   1.803   1.530  1.6652  1.8636  0.5954
23539SOL    HW275748   2.465   1.792   1.601  0.8242 -1.8711 -1.4709
23540SOL     OW75749  10.991   0.981   8.992  0.1063 -0.4054  0.5676
23540SOL    HW175750  10.933   0.930   9.048  0.3936 -1.2274  0.1153
23540SOL    HW275751  10.938   1.004   8.916  0.9928 -3.0534 -0.9100
23541SOL     OW75752   2.370   9.219   8.174  0.3722  0.2095  0.1215
23541SOL    HW175753   2.435   9.149   8.164 -1.0152 -1.1583  0.4238
23541SOL    HW275754   2.317   9.193   8.250  1.2980  2.8013  1.7289
23542SOL     OW75755   0.066   9.665   3.052  0.5601 -0.0373  0.1276
23542SOL    HW175756  -0.018   9.658   3.007 -0.1877  1.8744  1.1516
23542SOL    HW275757   0.074   9.583   3.101 -0.2345 -0.6562 -0.7686
23543SOL     OW75758   6.549  11.235   1.625  0.0112  0.1652  0.0747
23543SOL    HW175759   6.510  11.239   1.538 -0.6876 -0.5936  0.3498
23543SOL    HW275760   6.475  11.233   1.685  0.4605 -0.7828  0.6205
23544SOL     OW75761   9.962  10.757   5.471 -0.5278  0.0101 -0.1169
23544SOL    HW175762  10.030  10.695   5.497  1.6309  1.4450 -2.1234
23544SOL    HW275763   9.898  10.754   5.542  0.2827 -3.3414  0.5338
23545SOL     OW75764   2.117   6.122   7.208  0.6478  0.2749  0.2710
23545SOL    HW175765   2.074   6.204   7.183  0.7204  0.4158  0.6152
23545SOL    HW275766   2.196   6.119   7.154  0.2341  0.0344 -0.3359
23546SOL     OW75767   9.503   5.361   7.791  0.0307  0.2246  0.6725
23546SOL    HW175768   9.423   5.411   7.771  0.8223  1.8975  1.5687
23546SOL    HW275769   9.556   5.421   7.844  1.9192 -0.8387  0.0326
23547SOL     OW75770   5.138   1.485   0.708  0.3547 -0.5478 -0.8764
23547SOL    HW175771   5.200   1.527   0.648  1.7049 -0.0880  0.7880
23547SOL    HW275772   5.119   1.552   0.774  0.3851 -1.6338  0.2659
23548SOL     OW75773  10.301   4.078   4.676 -0.1510  0.3641 -0.0426
23548SOL    HW175774  10.383   4.121   4.700  0.3689 -0.3328 -0.5307
23548SOL    HW275775  10.324   4.024   4.601 -1.1041  0.2978 -0.2904
23549SOL     OW75776   5.110   1.104   1.806  0.7332 -0.2198  0.0029
23549SOL    HW175777   5.153   1.180   1.846  0.1209 -0.2231  0.6739
23549SOL    HW275778   5.055   1.141   1.737 -0.4238  0.0719  1.0515
23550SOL     OW75779   7.054   5.870   3.586 -0.5518 -0.4432  0.5587
23550SOL    HW175780   7.129   5.923   3.613 -0.6474 -0.7500  1.4257
23550SOL    HW275781   7.040   5.809   3.658  0.6470 -2.8631 -1.1988
23551SOL     OW75782   9.465   1.611   4.404 -0.0106 -0.2348 -0.1077
23551SOL    HW175783   9.426   1.686   4.449 -0.8915 -0.1258 -1.0413
23551SOL    HW275784   9.390   1.562   4.370  0.6055 -0.8856 -0.5494
23552SOL     OW75785   9.736   9.190   2.560  0.1875 -0.4128  0.0675
23552SOL    HW175786   9.646   9.164   2.576  0.2683 -0.5908  0.2354
23552SOL    HW275787   9.766   9.133   2.489  0.4855 -1.0426  0.6901
23553SOL     OW75788   2.307   8.007   0.890 -0.3440 -0.3643  0.1122
23553SOL    HW175789   2.329   7.955   0.813 -1.9522  0.0601 -0.6521
23553SOL    HW275790   2.211   8.004   0.895 -0.2300 -1.0209  2.5430
23554SOL     OW75791   2.068   4.177   4.017 -0.3395  0.0533 -0.3569
23554SOL    HW175792   2.141   4.179   4.079 -1.8601 -0.1423  1.4912
23554SOL    HW275793   2.032   4.088   4.023 -0.5746  0.0586 -1.4512
23555SOL     OW75794   9.734   5.589   2.416  1.0542 -0.3013 -0.0421
23555SOL    HW175795   9.716   5.675   2.378 -0.6626 -0.2589  0.8277
23555SOL    HW275796   9.745   5.606   2.510 -0.3920 -1.1669  0.2931
23556SOL     OW75797   1.621   6.493   1.417 -0.0046 -0.4217  0.5261
23556SOL    HW175798   1.657   6.567   1.466  0.1847 -0.0088 -0.2251
23556SOL    HW275799   1.616   6.423   1.481 -1.8641  0.7489  1.7044
23557SOL     OW75800   8.595   0.330   0.788  0.2391 -0.4414 -0.0842
23557SOL    HW175801   8.670   0.383   0.759  0.9828 -0.9457  0.8677
23557SOL    HW275802   8.611   0.244   0.750 -0.1734 -0.3879 -0.3750
23558SOL     OW75803   1.751   7.204   8.655 -0.3936 -0.1869 -0.2824
23558SOL    HW175804   1.696   7.134   8.690 -0.2745  0.8973  2.2215
23558SOL    HW275805   1.840   7.176   8.677 -0.2745  0.2207 -0.2500
23559SOL     OW75806   8.308   2.550   4.957 -0.0101  0.1669 -0.2364
23559SOL    HW175807   8.343   2.559   5.046  0.5183 -0.1676 -0.4089
23559SOL    HW275808   8.214   2.542   4.969  0.2235 -1.7595  0.4217
23560SOL     OW75809   0.746  10.523  10.641  0.3900  0.6298  0.0045
23560SOL    HW175810   0.753  10.526  10.737 -0.3047 -0.7121  0.1077
23560SOL    HW275811   0.654  10.500  10.625  1.1449 -1.9007 -0.9092
23561SOL     OW75812   1.209   6.212   4.416  0.6379  0.1271  0.0982
23561SOL    HW175813   1.244   6.141   4.363 -1.2996 -0.2830 -0.6683
23561SOL    HW275814   1.243   6.292   4.375 -0.1860 -0.2168 -1.2669
23562SOL     OW75815   8.161   1.844  10.149  0.4607 -0.3507  0.2846
23562SOL    HW175816   8.194   1.893  10.224  0.4472  0.7063 -0.3901
23562SOL    HW275817   8.202   1.758  10.156  0.1509 -0.3849  1.7165
23563SOL     OW75818   4.589   5.074   7.918 -0.1662 -0.2425 -0.0737
23563SOL    HW175819   4.507   5.121   7.936 -0.4917 -0.5375 -0.7531
23563SOL    HW275820   4.561   4.993   7.876  0.4563 -0.5355  0.0738
23564SOL     OW75821   9.402   7.286   8.170 -0.5094  0.2789  0.2543
23564SOL    HW175822   9.431   7.351   8.107 -1.2526 -0.4711 -0.8803
23564SOL    HW275823   9.466   7.215   8.163 -0.0566  0.6064  1.0341
23565SOL     OW75824   2.868   9.814   0.084 -0.0348  0.0337 -0.1578
23565SOL    HW175825   2.798   9.764   0.127 -0.2997  1.6526  1.3332
23565SOL    HW275826   2.948   9.768   0.107 -0.5392 -1.6777 -1.6409
23566SOL     OW75827   7.105   2.360   7.435 -0.2531 -0.1487 -0.3981
23566SOL    HW175828   7.181   2.319   7.393  1.7299  3.1643 -0.1792
23566SOL    HW275829   7.095   2.313   7.518  1.9588 -0.2143 -0.1357
23567SOL     OW75830   2.464   8.443   9.164  0.5041  0.2725  0.1421
23567SOL    HW175831   2.393   8.507   9.167 -1.5144 -1.8347 -0.7973
23567SOL    HW275832   2.535   8.488   9.119  0.3829  2.9964  2.5862
23568SOL     OW75833   5.466   3.923   0.579  0.0321 -0.4847 -0.0983
23568SOL    HW175834   5.446   3.918   0.673  0.0342  0.3031 -0.0474
23568SOL    HW275835   5.543   3.980   0.575  0.0279 -0.5123 -0.5803
23569SOL     OW75836   6.490   8.378   2.097 -1.0813 -0.1167 -0.7781
23569SOL    HW175837   6.458   8.439   2.164  0.9653 -1.5431  1.5348
23569SOL    HW275838   6.535   8.434   2.034 -0.0834  0.9006  0.8079
23570SOL     OW75839   6.184   6.992   7.242 -0.5807  0.2169 -0.4934
23570SOL    HW175840   6.263   7.047   7.248 -0.0906 -0.4080 -1.2158
23570SOL    HW275841   6.145   6.998   7.329  1.0833 -0.6904  0.3388
23571SOL     OW75842   1.711   0.005   0.904 -0.5653  0.3437 -0.0598
23571SOL    HW175843   1.626  -0.014   0.863  0.3044 -1.8867 -0.9516
23571SOL    HW275844   1.731  -0.075   0.953  1.1695  0.7410 -0.1200
23572SOL     OW75845   1.435   0.309   1.435  0.1351  0.1581 -0.0030
23572SOL    HW175846   1.505   0.330   1.497 -0.1205  0.4547  0.1915
23572SOL    HW275847   1.355   0.332   1.482  0.0283  2.6479 -1.2884
23573SOL     OW75848   9.629   6.248   5.642  0.4725  0.3208  0.1112
23573SOL    HW175849   9.649   6.154   5.642 -0.5870  0.0921 -0.1592
23573SOL    HW275850   9.697   6.287   5.588  1.2187 -0.2248  0.6420
23574SOL     OW75851  11.198   3.349  11.097 -0.1283  0.3338  0.3006
23574SOL    HW175852  11.282   3.394  11.088  0.1509 -0.2924 -0.2672
23574SOL    HW275853  11.143   3.411  11.145  0.0768  1.5384 -0.9563
23575SOL     OW75854   3.616   4.736   1.358  0.2984 -0.1402  0.1171
23575SOL    HW175855   3.639   4.741   1.451 -0.7881  1.2237  0.3158
23575SOL    HW275856   3.681   4.791   1.315 -1.2029  1.9568  0.4500
23576SOL     OW75857   6.713   5.411   8.532  0.1078  0.0934 -0.3730
23576SOL    HW175858   6.680   5.491   8.573  0.7525 -1.0251  2.4206
23576SOL    HW275859   6.649   5.343   8.556  0.7088 -0.6668 -0.8875
23577SOL     OW75860   9.889   5.332   7.944  0.8226  0.2308  0.1377
23577SOL    HW175861   9.838   5.252   7.960 -0.6630  1.2558  0.5828
23577SOL    HW275862   9.972   5.316   7.988 -0.5580  0.1034  2.7655
23578SOL     OW75863   4.456   3.993  10.560  0.1721  0.2265  0.1641
23578SOL    HW175864   4.397   4.018  10.488 -0.8797 -1.5676  0.3691
23578SOL    HW275865   4.489   3.907  10.535  1.9010  0.7669  0.5699
23579SOL     OW75866   0.548   7.172   4.982  0.1216  0.2034  0.3879
23579SOL    HW175867   0.628   7.150   5.028  0.2227  0.7798  0.4948
23579SOL    HW275868   0.536   7.266   4.998 -1.7946 -0.3307  2.3073
23580SOL     OW75869   1.881   8.039   4.603 -0.2635 -0.4542 -0.6222
23580SOL    HW175870   1.958   7.993   4.636  0.5664  1.3507  0.0274
23580SOL    HW275871   1.813   7.972   4.598  1.0387 -1.8318 -0.1460
23581SOL     OW75872  10.177   9.617   7.283 -0.8125  0.3458  0.3326
23581SOL    HW175873  10.131   9.533   7.291 -0.0395 -0.0154  1.0105
23581SOL    HW275874  10.270   9.595   7.286 -0.6000  1.1883  0.1259
23582SOL     OW75875   8.831   6.255   5.117 -0.2829  0.0362  0.0771
23582SOL    HW175876   8.870   6.336   5.152 -2.4290  1.3132 -0.4324
23582SOL    HW275877   8.841   6.191   5.188  2.1559  0.4864  0.1958
23583SOL     OW75878   9.629   0.257  10.561  0.0762 -0.2622  0.2622
23583SOL    HW175879   9.644   0.325  10.626  0.1826 -0.7330  0.7299
23583SOL    HW275880   9.586   0.187  10.609 -4.2565  1.2673 -1.1501
23584SOL     OW75881   0.804  10.573   9.043  0.0114  0.6175  0.1018
23584SOL    HW175882   0.748  10.637   9.000  1.0469  1.8901  0.6088
23584SOL    HW275883   0.805  10.600   9.135 -0.0597 -0.5116  0.4435
23585SOL     OW75884   6.408  11.026   7.623 -0.3493  0.0511  0.2167
23585SOL    HW175885   6.464  11.103   7.609 -1.2501  0.5065 -0.9661
23585SOL    HW275886   6.468  10.952   7.620  0.6279  0.7315  1.9744
23586SOL     OW75887   7.299   7.460   2.605 -0.2620  0.4073 -0.2565
23586SOL    HW175888   7.350   7.422   2.533  0.7251  1.1815  0.0246
23586SOL    HW275889   7.210   7.430   2.589  0.2941 -1.0942 -0.6872
23587SOL     OW75890   9.860  11.119   7.080 -0.1229  0.0017 -0.2547
23587SOL    HW175891   9.847  11.024   7.081  0.2585 -0.0415  1.5226
23587SOL    HW275892   9.850  11.146   7.171 -0.1138  1.6609 -0.7277
23588SOL     OW75893  11.178   9.747   6.209  0.0827  0.1963 -0.0437
23588SOL    HW175894  11.254   9.788   6.250  0.7371 -0.5952 -0.4616
23588SOL    HW275895  11.198   9.654   6.208 -1.1638 -0.0800  0.3964
23589SOL     OW75896   0.978   3.584   2.812  0.4415 -0.2307  0.3301
23589SOL    HW175897   0.956   3.492   2.798  0.0713 -0.3584  1.7213
23589SOL    HW275898   0.970   3.597   2.906  1.6435  0.9365  0.2875
23590SOL     OW75899   1.479   5.258   3.146  0.0300 -0.2647 -0.1811
23590SOL    HW175900   1.575   5.266   3.146 -0.0964  1.5498  0.8615
23590SOL    HW275901   1.454   5.270   3.055  0.7359 -0.0396 -0.3474
23591SOL     OW75902   8.246   2.846  10.141 -0.4991  0.6708  0.2113
23591SOL    HW175903   8.219   2.784  10.073  1.6952 -0.0570 -0.0297
23591SOL    HW275904   8.341   2.836  10.146 -0.2445  3.2257  0.9821
23592SOL     OW75905   4.767   4.475   2.476  0.7234 -0.3168  0.1679
23592SOL    HW175906   4.713   4.438   2.406 -0.1425  2.2838 -0.6357
23592SOL    HW275907   4.721   4.453   2.556 -1.6871  1.9798 -0.5231
23593SOL     OW75908   2.966   5.655   6.688 -0.4921 -0.2430 -0.4407
23593SOL    HW175909   2.991   5.653   6.781 -0.8321  1.0327 -0.3203
23593SOL    HW275910   2.881   5.611   6.685  0.1387 -1.5073 -0.3584
23594SOL     OW75911   3.017  10.436   9.172  0.0208  0.1701  0.4077
23594SOL    HW175912   3.020  10.368   9.105 -0.2446  0.0413  0.5259
23594SOL    HW275913   2.962  10.505   9.134  1.2124  0.8184 -0.1654
23595SOL     OW75914   9.421  10.158   8.157 -0.1730 -0.5206  0.1442
23595SOL    HW175915   9.410  10.245   8.118 -3.2479 -2.0307 -2.7182
23595SOL    HW275916   9.492  10.118   8.107 -0.5635 -0.5587 -0.3925
23596SOL     OW75917   6.112   6.923   2.911  0.4201  0.1049  0.3018
23596SOL    HW175918   6.178   6.968   2.963  0.4926 -0.7679  0.9852
23596SOL    HW275919   6.159   6.850   2.871  0.1050  0.0907 -0.0402
23597SOL     OW75920   7.256  11.332   0.507 -0.1154 -0.4004  0.1019
23597SOL    HW175921   7.224  11.368   0.425 -0.5551 -1.6386 -0.2806
23597SOL    HW275922   7.238  11.238   0.501 -1.0036 -0.3797  1.9826
23598SOL     OW75923   6.823   1.611   0.857 -0.4128  0.3908  0.1640
23598SOL    HW175924   6.843   1.685   0.914 -3.5340  1.0732  0.4600
23598SOL    HW275925   6.791   1.650   0.776 -0.9328 -0.5974 -0.1233
23599SOL     OW75926   4.150   2.202   8.547  0.0392 -0.1042 -0.0570
23599SOL    HW175927   4.168   2.200   8.641  1.0170  1.4860 -0.2006
23599SOL    HW275928   4.069   2.252   8.539 -0.2307 -0.5375 -0.0318
23600SOL     OW75929   7.070   5.932  10.360 -0.1361  0.3556 -0.0843
23600SOL    HW175930   7.047   5.862  10.421 -0.0008  2.4281  2.4398
23600SOL    HW275931   7.030   6.010  10.398  1.7650  2.0792 -1.5520
23601SOL     OW75932   0.863   3.942   0.791 -0.0464 -0.2153  0.1042
23601SOL    HW175933   0.821   4.028   0.791  0.7749  0.1992 -1.8136
23601SOL    HW275934   0.836   3.901   0.709  0.4613 -1.3622  0.4878
23602SOL     OW75935   4.103   7.309   3.068  0.4819 -0.3835 -0.1282
23602SOL    HW175936   4.184   7.268   3.036  1.6637  1.5396  0.2635
23602SOL    HW275937   4.105   7.397   3.029 -1.6412 -0.4615 -0.4234
23603SOL     OW75938   1.955   6.791   5.129 -0.3245  0.0134  0.1112
23603SOL    HW175939   1.955   6.709   5.079 -2.0768 -0.1920  0.4044
23603SOL    HW275940   1.993   6.768   5.213  2.5448  0.3340 -1.0246
23604SOL     OW75941   0.481   9.797  10.342 -0.7839 -0.1348 -0.1927
23604SOL    HW175942   0.497   9.865  10.278  0.8857 -0.6121 -0.3042
23604SOL    HW275943   0.481   9.843  10.426  0.1282  0.0411 -0.2840
23605SOL     OW75944   5.538   8.285  10.727 -0.2184 -0.1453  0.4589
23605SOL    HW175945   5.483   8.318  10.798  0.8909  0.8836  0.8501
23605SOL    HW275946   5.588   8.361  10.698  2.1162 -1.3764  1.1335
23606SOL     OW75947   8.331   7.843   7.630 -0.4665  0.0832  0.5427
23606SOL    HW175948   8.256   7.868   7.683 -1.5132 -1.2790 -0.2771
23606SOL    HW275949   8.309   7.756   7.596  1.2807 -0.1408 -0.0673
23607SOL     OW75950   6.757  10.782  10.957  0.2145 -0.1129  0.0095
23607SOL    HW175951   6.837  10.798  10.909 -1.1240  2.7843 -1.3752
23607SOL    HW275952   6.780  10.797  11.049  1.2939  0.4703 -0.3568
23608SOL     OW75953  10.072   2.437   3.974  0.5151  0.4481  0.1207
23608SOL    HW175954  10.135   2.472   3.911 -0.1806  1.4784 -0.0067
23608SOL    HW275955  10.126   2.393   4.040  1.3431  0.9681 -0.2025
23609SOL     OW75956   8.208   8.683   9.612 -0.3064  0.4499  0.2532
23609SOL    HW175957   8.187   8.606   9.558 -1.0673  1.4742 -0.9516
23609SOL    HW275958   8.132   8.694   9.668 -0.9627  1.3275 -0.7819
23610SOL     OW75959   6.326   5.772   1.066 -0.5779 -0.4830 -0.5204
23610SOL    HW175960   6.272   5.714   1.120  1.9771 -1.2183  1.2766
23610SOL    HW275961   6.354   5.716   0.993  0.0899 -0.8947  0.0507
23611SOL     OW75962   5.328   8.150   3.090 -0.5712  0.3056 -0.5179
23611SOL    HW175963   5.350   8.242   3.072 -0.0971  0.8488  2.6347
23611SOL    HW275964   5.244   8.137   3.045 -1.4534  2.7744  0.3230
23612SOL     OW75965   2.798   3.544   8.441  0.4792 -0.1233  0.2333
23612SOL    HW175966   2.778   3.560   8.348  3.5608  0.7577 -0.3351
23612SOL    HW275967   2.780   3.627   8.484 -1.7767 -0.7780  0.6104
23613SOL     OW75968   0.837   2.973   5.444  0.0298 -0.2028 -0.3807
23613SOL    HW175969   0.825   3.062   5.411  1.3747 -0.0714 -0.5485
23613SOL    HW275970   0.749   2.944   5.467 -0.3789  1.2780 -0.0304
23614SOL     OW75971   6.797   2.017   9.158 -0.3898 -0.6644 -0.5010
23614SOL    HW175972   6.875   1.994   9.209 -0.4282  0.9212  0.3087
23614SOL    HW275973   6.828   2.022   9.068  0.7663  1.2285 -0.0338
23615SOL     OW75974   9.120   3.220   0.311 -0.7163 -0.2457 -0.1392
23615SOL    HW175975   9.095   3.161   0.240 -1.6465  0.4961 -0.4401
23615SOL    HW275976   9.078   3.303   0.289  2.4731  1.2489 -0.9856
23616SOL     OW75977   2.492   0.576   6.641  0.2958  0.5002 -0.0353
23616SOL    HW175978   2.499   0.481   6.629  0.7550  0.7098 -1.4673
23616SOL    HW275979   2.488   0.587   6.736  0.5321 -0.9354  0.1580
23617SOL     OW75980   0.958   2.069   2.157  0.4979 -0.0213  0.4948
23617SOL    HW175981   0.976   2.099   2.068 -1.1308  0.2518  0.2444
23617SOL    HW275982   1.044   2.053   2.195  1.3074  2.1922 -0.3262
23618SOL     OW75983   7.874   9.501   1.832  0.0026 -0.1226 -0.3222
23618SOL    HW175984   7.961   9.524   1.865 -0.1617 -1.5005  1.1366
23618SOL    HW275985   7.814   9.552   1.886 -0.0967  1.2414 -1.6897
23619SOL     OW75986   0.361   1.624   6.687  0.0689 -0.4460 -0.3789
23619SOL    HW175987   0.325   1.639   6.599 -0.0798 -0.7151 -0.3634
23619SOL    HW275988   0.409   1.542   6.679 -1.1658 -1.2275  0.1632
23620SOL     OW75989   0.802   5.705   2.408 -0.1072  0.0362  0.4063
23620SOL    HW175990   0.756   5.726   2.327  3.2517 -0.0538 -1.6146
23620SOL    HW275991   0.783   5.612   2.423 -0.9664  0.1217 -0.1179
23621SOL     OW75992   0.906   2.482   7.967 -0.5846  0.3716 -0.2710
23621SOL    HW175993   0.889   2.576   7.966 -2.1545  0.0804 -1.2829
23621SOL    HW275994   1.001   2.475   7.958 -0.4692  1.8626 -0.2752
23622SOL     OW75995   6.243   4.266   3.470  0.4128 -0.3625  0.6517
23622SOL    HW175996   6.251   4.215   3.551  1.4713  1.1572  1.5369
23622SOL    HW275997   6.185   4.339   3.494  0.8924  0.2060  0.0905
23623SOL     OW75998   0.699  10.226   7.900  0.8417 -0.8849  0.1662
23623SOL    HW175999   0.732  10.267   7.821  0.7872  0.0053  0.5940
23623SOL    HW276000   0.615  10.270   7.916  0.7103 -1.2724  0.5479
23624SOL     OW76001   9.540   3.993   2.352 -0.2066  0.2250  0.0486
23624SOL    HW176002   9.477   4.014   2.283 -0.0834  0.5427  0.0314
23624SOL    HW276003   9.496   4.022   2.432 -0.3981 -0.2481  0.1158
23625SOL     OW76004   7.037   0.149   1.000  0.4707  0.1637  0.7307
23625SOL    HW176005   7.132   0.157   1.011  0.4013  1.0340  0.7391
23625SOL    HW276006   7.025   0.134   0.906  0.5795  0.7132  0.6275
23626SOL     OW76007   1.192   3.174   9.927  0.3563  0.0910  0.4598
23626SOL    HW176008   1.135   3.196  10.001  1.8449  2.5690  0.9432
23626SOL    HW276009   1.178   3.246   9.865  1.0275 -0.6392 -0.5478
23627SOL     OW76010   7.814   2.559   8.168 -0.3261  0.0585 -0.3116
23627SOL    HW176011   7.720   2.567   8.153 -0.8407 -0.8994  2.0944
23627SOL    HW276012   7.823   2.565   8.263  1.9279 -0.9329 -0.4333
23628SOL     OW76013   0.112   1.084  10.269  0.0659  0.1041 -0.1217
23628SOL    HW176014   0.063   1.155  10.227 -0.3912 -0.9758 -1.4519
23628SOL    HW276015   0.089   1.007  10.219 -0.2797 -1.1920  1.9566
23629SOL     OW76016   0.357   0.932   6.540  0.0154  0.5326 -0.3954
23629SOL    HW176017   0.346   1.019   6.503 -0.3664  1.1635  1.1557
23629SOL    HW276018   0.275   0.914   6.585  0.4719 -0.1873  0.1666
23630SOL     OW76019   4.683   0.967   4.579  0.1044 -0.0294 -0.5806
23630SOL    HW176020   4.662   0.943   4.488 -1.6387  1.6293 -0.6704
23630SOL    HW276021   4.604   0.946   4.628  1.4639 -2.0207  0.7968
23631SOL     OW76022   3.636   6.015   3.395 -0.3816  0.4641 -0.1315
23631SOL    HW176023   3.690   6.031   3.472  1.3567 -0.1877 -1.1833
23631SOL    HW276024   3.594   5.930   3.411 -0.9286  0.8677  0.5882
23632SOL     OW76025   1.981   0.101   6.915  0.0920  0.4529  0.1086
23632SOL    HW176026   2.032   0.083   6.993  1.4532  1.2745 -0.5677
23632SOL    HW276027   1.894   0.123   6.948  0.0079 -1.5303  1.2326
23633SOL     OW76028  10.509   6.331   9.140 -0.2157 -0.0059  0.3924
23633SOL    HW176029  10.474   6.413   9.103 -1.5871 -0.6196  0.3006
23633SOL    HW276030  10.585   6.359   9.191  0.4054  1.1113 -1.1187
23634SOL     OW76031   8.758   8.368   1.303  0.0049  0.2196  0.1630
23634SOL    HW176032   8.742   8.273   1.304 -1.1626  0.4196  0.8058
23634SOL    HW276033   8.670   8.407   1.304  0.4834  1.3087 -0.0956
23635SOL     OW76034   0.914   7.356   6.991  0.0896 -0.2375 -0.1266
23635SOL    HW176035   0.868   7.391   7.067  0.7515 -0.1275  0.2295
23635SOL    HW276036   0.998   7.402   6.991 -0.5753  1.0525 -1.9204
23636SOL     OW76037   5.204   9.525   4.993 -0.1354 -0.3431 -0.4695
23636SOL    HW176038   5.150   9.572   4.930  0.0027  0.5111  0.0394
23636SOL    HW276039   5.216   9.587   5.066  2.4222 -0.1035 -1.0352
23637SOL     OW76040   5.234   3.754  11.142  0.3213  0.1915  0.6797
23637SOL    HW176041   5.185   3.821  11.189 -0.5559  0.4576 -0.5966
23637SOL    HW276042   5.319   3.794  11.126  0.4421  0.3016  1.5363
23638SOL     OW76043  10.580   2.523   0.553 -0.0721 -0.3303 -0.3129
23638SOL    HW176044  10.568   2.430   0.573 -0.1550 -0.3724 -0.5620
23638SOL    HW276045  10.506   2.546   0.497 -0.2726 -0.0109  0.0777
23639SOL     OW76046  10.455   8.340   8.199  0.2221 -0.1146 -0.0054
23639SOL    HW176047  10.444   8.340   8.104 -2.4789  1.2013  0.2543
23639SOL    HW276048  10.474   8.431   8.221 -0.9089 -0.0777  0.8665
23640SOL     OW76049   4.923  10.889   2.045  0.2765  0.1040  0.5374
23640SOL    HW176050   4.834  10.858   2.066  0.8988 -1.3852  1.0857
23640SOL    HW276051   4.936  10.863   1.954  0.2069  0.1639  0.5102
23641SOL     OW76052  10.201   6.785   8.818 -0.0298 -0.3045 -0.1619
23641SOL    HW176053  10.159   6.717   8.766  1.1309 -0.4027 -0.9960
23641SOL    HW276054  10.166   6.773   8.906  0.9805 -2.6615 -0.0503
23642SOL     OW76055   5.209   5.230   2.833  0.2102 -0.1448  0.1018
23642SOL    HW176056   5.291   5.218   2.879  0.3917 -2.0451 -0.6786
23642SOL    HW276057   5.214   5.171   2.758 -1.3005  0.7161 -0.7191
23643SOL     OW76058   4.839   7.817   4.582  0.0707 -0.1171 -0.2406
23643SOL    HW176059   4.806   7.738   4.624 -0.7136  0.2454 -0.1669
23643SOL    HW276060   4.779   7.887   4.610 -0.0517  0.2544 -1.3948
23644SOL     OW76061  11.271   4.865   1.280 -0.3763  0.2561 -0.4577
23644SOL    HW176062  11.233   4.935   1.227 -0.7338 -0.3237 -0.9632
23644SOL    HW276063  11.249   4.890   1.370  0.4071  1.3437 -0.5544
23645SOL     OW76064   3.743  10.494   8.500 -0.4939  0.0843  0.0488
23645SOL    HW176065   3.709  10.405   8.499 -0.0711 -0.0749 -0.0787
23645SOL    HW276066   3.713  10.531   8.583 -0.8723 -0.0952 -0.0054
23646SOL     OW76067  10.663  10.643   5.864 -0.4170  0.4691  0.1262
23646SOL    HW176068  10.664  10.617   5.956 -0.2172  0.4140  0.1104
23646SOL    HW276069  10.583  10.693   5.854  0.2481  1.6596  0.6649
23647SOL     OW76070   2.830   1.291   5.835  0.4678 -0.2246  0.2720
23647SOL    HW176071   2.842   1.322   5.745  0.2291 -2.0824 -0.4305
23647SOL    HW276072   2.906   1.234   5.850  0.3711 -0.1172  1.1679
23648SOL     OW76073   7.765   3.811   9.639 -0.4121 -0.3456 -0.0974
23648SOL    HW176074   7.733   3.877   9.577  0.8834 -1.1390 -1.6306
23648SOL    HW276075   7.798   3.863   9.713  0.7751  0.7641 -1.3663
23649SOL     OW76076   5.288   2.842   6.508 -0.1765 -0.3538 -0.6530
23649SOL    HW176077   5.312   2.749   6.501 -0.3081 -0.4903  0.5452
23649SOL    HW276078   5.362   2.883   6.551  0.1994  0.2538 -1.8624
23650SOL     OW76079   9.741  10.408   7.559  0.2929 -0.4434  0.2462
23650SOL    HW176080   9.753  10.414   7.464 -0.2822  0.0478  0.2032
23650SOL    HW276081   9.649  10.427   7.573  0.4901  0.0116  0.9510
23651SOL     OW76082   7.939   4.819   7.532  0.6905  0.1997  0.5737
23651SOL    HW176083   7.892   4.889   7.486  1.1532 -1.2434 -2.1712
23651SOL    HW276084   7.999   4.865   7.591 -0.2520  2.0840  0.0997
23652SOL     OW76085  10.276   2.496  10.136 -0.3157 -0.0870  0.2212
23652SOL    HW176086  10.194   2.500  10.087 -0.1486  3.9904  0.1405
23652SOL    HW276087  10.269   2.416  10.188 -3.5811 -0.6978 -1.0501
23653SOL     OW76088   3.333   5.283   7.189  0.0471  0.0668  0.0433
23653SOL    HW176089   3.388   5.225   7.241  1.0738  0.4139 -0.6499
23653SOL    HW276090   3.244   5.268   7.223  0.3974 -1.3479  0.3633
23654SOL     OW76091  11.117   6.343   2.338  0.2151 -0.4300  0.1729
23654SOL    HW176092  11.147   6.261   2.300  1.0422 -0.0025 -0.1127
23654SOL    HW276093  11.161   6.411   2.286  0.4389  0.1747  1.1440
23655SOL     OW76094   8.209   7.336  10.829 -0.0223 -0.1262  0.0604
23655SOL    HW176095   8.301   7.344  10.801  0.2360  0.0791  0.9564
23655SOL    HW276096   8.198   7.243  10.847  0.5801  0.1178  1.8291
23656SOL     OW76097   8.263   9.948   4.773  0.2377 -0.3336  0.6945
23656SOL    HW176098   8.180   9.972   4.813 -0.8890  0.2184 -1.8365
23656SOL    HW276099   8.329   9.965   4.841 -1.2661  3.3916  1.3438
23657SOL     OW76100   1.219   4.977   9.374 -0.6586 -0.0815 -0.1463
23657SOL    HW176101   1.209   4.991   9.279 -2.1342 -0.2628 -0.0236
23657SOL    HW276102   1.313   4.968   9.386 -0.2721  1.8709 -1.3337
23658SOL     OW76103   0.903   5.630   6.701 -0.0745  0.5808  0.5654
23658SOL    HW176104   0.995   5.629   6.727 -0.4405 -3.8289  2.1190
23658SOL    HW276105   0.864   5.699   6.754  1.4591 -0.6983  3.4798
23659SOL     OW76106  10.631   4.861   3.580  0.7095 -0.2090  0.2693
23659SOL    HW176107  10.664   4.904   3.659 -1.0492 -0.5188  1.1690
23659SOL    HW276108  10.571   4.794   3.611  1.0743 -1.2857 -1.2805
23660SOL     OW76109  10.557   6.510   6.359 -0.1509 -0.1844  0.1643
23660SOL    HW176110  10.552   6.545   6.270  0.4386  0.2546  0.3046
23660SOL    HW276111  10.614   6.433   6.351  1.1028  0.7010  0.4237
23661SOL     OW76112   8.349  10.409   4.887 -0.1289 -0.3394 -0.0716
23661SOL    HW176113   8.390  10.422   4.801 -0.0667  2.6055  0.3660
23661SOL    HW276114   8.420  10.420   4.949 -0.4482 -1.0892  0.4315
23662SOL     OW76115  10.422   1.345   0.416 -0.1723  0.0470 -0.1044
23662SOL    HW176116  10.410   1.440   0.415 -3.0927 -0.2671  1.0971
23662SOL    HW276117  10.443   1.323   0.325  0.0161  1.7737 -0.4975
23663SOL     OW76118   0.497   3.038   9.649  0.0138  0.3791  0.5754
23663SOL    HW176119   0.520   3.101   9.581  1.3158 -0.7654 -0.0724
23663SOL    HW276120   0.488   3.090   9.729  0.9574  1.4054  0.0251
23664SOL     OW76121   3.986   5.383   8.471  0.3147 -0.3016  0.1851
23664SOL    HW176122   3.975   5.475   8.494  0.8474  0.0978 -1.0701
23664SOL    HW276123   3.897   5.349   8.462  0.0819  0.6468 -1.3994
23665SOL     OW76124   9.814   9.701   2.966 -0.2863 -0.0692 -0.1639
23665SOL    HW176125   9.795   9.686   2.873  1.5969  1.6222 -0.8519
23665SOL    HW276126   9.898   9.658   2.980  0.1882  1.0195  0.3613
23666SOL     OW76127   4.879   0.786   6.027 -0.6635  0.3044 -0.4437
23666SOL    HW176128   4.891   0.829   5.942 -0.1292 -0.3353 -0.6912
23666SOL    HW276129   4.940   0.831   6.085 -0.9901  0.7061 -0.4075
23667SOL     OW76130  10.563   4.018   8.121 -0.2482  0.4598 -0.5069
23667SOL    HW176131  10.559   4.059   8.034  1.0050  0.7234 -0.4492
23667SOL    HW276132  10.651   3.981   8.126 -0.9315 -1.1193 -0.0437
23668SOL     OW76133   9.719   7.804  10.647  0.6695 -0.0316  0.0067
23668SOL    HW176134   9.738   7.713  10.668 -0.7474 -0.6680 -1.3461
23668SOL    HW276135   9.632   7.802  10.606  0.1938  2.0467  0.8392
23669SOL     OW76136   2.510   4.195   3.237  0.2286  0.5719 -0.4079
23669SOL    HW176137   2.478   4.147   3.314  1.5419  1.6803  0.8532
23669SOL    HW276138   2.453   4.271   3.230  0.0790  0.4457 -0.5555
23670SOL     OW76139   8.297   3.874  10.636  0.2138 -0.1466 -0.1998
23670SOL    HW176140   8.216   3.824  10.627 -0.5116  0.4790  2.2735
23670SOL    HW276141   8.363   3.823  10.589 -1.0834 -1.9930 -0.0758
23671SOL     OW76142   8.356   4.728   3.980 -0.2310  0.0239  0.3012
23671SOL    HW176143   8.389   4.805   3.934  0.3410 -0.3128  0.1324
23671SOL    HW276144   8.261   4.731   3.969 -0.1350  0.1893 -0.5107
23672SOL     OW76145   8.440   1.134  10.274 -0.1376 -0.2694 -0.4232
23672SOL    HW176146   8.509   1.103  10.216 -1.0932  1.6138 -2.6596
23672SOL    HW276147   8.457   1.091  10.358  2.5886 -1.3223 -1.4760
23673SOL     OW76148   4.525  10.041   4.752  0.2656  0.1688 -0.0831
23673SOL    HW176149   4.589  10.090   4.803  1.3990  0.9133 -2.1546
23673SOL    HW276150   4.466  10.108   4.717 -1.3921 -0.4688  1.4085
23674SOL     OW76151   0.763   4.316   3.906 -0.5293  0.0752  0.0177
23674SOL    HW176152   0.856   4.301   3.923 -0.6643  0.2288  0.9078
23674SOL    HW276153   0.719   4.290   3.986 -1.2608 -0.0056 -0.4052
23675SOL     OW76154   9.363   2.440   8.042 -0.1537 -0.1670  0.1902
23675SOL    HW176155   9.338   2.348   8.029  0.1967 -0.2815  0.3225
23675SOL    HW276156   9.332   2.461   8.130  3.1398 -1.3024  1.6845
23676SOL     OW76157   7.462   9.233   0.498  0.3532  0.0628 -0.3711
23676SOL    HW176158   7.427   9.159   0.448  0.7463 -1.0242  0.9455
23676SOL    HW276159   7.492   9.194   0.580 -0.9222  1.9255  1.0119
23677SOL     OW76160   1.524   5.199   8.631  0.3345 -0.4873  0.1076
23677SOL    HW176161   1.469   5.268   8.594  1.4299  0.6409  0.5363
23677SOL    HW276162   1.463   5.129   8.654 -0.5451 -0.5439 -2.3028
23678SOL     OW76163   8.326   7.822   8.050  0.1077  0.2726 -0.0902
23678SOL    HW176164   8.361   7.809   8.139 -3.3448 -1.7429  1.0934
23678SOL    HW276165   8.343   7.738   8.006 -0.6006  0.3166 -0.4406
23679SOL     OW76166   1.669   3.422   0.499  0.2848  0.1830 -0.2272
23679SOL    HW176167   1.732   3.461   0.560  0.3323  0.2735 -0.3340
23679SOL    HW276168   1.599   3.389   0.555 -1.0770  2.8197 -0.3149
23680SOL     OW76169  10.769   8.779   9.974 -0.0384  0.0665  0.7192
23680SOL    HW176170  10.828   8.725  10.026 -0.6604 -0.7608  0.5783
23680SOL    HW276171  10.811   8.785   9.888 -0.1858 -0.5568  0.6055
23681SOL     OW76172   2.576   8.632   4.664 -0.1658 -0.5314 -0.5521
23681SOL    HW176173   2.613   8.618   4.750 -1.6118 -1.2862 -0.0356
23681SOL    HW276174   2.625   8.707   4.628 -0.1765  0.3736  1.2782
23682SOL     OW76175   1.953   1.119   6.595 -0.5418 -0.7115  0.4278
23682SOL    HW176176   2.023   1.143   6.534 -1.9606  0.4736 -0.7826
23682SOL    HW276177   1.987   1.142   6.681  0.3106  0.4901 -0.2175
23683SOL     OW76178   1.692  10.285   8.445  0.1961  0.2082  0.3317
23683SOL    HW176179   1.747  10.239   8.508  1.3065 -1.0719 -1.5183
23683SOL    HW276180   1.754  10.324   8.384 -0.8366  2.3247  0.6222
23684SOL     OW76181   1.332   9.911   0.706  0.8819  0.4035  0.1071
23684SOL    HW176182   1.263   9.873   0.652  0.2063 -2.1293  2.5794
23684SOL    HW276183   1.345   9.999   0.672 -3.3907  0.8428 -0.6050
23685SOL     OW76184   0.719   6.175   6.502  0.3386 -0.2542  0.4466
23685SOL    HW176185   0.810   6.184   6.477 -0.0634 -0.1666 -1.0217
23685SOL    HW276186   0.687   6.264   6.512  0.5271 -0.2897  1.4028
23686SOL     OW76187   8.775   9.644   1.679  0.3289 -0.3077  0.4954
23686SOL    HW176188   8.839   9.654   1.750  1.4602 -0.0305 -0.5381
23686SOL    HW276189   8.776   9.728   1.633 -0.1104 -0.6123 -0.0763
23687SOL     OW76190   0.668   3.262   5.439  0.7093 -0.7630  0.0211
23687SOL    HW176191   0.659   3.316   5.518 -0.4936  1.2207 -1.4132
23687SOL    HW276192   0.614   3.185   5.456  0.9698 -0.6596  1.3744
23688SOL     OW76193   5.983   6.164   1.611 -0.0532  0.1767 -0.8342
23688SOL    HW176194   6.046   6.230   1.640  0.8681 -1.1631  0.3063
23688SOL    HW276195   5.903   6.213   1.592  1.6321  2.0864 -3.4116
23689SOL     OW76196   0.285   5.802   3.858  0.2907 -0.1739  0.0223
23689SOL    HW176197   0.366   5.751   3.857  0.6334  0.3820 -1.6198
23689SOL    HW276198   0.264   5.815   3.766 -0.4546  1.5972  0.4346
23690SOL     OW76199   5.760  10.949   7.625 -0.1017  0.0392  0.4408
23690SOL    HW176200   5.696  10.987   7.564  0.6825  0.2124 -0.2837
23690SOL    HW276201   5.832  11.012   7.628 -0.4866  0.4211  2.1908
23691SOL     OW76202   9.461   3.459   0.028  0.0246  0.6070 -0.0223
23691SOL    HW176203   9.519   3.416   0.091 -0.5394  1.1230  0.8537
23691SOL    HW276204   9.509   3.454  -0.055  1.2154  0.8006  0.6356
23692SOL     OW76205   0.728   3.575  10.206 -0.1299 -0.0992 -0.2402
23692SOL    HW176206   0.782   3.520  10.263  0.0416  0.1733 -0.1367
23692SOL    HW276207   0.638   3.557  10.234 -0.0660 -0.2219 -0.1119
23693SOL     OW76208   6.546   1.816   6.529  0.3575 -0.1923 -0.1423
23693SOL    HW176209   6.596   1.735   6.541  1.1359  0.0952 -1.3100
23693SOL    HW276210   6.588   1.859   6.455 -0.7971  0.7118 -0.2923
23694SOL     OW76211   0.069   4.384  10.823  0.4317  0.5913  0.3410
23694SOL    HW176212   0.158   4.373  10.789  0.2911  1.5626 -0.3354
23694SOL    HW276213   0.012   4.378  10.746 -0.1156 -0.1748  0.7860
23695SOL     OW76214   7.976   4.838   7.061 -0.6055  0.1883 -0.1269
23695SOL    HW176215   8.014   4.774   7.001 -0.6307  1.0472 -1.0758
23695SOL    HW276216   7.889   4.804   7.082 -0.0493 -0.8329  0.5547
23696SOL     OW76217   6.627   5.116  10.997  0.2046 -0.0199  0.5355
23696SOL    HW176218   6.687   5.179  10.958 -1.9948  0.8088 -1.6355
23696SOL    HW276219   6.664   5.031  10.976  0.4687  0.4740 -1.0227
23697SOL     OW76220   6.447   4.496   4.342 -0.1572 -0.2186  0.4228
23697SOL    HW176221   6.483   4.460   4.423 -2.2167 -1.3443  0.8762
23697SOL    HW276222   6.440   4.421   4.283 -2.2285 -0.1596  0.5424
23698SOL     OW76223   0.428  10.537   5.217  0.7125 -0.0799 -0.2492
23698SOL    HW176224   0.475  10.614   5.186  1.6476 -0.8180 -0.7094
23698SOL    HW276225   0.473  10.511   5.297  0.4324 -0.1706 -0.1207
23699SOL     OW76226   9.890  10.577   8.215  0.4700 -0.4017 -0.4980
23699SOL    HW176227   9.904  10.545   8.304 -0.5749 -2.2839 -0.9808
23699SOL    HW276228   9.978  10.598   8.183  0.9194 -0.3953  0.7037
23700SOL     OW76229   8.718   7.143  10.801 -0.5277 -0.1604  0.0790
23700SOL    HW176230   8.626   7.133  10.779 -1.0020 -1.1747  2.4077
23700SOL    HW276231   8.731   7.238  10.806 -1.6108 -0.0311  0.4469
23701SOL     OW76232   2.509   7.764   8.002  0.1841  0.1416  0.5055
23701SOL    HW176233   2.559   7.844   8.012  0.3772  0.1405 -0.4237
23701SOL    HW276234   2.487   7.760   7.909 -1.1516 -0.0884  0.8167
23702SOL     OW76235   5.817   9.024  11.088  0.1978  0.5241  0.1678
23702SOL    HW176236   5.753   9.008  11.018  0.4266 -1.3066  0.3498
23702SOL    HW276237   5.809   9.117  11.107 -2.1779  0.3807 -0.0445
23703SOL     OW76238   0.598   9.994  10.176 -0.0198 -0.3403 -0.1290
23703SOL    HW176239   0.661  10.022  10.109  0.4057 -0.8978  0.0341
23703SOL    HW276240   0.530   9.948  10.126 -0.8366  1.1769 -0.4207
23704SOL     OW76241   1.586   4.413   6.958  0.0689 -0.5765  0.1165
23704SOL    HW176242   1.602   4.331   6.911  0.6735 -0.5081  0.1930
23704SOL    HW276243   1.491   4.424   6.956  0.1218 -0.2441 -1.6736
23705SOL     OW76244   0.235   9.599   2.107  0.3149  0.5405 -0.4238
23705SOL    HW176245   0.327   9.579   2.124  0.2236 -1.0156 -1.7078
23705SOL    HW276246   0.235   9.646   2.024 -0.3021 -2.0530 -1.9307
23706SOL     OW76247   0.745   3.560   9.929 -0.6164 -0.0104 -0.1462
23706SOL    HW176248   0.652   3.576   9.910 -0.3875  0.4533 -0.9283
23706SOL    HW276249   0.748   3.548  10.024 -1.3769  0.6959 -0.0173
23707SOL     OW76250   0.990  10.186   0.287 -0.4499 -0.3300 -0.6528
23707SOL    HW176251   0.910  10.153   0.246 -1.2195  0.0719  0.4833
23707SOL    HW276252   1.037  10.231   0.217 -1.1675 -0.6611 -1.3496
23708SOL     OW76253  10.129   8.091   1.662  0.0772  0.3877 -0.3048
23708SOL    HW176254  10.153   8.148   1.588  1.2780  0.9801  0.5247
23708SOL    HW276255  10.139   8.147   1.739  3.1075 -1.4710  0.7010
23709SOL     OW76256  10.516   1.683   8.244  0.2077  0.6563  0.3878
23709SOL    HW176257  10.422   1.694   8.229  0.3301 -2.1319 -2.9314
23709SOL    HW276258  10.523   1.602   8.294  0.9110  0.1892 -0.4583
23710SOL     OW76259   8.600   8.585   6.111  0.3324  0.1680  0.0714
23710SOL    HW176260   8.583   8.674   6.080  2.9736 -0.0871 -2.3474
23710SOL    HW276261   8.547   8.529   6.054 -0.1950  0.0931  0.6311
23711SOL     OW76262   1.576   5.035   0.132 -0.0245  0.3310 -0.9458
23711SOL    HW176263   1.558   5.116   0.084  1.6876  0.7644 -0.9003
23711SOL    HW276264   1.574   5.062   0.224 -1.1437 -0.0472 -0.8510
23712SOL     OW76265   5.445   1.690   7.839 -0.5670  0.1676  0.2700
23712SOL    HW176266   5.449   1.663   7.931 -1.2531  2.2176  0.9272
23712SOL    HW276267   5.401   1.618   7.795  1.1591 -1.5533  1.2538
23713SOL     OW76268   3.832   2.553   7.422  0.2320  0.6595  0.3610
23713SOL    HW176269   3.827   2.458   7.411  0.5798  0.4341  2.0403
23713SOL    HW276270   3.743   2.579   7.445  0.0263  0.8083 -0.6049
23714SOL     OW76271   3.562   3.299   7.533  0.1134 -0.1165  0.1979
23714SOL    HW176272   3.546   3.357   7.608  1.8846 -0.5414  0.9392
23714SOL    HW276273   3.626   3.235   7.566  0.9597 -0.2644 -1.6993
23715SOL     OW76274   8.200   7.773   6.987 -0.2554 -0.1470 -0.0828
23715SOL    HW176275   8.222   7.862   7.012 -1.9818 -0.4139  2.6491
23715SOL    HW276276   8.265   7.718   7.033 -0.5455 -0.3985  0.0332
23716SOL     OW76277  11.243   2.235   9.420 -0.2003 -0.0605  0.6506
23716SOL    HW176278  11.316   2.190   9.462  0.2399 -1.6735 -1.6994
23716SOL    HW276279  11.256   2.327   9.441  2.3702 -0.3563  0.5468
23717SOL     OW76280   4.657   8.602   2.643 -0.4952 -0.4422  0.5137
23717SOL    HW176281   4.681   8.509   2.647  0.2792 -0.1820  2.7312
23717SOL    HW276282   4.578   8.608   2.695 -1.1852 -0.0236 -0.5665
23718SOL     OW76283   3.017   0.111   5.302 -0.5481  0.2453 -0.7016
23718SOL    HW176284   2.930   0.148   5.315 -0.6398 -0.9336  2.2813
23718SOL    HW276285   3.011   0.024   5.340  1.6871 -0.1928 -1.3298
23719SOL     OW76286   9.203   9.472  11.279 -0.7266 -0.5327  0.4291
23719SOL    HW176287   9.195   9.386  11.238 -0.0677 -0.5362  0.3133
23719SOL    HW276288   9.268   9.518  11.226 -1.6560  0.3145  0.0133
23720SOL     OW76289   8.665   5.893   5.126  0.2089  0.2161 -0.3964
23720SOL    HW176290   8.695   5.825   5.066  1.8454  0.0008  0.6193
23720SOL    HW276291   8.726   5.965   5.114 -1.2087  1.3303 -1.0897
23721SOL     OW76292   9.735  10.204   7.774 -0.3414  0.4020 -0.2705
23721SOL    HW176293   9.648  10.215   7.812 -1.0526  0.0800 -1.7993
23721SOL    HW276294   9.744  10.278   7.714 -1.1393 -1.6729 -3.0486
23722SOL     OW76295   7.261   4.645   0.258 -0.0072  0.0521 -0.2304
23722SOL    HW176296   7.280   4.557   0.224  0.2868  0.1197 -0.2454
23722SOL    HW276297   7.189   4.677   0.204 -1.0177 -0.7100  0.6445
23723SOL     OW76298   0.194   2.673   3.409 -0.5532 -0.2598 -0.0968
23723SOL    HW176299   0.189   2.688   3.503 -0.1597 -0.0677 -0.1065
23723SOL    HW276300   0.110   2.703   3.375  0.1531  1.7759 -0.0975
23724SOL     OW76301   3.104   6.801   0.097  0.0164 -0.5385 -0.5417
23724SOL    HW176302   3.146   6.810   0.012  0.2701  0.5484 -0.3126
23724SOL    HW276303   3.174   6.775   0.157 -0.0882 -0.9462 -0.5977
23725SOL     OW76304   7.096   2.664   7.487 -0.8921 -0.6650 -0.1519
23725SOL    HW176305   7.025   2.601   7.499  1.3951 -3.4233 -0.5380
23725SOL    HW276306   7.163   2.616   7.438  0.5740  2.3699 -1.2755
23726SOL     OW76307   4.561   5.693   3.891 -0.0214 -0.2227 -0.2340
23726SOL    HW176308   4.521   5.669   3.975 -0.0679 -1.2546 -0.5519
23726SOL    HW276309   4.492   5.742   3.846 -0.3664 -0.5913 -0.1106
23727SOL     OW76310   1.728   7.069   6.516  0.0986  0.2156 -0.8473
23727SOL    HW176311   1.809   7.115   6.536 -0.9607  2.1044 -0.8121
23727SOL    HW276312   1.669   7.091   6.588 -0.3384 -1.4609 -0.6686
23728SOL     OW76313   2.186  11.078   5.628 -0.9471  0.2953  0.0044
23728SOL    HW176314   2.232  10.994   5.618 -0.9394  0.2076  0.7246
23728SOL    HW276315   2.107  11.056   5.677 -0.9685  0.7050  0.1542
23729SOL     OW76316   1.446   0.726   8.014  0.3110 -0.3965 -0.2553
23729SOL    HW176317   1.461   0.640   7.975  0.1067 -0.3422 -0.4525
23729SOL    HW276318   1.409   0.778   7.943  0.1639 -0.2304 -0.0552
23730SOL     OW76319   0.922   6.818   6.437  0.2478  0.1340 -0.0423
23730SOL    HW176320   0.876   6.901   6.424  1.2099  0.5737 -0.7129
23730SOL    HW276321   0.859   6.763   6.483 -0.5359  1.1094  0.0816
23731SOL     OW76322  10.162   2.689   7.490  0.1537  0.1327 -0.2600
23731SOL    HW176323  10.229   2.702   7.423  0.9323  0.6439  0.5937
23731SOL    HW276324  10.113   2.612   7.461  1.4786 -0.5951 -0.6078
23732SOL     OW76325   4.293   3.975   8.779  0.1054 -0.2633 -0.0417
23732SOL    HW176326   4.334   4.049   8.825  0.8104  0.0418 -1.1500
23732SOL    HW276327   4.252   3.924   8.849 -1.3510  1.7488  0.6226
23733SOL     OW76328   1.852   7.528   3.105  0.1226  0.0252 -0.6246
23733SOL    HW176329   1.835   7.609   3.154  0.9224 -1.7798  2.8206
23733SOL    HW276330   1.765   7.494   3.086 -0.2184  0.3993  0.2041
23734SOL     OW76331  10.283   1.284   6.398 -0.7874  0.8395 -0.0479
23734SOL    HW176332  10.368   1.240   6.389 -1.0854  0.8161 -3.0126
23734SOL    HW276333  10.220   1.212   6.407 -0.7813  0.7976 -0.3402
23735SOL     OW76334  10.065   9.058   0.377 -0.5243 -0.5972 -0.5022
23735SOL    HW176335  10.020   8.974   0.375 -1.3830 -0.1371 -0.7608
23735SOL    HW276336  10.139   9.047   0.318 -0.4515 -1.2665 -0.2946
23736SOL     OW76337   1.421   4.506   4.215 -0.4087 -0.2975 -0.4694
23736SOL    HW176338   1.414   4.550   4.130  2.2281  0.3440 -0.4105
23736SOL    HW276339   1.397   4.572   4.279  0.5656  0.1429 -0.5554
23737SOL     OW76340   1.251   9.947   1.649 -0.4835  0.3454 -0.4008
23737SOL    HW176341   1.179   9.913   1.702 -1.0274  0.1719 -1.2410
23737SOL    HW276342   1.229   9.921   1.560 -1.2939  3.5326 -1.1764
23738SOL     OW76343   7.466   7.914  10.406  0.2285  0.1814 -0.2272
23738SOL    HW176344   7.462   7.825  10.371 -1.0121 -0.6086  1.8154
23738SOL    HW276345   7.427   7.968  10.337 -2.7641 -1.4067  0.1004
23739SOL     OW76346   4.456   6.824   1.949  0.2566 -0.6881  0.5380
23739SOL    HW176347   4.425   6.912   1.926  0.3598 -0.5244  1.0081
23739SOL    HW276348   4.389   6.789   2.007 -0.4345 -1.4437 -0.7106
23740SOL     OW76349   2.594   4.237   4.148 -0.1915 -0.0934 -0.0022
23740SOL    HW176350   2.603   4.143   4.139 -0.6713 -0.1019 -0.4789
23740SOL    HW276351   2.658   4.274   4.087 -0.2439 -0.1170 -0.0719
23741SOL     OW76352   7.452   1.016   0.935  0.3129 -0.3661  0.1850
23741SOL    HW176353   7.479   1.073   1.007  0.0069  1.4617 -1.0984
23741SOL    HW276354   7.357   1.026   0.930  0.4767  0.5103 -1.2768
23742SOL     OW76355   6.628   2.947   2.408  0.2675 -0.8652 -0.1255
23742SOL    HW176356   6.628   2.852   2.400 -0.7128 -0.8632 -0.0997
23742SOL    HW276357   6.721   2.970   2.406  0.4639 -1.6493 -2.1837
23743SOL     OW76358   6.685   4.304   4.318  0.5314 -0.4370  0.0954
23743SOL    HW176359   6.695   4.319   4.224  2.1143  0.2843  0.3759
23743SOL    HW276360   6.605   4.251   4.325  1.0882 -1.5497 -1.7347
23744SOL     OW76361  11.043   2.885   6.345  0.0977  0.0208 -0.4451
23744SOL    HW176362  10.985   2.892   6.269 -0.3750  0.8283 -0.0069
23744SOL    HW276363  10.986   2.856   6.416  0.3232  0.3668 -0.1227
23745SOL     OW76364   7.760   6.657   5.742 -0.1769  0.1202 -0.1849
23745SOL    HW176365   7.791   6.653   5.652  0.0352  3.4209 -0.3314
23745SOL    HW276366   7.825   6.608   5.792  0.6278 -0.2967 -1.6079
23746SOL     OW76367   4.799  11.217  10.091 -0.1025  0.3133 -0.7087
23746SOL    HW176368   4.879  11.182  10.051  0.4178 -0.5277  1.0072
23746SOL    HW276369   4.728  11.164  10.054  0.2119  0.6043 -1.7194
23747SOL     OW76370   1.756  10.477   3.172  0.4176 -0.0461 -0.3201
23747SOL    HW176371   1.682  10.534   3.152  0.7259 -0.7894 -3.7783
23747SOL    HW276372   1.831  10.521   3.133  1.0882 -1.4822 -0.6591
23748SOL     OW76373   0.700   0.519   7.168  0.2869 -0.3275  0.2749
23748SOL    HW176374   0.772   0.456   7.166 -0.3222 -1.0113 -0.4186
23748SOL    HW276375   0.621   0.465   7.170 -0.2350  0.4203  0.1021
23749SOL     OW76376   1.262   4.174  10.428 -0.3474 -0.0414 -0.1648
23749SOL    HW176377   1.277   4.193  10.335 -1.1381 -0.2954 -0.3520
23749SOL    HW276378   1.259   4.260  10.470  1.7318  0.0087 -0.0958
23750SOL     OW76379  11.003   0.473   2.987  0.7123  0.2301  0.6012
23750SOL    HW176380  11.060   0.540   3.024  0.9213  0.7840 -0.6746
23750SOL    HW276381  10.931   0.522   2.947  0.0899 -0.3870  0.9428
23751SOL     OW76382   9.879   2.626  10.703 -0.3945  0.1211  0.0838
23751SOL    HW176383   9.953   2.682  10.681  0.0514 -0.4691  0.0783
23751SOL    HW276384   9.803   2.685  10.698 -0.1300  0.3480 -1.5599
23752SOL     OW76385   2.460   7.708   2.501  0.2337 -0.9731 -0.6606
23752SOL    HW176386   2.432   7.796   2.473 -1.3309 -1.0837  0.4577
23752SOL    HW276387   2.537   7.689   2.447 -0.7727  0.1310 -2.5466
23753SOL     OW76388   4.329   4.585   2.568  0.3289  0.0211  0.7836
23753SOL    HW176389   4.404   4.545   2.611  0.5893  0.4125  0.7006
23753SOL    HW276390   4.305   4.658   2.626 -0.3538 -0.4590  1.1129
23754SOL     OW76391   8.409  10.183   5.547  0.6970 -0.1810 -0.3034
23754SOL    HW176392   8.498  10.199   5.516  0.4239 -0.3309 -1.1788
23754SOL    HW276393   8.353  10.222   5.481  0.0929 -0.9925 -0.2767
23755SOL     OW76394   2.297   6.943   6.708  0.1769  0.0829  0.5928
23755SOL    HW176395   2.297   6.963   6.802 -2.1214  2.1026  0.1903
23755SOL    HW276396   2.326   7.024   6.666 -0.1613 -0.3816 -0.5384
23756SOL     OW76397   0.101   3.113   5.614  0.1665  0.2062 -0.2991
23756SOL    HW176398   0.158   3.173   5.566 -0.5410 -0.2807 -1.7934
23756SOL    HW276399   0.154   3.034   5.626 -0.0756 -0.1560 -1.4721
23757SOL     OW76400   4.780  10.482  10.196  0.2693 -0.1375  0.2376
23757SOL    HW176401   4.700  10.533  10.186  0.2725 -0.1669  0.0527
23757SOL    HW276402   4.813  10.505  10.282  0.5104  0.5187 -0.0282
23758SOL     OW76403  11.040   5.730   2.551 -0.1526 -0.0049  0.2442
23758SOL    HW176404  11.069   5.656   2.497 -2.3291  0.4483 -1.6175
23758SOL    HW276405  10.953   5.705   2.580  0.9335 -0.1726  3.5320
23759SOL     OW76406  10.982   1.804  11.276  0.4389 -0.2406  0.0010
23759SOL    HW176407  11.067   1.824  11.237  1.5994 -0.2420  2.4439
23759SOL    HW276408  10.972   1.709  11.265  0.9130 -0.2936  0.0365
23760SOL     OW76409   8.287   1.918   9.157 -0.2287 -0.2211 -0.3464
23760SOL    HW176410   8.224   1.912   9.229  0.4771 -0.9752  0.2213
23760SOL    HW276411   8.236   1.951   9.083 -0.6906  1.8362  0.8407
23761SOL     OW76412   6.373   0.567  10.917  0.3317 -0.4032  0.1215
23761SOL    HW176413   6.427   0.516  10.978  0.1558 -2.1985 -1.2059
23761SOL    HW276414   6.434   0.630  10.878  1.0551 -1.1328  0.0695
23762SOL     OW76415   3.073   1.956  10.894 -0.2016  0.1026  1.0321
23762SOL    HW176416   2.989   2.003  10.894 -0.2767 -0.0265  0.3236
23762SOL    HW276417   3.053   1.870  10.930 -0.4106  0.0034  0.6751
23763SOL     OW76418  10.263   3.809  11.026 -0.0243  0.1837 -0.0799
23763SOL    HW176419  10.313   3.870  11.080 -1.2653  1.5970 -0.4876
23763SOL    HW276420  10.172   3.829  11.044 -0.4536 -0.5910 -1.2877
23764SOL     OW76421   8.680   4.180   9.026 -0.0361 -0.3901 -0.2461
23764SOL    HW176422   8.719   4.179   8.938 -0.2879 -0.5980 -0.3586
23764SOL    HW276423   8.678   4.273   9.050 -0.1829 -0.3114 -0.5566
23765SOL     OW76424   2.131   4.590  11.057  0.2491 -0.2340  0.2150
23765SOL    HW176425   2.220   4.560  11.072  0.1526 -0.0278  1.2706
23765SOL    HW276426   2.077   4.512  11.068  0.2498 -0.2333  0.2224
23766SOL     OW76427  10.741   9.143   7.947 -0.6108  0.0446 -0.4902
23766SOL    HW176428  10.749   9.087   7.870 -0.2326 -1.1967  0.4290
23766SOL    HW276429  10.761   9.231   7.915 -0.1586 -0.4960 -1.7413
23767SOL     OW76430  10.839   7.016   5.539  0.0696 -0.1189  0.0522
23767SOL    HW176431  10.885   7.097   5.559  0.5650 -0.2510 -0.5618
23767SOL    HW276432  10.814   7.025   5.447  0.3214 -0.7654 -0.0757
23768SOL     OW76433   5.371   1.790   4.441  0.2970 -0.2820 -0.2180
23768SOL    HW176434   5.354   1.831   4.526  1.3806 -1.3920  0.5523
23768SOL    HW276435   5.448   1.735   4.456 -0.5449 -1.8424 -1.4799
23769SOL     OW76436   3.639   9.399   4.257  0.1548 -0.2079  0.3002
23769SOL    HW176437   3.597   9.389   4.172  0.8556 -1.3653  0.0817
23769SOL    HW276438   3.609   9.324   4.308  0.9364 -0.3477  0.5651
23770SOL     OW76439   9.930   4.617   7.338 -0.0893  0.5187 -0.0510
23770SOL    HW176440   9.889   4.644   7.256  1.0579  2.9481  0.1332
23770SOL    HW276441   9.937   4.697   7.390  0.5448 -0.7052  1.8485
23771SOL     OW76442   8.152   1.377   2.005 -0.4261 -0.3622 -0.5234
23771SOL    HW176443   8.155   1.409   2.095  1.8899 -2.0923  0.0666
23771SOL    HW276444   8.138   1.283   2.013 -0.6866 -0.4657 -1.9860
23772SOL     OW76445   0.018   6.706   8.039  0.0008  0.3752 -0.4342
23772SOL    HW176446  -0.062   6.711   8.090  0.6483  2.8574  0.4317
23772SOL    HW276447   0.055   6.620   8.060 -1.1723  0.2241  1.0979
23773SOL     OW76448   0.313   6.439   0.966  0.4099  0.5416  0.4392
23773SOL    HW176449   0.352   6.430   1.052  0.9078  1.9617  0.3721
23773SOL    HW276450   0.304   6.534   0.953 -2.2627  0.2846  0.1027
23774SOL     OW76451  10.353  10.566   4.045  0.1877 -0.0800  0.0506
23774SOL    HW176452  10.442  10.531   4.039  0.3597  0.4297 -0.5010
23774SOL    HW276453  10.296  10.489   4.051  0.7692 -0.3777  2.0096
23775SOL     OW76454   8.786  10.805   9.830  0.3613 -0.2851 -0.2364
23775SOL    HW176455   8.874  10.841   9.838 -0.8670  3.0656 -0.8213
23775SOL    HW276456   8.758  10.831   9.742 -2.1327  0.9829  0.8787
23776SOL     OW76457   4.587   0.036   4.720 -0.1088 -0.2837  0.1333
23776SOL    HW176458   4.514   0.030   4.659  0.2821 -1.0478 -0.2557
23776SOL    HW276459   4.592  -0.050   4.761  0.6278 -0.2607  0.0998
23777SOL     OW76460   6.007   8.802   2.054 -0.5308  0.2869 -0.0299
23777SOL    HW176461   5.928   8.837   2.097  1.5229  3.3822  1.4887
23777SOL    HW276462   6.046   8.744   2.120 -1.2816 -0.8489 -0.5869
23778SOL     OW76463   4.138   7.524   9.229  0.1561 -0.2283  0.3550
23778SOL    HW176464   4.181   7.584   9.168 -1.6430 -0.6546 -1.4010
23778SOL    HW276465   4.062   7.574   9.261 -0.8525 -1.2137 -0.4386
23779SOL     OW76466   2.384   2.160  10.815  0.0588 -0.0915  0.8035
23779SOL    HW176467   2.383   2.145  10.909 -0.3201 -0.8348  0.6815
23779SOL    HW276468   2.297   2.132  10.785  0.4788 -0.6805  0.1143
23780SOL     OW76469   8.282   8.497   5.398  0.1836  0.5047  0.7082
23780SOL    HW176470   8.288   8.405   5.373 -1.9642 -0.0568  2.1535
23780SOL    HW276471   8.225   8.536   5.332  0.1853  0.5526  0.7360
23781SOL     OW76472   2.383   8.269   6.680  0.0738 -0.5758 -0.2183
23781SOL    HW176473   2.346   8.262   6.592 -0.4306  0.0560 -0.0635
23781SOL    HW276474   2.475   8.291   6.667 -0.2051  0.3949 -0.5806
23782SOL     OW76475   2.989   2.436   8.501 -0.3492  0.1325  0.3907
23782SOL    HW176476   2.952   2.524   8.489 -0.1198  0.3763  1.4227
23782SOL    HW276477   3.083   2.451   8.509 -0.2061 -0.3102 -0.3639
23783SOL     OW76478   3.197  10.851   3.079  0.2033  0.1579  0.0772
23783SOL    HW176479   3.177  10.866   3.172 -1.3729 -0.8712 -0.0779
23783SOL    HW276480   3.291  10.830   3.078 -0.2013 -1.9521  1.7209
23784SOL     OW76481   0.440   8.148   7.915  0.2990 -0.5239 -0.0752
23784SOL    HW176482   0.390   8.178   7.991 -0.8337  1.1386 -1.4422
23784SOL    HW276483   0.376   8.098   7.863  0.6289 -0.2348 -0.7601
23785SOL     OW76484   8.453   5.069   2.571  0.5481 -0.3166  0.0361
23785SOL    HW176485   8.359   5.056   2.559  0.5636 -0.6263  0.2585
23785SOL    HW276486   8.460   5.139   2.635  0.4637 -2.4336  2.4158
23786SOL     OW76487   5.704   3.295   1.726  0.0852 -0.1622  0.1703
23786SOL    HW176488   5.640   3.287   1.655 -0.4689 -2.2312  0.8414
23786SOL    HW276489   5.776   3.238   1.699  0.6932  0.5084  0.3933
23787SOL     OW76490   9.169   3.529   5.392  0.1422  0.0054 -0.0207
23787SOL    HW176491   9.252   3.485   5.376  0.4614  0.0257  1.5480
23787SOL    HW276492   9.194   3.615   5.425 -0.5029 -0.4118  1.5847
23788SOL     OW76493   7.907   2.928   2.266  0.2508 -0.1031 -0.1622
23788SOL    HW176494   7.973   2.933   2.197 -0.7698  1.7188 -1.0361
23788SOL    HW276495   7.833   2.884   2.225  1.4242 -3.6001  1.2761
23789SOL     OW76496   9.806   3.066   5.928 -0.2182  0.4512 -0.2991
23789SOL    HW176497   9.898   3.090   5.927  0.0799 -0.6152  0.9186
23789SOL    HW276498   9.788   3.035   5.840  0.5371  0.8164 -0.5834
23790SOL     OW76499   6.844   3.552   2.809 -0.1186 -0.2249 -0.6455
23790SOL    HW176500   6.795   3.565   2.889 -0.5272 -1.9312 -0.6092
23790SOL    HW276501   6.782   3.574   2.739 -0.1777 -0.0365 -0.5347
23791SOL     OW76502   9.756   5.147   4.422  0.8370 -0.1164  0.0627
23791SOL    HW176503   9.829   5.199   4.389  0.5087  0.6739  0.5628
23791SOL    HW276504   9.707   5.122   4.344  1.9196 -1.0944 -0.3259
23792SOL     OW76505   1.167   7.112   0.266 -0.4719  0.4450 -0.2951
23792SOL    HW176506   1.152   7.162   0.346 -0.1035 -1.6381  1.1248
23792SOL    HW276507   1.223   7.168   0.213  0.2995  1.3708  1.4283
23793SOL     OW76508   2.317   0.626   1.011 -0.3457 -0.7086 -0.6792
23793SOL    HW176509   2.253   0.696   1.002  1.1640  0.6453 -1.1528
23793SOL    HW276510   2.287   0.575   1.086  0.6174  2.7359  2.1775
23794SOL     OW76511   8.982   5.310   5.312 -0.1257  0.3432  0.2519
23794SOL    HW176512   8.891   5.284   5.327  0.2700 -0.8548  0.6515
23794SOL    HW276513   8.976   5.379   5.245 -1.3080  0.1364  0.1203
23795SOL     OW76514   0.941   4.888   0.766  0.3692 -0.4758  0.4992
23795SOL    HW176515   0.924   4.880   0.672  0.6893  0.3381  0.3628
23795SOL    HW276516   0.916   4.803   0.803  0.9205 -1.0423 -0.4168
23796SOL     OW76517   3.171   2.018   4.805 -0.3203 -0.4139  0.5573
23796SOL    HW176518   3.146   2.101   4.764 -1.4514 -0.8303  0.3889
23796SOL    HW276519   3.095   1.993   4.858 -0.0380 -1.4057  0.5078
23797SOL     OW76520   8.445   2.417   8.134 -0.2878 -0.3339  0.0821
23797SOL    HW176521   8.491   2.390   8.054 -1.1396 -0.7909 -0.2649
23797SOL    HW276522   8.424   2.334   8.177 -0.1528 -0.0983  0.5967
23798SOL     OW76523   0.064   8.025  11.063 -0.3714  0.4169  0.1988
23798SOL    HW176524   0.141   8.049  11.011 -0.5934  2.7387  0.8922
23798SOL    HW276525   0.096   7.956  11.122  1.0804  1.0795  0.2076
23799SOL     OW76526   5.240  11.119   4.138  0.2022  0.3440 -0.6807
23799SOL    HW176527   5.201  11.192   4.091 -0.5927  0.2579 -0.1607
23799SOL    HW276528   5.238  11.046   4.076  0.6485  0.6598 -1.0677
23800SOL     OW76529   8.405   1.508   1.269 -0.2805  0.5356  0.4012
23800SOL    HW176530   8.318   1.500   1.308 -0.4765  1.4740  0.1705
23800SOL    HW276531   8.404   1.593   1.226  0.0678 -0.3158 -1.3385
23801SOL     OW76532   7.670   0.397   5.991 -0.0300 -0.0388 -0.1455
23801SOL    HW176533   7.611   0.322   5.980 -0.8236  0.4283  0.8555
23801SOL    HW276534   7.612   0.469   6.015  0.7702  0.8239 -0.7835
23802SOL     OW76535   2.110   8.944   8.748 -0.0893  0.2218 -0.2586
23802SOL    HW176536   2.034   8.919   8.802  0.3113  0.4887  0.4397
23802SOL    HW276537   2.107   8.883   8.674 -1.5375  0.8516 -0.7391
23803SOL     OW76538   0.437   5.791   1.832  0.0090  0.3509 -0.0449
23803SOL    HW176539   0.372   5.722   1.842 -0.5420  0.7163 -1.0581
23803SOL    HW276540   0.521   5.745   1.826 -0.2828 -0.1873  0.0237
23804SOL     OW76541  10.707  10.829   2.218  0.4743 -0.1879 -0.0041
23804SOL    HW176542  10.799  10.823   2.245  0.4589  0.3480  0.1711
23804SOL    HW276543  10.707  10.803   2.126  0.6224 -1.4088  0.3340
23805SOL     OW76544  10.588   3.029  10.025  0.2485 -0.5211 -0.2407
23805SOL    HW176545  10.529   3.095  10.061 -0.6693 -0.8486 -1.1250
23805SOL    HW276546  10.675   3.057  10.054  0.0675  2.0164 -1.9950
23806SOL     OW76547   7.419   7.629   6.581 -0.4136  0.4141  0.1393
23806SOL    HW176548   7.458   7.557   6.530  0.3845  0.6549  0.3968
23806SOL    HW276549   7.326   7.608   6.585 -0.3792  0.0377 -0.8505
23807SOL     OW76550   4.921   9.117   9.560 -0.2245  0.5858 -0.4087
23807SOL    HW176551   4.943   9.029   9.527 -2.8032  0.0236 -0.7372
23807SOL    HW276552   4.968   9.124   9.642 -0.0843 -1.1802 -0.3153
23808SOL     OW76553   9.303   2.009   9.206 -0.1613 -0.2062  0.1230
23808SOL    HW176554   9.335   2.090   9.166 -0.2056  0.1917  0.8887
23808SOL    HW276555   9.284   1.952   9.132 -2.7801  1.4638 -0.5663
23809SOL     OW76556   6.691   4.268   0.623  0.4492 -0.2835 -0.0716
23809SOL    HW176557   6.739   4.349   0.643 -0.4048 -0.0523  1.0950
23809SOL    HW276558   6.621   4.295   0.564  1.0919 -0.4362 -0.9081
23810SOL     OW76559   9.641   8.800   3.274  0.3054 -0.1222 -0.3636
23810SOL    HW176560   9.572   8.832   3.216 -1.3446 -1.9586  0.5239
23810SOL    HW276561   9.716   8.856   3.255 -1.3272  1.7316 -1.5584
23811SOL     OW76562   1.455   1.885   1.418  0.0335 -0.2344 -0.1822
23811SOL    HW176563   1.457   1.819   1.349  0.0394 -0.5842  0.1509
23811SOL    HW276564   1.389   1.948   1.389 -1.3199 -1.3606  0.3789
23812SOL     OW76565   7.568   5.812  10.718 -0.2358  0.0789 -0.0259
23812SOL    HW176566   7.516   5.732  10.714  1.0807 -0.8142  0.2186
23812SOL    HW276567   7.519   5.871  10.775 -1.7028 -0.1852 -1.0036
23813SOL     OW76568   4.721   6.762   3.092  0.0496 -0.1825  0.4776
23813SOL    HW176569   4.758   6.682   3.054 -2.3574  0.2313 -2.9368
23813SOL    HW276570   4.638   6.734   3.130  0.1767  0.3653  1.1861
23814SOL     OW76571   7.795   5.411   8.293  0.4551  0.2474 -0.2236
23814SOL    HW176572   7.724   5.457   8.248 -0.2858 -1.0762 -0.4453
23814SOL    HW276573   7.833   5.355   8.225 -0.2503 -1.2834  0.5952
23815SOL     OW76574   1.162   0.938   9.156 -0.0471 -0.0463  0.1345
23815SOL    HW176575   1.124   0.968   9.073  0.7226 -0.6912 -0.4486
23815SOL    HW276576   1.211   1.014   9.188  1.3459 -0.4455 -1.0156
23816SOL     OW76577   4.730   3.599   3.874  0.2111 -0.1212  0.0979
23816SOL    HW176578   4.671   3.575   3.803  1.8190  2.1756 -2.1336
23816SOL    HW276579   4.804   3.538   3.866 -0.1786 -0.6467  0.5548
23817SOL     OW76580   1.659   2.702   8.612  0.2607  0.3997 -0.8251
23817SOL    HW176581   1.606   2.669   8.685 -0.2347  2.1333 -0.3715
23817SOL    HW276582   1.740   2.651   8.616 -0.0593 -0.0252  0.4874
23818SOL     OW76583   3.729   9.415   4.601  0.1174  0.0576 -0.4035
23818SOL    HW176584   3.633   9.419   4.596  0.0389 -1.2239 -0.2013
23818SOL    HW276585   3.759   9.466   4.526 -0.7463 -0.1294 -0.8860
23819SOL     OW76586   7.422   0.701   5.552  0.3788 -0.2399 -0.1938
23819SOL    HW176587   7.499   0.647   5.572 -0.4048 -2.1751 -2.2966
23819SOL    HW276588   7.356   0.674   5.616  0.3097 -1.0400 -0.6102
23820SOL     OW76589   2.436   6.915   6.476  0.1545 -0.2637 -0.4874
23820SOL    HW176590   2.367   6.920   6.410  0.7356  1.1492 -0.9932
23820SOL    HW276591   2.388   6.905   6.559 -0.5738 -2.0290 -1.0817
23821SOL     OW76592   8.208   7.634   6.007 -0.2495 -0.4025 -0.0176
23821SOL    HW176593   8.192   7.690   6.083  0.3576 -1.5879  1.0034
23821SOL    HW276594   8.123   7.629   5.963 -0.9634 -0.8551  1.3787
23822SOL     OW76595   7.785   1.439  11.256 -0.7124 -0.4070  0.5209
23822SOL    HW176596   7.734   1.386  11.194 -0.5916  1.1142 -0.9428
23822SOL    HW276597   7.859   1.384  11.280 -0.2615 -0.6902 -1.4433
23823SOL     OW76598  10.603   1.893   1.915 -0.1051 -0.4476  0.4376
23823SOL    HW176599  10.654   1.941   1.850 -0.8537 -0.4177 -0.1299
23823SOL    HW276600  10.553   1.829   1.865 -0.9232 -0.2218  0.9448
23824SOL     OW76601   5.799  10.020   9.137  0.0918 -0.3212  0.1936
23824SOL    HW176602   5.867  10.004   9.203 -0.1150 -0.3620  0.3977
23824SOL    HW276603   5.842  10.076   9.072  0.6327 -1.2052 -0.2153
23825SOL     OW76604   3.506   8.395   2.579 -0.3932  0.0056  0.2127
23825SOL    HW176605   3.439   8.384   2.511 -0.9862 -1.0735  0.9510
23825SOL    HW276606   3.588   8.400   2.530 -0.9614  0.8017 -0.6738
23826SOL     OW76607   5.869   3.265   1.172  0.5798  0.1509  0.5231
23826SOL    HW176608   5.949   3.223   1.139  0.7124  0.7927 -0.0070
23826SOL    HW276609   5.851   3.221   1.255  1.6729  0.2204  0.8117
23827SOL     OW76610   4.283   0.417   8.374  0.4463 -0.0760  0.0237
23827SOL    HW176611   4.246   0.337   8.336  0.4942 -0.0906  0.0093
23827SOL    HW276612   4.240   0.425   8.459 -0.7703  0.7440 -0.6304
23828SOL     OW76613   8.664   2.435   9.109 -0.0778 -0.5312 -0.4030
23828SOL    HW176614   8.669   2.384   9.029 -0.1834  0.5540 -1.1048
23828SOL    HW276615   8.584   2.487   9.101  0.0363 -0.2335  0.2957
23829SOL     OW76616   9.366  10.903   0.590 -0.6033 -0.1875 -0.1192
23829SOL    HW176617   9.427  10.945   0.530 -1.3660  1.4285  0.1826
23829SOL    HW276618   9.299  10.970   0.605 -2.6904 -2.0639 -0.8112
23830SOL     OW76619  10.736   5.646   6.445 -0.2012 -0.0640 -0.0295
23830SOL    HW176620  10.800   5.585   6.406  1.9269  0.9947  1.6749
23830SOL    HW276621  10.747   5.727   6.396 -0.1239  0.1663  0.3660
23831SOL     OW76622  10.887   1.370   4.520  0.6131  0.4667  0.2560
23831SOL    HW176623  10.836   1.451   4.517  0.6783  0.4287 -3.2204
23831SOL    HW276624  10.957   1.383   4.456  3.1457 -0.7404  2.6683
23832SOL     OW76625  10.817   5.800   7.094  0.6312  0.0927  0.3508
23832SOL    HW176626  10.789   5.708   7.098 -1.0937  0.6261  1.0987
23832SOL    HW276627  10.810   5.831   7.184 -1.6615  1.7406 -0.3336
23833SOL     OW76628   9.069   3.440   4.345 -0.1571 -0.1723 -0.5643
23833SOL    HW176629   9.127   3.396   4.407 -1.4533 -0.1909  0.6601
23833SOL    HW276630   9.028   3.369   4.296 -0.3418 -0.2289 -0.3295
23834SOL     OW76631   6.577   4.202   3.569  0.0136  0.2069  0.4892
23834SOL    HW176632   6.519   4.177   3.498 -0.5667  1.1701  0.6088
23834SOL    HW276633   6.519   4.225   3.641  0.5127  1.6646  0.4451
23835SOL     OW76634   1.326   4.594   5.716 -0.1169 -0.0345  0.3569
23835SOL    HW176635   1.391   4.626   5.778 -0.5271 -0.1584  0.8557
23835SOL    HW276636   1.316   4.501   5.737 -2.0936  0.4632  1.7839
23836SOL     OW76637   6.556   6.765   4.121 -0.4560  0.1228 -0.7171
23836SOL    HW176638   6.505   6.788   4.043  1.2557 -0.0452 -1.9250
23836SOL    HW276639   6.642   6.804   4.106  0.2622 -0.9123  0.5416
23837SOL     OW76640   7.073   0.100   6.613  0.0441 -0.2243 -0.0144
23837SOL    HW176641   7.117   0.124   6.531 -1.4237  0.2825 -0.6798
23837SOL    HW276642   7.028   0.179   6.641  0.3803 -0.4537  1.1905
23838SOL     OW76643   3.868   1.843   1.773 -0.0660 -0.3026  0.2444
23838SOL    HW176644   3.872   1.749   1.761 -0.2020 -0.3386  0.4777
23838SOL    HW276645   3.952   1.875   1.739 -0.0669 -0.4939  0.0595
23839SOL     OW76646   2.089   2.878   7.895  0.2775 -0.6667  0.2223
23839SOL    HW176647   2.000   2.850   7.916  0.3522 -1.2320 -0.2081
23839SOL    HW276648   2.077   2.958   7.843 -0.0555 -1.8973 -1.6347
23840SOL     OW76649  10.262   0.726   6.183  0.4928 -0.4690  0.4527
23840SOL    HW176650  10.291   0.655   6.239  1.4662 -0.9546 -0.6348
23840SOL    HW276651  10.343   0.761   6.145 -0.1523 -0.2573 -0.7607
23841SOL     OW76652   0.377  10.939   5.503 -0.0668 -0.4520  0.0406
23841SOL    HW176653   0.463  10.964   5.468 -0.3854  0.9350  0.2255
23841SOL    HW276654   0.354  10.860   5.454  1.7357 -1.3938  0.6483
23842SOL     OW76655   2.402   9.037   2.698  0.2551  0.0705 -0.3453
23842SOL    HW176656   2.362   9.064   2.780 -0.1544  1.5754 -1.0399
23842SOL    HW276657   2.364   8.950   2.680 -0.0637 -0.0193  0.7713
23843SOL     OW76658   7.408   0.972   6.227  0.5386  0.2531  0.1529
23843SOL    HW176659   7.419   1.053   6.178 -1.2807  1.1079  1.0983
23843SOL    HW276660   7.492   0.927   6.219  1.9228  2.7041  0.4860
23844SOL     OW76661   6.547   0.412   7.409 -0.3938 -0.9714 -0.3950
23844SOL    HW176662   6.631   0.426   7.365 -0.8413  0.0735 -0.9434
23844SOL    HW276663   6.514   0.331   7.371 -0.6539 -0.2166 -1.8069
23845SOL     OW76664   0.282   4.599  10.000 -0.3373  0.4431  0.2761
23845SOL    HW176665   0.282   4.548   9.919  0.6337  1.6250 -0.4973
23845SOL    HW276666   0.210   4.563  10.052 -0.7589 -0.5462 -0.9737
23846SOL     OW76667   1.510   5.996   6.141 -0.5762  0.0835  0.4017
23846SOL    HW176668   1.495   6.017   6.049  3.7920 -0.7088 -0.5975
23846SOL    HW276669   1.532   6.080   6.181 -1.2246  0.2261  0.4672
23847SOL     OW76670   0.409   0.212   6.213 -0.2027 -0.3489 -0.5682
23847SOL    HW176671   0.317   0.224   6.192  0.0551  1.2611 -0.8582
23847SOL    HW276672   0.418   0.242   6.304 -0.1970 -1.7027 -0.1118
23848SOL     OW76673   5.433   1.936   9.319  0.0573  0.1705  0.2714
23848SOL    HW176674   5.423   1.968   9.408  1.1748  0.5717  0.2627
23848SOL    HW276675   5.519   1.894   9.318  0.4739  1.0254 -0.8599
23849SOL     OW76676  10.951   0.137   8.293  0.1837 -0.4568 -0.1336
23849SOL    HW176677  11.022   0.093   8.247 -1.2993  0.5066 -3.4953
23849SOL    HW276678  10.887   0.158   8.225 -2.1735  0.9793  2.3933
23850SOL     OW76679   3.542  10.254  10.424 -0.1619  0.1201 -0.0507
23850SOL    HW176680   3.482  10.321  10.456  1.7686  1.7443  0.1833
23850SOL    HW276681   3.562  10.201  10.501  1.6703  1.8746  0.7092
23851SOL     OW76682  10.458   7.724   5.016 -0.0055 -0.2798  0.5182
23851SOL    HW176683  10.485   7.638   5.050  2.5293  0.6227  0.9410
23851SOL    HW276684  10.507   7.733   4.934  0.4771  1.1200  0.9429
23852SOL     OW76685   9.022   1.637  10.771 -0.4271  0.1753 -0.2836
23852SOL    HW176686   8.987   1.713  10.724  0.3663  1.2033  0.7717
23852SOL    HW276687   9.057   1.673  10.852 -0.4774 -1.3919  0.4433
23853SOL     OW76688   6.549   3.235   5.883 -0.5811  0.2545 -0.5175
23853SOL    HW176689   6.625   3.291   5.868  1.4275 -2.1304  0.3169
23853SOL    HW276690   6.516   3.263   5.969  1.3269 -0.8076  0.5929
23854SOL     OW76691  10.153  10.940  10.991  0.2758  0.4185  0.1861
23854SOL    HW176692  10.161  11.025  11.034 -1.8086  1.0807 -0.6588
23854SOL    HW276693  10.076  10.901  11.033 -0.3034  0.0397 -1.2283
23855SOL     OW76694   4.307   2.892   1.933 -0.0511  0.4396 -0.2476
23855SOL    HW176695   4.229   2.907   1.988  0.0128 -0.8154  0.1861
23855SOL    HW276696   4.282   2.926   1.847 -0.6013  1.2710  0.2345
23856SOL     OW76697   1.485  10.673   6.826 -0.2319  0.1673 -0.1140
23856SOL    HW176698   1.506  10.586   6.860 -0.2677 -0.8047 -2.4741
23856SOL    HW276699   1.570  10.717   6.821 -0.4034  0.9622  2.7559
23857SOL     OW76700   7.307   5.308   8.155 -0.1145  0.3012  0.3904
23857SOL    HW176701   7.276   5.245   8.090 -1.2779  1.8989 -0.6507
23857SOL    HW276702   7.260   5.286   8.235  0.5408 -1.0282  0.4111
23858SOL     OW76703   7.599  10.144   0.270 -0.8634  0.0530 -0.0612
23858SOL    HW176704   7.574  10.225   0.227 -1.1203 -0.0934 -0.1865
23858SOL    HW276705   7.604  10.079   0.200  0.4997  0.2241 -0.1356
23859SOL     OW76706   1.440   2.204   6.523 -0.3953  0.4204 -0.4023
23859SOL    HW176707   1.383   2.136   6.486  0.0357 -0.7443  1.0520
23859SOL    HW276708   1.434   2.192   6.618  1.9847  0.5164 -0.2184
23860SOL     OW76709   1.742   2.633   6.043 -0.3308  0.3230 -0.5213
23860SOL    HW176710   1.799   2.596   6.110  0.3827 -1.0343 -1.8424
23860SOL    HW276711   1.661   2.582   6.049 -1.0630  1.5920  0.6880
23861SOL     OW76712   7.318  10.862  10.242 -0.2898 -0.1475  0.1585
23861SOL    HW176713   7.301  10.783  10.293 -1.2945 -0.6437 -0.9222
23861SOL    HW276714   7.392  10.839  10.185  0.5122  0.2464  1.0319
23862SOL     OW76715   9.327  10.703   2.423 -0.0310 -0.1126  0.3986
23862SOL    HW176716   9.370  10.736   2.502 -0.6899 -1.3319  1.2875
23862SOL    HW276717   9.333  10.776   2.361  0.6064  0.8259  1.5215
23863SOL     OW76718   9.751   5.071   5.291  0.4070  0.2773  0.3358
23863SOL    HW176719   9.677   5.039   5.238  1.2706 -0.8321 -0.2369
23863SOL    HW276720   9.732   5.163   5.306 -1.0090  0.0439  0.0401
23864SOL     OW76721  11.145   2.177   9.999 -0.3178 -0.0619  0.2891
23864SOL    HW176722  11.123   2.134   9.916 -1.6705  0.3271  0.4368
23864SOL    HW276723  11.134   2.108  10.065  1.3614 -0.5411  0.0955
23865SOL     OW76724   3.474   4.260   3.836  0.0993  0.3281 -0.9492
23865SOL    HW176725   3.523   4.342   3.844 -0.2411  0.6678 -2.1695
23865SOL    HW276726   3.463   4.248   3.741 -2.2809  0.3484 -0.7206
23866SOL     OW76727   9.682   8.063   1.428  1.2338  0.9273  0.0503
23866SOL    HW176728   9.608   8.085   1.484  1.7542  1.4507  0.5409
23866SOL    HW276729   9.682   8.131   1.360 -0.1078 -0.3767 -1.2815
23867SOL     OW76730   9.927   4.913   5.420 -0.3581 -0.2405  0.3369
23867SOL    HW176731   9.875   4.972   5.365  4.1068  2.5591 -1.0971
23867SOL    HW276732   9.964   4.850   5.358  0.0490 -0.6262  0.9706
23868SOL     OW76733   8.535   6.101   4.454  0.2071 -0.0784  0.0288
23868SOL    HW176734   8.445   6.094   4.486  0.7595 -1.6099  1.3133
23868SOL    HW276735   8.585   6.132   4.529  0.8591  0.2030 -0.5167
23869SOL     OW76736  10.850   4.042   9.672 -0.0485  0.0253  0.2073
23869SOL    HW176737  10.946   4.040   9.678 -0.0506  0.3780  0.3735
23869SOL    HW276738  10.827   3.960   9.629  0.4439  0.7060 -1.3904
23870SOL     OW76739   8.585   0.845   9.158 -0.3862 -0.1492  0.3304
23870SOL    HW176740   8.625   0.931   9.149  2.0358 -1.3853 -1.4043
23870SOL    HW276741   8.555   0.823   9.070 -1.4810 -0.8430  0.8656
23871SOL     OW76742   6.956  11.073   1.849  0.3696  0.3832 -0.0031
23871SOL    HW176743   6.895  11.078   1.775  0.1180  2.9470  0.3492
23871SOL    HW276744   7.039  11.045   1.809  0.1615  1.4540 -1.2126
23872SOL     OW76745  10.061   7.152   5.912 -0.1982  0.2260 -0.8765
23872SOL    HW176746   9.988   7.122   5.966 -0.5764  1.1339 -0.8623
23872SOL    HW276747  10.138   7.110   5.950 -0.7344 -0.8567 -0.9844
23873SOL     OW76748   2.506   1.757   9.279  0.2834  0.5138 -0.4232
23873SOL    HW176749   2.456   1.821   9.330 -0.8834 -0.2020 -0.6568
23873SOL    HW276750   2.577   1.731   9.337 -1.7787 -1.2803  1.3691
23874SOL     OW76751   0.225   6.789  10.120  0.0231 -0.0065  0.0834
23874SOL    HW176752   0.225   6.713  10.062  0.0865  0.8983 -1.1289
23874SOL    HW276753   0.134   6.800  10.147 -0.0312 -0.3421  0.0308
23875SOL     OW76754   7.311   3.792   6.049  0.2507 -0.6996 -0.0046
23875SOL    HW176755   7.220   3.780   6.019  1.1816 -1.4676 -2.6806
23875SOL    HW276756   7.340   3.703   6.071  0.8202 -0.6702 -0.6242
23876SOL     OW76757   1.154   0.614   5.414  0.1578 -0.1414  0.0849
23876SOL    HW176758   1.124   0.560   5.486  1.0795 -1.1872 -0.2979
23876SOL    HW276759   1.154   0.556   5.338  0.1500  0.6744 -0.5509
23877SOL     OW76760   0.754   2.361   4.664  0.3698 -0.2415  0.1095
23877SOL    HW176761   0.719   2.398   4.583 -0.6272 -0.2560  0.5202
23877SOL    HW276762   0.679   2.360   4.724  1.3190  0.6223  1.3353
23878SOL     OW76763   3.067   1.124   4.860  0.2371  0.3086  0.1994
23878SOL    HW176764   3.068   1.211   4.822  1.5989  0.0255 -0.4238
23878SOL    HW276765   3.120   1.070   4.801  2.1996 -0.1933  2.3222
23879SOL     OW76766  10.423  10.235   4.239 -0.3240 -0.2418 -0.2566
23879SOL    HW176767  10.362  10.249   4.312 -0.8546  1.0533 -0.9320
23879SOL    HW276768  10.418  10.141   4.221 -2.1391 -0.1424 -0.3213
23880SOL     OW76769   0.625   7.122   6.647 -0.3374 -0.0437  0.4964
23880SOL    HW176770   0.652   7.069   6.722  0.0528 -0.4120  0.0978
23880SOL    HW276771   0.661   7.076   6.571  0.1833  0.9113  0.1618
23881SOL     OW76772   3.222   6.140   3.814 -0.0302 -0.7493  0.7520
23881SOL    HW176773   3.272   6.061   3.794 -1.0733 -0.4514 -3.5326
23881SOL    HW276774   3.257   6.206   3.755 -1.7302  0.9667  1.6198
23882SOL     OW76775  10.003   0.210   1.477 -0.1474 -0.1356  0.0492
23882SOL    HW176776  10.098   0.213   1.473 -0.1542  1.1922  0.5268
23882SOL    HW276777   9.976   0.302   1.484 -1.3107 -0.6342  2.9356
23883SOL     OW76778   8.618   9.810   8.026  0.0366  0.1279 -0.3957
23883SOL    HW176779   8.586   9.749   8.093  1.0065  0.0677  0.0199
23883SOL    HW276780   8.541   9.829   7.972 -0.7979  0.3548  0.8679
23884SOL     OW76781   3.080   4.764   4.671  0.4093  0.4328 -0.3090
23884SOL    HW176782   3.154   4.793   4.723 -0.5358  2.8556 -0.2705
23884SOL    HW276783   3.013   4.741   4.736  0.2999  0.5251 -0.3884
23885SOL     OW76784   0.111   6.842   2.415  0.6636  0.0476  0.4792
23885SOL    HW176785   0.162   6.762   2.424  0.4417 -0.1809 -0.2368
23885SOL    HW276786   0.161   6.908   2.464  0.5415 -0.6546  1.5394
23886SOL     OW76787   7.309  10.830  10.865 -0.2589 -0.1863  0.1321
23886SOL    HW176788   7.301  10.828  10.961  1.0567 -0.8600  0.2395
23886SOL    HW276789   7.255  10.904  10.838  0.1925  0.6609  1.4931
23887SOL     OW76790  10.163   2.735  10.854  0.2013  0.2239  0.2119
23887SOL    HW176791  10.202   2.683  10.783 -1.3997  1.2677 -1.4855
23887SOL    HW276792  10.143   2.671  10.922  0.7343 -0.9691 -0.7203
23888SOL     OW76793   2.635   7.203   8.583  0.5592 -0.3986 -0.4529
23888SOL    HW176794   2.598   7.176   8.499 -1.4821 -0.4741  0.4310
23888SOL    HW276795   2.661   7.121   8.625  1.8856 -0.3375 -1.1245
23889SOL     OW76796   7.972   6.148   1.154 -0.5046 -0.0605 -0.5619
23889SOL    HW176797   7.909   6.109   1.214  0.0593 -1.1649 -0.6628
23889SOL    HW276798   8.013   6.218   1.205  0.7498 -1.6923  0.7461
23890SOL     OW76799  10.250  10.919   6.562 -0.1674  0.5527  0.2994
23890SOL    HW176800  10.273  10.943   6.651  2.7266  0.3361 -0.3408
23890SOL    HW276801  10.333  10.895   6.521 -1.3020  1.4513 -2.6981
23891SOL     OW76802   2.110   8.872   8.071 -0.3231  0.2607 -0.2631
23891SOL    HW176803   2.160   8.886   8.151 -0.2093  2.3946 -0.6562
23891SOL    HW276804   2.176   8.853   8.004 -0.3211 -0.3471 -0.0868
23892SOL     OW76805   5.337   4.852  10.063  0.0433 -0.1780 -0.3671
23892SOL    HW176806   5.273   4.922  10.053  0.2602  0.0653 -0.0824
23892SOL    HW276807   5.386   4.853   9.981  2.0957  2.0934  0.8022
23893SOL     OW76808   8.661  10.347   6.741  0.2869  0.0415  0.3262
23893SOL    HW176809   8.749  10.355   6.704  0.9135  0.5286  1.8725
23893SOL    HW276810   8.624  10.435   6.735  0.5714  0.2295  1.2830
23894SOL     OW76811   1.751   9.204   5.314  0.7772 -0.1985  0.7795
23894SOL    HW176812   1.739   9.200   5.219 -0.9349  1.0792  0.9161
23894SOL    HW276813   1.702   9.129   5.347 -2.6979  2.0295  0.9492
23895SOL     OW76814   9.850   9.900   5.283  0.2794 -0.1241  0.4531
23895SOL    HW176815   9.876   9.850   5.361  2.3454  1.3622  0.7472
23895SOL    HW276816   9.767   9.940   5.308 -0.1477 -1.3670  1.1058
23896SOL     OW76817   0.545   5.257   8.095 -0.2314 -0.2177 -0.2924
23896SOL    HW176818   0.556   5.352   8.103 -0.5277 -0.3083  1.3401
23896SOL    HW276819   0.452   5.242   8.109 -0.1413 -0.7683 -0.2731
23897SOL     OW76820   2.903   9.814   0.415 -0.0011  0.2017 -0.6427
23897SOL    HW176821   2.880   9.891   0.468 -0.7964 -1.0902  0.9545
23897SOL    HW276822   2.830   9.803   0.355 -0.8930 -0.5206  0.5504
23898SOL     OW76823   5.529   7.215   4.097 -0.0717  0.0132 -0.4954
23898SOL    HW176824   5.436   7.198   4.115 -0.6980 -0.3461 -3.6831
23898SOL    HW276825   5.575   7.175   4.171 -2.3417 -2.2688 -0.2124
23899SOL     OW76826   9.178   7.181  11.189 -0.5810  0.2969  0.1348
23899SOL    HW176827   9.230   7.205  11.266 -0.0024 -0.6307  0.0432
23899SOL    HW276828   9.089   7.173  11.222 -0.5811  1.3331  0.4142
23900SOL     OW76829  10.151   7.644   2.318  0.1796 -0.1615  0.0144
23900SOL    HW176830  10.104   7.589   2.381  0.0196 -0.4027 -0.3125
23900SOL    HW276831  10.195   7.581   2.261 -0.1456  0.0496 -0.4661
23901SOL     OW76832   8.092   0.321   0.929  0.6265  0.1048 -0.3997
23901SOL    HW176833   8.072   0.392   0.990 -0.9658  0.0777 -0.8651
23901SOL    HW276834   8.117   0.248   0.985  1.3721  0.7391  0.1180
23902SOL     OW76835   3.230   4.364   8.111 -0.3258  0.2770  0.5775
23902SOL    HW176836   3.299   4.430   8.114 -0.5899  0.6874 -1.4839
23902SOL    HW276837   3.262   4.299   8.047 -0.7647 -0.7866  1.4250
23903SOL     OW76838   3.951   7.389   1.909  0.0958 -0.0368 -0.2633
23903SOL    HW176839   3.953   7.401   1.814 -0.3166 -0.2404 -0.2989
23903SOL    HW276840   3.983   7.472   1.945 -2.0566  0.9325 -0.5275
23904SOL     OW76841   2.291   4.028   0.514  0.2920 -0.3118  0.0400
23904SOL    HW176842   2.321   4.118   0.523  1.2104 -0.8000  1.9593
23904SOL    HW276843   2.198   4.032   0.532  0.3602  0.2123  0.2851
23905SOL     OW76844   9.727   0.107   0.600  0.3406 -0.2961  0.2102
23905SOL    HW176845   9.735   0.192   0.557 -0.8543 -0.5859 -0.6358
23905SOL    HW276846   9.698   0.048   0.530  1.5063 -1.4796  0.6972
23906SOL     OW76847   3.635   0.263   6.457  0.4455  0.1362 -0.1170
23906SOL    HW176848   3.698   0.296   6.521 -1.4509  0.2169  1.7595
23906SOL    HW276849   3.633   0.168   6.472 -0.7504  0.2703  0.6943
23907SOL     OW76850   5.276   3.539   0.043 -0.1626 -0.6393 -0.3817
23907SOL    HW176851   5.300   3.589   0.121  2.4110 -0.3280 -1.3567
23907SOL    HW276852   5.266   3.605  -0.026 -1.4141 -1.0192 -0.5781
23908SOL     OW76853   5.424   0.729   3.188 -1.0336  0.1151 -0.2935
23908SOL    HW176854   5.458   0.698   3.104  3.1239  1.1533  0.8893
23908SOL    HW276855   5.384   0.813   3.169 -1.1885 -0.2081 -1.4261
23909SOL     OW76856   6.077   6.870   2.197 -0.4092  0.2650 -0.0817
23909SOL    HW176857   6.126   6.934   2.250  0.8151 -1.6071  1.1131
23909SOL    HW276858   6.021   6.826   2.261 -1.3955  0.2699 -0.9400
23910SOL     OW76859   7.967  11.060   6.849 -0.3859 -0.2637 -0.5982
23910SOL    HW176860   7.921  11.042   6.930  0.8852  1.2980  0.4988
23910SOL    HW276861   8.053  11.019   6.861 -0.0180  0.3994 -0.9597
23911SOL     OW76862   4.518   5.989   3.276 -0.2748  0.4307  0.1033
23911SOL    HW176863   4.569   5.918   3.315 -1.4081 -0.5066 -0.0616
23911SOL    HW276864   4.427   5.958   3.281 -0.9029  2.3281  0.9940
23912SOL     OW76865   5.292  11.261   8.601  0.2462 -0.3643  0.6883
23912SOL    HW176866   5.248  11.346   8.602  1.5871  0.3622 -0.1586
23912SOL    HW276867   5.279  11.226   8.689 -1.2527  0.2124  0.7149
23913SOL     OW76868   7.505   4.705   1.179 -0.6766  0.0834 -0.0568
23913SOL    HW176869   7.591   4.730   1.211  0.0744  1.7348 -3.1363
23913SOL    HW276870   7.443   4.752   1.235  0.4959  0.9940  0.4811
23914SOL     OW76871   2.442   3.080   6.662  0.5471  0.1785 -0.7226
23914SOL    HW176872   2.352   3.108   6.647  0.3939  0.2252  0.2719
23914SOL    HW276873   2.491   3.118   6.589 -0.1653  0.4887 -1.0479
23915SOL     OW76874   7.953   3.827  11.255 -0.8553  0.9026 -0.4321
23915SOL    HW176875   7.903   3.818  11.174 -3.7723  1.4243  1.2714
23915SOL    HW276876   7.918   3.906  11.297  1.1889  1.1069  0.9666
23916SOL     OW76877   7.625   3.007   0.340 -0.0417  0.1519 -0.1065
23916SOL    HW176878   7.716   3.029   0.319  0.5368 -2.4196 -0.4282
23916SOL    HW276879   7.629   2.974   0.430 -0.3250 -1.7006 -0.7462
23917SOL     OW76880   3.412   4.239   9.504 -0.5042 -0.4415 -0.4471
23917SOL    HW176881   3.366   4.310   9.550  1.0134  0.9825 -1.0713
23917SOL    HW276882   3.385   4.249   9.412 -0.3555 -0.7403 -0.5225
23918SOL     OW76883   8.354   0.437   2.868 -0.6293 -0.2403  1.0834
23918SOL    HW176884   8.429   0.478   2.911 -1.2152 -0.1015  1.9811
23918SOL    HW276885   8.312   0.508   2.820 -0.9471 -0.0278  1.6647
23919SOL     OW76886   3.146  10.688   0.918  0.4878 -0.1448  0.4852
23919SOL    HW176887   3.180  10.655   0.835 -0.8893  0.2803 -0.2474
23919SOL    HW276888   3.175  10.624   0.983  3.3851  0.5797  0.0218
23920SOL     OW76889   9.750   5.513  10.391  0.5400 -0.1075  0.1475
23920SOL    HW176890   9.696   5.519  10.312  0.8931 -0.2079 -0.1040
23920SOL    HW276891   9.702   5.562  10.457  0.2169 -0.0658 -0.1179
23921SOL     OW76892   4.892   9.547   0.744  0.0327  0.2887  0.3432
23921SOL    HW176893   4.831   9.578   0.677  2.1181 -2.4843 -2.9813
23921SOL    HW276894   4.963   9.611   0.743 -0.6243  1.0473  1.0124
23922SOL     OW76895   6.724   2.114   7.445  0.5854  0.0479 -0.0059
23922SOL    HW176896   6.685   2.147   7.364 -2.4946 -2.1764  0.4860
23922SOL    HW276897   6.652   2.114   7.507  2.5757  0.3291  2.3706
23923SOL     OW76898   0.108   4.898   4.460  0.2812 -0.4468  0.2778
23923SOL    HW176899   0.043   4.914   4.529 -1.7839 -1.4354 -1.3977
23923SOL    HW276900   0.130   4.805   4.469 -0.2050 -0.6476 -0.5611
23924SOL     OW76901  10.165   1.976   6.452 -0.0247 -0.4603  0.1885
23924SOL    HW176902  10.108   1.911   6.492  0.5281 -0.2456  1.3674
23924SOL    HW276903  10.220   2.007   6.525 -0.1906  1.2088 -0.3696
23925SOL     OW76904   3.479  11.258  10.790 -0.5078  0.0709  0.0922
23925SOL    HW176905   3.509  11.327  10.848 -0.2650 -0.2548  0.3578
23925SOL    HW276906   3.496  11.177  10.838 -1.0280 -0.1606 -0.1081
23926SOL     OW76907   7.671   8.864  10.934 -0.3588  1.3244 -0.0357
23926SOL    HW176908   7.643   8.793  10.991 -0.7273  1.0876 -0.5066
23926SOL    HW276909   7.591   8.894  10.891  0.1022  0.6149 -1.4235
23927SOL     OW76910   8.472   8.071   4.947 -0.1447 -0.0124 -0.1676
23927SOL    HW176911   8.484   8.059   4.853  0.2269  1.3417 -0.3130
23927SOL    HW276912   8.439   8.161   4.955 -1.6158 -0.6342  0.8915
23928SOL     OW76913   3.045  10.801   9.503  0.4434  0.2326 -0.1292
23928SOL    HW176914   3.071  10.729   9.561  0.4088 -0.8344 -1.4372
23928SOL    HW276915   3.014  10.869   9.563  1.2776 -0.5051  1.1634
23929SOL     OW76916   7.424   0.266   5.913 -0.3472  0.2442 -0.0199
23929SOL    HW176917   7.479   0.202   5.868 -0.5217 -0.8690  1.3055
23929SOL    HW276918   7.354   0.214   5.952  0.9167  0.8685  3.2368
23930SOL     OW76919   7.681   2.440   6.727  0.2652  0.8592  0.6421
23930SOL    HW176920   7.657   2.356   6.687  0.5210  0.5857  1.0682
23930SOL    HW276921   7.628   2.505   6.680  1.5877  0.7022 -1.1067
23931SOL     OW76922   4.917   4.124   0.577 -0.1015  0.2845  0.3203
23931SOL    HW176923   4.828   4.115   0.543  0.2645 -3.3251  0.0556
23931SOL    HW276924   4.970   4.068   0.520  2.0554  1.0620  1.4872
23932SOL     OW76925  10.213   2.438   6.741  0.3278  0.0719 -0.6861
23932SOL    HW176926  10.152   2.506   6.712  0.6704  0.4126 -0.6120
23932SOL    HW276927  10.214   2.375   6.669  0.3010  0.3357 -0.9207
23933SOL     OW76928   5.772   5.859   5.967  0.4885  0.1097 -0.5084
23933SOL    HW176929   5.867   5.866   5.983  0.2106  0.4172  1.1605
23933SOL    HW276930   5.733   5.913   6.036 -0.9311 -0.6636 -0.7072
23934SOL     OW76931  11.186   1.987   8.845  0.2006 -0.0443 -0.4351
23934SOL    HW176932  11.103   2.008   8.803  0.7301  0.5404 -1.2004
23934SOL    HW276933  11.253   2.021   8.785  0.9853 -0.1931  0.3401
23935SOL     OW76934   8.917   7.729   9.683  0.1496 -0.6093  0.0585
23935SOL    HW176935   8.944   7.688   9.600  1.2862  0.8396 -0.3152
23935SOL    HW276936   8.869   7.807   9.656 -0.0617 -0.4910  0.7763
23936SOL     OW76937   3.970   7.675   1.961 -0.5493 -0.0379 -0.2296
23936SOL    HW176938   4.043   7.676   2.023 -1.0074 -2.2268  0.3906
23936SOL    HW276939   4.006   7.715   1.882  0.6553  0.9185  0.7775
23937SOL     OW76940   8.034   4.955   8.714  0.0085  0.5220  0.0058
23937SOL    HW176941   8.096   4.966   8.786  0.6083 -2.2304 -0.0478
23937SOL    HW276942   7.979   4.882   8.741 -0.7685  0.4809 -1.6509
23938SOL     OW76943   8.576   5.807   1.010 -0.2290 -0.0330 -0.0098
23938SOL    HW176944   8.592   5.804   0.916  0.3416  0.5681  0.0682
23938SOL    HW276945   8.542   5.720   1.031 -0.6516 -0.0667 -0.8217
23939SOL     OW76946   8.583   1.203   5.907 -0.2486 -0.5447 -0.2602
23939SOL    HW176947   8.495   1.169   5.893  0.2996 -1.9637 -0.4140
23939SOL    HW276948   8.587   1.284   5.856 -1.2142 -0.8754 -0.8672
23940SOL     OW76949   9.917   0.217   4.592  0.3675  0.0812  0.6327
23940SOL    HW176950   9.976   0.189   4.662  1.1269 -0.2930 -0.1444
23940SOL    HW276951   9.949   0.171   4.514  0.4912  1.6864 -0.2807
23941SOL     OW76952   7.588   4.086   8.278  0.1564  0.3672  0.3391
23941SOL    HW176953   7.651   4.118   8.213 -1.1714  1.0228 -0.6516
23941SOL    HW276954   7.545   4.013   8.234  0.0428  0.0894  0.9149
23942SOL     OW76955   8.465   9.697  10.515  0.3580  0.2688 -0.1615
23942SOL    HW176956   8.523   9.768  10.487 -0.2523  0.4347 -1.0355
23942SOL    HW276957   8.489   9.623  10.460 -0.3252  0.3720 -0.6100
23943SOL     OW76958   3.785  10.267   9.206  0.3703 -0.4020  0.1755
23943SOL    HW176959   3.872  10.308   9.208  0.2818 -0.2656  1.3951
23943SOL    HW276960   3.740  10.303   9.282 -1.5231  1.1997 -1.6342
23944SOL     OW76961   2.990   4.342   6.165  0.2385  0.6111 -0.8697
23944SOL    HW176962   3.019   4.252   6.151  0.9073  0.7045 -0.1070
23944SOL    HW276963   2.909   4.349   6.115  0.2991 -0.3513 -1.1089
23945SOL     OW76964   0.966   3.644  10.670  0.6774  0.5306 -0.2709
23945SOL    HW176965   0.973   3.556  10.634  0.3491  0.5120 -0.2943
23945SOL    HW276966   0.903   3.688  10.613 -2.0333 -0.3557  1.9354
23946SOL     OW76967   8.858  11.284   6.263  0.1122 -0.3611  0.2247
23946SOL    HW176968   8.816  11.232   6.331  0.3370  0.3478  0.9168
23946SOL    HW276969   8.864  11.372   6.300  0.6650 -0.0696 -0.5281
23947SOL     OW76970   8.327   3.991   4.017 -0.0598 -0.1673  0.0506
23947SOL    HW176971   8.294   4.000   4.106 -3.0082  0.5181 -1.0756
23947SOL    HW276972   8.351   4.080   3.991 -1.6294  0.0401 -0.7303
23948SOL     OW76973  11.125   6.964   9.947 -0.6675  0.6682 -0.6208
23948SOL    HW176974  11.100   6.909   9.873  0.7332 -0.8810  0.0235
23948SOL    HW276975  11.044   7.009   9.972 -2.0373 -1.6851 -0.6766
23949SOL     OW76976   2.303   9.695   3.790  0.2321  0.2391 -0.4263
23949SOL    HW176977   2.230   9.658   3.838  0.3190  1.0855  0.3692
23949SOL    HW276978   2.357   9.737   3.857  1.9392 -1.1705 -0.8793
23950SOL     OW76979   9.102   9.847  10.853  0.3505  0.2322  0.0432
23950SOL    HW176980   9.152   9.765  10.846  1.8338  1.0218  0.9999
23950SOL    HW276981   9.145   9.895  10.924  0.8477  2.7445 -1.8627
23951SOL     OW76982   8.949   1.615   2.732  0.0401 -0.0209 -0.1856
23951SOL    HW176983   8.913   1.553   2.668  1.4183 -2.2444  1.1090
23951SOL    HW276984   8.976   1.690   2.680 -0.9503 -0.8279 -1.9186
23952SOL     OW76985   0.679   4.448   3.699 -0.0538 -0.2850 -0.0466
23952SOL    HW176986   0.728   4.528   3.720 -0.5773  0.2498 -0.8290
23952SOL    HW276987   0.700   4.388   3.770  2.5807 -0.4248 -0.8974
23953SOL     OW76988   5.715   2.126   4.124  0.0024 -0.0514 -0.4450
23953SOL    HW176989   5.679   2.199   4.074  1.3571  0.1566 -1.1256
23953SOL    HW276990   5.644   2.100   4.183 -0.0572  2.6676  0.7544
23954SOL     OW76991   6.917   7.873   4.038  0.4980 -0.0388  0.2266
23954SOL    HW176992   6.969   7.808   3.991  0.2546  1.1970 -1.7928
23954SOL    HW276993   6.962   7.883   4.122  2.8325  0.0969 -0.9970
23955SOL     OW76994   1.029   0.455   5.579  0.0237 -0.2711 -0.5137
23955SOL    HW176995   0.944   0.435   5.618 -0.9169 -1.2853 -2.9487
23955SOL    HW276996   1.083   0.379   5.598  1.1171  1.2746  2.8814
23956SOL     OW76997  10.501   8.275   7.898  0.3331 -0.1511  0.2946
23956SOL    HW176998  10.585   8.260   7.855 -0.6882 -1.2237 -1.3828
23956SOL    HW276999  10.488   8.370   7.893  0.6288 -0.1746 -1.0158
23957SOL     OW77000   7.648   0.719   9.900  0.1010  0.0078  0.1125
23957SOL    HW177001   7.611   0.675   9.976 -1.7561  0.5472 -0.4386
23957SOL    HW277002   7.671   0.807   9.932 -0.4417  0.1496  0.1234
23958SOL     OW77003   4.067   8.308   9.771 -0.1510  0.0031 -0.2054
23958SOL    HW177004   4.043   8.390   9.814 -1.4320 -0.0935 -0.7341
23958SOL    HW277005   3.988   8.281   9.724  0.8228 -0.5889 -1.5237
23959SOL     OW77006   3.696   7.074   0.677  0.0085 -0.1491 -0.6589
23959SOL    HW177007   3.636   7.110   0.612 -1.9286 -2.8120 -0.4461
23959SOL    HW277008   3.756   7.019   0.626 -0.9900 -1.5735 -0.3264
23960SOL     OW77009   5.996   9.970   9.390 -0.5107 -0.1076 -0.0439
23960SOL    HW177010   6.059  10.011   9.332 -1.6775 -0.1011 -1.3314
23960SOL    HW277011   5.950  10.044   9.431 -1.0404 -0.1167 -0.6184
23961SOL     OW77012   2.491   4.931   7.509 -0.0397 -0.2521  0.1803
23961SOL    HW177013   2.404   4.947   7.544 -1.0174 -2.0112 -1.3463
23961SOL    HW277014   2.537   4.883   7.578 -0.6982 -0.3739  0.5323
23962SOL     OW77015   2.597   2.272   2.289 -0.3330 -0.2589  0.6474
23962SOL    HW177016   2.594   2.252   2.383 -0.2634 -0.6238  0.5727
23962SOL    HW277017   2.506   2.290   2.265 -0.5764 -1.6658  0.4646
23963SOL     OW77018   6.568   3.682   5.546  0.2134  0.3013  0.5559
23963SOL    HW177019   6.645   3.669   5.601 -0.3495  0.5527  1.3992
23963SOL    HW277020   6.588   3.634   5.466  0.6503 -0.8154  1.3302
23964SOL     OW77021   2.354   4.894   5.650 -0.4749 -0.4451 -0.1988
23964SOL    HW177022   2.296   4.901   5.574  0.0525  0.6724 -0.4981
23964SOL    HW277023   2.317   4.822   5.701 -1.3235 -0.6503 -1.0832
23965SOL     OW77024   4.219   5.450   8.841  0.1734 -0.3086  0.4283
23965SOL    HW177025   4.136   5.486   8.875  0.8348  0.2861  1.4430
23965SOL    HW277026   4.195   5.363   8.807 -1.6458  1.4171 -2.9855
23966SOL     OW77027   2.413   7.693   3.165 -0.0830  0.3926 -0.0101
23966SOL    HW177028   2.417   7.778   3.210  0.7920  0.7350 -0.7278
23966SOL    HW277029   2.464   7.634   3.221 -1.7398  0.0181  1.1505
23967SOL     OW77030   2.308   5.991   4.565 -0.0479  0.6119  0.2981
23967SOL    HW177031   2.319   6.039   4.648 -2.3717  1.8618 -0.0652
23967SOL    HW277032   2.288   6.059   4.501 -0.2189 -0.5568 -0.9109
23968SOL     OW77033  10.860  11.121   3.090 -0.7553  0.0792 -0.3769
23968SOL    HW177034  10.774  11.080   3.104  0.4284 -1.7004  1.9700
23968SOL    HW277035  10.920  11.047   3.077  1.0593  1.1204  1.7926
23969SOL     OW77036   6.494   2.826   7.388 -0.1233 -0.8112 -0.5935
23969SOL    HW177037   6.449   2.746   7.358 -0.3649 -0.1772 -1.9485
23969SOL    HW277038   6.445   2.853   7.465 -1.5257 -0.6401 -1.5235
23970SOL     OW77039   8.621   4.929   1.408  0.2337 -0.4229 -0.3810
23970SOL    HW177040   8.541   4.968   1.374 -1.1444 -0.0666  3.0077
23970SOL    HW277041   8.642   4.858   1.347 -1.4818  0.8193 -2.4407
23971SOL     OW77042  11.175  10.249   6.011  0.5564 -0.9460  0.4493
23971SOL    HW177043  11.187  10.156   5.995  1.1956 -0.7806 -0.0832
23971SOL    HW277044  11.229  10.267   6.088 -0.6770 -1.2856  1.4092
23972SOL     OW77045   2.126   4.460   3.092  0.0183  0.3779 -0.0128
23972SOL    HW177046   2.090   4.379   3.130  1.1314 -0.3647 -0.5070
23972SOL    HW277047   2.213   4.468   3.131  0.0050  1.2014 -0.1576
23973SOL     OW77048   2.779  10.125  11.261  0.1338 -0.6299 -0.3723
23973SOL    HW177049   2.712  10.164  11.204  0.3773  1.6737  0.8517
23973SOL    HW277050   2.828  10.200  11.295 -0.0381 -1.9144  2.9056
23974SOL     OW77051   9.078   2.693   7.579 -0.1325  0.0833 -0.1812
23974SOL    HW177052   9.144   2.646   7.529 -0.0035 -2.7653  2.5184
23974SOL    HW277053   9.119   2.777   7.600  0.6545  0.3937 -2.7861
23975SOL     OW77054   4.158  11.138   7.871 -0.5174 -0.1295 -0.1629
23975SOL    HW177055   4.177  11.049   7.901 -0.7561  0.2208  1.0585
23975SOL    HW277056   4.233  11.161   7.816  0.6995 -0.2254  1.4172
23976SOL     OW77057   6.870   9.597   7.723  0.2490 -0.6107  0.4099
23976SOL    HW177058   6.881   9.502   7.714  1.1246 -0.4649 -0.0362
23976SOL    HW277059   6.941   9.635   7.672 -0.1732  0.2949  0.4802
23977SOL     OW77060  10.932  10.652  10.086 -0.3964 -0.0397  0.1587
23977SOL    HW177061  11.000  10.710  10.051 -1.2399  0.5865 -0.4702
23977SOL    HW277062  10.967  10.621  10.169  0.2174  1.1313  0.3456
23978SOL     OW77063   4.280   9.497  10.991 -0.8381  0.7703  0.0343
23978SOL    HW177064   4.314   9.511  10.902  0.8814  0.7304  0.6685
23978SOL    HW277065   4.196   9.543  10.992  0.1716  2.7084 -0.9328
23979SOL     OW77066   3.612   2.794   3.903 -0.4092 -0.5115  0.0297
23979SOL    HW177067   3.575   2.717   3.860 -0.5992  0.6770 -1.9998
23979SOL    HW277068   3.566   2.868   3.862  1.4284  0.7870  0.2905
23980SOL     OW77069   6.644   9.711   7.591  0.3404  0.0459 -0.5368
23980SOL    HW177070   6.580   9.646   7.620 -0.2170  0.6213 -0.4555
23980SOL    HW277071   6.723   9.692   7.642  0.9575 -2.0543 -2.1791
23981SOL     OW77072   1.098   0.410   5.230  0.0637 -0.1993 -0.1317
23981SOL    HW177073   1.110   0.365   5.147 -0.2833  0.2035 -0.4048
23981SOL    HW277074   1.062   0.344   5.289 -0.5834 -0.2486 -0.5693
23982SOL     OW77075   2.769   6.274   1.833  0.6611  0.2818  0.1893
23982SOL    HW177076   2.757   6.213   1.905  1.7842 -0.3164 -0.1174
23982SOL    HW277077   2.741   6.226   1.755 -0.2010  0.7995  0.1761
23983SOL     OW77078   6.322   1.415   6.060  0.0966  0.2312  0.0012
23983SOL    HW177079   6.310   1.445   5.970  0.8503  1.2846  0.2490
23983SOL    HW277080   6.333   1.495   6.111  1.7416 -0.4315  0.7276
23984SOL     OW77081   8.052   4.559   7.729  0.2067  0.1076  0.2008
23984SOL    HW177082   8.021   4.647   7.754  0.2707 -0.3577  2.0034
23984SOL    HW277083   8.118   4.538   7.794 -0.0923 -1.4449  0.0149
23985SOL     OW77084   2.011  10.074   8.702  0.5293 -0.2748 -0.0804
23985SOL    HW177085   2.018  10.136   8.775 -0.1034  0.9452 -1.0283
23985SOL    HW277086   1.917  10.066   8.687  0.6433 -0.7939 -0.5267
23986SOL     OW77087   7.681   1.407   7.416 -0.1022  0.1529  0.0226
23986SOL    HW177088   7.734   1.339   7.457  0.7027  1.2827  0.8772
23986SOL    HW277089   7.615   1.430   7.482  0.0401  0.6614 -0.0083
23987SOL     OW77090   2.554   5.522   1.072 -0.5162  0.3630  0.2407
23987SOL    HW177091   2.632   5.530   1.127 -0.4021  1.5517 -0.0843
23987SOL    HW277092   2.508   5.605   1.084 -0.3105  0.7896 -1.7367
23988SOL     OW77093   4.476   7.188   5.768  0.4765 -0.0800  0.4931
23988SOL    HW177094   4.564   7.168   5.801  0.9188  2.0355  0.7085
23988SOL    HW277095   4.464   7.281   5.789 -0.3705  0.5872 -2.7706
23989SOL     OW77096   7.687   0.912   9.317  0.1242 -0.2845  0.2659
23989SOL    HW177097   7.677   0.969   9.241 -1.5764 -0.0009  0.6706
23989SOL    HW277098   7.752   0.954   9.372  0.0602  0.4189 -0.1996
23990SOL     OW77099   3.022   3.054   6.169 -0.0066 -0.1969 -0.3977
23990SOL    HW177100   2.964   3.020   6.237  1.0073 -1.3649 -0.0919
23990SOL    HW277101   2.997   3.006   6.090 -0.2734  0.1874 -0.5504
23991SOL     OW77102   3.376   5.101   4.683 -0.5281 -0.6508 -0.3628
23991SOL    HW177103   3.281   5.112   4.682 -0.4764 -0.2743 -1.2983
23991SOL    HW277104   3.389   5.014   4.720 -1.2926 -1.2488 -1.4706
23992SOL     OW77105   5.248  11.036   5.650  0.0474 -0.4569 -0.2647
23992SOL    HW177106   5.313  10.974   5.683  0.2882  0.4459  1.0109
23992SOL    HW277107   5.174  10.982   5.624  0.6149 -1.3559 -0.0308
23993SOL     OW77108   3.055   4.108  11.292  0.1829  0.0373 -0.1058
23993SOL    HW177109   2.971   4.152  11.277  1.4101  2.3898 -0.2411
23993SOL    HW277110   3.089   4.149  11.371  0.8517 -1.4903  0.4173
23994SOL     OW77111  10.289   1.881   5.638 -0.5480  0.0317 -0.1222
23994SOL    HW177112  10.285   1.965   5.684  0.7688  0.3875 -0.6356
23994SOL    HW277113  10.258   1.817   5.702  1.3142  0.5037  1.3124
23995SOL     OW77114   4.323   4.008   8.066 -0.7344 -0.0771  0.9914
23995SOL    HW177115   4.252   4.068   8.089  1.3569  2.3081  1.4571
23995SOL    HW277116   4.340   3.958   8.146 -1.7555 -0.5716  0.9152
23996SOL     OW77117  10.779   5.774  10.640 -0.0963  0.4707 -0.8321
23996SOL    HW177118  10.798   5.738  10.726  0.3572 -0.3458 -1.2675
23996SOL    HW277119  10.798   5.868  10.648 -0.4072  0.4597  0.0513
23997SOL     OW77120   5.169   9.755   8.589 -0.6721  0.1953  0.6150
23997SOL    HW177121   5.222   9.794   8.519  0.3761  0.9707  1.8248
23997SOL    HW277122   5.141   9.829   8.642 -5.1365  0.1136 -1.3884
23998SOL     OW77123   8.797   7.233   1.744  0.3478 -0.1286  0.1896
23998SOL    HW177124   8.843   7.235   1.828  0.3169 -0.1773  0.2077
23998SOL    HW277125   8.833   7.307   1.695 -0.9637  1.0462  0.9474
23999SOL     OW77126   9.967  10.864   3.501 -0.0819 -0.5518  0.3639
23999SOL    HW177127  10.001  10.950   3.527  0.9787 -0.5501 -0.9523
23999SOL    HW277128   9.873  10.877   3.490 -0.0936  0.1556  1.3116
24000SOL     OW77129   4.368   8.190   8.711  0.2378 -0.4045  0.6171
24000SOL    HW177130   4.282   8.177   8.750 -0.5742  0.3229 -0.8696
24000SOL    HW277131   4.418   8.112   8.734 -1.2627 -1.4572  0.3568
24001SOL     OW77132   2.132   5.463   5.751  0.4903  0.7911 -0.7926
24001SOL    HW177133   2.068   5.478   5.820  2.1965  2.8330  0.3875
24001SOL    HW277134   2.084   5.482   5.670 -1.6553 -2.1096 -0.2818
24002SOL     OW77135  10.366   6.577   7.518 -0.0734 -0.2559 -0.0481
24002SOL    HW177136  10.400   6.628   7.444  1.0334 -1.0721 -0.1180
24002SOL    HW277137  10.444   6.547   7.564 -0.7668  1.0693  2.0574
24003SOL     OW77138  11.064   5.240   9.505 -0.0174 -0.5550 -0.3638
24003SOL    HW177139  10.971   5.230   9.523 -0.0325 -1.2792 -0.8287
24003SOL    HW277140  11.091   5.315   9.559 -0.0937 -2.5222  2.5565
24004SOL     OW77141   8.015   7.706   3.689  0.0894  0.5350 -0.5490
24004SOL    HW177142   7.962   7.697   3.610 -2.6952  0.7428  1.2251
24004SOL    HW277143   7.978   7.781   3.735  0.4905 -0.6682  1.8327
24005SOL     OW77144   5.634   4.903   0.271 -0.1596 -0.1794 -0.0446
24005SOL    HW177145   5.671   4.827   0.315 -0.7971  0.0801  0.9703
24005SOL    HW277146   5.617   4.874   0.182 -0.0520 -1.1129  0.2348
24006SOL     OW77147   6.795   3.236   1.374 -0.3927 -0.3600 -0.6157
24006SOL    HW177148   6.766   3.284   1.296  1.8333  0.3674 -1.0579
24006SOL    HW277149   6.825   3.151   1.340 -0.1194 -0.3281 -0.4599
24007SOL     OW77150   5.448   1.716   3.180 -0.2407 -0.0557 -0.1510
24007SOL    HW177151   5.416   1.806   3.182 -0.5112 -0.1282 -0.9612
24007SOL    HW277152   5.459   1.692   3.272  1.2652  1.3051  0.0356
24008SOL     OW77153   0.743   4.906   4.256 -0.3439 -0.0237  0.0447
24008SOL    HW177154   0.710   4.962   4.186 -2.8380 -0.6395  0.6783
24008SOL    HW277155   0.748   4.819   4.216 -1.4102 -0.3019  0.4804
24009SOL     OW77156   4.519   6.074   1.710  0.6418  0.1876 -0.5304
24009SOL    HW177157   4.425   6.091   1.709  0.4332 -0.4808  2.3904
24009SOL    HW277158   4.528   5.990   1.755  2.7078  1.1746  1.0071
24010SOL     OW77159   2.578   8.627   2.831 -0.4471  0.0111  0.0114
24010SOL    HW177160   2.532   8.623   2.915 -0.6402  2.1059  0.0365
24010SOL    HW277161   2.667   8.599   2.851 -0.9681 -1.3309  0.5284
24011SOL     OW77162   4.863   4.056   6.651 -0.3409 -0.1203 -0.1994
24011SOL    HW177163   4.811   4.047   6.571 -0.5567 -0.6271 -0.0030
24011SOL    HW277164   4.889   4.148   6.652 -0.5873 -0.0424 -0.6994
24012SOL     OW77165   8.561   2.986   9.820  0.3589 -0.2489 -0.3466
24012SOL    HW177166   8.549   3.068   9.868 -0.4373  0.2145 -1.3137
24012SOL    HW277167   8.614   2.931   9.879 -0.6155  0.2879  1.0625
24013SOL     OW77168   4.480   5.069   0.943 -0.1809 -0.2810 -0.5498
24013SOL    HW177169   4.475   5.093   0.850 -1.4198 -0.6882 -0.5960
24013SOL    HW277170   4.566   5.029   0.953  0.4740  0.9408 -1.2442
24014SOL     OW77171   3.515   0.366   0.938  0.0256 -0.1565  0.3193
24014SOL    HW177172   3.526   0.318   1.020 -0.0400 -1.4578 -0.4263
24014SOL    HW277173   3.559   0.450   0.953  0.6703 -0.6869  1.4257
24015SOL     OW77174  10.801   4.096   6.316 -0.2192  0.2445 -0.0877
24015SOL    HW177175  10.764   4.181   6.338 -0.7836  0.3950 -1.5662
24015SOL    HW277176  10.882   4.116   6.268 -0.4257 -0.0415 -0.5662
24016SOL     OW77177   6.065   8.425   2.990 -0.0626 -0.8961  0.1050
24016SOL    HW177178   6.123   8.501   2.979 -1.3101 -0.0345 -0.6553
24016SOL    HW277179   6.024   8.438   3.075 -1.0517 -0.1749 -0.4784
24017SOL     OW77180  10.840   4.527   7.733 -0.6724  0.1592 -0.2688
24017SOL    HW177181  10.773   4.561   7.792 -2.4937 -2.9849 -0.4307
24017SOL    HW277182  10.894   4.469   7.787 -0.3353 -0.1819 -0.9530
24018SOL     OW77183   2.686   5.567   5.511  0.2479  0.5009  0.1310
24018SOL    HW177184   2.662   5.659   5.503  0.7486  0.7448  1.3428
24018SOL    HW277185   2.731   5.561   5.595  0.2806 -0.8389  0.0293
24019SOL     OW77186   9.052   4.068   9.048  0.4211  0.1097  0.1896
24019SOL    HW177187   8.979   4.010   9.072  0.1083 -0.1139 -1.2223
24019SOL    HW277188   9.088   4.028   8.968  1.9146  0.3832  0.7178
24020SOL     OW77189   4.910   2.390   5.905  0.4286 -0.1752 -0.3870
24020SOL    HW177190   4.963   2.317   5.938 -0.5093 -1.5275 -1.7651
24020SOL    HW277191   4.961   2.468   5.925  1.6583 -1.2387  0.7495
24021SOL     OW77192   7.504   7.374   5.641  0.3715 -0.0945 -0.0180
24021SOL    HW177193   7.440   7.444   5.625 -0.8230 -1.5564 -1.8221
24021SOL    HW277194   7.578   7.419   5.681 -1.2599  1.8500  0.9516
24022SOL     OW77195   4.842  11.259   5.793 -0.3492  0.8179 -0.1280
24022SOL    HW177196   4.782  11.216   5.733  0.2685 -0.9470  0.5033
24022SOL    HW277197   4.898  11.313   5.737 -0.9876  0.6467 -0.9355
24023SOL     OW77198   4.648   2.365   3.656 -0.2023  0.3773 -0.4728
24023SOL    HW177199   4.609   2.297   3.711 -0.9478 -0.0607 -1.5319
24023SOL    HW277200   4.658   2.440   3.715 -0.2212 -0.3563  0.4686
24024SOL     OW77201   0.386   9.863  10.075 -0.6746  0.0397 -0.3584
24024SOL    HW177202   0.371   9.869   9.981  0.6281 -0.3209 -0.5950
24024SOL    HW277203   0.299   9.873  10.114 -1.4999 -1.8392 -1.6707
24025SOL     OW77204   2.066   6.715   9.934 -0.2012 -0.3974  0.4279
24025SOL    HW177205   2.147   6.758   9.906 -0.7110  0.6988  0.6122
24025SOL    HW277206   2.094   6.629   9.964  0.4226 -1.5582 -3.2228
24026SOL     OW77207   9.313   7.433   7.562  0.2477 -0.2008  0.1048
24026SOL    HW177208   9.236   7.430   7.619  0.4948 -2.0377  0.3811
24026SOL    HW277209   9.330   7.526   7.549  0.0935  0.2425  2.9091
24027SOL     OW77210  10.509   0.660   4.418  0.2553  0.2526  0.4783
24027SOL    HW177211  10.428   0.640   4.464  1.1277  0.2831  2.0744
24027SOL    HW277212  10.504   0.754   4.401  0.2400  0.3829  1.1713
24028SOL     OW77213   2.267   0.548   9.478 -0.0414 -0.2550 -0.0816
24028SOL    HW177214   2.297   0.581   9.393 -1.0408 -1.2343 -0.8297
24028SOL    HW277215   2.211   0.617   9.512  0.2489  0.0793 -0.2761
24029SOL     OW77216   9.891   6.112   4.022 -0.3353 -0.6346 -0.8485
24029SOL    HW177217   9.809   6.085   4.063 -0.0286  0.8786  0.8257
24029SOL    HW277218   9.876   6.100   3.928 -2.7562  0.3109 -0.6228
24030SOL     OW77219   8.816  10.169   8.830  0.1862  0.4534  0.4482
24030SOL    HW177220   8.870  10.195   8.904  0.8527  0.2894  0.0244
24030SOL    HW277221   8.728  10.159   8.866  0.2212  1.8026  0.9117
24031SOL     OW77222   9.449   9.408   4.879 -0.1447  0.4659 -0.2428
24031SOL    HW177223   9.507   9.483   4.866  2.5701 -1.4852  0.2048
24031SOL    HW277224   9.492   9.356   4.947 -1.6206 -1.8265 -1.0110
24032SOL     OW77225   7.969   6.155  10.988  0.0188 -0.0160 -0.0059
24032SOL    HW177226   8.063   6.155  10.970  0.1392  0.3473  0.6282
24032SOL    HW277227   7.935   6.230  10.939  0.1145  0.0744  0.0670
24033SOL     OW77228   7.410   1.955   6.685  0.5502 -0.4333  0.8724
24033SOL    HW177229   7.402   2.000   6.769 -0.3228  0.3864  0.3570
24033SOL    HW277230   7.320   1.931   6.662  0.3193  2.6904 -1.6312
24034SOL     OW77231  10.569   0.285   0.725 -0.3466 -0.5073  0.5296
24034SOL    HW177232  10.483   0.327   0.721 -0.2210 -0.3785 -1.5777
24034SOL    HW277233  10.558   0.210   0.782 -2.0482 -0.8836 -0.2795
24035SOL     OW77234   7.335   0.533   9.567  0.0042 -0.0189  0.3646
24035SOL    HW177235   7.392   0.587   9.512 -0.2522 -0.0464  0.0722
24035SOL    HW277236   7.385   0.521   9.648  0.3257  0.1337  0.1907
24036SOL     OW77237   1.532   4.945   2.087 -0.3987 -0.6190  0.1218
24036SOL    HW177238   1.509   4.852   2.098 -0.1503 -0.7889 -0.7834
24036SOL    HW277239   1.489   4.971   2.006  1.8464 -0.7043 -1.1281
24037SOL     OW77240   9.020   4.442   5.277 -0.1992  0.2906 -0.8610
24037SOL    HW177241   8.994   4.405   5.361  0.3011 -0.2090 -0.9227
24037SOL    HW277242   8.976   4.527   5.274 -0.8877 -0.0418 -0.4651
24038SOL     OW77243  10.440   6.143   0.760  0.9005 -0.3437  0.3831
24038SOL    HW177244  10.499   6.158   0.834  1.4301 -0.8853  0.0754
24038SOL    HW277245  10.461   6.213   0.698 -0.5349  0.9786  1.3350
24039SOL     OW77246   1.239   8.994   3.409  0.2856 -0.4021  0.2902
24039SOL    HW177247   1.293   8.918   3.431 -0.4302 -0.5963  1.4057
24039SOL    HW277248   1.233   8.993   3.314 -0.4078 -2.2210  0.3373
24040SOL     OW77249   0.545   8.953   7.458 -0.1511 -0.1567 -0.1612
24040SOL    HW177250   0.583   8.879   7.505 -0.4699 -0.8585 -0.9926
24040SOL    HW277251   0.479   8.989   7.518  2.0102  1.2661  1.4280
24041SOL     OW77252   0.751   6.960   1.145  0.2644 -0.0253 -0.1626
24041SOL    HW177253   0.734   6.912   1.226 -2.1376 -0.1551 -0.7120
24041SOL    HW277254   0.719   7.048   1.161  0.1628  0.0654 -0.8350
24042SOL     OW77255   0.886   6.308   1.115  0.1272 -0.5402  0.4502
24042SOL    HW177256   0.952   6.243   1.093  1.9981  1.6754 -0.8052
24042SOL    HW277257   0.825   6.308   1.041  0.0379 -0.9653  0.5249
24043SOL     OW77258   0.661   0.883   4.114  0.2742  0.3391  0.5948
24043SOL    HW177259   0.630   0.918   4.198 -1.5963 -0.1310  0.1284
24043SOL    HW277260   0.585   0.889   4.056  1.0069 -1.0472 -0.5472
24044SOL     OW77261  10.613   5.495   3.014 -0.4265  0.3173  0.4793
24044SOL    HW177262  10.634   5.413   2.969  0.3255 -0.0390  1.4498
24044SOL    HW277263  10.676   5.558   2.979 -0.5389  0.3066  0.2554
24045SOL     OW77264   5.310   1.461   3.670 -0.5482  0.0431  0.0482
24045SOL    HW177265   5.277   1.387   3.719 -1.2058  0.7007  0.6078
24045SOL    HW277266   5.233   1.504   3.635 -0.2330  0.9591  0.4544
24046SOL     OW77267   0.818   7.911   6.466  0.2151 -0.1086  0.1185
24046SOL    HW177268   0.874   7.981   6.432  1.1179 -0.9416 -0.1087
24046SOL    HW277269   0.731   7.951   6.471  0.3139  0.4281 -1.9149
24047SOL     OW77270   1.375   3.708   4.732  0.4909 -0.5166  0.1744
24047SOL    HW177271   1.422   3.670   4.806 -1.3798 -0.8541  1.2187
24047SOL    HW277272   1.374   3.802   4.749  0.2399 -0.5738  0.4845
24048SOL     OW77273  10.945  10.660   5.881 -0.1214 -0.6054 -0.4664
24048SOL    HW177274  10.870  10.703   5.841  0.5920  2.6913  1.5660
24048SOL    HW277275  10.907  10.599   5.945 -1.0877  1.1816  0.6839
24049SOL     OW77276   2.021   4.839   1.968 -0.1238  0.3767  0.4112
24049SOL    HW177277   2.024   4.760   2.021  2.8263  0.6924  0.7713
24049SOL    HW277278   2.075   4.819   1.891 -0.6772  1.4924 -0.2830
24050SOL     OW77279   7.951   5.063   4.496 -0.4715 -0.0309 -0.0960
24050SOL    HW177280   7.902   5.116   4.559  2.9042  2.1784  0.8041
24050SOL    HW277281   7.940   4.973   4.527 -1.6258  0.6944  1.7058
24051SOL     OW77282  11.047  11.256   3.741 -0.0890 -0.2249 -0.6274
24051SOL    HW177283  11.034  11.205   3.821 -1.4056  2.0287  0.6406
24051SOL    HW277284  10.994  11.211   3.676 -1.9363 -0.0110  0.6939
24052SOL     OW77285   6.001   0.033   5.322 -0.3362  0.5040  0.2066
24052SOL    HW177286   6.014   0.062   5.232 -2.8351  0.5785 -0.1450
24052SOL    HW277287   6.026  -0.060   5.320 -0.1294  0.5677 -0.4885
24053SOL     OW77288   9.328  10.962   2.805  0.0352  0.1427 -0.4592
24053SOL    HW177289   9.287  10.916   2.731  0.4704  0.8829 -1.1708
24053SOL    HW277290   9.406  11.003   2.768  0.1156  0.7427  0.3495
24054SOL     OW77291   6.473   9.040   5.336  0.3714  0.0689  0.1922
24054SOL    HW177292   6.405   9.089   5.383  1.2822  1.8771 -0.3227
24054SOL    HW277293   6.546   9.033   5.397  0.3625 -0.3656  0.1540
24055SOL     OW77294   1.486   7.539   7.421  0.5893 -0.0246  0.8670
24055SOL    HW177295   1.480   7.635   7.419  0.0604 -0.0638 -1.7382
24055SOL    HW277296   1.526   7.519   7.505 -1.6256  2.3443  2.5699
24056SOL     OW77297   7.695  11.314   9.510  0.6810  0.9173  0.2757
24056SOL    HW177298   7.773  11.260   9.523  1.1166  1.6035  0.5422
24056SOL    HW277299   7.635  11.287   9.580 -0.8961 -2.3747 -2.1944
24057SOL     OW77300  10.125   2.120   4.140 -0.1540 -0.1163 -0.3715
24057SOL    HW177301  10.082   2.098   4.223  1.2171 -1.0358  0.1120
24057SOL    HW277302  10.174   2.041   4.117  0.7436  0.6812 -1.2527
24058SOL     OW77303   5.215   7.583   3.528 -0.2385 -0.2028  0.0847
24058SOL    HW177304   5.223   7.492   3.556  1.4900  0.6723  2.6798
24058SOL    HW277305   5.297   7.602   3.483 -0.3677  0.2280  0.0239
24059SOL     OW77306   9.672   3.374   1.643  0.1037  0.4145 -0.0810
24059SOL    HW177307   9.695   3.441   1.578 -1.0995  2.2577  1.3139
24059SOL    HW277308   9.577   3.383   1.653  0.0205 -1.0955  0.5920
24060SOL     OW77309   2.358   9.322   0.363  0.2242  0.4047  0.1118
24060SOL    HW177310   2.453   9.313   0.362  0.3274  1.4746  0.3958
24060SOL    HW277311   2.342   9.413   0.387 -0.8335  0.7332 -1.6771
24061SOL     OW77312   6.048   3.196   2.891  0.1650 -0.2394  0.5374
24061SOL    HW177313   6.071   3.193   2.984 -0.9129 -1.8161  0.7846
24061SOL    HW277314   5.957   3.166   2.888 -0.5027  1.8316 -0.8278
24062SOL     OW77315   3.539   5.119   5.499  0.1329 -0.2666 -0.3028
24062SOL    HW177316   3.599   5.129   5.424  2.2562  0.8682  1.4870
24062SOL    HW277317   3.456   5.154   5.467  0.4219 -1.7254 -2.8070
24063SOL     OW77318   2.657   1.393   3.290 -0.0456 -0.0881  0.3347
24063SOL    HW177319   2.602   1.418   3.216 -0.5713  0.4999  0.9162
24063SOL    HW277320   2.643   1.299   3.301  0.8174 -0.3846 -0.9480
24064SOL     OW77321  10.432   3.598   9.156  0.2230  0.1528  0.0998
24064SOL    HW177322  10.471   3.511   9.168 -0.2668 -0.1789 -0.7074
24064SOL    HW277323  10.429   3.610   9.061 -1.2115  0.3787  0.1668
24065SOL     OW77324   6.834   1.202   6.070 -0.1798  0.7478  0.0908
24065SOL    HW177325   6.799   1.143   6.137  1.2573 -0.5916 -0.3365
24065SOL    HW277326   6.789   1.285   6.087 -0.1887  0.3118  2.4302
24066SOL     OW77327   6.372  11.152   0.834 -0.6313 -0.0880  0.5347
24066SOL    HW177328   6.452  11.195   0.803 -1.2295  0.9477  0.3949
24066SOL    HW277329   6.338  11.106   0.757 -1.0083  0.7701  0.1860
24067SOL     OW77330   7.682   7.876   7.486 -0.3421 -0.1333 -0.0491
24067SOL    HW177331   7.709   7.786   7.466 -1.0635 -1.0200  2.7387
24067SOL    HW277332   7.716   7.892   7.574 -1.3848  1.8655  0.0103
24068SOL     OW77333   2.479   5.204   8.262 -0.2446  0.0627 -0.1756
24068SOL    HW177334   2.386   5.183   8.273 -1.1053  3.5400 -0.2448
24068SOL    HW277335   2.489   5.219   8.168  0.0833  1.0582  0.0162
24069SOL     OW77336   7.376   7.290  11.271 -0.6191  0.1037  0.5572
24069SOL    HW177337   7.413   7.318  11.354  0.7774 -0.5927  0.1827
24069SOL    HW277338   7.340   7.203  11.288  1.9349 -1.1239 -0.1759
24070SOL     OW77339   7.658  10.744   1.640  0.1654 -0.1963 -0.2032
24070SOL    HW177340   7.658  10.678   1.710 -1.6007  0.3549  0.3344
24070SOL    HW277341   7.582  10.721   1.586  0.3771  0.5559 -0.8187
24071SOL     OW77342   5.098   5.737   3.170 -0.2177  0.5484  0.4295
24071SOL    HW177343   5.154   5.715   3.096 -0.3008 -1.1991  0.8826
24071SOL    HW277344   5.103   5.833   3.175  1.6345  0.5179 -0.3767
24072SOL     OW77345   3.027   7.901   5.040 -0.2581  0.6922  0.4806
24072SOL    HW177346   3.008   7.975   5.098  0.5940  1.6542 -0.4487
24072SOL    HW277347   3.029   7.939   4.952 -0.1278 -0.4914 -0.0388
24073SOL     OW77348   8.376   0.177   7.817 -0.2704  0.1470  0.3577
24073SOL    HW177349   8.303   0.210   7.870 -0.2760 -0.0165  0.4548
24073SOL    HW277350   8.443   0.245   7.823 -0.3666  0.2399  0.3739
24074SOL     OW77351   0.489  10.983   6.948  0.4815  0.3253 -0.2456
24074SOL    HW177352   0.443  11.019   7.024  1.6754 -0.1767  0.7382
24074SOL    HW277353   0.490  11.054   6.884  1.3625  1.4868  1.0353
24075SOL     OW77354   8.430   1.474   5.293  0.1738  0.0312 -0.0928
24075SOL    HW177355   8.409   1.439   5.379 -4.5265  1.4427 -0.4843
24075SOL    HW277356   8.410   1.403   5.232 -0.4661  0.3315 -0.2466
24076SOL     OW77357   8.442   3.548   9.309 -0.2885 -0.1168 -0.3250
24076SOL    HW177358   8.436   3.555   9.404  2.6442  1.7304 -0.1870
24076SOL    HW277359   8.378   3.611   9.276  0.7103  1.3705  0.5034
24077SOL     OW77360   9.027   3.199   8.934 -0.3810  0.3660  0.6118
24077SOL    HW177361   8.954   3.250   8.971 -3.5059 -3.5151  0.0881
24077SOL    HW277362   9.023   3.217   8.840 -1.0576 -0.3493  0.5065
24078SOL     OW77363   7.821   1.090  10.520  0.5256  0.4007 -0.0755
24078SOL    HW177364   7.903   1.052  10.488  0.6642  0.6793 -0.0554
24078SOL    HW277365   7.778   1.018  10.566  0.0922 -0.1386 -1.3034
24079SOL     OW77366   4.249   0.661   7.474 -0.7024  0.5151 -0.1798
24079SOL    HW177367   4.167   0.631   7.514 -1.5223  1.6938 -0.9579
24079SOL    HW277368   4.223   0.689   7.386  0.5404  0.9114 -0.4188
24080SOL     OW77369   6.243  10.899   1.583 -0.2885 -0.7492  0.0401
24080SOL    HW177370   6.291  10.958   1.641  1.3964  0.7212 -2.7491
24080SOL    HW277371   6.156  10.893   1.620  0.0753  2.0173  1.4012
24081SOL     OW77372   9.261   5.550   3.070  0.4129  0.5210  0.5253
24081SOL    HW177373   9.354   5.552   3.047  0.6466 -1.8504  1.0707
24081SOL    HW277374   9.260   5.516   3.160 -1.0114 -0.4224  0.1726
24082SOL     OW77375   8.450   5.497   4.156  0.0743  0.3151 -0.4718
24082SOL    HW177376   8.419   5.570   4.210  1.0805  0.5672 -0.2284
24082SOL    HW277377   8.534   5.526   4.121  0.9549 -1.0854  0.4135
24083SOL     OW77378   2.365   4.636   1.243 -0.0632 -0.7772 -0.3076
24083SOL    HW177379   2.313   4.602   1.316  0.4678 -0.2000  0.3465
24083SOL    HW277380   2.437   4.684   1.285  0.4024 -0.6762 -1.2078
24084SOL     OW77381   2.861   2.685   4.410  0.3169 -0.2495  0.1826
24084SOL    HW177382   2.808   2.763   4.428  0.5594  0.4275 -1.9388
24084SOL    HW277383   2.943   2.701   4.456 -0.5345 -0.3668  1.7767
24085SOL     OW77384   7.321   2.646   4.567 -1.0921  0.1337  0.0591
24085SOL    HW177385   7.308   2.553   4.584 -0.4036  0.0100 -0.0937
24085SOL    HW277386   7.255   2.668   4.502 -0.6381 -0.4612 -0.6040
24086SOL     OW77387   6.575   1.338   2.904 -0.3992 -0.2918  0.2199
24086SOL    HW177388   6.577   1.244   2.917  1.9392 -0.2076  0.8660
24086SOL    HW277389   6.639   1.372   2.968  1.1137  1.4284 -2.1048
24087SOL     OW77390   3.323   8.009   7.595 -0.2703 -0.1909 -0.3551
24087SOL    HW177391   3.360   8.084   7.643 -1.2761  0.1638 -0.1291
24087SOL    HW277392   3.344   7.933   7.650  0.0416  0.0155 -0.1840
24088SOL     OW77393   2.562   0.003   3.133 -0.5448 -0.2844  0.4856
24088SOL    HW177394   2.601  -0.027   3.215  1.4943 -2.4792 -1.2064
24088SOL    HW277395   2.539  -0.077   3.086 -1.7037  0.9243 -1.0971
24089SOL     OW77396   9.035   7.950   3.736 -0.2873  0.1550  0.0512
24089SOL    HW177397   8.950   7.960   3.694 -0.5515 -0.2140  0.4975
24089SOL    HW277398   9.053   8.035   3.776  0.0823  0.5878 -1.0186
24090SOL     OW77399   9.627   7.295   9.718 -0.2792  0.6825 -0.3378
24090SOL    HW177400   9.559   7.326   9.778 -1.9115 -0.2932 -1.6391
24090SOL    HW277401   9.645   7.205   9.746 -2.0612 -0.2749 -2.1179
24091SOL     OW77402   1.196   1.528   8.878 -0.8147 -0.1994 -0.2120
24091SOL    HW177403   1.272   1.586   8.877  0.5693 -1.9202  0.8013
24091SOL    HW277404   1.233   1.442   8.898 -3.3217 -0.6390  2.8685
24092SOL     OW77405   6.271   9.258   5.116 -0.7805  0.8333 -0.2835
24092SOL    HW177406   6.190   9.249   5.167  0.8666 -0.9820  2.1142
24092SOL    HW277407   6.272   9.181   5.060  1.6092 -1.8733  3.2304
24093SOL     OW77408  10.440   4.503   5.898 -0.0633  0.6241 -0.3253
24093SOL    HW177409  10.414   4.574   5.840 -1.3338 -0.5165 -1.1683
24093SOL    HW277410  10.390   4.517   5.978 -0.4755  0.5468 -0.5725
24094SOL     OW77411   0.954   8.105   6.264  0.0969 -0.1405 -0.1786
24094SOL    HW177412   1.034   8.054   6.252  0.4258  0.2436  0.4051
24094SOL    HW277413   0.983   8.196   6.261 -0.0342 -0.0143  2.0239
24095SOL     OW77414  11.229   4.687   9.193 -0.2775 -0.3983  0.6696
24095SOL    HW177415  11.243   4.626   9.120 -0.1853 -1.5297  1.6143
24095SOL    HW277416  11.135   4.704   9.192 -0.1047  0.5306 -0.4430
24096SOL     OW77417   9.200   3.858   4.468  0.3705 -0.0537 -0.6507
24096SOL    HW177418   9.269   3.922   4.485 -0.7603  0.2272  3.2186
24096SOL    HW277419   9.138   3.904   4.411  0.8649  1.4089 -0.0193
24097SOL     OW77420   2.739   4.393   3.946 -0.0322 -0.5464 -0.1587
24097SOL    HW177421   2.809   4.444   3.987 -1.8868  0.9962  1.2324
24097SOL    HW277422   2.775   4.365   3.862  1.5994  1.8317 -0.3071
24098SOL     OW77423   7.030   0.092   4.323 -0.6624  0.1164 -0.4506
24098SOL    HW177424   6.982   0.023   4.369  0.6918 -0.6273 -0.1245
24098SOL    HW277425   7.069   0.145   4.392 -0.2652  0.1675 -0.7088
24099SOL     OW77426   5.113   0.313   8.876 -0.0502 -0.0970 -0.2171
24099SOL    HW177427   5.113   0.380   8.807 -1.9406  0.9135  0.7485
24099SOL    HW277428   5.204   0.310   8.905  0.1934  1.5966 -0.7103
24100SOL     OW77429   9.862   8.734   8.233  0.0833 -0.2574 -0.3987
24100SOL    HW177430   9.852   8.722   8.327  1.8230  1.3239  0.0135
24100SOL    HW277431   9.801   8.804   8.210  1.9575  1.5887  0.1401
24101SOL     OW77432   2.663   1.385   2.025 -0.4012  0.0218  0.3967
24101SOL    HW177433   2.704   1.441   1.960  0.1342  0.7639  1.3549
24101SOL    HW277434   2.706   1.301   2.016 -1.1726 -0.2348 -1.0167
24102SOL     OW77435   3.372   4.767   2.125  0.2321 -0.3060  0.2848
24102SOL    HW177436   3.305   4.716   2.169  2.4054 -4.1953 -0.6333
24102SOL    HW277437   3.357   4.751   2.032  1.1928  0.4501 -0.0142
24103SOL     OW77438   9.229   5.038   1.703  0.1679  0.0361  0.4349
24103SOL    HW177439   9.161   5.054   1.769 -0.7074  3.0757 -1.1653
24103SOL    HW277440   9.282   5.117   1.703  3.2497 -1.9171  0.9858
24104SOL     OW77441   3.399   4.458   6.941 -0.0294 -0.5264  0.6031
24104SOL    HW177442   3.334   4.405   6.895 -0.0175 -1.2388  1.4079
24104SOL    HW277443   3.353   4.538   6.965 -0.1628 -0.3411 -0.2367
24105SOL     OW77444   1.989  10.491   8.539  0.2943 -0.4198 -0.3223
24105SOL    HW177445   1.918  10.491   8.475 -0.4717  1.8146  0.4852
24105SOL    HW277446   2.069  10.480   8.487 -0.3877  0.4094 -1.5609
24106SOL     OW77447   0.798   5.280  10.793 -0.2670  0.3092 -0.0853
24106SOL    HW177448   0.775   5.369  10.822  0.5162 -0.1993  2.2055
24106SOL    HW277449   0.886   5.267  10.827 -0.6104 -1.5838  0.0810
24107SOL     OW77450  10.854   7.486   9.812 -0.0283  0.5065  0.7270
24107SOL    HW177451  10.776   7.494   9.867 -0.3471 -1.4402  0.5959
24107SOL    HW277452  10.861   7.571   9.768 -0.7102  1.5158  2.5257
24108SOL     OW77453   6.912   7.276   9.814  0.3551  0.3253 -0.3255
24108SOL    HW177454   6.869   7.334   9.876  2.2646  0.8090  0.5521
24108SOL    HW277455   6.856   7.280   9.736 -0.4392  2.0196  0.3023
24109SOL     OW77456   4.533   7.047  10.898 -0.0657  0.8286  0.3493
24109SOL    HW177457   4.473   7.067  10.970 -0.4570 -0.2036  0.3110
24109SOL    HW277458   4.502   7.102  10.826 -1.1099  0.1535  0.2639
24110SOL     OW77459   1.979   4.172   4.702 -0.3184  0.2361 -0.0558
24110SOL    HW177460   2.046   4.182   4.769  3.2692 -1.0741 -3.2324
24110SOL    HW277461   1.970   4.259   4.663 -0.7561  0.5089  0.6618
24111SOL     OW77462   3.824   2.024   0.367  0.1963  0.0562  1.3229
24111SOL    HW177463   3.852   2.112   0.339  0.8653 -0.6118 -0.1770
24111SOL    HW277464   3.729   2.031   0.375 -0.1944  0.0076 -2.3073
24112SOL     OW77465   6.240   5.125   7.568 -0.1206 -0.1585 -0.2196
24112SOL    HW177466   6.170   5.149   7.628  0.2056  0.2465  0.0019
24112SOL    HW277467   6.313   5.182   7.593 -0.0566  0.1658 -1.1429
24113SOL     OW77468   6.906  10.496   5.357  0.0457  0.0894  0.4090
24113SOL    HW177469   6.894  10.511   5.451 -0.2299 -0.4302  0.4569
24113SOL    HW277470   6.995  10.461   5.350  0.3038  0.7336  0.4055
24114SOL     OW77471  10.617   9.814   6.801 -0.4229  0.3223 -0.2559
24114SOL    HW177472  10.643   9.828   6.710  0.9312  2.8016  0.4625
24114SOL    HW277473  10.540   9.870   6.813  0.6402  1.6081  0.6697
24115SOL     OW77474   9.888   5.163  11.326 -0.6997  0.7007  0.3211
24115SOL    HW177475   9.937   5.167  11.244  0.0303 -2.8116  0.5133
24115SOL    HW277476   9.817   5.102  11.310 -0.9225  0.4442  2.1157
24116SOL     OW77477  10.814   2.532   7.058  0.6489 -0.5519  0.1053
24116SOL    HW177478  10.885   2.521   6.995 -0.3758 -2.2476 -0.8007
24116SOL    HW277479  10.765   2.450   7.053 -1.3982  0.6063  0.6601
24117SOL     OW77480   9.793   2.178   7.515 -0.0313  0.0352  0.3864
24117SOL    HW177481   9.873   2.222   7.486  0.2541 -0.7955 -0.1196
24117SOL    HW277482   9.821   2.121   7.587  0.1925 -1.6477 -1.0016
24118SOL     OW77483   0.196   8.619   3.202  0.1348  0.0988 -0.0225
24118SOL    HW177484   0.240   8.656   3.278 -3.4260 -2.2568  3.4015
24118SOL    HW277485   0.109   8.658   3.204  0.1376  0.3669 -3.2520
24119SOL     OW77486   7.651   4.192   0.592  0.6026 -0.2798 -0.0473
24119SOL    HW177487   7.644   4.154   0.680 -0.7156  1.2312  0.5287
24119SOL    HW277488   7.656   4.287   0.607 -0.4828  0.0542 -1.6261
24120SOL     OW77489   6.313   0.470   9.351  0.4901  0.2668 -0.0168
24120SOL    HW177490   6.337   0.500   9.439  0.3471  1.9252 -0.5227
24120SOL    HW277491   6.218   0.470   9.350  0.4666 -1.4273  0.3645
24121SOL     OW77492   7.044  10.092   3.521 -0.0738  0.7375 -0.7264
24121SOL    HW177493   7.136  10.072   3.535 -0.0521  0.7818 -0.8084
24121SOL    HW277494   7.031  10.083   3.427 -0.5661 -1.0691 -0.5182
24122SOL     OW77495   2.448   4.380   8.569 -0.0797  0.4643  0.4455
24122SOL    HW177496   2.405   4.461   8.542 -1.0620  0.5035  2.0875
24122SOL    HW277497   2.437   4.321   8.495 -2.9942  0.4544  0.8601
24123SOL     OW77498   3.374   9.742  10.528 -0.0290 -0.1885  0.2916
24123SOL    HW177499   3.279   9.726  10.524 -0.0044  0.0564 -1.7957
24123SOL    HW277500   3.386   9.825  10.482  1.3988 -1.1312 -1.0646
24124SOL     OW77501  11.021   4.616   0.668  0.2988 -0.0194 -0.0973
24124SOL    HW177502  11.105   4.587   0.633  0.1100 -0.0081 -0.5581
24124SOL    HW277503  11.016   4.709   0.645 -0.4113 -0.3273 -1.1824
24125SOL     OW77504   8.554  10.207   1.684  0.1559  0.7881  0.3436
24125SOL    HW177505   8.470  10.161   1.689  0.6192 -0.1506 -0.3862
24125SOL    HW277506   8.540  10.276   1.619  1.1048 -1.8967 -2.8198
24126SOL     OW77507   2.577   2.536   4.241  0.2273  0.2188 -0.3379
24126SOL    HW177508   2.657   2.527   4.292 -0.4642  2.2301  1.1493
24126SOL    HW277509   2.608   2.547   4.150  1.6195  0.5159  0.1562
24127SOL     OW77510   4.739   3.816   0.177 -0.3009 -0.2334  0.3829
24127SOL    HW177511   4.695   3.899   0.160  3.8512  2.0152 -0.0263
24127SOL    HW277512   4.717   3.761   0.102 -0.4308  1.6426 -0.9821
24128SOL     OW77513   2.404   3.529   9.494 -0.3370  0.2565 -0.3587
24128SOL    HW177514   2.377   3.520   9.586 -2.3151  2.0740 -0.7198
24128SOL    HW277515   2.451   3.612   9.491  1.3875 -0.7118 -0.6447
24129SOL     OW77516   2.260   7.627   7.697 -0.4277  0.2904 -0.3813
24129SOL    HW177517   2.220   7.672   7.623  0.0231 -0.0383 -0.8274
24129SOL    HW277518   2.334   7.682   7.722 -1.7156  1.4090  1.0696
24130SOL     OW77519   4.283   3.286   4.502  0.0832  0.2200 -0.0403
24130SOL    HW177520   4.269   3.294   4.408  3.5115  1.7475 -0.4871
24130SOL    HW277521   4.218   3.344   4.541 -1.3312 -0.3898 -1.4227
24131SOL     OW77522   9.749   5.242   4.678  0.0508 -0.0174  0.3356
24131SOL    HW177523   9.693   5.178   4.722 -2.1273  0.1171 -2.1071
24131SOL    HW277524   9.758   5.209   4.588  1.1821  1.6752 -0.2056
24132SOL     OW77525   2.592   5.407   4.522  0.8401  0.0238  0.5413
24132SOL    HW177526   2.522   5.431   4.461  1.2278 -0.2152 -0.0028
24132SOL    HW277527   2.669   5.456   4.491  0.9179  0.2617  1.1166
24133SOL     OW77528   6.086   3.674   1.974 -0.2180  0.0120 -0.2384
24133SOL    HW177529   6.114   3.638   1.889  0.8480  0.1142  0.0586
24133SOL    HW277530   6.101   3.603   2.036 -1.0407 -0.0772 -0.1404
24134SOL     OW77531  10.082   5.295   8.809 -0.2792  0.1879  0.7172
24134SOL    HW177532  10.015   5.255   8.864  0.2635 -0.1173  1.1660
24134SOL    HW277533  10.094   5.233   8.737 -0.4231  0.2086  0.6749
24135SOL     OW77534  10.818   2.215   9.721  0.3274  0.1145 -0.1767
24135SOL    HW177535  10.727   2.244   9.714 -0.3547 -1.9456  0.0106
24135SOL    HW277536  10.846   2.248   9.807 -0.8288 -0.8179  0.5799
24136SOL     OW77537   7.108   3.175   9.475 -0.0966 -0.1832 -0.2312
24136SOL    HW177538   7.044   3.150   9.408 -0.0931 -0.7637 -0.0184
24136SOL    HW277539   7.149   3.093   9.500  1.4960  0.3233 -1.1409
24137SOL     OW77540   4.992   1.323   6.758 -0.3386  0.1806 -0.0259
24137SOL    HW177541   5.025   1.234   6.753 -0.3848  0.0050  2.3080
24137SOL    HW277542   4.905   1.319   6.717  0.2246 -0.5367 -1.1671
24138SOL     OW77543   0.384   5.809   2.208  0.4956  0.4978  0.5611
24138SOL    HW177544   0.359   5.738   2.269 -0.1764 -0.2995 -0.6256
24138SOL    HW277545   0.473   5.786   2.181 -0.0529 -0.4175 -0.5301
24139SOL     OW77546   2.714   6.497   0.624 -0.2734  0.4308 -0.5813
24139SOL    HW177547   2.754   6.582   0.643  0.5870 -0.3032  1.0367
24139SOL    HW277548   2.628   6.518   0.589 -0.4500  1.9695  0.7183
24140SOL     OW77549   8.887   6.058   9.271 -0.0077 -0.1250 -0.0068
24140SOL    HW177550   8.896   6.131   9.333 -0.7483  0.3609 -0.4713
24140SOL    HW277551   8.821   6.087   9.209  1.1038 -0.3871 -1.3480
24141SOL     OW77552   6.934   4.556   8.113  0.6492 -0.1784 -0.1410
24141SOL    HW177553   6.899   4.467   8.106  2.5461 -1.0470  1.0946
24141SOL    HW277554   6.993   4.553   8.188  0.2876  2.2937  0.2902
24142SOL     OW77555   7.735  10.296   9.440  0.1632  0.0248  0.8968
24142SOL    HW177556   7.656  10.347   9.454  0.3490  0.6123 -0.1509
24142SOL    HW277557   7.711  10.207   9.466 -0.2312  0.5782  2.4998
24143SOL     OW77558   3.467   4.755   6.129 -0.2746  0.0561 -0.2090
24143SOL    HW177559   3.541   4.815   6.135  0.5956 -0.9065 -1.0965
24143SOL    HW277560   3.474   4.700   6.207 -1.7594  1.8441  1.2269
24144SOL     OW77561   8.335   4.556   0.643 -0.5608 -0.2541 -0.3604
24144SOL    HW177562   8.264   4.579   0.702 -2.2653 -2.8023 -1.3507
24144SOL    HW277563   8.309   4.594   0.559 -0.1706 -0.2056 -0.4611
24145SOL     OW77564   7.993   7.932   7.414 -0.4088  1.0667  0.2429
24145SOL    HW177565   7.983   7.930   7.509 -2.8359  2.4179  0.0534
24145SOL    HW277566   8.061   7.997   7.398  1.6290 -0.7720  1.1206
24146SOL     OW77567   3.476   1.320   6.195  0.3819  0.1121  0.7749
24146SOL    HW177568   3.429   1.315   6.278 -0.5884 -2.6772  0.1224
24146SOL    HW277569   3.427   1.263   6.136  1.3187  1.6591 -1.6112
24147SOL     OW77570   1.502   3.922   5.812 -0.6143  0.0108 -0.2088
24147SOL    HW177571   1.496   3.843   5.866  2.0270  0.9813  1.6511
24147SOL    HW277572   1.563   3.899   5.742 -1.3835 -0.1976 -0.8137
24148SOL     OW77573   8.536  10.499  11.058 -0.0248  0.4498 -0.3594
24148SOL    HW177574   8.522  10.555  10.982 -2.0733  0.4620 -0.0091
24148SOL    HW277575   8.448  10.468  11.082  0.6957 -0.3399  1.3939
24149SOL     OW77576   0.258   9.540   8.280  0.0732  0.4457 -0.0561
24149SOL    HW177577   0.332   9.489   8.247 -0.4079 -0.0487 -0.3759
24149SOL    HW277578   0.214   9.573   8.201  0.1948  1.0981  0.1417
24150SOL     OW77579   3.702   7.418   9.908  0.3021  0.1742  0.2255
24150SOL    HW177580   3.709   7.494   9.851  2.1638  1.3876  2.0186
24150SOL    HW277581   3.662   7.350   9.853 -1.1927  2.3451 -1.4629
24151SOL     OW77582   1.671   9.774   3.655 -0.0867 -0.1846 -0.1713
24151SOL    HW177583   1.633   9.855   3.622  0.2839  0.4514  0.9611
24151SOL    HW277584   1.764   9.781   3.633  0.1502  0.2117  0.9470
24152SOL     OW77585   4.983   3.477   8.788 -0.3306 -0.4617 -0.6660
24152SOL    HW177586   4.988   3.399   8.734  0.3973 -0.8717 -0.0170
24152SOL    HW277587   5.074   3.503   8.801 -0.5276  0.0008 -0.1757
24153SOL     OW77588  10.674   3.057   5.704 -0.5779  0.1787  0.0597
24153SOL    HW177589  10.655   2.976   5.657 -1.7240 -0.0158  0.8410
24153SOL    HW277590  10.620   3.053   5.783  0.6648  0.9008  0.9768
24154SOL     OW77591   8.074  10.013   1.340  0.6896  0.3425  0.0661
24154SOL    HW177592   8.035  10.065   1.270 -0.0534 -1.0923 -0.6226
24154SOL    HW277593   8.000   9.966   1.378  1.3435 -0.2171  0.6480
24155SOL     OW77594   2.626   7.606   5.883  0.3947  0.5829 -0.1151
24155SOL    HW177595   2.617   7.699   5.900  1.5968  0.9571 -1.4987
24155SOL    HW277596   2.594   7.594   5.794 -1.2265 -0.5915  0.5898
24156SOL     OW77597   5.140   6.287   4.263 -0.9696  0.5084  0.6103
24156SOL    HW177598   5.050   6.302   4.294 -1.4104  1.0172 -0.8837
24156SOL    HW277599   5.195   6.324   4.332 -1.8929 -0.0630  1.6780
24157SOL     OW77600   7.110  10.190   2.875  0.4880 -0.0862  0.0433
24157SOL    HW177601   7.088  10.098   2.886  1.6412 -0.3222  0.4301
24157SOL    HW277602   7.121  10.201   2.780 -1.8360  0.1842 -0.2276
24158SOL     OW77603   6.093   0.653   0.655 -0.0800 -0.0986  0.1998
24158SOL    HW177604   6.112   0.606   0.573  0.4626  0.3982  0.0355
24158SOL    HW277605   6.107   0.587   0.724  2.3604  0.2556  0.0931
24159SOL     OW77606   6.197   4.714   7.341  0.0802 -0.6982 -0.1965
24159SOL    HW177607   6.260   4.700   7.412  0.7423 -1.0567 -0.8413
24159SOL    HW277608   6.165   4.626   7.321 -0.4987 -0.5363  0.0111
24160SOL     OW77609   1.750   9.548   7.325  0.0521 -0.3227 -0.4163
24160SOL    HW177610   1.843   9.534   7.306  0.2749  1.0513 -0.3745
24160SOL    HW277611   1.731   9.486   7.395  1.0900 -0.2154 -0.0242
24161SOL     OW77612   9.860   0.339   2.208  0.2344 -0.2925 -0.4333
24161SOL    HW177613   9.837   0.266   2.266  1.5960  0.4789  1.1187
24161SOL    HW277614   9.836   0.417   2.257  0.5933  0.3471 -1.2671
24162SOL     OW77615   5.586   0.459   0.503 -0.1859  0.1929  0.1670
24162SOL    HW177616   5.680   0.468   0.523  0.1243 -0.7966 -0.7683
24162SOL    HW277617   5.584   0.431   0.412 -1.3802 -0.4193  0.3719
24163SOL     OW77618   0.336   3.455   0.697  0.4151 -0.2711 -0.3536
24163SOL    HW177619   0.287   3.383   0.738  2.6282 -1.1548  0.8339
24163SOL    HW277620   0.322   3.530   0.756  1.5692 -0.8857  0.7251
24164SOL     OW77621   3.820   6.675   8.231 -0.7956  0.2695  0.4999
24164SOL    HW177622   3.900   6.725   8.244 -0.8051  0.4172  0.0200
24164SOL    HW277623   3.804   6.631   8.315 -0.0582  0.0089  0.5079
24165SOL     OW77624   5.160   5.727   9.674  1.3292  0.4684 -0.9032
24165SOL    HW177625   5.216   5.777   9.614  0.0056  1.4297 -1.3454
24165SOL    HW277626   5.089   5.695   9.620  0.9112  0.0872 -0.1412
24166SOL     OW77627   1.758   0.047   9.493  0.5325  0.0483  0.6509
24166SOL    HW177628   1.759   0.102   9.415  0.6180 -0.3162  0.3984
24166SOL    HW277629   1.844   0.006   9.495  0.0927 -0.9061  0.2571
24167SOL     OW77630   5.571   1.343   4.506  0.3686  0.6869  0.1708
24167SOL    HW177631   5.609   1.279   4.566 -0.6195 -1.3223 -1.2726
24167SOL    HW277632   5.546   1.417   4.562  1.0944 -0.3934  1.9536
24168SOL     OW77633   0.993   6.657   3.167  0.1377  0.3199 -0.0739
24168SOL    HW177634   0.914   6.643   3.115 -0.7896 -1.5451  1.7470
24168SOL    HW277635   0.961   6.692   3.250  1.2780  0.2403  0.4101
24169SOL     OW77636   3.220   4.323   4.592  0.6422 -0.1786  0.2681
24169SOL    HW177637   3.145   4.323   4.532  1.5488 -1.0177 -0.8765
24169SOL    HW277638   3.289   4.278   4.544  1.2117 -1.3916  2.1747
24170SOL     OW77639   4.777   4.627   4.318 -0.1233 -0.2808 -0.0152
24170SOL    HW177640   4.722   4.657   4.246 -0.0098  1.6442  0.6691
24170SOL    HW277641   4.864   4.618   4.280 -0.4368 -1.0749 -0.5512
24171SOL     OW77642   2.208   8.883   3.689 -0.3450 -0.6491 -0.6471
24171SOL    HW177643   2.138   8.940   3.659  0.5343 -0.7415 -2.9561
24171SOL    HW277644   2.198   8.881   3.785 -2.5204  0.5448 -0.8219
24172SOL     OW77645   9.891   6.736   0.658 -0.0211  0.2831  0.5696
24172SOL    HW177646   9.897   6.660   0.600  0.3813  0.5813  0.2053
24172SOL    HW277647   9.932   6.807   0.607  0.0265  0.6285  1.0869
24173SOL     OW77648   9.250   2.368   0.102  0.3305  0.0994 -0.5418
24173SOL    HW177649   9.206   2.370   0.017  0.1769 -1.8725 -0.5290
24173SOL    HW277650   9.292   2.454   0.110  1.0930 -0.0169 -3.0140
24174SOL     OW77651   4.504   3.726   5.763 -0.7198  0.3721 -0.2364
24174SOL    HW177652   4.588   3.760   5.792  0.3722 -1.0019 -1.7157
24174SOL    HW277653   4.450   3.803   5.749  0.4353  1.2862  0.3187
24175SOL     OW77654   9.753   6.497   0.323  0.1194 -0.2094  0.5086
24175SOL    HW177655   9.716   6.411   0.345  0.7390  0.0210  2.5209
24175SOL    HW277656   9.830   6.505   0.379 -0.8426  2.3202  1.5529
24176SOL     OW77657   5.571   3.074   1.570 -0.1302  0.6382 -0.1484
24176SOL    HW177658   5.576   3.032   1.657 -0.8939  3.0143  1.0853
24176SOL    HW277659   5.480   3.061   1.543  0.2651 -0.6537 -0.9110
24177SOL     OW77660   8.997   1.386   5.872 -0.1056 -0.5759 -0.1795
24177SOL    HW177661   9.056   1.316   5.900 -0.4591 -1.7736 -2.3431
24177SOL    HW277662   8.936   1.343   5.813 -1.8145  1.1018  0.3404
24178SOL     OW77663   8.024   4.981   4.224  0.8321 -0.0309 -0.1502
24178SOL    HW177664   7.939   4.970   4.182  0.2451 -0.9551  1.2410
24178SOL    HW277665   8.005   5.020   4.309  1.7180 -0.9803  0.5009
24179SOL     OW77666   0.684   8.500   8.812 -0.3923 -0.8292  0.4742
24179SOL    HW177667   0.701   8.572   8.752 -1.5415 -0.4017  0.6666
24179SOL    HW277668   0.709   8.535   8.898  0.9923 -1.3505  0.3082
24180SOL     OW77669   6.739   8.034   1.867 -0.0020 -0.1122  0.1822
24180SOL    HW177670   6.661   8.086   1.890 -0.1498 -1.1273  2.0112
24180SOL    HW277671   6.712   7.984   1.790 -0.7984  0.3819  0.1352
24181SOL     OW77672   8.750  10.748   4.512 -0.3226 -0.2127 -0.0257
24181SOL    HW177673   8.777  10.707   4.594 -1.0358 -0.5415  0.0446
24181SOL    HW277674   8.766  10.682   4.445 -2.5952 -1.0828  0.2335
24182SOL     OW77675   6.809   0.391   0.936  0.4973 -0.3254  0.2798
24182SOL    HW177676   6.794   0.351   1.022  1.4833 -0.7562  0.2516
24182SOL    HW277677   6.769   0.477   0.943 -0.5245 -0.8223  0.7664
24183SOL     OW77678   8.899   2.260   8.615  0.0363  0.3821  0.3565
24183SOL    HW177679   8.985   2.227   8.587  0.8964  0.9183  2.2710
24183SOL    HW277680   8.894   2.348   8.580  0.4675  0.5104  0.6136
24184SOL     OW77681   2.908  10.623   0.514 -0.1682 -0.8220  0.3345
24184SOL    HW177682   2.816  10.649   0.521 -0.3572 -2.0332  2.5767
24184SOL    HW277683   2.906  10.543   0.461 -0.2599 -0.1479 -0.7009
24185SOL     OW77684   3.952   3.563   5.499 -0.2249 -0.3445 -0.1708
24185SOL    HW177685   3.963   3.557   5.404 -2.2602 -0.7398 -0.4052
24185SOL    HW277686   3.922   3.476   5.525  0.3575 -0.2474  0.8429
24186SOL     OW77687   0.172   8.616   5.613 -0.4415  0.2762  0.2117
24186SOL    HW177688   0.165   8.662   5.529 -0.4852  0.6733  0.4300
24186SOL    HW277689   0.084   8.619   5.649 -0.6302 -0.7165 -0.1529
24187SOL     OW77690   4.092  10.677   7.241 -0.1479 -0.5246  0.2331
24187SOL    HW177691   4.100  10.722   7.325 -0.2342 -1.3581  0.6910
24187SOL    HW277692   4.070  10.587   7.264 -0.3882 -0.7069 -0.6911
24188SOL     OW77693   6.263   4.086   1.111  0.4049  0.2704 -0.3132
24188SOL    HW177694   6.217   4.003   1.127  1.5470 -0.5278 -1.0898
24188SOL    HW277695   6.194   4.152   1.112 -0.7976 -0.9194 -1.5468
24189SOL     OW77696   0.452   0.019   9.611 -0.1090 -0.2126 -0.5540
24189SOL    HW177697   0.496   0.028   9.526 -0.4374  2.1176 -0.4927
24189SOL    HW277698   0.506   0.069   9.672 -0.2608 -1.2973  0.4868
24190SOL     OW77699   4.272   3.435   2.320 -0.2347  0.3924 -0.0457
24190SOL    HW177700   4.260   3.453   2.226 -0.0343 -1.3644 -0.4142
24190SOL    HW277701   4.359   3.396   2.326 -0.1183  0.7901  0.9194
24191SOL     OW77702   0.282   5.661   1.073 -0.1650  0.5780 -0.5448
24191SOL    HW177703   0.369   5.695   1.051 -0.0246  0.8890  0.4673
24191SOL    HW277704   0.269   5.587   1.014  1.0278  0.1760 -0.3065
24192SOL     OW77705   9.488   2.930   9.042 -0.4301  0.0933 -0.1665
24192SOL    HW177706   9.582   2.949   9.047  0.3195 -3.1705 -0.1190
24192SOL    HW277707   9.472   2.919   8.948 -0.4316 -0.6124 -0.0923
24193SOL     OW77708  10.115   3.511   9.719 -0.2532  0.0196  0.3383
24193SOL    HW177709  10.077   3.566   9.650  0.2662  0.5009  0.4286
24193SOL    HW277710  10.201   3.487   9.685 -0.1828 -0.1215  0.6211
24194SOL     OW77711   5.246   3.887   6.421 -0.4862  0.0637  0.1932
24194SOL    HW177712   5.175   3.888   6.356 -1.2494  0.9942  1.0368
24194SOL    HW277713   5.267   3.979   6.436  0.0537 -0.1651  0.8764
24195SOL     OW77714   9.679   4.719   9.163  0.2815  0.2361  0.1070
24195SOL    HW177715   9.676   4.811   9.136  0.1745  0.1024 -0.3470
24195SOL    HW277716   9.624   4.715   9.241 -1.8005  0.0655 -1.3191
24196SOL     OW77717  10.462  10.335   9.244 -0.1692 -0.8064 -0.0482
24196SOL    HW177718  10.523  10.342   9.170  2.2413  1.1005  1.9964
24196SOL    HW277719  10.453  10.241   9.260 -0.2123 -1.2085 -2.3473
24197SOL     OW77720   9.611   1.439   8.383 -0.3052  0.6468  0.0708
24197SOL    HW177721   9.645   1.359   8.343 -1.5524  0.6757 -1.1066
24197SOL    HW277722   9.678   1.505   8.367  0.5594 -0.0565  0.7143
24198SOL     OW77723   6.524   1.675  10.900 -0.2057  0.2064 -0.3397
24198SOL    HW177724   6.511   1.694  10.807  1.1083  0.8063 -0.4267
24198SOL    HW277725   6.571   1.592  10.901  0.6554  0.6865 -0.2638
24199SOL     OW77726   0.263   3.914   4.715 -0.6426  0.5634  0.5917
24199SOL    HW177727   0.347   3.903   4.672 -1.1272  0.5820 -0.3627
24199SOL    HW277728   0.205   3.851   4.672 -1.2534  0.9307  0.8728
24200SOL     OW77729   0.260  10.133   7.577 -0.2175 -0.1600  0.1838
24200SOL    HW177730   0.191  10.195   7.554  1.0066  1.6298  1.2080
24200SOL    HW277731   0.263  10.134   7.672  0.5424 -1.0005  0.1744
24201SOL     OW77732   0.116   7.468   7.589  0.4731  0.7578  0.6380
24201SOL    HW177733   0.185   7.415   7.549 -0.0250  0.6955 -0.1606
24201SOL    HW277734   0.102   7.429   7.675 -0.0427 -0.5412 -0.0271
24202SOL     OW77735   0.063   4.371   1.428 -0.0032 -0.5761 -0.3254
24202SOL    HW177736   0.084   4.419   1.348 -1.0330  1.2157  0.4600
24202SOL    HW277737   0.147   4.365   1.475  0.7697 -2.3134 -1.8622
24203SOL     OW77738  11.165   0.220  10.613  0.5047 -0.0462 -0.2059
24203SOL    HW177739  11.178   0.202  10.706 -1.6447  0.7725  0.2750
24203SOL    HW277740  11.117   0.144  10.580  1.5708 -0.4995 -0.7400
24204SOL     OW77741   3.768   8.440   2.951 -0.4096 -0.1112  0.5236
24204SOL    HW177742   3.813   8.507   3.002  0.3962 -1.9065  2.2022
24204SOL    HW277743   3.837   8.399   2.898 -1.0905  1.1318 -1.3894
24205SOL     OW77744   1.570   9.722   9.975 -0.2086 -0.0914 -0.2075
24205SOL    HW177745   1.635   9.754  10.038  0.0086 -3.0369  1.1729
24205SOL    HW277746   1.597   9.760   9.891  2.3631  0.0346  0.6188
24206SOL     OW77747   6.745   6.197   2.527 -0.2653 -0.2962 -0.4770
24206SOL    HW177748   6.727   6.114   2.573 -1.0097  0.6746  1.0189
24206SOL    HW277749   6.665   6.248   2.537  0.9282  1.4430  0.4669
24207SOL     OW77750   7.322  10.554   8.689 -0.1232 -0.0187 -0.0218
24207SOL    HW177751   7.354  10.466   8.711 -1.5515 -0.5356  0.0300
24207SOL    HW277752   7.363  10.573   8.605 -0.4260 -1.0691 -0.4199
24208SOL     OW77753   3.581   1.584   8.200 -0.1316  0.0334 -0.3635
24208SOL    HW177754   3.565   1.600   8.107  0.2813 -0.1852 -0.4748
24208SOL    HW277755   3.600   1.670   8.237  0.9092 -0.0378 -0.7255
24209SOL     OW77756   9.456   9.481   9.251  0.3889 -0.1676  0.6494
24209SOL    HW177757   9.385   9.502   9.190 -0.5759 -1.3611  1.3493
24209SOL    HW277758   9.501   9.407   9.211 -0.2853 -0.9953  1.4141
24210SOL     OW77759   3.725   1.985   7.459 -0.2434  0.1472  0.0861
24210SOL    HW177760   3.710   1.900   7.418 -2.2719  1.0069 -1.0358
24210SOL    HW277761   3.637   2.018   7.478  0.5400  1.7128  1.1027
24211SOL     OW77762   0.808  11.022   2.471  0.3713 -0.2161 -0.1284
24211SOL    HW177763   0.880  11.054   2.417 -0.8882  2.1044 -0.4920
24211SOL    HW277764   0.806  11.082   2.546 -1.2333 -0.1936 -0.1780
24212SOL     OW77765   9.567   2.325   2.626  0.4733  0.5663 -0.1198
24212SOL    HW177766   9.523   2.303   2.545  2.4228 -1.8103 -0.6027
24212SOL    HW277767   9.599   2.241   2.660 -0.9582  1.3776  3.5200
24213SOL     OW77768   5.336   1.025  10.380  0.3248  0.1467 -0.6606
24213SOL    HW177769   5.277   1.095  10.408  0.5491  0.6771 -1.4758
24213SOL    HW277770   5.410   1.071  10.340  1.3257 -0.5122  0.4003
24214SOL     OW77771   1.666   0.999   5.624  0.1862 -0.4585 -0.4318
24214SOL    HW177772   1.752   0.961   5.604  0.7296  0.0349  0.9327
24214SOL    HW277773   1.670   1.020   5.717  0.3628  4.1484 -1.3916
24215SOL     OW77774   9.140   0.501   8.625  0.3104  0.3017  0.2146
24215SOL    HW177775   9.174   0.568   8.566  0.4116  0.2047  0.1624
24215SOL    HW277776   9.091   0.550   8.691  1.0606  0.4901  0.6404
24216SOL     OW77777   6.383   4.633   3.430  0.1802 -0.4674  0.2616
24216SOL    HW177778   6.440   4.606   3.502 -0.1472 -0.1545  0.6366
24216SOL    HW277779   6.375   4.728   3.440 -0.9640 -0.5975  0.6217
24217SOL     OW77780   2.495   7.485  10.004 -0.3477 -0.2843 -0.2388
24217SOL    HW177781   2.567   7.450   9.953  0.6332  0.0264  0.9158
24217SOL    HW277782   2.476   7.570   9.964  0.5220  0.0318  0.0100
24218SOL     OW77783   8.450   4.130   2.872 -0.0709 -0.4975  0.1061
24218SOL    HW177784   8.516   4.113   2.939  0.4690 -0.4453 -0.4009
24218SOL    HW277785   8.491   4.101   2.790 -0.5563 -0.1702 -0.2570
24219SOL     OW77786   6.551   0.570   2.892  0.0009  0.2780 -0.3786
24219SOL    HW177787   6.563   0.616   2.975  0.5704  2.3422 -1.5680
24219SOL    HW277788   6.613   0.497   2.896  0.9506  1.1150  0.4782
24220SOL     OW77789   4.737   9.768   1.398 -0.2042 -0.2929  0.0294
24220SOL    HW177790   4.769   9.686   1.434  0.0762 -0.8413 -1.4335
24220SOL    HW277791   4.739   9.829   1.471  1.7964 -0.9754  0.5733
24221SOL     OW77792   6.814   2.117  11.320  0.0101  0.1282 -0.1139
24221SOL    HW177793   6.826   2.025  11.343 -0.1185  0.2475  0.4369
24221SOL    HW277794   6.852   2.125  11.233 -0.3415 -0.5389 -0.3344
24222SOL     OW77795   4.783   1.478   1.524  0.1592  0.0797  0.2626
24222SOL    HW177796   4.837   1.549   1.558  2.4432 -1.2576 -0.5019
24222SOL    HW277797   4.753   1.510   1.439  1.7219 -0.1067 -0.3777
24223SOL     OW77798   8.101   9.582   1.931  0.5395  0.0875  0.2870
24223SOL    HW177799   8.135   9.542   2.011  0.6178  1.1846  0.8032
24223SOL    HW277800   8.166   9.648   1.908 -0.2891  0.8677  0.2027
24224SOL     OW77801   8.482   3.193   2.304 -0.0057  0.1772 -0.2965
24224SOL    HW177802   8.499   3.189   2.210  1.9453 -1.1907  0.0803
24224SOL    HW277803   8.398   3.149   2.315  0.5823 -1.2310 -1.2227
24225SOL     OW77804  10.526   6.093   6.850  0.2910  0.6465 -0.1215
24225SOL    HW177805  10.546   6.070   6.940  1.8173  0.1272 -0.5612
24225SOL    HW277806  10.578   6.172   6.833 -0.8214  1.3623 -0.2204
24226SOL     OW77807   8.124   8.350   5.215 -0.4134  0.0622 -0.5790
24226SOL    HW177808   8.083   8.396   5.142 -0.1244 -1.2533 -1.5944
24226SOL    HW277809   8.057   8.292   5.249 -0.0252 -0.5957 -0.9224
24227SOL     OW77810   0.579   0.759   7.195  0.1271  0.6479 -0.0918
24227SOL    HW177811   0.637   0.686   7.174  2.2100  2.5673 -1.1861
24227SOL    HW277812   0.524   0.726   7.266  1.0243 -1.9736 -0.5647
24228SOL     OW77813   0.774   9.689   3.253  0.3081 -0.6194 -0.1607
24228SOL    HW177814   0.745   9.620   3.314 -0.7844 -1.2739 -1.3917
24228SOL    HW277815   0.697   9.745   3.242  0.1689 -1.0957 -1.7271
24229SOL     OW77816   1.373   7.946   9.903 -0.1298 -0.2489 -0.0367
24229SOL    HW177817   1.326   7.869   9.869 -1.3313 -0.6333  2.3211
24229SOL    HW277818   1.326   8.021   9.866 -1.2657 -0.6557  0.5355
24230SOL     OW77819   0.576   7.403   6.597 -0.2532 -0.1832 -0.2792
24230SOL    HW177820   0.589   7.471   6.663 -0.7640 -1.4162  1.1230
24230SOL    HW277821   0.590   7.320   6.644  0.2456 -1.0564 -1.9233
24231SOL     OW77822   1.546   9.634   3.271  0.1988  0.4057 -0.0230
24231SOL    HW177823   1.464   9.596   3.302  0.1617 -0.7479 -1.4801
24231SOL    HW277824   1.592   9.562   3.228  1.5442  1.2738 -0.0906
24232SOL     OW77825   8.379   9.834   3.626 -0.4309 -0.1520  0.1825
24232SOL    HW177826   8.290   9.855   3.654 -0.0374  0.1904  1.2015
24232SOL    HW277827   8.375   9.835   3.530 -1.5150 -0.1267  0.2205
24233SOL     OW77828   9.658   2.679   7.247  0.0253 -0.2547  0.6530
24233SOL    HW177829   9.598   2.752   7.266  1.1148  0.5062  1.1973
24233SOL    HW277830   9.602   2.612   7.208 -0.9302  1.0222 -0.2338
24234SOL     OW77831   7.797   3.708   1.126 -0.1897 -0.2802  0.4311
24234SOL    HW177832   7.832   3.714   1.214  0.8153  2.1828 -0.0899
24234SOL    HW277833   7.835   3.628   1.090  1.0317 -0.1966  1.5278
24235SOL     OW77834   3.642  10.961   6.078  0.3174  0.9884  0.1217
24235SOL    HW177835   3.669  11.011   6.155  0.4122  1.1373 -0.0111
24235SOL    HW277836   3.640  11.024   6.007 -3.0008  1.5913  0.6514
24236SOL     OW77837   9.499   1.964   9.703  0.0351 -0.0986  0.0600
24236SOL    HW177838   9.436   1.898   9.674  0.5708  0.1612 -1.7372
24236SOL    HW277839   9.562   1.915   9.756 -0.5318 -0.7116  0.1854
24237SOL     OW77840   7.891   3.442   6.816  1.0156 -0.0811  0.2318
24237SOL    HW177841   7.813   3.493   6.795  1.6913 -0.3556 -3.2988
24237SOL    HW277842   7.858   3.355   6.840  0.1998  0.1093 -0.1875
24238SOL     OW77843   0.412   0.607   5.159 -0.1746 -0.2076 -0.0735
24238SOL    HW177844   0.368   0.522   5.167  1.8880 -1.5370 -2.2328
24238SOL    HW277845   0.357   0.658   5.100  0.3044 -1.2976 -1.4891
24239SOL     OW77846   7.275   6.684   2.462 -0.1003  0.5059  0.8563
24239SOL    HW177847   7.183   6.698   2.440 -0.7121 -1.7029  1.8435
24239SOL    HW277848   7.319   6.765   2.436 -1.8792  0.5781 -2.0428
24240SOL     OW77849   2.619   6.850   9.134  0.7423  0.4101  0.1184
24240SOL    HW177850   2.539   6.843   9.082  0.3401  1.9574  0.5015
24240SOL    HW277851   2.664   6.927   9.098  1.0466  0.7673  1.2459
24241SOL     OW77852   8.101   5.151   9.977  0.3707 -0.3720  0.3352
24241SOL    HW177853   8.048   5.108  10.044  2.0675 -0.4729  1.6366
24241SOL    HW277854   8.056   5.233   9.959 -0.5224 -0.7071  1.0307
24242SOL     OW77855   6.659   7.984   2.537 -0.7144  0.2576 -0.5909
24242SOL    HW177856   6.717   8.049   2.496 -1.0494  1.2109  0.4362
24242SOL    HW277857   6.608   7.948   2.464 -0.6645  1.2817 -1.1326
24243SOL     OW77858   9.505   1.894   2.697 -0.1857  0.5175  0.1503
24243SOL    HW177859   9.480   1.968   2.641 -1.5777 -0.3181 -0.3674
24243SOL    HW277860   9.471   1.817   2.651  0.3133 -0.3463  1.2083
24244SOL     OW77861   6.721   5.070   9.220 -0.4602 -0.5942 -0.3291
24244SOL    HW177862   6.688   5.025   9.143 -1.3798  0.5789 -0.6376
24244SOL    HW277863   6.643   5.095   9.269  0.0291  0.4791 -0.0638
24245SOL     OW77864   6.000   2.990   8.397 -0.4902 -0.1630 -0.5844
24245SOL    HW177865   6.036   3.061   8.344 -2.2119  0.5073 -0.8979
24245SOL    HW277866   5.995   2.915   8.337  2.0553 -0.8066 -0.0439
24246SOL     OW77867   1.324   5.385   8.553 -0.3261  0.2865 -0.0235
24246SOL    HW177868   1.378   5.447   8.602  1.5014 -0.1151 -1.4533
24246SOL    HW277869   1.288   5.435   8.480 -1.1034  0.3194  0.3809
24247SOL     OW77870   6.927   7.372   2.942 -0.2364  0.2034  0.2998
24247SOL    HW177871   6.864   7.422   2.890 -0.1757  0.2365  0.2574
24247SOL    HW277872   6.978   7.439   2.988 -0.2848  0.1752  0.3955
24248SOL     OW77873   1.051   4.758   4.825 -0.1647 -0.2465  0.1092
24248SOL    HW177874   1.104   4.829   4.860  1.6412 -2.3388  1.8268
24248SOL    HW277875   0.964   4.772   4.862  0.7601 -0.2009  2.3490
24249SOL     OW77876   0.450   1.225   2.431  0.3281 -0.1182  0.1966
24249SOL    HW177877   0.372   1.274   2.407 -0.3920 -1.5306 -0.4046
24249SOL    HW277878   0.489   1.275   2.503  1.2627  2.9411 -2.2956
24250SOL     OW77879  10.038   1.505  10.257  0.0858  0.2319  0.2473
24250SOL    HW177880  10.114   1.480  10.204  0.4743  2.6684 -0.4232
24250SOL    HW277881  10.069   1.580  10.309 -1.4617  0.3906  0.9538
24251SOL     OW77882  10.004   6.532   4.743 -0.6568  0.6041 -0.6545
24251SOL    HW177883   9.996   6.535   4.647  0.8579  0.3810 -0.8064
24251SOL    HW277884  10.091   6.567   4.760 -0.2990 -0.8397  0.5437
24252SOL     OW77885   0.325   5.319   1.380  0.4889  0.0494  0.0505
24252SOL    HW177886   0.333   5.352   1.470 -0.5990  0.8332 -0.1311
24252SOL    HW277887   0.276   5.386   1.334  2.1521  0.2641 -1.4856
24253SOL     OW77888   2.409   0.275   9.738  0.0754 -0.2580  0.3349
24253SOL    HW177889   2.423   0.344   9.674  0.3180  0.0420  0.7116
24253SOL    HW277890   2.336   0.305   9.792 -0.4499 -0.7291 -0.0975
24254SOL     OW77891   5.192   6.280   3.734  0.6659  0.9863 -0.0185
24254SOL    HW177892   5.124   6.213   3.738  1.4086  0.2051 -0.1392
24254SOL    HW277893   5.225   6.287   3.824 -0.1416  1.9640  0.2015
24255SOL     OW77894  10.543   3.200   6.716  0.8125  0.3062  0.3457
24255SOL    HW177895  10.491   3.121   6.700  0.5967  0.6026 -0.4336
24255SOL    HW277896  10.498   3.243   6.789  0.2674  0.2946  0.0227
24256SOL     OW77897   8.119   1.278   8.044 -0.6837 -0.4690  0.3415
24256SOL    HW177898   8.066   1.331   7.984  2.0117 -0.5952 -2.2487
24256SOL    HW277899   8.202   1.325   8.051 -0.4354 -1.2341  2.8385
24257SOL     OW77900   2.719   8.168   8.725  0.5402  0.2461 -0.2472
24257SOL    HW177901   2.784   8.215   8.673 -1.1754  0.3683 -2.3447
24257SOL    HW277902   2.650   8.232   8.740 -0.4840 -0.7635 -0.6224
24258SOL     OW77903   7.826   7.197   8.686  0.0323  0.1038 -0.3653
24258SOL    HW177904   7.886   7.187   8.760 -2.2641  0.9658  1.6716
24258SOL    HW277905   7.776   7.115   8.684 -0.3111  0.3179 -0.5979
24259SOL     OW77906   6.550   5.477   1.224 -0.3506  0.8020  0.2396
24259SOL    HW177907   6.505   5.525   1.294 -2.9127 -2.1870  0.7411
24259SOL    HW277908   6.615   5.424   1.269 -1.1457 -0.1701  0.2699
24260SOL     OW77909   6.024   0.723   7.820 -0.5154  0.1404 -0.4664
24260SOL    HW177910   6.077   0.788   7.867 -0.4272 -0.7289  0.6439
24260SOL    HW277911   5.949   0.707   7.876 -0.6676 -0.5423 -0.8565
24261SOL     OW77912   4.538   2.730   0.738 -0.7508  0.0754  0.0780
24261SOL    HW177913   4.498   2.737   0.652 -2.4728  1.8394  0.9843
24261SOL    HW277914   4.489   2.791   0.793 -0.2309 -1.6052  2.5239
24262SOL     OW77915   6.359   4.118   3.269  0.1257  0.2241 -0.3650
24262SOL    HW177916   6.297   4.159   3.330 -0.1378 -0.0092 -0.4778
24262SOL    HW277917   6.315   4.122   3.184 -0.0283 -0.5752 -0.3246
24263SOL     OW77918  10.707  10.135   2.031  0.1341 -0.0138  0.1184
24263SOL    HW177919  10.690  10.211   2.085  1.3222  0.6659 -0.4446
24263SOL    HW277920  10.660  10.152   1.949  0.0781 -0.0661  0.1397
24264SOL     OW77921   0.460   0.262   5.806 -0.4726  0.0805 -0.2356
24264SOL    HW177922   0.437   0.298   5.721 -0.0680 -0.2164 -0.4739
24264SOL    HW277923   0.462   0.338   5.864 -1.8972  0.1282 -0.2299
24265SOL     OW77924   5.831   3.612   4.239  0.5867 -0.2447  0.1793
24265SOL    HW177925   5.856   3.704   4.232 -0.6960  0.2510  1.8829
24265SOL    HW277926   5.749   3.605   4.191  0.1499 -0.2756  0.9270
24266SOL     OW77927  11.115   9.726   4.888  0.5946  0.8321 -0.6700
24266SOL    HW177928  11.026   9.702   4.865  1.3029 -1.4276 -1.2034
24266SOL    HW277929  11.112   9.742   4.982 -0.2650  0.1682 -0.5744
24267SOL     OW77930   7.932   4.414  10.836  0.5702 -0.2923 -0.4942
24267SOL    HW177931   7.849   4.389  10.794  0.5811 -0.2191 -0.5601
24267SOL    HW277932   7.905   4.468  10.910  0.5538 -0.3570 -0.4533
24268SOL     OW77933   9.948   6.435  10.544  0.0275  0.1576 -0.3496
24268SOL    HW177934  10.016   6.372  10.568 -0.4437 -0.9171 -1.7301
24268SOL    HW277935   9.909   6.399  10.465 -0.4042  2.1027 -1.0576
24269SOL     OW77936   9.056   6.966   9.169 -0.2816  0.3262  0.4002
24269SOL    HW177937   8.977   7.020   9.178 -1.1955 -0.7433 -0.9948
24269SOL    HW277938   9.098   6.969   9.256 -1.9069  0.8300  1.1813
24270SOL     OW77939   8.280   3.934   5.735 -0.0143 -0.0076 -0.4200
24270SOL    HW177940   8.288   3.842   5.711  0.2709  0.4326 -2.0525
24270SOL    HW277941   8.301   3.936   5.828 -0.5330 -1.6651 -0.2423
24271SOL     OW77942   6.544   0.682   8.593  0.3927  0.0111  0.0130
24271SOL    HW177943   6.615   0.621   8.618  1.4145  1.5716  1.0046
24271SOL    HW277944   6.588   0.766   8.583 -0.9691  0.5326 -1.6671
24272SOL     OW77945  10.997   2.890   8.350 -0.4167  1.0065  0.5431
24272SOL    HW177946  10.915   2.840   8.342 -1.0236  2.0212  0.3437
24272SOL    HW277947  10.982   2.969   8.299  0.9102  0.9484  0.0380
24273SOL     OW77948   7.330   9.703   1.500  0.0905 -0.0874  0.5777
24273SOL    HW177949   7.318   9.635   1.567  0.8496  0.8860  1.7122
24273SOL    HW277950   7.413   9.680   1.458 -0.3644 -0.6731 -0.0212
24274SOL     OW77951   2.807  10.682   5.275 -0.0915  0.4120  0.3964
24274SOL    HW177952   2.884  10.626   5.275  0.5606  1.2760 -1.1063
24274SOL    HW277953   2.735  10.626   5.305  0.8342 -0.7946  0.3610
24275SOL     OW77954   5.179   7.342   0.880  0.3864  0.3780  0.0956
24275SOL    HW177955   5.126   7.264   0.861  2.3365 -0.9448  0.0106
24275SOL    HW277956   5.202   7.377   0.794 -0.4377  1.0591  0.1334
24276SOL     OW77957   0.086   7.794   3.129 -0.2956 -0.5537  0.0264
24276SOL    HW177958   0.079   7.826   3.219 -1.1447 -0.4794 -0.0645
24276SOL    HW277959   0.004   7.747   3.113 -0.8211  0.7426 -1.2063
24277SOL     OW77960  10.695   2.546   1.655  0.3532  0.3260  0.3184
24277SOL    HW177961  10.718   2.596   1.577 -0.0993 -0.1051 -0.1014
24277SOL    HW277962  10.638   2.603   1.705  1.0491  0.7939  0.5771
24278SOL     OW77963  10.830  10.400  11.015 -0.3048 -0.1249  0.6437
24278SOL    HW177964  10.887  10.455  10.961  0.7942 -1.3910  0.4940
24278SOL    HW277965  10.743  10.437  11.003 -0.0438 -0.2003 -1.7540
24279SOL     OW77966   6.900  11.217   4.421  0.4662  0.3325 -0.5582
24279SOL    HW177967   6.820  11.190   4.465 -0.0005  0.5683 -1.2614
24279SOL    HW277968   6.954  11.138   4.418 -0.2476 -0.1276 -1.1992
24280SOL     OW77969  10.072   4.259   7.189  0.2728 -0.4082 -0.1327
24280SOL    HW177970  10.065   4.331   7.252 -1.4298 -0.7786  0.1347
24280SOL    HW277971  10.129   4.293   7.121 -0.3854  1.1608  0.0691
24281SOL     OW77972   3.269   5.889   9.082  0.2933  0.0982 -0.2688
24281SOL    HW177973   3.268   5.923   9.171 -0.2921  0.9439 -0.5863
24281SOL    HW277974   3.198   5.824   9.080  0.8364 -0.5082  0.0994
24282SOL     OW77975   7.532   9.486   3.564  0.3114  0.5310  0.2643
24282SOL    HW177976   7.614   9.437   3.570  1.1954  1.9582  0.1480
24282SOL    HW277977   7.490   9.474   3.650  0.8110  0.0920  0.4475
24283SOL     OW77978   4.217   3.595   1.716  0.5916 -0.0720 -0.2597
24283SOL    HW177979   4.209   3.525   1.650  2.5760 -1.3105  0.7698
24283SOL    HW277980   4.305   3.584   1.752  0.2358  1.8047  1.2473
24284SOL     OW77981   4.205   5.809   6.890 -0.2466  0.3514 -0.0638
24284SOL    HW177982   4.134   5.803   6.954  0.7598  0.9927  1.1466
24284SOL    HW277983   4.164   5.788   6.806 -0.9683 -3.4923  1.1706
24285SOL     OW77984   8.470   3.906   5.210  0.3099 -0.6644  0.1141
24285SOL    HW177985   8.552   3.858   5.198  0.5003 -0.1199 -0.8234
24285SOL    HW277986   8.405   3.838   5.229  0.2626 -1.4753 -2.7384
24286SOL     OW77987   1.605   8.961   2.727  0.1295  0.1131 -0.3490
24286SOL    HW177988   1.543   9.019   2.682 -0.3153 -0.0744  0.0136
24286SOL    HW277989   1.607   8.995   2.817  1.7635  1.0983 -0.7408
24287SOL     OW77990   7.430  10.053   9.679 -0.2637  0.0465  0.0650
24287SOL    HW177991   7.457  10.049   9.771  1.0604 -2.5779 -0.3999
24287SOL    HW277992   7.374   9.977   9.667 -1.9672  1.4011 -0.8730
24288SOL     OW77993   1.073   4.100   2.279 -0.3426 -0.2595 -0.7510
24288SOL    HW177994   1.120   4.017   2.277  0.5870  0.2581 -0.3559
24288SOL    HW277995   1.069   4.128   2.188  3.0637  1.3398 -0.4858
24289SOL     OW77996  11.155  10.368   4.626 -0.2770 -0.0121 -0.1946
24289SOL    HW177997  11.148  10.303   4.696  1.5890 -0.4272 -0.3804
24289SOL    HW277998  11.159  10.452   4.673  0.5916 -0.2634  0.1964
24290SOL     OW77999   1.665   0.929   8.757 -0.3584  0.0697 -0.1524
24290SOL    HW178000   1.743   0.881   8.786  0.2717  0.4054 -1.2644
24290SOL    HW278001   1.596   0.900   8.817  0.3643 -1.0556  0.1676
24291SOL     OW78002   4.980   0.584   9.556  0.1913  0.3080  0.0555
24291SOL    HW178003   4.930   0.658   9.592 -0.9310 -0.6477  0.4832
24291SOL    HW278004   5.049   0.625   9.505 -0.6144  1.6638  0.0298
24292SOL     OW78005   4.317   2.161   9.590  0.0305  0.2750  0.1622
24292SOL    HW178006   4.403   2.118   9.587  0.0866  0.2461  1.4706
24292SOL    HW278007   4.336   2.253   9.610 -0.2392  0.2470  0.5685
24293SOL     OW78008   2.890   8.212   0.410  0.7243 -0.0090 -0.4186
24293SOL    HW178009   2.894   8.133   0.463  0.7344 -0.3119 -0.8750
24293SOL    HW278010   2.916   8.185   0.322  3.6546  1.0713  0.0626
24294SOL     OW78011   1.598   1.111   1.404  0.2186 -0.2543  0.0296
24294SOL    HW178012   1.536   1.087   1.473 -1.3957  1.5560 -0.7289
24294SOL    HW278013   1.672   1.150   1.451  1.3625 -3.4991  1.0182
24295SOL     OW78014   6.049   7.349   2.061  0.1087  0.0731  0.2168
24295SOL    HW178015   6.135   7.387   2.042 -1.0340  2.3624 -0.5555
24295SOL    HW278016   6.034   7.368   2.153 -0.1748  0.9240 -0.0026
24296SOL     OW78017   7.186   6.653   3.435  0.0543 -0.2189 -0.2516
24296SOL    HW178018   7.133   6.574   3.448 -1.6181  0.8473 -0.3562
24296SOL    HW278019   7.206   6.653   3.341 -0.7463 -0.0262 -0.4234
24297SOL     OW78020   3.754   3.437   6.004  0.0681 -0.7602  0.2570
24297SOL    HW178021   3.743   3.389   6.087 -0.0180  0.0468  0.7098
24297SOL    HW278022   3.667   3.469   5.983  0.3710  0.3026  0.6163
24298SOL     OW78023   8.826   8.485   9.374 -0.0486  0.1780 -0.6472
24298SOL    HW178024   8.800   8.453   9.287  2.0481  0.9806 -1.5998
24298SOL    HW278025   8.790   8.573   9.379  1.6480  0.9504 -1.6040
24299SOL     OW78026   9.872   7.287   2.998 -0.0042 -0.3853  0.0502
24299SOL    HW178027   9.967   7.282   2.992  0.0160  0.6225 -0.5200
24299SOL    HW278028   9.855   7.370   3.043 -0.6214 -0.4852  0.0028
24300SOL     OW78029   4.760   1.598   5.589 -0.3236  0.0797  0.5773
24300SOL    HW178030   4.843   1.631   5.555 -0.2126  0.0070  0.7782
24300SOL    HW278031   4.695   1.663   5.562  0.1177  1.2670  2.3051
24301SOL     OW78032   2.528   8.627   3.403  0.0777 -0.1195 -0.0166
24301SOL    HW178033   2.540   8.686   3.328  1.5582 -1.4197 -0.8346
24301SOL    HW278034   2.523   8.540   3.364 -0.4807 -0.6890  1.3040
24302SOL     OW78035   2.838   4.268   0.533  0.6623  0.0782  0.1584
24302SOL    HW178036   2.848   4.241   0.442 -2.2556 -2.1965  0.4301
24302SOL    HW278037   2.848   4.187   0.583 -2.7966  0.3777  1.4550
24303SOL     OW78038   8.487   9.960   6.041 -0.2322  0.0060  0.2741
24303SOL    HW178039   8.520   9.981   6.128 -0.9265  0.4796  0.4281
24303SOL    HW278040   8.485  10.044   5.994  0.2291 -0.2577 -0.2333
24304SOL     OW78041   2.712   7.511   1.755 -0.1413  1.1402  0.0939
24304SOL    HW178042   2.617   7.514   1.760 -0.1716  1.7264 -0.7108
24304SOL    HW278043   2.741   7.574   1.821 -0.3068  1.0193  0.2841
24305SOL     OW78044   2.541   0.198   7.577 -0.4084 -0.2862  0.3952
24305SOL    HW178045   2.519   0.113   7.541  4.3156 -1.4464 -0.1334
24305SOL    HW278046   2.522   0.260   7.507  0.3773 -1.4671 -0.8797
24306SOL     OW78047   9.524   9.872   4.436  0.2791 -0.3738  0.3407
24306SOL    HW178048   9.435   9.876   4.403  0.0354  0.3881  1.0749
24306SOL    HW278049   9.531   9.947   4.495  1.7481  0.2103 -0.5618
24307SOL     OW78050   2.491   1.834   3.527  0.1256  0.1567  0.3600
24307SOL    HW178051   2.521   1.765   3.469  1.1429  0.7213  0.2075
24307SOL    HW278052   2.463   1.905   3.469  2.9316  1.4792  0.5371
24308SOL     OW78053  10.543   4.393   1.291  0.2767  0.3753  0.0942
24308SOL    HW178054  10.637   4.391   1.277  0.0728 -0.1493 -1.3630
24308SOL    HW278055  10.529   4.340   1.370  0.9486 -2.1045 -1.3922
24309SOL     OW78056   8.172   0.182   8.002 -0.2113 -0.1173 -0.5953
24309SOL    HW178057   8.168   0.226   8.087  2.3655 -1.0563  0.0581
24309SOL    HW278058   8.085   0.196   7.964 -0.8677  1.7453  1.4642
24310SOL     OW78059   2.817  10.281   5.265  0.2156  0.5698 -0.7766
24310SOL    HW178060   2.742  10.341   5.276  1.1866  1.6488  0.1846
24310SOL    HW278061   2.784  10.196   5.294 -0.4320  1.1982  0.4011
24311SOL     OW78062   1.145   7.462   6.374  0.2873 -0.5036  0.5144
24311SOL    HW178063   1.103   7.376   6.376  1.0528 -0.8826  0.4148
24311SOL    HW278064   1.130   7.494   6.285 -0.1740 -0.4457  0.6124
24312SOL     OW78065   5.517  11.049   4.578  0.5731 -0.2531 -0.0930
24312SOL    HW178066   5.505  11.118   4.513 -0.0071  0.1664  0.4661
24312SOL    HW278067   5.599  11.006   4.552  1.4571  1.2629  0.1275
24313SOL     OW78068   8.616   1.896   5.338  0.4904  0.1072  0.3815
24313SOL    HW178069   8.590   1.857   5.255  0.2812 -1.0011  0.9568
24313SOL    HW278070   8.594   1.830   5.404  0.9495  0.8389  1.2893
24314SOL     OW78071   2.444   0.822   5.518  0.6301  0.2785  0.2333
24314SOL    HW178072   2.441   0.744   5.574  2.2981  0.7225  0.9701
24314SOL    HW278073   2.378   0.881   5.556 -1.0700 -0.9919 -0.6971
24315SOL     OW78074   7.678   3.391   9.438  0.1653  0.4492 -0.5264
24315SOL    HW178075   7.747   3.335   9.474  0.9660  1.1101 -1.0064
24315SOL    HW278076   7.683   3.378   9.344  1.0843  2.1089 -0.7428
24316SOL     OW78077   0.355   4.272  10.844  0.3007  0.3320 -0.3999
24316SOL    HW178078   0.369   4.312  10.930 -0.4154  0.4918 -0.3574
24316SOL    HW278079   0.427   4.305  10.790  0.8824  0.0557  0.1914
24317SOL     OW78080   3.151   2.093   0.517 -0.5700 -0.3053 -0.1382
24317SOL    HW178081   3.079   2.038   0.486  0.2765  0.3844 -3.5693
24317SOL    HW278082   3.112   2.180   0.526 -0.7443 -0.4459  0.5160
24318SOL     OW78083  10.860   4.766   3.181  0.5442  0.0698  0.8718
24318SOL    HW178084  10.930   4.821   3.145  0.2499  0.2702  0.6082
24318SOL    HW278085  10.884   4.677   3.155  0.4821  0.1837  0.4203
24319SOL     OW78086   8.789   8.421   6.642  0.0237  0.6325 -0.1457
24319SOL    HW178087   8.818   8.330   6.643  2.6406  1.4337 -0.6337
24319SOL    HW278088   8.722   8.424   6.574 -0.2230 -0.9647  0.0075
24320SOL     OW78089   9.918   6.885   6.033 -0.1697 -0.7494 -0.0319
24320SOL    HW178090   9.957   6.821   6.093 -0.0745 -0.2333  0.4571
24320SOL    HW278091   9.859   6.937   6.087  0.9123  0.5770 -0.1123
24321SOL     OW78092   4.406   0.224   2.503 -0.0680  0.0770 -0.2376
24321SOL    HW178093   4.478   0.165   2.525  0.8485  1.3741  0.3152
24321SOL    HW278094   4.439   0.275   2.429 -0.1015  1.2031  0.4995
24322SOL     OW78095   2.946   7.875   2.055  0.4475 -0.0080  0.0105
24322SOL    HW178096   2.929   7.951   2.000 -1.0876  0.1775  0.7039
24322SOL    HW278097   3.033   7.844   2.029 -0.7127 -0.6268 -3.2978
24323SOL     OW78098   9.691  10.268   1.453 -0.5731 -0.3189 -0.1697
24323SOL    HW178099   9.661  10.196   1.508 -1.8345  0.6218  0.4186
24323SOL    HW278100   9.763  10.232   1.402  0.6279 -1.2192  2.1126
24324SOL     OW78101   4.233   3.818   2.926 -0.4400  0.4213 -0.1643
24324SOL    HW178102   4.262   3.829   3.017  0.1460  0.6942 -0.3839
24324SOL    HW278103   4.237   3.906   2.889 -2.2068  0.5821 -0.0120
24325SOL     OW78104   2.491   5.304   6.004 -0.3651  0.0152 -0.2559
24325SOL    HW178105   2.460   5.393   6.019 -0.7741 -0.0974 -0.4127
24325SOL    HW278106   2.439   5.273   5.930  0.0897 -0.1994 -0.4840
24326SOL     OW78107   7.690   6.309   2.931  0.4354  0.2140 -0.7754
24326SOL    HW178108   7.598   6.292   2.952  0.2327  2.5142  0.2547
24326SOL    HW278109   7.703   6.265   2.847 -1.5926 -0.1786 -0.9187
24327SOL     OW78110   7.873   8.663   1.494  0.3005 -0.2733  0.1393
24327SOL    HW178111   7.839   8.587   1.542  2.1666 -1.2043  0.0144
24327SOL    HW278112   7.843   8.738   1.545 -1.6239 -1.0677  0.2252
24328SOL     OW78113   1.541   0.963   2.410 -0.0643  0.3129  0.3498
24328SOL    HW178114   1.483   0.891   2.384  0.2709 -0.8104  2.6345
24328SOL    HW278115   1.625   0.922   2.429  0.2753  1.3688  1.2210
24329SOL     OW78116   1.623   7.979   0.637 -0.3305 -0.2127 -0.0289
24329SOL    HW178117   1.536   7.938   0.635 -0.3164 -0.2306 -0.5581
24329SOL    HW278118   1.660   7.954   0.721 -0.0568 -1.8720 -0.6159
24330SOL     OW78119   0.669   4.221  10.138  0.4844  0.3768  0.0163
24330SOL    HW178120   0.618   4.295  10.106 -1.0463 -0.9643 -0.7092
24330SOL    HW278121   0.678   4.163  10.062  1.2914 -0.3999  0.6908
24331SOL     OW78122   5.834   3.890   4.201  0.1073 -0.7321 -0.4294
24331SOL    HW178123   5.758   3.936   4.237  1.2785  1.6737 -0.9146
24331SOL    HW278124   5.905   3.910   4.262  1.4155  0.9445 -2.4241
24332SOL     OW78125   4.135   0.585   1.394  0.1772  0.3436  0.3605
24332SOL    HW178126   4.115   0.623   1.479 -0.7641  0.3522  0.1429
24332SOL    HW278127   4.095   0.498   1.396  0.6388  0.1213  0.1325
24333SOL     OW78128   1.784   6.769   6.580 -0.2496  0.0887 -0.1184
24333SOL    HW178129   1.801   6.863   6.582 -0.7483  0.1645  0.9372
24333SOL    HW278130   1.733   6.752   6.659 -0.6556 -0.9771 -0.5989
24334SOL     OW78131   6.443  10.317   9.722 -0.2822 -0.5172 -0.6311
24334SOL    HW178132   6.354  10.281   9.724 -0.5086  0.0700 -0.0302
24334SOL    HW278133   6.433  10.408   9.751  0.6306 -0.6882  0.2330
24335SOL     OW78134   0.717   0.582   9.005 -0.4544 -0.0436  0.5577
24335SOL    HW178135   0.723   0.493   8.970 -0.0380  0.0942  0.2651
24335SOL    HW278136   0.658   0.628   8.946 -1.1404 -0.2886  1.0577
24336SOL     OW78137   4.858   6.802  10.248 -0.3594  0.2709  0.0475
24336SOL    HW178138   4.942   6.845  10.265 -0.4379  0.2750  0.4251
24336SOL    HW278139   4.828   6.772  10.334  0.9876 -2.9582 -0.5311
24337SOL     OW78140   4.628   7.124   9.189 -0.5929 -0.2905 -0.0593
24337SOL    HW178141   4.647   7.115   9.095 -1.3255  0.6752 -0.3168
24337SOL    HW278142   4.533   7.110   9.195 -0.7409  0.8430  0.3582
24338SOL     OW78143   6.313   9.562   5.380 -0.3724 -0.4053  0.2993
24338SOL    HW178144   6.217   9.561   5.388 -0.3878  2.3548  1.0979
24338SOL    HW278145   6.329   9.573   5.286 -0.8345 -0.5613  0.2004
24339SOL     OW78146   2.977   5.053   9.546  0.2320  0.6685  0.5012
24339SOL    HW178147   3.044   5.079   9.483  1.2260 -1.5993  0.5672
24339SOL    HW278148   2.902   5.028   9.492 -0.1504  2.0966  0.3744
24340SOL     OW78149  11.242   3.889   9.050  0.1022  0.3438 -0.1193
24340SOL    HW178150  11.170   3.921   9.105  0.1700 -0.8562  0.6852
24340SOL    HW278151  11.206   3.811   9.007  0.8590 -0.1404  0.1302
24341SOL     OW78152   1.703   0.554   5.008 -0.7233  0.1612 -0.4296
24341SOL    HW178153   1.662   0.604   5.079  0.7755  0.8523 -0.0327
24341SOL    HW278154   1.637   0.552   4.939 -1.3763  1.3729  0.1430
24342SOL     OW78155   9.295   8.536   3.360  0.5760 -0.7006  0.1574
24342SOL    HW178156   9.300   8.487   3.278  1.4931  1.0199 -0.8731
24342SOL    HW278157   9.386   8.560   3.378  0.1858  0.3282  0.7871
24343SOL     OW78158   9.216   8.126   3.006  0.2489  0.1998  0.6497
24343SOL    HW178159   9.151   8.098   3.071 -0.1669  0.7725  0.4849
24343SOL    HW278160   9.199   8.219   2.994 -0.1194 -0.0339 -0.7719
24344SOL     OW78161   3.002   4.441   4.706 -0.0198  0.4745  0.3963
24344SOL    HW178162   3.090   4.405   4.696 -0.5446 -0.9803  0.9160
24344SOL    HW278163   2.966   4.442   4.617  0.6432  1.4526  0.1218
24345SOL     OW78164   2.218   3.927   5.549 -0.0978  0.4559  0.5302
24345SOL    HW178165   2.129   3.929   5.514 -0.0173  2.0440  0.3586
24345SOL    HW278166   2.274   3.920   5.471 -0.0691 -0.8388  0.6540
24346SOL     OW78167  10.765   0.743   4.070  0.9458 -0.1771 -0.2854
24346SOL    HW178168  10.810   0.710   4.148  0.2299 -1.1419 -0.2634
24346SOL    HW278169  10.673   0.745   4.095  0.4325 -2.5169 -1.7504
24347SOL     OW78170   8.002   6.832   1.573  0.2547  0.0486 -0.1890
24347SOL    HW178171   7.911   6.843   1.600 -0.0393 -1.9453 -0.2968
24347SOL    HW278172   8.053   6.852   1.652 -0.2959  0.4229  0.0759
24348SOL     OW78173   1.680   1.904   9.968 -0.3523  0.2562 -0.1158
24348SOL    HW178174   1.636   1.828  10.006  0.0062 -0.2207 -0.6312
24348SOL    HW278175   1.655   1.977  10.023  1.2397 -0.6382  1.8596
24349SOL     OW78176   0.740   4.654   4.152 -0.3891 -0.9245  0.1189
24349SOL    HW178177   0.678   4.632   4.082 -1.1520  1.3126  0.0735
24349SOL    HW278178   0.823   4.671   4.106 -0.7417 -0.0289 -0.1873
24350SOL     OW78179   0.978   9.567   7.139 -0.1048 -0.3163  0.2601
24350SOL    HW178180   1.041   9.526   7.198  0.4984  0.2668  0.0292
24350SOL    HW278181   0.975   9.659   7.167  1.0132  0.2234 -1.2893
24351SOL     OW78182   2.321  10.459   6.669 -0.2511 -0.5734 -0.0806
24351SOL    HW178183   2.319  10.514   6.748  1.1959 -1.5284  0.6266
24351SOL    HW278184   2.351  10.374   6.700  0.2274 -0.9865 -1.6574
24352SOL     OW78185   5.443   9.171   5.754 -0.5405 -0.1396  0.0850
24352SOL    HW178186   5.360   9.140   5.718 -1.0170  2.3065 -0.9736
24352SOL    HW278187   5.423   9.193   5.845 -0.5842 -1.3249  0.3737
24353SOL     OW78188   9.765   2.888   2.611 -0.3170  0.0508  0.4774
24353SOL    HW178189   9.683   2.871   2.565 -0.4754  0.9274  0.4191
24353SOL    HW278190   9.761   2.981   2.633  0.5994  0.0631  0.6066
24354SOL     OW78191   2.440   4.931   2.702  0.1225  0.4023 -0.1406
24354SOL    HW178192   2.415   4.855   2.648 -0.8587 -0.1971  1.1323
24354SOL    HW278193   2.430   5.006   2.642 -1.5589 -0.1883 -0.6460
24355SOL     OW78194   5.719  10.194  10.552 -0.4870  0.7097 -0.2880
24355SOL    HW178195   5.656  10.135  10.512  0.4878 -2.5527  2.7101
24355SOL    HW278196   5.799  10.183  10.500 -0.3377 -0.6025  0.1984
24356SOL     OW78197   2.178   1.761   5.970 -0.7128  0.9414 -0.2930
24356SOL    HW178198   2.139   1.756   6.058 -0.3091  0.1659 -0.1599
24356SOL    HW278199   2.177   1.671   5.938 -2.9821  1.5475 -2.0267
24357SOL     OW78200   9.586   0.333   7.643  0.5920  0.2062 -0.4690
24357SOL    HW178201   9.573   0.328   7.548  1.0513 -0.4822 -0.4950
24357SOL    HW278202   9.677   0.305   7.656  0.2665 -0.4964  0.2598
24358SOL     OW78203   7.202   6.737   9.465 -0.0193 -0.8007  0.5475
24358SOL    HW178204   7.264   6.794   9.511  0.8423 -1.8569  0.7133
24358SOL    HW278205   7.139   6.798   9.427  0.8835  0.2792  0.7127
24359SOL     OW78206   7.076  11.319   9.872  0.5689 -0.4021 -0.2169
24359SOL    HW178207   7.153  11.263   9.881 -1.6770 -3.9224 -2.0053
24359SOL    HW278208   7.032  11.314   9.957  2.6450  2.3315  1.1158
24360SOL     OW78209  10.193   2.192   5.626  0.3523  0.4720  0.3476
24360SOL    HW178210  10.132   2.185   5.699 -0.4417  2.1344 -0.1309
24360SOL    HW278211  10.280   2.194   5.667 -0.0832  1.4406  1.2469
24361SOL     OW78212   2.000   1.189   6.207  0.0689  0.5504 -0.0352
24361SOL    HW178213   1.995   1.120   6.141  0.2135  0.1265  0.3997
24361SOL    HW278214   1.997   1.270   6.157 -0.8396  0.2343 -0.5055
24362SOL     OW78215   4.468   6.872  10.706  0.2513  0.6648 -0.6626
24362SOL    HW178216   4.520   6.891  10.627  3.5904 -0.4176  1.1904
24362SOL    HW278217   4.501   6.933  10.771  1.5004 -2.1898  1.4697
24363SOL     OW78218   7.949   7.332   6.903 -0.8227  0.3365 -0.4454
24363SOL    HW178219   8.030   7.286   6.879 -1.7661 -2.0287  0.7872
24363SOL    HW278220   7.979   7.410   6.950  0.7622  0.1289 -1.0661
24364SOL     OW78221  11.322   3.858   7.993  0.0250  0.3318  0.1283
24364SOL    HW178222  11.384   3.785   7.988 -2.4823 -1.7154 -2.5838
24364SOL    HW278223  11.272   3.841   8.073  0.9597  0.3574  0.7273
24365SOL     OW78224   0.371   9.424  10.547  0.0887  0.1072  0.2901
24365SOL    HW178225   0.403   9.515  10.543  1.3126 -0.2389  1.6795
24365SOL    HW278226   0.429   9.376  10.488 -1.0981  0.3688 -1.1034
24366SOL     OW78227   6.309   3.998   6.520 -0.0491 -0.1070  0.4980
24366SOL    HW178228   6.286   3.972   6.609 -1.2546  0.1202  0.2600
24366SOL    HW278229   6.323   4.092   6.525  1.9291 -0.3945  0.8593
24367SOL     OW78230   4.852   3.572   3.470 -0.2230  0.6391  0.1134
24367SOL    HW178231   4.912   3.583   3.544 -2.3653 -2.0957  2.4357
24367SOL    HW278232   4.902   3.523   3.405  0.3449 -1.0254  1.7406
24368SOL     OW78233   5.316   1.942   3.151  0.2200 -0.1033 -0.2644
24368SOL    HW178234   5.259   2.016   3.129 -0.5501 -0.5346  0.2654
24368SOL    HW278235   5.400   1.964   3.110 -0.4955  0.2395 -1.5590
24369SOL     OW78236   3.400   6.923   5.424 -0.4036 -0.2943 -0.1660
24369SOL    HW178237   3.414   6.916   5.519  0.8771  0.3375 -0.2977
24369SOL    HW278238   3.417   6.834   5.391  2.7352  0.2745 -0.2247
24370SOL     OW78239   7.801   6.422   4.685  0.5381  0.1101 -0.1696
24370SOL    HW178240   7.786   6.492   4.622 -0.5839 -0.5561 -0.6679
24370SOL    HW278241   7.830   6.348   4.632  0.0206 -0.3201  0.1335
24371SOL     OW78242   3.804   6.152   5.934  0.2048 -0.3456  0.0993
24371SOL    HW178243   3.761   6.221   5.882 -0.8705 -1.7055 -0.8557
24371SOL    HW278244   3.895   6.181   5.941  0.2653  0.1264 -2.1492
24372SOL     OW78245   1.121   1.615   5.989  0.3883 -0.8684  0.4914
24372SOL    HW178246   1.102   1.667   5.911 -1.5765 -1.4978  0.5172
24372SOL    HW278247   1.196   1.658   6.029 -0.0847  0.8850 -0.4591
24373SOL     OW78248   0.817  10.761   5.471  0.0374 -0.0384 -0.2860
24373SOL    HW178249   0.860  10.738   5.389  0.0956 -0.0404 -0.2552
24373SOL    HW278250   0.725  10.770   5.448 -0.3784 -2.6201  0.1490
24374SOL     OW78251  10.180  11.278   8.071 -0.8746  0.3840 -0.0568
24374SOL    HW178252  10.114  11.343   8.093 -2.1681 -1.1536  0.7267
24374SOL    HW278253  10.185  11.222   8.149  0.3551 -0.3285 -0.6302
24375SOL     OW78254   0.980   9.152   6.464 -0.1099  0.0064  0.3877
24375SOL    HW178255   0.965   9.178   6.555 -0.0400 -1.7385  0.9064
24375SOL    HW278256   0.928   9.073   6.452  1.5371 -0.9777 -0.4572
24376SOL     OW78257  11.129   9.723   6.689 -0.2504  0.4319  0.5578
24376SOL    HW178258  11.114   9.646   6.634  0.5737 -0.6300  1.7840
24376SOL    HW278259  11.119   9.797   6.630 -2.5961 -0.5233 -0.3292
24377SOL     OW78260   2.573  10.375   5.935 -0.0608 -0.3307 -0.3015
24377SOL    HW178261   2.489  10.344   5.969  1.1764 -2.0625  1.2777
24377SOL    HW278262   2.589  10.322   5.857  0.0531 -0.7200 -0.0129
24378SOL     OW78263   9.945   5.639   7.941  0.1275  0.1439  0.0897
24378SOL    HW178264  10.002   5.571   7.905 -2.1593 -0.8832 -1.7838
24378SOL    HW278265   9.873   5.644   7.878 -0.9932  2.5604  1.5247
24379SOL     OW78266   2.866   1.534   2.379  0.8393  0.3389 -0.1975
24379SOL    HW178267   2.858   1.628   2.366  1.1208  0.4999  0.7407
24379SOL    HW278268   2.801   1.514   2.447 -0.9437 -0.5528 -2.0857
24380SOL     OW78269   6.690  11.180   0.195  0.4780 -0.2163 -0.3584
24380SOL    HW178270   6.616  11.153   0.249 -1.7735  1.2215 -2.6060
24380SOL    HW278271   6.755  11.110   0.207 -0.5719 -0.7380  2.8580
24381SOL     OW78272   8.381   0.838  10.661  0.4114  0.3633 -0.2074
24381SOL    HW178273   8.411   0.928  10.645  1.5072 -0.2807 -1.8771
24381SOL    HW278274   8.399   0.792  10.580 -0.3825 -1.3275  0.5493
24382SOL     OW78275   6.112   3.383   4.952  0.0147  0.1350  0.4250
24382SOL    HW178276   6.090   3.292   4.971 -1.3660  0.0821 -1.3030
24382SOL    HW278277   6.090   3.430   5.032  1.0357 -1.0937  1.4349
24383SOL     OW78278   4.763   2.562   6.938  0.3043 -0.6696  0.7164
24383SOL    HW178279   4.783   2.642   6.986 -0.0272 -0.4246  0.4465
24383SOL    HW278280   4.689   2.585   6.882 -1.0732 -1.7205  2.0752
24384SOL     OW78281   0.369   4.872   6.613 -0.1026 -0.5595 -0.1579
24384SOL    HW178282   0.439   4.899   6.553  0.6637 -0.6260  0.6932
24384SOL    HW278283   0.373   4.777   6.614  0.0651 -0.5498  0.2048
24385SOL     OW78284  11.317   2.116   3.615  0.0163  0.2807  0.0372
24385SOL    HW178285  11.287   2.064   3.540  0.2508 -0.1313  0.2245
24385SOL    HW278286  11.364   2.053   3.670  1.5500  0.9787 -0.4332
24386SOL     OW78287   7.597   3.499   8.455  0.3108  0.0209  0.0980
24386SOL    HW178288   7.557   3.480   8.369  0.5870 -1.8317  0.3501
24386SOL    HW278289   7.663   3.565   8.437 -0.4515  0.5171 -0.9280
24387SOL     OW78290   1.431   3.330   3.086 -0.5973  0.3801  0.3448
24387SOL    HW178291   1.441   3.284   3.170 -2.4761 -0.9275 -0.1171
24387SOL    HW278292   1.368   3.400   3.105 -2.0857 -0.7781 -0.2943
24388SOL     OW78293   2.616   9.147   3.416  0.5711 -0.8530 -0.2734
24388SOL    HW178294   2.695   9.201   3.411 -0.9547  1.3076 -2.1056
24388SOL    HW278295   2.646   9.060   3.392  2.5896 -0.2978  0.0804
24389SOL     OW78296   3.236   4.724   3.700 -0.0541 -0.0207  0.2128
24389SOL    HW178297   3.221   4.789   3.632 -1.4483 -1.2182 -0.6622
24389SOL    HW278298   3.331   4.708   3.698 -0.2042 -0.8846 -2.2634
24390SOL     OW78299   0.171   7.067   7.188 -0.5874  0.6043 -0.9005
24390SOL    HW178300   0.138   7.106   7.268 -1.1872  0.6021 -1.1411
24390SOL    HW278301   0.226   6.994   7.217  0.0223  1.2256 -0.4697
24391SOL     OW78302   1.313   4.507   0.276  0.1431 -0.3411  0.6017
24391SOL    HW178303   1.235   4.525   0.223 -0.9157  0.9398  2.5137
24391SOL    HW278304   1.367   4.585   0.265  0.0054 -0.1535  1.2518
24392SOL     OW78305   8.520   9.088   9.100 -0.4613 -0.0589  0.2272
24392SOL    HW178306   8.510   8.993   9.108 -1.0158 -0.0495 -0.3935
24392SOL    HW278307   8.586   9.110   9.167  0.3018 -0.9917 -0.2023
24393SOL     OW78308   6.251   2.890   8.403  0.0016  0.2764 -0.4575
24393SOL    HW178309   6.320   2.956   8.409 -0.1514  0.3771  0.1396
24393SOL    HW278310   6.170   2.937   8.421  0.0221 -0.3343  1.3372
24394SOL     OW78311   7.239   0.975   4.708  0.3091  0.0826 -0.4259
24394SOL    HW178312   7.254   1.027   4.629 -0.6592  0.4725 -0.3579
24394SOL    HW278313   7.211   1.037   4.774  1.6207 -0.1690  0.3999
24395SOL     OW78314   4.290  10.793   0.062  0.0782  0.3306 -0.0073
24395SOL    HW178315   4.334  10.841  -0.008 -0.9168  2.5106  0.8053
24395SOL    HW278316   4.234  10.729   0.017  0.6069  0.6613 -1.1419
24396SOL     OW78317   2.963  10.892   9.752  0.4009  0.1906  0.3044
24396SOL    HW178318   2.897  10.850   9.808 -0.6231  0.5300 -0.6188
24396SOL    HW278319   3.025  10.931   9.813 -0.2467 -0.1515  1.1996
24397SOL     OW78320   2.365  11.181   3.709  0.5843  0.0041 -0.1276
24397SOL    HW178321   2.431  11.217   3.767 -0.4440  1.0619  0.4025
24397SOL    HW278322   2.302  11.138   3.767  0.0994  0.1600 -0.5320
24398SOL     OW78323  10.119   8.350  10.126  0.1799 -0.6035  0.5523
24398SOL    HW178324  10.080   8.389  10.204  0.0427 -0.7769  0.5721
24398SOL    HW278325  10.052   8.361  10.058 -0.2304 -1.6021  0.7830
24399SOL     OW78326   6.777   4.922   1.999 -0.0807 -0.5833  0.6437
24399SOL    HW178327   6.831   4.848   1.973  0.0384 -1.0511  2.1535
24399SOL    HW278328   6.838   4.982   2.042 -0.5345 -0.5654  1.2757
24400SOL     OW78329   7.864   3.615   9.857 -0.2449  0.1328  0.3352
24400SOL    HW178330   7.822   3.636   9.941  1.6297  1.6686  0.9164
24400SOL    HW278331   7.836   3.686   9.798  0.1393  0.2056  0.2409
24401SOL     OW78332   1.884   8.813   3.557 -0.1037 -0.2906 -0.0024
24401SOL    HW178333   1.965   8.863   3.568 -1.0916  1.1314  0.9050
24401SOL    HW278334   1.828   8.870   3.503 -2.0373  0.5398  2.7892
24402SOL     OW78335  10.462  10.425   3.619 -0.0654  0.2057 -0.3157
24402SOL    HW178336  10.495  10.500   3.669 -0.7508  0.1769  0.1902
24402SOL    HW278337  10.490  10.349   3.670 -0.9135  0.1832  0.1246
24403SOL     OW78338   8.542   1.636  10.091 -0.0876 -0.1681  0.0755
24403SOL    HW178339   8.579   1.548  10.086  0.9795  0.3244 -1.0965
24403SOL    HW278340   8.509   1.643  10.180 -0.2351 -1.7742  0.1678
24404SOL     OW78341   1.480   0.889   3.837  0.5804  0.8704 -0.1763
24404SOL    HW178342   1.547   0.885   3.768  0.4265 -1.6911 -0.2407
24404SOL    HW278343   1.529   0.885   3.919  0.5489 -0.4023 -0.2149
24405SOL     OW78344   1.479  10.096   1.741 -0.3310 -0.5588 -0.5380
24405SOL    HW178345   1.525  10.027   1.788  1.3434 -1.0136 -2.7555
24405SOL    HW278346   1.392  10.060   1.724 -0.2895 -1.1477  0.4818
24406SOL     OW78347   6.266   1.553   1.455 -0.3095  0.1838 -0.1845
24406SOL    HW178348   6.282   1.473   1.404 -1.4573  0.6534 -1.2979
24406SOL    HW278349   6.351   1.596   1.458  0.0661 -0.5033 -0.5799
24407SOL     OW78350   3.835  11.030   2.013  0.6346 -0.0453  0.2445
24407SOL    HW178351   3.775  11.010   2.086  1.9691  2.0414  1.9847
24407SOL    HW278352   3.912  10.976   2.030  1.0870  0.6987  0.6159
24408SOL     OW78353   8.296   1.421   8.465 -0.2627 -0.2572 -0.1592
24408SOL    HW178354   8.390   1.418   8.481 -0.1770 -0.6427 -0.7236
24408SOL    HW278355   8.257   1.395   8.548  0.1518 -0.9753 -0.1881
24409SOL     OW78356   2.956   0.843   6.134  0.0757  0.4939 -0.0246
24409SOL    HW178357   3.012   0.806   6.203 -0.8154  1.4491  1.2298
24409SOL    HW278358   2.867   0.832   6.168 -0.3442  1.3356 -0.8524
24410SOL     OW78359   9.471   6.693   8.153 -0.1903 -0.0628  0.0413
24410SOL    HW178360   9.509   6.605   8.151 -1.2262 -0.5822  1.9894
24410SOL    HW278361   9.543   6.752   8.132  0.2859 -1.4332 -2.3708
24411SOL     OW78362   7.095   2.715   0.072  0.0562  0.2833 -0.9000
24411SOL    HW178363   7.105   2.656  -0.003 -1.1656 -0.8743 -0.1688
24411SOL    HW278364   7.181   2.756   0.081  0.4296 -0.1109 -2.4817
24412SOL     OW78365   9.007   3.994   7.969 -0.1298  0.2908  0.3970
24412SOL    HW178366   9.065   3.948   7.908 -0.7247 -2.3366  1.7586
24412SOL    HW278367   9.056   4.073   7.993  1.1390  0.1407 -1.5737
24413SOL     OW78368  11.256   8.364   8.439 -0.2641  0.0949 -0.4714
24413SOL    HW178369  11.290   8.285   8.396 -0.9695 -1.1609  1.2205
24413SOL    HW278370  11.294   8.362   8.527  0.1058  1.9304 -0.5760
24414SOL     OW78371   1.150   6.548   1.798  0.3285 -0.0349  0.2103
24414SOL    HW178372   1.099   6.629   1.808 -0.7162 -0.4464 -1.5831
24414SOL    HW278373   1.086   6.478   1.803  0.9560 -0.6511 -0.2739
24415SOL     OW78374   1.521   6.437   6.802 -0.5667 -0.1654 -0.7006
24415SOL    HW178375   1.541   6.530   6.794 -0.6935 -0.0319  0.5609
24415SOL    HW278376   1.587   6.394   6.747  0.3383  0.5712 -0.1940
24416SOL     OW78377   1.566   3.614   4.121 -0.3548 -0.0709  0.0227
24416SOL    HW178378   1.484   3.613   4.171 -1.5061  0.8304 -1.7987
24416SOL    HW278379   1.612   3.534   4.148 -1.1315  0.1920  2.1948
24417SOL     OW78380   4.228   2.912   8.555  0.0951  0.5868  0.7534
24417SOL    HW178381   4.232   2.817   8.560 -2.6944  0.3261 -1.0922
24417SOL    HW278382   4.319   2.941   8.566  1.4302 -2.4445 -1.8221
24418SOL     OW78383   1.017   0.205   3.597  0.1711  0.0693 -0.5611
24418SOL    HW178384   1.078   0.226   3.525 -0.8865 -0.3685 -1.6055
24418SOL    HW278385   0.933   0.194   3.554 -0.6181  0.4434  0.8523
24419SOL     OW78386   5.045   3.843   1.630  0.1030  0.3027 -0.0735
24419SOL    HW178387   5.064   3.805   1.545  1.9754  0.1903  0.3718
24419SOL    HW278388   4.998   3.774   1.677 -1.8821  0.7457 -1.3490
24420SOL     OW78389   2.900   8.502   0.434  0.1067 -0.0318  0.2087
24420SOL    HW178390   2.890   8.407   0.441  1.3230 -0.1495  0.4531
24420SOL    HW278391   2.895   8.520   0.340  0.8974 -0.4634  0.0783
24421SOL     OW78392  10.930   4.873   8.391  0.2899 -0.1211 -0.4392
24421SOL    HW178393  11.014   4.877   8.437 -0.2665  0.5053  0.5247
24421SOL    HW278394  10.879   4.808   8.440  0.1332 -0.3380 -0.8922
24422SOL     OW78395   9.049   3.930   9.677  0.0703  0.0318  0.1012
24422SOL    HW178396   8.969   3.912   9.727  1.6439 -0.4599  2.5366
24422SOL    HW278397   9.120   3.912   9.739  2.0578  0.8652 -1.8887
24423SOL     OW78398   4.224   8.090  10.886  0.2431 -0.0368 -0.1900
24423SOL    HW178399   4.238   8.176  10.847 -2.8434  0.5942  0.0303
24423SOL    HW278400   4.217   8.030  10.812 -0.6351  0.3676 -0.4276
24424SOL     OW78401   5.110   4.360   4.243 -0.5695 -0.0416 -0.0571
24424SOL    HW178402   5.119   4.309   4.162 -0.1387 -0.6379  0.3652
24424SOL    HW278403   5.049   4.309   4.296 -0.3570  0.0265  0.2505
24425SOL     OW78404   3.054   1.814   4.173  0.2641  0.6077  0.1915
24425SOL    HW178405   3.031   1.758   4.099  1.6420  0.2888 -0.0230
24425SOL    HW278406   3.025   1.902   4.148  0.5417  0.4633 -0.6556
24426SOL     OW78407  11.136   4.915   5.559 -0.0255  0.1893 -0.4984
24426SOL    HW178408  11.122   4.917   5.464  0.3839 -0.8652 -0.5951
24426SOL    HW278409  11.187   4.993   5.578 -2.1952  1.7278 -0.7828
24427SOL     OW78410   0.404   0.667   6.235 -0.4549 -0.6093  0.0680
24427SOL    HW178411   0.347   0.732   6.194 -0.7837 -0.4767  0.7235
24427SOL    HW278412   0.345   0.609   6.282  0.0727  1.0332  2.9093
24428SOL     OW78413   0.181   2.572  10.655  0.3695  0.2744  0.7256
24428SOL    HW178414   0.196   2.479  10.638 -1.7060 -0.3167  1.9727
24428SOL    HW278415   0.086   2.579  10.666  0.6402  2.3115  1.8958
24429SOL     OW78416   8.225   9.675   3.363  0.3725 -0.2442  0.0591
24429SOL    HW178417   8.266   9.761   3.369 -1.2450  0.5571 -0.1635
24429SOL    HW278418   8.274   9.630   3.294  0.8591  0.6923 -0.2180
24430SOL     OW78419   1.026   1.016   4.282  0.5793 -0.2284  0.4135
24430SOL    HW178420   1.108   1.037   4.327  0.7461  2.0930 -0.8687
24430SOL    HW278421   0.959   1.062   4.332  0.5107  0.6797 -0.4864
24431SOL     OW78422   4.046   0.671   2.754  0.3885  0.4043 -0.0264
24431SOL    HW178423   4.059   0.634   2.666 -0.4750  0.6740 -0.2752
24431SOL    HW278424   4.000   0.602   2.802  0.2192  0.5345 -0.0016
24432SOL     OW78425   3.505   5.465   7.109 -0.4947 -0.6539  0.9114
24432SOL    HW178426   3.438   5.413   7.153 -3.4489  2.5675  0.4198
24432SOL    HW278427   3.578   5.468   7.172 -2.5348 -0.6014  3.3712
24433SOL     OW78428   4.745   2.918   0.372 -0.0978  0.0905 -0.6268
24433SOL    HW178429   4.745   2.823   0.383 -0.0915  0.1673  0.0193
24433SOL    HW278430   4.653   2.943   0.378 -0.0889  0.1402 -0.6911
24434SOL     OW78431   4.630  10.280  10.094  0.3268  0.2990  0.1663
24434SOL    HW178432   4.685  10.342  10.142  1.1536 -1.7492  1.9173
24434SOL    HW278433   4.688  10.208  10.071 -1.1191 -0.8810  0.1391
24435SOL     OW78434   3.808  10.017   5.378 -0.0779 -0.5997 -0.2930
24435SOL    HW178435   3.728  10.066   5.398 -0.3708 -0.6303 -1.3988
24435SOL    HW278436   3.838   9.986   5.464 -0.1697  1.0751  0.3607
24436SOL     OW78437  10.542   7.590   2.131  0.0072 -0.2208 -0.0025
24436SOL    HW178438  10.476   7.568   2.196  0.7082 -0.3278  0.6878
24436SOL    HW278439  10.493   7.602   2.049 -0.6952 -1.7740  0.1730
24437SOL     OW78440   8.033   8.071  10.450  0.3012  0.5415  0.2308
24437SOL    HW178441   8.094   8.080  10.378  0.7343 -0.1180  0.5081
24437SOL    HW278442   8.038   7.978  10.475 -1.9372  0.1072 -0.7329
24438SOL     OW78443   8.313   7.386   5.475  0.4525 -0.2606  0.0620
24438SOL    HW178444   8.338   7.456   5.535  1.1410  0.4099 -0.9975
24438SOL    HW278445   8.276   7.431   5.399  1.0151 -1.0371 -0.6835
24439SOL     OW78446   0.881   1.839   9.380 -0.3689 -0.0803  0.5346
24439SOL    HW178447   0.973   1.819   9.399 -0.1865  0.1437 -0.0799
24439SOL    HW278448   0.869   1.813   9.289 -0.1821  2.3210 -0.2336
24440SOL     OW78449   9.448   8.124   3.917  0.5597  0.2958 -0.1330
24440SOL    HW178450   9.521   8.069   3.890  1.7982  1.5138  0.6791
24440SOL    HW278451   9.485   8.211   3.926 -0.5993  0.6170  1.9351
24441SOL     OW78452   6.236   6.027   0.494  0.0620 -0.1926  0.1640
24441SOL    HW178453   6.230   5.939   0.457  1.2376 -1.1293  2.1454
24441SOL    HW278454   6.307   6.022   0.558 -0.1410  2.0834  0.6125
24442SOL     OW78455   6.398   0.331   2.840 -0.1795 -0.5728 -0.1633
24442SOL    HW178456   6.354   0.323   2.924  0.5463 -0.2834  0.2448
24442SOL    HW278457   6.438   0.418   2.841  2.0782 -1.5799  0.2851
24443SOL     OW78458   8.878   8.564  11.043  0.1136 -0.0326  0.3215
24443SOL    HW178459   8.904   8.589  10.954 -0.9063  1.7988  0.5228
24443SOL    HW278460   8.883   8.645  11.094 -1.0233 -0.6988  1.5245
24444SOL     OW78461  10.760   2.016  10.867  0.3413 -0.1080 -0.2553
24444SOL    HW178462  10.687   2.008  10.805  1.4796  0.0584 -1.6573
24444SOL    HW278463  10.833   1.972  10.823  0.9608 -0.7217  1.3549
24445SOL     OW78464   9.358   4.723   6.791 -0.2335  0.0428  0.0455
24445SOL    HW178465   9.448   4.741   6.817 -0.0208 -1.6599  0.5453
24445SOL    HW278466   9.325   4.663   6.858 -1.7480  0.6660 -0.1196
24446SOL     OW78467   9.736   9.552  11.159 -0.0491  0.0537 -0.1708
24446SOL    HW178468   9.690   9.628  11.195 -1.7589 -1.1205  0.2380
24446SOL    HW278469   9.810   9.539  11.218 -0.6662  0.4535  0.7084
24447SOL     OW78470   4.451   9.991   2.927 -0.1051  0.1090  0.3679
24447SOL    HW178471   4.381  10.043   2.966  1.0395  0.7339  1.6306
24447SOL    HW278472   4.512  10.055   2.890 -0.4724 -0.4403 -1.2572
24448SOL     OW78473   3.626   6.385   8.328  0.3495 -0.2091  0.2352
24448SOL    HW178474   3.649   6.383   8.235  0.2663 -1.5711  0.2239
24448SOL    HW278475   3.553   6.324   8.335 -0.6750  1.0774  0.9449
24449SOL     OW78476   9.701   1.608  10.478  0.1317 -0.4746 -0.2501
24449SOL    HW178477   9.749   1.551  10.539  0.5507 -0.6185 -0.7159
24449SOL    HW278478   9.683   1.687  10.529  0.4124 -0.6292  0.0936
24450SOL     OW78479   5.589  11.292  10.776 -0.3579 -0.7332  0.3132
24450SOL    HW178480   5.669  11.345  10.769 -0.8569 -0.2406 -1.9626
24450SOL    HW278481   5.620  11.201  10.776  0.6193 -0.5749  5.6362
24451SOL     OW78482   6.096   9.575   4.058  0.4274  0.7031  0.3244
24451SOL    HW178483   6.101   9.485   4.024 -0.0473  0.1690  1.6520
24451SOL    HW278484   6.023   9.614   4.010 -1.2920 -0.5524  1.8342
24452SOL     OW78485   6.898   8.766   4.573 -0.3850 -0.0452 -0.1797
24452SOL    HW178486   6.837   8.815   4.517  1.2477 -0.3346 -2.2390
24452SOL    HW278487   6.958   8.833   4.606 -0.4176 -0.1124  0.0174
24453SOL     OW78488   2.180   3.057   0.292 -0.1679 -0.0520  0.4741
24453SOL    HW178489   2.204   3.024   0.378  3.7360  0.0317 -0.5172
24453SOL    HW278490   2.140   2.982   0.248 -1.6857 -0.2378  2.1181
24454SOL     OW78491   4.818   1.378   1.215  0.0680  0.0558 -0.1104
24454SOL    HW178492   4.910   1.357   1.235  1.1666  3.0610 -1.7206
24454SOL    HW278493   4.804   1.340   1.128  0.0616  0.3275 -0.2289
24455SOL     OW78494   7.392   6.708   4.632 -0.4064 -0.0019  0.1033
24455SOL    HW178495   7.305   6.737   4.660 -0.4265  0.5668 -0.5301
24455SOL    HW278496   7.378   6.623   4.592 -0.6336 -0.0252  0.2353
24456SOL     OW78497   7.781   0.086   6.931 -0.3368 -0.3414 -0.8839
24456SOL    HW178498   7.729   0.022   6.882 -0.0035  0.2825 -2.0745
24456SOL    HW278499   7.865   0.089   6.885  0.7506 -1.2824  0.9716
24457SOL     OW78500   1.331   3.148   7.187 -0.3710  0.3745  0.0110
24457SOL    HW178501   1.411   3.181   7.228  0.0881 -1.4446  0.6701
24457SOL    HW278502   1.264   3.211   7.211  0.7461  1.6003 -0.0182
24458SOL     OW78503   6.368   3.871   3.668  0.0432 -0.2080  0.0068
24458SOL    HW178504   6.327   3.859   3.582 -0.0515  0.5112 -0.0541
24458SOL    HW278505   6.301   3.844   3.730 -1.0344  2.2354 -0.0473
24459SOL     OW78506   2.476   4.839   8.141  0.0098 -0.2587 -0.1322
24459SOL    HW178507   2.515   4.901   8.078 -1.1832 -0.2039 -0.8285
24459SOL    HW278508   2.400   4.804   8.095 -0.5372 -0.6606  1.0853
24460SOL     OW78509   5.619  11.191   5.290  0.4540  0.2007  0.1064
24460SOL    HW178510   5.583  11.180   5.378  1.6337  1.4686  0.7617
24460SOL    HW278511   5.550  11.237   5.242 -0.0426 -0.1544  0.4698
24461SOL     OW78512  10.480   4.469   5.384 -0.2467  0.2246  0.4071
24461SOL    HW178513  10.451   4.399   5.326 -0.6100  1.1483 -0.5445
24461SOL    HW278514  10.460   4.437   5.472 -3.1417  0.3679 -0.1551
24462SOL     OW78515  10.323  10.260  10.530  0.1978  0.1703 -0.1899
24462SOL    HW178516  10.375  10.318  10.476 -1.2913  1.7203  0.0157
24462SOL    HW278517  10.330  10.175  10.487  1.3195  0.7689 -1.2173
24463SOL     OW78518   1.915   3.918   6.546  0.5065 -0.4713  0.2060
24463SOL    HW178519   1.829   3.914   6.588 -0.2739  1.8011 -1.0966
24463SOL    HW278520   1.918   3.840   6.490  0.1768 -1.6713  1.8135
24464SOL     OW78521   7.193   5.786   1.624  0.3136 -0.1971  0.2207
24464SOL    HW178522   7.231   5.738   1.552 -0.1827  0.3996 -0.4501
24464SOL    HW278523   7.102   5.755   1.629 -0.5287  1.8937 -1.3426
24465SOL     OW78524  10.989   0.961   4.930 -0.2916 -0.1155  0.4438
24465SOL    HW178525  10.918   0.944   4.868 -0.0600 -0.2455  0.2141
24465SOL    HW278526  11.064   0.983   4.875  0.7919 -3.3725  0.5111
24466SOL     OW78527   1.753   3.044   6.387 -0.4456  0.0017 -0.0780
24466SOL    HW178528   1.678   3.032   6.445 -0.3705  0.7381  0.1770
24466SOL    HW278529   1.714   3.072   6.304 -0.4323  0.7370  0.1604
24467SOL     OW78530   0.985   2.759   0.233  0.0307 -0.3870 -0.3899
24467SOL    HW178531   1.050   2.748   0.163 -0.1504 -0.9445 -0.4731
24467SOL    HW278532   1.029   2.814   0.298  0.1395  0.2669 -1.0168
24468SOL     OW78533   8.334   6.165   2.929 -0.3588 -0.8439  0.3552
24468SOL    HW178534   8.280   6.154   2.851 -1.2018 -0.1482  0.8229
24468SOL    HW278535   8.270   6.172   3.001  0.2618  2.1472  0.6686
24469SOL     OW78536   4.374   5.390   8.342 -0.7309  0.3691 -0.0943
24469SOL    HW178537   4.394   5.451   8.413 -0.6288 -0.6854  0.8085
24469SOL    HW278538   4.336   5.444   8.273  0.6617  1.6591  0.1220
24470SOL     OW78539   0.822   7.023   0.418 -0.0671  0.2037 -0.0795
24470SOL    HW178540   0.790   6.993   0.503  0.5360  0.3907  0.2143
24470SOL    HW278541   0.811   7.118   0.421  2.9401  0.5602  1.0478
24471SOL     OW78542   3.577   8.323  10.180 -0.1602  0.6537  0.0666
24471SOL    HW178543   3.574   8.407  10.225  1.4437  1.2131 -0.8467
24471SOL    HW278544   3.488   8.288  10.189 -0.7737  2.3183  0.6712
24472SOL     OW78545   1.509   2.502  11.133 -0.2896  0.0213 -0.1323
24472SOL    HW178546   1.469   2.539  11.054  0.2192  1.3304  0.2157
24472SOL    HW278547   1.555   2.575  11.173  1.3402 -1.1496  0.1981
24473SOL     OW78548   0.962   7.084   3.823 -1.0423 -0.4471  0.5527
24473SOL    HW178549   1.014   7.065   3.745  0.2315 -0.6678  1.4532
24473SOL    HW278550   0.874   7.051   3.801 -0.0999 -2.7934  0.1349
24474SOL     OW78551   2.062   6.252   0.860 -0.0924 -0.2453  0.0033
24474SOL    HW178552   1.977   6.297   0.863  0.1856  0.2060  1.5840
24474SOL    HW278553   2.112   6.291   0.932  1.5208 -0.3945 -1.0125
24475SOL     OW78554   1.031   4.072   4.788  0.4653  0.3626 -0.0043
24475SOL    HW178555   0.973   4.002   4.757 -0.0821  0.8957 -0.1863
24475SOL    HW278556   1.103   4.073   4.725 -0.8759  1.7520 -1.5532
24476SOL     OW78557   6.518   5.963   4.196  0.2315 -0.5062 -0.2430
24476SOL    HW178558   6.501   5.941   4.104 -2.5550 -1.0153  0.3648
24476SOL    HW278559   6.494   5.884   4.244  0.8248  0.0752  1.0163
24477SOL     OW78560   9.468   8.795   8.669 -0.4680  0.1822  0.4488
24477SOL    HW178561   9.508   8.882   8.678 -1.8146  0.8376  0.1227
24477SOL    HW278562   9.377   8.807   8.694 -1.2847 -0.5895 -2.0435
24478SOL     OW78563   7.117   0.757   7.992 -0.4372  0.2398  0.0480
24478SOL    HW178564   7.149   0.728   7.906  0.6630 -0.1934  0.5830
24478SOL    HW278565   7.053   0.690   8.017 -0.0328 -0.1782 -0.0088
24479SOL     OW78566   1.741   0.982   3.987 -0.3526  0.1609  0.2027
24479SOL    HW178567   1.699   1.039   4.053 -2.3614 -1.7606  0.6622
24479SOL    HW278568   1.733   1.030   3.905 -3.4663 -0.0603  0.3011
24480SOL     OW78569   6.688   2.935   5.503  0.0764 -0.0244  0.4847
24480SOL    HW178570   6.651   2.956   5.588  1.2553 -0.1764  1.0542
24480SOL    HW278571   6.712   3.020   5.465  0.9435 -0.0466  0.9652
24481SOL     OW78572   3.113   3.383   9.985 -0.4911  0.0578  0.3503
24481SOL    HW178573   3.139   3.474   9.998 -0.5682  0.3008 -1.0626
24481SOL    HW278574   3.192   3.340   9.952 -0.7884 -0.1022 -0.1610
24482SOL     OW78575   8.497   5.011   0.757 -0.9331  0.5393  0.0716
24482SOL    HW178576   8.568   5.073   0.742 -0.5819  0.6417  2.0176
24482SOL    HW278577   8.512   4.941   0.694  0.5527  0.8605  0.0486
24483SOL     OW78578   5.121   3.908  10.262 -0.5874  0.7175  0.1752
24483SOL    HW178579   5.111   3.959  10.342  1.7867  1.1535  0.2432
24483SOL    HW278580   5.199   3.854  10.277 -0.0223  0.8942 -1.8495
24484SOL     OW78581   8.561   0.297  10.450  0.3503  0.6093 -0.4664
24484SOL    HW178582   8.630   0.230  10.442  0.9551  1.1545  0.1576
24484SOL    HW278583   8.493   0.268  10.388  0.6393 -0.5394 -0.2686
24485SOL     OW78584   2.734   5.547   0.672  0.0965  0.3139 -0.2747
24485SOL    HW178585   2.733   5.614   0.740 -1.7157 -2.2374  2.3850
24485SOL    HW278586   2.812   5.495   0.691 -1.3147 -1.4200  1.0107
24486SOL     OW78587   8.772   7.036   8.850 -0.2270 -0.1398  0.1175
24486SOL    HW178588   8.814   6.951   8.833  0.8057  0.5717 -1.0234
24486SOL    HW278589   8.719   7.053   8.772 -0.3372  0.3149  0.2882
24487SOL     OW78590   9.613   9.558   2.644  0.0445 -0.4790  0.5267
24487SOL    HW178591   9.578   9.612   2.573  1.0588 -0.4683  0.0244
24487SOL    HW278592   9.693   9.604   2.672 -1.6066  0.8060  3.3016
24488SOL     OW78593   5.611   1.717   6.475  0.2116  0.4582  0.7995
24488SOL    HW178594   5.635   1.705   6.567  1.8120  0.5600  0.4083
24488SOL    HW278595   5.692   1.699   6.427 -0.4987  0.8597 -0.5571
24489SOL     OW78596  10.070   4.523   9.544  0.2823  0.2134  0.3528
24489SOL    HW178597  10.119   4.534   9.625  0.6928 -0.0434  0.1406
24489SOL    HW278598   9.990   4.574   9.557 -0.2964 -0.9369  1.4551
24490SOL     OW78599  10.047   1.427   2.021 -0.5034 -0.4204  0.4862
24490SOL    HW178600  10.045   1.436   2.116 -1.8452 -0.8405  0.4928
24490SOL    HW278601  10.116   1.488   1.994 -0.9030  0.5551  1.6226
24491SOL     OW78602   1.468   0.902   4.207 -0.0272 -0.6023  0.4294
24491SOL    HW178603   1.554   0.909   4.247  0.1814  0.5126 -0.1723
24491SOL    HW278604   1.468   0.817   4.164  1.4995  0.1632 -1.1627
24492SOL     OW78605  11.230   9.603   6.940 -0.0736 -0.3648  0.0648
24492SOL    HW178606  11.235   9.645   6.854 -0.6549 -1.8173 -0.6999
24492SOL    HW278607  11.164   9.654   6.988  1.5078  1.5122  0.2851
24493SOL     OW78608   2.511  10.986   2.267 -0.1651 -0.3452 -0.3069
24493SOL    HW178609   2.557  11.069   2.282 -1.6354  0.4438 -0.0124
24493SOL    HW278610   2.490  10.954   2.355 -2.0420  0.3961 -0.4585
24494SOL     OW78611   9.008   0.030   3.523 -0.0675 -0.2002  0.1902
24494SOL    HW178612   9.095   0.070   3.518  0.3187 -0.8114  1.8142
24494SOL    HW278613   8.996   0.009   3.615 -1.2593 -1.6492 -0.2685
24495SOL     OW78614   7.291   2.482  10.760  0.4758 -0.7673  0.0751
24495SOL    HW178615   7.231   2.514  10.693 -0.3945 -0.0501  1.1797
24495SOL    HW278616   7.378   2.503  10.727  0.0511 -0.3823 -0.8042
24496SOL     OW78617   1.581   4.374   6.587 -0.0427 -0.1817 -0.6213
24496SOL    HW178618   1.631   4.451   6.613 -1.7820  0.9436 -0.5441
24496SOL    HW278619   1.605   4.359   6.496  0.6449  0.1598 -0.5022
24497SOL     OW78620   2.020   3.458   8.880 -0.5128 -0.3569  0.0707
24497SOL    HW178621   2.099   3.405   8.889  0.1062  0.6844  0.8496
24497SOL    HW278622   2.026   3.494   8.792  0.6561  0.9290  0.6606
24498SOL     OW78623  11.325   5.872   4.532  0.1155 -0.0759  0.4039
24498SOL    HW178624  11.364   5.807   4.590  0.4747  0.0509  0.3079
24498SOL    HW278625  11.291   5.822   4.458  0.0859 -0.1891  0.4954
24499SOL     OW78626  10.170   4.340   3.213  0.7332 -0.9367  0.0351
24499SOL    HW178627  10.233   4.385   3.269 -1.8123  0.4305  1.8860
24499SOL    HW278628  10.136   4.409   3.156  0.7779 -1.6302 -0.8311
24500SOL     OW78629   9.857   4.538   3.160  0.1653 -0.2824  0.2216
24500SOL    HW178630   9.842   4.584   3.243  0.6433  0.4142 -0.0695
24500SOL    HW278631   9.941   4.571   3.129 -1.0773  1.2124 -1.6755
24501SOL     OW78632   2.500   3.802   0.109 -0.1814 -0.3423 -0.3866
24501SOL    HW178633   2.497   3.853   0.191 -0.4807 -1.2249  0.1536
24501SOL    HW278634   2.562   3.732   0.127 -0.6239 -0.8264 -0.7544
24502SOL     OW78635  11.331   3.331   5.966  0.0255 -0.5100  0.4146
24502SOL    HW178636  11.296   3.254   6.011  0.9579 -1.5207 -0.5479
24502SOL    HW278637  11.303   3.320   5.875 -0.0598  0.4270  0.3305
24503SOL     OW78638   9.341  11.117   8.088  0.3806  0.0290 -0.4539
24503SOL    HW178639   9.402  11.148   8.020  1.4929 -0.5684  0.2707
24503SOL    HW278640   9.397  11.096   8.162 -0.6673 -1.0290  0.0374
24504SOL     OW78641   0.557  10.226   6.269 -0.2490 -0.2068 -0.1071
24504SOL    HW178642   0.635  10.281   6.275 -0.9487  0.5003  3.4659
24504SOL    HW278643   0.485  10.283   6.294 -1.3374 -2.0171  1.0323
24505SOL     OW78644   5.527   0.865   6.677 -0.0111 -0.1161  0.1014
24505SOL    HW178645   5.574   0.793   6.634 -0.0885 -0.1948  0.1484
24505SOL    HW278646   5.453   0.823   6.719  0.1690 -0.0628  0.4721
24506SOL     OW78647  10.412   4.909   3.294  0.0420 -0.1835  0.2562
24506SOL    HW178648  10.460   4.991   3.291 -0.4303  0.0866  0.1840
24506SOL    HW278649  10.398   4.893   3.387  1.2285 -0.8183  0.3397
24507SOL     OW78650   1.387   9.619   6.454  0.2017  0.4537 -0.0974
24507SOL    HW178651   1.468   9.570   6.445  1.0438  1.8479 -0.2872
24507SOL    HW278652   1.327   9.579   6.392  0.8208 -0.4171 -0.1441
24508SOL     OW78653   3.072   0.113   4.079 -0.0976 -0.2144 -0.4922
24508SOL    HW178654   3.016   0.131   4.154 -0.9961 -1.8026 -0.7591
24508SOL    HW278655   3.141   0.179   4.084 -1.7536  1.4987  0.0699
24509SOL     OW78656  10.570   8.552   8.302  0.1135 -0.0582  0.6595
24509SOL    HW178657  10.644   8.608   8.278 -0.3072  0.7374  1.1716
24509SOL    HW278658  10.579   8.540   8.396 -1.1656  1.1929  0.9638
24510SOL     OW78659   7.710   8.966   0.960  0.0156 -0.5809  0.0392
24510SOL    HW178660   7.615   8.954   0.964 -0.1542  1.0026  1.0498
24510SOL    HW278661   7.744   8.878   0.944 -1.5827 -1.2647  0.2906
24511SOL     OW78662   8.024   1.423  10.165 -0.0156  0.3990 -0.6783
24511SOL    HW178663   7.994   1.346  10.213  2.1188 -0.2110 -0.2604
24511SOL    HW278664   7.966   1.494  10.194 -0.6290 -0.5942  0.5577
24512SOL     OW78665  10.647   5.282   2.870  0.5102  0.1170  0.4252
24512SOL    HW178666  10.615   5.346   2.806  0.3462 -1.2933 -0.9312
24512SOL    HW278667  10.683   5.211   2.817  1.1899 -0.6795  1.9153
24513SOL     OW78668   9.577   3.187   0.598  0.2342  0.3833  0.1591
24513SOL    HW178669   9.504   3.222   0.547 -0.9938 -0.9249  0.9879
24513SOL    HW278670   9.601   3.107   0.552  1.0702  0.7388 -0.0301
24514SOL     OW78671   6.529  10.757  10.250  0.0568 -0.2255 -0.2335
24514SOL    HW178672   6.592  10.802  10.307  0.8611  0.0002 -1.2643
24514SOL    HW278673   6.567  10.766  10.162 -2.5196  1.8876 -1.2018
24515SOL     OW78674   4.846   4.327   1.682 -0.1346  0.0261  1.0677
24515SOL    HW178675   4.864   4.421   1.680 -0.0641  0.0125  1.0624
24515SOL    HW278676   4.750   4.321   1.682 -0.1392  0.1043  1.3134
24516SOL     OW78677   1.448   3.918   8.240 -0.4596 -0.0233 -0.2754
24516SOL    HW178678   1.515   3.936   8.173 -0.2120  0.5795  0.1259
24516SOL    HW278679   1.476   3.969   8.316 -0.1662 -1.5424  0.6560
24517SOL     OW78680   5.933   0.188   0.976 -0.1719 -0.3907 -0.1447
24517SOL    HW178681   5.930   0.112   1.035  1.3008 -0.2893  0.0786
24517SOL    HW278682   5.905   0.262   1.031  1.3709 -0.2644  0.5123
24518SOL     OW78683   5.631   4.098   4.371  0.3641 -0.1200 -0.7220
24518SOL    HW178684   5.606   4.018   4.417  1.8650 -0.1129  0.1451
24518SOL    HW278685   5.562   4.161   4.393  0.9632 -0.1687  1.4236
24519SOL     OW78686   9.084   6.260   7.837 -0.0150  0.2169  0.2651
24519SOL    HW178687   9.118   6.242   7.750 -0.4340  0.8434 -0.0351
24519SOL    HW278688   9.082   6.175   7.881  0.5823 -0.0378 -0.1929
24520SOL     OW78689   5.315  11.320   8.283 -0.4000 -0.3027  0.1376
24520SOL    HW178690   5.338  11.302   8.374 -1.5923  1.1351  0.7460
24520SOL    HW278691   5.256  11.395   8.288 -0.5336 -0.2597 -1.8206
24521SOL     OW78692  10.717   0.299   4.625  0.2267  0.5882  0.4546
24521SOL    HW178693  10.698   0.220   4.676 -1.4504 -0.4905 -1.7400
24521SOL    HW278694  10.790   0.274   4.569 -0.7151  0.3502 -0.6963
24522SOL     OW78695   7.224  10.415   0.549  0.6256  0.1628 -0.1304
24522SOL    HW178696   7.210  10.463   0.630 -0.3410  0.6603 -0.5871
24522SOL    HW278697   7.151  10.353   0.545  1.4607 -0.8690  0.0946
24523SOL     OW78698   9.954   6.722   7.383 -0.4307  0.1773 -0.0150
24523SOL    HW178699   9.950   6.695   7.291 -0.2763  0.5543 -0.1369
24523SOL    HW278700  10.017   6.794   7.383 -0.5656  0.2960  0.3591
24524SOL     OW78701   1.569  10.342   6.166  0.1752 -0.0995 -0.0202
24524SOL    HW178702   1.485  10.386   6.154 -0.0394 -0.7520 -0.9101
24524SOL    HW278703   1.628  10.385   6.103  0.2972 -0.2195  0.0128
24525SOL     OW78704  10.922   8.380   0.923  0.0092 -0.1131  0.4613
24525SOL    HW178705  10.927   8.345   1.012  0.2129 -1.6402 -0.1481
24525SOL    HW278706  10.852   8.445   0.927  0.4520  0.2899  1.8955
24526SOL     OW78707   1.660   6.756   9.216 -0.3985  0.2665  0.2717
24526SOL    HW178708   1.651   6.821   9.286 -2.4366 -0.9940  1.2180
24526SOL    HW278709   1.739   6.706   9.239  0.1355  1.2190  0.5156
24527SOL     OW78710   7.839  10.530  10.443 -0.5532 -0.2458  0.1781
24527SOL    HW178711   7.876  10.514  10.357 -0.1435 -2.0410  0.6603
24527SOL    HW278712   7.746  10.509  10.434 -0.6614  0.3086 -0.0130
24528SOL     OW78713   8.863  10.597   4.799 -0.1280 -0.4468 -0.3437
24528SOL    HW178714   8.913  10.554   4.868 -0.7481  0.2540  0.5455
24528SOL    HW278715   8.787  10.635   4.844 -0.6262 -0.1391 -1.4303
24529SOL     OW78716   1.572   0.274   0.786  0.0343 -0.7642  0.0561
24529SOL    HW178717   1.509   0.204   0.804 -0.8119  0.5798  2.6991
24529SOL    HW278718   1.647   0.253   0.841  0.6428 -0.7183 -0.7552
24530SOL     OW78719   4.549   8.742   2.175  0.4308 -0.3940  0.2689
24530SOL    HW178720   4.529   8.733   2.269 -0.3179 -0.4372  0.1094
24530SOL    HW278721   4.601   8.822   2.170 -1.0497  0.5939  0.5078
24531SOL     OW78722   8.116   4.149   2.271 -0.6881  0.6318 -0.5546
24531SOL    HW178723   8.194   4.201   2.253  0.2179 -0.1721  0.9695
24531SOL    HW278724   8.111   4.144   2.366 -1.7267 -0.6132 -0.6515
24532SOL     OW78725   9.797   3.417   1.874 -0.6028  0.1198  0.2793
24532SOL    HW178726   9.726   3.427   1.937 -1.1508  0.9592 -0.4547
24532SOL    HW278727   9.753   3.407   1.789  0.1422  1.5978 -0.3114
24533SOL     OW78728   0.266   8.833   4.306  0.3801 -0.2928  0.1906
24533SOL    HW178729   0.251   8.876   4.222 -0.7428  2.1703  1.6027
24533SOL    HW278730   0.357   8.852   4.327  1.3472 -2.7741 -1.4304
24534SOL     OW78731   9.602  10.904   5.904 -0.4198 -0.0432  0.8819
24534SOL    HW178732   9.532  10.886   5.842 -0.8280 -0.2729  1.4105
24534SOL    HW278733   9.596  10.835   5.970  0.6434 -0.3809  0.6441
24535SOL     OW78734   6.070   5.255   8.034 -0.3473 -0.5309  0.1997
24535SOL    HW178735   6.046   5.347   8.031  0.4158 -0.3583 -3.0473
24535SOL    HW278736   6.162   5.254   8.060 -0.5037 -0.4205  0.7609
24536SOL     OW78737  10.720   4.482   5.542  0.3101  0.5027 -0.1318
24536SOL    HW178738  10.636   4.438   5.557  0.3026  0.2651 -0.8661
24536SOL    HW278739  10.712   4.564   5.591 -0.6769  0.8611 -0.8764
24537SOL     OW78740   4.948   0.444   5.847  0.0373  0.2357  0.1674
24537SOL    HW178741   5.006   0.384   5.895  2.5965  0.9609 -1.9742
24537SOL    HW278742   4.992   0.529   5.851 -1.1700  0.9261 -0.9959
24538SOL     OW78743   0.160  10.964  10.408  0.9745 -0.2768  0.0881
24538SOL    HW178744   0.188  10.908  10.481 -2.3557  1.2893  2.7294
24538SOL    HW278745   0.230  11.029  10.401  2.1589 -1.4472  0.7722
24539SOL     OW78746  10.947   1.191   2.574 -0.4288  0.3970  0.3904
24539SOL    HW178747  11.026   1.234   2.541 -0.4107  0.6260  0.7330
24539SOL    HW278748  10.962   1.098   2.559 -1.5529  0.6775 -2.7418
24540SOL     OW78749   5.629   9.660   5.948  0.3817 -0.3262  0.0280
24540SOL    HW178750   5.609   9.578   5.902  0.5731 -0.0451 -0.5586
24540SOL    HW278751   5.646   9.723   5.879 -0.8646  0.5029  0.4631
24541SOL     OW78752   2.280   7.112   4.383  0.0183 -0.0178  0.0821
24541SOL    HW178753   2.199   7.136   4.428 -0.5111 -2.2717  0.3616
24541SOL    HW278754   2.333   7.069   4.450  1.4452  1.3878 -0.1138
24542SOL     OW78755   0.080  11.112   7.038 -0.2475 -0.5806 -0.1550
24542SOL    HW178756   0.082  11.094   6.944 -2.3188 -0.4194 -0.2493
24542SOL    HW278757   0.096  11.206   7.045  1.9675 -0.9374 -0.2027
24543SOL     OW78758   4.784   0.475   2.465  0.1646  0.1766 -0.4133
24543SOL    HW178759   4.775   0.480   2.560 -1.4418  2.5773 -0.6675
24543SOL    HW278760   4.873   0.506   2.448  0.3251  0.0967  0.2731
24544SOL     OW78761   4.351   5.902   8.394 -0.2244  0.1713 -0.0234
24544SOL    HW178762   4.286   5.861   8.338 -0.1892 -2.6460  1.8886
24544SOL    HW278763   4.309   5.907   8.480  1.7344 -0.8464  1.0293
24545SOL     OW78764  10.587   6.753   3.482 -0.0102  0.6003  0.3536
24545SOL    HW178765  10.578   6.848   3.489 -1.9608  0.4600  0.1706
24545SOL    HW278766  10.511   6.725   3.431 -0.0698 -1.1759  1.3585
24546SOL     OW78767   5.916   9.450   2.254 -0.3782  0.0825  0.6967
24546SOL    HW178768   5.911   9.370   2.306 -0.8307  0.3436  1.0723
24546SOL    HW278769   5.962   9.512   2.311  0.2225  0.0006  0.2946
24547SOL     OW78770   6.601   9.473   2.220 -0.0193  0.2115  0.3435
24547SOL    HW178771   6.578   9.507   2.134 -0.1231  0.5762  0.5125
24547SOL    HW278772   6.675   9.414   2.204 -0.9357 -0.8299 -0.1816
24548SOL     OW78773   6.535   2.514   6.588  0.1950  0.5624 -0.2534
24548SOL    HW178774   6.471   2.585   6.589  0.2993  0.6673  1.4715
24548SOL    HW278775   6.616   2.554   6.621  1.2918  0.5357 -2.8117
24549SOL     OW78776   0.513   0.715   1.141  0.4997 -0.3744  0.1378
24549SOL    HW178777   0.600   0.754   1.130  0.6046  0.7900  4.2416
24549SOL    HW278778   0.459   0.788   1.172 -1.1319 -1.8593  0.8205
24550SOL     OW78779   7.701   4.750   0.593  0.1239 -0.5884  0.2556
24550SOL    HW178780   7.701   4.654   0.595 -1.2491 -0.5835  0.4643
24550SOL    HW278781   7.746   4.776   0.674  0.9749 -1.0574 -0.0656
24551SOL     OW78782   4.185   4.356   1.363  0.2844 -0.2461  0.1647
24551SOL    HW178783   4.192   4.354   1.458  0.3355  2.0012  0.2363
24551SOL    HW278784   4.250   4.421   1.335 -2.2371  1.8756 -1.0729
24552SOL     OW78785  10.360   0.175   5.609  0.0833  0.2595  0.1353
24552SOL    HW178786  10.424   0.161   5.679  0.6223 -0.1351 -0.4255
24552SOL    HW278787  10.293   0.231   5.648  0.6979  0.5588  0.7736
24553SOL     OW78788   4.586   4.267   2.398  0.1121 -0.3690  0.0899
24553SOL    HW178789   4.493   4.285   2.384  0.2622 -1.0432 -2.0155
24553SOL    HW278790   4.588   4.175   2.426  0.1266 -0.3012  0.3102
24554SOL     OW78791  10.502   4.545   7.487  0.2133 -0.0579 -0.5091
24554SOL    HW178792  10.432   4.519   7.548  0.6712 -1.2573 -0.4815
24554SOL    HW278793  10.456   4.582   7.412 -0.3380  2.1852  0.8897
24555SOL     OW78794   6.978   3.788  10.487  0.1910  0.1730  0.2750
24555SOL    HW178795   7.016   3.866  10.445 -0.3284 -0.2387 -0.9708
24555SOL    HW278796   6.885   3.792  10.466 -0.1665  0.2095  1.8098
24556SOL     OW78797   4.771   0.408   4.233  0.1890 -0.3297  0.3630
24556SOL    HW178798   4.803   0.407   4.324  0.0801 -0.3892  0.4005
24556SOL    HW278799   4.743   0.498   4.219  0.5585 -0.2299  0.2670
24557SOL     OW78800   1.996  10.405   4.926  0.1662  0.2880 -0.4861
24557SOL    HW178801   2.049  10.369   4.855 -0.2406  0.4804 -0.8860
24557SOL    HW278802   1.931  10.337   4.945  1.0743 -0.3109  0.5842
24558SOL     OW78803   0.794   4.511   4.380  0.2782 -0.1444  0.2397
24558SOL    HW178804   0.756   4.558   4.454  0.5837  0.2736  0.1402
24558SOL    HW278805   0.765   4.561   4.303  0.1401 -0.4479  0.0965
24559SOL     OW78806   7.658  10.156   7.893  0.3411 -0.4359  0.3416
24559SOL    HW178807   7.612  10.108   7.961  1.5786 -2.3889 -0.1446
24559SOL    HW278808   7.589  10.187   7.834 -0.6973  0.8741  2.1962
24560SOL     OW78809   1.368   6.686   9.232 -0.0006 -0.5434 -0.0627
24560SOL    HW178810   1.381   6.592   9.226 -0.1967 -0.5306 -0.8157
24560SOL    HW278811   1.450   6.724   9.200  0.1393 -0.4617  0.3972
24561SOL     OW78812   9.683   4.983   9.384 -0.2288  0.5743 -0.4540
24561SOL    HW178813   9.619   5.050   9.360 -0.3533  0.8046  0.4818
24561SOL    HW278814   9.631   4.908   9.412 -0.0992  0.7223  0.2020
24562SOL     OW78815   4.801   7.978   4.196 -0.2908 -0.0574 -0.3452
24562SOL    HW178816   4.841   7.905   4.148  0.9679 -0.5122  1.3537
24562SOL    HW278817   4.742   7.936   4.259 -0.0173  0.4086  0.2280
24563SOL     OW78818  10.933  10.593   6.475  0.0073  0.1512 -0.7322
24563SOL    HW178819  11.013  10.643   6.492 -0.2031  0.4373 -0.5774
24563SOL    HW278820  10.955  10.537   6.401  0.9476 -1.1361  0.5068
24564SOL     OW78821   9.859   5.070   7.335  0.1073 -0.6544 -0.1663
24564SOL    HW178822   9.891   4.991   7.378 -0.9593 -2.6454 -2.8434
24564SOL    HW278823   9.770   5.082   7.369  0.6627  0.0425  1.0552
24565SOL     OW78824   6.290   1.575   4.628 -0.0538  0.1214  0.3859
24565SOL    HW178825   6.257   1.496   4.672  1.3207 -2.0462 -2.2996
24565SOL    HW278826   6.225   1.593   4.560  0.3559  0.3991  0.0627
24566SOL     OW78827   0.679   9.013  10.894 -0.5340 -0.2301 -0.1519
24566SOL    HW178828   0.737   9.045  10.963 -1.1278  0.7144 -0.0841
24566SOL    HW278829   0.735   8.957  10.840 -0.1800 -1.3317  1.3408
24567SOL     OW78830   3.141   0.081   7.597  0.0346 -0.1564 -0.3506
24567SOL    HW178831   3.217   0.035   7.563 -0.1812  0.0119 -1.0762
24567SOL    HW278832   3.113   0.030   7.673  0.7789 -0.2981 -0.1727
24568SOL     OW78833   1.627   9.840   8.066  0.1230 -0.0431  0.5107
24568SOL    HW178834   1.597   9.806   8.150 -0.0202 -0.0545  0.4531
24568SOL    HW278835   1.549   9.844   8.012 -0.4344  3.2046  1.4527
24569SOL     OW78836   6.283   2.679   5.303 -0.6031  0.8942  0.2783
24569SOL    HW178837   6.253   2.599   5.345 -0.2099  0.8434  0.4650
24569SOL    HW278838   6.219   2.746   5.329 -1.9816  0.2609 -1.3739
24570SOL     OW78839   6.137   5.669   5.087  0.3251 -0.2368 -0.3422
24570SOL    HW178840   6.216   5.633   5.046 -0.4294 -0.2300 -1.8689
24570SOL    HW278841   6.157   5.672   5.180  1.9805 -0.5932 -0.6692
24571SOL     OW78842   6.633   8.495   2.683  0.0695  0.3866 -0.1452
24571SOL    HW178843   6.599   8.456   2.763 -0.8064  1.9982  0.2993
24571SOL    HW278844   6.715   8.449   2.667  0.3021  0.0910  1.7264
24572SOL     OW78845   7.039   1.105   2.477  0.3207 -0.2436 -0.4004
24572SOL    HW178846   7.026   1.089   2.384 -1.3573  0.3581 -0.2762
24572SOL    HW278847   7.042   1.018   2.517  2.0356 -0.5363 -1.1255
24573SOL     OW78848  11.151   1.999   0.174  0.3271 -0.7992 -0.2500
24573SOL    HW178849  11.115   1.926   0.225 -0.8341 -0.2857 -0.3268
24573SOL    HW278850  11.222   1.959   0.123  1.0222 -1.4630  1.2131
24574SOL     OW78851   9.440   8.365   1.415 -0.4427 -0.5253 -0.1991
24574SOL    HW178852   9.426   8.441   1.471 -0.2322  0.5704 -1.6053
24574SOL    HW278853   9.382   8.379   1.340 -1.9577 -2.7951  0.5032
24575SOL     OW78854   2.130   2.487   0.547 -0.1396 -0.2597  0.6870
24575SOL    HW178855   2.195   2.418   0.563  0.0572  0.2965  2.3683
24575SOL    HW278856   2.149   2.517   0.458  0.7340 -1.3514  0.4906
24576SOL     OW78857   3.417   8.052   7.971 -0.1433 -0.1049 -0.1482
24576SOL    HW178858   3.331   8.013   7.982 -0.0222 -0.3057  0.0967
24576SOL    HW278859   3.478   7.977   7.972  0.0591  0.0607 -0.0406
24577SOL     OW78860   6.441   3.282   5.128 -0.2781  0.2763 -0.6234
24577SOL    HW178861   6.485   3.327   5.056  3.1397 -2.5046 -0.3938
24577SOL    HW278862   6.427   3.193   5.096 -1.1533 -0.2477  1.1615
24578SOL     OW78863   8.456   8.593   7.891 -0.5353 -0.0214  0.0687
24578SOL    HW178864   8.527   8.642   7.848  0.0205 -0.6312  0.2760
24578SOL    HW278865   8.410   8.550   7.819 -0.5830  0.2231 -0.0503
24579SOL     OW78866   9.002   7.509   4.801  0.2822  0.4743  0.4193
24579SOL    HW178867   8.942   7.448   4.757  0.6447  0.2802  0.1974
24579SOL    HW278868   9.076   7.455   4.828 -0.6693  0.2332  2.7393
24580SOL     OW78869   0.979  10.281  10.003 -0.0871  0.6071  0.5588
24580SOL    HW178870   0.989  10.298  10.097 -1.9725  2.7227  0.4270
24580SOL    HW278871   0.971  10.368   9.964 -0.3143 -0.2890 -1.4490
24581SOL     OW78872   8.994   4.759   5.001  0.5939 -0.1780  0.5994
24581SOL    HW178873   8.912   4.796   5.034  0.4957  0.2726 -0.1274
24581SOL    HW278874   9.010   4.806   4.919  0.1971 -2.0993 -0.6187
24582SOL     OW78875  11.030   5.543   8.301  0.0386  0.4986 -0.5014
24582SOL    HW178876  11.088   5.548   8.226 -0.5693  2.0001 -0.9006
24582SOL    HW278877  10.943   5.528   8.263  0.2739 -2.9303  0.1405
24583SOL     OW78878   2.794   3.136   5.359  0.5380  0.1553 -0.0698
24583SOL    HW178879   2.784   3.078   5.284  0.4107 -0.9698  0.8159
24583SOL    HW278880   2.885   3.123   5.388  0.1866 -0.4125  0.7918
24584SOL     OW78881   0.765   9.697   6.812 -0.7705 -0.8687 -0.2003
24584SOL    HW178882   0.747   9.662   6.900 -2.1551  1.9708  0.7010
24584SOL    HW278883   0.849   9.741   6.820 -1.6995  0.8539  0.1572
24585SOL     OW78884   3.169   2.323   3.120  0.3585 -0.1714 -0.2688
24585SOL    HW178885   3.262   2.347   3.115  0.2693  0.2022 -0.1797
24585SOL    HW278886   3.165   2.234   3.085  0.6857 -0.0155 -0.7156
24586SOL     OW78887   2.610   3.752   0.611  0.0585  0.3620 -0.1821
24586SOL    HW178888   2.537   3.746   0.549  0.9589  3.4987 -1.6207
24586SOL    HW278889   2.660   3.671   0.597 -2.6835 -1.4873  0.3120
24587SOL     OW78890  11.187   8.174   6.012 -0.1708 -0.1421  0.8550
24587SOL    HW178891  11.130   8.239   5.970 -1.4669 -1.1830  0.9667
24587SOL    HW278892  11.268   8.178   5.963  0.0747  2.1576  1.3789
24588SOL     OW78893   5.718   3.861   8.777 -0.2930  0.1955  0.2124
24588SOL    HW178894   5.766   3.905   8.707 -0.2220  1.3001  0.9516
24588SOL    HW278895   5.656   3.804   8.731  1.1455 -0.6341 -0.7498
24589SOL     OW78896   7.823  10.892   7.309  0.5662  0.4765  0.0069
24589SOL    HW178897   7.877  10.819   7.279  0.9601  0.3956  0.8722
24589SOL    HW278898   7.755  10.851   7.363 -0.0823  0.6237 -0.6819
24590SOL     OW78899   5.899   6.798   3.940  0.1245  0.5805  0.3205
24590SOL    HW178900   5.944   6.715   3.954 -0.1358  0.3292 -0.3172
24590SOL    HW278901   5.886   6.804   3.846  0.9367  1.7773  0.2733
24591SOL     OW78902   4.274   7.693   0.771  0.6234  0.1429 -0.2861
24591SOL    HW178903   4.281   7.746   0.692  1.5427  0.5122  0.0269
24591SOL    HW278904   4.276   7.603   0.739 -0.3886  0.2975 -0.7802
24592SOL     OW78905   3.178   5.295   4.353  0.1784 -0.4781  0.0433
24592SOL    HW178906   3.113   5.227   4.373 -0.1767 -0.4281 -0.9317
24592SOL    HW278907   3.125   5.374   4.336  0.4629 -0.5513 -1.2186
24593SOL     OW78908   0.424   4.187   2.555 -0.0669  0.0970  0.8608
24593SOL    HW178909   0.406   4.093   2.555  0.6866 -0.0757 -0.8904
24593SOL    HW278910   0.501   4.197   2.611  1.6441 -0.7447 -1.2550
24594SOL     OW78911   7.215   6.762   7.180 -0.1310  0.0037  0.1827
24594SOL    HW178912   7.310   6.764   7.192 -0.0851  1.9492 -0.4849
24594SOL    HW278913   7.202   6.747   7.086 -0.5082 -1.2852  0.4202
24595SOL     OW78914   1.450   7.625  10.103 -0.3715 -0.2928 -0.0497
24595SOL    HW178915   1.395   7.661  10.172 -1.1319  0.3669 -0.9870
24595SOL    HW278916   1.435   7.531  10.108 -0.1609 -0.2819  0.9009
24596SOL     OW78917   2.335   3.778   6.891  0.1929 -0.1960 -0.1104
24596SOL    HW178918   2.303   3.688   6.897 -0.2235 -0.2289 -2.3393
24596SOL    HW278919   2.256   3.831   6.881  0.5740  0.2035 -1.0168
24597SOL     OW78920   6.969  10.594   9.331  0.4724 -0.7294 -0.5175
24597SOL    HW178921   6.891  10.601   9.276 -0.1836  0.0067  0.4967
24597SOL    HW278922   6.997  10.503   9.319 -0.7682 -1.1216 -0.5923
24598SOL     OW78923   6.585   7.038   9.200 -0.2277  0.1781  0.2722
24598SOL    HW178924   6.490   7.051   9.194 -0.1132  0.6571 -0.4902
24598SOL    HW278925   6.595   6.946   9.224 -0.8498 -0.1913 -0.8727
24599SOL     OW78926   4.872   4.997   5.069 -0.1536 -0.1202 -0.2098
24599SOL    HW178927   4.959   4.966   5.044 -0.1037  1.0505 -1.5499
24599SOL    HW278928   4.813   4.954   5.008 -0.4375 -0.2088  0.1220
24600SOL     OW78929   2.047   1.559   9.034  0.3065  0.4312  0.0243
24600SOL    HW178930   1.975   1.593   8.981  0.8762 -0.1545 -1.1671
24600SOL    HW278931   2.092   1.637   9.066 -2.1651  0.8204  2.6685
24601SOL     OW78932   2.954   7.381  10.329 -0.1274  0.0388 -0.3255
24601SOL    HW178933   3.001   7.319  10.273  0.3384  1.3149 -1.3678
24601SOL    HW278934   3.002   7.378  10.412  0.5737 -0.1659 -0.7323
24602SOL     OW78935   3.367   2.866   4.663  0.6301 -0.4624  0.0594
24602SOL    HW178936   3.357   2.859   4.568 -1.3910 -1.5938  0.3429
24602SOL    HW278937   3.407   2.783   4.689  0.2645 -0.5575  0.3193
24603SOL     OW78938   0.576   0.379   5.478  1.0648 -0.2987 -0.0967
24603SOL    HW178939   0.483   0.400   5.472  0.6255 -1.6319  1.7408
24603SOL    HW278940   0.620   0.458   5.446 -0.6831  0.3950 -0.8518
24604SOL     OW78941   0.720   7.714   4.125  0.1516  0.0001  0.3253
24604SOL    HW178942   0.736   7.736   4.217 -2.8244  1.0535  0.6584
24604SOL    HW278943   0.723   7.798   4.080  2.3258 -0.5979 -0.7001
24605SOL     OW78944   6.678   3.626   0.037  0.1839  0.0246 -0.3624
24605SOL    HW178945   6.613   3.696   0.034  0.2991  0.1808  0.7111
24605SOL    HW278946   6.689   3.606   0.130 -0.5782 -2.1015 -0.6897
24606SOL     OW78947  10.742   1.024   3.055  0.2719 -0.2970  0.4857
24606SOL    HW178948  10.719   1.117   3.050 -1.7040 -0.6804  1.7413
24606SOL    HW278949  10.775   1.003   2.967 -0.1235  1.3700 -0.0820
24607SOL     OW78950  10.931   8.599  10.515  0.2057 -0.1198  0.2709
24607SOL    HW178951  11.011   8.639  10.550  0.7346 -0.0144 -1.0267
24607SOL    HW278952  10.963   8.530  10.457 -0.6349  0.2407 -0.6298
24608SOL     OW78953  11.233   0.996   5.930  0.3611 -0.4947 -0.4814
24608SOL    HW178954  11.256   1.059   5.863 -2.1401 -0.9636 -1.8458
24608SOL    HW278955  11.300   0.927   5.922  1.7324  0.8259 -0.5460
24609SOL     OW78956   0.358   4.211   1.791  0.4980 -0.0465  0.2756
24609SOL    HW178957   0.325   4.171   1.711  1.0303 -1.0025  0.5332
24609SOL    HW278958   0.287   4.202   1.854  0.4324 -0.1461  0.1863
24610SOL     OW78959   1.301   4.603   4.561 -0.1271  0.5377  0.2777
24610SOL    HW178960   1.334   4.516   4.582  0.3326  0.7374  0.3982
24610SOL    HW278961   1.247   4.628   4.636  1.0568  1.0199  0.9821
24611SOL     OW78962  10.053   7.812   1.596 -0.0938  0.4297 -0.8873
24611SOL    HW178963  10.015   7.839   1.513  0.1067  1.4793 -0.6543
24611SOL    HW278964  10.073   7.895   1.641  0.6271 -0.1177 -0.1818
24612SOL     OW78965   6.340   1.817   1.193 -0.1041  0.3437  0.0113
24612SOL    HW178966   6.248   1.795   1.209  0.3723 -1.9461 -0.1751
24612SOL    HW278967   6.385   1.732   1.192  2.1999  1.4986  1.2525
24613SOL     OW78968  10.158   9.170   2.488 -0.1530  0.1119  0.2201
24613SOL    HW178969  10.246   9.179   2.451  0.2680 -0.3763  1.1039
24613SOL    HW278970  10.106   9.131   2.418  0.6021 -0.6504  0.0804
24614SOL     OW78971   7.933   6.358  10.797 -0.4740 -0.0489 -0.0468
24614SOL    HW178972   8.024   6.374  10.775 -0.3872  2.3426  1.7870
24614SOL    HW278973   7.885   6.368  10.715  0.7857 -0.1211 -0.7886
24615SOL     OW78974   8.052   2.438   6.523 -0.6677  0.2330 -0.2500
24615SOL    HW178975   8.076   2.530   6.517 -0.4838  0.2682  0.8073
24615SOL    HW278976   8.135   2.391   6.516 -0.3150  0.3228  2.6919
24616SOL     OW78977   5.001   5.226   5.753  0.6591 -0.1340  0.2408
24616SOL    HW178978   5.052   5.272   5.687 -0.0772  1.4772  0.7634
24616SOL    HW278979   4.964   5.151   5.708 -0.3581  1.2947 -1.3524
24617SOL     OW78980   8.312   8.988   3.221 -0.4806 -0.4068 -0.2274
24617SOL    HW178981   8.240   8.959   3.277  0.9737  0.2941  2.0562
24617SOL    HW278982   8.314   8.925   3.149 -4.7789  0.8217 -1.5671
24618SOL     OW78983   8.446   0.693   5.246 -0.3382  0.5387  0.0397
24618SOL    HW178984   8.382   0.621   5.250 -0.9230  0.7126 -3.9245
24618SOL    HW278985   8.394   0.770   5.223  1.1453  0.7938 -2.6877
24619SOL     OW78986   0.900   9.790   7.635  0.0444  0.0696 -0.8466
24619SOL    HW178987   0.927   9.832   7.717  0.8369 -0.3457 -0.8798
24619SOL    HW278988   0.918   9.855   7.567 -1.1554  0.6283 -0.6306
24620SOL     OW78989   9.616   9.000  10.591 -0.0363  0.2520 -0.2406
24620SOL    HW178990   9.658   8.933  10.644  3.1427  3.8056  1.9957
24620SOL    HW278991   9.688   9.040  10.542 -2.1973  0.4299 -3.4229
24621SOL     OW78992  10.766   1.944   1.101  0.3383  0.4472  0.1597
24621SOL    HW178993  10.831   1.887   1.143  0.6459  0.6956  0.0226
24621SOL    HW278994  10.800   2.032   1.113  0.7073  0.4862 -1.0862
24622SOL     OW78995  10.319   9.971   6.073  0.4811  1.0672  0.3179
24622SOL    HW178996  10.356  10.042   6.020  1.4603  1.1155  1.0510
24622SOL    HW278997  10.290  10.013   6.154 -1.5072  1.0780 -0.3701
24623SOL     OW78998   2.044   6.661  10.720 -0.0519  0.0620  0.1170
24623SOL    HW178999   2.051   6.754  10.740 -0.5746  0.0877  0.1748
24623SOL    HW279000   1.989   6.625  10.789  0.6222 -0.4023  0.4228
24624SOL     OW79001   1.281   8.211   0.528 -0.7126 -0.2622  0.2173
24624SOL    HW179002   1.320   8.153   0.463 -2.8536 -2.0275  0.4442
24624SOL    HW279003   1.355   8.255   0.569  0.8008 -0.8710 -1.7800
24625SOL     OW79004   5.495  10.329   3.466  0.1030 -0.4544 -0.2273
24625SOL    HW179005   5.450  10.303   3.386 -2.5751  0.0190  1.0643
24625SOL    HW279006   5.502  10.424   3.461 -0.4677 -0.3799  0.2829
24626SOL     OW79007   0.078   2.127   6.121  0.1653 -0.1907 -0.4996
24626SOL    HW179008   0.091   2.035   6.145 -0.6225 -0.1983 -0.0573
24626SOL    HW279009   0.155   2.172   6.154  1.0372 -0.8433 -1.6047
24627SOL     OW79010   1.992   5.931   7.987 -0.1334 -0.4938  0.4889
24627SOL    HW179011   2.032   5.868   8.046  1.1622  0.3691  0.5797
24627SOL    HW279012   2.059   5.945   7.919 -1.2082 -0.7480 -0.6452
24628SOL     OW79013   3.341   7.253   0.920 -0.6176 -0.7522  0.4168
24628SOL    HW179014   3.386   7.253   0.836 -0.6083 -1.2399  0.4180
24628SOL    HW279015   3.250   7.234   0.899 -0.5061 -1.4787  0.5657
24629SOL     OW79016   9.843   0.565   9.427  0.0586 -0.0007  1.1024
24629SOL    HW179017   9.771   0.521   9.473 -2.2818  0.1220 -2.2720
24629SOL    HW279018   9.806   0.649   9.399  1.9792  0.6914  0.5506
24630SOL     OW79019   5.173   0.338   0.908  0.1726  0.0622  0.0207
24630SOL    HW179020   5.181   0.312   0.816  1.4513 -0.5144  0.2813
24630SOL    HW279021   5.208   0.264   0.957  1.3942  1.1794  0.8908
24631SOL     OW79022   8.289   0.436   3.882  0.4032 -0.3496 -0.4522
24631SOL    HW179023   8.208   0.403   3.921  0.4729 -2.2030 -1.7818
24631SOL    HW279024   8.330   0.358   3.844  2.8490  0.5347  0.2455
24632SOL     OW79025   0.888   4.466   5.688 -0.3197 -0.0730 -0.4832
24632SOL    HW179026   0.886   4.500   5.777 -0.4304  0.9209 -0.8575
24632SOL    HW279027   0.956   4.398   5.690 -1.0355 -0.7695  0.5960
24633SOL     OW79028   2.791   5.638   0.398 -0.1758  0.3747  0.1183
24633SOL    HW179029   2.738   5.585   0.339  0.7453 -0.6643  0.2173
24633SOL    HW279030   2.739   5.717   0.411 -0.7136  0.3081 -1.4999
24634SOL     OW79031   0.774   8.183   6.046 -0.2571 -0.2316  0.0682
24634SOL    HW179032   0.786   8.275   6.025  2.0711 -0.7470 -0.9804
24634SOL    HW279033   0.813   8.172   6.132 -0.0798 -0.3460 -0.0268
24635SOL     OW79034   4.812  10.076  10.033  0.0118 -0.0716 -0.1353
24635SOL    HW179035   4.901  10.048  10.056 -0.0996  0.0275  0.4236
24635SOL    HW279036   4.770   9.997   9.998  0.4203 -0.0395 -0.7159
24636SOL     OW79037   9.812   4.162  10.188 -0.3464  0.3879  0.2417
24636SOL    HW179038   9.829   4.074  10.154  2.5382  0.8973  0.2533
24636SOL    HW279039   9.897   4.206  10.185 -1.7145  3.1568  0.3514
24637SOL     OW79040   4.575   1.305   7.431 -0.1876 -0.0161 -0.0837
24637SOL    HW179041   4.542   1.388   7.465 -0.1964 -0.0712  0.0415
24637SOL    HW279042   4.656   1.289   7.481 -0.6237 -0.4983  0.4759
24638SOL     OW79043   2.054   7.699   1.900 -0.3608  0.0817  0.4317
24638SOL    HW179044   2.025   7.698   1.809  2.0509 -2.2772 -0.3494
24638SOL    HW279045   2.105   7.780   1.908 -0.0053 -0.0426 -0.5184
24639SOL     OW79046   8.565   9.651   8.233  0.0804 -0.2789  0.2810
24639SOL    HW179047   8.599   9.608   8.312  2.1690 -1.2417 -1.1142
24639SOL    HW279048   8.477   9.614   8.222 -0.1120 -0.3892  1.9422
24640SOL     OW79049   2.643   0.906   8.064 -0.3428 -0.3524  0.0306
24640SOL    HW179050   2.618   0.861   7.983 -0.6848  0.9495 -0.5935
24640SOL    HW279051   2.571   0.965   8.083  0.4978  0.5983  0.3447
24641SOL     OW79052   9.383   7.609   4.846 -0.4220 -0.2755 -0.4861
24641SOL    HW179053   9.400   7.624   4.753 -0.5141  2.3435 -0.1354
24641SOL    HW279054   9.305   7.661   4.864 -0.7483 -1.2305  0.9392
24642SOL     OW79055   2.611   5.952   2.513 -0.1393 -0.2576 -0.4691
24642SOL    HW179056   2.525   5.914   2.501  0.3722 -1.7254  0.4304
24642SOL    HW279057   2.670   5.895   2.464  0.3892  0.4495 -0.6703
24643SOL     OW79058   2.156   5.526  10.617  0.7054 -0.4645 -0.3624
24643SOL    HW179059   2.101   5.554  10.691  0.0187  1.2523 -1.4855
24643SOL    HW279060   2.244   5.555  10.640  0.3059  1.0534 -0.6899
24644SOL     OW79061   8.416   6.179   1.818  0.3763  0.6224  0.0753
24644SOL    HW179062   8.389   6.157   1.907  0.7949  1.8864  0.5152
24644SOL    HW279063   8.453   6.267   1.824  1.4707  0.2695 -1.1353
24645SOL     OW79064   5.644  11.295   0.199 -0.0981  0.5870  0.4905
24645SOL    HW179065   5.670  11.262   0.113 -0.4826  1.3025  0.0970
24645SOL    HW279066   5.645  11.218   0.255 -0.6544 -0.0361 -0.3403
24646SOL     OW79067   1.292   8.169   5.373  0.1422  0.2747 -0.4258
24646SOL    HW179068   1.227   8.100   5.380 -0.3388  0.5673 -1.8522
24646SOL    HW279069   1.376   8.123   5.371 -0.1545 -0.2563 -0.9157
24647SOL     OW79070  10.661   5.495   7.150 -0.2351 -0.2412  0.2390
24647SOL    HW179071  10.600   5.439   7.101 -1.2613  0.7984  0.3073
24647SOL    HW279072  10.611   5.525   7.225  1.7195 -2.8570  2.6978
24648SOL     OW79073   0.626   3.865   9.085  0.3711  0.2312  0.5522
24648SOL    HW179074   0.691   3.888   9.019 -1.0257  0.0624 -0.9224
24648SOL    HW279075   0.550   3.920   9.063 -1.1967 -2.0317  0.1112
24649SOL     OW79076   1.531  10.778  11.069  0.0654  0.1286 -0.2043
24649SOL    HW179077   1.541  10.837  10.994 -1.7635  0.1903 -0.4163
24649SOL    HW279078   1.558  10.829  11.145 -1.0421  1.0767 -0.4487
24650SOL     OW79079   4.305  11.001   7.603  0.1775 -0.4933 -1.1268
24650SOL    HW179080   4.371  10.957   7.657 -0.7160  0.7897  1.1035
24650SOL    HW279081   4.355  11.062   7.549  0.9127  0.0276  0.1074
24651SOL     OW79082   4.616   5.271   4.499  0.3628  0.2302 -0.0502
24651SOL    HW179083   4.548   5.321   4.454 -0.9578 -1.7613 -0.3488
24651SOL    HW279084   4.598   5.282   4.592  0.8754  1.3537 -0.0757
24652SOL     OW79085   4.874   3.577   4.206  0.1405 -0.2765  0.7821
24652SOL    HW179086   4.891   3.499   4.154 -0.4932  0.2205 -0.1709
24652SOL    HW279087   4.864   3.648   4.143 -0.1259  0.4316  1.5966
24653SOL     OW79088  10.252   5.687  11.225  0.2681  0.3969 -0.2496
24653SOL    HW179089  10.296   5.642  11.153 -1.5577 -1.4257 -0.2513
24653SOL    HW279090  10.310   5.676  11.300  0.3499 -1.0195 -0.5195
24654SOL     OW79091   6.841  10.221   4.104  0.3624  0.0407  0.5376
24654SOL    HW179092   6.871  10.239   4.193 -0.8643  0.6048  0.8524
24654SOL    HW279093   6.798  10.135   4.110 -0.4757  0.4594  0.6934
24655SOL     OW79094   2.769  11.298   3.435  0.5781  0.3822 -0.3773
24655SOL    HW179095   2.714  11.362   3.478  1.9815  0.8650  0.7423
24655SOL    HW279096   2.717  11.218   3.433 -0.0729  0.7725  0.8561
24656SOL     OW79097   0.112   9.941  10.103  0.0369  0.3612 -0.1292
24656SOL    HW179098   0.106   9.893  10.020  0.0152 -0.0308  0.0953
24656SOL    HW279099   0.054  10.016  10.092 -0.4067  0.0027 -0.2610
24657SOL     OW79100   0.041   4.068   1.406  0.0102 -0.3583  0.0358
24657SOL    HW179101   0.047   4.161   1.383  0.9502 -0.1784  1.0101
24657SOL    HW279102   0.005   4.027   1.327 -0.1871  0.7938 -0.4863
24658SOL     OW79103  10.855   7.417   0.473 -0.6478  0.8415 -0.5292
24658SOL    HW179104  10.832   7.408   0.565  0.7774  0.3401 -0.2184
24658SOL    HW279105  10.919   7.489   0.471  0.3398 -0.0301 -0.9429
24659SOL     OW79106   7.485   6.576   4.925 -0.3002 -0.1115 -0.3862
24659SOL    HW179107   7.539   6.648   4.893 -1.6598  1.0762 -0.0308
24659SOL    HW279108   7.411   6.618   4.968 -2.1619 -1.7039 -1.9154
24660SOL     OW79109   3.501   6.198   2.107 -0.0654 -0.4487  0.6002
24660SOL    HW179110   3.556   6.158   2.175  0.2746 -1.1810 -0.1077
24660SOL    HW279111   3.481   6.126   2.047 -0.0769  0.2861 -0.2732
24661SOL     OW79112   3.598   3.578   2.730 -0.4332  0.2259  0.5151
24661SOL    HW179113   3.623   3.581   2.637 -0.7023  1.7753  0.4902
24661SOL    HW279114   3.511   3.538   2.730 -1.0374  1.5224 -0.0285
24662SOL     OW79115  10.585   7.806   2.419  0.7097  0.3247  0.7317
24662SOL    HW179116  10.598   7.846   2.333 -0.7831  0.1951  0.4476
24662SOL    HW279117  10.673   7.776   2.444  0.7613 -1.8923 -1.8509
24663SOL     OW79118   1.009   1.691   6.668 -0.4249  0.1545  0.1105
24663SOL    HW179119   0.913   1.690   6.666 -0.4280  1.0090  0.0284
24663SOL    HW279120   1.032   1.781   6.691  0.3420 -0.2526  0.9828
24664SOL     OW79121   4.761   2.787   2.166  0.2988 -0.1587  0.8131
24664SOL    HW179122   4.693   2.800   2.100  1.5704  0.0424 -0.4799
24664SOL    HW279123   4.729   2.714   2.220 -0.8327 -0.2041  0.0935
24665SOL     OW79124   5.638   7.862   9.133  0.3725  0.0105 -0.3045
24665SOL    HW179125   5.603   7.951   9.123  0.4221 -0.0252 -0.7959
24665SOL    HW279126   5.733   7.874   9.134  0.3671  0.0888  0.8591
24666SOL     OW79127   7.565   7.074   9.807 -0.2785  0.0197  0.4170
24666SOL    HW179128   7.489   7.111   9.852  0.1796 -0.2432  1.4127
24666SOL    HW279129   7.575   6.987   9.845  1.3919  0.5961  1.3381
24667SOL     OW79130   5.603  10.618   7.489 -0.1153  0.0120 -0.2345
24667SOL    HW179131   5.592  10.525   7.508  0.0651 -0.0254 -0.3017
24667SOL    HW279132   5.524  10.660   7.523  0.7041  0.0980  1.5793
24668SOL     OW79133   6.108   7.965  10.268  0.0441 -0.0733 -0.7040
24668SOL    HW179134   6.031   8.021  10.258  0.3537  0.1222 -2.1627
24668SOL    HW279135   6.124   7.962  10.362 -2.3522 -0.9397 -0.2727
24669SOL     OW79136   3.150   2.724   8.442 -0.2456  0.1168  0.3950
24669SOL    HW179137   3.133   2.674   8.522 -0.7682  0.4429  0.4917
24669SOL    HW279138   3.065   2.761   8.419 -0.2968 -0.8034 -0.8844
24670SOL     OW79139   4.710   1.160   7.089  0.3188  0.2140  0.3245
24670SOL    HW179140   4.633   1.169   7.145  0.0992  1.4081 -0.1530
24670SOL    HW279141   4.676   1.161   7.000  0.9575  1.7764  0.0743
24671SOL     OW79142   1.937  10.994   9.820 -0.3996  0.0961  0.3949
24671SOL    HW179143   1.950  11.049   9.742  0.2915 -0.7582 -0.1044
24671SOL    HW279144   1.967  11.048   9.893  0.7211  0.2059 -0.1452
24672SOL     OW79145   7.309   4.000   1.296  0.2339 -0.3903 -0.6115
24672SOL    HW179146   7.326   4.079   1.244  1.5144 -0.7777 -0.7914
24672SOL    HW279147   7.235   4.024   1.352 -0.0505  0.5978 -1.3852
24673SOL     OW79148  10.710   1.518   1.079  0.0560 -0.4801  0.1319
24673SOL    HW179149  10.700   1.579   1.152 -0.4379 -0.4550  0.0444
24673SOL    HW279150  10.621   1.489   1.059  0.3661 -1.9555  0.7961
24674SOL     OW79151   7.994   2.729   3.302 -0.0022 -0.1780 -0.6446
24674SOL    HW179152   7.947   2.673   3.364 -1.6123  0.6764 -1.0976
24674SOL    HW279153   8.019   2.806   3.352 -1.2262  0.4720 -1.0211
24675SOL     OW79154   7.962   8.517   6.213  0.5832 -0.0776  0.0634
24675SOL    HW179155   7.905   8.441   6.211 -0.5791  0.7272  1.8173
24675SOL    HW279156   8.033   8.493   6.272  0.5334 -0.0202  0.1467
24676SOL     OW79157   3.099   7.825  11.183 -0.1401  0.2037  0.3217
24676SOL    HW179158   3.061   7.739  11.198  1.2658 -0.3090  1.0448
24676SOL    HW279159   3.043   7.886  11.231  0.2233 -0.5940  1.7568
24677SOL     OW79160   7.213   7.210   0.429  0.1223 -0.2478 -0.5431
24677SOL    HW179161   7.208   7.290   0.482  0.1919  1.6051 -3.2342
24677SOL    HW279162   7.197   7.139   0.492 -0.0597  1.8547  1.8982
24678SOL     OW79163   4.258   1.724  10.686 -0.4725 -0.2415  0.7709
24678SOL    HW179164   4.233   1.696  10.598  1.3430  0.2123  0.0921
24678SOL    HW279165   4.246   1.645  10.740 -0.3597 -0.8882 -0.1316
24679SOL     OW79166   0.638   6.733  10.521 -0.0412 -0.1103 -0.6579
24679SOL    HW179167   0.558   6.733  10.574  0.8265  0.7034  0.6916
24679SOL    HW279168   0.658   6.826  10.508  1.7463 -0.2959  0.6674
24680SOL     OW79169   6.732   1.076   0.618  0.4814 -0.0980  0.0046
24680SOL    HW179170   6.803   1.062   0.555  0.3386 -0.1518 -0.1456
24680SOL    HW279171   6.667   1.126   0.570 -0.4242 -1.6753 -0.4703
24681SOL     OW79172   8.913   1.703   4.852 -0.0671 -0.2707  0.1290
24681SOL    HW179173   8.856   1.718   4.927 -0.2211 -1.2733  0.2215
24681SOL    HW279174   8.887   1.617   4.819  2.3696 -1.3863  1.0619
24682SOL     OW79175  10.935   1.572   5.323 -0.1573 -0.2912 -0.3055
24682SOL    HW179176  11.024   1.595   5.297 -0.3757  1.2581  0.2610
24682SOL    HW279177  10.921   1.620   5.404 -1.5383 -0.4846 -0.4233
24683SOL     OW79178   7.765   1.097   8.020 -0.1046 -0.1847  0.1796
24683SOL    HW179179   7.712   1.026   7.985  1.0844 -0.9876 -0.0054
24683SOL    HW279180   7.850   1.087   7.978 -0.1780  1.8677 -0.5076
24684SOL     OW79181   2.218   6.598   3.493 -0.0752  0.1769  0.5728
24684SOL    HW179182   2.168   6.517   3.484  1.3244 -0.6440 -0.1040
24684SOL    HW279183   2.153   6.668   3.488 -1.0859 -0.8311 -0.8073
24685SOL     OW79184   9.591  10.350   4.874 -0.0110  0.2644 -0.2823
24685SOL    HW179185   9.499  10.326   4.864  0.3998 -1.1195 -0.9075
24685SOL    HW279186   9.638  10.293   4.813  1.3952 -0.0912  1.0695
24686SOL     OW79187   1.836   5.017   0.500 -0.2985  0.7185 -0.1780
24686SOL    HW179188   1.758   5.062   0.467 -1.0882 -0.5543 -0.0798
24686SOL    HW279189   1.883   4.990   0.421  0.9901  3.0483 -0.2499
24687SOL     OW79190   6.457   3.626   7.837 -0.2353  0.0450 -0.5165
24687SOL    HW179191   6.515   3.564   7.792  0.7564 -0.1250  0.9185
24687SOL    HW279192   6.502   3.710   7.830  0.3433 -0.1310  0.8095
24688SOL     OW79193   2.000   9.928   0.866 -0.3653 -0.8203  0.2955
24688SOL    HW179194   1.979   9.995   0.801  1.5135 -0.5020 -0.0149
24688SOL    HW279195   2.048   9.975   0.934  0.7688 -1.7808  0.1824
24689SOL     OW79196   7.458   1.328   5.028  0.2725 -0.2155  0.3378
24689SOL    HW179197   7.441   1.371   4.944  0.3380 -1.5616 -0.3624
24689SOL    HW279198   7.522   1.260   5.009 -0.1432 -0.9135  1.3756
24690SOL     OW79199  10.029   9.080   5.023 -0.6404  0.3785 -0.8835
24690SOL    HW179200  10.081   9.139   4.970 -2.0784  1.7774 -0.7607
24690SOL    HW279201  10.076   8.997   5.019  0.6056  1.1262 -2.2654
24691SOL     OW79202   6.988   5.266  10.176 -0.4448 -0.0390 -0.0787
24691SOL    HW179203   6.912   5.251  10.232 -1.5442 -2.4031 -2.0974
24691SOL    HW279204   6.982   5.357  10.149 -2.1708 -0.0180  0.3642
24692SOL     OW79205   0.549  11.016   8.155 -0.1796 -0.4170  0.2567
24692SOL    HW179206   0.611  11.086   8.131 -0.4597 -0.2428  0.0380
24692SOL    HW279207   0.605  10.941   8.175  0.1344 -0.0835  0.6545
24693SOL     OW79208   8.830   2.678   8.893  0.8429 -0.6244  0.3134
24693SOL    HW179209   8.876   2.723   8.963 -2.3872  3.5282 -0.0038
24693SOL    HW279210   8.745   2.656   8.931  0.1436 -0.9721 -1.4093
24694SOL     OW79211  10.914  10.647   5.410  0.4076 -0.1825  0.2271
24694SOL    HW179212  10.945  10.646   5.501 -2.0722  0.9802  1.1262
24694SOL    HW279213  10.836  10.591   5.411  1.6985 -2.1016 -1.7362
24695SOL     OW79214   1.771   0.561  11.124  0.9141  0.3030 -0.1582
24695SOL    HW179215   1.776   0.578  11.030 -0.4451  0.0097 -0.2888
24695SOL    HW279216   1.775   0.466  11.132 -0.6151  0.2301 -0.0478
24696SOL     OW79217  10.823   7.301   4.002  0.3151  0.5859  0.6082
24696SOL    HW179218  10.793   7.243   3.932  1.4146 -1.0779  1.4706
24696SOL    HW279219  10.783   7.385   3.982 -2.3032 -0.7620 -0.0228
24697SOL     OW79220   2.627   0.459   2.952  0.0304  0.5397 -0.4339
24697SOL    HW179221   2.631   0.427   3.042 -0.5342 -0.5021 -0.7685
24697SOL    HW279222   2.534   0.473   2.935 -0.1507 -1.9781 -1.7579
24698SOL     OW79223   2.119   6.845   1.749 -0.7057  0.1788  0.0474
24698SOL    HW179224   2.047   6.842   1.685  0.4493 -1.4432 -1.2235
24698SOL    HW279225   2.075   6.846   1.834 -2.2607  1.9951 -0.7495
24699SOL     OW79226   6.104   7.100   3.893  0.5556 -0.6692  0.6198
24699SOL    HW179227   6.183   7.068   3.849 -0.4621 -2.6283  0.1415
24699SOL    HW279228   6.037   7.101   3.824  0.0356  0.4429  1.1432
24700SOL     OW79229   6.049   7.992   2.572 -0.4153  0.2270  0.9313
24700SOL    HW179230   6.040   8.067   2.514  0.0618  0.0527  0.6261
24700SOL    HW279231   6.128   7.948   2.541 -1.4566 -1.1887  0.1975
24701SOL     OW79232   3.040   1.551   6.546 -0.1785 -0.7021 -0.1197
24701SOL    HW179233   3.040   1.494   6.623  0.2664  0.0217  0.4219
24701SOL    HW279234   3.120   1.526   6.499  0.9721  0.6961  1.0475
24702SOL     OW79235   9.019   6.043   2.295 -0.0390  0.3520 -0.5805
24702SOL    HW179236   8.949   6.108   2.290  0.0896  0.5439  0.1301
24702SOL    HW279237   9.026   6.009   2.206 -0.0932  1.3251 -0.9601
24703SOL     OW79238   0.211   4.603   5.169  0.3922  0.0207 -0.3588
24703SOL    HW179239   0.214   4.528   5.109 -1.7374 -0.3435 -0.0397
24703SOL    HW279240   0.303   4.619   5.192  0.8495 -2.6911 -0.1611
24704SOL     OW79241   4.085   3.731  10.739 -0.6630  0.0829 -0.4584
24704SOL    HW179242   4.107   3.820  10.711  2.4012 -0.3290  0.3554
24704SOL    HW279243   4.095   3.678  10.660  0.9041 -0.0031 -0.2340
24705SOL     OW79244   8.923   2.677   3.222  0.0501 -0.0231  0.1444
24705SOL    HW179245   8.988   2.728   3.270 -0.6944 -0.0436  1.1818
24705SOL    HW279246   8.843   2.685   3.273 -0.1397 -2.0760  0.2135
24706SOL     OW79247  10.823   0.474   0.892 -0.2619  0.6748 -0.1662
24706SOL    HW179248  10.746   0.423   0.919  0.7138  0.0257  1.4399
24706SOL    HW279249  10.819   0.474   0.796 -1.3056 -0.8216 -0.1390
24707SOL     OW79250   3.645   7.093   3.734 -0.4014  0.5239  0.8520
24707SOL    HW179251   3.611   7.003   3.736  1.7122 -0.3040  0.3144
24707SOL    HW279252   3.570   7.146   3.705 -1.2691 -1.2546 -0.2476
24708SOL     OW79253   8.170   8.796   9.909  0.2099 -0.6276 -0.0684
24708SOL    HW179254   8.235   8.822   9.974  0.9312  0.0993 -1.0726
24708SOL    HW279255   8.181   8.701   9.901  2.3739 -0.2925 -1.4994
24709SOL     OW79256   2.548  10.994   7.516 -0.2001  0.3162  0.3372
24709SOL    HW179257   2.455  11.008   7.496 -0.1567 -0.0636 -0.1454
24709SOL    HW279258   2.561  10.900   7.503  0.5789  0.5965 -0.9929
24710SOL     OW79259   1.488   1.983   2.470  0.4080  0.0976 -0.1914
24710SOL    HW179260   1.555   1.914   2.460 -0.5929 -0.7734 -1.0417
24710SOL    HW279261   1.405   1.938   2.456 -0.3789  1.1633  0.9396
24711SOL     OW79262   3.252   5.880   7.648  0.1618  0.3433 -0.4599
24711SOL    HW179263   3.235   5.949   7.713 -0.9529  0.0964 -0.4773
24711SOL    HW279264   3.289   5.808   7.698 -0.4475  0.2529 -0.1347
24712SOL     OW79265   3.054   1.708  11.021  0.4181  0.0965  0.6232
24712SOL    HW179266   3.046   1.724  11.115  0.7485  0.3845  0.6032
24712SOL    HW279267   2.986   1.643  11.002  1.4548 -1.2459  1.3700
24713SOL     OW79268   9.308   7.717   0.327  0.2386  0.2806  0.1178
24713SOL    HW179269   9.237   7.772   0.360 -0.5871 -0.5966 -0.1829
24713SOL    HW279270   9.336   7.760   0.246 -0.2941  0.3415 -0.0314
24714SOL     OW79271   6.520   0.424   2.323 -0.0642 -0.1106  0.7298
24714SOL    HW179272   6.576   0.347   2.327 -2.7010 -2.0537  1.8953
24714SOL    HW279273   6.460   0.415   2.397 -1.6998  2.0567 -0.2429
24715SOL     OW79274   4.952   0.227   4.964 -0.1588  0.1578  0.2557
24715SOL    HW179275   5.021   0.201   4.903 -0.1206 -0.0131  0.3722
24715SOL    HW279276   4.870   0.211   4.916 -0.1536 -0.7616  0.5539
24716SOL     OW79277   9.171   7.318   8.318  0.3098 -0.1833  0.3911
24716SOL    HW179278   9.156   7.405   8.282  0.3971  0.1999  1.2718
24716SOL    HW279279   9.247   7.285   8.270 -0.1414 -0.0514 -0.4262
24717SOL     OW79280   3.739   5.131   2.965 -0.0625  0.1243 -0.4614
24717SOL    HW179281   3.654   5.166   2.938 -0.7424  0.4394  1.9687
24717SOL    HW279282   3.803   5.190   2.924 -1.0072  0.1217 -1.9773
24718SOL     OW79283   6.076   0.176  10.967 -0.0546 -0.1111  0.2856
24718SOL    HW179284   6.156   0.228  10.971 -0.5159  0.6784 -0.4347
24718SOL    HW279285   6.009   0.233  11.005 -0.4496 -0.3925  0.0205
24719SOL     OW79286   1.247  11.025   7.181  0.1454 -0.5997  0.3003
24719SOL    HW179287   1.205  10.939   7.180 -0.5565 -0.2834  1.4539
24719SOL    HW279288   1.331  11.010   7.225  1.2699 -1.2219 -1.9528
24720SOL     OW79289  10.192   8.888   9.114  0.3262  0.6091 -0.0171
24720SOL    HW179290  10.251   8.963   9.113  3.3452 -1.6746 -0.4625
24720SOL    HW279291  10.157   8.883   9.025  0.7229  1.0094 -0.1961
24721SOL     OW79292   7.249   6.702   9.130 -0.1597  0.5896 -0.1961
24721SOL    HW179293   7.265   6.720   9.037 -0.1390  0.0732 -0.2897
24721SOL    HW279294   7.216   6.785   9.164  0.3416  0.9381 -0.5491
24722SOL     OW79295   4.154  10.606   9.593 -0.0476  0.0728 -0.4237
24722SOL    HW179296   4.087  10.542   9.565 -0.4491  0.4311 -0.2907
24722SOL    HW279297   4.152  10.602   9.688  2.7525 -2.6277 -0.4064
24723SOL     OW79298   3.418   0.898  10.246  0.6196 -0.2964 -0.5659
24723SOL    HW179299   3.375   0.969  10.199  0.5177 -0.5449 -0.8487
24723SOL    HW279300   3.365   0.886  10.325 -0.2392 -1.0664 -1.2477
24724SOL     OW79301   0.389  11.274   1.500 -0.0607  0.4625 -0.5246
24724SOL    HW179302   0.344  11.259   1.583  1.1102 -2.3837 -0.3316
24724SOL    HW279303   0.350  11.210   1.440  0.6183  1.0062 -1.5674
24725SOL     OW79304   9.739   4.657   0.892  0.1483 -0.2001  0.3504
24725SOL    HW179305   9.680   4.594   0.851 -0.2173  0.8847 -0.8091
24725SOL    HW279306   9.823   4.610   0.899  0.2914 -0.3427 -1.8825
24726SOL     OW79307   8.957   4.600   3.083 -0.0883 -0.3715  0.1884
24726SOL    HW179308   9.018   4.533   3.112  0.7094  0.1942 -0.1583
24726SOL    HW279309   8.941   4.654   3.160  2.9955  1.8730 -0.6395
24727SOL     OW79310   2.772   3.335   3.297  0.3519  0.4983  0.1443
24727SOL    HW179311   2.866   3.326   3.276  1.0017  1.2768  2.6404
24727SOL    HW279312   2.738   3.393   3.229  1.6144  0.0489 -0.9056
24728SOL     OW79313   2.731   7.688   4.328  0.4767 -0.3410  0.3975
24728SOL    HW179314   2.716   7.606   4.280  0.3592 -0.6786  1.0038
24728SOL    HW279315   2.673   7.751   4.287  1.7617 -0.1281 -1.1715
24729SOL     OW79316   3.602   0.645   0.926 -0.2536  0.2071 -0.4200
24729SOL    HW179317   3.585   0.735   0.899 -0.8855  0.5209  0.9674
24729SOL    HW279318   3.696   0.633   0.911 -0.0390  1.3064 -0.0689
24730SOL     OW79319   8.879   0.488   9.413 -0.7342  0.1773 -0.3050
24730SOL    HW179320   8.898   0.416   9.353 -2.4874  0.7334 -1.5704
24730SOL    HW279321   8.926   0.466   9.493 -1.2822 -2.3954 -0.6632
24731SOL     OW79322   9.372   8.805   7.268 -0.3340 -0.9157  0.1251
24731SOL    HW179323   9.443   8.868   7.252  1.0800 -2.0744  1.6108
24731SOL    HW279324   9.295   8.859   7.283  0.3140  0.3926 -1.0678
24732SOL     OW79325   5.490   9.496   9.665 -0.1748  0.6973  0.0175
24732SOL    HW179326   5.431   9.531   9.732 -0.2545 -0.2297  0.4397
24732SOL    HW279327   5.456   9.530   9.582  0.7007  2.9476  0.5451
24733SOL     OW79328   1.351   6.550   3.699  0.1771 -0.1547  0.9847
24733SOL    HW179329   1.300   6.476   3.730  1.2996 -1.7126 -0.8129
24733SOL    HW279330   1.442   6.522   3.707  0.6284  1.1675  0.6175
24734SOL     OW79331  11.323   4.069   6.119  0.1311 -0.2602  0.1459
24734SOL    HW179332  11.237   4.029   6.108  0.1240 -0.2003 -0.0107
24734SOL    HW279333  11.335   4.074   6.214  0.0636 -0.4825  0.1669
24735SOL     OW79334   2.012  10.126   4.535 -0.4663 -0.1016 -0.5907
24735SOL    HW179335   1.958  10.071   4.478  0.8978 -0.9385 -1.1151
24735SOL    HW279336   2.046  10.194   4.477 -0.1704 -0.1489 -0.4718
24736SOL     OW79337   0.395   4.509   1.042  0.2439  0.7001 -0.1487
24736SOL    HW179338   0.400   4.540   1.133 -1.4060 -0.1165  0.2422
24736SOL    HW279339   0.438   4.424   1.044 -0.8990  0.1237  0.1404
24737SOL     OW79340   8.319   5.352  10.421 -0.2799 -0.6368 -0.7868
24737SOL    HW179341   8.307   5.262  10.451  1.3249 -0.4311  0.5477
24737SOL    HW279342   8.409   5.374  10.446 -2.1210  2.9581  3.3354
24738SOL     OW79343   4.169  11.074  10.346 -0.0388  0.4146 -0.6607
24738SOL    HW179344   4.213  11.105  10.266  1.4519 -1.6297 -0.6795
24738SOL    HW279345   4.231  11.093  10.416 -0.1082 -0.3984 -0.3765
24739SOL     OW79346   2.875  10.376   0.377  0.1530  0.1684 -0.1673
24739SOL    HW179347   2.879  10.316   0.452  0.9724 -0.3744 -0.6417
24739SOL    HW279348   2.948  10.350   0.321 -0.0477  1.0088 -0.8341
24740SOL     OW79349  10.869   9.107   3.119  0.1031 -0.3942 -0.2569
24740SOL    HW179350  10.826   9.070   3.041 -1.0484 -0.2040  0.2676
24740SOL    HW279351  10.825   9.064   3.193  0.7181 -0.0743  0.2995
24741SOL     OW79352   2.394   4.828   3.547  0.1879 -0.2549 -0.9136
24741SOL    HW179353   2.449   4.754   3.572 -0.4399  0.0852  1.6296
24741SOL    HW279354   2.317   4.789   3.506  1.4014 -0.8219 -2.7236
24742SOL     OW79355   9.591   6.298   9.681  0.5381 -0.0958  0.1981
24742SOL    HW179356   9.659   6.361   9.708  1.6965 -0.7808 -1.0922
24742SOL    HW279357   9.620   6.215   9.718  0.0780 -0.2853  0.1359
24743SOL     OW79358  10.128   1.183   5.298 -0.1367  0.5882  0.6351
24743SOL    HW179359  10.123   1.145   5.211 -1.3446  1.0619  0.4900
24743SOL    HW279360  10.198   1.249   5.291 -0.3914  0.7872 -0.0339
24744SOL     OW79361   3.327   2.584  10.394  0.1047  0.2001  0.0938
24744SOL    HW179362   3.394   2.652  10.402  0.3264 -0.2091  1.7827
24744SOL    HW279363   3.288   2.579  10.481 -0.8478 -0.8879 -0.3926
24745SOL     OW79364   3.413  10.630   4.202  0.2918  0.0492 -0.2311
24745SOL    HW179365   3.398  10.694   4.131 -2.2130 -0.1254  0.0946
24745SOL    HW279366   3.348  10.562   4.186  0.5903 -0.6512  1.4901
24746SOL     OW79367   3.845   3.822  11.204 -0.6770  0.3662  0.6350
24746SOL    HW179368   3.876   3.747  11.153 -0.4322  0.3195  0.8532
24746SOL    HW279369   3.843   3.895  11.142  0.8017  0.6034  0.8364
24747SOL     OW79370   2.216   0.532   4.570 -0.4924  0.5170  0.0069
24747SOL    HW179371   2.207   0.607   4.628  1.5013  0.1506  0.7915
24747SOL    HW279372   2.293   0.486   4.601  0.0921 -0.1800 -2.3696
24748SOL     OW79373   2.906   7.056   9.103 -0.2728  0.4588 -0.2474
24748SOL    HW179374   2.896   7.145   9.137 -1.9715 -0.2516  1.1806
24748SOL    HW279375   2.842   7.049   9.033  0.0374  0.4386 -0.5296
24749SOL     OW79376   1.928   8.883   9.110 -0.4349  0.2358 -0.3860
24749SOL    HW179377   1.935   8.791   9.085  1.5665  0.3027 -0.1961
24749SOL    HW279378   1.853   8.916   9.061 -1.7051 -1.6992  0.2019
24750SOL     OW79379   1.784  10.778   4.244 -0.0662 -0.0438 -0.0035
24750SOL    HW179380   1.777  10.739   4.331  1.5859 -1.3588 -0.4227
24750SOL    HW279381   1.696  10.771   4.207 -0.5050 -0.5524  1.1178
24751SOL     OW79382   7.977   3.512   5.355 -0.2338  0.5327  0.2622
24751SOL    HW179383   8.031   3.527   5.433 -1.6044 -0.6064  1.4725
24751SOL    HW279384   7.918   3.587   5.352  0.9877  1.4720 -0.7148
24752SOL     OW79385   7.784   4.240   9.803  0.0803 -0.2784  0.0733
24752SOL    HW179386   7.696   4.256   9.769  0.6197  1.8301 -0.3531
24752SOL    HW279387   7.776   4.253   9.897  0.3817  2.0116 -0.1991
24753SOL     OW79388   3.621   8.491   9.901 -0.1021  0.2634  0.0976
24753SOL    HW179389   3.547   8.525   9.951  1.1756  0.1846  2.1225
24753SOL    HW279390   3.643   8.560   9.839 -1.9681  0.2153 -0.6436
24754SOL     OW79391   1.596   5.023  10.768  0.0332  0.3446 -0.1966
24754SOL    HW179392   1.584   5.092  10.703 -0.8517 -1.1738 -1.6779
24754SOL    HW279393   1.539   5.048  10.841  0.4742  1.6745 -0.2960
24755SOL     OW79394   1.327   3.726   7.519  0.2867  0.4335 -0.1898
24755SOL    HW179395   1.396   3.718   7.454  0.9537 -0.9323  0.6649
24755SOL    HW279396   1.370   3.708   7.603 -0.8081  0.9574  0.5006
24756SOL     OW79397  10.225   6.408   5.537 -0.3510  0.3727  0.0701
24756SOL    HW179398  10.205   6.475   5.471  3.1814  0.6097 -0.8613
24756SOL    HW279399  10.204   6.450   5.621 -1.2710  1.4368 -0.6683
24757SOL     OW79400   6.726   2.769   4.927  0.0732 -0.2874 -0.7688
24757SOL    HW179401   6.759   2.770   4.837 -0.4610 -0.8795 -0.9683
24757SOL    HW279402   6.661   2.699   4.929 -0.4498  0.2124 -0.1065
24758SOL     OW79403   9.629   1.328  10.008  0.5463 -0.1595  0.5248
24758SOL    HW179404   9.647   1.377  10.088 -1.6123  0.7501  0.4614
24758SOL    HW279405   9.659   1.239  10.028 -0.2284 -0.0134  2.4489
24759SOL     OW79406   7.381   0.624   2.814  0.5619  0.3957  0.0832
24759SOL    HW179407   7.413   0.575   2.738 -0.8288 -1.3718  0.6090
24759SOL    HW279408   7.430   0.706   2.812  1.4385 -0.1524 -2.0102
24760SOL     OW79409  10.091   4.630   1.596  0.0238  0.0473 -0.0930
24760SOL    HW179410  10.096   4.557   1.533  0.9705  0.0539 -0.0444
24760SOL    HW279411  10.002   4.664   1.588 -0.1874 -0.6389 -0.6630
24761SOL     OW79412   4.221   5.767   6.308 -0.0147  0.0786 -0.2940
24761SOL    HW179413   4.278   5.776   6.384 -0.1758 -1.5509  0.0407
24761SOL    HW279414   4.276   5.724   6.242 -1.1844 -2.7363  0.4792
24762SOL     OW79415   8.832   0.281   9.245 -0.7188  0.2274 -0.1142
24762SOL    HW179416   8.882   0.228   9.183 -1.0882 -0.6113  0.2993
24762SOL    HW279417   8.788   0.217   9.301 -0.9154  0.9760  0.5903
24763SOL     OW79418   4.528   9.240   0.789  0.2687 -0.3264  0.3463
24763SOL    HW179419   4.500   9.151   0.811  0.3495  0.0487  2.0596
24763SOL    HW279420   4.468   9.296   0.839  0.7399  0.5701 -0.0893
24764SOL     OW79421   7.268   9.380   9.976  0.4630 -0.3995  0.2238
24764SOL    HW179422   7.246   9.369  10.068 -0.5987 -1.6556 -0.1696
24764SOL    HW279423   7.265   9.291   9.940  0.8652  0.0853 -1.0163
24765SOL     OW79424  10.758  11.263   5.374 -0.0215 -1.3247  0.3745
24765SOL    HW179425  10.721  11.187   5.329 -2.1430 -1.2217  1.8553
24765SOL    HW279426  10.701  11.275   5.451  0.0662  1.9641 -0.0186
24766SOL     OW79427   7.455   1.946   5.552  0.3530 -0.1606  0.1701
24766SOL    HW179428   7.404   2.011   5.601  0.8750  0.3350  0.0558
24766SOL    HW279429   7.395   1.915   5.484 -0.0784 -0.2013  0.5674
24767SOL     OW79430   6.510   4.759   4.452 -0.1617 -0.2411  0.0819
24767SOL    HW179431   6.604   4.780   4.450 -0.0399 -0.6184  1.6169
24767SOL    HW279432   6.501   4.683   4.394  0.0256  1.5008 -2.2972
24768SOL     OW79433   7.156   8.628   7.761  0.2403 -0.2802  0.2239
24768SOL    HW179434   7.141   8.691   7.832 -2.3330  0.4681 -0.9455
24768SOL    HW279435   7.239   8.656   7.722  0.2264  1.0313  1.1022
24769SOL     OW79436  10.431   9.708   5.986 -0.7796  0.1351  0.6612
24769SOL    HW179437  10.497   9.766   6.025 -0.9791  0.3337  0.7055
24769SOL    HW279438  10.356   9.765   5.970 -0.0351  0.4534 -1.7769
24770SOL     OW79439   5.807   3.709   1.438  0.3599 -0.0007 -0.3388
24770SOL    HW179440   5.877   3.746   1.385 -0.3026  0.2558 -1.0370
24770SOL    HW279441   5.847   3.633   1.480  0.4754 -1.0958 -2.3780
24771SOL     OW79442   7.976   1.389   3.733 -0.0457 -0.4564  0.1311
24771SOL    HW179443   7.902   1.338   3.701 -0.4052 -0.9189  1.6297
24771SOL    HW279444   7.937   1.466   3.774  0.3103 -0.5955  0.7447
24772SOL     OW79445   7.296   4.024  10.621 -0.3352 -0.1572 -0.3021
24772SOL    HW179446   7.332   4.040  10.534  0.5788 -2.8247 -0.4690
24772SOL    HW279447   7.301   3.929  10.632 -1.0475  0.0683  2.4057
24773SOL     OW79448   0.250   4.334   3.705  0.4290  0.4382  0.2569
24773SOL    HW179449   0.310   4.409   3.706  0.5242  0.3898 -0.7447
24773SOL    HW279450   0.303   4.261   3.674 -0.0061  0.2819 -0.1389
24774SOL     OW79451  10.098   0.041   2.339 -0.2647  0.3472  0.5236
24774SOL    HW179452  10.012   0.019   2.375  0.3661 -2.4514  0.4189
24774SOL    HW279453  10.108   0.135   2.355 -2.3836  0.2474  2.5475
24775SOL     OW79454   6.185   3.808   3.864 -0.4693 -0.2669  0.4019
24775SOL    HW179455   6.189   3.876   3.931 -1.4525 -0.5244  0.7351
24775SOL    HW279456   6.198   3.726   3.913 -3.8576 -0.6846  0.7179
24776SOL     OW79457   8.549  11.114   0.463  0.0063  0.2220 -0.3208
24776SOL    HW179458   8.583  11.176   0.528 -1.2601  0.6196 -0.0175
24776SOL    HW279459   8.574  11.028   0.497  3.0652  0.5879 -1.4988
24777SOL     OW79460   8.570  10.405   9.757 -0.2371 -0.5994  0.2108
24777SOL    HW179461   8.528  10.319   9.754 -0.8796 -0.2834 -0.0980
24777SOL    HW279462   8.644  10.394   9.816 -1.0329 -1.0575  1.1393
24778SOL     OW79463   3.298   3.213   8.436  0.1230  0.2210 -0.0788
24778SOL    HW179464   3.321   3.216   8.343 -0.8905  0.4247 -0.3349
24778SOL    HW279465   3.372   3.253   8.481  0.9580 -0.5707 -0.7342
24779SOL     OW79466   2.994   0.892  10.581  0.5777  0.1907 -0.3406
24779SOL    HW179467   3.016   0.866  10.671  0.0530 -2.1186 -0.8365
24779SOL    HW279468   2.966   0.983  10.588  0.2159 -0.0670  1.8854
24780SOL     OW79469  10.111   7.878   8.638  0.2114 -0.4988  0.8897
24780SOL    HW179470  10.113   7.908   8.547 -1.5470  1.4029  1.4452
24780SOL    HW279471  10.202   7.856   8.657  0.9911  1.2188 -0.6497
24781SOL     OW79472   7.226   6.014   9.036 -0.1018 -0.2634  0.6084
24781SOL    HW179473   7.170   6.005   8.958 -1.1553  0.2267  1.2996
24781SOL    HW279474   7.175   6.069   9.095  0.9916 -0.0760  1.3743
24782SOL     OW79475   7.701   5.779   0.388  0.4691  0.1100  0.3450
24782SOL    HW179476   7.669   5.775   0.298  0.6336  1.4938  0.2107
24782SOL    HW279477   7.621   5.782   0.441  0.3638  0.8987  0.1512
24783SOL     OW79478   6.145   4.519   3.536  0.1686  0.6162 -0.1674
24783SOL    HW179479   6.210   4.555   3.476 -0.0609  1.4595  0.0791
24783SOL    HW279480   6.190   4.514   3.620 -0.3095  1.9515  0.1862
24784SOL     OW79481   9.776   6.805   7.571 -0.6975 -0.7420  0.2465
24784SOL    HW179482   9.836   6.769   7.505 -0.1127 -1.6707  1.2639
24784SOL    HW279483   9.772   6.737   7.639  0.0430  0.9196  1.9909
24785SOL     OW79484   3.759  10.645   2.892 -0.2789  0.2609  0.4367
24785SOL    HW179485   3.670  10.610   2.884 -0.3429  0.2013  1.3195
24785SOL    HW279486   3.811  10.570   2.922  0.1398  0.2127 -0.3888
24786SOL     OW79487  10.009   2.338   7.926  0.1088  0.5259  0.1860
24786SOL    HW179488  10.046   2.337   7.838  1.9098  0.3594  0.9309
24786SOL    HW279489  10.011   2.246   7.954  0.0604  0.6544  0.6125
24787SOL     OW79490   6.264   6.102   3.269  0.2197 -0.0255 -0.7057
24787SOL    HW179491   6.307   6.019   3.291 -2.2384 -1.0307  0.6233
24787SOL    HW279492   6.217   6.084   3.187 -2.2456 -0.7651  0.7962
24788SOL     OW79493   7.690  10.906  10.226  0.2636  0.1578 -0.1054
24788SOL    HW179494   7.783  10.928  10.218 -0.2659  2.7407  0.5341
24788SOL    HW279495   7.658  10.904  10.136  0.6073  0.7866 -0.2459
24789SOL     OW79496   2.387   2.346   9.608  0.3354 -0.3197  0.1526
24789SOL    HW179497   2.450   2.417   9.618 -0.9082  0.6084  1.5468
24789SOL    HW279498   2.318   2.366   9.670 -1.3446 -1.3361 -1.3446
24790SOL     OW79499   2.560  10.699   2.945 -0.5242 -0.1124 -0.4445
24790SOL    HW179500   2.507  10.732   2.873 -1.4150  2.2568  1.2214
24790SOL    HW279501   2.627  10.766   2.959  0.1619 -0.9543  0.3696
24791SOL     OW79502   2.748   3.874   2.400 -0.5427 -0.1437  0.0348
24791SOL    HW179503   2.683   3.935   2.364 -1.4830 -0.7755  0.6507
24791SOL    HW279504   2.756   3.805   2.334  1.0120  0.9617 -0.9688
24792SOL     OW79505   9.364   8.569   1.582 -0.2525  0.4526  0.1135
24792SOL    HW179506   9.268   8.573   1.591 -0.2376  1.0513  0.0642
24792SOL    HW279507   9.397   8.610   1.662 -0.0551  1.0586 -0.2723
24793SOL     OW79508   3.385   5.054   4.344 -0.2223  0.6375  0.0702
24793SOL    HW179509   3.465   5.074   4.394 -0.6215  2.2799  0.0896
24793SOL    HW279510   3.322   5.120   4.374 -1.1321  0.2682 -1.0288
24794SOL     OW79511   3.768   6.987   7.929 -0.0350 -0.4078  0.3339
24794SOL    HW179512   3.716   7.020   8.002  1.8234  1.4800  0.8550
24794SOL    HW279513   3.847   7.041   7.930  0.9434 -1.7523 -1.7912
24795SOL     OW79514   3.539   1.171   5.928  0.2709  0.1525 -0.6192
24795SOL    HW179515   3.556   1.255   5.885  1.3393  0.4111  0.2782
24795SOL    HW279516   3.624   1.145   5.964  0.1091 -1.6519 -1.4669
24796SOL     OW79517   1.155   5.110   1.731 -0.1314 -0.2303 -0.2827
24796SOL    HW179518   1.077   5.099   1.677  1.0914 -0.6593 -2.0259
24796SOL    HW279519   1.222   5.142   1.670  0.7083  1.4096  1.4313
24797SOL     OW79520   1.366   3.290   0.430 -0.3644  0.4815  0.1439
24797SOL    HW179521   1.318   3.364   0.467 -1.6027 -0.5811  0.6938
24797SOL    HW279522   1.367   3.307   0.336  0.7746  2.0099  0.4046
24798SOL     OW79523   0.075   9.135   7.811  0.0580  0.2953 -1.0111
24798SOL    HW179524  -0.014   9.170   7.820  0.3053  1.0523 -1.4075
24798SOL    HW279525   0.067   9.043   7.833 -0.4899  0.7426  0.6994
24799SOL     OW79526   3.577   2.280   5.488 -0.2074 -0.1953  0.3533
24799SOL    HW179527   3.641   2.209   5.493 -0.0242 -0.0906 -0.4923
24799SOL    HW279528   3.535   2.280   5.574  0.8900 -0.2961  0.8932
24800SOL     OW79529   5.947   0.093   4.110 -0.0189  0.5998 -0.2555
24800SOL    HW179530   5.888   0.141   4.168 -1.3378 -1.4949  0.1826
24800SOL    HW279531   5.997   0.036   4.169  0.0579 -0.0795 -0.9629
24801SOL     OW79532   3.649   5.520   8.238  0.1203  0.3327  0.2088
24801SOL    HW179533   3.583   5.450   8.236  1.1420 -0.7322  2.4784
24801SOL    HW279534   3.700   5.507   8.158 -0.3638 -0.8601  0.0834
24802SOL     OW79535   9.044  11.110   9.906  0.1320  0.5142  0.4006
24802SOL    HW179536   8.962  11.152   9.880  0.9095  0.8467 -1.5907
24802SOL    HW279537   9.025  11.016   9.903 -0.3577  0.6074  0.5599
24803SOL     OW79538  10.961   4.320  10.404 -0.3191 -0.2285  0.6162
24803SOL    HW179539  11.022   4.255  10.369  0.0483  0.9097 -0.9114
24803SOL    HW279540  10.874   4.284  10.387 -0.1890  0.8551 -2.6837
24804SOL     OW79541   2.267   6.097   1.467  0.2883 -0.2140 -0.4464
24804SOL    HW179542   2.250   6.179   1.513  0.0271 -0.0934 -0.7541
24804SOL    HW279543   2.361   6.096   1.453  0.2547  0.1811 -0.7132
24805SOL     OW79544   3.360   5.285   5.343 -0.1218 -0.1683  0.6270
24805SOL    HW179545   3.403   5.366   5.368 -0.8253  0.0709  1.0714
24805SOL    HW279546   3.269   5.296   5.370 -0.6021 -0.4497 -0.7807
24806SOL     OW79547   9.707   7.658  10.983  0.5553 -0.3255 -0.0110
24806SOL    HW179548   9.635   7.721  10.984 -0.4150 -1.3598 -1.8098
24806SOL    HW279549   9.665   7.572  10.985  1.8068 -0.9504  0.7398
24807SOL     OW79550   4.047   1.273   6.993 -0.0437 -0.2992 -0.3596
24807SOL    HW179551   4.002   1.197   6.956  0.8227 -0.7571 -0.4841
24807SOL    HW279552   3.989   1.303   7.063  0.9676 -2.9312  1.7337
24808SOL     OW79553   4.920   2.038   0.630 -0.1666 -0.1865 -0.4662
24808SOL    HW179554   4.842   2.014   0.579 -1.0257  2.1712 -0.3227
24808SOL    HW279555   4.924   2.134   0.622  2.7395 -0.2901 -0.4934
24809SOL     OW79556   9.154  10.754   2.922 -0.4875 -0.7311  0.4105
24809SOL    HW179557   9.191  10.832   2.880  0.0254 -0.9811  0.3999
24809SOL    HW279558   9.206  10.744   3.002 -1.6483 -0.0729  1.2800
24810SOL     OW79559  10.874   9.778   2.765 -0.1255  0.1817  0.5170
24810SOL    HW179560  10.928   9.798   2.842 -1.6940 -2.0732  2.2898
24810SOL    HW279561  10.874   9.682   2.761 -0.1007  0.2761 -2.3130
24811SOL     OW79562   4.804   0.664   6.983  0.1330 -0.2766 -0.3222
24811SOL    HW179563   4.839   0.582   7.018 -0.7886 -0.3121  0.5362
24811SOL    HW279564   4.730   0.685   7.040 -0.2656  0.6208 -1.1521
24812SOL     OW79565   3.567   3.288   8.623  0.2063 -0.3119  0.4296
24812SOL    HW179566   3.539   3.202   8.654  0.7020 -0.3741  0.7065
24812SOL    HW279567   3.659   3.277   8.602  0.1265  0.0023 -0.0856
24813SOL     OW79568   0.035   3.800   5.524  0.0661 -0.9198  0.0833
24813SOL    HW179569   0.037   3.896   5.526 -1.9342 -0.8248 -1.0004
24813SOL    HW279570   0.108   3.776   5.467  1.2478 -0.1025  1.2175
24814SOL     OW79571   4.133   1.744  10.447  0.2014  0.3145 -0.6595
24814SOL    HW179572   4.117   1.672  10.385 -1.2401 -0.9273  1.0952
24814SOL    HW279573   4.068   1.810  10.425 -0.1563 -0.0259 -0.6393
24815SOL     OW79574   3.777   9.637   9.982  0.0917  0.1186 -0.4409
24815SOL    HW179575   3.744   9.569  10.040 -0.7366 -0.5777 -1.7039
24815SOL    HW279576   3.858   9.599   9.945  0.9771  0.8244  0.7420
24816SOL     OW79577   3.420   5.484   1.954  0.2378  0.3558  0.2691
24816SOL    HW179578   3.349   5.528   2.000 -0.1387 -0.5485  0.5574
24816SOL    HW279579   3.415   5.393   1.983  0.7389  0.0316 -0.6487
24817SOL     OW79580   5.426   2.607   8.280 -0.5187  0.2733 -0.2562
24817SOL    HW179581   5.491   2.538   8.264 -0.8743 -0.0356 -0.3496
24817SOL    HW279582   5.475   2.688   8.266  0.3561  0.0877  1.4787
24818SOL     OW79583   8.208   5.880   8.676  0.8866  0.4872  0.2617
24818SOL    HW179584   8.168   5.889   8.762  2.6992  0.8165  1.0814
24818SOL    HW279585   8.153   5.816   8.630 -1.5203  2.1196  0.7757
24819SOL     OW79586   8.741   2.487   9.885  0.0773 -0.2754 -0.2650
24819SOL    HW179587   8.698   2.507   9.802 -1.3556  1.8034  0.9098
24819SOL    HW279588   8.684   2.421   9.926  0.0696 -0.3444 -0.3871
24820SOL     OW79589   6.073   0.851   8.389  0.1410  0.1324  0.3491
24820SOL    HW179590   6.133   0.810   8.451  0.4449  0.2282  0.1165
24820SOL    HW279591   6.092   0.945   8.396 -0.8286  0.2854  1.1781
24821SOL     OW79592   3.604   7.617   2.675  0.2829 -0.2773 -0.3588
24821SOL    HW179593   3.564   7.703   2.661  0.4634 -0.0929  0.2412
24821SOL    HW279594   3.567   7.586   2.758  1.5922  0.0249  0.3530
24822SOL     OW79595   2.160   7.741   9.073  0.1503  0.2016  0.0605
24822SOL    HW179596   2.076   7.762   9.114  0.2090  1.4928 -0.4465
24822SOL    HW279597   2.136   7.705   8.987  0.1479  2.4533 -0.9036
24823SOL     OW79598   7.197   4.409   9.930  0.2657 -0.1116  0.2807
24823SOL    HW179599   7.137   4.405   9.855  0.3624 -0.8419  0.2469
24823SOL    HW279600   7.181   4.496   9.968 -0.3118 -0.0282 -0.1427
24824SOL     OW79601   8.185   5.828   1.575 -0.1201 -0.1506 -0.3699
24824SOL    HW179602   8.147   5.860   1.657 -0.8747 -0.7719 -0.4762
24824SOL    HW279603   8.276   5.857   1.578 -0.1021 -0.3077  0.7710
24825SOL     OW79604   5.800   6.880   1.287 -0.0468 -0.6413  0.6793
24825SOL    HW179605   5.828   6.812   1.226  1.3314  1.1845 -0.7754
24825SOL    HW279606   5.867   6.880   1.356  0.1269 -0.5336  0.5094
24826SOL     OW79607   9.632   7.826   7.247 -0.3902  0.7853 -0.0410
24826SOL    HW179608   9.695   7.882   7.202  0.8616 -0.5786 -0.0273
24826SOL    HW279609   9.641   7.848   7.340 -1.7942  2.4193 -0.2659
24827SOL     OW79610   0.446   1.563   5.966  0.0586 -0.0321  0.1184
24827SOL    HW179611   0.357   1.600   5.964 -0.7013 -1.8453 -0.9297
24827SOL    HW279612   0.481   1.580   5.878  0.3787 -0.1962  0.2156
24828SOL     OW79613   4.554   0.441   2.087  0.1634  0.9918 -0.6854
24828SOL    HW179614   4.593   0.406   2.167 -2.4652 -0.4280  0.0143
24828SOL    HW279615   4.596   0.391   2.016  1.1209  0.9306 -0.0816
24829SOL     OW79616  10.900   6.283   8.607  0.4856 -0.0871  0.2300
24829SOL    HW179617  10.890   6.225   8.683 -1.0326  0.2096  0.2847
24829SOL    HW279618  10.925   6.368   8.645  0.6815 -0.1842  0.3193
24830SOL     OW79619   5.991  11.055   0.516 -0.1974  0.1101 -0.0309
24830SOL    HW179620   5.940  11.061   0.597 -0.9260  0.7629 -0.5449
24830SOL    HW279621   5.956  11.123   0.460  1.2576  0.5842 -0.3826
24831SOL     OW79622   7.046   4.704   5.037 -0.1014 -0.1348 -0.1057
24831SOL    HW179623   7.044   4.688   5.131  0.1348 -0.8448 -0.2198
24831SOL    HW279624   7.040   4.800   5.029 -2.1033 -0.1776  0.5562
24832SOL     OW79625   9.974   1.956   0.624  0.3023 -0.0145 -0.1566
24832SOL    HW179626   9.908   1.888   0.630 -1.3544  1.6279  0.5964
24832SOL    HW279627  10.047   1.924   0.677 -0.9725 -0.6166  1.2336
24833SOL     OW79628   0.472  11.223   7.925  0.8148  0.0040  0.1104
24833SOL    HW179629   0.566  11.238   7.915  0.7739 -0.0346 -0.3390
24833SOL    HW279630   0.440  11.300   7.971  0.8289  0.6727 -0.9822
24834SOL     OW79631   9.758   7.078   5.459  0.7504 -0.3542 -0.2220
24834SOL    HW179632   9.783   7.118   5.376 -0.0957  0.0315 -0.2965
24834SOL    HW279633   9.821   7.113   5.523  1.2794 -0.5017 -0.6626
24835SOL     OW79634   2.221  11.058   1.019 -0.1037  0.6795 -0.0831
24835SOL    HW179635   2.184  11.137   0.979  1.4493  1.3504 -0.2228
24835SOL    HW279636   2.234  10.998   0.946 -0.9740  0.4018 -0.0213
24836SOL     OW79637  11.270  11.151  10.459 -0.0871  0.2959  0.0570
24836SOL    HW179638  11.357  11.132  10.425 -0.1514  1.6157 -0.9084
24836SOL    HW279639  11.245  11.072  10.507  1.9797  0.2094  1.0687
24837SOL     OW79640   0.833   6.115   8.475 -0.7351 -0.0619 -0.0890
24837SOL    HW179641   0.813   6.101   8.382  1.1872 -1.2848 -0.3587
24837SOL    HW279642   0.796   6.039   8.519 -1.2278  0.2789  0.0850
24838SOL     OW79643  10.307   4.650   7.785 -0.0007  0.0101  0.3039
24838SOL    HW179644  10.333   4.719   7.724  1.7116 -1.4779 -0.7343
24838SOL    HW279645  10.244   4.691   7.843  0.1538  2.1353 -0.9758
24839SOL     OW79646   3.662   0.994   5.148  0.4126 -0.3225  0.7622
24839SOL    HW179647   3.567   1.006   5.149  0.5652  0.9310  0.5293
24839SOL    HW279648   3.688   1.013   5.058  0.7472 -1.8319  0.5255
24840SOL     OW79649   9.305   8.597   4.452 -0.3774 -0.8061 -0.0938
24840SOL    HW179650   9.294   8.504   4.431  1.2308 -0.7907 -1.0840
24840SOL    HW279651   9.296   8.643   4.369  1.7724 -0.3580 -0.1089
24841SOL     OW79652   0.386   7.516   2.568  0.0128  0.1434 -0.3665
24841SOL    HW179653   0.313   7.459   2.591  1.6018 -2.9845 -2.6549
24841SOL    HW279654   0.462   7.477   2.612  0.5266  2.6504  1.0167
24842SOL     OW79655   3.699   1.604   2.760  0.6124  0.9747  0.1301
24842SOL    HW179656   3.730   1.514   2.744  1.3999  1.3286 -0.3843
24842SOL    HW279657   3.604   1.597   2.759  0.6414  0.5981 -2.6300
24843SOL     OW79658  10.909   4.638  11.325  0.0094  0.1779  0.1671
24843SOL    HW179659  10.880   4.643  11.234  0.1550  1.3858  0.1744
24843SOL    HW279660  10.909   4.545  11.346  0.3196 -0.1323 -1.1834
24844SOL     OW79661   2.376  10.235   6.826 -0.0548  0.2059  0.0594
24844SOL    HW179662   2.402  10.199   6.911  0.3269 -0.2857 -0.2640
24844SOL    HW279663   2.311  10.173   6.793  0.9732 -0.4655 -0.7265
24845SOL     OW79664   0.599   8.213   3.230  0.1988 -0.1734  0.1509
24845SOL    HW179665   0.512   8.188   3.200 -0.1272  1.0395  0.0713
24845SOL    HW279666   0.612   8.164   3.311 -1.3565  1.1082  1.2065
24846SOL     OW79667   8.962   7.512   8.601 -0.1740  0.7331 -0.2297
24846SOL    HW179668   8.931   7.596   8.634 -0.8114 -0.9693  3.9388
24846SOL    HW279669   8.883   7.460   8.588  0.2833  0.3173 -1.4659
24847SOL     OW79670   1.200   6.876   6.417  0.1752 -0.3304 -0.1719
24847SOL    HW179671   1.180   6.912   6.331  0.6278  1.7267  0.5526
24847SOL    HW279672   1.114   6.854   6.455 -0.1773  0.9433 -0.2304
24848SOL     OW79673   7.731   6.735   3.059  0.2978  0.1869 -0.4936
24848SOL    HW179674   7.688   6.680   2.993  2.4478 -1.3306 -0.6763
24848SOL    HW279675   7.660   6.761   3.118 -1.3725  0.2201 -2.4714
24849SOL     OW79676   2.244   0.353   6.396  0.3695 -0.4035 -0.1849
24849SOL    HW179677   2.191   0.274   6.389  0.5466 -0.3791 -2.2474
24849SOL    HW279678   2.333   0.321   6.406  0.3673 -0.4692 -0.3687
24850SOL     OW79679   9.808   9.896   9.120 -0.1763 -0.2566  0.2893
24850SOL    HW179680   9.749   9.822   9.135 -1.6948  1.0509  0.9025
24850SOL    HW279681   9.761   9.972   9.155  2.4382  0.6172  2.0706
24851SOL     OW79682  10.670   7.991  10.638 -0.2783 -0.2382  0.3264
24851SOL    HW179683  10.666   7.953  10.550 -0.7046  0.8031 -0.1026
24851SOL    HW279684  10.579   8.003  10.664 -0.1569 -0.6369  0.9622
24852SOL     OW79685   6.025   9.388   3.372  0.3555 -0.1276 -0.4207
24852SOL    HW179686   6.116   9.417   3.367  0.1197  0.5451 -0.7888
24852SOL    HW279687   5.975   9.457   3.329 -0.2315 -0.9385 -1.0532
24853SOL     OW79688   5.910   2.173   5.484 -0.0707  0.5348  0.2334
24853SOL    HW179689   5.825   2.215   5.483 -0.3970 -0.1248 -0.2641
24853SOL    HW279690   5.969   2.237   5.523 -0.6179  1.3197 -0.2331
24854SOL     OW79691   8.907   3.771   6.291  0.0133 -0.7196 -0.5745
24854SOL    HW179692   8.997   3.799   6.276 -0.1465  0.2640  0.2231
24854SOL    HW279693   8.913   3.714   6.368 -0.1742  0.2364  0.1723
24855SOL     OW79694   9.264   5.817   7.302 -0.0419 -0.5102 -0.5299
24855SOL    HW179695   9.325   5.747   7.321  1.1132  0.2504 -1.3875
24855SOL    HW279696   9.265   5.825   7.206 -1.6492 -0.6436 -0.5681
24856SOL     OW79697   1.977  10.855   5.996  0.1960  0.3885  0.0196
24856SOL    HW179698   2.015  10.837   6.082 -1.9323 -0.7106  0.7578
24856SOL    HW279699   1.931  10.939   6.007  0.1982  0.4101 -0.1325
24857SOL     OW79700   6.876   9.970  10.094 -0.2918  0.7537  0.4042
24857SOL    HW179701   6.962   9.974  10.052 -0.3506  1.6029  0.3534
24857SOL    HW279702   6.889  10.007  10.181 -0.9014  2.3246 -0.1364
24858SOL     OW79703   2.225   9.905  11.243  0.7750 -0.1399 -0.0706
24858SOL    HW179704   2.151   9.942  11.291  0.9498  0.0433  0.0536
24858SOL    HW279705   2.301   9.923  11.297  0.8778 -0.5590 -0.0764
24859SOL     OW79706  10.775   9.037   2.105  0.6349  0.2826 -0.3919
24859SOL    HW179707  10.793   8.949   2.072  0.3601 -0.0606  0.3570
24859SOL    HW279708  10.774   9.092   2.027  0.6618 -0.4040 -0.8824
24860SOL     OW79709   0.767   8.934   1.346  0.2097 -0.0956  0.2766
24860SOL    HW179710   0.843   8.981   1.382  1.7805 -1.9272 -0.5380
24860SOL    HW279711   0.697   8.999   1.346  1.7454  1.6288  1.1427
24861SOL     OW79712   5.151  10.170  10.265 -0.0869 -0.3072  0.3799
24861SOL    HW179713   5.065  10.205  10.284 -0.3224 -1.1580  0.8923
24861SOL    HW279714   5.212  10.240  10.289 -0.7708  1.6697 -3.2320
24862SOL     OW79715   2.538   9.373   8.924  0.5458  0.0960 -0.8758
24862SOL    HW179716   2.634   9.379   8.919  0.5463 -0.4371 -1.5467
24862SOL    HW279717   2.508   9.391   8.835  0.2549 -4.1062 -1.7388
24863SOL     OW79718   1.146   3.035   3.117 -0.7429  0.3840 -0.2378
24863SOL    HW179719   1.205   3.051   3.044  0.1197  0.5688  0.4968
24863SOL    HW279720   1.068   3.086   3.096 -0.6010  0.2325 -1.1525
24864SOL     OW79721   0.773   7.447   6.425 -0.4824  0.3658 -0.0576
24864SOL    HW179722   0.731   7.391   6.490  1.6106 -0.5814  0.5221
24864SOL    HW279723   0.823   7.511   6.477  0.4507  0.1834 -0.7114
24865SOL     OW79724   9.077  10.886   2.240  0.0938 -0.4124  0.4649
24865SOL    HW179725   9.157  10.882   2.186 -0.3335 -0.0433 -0.2092
24865SOL    HW279726   9.093  10.957   2.301 -0.3202  0.6711 -0.6694
24866SOL     OW79727   9.158  10.715   5.918  0.3356  0.7298 -0.0193
24866SOL    HW179728   9.072  10.710   5.876 -0.2727  0.0524  1.2491
24866SOL    HW279729   9.219  10.682   5.853 -0.4843  0.4089 -0.6313
24867SOL     OW79730   7.523   4.818   7.861  0.3149  0.5105  0.2664
24867SOL    HW179731   7.582   4.743   7.868 -1.8771 -1.2143  0.5298
24867SOL    HW279732   7.549   4.875   7.934  1.6169 -0.2274  0.3973
24868SOL     OW79733   4.380   6.642   2.164 -0.1761  0.1175 -0.0707
24868SOL    HW179734   4.348   6.727   2.194 -1.6630 -0.8535  1.1895
24868SOL    HW279735   4.364   6.583   2.238 -2.3306 -1.9845 -2.1297
24869SOL     OW79736   3.998   2.371   9.864 -0.7571 -0.0699  0.2882
24869SOL    HW179737   3.966   2.327   9.943  1.0184  1.1654  1.7569
24869SOL    HW279738   4.079   2.325   9.843 -0.7250  0.2363 -0.2491
24870SOL     OW79739   4.968   5.388  11.220  0.0787 -0.7242 -0.0866
24870SOL    HW179740   4.875   5.369  11.233 -0.0739 -0.3300 -0.5731
24870SOL    HW279741   4.995   5.324  11.153  0.4366 -1.5880  0.8687
24871SOL     OW79742   6.126   1.444   1.737 -0.4332  0.4305 -0.3954
24871SOL    HW179743   6.165   1.460   1.651  0.2051 -0.3776 -0.2695
24871SOL    HW279744   6.193   1.394   1.785 -1.0004  0.3940  0.3753
24872SOL     OW79745  11.234   0.461   6.630  0.2888  0.0402  0.0012
24872SOL    HW179746  11.227   0.387   6.570 -0.1595  0.1640 -0.1016
24872SOL    HW279747  11.152   0.509   6.618  0.0846 -0.0768  0.9152
24873SOL     OW79748   1.206   9.477   2.313  0.3840 -0.1105  0.4873
24873SOL    HW179749   1.296   9.448   2.328  0.5950  0.7511  0.9361
24873SOL    HW279750   1.174   9.501   2.400 -0.3199 -0.5058  0.3441
24874SOL     OW79751   9.989   8.745  10.462 -0.6497  0.0323  0.8545
24874SOL    HW179752  10.064   8.740  10.522  0.6753  0.6354 -0.7111
24874SOL    HW279753  10.022   8.795  10.387 -2.5639  0.1111  0.0475
24875SOL     OW79754   5.773   1.425   2.753 -0.1298 -0.5059 -0.4282
24875SOL    HW179755   5.767   1.469   2.838  0.1975 -0.2505 -0.5344
24875SOL    HW279756   5.851   1.463   2.712  0.5976 -1.7280 -0.2038
24876SOL     OW79757   2.991   0.012   9.195 -0.2514  0.3216  0.5529
24876SOL    HW179758   2.903  -0.028   9.196 -1.0070  1.7942 -2.3031
24876SOL    HW279759   3.046  -0.051   9.243 -2.1782 -2.2967 -0.5123
24877SOL     OW79760   1.015   6.447   7.482  0.1445 -0.1675  0.2481
24877SOL    HW179761   0.978   6.465   7.568 -0.4875  2.3893 -0.5361
24877SOL    HW279762   1.109   6.462   7.492 -0.1360  1.8238  0.0978
24878SOL     OW79763   5.748   3.528   6.507  0.2805 -0.1049  0.1567
24878SOL    HW179764   5.702   3.559   6.585 -0.4844 -0.0156 -0.3159
24878SOL    HW279765   5.814   3.468   6.539 -0.7558 -0.9239  0.7928
24879SOL     OW79766  10.632   3.264  11.226 -0.0490  0.0766  0.3026
24879SOL    HW179767  10.588   3.265  11.142  0.9561  1.0778 -0.2261
24879SOL    HW279768  10.600   3.185  11.269 -0.7420 -0.3191 -0.9245
24880SOL     OW79769  11.050   5.795   1.108 -0.1276 -0.2836  0.5555
24880SOL    HW179770  10.972   5.766   1.060 -1.1665  2.0561  0.7608
24880SOL    HW279771  11.086   5.865   1.054  0.8123 -0.1425  1.3629
24881SOL     OW79772   9.987   4.801   3.997 -0.4189 -0.8738 -0.0977
24881SOL    HW179773   9.910   4.761   3.957 -0.7977  0.9132 -1.2436
24881SOL    HW279774  10.040   4.728   4.028 -1.1654 -2.2234 -1.9697
24882SOL     OW79775   2.758   2.234   9.444  0.3818  0.7030  0.2747
24882SOL    HW179776   2.804   2.314   9.421  1.6724 -0.3610 -0.9863
24882SOL    HW279777   2.824   2.165   9.433 -1.1900 -0.7333 -0.4108
24883SOL     OW79778   6.878   4.444   4.440  0.3684  0.1248 -0.6417
24883SOL    HW179779   6.911   4.501   4.371  0.0490  0.4106 -0.5577
24883SOL    HW279780   6.794   4.413   4.407  0.1083  0.4414 -0.2848
24884SOL     OW79781   1.820   5.328   9.052  0.3806  0.0626  0.4962
24884SOL    HW179782   1.795   5.248   9.097  0.3981  0.2895  0.9212
24884SOL    HW279783   1.914   5.317   9.033  0.1350 -0.4709 -0.4236
24885SOL     OW79784  10.707   2.866   0.914 -0.3337 -0.0030  0.1486
24885SOL    HW179785  10.620   2.840   0.883 -0.9336  0.6586  1.2666
24885SOL    HW279786  10.761   2.787   0.902 -0.4752  0.2925 -2.7751
24886SOL     OW79787   6.501  10.965   8.477 -0.7656 -0.0519 -0.3738
24886SOL    HW179788   6.579  10.915   8.502 -0.0501  0.1470 -2.1460
24886SOL    HW279789   6.513  11.050   8.519 -0.8255 -0.5398  0.6666
24887SOL     OW79790   3.383   9.766   5.164  0.5078 -0.7146 -0.5158
24887SOL    HW179791   3.453   9.753   5.228  0.2172 -1.7406 -0.3976
24887SOL    HW279792   3.366   9.679   5.129 -0.5928 -0.4455 -0.6728
24888SOL     OW79793   8.693   3.153  11.110  0.0146 -0.0566 -0.0748
24888SOL    HW179794   8.612   3.202  11.117  0.3571  0.5095 -0.0491
24888SOL    HW279795   8.666   3.066  11.079 -0.5397  0.3069 -0.6260
24889SOL     OW79796   4.313   4.078   4.822  0.1868 -0.5129 -0.0663
24889SOL    HW179797   4.393   4.121   4.851  0.0992  0.1836 -0.8330
24889SOL    HW279798   4.306   4.101   4.729 -0.4992 -1.1908 -0.1877
24890SOL     OW79799   5.166  11.226   9.406  0.2739  0.3426  0.0741
24890SOL    HW179800   5.236  11.173   9.368  0.8710  1.5545 -0.5287
24890SOL    HW279801   5.191  11.235   9.498  1.5108  1.7189 -0.3825
24891SOL     OW79802   1.175   6.061   5.929 -0.2199 -0.0546  0.2561
24891SOL    HW179803   1.205   6.075   6.019  0.5110 -0.4929  0.0836
24891SOL    HW279804   1.090   6.018   5.939  0.3408 -1.0817  0.7454
24892SOL     OW79805   7.809   0.519   4.322  0.2919  0.2606  0.4099
24892SOL    HW179806   7.881   0.489   4.377  0.1619  1.2693  1.1592
24892SOL    HW279807   7.841   0.508   4.232  1.7239  1.4935  0.7414
24893SOL     OW79808   4.304   5.573   2.098 -1.1577  0.1285  0.0686
24893SOL    HW179809   4.328   5.523   2.020 -1.5606  1.3143 -0.8406
24893SOL    HW279810   4.216   5.542   2.121 -1.3552  0.3213 -0.4151
24894SOL     OW79811   3.745   1.954   6.520 -0.5950  0.2130  0.2725
24894SOL    HW179812   3.795   2.004   6.455 -0.7305  1.4706  1.1160
24894SOL    HW279813   3.660   1.998   6.525 -1.7715 -1.8175 -1.0337
24895SOL     OW79814  10.420  10.047   0.374 -0.5638 -0.1192 -0.2461
24895SOL    HW179815  10.438  10.141   0.370 -0.3841 -0.1765 -0.8288
24895SOL    HW279816  10.503  10.009   0.401 -0.4898 -0.1581 -0.5320
24896SOL     OW79817   3.873   3.451   7.051 -0.5545  0.0729  0.2220
24896SOL    HW179818   3.841   3.376   7.101 -0.9992 -1.6797 -2.5313
24896SOL    HW279819   3.952   3.479   7.097 -1.4906 -0.8459  2.4150
24897SOL     OW79820   8.445   9.686   6.868 -1.1491 -0.1614  0.1212
24897SOL    HW179821   8.502   9.761   6.882  1.4739 -2.0820  0.1094
24897SOL    HW279822   8.476   9.646   6.787 -2.8770 -0.9626 -0.1898
24898SOL     OW79823   6.861   9.863   0.189 -0.2803 -0.1530 -0.2333
24898SOL    HW179824   6.888   9.893   0.102  0.5673 -2.2467 -0.7230
24898SOL    HW279825   6.811   9.782   0.172 -0.5217 -0.3234  1.1955
24899SOL     OW79826   0.599  11.282  10.190 -0.0496 -0.1738 -0.2715
24899SOL    HW179827   0.651  11.202  10.179 -0.9206 -0.8035  0.1069
24899SOL    HW279828   0.661  11.353  10.177  0.9496 -0.9160  0.3359
24900SOL     OW79829   0.106   5.786   3.569  0.0324  0.3169  0.0060
24900SOL    HW179830   0.120   5.702   3.526 -1.0310 -0.6176  1.4388
24900SOL    HW279831   0.011   5.793   3.577  0.1408  1.4363  0.3354
24901SOL     OW79832   7.024   3.488   9.029 -0.1249  0.2506  0.0434
24901SOL    HW179833   7.052   3.570   8.989  1.0668  0.6203  1.5907
24901SOL    HW279834   7.015   3.427   8.955  2.8202  0.6887 -0.7432
24902SOL     OW79835   4.940   0.553   3.946 -0.0099  0.4433 -0.2662
24902SOL    HW179836   4.857   0.532   3.903  0.8432 -0.3449 -1.5491
24902SOL    HW279837   4.979   0.469   3.967  0.9542  0.7893 -0.6169
24903SOL     OW79838   9.748   5.325   6.557 -0.2661  0.2311  0.1696
24903SOL    HW179839   9.831   5.345   6.514 -1.1804 -0.0322 -1.7478
24903SOL    HW279840   9.760   5.237   6.592  0.0973  0.0094 -0.5018
24904SOL     OW79841   7.529   0.647   3.863  0.0372  0.2655 -0.0953
24904SOL    HW179842   7.503   0.558   3.885  0.1129  0.1764 -0.3662
24904SOL    HW279843   7.449   0.699   3.874  0.0364  0.1914  0.2223
24905SOL     OW79844   1.024   3.107   5.259  0.2953  0.1033  0.4290
24905SOL    HW179845   1.041   3.038   5.323 -1.3241  0.6382  1.4613
24905SOL    HW279846   1.014   3.186   5.312 -0.0196  0.7427 -0.5735
24906SOL     OW79847   9.625   9.013   1.798  0.3496  0.0369 -0.3940
24906SOL    HW179848   9.720   9.015   1.790  0.2807 -1.8261 -2.0596
24906SOL    HW279849   9.609   8.991   1.890  1.5244 -0.1944 -0.2335
24907SOL     OW79850   6.472   3.653  10.437  0.0945  0.7213 -0.6094
24907SOL    HW179851   6.525   3.587  10.481 -0.2394 -0.2968 -1.6937
24907SOL    HW279852   6.386   3.613  10.427 -0.4001  1.7043 -0.3862
24908SOL     OW79853   3.094   5.092   3.304 -0.0790  0.3731 -0.2509
24908SOL    HW179854   3.084   5.018   3.244  1.4408  0.1572 -0.2650
24908SOL    HW279855   3.117   5.166   3.248  0.5114  0.3579 -0.0401
24909SOL     OW79856   7.498   8.314  10.678  0.0148  0.1395 -0.8737
24909SOL    HW179857   7.403   8.316  10.689 -0.0155 -0.1193 -1.1036
24909SOL    HW279858   7.524   8.406  10.673 -0.0538  0.2547  0.7197
24910SOL     OW79859   4.100   0.401   6.358 -0.3300 -0.3018 -0.5473
24910SOL    HW179860   4.191   0.406   6.329 -0.4461  0.9010 -0.7339
24910SOL    HW279861   4.094   0.465   6.429 -1.5904  1.3748 -2.0995
24911SOL     OW79862   0.632   5.238   1.370 -0.4914  0.1379  0.1767
24911SOL    HW179863   0.651   5.256   1.462 -0.5634  0.1871  0.1826
24911SOL    HW279864   0.556   5.293   1.351  0.3645  1.1884 -0.2950
24912SOL     OW79865   4.454   0.556   2.359  0.2647 -0.0110  0.0425
24912SOL    HW179866   4.535   0.505   2.363  0.8759  0.9445  0.2143
24912SOL    HW279867   4.398   0.517   2.426 -0.1560 -1.8950 -1.3595
24913SOL     OW79868   7.451   4.081   5.419 -0.3626  0.1416  0.0188
24913SOL    HW179869   7.420   4.171   5.411  0.6108  0.6155  1.3661
24913SOL    HW279870   7.435   4.042   5.333 -1.4397  1.3894 -0.3513
24914SOL     OW79871   7.431   9.009   2.543 -0.1982  0.0696  0.3207
24914SOL    HW179872   7.508   8.956   2.563 -0.0941  0.3242  0.6082
24914SOL    HW279873   7.357   8.949   2.550 -0.0926 -0.0102  0.7490
24915SOL     OW79874   5.642   4.740   0.056 -0.7651 -0.9385 -0.1945
24915SOL    HW179875   5.672   4.662   0.103  1.7104 -0.0433 -0.2197
24915SOL    HW279876   5.683   4.732  -0.031  0.4066  0.9216  0.1651
24916SOL     OW79877  10.151   8.797   8.828  0.0736  0.6626  0.3156
24916SOL    HW179878  10.106   8.725   8.873  1.1620 -0.2534 -0.0653
24916SOL    HW279879  10.089   8.826   8.762 -0.0084 -0.5261 -0.1357
24917SOL     OW79880   7.746   3.440   0.368  0.3980 -0.1576 -0.5805
24917SOL    HW179881   7.775   3.529   0.388  1.9667 -0.6870 -0.4593
24917SOL    HW279882   7.709   3.407   0.450  1.0608 -0.0994 -0.2598
24918SOL     OW79883   8.606  10.832   5.644  0.5692 -0.1497  0.5377
24918SOL    HW179884   8.627  10.926   5.648 -0.2475  0.0184  1.1156
24918SOL    HW279885   8.520  10.826   5.686  0.6745 -1.1788  0.5973
24919SOL     OW79886   5.830  11.046   3.512 -0.3396 -0.7696  0.3881
24919SOL    HW179887   5.808  11.091   3.430  1.0986  0.0308  0.4205
24919SOL    HW279888   5.756  10.986   3.527 -0.6350 -0.9110 -1.4680
24920SOL     OW79889   5.988   2.779   1.648  0.7904  0.0169  0.2702
24920SOL    HW179890   5.961   2.746   1.562 -1.3811 -0.0607  0.9477
24920SOL    HW279891   6.038   2.858   1.629 -0.9434  0.8415 -1.0141
24921SOL     OW79892  10.516  11.166   6.990  0.1731  0.2092 -0.5621
24921SOL    HW179893  10.452  11.233   7.014 -0.9295 -0.8017 -0.6295
24921SOL    HW279894  10.466  11.084   6.992  1.6815 -0.7061  0.2662
24922SOL     OW79895   5.319   1.309   5.243 -0.1235 -0.1638 -0.2155
24922SOL    HW179896   5.328   1.218   5.214 -1.8162 -0.3030 -0.3139
24922SOL    HW279897   5.258   1.305   5.317  1.0584  0.6976  0.8371
24923SOL     OW79898   7.998   9.237   8.497 -0.8986  0.1138  0.7775
24923SOL    HW179899   8.073   9.271   8.448 -1.6236 -0.0454 -0.4466
24923SOL    HW279900   7.930   9.304   8.485 -2.1795 -1.5119 -1.2333
24924SOL     OW79901   2.985   8.120   8.848 -0.2284 -0.1827  0.0254
24924SOL    HW179902   2.916   8.176   8.812  0.9053  0.1115 -1.7335
24924SOL    HW279903   3.035   8.177   8.906  0.1475  0.3020 -0.7717
24925SOL     OW79904   5.161   2.464   9.208 -0.6421  0.2979  0.0150
24925SOL    HW179905   5.200   2.377   9.219 -1.0019  0.2954  1.3518
24925SOL    HW279906   5.101   2.473   9.282 -2.4870  0.6875 -1.5087
24926SOL     OW79907   6.785  10.712   5.950  0.5008  0.2533  0.3299
24926SOL    HW179908   6.746  10.797   5.931  1.1798  0.4820 -0.0485
24926SOL    HW279909   6.776  10.663   5.869  1.1053  0.3462  0.2063
24927SOL     OW79910   9.705   9.724   1.796  0.1605 -0.2533  0.2092
24927SOL    HW179911   9.731   9.657   1.858  2.5301  0.1500 -0.2923
24927SOL    HW279912   9.715   9.683   1.710  5.0673  1.6863 -0.3264
24928SOL     OW79913   4.287   4.002   4.280  0.2434  0.2045 -0.3993
24928SOL    HW179914   4.374   3.982   4.314  0.5468 -0.3018 -1.4360
24928SOL    HW279915   4.244   3.917   4.271  0.1679  0.3262 -1.2483
24929SOL     OW79916   0.590  10.385  11.059 -0.1287 -0.1923  0.0416
24929SOL    HW179917   0.515  10.421  11.010  1.5747  1.9827 -1.0298
24929SOL    HW279918   0.562  10.389  11.150 -1.6013 -0.0816 -0.3881
24930SOL     OW79919  10.193  10.570   6.072 -0.1833  0.4760 -0.1873
24930SOL    HW179920  10.148  10.616   6.143 -1.1125 -1.8453  0.7689
24930SOL    HW279921  10.212  10.483   6.108  0.9747 -0.1158 -2.1719
24931SOL     OW79922   9.568   3.276   9.066 -0.3514  0.3610  0.2419
24931SOL    HW179923   9.596   3.185   9.058  2.1446  1.0514  0.7022
24931SOL    HW279924   9.474   3.270   9.087 -0.1064 -2.1073  0.8344
24932SOL     OW79925   1.257   1.669   0.933  0.3929 -0.5301  0.4185
24932SOL    HW179926   1.233   1.671   1.026  0.0003 -2.0103  0.3666
24932SOL    HW279927   1.173   1.667   0.887  0.5882  0.2999  0.0300
24933SOL     OW79928   9.364  10.437  11.005  0.0488 -0.6625  0.2035
24933SOL    HW179929   9.298  10.504  10.986  0.1746 -0.8871 -1.1285
24933SOL    HW279930   9.316  10.368  11.051 -0.3333 -0.1620  0.5537
24934SOL     OW79931   7.975   8.661   8.935 -0.1038  0.0988 -0.0681
24934SOL    HW179932   7.908   8.723   8.907 -0.4634  0.4686  1.5514
24934SOL    HW279933   8.033   8.712   8.991  0.6592 -0.5854 -0.2285
24935SOL     OW79934   9.168  10.109   4.018  0.2589 -0.4822 -0.1859
24935SOL    HW179935   9.174  10.196   4.058  2.5377 -0.1705 -1.1270
24935SOL    HW279936   9.254  10.069   4.033 -0.6560 -2.4640 -0.0459
24936SOL     OW79937   9.160   1.865   9.751  0.0403  0.0620 -0.0415
24936SOL    HW179938   9.226   1.816   9.702 -0.9262 -0.8876 -0.4179
24936SOL    HW279939   9.163   1.953   9.715  1.9756  0.3650  0.8105
24937SOL     OW79940   5.932   6.853   4.428 -0.5661 -0.4051  0.1778
24937SOL    HW179941   5.897   6.780   4.480  0.6430 -1.9805 -1.1690
24937SOL    HW279942   5.918   6.826   4.337  2.2215 -0.1182 -0.3720
24938SOL     OW79943   4.513   2.299   4.187  0.3928 -0.4060 -0.5009
24938SOL    HW179944   4.438   2.276   4.241  0.3480 -1.2080 -0.8927
24938SOL    HW279945   4.493   2.386   4.154  0.8683  0.5025  1.5457
24939SOL     OW79946   6.957   9.323   7.763  0.1921  0.2079 -0.1056
24939SOL    HW179947   7.007   9.335   7.682  1.1189  2.7331  0.7970
24939SOL    HW279948   6.986   9.239   7.797  2.2193  0.6310 -0.7160
24940SOL     OW79949   8.615   7.066   8.626  0.0771 -0.5748  0.3612
24940SOL    HW179950   8.648   7.003   8.562  1.0902  0.9023 -0.6380
24940SOL    HW279951   8.521   7.072   8.608  0.0857 -1.3231  0.0472
24941SOL     OW79952   0.564   2.936  10.560 -0.2715  0.0231  0.0922
24941SOL    HW179953   0.501   2.987  10.612  0.6513  1.7106 -0.3903
24941SOL    HW279954   0.517   2.856  10.537 -2.5456  1.5798 -0.9106
24942SOL     OW79955   0.598   1.012   9.545  0.2336  0.5296  0.1861
24942SOL    HW179956   0.622   1.086   9.489  3.0564 -0.5131 -0.0702
24942SOL    HW279957   0.668   0.948   9.531 -3.3452 -3.2450 -1.4291
24943SOL     OW79958   1.132   1.460   4.788 -0.4966  0.0849 -0.2876
24943SOL    HW179959   1.200   1.515   4.826 -0.9393  0.3588  0.1205
24943SOL    HW279960   1.149   1.372   4.822  0.4472 -0.1131 -1.2544
24944SOL     OW79961   8.088   7.835  10.522  0.2012 -0.7118 -0.2680
24944SOL    HW179962   8.136   7.757  10.496  1.0746 -0.1051 -0.4905
24944SOL    HW279963   8.056   7.815  10.611  3.2981 -0.0510  1.0562
24945SOL     OW79964  10.565   2.061   9.389 -0.4830  0.3137  0.1333
24945SOL    HW179965  10.526   2.090   9.307  1.8634 -0.1652 -1.1795
24945SOL    HW279966  10.656   2.090   9.384 -0.3035  0.2581  2.5604
24946SOL     OW79967   9.859   4.193  10.514  0.5551 -0.3732 -0.2484
24946SOL    HW179968   9.934   4.239  10.475  0.9290 -1.4814 -0.8481
24946SOL    HW279969   9.842   4.121  10.454 -0.9272 -0.1956 -0.0393
24947SOL     OW79970   3.592   6.500   4.511  0.4844 -0.2010  0.3445
24947SOL    HW179971   3.668   6.500   4.453  1.3606 -0.0195  1.4839
24947SOL    HW279972   3.538   6.428   4.479 -0.9229  2.2680 -3.0823
24948SOL     OW79973   2.925  10.248   7.856 -0.5038  0.1414 -0.3783
24948SOL    HW179974   2.893  10.204   7.777  0.5190  0.0515 -0.7452
24948SOL    HW279975   3.018  10.225   7.860 -0.4763  0.4283  0.6636
24949SOL     OW79976   3.317   0.079  10.086  0.2017 -0.2277  0.2889
24949SOL    HW179977   3.350  -0.006  10.059 -1.6392 -0.6190 -0.7589
24949SOL    HW279978   3.319   0.076  10.182  0.5009 -1.2871  0.2520
24950SOL     OW79979   3.712  10.713   4.909  0.0699  0.0461  0.3536
24950SOL    HW179980   3.747  10.741   4.993 -2.0179  1.2867  0.8349
24950SOL    HW279981   3.784  10.729   4.847  1.1804  0.3024  1.6846
24951SOL     OW79982   1.657   5.142   7.698  0.4754  0.1968  0.1830
24951SOL    HW179983   1.651   5.113   7.789 -1.5355 -1.0781 -0.3251
24951SOL    HW279984   1.592   5.211   7.690 -1.5304 -1.7504 -1.0003
24952SOL     OW79985   9.277   0.948   8.591  0.2906  0.3557  0.1707
24952SOL    HW179986   9.273   0.875   8.529  0.1543  1.1174 -0.7492
24952SOL    HW279987   9.199   1.000   8.571 -0.2413  0.1254  1.6188
24953SOL     OW79988   0.002   1.105   3.222 -0.2781  0.1227 -0.5244
24953SOL    HW179989  -0.025   1.184   3.175 -0.5854  1.2367  1.4611
24953SOL    HW279990  -0.079   1.070   3.259 -0.1199 -1.0586 -1.2614
24954SOL     OW79991   9.957   3.974   5.490 -0.4284 -0.3060  0.7010
24954SOL    HW179992   9.878   3.927   5.461 -0.2183 -0.6174  0.6366
24954SOL    HW279993   9.925   4.032   5.559 -0.4566 -1.5160  1.7222
24955SOL     OW79994   0.596   0.618   0.317  0.4073 -0.0058  0.0929
24955SOL    HW179995   0.558   0.609   0.230  1.2381  0.8994 -0.3799
24955SOL    HW279996   0.529   0.585   0.377 -0.8444  0.9612 -0.7647
24956SOL     OW79997   8.181   5.042   2.462 -0.2019 -0.2710  0.3192
24956SOL    HW179998   8.128   5.026   2.385 -0.0770  0.5502  0.0510
24956SOL    HW279999   8.174   4.962   2.514 -0.4050 -0.7691 -0.4684
24957SOL     OW80000   8.743   0.653   0.414  0.1722  0.0484 -0.0662
24957SOL    HW180001   8.755   0.747   0.423 -0.6149  0.2412 -0.9750
24957SOL    HW280002   8.654   0.643   0.380  0.1493 -1.0346  0.2838
24958SOL     OW80003   2.465   4.732   0.023  0.2646 -0.2419 -0.0163
24958SOL    HW180004   2.521   4.801  -0.012  1.4058 -0.4219  1.4136
24958SOL    HW280005   2.467   4.746   0.118 -0.3968 -1.5600  0.1972
24959SOL     OW80006   3.207   4.824   9.081 -0.7775  0.1971  0.1636
24959SOL    HW180007   3.233   4.760   9.148  0.5571  2.6968  2.1064
24959SOL    HW280008   3.131   4.868   9.118 -1.2569  0.2469 -0.8573
24960SOL     OW80009   4.232   1.416   0.334 -0.1216 -0.9448 -0.8526
24960SOL    HW180010   4.165   1.373   0.387 -0.4729 -0.8749 -1.2379
24960SOL    HW280011   4.214   1.509   0.344  0.7788 -0.8711  0.1656
24961SOL     OW80012   0.644   6.960   9.050 -0.3731  0.5840 -0.3651
24961SOL    HW180013   0.604   7.002   9.126 -2.2081 -0.1559 -0.8869
24961SOL    HW280014   0.663   6.871   9.078  1.4923  1.0925  0.0591
24962SOL     OW80015   3.208   0.455   4.039 -0.0765  0.0645  0.2410
24962SOL    HW180016   3.209   0.520   4.109 -0.4138  0.3912 -0.0492
24962SOL    HW280017   3.290   0.469   3.993  0.4455 -0.5993  0.9733
24963SOL     OW80018   2.123   5.575   9.875  0.6639  0.6308  0.0522
24963SOL    HW180019   2.205   5.603   9.915  0.8270  2.1435 -1.2895
24963SOL    HW280020   2.129   5.605   9.784 -1.6530  1.3380  0.1001
24964SOL     OW80021   8.769   3.085   0.024  1.1349  0.5815 -0.3897
24964SOL    HW180022   8.753   3.114  -0.066 -0.1931  1.7817  0.2197
24964SOL    HW280023   8.731   3.154   0.078  1.2178 -0.5328  1.1023
24965SOL     OW80024   4.116   3.786   9.087  0.0084 -0.0867 -0.0541
24965SOL    HW180025   4.026   3.757   9.073 -0.2437  1.0817 -0.8793
24965SOL    HW280026   4.112   3.881   9.087  1.0125 -0.0220  1.5347
24966SOL     OW80027  10.892   8.226  11.074 -0.2442 -0.0119  0.2453
24966SOL    HW180028  10.913   8.268  10.990 -1.0407  1.1173  0.5962
24966SOL    HW280029  10.807   8.263  11.098 -0.5645 -1.2061  0.9849
24967SOL     OW80030   8.656  10.062   1.100  0.4215 -0.0801  0.1922
24967SOL    HW180031   8.637  10.036   1.010  2.2051  0.6622 -0.4068
24967SOL    HW280032   8.660   9.980   1.148  0.4878 -0.5458 -0.6005
24968SOL     OW80033   5.199  10.956   0.957 -0.1668  0.2550  0.7528
24968SOL    HW180034   5.248  10.991   0.883  0.1364  0.5662  1.0999
24968SOL    HW280035   5.183  10.864   0.935 -1.3140  0.6988 -0.3497
24969SOL     OW80036   7.660   5.455   7.203  0.3321 -0.1201 -0.1124
24969SOL    HW180037   7.746   5.432   7.237  2.6636  2.8709 -3.6240
24969SOL    HW280038   7.645   5.544   7.234 -1.6857 -0.7297  0.7340
24970SOL     OW80039   8.631   7.991   4.416  0.0139 -0.1102 -0.1781
24970SOL    HW180040   8.716   7.987   4.372  0.6402  1.5456  0.8082
24970SOL    HW280041   8.576   8.042   4.357 -1.0904 -3.2786 -1.9979
24971SOL     OW80042   5.573   0.684   0.103  0.6287 -0.3264  0.5990
24971SOL    HW180043   5.638   0.707   0.036  0.2477 -1.8208 -0.3143
24971SOL    HW280044   5.498   0.651   0.053  0.0677 -0.8050  1.7378
24972SOL     OW80045   0.441  10.441   9.624  0.2790  0.1881 -0.1066
24972SOL    HW180046   0.366  10.387   9.648  2.4324 -2.5034  0.8833
24972SOL    HW280047   0.449  10.504   9.696 -0.4269 -0.1524  0.2744
24973SOL     OW80048   1.022   7.130   3.305 -0.0937  0.6982 -0.2336
24973SOL    HW180049   1.108   7.092   3.324 -1.5125 -2.3225  0.3030
24973SOL    HW280050   1.039   7.191   3.232  2.4191 -0.1327 -0.3838
24974SOL     OW80051   2.950   7.135   1.120  0.4972 -0.4860 -0.3418
24974SOL    HW180052   2.907   7.219   1.139  0.1725 -0.6895 -0.1753
24974SOL    HW280053   3.009   7.121   1.194  0.4880 -0.4491 -0.3277
24975SOL     OW80054   7.402  10.405   6.086 -0.0106  0.7736  0.1285
24975SOL    HW180055   7.494  10.428   6.079  0.5167 -0.6628  2.1700
24975SOL    HW280056   7.381  10.415   6.179 -1.9943  1.3864 -0.3508
24976SOL     OW80057  11.022   2.105  10.549 -0.5871  0.5679 -0.5727
24976SOL    HW180058  11.041   2.035  10.486 -0.5879  1.1765 -1.2625
24976SOL    HW280059  10.927   2.111  10.551 -0.8331 -2.7308  3.1528
24977SOL     OW80060   4.133   1.743   0.883  0.1859  0.8508  0.0872
24977SOL    HW180061   4.200   1.679   0.906  0.5322  0.4225 -1.9857
24977SOL    HW280062   4.056   1.719   0.934  1.1317  0.3947  1.2975
24978SOL     OW80063   3.597   6.939   4.093  0.5376  0.0197  0.1857
24978SOL    HW180064   3.571   6.894   4.012  0.7193  1.3455 -0.6168
24978SOL    HW280065   3.567   7.029   4.081  2.8843  0.8650  0.5109
24979SOL     OW80066   6.995  11.318  10.472 -0.5748 -0.1416 -0.3882
24979SOL    HW180067   7.073  11.373  10.473 -0.9653  0.4039 -0.1170
24979SOL    HW280068   6.944  11.347  10.547 -0.9078 -0.6909 -0.4008
24980SOL     OW80069   6.774   7.141   3.632  0.2816  0.5185 -0.3356
24980SOL    HW180070   6.866   7.117   3.647  0.1360 -0.0347 -0.3174
24980SOL    HW280071   6.764   7.226   3.675  0.2273 -0.4298  1.5939
24981SOL     OW80072   2.925   9.692   1.614 -0.0398  0.0323 -0.1776
24981SOL    HW180073   2.918   9.597   1.605 -0.6829  0.1937 -1.4209
24981SOL    HW280074   3.019   9.710   1.606  0.1974 -0.5742  1.0126
24982SOL     OW80075   5.931   1.764   2.133  0.0435  0.3325  0.3646
24982SOL    HW180076   5.841   1.740   2.153 -0.5566  0.6140 -1.8855
24982SOL    HW280077   5.959   1.700   2.067  1.6249 -0.0031  1.3419
24983SOL     OW80078   6.701   2.980  10.666 -0.2590 -0.1355 -0.6714
24983SOL    HW180079   6.794   2.971  10.689 -0.7312 -4.6419 -0.0690
24983SOL    HW280080   6.702   3.024  10.581  2.7274 -3.1430 -2.3520
24984SOL     OW80081   6.762   0.070   1.668 -0.2955  0.0338 -0.1130
24984SOL    HW180082   6.770   0.111   1.754  0.1940  0.6566 -0.4491
24984SOL    HW280083   6.694   0.003   1.679 -0.7446  0.6030  0.5654
24985SOL     OW80084   5.912   6.907   3.594 -0.0380 -0.2461  0.3218
24985SOL    HW180085   5.968   6.983   3.578 -0.2883 -0.0872  0.1980
24985SOL    HW280086   5.955   6.835   3.548  0.1822 -0.1695  0.4099
24986SOL     OW80087  10.221   6.625   2.189  0.2967 -0.2206  0.6196
24986SOL    HW180088  10.176   6.614   2.272  1.6198  1.7467  1.6370
24986SOL    HW280089  10.310   6.652   2.213  0.9459 -0.4475 -1.4054
24987SOL     OW80090   5.723   4.068   8.000 -0.2668  0.0307 -0.0357
24987SOL    HW180091   5.684   4.005   8.060  2.6199 -1.5120  0.3155
24987SOL    HW280092   5.791   4.111   8.052 -0.8664  2.0250 -0.8662
24988SOL     OW80093  10.868   6.117   8.816 -0.1948 -0.3882 -0.2488
24988SOL    HW180094  10.802   6.051   8.793  0.8096 -1.0856 -1.1733
24988SOL    HW280095  10.922   6.074   8.883  1.2352 -0.9984 -1.7580
24989SOL     OW80096   2.263   7.494   0.418 -0.0236  0.2648  0.2279
24989SOL    HW180097   2.196   7.427   0.406 -0.1303  0.4217 -0.0682
24989SOL    HW280098   2.321   7.484   0.342  0.2541  0.1668  0.4530
24990SOL     OW80099   3.447   6.677   1.003  0.0167  0.1996 -0.2638
24990SOL    HW180100   3.376   6.637   1.054  0.4158 -0.1877 -0.0141
24990SOL    HW280101   3.409   6.758   0.969 -0.3780  0.2516  0.3010
24991SOL     OW80102  10.232   6.295   1.813  0.2885  0.6789  0.1444
24991SOL    HW180103  10.185   6.365   1.859  0.9365  0.6567  0.8492
24991SOL    HW280104  10.285   6.253   1.881 -0.3083 -0.6815 -0.2198
24992SOL     OW80105  10.978   4.441   9.166  0.0849 -0.1162 -0.3868
24992SOL    HW180106  10.895   4.407   9.200  0.5279 -1.5157 -0.6522
24992SOL    HW280107  11.006   4.375   9.102  1.8484 -0.1085  0.3547
24993SOL     OW80108   6.960   5.841  10.813  0.5960 -0.5131  0.0455
24993SOL    HW180109   6.934   5.770  10.872 -1.0193 -0.8434 -1.0324
24993SOL    HW280110   6.947   5.921  10.863  2.2572 -0.9448  1.2142
24994SOL     OW80111   6.199   6.494   2.378  0.4284 -0.4150 -0.3053
24994SOL    HW180112   6.120   6.457   2.338 -0.2804  1.2152 -0.4755
24994SOL    HW280113   6.245   6.419   2.415  1.0309 -2.0098 -4.0185
24995SOL     OW80114   2.454  10.442  10.737  0.3852  0.5598  0.1458
24995SOL    HW180115   2.493  10.529  10.738 -1.9123  1.7006 -2.6409
24995SOL    HW280116   2.481  10.404  10.653 -2.6039  0.5390 -0.8599
24996SOL     OW80117   7.633   3.723  11.250 -0.2317 -0.4678 -0.1959
24996SOL    HW180118   7.614   3.766  11.333  1.6545  0.3650 -0.1570
24996SOL    HW280119   7.587   3.776  11.184 -0.3027 -0.0955  0.1498
24997SOL     OW80120   4.250   3.510   6.357  0.4028 -0.2301  0.4058
24997SOL    HW180121   4.266   3.604   6.353 -0.4784 -0.0691  0.4201
24997SOL    HW280122   4.171   3.502   6.411  0.8264 -1.0177  0.9144
24998SOL     OW80123   0.569   5.105   9.334  0.0842 -0.2200 -0.6047
24998SOL    HW180124   0.654   5.084   9.371  0.6750  2.9220  0.0028
24998SOL    HW280125   0.520   5.144   9.407 -0.3204  1.9138 -1.9547
24999SOL     OW80126   2.545   1.690   4.382 -0.1691 -0.0943  0.2104
24999SOL    HW180127   2.599   1.744   4.439  0.3801  1.5277 -1.8003
24999SOL    HW280128   2.549   1.603   4.422 -0.8240  1.2250  3.3161
25000SOL     OW80129   4.067   9.704   4.279  0.6023 -0.6111 -0.3581
25000SOL    HW180130   4.125   9.687   4.353 -1.4130 -0.7423  1.2194
25000SOL    HW280131   4.126   9.717   4.204  2.5964 -1.7179  1.0116
25001SOL     OW80132   4.686   2.247   6.031  0.0206 -0.2354  0.6447
25001SOL    HW180133   4.756   2.309   6.010  0.0917  0.1591  2.0133
25001SOL    HW280134   4.695   2.177   5.965  0.2666  0.9342 -0.5806
25002SOL     OW80135   0.560   2.147   8.463 -0.1003 -0.2117 -0.2637
25002SOL    HW180136   0.468   2.147   8.437  0.1792 -1.1320 -1.3278
25002SOL    HW280137   0.578   2.057   8.491  0.6482 -0.2304 -0.7628
25003SOL     OW80138  10.747   0.693   3.139  0.4774 -0.3811 -0.3123
25003SOL    HW180139  10.693   0.620   3.167 -2.5706  1.7352 -0.4671
25003SOL    HW280140  10.766   0.676   3.047 -0.3528 -0.8945 -0.3848
25004SOL     OW80141   1.989   1.194   2.963  0.0181 -0.8161 -0.3236
25004SOL    HW180142   2.056   1.126   2.957 -0.3038 -1.3986  2.3166
25004SOL    HW280143   2.036   1.271   2.996 -0.6326 -1.3207  1.8531
25005SOL     OW80144   7.964   8.555   0.576 -0.0016 -0.2980 -0.1488
25005SOL    HW180145   7.872   8.529   0.579 -1.0529  3.2466  0.7612
25005SOL    HW280146   7.988   8.568   0.668  0.7443  0.8482 -0.4914
25006SOL     OW80147   5.456   5.190   2.918 -0.9241  0.0312 -0.1516
25006SOL    HW180148   5.456   5.095   2.932  2.0329  0.1018  0.7611
25006SOL    HW280149   5.488   5.201   2.829 -0.6548  0.1812 -0.0369
25007SOL     OW80150   7.101   7.080   7.219  0.4091 -0.1041  0.4849
25007SOL    HW180151   7.148   7.157   7.189  1.7674 -1.0294  0.1852
25007SOL    HW280152   7.055   7.048   7.140  1.8968 -1.0413 -0.0366
25008SOL     OW80153   0.293   1.249   2.032 -0.1582 -0.9703 -0.5187
25008SOL    HW180154   0.210   1.287   2.001 -0.7305 -1.0176  0.9291
25008SOL    HW280155   0.269   1.203   2.112  1.6052  0.5423  0.9095
25009SOL     OW80156   8.118   6.301   1.718 -0.2284 -0.2959 -0.6683
25009SOL    HW180157   8.026   6.327   1.722 -0.0765  0.1540 -0.1114
25009SOL    HW280158   8.140   6.276   1.808 -0.0005 -1.0666 -0.9360
25010SOL     OW80159   4.612   6.592   5.101  0.2184  0.3463 -0.2124
25010SOL    HW180160   4.685   6.623   5.047  3.1059 -1.9391  2.2177
25010SOL    HW280161   4.548   6.664   5.098  3.8201  3.7287 -0.0158
25011SOL     OW80162   4.276   9.578   0.256  0.5556 -0.0526  0.5293
25011SOL    HW180163   4.331   9.500   0.248  0.5198  0.0889 -1.2522
25011SOL    HW280164   4.212   9.569   0.185 -1.2840  0.1413  2.1261
25012SOL     OW80165   2.069   5.451   0.609 -0.2286 -0.2964 -0.3701
25012SOL    HW180166   2.065   5.442   0.705 -1.0234 -1.8445 -0.5424
25012SOL    HW280167   2.061   5.545   0.594  0.9169  0.0649  1.1338
25013SOL     OW80168   8.614   0.330   7.832 -0.2205 -0.0891  0.4478
25013SOL    HW180169   8.703   0.306   7.805 -0.6983 -0.6522 -0.6896
25013SOL    HW280170   8.603   0.289   7.918  0.4392 -0.4535  0.3650
25014SOL     OW80171  10.057  10.181   4.487  0.6751  0.5678  0.4285
25014SOL    HW180172  10.024  10.183   4.398  0.2976 -0.0167  0.5511
25014SOL    HW280173  10.004  10.245   4.534  0.4750  0.4521  0.3633
25015SOL     OW80174   8.230   4.683   6.650  0.1543  0.0283  0.0296
25015SOL    HW180175   8.170   4.707   6.579  1.1366  0.6318 -0.6121
25015SOL    HW280176   8.280   4.763   6.667  0.5839 -0.3887  0.7490
25016SOL     OW80177   8.175   4.932   0.745 -0.0884 -0.0412  0.4540
25016SOL    HW180178   8.090   4.977   0.741 -0.5601 -1.0322 -0.9975
25016SOL    HW280179   8.225   4.970   0.673 -0.6641 -2.1295 -1.1045
25017SOL     OW80180   5.360   5.882   9.938  0.6702 -0.2171 -0.4982
25017SOL    HW180181   5.411   5.803   9.923 -1.0179 -1.2206 -1.1035
25017SOL    HW280182   5.281   5.852   9.983 -0.5950  0.9251 -1.9046
25018SOL     OW80183  10.117   6.031   8.730 -0.2438 -0.1704  0.1033
25018SOL    HW180184  10.170   6.052   8.653  0.0567 -2.1618 -0.2592
25018SOL    HW280185  10.181   6.006   8.796 -0.6460 -0.8372  0.2361
25019SOL     OW80186   4.596   1.629   6.272 -0.0100  0.6554  0.0435
25019SOL    HW180187   4.580   1.578   6.352  0.7962 -0.2635 -0.3702
25019SOL    HW280188   4.520   1.609   6.217 -0.0570  0.4761  0.1701
25020SOL     OW80189   1.032  10.087  10.298 -0.2345  0.2033 -0.0223
25020SOL    HW180190   1.015  10.178  10.272  1.0059  0.3679 -0.2751
25020SOL    HW280191   1.082  10.094  10.379  1.9816 -0.2020 -1.3260
25021SOL     OW80192   0.178   9.129  10.937 -0.8308 -0.4955  0.0882
25021SOL    HW180193   0.181   9.219  10.968  0.7082 -0.6962  0.5320
25021SOL    HW280194   0.258   9.089  10.970 -1.4077 -1.9767 -0.2697
25022SOL     OW80195   3.549   2.841   9.755 -0.3879  0.6087  0.2375
25022SOL    HW180196   3.468   2.830   9.806 -0.5574 -0.9302 -0.3152
25022SOL    HW280197   3.616   2.857   9.821 -0.7186 -0.6890  0.9170
25023SOL     OW80198   4.250   0.831   6.282 -0.0563  0.6811  0.2677
25023SOL    HW180199   4.228   0.837   6.189  0.2965  1.7005  0.2352
25023SOL    HW280200   4.169   0.804   6.325  0.0530 -0.8632 -0.4512
25024SOL     OW80201   8.669   5.426   9.707  0.3376  0.5081 -0.6549
25024SOL    HW180202   8.688   5.389   9.793  0.8240  1.1692 -0.4710
25024SOL    HW280203   8.582   5.393   9.685  1.2065 -1.6750 -1.0116
25025SOL     OW80204   3.905   8.000   0.168  0.4596  0.0669  0.4681
25025SOL    HW180205   3.871   8.025   0.082 -0.1244 -0.5457  0.5176
25025SOL    HW280206   3.979   8.060   0.183 -1.5834  2.5063  1.0737
25026SOL     OW80207   6.037   1.189   3.313 -0.0950 -0.3435  0.0792
25026SOL    HW180208   6.001   1.255   3.254 -0.3445  0.5538  1.2012
25026SOL    HW280209   5.964   1.163   3.369  0.4198 -0.2489  0.8141
25027SOL     OW80210   8.026  10.203   0.355 -0.2476  0.0309  0.9790
25027SOL    HW180211   8.120  10.210   0.368 -0.0036  1.0645 -1.1369
25027SOL    HW280212   8.013  10.112   0.328  0.4985  0.5836 -1.3113
25028SOL     OW80213   2.461   7.467   0.200 -0.2389  0.1922  0.3218
25028SOL    HW180214   2.481   7.427   0.116  0.8270 -0.0557  0.6850
25028SOL    HW280215   2.460   7.561   0.183  2.2211  0.2760  0.4705
25029SOL     OW80216  11.332   1.078   9.287  0.1170 -0.1911  0.4895
25029SOL    HW180217  11.237   1.071   9.301 -0.2358  1.4165 -0.9417
25029SOL    HW280218  11.351   1.011   9.221 -0.2466  0.3490 -0.1707
25030SOL     OW80219  11.227   6.291  11.004  0.2309  0.4515  0.2693
25030SOL    HW180220  11.178   6.372  10.993  1.5640  1.0952 -1.0483
25030SOL    HW280221  11.161   6.226  11.025 -0.8658  1.8667  1.3509
25031SOL     OW80222   0.822   5.487   8.574 -0.8247  0.0821  0.1952
25031SOL    HW180223   0.907   5.521   8.545 -0.4122 -2.1382 -1.3984
25031SOL    HW280224   0.762   5.506   8.502 -1.1147 -0.4221  0.2972
25032SOL     OW80225   9.042   6.921   6.661 -0.2449 -0.2512 -0.1723
25032SOL    HW180226   9.046   6.919   6.565 -1.9467 -0.5058 -0.2643
25032SOL    HW280227   8.980   6.851   6.683 -0.0906  0.0092  1.0887
25033SOL     OW80228   2.391   8.889   9.818  0.3985 -0.0893  0.3570
25033SOL    HW180229   2.328   8.961   9.809 -0.8246 -0.9188  2.0111
25033SOL    HW280230   2.346   8.813   9.780  0.6054 -0.5771  1.0785
25034SOL     OW80231   3.264   6.076   4.663 -0.0645 -0.1021 -0.2016
25034SOL    HW180232   3.209   6.011   4.707  0.6098  0.3951  1.4344
25034SOL    HW280233   3.330   6.099   4.729  1.8922 -0.4315 -1.9944
25035SOL     OW80234  11.200   0.205   8.502 -0.2461  0.0186 -0.1586
25035SOL    HW180235  11.295   0.208   8.516 -0.2903  1.3063 -0.0801
25035SOL    HW280236  11.163   0.251   8.577 -0.9029  0.0369 -0.4878
25036SOL     OW80237   3.401   0.868   2.429 -0.3313 -0.2406 -0.7846
25036SOL    HW180238   3.426   0.839   2.341 -1.8765 -2.1199 -0.6260
25036SOL    HW280239   3.321   0.920   2.415  0.0616  0.4167 -0.6059
25037SOL     OW80240   5.435   1.499   0.823  0.3969 -0.2912 -0.2074
25037SOL    HW180241   5.498   1.509   0.894 -1.2463  0.9358  1.1307
25037SOL    HW280242   5.351   1.486   0.867 -1.1005  3.2048 -1.8178
25038SOL     OW80243   1.298  11.239   6.124  0.2229 -0.1668  0.2185
25038SOL    HW180244   1.285  11.307   6.058  0.0587 -0.2450  0.1710
25038SOL    HW280245   1.288  11.284   6.208  0.1260 -0.1316  0.1873
25039SOL     OW80246   5.220   0.211   0.640 -0.5073 -0.0307  0.9022
25039SOL    HW180247   5.244   0.266   0.566  1.0263  0.7331  1.9522
25039SOL    HW280248   5.302   0.195   0.686 -1.1347 -2.1001  1.3684
25040SOL     OW80249   1.415   5.280   7.216 -0.3615  0.5979 -0.4161
25040SOL    HW180250   1.451   5.238   7.138  0.5036  0.1589  0.2175
25040SOL    HW280251   1.401   5.209   7.278  2.0040  1.3159  1.0106
25041SOL     OW80252   2.790   5.471   3.022 -0.0206  0.0286  0.8469
25041SOL    HW180253   2.780   5.378   3.003 -0.1406  0.1228  0.4611
25041SOL    HW280254   2.731   5.515   2.961  0.9560  0.4354  0.1772
25042SOL     OW80255   9.291   5.186   9.013 -0.3349  0.1039  0.1591
25042SOL    HW180256   9.196   5.179   9.009 -0.4368  0.7495  1.1520
25042SOL    HW280257   9.314   5.244   8.940 -0.6132 -0.7284 -0.5986
25043SOL     OW80258   6.149   0.067   6.219  0.2771  0.5562 -0.3107
25043SOL    HW180259   6.074   0.025   6.177  0.3331 -1.0087  1.1139
25043SOL    HW280260   6.218   0.066   6.152 -0.6033  0.9562 -1.2376
25044SOL     OW80261   8.974   9.187   4.290 -0.1302 -0.2990  0.2976
25044SOL    HW180262   9.063   9.151   4.297 -0.0092  0.5105  3.9370
25044SOL    HW280263   8.982   9.277   4.320 -2.0917 -0.0732  0.2232
25045SOL     OW80264   1.920   4.889   8.123  0.0275 -0.2730 -0.1401
25045SOL    HW180265   1.928   4.793   8.120 -0.1992 -0.4567  3.6493
25045SOL    HW280266   1.826   4.905   8.121 -0.0460 -0.2978  2.2429
25046SOL     OW80267   9.029   3.378   9.882  0.5847 -0.2123  0.2780
25046SOL    HW180268   9.108   3.431   9.895  1.2569 -1.0557 -0.2536
25046SOL    HW280269   9.051   3.294   9.923 -0.8333  0.2299  1.9900
25047SOL     OW80270   8.062   5.934   6.170 -0.2385  0.0604  0.3233
25047SOL    HW180271   8.027   5.906   6.255 -0.2855 -1.7485 -0.2738
25047SOL    HW280272   7.987   5.967   6.122 -0.4713 -0.3177  0.4283
25048SOL     OW80273   3.731   7.087  10.665  0.1094 -0.1049  0.6176
25048SOL    HW180274   3.655   7.128  10.624  0.6113 -0.1876 -0.4300
25048SOL    HW280275   3.786   7.160  10.693  0.0597 -0.0476  0.5672
25049SOL     OW80276  10.496   9.897   5.197 -0.3888  0.3402 -0.1746
25049SOL    HW180277  10.588   9.889   5.171 -0.5219  0.3739 -0.6640
25049SOL    HW280278  10.483   9.828   5.262  0.4852  1.5606  1.3312
25050SOL     OW80279  10.935   4.179   5.081 -0.4171 -0.5539  0.1310
25050SOL    HW180280  11.027   4.204   5.088 -0.3278 -0.8470  0.0366
25050SOL    HW280281  10.890   4.233   5.145 -0.2163 -0.2235 -0.0090
25051SOL     OW80282   6.029   2.287   7.354 -0.1362  0.4896  0.1058
25051SOL    HW180283   6.039   2.194   7.332  0.7639 -0.1590  2.9865
25051SOL    HW280284   5.935   2.298   7.367 -0.2203 -0.0750  0.0163
25052SOL     OW80285   7.618   2.656   7.467 -0.1235 -0.0539  0.0402
25052SOL    HW180286   7.590   2.703   7.389  1.3554 -2.8073 -2.2353
25052SOL    HW280287   7.706   2.690   7.485 -0.2966  0.2774  0.2702
25053SOL     OW80288   6.679   3.527   9.568 -0.5823  0.5409 -0.1331
25053SOL    HW180289   6.757   3.476   9.548  0.0393  1.6214 -0.4603
25053SOL    HW280290   6.626   3.522   9.488 -0.0596  1.2460 -0.5292
25054SOL     OW80291   1.485  10.872   8.819 -0.4584  0.3099 -0.2580
25054SOL    HW180292   1.391  10.893   8.820 -0.2854  1.1373 -0.7734
25054SOL    HW280293   1.525  10.942   8.870 -0.1236 -0.0767  0.0122
25055SOL     OW80294  10.183   5.339   7.664 -0.1281 -0.4752 -0.0979
25055SOL    HW180295  10.265   5.302   7.634  0.1944 -0.4274  0.7049
25055SOL    HW280296  10.200   5.433   7.671 -0.8649 -0.1921 -1.8883
25056SOL     OW80297   5.694  10.148   6.479  0.2834  0.1636 -0.2044
25056SOL    HW180298   5.675  10.107   6.395 -0.9865  0.2736  0.0228
25056SOL    HW280299   5.610  10.149   6.525  1.5088 -2.8097  2.3459
25057SOL     OW80300   8.602   6.008  11.184  0.3259 -0.6210 -0.2181
25057SOL    HW180301   8.663   5.937  11.164 -1.4493 -1.4636 -3.0560
25057SOL    HW280302   8.593   6.055  11.101 -1.1798  0.8324  0.7360
25058SOL     OW80303   7.381   2.901   2.429  0.5537  0.0425 -0.6062
25058SOL    HW180304   7.401   2.959   2.356 -1.0388  1.3481 -0.0403
25058SOL    HW280305   7.305   2.851   2.400  1.1824 -0.9028 -0.6308
25059SOL     OW80306   0.958   6.867   8.036  0.1056  0.2869  0.3518
25059SOL    HW180307   0.938   6.950   7.993  0.8635  0.0172 -0.5596
25059SOL    HW280308   1.005   6.891   8.115  2.2345  0.6791 -0.9930
25060SOL     OW80309   7.160  11.100   0.396  0.1287 -0.0812  0.3272
25060SOL    HW180310   7.190  11.009   0.401  1.5616  0.3506 -0.0739
25060SOL    HW280311   7.155  11.119   0.303 -0.7522  0.0679  0.4042
25061SOL     OW80312   0.131   5.140   8.356 -0.2196  0.4142 -0.9622
25061SOL    HW180313   0.200   5.168   8.416 -1.0015 -0.8583  0.5746
25061SOL    HW280314   0.110   5.051   8.384 -1.8257  0.4493 -2.0142
25062SOL     OW80315   5.310  10.147   1.321 -0.1292 -0.2387 -0.1600
25062SOL    HW180316   5.226  10.126   1.362  0.0761 -1.7307 -0.4997
25062SOL    HW280317   5.375  10.104   1.376  0.4553  1.1328  0.2573
25063SOL     OW80318   2.137   7.247   3.772  0.0904 -0.0669  0.1786
25063SOL    HW180319   2.084   7.185   3.822 -1.1828  0.6678 -0.2495
25063SOL    HW280320   2.088   7.329   3.775  0.4375  0.2275 -1.5021
25064SOL     OW80321   5.498   5.282   1.563 -0.1678 -0.1696 -0.2076
25064SOL    HW180322   5.557   5.280   1.638 -0.6790  0.6729  0.2152
25064SOL    HW280323   5.417   5.243   1.594 -0.2891 -0.0752 -0.4010
25065SOL     OW80324   6.666   0.583   3.203  0.3197 -0.4209  0.1840
25065SOL    HW180325   6.654   0.655   3.265  0.5001 -0.7443  0.5934
25065SOL    HW280326   6.760   0.567   3.202  0.3541 -0.1949 -0.4265
25066SOL     OW80327   2.222   7.563   9.287  0.5683 -0.2433 -0.2830
25066SOL    HW180328   2.147   7.507   9.264  2.8129 -1.9755 -3.8690
25066SOL    HW280329   2.212   7.640   9.232 -1.2302  1.9311  2.9428
25067SOL     OW80330   7.398   0.392   3.874  0.5239  0.3863  0.9488
25067SOL    HW180331   7.432   0.303   3.871  0.5197  0.4344 -1.3615
25067SOL    HW280332   7.323   0.388   3.933  0.5015 -1.1374  0.8238
25068SOL     OW80333   9.556   5.841   4.781 -0.5019  0.6839 -0.1669
25068SOL    HW180334   9.510   5.880   4.707 -0.3030  0.5491 -0.3592
25068SOL    HW280335   9.649   5.844   4.756 -0.2801  2.1487  0.7556
25069SOL     OW80336   3.735   2.251   4.170  0.0138 -0.1923 -0.1235
25069SOL    HW180337   3.691   2.265   4.254  0.1535 -0.4213 -0.0104
25069SOL    HW280338   3.711   2.327   4.117  0.3713  0.2338  0.3150
25070SOL     OW80339  10.394  10.812   2.323 -0.1449  0.1816  0.4916
25070SOL    HW180340  10.372  10.781   2.235 -0.8652  0.9926  0.3868
25070SOL    HW280341  10.481  10.850   2.313  1.0726 -2.4039  0.7662
25071SOL     OW80342  11.263   7.548   3.337 -0.1149 -0.2669 -0.4314
25071SOL    HW180343  11.284   7.477   3.398 -0.5214  0.2138  0.2794
25071SOL    HW280344  11.218   7.613   3.391  0.1173  0.4632 -1.1044
25072SOL     OW80345   9.184  10.717   3.535  0.6853 -0.2357  0.3498
25072SOL    HW180346   9.132  10.713   3.456  2.0009  1.7001 -0.6505
25072SOL    HW280347   9.147  10.790   3.585  1.0495 -0.2494  0.6412
25073SOL     OW80348   9.010   2.157   4.814 -0.2560 -0.4720  0.0924
25073SOL    HW180349   8.959   2.178   4.892 -0.2643 -0.8690  0.1942
25073SOL    HW280350   8.957   2.189   4.741  0.6926  1.7772  0.3550
25074SOL     OW80351   3.997   1.585   8.091  0.5056  0.0702 -0.0005
25074SOL    HW180352   3.954   1.649   8.035  0.3074  0.7083  0.8628
25074SOL    HW280353   3.992   1.503   8.043 -2.3346 -0.0466  0.3694
25075SOL     OW80354   9.295   8.373   4.040  0.4079  0.7157 -0.5187
25075SOL    HW180355   9.263   8.457   4.007  2.2148  2.1460  1.2568
25075SOL    HW280356   9.275   8.374   4.133 -0.3485 -1.2300 -0.6266
25076SOL     OW80357   7.831   6.718   9.841 -0.9537 -0.3302 -0.3233
25076SOL    HW180358   7.751   6.753   9.881 -1.1184 -2.2502  1.0502
25076SOL    HW280359   7.868   6.660   9.907  0.6601 -0.8041 -1.6174
25077SOL     OW80360   0.493   5.531   8.058  0.0665 -0.4034 -0.3422
25077SOL    HW180361   0.418   5.563   8.108  1.5212  0.8460  1.1259
25077SOL    HW280362   0.474   5.555   7.968 -1.6507 -0.7975 -0.1063
25078SOL     OW80363   3.995   1.682   4.052 -0.0702 -0.3515 -0.7789
25078SOL    HW180364   3.936   1.712   4.121 -0.2690 -1.1397 -0.6027
25078SOL    HW280365   4.005   1.589   4.068  1.4819 -0.1680 -0.6104
25079SOL     OW80366   2.734   8.284   3.130  0.3443  0.2764  0.4249
25079SOL    HW180367   2.825   8.269   3.155  0.2190  1.1953  1.4735
25079SOL    HW280368   2.728   8.252   3.040  1.2379 -1.4918  0.9697
25080SOL     OW80369   7.124   3.968   3.667 -0.3042 -0.3281  0.6088
25080SOL    HW180370   7.030   3.953   3.680 -0.2938  0.6456  1.8833
25080SOL    HW280371   7.129   4.025   3.591 -0.5590 -3.0188 -1.5169
25081SOL     OW80372   7.969   8.465   4.975 -0.0840  0.1224  0.2180
25081SOL    HW180373   7.930   8.547   4.943 -0.5866 -0.3870 -0.4823
25081SOL    HW280374   7.954   8.402   4.905  1.3554 -0.2800  0.2401
25082SOL     OW80375  10.833  10.310   3.825 -0.5991 -0.3886  0.3528
25082SOL    HW180376  10.886  10.310   3.745 -0.9178 -0.0235  0.1373
25082SOL    HW280377  10.745  10.291   3.794 -0.3789 -2.3334  0.8684
25083SOL     OW80378   7.021   7.383   8.890 -0.0353 -0.5296 -0.3180
25083SOL    HW180379   7.054   7.298   8.918 -0.6185 -0.4021  0.8002
25083SOL    HW280380   6.948   7.363   8.831  0.8651 -0.8031 -1.3423
25084SOL     OW80381  10.299  11.193   4.650  0.1895  0.3674  0.0640
25084SOL    HW180382  10.378  11.246   4.641  1.6231 -1.6321  0.4975
25084SOL    HW280383  10.268  11.210   4.739  0.6804  0.4505  0.2219
25085SOL     OW80384   8.592   3.960  10.791 -0.0240 -0.3459  0.0078
25085SOL    HW180385   8.630   3.893  10.735 -2.1088 -2.3709  0.9327
25085SOL    HW280386   8.629   3.942  10.878 -1.5237 -1.0950  0.5040
25086SOL     OW80387   9.592   1.057   6.549 -0.0840 -0.4377 -0.0261
25086SOL    HW180388   9.551   1.128   6.499  2.3467  1.0270 -0.0157
25086SOL    HW280389   9.588   0.981   6.492 -1.2693  0.1065 -0.6866
25087SOL     OW80390   8.094   4.153   0.577 -0.3990 -0.8272 -0.3095
25087SOL    HW180391   8.009   4.119   0.605 -1.2629  1.5615  0.0629
25087SOL    HW280392   8.086   4.164   0.483 -1.6589  2.3637  0.1036
25088SOL     OW80393  10.842   5.931   7.980 -0.3548 -0.3217 -0.0979
25088SOL    HW180394  10.762   5.981   7.993 -0.2264 -0.0139 -0.4780
25088SOL    HW280395  10.899   5.959   8.052  0.1136  0.8925 -0.9299
25089SOL     OW80396   5.529   2.623   3.585 -0.0003 -0.2597  0.5590
25089SOL    HW180397   5.611   2.636   3.537 -0.4554 -1.4688 -0.5815
25089SOL    HW280398   5.555   2.622   3.677  0.8092  2.6894  0.3961
25090SOL     OW80399   3.472   9.636   3.088 -0.2279  0.0115 -0.0750
25090SOL    HW180400   3.511   9.685   3.015 -0.4963  0.6524  0.2051
25090SOL    HW280401   3.422   9.566   3.046 -0.5342  0.4924 -0.5133
25091SOL     OW80402   2.503   8.630   0.544 -0.1201 -0.3855 -0.3250
25091SOL    HW180403   2.459   8.712   0.525 -0.2957 -0.3099  0.4059
25091SOL    HW280404   2.561   8.616   0.469  0.3845  0.7207 -0.1522
25092SOL     OW80405   0.883   6.779   8.732  0.3061 -0.2398 -0.4571
25092SOL    HW180406   0.897   6.873   8.744  0.4809  0.0260 -2.4940
25092SOL    HW280407   0.922   6.738   8.809  0.2596  1.3571  0.4292
25093SOL     OW80408  11.279   4.674   8.396 -0.1106  0.2880 -0.1582
25093SOL    HW180409  11.362   4.636   8.424 -0.1443 -0.2581 -0.7760
25093SOL    HW280410  11.222   4.598   8.382 -0.1670  0.5519 -1.4677
25094SOL     OW80411   1.662  11.217  10.938 -0.5387 -0.3361 -0.1800
25094SOL    HW180412   1.622  11.303  10.952  2.0456  0.8180  0.4606
25094SOL    HW280413   1.710  11.226  10.856  2.1152 -0.2024  1.3314
25095SOL     OW80414   2.727   6.931   4.193  0.2852 -0.4287 -0.3045
25095SOL    HW180415   2.684   7.007   4.154 -2.1139 -0.6966  1.6790
25095SOL    HW280416   2.746   6.958   4.283  2.9783 -0.8502 -0.7131
25096SOL     OW80417   6.404   7.410   4.018  0.7852 -0.0224 -0.0780
25096SOL    HW180418   6.417   7.426   3.924  0.0719  1.1271  0.0006
25096SOL    HW280419   6.419   7.495   4.059  1.2914 -0.5688  0.8744
25097SOL     OW80420   6.091   0.359   6.574  0.1293  0.5436  0.0220
25097SOL    HW180421   6.080   0.364   6.669 -1.5551 -0.1645 -0.1305
25097SOL    HW280422   6.165   0.300   6.562  1.2261  1.6904  0.9249
25098SOL     OW80423   3.653   5.776   3.933  0.6836 -0.3630  0.3323
25098SOL    HW180424   3.633   5.869   3.940 -2.2019 -0.9262  0.4946
25098SOL    HW280425   3.699   5.767   3.850 -1.0509  0.9420 -0.8101
25099SOL     OW80426   1.715   6.781   1.266 -0.4721 -0.3634 -0.1210
25099SOL    HW180427   1.754   6.762   1.180 -0.2128 -0.1210 -0.0573
25099SOL    HW280428   1.767   6.854   1.300  0.8261 -1.8720  1.2019
25100SOL     OW80429   6.954   4.466   5.930  0.0002  0.1357  0.0994
25100SOL    HW180430   6.872   4.506   5.958  0.5874  1.1316  0.3882
25100SOL    HW280431   6.990   4.427   6.010 -0.0203 -0.0000  0.0424
25101SOL     OW80432   2.763   3.498   9.076 -0.7959  0.0158  0.4205
25101SOL    HW180433   2.762   3.403   9.090 -1.8251 -0.1776 -0.8447
25101SOL    HW280434   2.762   3.508   8.981 -0.9499  1.2903  0.5510
25102SOL     OW80435   0.129   4.901   2.054  0.5124 -0.2839  0.3202
25102SOL    HW180436   0.040   4.872   2.033 -0.2220  0.8771  1.7582
25102SOL    HW280437   0.182   4.821   2.049  0.0184 -0.4483 -3.6677
25103SOL     OW80438   6.084   0.315   9.110  0.6377  0.3318 -0.2624
25103SOL    HW180439   6.078   0.377   9.183  1.2272  0.5169 -0.3720
25103SOL    HW280440   5.993   0.305   9.081  0.6130  1.6876 -0.6935
25104SOL     OW80441   7.528   9.409   2.800  0.2933 -0.1668 -0.7487
25104SOL    HW180442   7.557   9.495   2.769  0.1760  0.0027 -0.3778
25104SOL    HW280443   7.466   9.380   2.733 -1.5419  1.0914  0.3625
25105SOL     OW80444   4.371   6.247   3.111 -0.1113  0.1033 -0.1558
25105SOL    HW180445   4.307   6.307   3.073 -0.2811  0.7884  1.1879
25105SOL    HW280446   4.362   6.259   3.205  1.1384 -0.7008  0.0752
25106SOL     OW80447   9.882  10.261  11.265 -0.3919 -0.2854  0.2251
25106SOL    HW180448   9.903  10.168  11.256 -1.0068 -0.5317  1.1806
25106SOL    HW280449   9.958  10.307  11.230 -0.4134 -1.1493 -0.9640
25107SOL     OW80450   5.314   0.304   2.598  0.1878 -0.3275  0.5154
25107SOL    HW180451   5.389   0.244   2.602 -0.7268 -1.4706  0.7016
25107SOL    HW280452   5.322   0.346   2.512  0.0391 -1.7989 -0.2481
25108SOL     OW80453   8.263   8.686   6.308  0.1216  0.3908  0.0464
25108SOL    HW180454   8.255   8.591   6.306  2.5887  0.1546 -0.1639
25108SOL    HW280455   8.290   8.706   6.398  1.0168  0.7477 -0.2967
25109SOL     OW80456   8.303   8.189   0.310  0.1341  0.4902 -0.2816
25109SOL    HW180457   8.367   8.259   0.297  2.4908 -1.5810 -0.2414
25109SOL    HW280458   8.355   8.115   0.341 -2.2261 -1.4428 -0.7942
25110SOL     OW80459   7.188   7.897  10.739 -0.2572  0.2952 -0.5082
25110SOL    HW180460   7.131   7.822  10.722  0.3196 -0.2003 -0.3177
25110SOL    HW280461   7.240   7.869  10.815  0.2115  0.7471 -0.6657
25111SOL     OW80462   7.641   3.226   8.136 -0.3099 -0.5249 -0.0484
25111SOL    HW180463   7.731   3.255   8.150  0.0027 -2.2775  1.6833
25111SOL    HW280464   7.609   3.202   8.223 -2.5911  0.3976 -0.5815
25112SOL     OW80465   0.923   1.966   9.941  0.3366  0.6238  0.4087
25112SOL    HW180466   0.907   2.038  10.002 -0.8597  1.4773 -0.8893
25112SOL    HW280467   0.837   1.923   9.931  0.2107  1.3250 -1.7024
25113SOL     OW80468  10.312   6.096   8.509  0.0135 -0.4136  0.6871
25113SOL    HW180469  10.339   6.153   8.581 -1.5626  0.3872  0.6559
25113SOL    HW280470  10.282   6.156   8.441  0.6791 -1.1994 -0.3164
25114SOL     OW80471   3.367   5.525   0.535  0.0220 -0.3754  0.2297
25114SOL    HW180472   3.277   5.535   0.569  0.4824  1.7299  0.9181
25114SOL    HW280473   3.371   5.434   0.505 -2.1565 -0.6820  0.7435
25115SOL     OW80474   1.491   0.318   8.683  0.1848 -0.2796 -0.2130
25115SOL    HW180475   1.569   0.370   8.663 -0.6529  0.4527 -1.6869
25115SOL    HW280476   1.424   0.354   8.626 -1.5722 -0.0882  1.9326
25116SOL     OW80477   9.334   9.953   5.494 -0.8583 -0.2201  0.4754
25116SOL    HW180478   9.379   9.874   5.463 -4.0387 -1.7081 -0.5756
25116SOL    HW280479   9.339  10.014   5.420  1.3497  0.4989  1.1852
25117SOL     OW80480   7.742   1.197   2.237  0.0506 -0.5033  0.1499
25117SOL    HW180481   7.777   1.196   2.147 -0.5327  0.2452 -0.0935
25117SOL    HW280482   7.780   1.120   2.278 -1.6011 -2.2370 -1.4661
25118SOL     OW80483   2.939  10.453  10.523 -0.1447  0.2780 -0.0445
25118SOL    HW180484   3.029  10.442  10.554 -0.0920 -0.6591 -0.5094
25118SOL    HW280485   2.926  10.548  10.520  1.1430  0.4364 -0.8607
25119SOL     OW80486   1.918   7.437   3.722  0.4599  0.1937  0.0226
25119SOL    HW180487   1.980   7.496   3.765  0.2839  0.6630 -0.3604
25119SOL    HW280488   1.870   7.395   3.794 -0.6464  1.8492  0.2829
25120SOL     OW80489   1.758   6.413   9.155  0.3807 -0.0949  0.1534
25120SOL    HW180490   1.807   6.332   9.171  1.4212  0.7451  1.2892
25120SOL    HW280491   1.824   6.477   9.128 -0.1391  0.8970  1.1561
25121SOL     OW80492   4.020   1.334   4.537 -0.4411  0.2652 -0.5219
25121SOL    HW180493   3.992   1.263   4.594 -3.0658  1.7787  0.1768
25121SOL    HW280494   4.100   1.368   4.578  0.8694 -2.2773 -0.9116
25122SOL     OW80495  11.143   0.218   5.600 -0.6563  0.3761 -0.0146
25122SOL    HW180496  11.128   0.158   5.527 -0.1451  0.7685 -0.4468
25122SOL    HW280497  11.067   0.205   5.658 -0.2553 -1.1040  0.1954
25123SOL     OW80498   9.399   9.864   9.613  0.6307  0.0269 -0.2017
25123SOL    HW180499   9.320   9.891   9.566 -0.0092 -1.0466  0.2481
25123SOL    HW280500   9.376   9.781   9.654  2.0174 -0.3292 -0.1109
25124SOL     OW80501   5.339  10.608  10.120  0.1456  1.0386  0.0143
25124SOL    HW180502   5.396  10.637  10.192  0.1652 -1.1470  0.9035
25124SOL    HW280503   5.250  10.619  10.153  0.1677 -1.0891  0.8684
25125SOL     OW80504   9.059   7.302   1.416  0.1681  0.3022  0.0842
25125SOL    HW180505   9.102   7.368   1.470 -0.9069  1.0390  0.0754
25125SOL    HW280506   9.037   7.348   1.335 -1.0683  0.0887  0.2875
25126SOL     OW80507   5.254   2.440   1.566 -0.1858 -0.1596  0.0550
25126SOL    HW180508   5.198   2.504   1.609 -1.5698 -0.6176 -1.0125
25126SOL    HW280509   5.237   2.452   1.472  1.7190 -0.1189 -0.2948
25127SOL     OW80510   7.303   3.150   0.862  0.2000  0.5713  0.0851
25127SOL    HW180511   7.322   3.219   0.798  2.0341  0.5047  0.5337
25127SOL    HW280512   7.265   3.197   0.936  0.1340  0.9333 -0.1770
25128SOL     OW80513  10.217   0.563   4.434 -0.4404  0.5217  0.2181
25128SOL    HW180514  10.246   0.571   4.343 -1.1218  0.0022 -0.0435
25128SOL    HW280515  10.254   0.480   4.464 -0.6947  0.4198  0.2446
25129SOL     OW80516   4.900   0.397   4.468  0.2052  0.7268  0.0214
25129SOL    HW180517   4.877   0.316   4.513  1.9428  0.4287  0.4144
25129SOL    HW280518   4.857   0.466   4.519 -0.3934  0.1355  0.3177
25130SOL     OW80519   9.783   8.475   8.159 -0.1850 -0.4808 -0.1662
25130SOL    HW180520   9.783   8.426   8.241 -3.5357  0.7178  0.6185
25130SOL    HW280521   9.813   8.563   8.183  1.5363 -0.8686 -0.7827
25131SOL     OW80522   7.382   7.319   4.213 -0.1051  0.6709 -0.1839
25131SOL    HW180523   7.435   7.239   4.210  0.4683  1.0111  0.8577
25131SOL    HW280524   7.360   7.330   4.305 -0.4445  1.5483 -0.3686
25132SOL     OW80525   2.151   0.960   2.933 -0.2608 -0.5458 -0.4799
25132SOL    HW180526   2.156   0.895   3.004  1.4499 -1.1504 -1.1271
25132SOL    HW280527   2.183   0.913   2.856  1.2236  1.1333 -0.9120
25133SOL     OW80528   3.678   2.397   8.449  0.2353  0.2066  0.3620
25133SOL    HW180529   3.709   2.451   8.521 -0.2511 -1.3700  1.7823
25133SOL    HW280530   3.590   2.370   8.475 -0.3628  0.4647 -1.3089
25134SOL     OW80531   3.224   2.651   4.219  0.1853 -0.3111  0.6302
25134SOL    HW180532   3.181   2.578   4.263 -0.8184 -0.9001 -1.2495
25134SOL    HW280533   3.217   2.630   4.126  1.7660  1.1532  0.1611
25135SOL     OW80534   2.490   7.058   5.650 -0.6938  0.2049  0.3814
25135SOL    HW180535   2.538   7.133   5.687 -1.3847  0.4803  0.7164
25135SOL    HW280536   2.403   7.063   5.690 -1.3545  0.3268 -1.0564
25136SOL     OW80537  10.192   4.444   3.755  0.2667  0.2982 -0.2343
25136SOL    HW180538  10.178   4.447   3.849  0.6281 -1.6689 -0.1022
25136SOL    HW280539  10.236   4.361   3.739 -0.2881  0.3445 -2.2133
25137SOL     OW80540   5.506  10.303   7.448 -0.3000  0.2217 -0.1688
25137SOL    HW180541   5.572  10.321   7.381 -0.2144  0.8463  0.0861
25137SOL    HW280542   5.424  10.336   7.412 -0.2747  0.4527 -0.0155
25138SOL     OW80543   4.267  10.106  10.205 -0.0125  0.0279 -0.0932
25138SOL    HW180544   4.273  10.055  10.286  0.1746  2.8604  1.7378
25138SOL    HW280545   4.328  10.178  10.218 -0.3615  0.7979 -2.5856
25139SOL     OW80546   0.939   2.246   1.134 -0.4745  0.1197 -0.1081
25139SOL    HW180547   0.931   2.235   1.229  0.7596  1.2967  0.1424
25139SOL    HW280548   0.969   2.336   1.122  2.4948 -0.9520 -1.4335
25140SOL     OW80549   9.069   9.271   3.123 -0.3783 -0.3191  0.9545
25140SOL    HW180550   9.156   9.260   3.084 -0.3817 -2.0902  1.4014
25140SOL    HW280551   9.009   9.238   3.056 -0.5043 -1.6900  1.7233
25141SOL     OW80552   4.072   2.319   9.276 -0.1224 -0.0519  0.0256
25141SOL    HW180553   4.015   2.375   9.328 -1.1420  0.0331 -1.1486
25141SOL    HW280554   4.153   2.370   9.267 -0.8117  0.9739 -0.4944
25142SOL     OW80555  10.652   7.521   1.742 -0.1279  0.0654 -0.0803
25142SOL    HW180556  10.606   7.601   1.770  1.4244  0.9557 -0.0633
25142SOL    HW280557  10.727   7.552   1.693 -0.0346 -1.4262 -0.9036
25143SOL     OW80558   1.912  11.202   2.554  0.6015  0.1769  0.1979
25143SOL    HW180559   1.871  11.264   2.615 -1.1584  0.9004 -1.6762
25143SOL    HW280560   1.978  11.253   2.508 -0.8552  0.7093 -1.3538
25144SOL     OW80561   3.442   8.107   8.521  0.1646 -0.5987  0.6370
25144SOL    HW180562   3.466   8.018   8.495  0.0119 -0.9068  1.5444
25144SOL    HW280563   3.496   8.164   8.466  0.3934 -1.2510  0.1851
25145SOL     OW80564   7.567   4.015   4.523  0.2051 -0.4317 -0.3912
25145SOL    HW180565   7.567   3.940   4.583 -1.0514 -0.5931 -0.5680
25145SOL    HW280566   7.515   3.985   4.448 -4.7109  2.2378  1.6711
25146SOL     OW80567   2.995   7.467   1.665  0.1918  0.5577 -0.3243
25146SOL    HW180568   2.910   7.436   1.698  0.4299 -0.7076 -0.8453
25146SOL    HW280569   2.983   7.471   1.570  0.5318  0.9460 -0.3494
25147SOL     OW80570   0.590   0.974   8.655 -0.2305  0.5428  0.3177
25147SOL    HW180571   0.541   0.974   8.737 -0.2868  2.3948  0.3049
25147SOL    HW280572   0.678   0.945   8.680 -0.6667 -0.4230  0.7538
25148SOL     OW80573   3.163   2.456   1.113  0.6424  0.1924  0.0414
25148SOL    HW180574   3.080   2.411   1.128  0.1209  0.7807 -1.0261
25148SOL    HW280575   3.185   2.495   1.198 -0.6945  0.8844  0.0904
25149SOL     OW80576   8.214   9.081   9.203 -0.0283 -0.0459 -0.4562
25149SOL    HW180577   8.200   9.168   9.241 -1.3382 -0.0239 -0.9705
25149SOL    HW280578   8.309   9.076   9.190  0.0866  1.2077 -0.1879
25150SOL     OW80579  10.719   1.841  10.102  0.7158  0.0302  0.1577
25150SOL    HW180580  10.725   1.887  10.185  0.4672  1.3211 -0.5262
25150SOL    HW280581  10.668   1.762  10.122  1.5793 -0.2199  1.4429
25151SOL     OW80582   1.793   6.625   4.392 -0.0052  0.0945 -0.3970
25151SOL    HW180583   1.821   6.714   4.371 -0.4763  0.0810 -1.0975
25151SOL    HW280584   1.871   6.584   4.431  0.1877  0.8305  0.0130
25152SOL     OW80585   4.362   2.041   9.937  0.3424 -0.2274  0.2149
25152SOL    HW180586   4.268   2.028   9.939  0.2634  0.3800  0.5379
25152SOL    HW280587   4.395   1.973   9.878 -0.3316 -0.2020 -0.1875
25153SOL     OW80588   9.052   3.320   8.631 -0.1921  0.0663  0.7580
25153SOL    HW180589   8.976   3.319   8.572  0.4086  0.0820 -0.0366
25153SOL    HW280590   9.127   3.307   8.572  0.2315 -2.6438  1.7975
25154SOL     OW80591   1.432   1.083  11.297  0.2139  0.0030  0.7834
25154SOL    HW180592   1.471   1.159  11.255  0.2097  0.1998  1.1342
25154SOL    HW280593   1.506   1.023  11.311 -0.1687 -1.1477 -1.7892
25155SOL     OW80594   9.680   8.870   3.560 -0.7373  0.1466 -0.0336
25155SOL    HW180595   9.757   8.827   3.597 -1.0244  1.3807  2.0475
25155SOL    HW280596   9.616   8.870   3.631 -1.6103  1.7898 -0.8048
25156SOL     OW80597   6.725   0.720   4.248 -0.0917  0.1018  0.0861
25156SOL    HW180598   6.690   0.717   4.159  1.4012 -1.6104 -0.4875
25156SOL    HW280599   6.673   0.656   4.296 -1.3021  1.4672  0.6174
25157SOL     OW80600   5.633   7.861   2.615 -0.3779  0.0701 -0.1535
25157SOL    HW180601   5.701   7.795   2.626 -1.3251 -0.5783  1.9100
25157SOL    HW280602   5.649   7.925   2.684 -2.0616 -0.2683  0.5700
25158SOL     OW80603   4.533   7.532   1.881 -0.0965  0.2868 -0.0119
25158SOL    HW180604   4.530   7.458   1.941  0.4849  0.7705  0.6221
25158SOL    HW280605   4.610   7.582   1.908 -0.8665  1.4908  0.0008
25159SOL     OW80606   3.204   8.173   1.058  0.0218  0.3549  0.4854
25159SOL    HW180607   3.182   8.085   1.026  1.0369 -0.0147  0.7979
25159SOL    HW280608   3.253   8.213   0.985 -0.4284  0.6573  0.3482
25160SOL     OW80609   2.822   1.415   1.154  0.2291  0.0787 -0.0270
25160SOL    HW180610   2.907   1.434   1.195  0.5861 -0.3217 -0.5669
25160SOL    HW280611   2.843   1.405   1.061 -0.3509 -0.3790 -0.1091
25161SOL     OW80612   1.451   8.199   3.522 -0.3523  0.1105  0.1935
25161SOL    HW180613   1.470   8.116   3.567 -1.4763  0.0639  0.5911
25161SOL    HW280614   1.358   8.215   3.539  0.0757  1.9357  0.9083
25162SOL     OW80615   5.552  10.262   7.725  0.2991 -0.1128  0.9122
25162SOL    HW180616   5.564  10.167   7.728  0.5177 -0.0839  0.9658
25162SOL    HW280617   5.534  10.281   7.633  0.3425 -0.1962  0.8857
25163SOL     OW80618   2.991   5.405   6.202 -0.1303  0.3812 -0.0848
25163SOL    HW180619   3.004   5.363   6.118  0.7089 -0.0562  0.2568
25163SOL    HW280620   2.902   5.383   6.228  0.0842 -0.6195 -0.2164
25164SOL     OW80621   6.095   1.830   7.798  0.3888 -0.3102  1.0213
25164SOL    HW180622   6.042   1.777   7.740  0.3963 -0.1199  0.8403
25164SOL    HW280623   6.180   1.786   7.801  0.7619  0.3246 -0.0406
25165SOL     OW80624   8.338   1.572   9.870  0.1224 -0.1367  0.8478
25165SOL    HW180625   8.423   1.528   9.867  1.3206  2.0494  1.3392
25165SOL    HW280626   8.314   1.570   9.963  0.0069 -0.0568  0.8189
25166SOL     OW80627   0.755   9.598   6.159  0.1926  0.1950  0.4274
25166SOL    HW180628   0.700   9.541   6.106  1.6718 -0.5175 -0.3582
25166SOL    HW280629   0.802   9.653   6.096  0.6300  0.5770  1.0784
25167SOL     OW80630   6.867   3.498   8.399 -0.3804  0.0833 -0.1869
25167SOL    HW180631   6.900   3.584   8.372  1.3928 -0.4835  0.0675
25167SOL    HW280632   6.843   3.510   8.491  0.5606  0.1365  0.0644
25168SOL     OW80633   1.394   7.731   9.330  0.0645  0.3236 -0.4932
25168SOL    HW180634   1.402   7.638   9.348 -1.2798  0.1434 -0.7720
25168SOL    HW280635   1.301   7.745   9.313  0.5448  1.3374 -2.5220
25169SOL     OW80636   2.903   3.134   0.013  0.5040  0.2733 -0.8778
25169SOL    HW180637   2.893   3.105   0.104 -0.3252 -1.1786 -1.4102
25169SOL    HW280638   2.891   3.229   0.017 -0.9727  0.0584  0.3380
25170SOL     OW80639   3.622   5.809   8.264 -0.8266 -0.3566 -0.3822
25170SOL    HW180640   3.587   5.721   8.258  0.1911 -0.8333  0.5223
25170SOL    HW280641   3.710   5.803   8.228 -1.2003  0.5627 -1.4750
25171SOL     OW80642   6.262   3.608   1.101  0.3133  0.4228  0.2784
25171SOL    HW180643   6.224   3.693   1.119  0.3608  0.8987 -1.7649
25171SOL    HW280644   6.229   3.551   1.171 -2.6281  1.2433 -0.3912
25172SOL     OW80645   8.272   7.773  10.223  0.1995 -0.1147  0.2127
25172SOL    HW180646   8.367   7.783  10.232  0.0975  0.5630  0.6161
25172SOL    HW280647   8.246   7.724  10.300  0.4714 -2.0554 -0.9011
25173SOL     OW80648   2.411   2.056  11.057  0.3276 -0.1334 -0.0934
25173SOL    HW180649   2.483   2.107  11.095  1.1529 -0.7786 -0.7846
25173SOL    HW280650   2.442   1.966  11.058 -0.7396 -0.5058  0.2004
25174SOL     OW80651   1.957   0.938   1.585 -0.0780  0.0875  0.1105
25174SOL    HW180652   2.035   0.992   1.567 -0.5890  0.6565 -0.4326
25174SOL    HW280653   1.912   0.984   1.656 -0.2179  0.0674  0.0342
25175SOL     OW80654   8.649   0.006   2.583  0.4705 -0.2386 -1.0805
25175SOL    HW180655   8.708  -0.033   2.518  1.2730  0.6296 -0.8712
25175SOL    HW280656   8.561  -0.019   2.553  0.9404 -1.7498 -1.2483
25176SOL     OW80657   9.257   7.191   6.017  0.7657  0.0601 -0.0317
25176SOL    HW180658   9.202   7.242   6.076  2.3970  0.8024  0.8616
25176SOL    HW280659   9.227   7.216   5.929 -0.4669  0.2736  0.4356
25177SOL     OW80660   9.678   7.019   0.757 -0.8423 -0.1682 -0.0511
25177SOL    HW180661   9.611   7.085   0.740  0.2627  0.9171 -0.2698
25177SOL    HW280662   9.757   7.053   0.716 -0.5999 -2.3522 -1.5032
25178SOL     OW80663   9.483   0.967   1.775 -0.7378  0.2533  0.0722
25178SOL    HW180664   9.566   0.933   1.740  0.2571 -0.3355  2.8908
25178SOL    HW280665   9.418   0.900   1.752  0.1792 -0.8546  0.6307
25179SOL     OW80666   7.443   3.518   1.978  0.2269  0.6393  0.0027
25179SOL    HW180667   7.439   3.459   1.904 -0.2276  1.0366 -0.2908
25179SOL    HW280668   7.386   3.478   2.044  1.2981 -0.1563  0.4648
25180SOL     OW80669   9.822   8.809   7.560  0.1164 -0.3702 -0.1891
25180SOL    HW180670   9.847   8.852   7.641  0.8194 -1.7773  0.3455
25180SOL    HW280671   9.902   8.769   7.527 -0.7005 -2.1189 -0.1478
25181SOL     OW80672  10.386   2.066   5.431  0.1832 -0.1916  0.2593
25181SOL    HW180673  10.311   2.101   5.479 -0.9751  0.9318 -2.3037
25181SOL    HW280674  10.406   1.983   5.475 -0.1926  1.2572  3.2802
25182SOL     OW80675   1.517   7.498   5.508  0.1813  0.1191 -0.6601
25182SOL    HW180676   1.528   7.418   5.558  0.7719  0.3748 -0.3736
25182SOL    HW280677   1.425   7.522   5.520  0.3440  0.2424  0.3880
25183SOL     OW80678   4.517   0.436  10.669  0.2224 -0.1733 -0.0088
25183SOL    HW180679   4.516   0.447  10.764  0.2027 -0.0840 -0.0195
25183SOL    HW280680   4.557   0.517  10.636  1.3264 -0.7057 -0.0018
25184SOL     OW80681   8.082   4.830   5.178 -1.1831 -0.0632 -0.5566
25184SOL    HW180682   8.044   4.783   5.103 -2.0156  2.0209 -1.4912
25184SOL    HW280683   8.109   4.915   5.142  0.7950 -0.0022  0.9685
25185SOL     OW80684   3.086   2.902   8.096  0.1281 -0.1561 -0.2448
25185SOL    HW180685   3.144   2.956   8.043  0.2855 -0.8731 -0.8067
25185SOL    HW280686   3.067   2.826   8.042 -1.4257  0.1115 -0.1156
25186SOL     OW80687   5.215   9.490   2.349  0.2335  0.1056 -0.0227
25186SOL    HW180688   5.160   9.438   2.407  0.7710 -3.1765 -2.3287
25186SOL    HW280689   5.286   9.522   2.404 -0.2688 -1.3910  1.5102
25187SOL     OW80690   6.901   7.647  10.993  0.0242 -0.1753  0.1385
25187SOL    HW180691   6.903   7.566  11.043 -0.2306  0.1081  0.6151
25187SOL    HW280692   6.962   7.705  11.039  2.8873 -1.2144 -2.1865
25188SOL     OW80693   7.896   2.722  10.820  0.2179  0.0664  0.2707
25188SOL    HW180694   7.984   2.755  10.804  0.0818 -0.4412 -1.6873
25188SOL    HW280695   7.871   2.679  10.738 -0.9753 -1.7797  1.5372
25189SOL     OW80696   0.763   8.886   5.817 -0.6777  0.2362  0.0055
25189SOL    HW180697   0.692   8.822   5.818 -0.4290 -0.0530 -0.4848
25189SOL    HW280698   0.726   8.964   5.859 -1.0419 -0.1640  0.4360
25190SOL     OW80699  10.065   5.708   7.098 -0.3875  0.3804  0.7967
25190SOL    HW180700  10.157   5.731   7.108 -0.3648  0.7683 -0.1953
25190SOL    HW280701  10.018   5.779   7.141 -0.3002  2.1013 -1.8236
25191SOL     OW80702  10.770   7.262   4.801 -0.0273  0.3921  0.4338
25191SOL    HW180703  10.845   7.321   4.793  0.2309  0.4749  3.1731
25191SOL    HW280704  10.779   7.202   4.727  1.8066  1.4382 -0.2248
25192SOL     OW80705   9.744   6.874   3.973  0.0379 -0.0423 -0.0029
25192SOL    HW180706   9.819   6.822   3.946 -1.0941 -1.6743 -0.0585
25192SOL    HW280707   9.781   6.959   3.997  1.5432  0.1706 -2.8787
25193SOL     OW80708   5.421   8.446  11.239  0.2701 -0.1234  0.2599
25193SOL    HW180709   5.504   8.414  11.274  0.0471 -0.5210  0.4271
25193SOL    HW280710   5.367   8.463  11.316 -0.3104 -1.2384  0.1081
25194SOL     OW80711  10.879   7.787   1.206  0.2710 -0.1210 -0.1096
25194SOL    HW180712  10.798   7.742   1.181 -0.2190 -0.4537  1.9529
25194SOL    HW280713  10.851   7.877   1.226  0.8596  0.4852 -1.8731
25195SOL     OW80714   4.032   6.664   1.779 -0.2579 -0.6588 -0.2097
25195SOL    HW180715   4.073   6.732   1.725  0.9351 -1.0758  0.1699
25195SOL    HW280716   3.941   6.692   1.787  0.1034  0.6273 -0.4894
25196SOL     OW80717  10.829   2.251  11.009 -0.4475 -0.0893 -0.6504
25196SOL    HW180718  10.798   2.318  10.948  0.5472  0.2607 -0.7691
25196SOL    HW280719  10.845   2.174  10.954 -2.3591 -0.7040 -0.4059
25197SOL     OW80720   6.203   4.075  11.206  0.4143  0.5821  0.0712
25197SOL    HW180721   6.293   4.046  11.190  0.4540  0.8649 -0.2089
25197SOL    HW280722   6.204   4.168  11.186  0.9431  1.3953  3.5469
25198SOL     OW80723   6.013   2.890   3.502  0.8145 -0.4332 -0.1400
25198SOL    HW180724   6.041   2.818   3.446  0.1163 -0.4947 -0.4179
25198SOL    HW280725   5.954   2.849   3.566 -1.2024  0.1888 -1.5260
25199SOL     OW80726   3.778  11.031   2.524 -0.0661  0.4382  0.2225
25199SOL    HW180727   3.741  10.970   2.588 -1.0278  0.6907 -0.0970
25199SOL    HW280728   3.815  11.101   2.578  4.5770 -2.2689  0.8423
25200SOL     OW80729   0.366   4.658   5.951  0.1229  0.1548 -0.5920
25200SOL    HW180730   0.338   4.587   5.893  0.6667  0.5020 -1.2922
25200SOL    HW280731   0.422   4.713   5.896  2.6929 -0.8734  0.9274
25201SOL     OW80732   2.357   0.801   0.428 -0.1768  0.0146 -0.3911
25201SOL    HW180733   2.442   0.767   0.456  0.0648  0.6271 -0.3809
25201SOL    HW280734   2.316   0.728   0.383 -0.1370 -0.6577  0.6446
25202SOL     OW80735   0.191   8.396   4.113  0.0083 -0.4893  0.2681
25202SOL    HW180736   0.185   8.459   4.185  0.6720  0.4356 -0.4758
25202SOL    HW280737   0.247   8.326   4.147  0.2105 -0.1212  0.6969
25203SOL     OW80738   7.470   1.988   2.244  0.5661  0.0411  0.2210
25203SOL    HW180739   7.478   1.922   2.313  0.5918 -0.7581 -0.5395
25203SOL    HW280740   7.477   2.072   2.290  1.2734 -0.4928  1.1055
25204SOL     OW80741   3.040   3.351   7.789  0.0574 -0.2283 -0.8359
25204SOL    HW180742   2.992   3.287   7.841 -1.3140  0.7955 -0.8091
25204SOL    HW280743   2.986   3.430   7.793  0.7598  0.3503 -2.4491
25205SOL     OW80744   5.968   3.042  10.570 -0.5137 -0.1430  0.1140
25205SOL    HW180745   5.885   3.042  10.521 -0.3624 -1.1250 -0.1445
25205SOL    HW280746   5.941   3.044  10.662 -0.8036  1.2604  0.0216
25206SOL     OW80747   4.211   0.124   0.901 -0.3881 -0.1496 -0.2834
25206SOL    HW180748   4.208   0.205   0.951  0.6134 -0.6329  0.5721
25206SOL    HW280749   4.278   0.139   0.834 -0.5876 -0.0822 -0.4701
25207SOL     OW80750   7.343   9.780   0.010  0.7316 -0.6005 -0.2821
25207SOL    HW180751   7.347   9.852  -0.054  1.6212 -0.5206 -0.1423
25207SOL    HW280752   7.304   9.820   0.088 -0.2873 -0.6808 -0.7437
25208SOL     OW80753   7.203   6.934   4.419  0.0249 -0.0993  0.2230
25208SOL    HW180754   7.282   6.955   4.469  0.2590 -0.9396  0.2114
25208SOL    HW280755   7.194   6.839   4.428  0.7710 -0.4359 -2.3887
25209SOL     OW80756   7.829   3.097   6.485 -0.2070 -0.0907 -0.2449
25209SOL    HW180757   7.834   3.002   6.497  2.9884  0.2739  2.1490
25209SOL    HW280758   7.878   3.133   6.559 -0.5765  3.4299 -1.5902
25210SOL     OW80759   9.767   5.519   4.722  0.7822  0.1811  0.2421
25210SOL    HW180760   9.784   5.426   4.709  0.0353  0.0798 -0.0315
25210SOL    HW280761   9.673   5.528   4.708  1.0087  1.1348 -0.7286
25211SOL     OW80762  10.465   4.068   7.567 -0.5354  0.0830  0.1428
25211SOL    HW180763  10.387   4.061   7.512 -0.6255 -0.5129  0.3376
25211SOL    HW280764  10.537   4.040   7.511 -0.8909 -2.4604  0.9182
25212SOL     OW80765   3.515   0.543   9.657 -0.2231  0.0166 -0.2251
25212SOL    HW180766   3.507   0.522   9.563 -0.6259 -1.1495  0.0611
25212SOL    HW280767   3.457   0.481   9.700  0.4708  0.1103  0.8574
25213SOL     OW80768   7.102   1.299  11.090  0.1645  0.6429  0.2553
25213SOL    HW180769   7.144   1.279  11.006  2.3963  0.9773  1.2366
25213SOL    HW280770   7.022   1.346  11.067  0.3082 -0.0387 -1.7067
25214SOL     OW80771   2.140   6.921   1.038  0.2714  0.0358  0.0388
25214SOL    HW180772   2.198   6.907   0.963 -0.4137 -0.1266 -0.4687
25214SOL    HW280773   2.198   6.922   1.114  0.8299 -1.1295 -0.3639
25215SOL     OW80774   3.637   0.758   5.475 -0.5269 -0.2252 -0.0505
25215SOL    HW180775   3.552   0.755   5.520  0.2585 -0.2170  1.4790
25215SOL    HW280776   3.616   0.749   5.382 -2.4700  2.8619  0.0222
25216SOL     OW80777   1.469   9.406   2.337  0.8313  0.0396 -0.2482
25216SOL    HW180778   1.456   9.362   2.421  0.3819 -0.8852 -0.7935
25216SOL    HW280779   1.555   9.447   2.345 -0.1916  1.9354  1.5138
25217SOL     OW80780   5.923   2.524   0.954  0.0647 -0.1695  0.1744
25217SOL    HW180781   5.950   2.536   1.045 -0.4089  0.3919  0.2492
25217SOL    HW280782   5.830   2.546   0.954  0.4322  1.4740 -0.7463
25218SOL     OW80783   6.669   6.726   4.755 -0.0549 -0.7750  0.3875
25218SOL    HW180784   6.670   6.820   4.739 -0.4382 -0.8929 -0.3918
25218SOL    HW280785   6.680   6.687   4.668 -0.2576 -1.4461  0.6582
25219SOL     OW80786   8.190  11.053   6.489  0.5003  0.4056  0.0585
25219SOL    HW180787   8.274  11.059   6.535  0.0759 -0.7283  1.0125
25219SOL    HW280788   8.211  11.011   6.406  0.4406 -2.7019  1.5594
25220SOL     OW80789   2.282   3.459   3.978  0.5137 -0.2944  0.0637
25220SOL    HW180790   2.237   3.376   3.994  1.9672 -0.9799  0.6660
25220SOL    HW280791   2.351   3.437   3.915 -0.0344  0.7669 -0.9262
25221SOL     OW80792   3.193   4.322   6.822  0.2111 -0.2626 -0.2269
25221SOL    HW180793   3.103   4.320   6.853  0.3016 -1.0179 -0.0089
25221SOL    HW280794   3.219   4.230   6.815  1.4149 -0.0490  1.0383
25222SOL     OW80795   5.023   4.780   3.836  0.0991  0.0007  0.3733
25222SOL    HW180796   5.006   4.834   3.913  0.2828  1.5080 -0.6456
25222SOL    HW280797   5.067   4.702   3.871 -0.5143  0.3212  1.8782
25223SOL     OW80798  11.112   5.950   7.218  0.1694  0.3392  0.5875
25223SOL    HW180799  11.165   5.877   7.249  1.1745  0.0974 -1.6176
25223SOL    HW280800  11.147   6.027   7.263  1.7600  0.0302 -0.1112
25224SOL     OW80801   0.312   1.915   6.830 -0.8438 -0.0119 -0.0053
25224SOL    HW180802   0.342   1.941   6.743  1.7960  0.2689  0.9396
25224SOL    HW280803   0.351   1.829   6.845  0.2479  0.7311  1.6071
25225SOL     OW80804   5.646  10.265   5.238  0.1193 -0.3566 -0.4748
25225SOL    HW180805   5.609  10.235   5.155  2.5879 -0.1079 -1.7167
25225SOL    HW280806   5.570  10.282   5.293 -1.4869 -2.9069 -1.8341
25226SOL     OW80807   4.790   3.305   2.340  0.1636 -0.4217  0.3208
25226SOL    HW180808   4.708   3.353   2.329  1.4396  1.5579 -0.8962
25226SOL    HW280809   4.779   3.227   2.286 -0.6221  0.2292 -0.4889
25227SOL     OW80810  10.215   0.194  10.805  0.0027  0.0894 -0.3993
25227SOL    HW180811  10.244   0.285  10.796  0.6920 -0.0563  0.3380
25227SOL    HW280812  10.226   0.174  10.898 -0.8102 -0.5290 -0.4282
25228SOL     OW80813   1.244   7.577   5.495 -0.4086 -0.4839  0.3038
25228SOL    HW180814   1.265   7.661   5.453  1.4172 -0.7083  0.7185
25228SOL    HW280815   1.173   7.598   5.556 -2.0009  0.1594 -1.7152
25229SOL     OW80816   6.989   0.887   4.891 -0.2956  0.0745 -0.3474
25229SOL    HW180817   7.054   0.831   4.933  1.5015  1.8598 -0.6762
25229SOL    HW280818   6.992   0.864   4.799 -0.5017 -0.1933 -0.2889
25230SOL     OW80819  10.026   0.068   0.358  0.2903  0.3618  0.0686
25230SOL    HW180820  10.060   0.050   0.270  1.7436 -1.0003  0.8788
25230SOL    HW280821  10.097   0.117   0.400 -0.3195  0.8282  0.5460
25231SOL     OW80822   3.853   7.001   6.202 -0.5803  0.1125 -0.3671
25231SOL    HW180823   3.883   7.084   6.238 -0.3601  0.2407 -0.8481
25231SOL    HW280824   3.791   6.968   6.267 -1.2377  1.0155 -0.5309
25232SOL     OW80825   4.724   7.503   2.131 -0.2375  0.1616 -0.4134
25232SOL    HW180826   4.673   7.427   2.106 -0.6656  1.0777 -2.4150
25232SOL    HW280827   4.815   7.477   2.118 -0.1038 -1.4661  3.1460
25233SOL     OW80828   2.291   4.869   9.560 -0.1981 -0.1483 -0.1789
25233SOL    HW180829   2.209   4.916   9.574 -0.2536 -0.5150  0.7495
25233SOL    HW280830   2.329   4.910   9.482 -1.6101 -0.4682 -1.0513
25234SOL     OW80831   6.857   0.384   1.719 -0.0488  0.3882 -0.0029
25234SOL    HW180832   6.896   0.468   1.744  0.9138  0.3322 -1.2959
25234SOL    HW280833   6.862   0.382   1.624  1.0065 -1.6282  0.0570
25235SOL     OW80834   9.669   9.110   2.977  0.0445 -0.0681 -0.3916
25235SOL    HW180835   9.695   9.170   2.907  0.6371  0.1568  0.0160
25235SOL    HW280836   9.619   9.164   3.038  0.8953  0.0899  0.1619
25236SOL     OW80837  11.137   4.722   4.100  0.3799 -0.3447 -0.1899
25236SOL    HW180838  11.126   4.782   4.173  1.8334 -0.5902  0.2615
25236SOL    HW280839  11.107   4.638   4.132  0.2037 -0.2704 -0.1622
25237SOL     OW80840   2.766   0.582   1.705 -0.8915  0.0001  0.1972
25237SOL    HW180841   2.834   0.642   1.736 -0.1090 -1.6136  1.6509
25237SOL    HW280842   2.778   0.580   1.610 -0.5954  1.7410  0.1788
25238SOL     OW80843   8.862   0.302   1.455 -0.0696 -0.1834  0.0337
25238SOL    HW180844   8.797   0.372   1.446 -0.4383 -0.4464  0.6960
25238SOL    HW280845   8.897   0.291   1.366 -1.6331 -0.7354 -0.5196
25239SOL     OW80846   7.680   1.713   1.734 -0.3497 -0.2745  0.4242
25239SOL    HW180847   7.743   1.777   1.765 -0.9390  0.4570  0.1281
25239SOL    HW280848   7.732   1.647   1.688  0.3583 -0.5524  1.6229
25240SOL     OW80849   5.096   4.913   9.706  0.6866  0.2200  0.0371
25240SOL    HW180850   5.099   4.821   9.732 -0.8506  0.4668  1.1822
25240SOL    HW280851   5.185   4.933   9.678  1.9097 -0.6943  3.0760
25241SOL     OW80852   5.741  10.304   3.576  0.2820  0.3575 -0.1262
25241SOL    HW180853   5.722  10.215   3.608 -1.0403  0.5657 -0.3325
25241SOL    HW280854   5.664  10.329   3.526 -1.1973  3.2273  3.3543
25242SOL     OW80855   8.305  11.069   2.314  0.8251  0.5688  0.2039
25242SOL    HW180856   8.240  11.134   2.287  2.4740  1.4834 -1.6674
25242SOL    HW280857   8.296  10.997   2.252 -0.9013 -1.0038  2.1888
25243SOL     OW80858   8.603   5.035   9.806 -0.0844 -0.0948 -0.0767
25243SOL    HW180859   8.639   5.088   9.736 -2.3450 -0.3697 -1.4995
25243SOL    HW280860   8.631   4.946   9.786  0.8397  0.0791  0.4190
25244SOL     OW80861   8.081   6.349   8.487 -0.0689 -0.7184 -0.1002
25244SOL    HW180862   7.987   6.359   8.499  0.0559 -0.3304  0.5252
25244SOL    HW280863   8.099   6.258   8.511 -0.2869 -0.8093 -0.2768
25245SOL     OW80864   0.535   1.741  10.586 -0.1005  0.6638  0.7648
25245SOL    HW180865   0.556   1.681  10.515  0.1022  2.5317 -0.8084
25245SOL    HW280866   0.522   1.685  10.663  1.0053 -1.2735 -0.4390
25246SOL     OW80867   7.449   2.513   2.274 -0.0168  0.1514  0.1987
25246SOL    HW180868   7.418   2.510   2.364 -1.3153  1.0835 -0.1982
25246SOL    HW280869   7.369   2.524   2.222  0.7145 -0.3826 -1.0641
25247SOL     OW80870   8.240   0.197  10.365 -0.1858  0.2121  0.7009
25247SOL    HW180871   8.199   0.173  10.283  0.0929 -1.0592  0.9261
25247SOL    HW280872   8.177   0.172  10.432  0.5749 -0.9320  0.9991
25248SOL     OW80873   9.960   6.493   7.778 -0.2570 -0.6736 -0.1690
25248SOL    HW180874  10.004   6.547   7.713  1.6337 -0.0167  1.6042
25248SOL    HW280875   9.904   6.435   7.727 -0.7359  1.5225 -2.2297
25249SOL     OW80876   4.045  10.809   6.098 -0.5600 -0.3965 -0.1755
25249SOL    HW180877   3.967  10.797   6.044 -0.6678 -1.6935  0.2375
25249SOL    HW280878   4.019  10.778   6.185  0.5856 -1.4523 -0.1815
25250SOL     OW80879   2.066   1.072  10.201 -0.0909  0.2016  0.6060
25250SOL    HW180880   2.011   1.111  10.269 -1.0137  2.9669 -1.6140
25250SOL    HW280881   2.006   1.022  10.147  0.0927  0.6479 -0.0128
25251SOL     OW80882   1.952   7.401  11.203  0.0007  0.3699  0.0592
25251SOL    HW180883   1.898   7.372  11.276 -0.8786 -1.3912 -1.2566
25251SOL    HW280884   2.041   7.374  11.226 -0.4609 -1.3132 -0.0633
25252SOL     OW80885   2.739   2.056   5.394  0.0034  0.2146  0.2213
25252SOL    HW180886   2.709   1.973   5.431 -0.3568 -0.2164 -1.0238
25252SOL    HW280887   2.711   2.122   5.458 -2.4189 -0.3140 -0.2405
25253SOL     OW80888   6.438   1.056   0.805 -0.6279  0.2882 -0.0705
25253SOL    HW180889   6.405   0.995   0.871 -1.6891 -0.4803 -1.2955
25253SOL    HW280890   6.534   1.047   0.809 -0.5840  1.5597  2.5772
25254SOL     OW80891   8.711   7.738   1.369  0.1085  0.0879 -0.6604
25254SOL    HW180892   8.635   7.681   1.379  0.5594 -0.3647  0.1225
25254SOL    HW280893   8.744   7.751   1.457  2.2004 -1.4072 -1.1929
25255SOL     OW80894  10.228  10.201  10.178  0.1291  0.1781  0.0661
25255SOL    HW180895  10.285  10.241  10.244 -0.0259  0.0719  0.2646
25255SOL    HW280896  10.248  10.107  10.182 -2.1272 -0.2630  2.1785
25256SOL     OW80897   2.471   6.387   4.658  0.6887  0.0144  0.1262
25256SOL    HW180898   2.557   6.347   4.644  0.8123  0.5435 -0.6689
25256SOL    HW280899   2.485   6.450   4.729  1.2815  1.0522 -0.8839
25257SOL     OW80900   0.970   4.037   3.248 -0.1610  0.2123 -0.3467
25257SOL    HW180901   1.004   3.951   3.272  2.4372  1.1297 -0.6173
25257SOL    HW280902   0.948   4.029   3.155 -2.0554 -0.8004  0.1715
25258SOL     OW80903   1.179  10.150   4.713 -0.0269 -0.1379  0.2879
25258SOL    HW180904   1.148  10.146   4.622 -0.2533 -0.5179  0.3835
25258SOL    HW280905   1.262  10.198   4.707 -0.1794  0.0821 -0.0830
25259SOL     OW80906   4.344  10.051  10.530  0.0746 -0.3446  0.1341
25259SOL    HW180907   4.399  10.120  10.568  0.2070 -0.2855 -0.1646
25259SOL    HW280908   4.255  10.077  10.552  0.0729  0.3968 -0.7665
25260SOL     OW80909   1.971   9.746   6.650 -0.2653  0.5058 -0.4081
25260SOL    HW180910   2.038   9.710   6.592  1.4806  1.1403  1.1903
25260SOL    HW280911   1.976   9.840   6.637 -0.3105  0.6042  0.3085
25261SOL     OW80912   7.516   3.371   4.085  0.0256 -0.2096 -0.2272
25261SOL    HW180913   7.540   3.319   4.008  0.7305  2.0197 -1.5317
25261SOL    HW280914   7.431   3.409   4.063  0.2980  0.5564  0.0572
25262SOL     OW80915   7.987   1.009   3.104  0.7561 -0.3430 -0.6464
25262SOL    HW180916   7.932   0.930   3.109 -0.1936  0.4061  1.0955
25262SOL    HW280917   7.934   1.071   3.054 -0.6184  0.8385  2.1720
25263SOL     OW80918   3.520  10.920   8.283 -0.8804 -0.0441  0.0267
25263SOL    HW180919   3.544  10.934   8.191  2.2486 -0.0747  0.7878
25263SOL    HW280920   3.517  10.825   8.292 -0.0872 -0.0448  0.2432
25264SOL     OW80921   3.143   0.813   0.887 -0.1380 -0.2207 -0.2047
25264SOL    HW180922   3.186   0.776   0.964  0.8173 -0.1985 -0.7180
25264SOL    HW280923   3.091   0.885   0.921  2.6621  1.7415  0.0616
25265SOL     OW80924  10.571   2.301   9.743  0.4686 -0.1967 -0.1362
25265SOL    HW180925  10.531   2.386   9.724  1.2400 -0.4151 -2.9216
25265SOL    HW280926  10.510   2.260   9.805  0.5201  2.6887  1.9659
25266SOL     OW80927   0.304   9.595   0.178  0.6004 -0.3158  0.1252
25266SOL    HW180928   0.398   9.609   0.167  0.5090  0.2709  0.0694
25266SOL    HW280929   0.294   9.500   0.182  0.8274 -0.5080 -3.1081
25267SOL     OW80930   1.301   9.247   7.442 -0.2667  0.4132  0.7806
25267SOL    HW180931   1.341   9.248   7.529  0.0628 -1.1513  0.6605
25267SOL    HW280932   1.250   9.166   7.440  1.1613 -0.4748 -1.1142
25268SOL     OW80933   7.641   8.825   2.558  0.1662  0.1376  0.0523
25268SOL    HW180934   7.675   8.741   2.591  0.4447  0.6110  1.0006
25268SOL    HW280935   7.653   8.821   2.464  2.8140  0.2703  0.3478
25269SOL     OW80936  10.434   2.814   7.540 -0.1683  0.0484  0.0609
25269SOL    HW180937  10.402   2.883   7.481  0.2098  0.7763  0.6971
25269SOL    HW280938  10.371   2.812   7.612  1.5795  2.0304  1.7161
25270SOL     OW80939   7.563   6.755   0.615 -0.8060  0.2997  0.5335
25270SOL    HW180940   7.623   6.729   0.686  0.4350  0.4586 -0.4398
25270SOL    HW280941   7.618   6.806   0.555 -1.5542 -0.8770 -1.1764
25271SOL     OW80942   5.475   9.596   9.342  0.1994  0.2900 -0.4328
25271SOL    HW180943   5.416   9.521   9.355  0.4226  0.1250 -0.3819
25271SOL    HW280944   5.436   9.665   9.396 -0.5289  0.4940 -1.2094
25272SOL     OW80945   4.249   1.623   7.618 -0.2281 -0.2735  0.0259
25272SOL    HW180946   4.257   1.586   7.706 -2.2861  1.4026  0.9702
25272SOL    HW280947   4.332   1.667   7.602  0.0461 -0.3408  1.2494
25273SOL     OW80948   2.148   9.915   8.915  0.0101  0.5537  0.1312
25273SOL    HW180949   2.139   9.979   8.985 -0.8466 -0.4561  0.9482
25273SOL    HW280950   2.133   9.966   8.835  0.2347  1.5514  0.7113
25274SOL     OW80951   1.817  11.304   0.299 -0.3053 -0.5299  0.6207
25274SOL    HW180952   1.910  11.303   0.273 -0.2184  0.9411  0.7987
25274SOL    HW280953   1.816  11.354   0.380 -1.2481 -0.6389  0.6744
25275SOL     OW80954   2.022   7.164  10.502 -0.0557 -0.0177  0.3895
25275SOL    HW180955   2.046   7.175  10.410 -0.8937  0.4871  0.2185
25275SOL    HW280956   1.934   7.127  10.500  0.7726 -2.0408  1.0001
25276SOL     OW80957   5.527   5.563   7.804  0.1777  0.3787 -0.4689
25276SOL    HW180958   5.506   5.489   7.747  1.4551 -0.9490  0.7438
25276SOL    HW280959   5.465   5.556   7.877  0.8683 -0.0597  0.0964
25277SOL     OW80960   9.667   2.506   2.450 -0.4168  0.1482  0.3287
25277SOL    HW180961   9.652   2.474   2.361  0.1747 -1.0727  0.6566
25277SOL    HW280962   9.642   2.433   2.506 -1.0059  0.9997  1.1806
25278SOL     OW80963   0.816   0.896   5.256 -0.4508  0.2544  0.0825
25278SOL    HW180964   0.795   0.968   5.197  0.9832 -0.2590 -1.0819
25278SOL    HW280965   0.748   0.900   5.324 -1.3415  1.6714 -0.8650
25279SOL     OW80966   4.585   1.105   6.395  0.1855  0.1648 -0.0526
25279SOL    HW180967   4.628   1.171   6.449 -1.2976  1.5151 -0.5102
25279SOL    HW280968   4.644   1.094   6.320  1.3909 -0.4658  0.9707
25280SOL     OW80969   7.677   6.044   9.461  0.6651  0.1380  0.1270
25280SOL    HW180970   7.626   6.034   9.541  3.0180 -0.2887  1.6266
25280SOL    HW280971   7.622   6.097   9.404 -1.3098 -0.0702  1.7915
25281SOL     OW80972   7.399   8.930   4.210 -0.3640 -0.4172  0.4368
25281SOL    HW180973   7.307   8.923   4.187 -0.4611  1.2837  0.2903
25281SOL    HW280974   7.443   8.956   4.129  0.1912 -0.7895  0.6095
25282SOL     OW80975   9.144   6.990   2.621 -0.3064  0.5157  0.3537
25282SOL    HW180976   9.226   7.022   2.583 -0.3253  2.1153  1.6239
25282SOL    HW280977   9.138   7.034   2.706 -2.5208  0.4631  0.2400
25283SOL     OW80978   1.331   6.771   1.009  1.1037  0.1713  0.0947
25283SOL    HW180979   1.359   6.845   1.063 -1.0081 -1.3246  3.4941
25283SOL    HW280980   1.241   6.753   1.039  0.8235 -2.4401 -2.1117
25284SOL     OW80981   3.382   0.212   8.595  0.6223  0.5025  0.2825
25284SOL    HW180982   3.383   0.308   8.602 -0.2747  0.4988  0.4748
25284SOL    HW280983   3.373   0.195   8.502 -1.5012  0.6278  0.4396
25285SOL     OW80984   2.876   5.693   4.037 -0.2368 -0.4340 -0.7454
25285SOL    HW180985   2.896   5.770   4.092  0.8893 -1.2026 -0.0572
25285SOL    HW280986   2.784   5.705   4.012 -0.2019  0.9142 -0.2790
25286SOL     OW80987   0.914   6.370   6.290  0.0616  0.2841 -0.2380
25286SOL    HW180988   0.963   6.442   6.250 -0.6842  0.2156 -1.2689
25286SOL    HW280989   0.961   6.353   6.372  1.4358  0.5952 -0.9403
25287SOL     OW80990   2.964   5.087   0.523  0.4029  0.3106 -0.0125
25287SOL    HW180991   2.963   5.116   0.614 -0.5306 -1.2682  0.5079
25287SOL    HW280992   2.894   5.138   0.481  0.5624  0.7502  0.2568
25288SOL     OW80993   3.461   5.283   0.166  0.3653 -0.2625 -0.0163
25288SOL    HW180994   3.442   5.266   0.074  1.6228  0.7620 -0.4731
25288SOL    HW280995   3.420   5.210   0.213 -2.5290  0.5629 -1.1570
25289SOL     OW80996   3.149   8.995  10.089 -0.2477 -0.4638 -0.0542
25289SOL    HW180997   3.154   8.933  10.162  1.9349 -0.5491 -0.2221
25289SOL    HW280998   3.083   9.058  10.115  0.4601 -0.5303  1.9845
25290SOL     OW80999   8.829   1.363   5.513  0.3967  0.2093 -0.5867
25290SOL    HW181000   8.801   1.292   5.571 -0.7322 -1.8171 -3.4840
25290SOL    HW281001   8.920   1.379   5.535  0.2386 -1.1411  1.0972
25291SOL     OW81002  10.878   9.336   2.557  0.2886 -0.4385  0.1088
25291SOL    HW181003  10.829   9.275   2.501 -0.0289 -0.8712  0.8477
25291SOL    HW281004  10.962   9.293   2.570  0.0975 -0.6814  0.5543
25292SOL     OW81005   9.460  10.732   1.407  0.5436 -0.6432  0.0601
25292SOL    HW181006   9.527  10.690   1.353  0.6976 -1.0330  0.5510
25292SOL    HW281007   9.488  10.716   1.497  0.8850  0.9629  0.2618
25293SOL     OW81008   7.820   9.846   9.927  0.2337 -0.3573  0.3781
25293SOL    HW181009   7.818   9.760   9.967 -0.3952  0.2255  1.6294
25293SOL    HW281010   7.893   9.891   9.969 -0.3813  0.2301  0.8497
25294SOL     OW81011   1.836   8.864  10.087  0.5661 -0.7541  0.1333
25294SOL    HW181012   1.809   8.820  10.167  0.1168 -0.7226  0.0018
25294SOL    HW281013   1.874   8.947  10.116  0.9585 -1.0088  0.3500
25295SOL     OW81014   9.975   7.388   4.893  0.6344  0.1226 -0.2083
25295SOL    HW181015   9.937   7.419   4.811  1.9301  1.2031 -0.4123
25295SOL    HW281016   9.916   7.420   4.961  0.7046  1.0408 -0.5773
25296SOL     OW81017  10.817   6.366   1.315  0.0778 -0.2306 -0.1712
25296SOL    HW181018  10.730   6.357   1.354 -0.3717 -0.4765 -1.1872
25296SOL    HW281019  10.845   6.454   1.338 -0.6141 -0.0083 -0.1522
25297SOL     OW81020   6.198  10.774  10.099 -0.2812  0.3045 -0.2306
25297SOL    HW181021   6.199  10.849  10.040  1.1306 -1.1639 -2.1327
25297SOL    HW281022   6.189  10.698  10.042 -0.1749 -1.0860  1.5468
25298SOL     OW81023   3.149   7.318  10.497 -0.3982 -0.0415 -0.5540
25298SOL    HW181024   3.228   7.312  10.551 -0.3003 -2.5484 -0.9161
25298SOL    HW281025   3.178   7.289  10.410 -2.0717 -2.7351 -0.2683
25299SOL     OW81026   8.652   0.464   6.288 -0.0234  0.1084  0.0464
25299SOL    HW181027   8.585   0.441   6.352 -0.3976  0.5896 -0.1702
25299SOL    HW281028   8.663   0.385   6.235  1.1272 -0.6809  1.4342
25300SOL     OW81029   7.928   3.645   7.695  0.2604 -0.4357  0.1328
25300SOL    HW181030   7.909   3.726   7.648 -0.8864 -1.0380 -0.4497
25300SOL    HW281031   7.859   3.639   7.761  1.2193 -0.1689  1.1674
25301SOL     OW81032   8.251   2.224   6.547  0.4976  0.3012 -1.2224
25301SOL    HW181033   8.192   2.162   6.503 -1.2066  0.4784  0.7297
25301SOL    HW281034   8.291   2.174   6.617  0.6917  0.8725 -0.9201
25302SOL     OW81035   9.615   0.812   2.681  0.5314  0.1521 -0.6390
25302SOL    HW181036   9.553   0.875   2.719 -0.7718 -0.8635 -1.0615
25302SOL    HW281037   9.602   0.732   2.732  0.8492 -0.3383 -1.3251
25303SOL     OW81038   2.436   7.205   3.574 -0.1597  0.4391  0.1676
25303SOL    HW181039   2.372   7.175   3.638 -0.1532  1.2362  0.5535
25303SOL    HW281040   2.481   7.126   3.546  1.9006  0.4348  3.3488
25304SOL     OW81041   0.736   7.965   4.015 -0.0024 -0.1195  0.3316
25304SOL    HW181042   0.762   8.056   4.021 -0.4507  0.0445 -0.2210
25304SOL    HW281043   0.650   7.967   3.974  0.3976 -0.8505 -0.5554
25305SOL     OW81044   0.434  11.080   8.811 -0.3757  0.2226  0.0582
25305SOL    HW181045   0.344  11.111   8.821 -0.5606 -0.5416  0.7892
25305SOL    HW281046   0.430  10.987   8.836  0.6760  0.2757  0.4224
25306SOL     OW81047   9.077   5.180   3.781  0.4514  0.3956  0.8095
25306SOL    HW181048   9.025   5.113   3.824 -0.5043 -1.1256 -2.5298
25306SOL    HW281049   9.167   5.148   3.784  0.2790 -0.0616  1.0094
25307SOL     OW81050   8.500   7.916  11.035 -0.8075 -0.0406 -0.0846
25307SOL    HW181051   8.433   7.953  10.978  0.9223 -0.2091 -2.2927
25307SOL    HW281052   8.470   7.827  11.052 -1.4099  0.0504 -0.6416
25308SOL     OW81053   5.322   0.245   7.489  0.1338 -0.0972  0.2133
25308SOL    HW181054   5.324   0.202   7.575  0.3114  1.6329  1.0985
25308SOL    HW281055   5.414   0.262   7.469 -0.0386  1.7533  0.8706
25309SOL     OW81056   5.590   1.178   3.527 -0.3311  0.5459  0.5027
25309SOL    HW181057   5.593   1.260   3.575 -0.1879  0.0587  1.3320
25309SOL    HW281058   5.501   1.145   3.541  0.1883 -0.3694  1.7521
25310SOL     OW81059   6.490   4.824   8.843 -0.4415  0.8004 -0.4155
25310SOL    HW181060   6.494   4.901   8.899  0.2943  0.0910  0.5342
25310SOL    HW281061   6.503   4.858   8.754 -0.6088  1.8167 -0.0553
25311SOL     OW81062   4.508   9.349   4.237 -0.4715  0.4219  0.4945
25311SOL    HW181063   4.587   9.372   4.287 -1.4649  0.5778  2.0120
25311SOL    HW281064   4.440   9.404   4.274 -1.3160  0.2562 -0.7936
25312SOL     OW81065   0.196   0.421   5.135  0.2897 -0.5798  0.3907
25312SOL    HW181066   0.206   0.344   5.190 -0.5864 -0.2959  0.9525
25312SOL    HW281067   0.105   0.448   5.146  0.4608  0.2686 -0.1513
25313SOL     OW81068   9.814   1.929   8.069  0.1252  0.1001  0.0753
25313SOL    HW181069   9.777   1.862   8.011  1.2446 -0.9600  0.5478
25313SOL    HW281070   9.768   2.009   8.047 -2.3243 -1.1475  0.5265
25314SOL     OW81071   8.801   1.571   1.463 -0.3234  0.7871 -0.2593
25314SOL    HW181072   8.851   1.492   1.443  1.8903  2.2609 -0.8590
25314SOL    HW281073   8.784   1.610   1.377  0.7789  2.2193  0.1587
25315SOL     OW81074   1.289   5.532  10.923  0.2352 -0.4986 -0.2328
25315SOL    HW181075   1.348   5.478  10.870  0.9647 -0.8054  0.8653
25315SOL    HW281076   1.298   5.497  11.012 -0.7797  0.1684  0.1397
25316SOL     OW81077   7.357   2.068  11.060 -0.0075 -0.5206 -0.5642
25316SOL    HW181078   7.300   2.083  10.984 -0.0158 -1.4468 -0.7548
25316SOL    HW281079   7.351   1.974  11.076 -1.6147 -0.0335  1.8857
25317SOL     OW81080   4.477   7.838   2.776 -0.0062  0.0756 -0.2009
25317SOL    HW181081   4.570   7.815   2.780  0.2629  1.1646 -0.0677
25317SOL    HW281082   4.452   7.821   2.685  0.1555 -0.8406 -0.0788
25318SOL     OW81083   4.128   0.833   7.289  0.5146 -0.0114 -0.3175
25318SOL    HW181084   4.130   0.886   7.368 -2.0645 -0.5713  0.1575
25318SOL    HW281085   4.082   0.887   7.225 -1.5657 -1.3776 -0.0175
25319SOL     OW81086   7.595  10.013   4.729 -0.5260 -0.1344 -0.6270
25319SOL    HW181087   7.610   9.977   4.817 -0.9904  1.7679  0.2662
25319SOL    HW281088   7.514  10.064   4.738 -0.0669  0.8455 -1.9379
25320SOL     OW81089  11.003   1.902   6.410  0.2855 -0.0567  0.0390
25320SOL    HW181090  10.961   1.819   6.386  0.5454  0.1309 -1.1146
25320SOL    HW281091  10.944   1.941   6.474 -1.9611  0.7691 -2.4372
25321SOL     OW81092   8.372  10.144   0.161  0.4279  0.4107  0.0581
25321SOL    HW181093   8.340  10.177   0.077 -0.9663  1.4652  0.9880
25321SOL    HW281094   8.468  10.150   0.154  0.2805  1.7378 -0.9512
25322SOL     OW81095   7.679   6.009   9.755 -0.3336  0.5515 -0.6346
25322SOL    HW181096   7.622   6.002   9.831  0.4959  2.1683  0.1637
25322SOL    HW281097   7.747   5.944   9.770  0.0928  1.1954  0.2425
25323SOL     OW81098   7.425   0.171  10.887  0.0173 -0.0305 -0.3461
25323SOL    HW181099   7.361   0.194  10.955  0.5118 -0.7725  0.3762
25323SOL    HW281100   7.388   0.208  10.807 -3.3461 -3.8645 -0.7353
25324SOL     OW81101   1.184   8.445   9.842  0.2446  0.0588 -0.5707
25324SOL    HW181102   1.125   8.451   9.766 -3.5051  0.3568  2.2466
25324SOL    HW281103   1.193   8.536   9.872 -0.4748 -0.3364  0.8912
25325SOL     OW81104  11.279   1.858   4.649  0.1917  0.5182 -0.0525
25325SOL    HW181105  11.223   1.781   4.639 -1.2525  1.6600 -0.8437
25325SOL    HW281106  11.362   1.833   4.608  0.5114 -1.3938  1.6387
25326SOL     OW81107   4.122   8.245   3.458  0.3304  0.2561 -0.2440
25326SOL    HW181108   4.202   8.197   3.435  0.1135 -0.0633 -0.3257
25326SOL    HW281109   4.093   8.284   3.376 -1.5439 -2.5081 -0.9409
25327SOL     OW81110  10.786   8.975   4.116  0.0778 -0.2989  0.3481
25327SOL    HW181111  10.721   8.995   4.184  0.2568 -0.1092  0.4627
25327SOL    HW281112  10.736   8.930   4.048 -0.4078  0.8520 -0.0712
25328SOL     OW81113   4.876   0.885   4.739  0.0781 -0.4640 -0.8182
25328SOL    HW181114   4.817   0.928   4.677 -0.6949  0.3787  0.4679
25328SOL    HW281115   4.961   0.928   4.726 -0.3232  0.3877 -0.6013
25329SOL     OW81116   0.543   6.450   0.707  0.1699  0.2999 -0.0917
25329SOL    HW181117   0.617   6.425   0.652  0.7251  0.6037  0.5163
25329SOL    HW281118   0.466   6.424   0.656  0.6935 -0.3202 -0.5793
25330SOL     OW81119   8.269   1.602   4.953  0.0645 -0.3567 -0.0122
25330SOL    HW181120   8.203   1.548   4.909 -0.8354 -1.1050  2.1882
25330SOL    HW281121   8.351   1.553   4.941  0.1599  0.2729 -2.2241
25331SOL     OW81122  10.912   7.935   0.956  0.4386 -0.3375  0.0041
25331SOL    HW181123  10.948   7.872   0.893  1.0818 -0.6666  0.7012
25331SOL    HW281124  10.894   7.884   1.034  1.6406  0.4626  0.8258
25332SOL     OW81125   1.466   8.745   3.954  0.4195  0.3765 -0.1854
25332SOL    HW181126   1.384   8.731   4.001 -0.7731  0.3226 -2.2484
25332SOL    HW281127   1.533   8.746   4.023 -1.4026  1.4410  1.6272
25333SOL     OW81128   1.169   8.979  10.250  0.5860 -0.0560  0.5443
25333SOL    HW181129   1.235   8.986  10.181  1.0973 -0.4313  0.9896
25333SOL    HW281130   1.185   9.056  10.306 -2.1826  2.2910 -1.7561
25334SOL     OW81131   5.682   9.517   3.035 -0.2691 -0.2497 -0.2208
25334SOL    HW181132   5.587   9.532   3.033 -0.4305 -1.3538 -2.6653
25334SOL    HW281133   5.720   9.602   3.017 -0.8178  0.0612  0.0815
25335SOL     OW81134   1.101   8.604   3.178  0.1106  0.2460 -0.2067
25335SOL    HW181135   1.009   8.630   3.190 -0.2046 -1.3608  1.1651
25335SOL    HW281136   1.095   8.514   3.146  1.2050 -0.1962  0.7900
25336SOL     OW81137   4.688   5.357  10.528 -0.5531  0.7338  0.0879
25336SOL    HW181138   4.688   5.341  10.433 -2.2190  0.0080  0.1965
25336SOL    HW281139   4.600   5.331  10.557  0.4531 -0.5388  2.0936
25337SOL     OW81140   7.517  11.233   7.171  0.1867 -0.2887  0.2625
25337SOL    HW181141   7.593  11.213   7.225  0.0684 -0.5097  0.3493
25337SOL    HW281142   7.496  11.324   7.191  2.2667  0.7410 -2.0311
25338SOL     OW81143   7.380   3.083   0.276 -0.0666 -0.5204 -0.1628
25338SOL    HW181144   7.466   3.054   0.305 -0.3814 -3.5464 -1.9766
25338SOL    HW281145   7.398   3.139   0.200  0.3079 -2.1560 -1.3144
25339SOL     OW81146  10.204  10.012   2.941  0.2705  1.1709 -0.0609
25339SOL    HW181147  10.181   9.928   2.981 -0.2360  1.7723  0.9029
25339SOL    HW281148  10.286   9.994   2.894  1.8183  0.8684  2.6604
25340SOL     OW81149   4.528  11.116   2.425  0.2304 -0.1141  0.1475
25340SOL    HW181150   4.595  11.048   2.426  0.5896  0.2391  0.2083
25340SOL    HW281151   4.445  11.068   2.421  0.5098 -0.5353 -0.7173
25341SOL     OW81152  11.321   0.237  10.021 -0.8321 -0.1564 -0.2436
25341SOL    HW181153  11.382   0.230   9.948 -2.5023 -0.1650 -1.6742
25341SOL    HW281154  11.369   0.202  10.096  0.7539 -0.5742 -1.4255
25342SOL     OW81155   2.653   2.481   7.065 -0.5247  0.0499 -0.7836
25342SOL    HW181156   2.575   2.516   7.108  0.1145  0.7641 -0.2097
25342SOL    HW281157   2.684   2.551   7.009  1.2502  0.7575  1.0107
25343SOL     OW81158   1.256   8.080   2.719 -0.4801 -0.4302  0.3045
25343SOL    HW181159   1.211   8.096   2.802  1.0639 -1.3484  1.3398
25343SOL    HW281160   1.300   7.997   2.732  1.4575  0.4167 -0.7094
25344SOL     OW81161   5.566   5.995   7.738 -0.0071  0.7436 -0.2377
25344SOL    HW181162   5.599   5.931   7.800 -0.3424 -1.1783 -1.9963
25344SOL    HW281163   5.471   5.991   7.748 -0.0332  0.8831 -0.4298
25345SOL     OW81164   8.915  10.969   6.046 -0.3978 -0.4684 -0.1878
25345SOL    HW181165   8.885  10.969   5.955  0.6762 -0.6607 -0.5578
25345SOL    HW281166   8.866  10.897   6.087 -0.3531 -0.8580 -0.8027
25346SOL     OW81167   5.851   4.360   9.452 -0.2838 -0.3872 -0.0269
25346SOL    HW181168   5.892   4.281   9.487 -0.1092 -0.7252 -1.0004
25346SOL    HW281169   5.774   4.328   9.405 -1.1374  0.1611  0.9553
25347SOL     OW81170   2.756   0.145   4.771 -0.4556 -0.4090 -0.4848
25347SOL    HW181171   2.688   0.085   4.741 -0.8688  0.5749 -1.5810
25347SOL    HW281172   2.838   0.096   4.760 -0.7213 -0.5449 -2.0187
25348SOL     OW81173  11.117   0.206   7.141 -0.7143 -0.3082  0.1233
25348SOL    HW181174  11.196   0.241   7.099 -0.5657 -1.5578 -0.6610
25348SOL    HW281175  11.146   0.183   7.230 -0.3615 -0.1532  0.0501
25349SOL     OW81176   2.417   1.152   6.967  0.4004  0.2174  0.3019
25349SOL    HW181177   2.389   1.239   6.937  0.9990  0.7835  1.3218
25349SOL    HW281178   2.455   1.169   7.053 -1.1004 -1.3148  1.3011
25350SOL     OW81179  10.039   4.454   8.384  0.1498  0.2776  0.1311
25350SOL    HW181180   9.946   4.454   8.360  0.4840  0.7579 -1.1798
25350SOL    HW281181  10.077   4.525   8.332  1.7033 -1.4515 -1.1564
25351SOL     OW81182   7.617   3.866   2.560  0.5419  0.3384 -0.0606
25351SOL    HW181183   7.650   3.790   2.606  0.3357  0.5551  0.4479
25351SOL    HW281184   7.625   3.843   2.467  2.6910  0.6233  0.0151
25352SOL     OW81185   7.527   6.730   2.228  0.3203 -0.2563 -0.2370
25352SOL    HW181186   7.608   6.702   2.184  0.6210  0.6381 -0.2687
25352SOL    HW281187   7.520   6.672   2.304  0.5017 -0.9432 -0.7424
25353SOL     OW81188   5.959   6.579   2.126  0.7650  0.1333  0.8039
25353SOL    HW181189   5.975   6.490   2.156  2.1770 -0.0681 -0.5133
25353SOL    HW281190   5.977   6.633   2.203 -3.5226 -0.8812  2.7052
25354SOL     OW81191  10.692   3.494   7.854  0.0708  0.1967 -0.2566
25354SOL    HW181192  10.652   3.422   7.903  0.3283  0.6068  0.5629
25354SOL    HW281193  10.740   3.451   7.784  0.5461 -0.4612  0.4618
25355SOL     OW81194   1.848   7.881   3.912 -0.6370  0.0892  0.0372
25355SOL    HW181195   1.772   7.824   3.899 -1.0025  0.6592 -0.3439
25355SOL    HW281196   1.813   7.969   3.903  0.3513  0.3198 -1.6605
25356SOL     OW81197   4.898   3.145   1.923  0.3757 -0.2943 -0.2494
25356SOL    HW181198   4.911   3.118   1.832 -0.2712 -1.4113 -0.0118
25356SOL    HW281199   4.824   3.206   1.919  1.8073  1.4578 -0.7761
25357SOL     OW81200   7.559   7.583   4.535  0.0441  0.5187 -0.7424
25357SOL    HW181201   7.535   7.553   4.623 -1.3790  1.3372 -0.8401
25357SOL    HW281202   7.651   7.605   4.542  0.9091 -2.8383 -0.3768
25358SOL     OW81203   4.965   3.227  10.539 -0.5077  0.1657  0.2012
25358SOL    HW181204   4.955   3.133  10.522  1.4879 -0.0514  0.1193
25358SOL    HW281205   4.895   3.248  10.600 -1.1303 -1.3303  0.0250
25359SOL     OW81206   1.036   2.791   9.913  0.1461 -0.0777  0.3564
25359SOL    HW181207   1.048   2.727   9.983 -0.3194  0.9804  1.4303
25359SOL    HW281208   0.941   2.797   9.903  0.2339 -2.1433 -2.1943
25360SOL     OW81209   3.804   1.118   7.033 -0.1565 -0.2215 -0.2358
25360SOL    HW181210   3.734   1.062   7.068 -0.7900  1.8352  1.8576
25360SOL    HW281211   3.761   1.171   6.966  0.0781 -1.0078 -1.0263
25361SOL     OW81212   7.433  11.230   0.112  0.9065 -0.0744 -0.6189
25361SOL    HW181213   7.440  11.189   0.025 -0.1198 -1.2607 -0.1599
25361SOL    HW281214   7.443  11.157   0.173 -2.4024  0.1081  0.2012
25362SOL     OW81215  11.321   5.378   4.302  0.0166  0.0960  0.6770
25362SOL    HW181216  11.245   5.433   4.317 -0.6789 -1.1191  1.6174
25362SOL    HW281217  11.396   5.434   4.324 -0.5744  1.3203 -0.3496
25363SOL     OW81218   2.083   2.467   8.163 -0.2324 -0.2572  0.5564
25363SOL    HW181219   2.139   2.484   8.087 -1.3669 -2.4276 -0.8138
25363SOL    HW281220   1.997   2.500   8.136 -0.5654 -0.7562  1.0122
25364SOL     OW81221   7.556   2.604   6.015 -0.2380  0.1618 -0.4226
25364SOL    HW181222   7.470   2.647   6.012  0.5796  1.8185 -0.4201
25364SOL    HW281223   7.591   2.628   6.101 -0.2686 -1.4966  0.0624
25365SOL     OW81224  10.027   4.345  10.090  0.1195 -0.5495 -0.4235
25365SOL    HW181225   9.992   4.434  10.101 -1.7502 -1.4597  1.5184
25365SOL    HW281226  10.054   4.341   9.999  0.8252  2.2223 -0.3879
25366SOL     OW81227   8.383  10.939   4.463 -0.4659  0.2871 -0.1346
25366SOL    HW181228   8.417  10.922   4.375 -0.5012 -0.5244  0.0048
25366SOL    HW281229   8.442  11.004   4.500 -0.0708  0.1506 -0.5208
25367SOL     OW81230   9.206   1.981   3.044 -0.4892 -0.2063 -0.1792
25367SOL    HW181231   9.268   1.951   3.110 -0.9348 -0.1292  0.2796
25367SOL    HW281232   9.152   2.046   3.089 -1.5654 -1.0024 -0.2740
25368SOL     OW81233   8.022   0.374   4.459 -0.0925  0.2550  0.1590
25368SOL    HW181234   8.072   0.456   4.468  0.5078 -0.1522  0.5717
25368SOL    HW281235   8.043   0.325   4.538 -1.1476  0.0714  0.3278
25369SOL     OW81236  10.000   8.195   3.009 -0.0269 -0.0455 -0.2637
25369SOL    HW181237  10.005   8.278   2.961  0.3987 -0.7004 -1.3657
25369SOL    HW281238  10.042   8.213   3.093  2.1478  0.2249 -1.3939
25370SOL     OW81239   5.212   2.798   0.860 -0.1794 -0.4740  0.1573
25370SOL    HW181240   5.125   2.817   0.895  0.4970  0.9852  1.1361
25370SOL    HW281241   5.211   2.835   0.772  0.0119  1.1609  0.8198
25371SOL     OW81242   0.926   4.637   3.112 -0.1913 -0.3272 -0.1328
25371SOL    HW181243   0.842   4.673   3.084 -0.5584 -0.9475  0.1615
25371SOL    HW281244   0.968   4.609   3.031  0.0175  0.5931 -0.3444
25372SOL     OW81245   6.309   4.401   2.859 -0.2153 -0.3335  0.4318
25372SOL    HW181246   6.374   4.373   2.924  2.0059  3.2326 -0.0814
25372SOL    HW281247   6.233   4.427   2.910 -0.2627 -2.0297  1.2457
25373SOL     OW81248   2.349   5.242   5.780  0.1835 -0.4062 -0.1416
25373SOL    HW181249   2.343   5.225   5.686 -0.3367  1.4200 -0.4502
25373SOL    HW281250   2.298   5.322   5.794 -0.5306 -1.1667  1.8404
25374SOL     OW81251   1.163  10.378   7.345  0.0411 -0.3622  0.3348
25374SOL    HW181252   1.256  10.384   7.367 -0.3210  0.0509  1.7608
25374SOL    HW281253   1.125  10.459   7.379 -1.0281 -0.9958  0.6590
25375SOL     OW81254   8.772   0.134  11.146  0.2982 -0.1291  0.5832
25375SOL    HW181255   8.808   0.203  11.203 -0.1398  0.8486 -0.2919
25375SOL    HW281256   8.704   0.179  11.095  0.8532 -0.9131 -0.8781
25376SOL     OW81257  10.072   1.417   5.480 -0.1327 -0.0285  0.4980
25376SOL    HW181258  10.117   1.416   5.395  0.7733  1.3182  0.9466
25376SOL    HW281259  10.012   1.342   5.476  2.7108 -2.3853  0.1733
25377SOL     OW81260   9.307   0.144   9.265 -0.1754  0.2623 -0.2855
25377SOL    HW181261   9.262   0.122   9.183  1.1399 -1.0208 -0.6954
25377SOL    HW281262   9.383   0.085   9.267 -0.8254 -0.5576  2.4450
25378SOL     OW81263  10.222   7.976   3.223 -0.0048 -0.1888 -0.0246
25378SOL    HW181264  10.285   7.951   3.155 -0.7585 -2.1867 -0.0258
25378SOL    HW281265  10.208   8.069   3.210  2.0719  0.0397 -0.7597
25379SOL     OW81266  10.631   5.182   0.786  0.0853 -0.1335  0.6046
25379SOL    HW181267  10.585   5.256   0.824 -1.1829 -0.9799  0.7676
25379SOL    HW281268  10.611   5.109   0.845 -0.3406 -1.0407 -0.6337
25380SOL     OW81269   6.618   5.115  10.037 -0.4493 -0.0164 -1.0217
25380SOL    HW181270   6.621   5.210  10.043 -1.1141  0.0107 -1.0748
25380SOL    HW281271   6.577   5.087  10.120  2.3538 -0.4349  0.2888
25381SOL     OW81272   2.285   6.551   8.970  0.2436  0.6820 -0.5762
25381SOL    HW181273   2.290   6.646   8.970 -0.6888  0.7366  0.1935
25381SOL    HW281274   2.232   6.529   9.047  1.2569 -0.5056 -0.2004
25382SOL     OW81275   2.084   7.269   7.465 -0.4392  0.2768 -0.0646
25382SOL    HW181276   2.071   7.174   7.464 -0.7177  0.2898 -3.1543
25382SOL    HW281277   1.997   7.305   7.449 -0.3746  1.0798  1.3273
25383SOL     OW81278   9.967   6.011   0.931 -0.2051  0.3492  0.2847
25383SOL    HW181279   9.935   6.080   0.873 -1.4371  1.1062  1.8568
25383SOL    HW281280   9.903   5.940   0.920  0.7131 -0.3327 -0.8468
25384SOL     OW81281  10.323   2.457   1.011  0.2346 -0.5462 -0.1751
25384SOL    HW181282  10.227   2.456   1.012  0.2273  0.3914  0.6099
25384SOL    HW281283  10.347   2.456   1.103  0.9619  1.1022 -0.3474
25385SOL     OW81284  11.197   1.491   2.519  0.2547  0.2790  0.2931
25385SOL    HW181285  11.233   1.549   2.452 -0.7251 -0.2719 -0.7200
25385SOL    HW281286  11.116   1.534   2.547  0.4047  0.2540  0.7736
25386SOL     OW81287   5.073   6.865  10.522  0.6554  0.2601  0.4466
25386SOL    HW181288   5.095   6.772  10.515  3.7750  0.9722  0.0385
25386SOL    HW281289   5.049   6.877  10.613 -2.6590 -1.4789 -0.1077
25387SOL     OW81290   0.429   0.863   2.148 -0.6072  0.3402  1.1524
25387SOL    HW181291   0.484   0.830   2.077 -0.4406  1.5180  0.7321
25387SOL    HW281292   0.369   0.791   2.166  0.5346 -0.6651  1.0703
25388SOL     OW81293  10.436   2.014   9.625 -0.5127 -0.7703  0.2847
25388SOL    HW181294  10.501   2.018   9.555 -2.4561  0.2297 -1.5165
25388SOL    HW281295  10.434   2.102   9.662 -1.1610 -0.6740  0.0298
25389SOL     OW81296   5.748   2.787   3.065  0.5065 -0.5753 -0.6614
25389SOL    HW181297   5.676   2.803   3.004 -0.0452 -1.3111 -0.2190
25389SOL    HW281298   5.790   2.872   3.076 -0.6680 -0.0004 -0.4663
25390SOL     OW81299   3.468   0.364   0.030  0.4138  0.6118 -0.3536
25390SOL    HW181300   3.563   0.363   0.044  0.7554  2.4665 -2.1461
25390SOL    HW281301   3.458   0.385  -0.063 -1.7564 -1.2822 -0.6052
25391SOL     OW81302   9.404   6.902   6.254 -0.2971 -0.1656 -0.5178
25391SOL    HW181303   9.360   6.858   6.327 -0.9670  1.3847  0.0266
25391SOL    HW281304   9.440   6.830   6.202  0.0302 -1.3045  1.2230
25392SOL     OW81305   5.044   0.988   7.789  0.2563  0.6338  0.1180
25392SOL    HW181306   5.018   1.049   7.858 -0.3923  1.4369 -0.8117
25392SOL    HW281307   4.963   0.968   7.743  0.6563 -0.0318 -0.3098
25393SOL     OW81308   2.781   6.726   3.079 -0.5157  0.0625 -0.1224
25393SOL    HW181309   2.806   6.761   2.994 -0.8345 -0.0792 -0.2772
25393SOL    HW281310   2.791   6.632   3.070 -0.6313  0.0412 -0.0320
25394SOL     OW81311   7.860   1.213   9.774 -0.1305 -0.5467 -0.6239
25394SOL    HW181312   7.791   1.197   9.839 -1.0357 -2.6264 -2.0244
25394SOL    HW281313   7.917   1.136   9.780  2.6061  1.5212  1.0803
25395SOL     OW81314   4.459   7.242   0.410  0.0453  0.3281  0.1096
25395SOL    HW181315   4.454   7.204   0.322  1.2556  0.8976 -0.2092
25395SOL    HW281316   4.385   7.203   0.456 -0.0987 -0.6407 -0.9024
25396SOL     OW81317   7.020   6.684   5.264 -0.7951  0.2119  0.0171
25396SOL    HW181318   6.993   6.596   5.291  1.0502  0.2944  2.3456
25396SOL    HW281319   6.942   6.737   5.278 -1.3730 -0.7164  0.4393
25397SOL     OW81320   6.599   8.468   8.607 -0.3076 -0.0500  0.1073
25397SOL    HW181321   6.618   8.420   8.527  0.0955 -0.2020  0.2920
25397SOL    HW281322   6.638   8.415   8.677  0.6614  0.8426  0.2561
25398SOL     OW81323   7.870   0.019   2.114 -0.0514 -0.4348  0.0105
25398SOL    HW181324   7.800   0.013   2.179  0.0768 -1.1743  0.0905
25398SOL    HW281325   7.829   0.058   2.037 -0.7278 -1.5009 -0.1814
25399SOL     OW81326   1.395   6.789   3.490 -0.1427  0.3612  0.3941
25399SOL    HW181327   1.402   6.723   3.421 -0.3681  0.6425  0.0980
25399SOL    HW281328   1.329   6.755   3.550 -0.3623  0.3794  0.1666
25400SOL     OW81329   6.986   6.747  11.323 -0.0561 -0.1276  0.3574
25400SOL    HW181330   6.936   6.828  11.317 -0.4158 -0.2110  1.9601
25400SOL    HW281331   6.920   6.678  11.333  0.3174 -0.3185  1.6608
25401SOL     OW81332   3.250   4.290   2.619 -0.0468  0.5487  0.1999
25401SOL    HW181333   3.311   4.219   2.601  1.0994  1.1039  1.7263
25401SOL    HW281334   3.169   4.247   2.644 -0.1844 -0.2004 -1.4965
25402SOL     OW81335   4.729   7.914   2.367 -0.6046 -0.5470 -0.1985
25402SOL    HW181336   4.819   7.885   2.357  0.1500  1.8320 -0.8129
25402SOL    HW281337   4.699   7.930   2.277 -1.7234 -1.5508 -0.0113
25403SOL     OW81338   0.730   9.945   7.987  0.4815 -0.2151 -0.2511
25403SOL    HW181339   0.703  10.034   7.965 -0.9676 -0.5372  0.1577
25403SOL    HW281340   0.764   9.909   7.906 -1.8785 -0.3469 -1.2184
25404SOL     OW81341   1.145   0.384   9.511 -0.1114  0.1656  0.2587
25404SOL    HW181342   1.167   0.400   9.419 -1.2094 -1.6974 -0.3590
25404SOL    HW281343   1.183   0.299   9.530  0.0338  0.5099  1.5091
25405SOL     OW81344   2.898   3.474   9.797 -0.0875 -0.6029 -0.6407
25405SOL    HW181345   2.979   3.437   9.833 -1.2128 -4.5407 -1.9209
25405SOL    HW281346   2.926   3.556   9.754  3.1449 -1.6921 -0.7424
25406SOL     OW81347   5.573   4.055   5.384 -0.3302 -0.7719 -0.3371
25406SOL    HW181348   5.668   4.059   5.368 -0.5045 -1.0309 -1.5014
25406SOL    HW281349   5.557   3.965   5.413 -0.0081 -0.2948  1.4053
25407SOL     OW81350   9.329   6.568   8.916 -0.3096 -0.4097 -0.2617
25407SOL    HW181351   9.404   6.528   8.959  0.3602  0.8905 -0.1807
25407SOL    HW281352   9.280   6.610   8.988 -0.3807 -0.1117 -0.4809
25408SOL     OW81353  10.440   9.666   8.517 -0.1290  0.6922  0.2117
25408SOL    HW181354  10.351   9.686   8.486  0.6471  3.7548 -0.2331
25408SOL    HW281355  10.497   9.696   8.446  1.2766 -0.8352  0.6855
25409SOL     OW81356   5.141   3.277  11.010 -0.7231 -0.2960  0.6715
25409SOL    HW181357   5.132   3.286  11.105  1.8941  0.2951  0.9250
25409SOL    HW281358   5.068   3.221  10.984 -1.4409 -0.5369  3.0481
25410SOL     OW81359   2.989  10.727   8.880  0.1893 -0.1905  0.2255
25410SOL    HW181360   2.962  10.676   8.957  1.0337 -1.1850 -0.1319
25410SOL    HW281361   2.991  10.817   8.911  1.3439 -0.6778  1.6167
25411SOL     OW81362   7.686   1.175   4.908  0.0907 -0.1427  0.3549
25411SOL    HW181363   7.667   1.101   4.850  0.6886  1.7008 -2.2250
25411SOL    HW281364   7.752   1.141   4.968 -1.0314 -2.2848  0.4622
25412SOL     OW81365   6.558   6.572   7.021 -0.5253  0.2334 -0.1210
25412SOL    HW181366   6.502   6.585   7.097 -1.8268  1.3225 -1.2390
25412SOL    HW281367   6.501   6.530   6.956  0.9655 -2.0679  0.0003
25413SOL     OW81368   7.965   8.460   8.194  0.4880 -0.6093 -0.3224
25413SOL    HW181369   7.907   8.511   8.250  0.2124 -1.5506  0.2717
25413SOL    HW281370   7.915   8.444   8.115 -0.4348 -2.2240  0.5654
25414SOL     OW81371   0.447  11.140   3.931 -0.4108  0.0047  0.0359
25414SOL    HW181372   0.419  11.139   4.022 -1.7240  1.9567 -0.3196
25414SOL    HW281373   0.369  11.165   3.882  0.4736 -0.2631 -1.5695
25415SOL     OW81374   5.167   0.535   6.161 -0.2150 -0.1916  0.3188
25415SOL    HW181375   5.138   0.595   6.091 -1.5287  0.1638  1.1575
25415SOL    HW281376   5.134   0.449   6.134 -0.2359 -0.1536  0.2207
25416SOL     OW81377   8.230   7.386   9.274 -0.2416  0.0738 -0.3158
25416SOL    HW181378   8.279   7.441   9.336  0.9113 -0.9426 -0.3130
25416SOL    HW281379   8.296   7.355   9.212 -0.9120 -1.1543 -0.4344
25417SOL     OW81380   2.360  10.814   7.832  0.0892 -0.3431 -0.3584
25417SOL    HW181381   2.416  10.875   7.784  0.6244 -1.2215 -0.8518
25417SOL    HW281382   2.415  10.737   7.847 -0.0995 -0.1164  1.5893
25418SOL     OW81383  11.134   1.426   7.780  0.0991 -0.1003  0.2876
25418SOL    HW181384  11.127   1.331   7.769 -0.0699 -0.1929  1.1602
25418SOL    HW281385  11.205   1.451   7.721 -1.5152 -0.3998 -1.8650
25419SOL     OW81386  11.008  10.592   1.150  0.0390 -0.8308 -0.0950
25419SOL    HW181387  11.055  10.604   1.068 -0.7162 -0.3334 -0.4672
25419SOL    HW281388  10.982  10.500   1.150  1.7920 -1.3466  0.5491
25420SOL     OW81389   0.713   5.980   4.404  0.3585  0.2979  0.3513
25420SOL    HW181390   0.730   5.891   4.434  0.9338  0.5287  0.7074
25420SOL    HW281391   0.646   5.970   4.336  0.6272 -0.4304  0.1903
25421SOL     OW81392   6.109  10.150   8.308 -0.1358  0.6972 -0.3402
25421SOL    HW181393   6.158  10.159   8.226 -0.7739  1.8152 -0.6026
25421SOL    HW281394   6.162  10.090   8.361 -0.4610 -1.2395 -2.1503
25422SOL     OW81395   0.200   5.211   1.667  0.3521  0.1263  0.3204
25422SOL    HW181396   0.125   5.250   1.624  0.3986  0.2365  0.3396
25422SOL    HW281397   0.193   5.118   1.648  0.4506  0.1945 -0.0472
25423SOL     OW81398   2.731   1.585   7.770  0.2020 -0.1999  0.3197
25423SOL    HW181399   2.679   1.656   7.808 -1.2155  0.8513 -3.3092
25423SOL    HW281400   2.688   1.505   7.801 -1.7591  0.6312 -0.1540
25424SOL     OW81401   4.016   7.100   1.809 -0.2066  0.3352 -0.6578
25424SOL    HW181402   4.100   7.083   1.850  1.2564  1.0310 -3.2131
25424SOL    HW281403   4.021   7.192   1.781 -3.2034  1.4621  2.2279
25425SOL     OW81404   4.071  10.478   8.965  0.0748  0.4853 -0.0207
25425SOL    HW181405   4.129  10.465   8.891 -0.0879  2.1003 -0.4332
25425SOL    HW281406   3.983  10.464   8.930  0.0034  1.1652 -0.1130
25426SOL     OW81407   4.004   8.359   0.733  0.0646 -0.2224 -0.1194
25426SOL    HW181408   3.971   8.367   0.643  1.9031  0.8692 -0.7260
25426SOL    HW281409   3.940   8.406   0.786 -0.9715 -0.7538 -0.8771
25427SOL     OW81410   4.451   6.148   8.393  0.3661  0.2860 -0.6992
25427SOL    HW181411   4.537   6.143   8.351  0.6659  0.3190 -0.0948
25427SOL    HW281412   4.418   6.058   8.392  0.1478  0.3703 -1.4643
25428SOL     OW81413   2.223   9.311   2.610 -0.0843  0.5881  0.3520
25428SOL    HW181414   2.214   9.225   2.569  2.2441  0.1893  0.6517
25428SOL    HW281415   2.272   9.295   2.690 -2.0200  1.8121  1.8249
25429SOL     OW81416   2.827   9.273   9.486 -0.1796  0.1944 -0.0269
25429SOL    HW181417   2.833   9.204   9.553 -0.9380  1.2239  1.1314
25429SOL    HW281418   2.761   9.334   9.520 -3.1252 -0.9762 -3.3401
25430SOL     OW81419   2.636   8.517   5.098  0.4536 -0.1647 -0.3413
25430SOL    HW181420   2.719   8.530   5.053 -0.3591 -0.1698 -1.8609
25430SOL    HW281421   2.606   8.605   5.121  0.9094 -0.1675  0.2678
25431SOL     OW81422   4.159   2.793   3.968  0.8359  0.6527  0.0416
25431SOL    HW181423   4.103   2.799   3.890  0.4828 -2.1169  0.0359
25431SOL    HW281424   4.248   2.786   3.933  0.9403  2.0537 -0.0169
25432SOL     OW81425   9.558   1.528   7.470 -0.3712  0.3378 -0.6175
25432SOL    HW181426   9.537   1.509   7.379 -1.9662  1.9148 -0.6133
25432SOL    HW281427   9.486   1.489   7.520 -0.5426  1.1700 -0.2017
25433SOL     OW81428   1.135   3.006   0.771 -0.1604 -0.1934 -0.3268
25433SOL    HW181429   1.105   3.002   0.862 -1.0000  0.1929 -0.5862
25433SOL    HW281430   1.173   3.094   0.762  1.1768 -0.7186  0.0331
25434SOL     OW81431   1.617   7.685   5.665  0.4228 -0.3159  0.5886
25434SOL    HW181432   1.658   7.621   5.722 -0.5033 -0.9911  0.4938
25434SOL    HW281433   1.604   7.639   5.582 -1.0881 -0.2917  0.8110
25435SOL     OW81434   8.119  11.083   1.488 -0.5163  0.4456  0.2285
25435SOL    HW181435   8.158  10.995   1.478  2.1193  1.5339  0.4217
25435SOL    HW281436   8.082  11.102   1.402 -1.2842 -0.9356  0.2372
25436SOL     OW81437   9.515   2.053   5.976  0.5158  0.2957  0.1366
25436SOL    HW181438   9.564   2.111   5.918  0.1049  0.6955  0.1794
25436SOL    HW281439   9.581   1.998   6.018  0.8813  0.5234 -0.1406
25437SOL     OW81440   9.043   6.219   4.644 -0.1712  0.0847  0.7274
25437SOL    HW181441   9.113   6.222   4.578  0.0010  2.1226  0.9494
25437SOL    HW281442   9.032   6.311   4.670 -1.5703 -0.4684  2.1328
25438SOL     OW81443   0.013   6.090   1.849 -0.4511 -0.3804  0.0266
25438SOL    HW181444   0.058   6.167   1.883 -0.5466  0.1294 -0.9723
25438SOL    HW281445   0.013   6.027   1.922  0.9951 -0.0191  0.3535
25439SOL     OW81446   1.620   1.974   0.626  0.2421  0.4379  0.0863
25439SOL    HW181447   1.530   1.956   0.653  0.3582 -0.9703 -0.4300
25439SOL    HW281448   1.628   1.931   0.541  2.0521 -1.2745  1.1005
25440SOL     OW81449   3.449  11.115   2.231 -0.4978  0.5295  0.0456
25440SOL    HW181450   3.397  11.143   2.307 -1.2559 -0.2125 -0.1981
25440SOL    HW281451   3.426  11.176   2.162 -1.1347  0.1287 -0.0959
25441SOL     OW81452   8.127   7.505   8.540 -0.6170  0.1849 -0.1081
25441SOL    HW181453   8.184   7.429   8.530  1.3005  1.5200  0.3932
25441SOL    HW281454   8.183   7.571   8.581 -1.9340  2.2489 -1.5757
25442SOL     OW81455   7.068   5.775   0.584  0.5613  0.0102 -0.1210
25442SOL    HW181456   7.017   5.748   0.508 -1.6696 -0.3202  1.4293
25442SOL    HW281457   7.098   5.693   0.623  1.1630  0.1446 -0.3056
25443SOL     OW81458  10.517   6.569   3.094  0.4556 -0.5981 -0.0548
25443SOL    HW181459  10.436   6.531   3.061  0.4793 -0.5130 -0.2118
25443SOL    HW281460  10.488   6.644   3.146  0.3521 -1.3671  1.0068
25444SOL     OW81461   6.351   8.976   1.266  0.3201  0.0258  0.3230
25444SOL    HW181462   6.327   8.983   1.359 -1.6951  1.1171 -0.2481
25444SOL    HW281463   6.409   8.901   1.262  0.0832 -0.3041  2.4152
25445SOL     OW81464   1.096   6.460   1.439  0.1211 -0.6215  0.2670
25445SOL    HW181465   1.089   6.377   1.487 -0.6179 -0.5449  0.2946
25445SOL    HW281466   1.167   6.507   1.482 -1.3876  0.0049  2.1209
25446SOL     OW81467   2.792   5.389   5.343  0.1761 -0.7014 -0.1305
25446SOL    HW181468   2.750   5.455   5.399  0.6381  1.4274 -2.2078
25446SOL    HW281469   2.841   5.334   5.404  1.0791  1.8527  1.5391
25447SOL     OW81470   1.502  11.057   3.601 -0.0367 -0.2438 -0.2323
25447SOL    HW181471   1.530  10.987   3.541 -0.2171 -1.2694  0.8608
25447SOL    HW281472   1.530  11.027   3.688 -0.4727  0.8603  0.3015
25448SOL     OW81473   4.141   8.302   2.419  0.1347 -0.0007 -0.0720
25448SOL    HW181474   4.111   8.211   2.415 -0.1210 -0.0737  2.7368
25448SOL    HW281475   4.221   8.299   2.470  0.1356  1.3607  0.0350
25449SOL     OW81476  10.145   3.218   5.844  0.4395 -0.0199  0.0085
25449SOL    HW181477  10.137   3.313   5.858 -1.5324 -0.3233  1.1321
25449SOL    HW281478  10.233   3.207   5.807 -0.2992  2.5117 -2.7224
25450SOL     OW81479   9.026   2.254   1.496 -0.5489 -0.0440 -0.3504
25450SOL    HW181480   8.981   2.338   1.494 -0.7063 -0.0673  1.2075
25450SOL    HW281481   9.012   2.221   1.585  0.7861 -1.0066 -0.4688
25451SOL     OW81482   7.321   6.729   5.070  0.2258 -0.4982  0.5398
25451SOL    HW181483   7.228   6.706   5.082 -0.1579  0.6836 -0.1427
25451SOL    HW281484   7.341   6.786   5.144  0.4972 -0.9700  0.8377
25452SOL     OW81485   6.524   0.085   2.856 -0.1694  0.6020 -0.4172
25452SOL    HW181486   6.607   0.103   2.900 -0.3251  0.2471  0.0204
25452SOL    HW281487   6.475   0.167   2.863 -0.0741  0.6401 -0.1993
25453SOL     OW81488   4.214   0.110   5.932  0.2094 -0.1234 -0.6747
25453SOL    HW181489   4.258   0.032   5.899  1.2932 -0.3562  1.2583
25453SOL    HW281490   4.285   0.170   5.955 -0.5201  0.3499  0.3990
25454SOL     OW81491   7.606   1.513   3.108 -0.1760  0.2459 -0.0560
25454SOL    HW181492   7.701   1.521   3.096 -0.1065  2.8584  1.8103
25454SOL    HW281493   7.589   1.419   3.103  2.3967 -0.1926 -1.1939
25455SOL     OW81494   8.503   2.552   5.691 -0.4670 -0.8766 -0.9273
25455SOL    HW181495   8.542   2.590   5.770 -0.4916  0.2121 -1.4359
25455SOL    HW281496   8.433   2.496   5.724  0.0138 -1.0188 -0.1320
25456SOL     OW81497   7.513   7.831  10.737  0.0343 -0.2461  0.3527
25456SOL    HW181498   7.452   7.841  10.664 -0.6849 -1.6455  0.7569
25456SOL    HW281499   7.469   7.874  10.811  0.4517  0.5467  0.1453
25457SOL     OW81500  11.002   9.155   3.870 -0.2984  0.5139 -0.2941
25457SOL    HW181501  10.933   9.153   3.803 -1.3940  0.3066  0.8397
25457SOL    HW281502  11.025   9.063   3.883 -0.8265  0.4722  0.3704
25458SOL     OW81503  10.770   2.715   1.476 -0.4647 -0.2051 -0.1355
25458SOL    HW181504  10.734   2.691   1.390 -1.4948  0.5084  0.0866
25458SOL    HW281505  10.781   2.810   1.472  0.8947 -0.3496  0.0013
25459SOL     OW81506   3.648   8.098   0.247 -0.1337  0.2427 -0.1456
25459SOL    HW181507   3.736   8.084   0.212  0.1696 -1.5136  1.2553
25459SOL    HW281508   3.590   8.079   0.173  0.6727  3.0542 -1.5617
25460SOL     OW81509   6.798   7.989   4.291 -0.4678  0.0378  0.3332
25460SOL    HW181510   6.886   7.953   4.283 -1.2792 -2.2720  1.3854
25460SOL    HW281511   6.811   8.081   4.313  1.6754 -0.5125  1.4120
25461SOL     OW81512   0.037   4.804  10.636 -0.1766  0.1623  0.2818
25461SOL    HW181513   0.033   4.755  10.719  1.6157 -0.6444 -0.0923
25461SOL    HW281514   0.098   4.755  10.582 -0.3635  1.3902 -1.0741
25462SOL     OW81515   0.062   1.421   9.456 -0.1968 -0.0467  0.0822
25462SOL    HW181516   0.073   1.371   9.537 -1.1577 -0.0243  0.2254
25462SOL    HW281517   0.143   1.471   9.448 -0.5508  0.7924  1.5987
25463SOL     OW81518   5.668   7.601   2.012  0.3196  0.1180  0.4069
25463SOL    HW181519   5.614   7.648   1.949  0.4762  0.0518  0.2212
25463SOL    HW281520   5.756   7.604   1.975  0.4566  0.2977  0.7503
25464SOL     OW81521   2.466   8.354   0.615  0.2630 -0.0308 -0.0924
25464SOL    HW181522   2.464   8.442   0.579 -1.4136 -0.2634 -0.5994
25464SOL    HW281523   2.545   8.352   0.670  1.8198  0.8976 -2.2313
25465SOL     OW81524   7.101   6.270  10.149 -0.4855 -0.6130  0.0960
25465SOL    HW181525   7.165   6.326  10.107 -0.9222  0.1135  0.3895
25465SOL    HW281526   7.103   6.296  10.241 -0.8732 -0.8960  0.1862
25466SOL     OW81527   8.518   9.741   4.364  0.0382 -0.2066  0.0448
25466SOL    HW181528   8.465   9.669   4.398  0.4451 -1.5507 -1.9993
25466SOL    HW281529   8.608   9.712   4.378  0.2203 -1.0904 -2.6313
25467SOL     OW81530   1.254   4.910   3.713 -0.2171 -0.0998 -0.1110
25467SOL    HW181531   1.286   4.827   3.750  0.1358  0.7262  1.4993
25467SOL    HW281532   1.247   4.893   3.619  1.8409 -1.3307 -0.0811
25468SOL     OW81533  10.110   6.733   1.873  0.0284  0.0610  0.1864
25468SOL    HW181534  10.114   6.741   1.778  0.0354 -1.2788  0.0708
25468SOL    HW281535  10.117   6.639   1.890 -0.1387  0.2758  1.5020
25469SOL     OW81536   7.090   6.396   1.852  0.2926  0.9155  0.2471
25469SOL    HW181537   7.150   6.454   1.804  2.5153  0.6050  2.5556
25469SOL    HW281538   7.044   6.453   1.913  0.4472  0.6829  0.5832
25470SOL     OW81539   0.257   2.728   5.220 -0.1222  0.3479 -0.2400
25470SOL    HW181540   0.273   2.641   5.255 -0.0106  0.2595 -0.5067
25470SOL    HW281541   0.179   2.759   5.266  0.5776  0.6156  0.7680
25471SOL     OW81542   6.263   1.035   3.703  0.3933 -0.6554  0.1889
25471SOL    HW181543   6.338   1.016   3.760  0.0468 -2.6270  0.0226
25471SOL    HW281544   6.188   1.000   3.750 -0.0558 -1.1919 -0.9048
25472SOL     OW81545   9.150   8.226   3.829  0.5028  0.2514 -0.2924
25472SOL    HW181546   9.213   8.197   3.763  0.6336 -2.5183  0.9583
25472SOL    HW281547   9.197   8.220   3.912 -1.0052 -0.7025  0.5271
25473SOL     OW81548  10.666   2.015   3.529 -0.2391  0.2377  0.3753
25473SOL    HW181549  10.756   2.025   3.561 -0.3375 -0.7767  0.9736
25473SOL    HW281550  10.637   2.105   3.511  0.9544  0.5582  0.0083
25474SOL     OW81551   8.081  10.185   8.252  0.4829  0.3433  0.1056
25474SOL    HW181552   8.111  10.101   8.216 -0.8961  0.6836 -1.9294
25474SOL    HW281553   8.119  10.250   8.193 -2.1659  0.8934 -1.0891
25475SOL     OW81554  10.154   5.729   8.225  0.2521  0.2474  0.4658
25475SOL    HW181555  10.069   5.728   8.268 -1.1011  0.5710 -2.1572
25475SOL    HW281556  10.194   5.645   8.249 -0.8106  0.0709  1.6490
25476SOL     OW81557   0.198   4.287   3.375 -0.0367 -0.1233  0.1266
25476SOL    HW181558   0.230   4.219   3.434 -2.1627 -1.0757  0.2055
25476SOL    HW281559   0.191   4.365   3.429  1.6188 -0.0144  0.2242
25477SOL     OW81560   4.618   1.799   5.474 -0.1815 -0.5265  0.3475
25477SOL    HW181561   4.527   1.799   5.445  0.1281 -0.6670 -0.6114
25477SOL    HW281562   4.662   1.864   5.418  0.4896 -1.0691  0.2414
25478SOL     OW81563   3.796   8.150   3.935  0.1597  0.0889  0.2119
25478SOL    HW181564   3.775   8.075   3.880 -0.7943  1.0800 -0.8078
25478SOL    HW281565   3.765   8.226   3.886 -1.7304  0.9314  2.6027
25479SOL     OW81566   3.774   2.054   5.636  0.3140  0.3812  0.4499
25479SOL    HW181567   3.865   2.031   5.616  0.5067  0.2512  1.4459
25479SOL    HW281568   3.782   2.132   5.691 -0.2355  1.2131 -0.6196
25480SOL     OW81569   4.200   7.966   1.452 -0.1699 -0.1418 -0.3451
25480SOL    HW181570   4.175   8.021   1.378 -0.7355  0.4229  0.2496
25480SOL    HW281571   4.157   8.008   1.528  0.7561 -0.4524  0.3598
25481SOL     OW81572   9.379   4.063   4.536 -0.3000 -0.3427 -0.4761
25481SOL    HW181573   9.441   4.049   4.607 -0.6415 -0.7127 -0.2440
25481SOL    HW281574   9.329   4.140   4.562  0.5672  0.4125 -1.0301
25482SOL     OW81575   7.153   4.019   9.825 -0.3166  0.7875  0.0325
25482SOL    HW181576   7.139   4.016   9.730 -0.0182  0.6293 -0.0041
25482SOL    HW281577   7.065   4.023   9.862 -0.5085 -1.2056 -0.1616
25483SOL     OW81578   2.996   1.834   5.968  0.3474  0.3494 -0.3619
25483SOL    HW181579   3.033   1.868   6.049  0.7083 -0.9478  0.0336
25483SOL    HW281580   2.920   1.890   5.950 -2.0023 -1.6560  2.9075
25484SOL     OW81581   0.191   8.987   4.034 -0.4607 -0.2208 -0.4493
25484SOL    HW181582   0.252   9.010   3.964 -1.7644 -1.1864 -1.9130
25484SOL    HW281583   0.124   8.933   3.992 -2.9197  1.6632  0.9255
25485SOL     OW81584   6.725   2.984   7.354 -0.1654 -0.8210 -0.3529
25485SOL    HW181585   6.654   2.923   7.371 -2.3561  0.3026 -4.6414
25485SOL    HW281586   6.783   2.937   7.294 -0.0137  0.0099 -0.8661
25486SOL     OW81587   3.760  10.093   1.419  0.4902  0.1574  0.3656
25486SOL    HW181588   3.687  10.155   1.415 -0.0101 -0.2775  2.0033
25486SOL    HW281589   3.774  10.067   1.329 -0.8444  0.8953 -0.0784
25487SOL     OW81590  10.830  10.116   4.628  0.1261  0.1370 -0.0977
25487SOL    HW181591  10.759  10.153   4.679 -0.0882 -1.5104  0.8305
25487SOL    HW281592  10.800  10.028   4.605  2.2378 -0.9344  1.1131
25488SOL     OW81593   6.542  10.888   8.948 -0.8860 -0.2046 -0.4989
25488SOL    HW181594   6.626  10.877   8.905  0.0485 -0.6522  1.4226
25488SOL    HW281595   6.530  10.983   8.952  0.4675 -0.0797  0.9940
25489SOL     OW81596   3.032   4.916   3.732  0.2517 -0.4989 -0.3892
25489SOL    HW181597   2.940   4.890   3.742 -0.0637  1.0082  1.0033
25489SOL    HW281598   3.068   4.912   3.821  1.1054  0.3727 -0.6838
25490SOL     OW81599  10.998   8.164   5.550 -0.7656 -0.5462  0.2299
25490SOL    HW181600  11.002   8.176   5.455  1.0280  0.2659  0.4039
25490SOL    HW281601  11.020   8.072   5.563  1.6762 -0.0031  0.0393
25491SOL     OW81602   0.253   2.208   0.893  0.0832 -0.4775 -0.2411
25491SOL    HW181603   0.217   2.295   0.909  0.8861 -0.3245  0.7540
25491SOL    HW281604   0.177   2.154   0.870 -0.5123  0.3079 -0.1226
25492SOL     OW81605   4.900   1.260  10.523 -0.8055 -0.0226  0.3618
25492SOL    HW181606   4.928   1.348  10.548 -1.1963  0.5120 -1.0466
25492SOL    HW281607   4.824   1.273  10.467 -0.9907 -1.2699  0.2963
25493SOL     OW81608   5.545   1.105  10.824  0.9479  0.6684 -0.1513
25493SOL    HW181609   5.615   1.170  10.825  1.7403 -0.1626  2.6729
25493SOL    HW281610   5.588   1.023  10.851 -0.7681 -0.2130 -0.0369
25494SOL     OW81611   1.194   5.811   1.554  0.1708 -0.1630  0.1600
25494SOL    HW181612   1.195   5.907   1.549 -0.2538 -0.0626  1.7678
25494SOL    HW281613   1.199   5.792   1.647  1.5196 -1.7365 -0.2089
25495SOL     OW81614   5.829   1.432   0.911 -0.3931 -0.6385  0.4492
25495SOL    HW181615   5.846   1.484   0.832  0.6462 -0.1296  0.9901
25495SOL    HW281616   5.774   1.360   0.881 -2.5043  1.1705 -0.1989
25496SOL     OW81617   3.153   3.012   7.346 -0.3698  0.5915  0.4617
25496SOL    HW181618   3.242   3.041   7.367 -0.6907  1.5717  0.5108
25496SOL    HW281619   3.105   3.019   7.429 -0.9356  1.7949  0.0530
25497SOL     OW81620   2.340   9.250   2.321  0.0221 -0.4351 -0.1752
25497SOL    HW181621   2.307   9.185   2.383 -0.2051  0.3282  0.5087
25497SOL    HW281622   2.393   9.309   2.373 -0.3491  0.3431 -0.6628
25498SOL     OW81623   8.533  11.149   9.188  0.4334 -0.1534  0.2615
25498SOL    HW181624   8.600  11.164   9.121  1.1463 -1.9193  0.5358
25498SOL    HW281625   8.453  11.131   9.138  0.8251 -0.8833 -0.1041
25499SOL     OW81626   4.248   1.623   3.312 -0.1810 -0.3572 -0.2980
25499SOL    HW181627   4.251   1.540   3.265 -0.1076 -0.8771  0.6320
25499SOL    HW281628   4.335   1.632   3.350 -0.4818 -0.2962  0.3751
25500SOL     OW81629   9.265   2.252   0.750 -0.3502 -0.1941  0.3028
25500SOL    HW181630   9.265   2.212   0.837 -0.1215 -1.2101 -0.1616
25500SOL    HW281631   9.279   2.345   0.767 -0.3188 -0.3804  1.3553
25501SOL     OW81632   7.567   0.067   8.313  0.2892  0.3438 -0.4264
25501SOL    HW181633   7.532   0.144   8.358  0.6373  1.3421 -1.8262
25501SOL    HW281634   7.592   0.008   8.384 -1.1623  0.9732  0.6507
25502SOL     OW81635   1.756   3.439   1.078  0.5256 -0.0989 -0.3515
25502SOL    HW181636   1.698   3.454   1.153  0.1958 -0.4002 -0.5402
25502SOL    HW281637   1.698   3.405   1.010  0.9256 -0.4110 -0.5417
25503SOL     OW81638   7.937   0.222   3.117 -0.4669 -0.5085  0.0220
25503SOL    HW181639   7.974   0.206   3.204 -0.2367 -0.3619 -0.0491
25503SOL    HW281640   7.994   0.289   3.078 -1.7007  0.8523  0.4994
25504SOL     OW81641   9.891   6.259  10.276 -0.2041 -0.6177 -1.1844
25504SOL    HW181642   9.881   6.320  10.203  2.1697 -0.1226 -1.1166
25504SOL    HW281643   9.954   6.194  10.245  0.3324 -0.7646  0.1942
25505SOL     OW81644   1.737   8.307   1.961 -0.4818  0.5613 -0.1769
25505SOL    HW181645   1.818   8.336   2.002 -0.0429 -1.6809  0.6641
25505SOL    HW281646   1.737   8.347   1.874  0.5044  2.2311  0.5833
25506SOL     OW81647   9.100   1.796   6.400  0.3309  0.4690  0.0955
25506SOL    HW181648   9.025   1.737   6.393 -1.2547  2.6037 -1.3549
25506SOL    HW281649   9.164   1.761   6.338 -0.6266  0.2851 -0.8112
25507SOL     OW81650  10.952   1.958   8.279 -0.6202  0.4389  0.1870
25507SOL    HW181651  10.883   1.893   8.296 -1.4679  0.7224 -1.9720
25507SOL    HW281652  11.021   1.936   8.341 -1.2848 -1.9389  0.1626
25508SOL     OW81653  10.926   2.419   8.243  0.3059  0.1598  0.1315
25508SOL    HW181654  11.012   2.460   8.236 -0.1492  0.9412 -0.9995
25508SOL    HW281655  10.923   2.359   8.168 -0.6567  1.1407 -0.6308
25509SOL     OW81656   0.976   9.871   6.548  0.3097 -0.2830 -0.0416
25509SOL    HW181657   1.037   9.798   6.559 -1.5055 -1.7479  0.5299
25509SOL    HW281658   0.908   9.836   6.490 -0.6674  0.8868  0.3885
25510SOL     OW81659   9.412   6.920  10.346 -0.0963  0.0382  0.1463
25510SOL    HW181660   9.436   6.971  10.423 -0.8975  0.0064  0.4205
25510SOL    HW281661   9.322   6.947  10.327  0.1072  0.0749 -0.7987
25511SOL     OW81662  11.217   5.625  11.226 -0.2112 -0.3598 -0.2152
25511SOL    HW181663  11.232   5.631  11.132 -0.1911 -0.1131 -0.1965
25511SOL    HW281664  11.160   5.699  11.246 -1.3864 -1.2364 -0.2706
25512SOL     OW81665   4.563   3.164   0.997  0.2177 -0.8389  0.1889
25512SOL    HW181666   4.513   3.085   1.016  0.4480 -1.5038 -1.8244
25512SOL    HW281667   4.651   3.145   1.027 -0.2206 -0.5030  1.7188
25513SOL     OW81668   8.187   5.802   7.431  0.8502 -0.0989  0.0962
25513SOL    HW181669   8.239   5.829   7.355  0.7589 -0.8930 -0.2498
25513SOL    HW281670   8.111   5.758   7.393 -1.1505  2.8363  0.5052
25514SOL     OW81671   2.794   4.188   5.453  0.3278 -0.3158  0.4878
25514SOL    HW181672   2.844   4.254   5.404  0.0644 -0.2477  0.3107
25514SOL    HW281673   2.737   4.239   5.510  0.9647 -0.3949  1.2062
25515SOL     OW81674   6.036   1.446   5.215  0.6156 -0.0194 -0.3556
25515SOL    HW181675   6.064   1.537   5.226  0.3138  0.0131  0.1700
25515SOL    HW281676   5.943   1.447   5.235  0.3026 -0.1950 -1.7862
25516SOL     OW81677   7.615   1.108   0.716  0.4251  0.2757 -0.3281
25516SOL    HW181678   7.548   1.175   0.703 -0.0785 -0.4381 -1.5542
25516SOL    HW281679   7.590   1.066   0.799 -0.7535 -0.0895 -0.8520
25517SOL     OW81680   8.183  10.584  10.748  0.7155  0.5539  0.3928
25517SOL    HW181681   8.117  10.603  10.681  0.5951 -0.4359  0.2182
25517SOL    HW281682   8.263  10.567  10.699  0.4055 -1.0905  0.4414
25518SOL     OW81683   9.903   6.174   3.411  0.8158  1.0930 -0.2426
25518SOL    HW181684   9.826   6.206   3.459  0.2662 -1.4687  0.6906
25518SOL    HW281685   9.875   6.173   3.320 -0.5711 -0.6008  0.1796
25519SOL     OW81686   1.734   5.031   9.255  0.1331  0.0068 -0.6230
25519SOL    HW181687   1.806   5.089   9.279 -0.7997  1.4536 -1.2802
25519SOL    HW281688   1.775   4.945   9.244  1.3390  0.2770  1.5110
25520SOL     OW81689   7.293   1.158   6.561  0.0881 -0.1335 -0.0555
25520SOL    HW181690   7.338   1.076   6.581 -0.0508 -0.6056 -1.5646
25520SOL    HW281691   7.363   1.223   6.554  0.5412 -0.7791 -1.9669
25521SOL     OW81692   7.445   6.353   3.927 -0.1090  0.1323  0.2807
25521SOL    HW181693   7.351   6.359   3.944 -0.1996  1.9919 -0.7601
25521SOL    HW281694   7.458   6.402   3.846  2.0447  1.7008  1.5097
25522SOL     OW81695  10.268  10.958   9.031  0.4326 -0.4382 -0.5511
25522SOL    HW181696  10.330  11.018   8.989  1.4130 -2.0257 -1.3983
25522SOL    HW281697  10.278  10.975   9.125 -1.3553  2.7199 -0.8505
25523SOL     OW81698   2.579   7.476   0.462  0.1982 -0.1933  0.2385
25523SOL    HW181699   2.627   7.399   0.492  0.2878 -0.0513  0.4635
25523SOL    HW281700   2.550   7.454   0.374  1.6212  0.1592 -0.3277
25524SOL     OW81701   7.956   9.192  10.381 -0.1995  0.4238  0.2826
25524SOL    HW181702   7.956   9.151  10.295 -1.1627 -0.3933  0.6664
25524SOL    HW281703   8.014   9.137  10.434  0.0653  0.6894  0.2694
25525SOL     OW81704   6.003   6.202   7.541  0.1542 -0.4012 -0.1584
25525SOL    HW181705   5.991   6.208   7.446 -0.1040 -1.9873 -0.2361
25525SOL    HW281706   5.917   6.176   7.574  0.2928 -0.0407  0.4958
25526SOL     OW81707   8.339  10.597   1.628  0.1828 -0.3696 -0.1831
25526SOL    HW181708   8.276  10.533   1.596  0.3786 -0.3308 -0.6494
25526SOL    HW281709   8.291  10.680   1.628 -0.4271 -0.7165  1.5334
25527SOL     OW81710   2.088  10.708   5.545 -0.3411  0.1745 -0.7339
25527SOL    HW181711   2.124  10.641   5.487 -1.5343 -2.1709  1.1157
25527SOL    HW281712   2.156  10.776   5.550  1.6724 -1.7528 -1.2497
25528SOL     OW81713   5.271   0.584   7.559 -0.4105 -0.5420  0.2080
25528SOL    HW181714   5.310   0.499   7.535  2.3657  0.3770  1.2367
25528SOL    HW281715   5.212   0.564   7.631  1.6879 -1.3955  1.7569
25529SOL     OW81716   8.419   6.426   5.554  0.4348  0.1698  0.2814
25529SOL    HW181717   8.368   6.352   5.587  1.0694 -0.2208  0.3941
25529SOL    HW281718   8.438   6.478   5.633 -1.8573  1.6201 -0.0878
25530SOL     OW81719   8.499   0.646   5.795  0.4890 -0.2527 -0.4160
25530SOL    HW181720   8.416   0.625   5.753  0.4662 -0.4539 -0.2708
25530SOL    HW281721   8.539   0.562   5.815  0.7376 -0.1560 -0.5060
25531SOL     OW81722   3.361   7.785  10.846 -0.8013  0.3035  0.1917
25531SOL    HW181723   3.396   7.746  10.926 -1.3199  0.9730  0.7618
25531SOL    HW281724   3.357   7.879  10.866  0.9174  0.7336 -1.3303
25532SOL     OW81725   9.755  10.064   4.376  0.1300  0.3191 -0.4208
25532SOL    HW181726   9.748   9.968   4.372 -1.8886  0.4656 -0.9490
25532SOL    HW281727   9.845  10.082   4.348  0.5302 -1.4166 -0.3533
25533SOL     OW81728   4.088   7.097  11.277 -0.2462 -0.6041  0.1509
25533SOL    HW181729   4.146   7.093  11.353  1.6651  0.0683 -1.2236
25533SOL    HW281730   4.099   7.012  11.234  0.7054 -0.0303 -0.7810
25534SOL     OW81731   6.037   9.161   0.089  0.1638 -0.1344  0.3756
25534SOL    HW181732   6.102   9.107   0.134 -1.4473 -1.3447  1.3217
25534SOL    HW281733   5.982   9.196   0.159  0.6156  1.9957 -0.3036
25535SOL     OW81734   2.994   6.602   3.757  0.1260 -0.8523  0.0789
25535SOL    HW181735   3.068   6.663   3.762  0.4926 -1.2643 -0.2536
25535SOL    HW281736   3.019   6.529   3.815  0.5132 -1.5485 -0.9543
25536SOL     OW81737   5.224   1.153   4.912  0.8415 -0.0176  0.2196
25536SOL    HW181738   5.293   1.208   4.950  0.9840 -1.2551  1.8195
25536SOL    HW281739   5.252   1.137   4.822  1.7984  0.8764  0.3507
25537SOL     OW81740   3.973   3.280   4.689  0.2627 -0.0339  0.1851
25537SOL    HW181741   3.931   3.272   4.604 -0.9462 -1.1037  0.8743
25537SOL    HW281742   4.021   3.363   4.684 -0.6943  0.4528 -1.1408
25538SOL     OW81743   3.666   1.911   0.724 -0.6158  0.2526  0.0481
25538SOL    HW181744   3.598   1.929   0.659 -1.5829  0.4237  1.0988
25538SOL    HW281745   3.729   1.983   0.713  0.4930 -1.0054 -2.3291
25539SOL     OW81746  11.031  10.336   0.988  0.4289  0.1958  0.0607
25539SOL    HW181747  10.953  10.311   1.037  0.3024  1.7939  0.6858
25539SOL    HW281748  11.056  10.256   0.941 -0.8004 -0.6956  0.8922
25540SOL     OW81749   8.871   6.012   9.634 -0.1848 -0.2661  0.6132
25540SOL    HW181750   8.859   6.085   9.572 -0.5757 -0.6357  0.2491
25540SOL    HW281751   8.786   6.001   9.674 -0.0497 -0.3376  0.8783
25541SOL     OW81752   7.504   7.749   4.010  0.4186  0.1365 -0.0981
25541SOL    HW181753   7.498   7.707   4.096 -0.9820 -0.1894 -0.3485
25541SOL    HW281754   7.549   7.685   3.955  3.5745  1.3203  0.9849
25542SOL     OW81755   9.651   1.751  10.880  0.0193  0.3005 -0.5554
25542SOL    HW181756   9.567   1.721  10.914 -0.6527  1.1622 -1.4067
25542SOL    HW281757   9.691   1.798  10.952 -0.2909  0.0059 -0.1890
25543SOL     OW81758   6.520   4.941   0.599 -0.1918 -0.0174  0.5679
25543SOL    HW181759   6.594   4.893   0.637 -1.3548 -1.5371  0.9531
25543SOL    HW281760   6.546   5.033   0.606  1.4753 -0.4994  1.1014
25544SOL     OW81761   1.936   5.674   9.375 -0.3514 -0.0922 -0.2306
25544SOL    HW181762   1.870   5.688   9.307  0.4200 -2.1651 -1.4525
25544SOL    HW281763   1.886   5.648   9.452 -1.1454  1.0754 -0.3301
25545SOL     OW81764   7.078   5.299   2.695 -0.1833 -0.4579  0.0355
25545SOL    HW181765   7.106   5.389   2.678  0.5868 -1.1418 -2.6014
25545SOL    HW281766   6.983   5.301   2.680 -0.1534 -0.1048 -0.1359
25546SOL     OW81767  10.490   1.222   2.540  0.2325  0.0968 -0.1370
25546SOL    HW181768  10.567   1.278   2.535  0.2328  0.0877 -0.2456
25546SOL    HW281769  10.466   1.222   2.632  0.2753  0.2195 -0.1256
25547SOL     OW81770   3.556   3.052  10.909  0.2463 -0.0285  0.1960
25547SOL    HW181771   3.648   3.028  10.902  0.7570  2.0363 -0.4827
25547SOL    HW281772   3.540   3.061  11.003  0.1687 -2.3690  0.4517
25548SOL     OW81773   5.410   4.490   7.058  0.0730 -0.2939 -0.0952
25548SOL    HW181774   5.460   4.452   6.985  0.8380  0.1567  0.1900
25548SOL    HW281775   5.459   4.465   7.136 -1.1744 -1.4540  0.3414
25549SOL     OW81776   1.998   4.400   5.934  0.2390  0.4393  0.2528
25549SOL    HW181777   2.016   4.490   5.960  1.1305  0.0493  1.0379
25549SOL    HW281778   1.909   4.384   5.963  0.0088  1.1308 -0.0652
25550SOL     OW81779   0.590   3.625   0.410 -0.3867 -0.4922  0.0126
25550SOL    HW181780   0.518   3.562   0.408 -0.9202  0.1155 -0.3531
25550SOL    HW281781   0.634   3.609   0.493 -0.4692 -1.3958 -0.1153
25551SOL     OW81782  11.268   6.077   3.538 -0.2246  0.1897 -0.2150
25551SOL    HW181783  11.199   6.143   3.538  0.4712  0.9786  2.5258
25551SOL    HW281784  11.347   6.124   3.564  0.6075 -1.4004  0.2458
25552SOL     OW81785   2.114   5.166   7.185  0.1237  0.3361  0.0612
25552SOL    HW181786   2.135   5.143   7.275  0.9651  0.7385 -0.0198
25552SOL    HW281787   2.170   5.109   7.132 -0.0094  0.4415 -0.1939
25553SOL     OW81788   2.704   2.034   1.369  0.3685  0.4587  0.1694
25553SOL    HW181789   2.629   2.035   1.309 -0.3894  1.2310  1.1156
25553SOL    HW281790   2.761   1.965   1.334 -1.0913 -0.6092 -0.1905
25554SOL     OW81791   6.775   3.613   4.178  0.3905 -0.0715 -0.0460
25554SOL    HW181792   6.742   3.581   4.262  0.3832 -1.1420 -0.4482
25554SOL    HW281793   6.834   3.685   4.201 -1.5881  1.3488  0.7248
25555SOL     OW81794   4.975   3.669   9.072 -0.4240  0.5613  0.3847
25555SOL    HW181795   4.926   3.665   9.154  1.1310 -1.6923  1.2540
25555SOL    HW281796   4.926   3.614   9.011 -0.3452  0.3486  0.5115
25556SOL     OW81797   9.629   7.230   2.466  0.3018  0.3094 -0.1958
25556SOL    HW181798   9.628   7.201   2.375 -1.0154  2.0598 -0.7513
25556SOL    HW281799   9.579   7.311   2.467 -0.4952 -0.1567  2.2522
25557SOL     OW81800  11.088   9.493   9.987 -0.6382  0.9112 -0.3019
25557SOL    HW181801  11.101   9.484   9.893 -0.0221  0.7438 -0.2084
25557SOL    HW281802  11.089   9.588  10.003 -0.4917  0.9307 -0.4315
25558SOL     OW81803  10.044   0.457   7.120  0.0620  0.2590 -0.0633
25558SOL    HW181804  10.008   0.414   7.197 -1.3275 -0.0262 -0.8449
25558SOL    HW281805  10.113   0.514   7.153  2.1805 -2.7931  0.9646
25559SOL     OW81806  10.571   4.414   0.134  0.1597 -0.3753 -0.2094
25559SOL    HW181807  10.527   4.497   0.151  0.2038 -0.5830  1.0102
25559SOL    HW281808  10.554   4.362   0.213  1.2477 -1.0307 -0.4005
25560SOL     OW81809  10.072   2.991   3.285 -0.5990 -0.4818 -0.0318
25560SOL    HW181810  10.080   2.907   3.240  2.2600  0.3110 -1.0940
25560SOL    HW281811  10.111   2.976   3.371 -0.1633 -0.2585 -0.1910
25561SOL     OW81812   5.046   4.713   1.190 -0.0575 -0.3140 -0.2906
25561SOL    HW181813   4.982   4.648   1.222  0.6917 -1.6346 -1.4111
25561SOL    HW281814   5.006   4.747   1.110 -1.4404  2.2209  1.3917
25562SOL     OW81815   5.554   0.938   5.076 -0.3873  0.1548 -0.1697
25562SOL    HW181816   5.597   0.867   5.123 -0.1043 -0.8395 -1.8817
25562SOL    HW281817   5.625   0.982   5.028 -0.6936  1.0298  0.1636
25563SOL     OW81818   7.071  10.562  10.949  0.6337 -0.4185  0.0120
25563SOL    HW181819   7.049  10.569  11.042 -0.5407 -3.5823  0.0408
25563SOL    HW281820   7.152  10.510  10.947  0.2656 -0.9859 -0.7246
25564SOL     OW81821   8.597   2.480  11.027 -0.3198  0.0870 -0.0791
25564SOL    HW181822   8.606   2.550  10.962  0.6011  0.0079 -0.0403
25564SOL    HW281823   8.551   2.411  10.980 -0.2317  0.2819 -0.4600
25565SOL     OW81824   7.771   1.326   6.673  0.2439 -0.6989  0.1661
25565SOL    HW181825   7.815   1.390   6.616 -0.1707 -0.4793  0.0890
25565SOL    HW281826   7.786   1.242   6.631  2.4747 -0.9141  1.2868
25566SOL     OW81827   3.388   9.356   2.108  0.0255 -0.3754 -0.3064
25566SOL    HW181828   3.337   9.357   2.189 -0.1399 -1.5652 -0.3911
25566SOL    HW281829   3.354   9.429   2.057 -0.4036 -0.1020  0.3661
25567SOL     OW81830   6.275   2.126   6.631 -0.3806 -0.1626  0.2467
25567SOL    HW181831   6.281   2.057   6.565  0.1782  0.6301 -0.5646
25567SOL    HW281832   6.194   2.173   6.610 -0.2224  0.0662  0.1413
25568SOL     OW81833   4.191   8.611   9.382  0.3163 -0.0866 -0.1091
25568SOL    HW181834   4.250   8.666   9.434  0.7027 -1.3533  0.8024
25568SOL    HW281835   4.119   8.590   9.442 -0.9633  1.2481 -1.1359
25569SOL     OW81836   1.515   2.230   4.899 -0.0504 -0.0776  0.1124
25569SOL    HW181837   1.471   2.168   4.841 -0.7825  0.7705 -0.2524
25569SOL    HW281838   1.469   2.313   4.884 -0.0455  0.2167  1.6845
25570SOL     OW81839   2.421   6.042   3.611 -0.4398 -0.1431  0.2547
25570SOL    HW181840   2.412   6.042   3.516  0.4784  1.1070  0.1471
25570SOL    HW281841   2.445   5.953   3.633 -0.4341 -0.3870 -0.7156
25571SOL     OW81842   7.345   5.495   5.100 -0.0255  0.3547 -0.0560
25571SOL    HW181843   7.395   5.432   5.048  0.4561  0.2387  0.5527
25571SOL    HW281844   7.410   5.557   5.132 -0.3776  0.6533  0.0918
25572SOL     OW81845   8.680   6.169   0.060  0.4586 -0.2462 -0.0484
25572SOL    HW181846   8.653   6.150  -0.030  0.9585  3.0236 -0.9414
25572SOL    HW281847   8.601   6.204   0.101  0.9306  0.7604  0.0048
25573SOL     OW81848   7.303   9.880   8.267  0.4737 -0.6772 -0.3458
25573SOL    HW181849   7.340   9.962   8.299 -2.2928  1.0355 -1.3149
25573SOL    HW281850   7.234   9.858   8.329  0.3218 -1.5662 -0.8095
25574SOL     OW81851   3.903   1.801   5.766 -0.3564  0.2486  0.2206
25574SOL    HW181852   3.868   1.727   5.716  1.7474 -0.7726  0.2115
25574SOL    HW281853   3.942   1.761   5.844  1.1577  1.3108  0.0135
25575SOL     OW81854   1.677   5.853   1.661  0.6556 -0.2335 -0.3158
25575SOL    HW181855   1.731   5.922   1.622  0.4583 -0.1817 -0.4967
25575SOL    HW281856   1.671   5.786   1.593  0.9798 -0.5015 -0.0835
25576SOL     OW81857   4.448   6.170   2.367 -0.5660  0.0006 -0.0794
25576SOL    HW181858   4.357   6.183   2.394 -0.7443 -2.8027  0.8572
25576SOL    HW281859   4.458   6.223   2.288 -2.6385  1.3089  0.4908
25577SOL     OW81860   2.570   2.450   0.323  0.4901 -0.2843  0.2120
25577SOL    HW181861   2.594   2.487   0.238 -0.9901  1.5884  0.5708
25577SOL    HW281862   2.484   2.411   0.309  0.4356 -0.3591  0.7309
25578SOL     OW81863   4.539   5.720   2.039 -0.3104  0.0723 -0.0419
25578SOL    HW181864   4.562   5.629   2.024  0.6544  0.1851  0.7668
25578SOL    HW281865   4.558   5.763   1.955 -0.1057 -0.3338 -0.2061
25579SOL     OW81866   8.091   3.328   5.849 -0.0443  0.4223  0.0529
25579SOL    HW181867   8.061   3.241   5.824 -2.1111  0.8640  0.8494
25579SOL    HW281868   8.181   3.334   5.817 -0.6581 -1.1574 -1.9938
25580SOL     OW81869   9.754   7.615   1.569 -0.1285 -0.7969 -0.2971
25580SOL    HW181870   9.693   7.664   1.514  0.9623  0.2998 -0.5321
25580SOL    HW281871   9.836   7.663   1.564  0.1064 -0.8982  1.9610
25581SOL     OW81872   7.636   2.447   0.558 -0.1461 -0.1213  0.1821
25581SOL    HW181873   7.684   2.365   0.549  1.6098  0.8808  0.0426
25581SOL    HW281874   7.651   2.492   0.475 -0.0086  0.8771  0.7425
25582SOL     OW81875   0.190  11.101   6.052 -0.7294  0.3956  0.0980
25582SOL    HW181876   0.148  11.020   6.079 -1.5263  0.5194 -0.7485
25582SOL    HW281877   0.259  11.073   5.990  0.3982  0.2040  1.4168
25583SOL     OW81878   9.335   9.131   4.101  0.2148 -0.5353  0.0824
25583SOL    HW181879   9.419   9.099   4.069 -0.8015 -1.8550 -1.3238
25583SOL    HW281880   9.302   9.186   4.030 -0.0388  0.1191  0.7007
25584SOL     OW81881  11.325   8.275   9.747 -0.6588 -0.4697 -0.3349
25584SOL    HW181882  11.373   8.195   9.724  0.7543  0.2154  0.1875
25584SOL    HW281883  11.312   8.319   9.663  1.2754  0.2368 -0.2879
25585SOL     OW81884   3.367   3.395   4.871  0.4907  0.6484 -0.1354
25585SOL    HW181885   3.337   3.483   4.896 -2.6037 -0.0833 -1.1011
25585SOL    HW281886   3.372   3.347   4.954  3.3114  1.9715  0.5498
25586SOL     OW81887   3.144  10.276   6.821  0.6093  0.2551 -0.1385
25586SOL    HW181888   3.100  10.289   6.905  1.2018  0.2792  0.1651
25586SOL    HW281889   3.076  10.240   6.764  0.0124  0.9298  0.1377
25587SOL     OW81890  11.322   4.382   8.131 -0.8726 -0.0297 -0.0313
25587SOL    HW181891  11.259   4.330   8.080 -0.3917 -1.0125  0.3837
25587SOL    HW281892  11.272   4.413   8.206 -1.1220  0.0210 -0.2150
25588SOL     OW81893   3.182   0.127   5.945  0.4512  0.4679 -0.0276
25588SOL    HW181894   3.183   0.223   5.953 -0.9820  0.5315 -0.4129
25588SOL    HW281895   3.140   0.097   6.026  0.5148  0.1893 -0.0990
25589SOL     OW81896   0.176   9.420   3.216  0.0274 -0.0743  0.0450
25589SOL    HW181897   0.154   9.359   3.286 -1.5825  1.0044  0.4948
25589SOL    HW281898   0.272   9.417   3.210  0.0189 -1.8927  0.7200
25590SOL     OW81899   4.836   2.955   4.012  0.0847 -0.6790 -0.4179
25590SOL    HW181900   4.802   3.034   4.054 -0.8662 -2.0245  1.4132
25590SOL    HW281901   4.841   2.977   3.919  1.9155  2.2658  0.3170
25591SOL     OW81902   9.284   5.937   3.002  0.2290 -0.2494 -0.2470
25591SOL    HW181903   9.197   5.958   2.969 -0.4193 -1.4030  0.7097
25591SOL    HW281904   9.273   5.854   3.049  2.2511 -1.4701 -1.8706
25592SOL     OW81905   9.601   9.575   7.346  0.1396 -0.4064 -0.3312
25592SOL    HW181906   9.568   9.522   7.418  0.9579 -1.0509 -0.4280
25592SOL    HW281907   9.551   9.657   7.352  0.3244 -0.3904  1.0552
25593SOL     OW81908   8.545   0.204   3.249  0.0566  0.0531  0.2029
25593SOL    HW181909   8.521   0.157   3.170 -0.3918  1.2415 -0.3905
25593SOL    HW281910   8.511   0.151   3.321 -2.7993  0.7811 -0.5527
25594SOL     OW81911   1.050  10.822  10.370 -0.5466  0.1315 -0.3785
25594SOL    HW181912   1.043  10.891  10.436  1.5756 -1.2592  1.3523
25594SOL    HW281913   1.040  10.869  10.287 -0.0538  2.4001  0.7820
25595SOL     OW81914   2.513   4.276   7.766 -0.0236  0.2169  0.4711
25595SOL    HW181915   2.589   4.266   7.708  0.5498 -1.4664  1.4632
25595SOL    HW281916   2.534   4.221   7.842 -1.3225  1.3839  1.6909
25596SOL     OW81917   5.204   4.123   3.685 -0.4869  0.6342 -0.1753
25596SOL    HW181918   5.200   4.159   3.773 -3.2334 -3.1181  1.3816
25596SOL    HW281919   5.272   4.055   3.690 -1.8834 -0.8103 -0.4029
25597SOL     OW81920   7.391   1.432   9.872  0.4377  0.1471 -0.3632
25597SOL    HW181921   7.335   1.438   9.794 -0.6004  0.4919  0.3856
25597SOL    HW281922   7.382   1.518   9.914  1.9073  0.3556 -0.4709
25598SOL     OW81923   8.710   1.006   1.637  0.0518  0.3851 -0.2296
25598SOL    HW181924   8.750   0.925   1.605  1.0871  0.9159 -0.3135
25598SOL    HW281925   8.744   1.016   1.726 -0.7803  0.2691  0.1071
25599SOL     OW81926   7.682   8.708   6.741 -0.4752 -0.1117  0.2165
25599SOL    HW181927   7.712   8.784   6.790  0.4555 -0.5726  0.3771
25599SOL    HW281928   7.621   8.743   6.676 -0.0473  0.7681  0.2869
25600SOL     OW81929   2.603  10.358   0.464  0.1918  0.7229 -0.2924
25600SOL    HW181930   2.605  10.307   0.545  0.4172  1.8232  0.4077
25600SOL    HW281931   2.675  10.323   0.412  0.4608  0.4471  0.2622
25601SOL     OW81932   2.109   2.692  11.183 -0.2947  0.6665  0.3744
25601SOL    HW181933   2.063   2.675  11.100 -1.5686 -0.2059  1.2432
25601SOL    HW281934   2.041   2.688  11.250  1.0587 -0.9554  1.7202
25602SOL     OW81935   6.171   6.630   1.420 -0.5548 -1.1641 -0.0318
25602SOL    HW181936   6.080   6.599   1.423 -0.5939 -0.9861  0.8283
25602SOL    HW281937   6.167   6.721   1.448 -0.3768 -0.4893 -2.1415
25603SOL     OW81938  11.223   5.928  11.047  0.4008  0.8009 -0.2554
25603SOL    HW181939  11.149   5.981  11.075 -0.1341  0.9732 -1.9063
25603SOL    HW281940  11.186   5.842  11.031  1.3007 -0.1536  2.5915
25604SOL     OW81941   1.164   0.747  10.480 -0.1701 -0.6544  0.7091
25604SOL    HW181942   1.257   0.739  10.501  0.2279 -0.9196 -1.0053
25604SOL    HW281943   1.132   0.657  10.477  0.2806 -0.7913 -1.7217
25605SOL     OW81944   9.055   5.677   1.366  0.1956 -0.2039  0.4199
25605SOL    HW181945   9.009   5.744   1.316 -0.3247 -0.0949  1.0425
25605SOL    HW281946   8.995   5.603   1.369  0.0637 -0.0668  1.2235
25606SOL     OW81947   6.969   4.304   0.085  0.2782 -0.0394  0.4440
25606SOL    HW181948   6.916   4.286   0.162 -0.2014  1.4160  0.4724
25606SOL    HW281949   6.907   4.305   0.012 -0.0869  3.5828  0.7343
25607SOL     OW81950   9.762  10.305   0.275 -0.1729 -0.3955 -0.2590
25607SOL    HW181951   9.700  10.246   0.231 -1.9255  0.7670  0.5853
25607SOL    HW281952   9.734  10.305   0.367 -0.7144  2.3051 -0.3707
25608SOL     OW81953   2.622   0.853   6.086 -0.0721 -0.8750  0.0311
25608SOL    HW181954   2.643   0.815   6.172  0.9099 -0.1111  0.1341
25608SOL    HW281955   2.645   0.784   6.024  2.8389 -0.0756  0.1345
25609SOL     OW81956   9.855  10.628   5.075  0.4305 -0.2245  0.4823
25609SOL    HW181957   9.929  10.570   5.094 -1.4804 -2.4329  1.3841
25609SOL    HW281958   9.788  10.603   5.139 -1.2516  1.4612 -0.5757
25610SOL     OW81959   1.830   0.476   9.925 -0.3612  0.1995 -0.4420
25610SOL    HW181960   1.860   0.542   9.987 -0.5767  0.1289 -0.2617
25610SOL    HW281961   1.888   0.401   9.939 -1.0977 -0.2093  0.4299
25611SOL     OW81962  10.131   4.376   0.753 -0.5652  0.6196  0.6962
25611SOL    HW181963  10.109   4.426   0.675 -0.5103 -0.6182 -0.1237
25611SOL    HW281964  10.224   4.393   0.768 -0.6791  1.2041  0.7574
25612SOL     OW81965  11.091   3.071  10.987  1.1444 -0.1882 -0.2256
25612SOL    HW181966  11.146   3.148  10.979  1.7959 -0.6235  0.0652
25612SOL    HW281967  11.045   3.082  11.070  1.8185 -0.4883  0.1902
25613SOL     OW81968   8.823   8.786   7.234  0.7021 -0.3549 -0.1970
25613SOL    HW181969   8.883   8.857   7.213  1.2991 -0.9340 -0.4546
25613SOL    HW281970   8.821   8.731   7.155  0.8089 -1.0250  0.2575
25614SOL     OW81971   1.518   8.584   2.265 -0.8208 -0.2140 -0.4063
25614SOL    HW181972   1.443   8.632   2.230 -0.4919  0.1148 -0.6631
25614SOL    HW281973   1.588   8.650   2.272 -1.1837 -0.0366  1.8395
25615SOL     OW81974   9.730   6.015  10.558  0.3367 -0.0750 -0.1478
25615SOL    HW181975   9.810   5.980  10.519  1.6390  0.9683  1.5139
25615SOL    HW281976   9.691   6.068  10.488  2.1639  1.0544 -0.3639
25616SOL     OW81977   3.602   8.982   3.427 -0.3809 -0.3563  0.5412
25616SOL    HW181978   3.621   8.893   3.457  0.3130 -0.6138 -0.6651
25616SOL    HW281979   3.623   8.982   3.334 -2.0904  0.5698  0.1248
25617SOL     OW81980   6.862   7.265   0.619 -0.3575 -0.3890 -0.1642
25617SOL    HW181981   6.865   7.170   0.630 -0.1127 -0.2677  0.9216
25617SOL    HW281982   6.917   7.299   0.691 -1.2197  0.6056  0.0371
25618SOL     OW81983   1.490   2.740   5.417 -0.0149  0.0114 -0.1656
25618SOL    HW181984   1.544   2.791   5.357 -0.8737  0.7905 -0.3007
25618SOL    HW281985   1.401   2.772   5.401 -0.1476  0.9100  2.1971
25619SOL     OW81986   5.215   1.958   1.478 -0.2412  0.1666 -0.0410
25619SOL    HW181987   5.308   1.982   1.480 -0.5654  1.4835  0.1769
25619SOL    HW281988   5.191   1.950   1.570 -0.2334 -0.6078 -0.1101
25620SOL     OW81989   6.716   2.404   8.073 -0.0210 -0.2007  0.0202
25620SOL    HW181990   6.695   2.466   8.143  0.9115 -2.5555  2.4785
25620SOL    HW281991   6.812   2.399   8.073 -0.0080 -0.3090 -1.3850
25621SOL     OW81992   1.490   4.848   1.695 -0.0935 -0.1284 -0.1935
25621SOL    HW181993   1.432   4.782   1.656 -0.9504  0.3208  0.2937
25621SOL    HW281994   1.522   4.806   1.775  1.4218 -0.9330 -1.2097
25622SOL     OW81995   4.947   7.180   4.488  0.5923  0.2064 -0.1499
25622SOL    HW181996   4.945   7.235   4.566 -1.3023 -1.7350  1.2154
25622SOL    HW281997   4.962   7.242   4.416 -1.7492  2.5607  1.3029
25623SOL     OW81998   6.866   4.973   0.535  0.5157 -0.3289  0.1641
25623SOL    HW181999   6.848   5.055   0.581  2.1749  0.5040 -0.6287
25623SOL    HW282000   6.839   4.905   0.597 -0.2955  0.7965  1.0762
25624SOL     OW82001   2.979  10.579  10.046  0.2024 -0.1636  0.1929
25624SOL    HW182002   2.894  10.622  10.034 -0.4232 -2.2902 -3.8828
25624SOL    HW282003   3.043  10.649  10.034 -0.9080  0.8415 -0.0192
25625SOL     OW82004   8.243   0.894   4.427 -0.2568 -0.4017 -0.3567
25625SOL    HW182005   8.338   0.882   4.425 -0.2357 -0.5842  1.1295
25625SOL    HW282006   8.224   0.948   4.350  1.0725 -0.2348 -0.5778
25626SOL     OW82007   3.747   3.426   6.525 -0.7240  0.0692 -0.6645
25626SOL    HW182008   3.667   3.374   6.537 -1.4626  0.8154 -2.1996
25626SOL    HW282009   3.773   3.450   6.614 -0.7488 -2.3329  0.0137
25627SOL     OW82010   6.102   5.709   4.061  0.0347 -0.5692  0.8349
25627SOL    HW182011   6.061   5.666   3.986  2.6016 -0.5227 -0.6238
25627SOL    HW282012   6.093   5.803   4.042  1.3615 -0.5672  0.2086
25628SOL     OW82013   8.658   8.809   1.545 -0.3395  0.8678 -0.0839
25628SOL    HW182014   8.692   8.896   1.568  0.4568  0.7699 -0.8633
25628SOL    HW282015   8.634   8.817   1.453  2.1438 -0.4694 -0.8888
25629SOL     OW82016   8.457   1.317   7.842  0.0883 -0.8927  0.4978
25629SOL    HW182017   8.411   1.380   7.897 -0.3232 -1.5180  0.8905
25629SOL    HW282018   8.516   1.271   7.902 -0.5695 -1.7722  0.4832
25630SOL     OW82019  10.960  10.280   7.539  0.3493 -0.2699  0.0465
25630SOL    HW182020  10.874  10.267   7.501  0.5915  1.0644 -0.9941
25630SOL    HW282021  10.944  10.290   7.633 -0.5541 -0.5728 -0.0745
25631SOL     OW82022   8.962   8.919   8.897  0.5483 -0.3006  0.4345
25631SOL    HW182023   8.973   8.992   8.959 -3.2171  0.5063  0.2774
25631SOL    HW282024   8.935   8.961   8.815  1.4687 -1.6559 -0.5868
25632SOL     OW82025   8.814   8.208   4.603  0.0068  0.2733 -0.5929
25632SOL    HW182026   8.870   8.146   4.649  0.7741  0.8758 -0.7042
25632SOL    HW282027   8.726   8.173   4.613  0.2035  0.2131  1.0167
25633SOL     OW82028   2.593  10.499   0.221 -0.1907 -0.3784  0.1460
25633SOL    HW182029   2.589  10.435   0.293 -2.9908 -1.5808 -1.0284
25633SOL    HW282030   2.638  10.453   0.151  0.3208 -0.0486  0.2509
25634SOL     OW82031   4.326   1.407   6.427 -0.1875  0.3050  0.0984
25634SOL    HW182032   4.347   1.346   6.356 -1.1151  0.4846 -0.3450
25634SOL    HW282033   4.408   1.454   6.444  0.2973 -0.4329 -0.1751
25635SOL     OW82034   2.332   2.505   4.323 -0.7304  0.1070  0.2458
25635SOL    HW182035   2.417   2.525   4.283 -0.8438  0.9323  0.3931
25635SOL    HW282036   2.288   2.448   4.260  1.3377 -3.3317  1.7580
25636SOL     OW82037   1.812   2.312   6.754  0.3591  0.0847 -0.3420
25636SOL    HW182038   1.818   2.377   6.685  0.6478 -0.3043 -0.6833
25636SOL    HW282039   1.780   2.361   6.830  0.4082  0.5865 -0.6428
25637SOL     OW82040   2.225   1.243   2.414  0.5499 -0.2331 -0.4610
25637SOL    HW182041   2.209   1.169   2.471  2.4833 -0.5422 -0.2825
25637SOL    HW282042   2.294   1.294   2.458  0.1407  0.9818 -1.1855
25638SOL     OW82043   5.909   5.092   3.836  0.4884 -0.0124 -0.1118
25638SOL    HW182044   5.954   5.010   3.815 -0.0652 -0.4403  0.3636
25638SOL    HW282045   5.885   5.128   3.751 -1.4005 -1.5502 -0.2623
25639SOL     OW82046  10.883   0.552   5.429 -0.1188  0.0862 -0.6125
25639SOL    HW182047  10.830   0.629   5.406  0.3036  0.2068 -1.2117
25639SOL    HW282048  10.887   0.501   5.348  0.9241  0.2306 -0.6617
25640SOL     OW82049   3.355  10.428   6.946  0.2702 -0.4359  0.0876
25640SOL    HW182050   3.346  10.404   7.039  0.9162 -0.6235  0.1056
25640SOL    HW282051   3.309  10.358   6.899 -1.9699  0.7988  0.3474
25641SOL     OW82052   8.504   6.494   6.046 -0.2545  0.2917  0.5198
25641SOL    HW182053   8.540   6.542   6.121 -0.3779 -0.5680  1.1389
25641SOL    HW282054   8.417   6.468   6.074 -1.3747  2.2922 -0.9534
25642SOL     OW82055   8.618   6.578   2.664 -0.7123 -0.7330  0.0058
25642SOL    HW182056   8.588   6.514   2.729 -0.0373 -0.7206  0.3402
25642SOL    HW282057   8.590   6.541   2.580  1.3031 -2.4689  0.0250
25643SOL     OW82058   1.754   4.169   2.096  0.2363  0.5833 -0.6943
25643SOL    HW182059   1.683   4.121   2.137  1.6620  0.7900  2.1143
25643SOL    HW282060   1.761   4.132   2.008 -0.8620 -2.0270  0.2993
25644SOL     OW82061   3.621   3.833   7.985 -0.1835  0.1865 -0.5088
25644SOL    HW182062   3.558   3.798   7.922  0.4430 -0.2981 -0.8704
25644SOL    HW282063   3.577   3.826   8.069 -1.1461  1.1224 -0.9304
25645SOL     OW82064   2.139   7.162   3.451 -0.2062  0.3942 -0.3700
25645SOL    HW182065   2.157   7.112   3.531 -1.1880 -0.0860 -0.4417
25645SOL    HW282066   2.051   7.198   3.464 -0.2791  0.5117 -1.1327
25646SOL     OW82067   1.230   6.053   3.057 -0.0178  0.0385 -0.3712
25646SOL    HW182068   1.258   6.010   3.137 -0.7758 -1.4153 -0.8584
25646SOL    HW282069   1.198   6.139   3.085 -1.2280 -0.8429  1.0282
25647SOL     OW82070  10.892   1.814   7.276 -0.1184  0.1343 -0.4878
25647SOL    HW182071  10.927   1.729   7.304 -0.6319  0.1578  0.2212
25647SOL    HW282072  10.884   1.865   7.356  0.5712  1.0068 -0.9622
25648SOL     OW82073   7.206   0.365   4.470 -0.0953  0.1377  0.0359
25648SOL    HW182074   7.284   0.418   4.451  0.9876 -0.6655  2.0763
25648SOL    HW282075   7.192   0.376   4.564 -1.8682 -0.5273 -0.1364
25649SOL     OW82076   3.567   5.559   5.605 -0.0893 -0.4173  0.4526
25649SOL    HW182077   3.532   5.479   5.645  0.4366 -0.7784  0.2070
25649SOL    HW282078   3.597   5.612   5.678  0.2712 -0.7894  0.5749
25650SOL     OW82079  10.965   9.554   1.112 -0.0277  0.5508  0.0616
25650SOL    HW182080  11.050   9.550   1.154  0.0933 -1.3395 -0.3055
25650SOL    HW282081  10.904   9.519   1.177 -0.4261  1.3073  0.0983
25651SOL     OW82082   8.298  10.228   0.402 -0.4913  0.0486 -0.5552
25651SOL    HW182083   8.385  10.264   0.421 -0.7168 -0.2270  1.0783
25651SOL    HW282084   8.309  10.182   0.319  1.0577 -0.3630 -0.1434
25652SOL     OW82085   4.393   4.902   2.940  0.1536  0.2670  0.3011
25652SOL    HW182086   4.365   4.992   2.923  1.4361  0.5672 -0.2564
25652SOL    HW282087   4.480   4.896   2.902 -0.1955 -1.4206 -0.2759
25653SOL     OW82088   5.341   3.780   6.028  0.3667 -0.8346  0.1428
25653SOL    HW182089   5.397   3.819   6.095 -0.6808  0.6028  0.2255
25653SOL    HW282090   5.372   3.818   5.945 -0.3613 -0.1714  0.1706
25654SOL     OW82091   3.392   3.319   9.854  0.6447  0.3096  0.8105
25654SOL    HW182092   3.443   3.397   9.872  0.3922  0.6729 -0.0140
25654SOL    HW282093   3.398   3.307   9.759 -0.2401 -0.0201  0.7861
25655SOL     OW82094   4.449  10.493   8.600  0.4610 -0.6116  0.4113
25655SOL    HW182095   4.521  10.435   8.625  1.4430  0.7099  0.6490
25655SOL    HW282096   4.446  10.486   8.505  0.4486 -1.2001  0.4494
25656SOL     OW82097   3.624   3.176   9.065  0.3336 -0.5008 -0.7457
25656SOL    HW182098   3.648   3.221   9.147  1.8006 -0.8333 -0.9794
25656SOL    HW282099   3.659   3.088   9.075  0.6305 -0.5070 -1.7972
25657SOL     OW82100   8.460  11.193   4.576  0.2035 -0.0937 -0.0177
25657SOL    HW182101   8.408  11.168   4.652 -0.3598 -0.4748 -0.5222
25657SOL    HW282102   8.511  11.269   4.604  1.9605 -1.7987  1.5609
25658SOL     OW82103   8.412   2.106   9.964 -0.4390 -0.7524  0.0244
25658SOL    HW182104   8.355   2.152  10.025 -0.9371  1.4928 -2.0280
25658SOL    HW282105   8.354   2.050   9.913 -0.2971 -1.1877  0.3414
25659SOL     OW82106   1.260   8.949   9.746 -0.2250  0.1785  0.4243
25659SOL    HW182107   1.284   9.038   9.771 -0.0828  0.1123  0.5253
25659SOL    HW282108   1.340   8.913   9.707  0.0057 -0.2265  1.2577
25660SOL     OW82109   8.977   7.288   9.340  0.1492  0.2345  0.3380
25660SOL    HW182110   8.927   7.322   9.266 -0.5145  0.0237  0.6853
25660SOL    HW282111   8.912   7.248   9.397  1.0139 -2.3652 -0.4513
25661SOL     OW82112   0.911   9.716   2.368  0.0131 -0.2110  0.0437
25661SOL    HW182113   0.988   9.771   2.356 -0.1696  0.1324  0.4309
25661SOL    HW282114   0.864   9.756   2.441 -1.5511  0.7321 -1.4437
25662SOL     OW82115  10.055   7.365   6.384 -0.9261 -0.3591  0.0155
25662SOL    HW182116  10.042   7.439   6.324 -2.2147 -0.8802 -0.3512
25662SOL    HW282117  10.057   7.288   6.327  0.3097 -0.6404  0.4054
25663SOL     OW82118   0.719   2.877   0.114 -0.5617 -0.1025  0.6453
25663SOL    HW182119   0.810   2.879   0.143 -0.5211 -0.7520  0.5611
25663SOL    HW282120   0.720   2.822   0.036 -0.2720  3.4331 -1.9488
25664SOL     OW82121  11.137   0.671   2.330 -0.3072 -0.0035 -0.2118
25664SOL    HW182122  11.135   0.595   2.272  2.6350 -1.0448  0.9661
25664SOL    HW282123  11.123   0.635   2.418  1.0383  0.8046  0.3451
25665SOL     OW82124  10.757   6.391   9.586 -0.5190  0.3866  0.2523
25665SOL    HW182125  10.809   6.313   9.607  0.4338  1.1907  0.8575
25665SOL    HW282126  10.780   6.411   9.495 -1.0127 -0.2182 -0.0159
25666SOL     OW82127   2.861   0.997   5.633  0.0365  0.4205 -0.0296
25666SOL    HW182128   2.936   1.029   5.684  1.8869 -0.3148 -2.1898
25666SOL    HW282129   2.891   0.913   5.598 -2.1755 -0.3327 -0.1665
25667SOL     OW82130   1.477   2.423   7.676  0.2586 -0.3130 -0.2814
25667SOL    HW182131   1.479   2.435   7.771 -0.0007  0.3545 -0.3573
25667SOL    HW282132   1.401   2.368   7.660 -1.5560  2.1144 -0.3591
25668SOL     OW82133   2.767   4.279   2.808 -0.6950 -0.2639 -0.2305
25668SOL    HW182134   2.700   4.348   2.808  0.6221  1.0493  1.9600
25668SOL    HW282135   2.738   4.217   2.875  0.3441  0.3736  0.8130
25669SOL     OW82136   3.792   9.103   7.735  0.3601 -0.2973  0.0127
25669SOL    HW182137   3.735   9.171   7.771  2.0631  0.9778  0.3708
25669SOL    HW282138   3.815   9.136   7.648 -1.0152 -1.7647 -0.9608
25670SOL     OW82139   3.913  11.302   5.154 -0.5546  0.0122  0.3077
25670SOL    HW182140   3.844  11.237   5.162 -1.0740  0.7510  2.0529
25670SOL    HW282141   3.994  11.255   5.175 -1.0675  0.1913  2.7970
25671SOL     OW82142   8.121   8.327   0.514  0.2661  0.2709 -0.0518
25671SOL    HW182143   8.084   8.410   0.486  1.3943  1.3332  1.5147
25671SOL    HW282144   8.141   8.280   0.433  1.9992  2.6121 -1.0282
25672SOL     OW82145   6.944   8.433  10.824 -0.2102  0.4415  0.5005
25672SOL    HW182146   6.852   8.461  10.824  0.2297  1.9356 -0.4129
25672SOL    HW282147   6.944   8.354  10.878 -1.9265  0.7732  1.0463
25673SOL     OW82148   0.324   6.330  10.580 -0.2470 -0.4147 -0.0858
25673SOL    HW182149   0.404   6.374  10.610  0.5998 -1.3568 -0.9436
25673SOL    HW282150   0.352   6.277  10.506 -1.7982 -0.2863 -0.7785
25674SOL     OW82151   8.859   9.368  10.084 -0.2117 -0.1612  0.1739
25674SOL    HW182152   8.822   9.442  10.035 -1.0338 -3.2292 -4.0910
25674SOL    HW282153   8.945   9.354  10.044 -0.5556 -2.1982  0.0828
25675SOL     OW82154   9.675   6.164   7.819 -0.1303 -0.5102 -0.1510
25675SOL    HW182155   9.620   6.169   7.897 -0.5780  0.0221 -0.4906
25675SOL    HW282156   9.616   6.190   7.748  1.0400  1.7915 -0.3102
25676SOL     OW82157   8.088   9.784   3.072 -0.2316 -0.1522 -0.1897
25676SOL    HW182158   8.183   9.793   3.077 -0.1473 -0.0228 -1.7414
25676SOL    HW282159   8.060   9.852   3.010 -1.1710 -1.1178 -0.8565
25677SOL     OW82160   4.124  11.242   6.213  0.2889 -0.4634  0.2301
25677SOL    HW182161   4.132  11.259   6.307  1.1083 -2.1425  0.4852
25677SOL    HW282162   4.210  11.263   6.178 -0.2945  1.0606 -0.3036
25678SOL     OW82163   1.198  10.985   0.687  0.9050  0.0882  0.5141
25678SOL    HW182164   1.120  10.951   0.643 -0.0939  2.2711  0.5363
25678SOL    HW282165   1.270  10.931   0.653 -0.2946 -0.4340 -1.2554
25679SOL     OW82166   2.416   3.776   3.175 -0.7208  0.8645 -0.3683
25679SOL    HW182167   2.467   3.779   3.094 -0.2166  2.7583 -0.0058
25679SOL    HW282168   2.346   3.839   3.162  0.3313  2.4313  1.2915
25680SOL     OW82169   5.656   0.561   3.023 -0.0342 -0.6225 -0.0039
25680SOL    HW182170   5.570   0.557   2.981  1.1547 -0.7420 -2.4722
25680SOL    HW282171   5.694   0.643   2.991  1.3432 -1.2648 -0.0154
25681SOL     OW82172   2.141  10.393   8.796  0.1687 -0.2917  0.0293
25681SOL    HW182173   2.071  10.427   8.740 -0.4297  2.4610  2.3217
25681SOL    HW282174   2.214  10.379   8.736 -1.0653  0.7087 -1.7698
25682SOL     OW82175   0.047   2.642  10.415  0.1909 -0.1689 -0.4194
25682SOL    HW182176   0.133   2.625  10.375  0.7607 -1.3376  1.2465
25682SOL    HW282177  -0.016   2.621  10.346  1.1851 -0.6110 -1.2135
25683SOL     OW82178   8.966   2.865  10.679 -0.3148 -0.0571  0.1036
25683SOL    HW182179   8.893   2.837  10.735  0.5303  0.1850  1.3191
25683SOL    HW282180   9.004   2.940  10.724  1.1582 -0.6423 -0.1562
25684SOL     OW82181   8.505   3.891   0.516 -0.9179  0.1479  0.5838
25684SOL    HW182182   8.477   3.960   0.456 -1.1779 -1.3026 -0.9943
25684SOL    HW282183   8.452   3.815   0.491 -2.2063 -0.0476  3.7179
25685SOL     OW82184   2.323   0.208  11.137  0.4822  0.6515 -0.1925
25685SOL    HW182185   2.233   0.239  11.144  0.2898  0.2980 -1.0416
25685SOL    HW282186   2.337   0.157  11.218  0.6363  2.4779  0.9627
25686SOL     OW82187   4.154   9.071   0.932  0.7928 -0.2328 -0.3397
25686SOL    HW182188   4.230   9.014   0.920  1.8622  0.9727  0.5032
25686SOL    HW282189   4.110   9.071   0.847  0.9872 -1.9942 -0.4547
25687SOL     OW82190   6.983   6.183   3.560 -0.0465  0.3910 -0.7605
25687SOL    HW182191   7.038   6.215   3.631 -1.6649  0.0588  0.6843
25687SOL    HW282192   7.044   6.147   3.496  1.5558  2.5959 -0.5071
25688SOL     OW82193   6.398   1.230   6.783  0.4090  0.2650  0.2448
25688SOL    HW182194   6.439   1.281   6.714 -1.4403  2.2880  0.6135
25688SOL    HW282195   6.366   1.151   6.739  2.0027  0.0608 -0.5816
25689SOL     OW82196   7.506   6.557   1.714  0.4865 -0.2315  0.0903
25689SOL    HW182197   7.570   6.628   1.711  2.0956 -1.6879 -0.6398
25689SOL    HW282198   7.487   6.537   1.622 -0.8769  0.0398  0.2968
25690SOL     OW82199   9.877  10.360   7.962 -0.2668  0.4421  0.2580
25690SOL    HW182200   9.870  10.303   8.039  1.2651 -2.1747 -1.4663
25690SOL    HW282201   9.837  10.310   7.891 -0.9974  2.5143 -0.8339
25691SOL     OW82202   8.604   6.999  10.159  0.5315  0.6309  0.0564
25691SOL    HW182203   8.519   6.983  10.201  1.4229  2.7215  2.8401
25691SOL    HW282204   8.668   6.990  10.230  2.7094 -1.1672 -2.0557
25692SOL     OW82205   5.287   1.883   4.693 -0.6083 -0.6273  0.0695
25692SOL    HW182206   5.367   1.867   4.743  0.2186  1.1447 -0.6095
25692SOL    HW282207   5.256   1.968   4.724 -1.2695 -0.5026 -0.8993
25693SOL     OW82208   3.060   1.340   2.352 -0.2420 -0.3111 -0.0666
25693SOL    HW182209   3.011   1.274   2.303  1.1029 -0.7437 -0.8522
25693SOL    HW282210   2.997   1.410   2.366 -0.8892 -0.5222 -1.7202
25694SOL     OW82211   8.641   4.619   4.410  0.0718  0.2114 -0.2872
25694SOL    HW182212   8.576   4.551   4.391  0.6830 -0.2718 -0.6363
25694SOL    HW282213   8.660   4.659   4.325  2.1738 -1.3901 -0.6025
25695SOL     OW82214   1.553   1.032   1.704  0.1508  0.0363 -0.3711
25695SOL    HW182215   1.509   1.081   1.773 -1.3385 -0.1600 -1.1556
25695SOL    HW282216   1.482   1.007   1.644  1.6363  1.8979 -2.9974
25696SOL     OW82217   4.609   5.400   4.066  0.0295 -0.2144 -0.5499
25696SOL    HW182218   4.616   5.493   4.047 -0.9817  0.0377  0.2627
25696SOL    HW282219   4.544   5.368   4.003 -0.0690 -0.2589 -0.4244
25697SOL     OW82220   3.282   7.225  10.260 -0.3097 -0.1432  0.0155
25697SOL    HW182221   3.374   7.200  10.246 -0.6227 -0.5277 -1.4481
25697SOL    HW282222   3.233   7.166  10.204 -1.4111  0.5093  0.2849
25698SOL     OW82223   1.337   5.488   3.237 -0.6212  0.1764 -0.1169
25698SOL    HW182224   1.373   5.401   3.224  2.0369  0.6044  3.5102
25698SOL    HW282225   1.258   5.475   3.290  0.6301  0.0537  1.7425
25699SOL     OW82226   0.454   2.694  10.501 -0.0912 -0.7701  0.6499
25699SOL    HW182227   0.360   2.679  10.499 -0.3015  0.4262  0.9009
25699SOL    HW282228   0.492   2.620  10.453 -1.4049  0.7278 -2.8530
25700SOL     OW82229   5.264  11.256   6.540 -0.0881  0.4220  0.4139
25700SOL    HW182230   5.190  11.210   6.500 -0.1188 -0.0869  1.0496
25700SOL    HW282231   5.248  11.250   6.634  1.2608 -0.5528  0.6010
25701SOL     OW82232   7.475   8.410   7.047 -0.0436  0.1447 -0.0705
25701SOL    HW182233   7.494   8.407   6.953 -0.8621 -0.6738 -0.2179
25701SOL    HW282234   7.547   8.363   7.088  0.8321  1.3429 -0.1919
25702SOL     OW82235   6.822   2.333   2.591 -0.7038 -0.0897  0.8207
25702SOL    HW182236   6.808   2.390   2.667 -2.4694 -2.0531  2.0268
25702SOL    HW282237   6.735   2.300   2.571 -0.1344 -0.1228 -1.6689
25703SOL     OW82238   9.823   5.661   0.408  0.3365  0.6746  0.1978
25703SOL    HW182239   9.748   5.618   0.367  0.3023 -0.2743  1.2267
25703SOL    HW282240   9.887   5.591   0.419  1.2449  1.4131 -0.3670
25704SOL     OW82241  10.249  10.793   3.913 -0.3281 -0.1101 -0.0601
25704SOL    HW182242  10.324  10.820   3.860 -0.4113 -0.0326 -0.1366
25704SOL    HW282243  10.270  10.703   3.939  1.0179  0.8032  2.1078
25705SOL     OW82244   5.513   6.269   3.994  0.3780 -0.3587  0.5000
25705SOL    HW182245   5.425   6.236   4.014 -0.6422  1.6722 -0.4560
25705SOL    HW282246   5.516   6.272   3.898  1.1283  0.4765  0.5421
25706SOL     OW82247   8.713   4.248   9.730 -0.4113 -0.0546 -0.1462
25706SOL    HW182248   8.741   4.289   9.811 -1.0379 -0.2065  0.1525
25706SOL    HW282249   8.663   4.316   9.684 -1.7958 -0.5771  0.5324
25707SOL     OW82250   0.561   5.056   7.919 -0.0699  0.1017  0.4092
25707SOL    HW182251   0.566   5.124   7.987 -2.9501  1.8698 -1.0120
25707SOL    HW282252   0.470   5.026   7.922 -0.4062  0.5840 -2.9460
25708SOL     OW82253   4.816   3.693   6.115 -0.1244 -0.1034  0.1800
25708SOL    HW182254   4.830   3.603   6.084 -0.0517 -0.3360  0.8664
25708SOL    HW282255   4.727   3.693   6.149 -0.7858  0.5903 -1.5049
25709SOL     OW82256   5.448   1.753   4.885 -0.4241 -0.4018 -0.3363
25709SOL    HW182257   5.517   1.751   4.951  0.1737  2.1255 -0.8216
25709SOL    HW282258   5.378   1.699   4.921 -0.4349  1.5946  2.7370
25710SOL     OW82259   5.385   8.530   9.739  0.5301  0.8980 -0.5026
25710SOL    HW182260   5.360   8.582   9.815  0.8924  0.8008 -0.3163
25710SOL    HW282261   5.316   8.464   9.731  0.0502  1.4199 -0.7640
25711SOL     OW82262  10.300  10.596   1.776 -0.0376  0.1271 -0.4156
25711SOL    HW182263  10.306  10.660   1.706  1.5237 -0.7256 -1.0810
25711SOL    HW282264  10.209  10.566   1.773 -0.7441  2.1563 -0.1850
25712SOL     OW82265   8.337   0.555   8.632 -0.6454 -0.0663  0.2581
25712SOL    HW182266   8.274   0.583   8.566 -0.9320  1.0893  1.0034
25712SOL    HW282267   8.284   0.539   8.710  0.0974  2.1246  1.2595
25713SOL     OW82268   3.252   8.012   2.258  0.2025 -0.5187  0.2230
25713SOL    HW182269   3.192   7.945   2.223 -0.0933 -0.1341 -0.0079
25713SOL    HW282270   3.212   8.095   2.233  1.0635 -0.2586 -0.3009
25714SOL     OW82271   4.690   1.118  10.635  0.4902 -0.0814 -0.1496
25714SOL    HW182272   4.660   1.178  10.703  1.5456 -2.8180  2.8709
25714SOL    HW282273   4.766   1.162  10.596 -0.5567  1.8492 -0.0593
25715SOL     OW82274   1.882   0.940   2.179 -0.7148 -0.0450  0.6878
25715SOL    HW182275   1.803   0.990   2.158 -0.5804  0.1158  0.5672
25715SOL    HW282276   1.951   1.006   2.184  0.0132 -0.5057 -2.2186
25716SOL     OW82277   0.903   6.538   7.704  0.9609  0.0464  0.3237
25716SOL    HW182278   0.942   6.615   7.747 -0.1837  0.1515  1.2027
25716SOL    HW282279   0.844   6.501   7.770  0.5101 -0.8277 -0.5545
25717SOL     OW82280   2.896  10.022   3.838 -0.1712 -0.1065  0.1952
25717SOL    HW182281   2.896  10.092   3.774  0.7531  0.3875  0.7258
25717SOL    HW282282   2.863   9.945   3.790 -1.5685  0.7644 -0.2690
25718SOL     OW82283   1.140   5.691   3.272 -0.2285 -0.4048 -0.1745
25718SOL    HW182284   1.220   5.668   3.224 -2.0175 -0.7003 -3.1518
25718SOL    HW282285   1.166   5.763   3.329  1.7282  0.9393 -2.6464
25719SOL     OW82286   4.403   0.978   7.928  0.4635  0.0455 -0.1497
25719SOL    HW182287   4.424   1.031   8.005 -0.3393 -0.9733  0.7828
25719SOL    HW282288   4.489   0.950   7.895  0.7936  0.0113  0.7103
25720SOL     OW82289   1.926   2.166   9.464 -0.2956  0.5618  0.7233
25720SOL    HW182290   1.953   2.113   9.389 -1.0002  0.2442  0.6893
25720SOL    HW282291   1.955   2.254   9.443 -0.8568  0.5519 -0.1221
25721SOL     OW82292   1.903   7.419   1.406 -0.2677 -0.4955  0.2601
25721SOL    HW182293   1.957   7.395   1.481  0.4010 -0.1277 -0.1005
25721SOL    HW282294   1.923   7.353   1.340  1.3813  0.8674 -0.6428
25722SOL     OW82295   3.366   9.707   0.259  0.1523  0.0571  0.3995
25722SOL    HW182296   3.443   9.742   0.213  0.2351  1.1940  1.3814
25722SOL    HW282297   3.391   9.617   0.281  0.6951 -0.0054 -0.4260
25723SOL     OW82298   1.310   9.566   3.415  0.1277  0.4103 -0.1525
25723SOL    HW182299   1.296   9.481   3.457  1.5781  0.1522 -0.1408
25723SOL    HW282300   1.270   9.629   3.475 -0.4463 -0.2110  0.1285
25724SOL     OW82301   6.404   8.139   8.759  0.3010 -0.0044 -0.3239
25724SOL    HW182302   6.410   8.104   8.670 -0.3510 -0.6249 -0.1281
25724SOL    HW282303   6.327   8.097   8.797  0.1642  0.7864  0.3045
25725SOL     OW82304   3.909  11.272   3.687 -0.0517 -0.3021  0.2681
25725SOL    HW182305   3.953  11.188   3.675  0.2937 -0.0655 -0.0888
25725SOL    HW282306   3.881  11.298   3.599  2.7155  1.5443 -0.1358
25726SOL     OW82307  10.675   4.013   1.178 -0.1345 -0.6719 -0.2974
25726SOL    HW182308  10.581   4.025   1.159 -0.7003 -0.4056  2.5342
25726SOL    HW282309  10.683   3.920   1.197  0.1130 -0.6294 -0.2024
25727SOL     OW82310   1.557   6.331   4.728  0.0839 -0.2481  0.3215
25727SOL    HW182311   1.546   6.397   4.660 -1.0617  0.5570  1.2639
25727SOL    HW282312   1.485   6.270   4.713  0.4237 -0.6181  0.1980
25728SOL     OW82313   0.159   5.574   4.355 -0.5702 -0.2864 -0.4367
25728SOL    HW182314   0.227   5.568   4.288  1.3481 -0.1816  1.4424
25728SOL    HW282315   0.095   5.636   4.320  2.3543  2.8001 -0.5374
25729SOL     OW82316   1.580   4.932  10.096  0.1835  0.1582  0.0996
25729SOL    HW182317   1.568   4.870  10.168  0.7974 -0.8428 -0.6471
25729SOL    HW282318   1.673   4.926  10.074 -0.1019  0.0394 -1.1267
25730SOL     OW82319  10.517   8.697  10.004 -0.3794  0.2591 -0.5508
25730SOL    HW182320  10.607   8.728  10.006 -0.0141 -0.7059 -1.6098
25730SOL    HW282321  10.524   8.602   9.999 -1.4184  0.2350 -2.1968
25731SOL     OW82322   8.820   0.736   3.590  0.0775  0.1318 -0.5039
25731SOL    HW182323   8.742   0.759   3.540 -0.0930  1.7291  0.4584
25731SOL    HW282324   8.791   0.735   3.681  1.3758  1.6118 -0.0662
25732SOL     OW82325   6.835   1.072   6.826 -0.2963  0.4824  0.1600
25732SOL    HW182326   6.901   1.040   6.764  0.6731 -0.4280  1.6222
25732SOL    HW282327   6.814   0.996   6.880 -3.7371  0.3534 -1.2586
25733SOL     OW82328   3.277   5.102   6.283  0.1366  0.2475 -0.3486
25733SOL    HW182329   3.361   5.066   6.310  0.4175  1.4647  0.4304
25733SOL    HW282330   3.260   5.172   6.346 -0.4705  1.3701 -1.7541
25734SOL     OW82331   9.748   4.756   5.608  0.6065 -0.4609 -0.6199
25734SOL    HW182332   9.754   4.682   5.668 -1.6446  1.5332  2.1976
25734SOL    HW282333   9.838   4.772   5.580  1.5699 -2.0474  1.4715
25735SOL     OW82334   1.569   5.661   0.632 -0.1671 -0.3084 -0.7634
25735SOL    HW182335   1.522   5.724   0.688 -0.2074  0.6583 -1.8723
25735SOL    HW282336   1.588   5.588   0.690  0.4795  1.0183  0.7555
25736SOL     OW82337   9.453   5.614   2.573 -0.4135  0.4292 -0.4109
25736SOL    HW182338   9.419   5.703   2.579  1.3229  1.1927 -1.3518
25736SOL    HW282339   9.426   5.583   2.487 -1.8249 -0.3307  0.2828
25737SOL     OW82340   9.569   1.169   4.369 -0.2938 -0.0190 -0.2650
25737SOL    HW182341   9.565   1.243   4.429 -3.2727 -0.7931  0.5628
25737SOL    HW282342   9.655   1.177   4.327  0.1690  2.8536  1.1086
25738SOL     OW82343   6.671   3.112   0.256 -0.2092 -0.5025  0.1638
25738SOL    HW182344   6.666   3.068   0.171 -1.1602 -1.6200  0.7829
25738SOL    HW282345   6.614   3.061   0.313  2.1889 -1.1738  2.0730
25739SOL     OW82346   1.910   1.976   4.081  0.0400 -0.0720 -0.1289
25739SOL    HW182347   1.857   1.896   4.079 -0.4980  0.2675  0.5744
25739SOL    HW282348   1.897   2.015   3.994  1.2881 -1.3803 -0.9237
25740SOL     OW82349   8.686   9.133   7.122  0.2756 -0.4879 -0.5411
25740SOL    HW182350   8.667   9.184   7.043  0.1470 -0.1613 -0.2977
25740SOL    HW282351   8.603   9.090   7.143 -0.1596  0.8039  0.4233
25741SOL     OW82352   0.949   9.778   7.310 -0.2312 -0.6931  0.1800
25741SOL    HW182353   1.020   9.832   7.345  0.2407 -2.3905  1.8996
25741SOL    HW282354   0.870   9.811   7.355  0.2271 -2.1702  2.1677
25742SOL     OW82355   8.633   3.925   9.634  0.3297 -0.2159  0.1008
25742SOL    HW182356   8.682   3.953   9.557 -0.1938 -0.3885 -0.2976
25742SOL    HW282357   8.565   3.992   9.645  1.1495  0.4499  1.1199
25743SOL     OW82358  11.138   7.990   4.084 -0.0171  0.3837 -0.3578
25743SOL    HW182359  11.192   8.066   4.108 -0.8498  1.7332 -2.5935
25743SOL    HW282360  11.202   7.922   4.060  0.7356  0.3343  1.6938
25744SOL     OW82361   4.376   5.925   0.909  0.5931 -0.0179 -0.4680
25744SOL    HW182362   4.285   5.956   0.902 -0.1101 -1.3714  1.9797
25744SOL    HW282363   4.373   5.834   0.879  0.9168 -0.3885  0.5920
25745SOL     OW82364   5.438   5.738   2.601  0.0759  0.3153  0.4000
25745SOL    HW182365   5.365   5.698   2.648 -0.8878 -0.7087 -1.8813
25745SOL    HW282366   5.487   5.665   2.565  0.9742  1.0676  0.0671
25746SOL     OW82367   3.468   5.824   1.651 -0.3572  0.3161 -0.6853
25746SOL    HW182368   3.378   5.819   1.618 -0.6439 -0.1707  0.1552
25746SOL    HW282369   3.463   5.785   1.738  0.6133  0.5691 -0.5193
25747SOL     OW82370   6.586  11.050   4.860 -0.0311  0.2824  0.6683
25747SOL    HW182371   6.605  11.142   4.876 -0.1153  0.3758  0.2149
25747SOL    HW282372   6.583  11.041   4.765 -0.8806 -0.0093  0.7140
25748SOL     OW82373  10.693   8.453   3.097  0.3060 -0.3143 -0.2350
25748SOL    HW182374  10.617   8.415   3.142  0.3765  0.4310  0.5208
25748SOL    HW282375  10.766   8.394   3.118 -0.2496 -1.6496 -1.8511
25749SOL     OW82376   5.471   5.610   0.297  0.1278  0.8729  0.4205
25749SOL    HW182377   5.498   5.544   0.360  1.8064  2.4633  1.4307
25749SOL    HW282378   5.504   5.578   0.213 -2.0334 -1.2088  0.3151
25750SOL     OW82379   4.451   4.420   8.876  0.1646  0.0074  0.5111
25750SOL    HW182380   4.464   4.477   8.951 -1.0250  0.3712  0.4402
25750SOL    HW282381   4.431   4.334   8.914  0.6704 -0.0718  0.6068
25751SOL     OW82382   6.692   7.513   3.523  0.4536 -0.4203 -0.0400
25751SOL    HW182383   6.636   7.574   3.476  0.5361 -0.5581 -0.3168
25751SOL    HW282384   6.781   7.540   3.500  0.4823 -1.6513 -1.4695
25752SOL     OW82385   5.361   2.286  10.950  0.0094  0.2187  0.2512
25752SOL    HW182386   5.354   2.277  10.855  0.9415  2.6354 -0.0747
25752SOL    HW282387   5.271   2.295  10.980 -0.3095 -0.8558 -0.3705
25753SOL     OW82388   3.808   8.896   8.737  0.1328  0.0546  0.1892
25753SOL    HW182389   3.887   8.924   8.784  0.8242  0.4874 -1.1732
25753SOL    HW282390   3.764   8.977   8.713  0.7634 -0.0592 -1.4829
25754SOL     OW82391   8.704  11.183   8.967  0.3198 -0.6909 -0.0070
25754SOL    HW182392   8.770  11.234   9.015  1.4101 -2.2104  0.1446
25754SOL    HW282393   8.694  11.229   8.884 -0.0014  0.7548  0.8125
25755SOL     OW82394   7.520   3.125   3.673 -0.3843  0.3401 -0.2393
25755SOL    HW182395   7.529   3.038   3.710  0.3833  0.3747 -0.3404
25755SOL    HW282396   7.558   3.119   3.586  1.5607  1.2687  0.5048
25756SOL     OW82397  11.136   1.054   2.909  0.0651 -0.1785 -0.3225
25756SOL    HW182398  11.100   1.140   2.888 -0.6336 -0.5691 -0.7557
25756SOL    HW282399  11.187   1.030   2.832 -1.7967 -1.2389 -1.2378
25757SOL     OW82400   8.906   6.789   2.594  0.1238 -0.3189 -0.2552
25757SOL    HW182401   8.842   6.837   2.542 -0.5729  0.6443  1.4711
25757SOL    HW282402   8.988   6.837   2.582 -0.6870  1.7032  1.9150
25758SOL     OW82403   8.532   2.708   1.529  1.0982  0.5047 -0.1361
25758SOL    HW182404   8.484   2.682   1.450  0.9769  3.0042 -0.9120
25758SOL    HW282405   8.576   2.627   1.558  0.1841 -0.7117 -2.0629
25759SOL     OW82406   5.057   1.192   9.080 -0.0564  0.4492 -0.1470
25759SOL    HW182407   4.972   1.194   9.122  0.1592 -0.1431  0.3235
25759SOL    HW282408   5.082   1.100   9.079  0.7157  0.6475  0.0028
25760SOL     OW82409   5.301   3.063   9.793  0.2332  0.8039 -0.0200
25760SOL    HW182410   5.278   3.156   9.784  0.6225  0.7651 -1.6614
25760SOL    HW282411   5.257   3.021   9.719 -0.7386 -0.4841  1.2660
25761SOL     OW82412   6.481   1.188   5.210 -0.6218  0.5217  0.1157
25761SOL    HW182413   6.515   1.100   5.224  0.5456  1.1336  1.3148
25761SOL    HW282414   6.402   1.193   5.263 -1.0040  0.0156 -0.4055
25762SOL     OW82415   2.372   5.128   5.230 -0.2505  0.3363 -0.0913
25762SOL    HW182416   2.438   5.148   5.297  0.1186 -1.6395  0.1755
25762SOL    HW282417   2.355   5.212   5.188 -0.6443  1.6912  2.6122
25763SOL     OW82418   7.123   4.978   2.123  0.0884  0.5764 -0.2849
25763SOL    HW182419   7.144   4.969   2.216 -1.7546  3.0187  0.4264
25763SOL    HW282420   7.192   4.930   2.078 -0.2901 -2.6953  2.3995
25764SOL     OW82421   5.423   2.510   2.350 -0.0516 -0.3158  0.2499
25764SOL    HW182422   5.369   2.567   2.296 -0.7278 -2.1395 -1.0498
25764SOL    HW282423   5.368   2.433   2.367  2.7022 -3.1047 -2.7286
25765SOL     OW82424   2.234  11.009  11.015  0.8151  0.5436  0.0271
25765SOL    HW182425   2.147  11.015  10.975  0.6412  1.0463  0.4644
25765SOL    HW282426   2.291  10.978  10.945  0.2100 -0.1722 -0.1621
25766SOL     OW82427   5.634   7.282   5.972  0.0625 -0.0140 -0.2941
25766SOL    HW182428   5.616   7.226   5.897  2.8829  1.0494 -1.8030
25766SOL    HW282429   5.612   7.370   5.942 -1.4321  0.0949  1.0613
25767SOL     OW82430  10.829   9.957  10.242  0.5316 -0.4486  0.0083
25767SOL    HW182431  10.809   9.913  10.159  0.8958  1.5212 -1.1497
25767SOL    HW282432  10.744   9.984  10.276  0.4088 -0.9956  0.1509
25768SOL     OW82433   7.764   0.013   1.407  0.1228 -0.1039  0.1816
25768SOL    HW182434   7.793  -0.051   1.472 -0.2057 -2.3551 -1.8149
25768SOL    HW282435   7.669   0.007   1.409  0.0960  0.2434 -0.1138
25769SOL     OW82436   2.886   1.943   0.959  0.1856 -0.2021  0.0190
25769SOL    HW182437   2.879   1.860   0.912 -1.5838 -0.1527  0.1376
25769SOL    HW282438   2.875   1.920   1.052 -0.8929  0.2069  0.0074
25770SOL     OW82439  10.626   5.544   0.650 -0.7913 -0.3594  0.0361
25770SOL    HW182440  10.649   5.634   0.625  0.3768 -0.0639  2.0884
25770SOL    HW282441  10.575   5.554   0.730  0.3493 -1.5856  0.9283
25771SOL     OW82442   1.906   5.951   0.462  0.7069 -0.4775 -0.1431
25771SOL    HW182443   1.896   5.856   0.472 -0.0066 -0.3935 -0.0324
25771SOL    HW282444   1.874   5.970   0.374 -0.3998 -0.1711  0.3105
25772SOL     OW82445   7.134   8.984  10.409  0.1686 -1.0243 -0.1940
25772SOL    HW182446   7.220   9.019  10.383  0.9682 -3.3866 -0.8251
25772SOL    HW282447   7.144   8.964  10.502 -0.4327  0.8107  0.2754
25773SOL     OW82448  11.121   5.959   0.435 -0.9274 -0.3622 -0.0999
25773SOL    HW182449  11.098   6.029   0.497 -0.3990 -0.1401 -0.1549
25773SOL    HW282450  11.201   5.990   0.393 -1.0383 -0.7210 -0.5723
25774SOL     OW82451   7.799   8.968   7.152  0.4022 -0.4813 -0.9056
25774SOL    HW182452   7.884   8.960   7.195  0.1343  0.2160 -0.2457
25774SOL    HW282453   7.742   8.906   7.198  0.2353 -0.0704 -0.5642
25775SOL     OW82454   0.975   0.372   6.856  0.2386 -0.4268  0.3594
25775SOL    HW182455   0.913   0.440   6.883 -0.2115 -0.8224  0.3408
25775SOL    HW282456   0.919   0.299   6.830  0.7321 -0.9840  0.8623
25776SOL     OW82457   1.582   4.603   0.931 -0.3842 -0.4762  0.8896
25776SOL    HW182458   1.496   4.580   0.897  0.0445 -1.0270  0.1596
25776SOL    HW282459   1.620   4.660   0.865 -0.6732  0.7654  1.7878
25777SOL     OW82460   8.830  10.612  10.803  0.3899  0.1512 -0.6137
25777SOL    HW182461   8.842  10.591  10.896 -2.7192 -2.0651 -0.6241
25777SOL    HW282462   8.859  10.534  10.757  0.6675  0.7304 -1.4224
25778SOL     OW82463   9.895   3.055   7.720 -0.6233  0.4765 -0.0814
25778SOL    HW182464   9.953   2.980   7.729 -1.9785 -0.4715  1.1003
25778SOL    HW282465   9.920   3.113   7.792 -1.2915 -0.0469  0.5803
25779SOL     OW82466   3.480  10.212   4.098 -0.2502  0.7162  0.6960
25779SOL    HW182467   3.443  10.124   4.089 -0.0371  0.5674  1.2329
25779SOL    HW282468   3.448  10.259   4.021 -0.1145  0.0835  0.2454
25780SOL     OW82469   3.129   8.020   0.569 -0.1879  0.2108  0.7069
25780SOL    HW182470   3.040   8.002   0.537 -0.7771  1.0376  1.8299
25780SOL    HW282471   3.119   8.024   0.664  1.2368 -0.6263  0.9007
25781SOL     OW82472   0.918   2.077   0.162  0.0534 -0.3433  0.5350
25781SOL    HW182473   0.957   2.044   0.081  1.6023 -1.5024  1.7196
25781SOL    HW282474   0.969   2.155   0.184  0.0104 -0.3565  0.6881
25782SOL     OW82475   0.941  10.749  10.765  0.9969  0.6836  0.1194
25782SOL    HW182476   0.848  10.769  10.775  0.7840  0.9327 -1.9857
25782SOL    HW282477   0.957  10.677  10.826 -0.4434  0.9949  0.8952
25783SOL     OW82478   9.863  11.268   8.707  0.6697  0.2182 -0.6628
25783SOL    HW182479   9.859  11.295   8.615 -1.5396 -0.3533 -0.7487
25783SOL    HW282480   9.878  11.350   8.754  2.3667  0.4529 -1.5339
25784SOL     OW82481   0.394  11.055   7.739  0.2825  0.1942 -0.5724
25784SOL    HW182482   0.308  11.016   7.727  0.1713  0.4640 -0.6545
25784SOL    HW282483   0.381  11.124   7.804  0.5950 -0.2933  0.0079
25785SOL     OW82484   9.810   5.798   0.950 -0.1095  0.5793  0.3973
25785SOL    HW182485   9.748   5.735   0.914  0.3310 -0.6449  1.7303
25785SOL    HW282486   9.755   5.858   1.001 -0.3120  0.0972  0.7514
25786SOL     OW82487  10.332   3.085   2.939  0.0996  0.4360 -0.2790
25786SOL    HW182488  10.322   3.112   3.031 -0.7980 -4.7181  1.3246
25786SOL    HW282489  10.426   3.089   2.923  0.5131 -0.7332  1.6438
25787SOL     OW82490   0.613   3.544   8.022  1.1403  0.1879  0.3142
25787SOL    HW182491   0.595   3.606   7.952  1.1577 -1.2924 -1.0397
25787SOL    HW282492   0.707   3.527   8.016  1.2587  0.5492  1.1167
25788SOL     OW82493   0.752  11.105   9.433 -0.1262 -0.0011  0.1568
25788SOL    HW182494   0.748  11.195   9.464  0.7151 -0.1358  0.6517
25788SOL    HW282495   0.778  11.054   9.509  0.5022 -0.5201 -0.3962
25789SOL     OW82496   6.616  11.254   7.316  0.5787  0.9458  0.0963
25789SOL    HW182497   6.565  11.299   7.383  0.6218  1.6384 -0.3368
25789SOL    HW282498   6.616  11.314   7.242  2.5212  1.2273  0.2992
25790SOL     OW82499   8.131  11.184   2.932  0.3413  0.2187  0.4103
25790SOL    HW182500   8.050  11.178   2.982  0.4690  1.1536  0.7498
25790SOL    HW282501   8.176  11.261   2.969  0.8277  0.4058 -0.5594
25791SOL     OW82502   7.318   1.041   1.784  0.0390 -0.1857  0.1294
25791SOL    HW182503   7.262   0.965   1.766  0.1625 -0.3260  0.3329
25791SOL    HW282504   7.308   1.097   1.707  0.1850 -0.5541 -0.1609
25792SOL     OW82505   3.734   9.455  11.239 -0.3589  0.2997  0.4593
25792SOL    HW182506   3.689   9.452  11.154  1.2163  2.1161 -0.4771
25792SOL    HW282507   3.705   9.537  11.278  1.1936  0.9136  0.3541
25793SOL     OW82508   5.938  10.607   4.426  0.0035  0.0507 -0.0311
25793SOL    HW182509   5.860  10.573   4.382  0.0665 -0.6043  0.3537
25793SOL    HW282510   6.010  10.588   4.366  0.1782 -1.4142  0.6064
25794SOL     OW82511   1.650   0.751   4.680  0.0127 -0.1371 -0.1761
25794SOL    HW182512   1.631   0.659   4.659  1.6021 -0.7152  0.8587
25794SOL    HW282513   1.573   0.780   4.730 -0.5330 -0.8854 -0.5676
25795SOL     OW82514   7.182  10.894   1.708  0.8471  0.1223 -0.1105
25795SOL    HW182515   7.227  10.813   1.730  0.0760  0.0929  1.3842
25795SOL    HW282516   7.237  10.963   1.746  0.7631  0.2161 -0.1588
25796SOL     OW82517   6.498   5.568   0.461 -0.6168  0.4326 -0.2542
25796SOL    HW182518   6.570   5.581   0.522  1.4236  0.9762 -2.6728
25796SOL    HW282519   6.432   5.519   0.510  2.0234 -1.4125  1.5702
25797SOL     OW82520   5.463   5.734   4.230  0.1972  0.3891 -0.2379
25797SOL    HW182521   5.404   5.660   4.246  0.7086  0.1812  0.7710
25797SOL    HW282522   5.537   5.696   4.182 -1.0956  0.9097 -2.7072
25798SOL     OW82523   0.783   5.226   9.508  0.0552 -0.4060  0.3000
25798SOL    HW182524   0.787   5.317   9.479  0.5120 -0.2145  0.9677
25798SOL    HW282525   0.874   5.200   9.519 -0.0818 -0.8812  0.3027
25799SOL     OW82526   3.217   3.957  10.852 -0.2646  0.3880 -0.6299
25799SOL    HW182527   3.307   3.925  10.864 -1.0157 -0.9271  1.7008
25799SOL    HW282528   3.219   4.001  10.767  2.5001  0.0712 -0.7804
25800SOL     OW82529   8.564   9.483   7.887  0.0151  0.3376  0.3435
25800SOL    HW182530   8.470   9.466   7.887  0.0339  0.2365  0.0316
25800SOL    HW282531   8.583   9.515   7.799  0.6708 -1.8968 -0.3640
25801SOL     OW82532   3.160   8.237   2.156  0.9607  0.5366 -0.3328
25801SOL    HW182533   3.066   8.246   2.139  0.6194 -2.6086 -0.5287
25801SOL    HW282534   3.202   8.250   2.071  0.6044  0.9103 -0.4481
25802SOL     OW82535   5.314   3.335   8.021  0.2458 -0.3047  0.0405
25802SOL    HW182536   5.228   3.351   8.059 -1.4715  2.1659 -4.4873
25802SOL    HW282537   5.372   3.397   8.065 -0.9217  0.1062  1.0203
25803SOL     OW82538   5.532  10.837   2.491  0.1023 -0.2352 -0.2416
25803SOL    HW182539   5.563  10.926   2.508 -0.9531  0.3500 -1.2645
25803SOL    HW282540   5.468  10.848   2.420 -0.4080 -1.7444 -0.0195
25804SOL     OW82541   5.050   7.876   0.811 -0.3139 -0.6031 -0.2692
25804SOL    HW182542   5.055   7.847   0.902 -1.0445 -0.3134 -0.1384
25804SOL    HW282543   5.097   7.960   0.811 -1.2812 -0.0517  0.0737
25805SOL     OW82544   6.994   8.564   5.700 -0.0429  0.1744 -0.5414
25805SOL    HW182545   7.002   8.627   5.628 -1.3137  0.5485 -0.3692
25805SOL    HW282546   6.932   8.498   5.668  0.2664 -0.2676 -0.2243
25806SOL     OW82547  10.007  10.642   0.805  0.1462  0.1377 -0.2283
25806SOL    HW182548  10.090  10.608   0.773 -0.8383 -0.8008 -1.8162
25806SOL    HW282549   9.999  10.729   0.765  0.2258  0.1044 -0.3157
25807SOL     OW82550   8.953   6.482   5.259 -0.4663 -0.6454 -0.2096
25807SOL    HW182551   9.020   6.437   5.312  1.3645  1.2631 -0.8279
25807SOL    HW282552   8.922   6.552   5.315 -1.7380 -1.3250 -0.0536
25808SOL     OW82553   0.062   8.344   5.431  0.2547  0.7245 -0.2147
25808SOL    HW182554   0.134   8.407   5.434  0.2866  0.7812 -1.5135
25808SOL    HW282555   0.015   8.357   5.513  1.8882  0.4801  0.7921
25809SOL     OW82556   1.604   3.418   8.451 -0.0584 -0.3941  0.0219
25809SOL    HW182557   1.530   3.475   8.429  1.7030  2.0734  0.3363
25809SOL    HW282558   1.595   3.343   8.391 -2.3266  0.2783 -0.5106
25810SOL     OW82559   0.292   0.700  11.138  0.4511  0.5914 -0.1310
25810SOL    HW182560   0.364   0.709  11.076 -0.2569  0.9475 -0.9017
25810SOL    HW282561   0.269   0.790  11.162 -0.1424  0.5004 -0.3517
25811SOL     OW82562   9.896   5.668   3.288  0.1967  0.4697 -0.1782
25811SOL    HW182563   9.837   5.654   3.361  2.3684  1.4363  1.8398
25811SOL    HW282564   9.969   5.607   3.302  1.7868  2.2976 -0.1909
25812SOL     OW82565   1.773   0.458   3.549  0.0543 -0.0163 -0.4858
25812SOL    HW182566   1.760   0.401   3.624  0.5763 -0.6147 -0.8462
25812SOL    HW282567   1.862   0.491   3.558  0.1697 -0.2092 -0.9251
25813SOL     OW82568   1.302   6.013   3.304  0.0111 -0.3285  0.1428
25813SOL    HW182569   1.377   5.960   3.280 -1.1902 -3.1784  2.3237
25813SOL    HW282570   1.327   6.054   3.387 -0.9724 -1.6343  1.0995
25814SOL     OW82571   7.487   3.155   8.355  0.6942  0.0822 -0.5560
25814SOL    HW182572   7.466   3.214   8.427  1.9030 -1.6381  1.2477
25814SOL    HW282573   7.405   3.107   8.338  0.2305  0.9461 -0.7886
25815SOL     OW82574  10.908   0.186   0.454  0.2787  0.2930 -0.0362
25815SOL    HW182575  10.977   0.186   0.387  0.9746  0.6756  0.6682
25815SOL    HW282576  10.910   0.097   0.490  1.1712  0.6038  0.7340
25816SOL     OW82577   9.775   3.598   1.512 -0.3020 -0.0154  0.6573
25816SOL    HW182578   9.777   3.591   1.416  0.1275  1.4914  0.5423
25816SOL    HW282579   9.788   3.691   1.529 -1.6855 -0.0803  2.1505
25817SOL     OW82580   0.799   4.849   6.085 -0.4565 -0.1009  0.4462
25817SOL    HW182581   0.826   4.813   6.000 -3.4669 -0.5519 -0.3832
25817SOL    HW282582   0.790   4.943   6.069  1.8144  0.2513  1.0828
25818SOL     OW82583   5.525   3.379   1.908  0.4841  0.0702  0.2034
25818SOL    HW182584   5.580   3.311   1.869  0.6117 -0.0685  0.6203
25818SOL    HW282585   5.439   3.337   1.919  0.7076 -0.2016  0.9620
25819SOL     OW82586   7.763   3.179   3.485  0.3948  0.5272  0.2614
25819SOL    HW182587   7.824   3.252   3.475  0.7837  0.1129 -0.4196
25819SOL    HW282588   7.798   3.128   3.558 -1.5114  2.6200  2.7886
25820SOL     OW82589   8.140   8.649   8.424  0.0471 -0.1934 -0.2110
25820SOL    HW182590   8.118   8.561   8.455 -0.1614 -0.1748 -0.3042
25820SOL    HW282591   8.092   8.708   8.482  0.9211 -0.1130  0.4430
25821SOL     OW82592   1.783  10.007   9.019 -0.0415 -0.0587 -0.0725
25821SOL    HW182593   1.696  10.000   8.980  1.6646 -1.2977 -3.9256
25821SOL    HW282594   1.808   9.917   9.038  1.1732  0.1219 -0.7953
25822SOL     OW82595   7.880   9.216   5.245 -0.3594  0.1425 -0.1254
25822SOL    HW182596   7.931   9.218   5.164  1.0027  1.1432  0.7263
25822SOL    HW282597   7.944   9.195   5.314 -1.9521 -3.4322  0.4047
25823SOL     OW82598   9.127   8.858  10.258  0.5450  0.2671 -0.4655
25823SOL    HW182599   9.051   8.909  10.230  0.7538 -0.1294 -1.7903
25823SOL    HW282600   9.117   8.850  10.353 -0.2519  1.5384 -0.4272
25824SOL     OW82601   3.888   0.781   7.090 -0.5849  0.2745 -0.6355
25824SOL    HW182602   3.798   0.800   7.118 -0.5018  1.5685 -1.2084
25824SOL    HW282603   3.929   0.867   7.082  1.3732 -0.3943  1.7611
25825SOL     OW82604   6.263   8.769   3.813  0.1087  0.0542 -0.0565
25825SOL    HW182605   6.181   8.793   3.772  0.3283 -1.7065 -1.5648
25825SOL    HW282606   6.329   8.778   3.744  0.8338 -0.7043  0.5220
25826SOL     OW82607   2.667   1.814   0.616 -0.4218 -0.4138  0.1937
25826SOL    HW182608   2.737   1.753   0.638 -1.4645 -1.8567 -0.3692
25826SOL    HW282609   2.632   1.782   0.533  0.5972  2.3954 -1.4050
25827SOL     OW82610   6.462   0.581   7.154 -0.7634 -0.9729 -0.2039
25827SOL    HW182611   6.450   0.610   7.064  0.1826  0.5915  0.1429
25827SOL    HW282612   6.374   0.578   7.191 -1.0173  0.1178 -0.6891
25828SOL     OW82613   4.452  11.198   7.464 -0.5960  0.1822  0.6597
25828SOL    HW182614   4.512  11.257   7.509  0.5750 -1.1807  0.9098
25828SOL    HW282615   4.459  11.222   7.371 -1.9509  2.0359  0.9878
25829SOL     OW82616   1.198  10.538   4.521  0.0550 -0.4616  0.0674
25829SOL    HW182617   1.248  10.608   4.478  0.3156 -0.3608  0.5296
25829SOL    HW282618   1.262  10.495   4.578  0.0337 -1.4367 -0.6415
25830SOL     OW82619   8.218   1.956   0.620  0.3286 -0.6937  0.1488
25830SOL    HW182620   8.137   1.950   0.569 -0.3756 -0.0477  1.1729
25830SOL    HW282621   8.240   2.049   0.620  0.3133 -0.6817  1.0261
25831SOL     OW82622   3.802   3.836   7.605 -0.0966 -0.2642 -0.2302
25831SOL    HW182623   3.790   3.743   7.583 -2.1801 -0.4665  1.4989
25831SOL    HW282624   3.881   3.838   7.659  0.0316 -1.0208 -0.3790
25832SOL     OW82625   5.525   2.948   6.626  0.4403  0.0616  0.0551
25832SOL    HW182626   5.530   2.891   6.703  0.2543 -0.3580 -0.2406
25832SOL    HW282627   5.573   2.901   6.558 -1.6504 -0.8366 -0.8587
25833SOL     OW82628   1.390   6.873   8.144  0.2385  0.5549 -0.0992
25833SOL    HW182629   1.440   6.865   8.063 -1.0471  1.0365 -0.9703
25833SOL    HW282630   1.364   6.965   8.147 -2.4061 -0.1272 -0.8082
25834SOL     OW82631   8.858   2.468   8.407  0.2223 -0.2118  0.3924
25834SOL    HW182632   8.783   2.484   8.348  0.0603  2.2267  1.2108
25834SOL    HW282633   8.934   2.498   8.357  0.3553 -0.2791  0.5549
25835SOL     OW82634   3.276  11.075   8.572 -0.3164 -0.3502  0.2480
25835SOL    HW182635   3.241  11.005   8.627 -0.6309 -1.0752 -0.8614
25835SOL    HW282636   3.202  11.105   8.521 -0.1903  0.8320  0.7329
25836SOL     OW82637   9.324   4.902   8.924 -0.1613 -1.0491 -0.2392
25836SOL    HW182638   9.398   4.904   8.863 -0.0451 -1.7174 -0.1315
25836SOL    HW282639   9.317   4.991   8.957 -1.8064 -0.0928 -3.0720
25837SOL     OW82640   4.621  10.851   5.799 -0.5288  0.1502 -0.4252
25837SOL    HW182641   4.603  10.905   5.875 -1.8178  0.3499 -0.8564
25837SOL    HW282642   4.715  10.862   5.783 -0.3645  0.5584  0.7736
25838SOL     OW82643   0.490   2.811   2.590  0.7658  0.3854 -0.9405
25838SOL    HW182644   0.454   2.730   2.626  0.8203  0.0414 -1.6637
25838SOL    HW282645   0.461   2.879   2.652 -0.9088  0.0817 -1.3607
25839SOL     OW82646   0.171  10.744   4.676 -0.1213 -0.1549  0.2616
25839SOL    HW182647   0.138  10.810   4.737  0.6468  0.6703 -0.2068
25839SOL    HW282648   0.110  10.746   4.603  0.3735  0.6515 -0.1407
25840SOL     OW82649  11.154   9.306   7.738 -0.0128 -0.2085  0.0648
25840SOL    HW182650  11.101   9.264   7.670 -0.9825  0.5004  0.3631
25840SOL    HW282651  11.196   9.379   7.694  0.3618 -0.5059 -0.0700
25841SOL     OW82652   1.111   6.830   2.875 -0.6538 -0.6546 -1.0503
25841SOL    HW182653   1.092   6.897   2.811  2.5944  0.6854 -0.7021
25841SOL    HW282654   1.062   6.856   2.953  0.9464  1.5975 -0.7703
25842SOL     OW82655   0.808   3.255   3.883 -0.0997  0.0572 -0.5112
25842SOL    HW182656   0.788   3.163   3.869  0.5931 -0.2472  0.4417
25842SOL    HW282657   0.902   3.257   3.902 -0.6679  0.5602  2.6200
25843SOL     OW82658   3.289   6.469   6.986 -0.1811  0.4263  0.5512
25843SOL    HW182659   3.295   6.516   7.069 -0.3787  0.9043  0.2961
25843SOL    HW282660   3.380   6.456   6.960 -0.1332  1.0902  0.3873
25844SOL     OW82661   9.252   0.773   8.831 -0.2419 -0.1255  0.5723
25844SOL    HW182662   9.302   0.694   8.852 -0.4047 -0.3249  0.2176
25844SOL    HW282663   9.286   0.802   8.747 -1.8118 -1.1831 -0.4638
25845SOL     OW82664  10.485   6.420   3.784  0.2419 -0.2999  0.1072
25845SOL    HW182665  10.428   6.496   3.779  0.7350  0.1217  0.8314
25845SOL    HW282666  10.454   6.362   3.714 -1.3524 -0.2629  0.7605
25846SOL     OW82667   5.901   5.147   2.419 -0.1668 -0.1474  0.1740
25846SOL    HW182668   5.845   5.105   2.353 -1.0796  0.7896  0.3473
25846SOL    HW282669   5.867   5.236   2.427 -0.1115 -0.2609  1.9660
25847SOL     OW82670   9.523   7.494   2.496  0.7514  0.2000 -0.4210
25847SOL    HW182671   9.557   7.532   2.414 -1.6521  0.5588 -1.2891
25847SOL    HW282672   9.560   7.550   2.564  1.5123  0.8658 -1.3495
25848SOL     OW82673   3.480   2.845   2.657 -0.0052  0.0584  0.8587
25848SOL    HW182674   3.524   2.929   2.647 -0.6472  0.1127 -1.9877
25848SOL    HW282675   3.539   2.781   2.617 -1.4179 -0.1774 -0.9624
25849SOL     OW82676   3.606   3.998   7.726 -0.6176  0.8493  0.4882
25849SOL    HW182677   3.671   3.951   7.674 -2.0445 -0.6868  0.0683
25849SOL    HW282678   3.598   3.947   7.807 -2.0873  0.4016  0.0807
25850SOL     OW82679   4.465   4.178   4.127 -0.0735 -0.3416 -0.1227
25850SOL    HW182680   4.394   4.121   4.157 -0.5584 -0.0556 -0.7384
25850SOL    HW282681   4.436   4.211   4.042  0.4627  0.3691 -0.0323
25851SOL     OW82682   2.532   4.935   2.434  0.1096  0.2079 -0.1724
25851SOL    HW182683   2.542   4.937   2.339 -1.2663  1.1071 -0.3031
25851SOL    HW282684   2.519   4.843   2.454 -0.7742  0.1531 -0.9768
25852SOL     OW82685   8.070   6.327   5.323  0.2878 -0.2175 -0.4191
25852SOL    HW182686   8.124   6.281   5.259 -0.0724 -0.2000 -0.7394
25852SOL    HW282687   7.986   6.280   5.321  0.8275 -1.3162  1.3014
25853SOL     OW82688   3.066   7.517   3.197 -0.3828 -0.2806  0.2967
25853SOL    HW182689   2.982   7.530   3.154  0.2205  0.3052 -0.7524
25853SOL    HW282690   3.118   7.593   3.170 -0.2794  0.5536  2.8123
25854SOL     OW82691   7.067   4.650   8.342 -0.1747 -0.5768  0.5275
25854SOL    HW182692   7.148   4.651   8.291 -2.0816  2.9862 -2.7072
25854SOL    HW282693   7.085   4.709   8.416 -0.0314  0.9766 -0.6988
25855SOL     OW82694  10.868  11.203   1.636  0.1291 -0.0038  0.5930
25855SOL    HW182695  10.838  11.143   1.569  0.6634 -0.5723  0.8551
25855SOL    HW282696  10.941  11.157   1.679  0.2816  0.6582  1.0581
25856SOL     OW82697   1.060   7.507  10.202 -0.2181  0.3337 -0.0120
25856SOL    HW182698   1.109   7.577  10.159  0.3605  1.0549  1.7619
25856SOL    HW282699   1.087   7.512  10.294  1.3638 -3.5315 -0.2053
25857SOL     OW82700   6.522   9.528   0.701 -0.0938  0.1367  0.4442
25857SOL    HW182701   6.574   9.489   0.772 -1.8969 -1.7491  0.7789
25857SOL    HW282702   6.545   9.475   0.624  0.4176  0.9659  0.0173
25858SOL     OW82703   1.757   8.410   0.159 -0.0178 -0.1510  0.3831
25858SOL    HW182704   1.727   8.444   0.243 -1.0473 -2.4664  0.9863
25858SOL    HW282705   1.684   8.426   0.099 -0.0494 -0.2426  0.3969
25859SOL     OW82706  11.306   7.786   3.965  0.1229  0.0927 -0.8585
25859SOL    HW182707  11.328   7.834   3.885 -1.1546  1.1702 -0.5886
25859SOL    HW282708  11.265   7.705   3.934 -0.0651  0.3555 -1.3014
25860SOL     OW82709   9.369   1.719   9.619  0.3017  0.5665 -0.5588
25860SOL    HW182710   9.422   1.651   9.660 -0.0506  0.6273  0.0085
25860SOL    HW282711   9.316   1.672   9.554  0.9174  0.4822 -1.0055
25861SOL     OW82712   4.957   6.549   0.281  0.4967  0.0965  0.2495
25861SOL    HW182713   5.004   6.475   0.320 -0.8684 -0.7055  0.4091
25861SOL    HW282714   4.991   6.555   0.192  0.3993 -0.9311  0.1362
25862SOL     OW82715   3.627   7.247   1.246 -0.5432  0.8076 -0.5842
25862SOL    HW182716   3.665   7.236   1.159 -0.4710 -2.5330 -0.1742
25862SOL    HW282717   3.537   7.275   1.230  0.0908  2.3468 -1.6474
25863SOL     OW82718   4.781   8.485   1.527 -0.0460  0.1551  0.3775
25863SOL    HW182719   4.714   8.458   1.590 -0.6931  0.0528 -0.3454
25863SOL    HW282720   4.747   8.565   1.488  1.4945  1.6142  1.9220
25864SOL     OW82721   5.269  10.394   7.348 -0.7227  0.0094  0.4832
25864SOL    HW182722   5.203  10.394   7.278  0.9346  3.5159 -1.1935
25864SOL    HW282723   5.221  10.422   7.426 -1.7405  0.0216 -0.1344
25865SOL     OW82724   4.096   1.421   7.482 -0.3381  0.0573  0.1692
25865SOL    HW182725   4.152   1.499   7.484 -2.1421  1.3909  0.7389
25865SOL    HW282726   4.130   1.368   7.411  2.0934  0.4743  0.9798
25866SOL     OW82727   1.400   4.596  10.009  0.0600  0.4377 -0.1529
25866SOL    HW182728   1.309   4.576  10.031  0.3143 -0.4263  0.1412
25866SOL    HW282729   1.393   4.662   9.940 -0.7876  0.5049 -0.0186
25867SOL     OW82730  11.245  10.145   3.572 -0.7531 -0.3206 -0.2860
25867SOL    HW182731  11.264  10.220   3.628  1.0361 -0.7309 -0.2925
25867SOL    HW282732  11.225  10.183   3.486 -0.6268  0.1811 -0.0920
25868SOL     OW82733   1.984   6.922   7.898  0.3355 -0.2275 -0.2155
25868SOL    HW182734   1.911   6.874   7.858 -0.2277  0.6981 -0.3104
25868SOL    HW282735   2.049   6.855   7.917 -0.8937 -1.1965  0.6548
25869SOL     OW82736   4.206   7.323   5.384 -0.2370  0.0699  0.2112
25869SOL    HW182737   4.260   7.266   5.439 -0.7040 -0.3474  0.2353
25869SOL    HW282738   4.120   7.281   5.382 -0.4368  0.4933 -0.2041
25870SOL     OW82739   9.918   3.301   9.519  0.4083 -0.0117 -0.6550
25870SOL    HW182740   9.883   3.372   9.572  0.0364 -0.8091  0.1695
25870SOL    HW282741  10.008   3.291   9.549 -0.9236 -3.1016  2.6774
25871SOL     OW82742   5.669   9.870   4.824  0.2416 -0.2271  0.5829
25871SOL    HW182743   5.759   9.843   4.844  1.5534  2.0854 -1.8726
25871SOL    HW282744   5.679   9.947   4.768 -3.3090  0.9481  1.4597
25872SOL     OW82745   2.489   0.837   4.652 -0.3472  0.1873 -0.2909
25872SOL    HW182746   2.559   0.826   4.717 -1.2665 -0.6793  0.5880
25872SOL    HW282747   2.497   0.927   4.621  2.2596 -0.4299 -1.5080
25873SOL     OW82748  10.263   1.583   6.611  0.4297 -0.4546 -0.1435
25873SOL    HW182749  10.252   1.676   6.631  0.6456 -0.5375  0.3759
25873SOL    HW282750  10.200   1.565   6.541  0.2721  0.0432 -0.1248
25874SOL     OW82751   4.705   7.154   5.932  0.1463  0.5754  0.2740
25874SOL    HW182752   4.659   7.234   5.958  0.1420 -0.0485  2.2922
25874SOL    HW282753   4.796   7.170   5.953  0.1831  0.1452  0.4619
25875SOL     OW82754   3.317  11.189   2.481 -0.0899  0.1650  0.0600
25875SOL    HW182755   3.258  11.248   2.528 -1.0803 -1.8441  1.4171
25875SOL    HW282756   3.366  11.145   2.550 -0.6969 -1.9467 -0.8345
25876SOL     OW82757  10.088   3.857   2.365  0.0795  0.4780  1.0579
25876SOL    HW182758  10.020   3.925   2.367  0.7435  1.2247 -0.5293
25876SOL    HW282759  10.074   3.811   2.283  0.5856 -0.3212  1.4115
25877SOL     OW82760  11.297   1.644  10.433  0.4689 -0.4246 -0.1741
25877SOL    HW182761  11.383   1.671  10.466  0.1964  0.9723 -0.5925
25877SOL    HW282762  11.310   1.631  10.339 -0.1402  1.3386 -0.5170
25878SOL     OW82763   9.655   4.101   1.076 -0.9094  1.1012 -0.1028
25878SOL    HW182764   9.725   4.049   1.116 -1.4196  0.3886 -0.1300
25878SOL    HW282765   9.600   4.129   1.149 -0.2991  2.1131 -0.0260
25879SOL     OW82766   0.277   8.987   3.408  0.4815 -0.3913 -0.3866
25879SOL    HW182767   0.269   8.984   3.313  0.3468  0.4946 -0.4073
25879SOL    HW282768   0.370   8.975   3.424  0.7930  1.3149 -0.7363
25880SOL     OW82769   1.090   5.005   8.815 -0.9207  0.0884 -0.1676
25880SOL    HW182770   1.028   5.063   8.859 -0.8714 -0.5057  0.6925
25880SOL    HW282771   1.121   5.055   8.739  0.6473  1.9815  1.6664
25881SOL     OW82772   4.941   7.647   0.759  0.3047  0.0452  0.3242
25881SOL    HW182773   4.991   7.727   0.775 -1.0925  0.7135  1.3790
25881SOL    HW282774   4.992   7.601   0.692  1.3759  1.5748  0.0525
25882SOL     OW82775   3.654   2.868   8.605 -0.2663 -0.3377  0.3954
25882SOL    HW182776   3.571   2.882   8.651  0.8368  1.2233  1.9582
25882SOL    HW282777   3.631   2.878   8.512 -2.0139 -0.9623  0.7294
25883SOL     OW82778   5.833   1.734   3.167  0.8188 -0.5025 -0.1726
25883SOL    HW182779   5.867   1.810   3.215 -2.9026  1.1303  0.0244
25883SOL    HW282780   5.781   1.686   3.231 -1.7494  0.0710 -1.7723
25884SOL     OW82781   1.991   9.639   1.167  0.7835 -0.6926 -0.0349
25884SOL    HW182782   1.972   9.552   1.132  1.5842 -0.1601 -1.8500
25884SOL    HW282783   2.086   9.643   1.172  0.6690 -1.2918  3.6787
25885SOL     OW82784   2.514   7.779   1.560 -0.7134 -0.0763  0.4438
25885SOL    HW182785   2.502   7.690   1.526 -0.9375  0.6484 -1.4128
25885SOL    HW282786   2.540   7.831   1.483 -0.3402  1.4147  1.5559
25886SOL     OW82787   5.114  10.500   8.991  0.5810 -0.3260  0.0166
25886SOL    HW182788   5.155  10.419   9.020  3.1812  0.3129 -1.6966
25886SOL    HW282789   5.099  10.488   8.898  1.0071  1.1231 -0.2588
25887SOL     OW82790   4.704   4.106   4.057  0.0362  0.2130 -0.3274
25887SOL    HW182791   4.624   4.119   4.107  0.5727 -1.0513  0.8670
25887SOL    HW282792   4.674   4.089   3.968 -0.9562  1.2109 -0.1993
25888SOL     OW82793   7.298   3.982   6.832  0.8074  0.4155  0.8544
25888SOL    HW182794   7.294   4.075   6.852 -0.3155  0.8949 -1.3881
25888SOL    HW282795   7.320   3.978   6.739 -1.6358 -1.4819  0.3026
25889SOL     OW82796   2.875   9.002  10.483  0.2493 -0.2070 -0.2061
25889SOL    HW182797   2.855   9.000  10.577  1.8758 -1.3069  0.1195
25889SOL    HW282798   2.913   8.917  10.464  2.1686  0.8691 -1.3662
25890SOL     OW82799   0.616   4.953   1.351  0.7380  0.1526  0.5615
25890SOL    HW182800   0.571   4.925   1.431 -0.5789  1.0608  0.1633
25890SOL    HW282801   0.645   5.042   1.370 -2.5232  1.6671 -1.0748
25891SOL     OW82802   0.185   7.163   3.258 -0.3006  0.8723 -0.0982
25891SOL    HW182803   0.111   7.167   3.197  0.6011 -0.4744 -1.3281
25891SOL    HW282804   0.219   7.074   3.249  1.6870  1.5652  0.1676
25892SOL     OW82805  10.973  10.544   9.497 -0.2944 -0.2443  0.3426
25892SOL    HW182806  10.955  10.489   9.573 -0.6505  0.3830  0.7169
25892SOL    HW282807  10.887  10.561   9.459 -0.1647 -0.1372  0.0984
25893SOL     OW82808   4.914   9.340   3.299 -0.0054 -0.0684  0.3120
25893SOL    HW182809   5.004   9.356   3.328  0.9825 -1.0436 -2.0703
25893SOL    HW282810   4.861   9.401   3.351  1.8435 -0.4672  2.7569
25894SOL     OW82811   8.333   4.388   8.321  0.3771  0.1808 -0.6305
25894SOL    HW182812   8.313   4.295   8.316 -2.9001  0.8101 -0.1025
25894SOL    HW282813   8.378   4.408   8.239 -2.6891 -1.0139 -2.6705
25895SOL     OW82814   8.223   5.613   4.569  0.0115 -0.9859 -0.0854
25895SOL    HW182815   8.195   5.521   4.568 -1.5827 -0.5198  0.2488
25895SOL    HW282816   8.291   5.617   4.636  0.4862 -2.0385 -0.4983
25896SOL     OW82817   9.333   3.952   2.968  0.5713 -0.1417  0.6099
25896SOL    HW182818   9.397   3.902   3.020  0.6143 -0.2065  0.4932
25896SOL    HW282819   9.358   3.936   2.877  1.1207  0.8074  0.5890
25897SOL     OW82820   2.973   6.690   6.617 -0.5615 -0.5274 -0.4324
25897SOL    HW182821   3.039   6.639   6.664 -0.2575  0.3528  0.1133
25897SOL    HW282822   2.901   6.697   6.680 -0.5638 -0.2039 -0.4732
25898SOL     OW82823   4.703  11.029   9.450  0.5445  0.0138 -0.2494
25898SOL    HW182824   4.652  10.952   9.425  0.7198 -0.2936  0.3237
25898SOL    HW282825   4.787  11.019   9.405  0.6452 -0.2427 -0.0079
25899SOL     OW82826   7.363   2.089   4.267  0.2498  0.2479  1.0289
25899SOL    HW182827   7.353   2.029   4.342 -0.6670  1.0176  1.5302
25899SOL    HW282828   7.325   2.040   4.193  0.6992 -0.3148  1.1651
25900SOL     OW82829  11.169  11.081   5.153  0.5582  0.2644  0.1838
25900SOL    HW182830  11.078  11.102   5.130  0.2441 -0.9702  0.2594
25900SOL    HW282831  11.168  11.071   5.248  0.8789  0.7014  0.2363
25901SOL     OW82832   5.054   2.436   8.691 -0.5632  0.5236  0.1768
25901SOL    HW182833   5.050   2.356   8.744 -0.8965 -0.0967 -0.7831
25901SOL    HW282834   5.066   2.506   8.755 -2.2469 -0.0872  1.1958
25902SOL     OW82835   0.825   5.287   0.092 -0.7766 -0.2685 -0.6558
25902SOL    HW182836   0.895   5.221   0.097  0.8104  1.3694 -0.6784
25902SOL    HW282837   0.753   5.250   0.144  0.4508 -1.5627  0.1609
25903SOL     OW82838   9.507  10.310   3.232  0.0175  0.2200  0.1258
25903SOL    HW182839   9.476  10.222   3.254  0.1820 -0.3468 -1.8340
25903SOL    HW282840   9.571  10.296   3.162 -0.0882  1.9079 -0.3235
25904SOL     OW82841   1.880   6.331   1.517  0.6407 -0.7198  0.0888
25904SOL    HW182842   1.938   6.407   1.517 -0.7433  0.3626  0.6798
25904SOL    HW282843   1.805   6.358   1.570 -1.3724 -1.3515 -2.3519
25905SOL     OW82844   9.174   6.357   9.895 -0.2123  0.5453  0.3460
25905SOL    HW182845   9.166   6.452   9.902 -0.0540  0.5050  1.0931
25905SOL    HW282846   9.216   6.343   9.810 -1.6510  1.0637 -0.4654
25906SOL     OW82847   6.161   5.210   5.420  0.1295  0.1077 -0.1618
25906SOL    HW182848   6.130   5.232   5.508 -0.9887 -0.8281 -0.3066
25906SOL    HW282849   6.081   5.195   5.370  0.7953 -0.7685 -0.9721
25907SOL     OW82850  10.940   9.591   1.633  0.3358 -0.1153 -0.0189
25907SOL    HW182851  10.901   9.656   1.692  0.3174  0.8849 -1.0994
25907SOL    HW282852  10.926   9.628   1.546  1.8516 -0.7592 -0.5388
25908SOL     OW82853  10.305   4.920   5.605 -0.8018 -0.7703  0.2011
25908SOL    HW182854  10.366   4.988   5.633  0.5616 -1.2967 -1.4335
25908SOL    HW282855  10.274   4.949   5.519 -1.3667 -1.4872  0.1514
25909SOL     OW82856   1.074   7.721   3.666 -0.1959  0.2926  0.2704
25909SOL    HW182857   1.150   7.701   3.612  0.7323  1.9907  0.9057
25909SOL    HW282858   1.074   7.655   3.734  0.7133  0.2932  0.2653
25910SOL     OW82859  11.045   6.023   6.237  0.0189  0.0757  0.2558
25910SOL    HW182860  11.099   5.967   6.293  4.5955  3.7869 -0.1585
25910SOL    HW282861  11.053   5.985   6.150 -0.5795 -1.1217  0.7069
25911SOL     OW82862   9.320   6.919  11.138  0.2336  0.3769  0.4912
25911SOL    HW182863   9.286   7.008  11.153 -1.1853 -0.0486 -0.1806
25911SOL    HW282864   9.242   6.863  11.139  0.8672 -0.5711 -1.4397
25912SOL     OW82865  11.311  10.319   4.406 -0.2758 -0.0157  0.0295
25912SOL    HW182866  11.243  10.353   4.465 -0.2726  0.4564 -0.2391
25912SOL    HW282867  11.275  10.329   4.318  0.3753  0.7747 -0.1509
25913SOL     OW82868   8.425   5.900   1.690 -0.5250 -0.0465  0.2386
25913SOL    HW182869   8.428   5.992   1.716 -0.0890  0.9056 -2.9342
25913SOL    HW282870   8.516   5.877   1.671 -0.6410 -1.1030  0.9375
25914SOL     OW82871   6.600   0.083   3.760 -0.6986 -0.5360  0.5687
25914SOL    HW182872   6.672   0.051   3.814 -0.5791 -2.1339 -0.5091
25914SOL    HW282873   6.541   0.008   3.751 -2.8933  0.9671  2.0628
25915SOL     OW82874  11.275   4.478   7.701 -0.0566 -0.5177  0.0508
25915SOL    HW182875  11.343   4.447   7.762 -0.1292 -0.7314  0.0227
25915SOL    HW282876  11.194   4.476   7.753 -0.0327 -0.1967  0.1052
25916SOL     OW82877   5.072   4.568   6.685 -0.3153  0.6324  0.5997
25916SOL    HW182878   5.059   4.594   6.594  0.0621  1.0051  0.6473
25916SOL    HW282879   5.167   4.569   6.697 -0.2470 -1.5725  0.3886
25917SOL     OW82880   0.112   8.336   8.631 -0.1431  0.1025 -0.6268
25917SOL    HW182881   0.156   8.401   8.684 -1.8121  0.7204  0.0289
25917SOL    HW282882   0.183   8.288   8.588  1.1704  0.5874  0.9542
25918SOL     OW82883   0.866  10.326   3.370  0.2673  0.3377  0.0251
25918SOL    HW182884   0.920  10.282   3.436 -0.4152 -1.4240 -0.5449
25918SOL    HW282885   0.899  10.415   3.367  0.0126  0.5988  3.0838
25919SOL     OW82886   9.247   0.805   4.410  0.4908 -1.0217  0.2322
25919SOL    HW182887   9.339   0.827   4.394  0.7809 -2.6047 -0.3619
25919SOL    HW282888   9.248   0.712   4.433 -1.0452 -1.2523 -0.5422
25920SOL     OW82889   3.737   4.425   5.903  0.5304  0.4693  0.4599
25920SOL    HW182890   3.656   4.396   5.944 -1.4594  0.9182 -2.9276
25920SOL    HW282891   3.736   4.520   5.911  0.9372  0.4429  0.8152
25921SOL     OW82892   4.349  10.267  11.005  0.1692  0.1082 -0.2469
25921SOL    HW182893   4.382  10.186  11.045 -0.2407  0.3551  0.6036
25921SOL    HW282894   4.270  10.287  11.055 -1.0094 -0.2127 -1.9310
25922SOL     OW82895   9.559   4.894   1.459  0.0136 -0.0183  0.2757
25922SOL    HW182896   9.493   4.851   1.404 -0.4926  0.6844  0.3373
25922SOL    HW282897   9.633   4.907   1.400  0.6839 -2.1806  0.5853
25923SOL     OW82898   3.416   2.275   0.805  0.6535  0.5187 -0.0931
25923SOL    HW182899   3.337   2.313   0.766  1.1043  1.2215 -0.3205
25923SOL    HW282900   3.403   2.283   0.899 -0.0387 -0.3640 -0.1098
25924SOL     OW82901  10.594   1.747   9.739 -0.2027 -0.0033  0.2643
25924SOL    HW182902  10.637   1.783   9.817  3.2504  0.1866 -1.6025
25924SOL    HW282903  10.620   1.806   9.669 -3.0893 -0.2943 -1.0922
25925SOL     OW82904   2.631   9.808   8.725 -0.3211 -0.3468  0.0139
25925SOL    HW182905   2.694   9.881   8.720  0.0233 -0.6528 -0.1140
25925SOL    HW282906   2.660   9.756   8.800 -0.0980 -0.7915 -0.3786
25926SOL     OW82907   9.429   2.580   3.212 -0.2592 -0.1645 -0.1210
25926SOL    HW182908   9.472   2.498   3.188 -0.3368 -0.0269 -0.7242
25926SOL    HW282909   9.401   2.618   3.129  0.4165  0.8271  0.1005
25927SOL     OW82910  10.124   9.296   0.731 -0.2910  0.2755 -0.4641
25927SOL    HW182911  10.033   9.289   0.760 -0.2066 -1.3119 -0.5060
25927SOL    HW282912  10.168   9.343   0.801 -0.9673  0.2656 -0.0221
25928SOL     OW82913   4.084   1.320  10.265  0.0076 -0.1807  0.3479
25928SOL    HW182914   4.105   1.351  10.353 -0.3130 -0.1934  0.4326
25928SOL    HW282915   4.073   1.225  10.275  2.6482 -0.5855 -0.2326
25929SOL     OW82916   7.608   0.495   1.952 -0.7006  0.4390  0.3248
25929SOL    HW182917   7.608   0.457   1.864 -0.7690  2.7410 -0.6898
25929SOL    HW282918   7.700   0.515   1.969 -0.6159 -0.5418  1.0157
25930SOL     OW82919   2.460   5.622   2.131  0.3248 -0.0107  0.1942
25930SOL    HW182920   2.502   5.699   2.092 -0.3276 -0.1002 -0.7039
25930SOL    HW282921   2.389   5.600   2.070 -0.2480 -0.5985  1.0593
25931SOL     OW82922   0.506   9.322   2.257 -0.0718  0.2497 -0.6775
25931SOL    HW182923   0.443   9.327   2.329  1.7437  0.2664  0.9537
25931SOL    HW282924   0.470   9.255   2.199 -0.2810 -1.6706  1.5690
25932SOL     OW82925   8.136   0.161   2.391  0.6164 -0.0708 -0.9971
25932SOL    HW182926   8.114   0.078   2.350 -0.0142  0.1545 -1.1153
25932SOL    HW282927   8.074   0.224   2.353  0.7410  0.3445 -0.5135
25933SOL     OW82928   7.495   5.431   8.584 -0.3862 -0.3515 -0.0938
25933SOL    HW182929   7.586   5.402   8.587 -0.0657  0.7125  1.1289
25933SOL    HW282930   7.497   5.519   8.622 -2.0399 -0.6050  0.6215
25934SOL     OW82931   1.698   6.276   6.672 -0.0803 -0.1182  0.3494
25934SOL    HW182932   1.794   6.271   6.671 -0.0023  1.2592  0.6796
25934SOL    HW282933   1.670   6.193   6.711  0.9593 -0.6370  0.0212
25935SOL     OW82934   3.936  10.252   1.617 -0.0346  0.2829 -0.3559
25935SOL    HW182935   3.893  10.332   1.646 -0.0910 -0.1425  0.7577
25935SOL    HW282936   3.870  10.207   1.563 -1.4712 -0.9565  2.3438
25936SOL     OW82937   7.082   5.507   5.135 -0.2261  0.2188  0.6378
25936SOL    HW182938   7.044   5.515   5.047 -1.0859 -2.1340  0.7503
25936SOL    HW282939   7.176   5.518   5.122 -0.4147  0.6454 -0.4465
25937SOL     OW82940  10.661   1.092   4.756 -0.2084 -0.2659 -0.2245
25937SOL    HW182941  10.601   1.036   4.805  0.0771 -0.3440  0.0375
25937SOL    HW282942  10.740   1.039   4.744  0.2247  0.2227  0.3975
25938SOL     OW82943   9.525   9.815   3.590  0.0962 -0.4413  0.6609
25938SOL    HW182944   9.540   9.829   3.684  1.7254  1.5290  0.1438
25938SOL    HW282945   9.456   9.750   3.586 -0.8859  0.4003  3.2496
25939SOL     OW82946   6.190   3.934   3.160  0.3667  0.0143 -0.8887
25939SOL    HW182947   6.127   3.971   3.099 -1.5860  0.1913  1.1695
25939SOL    HW282948   6.183   3.839   3.148  0.0171  0.0499 -0.9658
25940SOL     OW82949   8.002   3.234   6.282 -0.3052  0.3526 -0.7117
25940SOL    HW182950   7.966   3.187   6.357  2.1055 -3.5379 -1.8543
25940SOL    HW282951   8.093   3.251   6.306 -0.0642  0.8824 -1.9571
25941SOL     OW82952  10.020   8.953   2.714 -0.8523  0.2864 -0.2560
25941SOL    HW182953  10.020   9.042   2.749 -2.2158  0.2851 -0.2278
25941SOL    HW282954  10.112   8.937   2.690 -0.2243  0.9512  1.5895
25942SOL     OW82955   1.476   3.215   4.192  0.1393 -0.4567  0.3821
25942SOL    HW182956   1.430   3.131   4.192  0.7613 -0.7955  0.3202
25942SOL    HW282957   1.548   3.202   4.253  0.1745  0.0686  0.4508
25943SOL     OW82958   8.177   1.081  11.265 -0.0548 -0.4936  0.2782
25943SOL    HW182959   8.210   0.992  11.262  0.6229 -0.2647  0.7881
25943SOL    HW282960   8.122   1.090  11.186 -1.6396 -1.9347  1.1873
25944SOL     OW82961   3.698   9.076  11.003 -0.1806  0.4405  0.2927
25944SOL    HW182962   3.665   8.986  11.000 -0.3240  0.4363  1.5830
25944SOL    HW282963   3.775   9.072  11.059 -0.6317  1.2434  0.9942
25945SOL     OW82964   5.029   0.321   8.095  0.0198 -0.0582  0.0824
25945SOL    HW182965   5.052   0.351   8.007 -0.4643 -0.5968 -0.2341
25945SOL    HW282966   5.027   0.401   8.148 -2.2622  0.6281 -0.9726
25946SOL     OW82967   0.876   2.904   3.309 -0.3906  0.2806  0.2773
25946SOL    HW182968   0.916   2.951   3.236 -1.1815  0.4166 -0.0721
25946SOL    HW282969   0.862   2.971   3.376 -1.8958  0.6363 -0.3772
25947SOL     OW82970   1.956   8.760   4.070  0.2096  0.0063 -0.1040
25947SOL    HW182971   2.044   8.795   4.058  0.3503  0.0260  0.8962
25947SOL    HW282972   1.950   8.687   4.008  1.1444 -0.3781  0.2540
25948SOL     OW82973   2.358   4.914   8.655  0.2063  0.3175 -0.0260
25948SOL    HW182974   2.374   4.878   8.568  2.0542 -0.2589  0.5309
25948SOL    HW282975   2.269   4.950   8.650  0.2702  0.2535 -2.1250
25949SOL     OW82976   8.748   7.359   6.089  0.1276  0.5081 -0.6725
25949SOL    HW182977   8.780   7.361   5.999  1.3378  0.7863 -0.2446
25949SOL    HW282978   8.702   7.443   6.101 -0.5510  0.2202 -1.2028
25950SOL     OW82979   4.952   7.894   1.394 -0.2034 -0.1281  0.0238
25950SOL    HW182980   4.916   7.812   1.361 -0.6389 -0.3554  1.0285
25950SOL    HW282981   4.936   7.890   1.488 -0.5619  1.2748  0.0277
25951SOL     OW82982   5.493   3.688   7.621 -0.0483 -0.1127 -0.2909
25951SOL    HW182983   5.505   3.747   7.546  1.8699  1.7420  1.3845
25951SOL    HW282984   5.582   3.666   7.649 -0.7118 -0.3374  1.7512
25952SOL     OW82985   2.252   1.618   2.994  0.1294  0.7104 -0.2982
25952SOL    HW182986   2.224   1.629   2.903  1.2878  0.5125 -0.6777
25952SOL    HW282987   2.209   1.689   3.041 -0.1974  1.0179 -1.0565
25953SOL     OW82988   2.881  10.320   7.275 -0.1446 -0.4514 -0.2929
25953SOL    HW182989   2.815  10.251   7.277 -1.0159  0.3646 -0.4518
25953SOL    HW282990   2.878  10.359   7.362  0.6206 -0.8511 -0.0779
25954SOL     OW82991   4.446  11.016   0.974 -0.0631  0.0480 -0.0350
25954SOL    HW182992   4.525  11.016   1.028 -1.8978  1.2390  2.7879
25954SOL    HW282993   4.437  11.106   0.945 -0.0359 -0.2252 -0.8992
25955SOL     OW82994   8.467   6.815   1.031  0.3589  0.3609  0.2526
25955SOL    HW182995   8.423   6.897   1.008  0.6888  0.5378  0.2506
25955SOL    HW282996   8.435   6.794   1.119  0.8141  0.8587  0.5358
25956SOL     OW82997   1.803   4.238   0.375 -0.4143  0.5328 -0.6459
25956SOL    HW182998   1.860   4.286   0.435 -0.1366 -0.2401 -0.2756
25956SOL    HW282999   1.717   4.276   0.388 -0.4678 -0.0212  0.6880
25957SOL     OW83000   7.862   6.485   1.722  0.1084 -0.1187 -0.5251
25957SOL    HW183001   7.857   6.458   1.814 -0.9765  0.5391 -0.3858
25957SOL    HW283002   7.863   6.580   1.725 -1.0713 -0.0830 -1.2564
25958SOL     OW83003   7.149  10.485   8.032 -0.1150  0.6572 -0.0967
25958SOL    HW183004   7.168  10.395   8.006  0.0726  0.6735 -0.0133
25958SOL    HW283005   7.199  10.498   8.112  0.4421  1.0836 -0.5136
25959SOL     OW83006   9.556   9.048   6.973  0.3199  0.1220  0.2782
25959SOL    HW183007   9.585   8.973   6.921  1.9247  0.2370  0.9714
25959SOL    HW283008   9.595   9.035   7.059 -1.2656  0.5942  1.0994
25960SOL     OW83009   4.613   6.129   9.485  0.3941  0.2578 -0.2703
25960SOL    HW183010   4.682   6.064   9.501 -0.1510 -0.5386 -1.1012
25960SOL    HW283011   4.646   6.209   9.526  0.2774 -0.9749  2.3786
25961SOL     OW83012   4.588   0.158   7.201  0.8483  0.0301 -0.0378
25961SOL    HW183013   4.588   0.122   7.290 -0.4382  0.1578  0.0244
25961SOL    HW283014   4.680   0.178   7.183  1.1188  0.0055  1.2628
25962SOL     OW83015   7.474   4.932   9.407 -0.5615 -1.0403  0.1320
25962SOL    HW183016   7.454   4.840   9.426  0.7107 -1.6189 -1.2468
25962SOL    HW283017   7.391   4.977   9.423 -1.9142 -2.7931 -1.5174
25963SOL     OW83018   6.536   3.700   2.435 -0.5034  0.1119 -0.0921
25963SOL    HW183019   6.522   3.620   2.385  0.0336  0.1613 -0.3254
25963SOL    HW283020   6.615   3.739   2.397  0.2162 -0.1204  1.1431
25964SOL     OW83021   3.960   2.841   2.474  0.1449 -0.7045  0.2029
25964SOL    HW183022   3.960   2.803   2.561  0.5958 -1.3127 -0.0560
25964SOL    HW283023   3.948   2.767   2.415  0.5825 -0.3949 -0.2895
25965SOL     OW83024   0.706   0.065   6.390  0.0843  0.3330  0.0020
25965SOL    HW183025   0.686  -0.023   6.359  1.1169 -0.1787  0.7617
25965SOL    HW283026   0.721   0.116   6.311 -1.4252  0.0607 -0.4755
25966SOL     OW83027   8.882   5.461   9.168 -0.0207 -0.3827 -0.2812
25966SOL    HW183028   8.888   5.382   9.222  0.0568  0.8067  1.4736
25966SOL    HW283029   8.960   5.512   9.190 -0.7178  0.7724 -0.4244
25967SOL     OW83030   8.171   8.124  11.256 -0.2366 -0.4373 -0.3106
25967SOL    HW183031   8.116   8.047  11.249 -1.6278  0.2988  1.8160
25967SOL    HW283032   8.143   8.181  11.185 -3.3439  0.5647  1.6298
25968SOL     OW83033   4.261   6.020  11.178 -0.6850 -0.2012 -0.3520
25968SOL    HW183034   4.278   6.113  11.167  1.1582 -0.4812 -0.0464
25968SOL    HW283035   4.250   5.987  11.088  0.1288  0.0548 -0.5474
25969SOL     OW83036   1.819   1.078   2.792 -0.3679  0.1806  0.2265
25969SOL    HW183037   1.885   1.092   2.859 -0.2905  0.9951 -0.0176
25969SOL    HW283038   1.866   1.089   2.709  0.0392 -2.9443 -0.0403
25970SOL     OW83039   1.093   6.621   0.223 -0.0413  0.2414 -0.2970
25970SOL    HW183040   1.064   6.709   0.249  1.0714  0.3887  0.5067
25970SOL    HW283041   1.154   6.636   0.151  0.8351  0.2008  0.4284
25971SOL     OW83042   8.870   1.418   7.967 -0.5884  0.3070  0.3560
25971SOL    HW183043   8.823   1.498   7.942  0.3827  1.0258  0.7737
25971SOL    HW283044   8.826   1.390   8.047 -0.5752  0.7384  0.5189
25972SOL     OW83045   8.605  10.917   0.052 -0.2469  0.3064  0.4338
25972SOL    HW183046   8.585  10.831   0.014 -0.1339  0.9005 -1.0331
25972SOL    HW283047   8.550  10.978   0.003  1.3393  1.3278 -0.1254
25973SOL     OW83048   4.458  10.031  10.828 -0.1729  0.1891  0.0192
25973SOL    HW183049   4.511  10.049  10.906 -0.2075  0.5764 -0.0474
25973SOL    HW283050   4.399   9.960  10.855  0.8630 -0.7540 -0.1216
25974SOL     OW83051   2.350  10.933   4.590  0.7901  0.1870  0.2271
25974SOL    HW183052   2.265  10.889   4.584  0.3990  0.8591  0.8570
25974SOL    HW283053   2.334  11.010   4.644  1.1721  1.8858 -2.0408
25975SOL     OW83054   2.633   3.284   1.372  0.6782  0.0808 -0.0006
25975SOL    HW183055   2.642   3.365   1.421  0.2718  0.0198  0.1845
25975SOL    HW283056   2.719   3.243   1.376  0.7674  0.2950  0.2757
25976SOL     OW83057   8.039  11.022   4.688 -0.1927  0.0356 -0.4943
25976SOL    HW183058   7.974  10.973   4.739  0.4942 -1.9682 -1.5081
25976SOL    HW283059   8.026  10.992   4.598  1.5768  0.2526 -0.8260
25977SOL     OW83060   8.043   3.497   3.017 -0.1207  0.1737 -0.3337
25977SOL    HW183061   8.019   3.543   3.097  0.8034  1.2994 -0.6974
25977SOL    HW283062   7.987   3.535   2.949 -0.9588 -0.8340 -0.2122
25978SOL     OW83063   0.615   2.131   9.494 -0.2185  0.2148 -0.4283
25978SOL    HW183064   0.558   2.099   9.425 -0.6095 -0.9672  0.4294
25978SOL    HW283065   0.670   2.197   9.451 -1.9339  1.0811 -1.3487
25979SOL     OW83066  10.031   6.826   4.878  0.5648 -0.1818  0.2645
25979SOL    HW183067  10.114   6.804   4.837  0.8859  0.5718  0.4916
25979SOL    HW283068  10.049   6.826   4.971 -0.1860 -1.9604  0.4146
25980SOL     OW83069   5.946   5.024   1.276 -0.1384  0.3988 -0.1051
25980SOL    HW183070   5.933   4.981   1.191  0.0201  0.6146 -0.2396
25980SOL    HW283071   5.889   4.976   1.336 -0.1063  0.1210 -0.2938
25981SOL     OW83072   0.527   1.750   0.040  0.4238  0.3634 -0.0726
25981SOL    HW183073   0.492   1.775   0.125  0.6257 -1.6625  0.6446
25981SOL    HW283074   0.450   1.738  -0.016  0.2722  1.2435 -0.0627
25982SOL     OW83075   4.129   9.412   3.607 -0.6687  0.1973  0.0018
25982SOL    HW183076   4.201   9.475   3.605 -0.8414  0.3843 -0.3732
25982SOL    HW283077   4.075   9.439   3.681 -0.8764  0.6427 -0.3121
25983SOL     OW83078   9.648   6.087   9.864  0.0715 -0.0275 -0.1275
25983SOL    HW183079   9.732   6.052   9.896  0.0644 -0.5844 -0.7151
25983SOL    HW283080   9.585   6.018   9.883  0.0101 -0.2237 -1.0651
25984SOL     OW83081   0.075   1.032   2.754  0.5422 -0.4740 -0.2227
25984SOL    HW183082   0.066   1.086   2.833 -0.2669 -2.1729  0.8885
25984SOL    HW283083   0.159   0.987   2.765  1.3603  0.7636 -1.2939
25985SOL     OW83084   3.517   2.906   0.726 -0.2419  0.7008  0.7125
25985SOL    HW183085   3.433   2.901   0.772 -0.5009  0.8468  0.2542
25985SOL    HW283086   3.496   2.883   0.636  0.2745  0.3864  0.6740
25986SOL     OW83087   6.484   7.864   9.390  0.6060 -0.4055  0.5721
25986SOL    HW183088   6.563   7.911   9.415  1.3500 -0.7426 -1.0337
25986SOL    HW283089   6.488   7.860   9.294 -1.2218 -0.6559  0.4854
25987SOL     OW83090   8.080   7.939   3.380 -0.0236 -0.3016 -0.3207
25987SOL    HW183091   8.035   8.023   3.378  0.4653 -0.0429 -0.7235
25987SOL    HW283092   8.122   7.936   3.466  0.2331  0.0210 -0.4309
25988SOL     OW83093   0.169   3.707   6.822  0.2313 -0.2814  0.3091
25988SOL    HW183094   0.201   3.660   6.899  0.4443 -0.2082  0.2661
25988SOL    HW283095   0.247   3.750   6.786 -0.2212  1.3262  1.2107
25989SOL     OW83096   1.067   5.617   5.232  0.2379  0.2361 -0.0777
25989SOL    HW183097   1.107   5.607   5.146  2.1928 -1.2664  0.9692
25989SOL    HW283098   1.002   5.547   5.238 -0.7453  1.0794 -0.7793
25990SOL     OW83099   0.884   2.367  10.920 -0.3874 -0.2397 -0.1467
25990SOL    HW183100   0.844   2.320  10.847 -0.5203 -1.0839  0.4725
25990SOL    HW283101   0.829   2.347  10.995 -0.5213  1.0026  0.1055
25991SOL     OW83102  10.251   3.814   5.189 -0.4881 -0.2182 -0.5331
25991SOL    HW183103  10.252   3.818   5.094 -2.0645 -1.8720 -0.6381
25991SOL    HW283104  10.275   3.724   5.210  1.3663  0.5328  0.6978
25992SOL     OW83105   7.855   2.410   2.014  0.0571  0.4187  0.3552
25992SOL    HW183106   7.845   2.459   2.096 -0.0828  1.2011 -0.1280
25992SOL    HW283107   7.786   2.344   2.017 -1.9624  2.4355 -0.5498
25993SOL     OW83108   2.129   0.091   1.671  0.2376 -0.0071 -0.0736
25993SOL    HW183109   2.106   0.097   1.578  1.8653  0.6401 -0.4649
25993SOL    HW283110   2.073   0.155   1.714 -0.5785 -0.3657 -0.6094
25994SOL     OW83111   3.083   5.700   8.993 -0.4222 -0.7403  0.5841
25994SOL    HW183112   3.157   5.647   8.961  0.4563 -0.1161  1.5564
25994SOL    HW283113   3.037   5.726   8.913  1.1458 -0.0758 -0.1297
25995SOL     OW83114   2.150   7.977   4.765 -0.1585 -0.4329 -0.0372
25995SOL    HW183115   2.240   7.958   4.740  0.4163  2.5849 -0.4854
25995SOL    HW283116   2.150   8.071   4.783 -3.5684 -0.0732 -1.5880
25996SOL     OW83117   7.418   9.325   7.325 -0.2739 -0.3231  0.1049
25996SOL    HW183118   7.462   9.358   7.403 -0.2867 -3.2186  1.4059
25996SOL    HW283119   7.358   9.396   7.300  0.0669  0.8521  2.4466
25997SOL     OW83120   7.555   5.894   5.395 -0.1341 -0.1016 -0.4107
25997SOL    HW183121   7.585   5.974   5.439  3.8092 -1.6913  0.0319
25997SOL    HW283122   7.493   5.855   5.457  0.5439  0.8843  0.9185
25998SOL     OW83123   5.823   3.489   8.667  0.0311  0.1156  0.3269
25998SOL    HW183124   5.897   3.524   8.617 -0.1335 -1.8830 -1.3833
25998SOL    HW283125   5.816   3.398   8.639 -2.5276  0.0316  1.1086
25999SOL     OW83126   3.842   5.083   6.398 -0.4194  0.7274  0.4786
25999SOL    HW183127   3.755   5.083   6.438 -0.7516 -0.9160 -0.1692
25999SOL    HW283128   3.903   5.089   6.471 -1.0504 -0.7639  1.1596
26000SOL     OW83129   0.543   9.129   2.530  0.1108 -0.3508  0.3357
26000SOL    HW183130   0.602   9.162   2.462 -0.8130  1.6240  0.4361
26000SOL    HW283131   0.601   9.102   2.601  0.9616  0.7681  0.0927
26001SOL     OW83132   5.699   8.138  10.156 -0.5104 -0.2115 -0.2231
26001SOL    HW183133   5.724   8.227  10.132  1.3472 -0.5935  0.2207
26001SOL    HW283134   5.631   8.114  10.093  0.4521  0.7631 -1.6455
26002SOL     OW83135   4.929   3.839   8.544 -0.0735 -0.2165 -0.0627
26002SOL    HW183136   4.896   3.901   8.478 -3.6266 -0.0752  1.7245
26002SOL    HW283137   4.888   3.756   8.522  2.2127 -1.2219 -0.5974
26003SOL     OW83138   4.849   0.189   7.475  0.6973  0.5816 -0.4966
26003SOL    HW183139   4.846   0.098   7.446  2.0406 -0.0874  1.3979
26003SOL    HW283140   4.941   0.206   7.493  0.6789  2.7908 -2.1984
26004SOL     OW83141   2.774   7.145   2.244 -0.0123 -0.8671 -0.1816
26004SOL    HW183142   2.733   7.059   2.233 -0.8713  0.0023 -4.3927
26004SOL    HW283143   2.701   7.207   2.241  0.5843  0.1051  2.9750
26005SOL     OW83144   2.373   4.261  10.421  0.2911  0.8991 -0.0280
26005SOL    HW183145   2.369   4.308  10.504  1.6131  1.2752 -0.1647
26005SOL    HW283146   2.441   4.194  10.435 -0.5532 -0.0256 -0.3088
26006SOL     OW83147   2.532   7.739   1.293  0.2830 -0.2243 -0.5838
26006SOL    HW183148   2.475   7.684   1.238 -0.2068 -0.7687  0.4552
26006SOL    HW283149   2.620   7.709   1.272  0.0927 -0.5627 -0.9286
26007SOL     OW83150  10.223   0.056  10.023  0.0354 -0.2165 -0.3196
26007SOL    HW183151  10.310   0.066  10.061 -0.5450  1.8914  0.4991
26007SOL    HW283152  10.189   0.145  10.017 -1.7895 -0.9649 -1.2869
26008SOL     OW83153   0.365   0.026   0.979 -0.1570  0.3977 -0.3871
26008SOL    HW183154   0.335   0.116   0.967  0.0645  0.2744 -1.9710
26008SOL    HW283155   0.455   0.034   1.010 -0.9483  0.7371  1.9268
26009SOL     OW83156   5.531   3.413   4.944  0.2097 -0.1306 -0.3564
26009SOL    HW183157   5.463   3.407   4.876  0.2470 -0.2031 -0.3879
26009SOL    HW283158   5.519   3.334   4.997  0.2917 -0.1616 -0.3835
26010SOL     OW83159   2.908   7.630  10.233 -0.1482 -0.0132  0.6215
26010SOL    HW183160   2.980   7.648  10.173 -0.4679  0.0288  0.2470
26010SOL    HW283161   2.931   7.547  10.274 -1.1632 -1.3976 -1.4797
26011SOL     OW83162   1.196  10.982   6.036  0.3458 -0.4456  0.2996
26011SOL    HW183163   1.232  11.066   6.065  1.2501 -0.8013  0.2211
26011SOL    HW283164   1.109  11.004   6.001  1.4010  0.7752 -1.6510
26012SOL     OW83165   9.976   0.919   0.746 -0.2583 -0.2633  0.0137
26012SOL    HW183166   9.976   0.875   0.831  1.7494 -1.6759 -0.6779
26012SOL    HW283167  10.019   1.003   0.763  0.3634 -0.6463  0.3627
26013SOL     OW83168   6.697   1.173   9.543 -0.1003  0.2651 -0.0507
26013SOL    HW183169   6.786   1.189   9.576 -0.1304 -1.3382  0.8636
26013SOL    HW283170   6.710   1.120   9.465 -0.2018  1.2913 -0.7840
26014SOL     OW83171   3.690   6.465   9.846  0.2326 -0.2214  0.1338
26014SOL    HW183172   3.778   6.481   9.812 -0.7894  0.1190 -2.4583
26014SOL    HW283173   3.637   6.447   9.768 -1.4190 -3.2791  1.8719
26015SOL     OW83174  10.105   2.911  11.250  0.2491 -0.4452 -0.2704
26015SOL    HW183175  10.026   2.860  11.232  0.0819 -0.0291 -0.7339
26015SOL    HW283176  10.140   2.874  11.330 -0.6197 -0.3990  0.1374
26016SOL     OW83177  10.689   2.521   8.659  0.5835 -0.5178 -0.5334
26016SOL    HW183178  10.710   2.482   8.743 -1.4223 -2.1046 -0.7135
26016SOL    HW283179  10.770   2.516   8.609  1.4580 -0.6800  0.8833
26017SOL     OW83180   5.563   5.130   7.829  0.2214 -0.2282 -0.4412
26017SOL    HW183181   5.639   5.074   7.845 -0.6522 -1.0209  1.1004
26017SOL    HW283182   5.568   5.196   7.898 -0.6373 -0.4568 -0.1558
26018SOL     OW83183   9.161   8.574   9.866 -0.5877  0.1468  0.2822
26018SOL    HW183184   9.069   8.569   9.891 -0.2944  1.7978  1.8405
26018SOL    HW283185   9.190   8.483   9.862 -2.6300 -0.4497 -1.6319
26019SOL     OW83186   5.339   9.722   9.545  0.3927  0.0855 -0.3432
26019SOL    HW183187   5.319   9.683   9.630  0.1388 -0.1957 -0.5278
26019SOL    HW283188   5.254   9.741   9.506  0.4762 -0.9179 -1.0432
26020SOL     OW83189   1.169   5.502   7.111  0.3810 -0.7219  0.0129
26020SOL    HW183190   1.158   5.583   7.061 -0.3291 -0.6014  0.3504
26020SOL    HW283191   1.081   5.481   7.141  0.6907 -1.1929  0.5955
26021SOL     OW83192   6.247   9.834   9.128 -0.1224  0.2220 -0.5780
26021SOL    HW183193   6.316   9.886   9.169 -0.0042 -0.5671  0.2354
26021SOL    HW283194   6.257   9.851   9.034  1.6549 -0.4665 -0.5333
26022SOL     OW83195   9.888  10.360   3.723  0.4560 -0.7000 -0.1764
26022SOL    HW183196   9.845  10.413   3.656  0.8866 -0.1209  0.0134
26022SOL    HW283197   9.959  10.316   3.677  0.7116 -0.3525 -0.1085
26023SOL     OW83198   0.546   2.750   9.069 -0.3727 -0.1845 -0.4115
26023SOL    HW183199   0.558   2.655   9.063  0.4902 -0.0894 -0.1853
26023SOL    HW283200   0.501   2.774   8.988  0.9519 -0.5481 -1.2699
26024SOL     OW83201   0.972   0.581  10.810  0.6907  0.3888  0.1127
26024SOL    HW183202   0.903   0.646  10.799  2.3156  2.1004 -0.3707
26024SOL    HW283203   0.935   0.515  10.869 -1.6938  0.6915 -1.0009
26025SOL     OW83204   7.690   2.085   4.384 -0.1847  0.0234 -0.3090
26025SOL    HW183205   7.673   1.996   4.414 -0.9868  0.5794  0.9799
26025SOL    HW283206   7.616   2.136   4.419  0.3797  1.2252 -0.8380
26026SOL     OW83207  10.160   7.399   9.959 -0.0794  0.8312  0.3903
26026SOL    HW183208  10.072   7.405   9.996 -0.0076 -2.8484  1.3650
26026SOL    HW283209  10.146   7.374   9.867 -0.0504 -1.0728  0.8929
26027SOL     OW83210   7.817   4.775   5.081 -0.5198  0.4608  0.0462
26027SOL    HW183211   7.742   4.826   5.051  1.3794  1.8147 -2.6079
26027SOL    HW283212   7.839   4.812   5.166 -1.7801  1.2203  0.0485
26028SOL     OW83213   7.136   1.599   1.019 -0.1381 -0.0060  0.3658
26028SOL    HW183214   7.129   1.577   1.112 -0.8163 -0.9757  0.0970
26028SOL    HW283215   7.051   1.636   0.996  0.4085  1.2868  0.3907
26029SOL     OW83216   2.893   3.796   5.516  0.3988 -0.1671 -0.5537
26029SOL    HW183217   2.964   3.784   5.580 -1.3356  1.8516  1.8081
26029SOL    HW283218   2.926   3.862   5.456 -0.1226  2.1199  1.6057
26030SOL     OW83219   7.391   4.027   9.607  0.4934  0.1505 -0.4274
26030SOL    HW183220   7.409   3.999   9.517  0.2590  2.7046 -1.3027
26030SOL    HW283221   7.467   4.080   9.631  0.2260  0.0611  0.6525
26031SOL     OW83222   7.955   9.758   9.014  0.4184 -0.6179 -0.1455
26031SOL    HW183223   7.918   9.678   9.051  0.9784 -0.4952  0.6810
26031SOL    HW283224   8.050   9.746   9.021  0.4962  0.6558  1.1145
26032SOL     OW83225   2.740   7.938   2.336 -0.3072  0.0105 -0.6186
26032SOL    HW183226   2.676   7.999   2.373  0.5300 -0.3428  1.4785
26032SOL    HW283227   2.808   7.994   2.299 -0.2599  0.3548 -0.0122
26033SOL     OW83228   0.613   5.976   4.765  0.1619  0.1130  0.0930
26033SOL    HW183229   0.632   6.069   4.761 -1.9157  0.6942  2.5781
26033SOL    HW283230   0.534   5.965   4.713 -0.5484  0.0569  1.1548
26034SOL     OW83231   1.085  10.155   6.272 -0.3222  0.5970  0.4641
26034SOL    HW183232   1.150  10.120   6.333  0.2503  1.3545  0.3062
26034SOL    HW283233   1.137  10.203   6.207 -0.8619 -0.8996 -1.0988
26035SOL     OW83234   7.982   8.696   4.397  0.2390  0.3663 -0.1039
26035SOL    HW183235   7.998   8.616   4.347  0.2162 -1.0104  1.9943
26035SOL    HW283236   8.003   8.671   4.487 -1.1265  2.3453  0.7805
26036SOL     OW83237   4.734   2.999   3.340 -0.2810  0.4024 -0.2787
26036SOL    HW183238   4.668   3.036   3.398 -0.3671 -0.6254  0.2937
26036SOL    HW283239   4.692   2.922   3.302 -0.5742  1.5970 -2.4760
26037SOL     OW83240   5.359  10.344   4.612  0.0458  0.2885 -0.4953
26037SOL    HW183241   5.361  10.374   4.521 -2.2352  0.9552 -0.3502
26037SOL    HW283242   5.267  10.324   4.629  0.8235 -2.5335  0.8274
26038SOL     OW83243   9.426   7.984   6.757  0.0318  0.5529  0.0288
26038SOL    HW183244   9.395   7.894   6.754  2.0702 -0.1550 -0.6626
26038SOL    HW283245   9.445   8.000   6.850  0.0547  0.1364  0.0929
26039SOL     OW83246   4.549   4.966   3.763 -0.2563  0.0670 -0.0805
26039SOL    HW183247   4.458   4.995   3.757  0.0628  1.3579  1.0463
26039SOL    HW283248   4.574   4.983   3.854  1.7288  1.5933 -0.8689
26040SOL     OW83249   8.550   3.915   9.102 -0.0351  0.7639  0.2766
26040SOL    HW183250   8.573   4.007   9.091  0.3265  0.8580  1.6725
26040SOL    HW283251   8.455   3.915   9.114 -0.0205  0.9791  0.4028
26041SOL     OW83252   5.010   4.012   7.294 -0.2933 -0.6766  0.2986
26041SOL    HW183253   4.951   4.005   7.219  0.9815  0.9773 -0.9048
26041SOL    HW283254   5.059   3.930   7.294 -1.2741 -1.2697  0.1774
26042SOL     OW83255  11.316   7.445   0.115 -0.2981 -0.4615  0.2438
26042SOL    HW183256  11.240   7.490   0.152  0.8251  1.1630  0.6289
26042SOL    HW283257  11.384   7.512   0.109  1.6463 -2.2503  1.4268
26043SOL     OW83258   4.554   3.449   4.024 -0.1240 -0.6006  0.0924
26043SOL    HW183259   4.504   3.481   4.099  0.3062 -0.3772  0.2880
26043SOL    HW283260   4.604   3.525   3.994  0.0307 -0.7978 -0.1530
26044SOL     OW83261   4.839   6.329   7.643  0.0688  0.3679 -0.1094
26044SOL    HW183262   4.799   6.409   7.608 -2.9242 -0.9165  0.1936
26044SOL    HW283263   4.897   6.359   7.713 -0.3332  2.3310 -0.5969
26045SOL     OW83264   4.584   2.123   9.712 -0.2955  0.4824 -0.3059
26045SOL    HW183265   4.529   2.050   9.738 -0.5216  0.8827  0.3574
26045SOL    HW283266   4.624   2.153   9.794  1.4008 -0.2038 -0.8668
26046SOL     OW83267   5.244   1.851   7.619 -0.0266 -1.0115 -0.1643
26046SOL    HW183268   5.175   1.787   7.602  0.0068 -1.4119  1.1602
26046SOL    HW283269   5.326   1.801   7.615  0.2838 -0.3721 -2.6075
26047SOL     OW83270   8.830   6.868   4.447 -0.1601  0.2288  0.0583
26047SOL    HW183271   8.881   6.802   4.400  1.6777  2.1286 -0.6600
26047SOL    HW283272   8.795   6.924   4.378 -2.7634 -0.6775  0.5790
26048SOL     OW83273  11.233  10.655   3.033  0.2842  0.3238  0.2548
26048SOL    HW183274  11.265  10.593   2.967 -0.0898  0.5884 -0.1837
26048SOL    HW283275  11.273  10.739   3.008 -2.9033  1.2576 -1.9554
26049SOL     OW83276   7.195  11.028   8.458 -0.0198  1.1472  0.6639
26049SOL    HW183277   7.277  11.011   8.412  0.8076  2.2674  1.7036
26049SOL    HW283278   7.129  11.030   8.388  0.6802 -0.6458 -0.0770
26050SOL     OW83279   8.870   6.492   1.547  0.8623  0.1234 -0.0226
26050SOL    HW183280   8.922   6.569   1.524  0.7032 -0.0281 -0.9003
26050SOL    HW283281   8.887   6.479   1.640  2.1214  0.2738 -0.2271
26051SOL     OW83282  10.751   3.537   6.791  0.3797  0.3726  0.0820
26051SOL    HW183283  10.670   3.542   6.741 -0.9010 -0.6258  1.9619
26051SOL    HW283284  10.723   3.544   6.883  2.3888 -0.1918  0.7720
26052SOL     OW83285   2.439   6.872   0.997  0.9020 -0.0520  0.0588
26052SOL    HW183286   2.507   6.851   1.060  0.6764  1.2371  0.7626
26052SOL    HW283287   2.456   6.963   0.973 -0.3427  0.1624 -0.0421
26053SOL     OW83288  11.113   2.726   4.602 -0.5419  0.1511 -0.0623
26053SOL    HW183289  11.123   2.731   4.697 -1.3092  0.5167  0.0011
26053SOL    HW283290  11.071   2.809   4.578 -0.0697  0.1920 -0.7554
26054SOL     OW83291   3.035  11.061  10.984  0.1823 -0.4137 -0.5603
26054SOL    HW183292   3.128  11.048  11.001 -0.0652 -3.2209 -1.0854
26054SOL    HW283293   3.006  11.120  11.054  1.3392 -3.4389  2.6556
26055SOL     OW83294   4.557   0.020   9.449 -0.3064  0.0503 -0.0236
26055SOL    HW183295   4.547   0.099   9.395  1.2466  0.8053  0.7483
26055SOL    HW283296   4.577  -0.049   9.387 -3.6828 -0.2073 -0.9345
26056SOL     OW83297   2.673   2.835   3.995  0.2140 -0.2090 -0.6851
26056SOL    HW183298   2.639   2.904   3.938 -1.9575 -0.7052 -0.0080
26056SOL    HW283299   2.686   2.879   4.079 -1.5188 -0.6846 -0.1522
26057SOL     OW83300   2.100   2.799   5.856  0.6005  0.0595  0.1912
26057SOL    HW183301   2.139   2.745   5.787 -1.2656 -0.0975 -0.7659
26057SOL    HW283302   2.006   2.785   5.847  0.2887  0.6863  2.2460
26058SOL     OW83303   4.154  10.220   7.849 -0.0797 -0.2420  0.0551
26058SOL    HW183304   4.126  10.226   7.941  1.6661  0.1519  0.5712
26058SOL    HW283305   4.211  10.142   7.846  0.2040 -0.0111 -0.6082
26059SOL     OW83306   8.022   1.105   5.812 -0.4376 -0.1124  0.3051
26059SOL    HW183307   8.072   1.028   5.785 -0.3712 -0.5015  1.4864
26059SOL    HW283308   7.948   1.108   5.751  1.0969  0.5764 -1.5604
26060SOL     OW83309  11.272   8.993   4.954 -0.0988 -0.6719 -0.5963
26060SOL    HW183310  11.295   9.035   4.871 -1.0114  0.2581 -0.3870
26060SOL    HW283311  11.305   8.903   4.945  0.1874 -0.4586 -1.7957
26061SOL     OW83312   1.803   4.240   3.703  0.1121 -0.0517  0.2771
26061SOL    HW183313   1.788   4.188   3.781 -1.8653 -1.3749 -0.9360
26061SOL    HW283314   1.717   4.247   3.661  0.8117  2.0339 -0.9195
26062SOL     OW83315  10.386   0.170   9.214  0.0957  0.5316  0.9894
26062SOL    HW183316  10.344   0.121   9.284 -2.2567  2.1895  0.7935
26062SOL    HW283317  10.408   0.104   9.148 -0.9754 -0.5545  1.7102
26063SOL     OW83318   5.401   7.258   3.416 -0.3850  0.9511 -0.5569
26063SOL    HW183319   5.355   7.296   3.490  0.5968 -0.9387  1.0633
26063SOL    HW283320   5.492   7.252   3.444 -0.3327 -1.6286 -1.1339
26064SOL     OW83321   8.140   0.797   1.453  0.0356  0.1175  0.5206
26064SOL    HW183322   8.168   0.757   1.536 -0.6999 -0.7833  0.3457
26064SOL    HW283323   8.196   0.756   1.387 -2.0704 -2.1811  0.0866
26065SOL     OW83324   1.083   2.424   4.691  0.3649  0.1629  0.5850
26065SOL    HW183325   1.071   2.487   4.762 -0.2430 -0.6646  1.2385
26065SOL    HW283326   0.994   2.394   4.670  0.6437 -0.4973  0.3148
26066SOL     OW83327   0.091   5.851   6.418 -0.4155  0.1366 -0.0489
26066SOL    HW183328   0.160   5.854   6.484 -1.2236  0.8590  0.7744
26066SOL    HW283329   0.137   5.832   6.336  0.7936  0.9616  0.4302
26067SOL     OW83330  10.384   5.309  10.367 -0.0161 -0.4896  0.0226
26067SOL    HW183331  10.411   5.254  10.441  2.8475 -2.9944 -2.7535
26067SOL    HW283332  10.467   5.339  10.329 -1.4846  2.6158 -0.8913
26068SOL     OW83333   7.446   0.334   7.486 -0.1403  0.2403 -0.1833
26068SOL    HW183334   7.359   0.363   7.459 -0.2599  1.0168  0.9885
26068SOL    HW283335   7.454   0.365   7.576  0.7788 -1.1027  0.2030
26069SOL     OW83336   4.976   9.595   9.972  0.1600  0.3561 -0.1083
26069SOL    HW183337   4.962   9.645   9.892  1.3214 -0.6394 -0.9695
26069SOL    HW283338   4.889   9.560   9.994  0.1882 -1.1021 -2.1477
26070SOL     OW83339   3.200  10.664   1.296  0.6451 -0.0540  0.3373
26070SOL    HW183340   3.285  10.662   1.340  0.9647 -3.3056 -0.3069
26070SOL    HW283341   3.205  10.595   1.230 -1.4074  1.7912 -1.8572
26071SOL     OW83342   7.184   6.115   8.044 -0.5006 -0.4881 -0.2145
26071SOL    HW183343   7.247   6.139   7.976  0.5686  0.6281  1.1333
26071SOL    HW283344   7.184   6.189   8.104 -0.8769 -1.7409  1.3795
26072SOL     OW83345   4.892   8.395  10.477  0.0123 -0.0880  0.2647
26072SOL    HW183346   4.969   8.385  10.421  1.7476 -0.9618  2.7182
26072SOL    HW283347   4.822   8.423  10.417  1.2568 -2.9102 -2.6754
26073SOL     OW83348   8.833  11.116   4.783 -0.2598  0.8402 -0.9713
26073SOL    HW183349   8.857  11.204   4.810 -0.6063  0.4411  0.7082
26073SOL    HW283350   8.832  11.065   4.865  0.5681 -0.8573 -1.9918
26074SOL     OW83351   5.938  10.187  10.412  0.4218  0.4173 -0.1117
26074SOL    HW183352   5.923  10.188  10.317  1.3420  1.5422 -0.2594
26074SOL    HW283353   6.004  10.119  10.424 -1.7746 -1.7234  0.0722
26075SOL     OW83354  11.215   7.686   9.780 -0.2919  0.1705 -0.0678
26075SOL    HW183355  11.131   7.725   9.758 -0.2951  0.0461 -0.2780
26075SOL    HW283356  11.241   7.638   9.702  0.8247  1.6672 -0.6480
26076SOL     OW83357   7.428   9.126   8.952 -0.4726 -0.6088 -0.3674
26076SOL    HW183358   7.486   9.085   8.887  1.0690 -0.2238  0.7205
26076SOL    HW283359   7.478   9.122   9.034 -1.0225  1.7952  0.1317
26077SOL     OW83360   7.999   8.689   7.945  0.4915 -0.3804 -0.2164
26077SOL    HW183361   7.948   8.613   7.972  0.7202 -0.1883  0.7655
26077SOL    HW283362   8.086   8.655   7.926  0.8889 -0.2069  1.2511
26078SOL     OW83363   7.039   1.770   7.575  0.3811 -0.2623  0.3204
26078SOL    HW183364   7.093   1.756   7.497  0.1595  1.0287 -0.0813
26078SOL    HW283365   6.967   1.825   7.545  0.2575  0.2013  1.4224
26079SOL     OW83366   6.318   1.209   9.396 -0.0896 -0.0744 -0.2886
26079SOL    HW183367   6.312   1.187   9.489  1.2514 -0.2400 -0.2329
26079SOL    HW283368   6.371   1.140   9.358 -0.8125 -0.1210 -1.2254
26080SOL     OW83369   4.899   3.599   9.841  0.2527 -0.4865  0.4512
26080SOL    HW183370   4.922   3.544   9.915  3.3694 -1.3518 -1.0689
26080SOL    HW283371   4.957   3.675   9.848 -1.9193  1.2104  0.8366
26081SOL     OW83372   1.296   4.050   5.696  0.7114 -0.4833 -0.3143
26081SOL    HW183373   1.338   4.136   5.703  1.1472 -0.6934 -0.4098
26081SOL    HW283374   1.339   3.996   5.762  0.7857 -0.7801 -0.6068
26082SOL     OW83375  11.290   7.991  10.723  0.5775 -0.1474 -0.3516
26082SOL    HW183376  11.267   7.900  10.706  1.5524 -0.6821  1.0610
26082SOL    HW283377  11.258   8.008  10.812  1.3129  0.5594 -0.2101
26083SOL     OW83378   0.785   1.314  10.385 -0.3557  0.2008 -0.0251
26083SOL    HW183379   0.822   1.251  10.323 -0.7739  1.0157 -1.1076
26083SOL    HW283380   0.824   1.289  10.470  0.1813 -0.9418 -0.5931
26084SOL     OW83381  10.620   6.375   0.289  0.3384  0.1951  0.0127
26084SOL    HW183382  10.679   6.440   0.252  1.3921 -0.5244  0.3746
26084SOL    HW283383  10.563   6.349   0.217  1.2092  0.0916 -0.6532
26085SOL     OW83384   2.177   7.939   1.896 -0.0420 -0.1707  0.1452
26085SOL    HW183385   2.213   7.936   1.807  0.4480 -0.1124  0.3398
26085SOL    HW283386   2.128   8.021   1.899  1.4178  0.7062  0.4862
26086SOL     OW83387   3.823  10.029   7.656 -0.1170 -0.1805  0.4086
26086SOL    HW183388   3.750  10.057   7.601 -0.4240 -0.3178  0.7435
26086SOL    HW283389   3.798   9.942   7.687  1.0693 -1.0619 -1.0495
26087SOL     OW83390   7.975   1.912   5.436 -0.1516 -0.1639  0.0726
26087SOL    HW183391   8.062   1.899   5.472 -0.3317  2.2295  1.4212
26087SOL    HW283392   7.921   1.845   5.478  0.7458 -0.8010  0.2179
26088SOL     OW83393   4.969   0.427   8.469 -0.1276  0.2959  0.6130
26088SOL    HW183394   4.996   0.479   8.394 -1.8597  1.7665  0.9760
26088SOL    HW283395   5.015   0.466   8.544 -0.2963  0.3882  0.6699
26089SOL     OW83396   4.478   2.009   9.362  0.2244  0.7367  0.0086
26089SOL    HW183397   4.547   1.971   9.307  1.5305  2.2808  0.5613
26089SOL    HW283398   4.420   1.935   9.381  1.1019 -0.3469 -1.3880
26090SOL     OW83399   5.687   1.838   9.342 -0.5330 -0.4622 -0.0726
26090SOL    HW183400   5.754   1.868   9.403 -0.0541 -1.8127  0.0954
26090SOL    HW283401   5.733   1.832   9.258 -0.7296 -0.3147 -0.1906
26091SOL     OW83402   3.100   1.548   5.936 -0.5197 -0.0213  0.1936
26091SOL    HW183403   3.099   1.474   5.996  0.4435 -0.1241  0.0966
26091SOL    HW283404   3.090   1.625   5.992  1.3771 -0.0524  0.6105
26092SOL     OW83405   5.490   6.080  10.968 -0.3689  0.1901  0.5502
26092SOL    HW183406   5.397   6.089  10.948 -0.1633  0.0861 -0.4884
26092SOL    HW283407   5.493   6.059  11.061 -1.3746  0.3436  0.6192
26093SOL     OW83408   8.540   0.151   9.245  0.0072 -0.3797 -0.4456
26093SOL    HW183409   8.567   0.169   9.155  1.2075 -0.4312 -0.1131
26093SOL    HW283410   8.547   0.235   9.290 -0.5510 -0.3621 -0.3965
26094SOL     OW83411   6.032   4.694   3.288 -0.3604 -0.8573  0.3856
26094SOL    HW183412   6.088   4.759   3.246  0.5019 -1.4501  0.6083
26094SOL    HW283413   5.965   4.675   3.223  0.5012 -1.1763 -0.4205
26095SOL     OW83414   3.155   0.390   3.750  0.6679 -0.2487  0.2566
26095SOL    HW183415   3.172   0.376   3.843 -1.5455 -2.5803  0.3508
26095SOL    HW283416   3.078   0.337   3.731  0.1931  1.3459 -2.5940
26096SOL     OW83417   8.786  10.725   6.662  0.0955 -0.3538 -0.3428
26096SOL    HW183418   8.718  10.691   6.603  0.5505 -0.4544 -0.8099
26096SOL    HW283419   8.850  10.766   6.604  0.0618  0.3916  0.1533
26097SOL     OW83420   1.148   5.154   0.498 -0.1292  0.4234 -0.0172
26097SOL    HW183421   1.067   5.205   0.496  1.6064  3.3691  1.4048
26097SOL    HW283422   1.216   5.217   0.477  1.8219 -2.0415 -1.3758
26098SOL     OW83423   4.903   7.557   3.381  0.0025 -0.6074 -0.7972
26098SOL    HW183424   4.947   7.642   3.373  2.5532 -1.9039 -1.2477
26098SOL    HW283425   4.902   7.539   3.475  2.2999 -1.4422 -0.8938
26099SOL     OW83426   5.500   1.266   0.669  0.2858  0.0706 -0.4392
26099SOL    HW183427   5.471   1.349   0.706  0.9858  0.7540 -1.3941
26099SOL    HW283428   5.488   1.276   0.575 -0.8199 -1.3806 -0.4794
26100SOL     OW83429   0.181   9.088   2.703  0.7185  0.5235 -0.1166
26100SOL    HW183430   0.258   9.107   2.758 -0.3139 -1.4282  2.1139
26100SOL    HW283431   0.159   8.997   2.725 -1.4284  0.6369 -1.7322
26101SOL     OW83432   2.221   4.461   2.629 -0.4760 -0.1229 -0.1592
26101SOL    HW183433   2.198   4.368   2.627 -1.8241  0.1868  0.6484
26101SOL    HW283434   2.206   4.488   2.720  0.7763  0.6722 -0.1742
26102SOL     OW83435   5.554   5.672   9.831  0.0776  0.7607 -0.3895
26102SOL    HW183436   5.609   5.741   9.794  0.9524  0.2126 -0.1137
26102SOL    HW283437   5.610   5.594   9.832 -0.4004  0.4213  0.7312
26103SOL     OW83438   5.463  10.556   4.739  0.2162  0.4664  0.2656
26103SOL    HW183439   5.381  10.588   4.776  0.3733 -1.1822  2.1936
26103SOL    HW283440   5.438  10.480   4.687 -0.0504  3.0288 -3.4933
26104SOL     OW83441   5.922  11.035   9.048 -0.0638  0.1210  0.0290
26104SOL    HW183442   5.846  10.978   9.039  0.9615 -1.0676 -1.5293
26104SOL    HW283443   5.918  11.093   8.972  1.7095 -1.3809 -1.2573
26105SOL     OW83444   2.762   4.695   8.878  0.2388  0.7226 -0.2313
26105SOL    HW183445   2.702   4.762   8.910 -0.2702 -0.5979  1.6635
26105SOL    HW283446   2.726   4.669   8.794 -1.1897  0.7949  0.3415
26106SOL     OW83447  10.003   9.350   1.669  0.1243  0.8313 -0.9388
26106SOL    HW183448  10.027   9.283   1.733 -0.8237  3.4273  2.2787
26106SOL    HW283449   9.940   9.306   1.611 -0.8114 -0.9490  1.3539
26107SOL     OW83450   5.215   3.129   7.109 -0.0472  0.1190 -0.2157
26107SOL    HW183451   5.160   3.056   7.080  0.8801 -0.7041  0.0515
26107SOL    HW283452   5.220   3.118   7.204  2.0507 -0.9028 -0.4064
26108SOL     OW83453   2.826   8.050   2.618  0.3119 -0.5716  0.4495
26108SOL    HW183454   2.844   7.956   2.620  0.2737 -0.6230 -0.9980
26108SOL    HW283455   2.733   8.056   2.596  0.9289 -0.1879 -2.2441
26109SOL     OW83456   8.024   5.863   9.349 -0.2335  0.0669  0.5633
26109SOL    HW183457   8.086   5.791   9.365  0.0732  0.0418 -0.7406
26109SOL    HW283458   7.938   5.823   9.356 -0.0492 -0.6169 -1.0570
26110SOL     OW83459   1.499   7.013   1.442 -0.4470 -0.0681  0.5703
26110SOL    HW183460   1.442   7.052   1.509 -0.9965  1.7297 -0.8887
26110SOL    HW283461   1.441   7.001   1.366  0.1832 -2.0085  0.3864
26111SOL     OW83462   8.661   8.164   1.599  0.1363 -0.9288  0.1645
26111SOL    HW183463   8.638   8.255   1.614  0.6839 -0.8880  0.7537
26111SOL    HW283464   8.579   8.124   1.567 -0.3966 -0.4841  0.9531
26112SOL     OW83465   5.277   6.153   8.144  0.0420 -0.3641 -0.0195
26112SOL    HW183466   5.362   6.137   8.184  0.2110  0.7341  0.0663
26112SOL    HW283467   5.222   6.081   8.177 -0.0896  1.0188  2.9739
26113SOL     OW83468   9.261   5.782  10.062 -0.0660 -0.0676 -0.3794
26113SOL    HW183469   9.239   5.812  10.150 -0.3598  1.3336 -0.9200
26113SOL    HW283470   9.197   5.713  10.043 -1.7479  1.5016 -0.5475
26114SOL     OW83471   0.536   7.842   0.257 -0.5609  0.1539  0.2489
26114SOL    HW183472   0.528   7.930   0.221  1.6768  0.2671 -0.0760
26114SOL    HW283473   0.468   7.837   0.324 -1.5718  1.6611 -0.6413
26115SOL     OW83474  10.957   0.494   4.014  0.3747  0.4885  0.7352
26115SOL    HW183475  11.049   0.518   4.004  0.7220 -0.2195  2.1275
26115SOL    HW283476  10.948   0.412   3.966  0.4155  0.6674  0.4189
26116SOL     OW83477   8.591   8.430   1.678 -0.3800  0.0462  0.2521
26116SOL    HW183478   8.596   8.514   1.633  1.4695 -0.6803 -0.9645
26116SOL    HW283479   8.534   8.446   1.753 -0.1953  2.3256 -0.0651
26117SOL     OW83480   6.006   6.906  10.875  0.3254 -0.2619  0.1301
26117SOL    HW183481   5.924   6.866  10.845 -0.7744  1.4528  0.7306
26117SOL    HW283482   6.055   6.834  10.914 -1.5114 -1.0653  1.0329
26118SOL     OW83483  11.240   6.382  10.619 -0.1758 -0.3930 -0.4427
26118SOL    HW183484  11.288   6.310  10.660 -2.1423 -0.8810  1.1329
26118SOL    HW283485  11.264   6.459  10.670 -0.2994 -0.4688 -0.2668
26119SOL     OW83486   7.934   7.074   0.282 -0.3319 -0.0452  0.3296
26119SOL    HW183487   8.026   7.065   0.307 -0.1144  0.8136 -0.1489
26119SOL    HW283488   7.887   7.081   0.365 -0.1942 -2.4694  0.6356
26120SOL     OW83489   9.361   6.873   8.339 -0.3619  0.1484 -0.0292
26120SOL    HW183490   9.364   6.822   8.258  2.0397 -1.1381  0.8123
26120SOL    HW283491   9.422   6.945   8.323 -0.7112  0.5018  0.2439
26121SOL     OW83492   6.447   0.538   5.717  0.4811 -0.2797  0.5143
26121SOL    HW183493   6.408   0.455   5.746  0.9913 -0.9147 -0.5801
26121SOL    HW283494   6.380   0.578   5.662  0.4903 -0.2663  0.5123
26122SOL     OW83495   2.938   5.416   0.520 -0.0353 -0.1865 -0.1593
26122SOL    HW183496   2.901   5.504   0.527 -1.3829 -0.7302 -0.2443
26122SOL    HW283497   2.969   5.409   0.429  0.2600  0.2653 -0.0931
26123SOL     OW83498   1.582   9.314   1.741  1.1918 -0.0304  0.3206
26123SOL    HW183499   1.623   9.235   1.706  0.0655  0.8526 -3.2206
26123SOL    HW283500   1.489   9.290   1.751  0.8783  0.7727 -0.6122
26124SOL     OW83501   6.816  10.497   0.218 -0.2813 -0.0108  0.1915
26124SOL    HW183502   6.848  10.507   0.307 -0.8017 -1.5997  0.5708
26124SOL    HW283503   6.890  10.524   0.163  0.7696 -1.0127  1.0779
26125SOL     OW83504   1.117   4.777   8.530  0.2959  0.7273  0.4454
26125SOL    HW183505   1.157   4.781   8.443  2.7302 -0.4557  1.4675
26125SOL    HW283506   1.077   4.863   8.542  1.0520  1.3523 -1.3157
26126SOL     OW83507   5.256   5.537   1.044  0.4683  0.0343  0.1076
26126SOL    HW183508   5.257   5.554   0.950  1.5407  0.9626  0.2726
26126SOL    HW283509   5.167   5.507   1.062  0.0667  0.4647 -1.0972
26127SOL     OW83510  10.581  10.511   7.072  0.1628  0.2865  0.6367
26127SOL    HW183511  10.539  10.488   6.989  1.3770 -0.1696  0.1432
26127SOL    HW283512  10.539  10.594   7.098  0.3246  0.8364 -0.8243
26128SOL     OW83513   5.257  10.581   3.991 -0.3431 -0.1914  0.2820
26128SOL    HW183514   5.345  10.544   3.983 -0.3965 -0.0574 -1.1167
26128SOL    HW283515   5.211  10.549   3.914 -0.7974  1.6482 -0.2331
26129SOL     OW83516   7.512   8.774   1.524  0.6015  0.5554 -0.1299
26129SOL    HW183517   7.535   8.683   1.544  1.0503  1.1870  2.4683
26129SOL    HW283518   7.594   8.822   1.534  0.8481  1.0109 -3.5498
26130SOL     OW83519   6.884   3.227   7.345  0.6931  0.4286  0.3737
26130SOL    HW183520   6.900   3.245   7.437 -0.9225  2.0407  0.3563
26130SOL    HW283521   6.826   3.150   7.345 -1.2837  1.8797  0.8105
26131SOL     OW83522   5.975   1.013  10.875 -0.1771 -0.0677  0.0342
26131SOL    HW183523   5.982   1.106  10.899  1.5295 -0.6579  1.9585
26131SOL    HW283524   6.040   1.001  10.806 -0.2275  0.1244 -0.0468
26132SOL     OW83525   9.948   9.645   2.267 -0.4805 -0.4933  0.0973
26132SOL    HW183526   9.861   9.685   2.274  0.0679  1.0326 -1.3758
26132SOL    HW283527  10.008   9.720   2.265  0.5341 -1.2919 -3.3432
26133SOL     OW83528   1.909   1.052  11.251  0.0092 -0.4701 -0.5031
26133SOL    HW183529   1.956   1.092  11.178  0.8411 -1.1403 -0.3470
26133SOL    HW283530   1.930   1.106  11.327  0.6224 -0.8413 -0.4112
26134SOL     OW83531   4.291   7.384   1.012 -0.1565  0.3146 -0.4613
26134SOL    HW183532   4.206   7.371   0.970 -0.5514 -0.0213  0.4453
26134SOL    HW283533   4.321   7.469   0.978 -1.4471  1.0677  0.2160
26135SOL     OW83534  10.584   4.641   4.621 -0.5430 -0.2272  0.1155
26135SOL    HW183535  10.585   4.659   4.715 -2.9750 -0.2316  0.1636
26135SOL    HW283536  10.565   4.725   4.580  0.7038 -0.1846 -0.4002
26136SOL     OW83537   6.564  10.700   9.141  0.0273  0.0566 -0.4940
26136SOL    HW183538   6.495  10.724   9.203 -0.0918  0.5691 -0.8184
26136SOL    HW283539   6.564  10.771   9.077  1.3754  0.4553 -0.0653
26137SOL     OW83540   0.150  10.129  10.651 -0.1131 -0.3576 -0.3759
26137SOL    HW183541   0.095  10.079  10.592 -0.1699 -0.6572 -0.0699
26137SOL    HW283542   0.224  10.157  10.598 -0.0842 -0.7620 -0.5480
26138SOL     OW83543   4.535   0.654   3.094 -0.3012  0.6466  0.2344
26138SOL    HW183544   4.468   0.633   3.159 -0.1007  0.1778  0.2925
26138SOL    HW283545   4.576   0.570   3.074  0.6999  1.0251  0.6725
26139SOL     OW83546   6.600   5.756   3.938 -0.1776 -0.1839 -0.6728
26139SOL    HW183547   6.684   5.794   3.913  0.1097 -0.0040  0.5069
26139SOL    HW283548   6.597   5.671   3.894 -0.2489  0.6353 -2.2849
26140SOL     OW83549   2.971   3.833   9.337 -0.0213  0.4270  0.4265
26140SOL    HW183550   2.896   3.828   9.277 -0.2154  0.2465  0.6811
26140SOL    HW283551   3.044   3.797   9.287 -0.0651  0.7595  0.1142
26141SOL     OW83552   3.750  10.514  10.383 -0.0976 -0.1236 -0.3532
26141SOL    HW183553   3.668  10.466  10.395 -0.4127  0.7804  1.2230
26141SOL    HW283554   3.752  10.578  10.454  2.1278 -0.3316 -0.1692
26142SOL     OW83555   7.505   9.150   5.866 -0.2859 -0.3495 -0.6873
26142SOL    HW183556   7.486   9.115   5.954  0.6796  0.7359 -0.0394
26142SOL    HW283557   7.502   9.073   5.809 -2.6709 -0.8173  0.0069
26143SOL     OW83558   2.355   4.258   3.995 -0.4223  0.0494 -0.2407
26143SOL    HW183559   2.428   4.225   4.047 -1.0749  1.0880  1.3684
26143SOL    HW283560   2.384   4.343   3.963  0.0032 -0.6153 -1.6572
26144SOL     OW83561   7.098   1.146   5.016  0.1900 -0.2462  0.3040
26144SOL    HW183562   7.031   1.078   5.006 -1.6747  1.5878 -0.0328
26144SOL    HW283563   7.084   1.204   4.941  2.0747  0.2480  0.3161
26145SOL     OW83564   5.101   9.935   1.156 -0.2260 -0.1480 -0.1081
26145SOL    HW183565   5.168   9.992   1.118 -1.5298  1.2976 -0.2947
26145SOL    HW283566   5.042   9.917   1.083 -0.5805 -0.6126  0.2911
26146SOL     OW83567   4.940   7.388   0.390 -0.7752  0.0056  0.0777
26146SOL    HW183568   4.946   7.351   0.302  1.5634 -0.7946  0.5314
26146SOL    HW283569   4.868   7.341   0.431  0.8619 -2.7057 -0.0379
26147SOL     OW83570  11.199   7.181   8.036 -0.2273 -0.3388  0.4925
26147SOL    HW183571  11.217   7.222   7.951  0.1137 -0.9546  0.2698
26147SOL    HW283572  11.171   7.092   8.015 -1.1530 -0.1753  0.9712
26148SOL     OW83573   1.005   9.795  10.282  0.8904  0.2249 -0.1008
26148SOL    HW183574   1.068   9.810  10.211 -0.7219  0.0756 -1.6012
26148SOL    HW283575   0.970   9.882  10.301  0.3679  0.0783 -0.3970
26149SOL     OW83576   1.470   5.621   4.448 -0.2977 -0.2651 -0.0436
26149SOL    HW183577   1.558   5.655   4.434 -0.0008 -0.8525  0.3639
26149SOL    HW283578   1.415   5.668   4.385  0.5144 -0.8006 -1.1646
26150SOL     OW83579   1.103   9.405   0.500 -0.1076  0.1661  0.2123
26150SOL    HW183580   1.053   9.449   0.569 -0.0626 -0.7897  0.8722
26150SOL    HW283581   1.045   9.407   0.424 -1.7580 -2.0999  1.3318
26151SOL     OW83582   7.031   1.632   1.607 -0.2669  0.2064 -0.4837
26151SOL    HW183583   7.056   1.687   1.681  2.0283 -0.2911 -0.8330
26151SOL    HW283584   7.095   1.561   1.607 -2.2108 -1.6090 -0.9948
26152SOL     OW83585   6.927   8.794   3.952  0.3471 -0.2765  0.1036
26152SOL    HW183586   6.917   8.703   3.982 -0.7072 -0.8174 -1.8287
26152SOL    HW283587   6.983   8.788   3.875  1.4066  0.8853  0.7713
26153SOL     OW83588   1.629   1.344   3.587  0.3312 -0.7063 -0.2947
26153SOL    HW183589   1.541   1.355   3.623  0.1504 -1.9865 -0.3120
26153SOL    HW283590   1.615   1.312   3.498  0.8106 -2.5917  0.2825
26154SOL     OW83591   8.614   1.167   8.451  0.9367  0.3696  0.3334
26154SOL    HW183592   8.535   1.114   8.446  0.6064  0.9280 -0.5279
26154SOL    HW283593   8.595   1.244   8.397  2.1575  0.3735 -0.1197
26155SOL     OW83594   6.419   8.553   0.304 -0.0806 -0.5809  0.0897
26155SOL    HW183595   6.428   8.583   0.395  0.4660 -1.4157  0.3176
26155SOL    HW283596   6.474   8.614   0.254 -0.1043 -0.3352  0.3579
26156SOL     OW83597   3.208   1.023   9.589  0.2708  0.3850  0.1338
26156SOL    HW183598   3.289   1.049   9.633  0.1133  1.0549  0.0366
26156SOL    HW283599   3.157   1.104   9.584 -0.1596  0.0849 -0.3230
26157SOL     OW83600   9.584   0.540   4.277 -0.1711 -0.4780 -0.0007
26157SOL    HW183601   9.540   0.494   4.349  0.2765  0.0709  0.6282
26157SOL    HW283602   9.635   0.609   4.320  1.4520 -1.2140 -0.7135
26158SOL     OW83603  10.516   1.650  10.739  0.0053 -0.4437  0.3482
26158SOL    HW183604  10.533   1.559  10.715  0.3479 -0.2957  0.0445
26158SOL    HW283605  10.420   1.656  10.745 -0.0165 -0.8133  0.3396
26159SOL     OW83606   8.062   2.075  10.024  0.4792 -0.1861 -0.4742
26159SOL    HW183607   8.057   2.108  10.114 -0.2813  0.8954 -0.9014
26159SOL    HW283608   8.055   1.980  10.033  0.9154 -0.1268  0.6421
26160SOL     OW83609   5.500   0.697   1.906  0.2812 -0.5587 -0.6561
26160SOL    HW183610   5.508   0.741   1.991  0.6352  2.3880 -2.1650
26160SOL    HW283611   5.437   0.626   1.922 -1.7476  1.6039  1.4405
26161SOL     OW83612   4.798   1.645   1.290  0.2787  0.7504  0.1582
26161SOL    HW183613   4.804   1.554   1.261 -1.0199  1.1943 -1.6215
26161SOL    HW283614   4.887   1.679   1.283  0.0940  0.7622 -3.2670
26162SOL     OW83615   5.999  11.189   7.883 -0.6259 -0.2916  0.2504
26162SOL    HW183616   6.069  11.191   7.947  0.3867 -3.3532 -0.6650
26162SOL    HW283617   5.982  11.281   7.862  2.0668  0.5432  1.5900
26163SOL     OW83618   2.545   2.617   1.991 -0.0320  0.2438 -0.5788
26163SOL    HW183619   2.583   2.703   1.971  0.6457  0.3130  0.9788
26163SOL    HW283620   2.619   2.556   1.984  0.0512  0.1564  0.8859
26164SOL     OW83621   6.857   6.280   0.768 -0.9221 -0.5469 -0.4899
26164SOL    HW183622   6.786   6.319   0.818 -0.7255 -0.6042 -0.1649
26164SOL    HW283623   6.836   6.187   0.765 -0.9013 -0.5527 -0.4578
26165SOL     OW83624   8.354   4.335   7.524 -0.2113  0.3331  0.0566
26165SOL    HW183625   8.416   4.406   7.539  0.6861 -0.4725  0.2476
26165SOL    HW283626   8.270   4.378   7.513 -0.0118  1.3040  2.0859
26166SOL     OW83627   1.259   1.136  10.356 -0.5726 -0.0724  0.0093
26166SOL    HW183628   1.352   1.130  10.375 -0.5093  0.2735 -0.2003
26166SOL    HW283629   1.216   1.116  10.439 -0.3327 -1.7763 -0.2529
26167SOL     OW83630   8.814   4.868   4.475  0.5878 -0.2386 -0.0096
26167SOL    HW183631   8.764   4.852   4.554 -2.1351 -3.4431 -2.2290
26167SOL    HW283632   8.758   4.925   4.422  1.5167  0.2721 -0.4571
26168SOL     OW83633   1.548   6.450   7.971  0.1467  0.1999  0.0154
26168SOL    HW183634   1.551   6.463   8.066  2.3395 -0.1924  0.0304
26168SOL    HW283635   1.507   6.364   7.960 -3.7795  1.9053  0.3868
26169SOL     OW83636   4.681   0.107   2.802 -0.1564  0.2239 -0.5769
26169SOL    HW183637   4.650   0.069   2.720 -1.0942  1.0555 -0.6092
26169SOL    HW283638   4.745   0.173   2.774  0.7054 -0.5828 -0.5597
26170SOL     OW83639   3.618   2.908  10.572  0.4083  0.3465  0.2754
26170SOL    HW183640   3.697   2.854  10.575 -0.1928 -0.5226  0.5461
26170SOL    HW283641   3.546   2.846  10.575 -0.3310  1.2413  3.1549
26171SOL     OW83642   8.756   8.071   3.304 -0.1656 -0.1719  0.2217
26171SOL    HW183643   8.794   8.154   3.332 -0.7202 -0.4646  1.8965
26171SOL    HW283644   8.796   8.005   3.361 -0.2915 -0.9540 -0.5808
26172SOL     OW83645   5.097   3.545  10.957 -0.2609  0.2770 -0.0796
26172SOL    HW183646   5.146   3.464  10.947  0.0231  0.7117 -2.2645
26172SOL    HW283647   5.136   3.587  11.034  1.3939 -0.3619 -0.5461
26173SOL     OW83648  11.035   9.250   9.671 -0.5863 -0.1859  0.0000
26173SOL    HW183649  10.947   9.276   9.644 -0.6825 -0.7855 -0.2794
26173SOL    HW283650  11.032   9.250   9.767 -0.7476  0.2701 -0.0049
26174SOL     OW83651  11.263  10.644   5.130  0.7335 -0.6441  0.0233
26174SOL    HW183652  11.233  10.713   5.071 -0.0576 -1.6753 -0.8081
26174SOL    HW283653  11.202  10.571   5.115 -1.0881 -0.0748  3.9880
26175SOL     OW83654   0.875   7.738   9.235  0.0360  0.6165  0.4731
26175SOL    HW183655   0.828   7.657   9.251  2.4119 -0.9737 -0.3072
26175SOL    HW283656   0.863   7.755   9.141 -0.3962  1.1157  0.6201
26176SOL     OW83657   8.432   1.646  11.167  0.3151  0.3523  0.5467
26176SOL    HW183658   8.412   1.709  11.098  0.2921  1.0940  1.2185
26176SOL    HW283659   8.512   1.602  11.139  1.7122  2.4016  1.2222
26177SOL     OW83660   5.333   2.138   7.023 -0.1307 -0.0914  0.1826
26177SOL    HW183661   5.239   2.118   7.026 -0.3193  0.7862  0.0994
26177SOL    HW283662   5.375   2.053   7.036 -0.9419 -1.0755 -2.9407
26178SOL     OW83663   7.491   2.880   9.154  0.2035 -0.5074  0.0117
26178SOL    HW183664   7.463   2.971   9.141 -0.5355 -0.6333  0.6970
26178SOL    HW283665   7.519   2.877   9.245 -1.3181 -1.3699  0.4604
26179SOL     OW83666  10.397   1.048   7.193 -0.3350 -0.4935  0.1545
26179SOL    HW183667  10.371   1.033   7.284 -2.3706 -2.3457 -0.6739
26179SOL    HW283668  10.370   1.138   7.175 -1.7032 -0.7515  0.8201
26180SOL     OW83669   1.670   6.645   5.741 -0.2828 -0.1758 -0.4215
26180SOL    HW183670   1.594   6.679   5.788  0.4533 -0.6056  1.1060
26180SOL    HW283671   1.635   6.615   5.657 -1.3315  2.2413 -0.9132
26181SOL     OW83672   7.933   0.060   7.750 -0.0469 -0.2097 -0.7549
26181SOL    HW183673   7.975   0.013   7.822 -2.7321  1.5155  2.0789
26181SOL    HW283674   7.973   0.147   7.753 -0.4440 -0.0162 -1.0782
26182SOL     OW83675  11.268   9.253   4.771 -0.3686 -0.2416 -0.0540
26182SOL    HW183676  11.223   9.279   4.690 -0.3185  0.1185  0.0307
26182SOL    HW283677  11.349   9.213   4.741  0.9503  2.3791 -0.1408
26183SOL     OW83678  10.382   1.744   7.488  0.0901 -0.1865 -0.4029
26183SOL    HW183679  10.442   1.705   7.551 -0.5417  0.4393  0.5935
26183SOL    HW283680  10.408   1.836   7.484  0.1810 -0.2374 -1.1329
26184SOL     OW83681   0.531   0.859   3.820 -0.0450  0.1497  0.2237
26184SOL    HW183682   0.611   0.811   3.838 -0.1731 -0.1808 -0.0630
26184SOL    HW283683   0.476   0.846   3.898 -0.5511 -1.1689 -0.3395
26185SOL     OW83684   9.920   1.373   0.961 -0.1345 -0.2530  0.0569
26185SOL    HW183685   9.923   1.468   0.948 -0.7834 -0.2287  0.0603
26185SOL    HW283686   9.857   1.361   1.032  1.0235 -0.5930  1.0427
26186SOL     OW83687  11.038   9.053   4.219 -0.2587  0.2518 -0.2382
26186SOL    HW183688  11.066   9.142   4.197  0.3434  0.0191 -0.4501
26186SOL    HW283689  10.956   9.041   4.172  0.5477  0.0852 -1.6527
26187SOL     OW83690   0.381   6.623   5.309  0.4511  0.0287 -0.1264
26187SOL    HW183691   0.409   6.587   5.393 -1.8120  0.9964  1.0903
26187SOL    HW283692   0.450   6.685   5.285  0.7991  0.2284  1.3420
26188SOL     OW83693   2.164   0.288   8.141 -0.7780  0.3544  0.4923
26188SOL    HW183694   2.147   0.204   8.184 -0.3508 -1.0700 -2.0011
26188SOL    HW283695   2.218   0.336   8.204  0.2840 -1.8542  1.3454
26189SOL     OW83696   9.701   2.203   8.495 -0.0511  0.1596  0.2620
26189SOL    HW183697   9.658   2.118   8.509  0.8303 -0.2866  0.2946
26189SOL    HW283698   9.663   2.236   8.414 -1.9219  0.6900  1.3332
26190SOL     OW83699   4.356   2.627   0.533  0.1202 -0.0264  0.3006
26190SOL    HW183700   4.302   2.669   0.599 -0.0087  1.1449 -0.5395
26190SOL    HW283701   4.332   2.670   0.451  1.6989 -0.1105 -0.2241
26191SOL     OW83702   5.883   5.392   1.950  0.1385 -0.2355 -0.6038
26191SOL    HW183703   5.902   5.337   1.873 -0.2326  0.2111 -1.0169
26191SOL    HW283704   5.870   5.479   1.914  0.7224  0.1287  0.0579
26192SOL     OW83705   5.045   8.827   1.120 -0.2513  0.0901  0.4675
26192SOL    HW183706   5.119   8.778   1.157  0.6902  0.1730 -1.2348
26192SOL    HW283707   5.055   8.915   1.157  1.0000  0.3198 -0.3958
26193SOL     OW83708   0.741   5.980  10.342 -0.7867 -0.2999 -0.8847
26193SOL    HW183709   0.669   5.931  10.381 -0.9027 -0.4906 -1.3337
26193SOL    HW283710   0.711   6.003  10.254 -1.1425  1.4640 -0.3359
26194SOL     OW83711   2.886   2.854   6.315  0.6387 -0.5146 -0.9224
26194SOL    HW183712   2.818   2.858   6.247  0.9136  0.4116 -1.1461
26194SOL    HW283713   2.859   2.780   6.371 -0.2853 -0.4641 -1.2906
26195SOL     OW83714   8.107  10.236   4.253  0.1402 -0.5047  0.7417
26195SOL    HW183715   8.115  10.215   4.345  0.0260  2.0919  1.3863
26195SOL    HW283716   8.081  10.328   4.251  3.3700  0.4587 -1.9060
26196SOL     OW83717   9.206   6.404   3.567  0.4398  0.4604 -0.0003
26196SOL    HW183718   9.136   6.397   3.502  1.8914 -0.7290 -1.4690
26196SOL    HW283719   9.224   6.498   3.572 -1.9139  0.8942  1.1485
26197SOL     OW83720   9.663   1.086   3.152  0.4002 -0.2393 -0.3629
26197SOL    HW183721   9.592   1.033   3.189 -0.1516  0.1217 -0.8830
26197SOL    HW283722   9.618   1.152   3.099  1.1449 -0.2261 -0.9809
26198SOL     OW83723   1.375   9.758   8.163 -0.8565 -0.2071 -0.0763
26198SOL    HW183724   1.395   9.806   8.243 -1.3320  0.0863 -0.1308
26198SOL    HW283725   1.391   9.666   8.184  1.9430  0.1158 -0.5263
26199SOL     OW83726   8.503   6.695   8.204 -0.0520  0.7072  0.2311
26199SOL    HW183727   8.548   6.778   8.188  0.9003  0.8606  3.4531
26199SOL    HW283728   8.429   6.717   8.260  0.5885 -0.6835  1.6648
26200SOL     OW83729   3.653   9.538   1.859  0.2014  0.0438  0.1374
26200SOL    HW183730   3.635   9.632   1.853  1.8158  0.3672  0.2391
26200SOL    HW283731   3.589   9.498   1.799 -0.1189  1.2448 -0.3449
26201SOL     OW83732  10.324   4.806   3.527 -0.2141  0.4030  0.2306
26201SOL    HW183733  10.232   4.820   3.503 -0.3509 -0.0162  0.5003
26201SOL    HW283734  10.329   4.712   3.545  0.4875  0.2539 -0.7095
26202SOL     OW83735   4.146   4.255   4.276 -0.7366 -0.6133  0.0232
26202SOL    HW183736   4.062   4.269   4.319  0.0003 -0.4270  1.4479
26202SOL    HW283737   4.176   4.171   4.308 -0.3894 -0.6930 -0.5028
26203SOL     OW83738  10.928   3.692   8.588 -0.3052  0.7975  0.0246
26203SOL    HW183739  10.840   3.655   8.598 -0.3460  0.3558 -1.8208
26203SOL    HW283740  10.937   3.751   8.663 -3.5010  3.3847 -1.4818
26204SOL     OW83741   1.283   7.553   1.670 -0.0123  0.1207 -0.4500
26204SOL    HW183742   1.230   7.506   1.734  1.5559 -0.3635  0.5220
26204SOL    HW283743   1.230   7.552   1.590 -2.3357  1.4397  1.0255
26205SOL     OW83744   2.665   7.728   0.539 -0.4342  0.1609  0.3420
26205SOL    HW183745   2.641   7.646   0.497 -2.4250  0.9879 -0.2062
26205SOL    HW283746   2.595   7.744   0.603  0.2034  1.1595  0.8139
26206SOL     OW83747  11.037   4.519   1.242 -0.0778 -0.5460  0.7102
26206SOL    HW183748  11.039   4.425   1.227 -3.6576 -0.7749  1.0864
26206SOL    HW283749  11.024   4.557   1.155  0.3524 -0.4853  0.6747
26207SOL     OW83750   3.552   6.781   1.308  0.0084 -0.2575  0.6215
26207SOL    HW183751   3.577   6.790   1.216 -0.9765  0.3328  0.4056
26207SOL    HW283752   3.612   6.840   1.355 -0.2764  0.3653  0.2192
26208SOL     OW83753   9.207   9.192   2.362  0.4209  0.3124  0.0832
26208SOL    HW183754   9.268   9.263   2.383  0.3275  0.3019  0.3879
26208SOL    HW283755   9.196   9.198   2.267  0.3704  0.7424  0.1140
26209SOL     OW83756  11.246  10.258   2.765 -0.0808 -0.5476 -0.4053
26209SOL    HW183757  11.257  10.353   2.777 -1.7913 -0.4600  0.6082
26209SOL    HW283758  11.287  10.220   2.842 -1.0282 -0.5394  0.1046
26210SOL     OW83759  11.226   8.504   7.735 -0.4316  0.1117 -0.2266
26210SOL    HW183760  11.295   8.567   7.754 -0.3356  0.4161 -1.5965
26210SOL    HW283761  11.270   8.419   7.731 -0.6114 -0.1351  1.9672
26211SOL     OW83762  10.192   8.991   8.249 -0.1908  0.2800 -0.2472
26211SOL    HW183763  10.139   9.067   8.224  1.4941  1.7808  0.5719
26211SOL    HW283764  10.271   8.999   8.195 -0.0507 -0.9436 -0.2253
26212SOL     OW83765   4.119   7.086   4.760 -0.0510 -0.1092  0.0439
26212SOL    HW183766   4.207   7.060   4.734 -0.9412 -1.0104 -2.1852
26212SOL    HW283767   4.110   7.053   4.850  1.8130 -0.1418  0.2395
26213SOL     OW83768   9.615   6.694   9.476  0.8508 -0.5417  0.2467
26213SOL    HW183769   9.583   6.781   9.454 -0.3015 -1.1948 -0.7518
26213SOL    HW283770   9.682   6.708   9.543  0.4695  1.0726  0.2904
26214SOL     OW83771   2.343   8.900   2.368  0.3520  0.0263  0.1406
26214SOL    HW183772   2.298   8.842   2.306 -0.4984  0.2516  0.5352
26214SOL    HW283773   2.431   8.864   2.376 -0.0076 -0.8912 -0.0291
26215SOL     OW83774  10.749  10.249   1.626 -0.0925 -0.3520 -0.0193
26215SOL    HW183775  10.679  10.240   1.691  0.5532 -0.5277  0.6621
26215SOL    HW283776  10.718  10.202   1.549 -0.3929 -1.0983  0.5530
26216SOL     OW83777   6.567   3.695   9.737  0.0760 -0.2506 -0.2612
26216SOL    HW183778   6.605   3.637   9.671 -0.0958  0.0655 -0.6396
26216SOL    HW283779   6.517   3.637   9.794 -0.3365 -0.4387 -0.8113
26217SOL     OW83780   5.656   9.636   0.937 -0.0977  0.5773  0.3728
26217SOL    HW183781   5.615   9.569   0.990 -0.0095  0.2483  0.0272
26217SOL    HW283782   5.640   9.608   0.847  1.7300 -0.0779  0.2333
26218SOL     OW83783   1.143  10.584   1.345 -0.3833  0.1431  0.7551
26218SOL    HW183784   1.199  10.652   1.309  0.9138 -0.4607  1.5788
26218SOL    HW283785   1.086  10.559   1.273 -0.5517  1.7599  0.3060
26219SOL     OW83786   6.545   9.143   2.135  0.4625  0.0846  0.1553
26219SOL    HW183787   6.507   9.157   2.222 -0.6881 -0.0898 -0.3187
26219SOL    HW283788   6.568   9.050   2.133 -0.1504 -0.0624  0.0149
26220SOL     OW83789   2.545   3.203   6.447 -0.2520  0.0572  0.1248
26220SOL    HW183790   2.531   3.296   6.432  0.4639 -0.0490 -1.3441
26220SOL    HW283791   2.603   3.176   6.375 -0.1705 -1.4399  0.7334
26221SOL     OW83792   1.329  10.055   5.641 -0.1000 -0.0348  0.2030
26221SOL    HW183793   1.303   9.964   5.624  1.4729 -0.1805 -1.6283
26221SOL    HW283794   1.419  10.049   5.673  0.7836  0.9808 -1.9843
26222SOL     OW83795   9.758   4.409   1.377  0.4542 -0.1105  0.9225
26222SOL    HW183796   9.799   4.477   1.324  0.3277 -0.5874  0.2052
26222SOL    HW283797   9.831   4.359   1.413  0.5120 -1.1161 -0.5578
26223SOL     OW83798   0.573  10.479   8.797  0.6434  0.0300  0.2672
26223SOL    HW183799   0.642  10.417   8.820  0.6366  0.6058  1.9558
26223SOL    HW283800   0.616  10.565   8.803  0.3768  0.2461 -0.9655
26224SOL     OW83801   1.996   4.853   7.084  0.6127 -0.4579 -0.1673
26224SOL    HW183802   2.077   4.904   7.092  1.1052 -1.2096 -0.2407
26224SOL    HW283803   1.948   4.871   7.165  0.9843 -0.2224  0.0006
26225SOL     OW83804  10.870   7.665   1.663  0.0986  0.0532 -0.0450
26225SOL    HW183805  10.917   7.645   1.582 -0.0377  0.8699 -0.3282
26225SOL    HW283806  10.938   7.696   1.723  0.2940 -1.1299  0.3580
26226SOL     OW83807  11.057   2.252   3.672 -0.0631  0.1846 -0.6068
26226SOL    HW183808  11.025   2.162   3.664 -0.8375  0.2429  1.6295
26226SOL    HW283809  11.153   2.244   3.670 -0.1255 -0.7230  0.0290
26227SOL     OW83810   6.668   2.764  11.058 -0.5521  0.1881 -0.0759
26227SOL    HW183811   6.648   2.783  10.967 -2.3637 -2.9285 -0.3814
26227SOL    HW283812   6.597   2.708  11.088  0.5530  0.2828  2.9617
26228SOL     OW83813   0.187  11.291   8.867  0.2889  0.3451 -0.0825
26228SOL    HW183814   0.126  11.246   8.808 -0.3188  1.1493 -0.0665
26228SOL    HW283815   0.224  11.361   8.813 -1.0227  1.7145  0.7924
26229SOL     OW83816   2.215   0.881   5.723  0.5529 -0.5535  0.1212
26229SOL    HW183817   2.257   0.854   5.805  1.5052 -0.8576 -0.4564
26229SOL    HW283818   2.198   0.800   5.676 -1.1253 -0.4671  0.5408
26230SOL     OW83819   0.830   2.586   9.157  0.5266  0.6727  0.0963
26230SOL    HW183820   0.872   2.581   9.243  2.3047  1.0037 -0.7195
26230SOL    HW283821   0.737   2.576   9.175  0.9600 -0.3281  1.9562
26231SOL     OW83822   5.941   2.644   7.335 -0.2094  0.4482 -0.1719
26231SOL    HW183823   5.856   2.602   7.348 -0.1373  0.6678  1.0586
26231SOL    HW283824   5.979   2.598   7.260 -0.6845 -0.8206  0.3504
26232SOL     OW83825   2.436   4.131   9.962  0.3884 -0.5351 -0.2778
26232SOL    HW183826   2.484   4.056   9.929 -0.6302 -0.2456 -2.5258
26232SOL    HW283827   2.422   4.187   9.885  0.8890  1.8292  1.2770
26233SOL     OW83828   3.397   3.779   1.776 -0.5713  0.2543  0.1015
26233SOL    HW183829   3.428   3.725   1.704 -1.3456 -0.1201  0.0451
26233SOL    HW283830   3.339   3.843   1.735 -3.2377 -1.6874  0.6946
26234SOL     OW83831  11.171   8.487   0.525 -0.0879 -0.1720  0.1590
26234SOL    HW183832  11.148   8.493   0.432 -0.0280  0.1364  0.1629
26234SOL    HW283833  11.264   8.464   0.525  0.5150  2.1180  0.1268
26235SOL     OW83834  10.095   3.935   3.425  0.3924  0.0001 -0.0238
26235SOL    HW183835  10.123   4.027   3.426  1.6697 -0.3751  0.0868
26235SOL    HW283836  10.075   3.915   3.516 -0.4936  0.3402 -0.1379
26236SOL     OW83837   6.486   1.890   3.384 -0.0080  0.0177 -0.0252
26236SOL    HW183838   6.444   1.819   3.334  0.6511  0.3921 -1.1308
26236SOL    HW283839   6.465   1.871   3.475 -3.3380  0.6742 -0.5936
26237SOL     OW83840   1.014  10.210   0.710  0.1573 -0.1918 -0.2504
26237SOL    HW183841   1.012  10.138   0.774  0.1254 -0.5426 -0.6412
26237SOL    HW283842   0.941  10.191   0.651  1.6328 -1.2037 -1.8098
26238SOL     OW83843   9.578   0.133   1.934  0.1269  0.5265  0.1502
26238SOL    HW183844   9.506   0.177   1.889  0.0110 -0.2999 -0.4628
26238SOL    HW283845   9.622   0.083   1.866  0.6319  0.1683  0.7388
26239SOL     OW83846   7.137  10.638   7.490 -0.3396 -0.4188 -0.7130
26239SOL    HW183847   7.209  10.689   7.529 -1.3105  1.0056 -0.7441
26239SOL    HW283848   7.062  10.698   7.492 -1.6185 -2.0063 -0.3614
26240SOL     OW83849   9.792  10.493   7.236 -0.1749  0.3605  0.6916
26240SOL    HW183850   9.888  10.491   7.230 -0.1510 -1.0409  1.2793
26240SOL    HW283851   9.764  10.413   7.192 -0.9365 -0.3926  2.5134
26241SOL     OW83852   2.492  11.269   7.202 -0.0097  0.2671  0.2080
26241SOL    HW183853   2.425  11.300   7.262 -0.2075 -1.3300  0.8402
26241SOL    HW283854   2.444  11.227   7.131  0.2433  1.6574 -0.8030
26242SOL     OW83855   5.984   2.076   2.755 -0.1061  0.4354  0.0702
26242SOL    HW183856   5.982   2.048   2.846  1.1442 -0.7751 -0.2535
26242SOL    HW283857   6.067   2.042   2.721 -0.1099  1.6959 -1.2611
26243SOL     OW83858   6.406   6.216   7.803 -0.8378 -0.0057  0.0394
26243SOL    HW183859   6.316   6.193   7.783 -0.7917 -0.0154 -0.1633
26243SOL    HW283860   6.452   6.206   7.720 -0.4056 -1.2443  0.4110
26244SOL     OW83861   4.774   2.419   0.237 -0.1518  0.4577  0.1951
26244SOL    HW183862   4.834   2.370   0.294 -2.4519 -1.4907  1.0238
26244SOL    HW283863   4.818   2.418   0.152  1.5539  0.0944  1.0386
26245SOL     OW83864   2.390   8.592  11.105 -0.1162  0.8578  0.2747
26245SOL    HW183865   2.401   8.552  11.019  0.2028  1.2089  0.1544
26245SOL    HW283866   2.318   8.654  11.094  1.6847  2.8837 -0.4314
26246SOL     OW83867   9.754   8.735   0.111 -0.3014 -0.0766 -0.6847
26246SOL    HW183868   9.813   8.758   0.040  0.1446  0.1110 -0.2548
26246SOL    HW283869   9.769   8.642   0.127  1.2872  0.4036  0.7304
26247SOL     OW83870   3.374   5.335   9.301  0.1512  0.5243 -0.3470
26247SOL    HW183871   3.386   5.353   9.394  1.5837 -1.1771 -0.1891
26247SOL    HW283872   3.439   5.391   9.257  0.3078  0.4102 -0.2587
26248SOL     OW83873   0.997   1.612   6.280 -0.1261  0.4154 -0.3017
26248SOL    HW183874   1.015   1.521   6.303 -1.9322 -0.0678 -0.7126
26248SOL    HW283875   1.081   1.657   6.292  0.5832 -1.1342  0.6763
26249SOL     OW83876   8.348   1.550   2.411 -0.0576 -0.5373 -0.1527
26249SOL    HW183877   8.289   1.478   2.434 -0.6468 -1.0160 -2.9680
26249SOL    HW283878   8.410   1.511   2.350  2.3583  0.3157  1.6853
26250SOL     OW83879  11.258  10.929  10.689 -0.5751  0.4627  0.2343
26250SOL    HW183880  11.205  10.954  10.765 -0.6129 -0.9932  0.6913
26250SOL    HW283881  11.327  10.873  10.724 -0.8130 -0.5251 -0.8476
26251SOL     OW83882   2.680   4.937  10.260 -0.6287 -0.7076 -0.2452
26251SOL    HW183883   2.749   4.922  10.195 -0.9291 -0.8819 -0.5271
26251SOL    HW283884   2.630   4.855  10.261 -0.3130 -0.8967  0.5854
26252SOL     OW83885   4.062   4.232   1.138 -0.6554 -0.3666  0.3053
26252SOL    HW183886   3.999   4.250   1.068  1.5896  1.0133 -1.4399
26252SOL    HW283887   4.055   4.308   1.196 -1.8387 -1.0634  1.0973
26253SOL     OW83888   1.739   9.524   9.198  0.0337  0.1940  0.6734
26253SOL    HW183889   1.734   9.448   9.141  0.8900  0.2195  0.5656
26253SOL    HW283890   1.715   9.491   9.285 -1.3950  0.1804  0.2925
26254SOL     OW83891   0.057   8.968   4.465  0.0673  0.7798 -0.2351
26254SOL    HW183892   0.102   8.889   4.434  2.2397  1.2669  1.5807
26254SOL    HW283893   0.069   9.031   4.394  0.1777  0.1507 -0.7868
26255SOL     OW83894   4.328   9.649   2.024  0.4434 -0.5598  0.1094
26255SOL    HW183895   4.268   9.710   1.980 -1.0394 -0.3176  2.3946
26255SOL    HW283896   4.406   9.649   1.968 -0.5324  1.4031 -1.3528
26256SOL     OW83897   4.638   7.489   4.810 -0.3876 -0.1247 -0.3437
26256SOL    HW183898   4.573   7.439   4.761 -0.8307 -0.6880  0.7985
26256SOL    HW283899   4.595   7.510   4.892  0.3753  0.7476 -0.1559
26257SOL     OW83900   8.682   8.477   2.977  0.4546  0.6224 -0.0984
26257SOL    HW183901   8.641   8.550   3.021  0.3975  0.5419 -0.0185
26257SOL    HW283902   8.611   8.432   2.931  0.4257  0.3879  0.1729
26258SOL     OW83903   4.136   3.507   4.669 -0.0382  0.3914  0.5265
26258SOL    HW183904   4.195   3.450   4.719 -1.1441  0.5945  2.0889
26258SOL    HW283905   4.101   3.568   4.734 -3.0060 -0.5625 -0.1004
26259SOL     OW83906   5.183   4.680   5.126 -0.0163  0.3198 -0.4406
26259SOL    HW183907   5.242   4.607   5.147 -0.6251 -0.3335 -0.9770
26259SOL    HW283908   5.115   4.641   5.071  0.4670  1.6028 -1.9833
26260SOL     OW83909   8.377   7.342   3.574  0.5227 -0.6301  0.3512
26260SOL    HW183910   8.452   7.387   3.535 -0.8673  0.7033 -0.8667
26260SOL    HW283911   8.302   7.369   3.520 -1.1179 -0.5000  2.6179
26261SOL     OW83912   9.237   4.513   0.738 -0.0307 -0.4953 -0.4083
26261SOL    HW183913   9.238   4.573   0.812  0.4134 -0.9573 -0.0397
26261SOL    HW283914   9.200   4.564   0.666 -0.5956 -0.0945  0.1662
26262SOL     OW83915   0.175   9.896   2.752  0.2540  0.4013  0.3515
26262SOL    HW183916   0.231   9.925   2.680 -2.2413  0.9610 -1.4173
26262SOL    HW283917   0.149   9.977   2.796  1.3667  0.0964  1.6241
26263SOL     OW83918   8.480   0.829   3.951 -0.2788  0.4698  0.3363
26263SOL    HW183919   8.447   0.914   3.982  1.0133  0.9924  0.2868
26263SOL    HW283920   8.451   0.767   4.018 -1.3641  0.9181  0.3003
26264SOL     OW83921   3.467   3.598   0.261  0.9411 -0.3215  0.5386
26264SOL    HW183922   3.514   3.655   0.200  0.2476 -1.1737 -0.8380
26264SOL    HW283923   3.525   3.524   0.274  0.0027 -1.4261 -1.2467
26265SOL     OW83924   7.068   4.748   0.099  0.5548  0.2531  0.7383
26265SOL    HW183925   7.047   4.690   0.026  3.0538  1.4715 -0.9997
26265SOL    HW283926   6.982   4.770   0.137 -0.7299 -1.0348 -1.3078
26266SOL     OW83927   6.063   4.149   2.473 -0.3209  0.6264 -0.3264
26266SOL    HW183928   6.087   4.132   2.564 -0.8393  0.6688 -0.1765
26266SOL    HW283929   6.105   4.232   2.452  0.6384  0.1130 -0.4504
26267SOL     OW83930   9.371   5.975   4.143  0.4878  0.1655  0.5619
26267SOL    HW183931   9.393   6.035   4.072 -4.9441  0.3583 -1.1352
26267SOL    HW283932   9.435   5.904   4.134  1.6386  1.5093 -2.7717
26268SOL     OW83933   6.223   2.894   6.120 -0.6156 -0.2137  0.3271
26268SOL    HW183934   6.246   2.803   6.100  0.8990  0.1425  0.3640
26268SOL    HW283935   6.136   2.889   6.161 -0.4645 -1.6634  0.4809
26269SOL     OW83936  10.938  10.732   0.389 -0.3074 -0.0986 -0.2318
26269SOL    HW183937  11.003  10.686   0.336 -2.0765 -0.0687 -2.4937
26269SOL    HW283938  10.979  10.815   0.411  1.5091 -1.2335  0.8122
26270SOL     OW83939   4.430   9.830   4.301 -1.0638 -0.3154 -0.0953
26270SOL    HW183940   4.493   9.878   4.354 -2.4524  0.8613  0.5084
26270SOL    HW283941   4.440   9.739   4.328  1.3018 -0.3509 -0.9668
26271SOL     OW83942   8.736   4.383   6.874 -0.2097 -0.8252 -0.2584
26271SOL    HW183943   8.648   4.346   6.863 -0.2194 -0.9583  0.2677
26271SOL    HW283944   8.727   4.474   6.846 -1.0289 -0.2356  1.8331
26272SOL     OW83945   8.640  10.106   9.693 -0.5531 -0.0147 -0.6859
26272SOL    HW183946   8.672  10.033   9.745 -0.2256 -0.7993 -1.9737
26272SOL    HW283947   8.690  10.181   9.724 -1.0834 -0.2552  0.8368
26273SOL     OW83948   0.235   5.805   7.889 -0.6460  0.1224  0.8817
26273SOL    HW183949   0.260   5.894   7.867  2.1010 -0.9660 -0.6252
26273SOL    HW283950   0.191   5.772   7.811 -0.5228 -0.2516  0.9670
26274SOL     OW83951   9.181   6.712   6.047  0.5623  0.0407  0.4360
26274SOL    HW183952   9.176   6.637   5.988  0.4788 -0.1627  0.7031
26274SOL    HW283953   9.273   6.714   6.075  0.4483 -0.2793  0.8421
26275SOL     OW83954   0.757   6.249   1.371  0.0407 -0.8371  0.0039
26275SOL    HW183955   0.825   6.263   1.304  1.0980 -0.6742  1.0925
26275SOL    HW283956   0.790   6.297   1.448 -1.1143 -1.1097  0.6679
26276SOL     OW83957   4.924   8.246   9.030  0.1716 -0.4969 -0.1345
26276SOL    HW183958   4.840   8.291   9.041  0.6839  0.4705 -0.1436
26276SOL    HW283959   4.977   8.275   9.104  0.7549 -0.5353 -0.5343
26277SOL     OW83960   3.063   5.779   6.417  0.0836  0.1145 -0.1193
26277SOL    HW183961   3.029   5.695   6.449 -2.6071  1.2339  0.1360
26277SOL    HW283962   3.044   5.778   6.323  2.0415 -0.4577 -0.5176
26278SOL     OW83963   7.499   5.127   9.188 -0.3080  0.0860  0.0223
26278SOL    HW183964   7.409   5.095   9.194 -0.6142  0.9374  0.1500
26278SOL    HW283965   7.543   5.091   9.265 -0.4556 -0.5959 -0.2152
26279SOL     OW83966   9.189   2.203   2.254  0.0103 -0.3875  0.5078
26279SOL    HW183967   9.223   2.287   2.225 -0.1542 -0.2823  0.6181
26279SOL    HW283968   9.108   2.191   2.203 -0.3362 -0.1508  0.9928
26280SOL     OW83969   7.413   5.441   7.042  0.2003  0.1693 -0.1959
26280SOL    HW183970   7.499   5.461   7.080 -0.1134  1.4335 -0.1363
26280SOL    HW283971   7.432   5.391   6.963  0.9914  0.4610 -0.1900
26281SOL     OW83972   7.607   7.895   6.447 -0.2450 -0.0405  0.1881
26281SOL    HW183973   7.551   7.903   6.523 -1.8887  0.2944 -1.0349
26281SOL    HW283974   7.674   7.832   6.473 -0.4739  0.4787  2.0730
26282SOL     OW83975   3.815   8.168   5.972  0.1230 -0.3208 -0.5009
26282SOL    HW183976   3.746   8.208   5.919  0.3666 -0.1167 -0.6657
26282SOL    HW283977   3.895   8.213   5.946  0.0373  0.7793  1.0668
26283SOL     OW83978   0.158   2.193   9.918 -0.4229 -0.1777  0.3754
26283SOL    HW183979   0.114   2.277   9.931  0.4480  0.3703 -0.1277
26283SOL    HW283980   0.203   2.176  10.001 -0.7511 -0.2435  0.5418
26284SOL     OW83981   8.095   4.971   5.970  0.2778 -0.1900 -0.5010
26284SOL    HW183982   8.032   4.905   5.942  1.3753 -2.0563  1.2627
26284SOL    HW283983   8.049   5.022   6.037 -0.1855  0.0811 -1.0259
26285SOL     OW83984   1.736   6.354   0.419 -0.0581  0.2441  0.2180
26285SOL    HW183985   1.716   6.283   0.479  0.9150  0.0536  0.3261
26285SOL    HW283986   1.803   6.319   0.360  1.3375  1.4343  1.0430
26286SOL     OW83987   0.874   8.128   1.392  0.3671  0.6585  0.5574
26286SOL    HW183988   0.853   8.128   1.299 -1.1943  1.6833  0.8770
26286SOL    HW283989   0.799   8.086   1.434  1.3755 -0.4188  1.2919
26287SOL     OW83990   1.412   9.929   7.624 -0.0349 -0.2758  0.3467
26287SOL    HW183991   1.324   9.956   7.597  0.2972  0.8478  0.3475
26287SOL    HW283992   1.423   9.967   7.711  0.1514 -1.0906  0.6796
26288SOL     OW83993   5.501   3.520   9.725 -0.2057  0.5250  0.0510
26288SOL    HW183994   5.587   3.532   9.766 -0.0589 -0.7184  0.0999
26288SOL    HW283995   5.514   3.452   9.659 -1.4459 -0.5682  0.9211
26289SOL     OW83996  10.764   6.706   3.043 -0.1135  0.2059 -0.2420
26289SOL    HW183997  10.803   6.642   2.984  0.0124  1.3867 -1.4510
26289SOL    HW283998  10.677   6.670   3.063  0.7217 -1.3447  0.7348
26290SOL     OW83999   2.318   0.679   0.092  0.0107  0.3292  0.0904
26290SOL    HW184000   2.307   0.769   0.123 -1.6497 -0.0771  0.7640
26290SOL    HW284001   2.320   0.626   0.172 -0.1664 -0.3431 -0.3471
26291SOL     OW84002   0.988   7.321   9.095 -0.2891  0.6064 -0.0171
26291SOL    HW184003   0.954   7.357   9.176  2.5831  0.2718  1.3829
26291SOL    HW284004   1.009   7.397   9.041 -0.6482  0.8496  0.1838
26292SOL     OW84005   6.496   5.382   9.047  0.3069  0.7596 -0.2098
26292SOL    HW184006   6.456   5.296   9.055  3.7140 -0.8988 -0.0622
26292SOL    HW284007   6.469   5.429   9.126  0.8739 -1.2894  1.2475
26293SOL     OW84008   7.658   7.910   3.381  0.0898  0.0731 -0.3795
26293SOL    HW184009   7.583   7.905   3.441 -1.6869  0.0919 -2.5507
26293SOL    HW284010   7.632   7.974   3.315  2.5873  1.1026 -0.4344
26294SOL     OW84011   5.181   1.221   3.752 -0.5828 -0.0715  0.6835
26294SOL    HW184012   5.231   1.179   3.822 -1.1847  0.3369  1.3611
26294SOL    HW284013   5.220   1.187   3.671  1.5843  1.1678  1.1926
26295SOL     OW84014  11.180   4.467   6.012  0.2518  0.4288  0.3133
26295SOL    HW184015  11.160   4.448   5.921  2.5641  1.5223 -0.4835
26295SOL    HW284016  11.218   4.555   6.010 -0.2225  0.7176  2.4100
26296SOL     OW84017  10.623   9.909   3.219  0.6765 -0.1500 -0.3727
26296SOL    HW184018  10.595   9.843   3.156 -1.1669 -1.0468  1.3431
26296SOL    HW284019  10.613   9.993   3.173 -3.0467 -0.5791 -0.4933
26297SOL     OW84020   9.810   2.082   5.961  0.6511 -0.2180 -0.1064
26297SOL    HW184021   9.768   2.117   5.882 -1.3529 -0.6923  0.7085
26297SOL    HW284022   9.903   2.082   5.941  0.4024  2.2752 -1.4308
26298SOL     OW84023  10.565   3.966  10.461 -0.1977 -0.3043 -0.1102
26298SOL    HW184024  10.522   3.966  10.375  0.0213 -1.6769 -0.2464
26298SOL    HW284025  10.499   3.930  10.520 -0.5487  1.1847  0.4130
26299SOL     OW84026   6.961   3.075  10.708  0.3510 -0.4389 -0.1830
26299SOL    HW184027   7.000   3.157  10.737  0.2231  0.6941 -3.0377
26299SOL    HW284028   7.029   3.010  10.722  0.3698  0.0691  2.3366
26300SOL     OW84029   1.646   8.726   6.918  0.0651 -0.1308 -0.3173
26300SOL    HW184030   1.678   8.704   6.831 -0.2026 -1.9494  0.0278
26300SOL    HW284031   1.565   8.676   6.927 -0.0920  0.3271  0.8305
26301SOL     OW84032   1.944  11.041   3.879 -0.0536 -0.1034 -0.2143
26301SOL    HW184033   1.963  11.113   3.819 -0.5962  1.0118  0.9165
26301SOL    HW284034   1.852  11.053   3.903  0.6088  0.5631  2.2136
26302SOL     OW84035   2.141   9.747   8.521 -0.0272 -0.3056 -0.2906
26302SOL    HW184036   2.228   9.726   8.554  1.5052  0.1865 -3.7998
26302SOL    HW284037   2.081   9.715   8.589  2.8171 -1.7052  1.6494
26303SOL     OW84038   9.635   0.027   4.357 -0.0369  0.4041  0.3340
26303SOL    HW184039   9.709   0.056   4.304  0.5147 -1.6118 -0.0501
26303SOL    HW284040   9.657  -0.063   4.381 -0.4242  1.1740  3.7582
26304SOL     OW84041  11.237   0.700   8.105 -0.3563 -0.2111 -0.3805
26304SOL    HW184042  11.298   0.695   8.178 -1.3894 -0.0277  0.5154
26304SOL    HW284043  11.164   0.753   8.138 -0.3647  0.7580 -1.8847
26305SOL     OW84044   8.750   6.465   0.625  0.1615  0.8310  0.5618
26305SOL    HW184045   8.670   6.498   0.583 -0.7755 -2.2241 -0.1187
26305SOL    HW284046   8.807   6.441   0.552  1.0706  1.4702  1.0538
26306SOL     OW84047   0.899   4.155  11.187  0.0200 -0.2776 -0.1998
26306SOL    HW184048   0.983   4.137  11.231  0.0903 -1.2030 -0.6827
26306SOL    HW284049   0.881   4.075  11.138 -1.2098 -0.1155 -0.0154
26307SOL     OW84050   6.126   4.582  10.309 -0.7794  0.6155  0.2535
26307SOL    HW184051   6.037   4.606  10.282 -1.0676 -1.5861 -0.8298
26307SOL    HW284052   6.182   4.643  10.262 -1.5621  0.0250 -1.4710
26308SOL     OW84053   5.995   6.408   0.189 -0.3568  0.2179 -0.0965
26308SOL    HW184054   5.919   6.429   0.243 -0.1170  0.8713 -0.0120
26308SOL    HW284055   6.005   6.313   0.197 -1.1379  0.1343 -0.0756
26309SOL     OW84056   3.352  10.018   0.175 -0.0413 -0.3174  0.2477
26309SOL    HW184057   3.274  10.006   0.121 -0.0169  0.1674  0.1004
26309SOL    HW284058   3.318  10.047   0.259 -0.0128 -0.0182  0.1554
26310SOL     OW84059   5.634   7.219   0.819  0.0601  0.1946  0.0951
26310SOL    HW184060   5.576   7.258   0.884 -1.2303  0.2205 -1.0298
26310SOL    HW284061   5.635   7.126   0.841 -0.0896  0.2583  0.3706
26311SOL     OW84062   7.701   7.830   5.943 -0.0981  0.0935 -0.2607
26311SOL    HW184063   7.606   7.826   5.945 -0.0525 -0.6305  1.6133
26311SOL    HW284064   7.723   7.915   5.981  0.0314 -0.7779  1.7063
26312SOL     OW84065   8.862   5.703   5.378 -0.1631 -0.1432 -0.1021
26312SOL    HW184066   8.954   5.726   5.368  0.0657 -0.5761  0.9042
26312SOL    HW284067   8.848   5.632   5.315  0.5964 -1.1260  0.8051
26313SOL     OW84068   0.155   4.138   5.116  0.0302  0.6807 -0.1911
26313SOL    HW184069   0.158   4.233   5.113  0.7889  0.7430  1.7184
26313SOL    HW284070   0.232   4.110   5.066  1.6128  1.1696  1.8873
26314SOL     OW84071   7.772   1.918   9.769 -0.5359 -0.2875 -0.1472
26314SOL    HW184072   7.818   1.861   9.707 -0.8372 -1.2037  0.4627
26314SOL    HW284073   7.816   2.003   9.761  0.3681 -0.7884 -0.5568
26315SOL     OW84074   2.619   1.403   9.921 -0.0850 -0.5174  0.3613
26315SOL    HW184075   2.524   1.408   9.934 -0.0164  0.8145  0.3592
26315SOL    HW284076   2.654   1.476   9.972  0.8267 -0.1246 -0.8122
26316SOL     OW84077   9.047  10.103   5.583  0.5447 -0.4592  0.3030
26316SOL    HW184078   9.043  10.151   5.501 -1.0304  0.1725  0.7247
26316SOL    HW284079   9.048  10.010   5.557  0.1193 -0.2607 -0.4174
26317SOL     OW84080   7.871   1.533   3.063 -0.1660 -0.0784  0.5455
26317SOL    HW184081   7.903   1.568   3.146 -0.2287 -1.0260  0.9718
26317SOL    HW284082   7.950   1.502   3.018 -0.1244  0.4924  0.2122
26318SOL     OW84083   6.233   1.275   1.927  0.0696 -0.4287  0.9861
26318SOL    HW184084   6.286   1.225   1.990  1.2915  0.7421  0.9117
26318SOL    HW284085   6.156   1.303   1.976 -0.0076 -1.3097  1.3751
26319SOL     OW84086   1.276  10.009   6.736 -0.1366  0.0489  0.5547
26319SOL    HW184087   1.372  10.011   6.729 -0.2503  2.2046 -0.7911
26319SOL    HW284088   1.253   9.918   6.719  1.6376 -0.3682  0.2764
26320SOL     OW84089   9.802   3.280   4.070 -0.3712  0.0665 -0.0031
26320SOL    HW184090   9.834   3.370   4.075  0.1968 -0.0515 -1.5043
26320SOL    HW284091   9.756   3.267   4.153  0.3648  1.4227  0.6372
26321SOL     OW84092   1.742   3.648   3.897  0.2521 -0.8165 -0.1340
26321SOL    HW184093   1.698   3.582   3.844 -0.1291 -0.8538  0.2233
26321SOL    HW284094   1.689   3.654   3.977 -1.7073  2.3180 -1.5572
26322SOL     OW84095   8.621   0.872   5.890 -0.2594 -0.1750 -0.7612
26322SOL    HW184096   8.565   0.803   5.855 -0.6465 -0.0950 -0.3067
26322SOL    HW284097   8.675   0.828   5.957 -0.6363 -0.0032 -0.3393
26323SOL     OW84098   8.216   0.275   7.606 -0.3617  0.0612 -0.5760
26323SOL    HW184099   8.264   0.231   7.675 -2.1965 -1.0360  0.0430
26323SOL    HW284100   8.282   0.325   7.558  1.5224 -2.0458 -0.2695
26324SOL     OW84101   2.869   3.739   3.873 -0.7853  0.7215 -0.3254
26324SOL    HW184102   2.774   3.745   3.865 -0.8908  1.0033  1.0054
26324SOL    HW284103   2.886   3.647   3.894 -0.8397  0.8467  0.2842
26325SOL     OW84104   5.852   7.333   2.851 -0.2342  0.0223 -0.2626
26325SOL    HW184105   5.840   7.428   2.855  1.9042  0.2801  0.9258
26325SOL    HW284106   5.910   7.318   2.777 -0.1361 -0.3183 -0.1213
26326SOL     OW84107   2.753  10.010  10.425  0.0171 -0.0338  1.0052
26326SOL    HW184108   2.773  10.061  10.504 -2.0506  0.6198  1.1643
26326SOL    HW284109   2.815  10.042  10.359  0.0465  1.3120  1.6607
26327SOL     OW84110   2.773   7.527   6.988  0.3994  0.2979  0.4294
26327SOL    HW184111   2.704   7.488   7.041  1.6186 -0.9014  1.1900
26327SOL    HW284112   2.793   7.610   7.032 -0.5270  0.6314  0.2230
26328SOL     OW84113   5.510   4.890   9.850 -0.1381 -0.5477  0.1255
26328SOL    HW184114   5.565   4.879   9.772 -0.5601 -0.4952 -0.1789
26328SOL    HW284115   5.519   4.982   9.873 -1.4232 -0.1393 -0.9239
26329SOL     OW84116   3.747   0.876   7.719 -0.2458  0.0897  0.1053
26329SOL    HW184117   3.754   0.886   7.624 -0.9872 -0.5366 -0.0136
26329SOL    HW284118   3.836   0.854   7.747 -0.2516 -0.7943 -0.5669
26330SOL     OW84119   1.628   4.293   0.066 -0.1997 -0.4048  0.5502
26330SOL    HW184120   1.694   4.353   0.100 -0.8424  0.3070  0.5551
26330SOL    HW284121   1.636   4.215   0.122  1.0571 -0.5744  0.1438
26331SOL     OW84122   0.372   8.236   8.584  0.4994  0.1587  0.1701
26331SOL    HW184123   0.424   8.156   8.596 -1.2977 -1.0544  0.1319
26331SOL    HW284124   0.396   8.291   8.658  1.3489 -0.6517  0.5174
26332SOL     OW84125   2.310   0.782  10.862  0.0799 -0.2288  0.0656
26332SOL    HW184126   2.397   0.823  10.863  0.2927 -0.6585 -0.4480
26332SOL    HW284127   2.327   0.691  10.840 -0.6354  0.0297 -1.6226
26333SOL     OW84128  10.059   0.247   6.923  0.1013 -0.0790  0.4529
26333SOL    HW184129  10.132   0.257   6.861 -0.7390 -1.3958 -0.7803
26333SOL    HW284130  10.084   0.300   6.998  1.5402  0.8713 -0.6716
26334SOL     OW84131   9.279  10.406   9.727 -0.0089  0.3631  0.1742
26334SOL    HW184132   9.367  10.398   9.764  0.8060  4.4330 -0.5795
26334SOL    HW284133   9.287  10.372   9.638 -0.0365 -2.2326  1.1391
26335SOL     OW84134   8.438   0.134   8.254 -0.3196 -0.1540  0.5497
26335SOL    HW184135   8.345   0.144   8.274 -1.0062 -2.5727 -1.2168
26335SOL    HW284136   8.452   0.039   8.255  1.7821  0.1262 -0.6572
26336SOL     OW84137   9.795   3.464   1.225 -0.0226 -0.1143 -0.4194
26336SOL    HW184138   9.829   3.541   1.180  1.1810 -0.9199 -0.9310
26336SOL    HW284139   9.770   3.404   1.154 -0.6407 -0.3279 -0.0251
26337SOL     OW84140   0.574   1.082   9.176  0.3811  0.2444 -0.2054
26337SOL    HW184141   0.482   1.077   9.203  0.2212  0.0174 -0.7865
26337SOL    HW284142   0.608   0.994   9.189  0.3135  0.1441 -0.7047
26338SOL     OW84143   4.378   5.333   6.346  0.5948  0.1008 -0.3799
26338SOL    HW184144   4.443   5.404   6.344  0.1438  0.5053 -0.6098
26338SOL    HW284145   4.425   5.257   6.310  1.3854  0.0221  0.7673
26339SOL     OW84146   6.308   4.697   3.746  0.1489  0.3351 -0.1293
26339SOL    HW184147   6.255   4.684   3.825  2.1290  1.9877  1.5362
26339SOL    HW284148   6.356   4.614   3.735 -0.7921 -0.2162 -0.1335
26340SOL     OW84149  10.653   7.435   6.578  0.7677 -0.1812 -0.4677
26340SOL    HW184150  10.609   7.372   6.520  0.2920 -0.9750  0.7234
26340SOL    HW284151  10.582   7.475   6.628  1.2054  0.2477 -0.1862
26341SOL     OW84152   7.515   7.807   1.953  0.2056  0.5321 -0.4295
26341SOL    HW184153   7.590   7.849   1.911  0.3836 -0.6462 -1.3177
26341SOL    HW284154   7.466   7.767   1.881 -0.2091 -0.3860  0.3391
26342SOL     OW84155   7.812   2.790   0.625 -0.3465  0.0430  0.1040
26342SOL    HW184156   7.868   2.847   0.678 -1.2685  1.0879 -0.0239
26342SOL    HW284157   7.793   2.843   0.547 -0.9371 -0.5765 -0.1679
26343SOL     OW84158  11.025   5.288   1.633  0.0211 -0.3995  0.4808
26343SOL    HW184159  11.015   5.341   1.712 -0.2732  0.1921  0.0568
26343SOL    HW284160  11.089   5.337   1.580  0.1341 -0.7359  0.3076
26344SOL     OW84161   8.323  10.217   7.503 -0.1182  0.3907  0.5636
26344SOL    HW184162   8.401  10.188   7.549  0.9903  0.9422 -0.9293
26344SOL    HW284163   8.356  10.263   7.426 -1.9328 -0.2006 -0.5940
26345SOL     OW84164   8.636  11.248   0.690  0.2904 -0.1512 -0.3276
26345SOL    HW184165   8.658  11.338   0.716  1.1400 -0.1454 -1.0609
26345SOL    HW284166   8.708  11.195   0.723  0.0494 -0.4938 -0.3545
26346SOL     OW84167   5.437   0.516   6.218  0.0898 -0.2788  0.5718
26346SOL    HW184168   5.344   0.540   6.218  0.3967  0.9767  0.4947
26346SOL    HW284169   5.471   0.553   6.136  0.4789 -1.4581  0.2016
26347SOL     OW84170   5.432   4.866  11.297  0.4068 -0.0696 -0.6568
26347SOL    HW184171   5.374   4.800  11.259 -0.9873  0.1749  0.9930
26347SOL    HW284172   5.517   4.822  11.303 -0.7481 -2.1329  1.4269
26348SOL     OW84173   9.107   7.238  10.938  0.1822  0.3770 -0.0473
26348SOL    HW184174   9.138   7.217  11.027  0.7046 -0.4735 -0.4197
26348SOL    HW284175   9.084   7.153  10.901  0.5519  0.6630 -0.9448
26349SOL     OW84176   0.619   6.271   5.383 -0.0059  0.5757  0.8150
26349SOL    HW184177   0.653   6.225   5.307  2.3263  1.7846  1.0929
26349SOL    HW284178   0.591   6.201   5.443  1.9947 -0.4756  0.5682
26350SOL     OW84179   0.916   1.185   7.223 -0.1772 -0.3364 -0.0330
26350SOL    HW184180   0.892   1.095   7.243 -2.2683 -0.0778 -1.1769
26350SOL    HW284181   0.969   1.179   7.144 -2.5045 -0.4242 -1.6568
26351SOL     OW84182   7.328   6.165   5.353  0.4381 -0.0373  0.1638
26351SOL    HW184183   7.402   6.219   5.327 -1.1658  3.5005  2.6640
26351SOL    HW284184   7.355   6.125   5.436  0.4976 -0.7663 -0.2027
26352SOL     OW84185   3.119   9.116   8.392  0.2286 -0.4783 -0.0051
26352SOL    HW184186   3.127   9.211   8.403  0.6048 -0.5288  0.1748
26352SOL    HW284187   3.151   9.099   8.304 -0.3395 -0.3732 -0.2296
26353SOL     OW84188   7.212  10.992   0.880  0.8181 -0.9593 -0.1703
26353SOL    HW184189   7.125  10.982   0.841 -0.3255  1.6765  1.6215
26353SOL    HW284190   7.210  10.936   0.957  0.9544 -1.3736 -0.4612
26354SOL     OW84191   1.860   1.478   2.376  0.3433 -0.4694  0.0437
26354SOL    HW184192   1.829   1.560   2.337  0.4792 -0.2659  0.3555
26354SOL    HW284193   1.816   1.475   2.461 -0.6438 -1.3499 -0.4898
26355SOL     OW84194   3.446   9.836   4.674 -1.0112  0.3705 -0.3189
26355SOL    HW184195   3.502   9.771   4.718  0.1201 -0.0097 -2.2687
26355SOL    HW284196   3.403   9.882   4.746  1.2800  0.2042  1.2393
26356SOL     OW84197   9.237   5.471   6.066  0.5825 -0.2095  0.1206
26356SOL    HW184198   9.318   5.500   6.108  0.2062 -0.4158  0.9994
26356SOL    HW284199   9.259   5.388   6.025  0.9389 -0.0300 -0.0547
26357SOL     OW84200   4.912   2.345   6.446 -0.5150  0.2941 -0.1210
26357SOL    HW184201   4.865   2.334   6.528 -0.8108 -1.3647 -0.5070
26357SOL    HW284202   4.939   2.437   6.446 -1.7440  0.6645  1.1673
26358SOL     OW84203   9.098   0.760   5.349  0.0942 -0.4766 -0.0944
26358SOL    HW184204   9.056   0.793   5.429 -0.0187 -1.8042  0.4270
26358SOL    HW284205   9.145   0.835   5.313  0.8586 -0.0467  1.6986
26359SOL     OW84206   3.349   3.965   4.886  0.3002 -0.1441  0.1323
26359SOL    HW184207   3.259   3.977   4.918  0.2541  1.1948 -0.4370
26359SOL    HW284208   3.338   3.920   4.802  0.1422  0.2399 -0.0552
26360SOL     OW84209   6.588   1.988   6.282  0.2335  0.1102 -0.0298
26360SOL    HW184210   6.528   2.017   6.350 -0.0710  0.4748 -0.4561
26360SOL    HW284211   6.572   2.046   6.208 -0.3663 -1.1178 -0.8836
26361SOL     OW84212   3.851   2.419   3.246  0.6830 -0.1191  0.3841
26361SOL    HW184213   3.764   2.388   3.221  0.8603 -0.2567 -0.0695
26361SOL    HW284214   3.876   2.365   3.321  0.1001  0.3693  0.9333
26362SOL     OW84215   2.718  11.202   4.524 -0.7132 -0.0772  0.8662
26362SOL    HW184216   2.785  11.171   4.585  0.8904 -1.3227 -1.4423
26362SOL    HW284217   2.635  11.189   4.570  0.4065 -1.6373  2.4953
26363SOL     OW84218   3.888   8.024   2.986 -0.1390  0.1147 -0.1005
26363SOL    HW184219   3.855   7.969   2.915  0.4264 -0.2353 -0.0964
26363SOL    HW284220   3.821   8.092   2.997  1.1511  1.9478 -2.9875
26364SOL     OW84221   6.011  10.139   1.734 -0.2901 -0.7197  0.0264
26364SOL    HW184222   6.016  10.232   1.713 -2.0801 -0.9437 -1.5828
26364SOL    HW284223   6.102  10.110   1.735  0.2447  0.8818 -0.2481
26365SOL     OW84224   0.519   6.735   8.881 -0.5917 -0.2958  0.0336
26365SOL    HW184225   0.603   6.762   8.917 -0.1966 -2.4419  0.8019
26365SOL    HW284226   0.471   6.816   8.867  0.3307  0.7407  2.7319
26366SOL     OW84227   8.135   2.136   1.967  0.3182 -0.2485  0.0098
26366SOL    HW184228   8.171   2.157   1.880 -1.4871  0.3610 -0.6158
26366SOL    HW284229   8.154   2.214   2.020 -0.2451  0.1481 -0.3674
26367SOL     OW84230   8.042   3.449   8.757 -0.5630  0.2713  0.5342
26367SOL    HW184231   8.111   3.516   8.756  0.9786 -1.2110  3.0508
26367SOL    HW284232   8.069   3.385   8.691  0.1952 -0.0202  1.1189
26368SOL     OW84233   8.187   8.807   2.738 -0.3021  0.1272 -0.2208
26368SOL    HW184234   8.191   8.712   2.729 -2.8776  0.0234 -0.5649
26368SOL    HW284235   8.155   8.839   2.654  0.3806  1.2881 -0.0555
26369SOL     OW84236   4.953   5.405   6.478 -0.5315  0.1970 -0.1828
26369SOL    HW184237   5.015   5.354   6.531 -0.2102 -0.6220 -1.3402
26369SOL    HW284238   4.998   5.418   6.394 -1.8152 -0.1825 -0.9387
26370SOL     OW84239   8.915   8.452   6.002  0.5039 -0.1001  0.1029
26370SOL    HW184240   8.880   8.466   6.090  0.4075 -1.8541  0.3609
26370SOL    HW284241   8.986   8.517   5.994 -0.3203  0.9346  0.9716
26371SOL     OW84242   6.538   4.380   1.704 -0.1776  0.6210  0.0085
26371SOL    HW184243   6.592   4.458   1.707  0.4704  0.1893 -0.4220
26371SOL    HW284244   6.531   4.359   1.611  1.3661 -1.0183  0.2355
26372SOL     OW84245   3.366   9.619  10.026  0.3134  0.0802 -0.1495
26372SOL    HW184246   3.382   9.584  10.114 -0.1597  1.6260  0.5562
26372SOL    HW284247   3.408   9.705  10.026 -1.4421  0.9649 -0.7540
26373SOL     OW84248   9.478   0.912   4.344 -0.2305 -0.2928  0.6739
26373SOL    HW184249   9.564   0.877   4.369  0.1574  0.0938 -0.0811
26373SOL    HW284250   9.492   1.007   4.340  0.1003 -0.4135 -2.3000
26374SOL     OW84251   4.908   0.889   8.535  0.2092  0.3726  0.0416
26374SOL    HW184252   4.822   0.925   8.555  0.8154  1.1123  1.4189
26374SOL    HW284253   4.932   0.840   8.614  0.6180 -0.6638 -0.7155
26375SOL     OW84254   4.884   5.949   2.998 -0.3022  0.3928  0.2547
26375SOL    HW184255   4.973   5.981   3.012 -0.0923  0.1391 -0.4775
26375SOL    HW284256   4.830   6.006   3.052  0.3640  0.1487  1.1892
26376SOL     OW84257   2.495   0.284   7.829  0.4330  0.4029  0.8272
26376SOL    HW184258   2.520   0.377   7.829  1.0209  0.2537 -0.3854
26376SOL    HW284259   2.517   0.253   7.741  0.5601 -0.9732  1.3244
26377SOL     OW84260   9.481   6.845   1.724  0.0909  0.0373 -0.1367
26377SOL    HW184261   9.538   6.904   1.773 -1.5913  0.0593  1.8762
26377SOL    HW284262   9.512   6.757   1.746  0.3549  0.0816 -0.3240
26378SOL     OW84263   9.507   0.573   2.530  0.0513 -0.0712  0.0983
26378SOL    HW184264   9.557   0.492   2.532 -1.1998 -0.9322 -1.6678
26378SOL    HW284265   9.562   0.634   2.481  1.1826  0.3127  1.7988
26379SOL     OW84266   0.931   0.563   3.605 -0.5058  0.0709  0.1360
26379SOL    HW184267   1.019   0.598   3.591 -1.0273  0.6313 -1.8525
26379SOL    HW284268   0.872   0.636   3.586 -1.4580 -0.7643 -0.2008
26380SOL     OW84269  10.488   5.839   8.959  0.1754 -0.2996 -0.2109
26380SOL    HW184270  10.422   5.863   9.024  2.3986  0.9093  1.6892
26380SOL    HW284271  10.452   5.870   8.876 -2.2232 -0.8819  0.5570
26381SOL     OW84272   3.035   5.674   0.313  0.0596  1.0668  0.1121
26381SOL    HW184273   2.943   5.657   0.332 -0.2174  0.4556 -1.6738
26381SOL    HW284274   3.076   5.685   0.399 -1.3422 -0.4096  0.9946
26382SOL     OW84275   1.731   9.251   3.598 -0.3225  0.4199 -0.4088
26382SOL    HW184276   1.788   9.271   3.523  0.6720 -0.2633  0.1521
26382SOL    HW284277   1.662   9.196   3.561 -0.0594  0.4156 -0.9058
26383SOL     OW84278   9.493   4.652   5.773 -0.0817  0.2502  0.1572
26383SOL    HW184279   9.502   4.747   5.766  1.1339  0.2207  1.0547
26383SOL    HW284280   9.577   4.617   5.744 -0.7894 -0.5956 -0.9043
26384SOL     OW84281   7.733   9.196   7.005 -0.3579 -0.1582  0.3256
26384SOL    HW184282   7.756   9.121   7.060  0.2297  0.1608  0.5202
26384SOL    HW284283   7.719   9.159   6.918 -0.7468 -0.5885  0.5718
26385SOL     OW84284   0.601   9.581  10.455  0.0810  0.2014  0.2013
26385SOL    HW184285   0.695   9.575  10.439  0.2817 -0.6538  1.6830
26385SOL    HW284286   0.572   9.651  10.396  1.4099 -0.4392 -1.2465
26386SOL     OW84287   3.025   2.748   3.088  0.6133  0.6027 -0.1158
26386SOL    HW184288   3.020   2.808   3.014 -0.1834  0.9345  0.2005
26386SOL    HW284289   2.974   2.672   3.062 -0.7502  1.2610  0.5852
26387SOL     OW84290   8.567   6.789   4.302 -0.4154 -0.5879  0.0700
26387SOL    HW184291   8.643   6.751   4.259 -0.0762 -0.3597  0.4567
26387SOL    HW284292   8.494   6.772   4.243  0.0761 -0.1085 -0.6787
26388SOL     OW84293   0.392   7.289   5.907 -0.1395  0.0020 -0.0986
26388SOL    HW184294   0.451   7.219   5.932  0.1318  0.1192 -0.3982
26388SOL    HW284295   0.382   7.279   5.812 -0.4685  0.0841 -0.0747
26389SOL     OW84296   7.659   4.423   8.981  0.1848  0.3621  0.1124
26389SOL    HW184297   7.741   4.452   9.022  0.2519 -0.0521  0.2751
26389SOL    HW284298   7.628   4.352   9.037  0.0842  0.0422 -0.3462
26390SOL     OW84299   9.248   8.328   8.572 -0.1267  0.1469  0.5346
26390SOL    HW184300   9.266   8.320   8.478 -1.6747  1.4296  0.0949
26390SOL    HW284301   9.305   8.264   8.613  0.7223 -0.2921 -1.2760
26391SOL     OW84302   9.380   4.608   3.269  0.4471  0.3770  0.7377
26391SOL    HW184303   9.415   4.696   3.285 -0.8277  0.8910  0.7845
26391SOL    HW284304   9.292   4.610   3.307  0.9766 -1.4125  2.1020
26392SOL     OW84305   6.883   6.029   5.208  0.0882 -0.6299  0.2481
26392SOL    HW184306   6.894   6.043   5.302  0.8788 -1.4473  0.2942
26392SOL    HW284307   6.959   6.071   5.168 -0.8870  0.7830 -0.1303
26393SOL     OW84308   4.711   3.813  11.058 -0.2835  0.1883  0.2256
26393SOL    HW184309   4.732   3.902  11.086  4.9479 -0.6428 -0.5767
26393SOL    HW284310   4.679   3.770  11.138  0.7769  1.7490  1.5277
26394SOL     OW84311   4.974   6.004   9.256 -0.4579 -1.0264 -0.0357
26394SOL    HW184312   4.894   6.029   9.210 -1.5217 -0.8341  1.8670
26394SOL    HW284313   5.001   5.922   9.214 -1.1911 -0.6657 -1.2406
26395SOL     OW84314   0.570   5.741   1.021  0.2151  0.9420  0.0704
26395SOL    HW184315   0.573   5.798   1.098  0.2291  1.7467 -0.5138
26395SOL    HW284316   0.650   5.688   1.027  0.3311  1.1624  0.4924
26396SOL     OW84317   4.970   0.132   0.691 -0.0833  0.3618  0.6752
26396SOL    HW184318   5.005   0.080   0.763 -0.1852 -0.3284  0.2231
26396SOL    HW284319   5.047   0.177   0.655  0.1102  0.0012  0.6338
26397SOL     OW84320   0.968   3.452   1.992 -0.2064  0.5635  0.0108
26397SOL    HW184321   1.014   3.376   2.026 -0.5188  0.1860 -0.4062
26397SOL    HW284322   0.988   3.522   2.054  0.4555  0.2586  0.1401
26398SOL     OW84323   7.159  10.248   2.626  0.1817  0.1126 -0.6006
26398SOL    HW184324   7.099  10.204   2.567 -0.6140  0.0428  0.2653
26398SOL    HW284325   7.246  10.220   2.597 -0.2884 -1.7184 -0.2991
26399SOL     OW84326   1.935  11.038   3.284 -0.3791  0.1818 -0.0511
26399SOL    HW184327   1.995  10.996   3.346 -0.5171 -0.8315 -0.5869
26399SOL    HW284328   1.983  11.114   3.251 -0.2369  0.6279  1.1569
26400SOL     OW84329   8.324   5.874   9.566 -0.3447 -0.1368  0.7723
26400SOL    HW184330   8.257   5.938   9.590 -0.4846 -0.3561  0.9793
26400SOL    HW284331   8.400   5.926   9.541 -0.8231  0.1288 -0.1512
26401SOL     OW84332   4.403  10.626   4.976  0.4290 -0.6609  0.4210
26401SOL    HW184333   4.309  10.645   4.976  0.4704 -0.3693 -1.8150
26401SOL    HW284334   4.410  10.534   4.999 -0.4455 -0.8875 -0.2353
26402SOL     OW84335   2.126   4.993   5.479 -0.1078  0.2795  0.3498
26402SOL    HW184336   2.144   4.990   5.385 -0.0438  1.9448  0.2942
26402SOL    HW284337   2.125   5.086   5.500 -1.7999 -0.0238  1.6820
26403SOL     OW84338   5.045   6.878   0.085  0.0675  0.1297 -0.2653
26403SOL    HW184339   5.038   6.923   0.002 -0.7190  0.7989  0.1560
26403SOL    HW284340   5.054   6.785   0.061 -0.7874  0.2468 -1.0850
26404SOL     OW84341   1.256   7.608   3.476  0.1914  0.5070  0.0427
26404SOL    HW184342   1.335   7.640   3.433  1.0788 -0.9790  0.5237
26404SOL    HW284343   1.195   7.591   3.405  0.7227  0.5682 -0.4335
26405SOL     OW84344   5.391   5.041   3.511  0.3512  0.2277  0.1574
26405SOL    HW184345   5.446   5.119   3.506  0.0891  0.3434 -0.9954
26405SOL    HW284346   5.316   5.068   3.564 -0.5917  1.2866 -1.6952
26406SOL     OW84347   7.606   4.311  10.408  0.4164 -0.6257  0.2550
26406SOL    HW184348   7.561   4.335  10.327  0.0056  0.2171  0.7156
26406SOL    HW284349   7.656   4.390  10.431  0.9759 -1.0568  0.5168
26407SOL     OW84350  10.865   1.757   9.292  0.1584  0.1837  0.2303
26407SOL    HW184351  10.856   1.705   9.212  0.4760  1.5354 -0.6901
26407SOL    HW284352  10.775   1.771   9.322  0.0905 -1.3459  0.7959
26408SOL     OW84353   5.364   6.918  10.601 -0.7366  0.2700  0.1188
26408SOL    HW184354   5.277   6.921  10.563 -1.1023  0.0639  0.9246
26408SOL    HW284355   5.408   6.844  10.558 -0.9562  0.3818 -0.2911
26409SOL     OW84356   0.580   6.127   2.529  0.3659  0.1561  0.7688
26409SOL    HW184357   0.523   6.171   2.592  0.1645 -1.2030  1.5402
26409SOL    HW284358   0.646   6.193   2.507 -0.7998  1.3509  0.7490
26410SOL     OW84359   1.308   9.081   4.492 -0.0762  0.2047 -0.1222
26410SOL    HW184360   1.321   9.171   4.461  2.5089  0.6659  2.1333
26410SOL    HW284361   1.379   9.031   4.453  0.5092 -0.1375  1.3606
26411SOL     OW84362   9.640   8.940   5.347  0.1329  0.2196  0.0263
26411SOL    HW184363   9.719   8.927   5.399  0.6215  0.0463 -0.7607
26411SOL    HW284364   9.652   8.886   5.269 -1.5562 -1.2542  0.7313
26412SOL     OW84365   2.695   5.277   6.886 -0.0751 -0.7156  0.7232
26412SOL    HW184366   2.758   5.343   6.917  0.0784 -0.8175  0.6290
26412SOL    HW284367   2.749   5.201   6.863 -0.1776 -0.6227  0.1516
26413SOL     OW84368   1.764   0.962   9.643 -0.4240 -0.2522  0.2724
26413SOL    HW184369   1.718   0.982   9.562  1.5094 -0.0083 -0.8099
26413SOL    HW284370   1.760   0.867   9.650  0.1495 -0.3512 -0.5948
26414SOL     OW84371   3.156   8.222  10.060  0.2533 -0.4263 -0.0743
26414SOL    HW184372   3.148   8.236   9.965  0.2060  2.0589  0.2517
26414SOL    HW284373   3.067   8.210  10.090 -0.0576  2.0685  0.0816
26415SOL     OW84374   0.629   0.267   1.273 -0.1821 -0.0072 -0.1705
26415SOL    HW184375   0.720   0.290   1.291  0.1500 -1.2130 -0.3317
26415SOL    HW284376   0.632   0.207   1.199 -1.0626 -0.5399  0.2104
26416SOL     OW84377   1.175   2.737   0.995  0.0051  0.1918  0.1018
26416SOL    HW184378   1.129   2.820   1.010 -0.2109  0.1517 -0.3328
26416SOL    HW284379   1.255   2.763   0.948 -0.3388  0.0957 -0.5418
26417SOL     OW84380   8.351   8.009   3.043 -0.0252 -0.7777  0.7103
26417SOL    HW184381   8.266   8.050   3.025  1.1812  1.5197  0.1117
26417SOL    HW284382   8.330   7.937   3.102 -2.4302 -0.3661  0.4229
26418SOL     OW84383   1.391   3.129   9.090  0.1316 -0.5913  0.4432
26418SOL    HW184384   1.392   3.054   9.030 -0.8179  0.4001 -0.8265
26418SOL    HW284385   1.303   3.166   9.081  0.5703  0.6497  1.1186
26419SOL     OW84386   6.264   3.468  10.554  0.3572  0.4614  0.2990
26419SOL    HW184387   6.258   3.372  10.553 -0.6230  0.5286 -0.5378
26419SOL    HW284388   6.256   3.491  10.647 -0.9193 -0.1823  0.3579
26420SOL     OW84389   0.648   2.620   5.242 -0.1180 -0.2665  0.1944
26420SOL    HW184390   0.623   2.589   5.155  0.4312 -2.5730  0.8502
26420SOL    HW284391   0.606   2.707   5.248 -3.1419 -1.5496 -0.9847
26421SOL     OW84392   1.813   8.431   1.739  0.1391 -0.1993  0.2437
26421SOL    HW184393   1.888   8.434   1.679 -1.0885 -1.3360 -1.4018
26421SOL    HW284394   1.804   8.521   1.769 -0.0101  0.6969 -2.3381
26422SOL     OW84395   3.034   2.214  10.779  0.0498  0.2257  0.4384
26422SOL    HW184396   3.091   2.138  10.770 -0.8940 -0.3752 -0.6135
26422SOL    HW284397   2.954   2.179  10.819  0.0460  0.8885  1.0302
26423SOL     OW84398   1.219   8.440   4.701  0.3836  0.2557 -0.1839
26423SOL    HW184399   1.202   8.346   4.702 -0.2689  0.3673 -0.6010
26423SOL    HW284400   1.285   8.452   4.632 -0.0315  0.1869 -0.5956
26424SOL     OW84401  10.961   7.808   9.847 -0.2271  0.0480 -0.1474
26424SOL    HW184402  10.865   7.809   9.846 -0.2472  1.5422  0.9561
26424SOL    HW284403  10.984   7.809   9.940  0.8331  2.3123 -0.4038
26425SOL     OW84404   2.486   8.227   4.233  0.3387 -0.1260 -0.3296
26425SOL    HW184405   2.541   8.228   4.155  0.7145 -0.0922 -0.0639
26425SOL    HW284406   2.397   8.239   4.200  0.5913  0.8155 -0.6713
26426SOL     OW84407  11.216   8.752   2.851 -0.6622 -0.5279  1.5200
26426SOL    HW184408  11.288   8.808   2.825 -0.2488 -1.3183  0.9397
26426SOL    HW284409  11.154   8.811   2.895 -0.4240  0.4400  0.5692
26427SOL     OW84410   2.642  10.146   7.273 -0.7522 -0.0236 -0.3614
26427SOL    HW184411   2.579  10.139   7.202 -1.8897 -1.8058  0.7561
26427SOL    HW284412   2.592  10.124   7.352  0.4748  1.8886  0.9938
26428SOL     OW84413   7.765  10.992   8.651 -0.2436 -0.4987 -0.3635
26428SOL    HW184414   7.774  10.918   8.590 -0.4143 -1.4278  0.7302
26428SOL    HW284415   7.734  10.952   8.732  0.1838  0.7160  0.3977
26429SOL     OW84416   6.909   1.979   0.325 -0.2081 -0.8303  0.5227
26429SOL    HW184417   7.004   1.984   0.334 -0.2768  0.8807  0.4178
26429SOL    HW284418   6.876   2.024   0.402 -0.9273 -0.5924  0.0735
26430SOL     OW84419   6.812   3.723   4.711 -0.1019  0.1340 -0.2321
26430SOL    HW184420   6.786   3.790   4.648 -0.2430  0.5396  0.2534
26430SOL    HW284421   6.753   3.737   4.786  1.7057  1.2476  1.0114
26431SOL     OW84422   6.262   2.016   9.650  0.2160 -0.4967  0.0111
26431SOL    HW184423   6.317   1.970   9.586 -0.8661 -1.2082 -0.4201
26431SOL    HW284424   6.203   1.949   9.683  1.2715 -0.3398  2.3731
26432SOL     OW84425   4.438   0.242   6.766 -0.6191  0.7548  0.1364
26432SOL    HW184426   4.475   0.329   6.753 -0.2291  0.7414  1.1557
26432SOL    HW284427   4.406   0.242   6.856  0.3448 -0.5057  0.4861
26433SOL     OW84428   1.568   3.764   9.322 -0.1472  0.3068 -0.1996
26433SOL    HW184429   1.549   3.670   9.316 -0.6036  0.3105  0.9397
26433SOL    HW284430   1.658   3.768   9.353  0.7306  0.2683 -2.6997
26434SOL     OW84431   9.105   4.468  10.397  0.6932  0.3668  0.6828
26434SOL    HW184432   9.054   4.389  10.412 -0.6174  0.6382 -2.0260
26434SOL    HW284433   9.196   4.439  10.400  0.2718 -0.9218  1.3212
26435SOL     OW84434   6.780  10.144   0.468  0.0813  0.0434  0.3459
26435SOL    HW184435   6.871  10.143   0.498  0.0499 -0.5068  0.4332
26435SOL    HW284436   6.786  10.168   0.376  0.3603 -0.5379  0.2083
26436SOL     OW84437   6.305   6.499  10.507 -0.0980 -0.3946  0.3345
26436SOL    HW184438   6.366   6.568  10.480 -1.7695  1.6467  1.6161
26436SOL    HW284439   6.339   6.467  10.590  0.4820 -0.8682 -0.0824
26437SOL     OW84440   4.782   2.909   2.953  0.4465 -0.0360  0.0196
26437SOL    HW184441   4.803   2.986   2.900 -1.0154  0.4589  0.1454
26437SOL    HW284442   4.800   2.834   2.895 -0.3904  0.4739 -0.9269
26438SOL     OW84443   0.908   7.470   4.462 -0.2745 -0.6423 -0.2498
26438SOL    HW184444   1.002   7.466   4.478 -0.4578 -0.0206  1.0579
26438SOL    HW284445   0.890   7.564   4.449 -0.9186 -0.6214  0.7809
26439SOL     OW84446   1.283   2.165  10.003  0.5594 -0.0400 -0.3456
26439SOL    HW184447   1.234   2.137   9.925  0.2820 -0.8123  0.0982
26439SOL    HW284448   1.256   2.256  10.017 -0.2693 -0.2631 -0.4779
26440SOL     OW84449   9.880   6.373   2.902  0.3593  0.6383  0.2320
26440SOL    HW184450   9.853   6.410   2.986 -1.9683  0.5225 -0.4439
26440SOL    HW284451   9.898   6.280   2.921 -0.9834  0.4169  0.4308
26441SOL     OW84452   0.028   1.518  11.065  0.3036  0.2560  0.5021
26441SOL    HW184453   0.057   1.601  11.029 -0.0474  0.3043  0.3233
26441SOL    HW284454   0.072   1.511  11.149  1.8117 -0.2553 -0.3076
26442SOL     OW84455   2.824   5.521   8.672 -0.1652 -0.2861  0.7555
26442SOL    HW184456   2.872   5.439   8.654 -1.1099 -0.7442  0.3021
26442SOL    HW284457   2.735   5.492   8.691 -0.6131  0.6810  0.1304
26443SOL     OW84458   1.520   2.582   1.466 -0.4293 -0.6107  0.7564
26443SOL    HW184459   1.437   2.582   1.514 -0.6260  0.1848  0.4235
26443SOL    HW284460   1.503   2.636   1.389  0.7709  0.6303  1.3453
26444SOL     OW84461   3.263   1.196   2.882 -0.0756  0.0935 -0.5687
26444SOL    HW184462   3.358   1.207   2.887  0.0340 -0.2156 -1.8283
26444SOL    HW284463   3.251   1.102   2.872 -0.3594  0.3742 -3.3001
26445SOL     OW84464   7.520   9.177   2.317 -0.3147 -0.4350  0.0061
26445SOL    HW184465   7.482   9.100   2.359 -0.1162  0.3893  1.7643
26445SOL    HW284466   7.446   9.227   2.285 -0.4391 -1.3993 -1.2235
26446SOL     OW84467   3.764   8.451   2.163  0.1901  0.4106 -0.5752
26446SOL    HW184468   3.842   8.442   2.219  0.2531 -3.5448 -1.1456
26446SOL    HW284469   3.799   8.453   2.074 -0.3232 -1.5849 -0.8421
26447SOL     OW84470   3.750   6.506   5.113  0.3502 -0.2242  0.0394
26447SOL    HW184471   3.687   6.554   5.060 -0.7424 -1.3500  0.2752
26447SOL    HW284472   3.780   6.569   5.178 -1.6361 -0.0370  0.8235
26448SOL     OW84473   6.188  10.477   2.010  0.2736 -0.4111 -0.0889
26448SOL    HW184474   6.245  10.553   2.018 -0.7949  0.4179 -0.3386
26448SOL    HW284475   6.204  10.427   2.089  0.0367  0.7239  0.6849
26449SOL     OW84476   4.442   5.345   3.854 -0.6614 -0.0938 -0.0658
26449SOL    HW184477   4.378   5.415   3.842 -2.5295 -1.4751  1.4811
26449SOL    HW284478   4.405   5.271   3.807  0.0747 -0.7363  0.3610
26450SOL     OW84479   4.690   6.348   1.566 -0.3205 -1.0548  0.8186
26450SOL    HW184480   4.598   6.372   1.572 -0.2527 -0.7625  0.6901
26450SOL    HW284481   4.700   6.308   1.480 -0.3658 -1.2464  0.9035
26451SOL     OW84482   1.038   5.472  11.174  0.3033  0.4588  0.2925
26451SOL    HW184483   1.108   5.409  11.158 -1.3811 -1.9132  1.8935
26451SOL    HW284484   1.043   5.489  11.269 -2.9071 -1.8423  0.9648
26452SOL     OW84485   2.661   2.436   1.550  0.4939  0.9800  0.0723
26452SOL    HW184486   2.698   2.349   1.541 -1.6839  0.0322 -0.1113
26452SOL    HW284487   2.639   2.462   1.460  1.0551  1.6767  0.1359
26453SOL     OW84488   8.059   5.042  11.151 -0.1199 -0.1519  0.0008
26453SOL    HW184489   8.069   4.950  11.177 -0.9227  0.0348  1.0250
26453SOL    HW284490   8.008   5.039  11.070 -1.6151 -0.5564  0.9215
26454SOL     OW84491   0.909   0.626   5.251  0.0483  0.0446 -0.9039
26454SOL    HW184492   0.959   0.668   5.321 -1.0427 -0.1257 -0.0039
26454SOL    HW284493   0.964   0.553   5.223  0.4661  0.0768 -0.1886
26455SOL     OW84494   2.997   0.721   9.807 -0.6485  0.3594 -0.4060
26455SOL    HW184495   2.931   0.652   9.814 -0.7754  0.4966 -0.2459
26455SOL    HW284496   2.954   0.798   9.845 -0.0711  0.2216  0.5463
26456SOL     OW84497   4.035   5.101   4.911 -0.5663  0.8548 -0.4073
26456SOL    HW184498   3.976   5.039   4.867  0.6680  0.4763 -1.5423
26456SOL    HW284499   4.017   5.185   4.869 -0.1380  0.6969 -0.9030
26457SOL     OW84500   1.297   0.081   1.134  0.2021 -0.2312  0.2832
26457SOL    HW184501   1.218   0.041   1.171 -1.7403  2.3976 -0.8398
26457SOL    HW284502   1.354   0.096   1.209 -0.0314 -2.7763  1.0219
26458SOL     OW84503   6.403   6.352   2.271  0.2755  0.6579  0.0441
26458SOL    HW184504   6.417   6.428   2.215  0.7449  1.0089  0.6225
26458SOL    HW284505   6.344   6.296   2.222  0.7700  0.9091 -0.8476
26459SOL     OW84506  10.581   8.786   0.648  0.8511 -0.1755  0.4033
26459SOL    HW184507  10.559   8.722   0.716  0.8713  0.0157  0.5909
26459SOL    HW284508  10.502   8.840   0.640  0.7168 -0.4308  0.0159
26460SOL     OW84509   3.634   6.593   1.832 -0.1649  0.2097 -0.2805
26460SOL    HW184510   3.583   6.591   1.913  0.8651  2.4092  0.4753
26460SOL    HW284511   3.659   6.502   1.817 -0.0268 -0.1848  2.1006
26461SOL     OW84512   8.125   1.453   1.318 -0.2866 -0.0539 -0.2320
26461SOL    HW184513   8.045   1.487   1.359  0.0020  0.1568  0.1563
26461SOL    HW284514   8.148   1.377   1.371  1.0117  1.1758  1.0046
26462SOL     OW84515   1.294   9.417   2.779  0.4374  0.4222 -0.2273
26462SOL    HW184516   1.345   9.347   2.739  0.3239 -0.3656  0.9726
26462SOL    HW284517   1.208   9.378   2.794 -0.2969  1.5266 -1.5966
26463SOL     OW84518   6.823   5.588   2.624  0.0980  1.1727  0.1854
26463SOL    HW184519   6.818   5.596   2.528 -0.6974  0.4157  0.1547
26463SOL    HW284520   6.916   5.596   2.644  0.5847 -1.3170 -0.8984
26464SOL     OW84521   2.173  10.119   6.559 -0.3463  0.0554 -0.1298
26464SOL    HW184522   2.107  10.167   6.610 -1.0412 -0.1195 -0.8363
26464SOL    HW284523   2.211  10.057   6.620 -0.1086  0.8721  0.5588
26465SOL     OW84524   0.477   6.651   0.334  0.1608 -0.2224  0.1926
26465SOL    HW184525   0.537   6.720   0.307  0.4973 -0.4197  0.4283
26465SOL    HW284526   0.394   6.696   0.351  0.7539  0.3324  1.7017
26466SOL     OW84527   6.114   4.678   2.259 -0.0950 -0.5203  0.1246
26466SOL    HW184528   6.126   4.584   2.250  0.4043 -0.3939 -0.5780
26466SOL    HW284529   6.168   4.716   2.189  0.1615  0.3056  0.7582
26467SOL     OW84530   1.397   1.308   9.356 -0.1991 -0.1094 -0.1601
26467SOL    HW184531   1.355   1.247   9.296  0.3258 -0.4850 -0.1437
26467SOL    HW284532   1.329   1.328   9.421 -0.4982 -0.3549 -0.3981
26468SOL     OW84533   2.924  10.918   7.766  0.0492 -0.5117  0.1542
26468SOL    HW184534   3.004  10.941   7.812 -0.6901  2.2254  0.1342
26468SOL    HW284535   2.870  10.875   7.833 -0.0392  1.2292  1.2448
26469SOL     OW84536   4.869   7.661   1.265  0.8817  0.7051 -0.0987
26469SOL    HW184537   4.880   7.633   1.174 -0.9499 -0.3615 -0.0099
26469SOL    HW284538   4.849   7.580   1.313  0.0107  1.5136  0.9295
26470SOL     OW84539   7.789   6.969   8.951 -0.2895 -0.1646 -0.2979
26470SOL    HW184540   7.731   7.046   8.961 -0.7628 -0.4235 -0.9964
26470SOL    HW284541   7.873   6.998   8.987 -0.6274  0.4979 -0.0259
26471SOL     OW84542   2.913   9.443   3.168  0.5324  0.0439  0.0392
26471SOL    HW184543   2.833   9.401   3.138  0.2987 -1.4095  2.5619
26471SOL    HW284544   2.981   9.377   3.157  0.6706 -0.0650  1.4486
26472SOL     OW84545   9.793   6.020   1.553  0.3223 -0.3581 -0.3019
26472SOL    HW184546   9.829   6.068   1.627 -0.0628 -0.3444 -0.1209
26472SOL    HW284547   9.707   6.060   1.538  0.5199 -0.1675 -0.9372
26473SOL     OW84548   0.342   0.243   2.681 -0.2386  0.2867  0.3460
26473SOL    HW184549   0.247   0.226   2.687 -0.1995  0.8462  3.8200
26473SOL    HW284550   0.348   0.332   2.647 -1.0721  1.0039  1.9844
26474SOL     OW84551   9.868   0.476   5.343 -0.5354  0.5345 -0.2554
26474SOL    HW184552   9.844   0.567   5.361 -0.9775  0.1756  1.0640
26474SOL    HW284553   9.786   0.428   5.353 -0.6226  0.1707 -2.4686
26475SOL     OW84554   5.882   3.059   0.537  0.0249  0.1373  0.2670
26475SOL    HW184555   5.976   3.071   0.524 -0.1362  0.1574 -1.0234
26475SOL    HW284556   5.854   3.139   0.582  0.4025  0.8013 -0.6322
26476SOL     OW84557   3.718   1.406  11.230 -0.0579 -0.2038  0.1134
26476SOL    HW184558   3.750   1.474  11.289  1.5675 -1.4248  0.6765
26476SOL    HW284559   3.726   1.325  11.279 -1.1841 -0.9265 -0.8505
26477SOL     OW84560   4.096   8.182   0.114  0.2731 -0.2215  0.3433
26477SOL    HW184561   4.154   8.236   0.167 -0.2853  0.5048  0.2140
26477SOL    HW284562   4.154   8.138   0.052  0.4815  2.0421 -1.1274
26478SOL     OW84563   1.626   7.900   8.036  0.7629  0.1150  0.0173
26478SOL    HW184564   1.685   7.852   8.094 -1.1376 -1.1750  0.9003
26478SOL    HW284565   1.672   7.901   7.951  1.5251 -1.9008  0.3817
26479SOL     OW84566  10.171   8.763   3.309  0.5463  0.1318  0.0254
26479SOL    HW184567  10.118   8.831   3.268  0.4360 -0.8098 -1.4604
26479SOL    HW284568  10.177   8.694   3.242 -0.0307 -1.6640  1.7850
26480SOL     OW84569   5.317   5.229   1.263 -0.0163  0.1233  0.3126
26480SOL    HW184570   5.282   5.176   1.191 -0.6457 -0.3094  0.9290
26480SOL    HW284571   5.295   5.319   1.240 -0.2458 -0.0173 -0.0178
26481SOL     OW84572   7.331   6.987  11.122 -0.3469 -0.3379  0.2521
26481SOL    HW184573   7.357   6.924  11.054 -0.2605  1.7011 -1.6754
26481SOL    HW284574   7.345   6.940  11.204 -1.8749 -3.4160 -1.1518
26482SOL     OW84575   3.409   8.995   5.018 -0.3209 -0.2489  0.3087
26482SOL    HW184576   3.485   9.010   4.962  0.6807 -2.1764  1.1015
26482SOL    HW284577   3.347   8.946   4.964 -0.5451  0.3836 -0.0041
26483SOL     OW84578   9.605   5.042   4.816 -0.0578  0.1362  0.9354
26483SOL    HW184579   9.512   5.046   4.794  0.3638  0.3877 -0.8923
26483SOL    HW284580   9.608   5.054   4.911 -1.9338 -0.5689  1.1088
26484SOL     OW84581   5.849   9.187   1.118 -0.5204 -0.0410 -0.2808
26484SOL    HW184582   5.762   9.219   1.093 -0.2790  1.4229  0.6844
26484SOL    HW284583   5.902   9.267   1.127  0.0701 -0.6909  2.2958
26485SOL     OW84584   8.771   2.794   9.923 -0.5393 -0.5705 -0.1225
26485SOL    HW184585   8.782   2.778   9.830 -1.8285 -0.3418 -0.3242
26485SOL    HW284586   8.797   2.712   9.965  2.3408  0.1078 -0.5168
26486SOL     OW84587   5.287   3.199   4.561 -0.4606  0.2289  0.0429
26486SOL    HW184588   5.212   3.154   4.522 -1.6819  1.6043  0.7579
26486SOL    HW284589   5.337   3.231   4.486 -2.4289  2.2658 -0.4595
26487SOL     OW84590   0.757   7.992   9.784  0.2812  0.0224  0.1808
26487SOL    HW184591   0.727   8.061   9.843 -0.4226 -0.7277  0.7074
26487SOL    HW284592   0.794   8.039   9.709 -1.9285  0.9556 -0.3394
26488SOL     OW84593   8.727   6.179   4.647 -0.2483  0.5592 -0.0739
26488SOL    HW184594   8.814   6.139   4.637 -0.1080  0.9923 -0.6415
26488SOL    HW284595   8.742   6.272   4.633 -0.5077  0.8706  1.6497
26489SOL     OW84596   7.856   8.991   1.712  0.0975 -0.0537 -0.3883
26489SOL    HW184597   7.849   9.084   1.732  0.0965 -0.0422 -0.4446
26489SOL    HW284598   7.920   8.986   1.641  1.1866 -0.2292  0.5940
26490SOL     OW84599   8.420   3.592   4.978 -0.0838 -0.2882 -0.1674
26490SOL    HW184600   8.421   3.653   4.904  2.8457  2.6947  2.1902
26490SOL    HW284601   8.482   3.523   4.954 -0.3034 -0.1649 -1.1093
26491SOL     OW84602   8.410   8.487   7.625 -0.4544  0.0985 -0.4225
26491SOL    HW184603   8.391   8.488   7.531 -0.7037 -3.8458 -0.5177
26491SOL    HW284604   8.506   8.485   7.630 -0.4198  1.2705 -0.5440
26492SOL     OW84605   9.945  10.188   6.700 -0.0154 -0.0458  0.5777
26492SOL    HW184606   9.928  10.094   6.704 -0.4901 -0.0324 -0.8798
26492SOL    HW284607   9.866  10.225   6.661  1.0825  0.6903 -0.9683
26493SOL     OW84608   1.722   5.557   2.607  0.4532  0.3592 -0.3016
26493SOL    HW184609   1.677   5.635   2.576  0.2911 -0.1667 -1.4285
26493SOL    HW284610   1.673   5.484   2.567  0.2014 -0.3440  1.2490
26494SOL     OW84611   1.456   3.307  11.099  0.1018 -0.1794  0.3551
26494SOL    HW184612   1.371   3.352  11.095  1.2533  1.9467 -0.8062
26494SOL    HW284613   1.517   3.367  11.056  1.8604 -2.5039 -0.4707
26495SOL     OW84614   9.593  10.437   4.491 -0.5597 -0.2335 -0.2872
26495SOL    HW184615   9.642  10.415   4.411 -1.9493  1.0519 -1.4952
26495SOL    HW284616   9.543  10.357   4.510 -0.2705 -0.5242 -0.7198
26496SOL     OW84617   3.559   3.531  11.147  0.4720 -0.5692  0.4328
26496SOL    HW184618   3.542   3.473  11.221 -0.7804 -0.8147 -0.0362
26496SOL    HW284619   3.477   3.578  11.134  0.6489 -0.5955 -0.8505
26497SOL     OW84620   7.193   4.302   2.792 -0.1001 -0.0203 -0.2119
26497SOL    HW184621   7.209   4.324   2.700  0.1941  1.0621  0.0822
26497SOL    HW284622   7.103   4.330   2.808  0.1631  0.6999  0.0720
26498SOL     OW84623   1.185   4.057  10.018 -0.4199  0.2423  0.3579
26498SOL    HW184624   1.135   3.976  10.030 -1.0511  0.7709  1.3139
26498SOL    HW284625   1.227   4.047   9.932  1.0507 -1.8945  1.3052
26499SOL     OW84626   9.788   4.300   6.320 -0.2512 -0.3321  0.0701
26499SOL    HW184627   9.747   4.290   6.235  0.2727  1.2910 -0.3813
26499SOL    HW284628   9.723   4.267   6.382 -0.4789 -1.8935 -0.9738
26500SOL     OW84629   9.095   2.675   2.995  0.7358 -0.8431 -0.2696
26500SOL    HW184630   9.185   2.647   2.980  1.3027  0.8664 -0.2227
26500SOL    HW284631   9.079   2.657   3.088  1.8740  1.0089  0.3294
26501SOL     OW84632   0.310   1.678   1.693 -0.0795 -0.4685 -0.2742
26501SOL    HW184633   0.358   1.601   1.662  0.0717 -0.3551 -0.3258
26501SOL    HW284634   0.371   1.721   1.753 -0.2943 -0.5753  0.0179
26502SOL     OW84635   7.987   6.932   9.398 -0.2162 -0.8711 -0.2267
26502SOL    HW184636   8.008   7.011   9.348 -1.6492 -2.2390 -3.0712
26502SOL    HW284637   8.034   6.862   9.353 -0.5443 -1.9568  1.1048
26503SOL     OW84638   1.083   9.186  10.694 -0.1469  0.2076 -0.4127
26503SOL    HW184639   0.990   9.204  10.680  0.3009  1.9370 -1.3637
26503SOL    HW284640   1.120   9.183  10.606  1.0547  1.7357  0.0163
26504SOL     OW84641   5.831   7.911   0.481  0.3265 -0.3623 -0.2579
26504SOL    HW184642   5.824   7.821   0.449  0.1455 -1.0021  1.5076
26504SOL    HW284643   5.921   7.937   0.460 -0.1167 -0.3728 -2.2275
26505SOL     OW84644   0.586   9.853   1.904 -0.0323  0.4064  0.0300
26505SOL    HW184645   0.656   9.787   1.906  0.5409  0.7955 -4.1709
26505SOL    HW284646   0.514   9.810   1.858  0.3015  2.6036 -2.6454
26506SOL     OW84647   6.052   9.232   8.625 -0.2804 -0.2550 -0.6163
26506SOL    HW184648   6.044   9.138   8.637 -0.7843 -0.1625 -0.1937
26506SOL    HW284649   6.123   9.258   8.684 -1.4751 -0.0813  0.7803
26507SOL     OW84650   1.523   5.748  11.229  0.6701  0.0342  0.0067
26507SOL    HW184651   1.467   5.787  11.296  1.1244  1.1316 -0.2501
26507SOL    HW284652   1.477   5.762  11.147  1.7440  1.7864 -0.3248
26508SOL     OW84653   2.664   7.872   1.777 -0.3300 -0.6074  0.2517
26508SOL    HW184654   2.584   7.851   1.727  0.2459 -2.0383 -0.0966
26508SOL    HW284655   2.735   7.842   1.721  0.5451  2.0301 -0.1016
26509SOL     OW84656   8.842   3.620   1.472 -0.1237  0.3259  0.7096
26509SOL    HW184657   8.826   3.638   1.380 -1.4468  0.6401  0.9904
26509SOL    HW284658   8.895   3.693   1.503  0.3965  0.1726  0.1815
26510SOL     OW84659   1.239   2.011   1.239  0.2068 -0.1615  0.4706
26510SOL    HW184660   1.156   1.964   1.241  0.6177 -0.8719  0.8313
26510SOL    HW284661   1.268   2.005   1.147  1.0341 -1.9909  0.8301
26511SOL     OW84662   7.276   4.023   5.702 -0.0501 -0.4095  0.2786
26511SOL    HW184663   7.182   4.024   5.722 -0.0826 -0.4571  0.1309
26511SOL    HW284664   7.298   4.114   5.684 -0.1473 -0.4537 -0.0555
26512SOL     OW84665   6.155  10.398   8.403  0.5039  0.2035 -0.5767
26512SOL    HW184666   6.121  10.457   8.336  0.0505  0.4609 -0.1224
26512SOL    HW284667   6.125  10.311   8.376 -0.7412  0.4598 -0.0427
26513SOL     OW84668   0.992   1.762   8.028  0.3744 -0.4351 -0.1425
26513SOL    HW184669   0.973   1.683   7.978  1.2617 -2.0692  2.0102
26513SOL    HW284670   1.012   1.731   8.116  2.0925  2.0855  0.4211
26514SOL     OW84671   3.338   1.365   9.454  0.5983 -0.7321  0.5958
26514SOL    HW184672   3.287   1.293   9.417  0.1693  0.4773 -1.2687
26514SOL    HW284673   3.276   1.411   9.511  0.1098 -0.3441 -0.2330
26515SOL     OW84674   9.619   8.730  10.169  0.1646  0.2026  0.4437
26515SOL    HW184675   9.625   8.798  10.102  0.2083 -0.2288  0.0084
26515SOL    HW284676   9.595   8.777  10.249 -0.0152  0.7009  0.0980
26516SOL     OW84677  10.698  10.685   9.966 -0.6741  0.0066 -0.0295
26516SOL    HW184678  10.778  10.639   9.991 -0.6701 -0.3984 -0.7649
26516SOL    HW284679  10.701  10.688   9.870 -1.8934 -0.6544 -0.1020
26517SOL     OW84680   7.901   2.291   6.339  0.0436 -0.4217 -0.8153
26517SOL    HW184681   7.926   2.365   6.394  0.1569  1.1826 -2.9616
26517SOL    HW284682   7.893   2.218   6.400  1.1316  1.0648  1.1854
26518SOL     OW84683   1.865   1.106   8.991  0.0941  0.4103 -0.2768
26518SOL    HW184684   1.925   1.111   8.917  2.3118 -0.3430  1.4125
26518SOL    HW284685   1.841   1.014   8.997 -1.0105  0.6594 -0.7515
26519SOL     OW84686   3.694   7.606   9.706  0.6211  0.2857  0.7309
26519SOL    HW184687   3.736   7.557   9.636 -3.7776  0.6654 -2.3594
26519SOL    HW284688   3.707   7.698   9.683 -0.1241  0.4343  0.9039
26520SOL     OW84689   9.629  11.290   1.722  0.4566  0.4740  0.1112
26520SOL    HW184690   9.706  11.300   1.666 -0.1146  2.1736 -0.3911
26520SOL    HW284691   9.559  11.332   1.673 -0.6448 -0.4580  0.8796
26521SOL     OW84692   1.923   9.642   1.548  0.8399  0.2211  0.1586
26521SOL    HW184693   1.888   9.553   1.542 -0.2126  0.6467 -0.1084
26521SOL    HW284694   1.880   9.689   1.476  1.4058  0.9394  0.2876
26522SOL     OW84695   3.180   8.779   7.831  0.5110 -0.0592  0.3039
26522SOL    HW184696   3.096   8.734   7.829  0.8297 -0.6670  0.5437
26522SOL    HW284697   3.245   8.712   7.810  1.2297 -0.3426  3.1218
26523SOL     OW84698   5.178   6.650   1.216 -0.5418  0.5880 -0.4097
26523SOL    HW184699   5.214   6.568   1.250 -0.3101  0.4845 -0.8998
26523SOL    HW284700   5.242   6.679   1.150 -0.8496  0.9244 -0.5645
26524SOL     OW84701   2.060   9.071   0.125 -0.3202  0.0877  0.1660
26524SOL    HW184702   2.101   8.986   0.142  0.7754  0.5616 -0.0677
26524SOL    HW284703   2.093   9.128   0.195  0.0336  0.6710 -0.4667
26525SOL     OW84704   1.576   3.965   7.195  0.0980  0.1415 -0.3647
26525SOL    HW184705   1.621   3.997   7.117  1.5098 -0.1364  0.3132
26525SOL    HW284706   1.548   4.043   7.241 -0.1933  0.3174 -0.8368
26526SOL     OW84707   3.010   0.687   8.788 -0.0689  0.2896  0.5812
26526SOL    HW184708   3.056   0.716   8.710  0.4891  0.3459  0.9324
26526SOL    HW284709   3.072   0.631   8.835 -0.2661  0.5560  1.1720
26527SOL     OW84710   0.266   5.314   4.990 -0.0201  0.1179 -0.0993
26527SOL    HW184711   0.258   5.405   5.018  0.3242  0.1945 -0.2495
26527SOL    HW284712   0.176   5.284   4.978 -0.1565  0.2706  0.4914
26528SOL     OW84713   3.516   6.793   9.069 -0.1190 -0.1609 -0.8855
26528SOL    HW184714   3.451   6.848   9.024 -1.9052 -0.2135  1.5230
26528SOL    HW284715   3.559   6.853   9.131  0.0893 -0.7717 -0.4358
26529SOL     OW84716   3.396   8.087   9.954  0.7292 -0.8235  0.9309
26529SOL    HW184717   3.357   8.004   9.927  0.1781 -0.0613 -0.6718
26529SOL    HW284718   3.328   8.130  10.005 -0.9474  0.8318 -2.4812
26530SOL     OW84719   8.021   3.150   1.379 -0.4403  0.4196 -0.1198
26530SOL    HW184720   8.053   3.126   1.293 -0.0585  1.7197 -0.3445
26530SOL    HW284721   7.925   3.146   1.371 -0.4263  1.2999 -0.8342
26531SOL     OW84722   7.618  11.055  10.660 -0.2271  0.1346 -0.5043
26531SOL    HW184723   7.538  11.003  10.658 -0.8995  1.1588 -0.9497
26531SOL    HW284724   7.633  11.075  10.752 -0.6271  0.1366 -0.4396
26532SOL     OW84725   0.773   8.817   2.451 -0.0347  0.1940  0.2880
26532SOL    HW184726   0.730   8.830   2.536 -0.2279  0.2720  0.1803
26532SOL    HW284727   0.865   8.805   2.472  0.1068  1.4276  0.4263
26533SOL     OW84728   3.612   1.456   0.272 -0.5545  0.4723  0.3733
26533SOL    HW184729   3.539   1.415   0.226  0.4944  0.3848 -1.2415
26533SOL    HW284730   3.572   1.525   0.325 -1.7015  0.9538 -1.1139
26534SOL     OW84731   9.328   5.562   8.402  0.2249 -0.6018 -0.0576
26534SOL    HW184732   9.284   5.555   8.317 -0.6763 -0.7171  0.4087
26534SOL    HW284733   9.359   5.652   8.406  1.7248 -1.0410 -1.2058
26535SOL     OW84734   7.315   3.730  10.259  0.2831  0.2539  0.0011
26535SOL    HW184735   7.330   3.639  10.234  0.0350 -0.0221  0.8655
26535SOL    HW284736   7.345   3.780  10.183 -0.1861 -0.5680 -0.7346
26536SOL     OW84737   3.649   7.058   5.029  0.4803  0.2599  0.7791
26536SOL    HW184738   3.578   7.102   4.982 -0.3359 -0.4768  1.3089
26536SOL    HW284739   3.727   7.109   5.007 -0.0423  0.4689 -0.6222
26537SOL     OW84740   1.723  10.877  10.589 -0.0086  0.3153  0.1080
26537SOL    HW184741   1.741  10.789  10.624  1.3836 -0.0581 -1.4526
26537SOL    HW284742   1.673  10.860  10.509 -0.8255  1.0173  0.4705
26538SOL     OW84743   1.850   0.319   7.747  0.6844  0.3036 -0.3750
26538SOL    HW184744   1.882   0.316   7.657 -0.4722  1.4487 -0.8392
26538SOL    HW284745   1.769   0.268   7.745  0.5247  0.5471 -0.0284
26539SOL     OW84746   4.459   3.500   5.415  0.1027 -0.6178  0.5848
26539SOL    HW184747   4.378   3.541   5.446  0.5693 -1.1486  2.5779
26539SOL    HW284748   4.451   3.500   5.319 -1.7404  0.3549  0.7185
26540SOL     OW84749   4.616   4.835   0.212 -0.1298  0.0821  0.2629
26540SOL    HW184750   4.594   4.911   0.159 -1.4231 -0.5373 -0.1178
26540SOL    HW284751   4.706   4.813   0.187  0.1355  1.2847  0.1456
26541SOL     OW84752   0.784   9.905   4.337 -0.1526 -0.4309  0.2435
26541SOL    HW184753   0.776   9.928   4.430 -0.3064 -1.7530  0.5599
26541SOL    HW284754   0.872   9.934   4.313 -0.0207 -0.3044  0.8631
26542SOL     OW84755   3.050   4.817  11.068  0.0098  0.3587 -0.2828
26542SOL    HW184756   3.130   4.841  11.023 -0.0452 -0.4680 -0.8237
26542SOL    HW284757   3.062   4.725  11.094 -1.3592 -0.2466 -1.7160
26543SOL     OW84758   1.727   3.044   2.758  0.4918  0.1283  0.3701
26543SOL    HW184759   1.749   3.137   2.763 -0.7191  0.3242  2.1702
26543SOL    HW284760   1.812   3.000   2.755  1.0823  1.2027  1.0302
26544SOL     OW84761   9.781   0.336   1.952 -0.1903  0.6025 -0.6014
26544SOL    HW184762   9.718   0.266   1.969 -0.0778  0.4502 -0.8104
26544SOL    HW284763   9.835   0.340   2.031  1.1784 -0.9821 -1.4196
26545SOL     OW84764   2.086   8.727  10.797  1.1733 -1.0443  0.5062
26545SOL    HW184765   2.043   8.704  10.880 -0.7740 -0.2857 -0.2473
26545SOL    HW284766   2.082   8.823  10.794  1.4721 -1.0517 -0.3271
26546SOL     OW84767   1.150   7.217   9.911 -0.0855 -0.2302  0.8853
26546SOL    HW184768   1.120   7.153   9.847  0.4690  0.9699 -0.6207
26546SOL    HW284769   1.204   7.167   9.972 -0.5584 -1.3766  0.3819
26547SOL     OW84770   8.115   6.851   9.635 -0.2493  0.3967 -0.0635
26547SOL    HW184771   8.114   6.790   9.562  0.6231 -1.0083  1.0923
26547SOL    HW284772   8.180   6.917   9.611 -0.1919  0.1145 -0.6799
26548SOL     OW84773  10.470   2.803   2.629  0.3293  0.5633 -0.6572
26548SOL    HW184774  10.556   2.786   2.668  0.7733  0.8461 -1.5052
26548SOL    HW284775  10.469   2.898   2.614 -1.0078  0.9281  1.3955
26549SOL     OW84776  11.272  10.193   7.027 -0.1097 -0.3717 -0.2791
26549SOL    HW184777  11.272  10.226   6.937 -1.7136 -1.4788 -0.7045
26549SOL    HW284778  11.181  10.168   7.044  0.5202 -1.8463  1.0313
26550SOL     OW84779   9.242   1.694   1.681  0.0388 -0.0235 -0.1206
26550SOL    HW184780   9.287   1.770   1.645  0.2550 -0.3942 -0.6571
26550SOL    HW284781   9.151   1.704   1.652  0.3196 -0.5972 -1.2772
26551SOL     OW84782   4.288   3.030  10.253  0.0340 -0.1627  0.2201
26551SOL    HW184783   4.252   3.105  10.301  1.6002  0.5694  0.2896
26551SOL    HW284784   4.220   2.963  10.259 -1.8270  1.5908 -0.7165
26552SOL     OW84785   8.984   0.575   0.670  0.2152  0.3045 -0.2383
26552SOL    HW184786   9.002   0.665   0.645  1.0463 -0.2481 -1.6701
26552SOL    HW284787   9.071   0.536   0.684 -0.1650  0.0668  1.6800
26553SOL     OW84788   8.606   2.631   1.846 -0.2276 -0.6933 -0.0902
26553SOL    HW184789   8.575   2.574   1.916  1.9606 -1.4806  0.2958
26553SOL    HW284790   8.619   2.572   1.771 -1.9117  0.0258 -0.9614
26554SOL     OW84791   0.029   2.763   7.077  0.1841 -0.1248 -0.1865
26554SOL    HW184792  -0.044   2.746   7.136  0.1836 -2.3196 -0.7699
26554SOL    HW284793   0.023   2.856   7.057 -1.8361 -0.0671  0.6026
26555SOL     OW84794   1.849   1.503   3.605  0.3303  0.2603  0.1865
26555SOL    HW184795   1.832   1.583   3.656  1.5330  0.2021  0.6998
26555SOL    HW284796   1.765   1.460   3.599 -0.1981  1.2312  0.5015
26556SOL     OW84797   1.775   4.605   1.647  0.0773  0.5909  0.4803
26556SOL    HW184798   1.804   4.514   1.654 -1.4658  0.2642  3.3678
26556SOL    HW284799   1.705   4.603   1.582  0.0908 -0.2881  0.4844
26557SOL     OW84800   0.435  10.367   8.122 -0.0322  0.0754 -0.3085
26557SOL    HW184801   0.429  10.463   8.117  0.6532  0.3184  2.5873
26557SOL    HW284802   0.415  10.337   8.034  0.3713  2.9309 -1.4241
26558SOL     OW84803   1.667  11.317   4.988 -0.2528  0.3416 -0.1631
26558SOL    HW184804   1.704  11.232   4.964  0.4929  0.7401 -0.4244
26558SOL    HW284805   1.629  11.303   5.075  0.1873 -0.1630 -0.0490
26559SOL     OW84806   1.285   8.172   9.502 -0.1476 -0.5641 -0.1553
26559SOL    HW184807   1.343   8.246   9.522 -0.7739  0.5996 -2.4076
26559SOL    HW284808   1.339   8.094   9.519  1.8113  0.4841 -1.3192
26560SOL     OW84809   9.122   6.915  10.166 -0.0009  0.0976  0.2568
26560SOL    HW184810   9.040   6.899  10.119  0.3029 -0.2076 -0.1798
26560SOL    HW284811   9.177   6.841  10.141  0.3319  0.1957  0.7153
26561SOL     OW84812   3.576  10.160   2.698  0.3793  0.0528 -0.5782
26561SOL    HW184813   3.482  10.151   2.718  0.5892  1.5859  1.3002
26561SOL    HW284814   3.578  10.224   2.627 -0.0213  0.0623 -0.5852
26562SOL     OW84815   1.598   6.499   3.523 -0.5240 -0.7796  0.0594
26562SOL    HW184816   1.559   6.424   3.568 -1.9549  1.5952  2.9734
26562SOL    HW284817   1.530   6.528   3.462 -0.3560 -1.2299 -0.3456
26563SOL     OW84818   9.473  10.362   7.176  0.3666  0.0526 -0.7219
26563SOL    HW184819   9.505  10.273   7.162 -0.0107 -0.2860  0.5322
26563SOL    HW284820   9.380  10.352   7.193  0.1980  0.7515 -1.2015
26564SOL     OW84821   5.100   7.558   2.327 -0.0963  0.3264 -0.2607
26564SOL    HW184822   5.024   7.505   2.350 -0.8283  2.1107  1.6456
26564SOL    HW284823   5.164   7.539   2.396  0.6164 -0.0430 -1.0235
26565SOL     OW84824   6.188  10.280   8.979  0.3671  0.0193  0.1239
26565SOL    HW184825   6.121  10.345   9.000  0.1635 -0.4014  0.7989
26565SOL    HW284826   6.270  10.330   8.976  0.3688  0.1515  1.7165
26566SOL     OW84827   4.211   9.213   1.745  0.0719 -0.0300 -0.3168
26566SOL    HW184828   4.165   9.284   1.700 -0.9301 -0.4271  0.0684
26566SOL    HW284829   4.183   9.219   1.836  0.2466 -0.7107 -0.2116
26567SOL     OW84830  10.659   3.935   8.739 -0.3305 -0.4953 -0.5383
26567SOL    HW184831  10.653   3.840   8.729 -1.7404 -0.4344 -0.3462
26567SOL    HW284832  10.605   3.954   8.816  0.4105  0.4028 -0.2308
26568SOL     OW84833   1.427   5.391   6.913  0.3376  0.2516 -0.0626
26568SOL    HW184834   1.477   5.324   6.959  0.1436  0.0516 -0.1440
26568SOL    HW284835   1.345   5.399   6.962  0.5301  0.7229  0.1915
26569SOL     OW84836   9.743   6.978   0.021  0.0109  0.4378  0.2912
26569SOL    HW184837   9.835   7.002   0.036  0.4428 -0.2410 -1.1446
26569SOL    HW284838   9.733   6.983  -0.074 -0.2242 -3.8257  0.0113
26570SOL     OW84839  10.853   8.994   1.181  0.3651  0.2073  0.5466
26570SOL    HW184840  10.874   8.920   1.124 -0.3093 -1.0471  1.8848
26570SOL    HW284841  10.772   8.969   1.224  0.4816  1.4456  1.5348
26571SOL     OW84842   7.286   1.387   2.805  0.1370  0.4216  0.3832
26571SOL    HW184843   7.271   1.337   2.725 -0.9926 -0.0642  0.8841
26571SOL    HW284844   7.331   1.466   2.776  0.4905 -0.1304 -0.6238
26572SOL     OW84845   9.467   5.559   4.714 -0.7685  0.4172  0.3414
26572SOL    HW184846   9.379   5.553   4.677 -0.5732 -0.4361  0.0009
26572SOL    HW284847   9.477   5.651   4.737 -0.5065  1.2368 -2.7801
26573SOL     OW84848   7.993   1.296   0.901 -0.0003 -0.6941  0.8159
26573SOL    HW184849   7.939   1.308   0.823  0.9298  2.5400  0.5806
26573SOL    HW284850   7.952   1.352   0.968  0.7027 -1.3855  1.8398
26574SOL     OW84851   7.364   9.640   7.235  0.0090  0.3579 -0.5042
26574SOL    HW184852   7.284   9.664   7.189 -0.5990  0.3408  0.5318
26574SOL    HW284853   7.374   9.706   7.302  1.7922  1.3223 -1.6843
26575SOL     OW84854   0.163   1.203   6.717 -0.0862 -0.0042  0.1612
26575SOL    HW184855   0.128   1.291   6.702  0.2239 -0.0428 -0.8447
26575SOL    HW284856   0.254   1.218   6.742  0.0295 -0.0469 -0.2306
26576SOL     OW84857   7.451   9.317   8.681 -0.0686  0.5805 -0.1368
26576SOL    HW184858   7.544   9.323   8.706  0.1806 -2.7295 -0.0540
26576SOL    HW284859   7.403   9.344   8.759  0.8008  0.3103  0.4928
26577SOL     OW84860   7.614   0.019   6.337 -0.7121  0.3716 -0.6205
26577SOL    HW184861   7.553   0.093   6.337  1.1160  1.9062 -0.9750
26577SOL    HW284862   7.558  -0.058   6.326 -2.5611  1.7629 -1.2041
26578SOL     OW84863   7.368  10.079   2.823  0.0273  0.2549 -0.7662
26578SOL    HW184864   7.376  10.149   2.758 -0.7949  1.4114  0.3551
26578SOL    HW284865   7.282  10.093   2.862  0.4899 -0.4782  0.5279
26579SOL     OW84866   7.080   4.075   2.611  0.3327  0.2455 -0.0890
26579SOL    HW184867   7.067   4.058   2.705  0.2965  1.4127  0.1267
26579SOL    HW284868   7.080   4.170   2.604  1.3143  0.1730 -1.1527
26580SOL     OW84869   3.676   9.539   2.526 -0.6755  0.4184  0.0467
26580SOL    HW184870   3.741   9.540   2.597 -1.1215 -1.2533  0.5135
26580SOL    HW284871   3.727   9.546   2.446  0.1358 -1.2509  0.3947
26581SOL     OW84872   4.852   3.531   7.073  0.1230 -0.0077 -0.1327
26581SOL    HW184873   4.934   3.485   7.056 -0.1352 -0.1568 -0.9849
26581SOL    HW284874   4.862   3.616   7.030 -0.1175  0.0247 -0.1244
26582SOL     OW84875   6.930   0.679   7.691 -0.0491  0.4975 -0.1331
26582SOL    HW184876   6.892   0.692   7.778 -0.8452  0.9011 -0.5428
26582SOL    HW284877   7.022   0.659   7.709 -0.1702  0.7254  0.7977
26583SOL     OW84878   0.017   3.877   3.543  0.0302  0.0008 -0.5489
26583SOL    HW184879  -0.047   3.851   3.608  1.1168 -0.6058  0.2964
26583SOL    HW284880  -0.019   3.957   3.505 -0.4727  0.5306  0.9979
26584SOL     OW84881   4.022   2.335   4.629  0.1533  0.1192 -0.8038
26584SOL    HW184882   3.963   2.268   4.663  1.4452 -0.7613 -0.2676
26584SOL    HW284883   4.020   2.322   4.534  2.1401 -2.1750 -0.5547
26585SOL     OW84884   8.861   5.582   0.766 -0.3428 -0.1492  0.1247
26585SOL    HW184885   8.882   5.617   0.853 -0.3763  2.5283 -0.9160
26585SOL    HW284886   8.785   5.633   0.737  1.7436  1.3758 -2.8973
26586SOL     OW84887   0.754   0.800   3.546 -0.7720  0.0202 -0.0522
26586SOL    HW184888   0.764   0.797   3.641 -0.4032 -1.1228 -0.1119
26586SOL    HW284889   0.750   0.893   3.524 -0.0597  0.3014  1.0017
26587SOL     OW84890   1.791   1.372   0.391  0.3411 -0.0929 -0.1474
26587SOL    HW184891   1.839   1.428   0.329 -2.4180  1.2421 -1.1713
26587SOL    HW284892   1.804   1.414   0.476  0.0758  0.9415 -0.5988
26588SOL     OW84893   2.726   0.204   4.474 -0.3815 -0.2022  0.1110
26588SOL    HW184894   2.729   0.196   4.569  0.1848 -1.0038  0.0350
26588SOL    HW284895   2.648   0.256   4.456 -1.7097 -1.8766  0.9090
26589SOL     OW84896  10.030   5.606   1.705 -0.3878 -0.0794 -0.1080
26589SOL    HW184897  10.094   5.540   1.733  0.5407  1.3788  1.2702
26589SOL    HW284898  10.081   5.668   1.653 -0.8055  0.7421  0.4560
26590SOL     OW84899  10.601   0.091   8.801 -0.3452 -0.3113 -0.2161
26590SOL    HW184900  10.546   0.114   8.726  0.9717  0.3376 -0.9910
26590SOL    HW284901  10.630   0.002   8.783  0.9639  0.2775 -1.0979
26591SOL     OW84902   1.275   8.184   9.790 -0.5821  0.6762 -0.6401
26591SOL    HW184903   1.282   8.220   9.701 -0.4217  1.4406 -0.3243
26591SOL    HW284904   1.259   8.261   9.845  0.5963  0.3594  0.1576
26592SOL     OW84905   9.968   1.345   9.480  0.0345 -0.3026  0.3761
26592SOL    HW184906   9.924   1.428   9.498  0.5260 -0.3763  2.0031
26592SOL    HW284907   9.899   1.280   9.485 -0.3914  0.0218 -1.1095
26593SOL     OW84908   1.984   6.922  10.879  0.5294  0.3277 -0.2585
26593SOL    HW184909   2.064   6.948  10.832  1.6717  0.1409  1.5507
26593SOL    HW284910   1.972   6.991  10.944  0.9054 -1.1744  1.4371
26594SOL     OW84911   0.938   7.385   4.762  0.4384 -0.3417 -0.4956
26594SOL    HW184912   0.872   7.334   4.716 -0.0229 -1.8169  1.7476
26594SOL    HW284913   0.896   7.470   4.778 -0.4199 -0.8080 -0.2802
26595SOL     OW84914   0.554  11.255   3.368 -0.1223 -0.3088  0.3099
26595SOL    HW184915   0.473  11.248   3.419  0.7699  1.0757  2.0013
26595SOL    HW284916   0.554  11.345   3.334  1.3691  0.1954  1.5622
26596SOL     OW84917  10.912   1.957   8.728  0.1908  0.1679  0.1002
26596SOL    HW184918  10.834   1.910   8.756 -0.5805  1.3361 -0.0651
26596SOL    HW284919  10.932   1.921   8.641 -0.2434 -0.0328  0.0847
26597SOL     OW84920   4.118   3.297   5.838  0.1213  0.2493 -0.7724
26597SOL    HW184921   4.142   3.332   5.923  0.2887  0.9533 -1.1040
26597SOL    HW284922   4.058   3.225   5.857  0.4574  0.1631 -0.0488
26598SOL     OW84923   8.980   8.855   4.920 -0.2577 -0.0367 -0.6796
26598SOL    HW184924   9.061   8.890   4.882  0.2055 -0.4993 -0.1216
26598SOL    HW284925   9.004   8.769   4.955 -0.7472  0.2393  0.3727
26599SOL     OW84926   4.625   9.536   8.985  0.5420  0.5259 -0.1032
26599SOL    HW184927   4.578   9.485   8.919 -0.6834 -0.1855  1.3042
26599SOL    HW284928   4.710   9.493   8.992  0.9213  0.9727 -1.6402
26600SOL     OW84929   6.224   6.438   7.505  0.6831 -0.8946  0.2067
26600SOL    HW184930   6.169   6.360   7.507 -1.7740  0.7732  0.1361
26600SOL    HW284931   6.232   6.464   7.596 -1.1178  0.4936  0.0014
26601SOL     OW84932   0.552   8.518   5.300 -0.2297 -0.1353  0.4065
26601SOL    HW184933   0.569   8.599   5.348  0.6918 -0.8008  1.2093
26601SOL    HW284934   0.600   8.529   5.218  2.0732 -0.9341  1.6023
26602SOL     OW84935   2.120   4.194  10.605 -0.2219 -0.5912 -0.1591
26602SOL    HW184936   2.205   4.238  10.601 -0.7116  0.3374 -0.4141
26602SOL    HW284937   2.073   4.238  10.675 -0.7335 -0.6623 -0.4533
26603SOL     OW84938   8.055   7.600   7.755 -0.7842 -0.1703 -0.0529
26603SOL    HW184939   8.142   7.613   7.793 -0.2165 -3.9562  0.1724
26603SOL    HW284940   8.071   7.593   7.661 -0.9957  0.3180 -0.1234
26604SOL     OW84941   4.617  10.514  10.758  0.0431 -0.2224 -0.1566
26604SOL    HW184942   4.617  10.553  10.671  0.8324 -0.1622 -0.1339
26604SOL    HW284943   4.557  10.440  10.752  0.4964 -0.5337 -0.8953
26605SOL     OW84944   0.016   6.710   9.286 -0.7657 -0.5103 -0.4457
26605SOL    HW184945   0.081   6.650   9.249 -0.3701 -2.0681  2.6157
26605SOL    HW284946  -0.022   6.754   9.210  1.6878 -1.8140 -2.4984
26606SOL     OW84947   2.214   9.950   7.073 -0.0218 -0.3472  0.2500
26606SOL    HW184948   2.162   9.870   7.077  0.1602 -0.5519 -1.1771
26606SOL    HW284949   2.226   9.976   7.164 -1.5562 -0.9794  0.6387
26607SOL     OW84950   4.191   4.283   8.481 -0.4687  0.0415  0.2286
26607SOL    HW184951   4.287   4.283   8.487 -0.5272  0.7130  1.1259
26607SOL    HW284952   4.168   4.374   8.466 -1.1676  0.3523  3.0561
26608SOL     OW84953   3.928   5.857   9.140  0.7593  0.2794  0.3890
26608SOL    HW184954   3.914   5.899   9.055 -0.0904  3.2491  1.9058
26608SOL    HW284955   3.840   5.846   9.176  1.0204 -2.2942  0.2908
26609SOL     OW84956   4.271   5.121  10.759 -0.0674  0.5688  0.3347
26609SOL    HW184957   4.310   5.192  10.810  0.4997  0.2406  0.3694
26609SOL    HW284958   4.345   5.064  10.738 -0.0743  1.3977 -2.0116
26610SOL     OW84959   6.579  10.219   2.571  0.2791 -0.0879 -0.9227
26610SOL    HW184960   6.534  10.143   2.608 -0.6476  0.2679 -1.3212
26610SOL    HW284961   6.631  10.253   2.644 -0.9130  0.1396 -0.1640
26611SOL     OW84962   7.615   9.741   0.999  0.0306  0.3335 -0.2233
26611SOL    HW184963   7.624   9.692   0.917 -1.7750  1.0057 -0.8539
26611SOL    HW284964   7.601   9.832   0.971 -0.0316  0.6602  0.8467
26612SOL     OW84965  10.114   9.693   1.067  0.2192 -0.1223  0.6985
26612SOL    HW184966  10.053   9.653   1.006 -1.2896  1.0254  1.4283
26612SOL    HW284967  10.091   9.656   1.152  1.7618 -1.0771  0.7235
26613SOL     OW84968   6.857   6.109   7.987  1.0459 -0.1346  0.1072
26613SOL    HW184969   6.932   6.115   8.046 -0.6611  0.2353  2.3013
26613SOL    HW284970   6.805   6.038   8.023 -0.4738  0.6950 -0.4334
26614SOL     OW84971   3.580  11.333   8.499 -0.7382  0.3791  0.3871
26614SOL    HW184972   3.561  11.427   8.500 -1.6763  0.1905  1.1334
26614SOL    HW284973   3.542  11.300   8.581  0.2279 -0.5265  0.4814
26615SOL     OW84974  10.079   4.097   0.847 -0.7901  0.4549  0.1650
26615SOL    HW184975   9.996   4.058   0.820 -0.6212  1.4943 -1.9450
26615SOL    HW284976  10.089   4.173   0.791  1.2957  0.6970  0.8242
26616SOL     OW84977   7.844   8.879   4.003  0.3624  0.7169 -0.2543
26616SOL    HW184978   7.787   8.863   4.078 -0.5076  1.1313 -0.8160
26616SOL    HW284979   7.837   8.973   3.987  0.2030  0.5641 -1.1197
26617SOL     OW84980   5.068   2.831   2.816 -0.5212 -0.1139  0.9364
26617SOL    HW184981   5.020   2.901   2.771  0.6905  1.4215  1.9643
26617SOL    HW284982   5.160   2.854   2.804 -0.0576 -2.3406  0.0580
26618SOL     OW84983   7.396   3.311   1.473 -0.4904 -0.2846  0.3715
26618SOL    HW184984   7.302   3.327   1.466 -0.1266  1.1572 -1.7660
26618SOL    HW284985   7.436   3.398   1.461  1.1832 -1.2375 -1.1832
26619SOL     OW84986   3.983   8.340  10.073 -1.0127 -0.6685  1.0949
26619SOL    HW184987   3.913   8.278  10.097 -0.6486 -1.8919 -0.8862
26619SOL    HW284988   4.052   8.285  10.037  0.3215  0.6969  1.5388
26620SOL     OW84989   8.325   6.135   3.617  0.4437  0.4443 -0.2238
26620SOL    HW184990   8.339   6.063   3.679 -1.5199  0.6430  0.4774
26620SOL    HW284991   8.281   6.094   3.543 -0.1260  0.8091 -0.0864
26621SOL     OW84992   7.652   3.910   9.376 -0.2533 -0.4621 -0.2599
26621SOL    HW184993   7.665   3.822   9.339 -2.0862 -0.5464 -0.7409
26621SOL    HW284994   7.578   3.946   9.326 -0.3954  0.8282  0.8702
26622SOL     OW84995   4.700   5.354   1.199  0.3886 -0.0426  0.3764
26622SOL    HW184996   4.665   5.414   1.134 -2.6508 -2.7141 -0.5747
26622SOL    HW284997   4.790   5.337   1.171  0.8551  2.9048 -0.0864
26623SOL     OW84998   3.330  10.025   1.534  0.5054  0.2263  0.1898
26623SOL    HW184999   3.263   9.985   1.479 -0.3345  0.4428  1.0492
26623SOL    HW285000   3.410  10.020   1.481 -0.3444  0.6953 -1.1636
26624SOL     OW85001   9.414   8.256  10.389  0.2722  0.0273 -0.2872
26624SOL    HW185002   9.323   8.230  10.402  0.6243 -1.2012 -0.2707
26624SOL    HW285003   9.448   8.193  10.326  0.7564  1.2628 -1.2770
26625SOL     OW85004   8.365   0.556  10.851  0.2080  0.1379  0.1316
26625SOL    HW185005   8.271   0.560  10.835  0.3911  2.1076 -0.4904
26625SOL    HW285006   8.398   0.494  10.786 -0.5109  0.2541 -0.3484
26626SOL     OW85007   4.211   0.382  10.064  0.6536  0.1043 -0.4406
26626SOL    HW185008   4.224   0.298  10.020  0.6669  0.2748 -0.7563
26626SOL    HW285009   4.227   0.448   9.997 -0.4253  0.3477 -0.4705
26627SOL     OW85010   5.426   9.051  10.722 -0.1836  0.0187  0.1534
26627SOL    HW185011   5.356   9.077  10.781  0.2519  0.3744  0.5127
26627SOL    HW285012   5.405   9.096  10.639 -1.6519 -1.7271 -0.4544
26628SOL     OW85013   7.012   4.076   1.693 -0.6353 -0.2800 -0.1119
26628SOL    HW185014   7.009   4.060   1.788 -0.7520 -1.4698 -0.3132
26628SOL    HW285015   6.928   4.118   1.673 -1.2390 -1.3901  0.0703
26629SOL     OW85016   4.605   5.505   4.685  0.1484 -0.3560 -0.1608
26629SOL    HW185017   4.617   5.550   4.602  0.2877 -0.6204 -0.2845
26629SOL    HW285018   4.577   5.573   4.746  2.3416  0.2883  0.1452
26630SOL     OW85019   5.946   5.915   0.427  0.3070  0.5469  0.1986
26630SOL    HW185020   5.858   5.937   0.397 -0.9891 -2.9103  1.1842
26630SOL    HW285021   5.954   5.957   0.513  0.0014  1.6207 -0.2897
26631SOL     OW85022   2.377   8.757   2.713  0.3859  0.5779  0.1254
26631SOL    HW185023   2.303   8.744   2.771 -0.1638 -3.2424 -1.2911
26631SOL    HW285024   2.450   8.712   2.757  0.6082 -0.0125 -0.8326
26632SOL     OW85025   5.319   3.273  10.827 -0.1523  0.2260 -0.1454
26632SOL    HW185026   5.396   3.230  10.864  0.8002  2.4518  0.5295
26632SOL    HW285027   5.254   3.270  10.897  0.8455  2.3091  0.9061
26633SOL     OW85028   8.798   9.382   1.646  0.3672 -0.1192 -0.0852
26633SOL    HW185029   8.809   9.476   1.659  0.1459 -0.1408  0.2636
26633SOL    HW285030   8.712   9.372   1.607  0.2658 -0.2011  0.1583
26634SOL     OW85031  10.457   7.435   6.233 -0.0748 -0.2595 -0.0535
26634SOL    HW185032  10.401   7.437   6.156  0.4455  1.1444 -0.4112
26634SOL    HW285033  10.460   7.343   6.258 -1.1840 -0.5683 -1.0180
26635SOL     OW85034  10.876   8.408   3.759  0.4681  0.3101  0.5447
26635SOL    HW185035  10.898   8.334   3.816 -0.3016  1.0632  1.8475
26635SOL    HW285036  10.814   8.371   3.696  2.4153 -0.8781 -0.7420
26636SOL     OW85037   2.879   4.518   9.058  0.4258 -0.4396 -0.2181
26636SOL    HW185038   2.853   4.580   8.990 -0.2547  0.1691  0.5956
26636SOL    HW285039   2.834   4.548   9.137  0.3793 -1.7485  0.2689
26637SOL     OW85040   4.524   7.017  11.302  0.3445 -0.0726 -0.3129
26637SOL    HW185041   4.525   7.096  11.248  0.9222  1.0576  1.3238
26637SOL    HW285042   4.570   6.952  11.249  1.2034  1.1120 -1.0456
26638SOL     OW85043   3.963   1.563   8.838  0.1861 -0.5758  0.6551
26638SOL    HW185044   3.956   1.496   8.771  1.3704  1.5330 -1.6783
26638SOL    HW285045   3.914   1.528   8.913 -0.2553 -3.4425 -0.9071
26639SOL     OW85046   5.060   1.653   2.186  0.3231 -0.6139 -0.0826
26639SOL    HW185047   4.968   1.681   2.189  0.8512  1.2149 -0.6595
26639SOL    HW285048   5.108   1.722   2.232  1.5706 -0.9660 -0.8287
26640SOL     OW85049   2.867   1.453   8.647 -0.2410  0.2488 -0.1282
26640SOL    HW185050   2.845   1.361   8.663 -0.1547 -0.1760 -2.3158
26640SOL    HW285051   2.813   1.501   8.709 -0.3320 -1.2768  1.0134
26641SOL     OW85052   1.129   4.531   1.261 -0.0996 -0.3050  0.2468
26641SOL    HW185053   1.101   4.454   1.212 -0.2313 -0.1856  0.1316
26641SOL    HW285054   1.057   4.548   1.321 -1.2332  1.2485 -1.4857
26642SOL     OW85055  10.162   9.719   9.219 -0.3917  0.0905  0.2604
26642SOL    HW185056  10.069   9.732   9.239 -0.5386  1.0273 -0.9867
26642SOL    HW285057  10.187   9.797   9.170  1.2630  0.2030  1.2600
26643SOL     OW85058   2.419   1.887   7.638  0.2619  0.0768  0.0658
26643SOL    HW185059   2.444   1.810   7.587 -1.1221 -1.1646  1.2215
26643SOL    HW285060   2.342   1.922   7.593 -0.5084 -0.5832  0.8548
26644SOL     OW85061   1.239   6.361   2.100 -0.1847 -0.5513  0.4558
26644SOL    HW185062   1.187   6.289   2.065  0.3156 -1.9918  2.5832
26644SOL    HW285063   1.307   6.376   2.034 -0.8598 -1.3748 -0.4461
26645SOL     OW85064   8.142   3.556   9.364  0.3109  0.4808  0.0373
26645SOL    HW185065   8.055   3.584   9.392  0.4901  1.6093 -0.5330
26645SOL    HW285066   8.185   3.636   9.334  0.4035 -0.5672 -2.7399
26646SOL     OW85067   1.319   8.378   1.283 -0.1349 -0.4053 -0.3325
26646SOL    HW185068   1.296   8.469   1.299 -2.5506 -1.1021  0.3481
26646SOL    HW285069   1.259   8.350   1.214  0.4144 -1.5562 -0.3533
26647SOL     OW85070   3.521   9.211   2.553 -0.2337 -0.4583  0.1452
26647SOL    HW185071   3.556   9.268   2.622 -2.6272  1.7594 -0.3956
26647SOL    HW285072   3.585   9.216   2.483 -0.8185  2.3492 -0.2539
26648SOL     OW85073   7.318   1.675   2.794 -0.3503  0.6284  0.0536
26648SOL    HW185074   7.324   1.683   2.890  2.2153 -1.9381  0.1832
26648SOL    HW285075   7.390   1.728   2.761 -2.1100  2.6804 -0.5699
26649SOL     OW85076   1.399   9.019   0.295 -0.0675 -0.6273  0.7465
26649SOL    HW185077   1.316   8.988   0.260 -0.7817 -1.2440  2.9260
26649SOL    HW285078   1.439   8.941   0.335  1.9966 -0.5567 -1.0411
26650SOL     OW85079   5.364  10.858   8.051 -0.2804 -0.2617  0.2687
26650SOL    HW185080   5.354  10.922   8.121 -0.9218 -1.0634  0.9230
26650SOL    HW285081   5.447  10.813   8.070 -0.6727 -0.7820  0.7728
26651SOL     OW85082   0.942   2.482   8.647  0.1544  0.4568  0.0967
26651SOL    HW185083   1.014   2.419   8.655  0.5076  1.0304  1.5202
26651SOL    HW285084   0.863   2.428   8.655  0.4599  0.2912  2.2234
26652SOL     OW85085   0.741   7.355   1.613 -0.1019  0.1255  0.0099
26652SOL    HW185086   0.717   7.264   1.595  0.3144  0.2106 -0.9713
26652SOL    HW285087   0.676   7.407   1.565  0.9735  0.3475 -1.2390
26653SOL     OW85088   7.837  11.021   7.070  0.8938 -1.0872  0.5708
26653SOL    HW185089   7.835  10.968   7.150  1.1945 -0.3869  1.0488
26653SOL    HW285090   7.756  11.072   7.073  1.2992 -0.4545  0.8468
26654SOL     OW85091   9.542   1.552   2.319 -0.5437 -0.0536  0.1276
26654SOL    HW185092   9.551   1.461   2.346 -0.4880  0.3147  1.3847
26654SOL    HW285093   9.628   1.591   2.335 -0.8767  0.4840  0.6572
26655SOL     OW85094   6.351   6.534   1.794 -0.2526  0.6816 -0.0051
26655SOL    HW185095   6.374   6.452   1.838 -1.1084  0.4327 -0.0137
26655SOL    HW285096   6.435   6.576   1.776  0.2098 -0.3161 -0.2229
26656SOL     OW85097   8.102   1.783   2.964 -0.1224  0.0032  0.3269
26656SOL    HW185098   8.160   1.723   3.012  0.7474  1.0232  0.5781
26656SOL    HW285099   8.104   1.751   2.874 -0.6965 -1.1227  0.7065
26657SOL     OW85100   8.889   1.571   4.406 -0.0263  0.6234  0.7162
26657SOL    HW185101   8.981   1.580   4.430  1.0064 -1.0113 -2.2952
26657SOL    HW285102   8.858   1.495   4.455  0.2782  1.0653  1.5974
26658SOL     OW85103   1.856   3.184   3.232  0.2146 -0.4973 -0.1537
26658SOL    HW185104   1.798   3.136   3.173 -0.3149 -1.3051  0.9917
26658SOL    HW285105   1.819   3.169   3.319  0.7171  1.0416  0.3449
26659SOL     OW85106   5.941  11.097   4.019 -0.2884  0.1412 -0.2744
26659SOL    HW185107   5.983  11.169   3.972  0.7582 -0.0236  0.3936
26659SOL    HW285108   5.988  11.092   4.102 -1.8240  0.1315  0.6127
26660SOL     OW85109   5.814   8.917   3.491  0.4462 -0.8384  0.4422
26660SOL    HW185110   5.744   8.936   3.554  1.2615  0.3042  1.0222
26660SOL    HW285111   5.842   9.003   3.460  0.8883 -1.3419 -0.5735
26661SOL     OW85112   8.734   7.227   9.506  0.5064  0.1454  0.3424
26661SOL    HW185113   8.690   7.257   9.586 -0.9735  0.6420 -0.6318
26661SOL    HW285114   8.666   7.229   9.439  1.5969 -0.7750 -0.8254
26662SOL     OW85115   5.127  10.893   6.048  0.0387  0.0208 -0.2442
26662SOL    HW185116   5.070  10.817   6.036 -0.1592 -0.1281  1.4947
26662SOL    HW285117   5.068  10.965   6.072  0.3337  0.4463 -0.7864
26663SOL     OW85118   3.063   4.833   3.147  0.0780 -0.0665  0.2350
26663SOL    HW185119   3.011   4.846   3.067 -0.5200  0.8858  0.7581
26663SOL    HW285120   3.126   4.766   3.124  2.4798  2.8728 -2.3057
26664SOL     OW85121   9.130   9.347   1.794 -0.8552  0.2072  0.0058
26664SOL    HW185122   9.213   9.356   1.840 -0.8701  1.2943 -0.1662
26664SOL    HW285123   9.125   9.424   1.737 -2.6790  0.9838  1.1430
26665SOL     OW85124  10.613   6.338   2.309  0.2397 -0.2408  0.8035
26665SOL    HW185125  10.613   6.432   2.292 -0.0418 -0.4745 -0.5937
26665SOL    HW285126  10.558   6.328   2.386  1.2569  0.8485  1.6918
26666SOL     OW85127   2.745   4.969   7.622 -0.5836  0.1029  0.1796
26666SOL    HW185128   2.830   5.006   7.649 -0.0218 -0.4552 -0.7905
26666SOL    HW285129   2.746   4.880   7.657 -1.3002  0.4824  1.2116
26667SOL     OW85130   1.081   8.312   6.113 -0.1228  0.6894 -0.2390
26667SOL    HW185131   1.061   8.365   6.036  3.5508  0.8760 -1.1427
26667SOL    HW285132   1.134   8.369   6.169  1.5055 -1.0761  0.0845
26668SOL     OW85133   6.698   7.254   5.027  0.1031  0.2897 -0.3249
26668SOL    HW185134   6.709   7.188   4.959 -0.2937  1.1339 -1.2131
26668SOL    HW285135   6.781   7.253   5.075 -0.5772 -2.2073  0.9139
26669SOL     OW85136   8.508  10.160   7.681 -0.4976  0.1366  0.0348
26669SOL    HW185137   8.584  10.208   7.715  0.1561 -1.1522  0.4397
26669SOL    HW285138   8.531  10.068   7.693 -1.4334 -0.2963 -1.3791
26670SOL     OW85139   6.237   9.690   1.128 -0.0398 -0.3600 -0.2738
26670SOL    HW185140   6.186   9.756   1.081  2.1923  0.6374 -1.3892
26670SOL    HW285141   6.328   9.716   1.114  0.7588 -0.8971  3.3652
26671SOL     OW85142   1.089   0.363   2.360  0.1744 -0.5929 -0.0369
26671SOL    HW185143   1.027   0.404   2.421 -0.4780 -0.2879 -0.8979
26671SOL    HW285144   1.175   0.398   2.387 -0.1231 -0.3593  0.6231
26672SOL     OW85145  10.550   3.865   3.077 -0.3154  0.1731 -0.0329
26672SOL    HW185146  10.455   3.877   3.072 -0.7059 -1.9127  1.7531
26672SOL    HW285147  10.565   3.824   3.161  2.0861 -0.5387 -0.7667
26673SOL     OW85148   8.629   4.593   3.833  0.2898 -0.2931 -0.0030
26673SOL    HW185149   8.658   4.684   3.840 -0.0918 -0.2707  1.4216
26673SOL    HW285150   8.537   4.599   3.809  0.8656 -0.3492 -2.4059
26674SOL     OW85151   7.586   1.504   2.005 -0.1460  0.2507 -0.5749
26674SOL    HW185152   7.667   1.549   2.030 -0.7591  0.6842  0.6691
26674SOL    HW285153   7.558   1.548   1.925  0.0234  1.1378 -0.1495
26675SOL     OW85154   1.814   2.992   4.350  0.8241 -0.5392 -0.0485
26675SOL    HW185155   1.858   3.069   4.315  1.0241 -0.0559  1.2370
26675SOL    HW285156   1.730   3.025   4.382  0.6818 -0.9512  0.0086
26676SOL     OW85157   9.978  10.241   5.679  0.0201 -0.1035  0.3151
26676SOL    HW185158   9.890  10.277   5.683  0.1611  0.2160  0.5205
26676SOL    HW285159  10.016  10.280   5.600  1.1491  2.4150  2.0237
26677SOL     OW85160  11.084  11.173   8.733  0.0262  0.6025  0.6021
26677SOL    HW185161  11.146  11.244   8.752  0.6969  0.4026 -0.7354
26677SOL    HW285162  11.034  11.205   8.658  1.2896 -0.8631 -0.9207
26678SOL     OW85163   8.431   4.330   0.008  0.2333  0.6313 -0.3772
26678SOL    HW185164   8.407   4.246  -0.031  0.0679  0.4404  0.1353
26678SOL    HW285165   8.505   4.361  -0.045  2.0260 -1.0897  1.0519
26679SOL     OW85166   6.963   3.718   9.730  0.3315 -0.6424  0.2587
26679SOL    HW185167   7.014   3.720   9.811  1.6960  1.0749 -0.6022
26679SOL    HW285168   7.017   3.766   9.666 -1.7283  0.0202 -1.0460
26680SOL     OW85169   1.306   3.386   1.377  0.4311 -0.2226 -0.0591
26680SOL    HW185170   1.357   3.420   1.303  3.0975 -0.8395  1.4409
26680SOL    HW285171   1.353   3.306   1.403 -2.8877 -2.3691 -0.3775
26681SOL     OW85172   6.156   3.105  10.057 -0.0352  0.4024  0.4319
26681SOL    HW185173   6.147   3.118  10.152  0.2601 -1.4010  0.7350
26681SOL    HW285174   6.245   3.072  10.046 -0.4273 -0.3962 -0.3492
26682SOL     OW85175   3.073   1.447   3.703  0.2415 -0.1530 -0.1897
26682SOL    HW185176   3.155   1.483   3.738 -1.2785  2.1716  1.0937
26682SOL    HW285177   3.046   1.382   3.766 -0.0265  0.6422  0.5223
26683SOL     OW85178   3.178   0.678   2.573 -0.4114  0.3068  0.0699
26683SOL    HW185179   3.250   0.712   2.521  0.5339  1.1478  1.8749
26683SOL    HW285180   3.100   0.719   2.535  0.2363  0.7969 -0.7633
26684SOL     OW85181   9.039   3.643   8.704  0.3550 -0.3639  0.5223
26684SOL    HW185182   8.993   3.626   8.622 -0.4158 -3.1031  1.4675
26684SOL    HW285183   9.123   3.599   8.695  0.7224  0.2658  0.7943
26685SOL     OW85184   8.520   5.262   5.817 -0.2461  0.5787 -0.3065
26685SOL    HW185185   8.437   5.308   5.823  0.4470  1.8110  0.0828
26685SOL    HW285186   8.569   5.290   5.894  0.0980 -1.0328  0.0867
26686SOL     OW85187   4.930   5.414   8.156  0.0541 -0.9123  0.0412
26686SOL    HW185188   4.959   5.326   8.179  0.3705 -0.8515 -0.1180
26686SOL    HW285189   4.841   5.402   8.124  0.1118 -1.1823 -0.0235
26687SOL     OW85190   5.804   2.403   7.559 -0.6839 -0.3448 -0.4477
26687SOL    HW185191   5.788   2.389   7.466  0.3548  2.0484 -1.0120
26687SOL    HW285192   5.888   2.448   7.563  0.0709 -1.8421  1.7552
26688SOL     OW85193   4.098   2.826   3.695  0.4496 -0.9082  0.4888
26688SOL    HW185194   4.094   2.874   3.613  1.3911  1.2338  1.6532
26688SOL    HW285195   4.034   2.756   3.685 -0.9653  0.5926 -1.2827
26689SOL     OW85196   5.649   5.686   9.501 -0.6337  0.2677 -0.0621
26689SOL    HW185197   5.687   5.598   9.512 -2.6055 -0.5309  0.5927
26689SOL    HW285198   5.722   5.745   9.520  0.3207 -1.2231  1.1510
26690SOL     OW85199   9.911   2.570   2.611  0.3066 -0.3998 -0.3334
26690SOL    HW185200   9.840   2.584   2.549 -0.1816 -1.0128  0.0791
26690SOL    HW285201   9.906   2.645   2.671  2.0923  1.2989 -2.2539
26691SOL     OW85202  11.315   4.535   6.559 -0.2913 -0.2173  0.0980
26691SOL    HW185203  11.317   4.588   6.479 -1.1098 -1.8048 -1.0225
26691SOL    HW285204  11.381   4.467   6.544 -0.8681 -0.8774  0.5004
26692SOL     OW85205  10.186   1.414   6.156  0.3674  0.0824 -0.5421
26692SOL    HW185206  10.218   1.379   6.240  0.9125 -1.6846 -1.4626
26692SOL    HW285207  10.237   1.494   6.144  0.1951  0.4271  0.8782
26693SOL     OW85208   0.168   4.971   3.812  0.0864  0.2264 -0.0983
26693SOL    HW185209   0.076   4.993   3.826 -0.4354 -2.8327  2.0060
26693SOL    HW285210   0.183   4.985   3.719 -1.6728  3.5214  0.0528
26694SOL     OW85211   2.071   3.333   8.556 -0.8117  0.0779  0.2158
26694SOL    HW185212   2.068   3.336   8.460 -0.6151  0.9078  0.2378
26694SOL    HW285213   2.007   3.398   8.585 -0.0414  0.6550  0.6426
26695SOL     OW85214   3.344   7.755   7.150  0.5927 -0.0768 -0.2592
26695SOL    HW185215   3.268   7.702   7.173  0.9122  0.2620  1.6305
26695SOL    HW285216   3.343   7.828   7.212  1.3637  0.9831 -1.4721
26696SOL     OW85217   7.086   2.897   5.247  0.6574 -0.2098 -0.2538
26696SOL    HW185218   7.080   2.871   5.155 -1.2458  0.2117 -0.2694
26696SOL    HW285219   7.038   2.829   5.294  0.3417  0.3815  0.2795
26697SOL     OW85220   7.450   3.119   9.783 -0.0555 -0.2606 -0.2238
26697SOL    HW185221   7.462   3.118   9.878 -1.9194 -0.7833  0.0247
26697SOL    HW285222   7.355   3.115   9.771  0.1722 -0.2155 -2.1096
26698SOL     OW85223  10.127   0.057   3.137  0.1378  0.0900 -0.5029
26698SOL    HW185224  10.121   0.070   3.043  1.7492  1.5702 -0.4418
26698SOL    HW285225  10.124  -0.038   3.149 -0.9146 -0.0693 -1.9614
26699SOL     OW85226   0.240   2.949   6.798 -0.5423  0.5137  0.2240
26699SOL    HW185227   0.238   3.034   6.842  0.4031  0.1478  0.9816
26699SOL    HW285228   0.154   2.912   6.816 -1.0010  1.3380 -0.1942
26700SOL     OW85229   9.960   7.888   4.384 -0.7433  0.3656 -0.1949
26700SOL    HW185230   9.970   7.828   4.458 -2.2862  0.9907  0.5326
26700SOL    HW285231  10.021   7.855   4.318 -0.7822 -1.3540  0.6102
26701SOL     OW85232   9.044   6.009   7.362 -0.0608  0.4020  0.0678
26701SOL    HW185233   9.008   6.039   7.278 -0.0790  2.2590  0.7275
26701SOL    HW285234   9.119   5.955   7.338 -0.6106  0.1691 -1.1683
26702SOL     OW85235  10.681   9.211  10.483  0.2755  0.0124 -0.5180
26702SOL    HW185236  10.607   9.264  10.452  0.8159  0.8218 -0.4335
26702SOL    HW285237  10.642   9.127  10.507 -0.3266 -0.2487 -2.3432
26703SOL     OW85238  10.766  11.180   9.112  0.2099  0.2997 -1.0448
26703SOL    HW185239  10.811  11.106   9.073  1.4090 -0.6174  1.9206
26703SOL    HW285240  10.836  11.237   9.144 -0.6462 -0.1930  1.8887
26704SOL     OW85241   3.928   3.828   1.052 -0.0681 -0.4134  0.0612
26704SOL    HW185242   3.984   3.819   0.975 -0.9987  1.0024 -0.7937
26704SOL    HW285243   3.966   3.900   1.101 -1.3436  0.8307 -0.7307
26705SOL     OW85244   7.800   5.422   5.861 -0.2761  0.2731 -0.2721
26705SOL    HW185245   7.804   5.462   5.775 -1.3769 -0.0441 -0.4811
26705SOL    HW285246   7.882   5.446   5.903 -0.0552  1.0409 -1.1379
26706SOL     OW85247   7.508   9.851   3.977  0.2291  0.0212  0.4496
26706SOL    HW185248   7.427   9.900   3.983  0.7404  0.9738 -0.3623
26706SOL    HW285249   7.511   9.819   3.887 -0.1469 -1.5968  0.9924
26707SOL     OW85250   7.016   3.562   6.583 -0.4332  0.9729 -0.2023
26707SOL    HW185251   7.103   3.534   6.608 -0.3497 -0.0278 -1.5289
26707SOL    HW285252   6.960   3.537   6.656  0.5122  2.4531  1.0550
26708SOL     OW85253   0.211   9.656  10.402 -0.0675  0.4261  0.4122
26708SOL    HW185254   0.293   9.704  10.397  0.3152 -0.2043  0.5827
26708SOL    HW285255   0.215   9.610  10.485  0.4348 -1.4233 -0.5995
26709SOL     OW85256   8.842  10.688   1.745 -1.2248  0.4533 -0.3157
26709SOL    HW185257   8.889  10.670   1.663 -0.9181  0.5995 -0.1721
26709SOL    HW285258   8.906  10.733   1.800 -0.7726 -1.5008  0.8129
26710SOL     OW85259   2.309   6.947   4.866 -0.4743 -0.1354 -0.1513
26710SOL    HW185260   2.233   6.904   4.826 -0.5212 -0.5197  0.3545
26710SOL    HW285261   2.332   6.891   4.940  0.8303 -0.4671 -0.8092
26711SOL     OW85262   8.806   9.516  10.857  0.3557  1.1127 -0.2651
26711SOL    HW185263   8.714   9.495  10.872  0.2946  1.1024 -0.6508
26711SOL    HW285264   8.831   9.462  10.782  1.5661 -1.2920  1.8160
26712SOL     OW85265   0.487   8.518   3.234 -0.1403  0.4582  0.3906
26712SOL    HW185266   0.393   8.536   3.223  0.3239  1.7316 -1.9387
26712SOL    HW285267   0.530   8.598   3.202  1.7525 -0.4962  0.4979
26713SOL     OW85268   6.355   5.393   5.401 -0.4219  0.5362 -0.6708
26713SOL    HW185269   6.285   5.327   5.400  0.7852 -0.8738  1.8068
26713SOL    HW285270   6.428   5.350   5.355  0.0851  0.4736  0.1923
26714SOL     OW85271   0.107   8.743   8.586  0.6518  0.4541 -0.0381
26714SOL    HW185272   0.032   8.689   8.559  0.2906  1.7203 -1.6146
26714SOL    HW285273   0.155   8.687   8.647 -1.3510 -0.5347  0.6991
26715SOL     OW85274   3.316   3.793   4.271  0.0539 -0.3526 -0.0655
26715SOL    HW185275   3.410   3.807   4.265  0.2415 -1.1642  0.8781
26715SOL    HW285276   3.304   3.741   4.350 -1.3931  1.5701  1.0428
26716SOL     OW85277   3.841   4.793   0.786 -0.1775 -0.0811  0.2180
26716SOL    HW185278   3.751   4.786   0.817 -0.6279  1.4599 -0.6647
26716SOL    HW285279   3.872   4.875   0.823  1.7696 -1.8673  2.6914
26717SOL     OW85280  10.736   9.600  10.691 -0.4558 -0.1652  0.2701
26717SOL    HW185281  10.800   9.670  10.708 -2.1460  1.6683 -0.7574
26717SOL    HW285282  10.788   9.530  10.652  1.0897  0.9270  0.2937
26718SOL     OW85283   8.723   8.812  10.651  0.3002  0.4750 -0.3395
26718SOL    HW185284   8.690   8.733  10.608  1.4026 -0.6042  0.7676
26718SOL    HW285285   8.804   8.833  10.604 -0.4750  1.5239 -1.2523
26719SOL     OW85286   2.820   7.650   1.987 -0.6737 -0.4235 -0.0389
26719SOL    HW185287   2.871   7.720   2.026 -0.8612 -0.0681 -0.4335
26719SOL    HW285288   2.842   7.572   2.039  1.5275 -0.6196 -1.2287
26720SOL     OW85289  10.632   2.148   2.365 -0.2947  0.2499 -0.4235
26720SOL    HW185290  10.625   2.071   2.308 -0.5914  0.0187 -0.0818
26720SOL    HW285291  10.550   2.195   2.351 -0.0855  0.5415 -0.6815
26721SOL     OW85292   1.267   4.147   4.132  0.4840 -0.2948  0.0469
26721SOL    HW185293   1.306   4.223   4.089  0.3651  0.5468  1.3948
26721SOL    HW285294   1.341   4.091   4.154  0.5823 -0.5174 -0.8465
26722SOL     OW85295   5.885   1.921   0.586 -0.4229  0.1483  0.2767
26722SOL    HW185296   5.909   1.941   0.676  1.2576 -1.7515  0.2811
26722SOL    HW285297   5.937   1.982   0.533  0.3631 -0.3125  0.5122
26723SOL     OW85298   4.135   1.125   4.994 -0.1471  0.0154  0.0051
26723SOL    HW185299   4.196   1.197   4.979 -0.4993  0.3899  0.3684
26723SOL    HW285300   4.090   1.113   4.910  0.4490 -0.2905 -0.2773
26724SOL     OW85301   8.057   6.258   6.406  0.0925 -0.3488  0.3467
26724SOL    HW185302   8.097   6.296   6.484 -0.9082  1.5452 -0.0441
26724SOL    HW285303   7.974   6.221   6.436  0.1488 -0.4687  0.3561
26725SOL     OW85304   1.546   6.950   0.227  0.3443  0.0818  0.1714
26725SOL    HW185305   1.632   6.918   0.254  0.8564  1.6103  0.4292
26725SOL    HW285306   1.545   6.939   0.132  0.3340 -1.0732  0.2966
26726SOL     OW85307   8.045   5.917   5.580  0.4011 -0.4365  0.7340
26726SOL    HW185308   7.964   5.962   5.606 -0.3685 -0.7519 -1.0199
26726SOL    HW285309   8.097   5.912   5.660 -0.1634  2.2088  1.3099
26727SOL     OW85310   5.843   1.751   6.352 -0.2411 -0.3906  0.1282
26727SOL    HW185311   5.870   1.821   6.292  0.2999 -2.7597 -2.4670
26727SOL    HW285312   5.913   1.747   6.417  0.1300  0.9163 -0.1711
26728SOL     OW85313   9.633  10.630  10.248 -0.1142  0.3891 -0.0368
26728SOL    HW185314   9.548  10.674  10.244 -0.7497 -0.7680  0.4443
26728SOL    HW285315   9.620  10.560  10.311  0.9083 -0.4307 -0.7238
26729SOL     OW85316   7.257  10.919   0.080 -0.3663  0.3090  0.3113
26729SOL    HW185317   7.238  10.873   0.162 -0.7579  0.8288  0.5190
26729SOL    HW285318   7.200  10.996   0.082 -0.2859  0.3903 -0.3951
26730SOL     OW85319   0.799   4.021   1.702  0.1297  0.0914 -0.9190
26730SOL    HW185320   0.758   3.946   1.658 -0.0099 -0.2539 -0.2156
26730SOL    HW285321   0.729   4.086   1.708 -0.5733 -0.8056  1.0044
26731SOL     OW85322   2.360   2.553   6.884  0.1595 -0.0222  0.2993
26731SOL    HW185323   2.403   2.479   6.841 -0.2301  0.2263 -0.5226
26731SOL    HW285324   2.373   2.626   6.824  0.9472  0.6996  1.3209
26732SOL     OW85325   3.993  10.191   8.093  0.4145  0.3428 -0.2697
26732SOL    HW185326   3.906  10.158   8.070  0.9708 -0.4764 -1.2720
26732SOL    HW285327   3.978  10.252   8.165 -0.6592 -1.9715  1.5242
26733SOL     OW85328  10.255  10.225   9.012  0.2491  0.0481  0.0791
26733SOL    HW185329  10.338  10.217   8.965  0.6118 -0.0069  0.7250
26733SOL    HW285330  10.236  10.319   9.010 -0.9683 -0.2200 -2.2751
26734SOL     OW85331   9.987   8.801   9.252 -0.1255  0.4240 -0.7543
26734SOL    HW185332   9.904   8.846   9.239 -0.1731  0.4900 -0.2638
26734SOL    HW285333  10.052   8.856   9.208 -0.3659  0.2642 -1.3139
26735SOL     OW85334   3.715   6.843   9.785 -0.0277 -0.0164  0.6392
26735SOL    HW185335   3.789   6.884   9.741 -0.9483  0.1030 -0.8565
26735SOL    HW285336   3.723   6.750   9.764  1.3501 -0.4519  2.9679
26736SOL     OW85337   3.275   9.840   3.354  0.0493 -0.1217 -0.3048
26736SOL    HW185338   3.248   9.760   3.308 -1.0984 -0.4698  0.9365
26736SOL    HW285339   3.344   9.876   3.299 -1.0993 -0.6472 -2.1886
26737SOL     OW85340  11.330   2.457   7.062  0.0164  0.2642 -0.3080
26737SOL    HW185341  11.253   2.447   7.006  0.3334  0.7832 -0.8413
26737SOL    HW285342  11.341   2.552   7.069 -1.6978  0.3068  2.9145
26738SOL     OW85343   3.398   0.831   2.726 -0.5662  0.5777 -0.1829
26738SOL    HW185344   3.482   0.787   2.744 -0.1763  1.2752 -0.3000
26738SOL    HW285345   3.389   0.825   2.631 -1.8680 -1.7115  0.0397
26739SOL     OW85346   9.626   6.287   5.199 -0.5657  0.0811  0.0906
26739SOL    HW185347   9.699   6.345   5.220 -0.7785  0.4771 -0.2456
26739SOL    HW285348   9.561   6.344   5.158  0.0741 -0.7613 -2.1687
26740SOL     OW85349   1.089   8.520   0.346  0.4622 -0.4182  0.2395
26740SOL    HW185350   1.036   8.599   0.353  0.7048 -0.3371  1.2523
26740SOL    HW285351   1.173   8.545   0.385  1.5680 -0.2684 -2.1382
26741SOL     OW85352   8.883   5.349   1.021 -0.6481 -0.2677  0.2149
26741SOL    HW185353   8.978   5.338   1.021 -0.6758 -0.5118  0.8055
26741SOL    HW285354   8.860   5.353   0.928  0.1012  1.2425  0.0772
26742SOL     OW85355   3.614   1.159   9.432  0.0206  0.5579  0.6810
26742SOL    HW185356   3.667   1.127   9.505 -0.5749  1.3311  1.4604
26742SOL    HW285357   3.527   1.122   9.447  0.0634  0.1678 -0.0055
26743SOL     OW85358   6.063   3.096   4.798  0.8957 -0.2437  0.4839
26743SOL    HW185359   6.151   3.119   4.769  0.8674 -0.9379 -0.1844
26743SOL    HW285360   6.006   3.127   4.727  0.8487 -2.2433 -0.3920
26744SOL     OW85361   9.354   7.863   2.422  0.5959 -1.0647  0.1407
26744SOL    HW185362   9.413   7.824   2.357  0.6806  0.0428 -0.4606
26744SOL    HW285363   9.269   7.822   2.405  0.1421  0.6233 -1.9947
26745SOL     OW85364   2.310   7.126   6.927  0.1349 -0.1741  0.5305
26745SOL    HW185365   2.274   7.207   6.963  1.2310  0.6318 -0.1399
26745SOL    HW285366   2.390   7.110   6.977  1.6985  0.9936 -1.5203
26746SOL     OW85367   8.380   1.839   4.595  0.1569 -0.0973 -0.6037
26746SOL    HW185368   8.460   1.855   4.644 -0.3083 -0.3544  0.2521
26746SOL    HW285369   8.359   1.923   4.554  0.9200 -0.0597 -0.9135
26747SOL     OW85370   9.382   1.981  11.193  0.1292  0.1389  0.4478
26747SOL    HW185371   9.371   1.974  11.287  1.7362  0.5164  0.6661
26747SOL    HW285372   9.468   1.944  11.175  0.4782  1.4322 -0.6749
26748SOL     OW85373   8.346   7.659   0.435 -0.2092 -0.0931 -0.2017
26748SOL    HW185374   8.410   7.665   0.505  0.0580 -1.4249 -0.3268
26748SOL    HW285375   8.268   7.704   0.469 -0.0802 -0.7270  0.9245
26749SOL     OW85376   1.841   0.910   0.978  0.2931 -0.9045 -0.1061
26749SOL    HW185377   1.811   0.970   1.046  1.3214 -0.1542 -0.3120
26749SOL    HW285378   1.804   0.825   1.003 -1.2219 -0.1727  0.1386
26750SOL     OW85379   7.743   4.283   5.767 -0.1364 -0.2363  0.2549
26750SOL    HW185380   7.828   4.265   5.807  0.0253  0.1059  0.0667
26750SOL    HW285381   7.699   4.342   5.829 -0.5756 -1.0896  0.7601
26751SOL     OW85382   5.069   0.581   8.204  0.3973 -0.4376 -0.3021
26751SOL    HW185383   5.106   0.640   8.139 -1.1122 -0.7153 -1.4300
26751SOL    HW285384   4.981   0.614   8.220  0.6679 -0.5173  1.4285
26752SOL     OW85385   0.004   7.799  10.452  0.0112 -0.6186 -0.5637
26752SOL    HW185386   0.044   7.720  10.490 -0.2075 -0.1970  0.5584
26752SOL    HW285387  -0.089   7.777  10.444  0.1712 -0.9758 -1.5748
26753SOL     OW85388   2.299   5.129   2.140  0.7308  0.5187  0.5024
26753SOL    HW185389   2.302   5.119   2.045  0.2168  1.7663  0.3438
26753SOL    HW285390   2.252   5.052   2.171  2.4673 -0.8148 -0.0818
26754SOL     OW85391  10.408  10.748   0.425  0.3481  0.4897  0.1406
26754SOL    HW185392  10.338  10.718   0.367  1.3564  0.9865 -1.3451
26754SOL    HW285393  10.389  10.705   0.508 -0.1165 -1.6572 -1.0350
26755SOL     OW85394   7.407  10.936   7.037  0.2707  0.3299  0.1544
26755SOL    HW185395   7.442  10.938   7.126 -0.2770 -1.4132  0.4373
26755SOL    HW285396   7.316  10.966   7.047  0.4385  0.8733  0.0601
26756SOL     OW85397   2.791   2.399   5.283 -0.3636  0.2106 -0.5938
26756SOL    HW185398   2.829   2.340   5.349  0.2631 -0.0689 -1.2008
26756SOL    HW285399   2.767   2.341   5.211 -0.2072  0.6412 -0.9902
26757SOL     OW85400   9.575   1.201  10.922 -0.2212  0.0359  0.7599
26757SOL    HW185401   9.610   1.197  11.011  3.2378  0.1244 -0.5424
26757SOL    HW285402   9.532   1.286  10.917  2.4024  1.4356  1.3836
26758SOL     OW85403  11.131   4.013   9.288  0.4437 -0.0843 -0.2556
26758SOL    HW185404  11.135   4.108   9.298 -1.2769 -0.0220 -0.0774
26758SOL    HW285405  11.199   3.980   9.346 -0.6061  0.9345  1.6064
26759SOL     OW85406   1.095   0.989   7.325  0.2076  0.3091 -0.6193
26759SOL    HW185407   1.177   0.956   7.361  1.0288  2.3827 -0.5264
26759SOL    HW285408   1.109   0.990   7.231 -0.7006 -1.8511 -0.8075
26760SOL     OW85409   3.692   3.362   9.270  0.1663  0.2721 -0.0244
26760SOL    HW185410   3.785   3.343   9.275  0.0962  0.3113  1.7039
26760SOL    HW285411   3.652   3.310   9.340 -1.3763 -1.1922 -1.9249
26761SOL     OW85412   8.806  11.205   9.869 -0.3583  0.3814 -0.3513
26761SOL    HW185413   8.766  11.120   9.887  0.4960  0.3347  1.4875
26761SOL    HW285414   8.732  11.262   9.847 -0.9720 -0.7343 -1.1757
26762SOL     OW85415   7.322  11.054   9.764 -0.8643  0.7531  0.5785
26762SOL    HW185416   7.334  10.961   9.744  0.8444  1.0732 -0.0168
26762SOL    HW285417   7.278  11.055   9.849 -0.0571 -0.5933  1.0335
26763SOL     OW85418   0.522   5.414  10.590  0.0233 -0.3416 -0.1715
26763SOL    HW185419   0.496   5.506  10.595 -0.7080 -0.6466  1.8992
26763SOL    HW285420   0.618   5.416  10.586 -0.0560  0.5635 -2.2598
26764SOL     OW85421   1.158   3.453   6.670  0.4335 -0.0571  0.4099
26764SOL    HW185422   1.130   3.448   6.579  0.2576  0.6819  0.4244
26764SOL    HW285423   1.144   3.364   6.704  1.4462 -0.5890 -0.5491
26765SOL     OW85424  10.545   2.312   4.866  0.4349 -0.1682  0.4883
26765SOL    HW185425  10.615   2.352   4.815  0.1115  0.4728  0.5472
26765SOL    HW285426  10.505   2.385   4.914 -1.5069 -0.2137 -1.0051
26766SOL     OW85427   6.205   2.356   1.176  0.2290  0.7421 -0.0442
26766SOL    HW185428   6.166   2.334   1.092 -1.0753  0.4950  0.6121
26766SOL    HW285429   6.154   2.430   1.208 -0.8480 -0.6865  1.6243
26767SOL     OW85430   5.459   1.539   9.088  0.0269 -0.1100  0.1379
26767SOL    HW185431   5.448   1.445   9.076 -1.8218 -0.0107  0.7998
26767SOL    HW285432   5.488   1.548   9.179  1.0122 -0.0801 -0.1750
26768SOL     OW85433  10.075  10.891   0.745  0.0677  0.0399  0.2631
26768SOL    HW185434  10.113  10.943   0.673 -0.3300  2.5336  1.7780
26768SOL    HW285435  10.108  10.933   0.824 -2.6896 -0.1522  1.5675
26769SOL     OW85436   2.062   0.663   9.235 -0.4789 -0.0272 -0.3434
26769SOL    HW185437   2.003   0.635   9.304 -1.1794  1.1910 -0.4253
26769SOL    HW285438   2.043   0.606   9.161  1.1103 -2.1388  0.8147
26770SOL     OW85439   5.347   4.540   5.762 -0.2322  0.0444 -0.1838
26770SOL    HW185440   5.422   4.492   5.798 -0.2205  0.7512  0.7624
26770SOL    HW285441   5.295   4.473   5.716  0.8624 -0.4830 -0.6603
26771SOL     OW85442   0.947   5.771   5.702  0.8749  0.0688  0.3453
26771SOL    HW185443   0.895   5.692   5.687 -1.3360  1.3185  1.0611
26771SOL    HW285444   1.008   5.774   5.629 -1.9041 -0.0844 -2.1036
26772SOL     OW85445   5.141  10.337   4.932 -0.0208 -0.7071 -0.1647
26772SOL    HW185446   5.226  10.296   4.946  0.2980 -0.4140 -1.1732
26772SOL    HW285447   5.137  10.408   4.996 -0.0152 -1.4738  0.6885
26773SOL     OW85448   4.605   1.831   1.215 -0.1306  0.3514  0.3582
26773SOL    HW185449   4.657   1.751   1.214  0.3121  0.6236  1.0016
26773SOL    HW285450   4.630   1.874   1.297  0.2649  1.5526 -0.3908
26774SOL     OW85451   6.411   1.491   3.595  0.3172 -0.7512 -0.0942
26774SOL    HW185452   6.444   1.447   3.516 -0.8556 -1.2106 -0.3271
26774SOL    HW285453   6.431   1.584   3.579  0.9122 -0.9442 -0.5215
26775SOL     OW85454   0.635   7.893   4.574  0.7194  0.5887  0.3666
26775SOL    HW185455   0.633   7.887   4.669  1.6291 -0.6301  0.3182
26775SOL    HW285456   0.600   7.809   4.544  0.8565  0.7891 -0.3647
26776SOL     OW85457   0.775   0.007   4.390 -0.2706  0.2670 -0.2050
26776SOL    HW185458   0.748   0.037   4.303 -1.8703 -1.4438 -0.3382
26776SOL    HW285459   0.859  -0.036   4.375  0.1409  1.2061 -0.6607
26777SOL     OW85460   7.166   1.137   1.524  0.7934  0.1629 -0.1296
26777SOL    HW185461   7.074   1.116   1.539  0.8459  0.1741  0.2313
26777SOL    HW285462   7.174   1.144   1.429  0.8250 -1.6676 -0.2802
26778SOL     OW85463   9.427   5.481   9.439  0.1475 -0.2012 -0.1659
26778SOL    HW185464   9.459   5.479   9.349 -0.3889 -1.4973 -0.3354
26778SOL    HW285465   9.438   5.572   9.466  0.8381  0.0767 -1.3490
26779SOL     OW85466   9.571   8.275   8.844  0.3461 -0.5426  0.4349
26779SOL    HW185467   9.548   8.241   8.931  1.8015 -0.2090  0.9516
26779SOL    HW285468   9.546   8.367   8.847  0.6038 -0.4783  0.5734
26780SOL     OW85469   8.052   2.375   9.895  0.6667  0.2138  0.3006
26780SOL    HW185470   7.958   2.387   9.881  0.7695  3.2250  1.7777
26780SOL    HW285471   8.081   2.323   9.820 -2.2450 -1.2196  0.0976
26781SOL     OW85472   9.949   2.168   3.943 -0.5471 -0.2608  0.1270
26781SOL    HW185473  10.002   2.141   4.018 -0.3537 -0.2032  0.0121
26781SOL    HW285474   9.996   2.243   3.907 -0.7919 -0.1072  0.1225
26782SOL     OW85475   7.671   6.552   2.842 -0.7837 -0.2511  0.0745
26782SOL    HW185476   7.717   6.558   2.759 -0.6624  0.6008  0.2033
26782SOL    HW285477   7.699   6.468   2.879 -1.3514 -0.9314 -1.0429
26783SOL     OW85478   0.444   2.579   6.005 -0.3617 -0.2757 -0.5162
26783SOL    HW185479   0.398   2.560   6.087  0.8670  0.5106  0.3746
26783SOL    HW285480   0.401   2.658   5.971 -0.3913 -0.1828 -0.2618
26784SOL     OW85481  10.734   8.601   2.148 -0.7301 -0.2330  0.2065
26784SOL    HW185482  10.750   8.539   2.218 -0.8873  1.0114  1.3607
26784SOL    HW285483  10.764   8.556   2.069 -0.0974 -1.4554  1.1214
26785SOL     OW85484   8.035   8.574   7.215  0.1531  0.0847 -0.2925
26785SOL    HW185485   7.943   8.556   7.198 -0.0086  0.1900  0.4580
26785SOL    HW285486   8.036   8.617   7.300  0.7976  1.1021 -0.8018
26786SOL     OW85487   3.384  10.526   5.569  0.3069  0.2259 -0.1647
26786SOL    HW185488   3.315  10.472   5.529  0.4969  1.0042 -1.5641
26786SOL    HW285489   3.372  10.513   5.663 -0.5670 -1.1174 -0.4388
26787SOL     OW85490   3.940   7.838   2.279  0.4517 -0.1733  0.1144
26787SOL    HW185491   4.010   7.808   2.221 -0.2061  0.6841 -1.1481
26787SOL    HW285492   3.986   7.878   2.353  1.3015 -0.0471 -0.4749
26788SOL     OW85493   7.131   7.043   5.880 -0.0668  0.3682 -0.0196
26788SOL    HW185494   7.114   7.100   5.955 -1.3153 -1.4648  1.1155
26788SOL    HW285495   7.226   7.032   5.879 -0.2016 -1.8308  3.0398
26789SOL     OW85496   3.347   4.405   7.254  0.0115 -0.0839 -0.6559
26789SOL    HW185497   3.413   4.407   7.185  0.6639 -1.5402 -0.1047
26789SOL    HW285498   3.339   4.496   7.283  1.4470  0.1858 -1.0523
26790SOL     OW85499   9.590  11.099   5.574  0.3257  0.2993 -0.2078
26790SOL    HW185500   9.534  11.094   5.651  1.2265 -1.3652  0.3466
26790SOL    HW285501   9.676  11.120   5.608  0.6495 -0.0495 -0.8075
26791SOL     OW85502  11.197   5.872   3.937  0.2385  0.0893 -0.1085
26791SOL    HW185503  11.166   5.959   3.963  1.0777  0.4775 -0.3948
26791SOL    HW285504  11.131   5.842   3.873  0.6743  1.0990 -1.0616
26792SOL     OW85505   4.863   8.742   8.762  0.4153 -0.1623 -0.1535
26792SOL    HW185506   4.900   8.765   8.677 -0.5647 -1.8794 -1.0596
26792SOL    HW285507   4.902   8.657   8.783 -0.9259 -0.7192  0.1337
26793SOL     OW85508   1.541   9.743   1.455  0.2049 -0.3832  0.0128
26793SOL    HW185509   1.521   9.672   1.516 -1.7448 -1.0754 -1.3950
26793SOL    HW285510   1.470   9.741   1.391  1.3863  1.3262 -1.4055
26794SOL     OW85511   9.261   8.297   8.308  0.2825 -0.3060 -0.3069
26794SOL    HW185512   9.227   8.224   8.256  1.7934  0.2290 -2.1018
26794SOL    HW285513   9.203   8.370   8.288 -0.5413 -0.6990  0.6001
26795SOL     OW85514   9.823   5.779   4.705 -0.2132 -0.2535 -0.2599
26795SOL    HW185515   9.807   5.685   4.707 -2.5975  0.1109  0.8716
26795SOL    HW285516   9.830   5.801   4.612 -3.4289 -1.0204 -0.7473
26796SOL     OW85517   4.066   4.389  10.055  0.0168  0.6214  0.2511
26796SOL    HW185518   4.038   4.361   9.968 -2.7600  0.0905  1.2725
26796SOL    HW285519   4.063   4.485  10.051 -0.1672  0.5993 -0.2048
26797SOL     OW85520   5.117   8.890   9.758 -0.5422 -0.0157 -0.4603
26797SOL    HW185521   5.083   8.814   9.807 -0.1140  0.6267  0.8473
26797SOL    HW285522   5.108   8.864   9.666 -3.0356 -0.5254 -0.1130
26798SOL     OW85523   8.816   2.173   3.015  0.3560 -0.9131  0.4754
26798SOL    HW185524   8.804   2.267   3.008  0.3452 -0.7242  2.7068
26798SOL    HW285525   8.778   2.138   2.935  2.7997  1.1505 -1.7002
26799SOL     OW85526   6.138   7.970   9.705  0.0386 -0.0580  0.2990
26799SOL    HW185527   6.099   7.887   9.734  1.1250 -0.4917  0.5483
26799SOL    HW285528   6.150   8.020   9.786  1.6497 -0.6496  0.4395
26800SOL     OW85529   5.260   5.882   3.826  0.3518 -0.1597 -0.4752
26800SOL    HW185530   5.347   5.843   3.822 -0.2914 -1.6192 -0.7351
26800SOL    HW285531   5.221   5.844   3.905  0.4710  1.6371  0.4766
26801SOL     OW85532   6.336   1.138   9.899  1.0142  0.2016 -0.2486
26801SOL    HW185533   6.411   1.107   9.848 -1.0526 -1.0873 -2.6056
26801SOL    HW285534   6.260   1.099   9.856 -1.0527  1.7357  1.8969
26802SOL     OW85535   2.552   2.842   5.693 -0.1217  0.2975 -0.3222
26802SOL    HW185536   2.637   2.885   5.680  0.9468 -1.1106  1.7970
26802SOL    HW285537   2.545   2.781   5.620  1.3679 -0.6179  0.2751
26803SOL     OW85538  10.225   6.616   6.405 -0.0904  0.5577  0.2636
26803SOL    HW185539  10.283   6.541   6.397 -0.6223  0.0859  0.7717
26803SOL    HW285540  10.164   6.592   6.475 -0.7966  1.1077 -0.1563
26804SOL     OW85541   8.530   8.333   7.979  0.0374  0.0742 -0.0200
26804SOL    HW185542   8.490   8.419   7.978  0.2621  0.2336  2.7097
26804SOL    HW285543   8.603   8.340   7.917 -1.4399  1.0721 -1.6770
26805SOL     OW85544   0.803   1.577   1.412 -0.1664 -0.8530 -0.1115
26805SOL    HW185545   0.709   1.562   1.410 -0.2785 -0.3925  1.0704
26805SOL    HW285546   0.838   1.508   1.468 -0.0266  0.0561  0.9282
26806SOL     OW85547   8.788   6.823   7.963 -0.6111 -0.1367 -0.3936
26806SOL    HW185548   8.734   6.775   7.899 -0.0190  0.9910 -1.7729
26806SOL    HW285549   8.811   6.904   7.918  0.7331  0.1898  0.8638
26807SOL     OW85550   0.135  10.136   2.884 -0.2481  0.7192  0.6283
26807SOL    HW185551   0.166  10.224   2.901  2.7306 -0.0243 -0.5671
26807SOL    HW285552   0.155  10.087   2.964 -0.8324  0.8505  0.8569
26808SOL     OW85553  10.413   8.314   7.380 -0.1721  0.1699 -0.1785
26808SOL    HW185554  10.392   8.285   7.469 -0.5835 -0.5127 -0.4942
26808SOL    HW285555  10.502   8.283   7.365 -0.2621 -0.0916 -0.1668
26809SOL     OW85556  10.055   3.177   4.152 -0.4861 -0.2299  0.6346
26809SOL    HW185557   9.963   3.153   4.153 -0.5905  0.1726  1.8587
26809SOL    HW285558  10.062   3.249   4.216  0.7611 -0.6242  0.9568
26810SOL     OW85559   2.460   8.567   0.031 -0.0973 -0.2306  0.3299
26810SOL    HW185560   2.450   8.573  -0.064  1.0840 -0.1280  0.2034
26810SOL    HW285561   2.371   8.553   0.064 -0.7366  1.3052 -0.6675
26811SOL     OW85562  11.198   4.964   4.979 -0.2174  0.1862 -0.2027
26811SOL    HW185563  11.150   5.008   4.909 -2.3585  0.0158  1.1171
26811SOL    HW285564  11.289   4.965   4.950 -0.7611  2.0995 -1.9395
26812SOL     OW85565   9.791   8.306   1.574  0.0593  0.0527 -0.0806
26812SOL    HW185566   9.830   8.223   1.548 -0.2703  0.1515 -0.8994
26812SOL    HW285567   9.826   8.370   1.512  1.7962  0.8824  1.6785
26813SOL     OW85568   1.807   8.012   5.710  0.0862 -0.7447 -0.5882
26813SOL    HW185569   1.829   7.921   5.689  0.8624 -0.7877  0.3509
26813SOL    HW285570   1.720   8.007   5.749 -0.0891 -1.0184 -1.0024
26814SOL     OW85571   4.413   4.843   3.212 -0.2691 -0.5516  0.0293
26814SOL    HW185572   4.417   4.752   3.241 -0.1946 -0.6879 -0.3997
26814SOL    HW285573   4.352   4.842   3.138  1.3751 -0.6329 -1.3413
26815SOL     OW85574   7.964   9.874   0.917  0.2929  0.4140 -0.0726
26815SOL    HW185575   7.906   9.876   0.841 -0.4384 -2.3438  0.3622
26815SOL    HW285576   8.022   9.950   0.905 -1.9478  1.9363 -1.6369
26816SOL     OW85577   7.226   6.627  10.464 -0.0085 -0.1295  0.2019
26816SOL    HW185578   7.249   6.677  10.542 -0.4909 -1.3782  1.1513
26816SOL    HW285579   7.262   6.679  10.391 -0.0818  1.3395  1.1949
26817SOL     OW85580   9.289   5.648   4.501  0.2247 -1.1889 -0.3343
26817SOL    HW185581   9.204   5.641   4.544 -0.3553  1.1642 -1.0666
26817SOL    HW285582   9.277   5.604   4.417 -0.6373  0.1611 -0.9359
26818SOL     OW85583   2.307   2.297   2.191 -0.0530  0.8001  0.0477
26818SOL    HW185584   2.215   2.304   2.217  0.2360  0.8864  1.0892
26818SOL    HW285585   2.310   2.225   2.129 -0.5236 -0.5239  1.5334
26819SOL     OW85586   7.576   9.457   9.045 -0.3003  0.0153  0.1269
26819SOL    HW185587   7.556   9.385   9.106  0.0136 -0.0631  0.1380
26819SOL    HW285588   7.498   9.464   8.990 -0.4924 -0.0687  0.3855
26820SOL     OW85589   8.727   0.127   1.786 -0.7879 -0.4568  0.4069
26820SOL    HW185590   8.679   0.059   1.833 -1.1180 -0.3592  0.2169
26820SOL    HW285591   8.690   0.125   1.697  1.0804 -1.8774 -0.3824
26821SOL     OW85592   1.624   1.139   7.606  0.3053  0.1180  0.3411
26821SOL    HW185593   1.678   1.175   7.535  1.5346  0.0268  1.2113
26821SOL    HW285594   1.677   1.151   7.685 -1.8053  1.9004  1.5495
26822SOL     OW85595   1.202   0.467   4.072  0.1629 -0.4906  0.1942
26822SOL    HW185596   1.234   0.407   4.140  0.6127 -1.1276 -0.5694
26822SOL    HW285597   1.175   0.409   4.000 -0.0191  0.1920 -0.2861
26823SOL     OW85598   0.750   9.254   2.100  0.1617  0.4278  0.0671
26823SOL    HW185599   0.845   9.266   2.095 -0.1133  2.0703 -1.7658
26823SOL    HW285600   0.737   9.190   2.170  2.6899 -0.7872 -0.5579
26824SOL     OW85601  10.365   1.757   6.320 -0.4849  0.2409 -0.0058
26824SOL    HW185602  10.352   1.706   6.239 -1.1663  1.7813 -0.8858
26824SOL    HW285603  10.279   1.758   6.362 -0.2224 -0.2276  0.5520
26825SOL     OW85604  10.423  10.708  10.824 -0.0083  0.3457 -0.3990
26825SOL    HW185605  10.475  10.786  10.844  0.2766  0.4435 -1.4579
26825SOL    HW285606  10.486  10.648  10.784 -0.4560 -0.0110 -0.5617
26826SOL     OW85607   5.407   3.505   1.262  0.1436 -0.0730  1.1843
26826SOL    HW185608   5.339   3.516   1.329 -0.1803  0.3530  0.7831
26826SOL    HW285609   5.361   3.516   1.179  0.6243 -0.2152  0.8960
26827SOL     OW85610   1.716   1.957   2.679  0.5541 -0.1480  0.0377
26827SOL    HW185611   1.657   1.921   2.613 -0.1375  2.3371 -0.7701
26827SOL    HW285612   1.658   1.980   2.753  0.9531 -0.5227  0.4694
26828SOL     OW85613   7.000  10.137   4.819  0.7543  0.6180  0.0716
26828SOL    HW185614   7.047  10.182   4.889 -1.0124 -0.4864  2.0141
26828SOL    HW285615   7.053  10.060   4.799  1.1157  0.7791  0.4099
26829SOL     OW85616   7.772   6.091   7.988  0.5691  0.1235 -0.4563
26829SOL    HW185617   7.764   6.109   8.082  0.6035  1.8693 -0.7768
26829SOL    HW285618   7.803   6.000   7.984 -1.2456 -0.6211  1.1844
26830SOL     OW85619  10.536   1.330   5.368 -0.3489 -0.0859  0.1676
26830SOL    HW185620  10.631   1.322   5.360 -0.7168 -3.8188 -1.6244
26830SOL    HW285621  10.515   1.281   5.448 -0.7971  0.2970  0.2842
26831SOL     OW85622   8.725   1.894   2.876  0.1341  0.2240 -0.0958
26831SOL    HW185623   8.689   1.805   2.881  1.0564 -0.1636 -0.3136
26831SOL    HW285624   8.810   1.883   2.834 -0.1726  1.3342 -1.0268
26832SOL     OW85625   9.365   5.155  10.631 -0.0647  0.2177 -0.0309
26832SOL    HW185626   9.305   5.115  10.568 -0.6331 -0.4419  0.9085
26832SOL    HW285627   9.388   5.239  10.592 -0.9300  0.1104 -0.8033
26833SOL     OW85628   5.918  10.333   0.882  0.3980 -0.4986  0.4888
26833SOL    HW185629   5.954  10.415   0.916  0.5736 -0.2291 -0.3383
26833SOL    HW285630   5.826  10.335   0.907  0.8600 -1.0313  2.3183
26834SOL     OW85631   4.604   9.938   4.496 -0.3981 -0.1959  0.3369
26834SOL    HW185632   4.699   9.944   4.489 -0.5206 -0.7155 -2.4894
26834SOL    HW285633   4.587   9.940   4.590  2.6097 -3.1602  1.0397
26835SOL     OW85634   1.540   8.378   5.572  0.0083  0.2086 -0.1756
26835SOL    HW185635   1.461   8.345   5.614  0.6911 -0.5063  0.5481
26835SOL    HW285636   1.511   8.458   5.528 -0.7712  0.7848  1.3597
26836SOL     OW85637   3.320   4.200   8.819  0.0697  0.6227 -0.1724
26836SOL    HW185638   3.354   4.178   8.906  2.3396  0.8247 -0.9807
26836SOL    HW285639   3.269   4.279   8.832  1.4025  1.3470  0.8002
26837SOL     OW85640   5.873   2.579   9.491 -0.9497  0.7247  0.7635
26837SOL    HW185641   5.849   2.560   9.582 -0.1128 -0.4051  0.7568
26837SOL    HW285642   5.794   2.561   9.441 -1.4717  1.5282  1.2730
26838SOL     OW85643   7.967   8.315   5.568  0.5874  0.1594  0.2182
26838SOL    HW185644   7.995   8.400   5.536 -1.3920  1.5021  1.9222
26838SOL    HW285645   7.962   8.325   5.663  1.6779 -2.2845  0.5755
26839SOL     OW85646  10.341   0.298   7.212 -0.3968  0.6530 -0.3665
26839SOL    HW185647  10.315   0.364   7.148  0.0225  0.8376 -0.3465
26839SOL    HW285648  10.368   0.348   7.289  1.8730  0.5499 -1.0594
26840SOL     OW85649   3.749   1.413  10.268 -0.4364  0.9220  0.5421
26840SOL    HW185650   3.772   1.505  10.279 -1.0904  1.0463  0.9213
26840SOL    HW285651   3.818   1.377  10.212 -0.8061  1.9135 -0.5858
26841SOL     OW85652   8.241   8.199   9.154 -0.2897 -0.0468 -0.8065
26841SOL    HW185653   8.231   8.180   9.060 -3.7996  0.0653 -0.5174
26841SOL    HW285654   8.175   8.265   9.172  0.1987 -0.2337  1.8220
26842SOL     OW85655   8.911  10.922   1.032  0.4147 -0.4623 -0.7477
26842SOL    HW185656   8.997  10.952   1.061  0.4405  0.0562 -1.3671
26842SOL    HW285657   8.849  10.980   1.075  0.4580  0.3808 -1.8028
26843SOL     OW85658   5.903   9.181  10.784 -0.4445 -0.3587 -0.5884
26843SOL    HW185659   5.941   9.249  10.839 -0.6981 -0.4345 -0.3191
26843SOL    HW285660   5.933   9.099  10.825 -2.1671 -0.4522  0.5453
26844SOL     OW85661   0.554   3.682   6.778 -0.0582  0.4378  0.2542
26844SOL    HW185662   0.638   3.681   6.823 -0.4777 -1.8580  1.0514
26844SOL    HW285663   0.500   3.742   6.829  0.3456  0.0471  1.1482
26845SOL     OW85664  10.220  10.257   7.758  0.0424 -0.0909  0.2096
26845SOL    HW185665  10.306  10.282   7.723  0.0940  0.2527  0.5795
26845SOL    HW285666  10.205  10.317   7.830 -1.2503  0.9287 -0.8806
26846SOL     OW85667  11.136   0.601   8.581 -0.1881  0.1061 -0.0384
26846SOL    HW185668  11.223   0.585   8.618 -0.3949  0.7021  0.7062
26846SOL    HW285669  11.110   0.516   8.544 -0.0924 -0.5659  1.4200
26847SOL     OW85670   7.709  10.487   6.628 -0.4812  0.4625  0.3391
26847SOL    HW185671   7.696  10.512   6.719 -0.6288 -1.4859  0.8614
26847SOL    HW285672   7.639  10.533   6.581 -1.0636  0.6139  1.3407
26848SOL     OW85673   6.685   6.745   1.405  0.5640  0.3639  0.3081
26848SOL    HW185674   6.615   6.692   1.444  1.6498  0.2389  2.1423
26848SOL    HW285675   6.670   6.834   1.438  0.8660  0.4731  0.1599
26849SOL     OW85676  10.667   8.118   0.258  0.3137 -0.8579 -0.2172
26849SOL    HW185677  10.715   8.036   0.261  0.2549 -0.9094 -0.7630
26849SOL    HW285678  10.734   8.186   0.265  0.3774 -0.9464  0.0398
26850SOL     OW85679   6.496   4.586  10.749  0.6208  0.3831  0.1662
26850SOL    HW185680   6.529   4.632  10.672  1.2300 -1.1399 -0.5044
26850SOL    HW285681   6.575   4.553  10.793  0.2426  0.7196  1.1093
26851SOL     OW85682  10.870   9.389   7.840 -0.2922  0.2321  0.2864
26851SOL    HW185683  10.954   9.368   7.799 -0.5366  1.8618 -1.0987
26851SOL    HW285684  10.892   9.448   7.912 -0.2935  1.3476 -0.6028
26852SOL     OW85685   8.824   9.031   5.534 -0.0326 -0.5690 -0.0607
26852SOL    HW185686   8.913   9.031   5.501 -0.4805 -2.0806 -1.2974
26852SOL    HW285687   8.769   9.020   5.456 -1.2117 -1.6758  0.9078
26853SOL     OW85688   8.946   3.033   4.840 -0.1471 -0.1245  0.2157
26853SOL    HW185689   9.023   2.981   4.865 -0.8133 -0.8074  0.8806
26853SOL    HW285690   8.982   3.118   4.814  0.9966 -1.0644 -1.3746
26854SOL     OW85691   8.966  10.663   2.344  0.0064 -0.0450  0.1124
26854SOL    HW185692   8.999  10.726   2.280  0.7699  0.4336  0.9553
26854SOL    HW285693   8.982  10.578   2.305  2.6490  0.1604  0.6783
26855SOL     OW85694   0.466  10.135   4.576 -0.3601 -0.2462  0.1160
26855SOL    HW185695   0.376  10.163   4.558 -0.4661 -0.2361  0.6535
26855SOL    HW285696   0.506  10.211   4.619 -0.0352 -0.1788 -0.3051
26856SOL     OW85697   1.675  11.131   3.963  0.0615  0.6094  0.2327
26856SOL    HW185698   1.632  11.058   3.918  1.3445  0.5745 -0.9806
26856SOL    HW285699   1.663  11.113   4.056 -2.7009  0.7102 -0.0647
26857SOL     OW85700  11.248   0.013   5.159  0.7378 -0.6297  0.0150
26857SOL    HW185701  11.206   0.062   5.089  0.0891 -0.0152  0.8255
26857SOL    HW285702  11.215  -0.077   5.149 -0.8567 -0.1302  0.7067
26858SOL     OW85703   1.117   6.177   0.235 -0.1205  0.3124  0.0441
26858SOL    HW185704   1.131   6.209   0.324 -0.3020  1.0466 -0.1841
26858SOL    HW285705   1.049   6.111   0.244 -0.5500  0.7958  0.3729
26859SOL     OW85706   0.766   2.795  10.684  0.3162 -0.1117  0.3795
26859SOL    HW185707   0.699   2.862  10.672  1.2854  0.5785 -1.5020
26859SOL    HW285708   0.718   2.714  10.701 -0.9252  0.7020  0.7437
26860SOL     OW85709   0.545   0.240   9.773  0.1926  0.2768  0.0231
26860SOL    HW185710   0.516   0.304   9.708  0.9578  0.0934 -0.5090
26860SOL    HW285711   0.540   0.286   9.856 -0.4112  0.6478 -0.2182
26861SOL     OW85712   8.040   8.017   0.302 -0.1059 -0.3243 -0.0369
26861SOL    HW185713   8.073   8.084   0.242 -0.9586  0.5583  0.4677
26861SOL    HW285714   7.945   8.021   0.294 -0.2235 -0.2973  1.2532
26862SOL     OW85715   4.416   2.793   3.888  0.0747  0.4197 -0.0309
26862SOL    HW185716   4.453   2.874   3.852  0.0514  1.0874  1.4092
26862SOL    HW285717   4.417   2.732   3.815 -0.1674  1.8030 -1.2208
26863SOL     OW85718   4.998   1.270   4.305 -0.1236 -0.6228 -0.3680
26863SOL    HW185719   4.915   1.240   4.342  0.4980  0.7337  2.2008
26863SOL    HW285720   5.054   1.192   4.308 -0.8383 -1.1736 -0.8331
26864SOL     OW85721  10.528   1.995   8.400 -0.4225  0.6519 -0.5453
26864SOL    HW185722  10.487   2.021   8.318 -1.3996  0.4938 -0.1135
26864SOL    HW285723  10.550   1.903   8.388 -3.2363 -0.1800  0.4182
26865SOL     OW85724   0.173   2.528   4.463  0.1029 -0.0077 -0.3388
26865SOL    HW185725   0.182   2.603   4.521  0.7800  0.0559 -0.5270
26865SOL    HW285726   0.161   2.566   4.376 -1.7024 -0.0884 -0.1507
26866SOL     OW85727   0.362   2.430   1.889  0.4209  0.2136 -0.2927
26866SOL    HW185728   0.317   2.425   1.804 -1.3023  0.4599  0.5895
26866SOL    HW285729   0.453   2.407   1.869  0.1643  0.8530 -2.3131
26867SOL     OW85730   6.193   4.394   2.487 -0.0601  0.2573  0.3028
26867SOL    HW185731   6.280   4.430   2.504  0.1551  1.3427 -2.8390
26867SOL    HW285732   6.134   4.448   2.539  0.9900  0.3392  1.4432
26868SOL     OW85733   8.060   5.076   7.651 -0.1002 -0.0047 -0.0156
26868SOL    HW185734   7.968   5.099   7.635 -0.2714 -0.6922 -0.0215
26868SOL    HW285735   8.098   5.156   7.688 -0.5831  0.4399 -0.4624
26869SOL     OW85736   3.469   7.211   5.631 -0.1230 -0.3617  0.0305
26869SOL    HW185737   3.431   7.288   5.590  0.0195 -1.0955 -1.4938
26869SOL    HW285738   3.441   7.217   5.723  0.1482  1.6546  0.0129
26870SOL     OW85739   5.335   8.783  10.986  0.4633  0.3012 -0.2584
26870SOL    HW185740   5.278   8.733  10.928 -0.1472  1.2593 -0.5127
26870SOL    HW285741   5.351   8.865  10.938 -0.8525  1.5237  1.3141
26871SOL     OW85742   3.216   9.184  10.532  0.7095  0.3634 -0.2016
26871SOL    HW185743   3.282   9.169  10.465  1.4770 -0.0403  0.6412
26871SOL    HW285744   3.184   9.097  10.554  0.8719  0.4489  0.3748
26872SOL     OW85745   0.741   8.016  11.120  0.8997 -0.3219 -0.1512
26872SOL    HW185746   0.763   8.023  11.028  1.8054 -0.5756  0.0332
26872SOL    HW285747   0.804   8.072  11.165  0.5227 -0.2645  0.3174
26873SOL     OW85748  10.458   6.711   0.212 -0.2215  0.0974  0.5002
26873SOL    HW185749  10.530   6.662   0.173  0.5457  0.5134  1.3846
26873SOL    HW285750  10.499   6.783   0.258 -1.4057  2.0349 -1.4067
26874SOL     OW85751   9.165  10.465   0.335  0.4902  0.1175  0.4494
26874SOL    HW185752   9.196  10.554   0.322  0.5726 -0.0940 -0.8718
26874SOL    HW285753   9.227  10.410   0.287  2.1215 -0.9349  3.5658
26875SOL     OW85754  11.190   1.636   5.197  0.3581  0.1063 -0.3851
26875SOL    HW185755  11.187   1.700   5.126  1.2858 -0.7085 -1.1725
26875SOL    HW285756  11.282   1.636   5.224 -0.1388  0.9817  1.3510
26876SOL     OW85757   9.270   8.003   2.754  0.2019  0.3268 -0.0177
26876SOL    HW185758   9.248   8.040   2.840 -0.7373 -1.0273  0.3267
26876SOL    HW285759   9.186   7.974   2.718  1.0907 -2.8623  0.3642
26877SOL     OW85760   8.311   9.672   5.299 -0.5916 -0.0201 -0.2018
26877SOL    HW185761   8.380   9.625   5.253  0.3426 -0.3448  1.4718
26877SOL    HW285762   8.233   9.617   5.289 -0.2881 -0.3129 -0.9843
26878SOL     OW85763   2.507   4.220   6.674 -0.9593  0.1686  0.7404
26878SOL    HW185764   2.587   4.196   6.721 -0.8242 -1.5458 -0.3277
26878SOL    HW285765   2.531   4.298   6.624  0.9235 -1.9089 -1.7659
26879SOL     OW85766  11.310   2.586   5.789  0.1313  0.0424 -0.0176
26879SOL    HW185767  11.226   2.560   5.827 -0.7751  0.5139 -1.6262
26879SOL    HW285768  11.289   2.607   5.698  2.1478 -0.5853 -0.6453
26880SOL     OW85769   6.478   4.671   0.762  0.1170 -0.3339 -0.2772
26880SOL    HW185770   6.425   4.731   0.710 -1.8773 -1.1262  0.7683
26880SOL    HW285771   6.415   4.607   0.795  1.8994 -1.8522  0.2324
26881SOL     OW85772   1.360   8.984   6.175  0.0273 -0.1716  0.4977
26881SOL    HW185773   1.272   8.945   6.179 -1.1705  2.2491 -0.7846
26881SOL    HW285774   1.344   9.073   6.144  3.1105 -0.2036 -1.2782
26882SOL     OW85775   3.832   9.595   4.438  0.2614  0.2965 -0.5909
26882SOL    HW185776   3.888   9.665   4.404 -0.0656  0.9928  0.2828
26882SOL    HW285777   3.754   9.640   4.472  0.1640 -0.4576  0.2245
26883SOL     OW85778   6.464   8.574   0.666 -0.3465 -0.3152 -0.1203
26883SOL    HW185779   6.520   8.519   0.722  0.0424 -2.5744 -2.6132
26883SOL    HW285780   6.526   8.628   0.617 -0.6464  0.9454  0.8456
26884SOL     OW85781   0.491   7.729   5.993  0.5187  0.1847  0.2168
26884SOL    HW185782   0.409   7.684   6.012  0.8385 -0.0895  0.9978
26884SOL    HW285783   0.478   7.768   5.907  0.7216 -2.5029 -1.0857
26885SOL     OW85784   4.472   3.020   4.157 -0.7140  0.3333  0.1613
26885SOL    HW185785   4.439   2.932   4.175 -1.4351  0.6853  0.6154
26885SOL    HW285786   4.472   3.027   4.062  0.6346 -0.6337  0.0818
26886SOL     OW85787   5.251  10.299   2.601 -0.0075  0.2106 -0.3475
26886SOL    HW185788   5.314  10.227   2.601 -0.5511 -0.2658  0.4266
26886SOL    HW285789   5.229  10.312   2.693 -2.7927 -1.1770 -0.7645
26887SOL     OW85790   3.739   7.900   9.624 -0.6791  0.5927  0.6178
26887SOL    HW185791   3.678   7.954   9.575 -1.0461  0.5711  1.0544
26887SOL    HW285792   3.722   7.920   9.716 -1.1466 -0.6223  0.8050
26888SOL     OW85793   4.751   4.878   8.058  0.1734  0.2759  0.4542
26888SOL    HW185794   4.679   4.939   8.042  0.0196 -0.1567 -0.5032
26888SOL    HW285795   4.715   4.792   8.039  0.7450 -0.0095  0.6461
26889SOL     OW85796   3.229   9.948   3.614 -0.1954  0.0643 -0.0124
26889SOL    HW185797   3.259   9.924   3.526 -0.7640  0.5599 -0.3451
26889SOL    HW285798   3.223   9.865   3.661 -0.5106 -0.2651 -0.6365
26890SOL     OW85799  10.282   7.050   0.262 -0.2716 -0.2205 -0.1850
26890SOL    HW185800  10.239   6.967   0.280  0.3311 -0.8386 -1.4973
26890SOL    HW285801  10.375   7.033   0.281 -0.3945  0.7064  1.3414
26891SOL     OW85802   8.006   7.838   5.963  0.1013 -0.5936  0.3238
26891SOL    HW185803   7.972   7.749   5.955  0.2130 -0.5944 -0.1434
26891SOL    HW285804   8.029   7.863   5.873  0.7093 -0.3492  0.5488
26892SOL     OW85805   6.384   8.252   1.693  0.2658  0.4868  0.3197
26892SOL    HW185806   6.316   8.315   1.668 -0.3001  0.3667  1.5124
26892SOL    HW285807   6.446   8.253   1.620 -0.9902  0.6373 -0.7672
26893SOL     OW85808   0.197   6.627   0.019 -0.4410  0.0670 -0.6956
26893SOL    HW185809   0.283   6.665   0.000 -0.6350  1.0366  0.2758
26893SOL    HW285810   0.206   6.589   0.107 -0.4287 -1.6405 -1.4161
26894SOL     OW85811   7.319  11.243   8.069  0.6065 -0.3793  0.0297
26894SOL    HW185812   7.255  11.220   8.002 -1.2404 -0.7327  1.8470
26894SOL    HW285813   7.371  11.164   8.081  0.4213 -0.5712 -0.4192
26895SOL     OW85814  10.370   4.230   1.884  0.0549 -0.3750  0.4250
26895SOL    HW185815  10.464   4.247   1.881 -0.2298  0.9584 -2.4127
26895SOL    HW285816  10.342   4.234   1.792 -3.0099  0.6300  1.3537
26896SOL     OW85817  10.815   3.706   5.779  0.2132  0.4275  0.4359
26896SOL    HW185818  10.731   3.736   5.813  0.1639  1.0904 -0.2644
26896SOL    HW285819  10.818   3.613   5.803 -0.3577  0.5881  1.1672
26897SOL     OW85820   9.318   8.050   0.958 -0.4214  0.0089 -0.4551
26897SOL    HW185821   9.252   8.119   0.958  2.3639  2.8003  0.3540
26897SOL    HW285822   9.339   8.038   1.051  1.0051  0.0050 -0.7690
26898SOL     OW85823   1.536   5.414   1.163 -0.0452  0.1444 -0.2846
26898SOL    HW185824   1.519   5.403   1.256 -0.9274 -0.4244 -0.4987
26898SOL    HW285825   1.618   5.368   1.147  0.0653  0.1775  0.1945
26899SOL     OW85826   6.679   0.625   5.588 -0.2529  0.2403  0.4094
26899SOL    HW185827   6.613   0.601   5.653 -0.2181  0.2357  0.4427
26899SOL    HW285828   6.656   0.715   5.563 -1.9573 -0.7030 -1.6506
26900SOL     OW85829   5.001  10.228  11.095  0.0661  0.4705  0.2424
26900SOL    HW185830   4.987  10.148  11.147  0.5328  0.1164 -0.1788
26900SOL    HW285831   4.913  10.264  11.084  0.0265  0.9189  1.8509
26901SOL     OW85832   4.662   3.712   7.559  0.7197 -0.1169 -0.2348
26901SOL    HW185833   4.614   3.634   7.531  0.7201 -1.2710  2.8139
26901SOL    HW285834   4.754   3.688   7.554  0.6634 -1.3804  3.4233
26902SOL     OW85835  11.328   1.422   7.569  0.5014 -0.0434 -0.4915
26902SOL    HW185836  11.282   1.439   7.486 -0.5566  2.5756  0.5865
26902SOL    HW285837  11.420   1.436   7.548  0.4027 -0.9958 -1.6207
26903SOL     OW85838   5.385   6.179   1.436  0.5287  0.6988 -0.6056
26903SOL    HW185839   5.398   6.104   1.378  0.1606  0.6167 -0.5857
26903SOL    HW285840   5.432   6.157   1.516 -1.1005 -0.3172  0.0865
26904SOL     OW85841   2.284   5.728   0.103 -0.6098 -0.3609 -0.1284
26904SOL    HW185842   2.334   5.759   0.027  1.2873 -1.9930  0.4241
26904SOL    HW285843   2.274   5.805   0.159  2.2831 -0.2512  0.2770
26905SOL     OW85844   7.899  11.160   3.842 -0.6225 -0.2608 -0.1051
26905SOL    HW185845   7.905  11.231   3.778 -2.4278  0.0781  0.0738
26905SOL    HW285846   7.951  11.089   3.804 -0.0869  0.6160 -1.0280
26906SOL     OW85847   5.222   3.473   3.569  0.6162 -0.4815 -0.5763
26906SOL    HW185848   5.300   3.505   3.524 -0.4275 -0.6062 -2.5368
26906SOL    HW285849   5.235   3.378   3.575  0.6875 -0.4838 -0.7595
26907SOL     OW85850   4.883   9.435   3.779  0.1341 -0.3450 -0.3100
26907SOL    HW185851   4.855   9.344   3.786  0.8184 -0.5064  0.4343
26907SOL    HW285852   4.821   9.483   3.835  0.0523 -0.4125 -0.3422
26908SOL     OW85853   0.792   9.218   7.745 -0.1811 -0.1542  0.2242
26908SOL    HW185854   0.858   9.203   7.677 -2.1851  1.9402 -2.3028
26908SOL    HW285855   0.818   9.302   7.784 -0.3448 -0.2297  0.4955
26909SOL     OW85856   1.503   9.519   1.583  0.0544  0.0730 -0.4187
26909SOL    HW185857   1.429   9.479   1.538 -0.0838  0.4846 -0.5525
26909SOL    HW285858   1.542   9.447   1.633 -0.8102  0.0005  0.1525
26910SOL     OW85859  10.932   9.574  11.014 -0.1061 -0.1359 -0.4239
26910SOL    HW185860  10.892   9.552  11.098  2.5968  2.6525  1.7172
26910SOL    HW285861  10.994   9.503  10.998  1.5569  0.7911  1.5513
26911SOL     OW85862   7.856   7.626  10.782 -0.1773  0.0133 -0.4970
26911SOL    HW185863   7.863   7.550  10.841  2.2349 -0.3959 -1.2569
26911SOL    HW285864   7.795   7.685  10.826  0.4768 -0.9141  1.7405
26912SOL     OW85865   6.252   6.241   0.000  0.3707 -0.5808  0.6899
26912SOL    HW185866   6.167   6.200   0.011 -0.6428  1.9537  2.8383
26912SOL    HW285867   6.240   6.305  -0.070  1.2792 -2.0985 -0.9025
26913SOL     OW85868   6.173   3.190   8.896 -0.0799  0.4435  0.4379
26913SOL    HW185869   6.157   3.149   8.981 -0.2566  2.0432  1.1771
26913SOL    HW285870   6.263   3.164   8.874 -0.5452 -1.2127  0.3910
26914SOL     OW85871   7.180   7.484   9.751  1.0818  0.2269 -0.8600
26914SOL    HW185872   7.153   7.400   9.787 -0.0844  0.6540 -0.7247
26914SOL    HW285873   7.192   7.541   9.828 -0.8558  0.9739 -1.0853
26915SOL     OW85874   7.256   3.629   2.486 -0.3279 -0.0711 -0.2970
26915SOL    HW185875   7.333   3.617   2.542 -0.5531 -0.3052 -0.0380
26915SOL    HW285876   7.182   3.626   2.546 -0.4873  1.1054 -0.4195
26916SOL     OW85877   9.357   1.992   6.989  0.0772  0.3715  0.1963
26916SOL    HW185878   9.300   1.918   7.011  0.1142  0.1013 -0.5871
26916SOL    HW285879   9.328   2.019   6.902  2.0512 -0.6469 -0.7839
26917SOL     OW85880   2.919   0.280   3.410 -0.9211  0.0810 -0.4490
26917SOL    HW185881   2.938   0.228   3.488  0.5585  0.4236 -0.5738
26917SOL    HW285882   2.854   0.345   3.440  0.2911  0.7764  0.7366
26918SOL     OW85883   3.871   3.615   4.038  0.3996 -0.1025  0.7501
26918SOL    HW185884   3.882   3.525   4.008 -0.3089  0.4341 -1.1639
26918SOL    HW285885   3.781   3.620   4.068  0.1794  0.1815  0.0599
26919SOL     OW85886   7.856  10.474   1.353 -0.0618 -0.3619 -0.4191
26919SOL    HW185887   7.807  10.526   1.290 -0.7177  0.4980  0.7738
26919SOL    HW285888   7.929  10.437   1.303  0.6096  1.9811 -1.2200
26920SOL     OW85889   7.412   4.848   0.460  0.1367 -0.3183 -0.3436
26920SOL    HW185890   7.428   4.836   0.554 -0.5272 -1.2839 -0.3384
26920SOL    HW285891   7.369   4.933   0.454  1.2751  0.2936  0.0948
26921SOL     OW85892   7.048   8.619   9.283 -0.1226  0.5993  0.0666
26921SOL    HW185893   7.107   8.605   9.357 -0.9738  1.7012  0.9741
26921SOL    HW285894   6.974   8.561   9.301 -0.5315  1.1964  0.3068
26922SOL     OW85895   9.589   0.377   5.683  0.1574  0.5243  0.7046
26922SOL    HW185896   9.596   0.288   5.650  0.1930  0.8830 -0.2654
26922SOL    HW285897   9.495   0.395   5.683  0.3382  2.1183 -3.5880
26923SOL     OW85898   4.303   9.130   7.028  0.0808 -0.0436 -0.2263
26923SOL    HW185899   4.238   9.115   6.959  2.6149 -1.2230 -2.4199
26923SOL    HW285900   4.313   9.225   7.032  0.5108 -0.0019 -2.0756
26924SOL     OW85901   2.162   7.592   1.212  0.3429  0.0618 -0.2124
26924SOL    HW185902   2.091   7.648   1.243  1.5898  2.1627 -0.9520
26924SOL    HW285903   2.215   7.651   1.157  1.9080 -1.7877 -0.7283
26925SOL     OW85904   4.859   8.998  10.302  0.0518  0.1284  0.2608
26925SOL    HW185905   4.942   8.957  10.276  0.1573  0.4840  0.0346
26925SOL    HW285906   4.838   8.957  10.386 -1.4007 -2.6336 -1.3738
26926SOL     OW85907   2.614   6.738   3.287 -0.3431 -0.5364  0.4688
26926SOL    HW185908   2.680   6.733   3.218 -0.1509 -0.9469  0.6854
26926SOL    HW285909   2.640   6.812   3.341  0.3009 -1.1005  0.9338
26927SOL     OW85910   8.386   8.199   1.183  0.2948  0.3437  0.3078
26927SOL    HW185911   8.382   8.214   1.089 -0.5756 -0.5027  0.1968
26927SOL    HW285912   8.463   8.143   1.195 -0.1426 -0.3386 -0.0210
26928SOL     OW85913   0.436   3.346   5.942 -0.0417 -0.1509 -0.2108
26928SOL    HW185914   0.522   3.340   5.984  0.0708 -1.5476 -0.6194
26928SOL    HW285915   0.396   3.260   5.957 -1.0294  0.2104 -0.7515
26929SOL     OW85916  11.256   3.143  10.623 -0.2057  0.3299 -0.0427
26929SOL    HW185917  11.257   3.194  10.542  1.0315  0.8716  0.3075
26929SOL    HW285918  11.195   3.071  10.605 -0.4815  0.8420 -1.2027
26930SOL     OW85919   5.530  10.275   1.718  0.2915 -0.1889  0.4459
26930SOL    HW185920   5.508  10.194   1.672  2.9372  0.3122 -1.8631
26930SOL    HW285921   5.500  10.345   1.659  0.4233  0.4839  1.1757
26931SOL     OW85922   4.625   4.543   8.089 -0.4034  0.0419  0.1007
26931SOL    HW185923   4.548   4.600   8.097 -0.7903 -0.7102  1.8973
26931SOL    HW285924   4.600   4.462   8.132  0.3844 -1.2816 -1.8755
26932SOL     OW85925   2.913   8.185   5.620  0.2872 -0.9668  0.2881
26932SOL    HW185926   2.872   8.216   5.539  0.1853  0.1358  0.7443
26932SOL    HW285927   2.840   8.158   5.676  0.4552 -3.6859 -0.7395
26933SOL     OW85928   7.745   8.451   0.157 -0.0715  0.2546 -0.4839
26933SOL    HW185929   7.700   8.481   0.236 -1.3630 -0.4173 -0.9394
26933SOL    HW285930   7.834   8.485   0.165 -0.5845  1.3801  0.5832
26934SOL     OW85931   4.927   0.345   9.935  0.3319 -0.5450  0.0068
26934SOL    HW185932   4.983   0.310  10.005  2.3837 -1.3283 -1.9605
26934SOL    HW285933   4.987   0.389   9.876 -1.5117  1.0107 -0.7657
26935SOL     OW85934   8.228   4.031   7.059  0.2316  0.1230  0.2657
26935SOL    HW185935   8.321   4.013   7.070  0.3662 -0.1004 -1.1845
26935SOL    HW285936   8.218   4.053   6.967 -0.9619  1.3201  0.6633
26936SOL     OW85937   2.348   9.459   5.337  0.2078 -0.3739 -0.5363
26936SOL    HW185938   2.299   9.540   5.330  0.7204  0.0413  0.5772
26936SOL    HW285939   2.429   9.475   5.287  0.1982 -0.2900 -0.5239
26937SOL     OW85940   3.955  10.023   1.818 -0.2571  0.3437  0.3963
26937SOL    HW185941   3.905   9.994   1.742  0.4669  0.3471 -0.0894
26937SOL    HW285942   3.983  10.112   1.797  1.1336 -0.1614  0.0598
26938SOL     OW85943   3.499   2.906   5.521 -0.4095 -0.1651 -0.4950
26938SOL    HW185944   3.561   2.977   5.541 -0.7993  0.3120 -0.9715
26938SOL    HW285945   3.543   2.826   5.551  0.5260  0.1492 -1.0365
26939SOL     OW85946   6.955  11.322   3.060  0.2714  0.3875 -0.5451
26939SOL    HW185947   6.911  11.240   3.084  1.0855  0.2572  0.5281
26939SOL    HW285948   6.995  11.304   2.975 -1.1290  0.2810 -1.1982
26940SOL     OW85949   0.082   6.544  10.956  0.3290  0.3199 -0.5229
26940SOL    HW185950   0.043   6.588  11.032 -0.9757 -1.2828 -0.2511
26940SOL    HW285951   0.176   6.565  10.961  0.2468  0.2524  1.5107
26941SOL     OW85952   3.352   2.123   1.697  0.5011  0.1114 -0.1909
26941SOL    HW185953   3.378   2.035   1.726  1.2164  0.6370  0.8031
26941SOL    HW285954   3.395   2.133   1.612 -1.1946 -1.2503 -1.2344
26942SOL     OW85955   6.917  11.049   3.446 -0.2981  0.3854 -0.7563
26942SOL    HW185956   6.879  10.961   3.442  0.7807 -0.0874 -0.7933
26942SOL    HW285957   6.857  11.104   3.396  0.8238 -1.0023 -3.7664
26943SOL     OW85958   1.039   7.114  10.993  0.1818  0.0344  0.7513
26943SOL    HW185959   1.106   7.153  10.938  0.2990  0.6363  1.3184
26943SOL    HW285960   0.993   7.188  11.032  0.8335 -0.3664  2.3531
26944SOL     OW85961  10.915   8.287   1.271 -0.4192  0.1937  0.1492
26944SOL    HW185962  10.918   8.380   1.246 -1.6744 -1.1576 -5.7938
26944SOL    HW285963  11.005   8.266   1.297  0.1975  2.7221  0.1836
26945SOL     OW85964   3.707   5.499   2.002  0.4278  0.5784  0.2664
26945SOL    HW185965   3.718   5.472   2.094  1.7572  0.5844  0.1210
26945SOL    HW285966   3.613   5.495   1.987  0.4215 -2.0061  0.8424
26946SOL     OW85967   4.901   3.683   9.335 -0.3935 -0.5097 -0.1736
26946SOL    HW185968   4.918   3.762   9.386 -1.2631  1.2980 -2.5800
26946SOL    HW285969   4.971   3.623   9.359  2.1641  2.1830 -0.6327
26947SOL     OW85970   5.111   9.803  10.766  0.0886 -0.3360  0.0607
26947SOL    HW185971   5.121   9.898  10.759  0.9546 -0.5415 -1.7848
26947SOL    HW285972   5.143   9.781  10.853  1.1978  0.8929 -0.0337
26948SOL     OW85973   7.989   9.540   3.175 -0.3736 -0.2591  0.0198
26948SOL    HW185974   8.058   9.476   3.154 -0.4364 -0.0871 -0.7114
26948SOL    HW285975   8.033   9.625   3.168 -0.0060 -0.2679  2.0856
26949SOL     OW85976   2.840  10.261   4.999 -0.5892  0.3708  0.4847
26949SOL    HW185977   2.819  10.272   5.091 -0.3920  2.5771  0.3032
26949SOL    HW285978   2.781  10.193   4.968 -1.5420  0.5225  1.9583
26950SOL     OW85979   3.389   2.410   6.717  0.6590 -0.4714  0.4351
26950SOL    HW185980   3.370   2.360   6.638 -0.9154  0.4826  0.1719
26950SOL    HW285981   3.326   2.483   6.714  1.7051  0.5032  1.7055
26951SOL     OW85982  10.122   8.423   8.155 -0.7765  0.2371  0.1134
26951SOL    HW185983  10.115   8.518   8.162 -3.1762  0.2195 -1.3782
26951SOL    HW285984  10.050   8.398   8.096  0.1394 -2.4407  0.0621
26952SOL     OW85985   2.033   3.342   6.894  0.3633 -0.4002  0.0831
26952SOL    HW185986   1.953   3.323   6.846  0.8179 -0.3451 -0.7218
26952SOL    HW285987   2.012   3.324   6.986 -2.2132  4.6076  0.6707
26953SOL     OW85988   5.201   0.249   6.785  0.0079 -0.6163 -0.1268
26953SOL    HW185989   5.251   0.196   6.847 -2.0184 -0.6352  1.6008
26953SOL    HW285990   5.164   0.186   6.723 -0.7499 -1.0298  0.7257
26954SOL     OW85991   5.780   4.369  10.054 -0.2125 -0.2836  0.3849
26954SOL    HW185992   5.749   4.460  10.062 -1.6976 -0.5955 -1.6374
26954SOL    HW285993   5.837   4.370   9.978 -2.2258 -1.5301 -1.1962
26955SOL     OW85994   0.079   1.419   2.684 -0.2211 -0.3863  0.4013
26955SOL    HW185995   0.084   1.491   2.747  3.5367 -0.6457  0.5500
26955SOL    HW285996   0.023   1.452   2.614 -1.2879  1.3896  2.0555
26956SOL     OW85997  10.316   4.614  10.249 -0.0223  0.6207  0.2322
26956SOL    HW185998  10.285   4.704  10.253 -2.5237 -0.2124  0.5616
26956SOL    HW285999  10.355   4.606  10.162  1.3535  2.3189  0.6488
26957SOL     OW86000   4.887   2.487   9.930  0.1541 -0.5258 -0.5014
26957SOL    HW186001   4.876   2.578   9.955  0.4828 -0.3230 -1.0853
26957SOL    HW286002   4.807   2.444   9.958 -0.0077 -0.0548 -0.2440
26958SOL     OW86003   6.053  10.747   0.762  0.1608  0.6867  0.5271
26958SOL    HW186004   6.014  10.782   0.682  0.6053  0.4653  0.2056
26958SOL    HW286005   6.076  10.656   0.740  1.6635  1.0746  0.4129
26959SOL     OW86006   9.343   6.964   7.496 -0.1677  0.3021 -0.0143
26959SOL    HW186007   9.298   7.043   7.466 -0.8372 -0.1903 -0.3007
26959SOL    HW286008   9.436   6.990   7.499 -0.5415  1.5819  1.4162
26960SOL     OW86009   2.803   0.475  10.434 -0.3969 -0.0831  0.4425
26960SOL    HW186010   2.881   0.526  10.455 -0.7022  0.9316 -0.8537
26960SOL    HW286011   2.741   0.539  10.397 -1.0188 -1.2693 -0.6130
26961SOL     OW86012   0.973   2.742   5.567 -0.8865 -0.3211  0.2119
26961SOL    HW186013   0.917   2.818   5.584 -1.3961 -0.6135 -0.1357
26961SOL    HW286014   0.913   2.676   5.531 -0.5661 -1.1218  1.1434
26962SOL     OW86015   2.783   2.649   4.765  0.5958 -0.2094  0.6009
26962SOL    HW186016   2.698   2.610   4.744  2.1722 -2.5146 -1.7571
26962SOL    HW286017   2.791   2.722   4.704  0.5373 -0.2918  0.4950
26963SOL     OW86018   1.825   1.727   8.500 -0.4408  0.0463 -0.3247
26963SOL    HW186019   1.756   1.794   8.506 -0.4168  0.0384  0.1189
26963SOL    HW286020   1.903   1.771   8.534 -0.4712 -0.2658  0.1475
26964SOL     OW86021   7.176   8.948   1.331  0.5955 -0.5782 -0.1576
26964SOL    HW186022   7.207   8.957   1.421  3.3680 -2.7411 -0.7994
26964SOL    HW286023   7.226   9.014   1.282 -1.8008  1.4455  0.0166
26965SOL     OW86024   1.853   1.732   6.332  0.0872 -0.3171  0.6186
26965SOL    HW186025   1.789   1.719   6.262 -1.3126  1.0767  1.6138
26965SOL    HW286026   1.938   1.734   6.286 -0.6303 -1.2763 -0.8061
26966SOL     OW86027   8.290   3.164   1.221 -0.1833 -0.4209  0.2196
26966SOL    HW186028   8.378   3.147   1.187 -0.4600  2.0582 -1.9050
26966SOL    HW286029   8.305   3.198   1.310  1.0871  0.6781 -0.3863
26967SOL     OW86030   6.786   8.521   9.299  0.3609  0.2653  0.4968
26967SOL    HW186031   6.704   8.525   9.250  0.9449 -1.8623 -0.7186
26967SOL    HW286032   6.781   8.594   9.360 -2.5720 -0.0204  0.6558
26968SOL     OW86033  10.023   8.299   1.837 -0.3361 -0.0323 -0.7457
26968SOL    HW186034   9.935   8.271   1.814 -1.7031  0.6422  3.1823
26968SOL    HW286035  10.027   8.391   1.811 -1.4603  0.4227  0.6393
26969SOL     OW86036   1.515   6.439   9.262  0.0055 -0.4120 -0.0123
26969SOL    HW186037   1.603   6.425   9.230  0.4515 -1.5052  1.6015
26969SOL    HW286038   1.475   6.352   9.264 -1.0320  0.0420 -0.5328
26970SOL     OW86039   3.434   6.206  10.341 -0.1766 -0.3288  0.7526
26970SOL    HW186040   3.399   6.126  10.301 -1.2272  1.8123 -2.7876
26970SOL    HW286041   3.427   6.272  10.272 -0.5334  3.1449  3.9841
26971SOL     OW86042   2.371  10.664   0.629  0.1248 -0.3218 -0.0995
26971SOL    HW186043   2.378  10.595   0.695 -2.7509 -0.3499  0.2274
26971SOL    HW286044   2.297  10.717   0.657  0.1409  0.8750 -2.2180
26972SOL     OW86045   2.288   2.345  11.106  0.5814  0.2032  0.4213
26972SOL    HW186046   2.371   2.297  11.105  1.3548  1.5009  0.6204
26972SOL    HW286047   2.230   2.294  11.049  1.2283 -1.2066  1.0178
26973SOL     OW86048   0.826   8.232   4.331 -0.0984 -0.0485 -0.3053
26973SOL    HW186049   0.764   8.166   4.362  0.4201 -0.6594 -0.5454
26973SOL    HW286050   0.909   8.185   4.324  0.6291  1.0013  0.9958
26974SOL     OW86051   8.150  10.084   8.502  0.1055  0.9383 -0.4859
26974SOL    HW186052   8.103  10.001   8.511  0.9839  0.3916 -0.7976
26974SOL    HW286053   8.106  10.130   8.431  2.7072 -1.4997 -3.8541
26975SOL     OW86054   8.652  10.185   8.113  0.3735 -0.2779  0.7430
26975SOL    HW186055   8.740  10.208   8.143  0.0796  0.5408  1.0091
26975SOL    HW286056   8.641  10.235   8.032  0.3737 -0.8427  0.3920
26976SOL     OW86057   1.521   4.881   5.701 -0.2583  0.3254  0.4560
26976SOL    HW186058   1.601   4.933   5.706  0.1497 -0.2820  0.3029
26976SOL    HW286059   1.519   4.832   5.783 -1.6680  2.0426  1.4874
26977SOL     OW86060   4.516   3.564   8.219  0.0284 -0.0412 -0.2353
26977SOL    HW186061   4.517   3.489   8.279 -1.5334 -0.9272 -1.3067
26977SOL    HW286062   4.434   3.609   8.238  0.9687  1.4489  0.4219
26978SOL     OW86063   4.705   3.683   4.396  0.1232 -0.0087  0.2718
26978SOL    HW186064   4.650   3.605   4.407 -0.6455  0.5433  0.4022
26978SOL    HW286065   4.769   3.658   4.331  1.0353 -1.3673  1.6571
26979SOL     OW86066   6.428  11.136   9.354 -0.5200 -0.0537  0.2595
26979SOL    HW186067   6.433  11.041   9.360  2.2846  0.0622  0.3078
26979SOL    HW286068   6.383  11.152   9.271  0.3890 -1.4153 -0.5180
26980SOL     OW86069   2.127   7.188  10.244 -0.2324 -0.3743  0.0937
26980SOL    HW186070   2.207   7.203  10.195 -0.1242  0.7317  0.5831
26980SOL    HW286071   2.067   7.149  10.181  0.8272 -1.6324 -0.1631
26981SOL     OW86072   1.326   8.121   6.023 -0.2068 -0.8008 -0.4304
26981SOL    HW186073   1.346   8.029   6.006 -1.1797 -1.0806 -0.1055
26981SOL    HW286074   1.238   8.120   6.062 -0.4580  0.3017 -0.9268
26982SOL     OW86075   4.794   9.377   4.061  0.1546  0.7362  0.5256
26982SOL    HW186076   4.733   9.332   4.004  1.9033  1.1967 -1.7839
26982SOL    HW286077   4.801   9.465   4.024  3.3979  0.2110 -0.2390
26983SOL     OW86078   7.971   6.771   2.210  0.3992 -0.2218 -0.0215
26983SOL    HW186079   8.017   6.814   2.282 -1.3268 -0.6335  1.3458
26983SOL    HW286080   7.909   6.837   2.180  0.2485 -0.4944 -0.3068
26984SOL     OW86081  10.959   0.743   8.045 -0.2754 -0.5825  0.4687
26984SOL    HW186082  11.015   0.819   8.028  2.5806 -2.0906  2.7693
26984SOL    HW286083  10.961   0.693   7.964 -0.2185  0.5863 -0.2602
26985SOL     OW86084   9.129   2.977   4.259  0.1483  0.7825 -0.2129
26985SOL    HW186085   9.046   2.967   4.212  0.7252  1.1445 -1.3273
26985SOL    HW286086   9.182   2.903   4.230  0.5390  1.0540 -0.1858
26986SOL     OW86087   3.115   5.386   8.223 -0.0916 -0.0027 -0.0017
26986SOL    HW186088   3.093   5.294   8.211 -0.9845  0.0411  1.1917
26986SOL    HW286089   3.041   5.422   8.273  0.2235  1.3636 -0.4961
26987SOL     OW86090   7.034   3.730   1.855 -0.0558  0.0674  0.0829
26987SOL    HW186091   7.037   3.825   1.856 -1.5766  0.1426 -0.6037
26987SOL    HW286092   6.997   3.708   1.769  0.6270 -1.1557  0.0885
26988SOL     OW86093   7.597   4.121  11.261 -0.1244  0.5774 -0.3329
26988SOL    HW186094   7.676   4.088  11.305 -0.0020  1.0791 -0.1667
26988SOL    HW286095   7.557   4.044  11.221  0.7173  0.3871 -0.8339
26989SOL     OW86096   9.137  10.402   0.605 -0.1008  0.5576 -0.0410
26989SOL    HW186097   9.124  10.420   0.511 -1.9806  0.8720  0.2602
26989SOL    HW286098   9.049  10.406   0.642  0.5632 -0.1865  1.6439
26990SOL     OW86099   6.149   4.669   5.953  0.7165  0.1685  0.6139
26990SOL    HW186100   6.162   4.575   5.941  0.3791  0.1608  0.3073
26990SOL    HW286101   6.129   4.702   5.866  0.5511  0.4795  0.7693
26991SOL     OW86102   3.731   4.380   5.440 -0.2027  0.3123  0.4640
26991SOL    HW186103   3.651   4.399   5.489 -1.5414 -1.0680 -1.0795
26991SOL    HW286104   3.749   4.288   5.459 -0.4510 -0.0926 -1.1680
26992SOL     OW86105   4.734   6.548   0.926  0.3686 -0.4461 -0.1671
26992SOL    HW186106   4.676   6.623   0.940 -0.1834 -0.3319 -2.7543
26992SOL    HW286107   4.819   6.577   0.960 -0.4265  0.4342  1.0970
26993SOL     OW86108   9.376   7.850  10.330  0.3381 -0.1618  0.0642
26993SOL    HW186109   9.321   7.774  10.311  0.0555  0.0844 -0.1022
26993SOL    HW286110   9.408   7.835  10.419 -1.1873  0.4182  0.7232
26994SOL     OW86111   2.371  11.199   5.837 -0.2398 -0.6221 -0.5725
26994SOL    HW186112   2.439  11.135   5.859 -0.4135  0.3029  2.9689
26994SOL    HW286113   2.289  11.149   5.840 -0.0754 -0.9181 -1.0004
26995SOL     OW86114   0.072   0.702   8.329 -0.1861 -0.3939  0.2527
26995SOL    HW186115   0.158   0.742   8.336  0.2446 -0.5203 -3.2052
26995SOL    HW286116   0.019   0.745   8.396  2.8728 -1.2977  3.3972
26996SOL     OW86117  10.362   6.221  10.521  0.5062  0.3807 -0.0116
26996SOL    HW186118  10.412   6.161  10.576 -0.4848 -1.2681 -0.8619
26996SOL    HW286119  10.426   6.286  10.491  1.4637  0.0855  1.3861
26997SOL     OW86120   3.554   1.459   5.501  0.0473 -0.4678 -0.6807
26997SOL    HW186121   3.463   1.456   5.470 -0.0146 -1.3261 -0.4291
26997SOL    HW286122   3.591   1.375   5.474  0.6541 -0.2870 -0.4222
26998SOL     OW86123   3.512   1.239   0.434 -0.3434  0.4234  0.6569
26998SOL    HW186124   3.512   1.334   0.423 -0.3126  0.2752 -0.7109
26998SOL    HW286125   3.585   1.209   0.379 -2.0584 -0.6156 -1.1071
26999SOL     OW86126   3.043   8.686   5.115  0.2055  0.4586  0.5144
26999SOL    HW186127   3.033   8.615   5.177 -0.7132  0.5304  0.4635
26999SOL    HW286128   3.012   8.764   5.162 -0.4756  0.5171 -0.0125
27000SOL     OW86129   6.178   0.173   0.862  0.0005  0.0958 -0.3755
27000SOL    HW186130   6.086   0.187   0.881  0.5180  1.4355  1.3129
27000SOL    HW286131   6.222   0.185   0.946  1.7648  0.1632 -1.2809
27001SOL     OW86132   9.590   2.764   1.616 -0.3021 -0.1331 -0.5871
27001SOL    HW186133   9.604   2.759   1.521 -0.7461  1.2035 -0.7394
27001SOL    HW286134   9.500   2.795   1.625 -0.6499 -1.3785  0.2932
27002SOL     OW86135   0.899  10.604   7.088  0.0415 -0.2788  0.3006
27002SOL    HW186136   0.904  10.509   7.082  1.9713 -0.0777 -1.5368
27002SOL    HW286137   0.808  10.621   7.113  0.0411 -2.6466  2.1492
27003SOL     OW86138   0.928   0.813   1.964  0.6652  0.0880 -0.5438
27003SOL    HW186139   0.938   0.756   1.888  1.4035  0.1985 -0.5322
27003SOL    HW286140   1.000   0.788   2.022  0.7370  0.7431 -0.3516
27004SOL     OW86141  10.329   8.566   2.491 -0.0033  0.1916 -0.0542
27004SOL    HW186142  10.303   8.559   2.399 -0.0754 -0.6906  0.0329
27004SOL    HW286143  10.406   8.511   2.499 -1.0261 -1.1406  0.8027
27005SOL     OW86144   9.148   9.261   6.766 -0.2220 -0.0886  0.2715
27005SOL    HW186145   9.065   9.277   6.812  0.3178  2.3667  0.4742
27005SOL    HW286146   9.184   9.183   6.808 -1.9451 -0.6062  0.8476
27006SOL     OW86147   7.539   3.072   8.839 -0.6179 -0.3913 -0.0802
27006SOL    HW186148   7.631   3.050   8.823  0.1450  2.3327  0.3761
27006SOL    HW286149   7.535   3.093   8.932 -1.6033  0.0950 -0.2254
27007SOL     OW86150   7.767   6.527   2.577  0.0197 -0.6644 -0.2704
27007SOL    HW186151   7.837   6.528   2.512  0.6911 -0.3482  0.4561
27007SOL    HW286152   7.763   6.436   2.606  0.3376 -0.6214 -0.0897
27008SOL     OW86153   4.278   2.165   3.956 -0.2386 -0.0494  0.5621
27008SOL    HW186154   4.228   2.096   3.999 -1.2670  0.9966  1.0839
27008SOL    HW286155   4.310   2.219   4.028 -1.0620  1.1027  0.0861
27009SOL     OW86156   7.244   5.301   4.050 -0.4423 -0.3848 -0.2449
27009SOL    HW186157   7.194   5.329   4.127 -1.9705 -1.2003 -0.9239
27009SOL    HW286158   7.282   5.217   4.075 -2.2348 -1.4161 -0.9042
27010SOL     OW86159   0.851   9.521   9.800  0.1516 -0.6172  0.1480
27010SOL    HW186160   0.919   9.465   9.836 -1.1006 -2.4068 -0.1496
27010SOL    HW286161   0.776   9.462   9.787 -0.7234  0.8048 -1.5884
27011SOL     OW86162   1.195  10.057   0.049 -0.7033 -0.5241 -0.0808
27011SOL    HW186163   1.256  10.120   0.087 -0.4314 -0.1536 -1.1129
27011SOL    HW286164   1.242  10.019  -0.025 -2.1818  0.7139 -1.7088
27012SOL     OW86165   5.854   1.166  10.561  0.0602  0.3990  0.0878
27012SOL    HW186166   5.941   1.188  10.529 -0.0553  0.9610  0.1547
27012SOL    HW286167   5.850   1.204  10.648 -0.3283  0.5601  0.0010
27013SOL     OW86168   5.238  11.205   3.511  0.0117  0.2102 -0.5709
27013SOL    HW186169   5.296  11.269   3.550  0.0854 -0.8647  1.1377
27013SOL    HW286170   5.151  11.244   3.517  0.2578  0.8232 -0.9901
27014SOL     OW86171   6.286   5.589   8.217 -0.4833  0.2029  0.0069
27014SOL    HW186172   6.277   5.511   8.162 -0.3998  0.7620 -0.8145
27014SOL    HW286173   6.274   5.662   8.156 -0.1293  0.8346  0.6924
27015SOL     OW86174   5.115   3.354  11.265 -0.1767  0.2042  0.1747
27015SOL    HW186175   5.181   3.400  11.318 -0.6438  4.0724 -2.3541
27015SOL    HW286176   5.032   3.383  11.301 -0.4900 -0.5477  0.0571
27016SOL     OW86177   9.386   1.357   7.660 -0.0553 -0.1353  0.3822
27016SOL    HW186178   9.420   1.269   7.643  0.4502  0.4325 -1.7161
27016SOL    HW286179   9.307   1.363   7.606 -0.2658  0.5956  0.7656
27017SOL     OW86180   2.888   2.113   8.067  0.2887  0.2572 -0.4453
27017SOL    HW186181   2.818   2.048   8.055  1.1860 -1.1334  1.5942
27017SOL    HW286182   2.860   2.163   8.144  2.4408 -1.6469  1.6841
27018SOL     OW86183   3.107   6.896   9.124  0.2418  0.5175 -0.5825
27018SOL    HW186184   3.027   6.948   9.131  0.9936  1.3295  2.7834
27018SOL    HW286185   3.169   6.952   9.076 -0.6981  0.4349 -1.9413
27019SOL     OW86186   1.938   0.978   5.393  0.2880  0.1904  0.1686
27019SOL    HW186187   1.943   0.897   5.444  0.8761 -0.1283 -0.3821
27019SOL    HW286188   1.884   0.955   5.317 -0.0378  0.4794  0.3149
27020SOL     OW86189   0.576   6.775   4.703 -0.6165  0.4952  0.1469
27020SOL    HW186190   0.664   6.747   4.730 -1.3521 -0.6589  1.3921
27020SOL    HW286191   0.542   6.703   4.651 -1.1747  0.5451  0.4374
27021SOL     OW86192   5.837   5.854   0.791  0.6911  0.3816  0.3282
27021SOL    HW186193   5.781   5.914   0.840 -1.1268  0.6054 -1.9585
27021SOL    HW286194   5.907   5.910   0.757  0.3564  0.7445  0.2343
27022SOL     OW86195   9.304   9.209   9.897 -0.3192  0.0773 -0.5162
27022SOL    HW186196   9.288   9.133   9.953 -1.0776  0.1931 -0.5665
27022SOL    HW286197   9.333   9.172   9.814 -2.6833 -0.2716 -1.2246
27023SOL     OW86198   1.162   4.192   7.596  0.0862 -0.2929  0.1217
27023SOL    HW186199   1.167   4.101   7.569  1.1999 -0.3567  0.4999
27023SOL    HW286200   1.133   4.239   7.518  2.7813 -0.5349 -1.0749
27024SOL     OW86201  10.378   0.570   5.873 -0.1670  0.1539 -0.5554
27024SOL    HW186202  10.433   0.523   5.811 -0.4000 -2.2386  0.9687
27024SOL    HW286203  10.312   0.506   5.900  0.2921  0.9078  2.5733
27025SOL     OW86204   8.031   6.982   6.896 -0.1474 -0.6630 -0.2161
27025SOL    HW186205   8.105   6.963   6.953 -0.4855  0.3236  0.5599
27025SOL    HW286206   7.955   6.943   6.940 -0.1749 -1.1755 -0.7203
27026SOL     OW86207   2.634   0.634   1.344  0.3748 -0.0938  0.0971
27026SOL    HW186208   2.626   0.672   1.257 -0.4624 -0.8471 -0.1633
27026SOL    HW286209   2.728   0.626   1.360  0.5190 -0.3856 -0.9169
27027SOL     OW86210   5.304   6.599   0.985  0.5088 -0.1874  0.5551
27027SOL    HW186211   5.284   6.510   0.955 -2.0437  0.1225  1.2197
27027SOL    HW286212   5.269   6.656   0.916  0.1497  0.3743  1.2035
27028SOL     OW86213  10.548   6.562   2.686  0.4507 -0.0841 -0.3852
27028SOL    HW186214  10.569   6.654   2.702 -1.2015  0.3531 -0.5728
27028SOL    HW286215  10.557   6.550   2.592  1.1000 -0.2275 -0.3036
27029SOL     OW86216   1.536   7.537   5.234  0.4807  0.0898 -0.2787
27029SOL    HW186217   1.558   7.630   5.232 -0.4924  0.3631  0.9129
27029SOL    HW286218   1.543   7.513   5.327 -1.9459 -0.3602 -0.1914
27030SOL     OW86219   7.739   1.627   8.889 -0.1361  0.0633 -0.0631
27030SOL    HW186220   7.737   1.702   8.830 -0.9288 -0.5294 -0.7992
27030SOL    HW286221   7.713   1.662   8.974 -0.2378  0.6719 -0.3450
27031SOL     OW86222  10.785   4.833   2.619  0.0785 -0.2299  0.8869
27031SOL    HW186223  10.843   4.785   2.560  0.4495  0.9196  0.2856
27031SOL    HW286224  10.697   4.809   2.590  0.2517  0.8672 -0.6328
27032SOL     OW86225   9.930   3.466   4.684  0.2223 -0.1559  0.0389
27032SOL    HW186226  10.022   3.456   4.658 -0.1757 -0.6687 -1.2023
27032SOL    HW286227   9.883   3.479   4.602 -1.0157 -1.4529  0.5080
27033SOL     OW86228  11.179   1.024   4.768 -0.0909 -0.0524  0.0569
27033SOL    HW186229  11.239   1.095   4.791  1.3696 -1.2674  0.1147
27033SOL    HW286230  11.165   1.034   4.674 -3.1683  2.7295  0.7088
27034SOL     OW86231   3.528   0.667   8.768  0.1213 -0.3132  0.3421
27034SOL    HW186232   3.552   0.750   8.728 -0.1067 -0.7136 -0.6697
27034SOL    HW286233   3.492   0.690   8.853 -0.8441  0.7067 -0.3203
27035SOL     OW86234  11.244   9.294   8.034 -0.6635  0.2298 -0.5092
27035SOL    HW186235  11.171   9.234   8.021 -0.9613  0.8938 -1.9519
27035SOL    HW286236  11.214   9.378   8.000  0.3120  0.8331  0.0741
27036SOL     OW86237   9.527  11.089  11.224 -0.7889  0.0078  0.1897
27036SOL    HW186238   9.490  11.176  11.237 -0.8055 -0.1909  1.4915
27036SOL    HW286239   9.607  11.105  11.173 -0.8250  0.7756  0.3595
27037SOL     OW86240   1.312   5.785   8.940  0.0698  0.2436  0.5383
27037SOL    HW186241   1.305   5.859   8.879  1.8896  0.9943  1.1899
27037SOL    HW286242   1.231   5.736   8.927  0.2734  0.5492 -2.2579
27038SOL     OW86243   9.200   4.729   8.166 -0.5325  0.0483 -0.6494
27038SOL    HW186244   9.192   4.756   8.074 -1.0940 -0.7196 -0.8275
27038SOL    HW286245   9.286   4.763   8.193  1.1350 -2.5881 -2.4424
27039SOL     OW86246  11.205   4.500  11.071 -0.2243 -0.5572 -0.6099
27039SOL    HW186247  11.183   4.460  11.155  0.2630 -1.3992 -0.8713
27039SOL    HW286248  11.295   4.470  11.054  0.1077  0.5695 -0.8626
27040SOL     OW86249   2.626   0.095   5.576 -0.2264  0.2108 -0.3163
27040SOL    HW186250   2.660   0.006   5.568  0.3402  0.4093 -0.1381
27040SOL    HW286251   2.582   0.098   5.661 -1.4263 -0.2902 -0.9101
27041SOL     OW86252   0.417   2.920  11.294  0.1333 -0.0065 -0.2888
27041SOL    HW186253   0.371   2.870  11.226 -1.1864 -0.0296  0.5862
27041SOL    HW286254   0.500   2.945  11.254 -0.4873 -0.2910 -1.7887
27042SOL     OW86255   2.277   0.147   3.735  0.2657  0.2378  0.0802
27042SOL    HW186256   2.360   0.192   3.751  0.9372 -0.4673 -1.3072
27042SOL    HW286257   2.297   0.054   3.748 -0.8899  0.2384  2.0245
27043SOL     OW86258   8.524   5.446   8.065  0.2420 -0.2452 -0.2979
27043SOL    HW186259   8.533   5.501   7.987 -0.4001  0.7563  0.3269
27043SOL    HW286260   8.468   5.374   8.037  0.0690  0.0772 -0.7839
27044SOL     OW86261   3.765   8.609   4.296  0.2461  0.2505  0.2419
27044SOL    HW186262   3.811   8.567   4.223 -1.3523  0.2346 -0.7760
27044SOL    HW286263   3.699   8.544   4.323 -0.5704  1.1029  0.3069
27045SOL     OW86264   6.384   6.474   6.836 -0.3091  0.5486  0.5395
27045SOL    HW186265   6.363   6.404   6.775  0.8455  1.4294 -0.9117
27045SOL    HW286266   6.317   6.540   6.822 -0.0206  0.7688  0.1902
27046SOL     OW86267  10.833   3.325   6.664  0.5823 -0.2867  0.2869
27046SOL    HW186268  10.811   3.410   6.701  2.0992 -0.1967  1.0296
27046SOL    HW286269  10.751   3.276   6.665  0.2075  0.3253  2.1715
27047SOL     OW86270   5.162   2.441   8.230  0.6007 -0.0035  0.0220
27047SOL    HW186271   5.243   2.480   8.195  0.9203 -0.0736  0.6790
27047SOL    HW286272   5.107   2.427   8.153  1.0413  0.4582 -0.3794
27048SOL     OW86273   4.687   1.045   8.572  0.5332 -0.1187  0.1429
27048SOL    HW186274   4.706   1.073   8.483  0.2213 -0.7815 -0.1349
27048SOL    HW286275   4.618   1.104   8.602 -1.5890 -1.8553 -1.1667
27049SOL     OW86276  11.110   6.502   0.001 -0.2760  0.4378  0.3094
27049SOL    HW186277  11.122   6.410  -0.019 -0.8212  0.2384  0.8901
27049SOL    HW286278  11.179   6.524   0.062 -0.7007  0.1836  0.8817
27050SOL     OW86279  10.647   7.230   5.970 -0.1877 -0.4975  0.1265
27050SOL    HW186280  10.563   7.211   5.928 -0.3595  0.6074 -0.0455
27050SOL    HW286281  10.669   7.150   6.016 -2.2740 -0.2110  1.7324
27051SOL     OW86282   6.229   6.761   7.840  0.1807  0.2667  0.4745
27051SOL    HW186283   6.142   6.781   7.875  0.6906 -0.2974  2.1147
27051SOL    HW286284   6.288   6.777   7.913  1.2626 -1.1684 -0.0723
27052SOL     OW86285   2.797   8.414   2.614 -0.1119  0.4571 -0.2371
27052SOL    HW186286   2.709   8.387   2.589 -0.5164  1.3758  0.1608
27052SOL    HW286287   2.853   8.387   2.541 -0.3189 -2.3949  0.5925
27053SOL     OW86288   6.285   5.387   4.311 -0.9494 -0.1829 -0.0487
27053SOL    HW186289   6.342   5.387   4.235 -0.7664 -1.9381  0.0527
27053SOL    HW286290   6.345   5.393   4.386 -0.9084 -1.5492  0.0416
27054SOL     OW86291   7.187   9.316   8.188  0.7713  0.8498 -0.5165
27054SOL    HW186292   7.223   9.384   8.244  0.3133  2.8121 -2.5332
27054SOL    HW286293   7.096   9.342   8.175 -0.1079 -1.4998  0.6742
27055SOL     OW86294   6.146  11.007   3.184  0.0119 -0.3834  0.3265
27055SOL    HW186295   6.195  10.945   3.130 -1.2220  0.8533 -2.2783
27055SOL    HW286296   6.101  10.952   3.248  1.0464 -1.9367 -0.2590
27056SOL     OW86297   0.973   0.151   5.661 -0.2573 -0.4739  0.3269
27056SOL    HW186298   0.985   0.172   5.754  2.0821  0.8022 -0.2305
27056SOL    HW286299   1.003   0.060   5.653  0.3766 -0.2938  0.6526
27057SOL     OW86300   4.128  10.197   0.080  0.5721  0.1280 -0.3166
27057SOL    HW186301   4.045  10.148   0.084  1.4679 -1.4998 -1.4604
27057SOL    HW286302   4.158  10.198   0.171 -1.4344  2.0366  0.3689
27058SOL     OW86303   1.943   2.046   3.795 -0.6971 -0.0721 -0.2745
27058SOL    HW186304   1.986   2.015   3.716  1.3925 -0.5018  1.0028
27058SOL    HW286305   1.853   2.064   3.768 -0.2061 -0.9309 -2.5541
27059SOL     OW86306   8.506   7.693   0.649 -0.6799  0.1919  0.3987
27059SOL    HW186307   8.497   7.714   0.743 -0.9940  0.5911  0.2832
27059SOL    HW286308   8.567   7.620   0.647  1.0636  1.5933  0.7681
27060SOL     OW86309   9.524   0.234  10.975  0.1736  0.3757  0.1901
27060SOL    HW186310   9.618   0.216  10.975  0.1682  0.3480 -0.0177
27060SOL    HW286311   9.506   0.270  11.062  0.1078 -1.0186  0.7684
27061SOL     OW86312   6.727   5.048   8.175  0.9081 -0.3876  0.1266
27061SOL    HW186313   6.742   4.964   8.218  2.4996 -0.9000 -1.3684
27061SOL    HW286314   6.776   5.111   8.227 -1.1117 -0.1876  1.8429
27062SOL     OW86315   6.411  10.583   5.673  0.5623  0.2227  0.3181
27062SOL    HW186316   6.334  10.639   5.685 -0.1556 -0.6339 -0.1598
27062SOL    HW286317   6.479  10.641   5.640 -0.5279  0.5960 -1.3522
27063SOL     OW86318   7.829   1.268   7.581  0.3930  0.9802  0.0928
27063SOL    HW186319   7.774   1.191   7.598 -0.1560  1.2465 -0.4541
27063SOL    HW286320   7.910   1.250   7.629  0.2733  0.0546 -0.0264
27064SOL     OW86321   9.031   9.149   9.016  0.0145 -0.4586  0.0532
27064SOL    HW186322   9.049   9.225   9.071 -0.8957 -0.3118  0.1557
27064SOL    HW286323   9.050   9.179   8.927 -2.9569  0.7701 -0.2225
27065SOL     OW86324   5.748   1.324  10.355 -0.1015 -0.3753 -0.5198
27065SOL    HW186325   5.783   1.264  10.420 -0.6386  0.2112  0.3170
27065SOL    HW286326   5.780   1.410  10.382  0.0168 -0.1793 -1.2711
27066SOL     OW86327   1.220   7.117   5.032  0.1789  0.5695  0.4704
27066SOL    HW186328   1.177   7.184   4.979 -0.4757  1.1218  1.6824
27066SOL    HW286329   1.285   7.165   5.083 -1.5241  0.5851  2.6904
27067SOL     OW86330   6.861   0.024   3.870 -0.3154 -0.4728  0.0653
27067SOL    HW186331   6.941   0.039   3.920  0.6549 -2.4495 -0.8451
27067SOL    HW286332   6.878  -0.055   3.819 -2.6466 -0.6221 -0.5759
27068SOL     OW86333   5.258   5.670   4.576 -0.0012  0.3885  0.1793
27068SOL    HW186334   5.297   5.734   4.634  0.9224 -1.1001  1.2461
27068SOL    HW286335   5.322   5.599   4.572 -1.9216 -1.4588  0.8060
27069SOL     OW86336   7.543   5.266   5.492  0.2869  0.6703  0.4193
27069SOL    HW186337   7.454   5.243   5.517  0.3866  0.6059  0.7127
27069SOL    HW286338   7.598   5.232   5.562  0.7484 -1.2235 -0.8145
27070SOL     OW86339   7.433   6.112   9.965 -0.3434  0.3782  0.3071
27070SOL    HW186340   7.400   6.171   9.897 -0.9956 -1.8975 -1.4009
27070SOL    HW286341   7.354   6.075  10.005  0.0638  0.1436  0.9047
27071SOL     OW86342   0.591   9.639   7.900 -0.2705  0.2252  0.7581
27071SOL    HW186343   0.567   9.628   7.808 -0.6639 -0.2893  0.9179
27071SOL    HW286344   0.520   9.596   7.948  0.4126 -0.3334  1.2728
27072SOL     OW86345   9.828   3.708   1.080 -0.2110 -0.4649  0.0289
27072SOL    HW186346   9.892   3.700   1.010 -1.9515 -0.3193 -1.6073
27072SOL    HW286347   9.751   3.748   1.039 -0.6534  1.2389  2.4011
27073SOL     OW86348   7.358   9.825  10.146  0.1243 -0.5087  0.3821
27073SOL    HW186349   7.388   9.802  10.058 -0.5671 -0.9050  0.2438
27073SOL    HW286350   7.268   9.792  10.150 -0.5070  1.1948  0.5810
27074SOL     OW86351   3.268   0.671   9.777  0.1928 -0.0109  0.3611
27074SOL    HW186352   3.281   0.721   9.696  1.8498  0.7389  1.0801
27074SOL    HW286353   3.184   0.701   9.811  0.5176  1.2630  0.0465
27075SOL     OW86354   4.555  10.851   8.248  0.1146  0.3405  0.2150
27075SOL    HW186355   4.506  10.822   8.171  1.9498 -0.4769 -0.6580
27075SOL    HW286356   4.518  10.800   8.320 -0.7290  0.1749 -0.3290
27076SOL     OW86357   9.788   9.442   4.550 -0.0504  0.0044 -0.1600
27076SOL    HW186358   9.719   9.378   4.534  0.6897 -1.1266  1.0514
27076SOL    HW286359   9.743   9.527   4.552 -1.4134 -0.7272  0.7063
27077SOL     OW86360   3.024   9.414   8.483  0.0200 -0.5980  0.3200
27077SOL    HW186361   2.988   9.380   8.401  0.9499 -1.3470  0.2134
27077SOL    HW286362   3.078   9.488   8.456 -0.2020 -0.4344  0.3233
27078SOL     OW86363   9.996   6.047   0.226  0.0233 -0.3272  0.2111
27078SOL    HW186364   9.904   6.019   0.229  0.0496 -0.2365  2.5717
27078SOL    HW286365  10.043   5.976   0.269  0.8272  0.5111  0.7236
27079SOL     OW86366   7.988   7.634  10.291  0.1749 -0.3490 -0.0686
27079SOL    HW186367   8.033   7.558  10.330  0.6952 -0.1815 -0.3406
27079SOL    HW286368   7.939   7.671  10.364  0.8305 -0.2744  0.3476
27080SOL     OW86369   7.972   7.358   1.709 -0.7473  0.2862 -0.4282
27080SOL    HW186370   7.996   7.416   1.781 -2.6980  0.6603 -0.0308
27080SOL    HW286371   7.951   7.417   1.636 -1.8836  0.0746 -0.2916
27081SOL     OW86372   8.031   1.065   2.029 -0.2644  0.0929 -0.3037
27081SOL    HW186373   7.951   1.114   2.011 -0.7752 -0.5334  0.2821
27081SOL    HW286374   8.072   1.112   2.101 -1.1934 -0.8439  0.8415
27082SOL     OW86375  11.333   5.531   5.964 -0.2064 -0.1988 -0.7363
27082SOL    HW186376  11.317   5.616   6.005 -0.9343 -0.7115  0.0381
27082SOL    HW286377  11.428   5.526   5.956 -0.1636  0.7400 -0.8975
27083SOL     OW86378   0.356  10.152   5.451 -0.0701 -0.1935  0.0436
27083SOL    HW186379   0.386  10.231   5.496 -0.2906 -0.0274 -0.1081
27083SOL    HW286380   0.423  10.087   5.473  1.0149  0.4765 -1.2242
27084SOL     OW86381   9.046   0.920   3.597 -0.2216 -0.1902  0.0979
27084SOL    HW186382   9.054   0.933   3.502  1.1126 -0.0666  0.2248
27084SOL    HW286383   9.029   0.826   3.607 -2.1689  0.0958 -0.3584
27085SOL     OW86384   0.425   2.282  10.319  0.5049  0.4053 -0.0301
27085SOL    HW186385   0.460   2.198  10.348  0.4051  0.6567  0.8354
27085SOL    HW286386   0.415   2.272  10.224  0.2634 -0.6403  0.0922
27086SOL     OW86387   7.699   3.265   2.546  0.3710 -0.6100  0.4388
27086SOL    HW186388   7.638   3.293   2.477  1.2942 -0.7752 -0.4602
27086SOL    HW286389   7.677   3.173   2.561 -0.3645 -0.3566  0.9356
27087SOL     OW86390   9.678  10.125   9.246  0.0766  0.3401 -0.5871
27087SOL    HW186391   9.716  10.203   9.207  2.8679  0.1172  1.5706
27087SOL    HW286392   9.692  10.135   9.340 -0.1354 -2.4200 -0.2041
27088SOL     OW86393   5.429   7.746   6.168  0.5608  0.1759  0.5350
27088SOL    HW186394   5.490   7.742   6.094  0.9623  0.9052  0.8260
27088SOL    HW286395   5.433   7.658   6.206  1.0721  0.0801  0.2729
27089SOL     OW86396   6.119   4.235   8.608 -0.3649 -0.1477 -0.4170
27089SOL    HW186397   6.143   4.277   8.526 -0.9562  0.5513 -0.2253
27089SOL    HW286398   6.047   4.287   8.642 -0.6856 -0.9433  0.1238
27090SOL     OW86399   1.448   4.425   1.168 -0.0341  0.0377  0.3389
27090SOL    HW186400   1.493   4.445   1.085 -0.2811  2.6751  0.8157
27090SOL    HW286401   1.355   4.428   1.146 -0.1261  1.7941  0.9272
27091SOL     OW86402   0.165   1.816   7.667 -0.1495  0.2532 -0.3676
27091SOL    HW186403   0.113   1.762   7.607 -0.8097 -0.8349  1.1742
27091SOL    HW286404   0.109   1.892   7.686  0.8369  1.6152 -2.6485
27092SOL     OW86405   3.307   4.725   9.348  0.0097 -0.7256  0.0225
27092SOL    HW186406   3.271   4.786   9.412 -2.5061 -1.5270 -0.5612
27092SOL    HW286407   3.401   4.721   9.368 -0.2062  1.4311  1.6103
27093SOL     OW86408   8.567   1.867   3.249 -0.4653 -0.4843 -0.0073
27093SOL    HW186409   8.662   1.866   3.248 -0.4640 -1.3521  0.9145
27093SOL    HW286410   8.544   1.955   3.217  0.6352 -0.1685  0.0463
27094SOL     OW86411  10.707  10.499   8.986  0.3788 -0.3081 -0.4003
27094SOL    HW186412  10.774  10.477   9.052  0.7483 -0.0475 -0.6837
27094SOL    HW286413  10.666  10.579   9.020  0.3493 -0.3563 -0.3234
27095SOL     OW86414   2.013   9.585   6.342  0.1133 -0.7760 -0.2510
27095SOL    HW186415   2.063   9.663   6.317 -1.4130  0.1335 -0.5048
27095SOL    HW286416   2.055   9.555   6.423  0.4329  0.5714  0.1058
27096SOL     OW86417   8.214   1.966   7.424  0.2299  0.5429 -0.0427
27096SOL    HW186418   8.155   1.904   7.380  1.5216  0.3861 -1.5825
27096SOL    HW286419   8.155   2.029   7.466 -1.1065 -1.7239  1.5871
27097SOL     OW86420   3.815   2.059   2.739  0.1334 -0.2025  0.0709
27097SOL    HW186421   3.860   2.127   2.789 -0.9047 -0.8683  1.9785
27097SOL    HW286422   3.750   2.024   2.800  0.3760 -2.6401 -1.0208
27098SOL     OW86423   2.798   1.321   8.350 -0.1599  0.5580  0.5863
27098SOL    HW186424   2.727   1.302   8.412 -0.9644 -2.5434 -1.1507
27098SOL    HW286425   2.755   1.367   8.278  0.5432  3.0044  1.6634
27099SOL     OW86426   9.890   7.959   3.608  0.2825  0.1597  0.1017
27099SOL    HW186427   9.895   8.004   3.523  1.8853 -2.1270 -1.0895
27099SOL    HW286428   9.978   7.969   3.645 -0.2831  0.7513  1.3112
27100SOL     OW86429   1.302   2.045   5.068  0.0312 -0.4179 -0.7520
27100SOL    HW186430   1.253   2.090   4.999 -0.2545  0.3375 -0.0495
27100SOL    HW286431   1.236   1.997   5.117 -0.1959  1.6797  1.0306
27101SOL     OW86432   3.541   5.323   2.937  0.2111 -0.4410  0.4075
27101SOL    HW186433   3.447   5.306   2.930  0.1701  0.3870 -1.3952
27101SOL    HW286434   3.547   5.403   2.988  0.0479 -1.5331  2.1911
27102SOL     OW86435  10.786   1.027   6.091  0.0040 -0.1036  0.6303
27102SOL    HW186436  10.837   0.979   6.025  0.6305  0.0953  0.9640
27102SOL    HW286437  10.764   0.961   6.157 -0.2780 -0.2155  0.4269
27103SOL     OW86438   3.048   7.670   9.403 -0.1273  0.4540  0.2532
27103SOL    HW186439   3.016   7.722   9.476 -0.4794  0.8088 -0.1512
27103SOL    HW286440   3.140   7.655   9.423  0.1597  1.8435  0.0173
27104SOL     OW86441   4.724   4.810   7.445  0.0117 -0.5639 -0.2797
27104SOL    HW186442   4.733   4.734   7.502  0.0225  0.4001  1.0188
27104SOL    HW286443   4.698   4.773   7.361  0.8442 -2.0724  0.1021
27105SOL     OW86444   8.615  10.889   2.592  0.5706 -0.2216 -0.3085
27105SOL    HW186445   8.597  10.967   2.643  1.8337 -0.2745  0.2468
27105SOL    HW286446   8.607  10.817   2.655  1.4337 -0.3479 -0.3373
27106SOL     OW86447   2.873   7.299   0.230 -0.1513  0.0538  0.2176
27106SOL    HW186448   2.785   7.265   0.214 -1.1241  2.6373 -0.1986
27106SOL    HW286449   2.931   7.225   0.212 -2.0600 -0.9353 -2.1995
27107SOL     OW86450   1.757   6.493   8.510 -0.3566 -0.3948 -0.1501
27107SOL    HW186451   1.745   6.562   8.576 -0.9745  1.4983 -2.1803
27107SOL    HW286452   1.852   6.486   8.501 -0.2367 -1.2638  1.5135
27108SOL     OW86453   2.202   3.407   3.657  0.0556  0.0881 -0.5255
27108SOL    HW186454   2.292   3.437   3.670  0.3873 -0.8977 -0.5325
27108SOL    HW286455   2.171   3.458   3.582  1.4384 -1.3214 -2.1076
27109SOL     OW86456  11.128   8.196   6.955 -0.1825  0.0945  0.4425
27109SOL    HW186457  11.197   8.224   6.896 -0.0408  1.2783  1.1378
27109SOL    HW286458  11.146   8.104   6.973  0.2373 -0.0459 -0.7061
27110SOL     OW86459   1.779   7.124   5.565  0.4879 -0.3157  0.2271
27110SOL    HW186460   1.790   7.038   5.606  0.8477 -0.1779  0.4210
27110SOL    HW286461   1.801   7.109   5.473  0.6759 -0.4074  0.2857
27111SOL     OW86462   1.591   4.011   3.820  0.0253  0.0280  0.0189
27111SOL    HW186463   1.667   3.974   3.865  0.2789  0.3613 -0.1314
27111SOL    HW286464   1.515   3.978   3.869  0.1933 -1.5665 -0.7506
27112SOL     OW86465  10.170   5.112   9.064  0.3387 -0.4730 -0.4251
27112SOL    HW186466  10.103   5.050   9.091  0.2664 -1.1263 -2.0717
27112SOL    HW286467  10.125   5.196   9.060 -0.5251 -1.0028 -2.0517
27113SOL     OW86468   4.317   9.936   0.024 -0.1471  0.4336  1.1595
27113SOL    HW186469   4.318   9.887  -0.059  2.1812 -1.2288  2.0957
27113SOL    HW286470   4.238   9.989   0.019 -1.4394 -1.5447 -1.0219
27114SOL     OW86471   8.838   2.236  11.279  0.4203  0.4652  0.4268
27114SOL    HW186472   8.772   2.175  11.312  1.7992 -0.9880  0.5411
27114SOL    HW286473   8.794   2.321  11.281 -1.2572 -0.3799  1.0468
27115SOL     OW86474   4.586   6.474   7.931  0.5643  0.0167 -0.0680
27115SOL    HW186475   4.504   6.491   7.977 -0.2030 -1.2432 -0.9158
27115SOL    HW286476   4.635   6.555   7.939  0.0827  0.1274  2.1775
27116SOL     OW86477   2.262  10.165   1.391  0.5574 -0.1987 -0.3288
27116SOL    HW186478   2.326  10.101   1.421  0.3054 -0.8903 -1.2428
27116SOL    HW286479   2.177  10.122   1.405  0.3597  0.2144 -0.2694
27117SOL     OW86480   0.051   4.996   5.898  0.5387  0.0056 -0.6439
27117SOL    HW186481   0.026   4.905   5.886 -2.3189  0.6085  0.2382
27117SOL    HW286482   0.073   5.027   5.810 -0.3535 -1.0159 -1.2374
27118SOL     OW86483   2.924   1.019   1.697  0.2885 -0.4174  0.1505
27118SOL    HW186484   2.829   1.022   1.705  0.2633 -1.4939  0.3651
27118SOL    HW286485   2.951   0.943   1.750  1.1273 -0.9375 -0.9867
27119SOL     OW86486   5.765   1.640   3.444 -0.5707  0.5368  0.0666
27119SOL    HW186487   5.676   1.606   3.446 -0.1573 -0.5122  1.1758
27119SOL    HW286488   5.775   1.685   3.528  0.4307 -0.6360  0.5876
27120SOL     OW86489   2.736   1.862   4.529 -0.4757 -0.4270 -0.0957
27120SOL    HW186490   2.832   1.860   4.521 -0.1525 -2.8390  3.3527
27120SOL    HW286491   2.717   1.950   4.563  0.4318  0.1744 -1.0817
27121SOL     OW86492   8.844   3.978   6.678 -0.1409  0.0122  0.2291
27121SOL    HW186493   8.855   3.922   6.755 -0.8339  0.0234  0.3331
27121SOL    HW286494   8.775   3.936   6.628  0.1313  0.1507 -0.2657
27122SOL     OW86495  10.819   1.134  11.178  0.5210  0.1214 -0.2322
27122SOL    HW186496  10.831   1.105  11.087  0.6516  1.4218 -0.6442
27122SOL    HW286497  10.773   1.218  11.170  0.3896  0.1632  0.9189
27123SOL     OW86498  10.798   5.187   9.570  0.1212  0.4689 -0.6536
27123SOL    HW186499  10.739   5.114   9.589  1.2420 -0.1574  0.5182
27123SOL    HW286500  10.752   5.264   9.604  0.6701 -0.2355  1.7905
27124SOL     OW86501  10.679   1.779   6.181 -0.0863  0.1236 -0.0138
27124SOL    HW186502  10.667   1.793   6.275  0.8271  1.9558 -0.1489
27124SOL    HW286503  10.689   1.685   6.171 -0.7203 -0.1296  1.6587
27125SOL     OW86504   8.906   5.493  11.198 -0.3313 -0.7538  0.0738
27125SOL    HW186505   8.858   5.483  11.116 -0.6675  1.1678  0.0125
27125SOL    HW286506   8.997   5.505  11.171 -0.6872  1.6734 -0.1393
27126SOL     OW86507   5.138   9.378   9.926  0.2242 -0.2181  0.8727
27126SOL    HW186508   5.081   9.451   9.947 -0.5894 -0.3288 -0.8323
27126SOL    HW286509   5.080   9.313   9.887  1.1852 -1.1631  1.0002
27127SOL     OW86510   4.771   5.529   6.777  0.2410 -0.3012 -0.0488
27127SOL    HW186511   4.753   5.458   6.839  0.2720 -0.3822 -0.1315
27127SOL    HW286512   4.720   5.506   6.699 -0.1195  0.0087  0.0925
27128SOL     OW86513   1.619  10.845   2.389  0.0320 -0.0528 -0.2639
27128SOL    HW186514   1.623  10.907   2.316  0.4166 -0.0857 -0.2732
27128SOL    HW286515   1.600  10.760   2.347 -1.2151  0.1809 -0.1805
27129SOL     OW86516   1.091   1.895   5.145 -0.0534 -0.1828 -0.5072
27129SOL    HW186517   1.112   1.822   5.086 -0.6326  0.1320 -1.1021
27129SOL    HW286518   1.006   1.872   5.182  0.6661 -0.7711  0.8374
27130SOL     OW86519   1.518   5.021   6.162  0.0063 -0.6872  0.5076
27130SOL    HW186520   1.464   5.062   6.230 -0.7050 -1.8382  0.6366
27130SOL    HW286521   1.457   4.972   6.108  0.5324  0.4032 -1.1455
27131SOL     OW86522  10.064  11.107   3.631 -0.3142  0.4300  0.1796
27131SOL    HW186523  10.008  11.170   3.586  0.1348  0.3854 -0.4393
27131SOL    HW286524  10.021  11.093   3.716 -1.5566 -0.0403 -0.5170
27132SOL     OW86525   0.334   0.448   1.340  0.5200  0.0305  0.1759
27132SOL    HW186526   0.249   0.470   1.303  1.1760  1.4966 -0.4907
27132SOL    HW286527   0.325   0.356   1.367 -0.9408 -0.1301 -0.7991
27133SOL     OW86528   7.896   4.007   1.889  0.6995 -0.1531 -0.1995
27133SOL    HW186529   7.855   4.014   1.975 -0.3913 -0.7865 -0.6636
27133SOL    HW286530   7.838   4.055   1.830 -1.3053 -3.9325 -1.4904
27134SOL     OW86531   0.957  10.466   0.768 -0.6282  0.4304  0.0786
27134SOL    HW186532   0.995  10.516   0.697 -0.3774 -0.0546 -0.1282
27134SOL    HW286533   0.989  10.377   0.756 -0.6567  0.3230  0.7417
27135SOL     OW86534   8.247   1.259   1.114 -0.4840  0.2729 -0.0920
27135SOL    HW186535   8.282   1.346   1.129  0.6346 -0.0426 -0.8172
27135SOL    HW286536   8.204   1.265   1.028  1.2715 -0.3786 -1.0443
27136SOL     OW86537   0.081  11.331  11.073  0.4651 -0.4312 -0.0509
27136SOL    HW186538   0.094  11.256  11.131 -1.1946 -1.1106 -0.5550
27136SOL    HW286539   0.167  11.375  11.072  1.3887 -2.1812  0.4156
27137SOL     OW86540   3.148   4.380   1.663  0.7785  0.4612  0.0378
27137SOL    HW186541   3.222   4.361   1.720  0.0765 -0.1310  0.7586
27137SOL    HW286542   3.074   4.394   1.723  0.2818  0.9262 -0.6750
27138SOL     OW86543   9.269   3.355   1.373 -0.4187  0.5796  0.1527
27138SOL    HW186544   9.225   3.392   1.449  0.5742  0.3966  0.8308
27138SOL    HW286545   9.361   3.379   1.385  0.0321 -0.9787 -0.0704
27139SOL     OW86546  10.408   8.496   2.886 -0.0037  0.1174  0.4846
27139SOL    HW186547  10.436   8.407   2.909 -0.7491 -0.5041 -0.9329
27139SOL    HW286548  10.476   8.527   2.827  0.7253  0.8420  1.6985
27140SOL     OW86549   2.398   4.261   1.335  0.2048  0.0183  0.2086
27140SOL    HW186550   2.446   4.210   1.270  0.2479 -0.9841  1.0092
27140SOL    HW286551   2.306   4.240   1.318  0.1318  0.8206 -0.4027
27141SOL     OW86552   7.242   3.837   7.893  0.3361 -0.1567 -0.5035
27141SOL    HW186553   7.227   3.895   7.968  1.1911  0.4290 -0.7795
27141SOL    HW286554   7.319   3.874   7.849  0.2870 -0.9276 -1.2472
27142SOL     OW86555  10.267   0.302   0.048  0.7661 -0.3249  0.1157
27142SOL    HW186556  10.338   0.275   0.106  0.7751  0.6436  0.5593
27142SOL    HW286557  10.290   0.391   0.021 -0.7569  0.3661  1.0415
27143SOL     OW86558   8.678   8.114   0.448  0.1111  0.2331 -0.1445
27143SOL    HW186559   8.690   8.199   0.407 -2.1939  0.4130 -0.5465
27143SOL    HW286560   8.692   8.051   0.377 -1.5291  0.4441 -0.6782
27144SOL     OW86561   3.501   5.779   0.466 -0.1685 -0.3542 -0.1350
27144SOL    HW186562   3.438   5.711   0.491  1.8361 -2.1311  0.2882
27144SOL    HW286563   3.545   5.743   0.389  1.3092  0.2073  0.4331
27145SOL     OW86564   4.163   5.698   6.637  0.6129  0.1398  0.5879
27145SOL    HW186565   4.096   5.671   6.574  1.4564  1.3355 -0.8478
27145SOL    HW286566   4.243   5.655   6.608  0.6083 -0.8016  1.9466
27146SOL     OW86567   2.633   7.357  11.028 -0.6071  0.1371  0.0621
27146SOL    HW186568   2.680   7.438  11.010  0.3124 -0.2448  0.7104
27146SOL    HW286569   2.635   7.348  11.123  0.5068 -1.3331 -0.0681
27147SOL     OW86570   5.256  10.834   9.843 -0.9165 -0.2039 -0.0303
27147SOL    HW186571   5.329  10.868   9.895  0.9328 -0.6665 -2.2401
27147SOL    HW286572   5.265  10.739   9.847 -0.8738 -0.2458 -1.0013
27148SOL     OW86573   0.551   9.542   4.273 -0.2318 -0.2128  0.3724
27148SOL    HW186574   0.544   9.635   4.292  2.0274  0.0352  0.1200
27148SOL    HW286575   0.481   9.525   4.209 -0.0747  1.5005 -0.2726
27149SOL     OW86576   1.122   9.991   8.494 -0.3137 -0.2608  0.0293
27149SOL    HW186577   1.164  10.077   8.493 -0.1709 -0.2958  1.3802
27149SOL    HW286578   1.108   9.970   8.402 -0.4399  1.2458 -0.3155
27150SOL     OW86579  10.925   7.306   8.542 -0.6809  0.6547 -0.8433
27150SOL    HW186580  11.001   7.250   8.527 -1.0210 -0.3603  1.0242
27150SOL    HW286581  10.932   7.374   8.475  0.3848 -0.9475 -2.4063
27151SOL     OW86582   2.038  11.295   4.177  0.2800 -0.6830 -0.2769
27151SOL    HW186583   2.132  11.303   4.196  0.3844  0.1472 -1.0576
27151SOL    HW286584   2.013  11.210   4.212  0.3623  0.8607  3.8550
27152SOL     OW86585   1.017   5.651   4.401  0.0247 -0.4843  0.1519
27152SOL    HW186586   0.922   5.641   4.397 -0.2430  1.0572  1.7030
27152SOL    HW286587   1.047   5.635   4.312 -1.9740  1.4920 -0.9433
27153SOL     OW86588   2.939  10.575   2.357  0.1232 -0.3138 -0.5345
27153SOL    HW186589   2.986  10.492   2.362  0.1457 -0.2386  0.6721
27153SOL    HW286590   3.009  10.641   2.353  0.1282 -0.2355  0.6975
27154SOL     OW86591   6.134   5.255   6.069 -0.4351  0.3709 -0.0527
27154SOL    HW186592   6.074   5.188   6.101  1.2178 -1.3599 -0.4970
27154SOL    HW286593   6.082   5.306   6.007 -1.7361 -0.4717  0.3282
27155SOL     OW86594   9.317   2.463   8.813  0.1292 -0.0741 -1.0302
27155SOL    HW186595   9.266   2.535   8.775 -0.6219 -0.3838 -0.6196
27155SOL    HW286596   9.408   2.486   8.794  0.0200  1.8656  0.5460
27156SOL     OW86597   5.039   1.970   0.306  0.1308 -0.1825 -0.1265
27156SOL    HW186598   5.098   1.895   0.304 -1.0403 -1.0970 -1.5641
27156SOL    HW286599   4.958   1.937   0.344 -0.7359  0.0709 -1.7135
27157SOL     OW86600   0.386   4.002   2.302 -0.2343  0.3468  0.0823
27157SOL    HW186601   0.424   4.079   2.260 -0.2779 -0.0530 -0.7220
27157SOL    HW286602   0.309   3.982   2.248  0.1688 -0.6624 -0.1360
27158SOL     OW86603   5.527   4.129   9.244  0.0379 -0.0346  0.4978
27158SOL    HW186604   5.448   4.087   9.278 -0.4791 -0.2888 -0.9983
27158SOL    HW286605   5.515   4.131   9.149  1.3399  0.9165  0.3338
27159SOL     OW86606   1.490   5.489   9.660 -0.6333 -0.4310  0.3372
27159SOL    HW186607   1.473   5.446   9.744  1.4132 -1.2106  0.3728
27159SOL    HW286608   1.487   5.583   9.680  0.5622 -0.6223  1.4250
27160SOL     OW86609   2.414   3.247   0.253 -0.4383  0.5681 -0.3369
27160SOL    HW186610   2.403   3.266   0.346  0.7247 -0.3077 -0.0093
27160SOL    HW286611   2.330   3.271   0.213 -0.7414  1.4990  0.8440
27161SOL     OW86612   2.239   0.290   8.788 -0.4540 -0.2615  0.2277
27161SOL    HW186613   2.270   0.215   8.738 -1.6961 -0.3909 -0.3656
27161SOL    HW286614   2.292   0.289   8.868 -0.0539 -1.4197 -0.0434
27162SOL     OW86615   6.269   0.345  10.763 -0.3742 -0.2397 -0.1877
27162SOL    HW186616   6.309   0.418  10.810  0.1447  0.3468 -1.5167
27162SOL    HW286617   6.300   0.267  10.809  0.4963  0.3040  0.1512
27163SOL     OW86618   1.502   5.451   1.546  0.1565 -0.1456  0.0880
27163SOL    HW186619   1.571   5.514   1.526  0.6063 -0.4640  0.6639
27163SOL    HW286620   1.510   5.434   1.639 -0.7985 -0.0660  0.1925
27164SOL     OW86621   5.411   1.728   9.933  0.2839 -0.8298  0.3327
27164SOL    HW186622   5.450   1.641   9.921  0.8458 -0.5911  0.4278
27164SOL    HW286623   5.468   1.771   9.996 -0.3235 -0.5948  0.7188
27165SOL     OW86624   4.683   2.721   7.868 -0.3595  0.2448 -0.7218
27165SOL    HW186625   4.597   2.700   7.905 -0.4945  1.4400 -0.3306
27165SOL    HW286626   4.730   2.638   7.869  0.4627  0.6010  4.3589
27166SOL     OW86627   4.371   3.959   9.596  0.7162 -0.2689  0.0410
27166SOL    HW186628   4.392   3.975   9.504  1.0897 -2.0178 -0.2006
27166SOL    HW286629   4.344   3.868   9.598 -1.7389  0.4654  1.2671
27167SOL     OW86630   7.897  10.122   2.017  0.0082 -0.4251 -0.1166
27167SOL    HW186631   7.913  10.211   1.988 -0.4561 -0.9705 -2.0968
27167SOL    HW286632   7.825  10.091   1.963  2.9376 -3.4279 -2.4774
27168SOL     OW86633  10.497   3.305   4.088 -0.2397 -0.3854 -0.3362
27168SOL    HW186634  10.456   3.332   4.006 -0.9647 -0.3423  0.0381
27168SOL    HW286635  10.460   3.218   4.105  1.1497 -1.1057 -0.9032
27169SOL     OW86636   1.332   9.161   7.962  0.6144 -0.0886 -0.0834
27169SOL    HW186637   1.354   9.223   8.032 -0.4301 -1.7202  1.7404
27169SOL    HW286638   1.378   9.080   7.987 -0.1989 -0.8403 -1.0134
27170SOL     OW86639  10.294   5.641  10.142 -0.2134 -0.1808 -0.4238
27170SOL    HW186640  10.267   5.579  10.210 -1.4085  0.1531 -0.5946
27170SOL    HW286641  10.389   5.626  10.133 -0.2053 -0.8505  0.6757
27171SOL     OW86642   7.476   5.317  11.184 -0.4480  0.0284  0.2529
27171SOL    HW186643   7.435   5.252  11.241  1.8337 -0.2572  1.5888
27171SOL    HW286644   7.550   5.272  11.145  0.0329  1.2600 -0.2930
27172SOL     OW86645  10.964   5.139  10.733 -0.2696  0.6143  0.3197
27172SOL    HW186646  11.047   5.177  10.762  0.6469 -0.0576 -1.3518
27172SOL    HW286647  10.949   5.067  10.794  1.6551 -0.8046 -0.8271
27173SOL     OW86648  11.040   8.158   5.272 -0.3797 -0.0701 -0.2191
27173SOL    HW186649  11.107   8.090   5.263  1.9506  2.0742  0.5384
27173SOL    HW286650  11.035   8.198   5.185 -0.2337  0.1563 -0.1243
27174SOL     OW86651   9.408   9.986   8.389  0.5425  0.1627 -0.5833
27174SOL    HW186652   9.394  10.013   8.298 -2.9222  0.8461  0.0549
27174SOL    HW286653   9.422  10.068   8.436 -1.1932  0.1622 -0.0098
27175SOL     OW86654   4.138   0.828   2.470  0.1579  0.1907 -0.7475
27175SOL    HW186655   4.055   0.875   2.478 -0.9603 -1.9277  0.5284
27175SOL    HW286656   4.121   0.761   2.404  1.3599  0.7453 -1.6429
27176SOL     OW86657   7.384   4.563   3.806 -0.2450 -0.2705  0.2187
27176SOL    HW186658   7.321   4.635   3.809  1.1940  1.0500 -0.4864
27176SOL    HW286659   7.348   4.503   3.740 -0.9546  0.2892  0.0882
27177SOL     OW86660  10.853  11.008   8.540  0.0331  0.1965  0.2127
27177SOL    HW186661  10.890  11.078   8.486  1.2898  1.0330  2.0880
27177SOL    HW286662  10.921  10.942   8.544 -1.4344 -1.5316 -2.1660
27178SOL     OW86663   2.211   5.994   9.607  0.3151 -0.0080 -0.3428
27178SOL    HW186664   2.190   5.971   9.516 -1.9693 -0.8974  0.3664
27178SOL    HW286665   2.155   6.069   9.626 -0.3281 -0.7659  0.7854
27179SOL     OW86666   7.712   3.417   7.546  0.4537  1.1028 -0.4259
27179SOL    HW186667   7.662   3.485   7.591  2.1392 -0.1749  3.6008
27179SOL    HW286668   7.654   3.341   7.546  0.9046  0.7464  0.7626
27180SOL     OW86669  11.004   3.573   4.160  0.4105 -0.5589  0.7252
27180SOL    HW186670  11.024   3.482   4.139  0.9446 -0.4073  0.5648
27180SOL    HW286671  10.914   3.571   4.193  0.8735 -1.3335  1.9816
27181SOL     OW86672   8.746   5.885  10.054  0.2964  0.7031  0.3758
27181SOL    HW186673   8.713   5.807  10.099 -1.4393  0.8721 -0.5636
27181SOL    HW286674   8.689   5.895   9.978  2.0536  1.4808 -0.8683
27182SOL     OW86675   8.184   0.474   1.303  0.3917  0.2547 -0.3711
27182SOL    HW186676   8.118   0.489   1.371 -2.4506 -1.1824 -2.6530
27182SOL    HW286677   8.189   0.557   1.256 -0.0192  0.3050 -0.3324
27183SOL     OW86678   7.034  10.342   9.281 -0.1836  0.1887 -0.4652
27183SOL    HW186679   6.984  10.340   9.200  1.0809 -1.6101 -1.2316
27183SOL    HW286680   7.078  10.257   9.284  1.7064  1.1865  0.8916
27184SOL     OW86681   3.972   1.416   4.081  1.0407 -0.6443 -0.1181
27184SOL    HW186682   3.924   1.346   4.036  0.5797  0.0335 -0.6801
27184SOL    HW286683   4.032   1.369   4.139 -0.0692 -1.4982  0.3559
27185SOL     OW86684   6.784   7.439  10.744 -0.3466 -0.4299 -0.3162
27185SOL    HW186685   6.699   7.402  10.721 -0.5463 -0.1862  0.0265
27185SOL    HW286686   6.774   7.466  10.835  0.3306 -1.0853 -0.0428
27186SOL     OW86687   4.763  10.455   0.119  0.1893  0.2580 -0.6138
27186SOL    HW186688   4.697  10.422   0.058 -0.1720  0.0082 -0.0936
27186SOL    HW286689   4.832  10.491   0.063  0.1491 -0.5293 -1.1786
27187SOL     OW86690  10.682   8.454   0.311  0.0081  0.4922 -0.2471
27187SOL    HW186691  10.697   8.548   0.315  1.2721  0.3124 -0.5237
27187SOL    HW286692  10.626   8.435   0.386 -0.8108  1.5623 -0.5813
27188SOL     OW86693   9.682   5.478   0.842 -0.2561  0.0852 -0.4407
27188SOL    HW186694   9.675   5.510   0.752  1.9995 -0.7877 -0.9788
27188SOL    HW286695   9.775   5.457   0.852 -0.8205 -1.6759  1.4610
27189SOL     OW86696   4.016  10.787   2.568 -0.0136 -0.1321  0.5944
27189SOL    HW186697   4.019  10.875   2.606  2.0779 -0.1483  0.5283
27189SOL    HW286698   4.080  10.738   2.619  0.3956 -1.0476 -0.7922
27190SOL     OW86699   7.408   6.321   7.056 -0.1059 -0.3108  0.7086
27190SOL    HW186700   7.426   6.238   7.013  0.2026 -0.5837  1.3612
27190SOL    HW286701   7.313   6.330   7.052 -0.0939 -0.4112  0.1172
27191SOL     OW86702   9.442   2.984   9.687 -0.5961  0.5125  0.0104
27191SOL    HW186703   9.395   2.909   9.652 -2.6578  1.2355  1.1885
27191SOL    HW286704   9.459   3.039   9.610  0.0821 -0.6761 -0.7070
27192SOL     OW86705   5.066  11.245   0.860  0.0487  0.0322  0.4126
27192SOL    HW186706   5.128  11.189   0.813  0.7240  2.0987 -1.2669
27192SOL    HW286707   4.980  11.214   0.832  0.4126 -0.3450 -0.3182
27193SOL     OW86708   8.647  10.545   3.109 -0.6880  0.3275 -0.1894
27193SOL    HW186709   8.716  10.599   3.070 -1.0451 -0.0335 -1.3282
27193SOL    HW286710   8.644  10.573   3.201  0.2098  1.1298 -0.3976
27194SOL     OW86711   5.863   1.148  11.252  0.2027 -0.3434 -0.7744
27194SOL    HW186712   5.879   1.085  11.322  0.3387 -0.9979 -1.3885
27194SOL    HW286713   5.942   1.144  11.198 -0.1718 -0.3183 -1.3239
27195SOL     OW86714   7.483   7.771   6.220  0.8807 -0.2107  0.5593
27195SOL    HW186715   7.504   7.840   6.284 -1.0772 -0.6752  1.7474
27195SOL    HW286716   7.418   7.811   6.163 -1.8697 -1.6971  2.5528
27196SOL     OW86717   7.608   2.216   9.883 -0.4061 -0.1559 -0.2433
27196SOL    HW186718   7.572   2.299   9.916 -3.3602 -1.4268 -0.1342
27196SOL    HW286719   7.606   2.157   9.958  0.7276 -0.6481 -0.5824
27197SOL     OW86720   8.110   6.351   1.268 -0.5942 -0.3108 -0.0419
27197SOL    HW186721   8.154   6.361   1.352 -1.7856  0.2034  0.5396
27197SOL    HW286722   8.181   6.334   1.205  0.1950 -1.8924  1.2402
27198SOL     OW86723   7.901   5.000   5.601  0.8674  1.0962 -0.4556
27198SOL    HW186724   7.962   4.991   5.674  0.9372 -1.0309 -0.7614
27198SOL    HW286725   7.828   5.051   5.636  0.9446  0.1728  1.0764
27199SOL     OW86726   8.087  11.219   2.232 -0.3333 -0.2269  0.3419
27199SOL    HW186727   8.009  11.274   2.226 -0.7191 -0.8387 -0.2328
27199SOL    HW286728   8.103  11.191   2.143  0.0302 -0.8251  0.5959
27200SOL     OW86729   9.514   3.553   6.825  0.7120 -0.7366 -0.6568
27200SOL    HW186730   9.433   3.550   6.773  0.5855  1.1722 -0.6139
27200SOL    HW286731   9.574   3.605   6.771  1.2814 -0.5523  0.1550
27201SOL     OW86732   0.079   2.890   1.770 -0.0889  0.5429  0.4939
27201SOL    HW186733   0.124   2.957   1.822  0.8032 -0.3099  0.8203
27201SOL    HW286734   0.110   2.807   1.805 -1.5972 -0.0538  0.4302
27202SOL     OW86735   4.296   9.925   2.261 -0.0071 -0.4647  0.0621
27202SOL    HW186736   4.295  10.014   2.226  1.5495 -0.0005  1.1755
27202SOL    HW286737   4.375   9.885   2.225  0.2035 -0.8359  0.9235
27203SOL     OW86738   2.833   4.551   0.938  0.4831  0.5741  0.3005
27203SOL    HW186739   2.751   4.526   0.980 -0.3045  2.5358 -0.0511
27203SOL    HW286740   2.857   4.635   0.977  0.3441  1.8681 -2.2778
27204SOL     OW86741   9.051   9.435   5.855  0.4457  0.3267  0.1358
27204SOL    HW186742   9.006   9.447   5.938 -0.6325  0.2679 -0.4350
27204SOL    HW286743   8.999   9.369   5.809  0.4785  1.0718 -0.9874
27205SOL     OW86744   5.118   3.865   0.816 -0.5173  0.2327  0.0883
27205SOL    HW186745   5.100   3.814   0.895 -0.4953  0.5457  0.2941
27205SOL    HW286746   5.151   3.800   0.753  2.4552  0.4405  1.3197
27206SOL     OW86747   7.317   2.712   6.030 -0.3574  0.4570 -0.0562
27206SOL    HW186748   7.292   2.715   6.122 -1.0054  0.3422 -0.2259
27206SOL    HW286749   7.328   2.803   6.004  1.5059  0.4280  0.5850
27207SOL     OW86750   4.825   4.881   0.458  0.4426  0.2486  0.4504
27207SOL    HW186751   4.761   4.900   0.389 -0.2148  0.5000  1.1279
27207SOL    HW286752   4.900   4.936   0.436  0.2398  0.3251 -0.0678
27208SOL     OW86753   7.692   9.943   7.136  0.2081  0.6022 -0.3342
27208SOL    HW186754   7.754   9.871   7.121 -0.6562 -0.2889  0.2393
27208SOL    HW286755   7.619   9.923   7.078 -0.1067  0.9315 -0.0531
27209SOL     OW86756   4.561   7.234  10.499 -0.0119 -0.1775  0.0318
27209SOL    HW186757   4.604   7.193  10.424  0.9399  2.0613 -0.7028
27209SOL    HW286758   4.482   7.273  10.463  0.3936  0.8164  0.2055
27210SOL     OW86759   7.360   7.100   0.812  0.2086 -0.3231 -0.1706
27210SOL    HW186760   7.323   7.023   0.768 -1.7551  0.1890  0.5085
27210SOL    HW286761   7.288   7.164   0.810  1.1020  0.7275  1.1721
27211SOL     OW86762   3.780   0.473   6.102  0.7406 -0.5478  0.3287
27211SOL    HW186763   3.834   0.544   6.136 -0.2515  0.0774  0.6353
27211SOL    HW286764   3.836   0.427   6.040  1.1976  0.9004 -0.3641
27212SOL     OW86765  10.678   2.752   7.187 -0.2794  0.6291  0.5016
27212SOL    HW186766  10.756   2.707   7.155  0.0272  1.0407  0.6620
27212SOL    HW286767  10.612   2.739   7.119  0.2343  1.1409 -0.1037
27213SOL     OW86768   9.636   8.554   2.552 -0.5092  0.3450  0.1611
27213SOL    HW186769   9.579   8.479   2.536 -0.5870  0.1410  1.3705
27213SOL    HW286770   9.714   8.517   2.594 -0.4401  0.8981  0.5337
27214SOL     OW86771   9.780   7.717  10.207  0.2415  0.1970  0.5920
27214SOL    HW186772   9.804   7.799  10.165 -1.6643  0.1048 -0.7648
27214SOL    HW286773   9.808   7.649  10.146 -0.1222 -0.0558  0.7036
27215SOL     OW86774   2.033   7.130   2.751 -0.2295  0.0411 -0.4047
27215SOL    HW186775   2.100   7.067   2.777  3.0554  2.9217 -1.5777
27215SOL    HW286776   2.028   7.122   2.656  1.4515  2.5942 -0.7711
27216SOL     OW86777  10.402   7.146   5.342 -0.1634 -0.2661 -0.1069
27216SOL    HW186778  10.479   7.175   5.293 -0.0676 -1.3834 -0.6490
27216SOL    HW286779  10.342   7.115   5.274 -1.1370  0.7201  0.3046
27217SOL     OW86780   4.263   4.784   8.273 -0.0893  0.1009  0.3074
27217SOL    HW186781   4.257   4.783   8.178  0.2010  0.0550  0.2888
27217SOL    HW286782   4.327   4.716   8.294  1.3299  1.4190  0.4086
27218SOL     OW86783   2.048   3.144  10.109 -0.2882  0.0383  0.5562
27218SOL    HW186784   2.135   3.131  10.145 -0.1717  0.8880  0.5922
27218SOL    HW286785   2.046   3.236  10.082 -0.7481 -0.3007 -0.5955
27219SOL     OW86786   2.088   8.206   1.823  0.2141  0.1602 -0.1324
27219SOL    HW186787   2.072   8.167   1.737 -0.1450  1.3493 -0.6228
27219SOL    HW286788   2.077   8.300   1.809 -0.5939  0.3143  1.3828
27220SOL     OW86789   7.275   3.373   2.257 -0.1243 -0.3749  0.0808
27220SOL    HW186790   7.232   3.451   2.222 -0.1003 -0.4440 -0.1027
27220SOL    HW286791   7.332   3.406   2.326 -1.4009 -0.4242  1.1576
27221SOL     OW86792  10.100  10.268   9.947  0.0205  0.1004 -0.9571
27221SOL    HW186793  10.112  10.191   9.891 -1.8843 -0.6281 -0.4127
27221SOL    HW286794  10.156  10.250  10.023  0.1981 -0.3953 -1.2010
27222SOL     OW86795   2.907   8.265   4.469 -0.0739  0.2687 -0.4722
27222SOL    HW186796   2.849   8.192   4.490  1.1856 -0.4545  0.6628
27222SOL    HW286797   2.971   8.228   4.408  0.2435  0.5520 -0.3183
27223SOL     OW86798   9.040   6.072   8.954  0.0575 -0.2269  0.1638
27223SOL    HW186799   8.964   6.024   8.987  0.6541 -1.5319 -0.2986
27223SOL    HW286800   9.046   6.046   8.862 -0.1830  1.5177 -0.3582
27224SOL     OW86801  11.165   0.968   3.878 -0.0713 -0.3850 -0.1801
27224SOL    HW186802  11.239   0.929   3.831  0.2112  0.6854 -0.6366
27224SOL    HW286803  11.089   0.949   3.822  0.1830  0.3985 -0.7988
27225SOL     OW86804  11.038   2.000   5.285  0.5549  0.5443  0.2807
27225SOL    HW186805  11.078   2.081   5.253  0.6415  0.2955 -0.2652
27225SOL    HW286806  11.075   1.932   5.227  0.0161  0.2001  0.3423
27226SOL     OW86807   0.456  10.003   6.636 -0.3341  0.2048  0.7778
27226SOL    HW186808   0.504   9.921   6.624 -0.9268  0.2399 -2.1439
27226SOL    HW286809   0.520  10.063   6.674  0.8803 -0.8384  0.4017
27227SOL     OW86810   9.187   9.409   4.850 -0.0580 -0.6368  0.0923
27227SOL    HW186811   9.279   9.388   4.861  1.4156  4.2249 -1.6307
27227SOL    HW286812   9.174   9.414   4.756 -2.0537 -1.0232  0.3100
27228SOL     OW86813   4.079   5.588   4.280 -0.4612  0.2299  0.5527
27228SOL    HW186814   4.003   5.622   4.233 -0.2523  1.7157  1.2493
27228SOL    HW286815   4.152   5.600   4.221 -0.7533 -1.2114 -0.1234
27229SOL     OW86816  10.743   7.667   0.132  0.1439 -0.2826 -0.4275
27229SOL    HW186817  10.798   7.589   0.122  0.5391  0.3122 -3.3746
27229SOL    HW286818  10.803   7.733   0.167  0.4611 -0.5908 -0.3752
27230SOL     OW86819   9.173   7.853  10.648 -0.4675  0.3656 -0.3021
27230SOL    HW186820   9.164   7.759  10.664  1.5061  0.1480 -0.4355
27230SOL    HW286821   9.098   7.875  10.593  0.8353 -1.7966 -3.0589
27231SOL     OW86822   7.852   8.555   3.635  0.0580  0.3297 -0.1098
27231SOL    HW186823   7.773   8.523   3.679  1.0703 -0.4918  1.1256
27231SOL    HW286824   7.887   8.622   3.695  0.4381  0.5041 -0.5268
27232SOL     OW86825   3.955   0.895  10.587  0.0813 -0.2684  0.7276
27232SOL    HW186826   3.861   0.909  10.572  0.0768  0.5530  1.4957
27232SOL    HW286827   3.970   0.929  10.675  1.4417  1.1736 -0.0491
27233SOL     OW86828   4.252   1.547   7.886 -0.3040  0.4001 -0.2573
27233SOL    HW186829   4.247   1.482   7.956  2.2671  0.8260  0.3903
27233SOL    HW286830   4.262   1.630   7.931  0.7834  0.7439 -1.0856
27234SOL     OW86831  10.759   4.045   2.038  0.2213  0.1049  0.1021
27234SOL    HW186832  10.770   4.123   2.092 -0.1374 -0.3312  0.8168
27234SOL    HW286833  10.847   4.027   2.004  0.9319 -0.8907  2.3451
27235SOL     OW86834   5.508   1.724   5.929 -0.8474  0.2327  0.4079
27235SOL    HW186835   5.510   1.708   6.023  0.3999 -1.2666  0.1529
27235SOL    HW286836   5.593   1.765   5.910 -1.5500  1.5902  0.0937
27236SOL     OW86837   2.649   1.011   5.456  0.1455 -0.4124  0.0714
27236SOL    HW186838   2.711   0.994   5.527  1.0509 -1.4136 -0.9370
27236SOL    HW286839   2.586   0.939   5.462 -3.4164  2.7481  3.6679
27237SOL     OW86840   5.781   6.473   9.863  0.4889 -0.0893  0.0031
27237SOL    HW186841   5.859   6.521   9.889 -0.4428  0.9306  0.9185
27237SOL    HW286842   5.813   6.411   9.797  1.9598  0.7331 -0.0855
27238SOL     OW86843  10.121   2.386   3.346 -0.4206 -0.0009  0.2409
27238SOL    HW186844  10.046   2.336   3.315 -0.6064  0.1174  0.4980
27238SOL    HW286845  10.123   2.464   3.289 -1.3525  0.6991  1.1591
27239SOL     OW86846  10.023   6.040   1.388  1.1165 -0.1171  0.7215
27239SOL    HW186847  10.035   5.955   1.346 -0.1775  1.5576 -3.1921
27239SOL    HW286848   9.948   6.028   1.446 -0.3131 -1.1509 -1.2982
27240SOL     OW86849  11.083   6.605   0.764 -0.0134  0.1307 -0.3640
27240SOL    HW186850  11.058   6.580   0.853  2.4575  0.9541  0.5976
27240SOL    HW286851  11.088   6.523   0.716 -0.3253 -0.4239  0.5427
27241SOL     OW86852   6.789   4.349   9.713  0.3658  0.5455  0.0220
27241SOL    HW186853   6.720   4.409   9.739 -0.2587  0.5839 -1.6784
27241SOL    HW286854   6.744   4.265   9.700  0.7046  0.4628 -0.6387
27242SOL     OW86855   1.031   8.253   9.396 -0.2007 -0.0579 -0.6423
27242SOL    HW186856   1.091   8.205   9.453 -0.6959  1.4018  1.1521
27242SOL    HW286857   1.081   8.330   9.369 -0.9755  0.7396  0.1845
27243SOL     OW86858   8.025   9.903   5.719 -0.0773 -0.7185  0.4806
27243SOL    HW186859   8.008   9.994   5.743 -0.4066 -0.6186 -0.1076
27243SOL    HW286860   8.095   9.908   5.654  0.2526 -0.9223  0.8182
27244SOL     OW86861   7.066   5.648   6.951  0.6577  0.1169  0.0624
27244SOL    HW186862   6.977   5.667   6.923  0.3522 -0.1686  0.8231
27244SOL    HW286863   7.063   5.558   6.983  0.7593  0.7500  1.9107
27245SOL     OW86864   3.573   2.509   4.114  0.2739  0.0833  0.1002
27245SOL    HW186865   3.636   2.500   4.185 -0.3705 -2.9529  0.3271
27245SOL    HW286866   3.526   2.590   4.134  0.4316 -0.4544  2.8747
27246SOL     OW86867   9.664  11.221   8.328  0.0294 -0.5579 -0.1210
27246SOL    HW186868   9.643  11.130   8.344  0.4017 -0.3363  1.8649
27246SOL    HW286869   9.682  11.226   8.234 -1.2123 -2.2530 -0.4673
27247SOL     OW86870   7.590   3.067   4.767  0.1078 -0.4248  0.2653
27247SOL    HW186871   7.573   3.161   4.777  0.5981 -0.2696 -0.3146
27247SOL    HW286872   7.685   3.060   4.763  0.1127 -1.0513  1.2595
27248SOL     OW86873   8.063   3.140   4.678 -0.2234 -0.7525  0.6541
27248SOL    HW186874   8.063   3.210   4.613  2.2862  0.2144  1.6205
27248SOL    HW286875   8.140   3.088   4.658  0.3390 -0.7008  2.5752
27249SOL     OW86876  10.098   3.331   0.613 -0.2992 -0.0654 -0.2771
27249SOL    HW186877  10.150   3.380   0.676 -1.3832  2.0580 -0.9910
27249SOL    HW286878  10.159   3.310   0.542  0.0536  0.7129 -0.2031
27250SOL     OW86879   4.329   5.377   1.275  0.1437 -0.5642 -0.6781
27250SOL    HW186880   4.294   5.455   1.232  1.0015 -1.0171 -2.2301
27250SOL    HW286881   4.253   5.329   1.305 -0.3989  0.9000  0.3533
27251SOL     OW86882   5.699  10.617  10.417 -0.7531 -0.3594 -0.6019
27251SOL    HW186883   5.781  10.578  10.446 -0.0328  1.2671 -0.4256
27251SOL    HW286884   5.677  10.568  10.337  1.2820  0.3168 -1.6152
27252SOL     OW86885   1.902   4.385   0.154 -0.4733 -0.4729 -0.6974
27252SOL    HW186886   1.871   4.303   0.194  1.7754 -1.0806 -0.1545
27252SOL    HW286887   1.968   4.418   0.215 -1.0507  1.5495 -1.1275
27253SOL     OW86888   0.288  11.203   4.575 -0.6206 -0.3190 -0.5428
27253SOL    HW186889   0.335  11.280   4.609 -1.7899  0.8804 -1.5521
27253SOL    HW286890   0.210  11.196   4.629 -0.4384 -0.8924 -0.3544
27254SOL     OW86891   2.621   0.523   7.762 -0.4496  0.2841 -0.4437
27254SOL    HW186892   2.570   0.551   7.686 -1.0148  0.2755 -0.0682
27254SOL    HW286893   2.707   0.501   7.726 -0.0934  2.1450 -0.8068
27255SOL     OW86894   0.895   8.147   0.660 -0.2397 -0.0031 -0.0551
27255SOL    HW186895   0.944   8.065   0.670  0.0998  0.3116  0.9314
27255SOL    HW286896   0.952   8.203   0.607  0.9784  0.7583  2.0100
27256SOL     OW86897   6.475   9.558   1.973 -0.4199 -0.7101  0.2902
27256SOL    HW186898   6.465   9.471   1.935 -0.2192 -0.6723  0.1555
27256SOL    HW286899   6.402   9.609   1.936  0.2171 -0.4599 -0.6454
27257SOL     OW86900   9.012   8.950   4.056  0.6980 -0.5729 -0.6210
27257SOL    HW186901   8.977   9.014   4.118 -4.4808 -2.0343 -1.7909
27257SOL    HW286902   9.040   9.003   3.981 -1.4129  0.5518 -0.6554
27258SOL     OW86903   5.554  11.081   5.822 -0.5061 -0.5184 -0.5019
27258SOL    HW186904   5.604  11.035   5.889 -1.0344  0.6535  0.7291
27258SOL    HW286905   5.509  11.012   5.774  0.5148 -1.4311 -0.1808
27259SOL     OW86906   4.586  10.184   9.436 -0.7578  0.2205  0.3254
27259SOL    HW186907   4.564  10.237   9.359  0.7141  1.6329  0.8460
27259SOL    HW286908   4.596  10.248   9.507  0.9356 -0.7428  0.9941
27260SOL     OW86909   8.585   1.121   3.762  0.2487 -0.7698 -0.0368
27260SOL    HW186910   8.566   1.095   3.671  1.1841 -0.5862 -0.2848
27260SOL    HW286911   8.680   1.117   3.769  0.1232 -1.7147  1.2318
27261SOL     OW86912  11.055   3.303   1.802  0.2544 -0.5231 -0.2189
27261SOL    HW186913  11.070   3.290   1.895 -2.3320 -1.5745  0.0960
27261SOL    HW286914  11.008   3.224   1.774 -0.3386  0.4445 -2.0729
27262SOL     OW86915   2.267   5.001   7.055 -0.5356 -0.0186 -0.5409
27262SOL    HW186916   2.245   4.989   6.963 -1.3038  0.7278 -0.4665
27262SOL    HW286917   2.353   4.962   7.065 -0.3660  0.0672 -1.6197
27263SOL     OW86918  11.192   7.128   4.476  0.0704  0.3266  0.1455
27263SOL    HW186919  11.110   7.080   4.486 -1.1258  2.2356 -0.3231
27263SOL    HW286920  11.235   7.086   4.402  0.1952 -1.6050  1.2776
27264SOL     OW86921   6.466  11.245  10.915  0.4724  0.2132  0.4457
27264SOL    HW186922   6.495  11.196  10.992 -2.6183  0.3671  1.7778
27264SOL    HW286923   6.453  11.178  10.847  1.9600 -0.0723  0.4274
27265SOL     OW86924   3.261  10.173  10.675 -0.4859  0.2423 -0.1706
27265SOL    HW186925   3.305  10.094  10.706 -0.7583  0.5649  1.0543
27265SOL    HW286926   3.185  10.140  10.627  0.5097 -0.2841 -1.4029
27266SOL     OW86927   1.660   2.727   8.330  0.3494 -0.1765  0.9891
27266SOL    HW186928   1.621   2.722   8.417 -1.4444 -0.9032  0.1536
27266SOL    HW286929   1.715   2.649   8.324 -0.4184 -0.7191  1.0348
27267SOL     OW86930   3.435   9.197   9.340 -0.1833 -0.5960 -0.3344
27267SOL    HW186931   3.340   9.207   9.346  0.0056  1.0610  0.1857
27267SOL    HW286932   3.452   9.187   9.247 -0.8378 -0.4006 -0.4795
27268SOL     OW86933   3.952   0.996   0.750  0.0373 -0.5127  0.1813
27268SOL    HW186934   3.962   1.086   0.781  1.0921 -0.4280 -0.3637
27268SOL    HW286935   3.872   0.965   0.792 -1.3872  1.2975 -1.1418
27269SOL     OW86936  10.021   0.804   7.233  0.0171  0.6705  0.4752
27269SOL    HW186937  10.081   0.733   7.209  0.0205  0.2839  1.5933
27269SOL    HW286938  10.047   0.877   7.176 -1.1916 -0.7593 -2.0106
27270SOL     OW86939   9.698   4.755   0.592  0.0308  0.1587 -0.4949
27270SOL    HW186940   9.683   4.696   0.666 -1.2280 -0.3014 -1.1045
27270SOL    HW286941   9.645   4.832   0.612  0.0410  0.2202 -0.7066
27271SOL     OW86942   2.278   6.298  10.571  0.4054 -0.0690  0.0112
27271SOL    HW186943   2.205   6.360  10.558  0.3567 -0.7145 -3.3614
27271SOL    HW286944   2.235   6.215  10.589  0.4230  0.2247  1.5150
27272SOL     OW86945   8.938   1.863  10.675 -0.5852  0.0186 -0.0765
27272SOL    HW186946   8.844   1.875  10.665 -0.8200 -1.2628  0.5210
27272SOL    HW286947   8.965   1.931  10.737 -0.7737  1.6294 -1.7167
27273SOL     OW86948  10.651   9.038   0.453 -0.4686 -0.3577  0.0447
27273SOL    HW186949  10.715   8.974   0.484 -0.6020 -0.0947  0.8966
27273SOL    HW286950  10.650   9.028   0.358  1.0728 -0.1401  0.0048
27274SOL     OW86951   8.557  10.086   8.942  0.1600  0.1450 -0.4551
27274SOL    HW186952   8.484  10.101   8.882 -0.5353  0.3875  0.4288
27274SOL    HW286953   8.515  10.059   9.024  1.0416  0.7132  0.1938
27275SOL     OW86954   9.822   4.797  11.241  0.5025  0.2061  0.4515
27275SOL    HW186955   9.779   4.878  11.266  0.0054  0.4926 -1.2968
27275SOL    HW286956   9.778   4.729  11.293 -0.4210  0.7949  0.4325
27276SOL     OW86957   9.613   0.173   4.601 -0.3689 -0.4266  0.8477
27276SOL    HW186958   9.681   0.232   4.568  0.1561 -0.4837  1.8154
27276SOL    HW286959   9.603   0.107   4.533 -0.2764  0.2418  0.1849
27277SOL     OW86960   8.238   6.366   7.827  0.2940  0.5920  0.4343
27277SOL    HW186961   8.146   6.344   7.842  0.3709 -0.0100  0.0735
27277SOL    HW286962   8.286   6.310   7.888  0.4195  0.9167  0.6324
27278SOL     OW86963   4.610   5.578   9.586 -0.1302 -0.6849 -0.0767
27278SOL    HW186964   4.613   5.523   9.664  0.1875 -0.4041  0.1107
27278SOL    HW286965   4.701   5.598   9.567 -0.2561  0.1123  0.1020
27279SOL     OW86966   5.611   6.379   4.470 -1.2926 -0.3846  0.0509
27279SOL    HW186967   5.516   6.382   4.455 -1.0135  0.6532 -1.5734
27279SOL    HW286968   5.649   6.408   4.388  0.5004 -2.3227  0.1609
27280SOL     OW86969   4.200   9.817   3.827 -0.3021  0.0420 -0.3172
27280SOL    HW186970   4.259   9.861   3.888 -1.7371 -0.1118  1.2114
27280SOL    HW286971   4.182   9.883   3.759  0.2965  0.6504  0.1067
27281SOL     OW86972   1.001   5.084   2.577 -0.1026  0.7081 -0.0067
27281SOL    HW186973   0.954   5.156   2.535 -0.3316  1.3206  1.2834
27281SOL    HW286974   1.002   5.107   2.670  0.9417 -0.3270  0.2422
27282SOL     OW86975   6.185   0.644   2.956  0.1226  0.2551  0.1779
27282SOL    HW186976   6.204   0.716   2.896  0.4076  0.6640  0.7547
27282SOL    HW286977   6.247   0.656   3.028 -2.4697  1.7882  2.2400
27283SOL     OW86978   0.890   3.593   4.019  0.1719 -0.1540  0.1474
27283SOL    HW186979   0.950   3.519   4.022  2.0317  1.3462  1.5123
27283SOL    HW286980   0.900   3.635   4.105 -1.7155  0.9960 -0.1693
27284SOL     OW86981   1.807   9.330   6.932 -0.0949  0.3972  0.4596
27284SOL    HW186982   1.897   9.323   6.963 -0.1039  0.3941  0.4848
27284SOL    HW286983   1.798   9.257   6.870 -0.1354  0.2896  0.5919
27285SOL     OW86984   9.351   4.824   1.809 -0.4009  0.0691 -0.7875
27285SOL    HW186985   9.442   4.813   1.780 -0.0087 -0.2136  0.5253
27285SOL    HW286986   9.320   4.901   1.761  1.2720  1.5696  0.4669
27286SOL     OW86987   6.414   0.973   6.603  0.0337  0.0572  0.0250
27286SOL    HW186988   6.447   0.950   6.516 -1.5456  0.9090 -0.8284
27286SOL    HW286989   6.321   0.949   6.601  0.2210 -0.8960  1.8483
27287SOL     OW86990   7.460   6.465   2.030 -0.7808 -0.2288 -0.0830
27287SOL    HW186991   7.454   6.398   1.961  1.0835 -2.8026  2.1241
27287SOL    HW286992   7.553   6.487   2.032 -1.0656  0.8908  0.6353
27288SOL     OW86993   4.628  10.902  10.799 -0.0481  0.9920 -0.1032
27288SOL    HW186994   4.581  10.818  10.801 -0.8234  1.4021 -0.6869
27288SOL    HW286995   4.660  10.909  10.709 -0.5322  1.6157 -0.2283
27289SOL     OW86996   0.883   9.599   4.272  0.8235  0.0716  0.1153
27289SOL    HW186997   0.829   9.524   4.296  0.6445 -0.2242 -1.1452
27289SOL    HW286998   0.871   9.661   4.344  0.8646 -1.0459  1.1037
27290SOL     OW86999   3.469   2.471   9.374  0.6247  0.3753 -0.1941
27290SOL    HW187000   3.374   2.483   9.379  0.5029 -0.3193 -0.6811
27290SOL    HW287001   3.493   2.434   9.459  0.2838 -0.5059 -0.4688
27291SOL     OW87002  10.271   1.928   3.966  0.2866  0.1773  0.0825
27291SOL    HW187003  10.329   1.997   3.934 -0.2870  0.5710 -0.1212
27291SOL    HW287004  10.208   1.914   3.895  0.5886 -0.7769  0.0024
27292SOL     OW87005  10.500   4.273   0.369  0.0832 -0.2342  0.8850
27292SOL    HW187006  10.434   4.326   0.412  0.3576 -0.0992  1.1408
27292SOL    HW287007  10.583   4.303   0.405  0.3581  0.2573 -0.1337
27293SOL     OW87008   3.802   1.581   8.548  0.6906  0.0187 -0.2638
27293SOL    HW187009   3.879   1.526   8.532 -0.1303 -1.3152  0.2458
27293SOL    HW287010   3.755   1.535   8.617 -0.7795  0.6000 -0.8726
27294SOL     OW87011  10.253   0.313   1.910  0.1718  0.3630  0.7236
27294SOL    HW187012  10.189   0.246   1.885 -0.1547  0.0358  2.3754
27294SOL    HW287013  10.203   0.394   1.910 -0.1932  0.1445  1.7574
27295SOL     OW87014   8.517   7.086   8.951 -0.1028  0.1357 -0.5226
27295SOL    HW187015   8.607   7.090   8.920 -0.5846 -0.1061 -1.9923
27295SOL    HW287016   8.486   7.000   8.924 -0.6871  0.1032  0.2325
27296SOL     OW87017   9.101   8.341   7.872 -0.5032 -0.3398 -0.1713
27296SOL    HW187018   9.023   8.342   7.927  0.4401  2.6119  1.2140
27296SOL    HW287019   9.174   8.348   7.933  0.8027 -1.8809 -1.5186
27297SOL     OW87020   1.543   2.064   1.021 -0.2221  0.6885  0.5434
27297SOL    HW187021   1.632   2.031   1.035 -0.3692 -0.0257 -0.2143
27297SOL    HW287022   1.556   2.150   0.980  0.0973  0.1716 -0.4305
27298SOL     OW87023   3.242   0.004  10.659  0.0877  0.3567 -0.1276
27298SOL    HW187024   3.257   0.013  10.565  0.0292  1.1525 -0.0637
27298SOL    HW287025   3.319  -0.044  10.691 -0.5622 -1.1627 -0.7965
27299SOL     OW87026   6.677   2.679   1.481  0.1879  0.1048  0.5121
27299SOL    HW187027   6.713   2.746   1.539 -1.4473  2.9560 -1.6045
27299SOL    HW287028   6.749   2.659   1.421  0.4992  0.4547  0.7592
27300SOL     OW87029   5.535   7.569   2.248  0.3772 -0.2089  0.0015
27300SOL    HW187030   5.582   7.591   2.168 -0.1708 -1.5134 -0.7008
27300SOL    HW287031   5.523   7.652   2.293  1.0718  0.4794 -1.0619
27301SOL     OW87032   1.591   5.247   1.397 -0.1749 -0.1472  0.2702
27301SOL    HW187033   1.522   5.180   1.396  1.4124 -1.8302  0.3309
27301SOL    HW287034   1.560   5.313   1.459 -0.7913 -1.9329  1.9016
27302SOL     OW87035   9.477   5.073   6.694 -0.0855 -0.4791 -0.0615
27302SOL    HW187036   9.493   5.069   6.789  1.7282 -0.4923 -0.3461
27302SOL    HW287037   9.563   5.060   6.655 -0.9895 -1.6136 -1.7497
27303SOL     OW87038   9.519   0.364   8.682  0.1009  0.6920 -0.2600
27303SOL    HW187039   9.514   0.431   8.749 -0.3964  0.7550 -0.3555
27303SOL    HW287040   9.428   0.339   8.666  0.2627  0.1929 -0.4190
27304SOL     OW87041   1.544   2.803   9.199 -0.0264 -0.1859  0.2011
27304SOL    HW187042   1.481   2.828   9.266 -0.0424 -2.3422  1.0247
27304SOL    HW287043   1.490   2.770   9.127  0.0594  0.8371 -0.3537
27305SOL     OW87044   1.192   4.861   2.533  0.2927 -0.6861 -0.3936
27305SOL    HW187045   1.142   4.937   2.561  0.1640 -0.8431 -0.1924
27305SOL    HW287046   1.190   4.865   2.437 -0.1089 -0.6918 -0.3883
27306SOL     OW87047   0.328   3.111   0.831 -0.2527 -0.8218  0.6043
27306SOL    HW187048   0.420   3.135   0.837 -0.6944  1.0090  0.4228
27306SOL    HW287049   0.297   3.112   0.922 -0.3962 -0.1744  0.5493
27307SOL     OW87050  10.209   4.172   6.089  0.1686  0.1642  0.0566
27307SOL    HW187051  10.255   4.120   6.023  0.9191  1.6205 -0.5709
27307SOL    HW287052  10.278   4.204   6.147 -0.2710  0.6833  0.2958
27308SOL     OW87053   7.659  10.561   0.037  0.1675 -0.4973  0.0283
27308SOL    HW187054   7.710  10.521   0.107 -1.4111 -1.0888  0.8725
27308SOL    HW287055   7.591  10.611   0.083  0.6186  1.1739 -1.0494
27309SOL     OW87056   1.088   6.826   4.827  0.0333 -0.1546 -0.1603
27309SOL    HW187057   1.008   6.848   4.875  0.8760 -0.4869  1.4324
27309SOL    HW287058   1.059   6.814   4.737 -1.3614  1.8361 -0.0146
27310SOL     OW87059   7.321   9.566   3.431  0.2117  0.0751 -0.4584
27310SOL    HW187060   7.298   9.625   3.503  1.5793  0.8572 -0.6419
27310SOL    HW287061   7.399   9.519   3.462 -0.7894 -1.5565 -0.3637
27311SOL     OW87062   4.707   7.759   8.869  0.1330  0.1025 -0.3906
27311SOL    HW187063   4.641   7.742   8.936 -0.2987  2.7286 -0.0806
27311SOL    HW287064   4.787   7.778   8.918  0.6939 -1.3167 -0.7258
27312SOL     OW87065   5.814   5.217   9.790 -0.8576 -0.3278 -1.0138
27312SOL    HW187066   5.786   5.273   9.718  1.8979  0.3565 -1.6117
27312SOL    HW287067   5.862   5.146   9.747  2.3313  1.0235  0.2126
27313SOL     OW87068   5.353   2.704   4.522 -0.5850 -0.1728  0.0441
27313SOL    HW187069   5.277   2.648   4.513 -0.2380 -0.7059  0.4158
27313SOL    HW287070   5.423   2.657   4.477 -0.6545  0.6823 -0.9884
27314SOL     OW87071   9.479  10.438   2.952  0.0388 -0.3495 -0.0810
27314SOL    HW187072   9.480  10.496   3.028 -3.4043  1.4822 -1.3100
27314SOL    HW287073   9.550  10.470   2.897  0.6362  0.2247  1.0066
27315SOL     OW87074   4.226   1.597   1.792  0.2570  0.5970  0.0331
27315SOL    HW187075   4.162   1.630   1.729 -0.7054  0.9374  1.1621
27315SOL    HW287076   4.285   1.542   1.740 -0.0455  1.5000 -1.2896
27316SOL     OW87077   0.133   8.371   5.097 -0.1223  0.0294  0.0011
27316SOL    HW187078   0.037   8.362   5.099 -0.1819  0.6888  0.3895
27316SOL    HW287079   0.155   8.404   5.184  0.2975  1.3480 -0.5950
27317SOL     OW87080   3.030   7.142  10.999 -0.4589  0.6304  0.1704
27317SOL    HW187081   3.084   7.063  11.009  0.1472  0.9369 -0.5744
27317SOL    HW287082   2.983   7.127  10.917 -2.5744 -0.2456  1.4995
27318SOL     OW87083   7.287  10.531   0.315 -0.0434  0.6484 -0.4165
27318SOL    HW187084   7.257  10.621   0.311 -1.4973  0.1468 -1.2412
27318SOL    HW287085   7.264  10.502   0.403  0.2651  1.0234 -0.2108
27319SOL     OW87086   9.324  11.176  11.035 -0.5000 -0.2264 -0.2641
27319SOL    HW187087   9.391  11.110  11.017 -0.8044 -0.2377 -1.4256
27319SOL    HW287088   9.369  11.244  11.085  0.5680  0.1126 -1.6552
27320SOL     OW87089  10.139   8.779   1.476  0.0598 -0.3634  0.3892
27320SOL    HW187090  10.224   8.782   1.433  0.3673 -3.4598  0.6816
27320SOL    HW287091  10.158   8.757   1.567 -1.0017  0.0331  0.7232
27321SOL     OW87092   2.703   2.579   4.002  0.7764  0.2512 -0.3644
27321SOL    HW187093   2.799   2.575   4.002  0.8020  0.8427 -0.3111
27321SOL    HW287094   2.683   2.671   3.991  0.2168  0.3121  1.0689
27322SOL     OW87095  10.835   7.546   4.962  0.5132  0.1843 -0.2260
27322SOL    HW187096  10.793   7.590   4.887  0.9944 -0.4000 -0.8428
27322SOL    HW287097  10.769   7.485   4.994  0.5406 -0.0390 -0.5911
27323SOL     OW87098   1.560   3.676  10.143 -1.2778 -0.3418 -0.0692
27323SOL    HW187099   1.506   3.628  10.205  0.3807 -0.6295  1.2062
27323SOL    HW287100   1.532   3.767  10.152 -2.7949 -0.7165 -0.7806
27324SOL     OW87101   8.498   3.082   8.383  0.0816  0.3217 -0.3781
27324SOL    HW187102   8.491   3.159   8.327  1.5121 -1.3419 -2.9387
27324SOL    HW287103   8.561   3.108   8.451  2.3648  0.6868 -2.5565
27325SOL     OW87104   6.707   1.951   3.843  0.3872  0.0726 -0.1887
27325SOL    HW187105   6.612   1.955   3.839  0.2973  0.5793  1.9095
27325SOL    HW287106   6.727   1.908   3.926  1.9915  0.6001 -0.2690
27326SOL     OW87107   3.313   0.894  10.714 -0.2406  0.4481  0.1348
27326SOL    HW187108   3.253   0.857  10.778  0.3627  0.8825  0.9748
27326SOL    HW287109   3.333   0.982  10.748  0.8704  0.3023 -0.1055
27327SOL     OW87110   0.516   4.766   5.749 -0.8253  0.0367 -0.3573
27327SOL    HW187111   0.428   4.778   5.714 -0.0183  2.0360 -1.8163
27327SOL    HW287112   0.552   4.855   5.756  0.9493 -0.7174  0.5620
27328SOL     OW87113   3.358   3.786   8.478 -0.1060 -0.1280  0.0904
27328SOL    HW187114   3.344   3.693   8.497 -0.3860  0.0269  0.6423
27328SOL    HW287115   3.282   3.830   8.515 -0.5068  0.2200 -1.1151
27329SOL     OW87116   6.931  11.106   9.104 -0.1029  0.1545  0.2099
27329SOL    HW187117   6.951  11.057   9.184  1.2290  0.8585  0.3214
27329SOL    HW287118   6.844  11.143   9.120  1.0094  2.0226  2.2065
27330SOL     OW87119   7.620   9.633   4.967 -0.0207  0.2393 -0.0752
27330SOL    HW187120   7.574   9.578   5.030 -0.5320  0.8092  0.0593
27330SOL    HW287121   7.695   9.667   5.015  1.4419 -1.9559 -0.7700
27331SOL     OW87122  10.484   1.254   9.574 -0.1493  0.0383 -0.3896
27331SOL    HW187123  10.521   1.318   9.636  2.1858 -2.6628  1.1569
27331SOL    HW287124  10.455   1.181   9.629  0.1895 -1.6011 -2.3164
27332SOL     OW87125   6.320   9.382   3.631 -0.0714 -0.9311  0.0372
27332SOL    HW187126   6.364   9.357   3.550 -1.8555 -1.3182 -0.8494
27332SOL    HW287127   6.256   9.312   3.646  0.1444 -0.7867  1.7036
27333SOL     OW87128   9.793   9.857   3.501  0.4432  0.3225  0.2924
27333SOL    HW187129   9.699   9.852   3.520  0.8441  0.4972  2.3234
27333SOL    HW287130   9.810   9.778   3.449 -0.5126 -0.5370  1.2518
27334SOL     OW87131   9.805   7.731   0.938 -0.7558  0.3940  0.3203
27334SOL    HW187132   9.829   7.673   0.867 -2.6669  0.0597 -0.0869
27334SOL    HW287133   9.881   7.787   0.952  0.6267 -1.3661 -0.1294
27335SOL     OW87134   8.321  10.684   8.735 -0.2651 -0.3591 -0.6199
27335SOL    HW187135   8.255  10.638   8.788 -0.3726 -0.4818 -0.8593
27335SOL    HW287136   8.320  10.773   8.768 -0.7589 -0.2901 -0.8138
27336SOL     OW87137   8.131   0.878   0.697 -0.2357 -0.0335  0.4559
27336SOL    HW187138   8.065   0.821   0.736 -0.0273 -0.3849  0.3018
27336SOL    HW287139   8.204   0.819   0.677  0.2164  0.3979  0.8542
27337SOL     OW87140  10.103  10.064   3.984  0.1010  0.0474 -0.4705
27337SOL    HW187141  10.068   9.978   4.004 -1.6836  0.9556  0.4031
27337SOL    HW287142  10.118  10.063   3.889  0.9406 -1.5051 -0.3332
27338SOL     OW87143   0.897  10.915   1.431 -0.2885  0.0176 -0.1162
27338SOL    HW187144   0.827  10.858   1.464  1.1810 -0.9889  1.3678
27338SOL    HW287145   0.908  10.888   1.340 -1.2764 -0.3817 -0.1306
27339SOL     OW87146   7.328   7.587   5.598 -0.3846  0.5652 -0.4982
27339SOL    HW187147   7.327   7.604   5.504  1.0542 -1.3577 -0.8817
27339SOL    HW287148   7.377   7.661   5.635  0.2558  0.6093 -1.4171
27340SOL     OW87149   2.149   6.459   9.192  0.2441 -0.2249 -0.3722
27340SOL    HW187150   2.078   6.511   9.154  0.1113  0.3953  0.6998
27340SOL    HW287151   2.115   6.431   9.277  1.6065  0.8201  0.5336
27341SOL     OW87152   2.452   4.128   0.879 -0.0463 -0.0269 -0.2693
27341SOL    HW187153   2.450   4.034   0.860  0.5817 -0.3264  1.0427
27341SOL    HW287154   2.448   4.171   0.794 -0.9068 -1.2403 -0.8464
27342SOL     OW87155   2.349   9.445   4.919  0.7629  0.1506  0.5051
27342SOL    HW187156   2.360   9.363   4.872 -0.7119  0.6608 -0.7455
27342SOL    HW287157   2.255   9.460   4.920  0.9605  1.4128  1.4445
27343SOL     OW87158   5.108   8.120   1.382 -0.5196 -0.0534  1.0124
27343SOL    HW187159   5.078   8.204   1.418  0.8314  0.5940  0.6842
27343SOL    HW287160   5.029   8.066   1.377 -1.2684  0.9220  1.9892
27344SOL     OW87161   8.794   0.412   5.697 -0.0098 -0.6088 -0.2445
27344SOL    HW187162   8.790   0.335   5.641 -0.7091 -0.2523 -0.7039
27344SOL    HW287163   8.731   0.395   5.767  0.6797 -0.9451  0.2945
27345SOL     OW87164   7.361   9.853  10.750 -0.1763  0.5586  0.2291
27345SOL    HW187165   7.382   9.925  10.691  0.7256  1.7644  1.9581
27345SOL    HW287166   7.429   9.788  10.735  2.0867  2.3270  2.3061
27346SOL     OW87167  10.745   6.260   2.645  0.2507  0.4672 -0.1554
27346SOL    HW187168  10.794   6.334   2.681 -2.0286  1.3212  1.3519
27346SOL    HW287169  10.757   6.267   2.550 -0.5677  3.2652 -0.1059
27347SOL     OW87170   3.731   2.600   8.612  0.4230 -0.0821 -0.5092
27347SOL    HW187171   3.723   2.694   8.601 -0.3930 -0.1429 -0.4718
27347SOL    HW287172   3.646   2.572   8.645  0.3582 -0.9584 -1.3866
27348SOL     OW87173   2.334   5.079   3.677 -0.4350  0.4599 -0.0659
27348SOL    HW187174   2.362   5.003   3.626 -3.8668 -1.2007  0.3389
27348SOL    HW287175   2.350   5.154   3.620 -0.2698 -0.9250 -1.8898
27349SOL     OW87176   8.844   6.020   6.258  0.1832 -0.1131 -0.6742
27349SOL    HW187177   8.834   5.928   6.236  0.8244 -0.9122  2.2604
27349SOL    HW287178   8.935   6.029   6.287 -0.6278  0.8155  1.7441
27350SOL     OW87179   8.547  10.129   6.878 -0.3708 -0.1634  0.3199
27350SOL    HW187180   8.593  10.200   6.834  1.2037 -0.1573  1.9438
27350SOL    HW287181   8.488  10.173   6.940 -0.9772 -0.2244 -0.2119
27351SOL     OW87182   3.876   6.740  10.805 -0.3776 -0.0400 -0.5465
27351SOL    HW187183   3.949   6.776  10.755 -0.2955 -0.6533 -0.8786
27351SOL    HW287184   3.864   6.801  10.877  0.8507 -0.2508 -0.1583
27352SOL     OW87185   8.033   0.980   4.086  0.4838 -0.1197  0.2396
27352SOL    HW187186   7.959   1.036   4.062  1.5131  0.9847 -0.4404
27352SOL    HW287187   8.110   1.024   4.049  1.3535 -1.8822 -0.1494
27353SOL     OW87188   9.166   8.180   6.962 -0.0702  0.1234 -0.6650
27353SOL    HW187189   9.141   8.115   6.896 -2.4256 -1.0671  1.3065
27353SOL    HW287190   9.250   8.150   6.996 -0.0122 -0.5701 -1.4216
27354SOL     OW87191   9.459   3.763   1.136 -0.5144  0.8627 -0.5224
27354SOL    HW187192   9.392   3.695   1.141 -0.1452  0.5552  0.2472
27354SOL    HW287193   9.502   3.748   1.051 -0.8548  0.5316 -0.6363
27355SOL     OW87194   3.565   9.295   8.396  0.1195  0.3144 -0.5489
27355SOL    HW187195   3.524   9.209   8.410 -1.8252  0.9214 -2.3413
27355SOL    HW287196   3.652   9.275   8.363  0.1153 -0.9772  0.1880
27356SOL     OW87197   8.432   8.167   3.850  0.2125  0.0715  0.0440
27356SOL    HW187198   8.374   8.181   3.925 -1.0433 -0.6987 -0.7610
27356SOL    HW287199   8.388   8.211   3.778  0.9586  0.0218 -0.4454
27357SOL     OW87200   2.731   3.301   1.727 -0.0644 -0.6280  0.4495
27357SOL    HW187201   2.716   3.374   1.668  1.3295 -1.7331 -1.3228
27357SOL    HW287202   2.825   3.305   1.748 -0.0812 -1.5847  0.7521
27358SOL     OW87203  11.198   5.850   2.760 -0.6885  0.5435 -0.6187
27358SOL    HW187204  11.165   5.779   2.705  0.3267 -0.5236  0.1173
27358SOL    HW287205  11.127   5.914   2.762 -2.0507 -0.9540 -0.3901
27359SOL     OW87206   8.006  10.741   0.214  0.2400  0.1973  0.4326
27359SOL    HW187207   7.974  10.750   0.304  2.9314 -1.8295  1.6459
27359SOL    HW287208   8.098  10.768   0.218  0.5958 -0.6462 -1.5378
27360SOL     OW87209   1.123  10.855   2.924  0.7950  0.0285  0.1606
27360SOL    HW187210   1.124  10.835   3.018  0.0533 -0.3015  0.0998
27360SOL    HW287211   1.139  10.949   2.920  2.0469 -0.1499  0.5551
27361SOL     OW87212   8.039   6.768   6.520 -0.2277  0.2101 -0.8793
27361SOL    HW187213   7.984   6.789   6.444 -1.5013  2.6791  0.6425
27361SOL    HW287214   7.987   6.796   6.595  1.7762 -0.4656  0.7957
27362SOL     OW87215   1.920   4.250   5.569  0.3483 -0.3347 -0.0899
27362SOL    HW187216   2.012   4.261   5.596  0.8401 -0.6849 -1.5615
27362SOL    HW287217   1.905   4.319   5.505  0.3198 -1.7413 -1.6336
27363SOL     OW87218   8.330  10.137   3.220 -0.3225  0.8794 -0.5425
27363SOL    HW187219   8.240  10.148   3.250 -1.1602 -2.9796 -1.4378
27363SOL    HW287220   8.323  10.130   3.125  0.6349 -1.5196 -0.4765
27364SOL     OW87221   6.001   2.931   7.360  0.3545  0.7261 -0.0400
27364SOL    HW187222   6.061   2.931   7.286 -0.4871 -0.1729 -0.7287
27364SOL    HW287223   5.963   2.843   7.361 -0.5128  1.0994  0.7446
27365SOL     OW87224   0.351  10.987   5.124  0.4290 -0.5856  0.1344
27365SOL    HW187225   0.319  10.902   5.093 -0.4329 -0.5568  0.9337
27365SOL    HW287226   0.303  11.003   5.205  0.2954  0.8613 -0.2211
27366SOL     OW87227   2.685   1.478   5.398 -0.4665 -0.4783  0.0625
27366SOL    HW187228   2.640   1.395   5.382 -1.8442 -0.0431  1.4913
27366SOL    HW287229   2.639   1.541   5.343 -1.3945 -0.1086  1.2300
27367SOL     OW87230   0.483   8.831   2.780  0.1687  0.6273  0.2475
27367SOL    HW187231   0.538   8.765   2.739 -0.3923 -0.4859  1.2596
27367SOL    HW287232   0.406   8.783   2.810 -0.6197  1.8848  0.2825
27368SOL     OW87233   4.486   4.635   6.305  0.1547  0.0896  0.1203
27368SOL    HW187234   4.513   4.629   6.213  0.3979  0.6249  0.1547
27368SOL    HW287235   4.566   4.662   6.351  0.0097 -0.0956  0.4759
27369SOL     OW87236  10.796   2.711   0.642 -0.1305  0.0469 -0.8394
27369SOL    HW187237  10.708   2.686   0.613  1.0190 -1.8548 -2.8492
27369SOL    HW287238  10.811   2.661   0.722 -2.0388  2.7725  1.3252
27370SOL     OW87239   0.059  11.054   9.475  0.0656 -0.0182 -0.1977
27370SOL    HW187240   0.076  10.962   9.457  0.4639  0.5891 -3.1220
27370SOL    HW287241   0.123  11.102   9.423  0.1858  1.9205  1.6640
27371SOL     OW87242   3.241   3.892   4.588  0.1612  0.0700  0.2121
27371SOL    HW187243   3.315   3.951   4.573 -0.5953  0.8203 -0.6116
27371SOL    HW287244   3.164   3.942   4.562 -0.3770 -1.7573 -1.8758
27372SOL     OW87245   1.758   0.035   3.199 -0.0979  0.2831  0.1114
27372SOL    HW187246   1.846   0.062   3.174  0.5560 -1.5118  0.4717
27372SOL    HW287247   1.766   0.006   3.289 -0.7464 -1.2812 -0.3165
27373SOL     OW87248   2.237   4.917   0.176 -0.5941  0.1576 -0.0451
27373SOL    HW187249   2.305   4.976   0.144 -0.6548  1.0171  1.3898
27373SOL    HW287250   2.206   4.872   0.097  0.4590  0.9785 -0.9476
27374SOL     OW87251   2.395   9.024   4.589  0.1538  0.5036 -0.3594
27374SOL    HW187252   2.327   8.969   4.551  0.8273 -0.0007 -0.8302
27374SOL    HW287253   2.405   8.991   4.679 -1.8425  2.0723  0.4791
27375SOL     OW87254   9.351   0.029   0.340  0.1061 -0.0757 -0.0915
27375SOL    HW187255   9.259   0.018   0.361 -0.3727  4.2152  0.5334
27375SOL    HW287256   9.356   0.113   0.294  3.5289 -0.8722 -1.3626
27376SOL     OW87257   8.663   0.511   4.396 -0.1849 -0.5478 -0.4167
27376SOL    HW187258   8.746   0.503   4.442 -1.0493 -1.6644  0.9955
27376SOL    HW287259   8.687   0.531   4.305  1.5665  0.6732  0.2903
27377SOL     OW87260   9.878   9.394   4.250  0.3207  0.6315 -0.1748
27377SOL    HW187261   9.910   9.389   4.340 -0.7821  1.2880  0.2732
27377SOL    HW287262   9.905   9.312   4.210  0.6333  0.2365  0.8188
27378SOL     OW87263  11.086   2.408   1.794  0.4974  0.3271  0.2443
27378SOL    HW187264  11.045   2.493   1.777 -0.3708 -0.0130  0.6564
27378SOL    HW287265  11.046   2.377   1.875  1.5462 -0.0206  0.6417
27379SOL     OW87266   3.685   9.521   0.617 -0.1811 -0.1321  0.1543
27379SOL    HW187267   3.622   9.592   0.619 -1.2959 -1.1321  1.0315
27379SOL    HW287268   3.675   9.482   0.530  1.1698  1.4101 -0.7225
27380SOL     OW87269   1.840  10.899   8.384 -0.3852 -0.3587 -0.3626
27380SOL    HW187270   1.923  10.854   8.401 -0.1368  0.1356 -0.2624
27380SOL    HW287271   1.786  10.877   8.460 -0.4481 -0.9177 -0.5684
27381SOL     OW87272   0.776   5.131   2.936 -0.0526  0.4689  0.0891
27381SOL    HW187273   0.760   5.082   3.017 -1.6037  0.0113 -0.4685
27381SOL    HW287274   0.757   5.222   2.960 -2.6362  0.0651 -0.2858
27382SOL     OW87275   3.278   6.716   5.744  0.1742 -0.4078 -0.0098
27382SOL    HW187276   3.234   6.697   5.826 -1.3701  0.8779 -0.5120
27382SOL    HW287277   3.336   6.790   5.764  1.3659 -1.4310  0.3993
27383SOL     OW87278   7.372   1.513   8.821  0.8865  0.3376 -0.4379
27383SOL    HW187279   7.279   1.492   8.824  0.6977  1.1772 -0.3180
27383SOL    HW287280   7.396   1.531   8.912  1.3926 -0.8175 -0.3305
27384SOL     OW87281   9.100   7.534   3.784 -0.3000 -0.0392 -0.0670
27384SOL    HW187282   9.145   7.585   3.718 -0.5171  0.9437  0.5352
27384SOL    HW287283   9.125   7.443   3.766  3.3306  0.6034  1.3199
27385SOL     OW87284   2.467   7.673   7.425  0.4039  0.3806  0.1008
27385SOL    HW187285   2.511   7.627   7.497 -1.2774 -0.9298  0.3083
27385SOL    HW287286   2.533   7.734   7.392  1.3498  0.6995  2.4664
27386SOL     OW87287   1.796   2.407   9.763  0.2182 -0.0506  0.0978
27386SOL    HW187288   1.740   2.483   9.749  0.3453 -0.0337 -0.3267
27386SOL    HW287289   1.884   2.443   9.774  0.2372 -0.1145  0.1555
27387SOL     OW87290   2.550   1.317   0.806  0.0819 -0.5019 -0.1573
27387SOL    HW187291   2.529   1.406   0.833 -3.1759 -1.4239  0.4883
27387SOL    HW287292   2.596   1.279   0.881  0.3526  0.2353  0.0495
27388SOL     OW87293  10.683   1.596   7.239 -0.5160  0.0146 -0.2268
27388SOL    HW187294  10.684   1.522   7.178 -0.8483 -0.3672  0.2328
27388SOL    HW287295  10.772   1.601   7.272  0.2747  1.6511 -2.4648
27389SOL     OW87296   2.864   6.039   8.910  0.5486 -0.5410  0.0123
27389SOL    HW187297   2.890   6.127   8.939 -0.1411 -0.3997  0.2136
27389SOL    HW287298   2.935   5.982   8.940 -0.7555 -0.6029  3.2113
27390SOL     OW87299   0.549   8.185   5.736 -0.1330  0.9123 -0.3961
27390SOL    HW187300   0.620   8.233   5.694  2.4262 -0.5960  2.0399
27390SOL    HW287301   0.593   8.123   5.795 -3.4528 -0.5505  0.6846
27391SOL     OW87302   7.253   9.172   0.902  0.1519 -0.4876 -0.1267
27391SOL    HW187303   7.328   9.216   0.944 -0.9754  2.2272 -0.8930
27391SOL    HW287304   7.264   9.080   0.927  3.1567  0.0036  0.6633
27392SOL     OW87305   7.834   9.989   9.003 -0.2462 -0.3704 -0.3635
27392SOL    HW187306   7.852  10.019   9.091 -1.1587  2.2434 -1.0194
27392SOL    HW287307   7.881   9.906   8.995  3.2300  1.3448  1.2153
27393SOL     OW87308   2.510   0.586   6.924 -0.2904 -0.5594  0.1108
27393SOL    HW187309   2.590   0.637   6.917 -0.8177  0.2020 -0.4806
27393SOL    HW287310   2.538   0.500   6.955  0.5947  0.1301  1.2614
27394SOL     OW87311   1.411   0.085   6.890 -0.7251  0.6673 -0.3020
27394SOL    HW187312   1.318   0.099   6.868 -1.2665 -1.5061  0.4621
27394SOL    HW287313   1.443   0.028   6.820 -0.7596 -0.9899  1.0117
27395SOL     OW87314   4.012   0.426   2.902  0.0075  0.0404 -0.2569
27395SOL    HW187315   4.040   0.335   2.898 -0.0318  0.0803 -2.0662
27395SOL    HW287316   3.933   0.425   2.956 -0.5782 -1.1538 -1.1303
27396SOL     OW87317  11.267   9.218   3.881 -0.2409  0.1078 -0.1320
27396SOL    HW187318  11.257   9.262   3.965  0.6755  1.4546 -0.7151
27396SOL    HW287319  11.178   9.197   3.854 -0.5538 -0.1682  1.0781
27397SOL     OW87320   5.155   8.126  10.081 -0.2073 -0.0592 -0.0974
27397SOL    HW187321   5.216   8.193  10.111 -1.6227  0.7329  1.1119
27397SOL    HW287322   5.124   8.084  10.161 -2.3102  0.5272 -0.5522
27398SOL     OW87323  10.392   8.161  10.151 -0.1179  0.4177 -0.5296
27398SOL    HW187324  10.453   8.170  10.077  0.7540 -0.6098  0.0367
27398SOL    HW287325  10.372   8.250  10.178 -0.0755  0.7903 -1.7111
27399SOL     OW87326   4.528   3.886   4.326  0.2077  0.5856  0.0789
27399SOL    HW187327   4.606   3.843   4.361  1.2294  1.1999 -1.3732
27399SOL    HW287328   4.527   3.863   4.233 -1.1467  0.8727  0.0126
27400SOL     OW87329   6.843   6.576   3.654 -0.0309 -0.1483 -0.6670
27400SOL    HW187330   6.814   6.661   3.685 -2.1011 -0.8846 -0.5107
27400SOL    HW287331   6.909   6.549   3.718  0.3915  1.1706 -0.5315
27401SOL     OW87332   5.540  10.843  11.013 -0.3972  0.4816 -0.3501
27401SOL    HW187333   5.631  10.812  11.008 -0.4234  0.5416 -1.2273
27401SOL    HW287334   5.487  10.763  11.006 -0.4177  0.4266  0.3463
27402SOL     OW87335   7.421   2.142   0.417  0.2710 -1.0366  0.1316
27402SOL    HW187336   7.463   2.063   0.384  0.0797 -0.9214 -0.3978
27402SOL    HW287337   7.346   2.156   0.359  0.2253 -0.5435  0.3015
27403SOL     OW87338   4.493   8.024   9.036  0.2072  0.5519 -0.1826
27403SOL    HW187339   4.521   7.996   8.949  0.3337 -3.5091  1.0475
27403SOL    HW287340   4.574   8.053   9.079  0.9769 -1.9585  0.1268
27404SOL     OW87341   2.022  10.112   6.311 -0.4561 -0.2559 -0.0757
27404SOL    HW187342   2.081  10.118   6.386  0.3314 -0.4382 -0.6751
27404SOL    HW287343   1.950  10.172   6.332  0.2309  0.4130  0.3997
27405SOL     OW87344   1.205   5.915   9.508  0.1808  0.0201 -0.1243
27405SOL    HW187345   1.219   5.845   9.444 -0.1830 -0.2499  0.0924
27405SOL    HW287346   1.228   5.995   9.461  2.7969 -0.4265  0.2928
27406SOL     OW87347   3.326   5.361   3.668 -0.0861  0.0351  0.2510
27406SOL    HW187348   3.301   5.352   3.760 -0.5718 -1.3229 -0.0072
27406SOL    HW287349   3.289   5.284   3.625 -0.2589  0.8895 -1.1670
27407SOL     OW87350   2.599   1.311   9.201 -0.3463 -0.1305 -0.2691
27407SOL    HW187351   2.554   1.393   9.180 -0.1376  0.4838  1.6280
27407SOL    HW287352   2.681   1.315   9.151 -0.2582  0.8987 -0.0471
27408SOL     OW87353   1.377   9.924   7.929 -0.4826 -0.8872  0.4359
27408SOL    HW187354   1.304   9.982   7.907 -1.8824 -2.3698  1.0433
27408SOL    HW287355   1.361   9.899   8.020  1.5097 -0.1969  0.9870
27409SOL     OW87356   8.800   9.848   5.789 -0.1345  0.5275  0.0967
27409SOL    HW187357   8.735   9.788   5.826 -0.9088  1.4104  0.1918
27409SOL    HW287358   8.797   9.832   5.695  0.9717 -0.8693  0.2850
27410SOL     OW87359   8.653   6.529   7.234  0.0669  0.8164 -0.1537
27410SOL    HW187360   8.717   6.594   7.261  1.6985 -1.0910  0.7237
27410SOL    HW287361   8.654   6.533   7.138  2.0143  0.3512 -0.1693
27411SOL     OW87362   6.900   2.146  11.040 -0.3152 -0.9743 -0.1513
27411SOL    HW187363   6.899   2.102  10.956  1.5037 -0.4734 -0.4583
27411SOL    HW287364   6.828   2.209  11.035 -1.8297 -2.6869 -0.3470
27412SOL     OW87365   4.656   3.708   2.335 -0.4247  0.0400  0.3873
27412SOL    HW187366   4.603   3.786   2.321  2.1663  1.7095 -0.3200
27412SOL    HW287367   4.723   3.735   2.398  0.3780 -1.6852  0.3143
27413SOL     OW87368   8.524   3.877   3.830 -0.3572 -0.3247 -0.1429
27413SOL    HW187369   8.450   3.877   3.890 -0.2861 -0.8636 -0.0495
27413SOL    HW287370   8.584   3.811   3.866 -0.2502 -0.5498 -0.7306
27414SOL     OW87371   4.011   3.372  10.616  0.5346  0.3814  0.1022
27414SOL    HW187372   3.951   3.402  10.683 -0.1234  1.8302 -1.1021
27414SOL    HW287373   4.030   3.450  10.563 -0.3149 -1.0508 -2.4241
27415SOL     OW87374   4.051   8.007   4.144  0.1633 -0.4271 -0.4245
27415SOL    HW187375   3.972   7.966   4.110  0.4152 -1.2582 -0.0209
27415SOL    HW287376   4.079   8.067   4.074 -1.0630  0.2181 -0.3794
27416SOL     OW87377   6.859   5.803  10.039  0.3615  0.5469  0.2070
27416SOL    HW187378   6.887   5.894  10.053 -0.0908  0.8009 -0.5219
27416SOL    HW287379   6.774   5.810   9.995  1.0463 -0.2064 -1.3055
27417SOL     OW87380   8.530   7.179   4.072 -0.5804 -0.0345  0.2019
27417SOL    HW187381   8.501   7.271   4.073 -2.1746 -0.5296  1.0630
27417SOL    HW287382   8.451   7.129   4.051  0.0450 -1.2896  0.8020
27418SOL     OW87383  11.024   3.950   1.212 -0.2413 -0.3002 -0.1698
27418SOL    HW187384  10.941   3.911   1.240 -0.0971  0.3288  1.1564
27418SOL    HW287385  11.028   3.933   1.118 -1.7305 -0.6075 -0.1845
27419SOL     OW87386   4.875   5.646   4.367 -0.0981  0.0320 -0.1537
27419SOL    HW187387   4.969   5.633   4.351  0.3057  1.4010  0.9830
27419SOL    HW287388   4.833   5.569   4.329  1.6576 -1.5442  1.0542
27420SOL     OW87389   4.089   0.163   2.896 -0.4470 -0.5827  0.6571
27420SOL    HW187390   4.140   0.115   2.831 -2.3082  0.3334 -1.5335
27420SOL    HW287391   4.007   0.115   2.903 -0.5094 -0.3242  1.8996
27421SOL     OW87392  10.767   7.195   4.243  0.3910  0.0502 -0.7008
27421SOL    HW187393  10.805   7.254   4.308  2.5166 -2.8010  0.7592
27421SOL    HW287394  10.799   7.229   4.159  0.3604  1.7926 -0.0372
27422SOL     OW87395   3.550   2.290   9.136 -0.1908  0.0097 -0.3315
27422SOL    HW187396   3.642   2.272   9.157 -0.1012  0.1064 -0.6315
27422SOL    HW287397   3.518   2.342   9.209 -0.5468 -1.6511  0.7224
27423SOL     OW87398   1.522  10.129   0.965  0.8036  0.2079 -0.3424
27423SOL    HW187399   1.526  10.041   1.003  0.1283 -0.0207 -0.7966
27423SOL    HW287400   1.428  10.147   0.958  0.8747  2.6546  3.6964
27424SOL     OW87401   3.683  10.810   2.662  0.0261  0.0106  0.6101
27424SOL    HW187402   3.674  10.754   2.585 -2.7102 -0.5076  1.2677
27424SOL    HW287403   3.688  10.749   2.736 -0.1664  0.5556  1.0807
27425SOL     OW87404   0.059   1.769  10.927  0.0888  0.2604 -0.3105
27425SOL    HW187405   0.032   1.842  10.872 -1.5831  0.7318  1.1198
27425SOL    HW287406   0.114   1.808  10.995 -0.5455  0.1518  0.2691
27426SOL     OW87407   3.451   0.768   9.010  0.1741 -0.2042  0.0029
27426SOL    HW187408   3.503   0.845   9.033  0.9668 -0.3220 -1.3327
27426SOL    HW287409   3.452   0.714   9.088 -0.3485  1.1105  0.9481
27427SOL     OW87410   4.560   8.340   3.246 -0.2203 -1.0241  0.0675
27427SOL    HW187411   4.558   8.313   3.337 -0.8004  0.2504  0.4486
27427SOL    HW287412   4.508   8.274   3.200 -1.0655 -0.9189  0.8694
27428SOL     OW87413   8.632   3.082   4.005  0.4439  0.1936  0.2860
27428SOL    HW187414   8.652   3.123   3.921  2.6748 -1.2824  0.0337
27428SOL    HW287415   8.715   3.042   4.032 -0.8861 -1.5606  1.9248
27429SOL     OW87416   5.456   6.027   9.119  0.1579  0.4724  0.0256
27429SOL    HW187417   5.414   6.050   9.201  1.0564  1.8598  0.1216
27429SOL    HW287418   5.525   5.965   9.143 -0.3163 -0.0018  0.1650
27430SOL     OW87419   4.233   3.192   1.263 -0.5330 -0.1686 -0.1025
27430SOL    HW187420   4.236   3.288   1.256 -4.5220  0.0307 -0.6417
27430SOL    HW287421   4.200   3.175   1.351  0.9430 -1.0700  0.2756
27431SOL     OW87422   0.900  10.065   0.052 -0.0342  0.3838 -0.4968
27431SOL    HW187423   0.862  10.072  -0.035 -0.8265 -0.1498 -0.2000
27431SOL    HW287424   0.994  10.082   0.039  0.2647 -1.9867 -1.8206
27432SOL     OW87425   0.262   1.334   4.660  0.0280 -0.2903 -0.0938
27432SOL    HW187426   0.253   1.415   4.711 -0.4773  0.6239 -1.5833
27432SOL    HW287427   0.290   1.364   4.573 -0.5555 -1.6932 -0.7745
27433SOL     OW87428   6.788   6.139  10.990 -0.0040  0.5092  0.8853
27433SOL    HW187429   6.747   6.070  10.939 -0.0061  2.1030 -1.3262
27433SOL    HW287430   6.733   6.147  11.068 -0.1970 -1.7093  1.0054
27434SOL     OW87431   6.019   3.921   4.842  0.1644 -0.5106 -0.4559
27434SOL    HW187432   6.076   3.922   4.919  2.8660  0.6979 -2.3804
27434SOL    HW287433   5.960   3.996   4.856 -0.8617 -1.6164  1.4300
27435SOL     OW87434   2.912   0.964   9.914  0.4107 -0.4111  0.3128
27435SOL    HW187435   2.888   0.978  10.006 -1.7598 -1.0218 -0.1172
27435SOL    HW287436   2.879   1.041   9.869 -0.2875 -1.0079 -0.2190
27436SOL     OW87437   1.694   1.137   6.141 -0.3936 -0.4342  0.7787
27436SOL    HW187438   1.746   1.117   6.218 -0.3221 -0.8283  0.6316
27436SOL    HW287439   1.750   1.193   6.087 -1.2065  1.5190  1.9408
27437SOL     OW87440   1.262  10.416  10.808 -0.4466 -0.0021 -0.1372
27437SOL    HW187441   1.227  10.405  10.719  1.2364  2.4022 -1.1727
27437SOL    HW287442   1.354  10.391  10.800 -0.9851 -2.7220  1.6933
27438SOL     OW87443   0.628   1.011   3.037 -0.2635  0.3867  0.0162
27438SOL    HW187444   0.557   1.038   3.094 -0.8581  1.2640 -1.1094
27438SOL    HW287445   0.650   1.090   2.987  0.6217 -0.2096 -0.5561
27439SOL     OW87446   2.482   0.256   6.382 -0.2111 -0.1213 -0.6125
27439SOL    HW187447   2.515   0.171   6.354 -0.4252 -0.0467 -1.0871
27439SOL    HW287448   2.560   0.308   6.400 -0.0345 -1.1784  2.0301
27440SOL     OW87449  10.756   1.999   2.549 -0.8993  0.3098 -0.2532
27440SOL    HW187450  10.729   2.066   2.487 -0.4772  0.6723 -0.0515
27440SOL    HW287451  10.837   1.963   2.512 -0.5703  0.6216  0.1447
27441SOL     OW87452   2.755  10.326   7.550  0.2037  0.2326 -0.1177
27441SOL    HW187453   2.713  10.256   7.599 -0.4857  0.1514 -0.8029
27441SOL    HW287454   2.682  10.381   7.521  0.8579  2.2375  1.9236
27442SOL     OW87455   9.883   4.802   2.977 -0.0066 -0.2197  0.0467
27442SOL    HW187456   9.970   4.823   2.941 -0.8798  1.8057 -0.9579
27442SOL    HW287457   9.899   4.783   3.069  1.3020  1.8238  0.2728
27443SOL     OW87458   2.403   2.272   3.985  0.0380  0.4803  0.0475
27443SOL    HW187459   2.308   2.286   3.985 -0.2374 -1.3061  0.7678
27443SOL    HW287460   2.432   2.308   3.901 -1.4780 -0.2196 -0.7953
27444SOL     OW87461   0.293   0.807   5.551 -0.7064 -0.1354 -0.3043
27444SOL    HW187462   0.244   0.724   5.543  1.3827 -1.3380 -1.0252
27444SOL    HW287463   0.308   0.834   5.460  0.8027 -0.2854 -0.1008
27445SOL     OW87464   1.911   1.996   9.825  0.0085 -0.1156  0.1223
27445SOL    HW187465   1.860   2.023   9.748  0.5378 -2.7155 -1.2102
27445SOL    HW287466   1.846   1.959   9.885 -0.3856  1.7872  0.9090
27446SOL     OW87467   0.953   8.696   1.383  0.2013 -0.8197 -0.0424
27446SOL    HW187468   0.899   8.772   1.401 -0.0900 -0.8289 -0.8245
27446SOL    HW287469   0.902   8.621   1.413  1.2848 -0.5815  2.4587
27447SOL     OW87470   3.450   4.105  11.164 -0.0400  0.5079  0.0133
27447SOL    HW187471   3.523   4.167  11.167 -0.8396  1.4885 -0.4267
27447SOL    HW287472   3.404   4.120  11.246  0.3036 -0.1828  0.3360
27448SOL     OW87473   6.140   3.483   7.403  0.2973 -0.0351 -0.0653
27448SOL    HW187474   6.200   3.530   7.461  0.5007  2.0394 -1.8878
27448SOL    HW287475   6.118   3.546   7.335  0.4014 -2.5430 -2.4970
27449SOL     OW87476   8.153   4.594  10.750 -0.1693 -0.5165  0.1064
27449SOL    HW187477   8.183   4.553  10.669  0.2262 -0.5816  0.2841
27449SOL    HW287478   8.079   4.540  10.779 -1.0237  0.1418 -0.7940
27450SOL     OW87479   2.943   1.808  10.136  0.2390  0.0916 -0.1748
27450SOL    HW187480   2.916   1.891  10.096 -0.1768  0.0749  0.0602
27450SOL    HW287481   2.986   1.833  10.218 -0.2838  0.0594  0.1155
27451SOL     OW87482   0.697   1.968   1.853 -0.1773 -0.1312 -0.9120
27451SOL    HW187483   0.604   1.988   1.848 -0.1370  0.0757 -0.8248
27451SOL    HW287484   0.702   1.873   1.838 -0.4817 -0.3106  0.1088
27452SOL     OW87485   8.848   2.398   5.251  0.3454  0.1952  0.2906
27452SOL    HW187486   8.921   2.434   5.301 -0.4631  0.5820  1.2006
27452SOL    HW287487   8.791   2.358   5.316 -0.7060  0.6628 -0.3209
27453SOL     OW87488   9.021   6.640   2.128  0.3976  0.4931  0.0946
27453SOL    HW187489   8.930   6.628   2.103  0.4148  0.0760  0.2202
27453SOL    HW287490   9.025   6.610   2.219  0.8009 -0.1339 -0.1264
27454SOL     OW87491   5.596   8.478   2.149  0.3979  0.1031 -0.0512
27454SOL    HW187492   5.502   8.485   2.132  0.2162 -0.1331  0.8132
27454SOL    HW287493   5.614   8.546   2.214  0.7362 -0.1309  0.1052
27455SOL     OW87494   1.715   4.748  11.119  0.0868 -0.1018 -0.4306
27455SOL    HW187495   1.762   4.785  11.045  0.0244  1.4364  0.2882
27455SOL    HW287496   1.776   4.683  11.155  1.6217  1.7669  0.3961
27456SOL     OW87497   7.746   7.612   3.962  0.0442 -0.0224 -0.4260
27456SOL    HW187498   7.796   7.647   4.035 -1.5706  1.9898 -0.2342
27456SOL    HW287499   7.701   7.536   3.998  0.0548  0.3602  0.4029
27457SOL     OW87500   8.480   5.860   9.107  0.0077  0.0900  0.1739
27457SOL    HW187501   8.406   5.913   9.137  0.6634  0.5428  1.0349
27457SOL    HW287502   8.546   5.872   9.175  1.6259  1.3115 -1.5883
27458SOL     OW87503   5.647  11.058   6.729  0.1542 -0.5868 -0.3384
27458SOL    HW187504   5.725  11.014   6.763  0.8577 -0.0036 -1.1910
27458SOL    HW287505   5.611  10.997   6.665 -0.7659 -1.3731  0.8977
27459SOL     OW87506   9.166   0.047   4.704 -0.7809  0.0063  0.2727
27459SOL    HW187507   9.158   0.072   4.612 -2.3721 -1.2453  0.0561
27459SOL    HW287508   9.149  -0.047   4.705  1.8011 -0.4985  1.5229
27460SOL     OW87509   1.305   8.456   8.870  0.5388 -0.1772 -0.2627
27460SOL    HW187510   1.364   8.513   8.920  0.6491 -0.7385  0.2447
27460SOL    HW287511   1.357   8.428   8.795  0.7046 -0.1449 -0.1603
27461SOL     OW87512   4.484   0.855   6.163  0.1219  0.0505  0.4029
27461SOL    HW187513   4.403   0.836   6.209 -0.5038  2.1611  0.2135
27461SOL    HW287514   4.546   0.789   6.194 -1.5233 -1.2733  0.8963
27462SOL     OW87515   5.352   1.032   3.845  0.4507 -0.0978 -0.4204
27462SOL    HW187516   5.426   0.995   3.797  1.5122 -0.1765  1.2218
27462SOL    HW287517   5.319   0.959   3.898  0.0976  0.3049 -0.0845
27463SOL     OW87518   3.342  10.378   0.876  0.2829 -0.8334  0.2975
27463SOL    HW187519   3.434  10.404   0.877  0.0350  0.0661  0.0722
27463SOL    HW287520   3.300  10.433   0.941 -0.2317 -0.7281 -0.1193
27464SOL     OW87521   0.475   8.760   6.686  0.1352  0.1107  0.3815
27464SOL    HW187522   0.536   8.834   6.689  0.1189  0.2170 -1.1640
27464SOL    HW287523   0.418   8.780   6.611 -0.4543 -1.0159  0.5214
27465SOL     OW87524   3.682  11.241   3.397  0.2854 -0.1286  0.0747
27465SOL    HW187525   3.596  11.233   3.358  0.4011 -0.7728 -0.0499
27465SOL    HW287526   3.676  11.319   3.452 -0.6603 -0.6901  0.7912
27466SOL     OW87527   6.155   0.502   3.764  0.4602  0.3564  0.1199
27466SOL    HW187528   6.234   0.449   3.773  0.0741  0.0440  1.8569
27466SOL    HW287529   6.123   0.514   3.854 -0.4696  1.9991 -0.4007
27467SOL     OW87530   9.464   5.055   9.180 -0.4845 -0.3052 -0.3438
27467SOL    HW187531   9.400   5.099   9.124 -1.8732 -1.8113  0.0064
27467SOL    HW287532   9.411   4.999   9.237  1.0889 -0.8258  0.6414
27468SOL     OW87533   5.887   1.313   1.340 -0.1415  0.1799 -0.6955
27468SOL    HW187534   5.812   1.269   1.299 -0.7116  1.5614 -1.1828
27468SOL    HW287535   5.949   1.327   1.268  0.3053 -0.3679 -0.4206
27469SOL     OW87536   0.268   1.593   8.688  0.4799 -0.1536 -0.3516
27469SOL    HW187537   0.270   1.688   8.676  1.9337 -0.1384 -0.1099
27469SOL    HW287538   0.293   1.579   8.779  1.9395 -0.8216 -0.8299
27470SOL     OW87539   7.724   5.268  10.769 -0.0735  0.1069 -0.7093
27470SOL    HW187540   7.695   5.309  10.688  0.5174  0.0552 -0.9464
27470SOL    HW287541   7.756   5.181  10.743 -1.2367 -0.4725 -0.2216
27471SOL     OW87542   4.122   0.065   1.263 -0.2024 -0.1768  0.4317
27471SOL    HW187543   4.207   0.066   1.218  0.0217  0.5884  0.8539
27471SOL    HW287544   4.092  -0.025   1.256  0.5593 -0.4106  0.1056
27472SOL     OW87545   6.135   5.458   9.124  0.3217 -0.0371  0.0787
27472SOL    HW187546   6.189   5.422   9.194  0.1196  0.1466  0.3350
27472SOL    HW287547   6.085   5.528   9.167  1.1188  0.9222 -0.5257
27473SOL     OW87548   7.448   7.014   4.522  0.8329 -0.0212  0.0917
27473SOL    HW187549   7.471   6.928   4.557 -1.7730 -0.7700  0.0322
27473SOL    HW287550   7.425   7.066   4.598 -0.3045 -0.2346 -0.1001
27474SOL     OW87551   8.549   7.486   1.471 -0.1209 -0.1225 -0.1838
27474SOL    HW187552   8.512   7.403   1.501 -0.7005  0.0050 -0.5359
27474SOL    HW287553   8.580   7.468   1.383  0.4207 -0.1585  0.0148
27475SOL     OW87554   1.866   7.147   6.870 -0.4690  0.7228 -0.1501
27475SOL    HW187555   1.879   7.239   6.892 -0.3342  0.9866 -1.3090
27475SOL    HW287556   1.781   7.144   6.826 -1.1621  0.0573  1.2148
27476SOL     OW87557  10.427   7.949   6.692  0.1415  0.0858 -0.5069
27476SOL    HW187558  10.507   7.900   6.675  0.2285 -0.0747  0.3437
27476SOL    HW287559  10.457   8.034   6.725 -0.0391 -0.1930  0.3940
27477SOL     OW87560   0.264   5.131  10.524  0.1907 -0.2805  0.2893
27477SOL    HW187561   0.246   5.210  10.474 -0.0201 -1.1082 -0.9596
27477SOL    HW287562   0.185   5.119  10.578 -0.2930 -0.3075 -0.4110
27478SOL     OW87563   9.699   1.986   3.592 -0.1103  0.0037 -0.0948
27478SOL    HW187564   9.671   1.903   3.554  2.4157 -0.8675 -0.0916
27478SOL    HW287565   9.649   1.992   3.673  1.1249 -2.5115  0.9124
27479SOL     OW87566   0.523   4.857   4.945  0.6775 -0.5500 -0.1124
27479SOL    HW187567   0.575   4.934   4.922  2.5995 -1.5278  0.8864
27479SOL    HW287568   0.466   4.844   4.869  1.4774  0.8811 -0.9839
27480SOL     OW87569   4.664   3.687   1.803 -0.0354 -0.5123 -0.1001
27480SOL    HW187570   4.691   3.757   1.743  0.5849  1.0620  1.9708
27480SOL    HW287571   4.746   3.643   1.828 -0.3953 -1.8439 -1.1925
27481SOL     OW87572   6.811   7.508   0.098  0.0435  0.0815  0.1621
27481SOL    HW187573   6.769   7.544   0.176 -0.9411  0.3207 -0.4604
27481SOL    HW287574   6.742   7.456   0.056 -0.0625  1.5811 -1.5990
27482SOL     OW87575   3.455   9.975   8.664  0.1485 -0.5062 -0.3364
27482SOL    HW187576   3.536  10.025   8.667  0.7445 -1.5247  1.0660
27482SOL    HW287577   3.479   9.891   8.625 -0.7277  0.0696 -2.1422
27483SOL     OW87578   6.086   3.730   9.285  0.3572 -0.6095  0.2847
27483SOL    HW187579   6.175   3.725   9.252  0.6562 -1.8611  1.2415
27483SOL    HW287580   6.083   3.665   9.356 -0.9817  0.2210  1.0055
27484SOL     OW87581   2.540   4.443   9.046 -0.5979  0.0518  0.5271
27484SOL    HW187582   2.497   4.461   8.963  0.6107  0.6262  0.0102
27484SOL    HW287583   2.608   4.380   9.024 -0.4382  0.0152  1.1230
27485SOL     OW87584   6.087   4.491  10.611  0.1879  0.1356  0.1680
27485SOL    HW187585   6.017   4.505  10.547  0.4650 -1.4952 -0.5195
27485SOL    HW287586   6.140   4.570  10.605 -0.8896  0.8468 -0.2066
27486SOL     OW87587  10.132  10.425   7.959 -0.0812  0.5130 -0.4945
27486SOL    HW187588  10.047  10.383   7.948  0.0858 -0.0314  0.2761
27486SOL    HW287589  10.120  10.513   7.923 -1.1680  0.6636  0.2241
27487SOL     OW87590   2.863   5.084   6.816  0.1246  0.1321  0.1217
27487SOL    HW187591   2.834   4.994   6.832  1.0254 -0.1270  0.3082
27487SOL    HW287592   2.910   5.078   6.733  0.6141  0.3375  0.3865
27488SOL     OW87593   6.604   5.712   2.142 -0.0370 -0.0167 -0.2070
27488SOL    HW187594   6.528   5.770   2.146  0.2024  0.3342 -0.7007
27488SOL    HW287595   6.629   5.698   2.233 -2.0095 -1.8664  0.0764
27489SOL     OW87596   8.281   3.115  10.713  0.0329 -0.6156  0.5386
27489SOL    HW187597   8.306   3.178  10.781  0.1628  0.3946 -0.4394
27489SOL    HW287598   8.319   3.149  10.632 -1.3527 -1.0276 -0.3087
27490SOL     OW87599   9.834   5.074   3.205  0.2617 -0.4223  0.0622
27490SOL    HW187600   9.746   5.039   3.196  0.2209  0.2070 -2.2733
27490SOL    HW287601   9.885   5.003   3.245 -1.2830 -0.7622  1.4922
27491SOL     OW87602   3.701   9.982  11.033 -0.1581  0.0818  0.0347
27491SOL    HW187603   3.632   9.947  11.089 -1.1143 -0.9750 -1.7390
27491SOL    HW287604   3.691   9.935  10.950  2.3174  0.3438 -0.4650
27492SOL     OW87605   5.588   4.761   5.390 -0.4479 -0.3669 -0.5563
27492SOL    HW187606   5.552   4.719   5.312  0.3388 -0.9446 -0.6152
27492SOL    HW287607   5.511   4.789   5.440 -0.9525  0.4067 -1.7448
27493SOL     OW87608   8.691   9.788   3.280 -0.4273 -0.1935 -0.2210
27493SOL    HW187609   8.689   9.883   3.285 -0.4305 -0.2462  0.9190
27493SOL    HW287610   8.757   9.768   3.213  0.1846  0.5915  0.1473
27494SOL     OW87611   4.497   1.375   2.287 -0.9297  0.4341 -0.2853
27494SOL    HW187612   4.418   1.409   2.246 -0.8722  0.2024 -0.5951
27494SOL    HW287613   4.526   1.304   2.228 -0.0371  1.0648 -0.6201
27495SOL     OW87614   5.779   0.843   3.696  0.0103  0.2918  0.3691
27495SOL    HW187615   5.812   0.844   3.607 -1.1286 -2.2552 -0.1188
27495SOL    HW287616   5.790   0.752   3.725  0.8737  1.2020  3.0064
27496SOL     OW87617  10.795  10.471   2.740 -0.0143 -0.7791 -0.0307
27496SOL    HW187618  10.882  10.505   2.761  0.0749 -1.3102  0.4728
27496SOL    HW287619  10.766  10.523   2.665  0.7956 -0.7025 -0.2872
27497SOL     OW87620   3.182   9.050   2.201  0.2562  0.3772  0.1128
27497SOL    HW187621   3.264   9.031   2.247  0.8945  1.2269 -0.6592
27497SOL    HW287622   3.119   9.068   2.270  0.8945  0.3877  0.6920
27498SOL     OW87623  10.642   7.081   4.568 -0.1222  0.0339 -0.1371
27498SOL    HW187624  10.586   7.157   4.581 -1.7608 -0.7560 -2.4136
27498SOL    HW287625  10.612   7.018   4.633 -0.4460  0.3716  0.0431
27499SOL     OW87626   4.861   9.434   3.008  0.3515 -0.4274 -0.4953
27499SOL    HW187627   4.843   9.375   3.081  1.8636 -0.2562  0.0234
27499SOL    HW287628   4.948   9.409   2.977 -0.2539 -0.4604 -2.2119
27500SOL     OW87629   4.143  11.128  10.939  0.3533 -0.3551  0.0695
27500SOL    HW187630   4.141  11.035  10.960  0.3555 -0.4374 -0.2947
27500SOL    HW287631   4.222  11.160  10.982 -0.0331 -0.3752  0.7937
27501SOL     OW87632   5.015   3.542   6.726 -0.0277  0.0161 -0.1842
27501SOL    HW187633   4.934   3.499   6.699 -0.3982  0.0451  0.8361
27501SOL    HW287634   5.033   3.606   6.657 -1.6475  1.0028  0.2735
27502SOL     OW87635   1.774   1.172   3.775 -0.2774  0.1201  0.5095
27502SOL    HW187636   1.829   1.099   3.748 -2.2585 -1.8921  1.7559
27502SOL    HW287637   1.741   1.209   3.692 -0.3766 -1.2871 -0.0841
27503SOL     OW87638   6.105   9.461   0.781 -0.3316  0.1708 -0.5677
27503SOL    HW187639   6.168   9.529   0.760  0.0085 -0.2830 -1.0079
27503SOL    HW287640   6.051   9.499   0.851 -0.3625  1.0167 -1.0449
27504SOL     OW87641   9.796   6.080   0.531 -0.2058 -0.1007  0.9211
27504SOL    HW187642   9.889   6.101   0.536  0.3054 -1.7463 -1.1551
27504SOL    HW287643   9.785   6.001   0.583 -0.3371 -0.2270  0.7050
27505SOL     OW87644   1.594   0.860   7.232  0.0753 -0.3804 -0.0347
27505SOL    HW187645   1.578   0.946   7.194 -0.5653  0.2557  1.6350
27505SOL    HW287646   1.682   0.866   7.269 -0.6227  0.0979  1.5474
27506SOL     OW87647   9.375   2.286   4.438 -0.0043 -0.1128  0.1019
27506SOL    HW187648   9.457   2.255   4.400 -0.8677 -0.9592 -1.1182
27506SOL    HW287649   9.378   2.256   4.529  0.1791 -1.8597 -0.4568
27507SOL     OW87650   1.280   5.316   3.897  0.1170 -0.1992  0.2451
27507SOL    HW187651   1.343   5.274   3.838  0.8923 -0.5594  1.3207
27507SOL    HW287652   1.302   5.409   3.894  1.5842 -0.4975  1.6741
27508SOL     OW87653   3.746   2.985   6.101 -0.1687 -0.5909  0.1667
27508SOL    HW187654   3.665   2.969   6.150 -1.1381  0.2595 -1.1224
27508SOL    HW287655   3.760   2.905   6.051  0.2517 -1.0599  1.0276
27509SOL     OW87656   8.693  10.144   5.748  0.6023  0.2196  0.1471
27509SOL    HW187657   8.703  10.147   5.653  1.5504 -0.6845  0.2138
27509SOL    HW287658   8.662  10.056   5.767 -1.2369  0.9357  0.5359
27510SOL     OW87659   8.670   4.953   7.366  0.0331  0.2888 -0.3409
27510SOL    HW187660   8.631   4.885   7.310  1.7409  0.5236 -1.8816
27510SOL    HW287661   8.597   4.987   7.417 -1.9789  1.2756 -3.7159
27511SOL     OW87662   3.510   4.800   4.513  0.1891 -0.1308 -0.3118
27511SOL    HW187663   3.478   4.869   4.455  3.9075  1.4962 -0.5659
27511SOL    HW287664   3.533   4.846   4.594  3.3661 -0.9122 -0.7290
27512SOL     OW87665   0.442   0.225   0.402 -0.2144 -0.1665  0.1068
27512SOL    HW187666   0.395   0.296   0.444 -0.4763 -0.5310  0.4326
27512SOL    HW287667   0.470   0.261   0.318  1.6329  1.0471  1.2136
27513SOL     OW87668   9.150   8.098   6.623 -0.2118  0.6724  0.2923
27513SOL    HW187669   9.118   8.036   6.558 -1.0546  0.9833  0.4021
27513SOL    HW287670   9.241   8.115   6.598  0.1145 -0.8388  0.4501
27514SOL     OW87671   4.750   4.005   6.390 -0.3218 -0.9563 -0.0613
27514SOL    HW187672   4.790   3.955   6.319 -1.2071 -0.8661 -0.6460
27514SOL    HW287673   4.667   3.960   6.407 -0.9304  0.0448 -0.3042
27515SOL     OW87674   6.164   5.617  10.146 -0.2024 -0.0114 -0.1438
27515SOL    HW187675   6.232   5.571  10.196 -2.1083 -3.6594 -0.7175
27515SOL    HW287676   6.213   5.674  10.086  2.2590 -0.2741  1.5428
27516SOL     OW87677   3.517   6.879  10.164 -0.6147 -0.0953 -0.3369
27516SOL    HW187678   3.515   6.908  10.255  0.9146 -0.2943 -0.2187
27516SOL    HW287679   3.610   6.859  10.148 -0.7858  0.4967 -2.1098
27517SOL     OW87680   1.834   9.970  11.073  0.2760 -0.0198 -0.0507
27517SOL    HW187681   1.786   9.959  10.991  1.6779 -2.5300 -0.5843
27517SOL    HW287682   1.923   9.941  11.052  0.2064 -2.4862  2.8276
27518SOL     OW87683  10.087   8.108  10.225 -0.0356  0.3898 -0.3659
27518SOL    HW187684  10.147   8.173  10.191 -0.0863  0.8161  0.3470
27518SOL    HW287685  10.030   8.156  10.285  1.4407 -0.6976  2.0128
27519SOL     OW87686   2.695   2.294   9.726 -0.1461  0.2486  0.1161
27519SOL    HW187687   2.611   2.249   9.720 -1.3392  2.3760  0.1942
27519SOL    HW287688   2.690   2.364   9.661  1.2795  0.8603  0.6303
27520SOL     OW87689  10.372   9.480   5.140 -0.0061  0.2143 -0.2566
27520SOL    HW187690  10.295   9.533   5.162 -0.6056 -1.5036  1.9933
27520SOL    HW287691  10.442   9.516   5.195 -0.2590 -0.8722  0.8009
27521SOL     OW87692  10.903   7.128   9.992  0.0922 -0.3519 -0.0435
27521SOL    HW187693  10.941   7.116  10.079  1.2901 -3.2633 -0.9214
27521SOL    HW287694  10.820   7.174  10.009  0.5776 -0.3425  2.5589
27522SOL     OW87695  10.930   5.578   0.518 -0.9004  0.0550  0.2303
27522SOL    HW187696  10.886   5.498   0.546  0.6680 -0.7855  0.3654
27522SOL    HW287697  10.944   5.567   0.424  0.6566 -0.5123  0.5159
27523SOL     OW87698  10.394  11.215   1.599  0.3232  0.5233 -0.1719
27523SOL    HW187699  10.315  11.249   1.556  0.9984  3.1314  0.5382
27523SOL    HW287700  10.461  11.282   1.583  1.9703 -0.9125  0.5585
27524SOL     OW87701   1.582   7.692   8.409 -0.5374  0.0559  0.4646
27524SOL    HW187702   1.677   7.691   8.400 -0.6510 -0.3583 -0.9177
27524SOL    HW287703   1.550   7.667   8.322 -1.9270  2.2427  0.3027
27525SOL     OW87704   5.782   2.857   1.413  0.1828 -0.2941  0.7318
27525SOL    HW187705   5.867   2.897   1.427 -0.1879  1.0341 -0.7210
27525SOL    HW287706   5.731   2.923   1.367 -1.6223 -1.0960  1.5417
27526SOL     OW87707   0.275   7.887   0.737  0.3954 -0.4212  0.1551
27526SOL    HW187708   0.341   7.956   0.741 -0.1871  0.2327 -1.0364
27526SOL    HW287709   0.283   7.840   0.820  1.4957  0.4426  0.5402
27527SOL     OW87710   8.832   2.466  10.485  0.1280  0.3152 -0.2784
27527SOL    HW187711   8.776   2.497  10.414  1.0092 -1.3406 -1.7231
27527SOL    HW287712   8.772   2.419  10.543 -0.4229  0.8333 -0.4177
27528SOL     OW87713   8.343  10.979   1.843 -0.1080  0.0122  0.4855
27528SOL    HW187714   8.435  10.960   1.828  0.0744  0.3766  1.1157
27528SOL    HW287715   8.296  10.911   1.795  0.5015 -0.6690  0.8482
27529SOL     OW87716   8.847   3.835   2.617 -0.0001  0.2086  0.3386
27529SOL    HW187717   8.838   3.818   2.711  1.8910 -0.1841  0.4744
27529SOL    HW287718   8.885   3.923   2.612 -0.7133  0.4926 -0.0806
27530SOL     OW87719   9.324  10.992   6.864 -0.0510  0.2793 -0.0652
27530SOL    HW187720   9.300  11.082   6.889 -0.4841 -0.2211  1.3749
27530SOL    HW287721   9.311  10.941   6.944  3.4073 -0.4885  0.0783
27531SOL     OW87722   8.550   6.434   8.363 -0.5739  0.0941  0.2436
27531SOL    HW187723   8.566   6.508   8.304 -1.9950 -0.2162 -0.5717
27531SOL    HW287724   8.619   6.372   8.343 -0.4112  0.4518 -0.3292
27532SOL     OW87725   4.926   8.633  10.640 -0.5957  0.3401  0.0967
27532SOL    HW187726   4.867   8.574  10.687 -1.5304  0.3965 -1.0035
27532SOL    HW287727   4.957   8.582  10.566  0.7227  0.3266  0.6410
27533SOL     OW87728   2.747   2.155   2.929 -0.5157 -0.3548  0.0093
27533SOL    HW187729   2.655   2.180   2.935 -0.3167  0.4472 -0.2195
27533SOL    HW287730   2.762   2.098   3.004 -1.2647 -0.7007 -0.0993
27534SOL     OW87731   2.516   5.290   0.275  0.4882  0.1453  0.2699
27534SOL    HW187732   2.481   5.253   0.357  0.5396 -0.4435  0.0327
27534SOL    HW287733   2.469   5.372   0.263 -0.0607 -0.1386  0.4959
27535SOL     OW87734   3.227   3.440  11.142 -0.2236 -1.0757 -0.0267
27535SOL    HW187735   3.188   3.381  11.207  1.4006 -1.3168  0.7649
27535SOL    HW287736   3.289   3.493  11.192 -0.4653  0.1949 -1.0281
27536SOL     OW87737   6.735   1.030   6.235 -0.0358  0.4651 -0.0212
27536SOL    HW187738   6.667   1.014   6.301 -0.2046 -1.1834 -0.5829
27536SOL    HW287739   6.770   0.943   6.215  1.1752  1.1368 -0.8839
27537SOL     OW87740   6.823   1.155   4.694  0.3051 -0.2190 -0.3143
27537SOL    HW187741   6.765   1.103   4.748 -0.6615 -0.3540 -1.4695
27537SOL    HW287742   6.843   1.100   4.619  1.5027  0.0264 -0.1851
27538SOL     OW87743   3.058   7.788   1.082  0.4042 -0.0958  0.1407
27538SOL    HW187744   3.053   7.785   0.987 -0.1460  0.9703  0.1347
27538SOL    HW287745   3.143   7.828   1.101  0.6586 -0.6096  0.1118
27539SOL     OW87746   4.821   0.785   2.974  0.0934 -0.0056  0.1921
27539SOL    HW187747   4.831   0.787   2.879 -1.4057 -0.6752  0.0168
27539SOL    HW287748   4.911   0.785   3.008  0.6366 -1.1201 -1.2408
27540SOL     OW87749   1.972   1.434   7.509 -0.0784  0.2333 -0.6388
27540SOL    HW187750   2.005   1.400   7.426 -0.1086  1.9255 -1.3506
27540SOL    HW287751   1.984   1.362   7.571 -0.1706 -1.0891 -2.1301
27541SOL     OW87752   5.743   8.692   2.295 -0.5046  0.0423 -0.6144
27541SOL    HW187753   5.699   8.718   2.375 -1.6902  1.5024 -1.7386
27541SOL    HW287754   5.816   8.636   2.326  0.7775  2.8359  1.6677
27542SOL     OW87755   9.425   6.818   4.243 -0.3772  0.0116 -0.4143
27542SOL    HW187756   9.488   6.745   4.244 -1.8763 -1.3117  1.6950
27542SOL    HW287757   9.344   6.779   4.212 -1.7733  0.2226  2.8030
27543SOL     OW87758   0.721   2.306   2.362  0.2775  0.4090 -0.7043
27543SOL    HW187759   0.685   2.374   2.305  0.8596  1.9143  0.6787
27543SOL    HW287760   0.656   2.298   2.432  0.6595  0.1808 -0.3799
27544SOL     OW87761  10.830   6.684   5.895  0.2149  0.4971 -0.3607
27544SOL    HW187762  10.783   6.762   5.923  0.3834  0.4023  0.1952
27544SOL    HW287763  10.834   6.691   5.799  1.1879  1.7106 -0.2406
27545SOL     OW87764   4.229  10.730   6.477 -0.2580  0.6812  0.5131
27545SOL    HW187765   4.207  10.781   6.399 -1.2297 -1.3340 -0.5702
27545SOL    HW287766   4.144  10.710   6.518  0.0036 -1.0054  0.2862
27546SOL     OW87767   1.678   6.916   6.304  0.4936 -0.6276  0.1722
27546SOL    HW187768   1.693   6.836   6.354 -0.6545 -0.6202  0.5342
27546SOL    HW287769   1.691   6.987   6.367 -1.0386 -0.6199  0.4960
27547SOL     OW87770   1.770   7.214   7.814  0.0359 -0.3299 -0.1354
27547SOL    HW187771   1.694   7.237   7.868 -0.0966  0.1198 -0.5068
27547SOL    HW287772   1.801   7.132   7.850 -0.0944 -0.0681  0.5833
27548SOL     OW87773   0.556   0.440   2.339 -0.5210 -0.2019  0.4875
27548SOL    HW187774   0.568   0.351   2.375 -0.6006  0.2375  1.6331
27548SOL    HW287775   0.547   0.427   2.245 -0.6203 -1.4304  0.6566
27549SOL     OW87776   4.153   4.404   3.756  0.1103  0.3247 -0.7213
27549SOL    HW187777   4.112   4.363   3.833 -0.9199 -0.3490 -1.6033
27549SOL    HW287778   4.191   4.330   3.708  1.1906  0.8013 -0.6060
27550SOL     OW87779   6.831   4.636   0.407 -0.0031  0.3679  0.3486
27550SOL    HW187780   6.757   4.602   0.356  0.2011 -0.6333  0.7137
27550SOL    HW287781   6.809   4.728   0.421 -1.0981  0.1286  0.2969
27551SOL     OW87782   0.222   7.880   6.020 -0.2477  0.0794 -0.0549
27551SOL    HW187783   0.225   7.975   6.031  0.2095  0.1235 -0.5102
27551SOL    HW287784   0.284   7.863   5.949  0.5873 -0.6822  0.8385
27552SOL     OW87785   0.445   6.440   7.190  0.0046  0.7178 -0.5693
27552SOL    HW187786   0.421   6.471   7.103 -0.5021  1.5319 -0.1557
27552SOL    HW287787   0.361   6.435   7.237  0.2826  0.3755 -0.1039
27553SOL     OW87788   9.327  10.274   0.184  0.2678  0.5725  0.4473
27553SOL    HW187789   9.403  10.330   0.166 -0.4762  0.8185 -2.0289
27553SOL    HW287790   9.349  10.190   0.144 -0.7845  0.6709 -0.3637
27554SOL     OW87791   9.048   1.458   0.077 -0.7460  0.5811 -0.1527
27554SOL    HW187792   9.137   1.424   0.076 -0.8151  0.1183  3.5947
27554SOL    HW287793   9.001   1.404   0.013  1.0857 -0.7484 -0.4015
27555SOL     OW87794   2.098   1.251   8.991 -0.1348  0.0482  0.0425
27555SOL    HW187795   2.179   1.203   8.975  0.4086  1.2473 -0.8874
27555SOL    HW287796   2.079   1.294   8.907 -0.8394  1.0858  0.7286
27556SOL     OW87797   5.010   3.546   3.221 -0.2409 -0.2127  0.2191
27556SOL    HW187798   4.998   3.628   3.269  0.2826  1.4760 -2.4455
27556SOL    HW287799   4.957   3.556   3.142  2.0691 -1.2764 -1.5140
27557SOL     OW87800  10.295   4.916   8.161  0.3182 -0.1755  0.0136
27557SOL    HW187801  10.367   4.856   8.182  0.6034 -0.4368 -1.5996
27557SOL    HW287802  10.335   5.003   8.163  0.6476 -0.3032 -0.6692
27558SOL     OW87803   7.602   7.419   1.017  0.5282 -0.3326 -0.5001
27558SOL    HW187804   7.599   7.325   0.998 -1.0618  0.0127 -2.1458
27558SOL    HW287805   7.593   7.425   1.112 -0.4667 -1.8134 -0.4721
27559SOL     OW87806  10.547   5.903   4.592 -0.1660 -0.1048  0.2389
27559SOL    HW187807  10.483   5.891   4.522 -1.0953  2.2380  0.6500
27559SOL    HW287808  10.495   5.916   4.671  0.8745 -3.0292  1.4805
27560SOL     OW87809   7.713  10.729   9.252  0.1896 -0.1256 -0.3104
27560SOL    HW187810   7.746  10.814   9.282  1.2931 -0.8141  0.4437
27560SOL    HW287811   7.773  10.665   9.289 -1.4470 -1.3561  0.3136
27561SOL     OW87812   5.164   9.967   8.129  0.1018 -0.1855  0.3627
27561SOL    HW187813   5.233  10.030   8.148 -0.1636  0.2784 -0.1972
27561SOL    HW287814   5.190   9.927   8.046  0.9562 -1.7783  1.3823
27562SOL     OW87815   0.617   8.541   1.950  0.1150  0.0770 -0.1330
27562SOL    HW187816   0.683   8.579   1.892  0.3412  0.4150  0.3420
27562SOL    HW287817   0.534   8.558   1.906  0.3047  0.1242 -0.4736
27563SOL     OW87818   7.075   4.286   0.857 -0.7088  0.9645 -0.2859
27563SOL    HW187819   7.048   4.312   0.945  0.0206  2.2844 -0.4366
27563SOL    HW287820   7.131   4.357   0.827  0.5072 -0.3161 -1.1294
27564SOL     OW87821   4.964   5.307   2.777 -0.5332 -0.0711  0.4805
27564SOL    HW187822   4.947   5.399   2.797 -1.5647 -0.4975  1.6325
27564SOL    HW287823   5.055   5.294   2.802  0.0832  1.0052 -1.1204
27565SOL     OW87824   1.950   1.162   8.350  0.0660  0.0020  0.4264
27565SOL    HW187825   1.894   1.181   8.275 -1.0465  1.8335  1.7041
27565SOL    HW287826   2.013   1.234   8.353  1.4987 -1.2109 -0.0465
27566SOL     OW87827   4.914   9.261   9.806  0.2352 -0.0664 -0.4438
27566SOL    HW187828   4.858   9.297   9.875 -0.3919 -1.6029 -0.1397
27566SOL    HW287829   4.856   9.255   9.729 -0.4251 -2.9232  0.2335
27567SOL     OW87830   8.897   9.911   9.569 -0.0737 -0.5656  0.6056
27567SOL    HW187831   8.941   9.830   9.593  2.2279  1.0570  2.1283
27567SOL    HW287832   8.899   9.964   9.649 -0.2842  1.5034 -0.7126
27568SOL     OW87833   7.568   0.015  10.714  0.2999  0.1900 -0.3049
27568SOL    HW187834   7.507  -0.053  10.684 -1.0035  1.8761 -1.5726
27568SOL    HW287835   7.519   0.062  10.781  0.2652  1.4143 -1.1775
27569SOL     OW87836   8.895  10.926   7.365  0.3174 -0.0268  0.8648
27569SOL    HW187837   8.915  10.978   7.443 -0.1872  0.0251  0.9620
27569SOL    HW287838   8.854  10.988   7.305  0.4330 -0.1360  0.6730
27570SOL     OW87839   0.033   2.844   8.584 -0.4547 -0.5839 -0.1157
27570SOL    HW187840   0.079   2.928   8.573  0.4373 -0.8246  1.7738
27570SOL    HW287841   0.022   2.812   8.494  0.7759  0.6963 -0.7492
27571SOL     OW87842   1.747   1.862   5.233 -0.3975 -0.0604 -0.1094
27571SOL    HW187843   1.821   1.920   5.217  0.5099 -1.2092 -0.1282
27571SOL    HW287844   1.677   1.897   5.177  0.3616  0.5706 -0.6805
27572SOL     OW87845   5.824   9.153   9.690  0.0332 -0.5245 -0.4619
27572SOL    HW187846   5.764   9.214   9.733 -0.6970 -0.5588 -1.4041
27572SOL    HW287847   5.890   9.209   9.648 -0.3294 -0.4067 -0.8752
27573SOL     OW87848   2.458   4.444   9.968 -0.4838  0.4962  0.0351
27573SOL    HW187849   2.383   4.487  10.009 -0.0250 -0.6107  2.1091
27573SOL    HW287850   2.419   4.374   9.915 -0.8620 -1.5776  2.9407
27574SOL     OW87851   2.495   3.367   9.039  0.2653 -0.6797 -0.6051
27574SOL    HW187852   2.549   3.333   9.110  0.8115  0.0145 -0.6859
27574SOL    HW287853   2.530   3.455   9.021 -1.3000  0.0482 -0.2113
27575SOL     OW87854  10.943   5.054   2.236  0.0669  0.1090  0.0409
27575SOL    HW187855  10.900   5.136   2.213  1.4467  0.8178 -0.0961
27575SOL    HW287856  10.884   4.986   2.205 -1.1291  1.0559  0.2298
27576SOL     OW87857   9.275   8.589  10.369  0.2468  0.1374 -0.2240
27576SOL    HW187858   9.192   8.614  10.412 -0.9184  1.1298 -2.9595
27576SOL    HW287859   9.250   8.519  10.308  2.0294 -1.8204  1.2281
27577SOL     OW87860   7.975   7.175   2.928  0.3973 -0.1936 -0.6683
27577SOL    HW187861   7.902   7.116   2.906 -0.3167  0.5189 -0.2320
27577SOL    HW287862   7.977   7.239   2.858 -0.1889  0.5158 -0.0434
27578SOL     OW87863   0.893   2.473  10.305  0.1555 -0.0304 -0.0900
27578SOL    HW187864   0.912   2.520  10.386  0.5347 -1.3195  0.5876
27578SOL    HW287865   0.800   2.453  10.310 -0.1440  1.1893 -0.6750
27579SOL     OW87866   2.698  10.622   2.454 -0.3228  0.0724  0.0941
27579SOL    HW187867   2.701  10.702   2.507 -1.2236 -0.7904  1.4797
27579SOL    HW287868   2.788  10.608   2.426  0.2671  0.2470  1.8558
27580SOL     OW87869   5.719   5.333   3.837 -0.1839 -0.3758  0.1641
27580SOL    HW187870   5.636   5.291   3.859 -0.2792 -0.3466 -0.1338
27580SOL    HW287871   5.785   5.285   3.888 -0.3932 -0.3492  0.4586
27581SOL     OW87872   3.944   8.204   8.246 -0.1360  0.6687  0.3488
27581SOL    HW187873   3.998   8.282   8.248  1.4547 -0.3401 -1.7918
27581SOL    HW287874   3.854   8.236   8.239  0.4219  2.2987  0.6297
27582SOL     OW87875   6.120   7.152   9.073  0.5026 -0.1794 -0.2711
27582SOL    HW187876   6.042   7.135   9.020 -0.3956 -0.6035  1.1526
27582SOL    HW287877   6.148   7.239   9.047 -2.1377  1.1927  1.1851
27583SOL     OW87878   7.329   0.722   4.604  0.0563 -0.0469  0.5818
27583SOL    HW187879   7.304   0.807   4.639 -1.6191 -0.2109 -0.1731
27583SOL    HW287880   7.276   0.659   4.654  0.1625 -0.5274  0.0959
27584SOL     OW87881   1.203  10.373   7.062  0.5201 -0.1906 -0.0684
27584SOL    HW187882   1.288  10.407   7.034  0.4370  0.0319 -0.0493
27584SOL    HW287883   1.193  10.405   7.152  0.0051  0.5438 -0.3872
27585SOL     OW87884   3.404   2.799   5.870 -0.7832 -0.3760  0.1100
27585SOL    HW187885   3.392   2.728   5.808  1.5136 -2.1338  1.6157
27585SOL    HW287886   3.474   2.853   5.833  0.1052 -1.0345  0.8237
27586SOL     OW87887   0.726   8.565   6.315 -0.0509  0.2213 -0.0919
27586SOL    HW187888   0.641   8.560   6.273 -0.8091  1.4831  1.2653
27586SOL    HW287889   0.770   8.638   6.271 -0.6526  1.2199  0.9636
27587SOL     OW87890   5.101   0.674   4.458 -1.1542 -0.0399 -0.0322
27587SOL    HW187891   5.068   0.689   4.369 -0.3976  1.0425 -0.1443
27587SOL    HW287892   5.043   0.606   4.494 -1.4999 -0.4458 -1.3239
27588SOL     OW87893   8.820   3.212   9.516  0.4098 -0.3209  0.2393
27588SOL    HW187894   8.729   3.241   9.513  1.0558  1.6324 -1.2367
27588SOL    HW287895   8.868   3.288   9.548  1.5852 -1.2256  0.6600
27589SOL     OW87896   7.082   8.290   9.255 -0.4492 -0.1371 -0.3890
27589SOL    HW187897   7.094   8.196   9.264  0.2959 -0.0943 -0.9304
27589SOL    HW287898   7.026   8.314   9.330  0.4313 -0.8022  0.4948
27590SOL     OW87899  10.095   7.324   9.671 -0.3918  0.1857 -0.2167
27590SOL    HW187900  10.094   7.244   9.723  0.7020 -0.7321 -1.5621
27590SOL    HW287901  10.003   7.349   9.664 -0.8864 -1.7272 -0.8999
27591SOL     OW87902   9.573   7.633   8.139 -0.1249  0.5171 -0.5980
27591SOL    HW187903   9.619   7.715   8.153 -0.3170  0.9616 -2.5412
27591SOL    HW287904   9.498   7.637   8.198 -0.3165  1.8859 -0.9320
27592SOL     OW87905   7.811   3.569   0.149 -0.4085 -0.1907 -0.1569
27592SOL    HW187906   7.784   3.661   0.148  0.2992  0.0247 -0.6477
27592SOL    HW287907   7.769   3.532   0.226 -0.0346  0.7589  0.5189
27593SOL     OW87908   5.378   6.976   2.252  0.0905  0.1202  0.4447
27593SOL    HW187909   5.343   6.909   2.194  0.1976 -0.8492  1.4788
27593SOL    HW287910   5.456   7.009   2.207 -1.2262  1.1655 -1.1144
27594SOL     OW87911   8.641   3.931   0.793  0.4673 -0.2572  0.2519
27594SOL    HW187912   8.601   3.930   0.707  0.2157 -1.7848  0.3639
27594SOL    HW287913   8.735   3.944   0.776  0.3140  0.2745 -0.1893
27595SOL     OW87914   7.232  10.474   1.915  0.9309  0.0287  0.1915
27595SOL    HW187915   7.153  10.472   1.968  0.5409  2.9610 -0.2327
27595SOL    HW287916   7.303  10.451   1.976 -0.0633 -1.2243  0.8842
27596SOL     OW87917   2.099   2.992   2.263  0.6015  0.1647  0.1397
27596SOL    HW187918   2.126   2.985   2.355  0.3059 -1.0001  0.1459
27596SOL    HW287919   2.145   3.069   2.230  0.3762  0.8438  1.3822
27597SOL     OW87920   8.549   8.511   7.172 -0.4190  0.5321 -0.1747
27597SOL    HW187921   8.466   8.483   7.131 -0.0496 -1.3769  0.3627
27597SOL    HW287922   8.610   8.518   7.099 -0.9894  1.7683 -0.5510
27598SOL     OW87923   9.991  10.515  11.083  0.3047  0.0074 -0.1537
27598SOL    HW187924   9.924  10.463  11.039  0.7123 -1.2112  0.6191
27598SOL    HW287925  10.045  10.550  11.013  0.1600 -0.8193 -0.6730
27599SOL     OW87926   2.630   6.311   8.671  0.1843 -0.1255 -0.3952
27599SOL    HW187927   2.548   6.292   8.625  0.0488 -0.6043  0.0364
27599SOL    HW287928   2.603   6.366   8.745 -0.2743 -3.2443  1.8476
27600SOL     OW87929   7.126   6.804   8.442 -0.3183 -0.5413  0.3398
27600SOL    HW187930   7.055   6.866   8.457  0.7171  1.0208 -0.9704
27600SOL    HW287931   7.195   6.830   8.502  0.4179  0.0960 -0.7577
27601SOL     OW87932   3.041   3.541   6.110  0.3828 -0.5996  0.7332
27601SOL    HW187933   2.981   3.552   6.037 -0.3655 -1.3590  1.2339
27601SOL    HW287934   3.011   3.604   6.176  0.1328 -0.9638  0.9748
27602SOL     OW87935   6.219   9.561  10.492 -0.1538 -0.0625  0.2810
27602SOL    HW187936   6.160   9.561  10.567 -0.6895  1.6265 -0.1043
27602SOL    HW287937   6.162   9.547  10.417  0.4107 -1.9890  0.1849
27603SOL     OW87938   9.323   0.787   6.616 -0.4882 -0.5078 -0.1554
27603SOL    HW187939   9.379   0.766   6.541 -1.4642  0.8090 -1.2977
27603SOL    HW287940   9.263   0.712   6.623  0.8349 -1.5074  0.5093
27604SOL     OW87941   4.491   0.362   0.144 -0.4529  0.3668  0.0062
27604SOL    HW187942   4.495   0.269   0.167 -2.2137  0.5523  1.1840
27604SOL    HW287943   4.543   0.406   0.211 -0.4089  0.3034  0.0129
27605SOL     OW87944   6.090   9.292   5.314 -0.4565  0.3284 -0.4391
27605SOL    HW187945   6.041   9.358   5.363 -1.1859 -0.8243  0.3831
27605SOL    HW287946   6.128   9.235   5.380  0.0128 -0.2117 -1.1589
27606SOL     OW87947   1.853   5.507   1.805  0.7028  0.0297  0.0730
27606SOL    HW187948   1.771   5.459   1.796  0.3987  0.4827  0.3947
27606SOL    HW287949   1.896   5.497   1.720  0.6790 -0.8696  0.1643
27607SOL     OW87950   7.502   8.698   5.928 -0.3007 -0.2361  0.0014
27607SOL    HW187951   7.463   8.613   5.911  1.2190 -0.9376 -0.1068
27607SOL    HW287952   7.485   8.716   6.020  0.3594 -1.1975  0.3189
27608SOL     OW87953   3.955   0.137   7.825 -0.1152  0.3252 -0.1919
27608SOL    HW187954   4.017   0.140   7.752  0.2333  1.2685  0.1337
27608SOL    HW287955   3.869   0.137   7.784  0.0786  0.9068 -0.6069
27609SOL     OW87956  10.873   7.336   5.839 -0.4698  0.1144 -0.6720
27609SOL    HW187957  10.809   7.309   5.904 -0.9514 -0.9016 -1.5516
27609SOL    HW287958  10.825   7.397   5.782 -0.4634 -0.1225 -0.9319
27610SOL     OW87959   7.213   4.838   3.731 -0.4157  0.1725  0.2574
27610SOL    HW187960   7.220   4.932   3.719  0.8294 -0.1487 -1.6787
27610SOL    HW287961   7.119   4.822   3.746 -0.7621  1.5994 -0.3462
27611SOL     OW87962   1.985  10.081   1.173  0.4198 -0.1537  0.4628
27611SOL    HW187963   2.035  10.162   1.163  0.1386 -0.0504 -0.1412
27611SOL    HW287964   1.895  10.107   1.152  0.4701 -0.8194 -0.6029
27612SOL     OW87965   5.298   4.420   3.548  0.5520  0.2112  0.2606
27612SOL    HW187966   5.318   4.366   3.624 -0.6166  1.4550  1.4867
27612SOL    HW287967   5.226   4.475   3.577  2.2420  3.0136 -0.6424
27613SOL     OW87968  10.973   7.590   4.635 -0.0151 -0.3614 -0.1427
27613SOL    HW187969  11.062   7.583   4.600  1.5131  0.8077  3.3290
27613SOL    HW287970  10.959   7.507   4.682  0.6424  0.8892  2.3232
27614SOL     OW87971   3.703   3.539   1.618 -0.6067 -0.3069  0.2626
27614SOL    HW187972   3.614   3.573   1.629 -1.0573 -2.1114  2.7348
27614SOL    HW287973   3.759   3.616   1.621 -1.8623  0.5696  2.0368
27615SOL     OW87974   8.598   6.551   7.999  0.0126  0.0655 -0.9123
27615SOL    HW187975   8.558   6.601   8.070  1.0859  2.0445 -1.6533
27615SOL    HW287976   8.567   6.462   8.012 -0.1430  0.4677  1.8009
27616SOL     OW87977   3.924   3.994   4.295  0.3479 -0.1809  0.1325
27616SOL    HW187978   3.902   3.933   4.365 -1.0279 -0.4161 -0.4961
27616SOL    HW287979   3.972   3.941   4.231  1.4753  0.0015  0.8130
27617SOL     OW87980   1.561   3.199   1.127  0.8185 -0.1244  0.2016
27617SOL    HW187981   1.551   3.288   1.161  1.3947  0.7664 -1.8920
27617SOL    HW287982   1.472   3.173   1.105  0.8511  0.6667 -0.9269
27618SOL     OW87983  10.679   3.125   7.471  0.3669 -0.2769 -0.3221
27618SOL    HW187984  10.715   3.038   7.492  1.9071  0.8339  1.8414
27618SOL    HW287985  10.588   3.107   7.447  0.9866 -2.6221 -1.0657
27619SOL     OW87986   9.773   7.706   9.656  0.1743  0.0968 -0.2501
27619SOL    HW187987   9.839   7.753   9.706  0.8245 -0.3600 -0.6659
27619SOL    HW287988   9.784   7.737   9.566 -2.5322  2.6484  0.2298
27620SOL     OW87989   3.372   0.747   5.587 -0.3056 -0.2112  0.3827
27620SOL    HW187990   3.343   0.830   5.625  1.0557  0.8675 -0.8809
27620SOL    HW287991   3.313   0.733   5.513  0.5593  0.5295 -0.4576
27621SOL     OW87992   1.821   7.516   1.704  0.1367  0.1017 -0.9815
27621SOL    HW187993   1.884   7.577   1.666 -0.3408  0.9263 -0.4731
27621SOL    HW287994   1.785   7.469   1.628  0.5398  0.4281 -1.3783
27622SOL     OW87995   6.701   1.591   6.528 -0.4168 -0.9072  0.2066
27622SOL    HW187996   6.796   1.587   6.538 -0.3715  0.6637  0.6474
27622SOL    HW287997   6.667   1.521   6.583  0.3325  0.9478  3.1667
27623SOL     OW87998  11.119   4.329   3.695  0.0250  0.0015 -0.1518
27623SOL    HW187999  11.028   4.310   3.719 -0.1906  2.0268  0.7455
27623SOL    HW288000  11.113   4.390   3.622  0.6317  0.5894  0.2698
27624SOL     OW88001   8.212   4.473   4.232 -0.4996  0.0803 -0.0703
27624SOL    HW188002   8.189   4.507   4.145  0.5538  1.4591  0.1706
27624SOL    HW288003   8.197   4.547   4.291  0.9141 -0.1540  0.6019
27625SOL     OW88004   9.586   5.181   1.651 -0.5657 -0.2871  0.2836
27625SOL    HW188005   9.542   5.225   1.579  0.4300 -0.7548 -0.6129
27625SOL    HW288006   9.532   5.201   1.728 -1.3257  0.6538 -0.4903
27626SOL     OW88007   5.020   6.322  10.801  0.5900  0.6156  0.3200
27626SOL    HW188008   4.985   6.340  10.713  0.3863  0.7986  0.4379
27626SOL    HW288009   4.969   6.379  10.859 -0.1759 -0.4566  0.7163
27627SOL     OW88010   9.350   3.147   6.590  0.3293 -0.0036  0.1649
27627SOL    HW188011   9.278   3.183   6.643  1.5977  3.0173 -0.1041
27627SOL    HW288012   9.312   3.069   6.549 -1.4067 -1.1146  3.6257
27628SOL     OW88013   2.760   7.097   7.145 -0.4174  0.6975 -0.8208
27628SOL    HW188014   2.797   7.088   7.233 -0.0076 -1.1384 -1.1511
27628SOL    HW288015   2.823   7.153   7.098  0.6458 -0.3166 -0.6377
27629SOL     OW88016   9.651   0.390   3.540  0.3827 -0.1064 -0.4067
27629SOL    HW188017   9.706   0.374   3.616  0.5329  1.3926 -0.1909
27629SOL    HW288018   9.701   0.356   3.466  1.2496  0.5097 -0.1093
27630SOL     OW88019   5.391   6.852   4.031 -0.2276 -0.1105 -0.2723
27630SOL    HW188020   5.336   6.781   3.996 -1.4416  0.7264 -0.1102
27630SOL    HW288021   5.410   6.906   3.954  0.6717 -0.5881 -0.3896
27631SOL     OW88022   4.973   3.740   6.456 -0.3780  0.2967  0.4233
27631SOL    HW188023   4.965   3.737   6.361  1.7998  0.1046  0.2361
27631SOL    HW288024   4.886   3.715   6.488 -0.0436 -3.6537 -1.4877
27632SOL     OW88025   2.619   2.747   7.254 -0.2246 -0.1091  0.3523
27632SOL    HW188026   2.544   2.747   7.314 -0.9381  0.9529 -0.5105
27632SOL    HW288027   2.592   2.806   7.183  0.1890 -2.1339 -1.5294
27633SOL     OW88028   6.719   5.531   4.104 -0.2776 -0.2167 -0.2353
27633SOL    HW188029   6.729   5.484   4.021  1.0655 -1.5703  0.6597
27633SOL    HW288030   6.793   5.592   4.107 -1.6037  1.4809 -1.0530
27634SOL     OW88031   5.135   6.961   3.803  0.0742 -0.4806 -0.5321
27634SOL    HW188032   5.151   7.012   3.882 -0.3753  0.5540 -1.1064
27634SOL    HW288033   5.223   6.947   3.766  0.2404 -0.5536 -0.1118
27635SOL     OW88034   2.555   8.025   7.552 -0.1930  0.9324 -0.3920
27635SOL    HW188035   2.555   8.102   7.608  0.3828 -0.3345  1.4119
27635SOL    HW288036   2.629   7.973   7.583 -1.7919 -1.3141 -0.1636
27636SOL     OW88037   0.706   4.185   0.106  0.5385 -0.0182 -0.1235
27636SOL    HW188038   0.615   4.210   0.090  0.4076  0.4674  1.3170
27636SOL    HW288039   0.717   4.102   0.060 -0.5685  0.0367 -0.4888
27637SOL     OW88040  11.176   8.659   1.098  0.1761  0.0449  0.4175
27637SOL    HW188041  11.186   8.608   1.017 -0.5782  0.2918  0.1736
27637SOL    HW288042  11.219   8.742   1.079 -0.9353  0.5120 -0.1042
27638SOL     OW88043  10.574   4.729  10.515  0.5664  0.0033 -0.2448
27638SOL    HW188044  10.652   4.741  10.570  0.0683  0.2149  0.4281
27638SOL    HW288045  10.593   4.651  10.463  2.0269  1.1519 -1.4873
27639SOL     OW88046   4.620   2.189   7.847 -0.5519  0.0201 -0.0175
27639SOL    HW188047   4.567   2.179   7.926 -1.1378  0.0718 -0.4079
27639SOL    HW288048   4.710   2.193   7.880 -0.8232  0.4815  0.6805
27640SOL     OW88049   5.042  10.193   6.797  0.1126  0.2922  0.3117
27640SOL    HW188050   5.064  10.167   6.887 -2.5650 -0.0848  0.8952
27640SOL    HW288051   5.016  10.112   6.754 -4.0785  1.2309  0.8775
27641SOL     OW88052   4.400   0.435  11.177  0.6890 -0.1076 -0.3683
27641SOL    HW188053   4.473   0.437  11.239 -0.0916 -0.8008  0.5821
27641SOL    HW288054   4.321   0.431  11.232 -0.0129 -0.6080 -1.3900
27642SOL     OW88055   8.630   0.322   8.516 -0.2801 -0.0219  0.7651
27642SOL    HW188056   8.681   0.241   8.519 -0.5146 -0.1607  1.0313
27642SOL    HW288057   8.695   0.391   8.529  0.0605 -0.1110 -0.4369
27643SOL     OW88058   4.764   5.870   2.423  0.0096  0.0677  0.0198
27643SOL    HW188059   4.676   5.853   2.391  0.1402  1.6381 -1.2529
27643SOL    HW288060   4.787   5.792   2.474 -2.4222 -0.0045  1.0853
27644SOL     OW88061   6.422  10.845  11.051 -0.1376 -0.1749 -0.6224
27644SOL    HW188062   6.372  10.767  11.075  2.2257 -1.3321  0.7179
27644SOL    HW288063   6.429  10.840  10.955  1.2416 -2.4235 -0.4429
27645SOL     OW88064   3.232   5.345   4.059  0.3362  0.2654 -0.9453
27645SOL    HW188065   3.202   5.434   4.040 -2.2495 -0.4500 -0.4645
27645SOL    HW288066   3.272   5.352   4.146  0.7752  1.0944 -1.2107
27646SOL     OW88067   4.818   9.681   4.041 -0.5407 -0.2705  0.1529
27646SOL    HW188068   4.787   9.692   4.131  2.4290  0.1169  1.1746
27646SOL    HW288069   4.771   9.748   3.992 -1.9141 -0.2380  1.4676
27647SOL     OW88070  10.630   4.587   6.340 -0.2173 -0.4177  0.0970
27647SOL    HW188071  10.567   4.656   6.318  0.7969 -0.3200 -2.8113
27647SOL    HW288072  10.681   4.623   6.412 -0.6986  1.2781 -0.3787
27648SOL     OW88073   6.290   3.252   8.007  0.3467 -0.3607  0.1229
27648SOL    HW188074   6.317   3.339   8.036  2.0905 -0.2245 -1.8117
27648SOL    HW288075   6.239   3.268   7.928 -0.3338 -1.0444  0.4094
27649SOL     OW88076   1.727   2.555   0.340  0.7351 -0.2810  0.7792
27649SOL    HW188077   1.772   2.510   0.411  0.6019 -0.5511  0.6941
27649SOL    HW288078   1.760   2.645   0.343 -0.1483  0.0182  1.9317
27650SOL     OW88079   4.264   6.144  10.307  0.2278  0.1005  0.5569
27650SOL    HW188080   4.314   6.225  10.301  0.3827  0.1054  1.7703
27650SOL    HW288081   4.214   6.140  10.225  1.7647  0.3831 -0.4266
27651SOL     OW88082   4.980   5.406   5.941 -0.1205  0.4967 -0.2612
27651SOL    HW188083   4.983   5.330   5.883  0.6165 -0.4276  0.9560
27651SOL    HW288084   5.042   5.468   5.903  1.5090 -0.7197  0.3714
27652SOL     OW88085   4.865   5.430   4.181 -0.0444 -0.0708  0.2164
27652SOL    HW188086   4.939   5.400   4.129  1.7934  2.9223  0.9728
27652SOL    HW288087   4.788   5.394   4.136  1.7559 -1.8320 -1.5653
27653SOL     OW88088   9.102   9.055   9.676  0.1785 -0.1869  0.2293
27653SOL    HW188089   9.043   9.130   9.670  0.0776 -0.4664 -2.6274
27653SOL    HW288090   9.053   8.991   9.727 -1.2735  0.2705 -0.5471
27654SOL     OW88091   4.724   6.280  10.950  0.0321 -0.1815 -0.0204
27654SOL    HW188092   4.801   6.301  11.003 -1.3737 -0.2451  2.1084
27654SOL    HW288093   4.650   6.285  11.011 -1.6680 -0.1130 -2.0188
27655SOL     OW88094   9.288   6.001  10.829  0.1365  0.3260  0.0330
27655SOL    HW188095   9.302   6.064  10.758  2.7613  0.5977  0.7144
27655SOL    HW288096   9.329   6.042  10.906 -1.9277 -0.3301  1.5126
27656SOL     OW88097   0.243   0.524   1.838 -0.2560 -0.3178  0.0474
27656SOL    HW188098   0.284   0.497   1.755  0.3183  1.8227 -0.3894
27656SOL    HW288099   0.296   0.597   1.868 -2.0322  0.6101  0.9743
27657SOL     OW88100   9.729   8.587   4.698 -0.1772 -0.0160  0.6485
27657SOL    HW188101   9.650   8.542   4.728  0.3316 -1.0181  0.5039
27657SOL    HW288102   9.711   8.680   4.714 -2.0378 -0.0657 -0.9019
27658SOL     OW88103   7.832   0.167  11.192 -0.3732  0.0393 -0.0975
27658SOL    HW188104   7.770   0.158  11.120  0.7493 -0.0363 -1.0599
27658SOL    HW288105   7.872   0.081  11.201  1.3653  0.6992 -1.1269
27659SOL     OW88106   9.244  11.079   5.021  0.2013  0.1195  0.5938
27659SOL    HW188107   9.287  11.133   5.088  0.9068 -1.1023  1.1609
27659SOL    HW288108   9.195  11.014   5.072 -0.5743  0.1829 -0.0760
27660SOL     OW88109   9.096   9.387   9.154 -0.3531 -0.0810  0.6954
27660SOL    HW188110   9.075   9.442   9.230 -0.1991  0.6443  0.2085
27660SOL    HW288111   9.139   9.446   9.093  0.4779 -0.9120  0.4832
27661SOL     OW88112   6.637   1.395   6.074  0.4906  0.3297  0.8821
27661SOL    HW188113   6.667   1.476   6.117  0.2955  1.7003 -1.4663
27661SOL    HW288114   6.584   1.425   6.000  0.8316 -1.9374 -0.3398
27662SOL     OW88115   9.254   7.533   7.238  0.4692 -0.4990  0.4115
27662SOL    HW188116   9.348   7.518   7.247  0.7075  0.7536  0.1427
27662SOL    HW288117   9.228   7.577   7.319  0.3544  0.2299 -0.0109
27663SOL     OW88118   9.167   3.226  10.290 -0.2214 -0.3387  0.0923
27663SOL    HW188119   9.211   3.142  10.307 -0.2741 -0.5620 -0.8786
27663SOL    HW288120   9.161   3.267  10.377 -0.2462 -1.3583  0.5852
27664SOL     OW88121   1.392   1.721   0.000  0.1356 -0.4660  0.3449
27664SOL    HW188122   1.389   1.693  -0.091 -0.4231 -2.2427  0.8775
27664SOL    HW288123   1.406   1.816  -0.003 -1.9376 -0.1870 -1.6225
27665SOL     OW88124   5.436   1.090   2.007 -0.0498  0.1091 -0.1362
27665SOL    HW188125   5.358   1.085   1.952  1.1133 -0.3853 -1.7847
27665SOL    HW288126   5.448   1.001   2.039 -1.7171  0.7469  2.3731
27666SOL     OW88127   8.077   4.113   8.531  0.1300 -0.1605 -0.7003
27666SOL    HW188128   8.042   4.195   8.496 -0.6368 -0.1949 -0.0376
27666SOL    HW288129   8.151   4.140   8.585 -2.4310  0.5180  2.6611
27667SOL     OW88130   2.621   1.210   4.845 -0.2716 -0.2903 -0.0244
27667SOL    HW188131   2.632   1.163   4.927 -1.1206 -0.5627 -0.0589
27667SOL    HW288132   2.564   1.154   4.792  0.9948 -0.5362 -1.1523
27668SOL     OW88133   1.016   2.972   2.513  0.3785  0.0158 -0.9416
27668SOL    HW188134   1.038   2.964   2.606  0.3003 -1.2038 -1.0183
27668SOL    HW288135   1.032   3.064   2.492 -1.9498  0.8834  0.8712
27669SOL     OW88136  10.834   2.845   6.545  0.3025 -0.0915 -0.4190
27669SOL    HW188137  10.763   2.835   6.608  0.8476 -3.9596 -0.3238
27669SOL    HW288138  10.905   2.885   6.596 -0.8688  1.3556  0.1364
27670SOL     OW88139   5.475   5.557   1.228 -0.5670 -0.2422  0.0963
27670SOL    HW188140   5.399   5.510   1.193 -0.6566 -0.2026  0.2355
27670SOL    HW288141   5.534   5.568   1.153 -0.6747 -0.3221  0.0007
27671SOL     OW88142   3.437   1.992   2.471  0.5661  0.0058 -0.6238
27671SOL    HW188143   3.410   1.919   2.527 -2.4975  2.3041  1.0755
27671SOL    HW288144   3.485   2.050   2.530 -0.1837  1.0719 -1.0560
27672SOL     OW88145  10.002   6.014   5.325  0.7733 -0.0376 -0.1229
27672SOL    HW188146  10.022   6.094   5.372  1.3216 -0.3342  0.1555
27672SOL    HW288147   9.916   6.029   5.285  1.0773  0.8498 -0.4410
27673SOL     OW88148   0.570   0.235   4.842  0.2701 -0.3158 -0.1163
27673SOL    HW188149   0.490   0.194   4.875 -0.9915  0.3868 -2.2006
27673SOL    HW288150   0.629   0.162   4.826  0.0440 -0.8514  1.3787
27674SOL     OW88151  10.241   9.328   7.742 -0.4254  1.4677 -0.0841
27674SOL    HW188152  10.203   9.344   7.828  1.0799  1.2768  0.6310
27674SOL    HW288153  10.282   9.410   7.717  0.7817  0.9800  0.2417
27675SOL     OW88154   9.702   5.429   0.553 -0.5133  0.2487 -0.1626
27675SOL    HW188155   9.758   5.390   0.485 -0.7063 -0.9982  0.3800
27675SOL    HW288156   9.627   5.370   0.558 -1.2184  1.1626  0.0909
27676SOL     OW88157   3.401   4.902  11.226  0.2272  0.2873 -0.3936
27676SOL    HW188158   3.427   4.822  11.180 -0.2661  2.4888 -4.7093
27676SOL    HW288159   3.483   4.949  11.240  0.1715  0.4499 -0.6227
27677SOL     OW88160   6.016   5.954   4.035 -0.2051  0.1942  0.6165
27677SOL    HW188161   5.925   5.981   4.025  0.1430  0.8707 -0.9340
27677SOL    HW288162   6.067   6.029   4.003  0.8402 -0.9563 -0.4959
27678SOL     OW88163   7.266  10.984   2.224  0.0066  0.1874 -0.1354
27678SOL    HW188164   7.247  10.909   2.167 -0.0176  0.6161 -0.6918
27678SOL    HW288165   7.360  11.000   2.211 -0.5280  1.9924 -2.1442
27679SOL     OW88166  10.151   6.045   2.676  0.0656 -0.3638 -0.4260
27679SOL    HW188167  10.080   5.995   2.715 -0.3206 -0.7977 -1.6707
27679SOL    HW288168  10.197   6.084   2.751 -0.8426 -0.9285  0.4343
27680SOL     OW88169  10.055   0.786   8.577 -0.1968 -0.2934  0.4904
27680SOL    HW188170  10.011   0.741   8.650  0.7669 -1.0399  0.6289
27680SOL    HW288171  10.013   0.751   8.499 -1.5381  0.8370  0.6911
27681SOL     OW88172   1.610   6.046   8.696  0.2018  0.2375  0.5227
27681SOL    HW188173   1.609   6.054   8.600  0.6494  1.5702  0.6148
27681SOL    HW288174   1.697   6.012   8.716  0.3476  0.5783  0.4847
27682SOL     OW88175   2.812   0.280   7.860 -0.5451 -0.4543 -0.2863
27682SOL    HW188176   2.723   0.286   7.893 -0.0477 -1.0864  1.2238
27682SOL    HW288177   2.815   0.197   7.813 -0.7298 -0.4877 -0.2393
27683SOL     OW88178   3.217   9.347   1.393 -0.0870 -0.3402 -0.1421
27683SOL    HW188179   3.285   9.414   1.397 -0.2591 -0.1954  0.5434
27683SOL    HW288180   3.244   9.289   1.322 -0.3191  0.8687 -1.2462
27684SOL     OW88181  10.152  11.094   2.565  0.0028 -0.1318 -0.3687
27684SOL    HW188182  10.222  11.029   2.562  1.0344  0.9495 -0.2166
27684SOL    HW288183  10.177  11.159   2.499 -0.7810  0.3421 -0.2066
27685SOL     OW88184   9.320   6.013   0.004 -0.2024 -0.4428 -0.0032
27685SOL    HW188185   9.341   5.963   0.084 -1.3653  0.4431  0.8788
27685SOL    HW288186   9.245   5.967  -0.034 -0.3143 -0.2538 -0.0110
27686SOL     OW88187   9.909   2.708   1.251  0.4368  0.0871  0.0580
27686SOL    HW188188   9.957   2.639   1.297  1.4226  1.1373  0.6300
27686SOL    HW288189   9.820   2.701   1.284  0.5973 -0.7140  0.3362
27687SOL     OW88190   7.216   1.446   3.938  0.8761  0.6527 -0.2298
27687SOL    HW188191   7.166   1.419   4.015  0.2343  1.0231 -0.5162
27687SOL    HW288192   7.161   1.422   3.864  1.6218  0.0323 -0.5859
27688SOL     OW88193   8.708   9.778   0.911  0.4425 -0.2096 -0.3139
27688SOL    HW188194   8.708   9.851   0.849 -0.8029 -0.7409 -0.9716
27688SOL    HW288195   8.785   9.792   0.965  1.2476  0.5625 -1.6455
27689SOL     OW88196   7.599   3.998   4.139  0.1861  0.6114  0.1320
27689SOL    HW188197   7.585   3.983   4.045  0.0549 -0.0314  0.2517
27689SOL    HW288198   7.692   4.014   4.147  0.5246 -1.1918  0.1258
27690SOL     OW88199   7.033   5.383   7.570 -0.4317 -0.0756 -0.5950
27690SOL    HW188200   7.026   5.311   7.508  0.8960 -1.0482  0.3548
27690SOL    HW288201   7.106   5.435   7.537  0.7846 -1.0194  0.5445
27691SOL     OW88202   5.712   9.271   0.464  0.2188 -0.1921 -0.0274
27691SOL    HW188203   5.757   9.197   0.423  0.8536 -0.8410  1.7693
27691SOL    HW288204   5.772   9.300   0.533 -0.8476  0.7973  0.5006
27692SOL     OW88205   3.476   1.320   0.736 -0.0935 -0.0069 -0.2650
27692SOL    HW188206   3.563   1.283   0.720  0.4375  1.0529  0.1197
27692SOL    HW288207   3.418   1.272   0.677  0.9061 -0.0526 -1.2192
27693SOL     OW88208   8.660   9.721   0.392  0.0586 -0.5435  0.1747
27693SOL    HW188209   8.630   9.641   0.349  0.5897  0.2547 -1.7296
27693SOL    HW288210   8.580   9.769   0.412 -0.1989 -0.9814  0.2033
27694SOL     OW88211   9.786   8.727   7.169  0.1706  0.2619  0.5863
27694SOL    HW188212   9.721   8.797   7.163 -0.2574 -0.0436  1.4975
27694SOL    HW288213   9.734   8.647   7.177  0.6608 -0.0807  0.3830
27695SOL     OW88214   0.392   1.411  10.552  0.0875 -0.0108 -0.3515
27695SOL    HW188215   0.403   1.390  10.645 -0.2011  0.8853 -0.1111
27695SOL    HW288216   0.345   1.336  10.516  0.2438 -0.3851  0.2133
27696SOL     OW88217   1.375   4.988   8.544  0.2465  0.3424  0.6983
27696SOL    HW188218   1.380   4.945   8.459  0.0955 -1.3276  1.5291
27696SOL    HW288219   1.283   5.014   8.552  0.4576  1.3678 -0.0502
27697SOL     OW88220   1.620   7.895   9.842  0.0430  0.0765  0.6297
27697SOL    HW188221   1.525   7.907   9.840  0.0276  0.3617  2.2901
27697SOL    HW288222   1.656   7.982   9.822 -0.0451 -0.0750 -0.1856
27698SOL     OW88223   8.419   8.242   0.893  0.0443 -0.0146 -0.0111
27698SOL    HW188224   8.485   8.202   0.837  1.8959  2.0257  0.6538
27698SOL    HW288225   8.340   8.245   0.838  1.2281 -0.0618 -1.7620
27699SOL     OW88226   7.331   1.520   0.843 -0.6827 -0.0620  0.1991
27699SOL    HW188227   7.268   1.545   0.911 -1.0271  1.7474 -0.7484
27699SOL    HW288228   7.411   1.501   0.891 -0.8415  1.4807  1.1273
27700SOL     OW88229   0.997  10.572   8.837 -0.3340  0.1087  0.3220
27700SOL    HW188230   0.942  10.601   8.910 -0.2533  0.2390  0.3305
27700SOL    HW288231   0.941  10.582   8.760 -0.5403 -0.3634  0.4069
27701SOL     OW88232   0.682   3.901   5.651  0.1633  0.5229 -0.0096
27701SOL    HW188233   0.751   3.954   5.611  1.1683 -1.1669 -0.5906
27701SOL    HW288234   0.602   3.952   5.640  0.7873  1.0524 -2.2693
27702SOL     OW88235   1.757   1.517   8.951 -0.2046  0.3420  0.1277
27702SOL    HW188236   1.717   1.430   8.960 -0.6042  0.4166 -0.8607
27702SOL    HW288237   1.762   1.531   8.856  1.5642  0.6085  0.2404
27703SOL     OW88238   9.938   0.798   6.480  0.5015 -0.7054  0.0571
27703SOL    HW188239  10.020   0.750   6.472  0.2656 -0.7164 -3.4301
27703SOL    HW288240   9.889   0.775   6.400 -1.8686  1.1531  0.8967
27704SOL     OW88241   2.984   4.329   8.670  0.1754 -0.0324 -0.4604
27704SOL    HW188242   2.911   4.311   8.611  0.4373  1.5499 -1.2751
27704SOL    HW288243   3.034   4.399   8.628 -0.1923  1.8654  2.1271
27705SOL     OW88244  10.494   0.474   1.291 -0.4194 -0.2209  0.0127
27705SOL    HW188245  10.502   0.569   1.290  0.2304 -0.2823 -0.4404
27705SOL    HW288246  10.540   0.446   1.370 -0.3290 -0.1876 -0.0286
27706SOL     OW88247   3.653   7.532   2.178 -0.3860 -0.7157 -0.1994
27706SOL    HW188248   3.607   7.524   2.262 -0.6032 -1.0477 -0.3489
27706SOL    HW288249   3.731   7.477   2.189 -1.2581 -2.1182 -0.7940
27707SOL     OW88250   5.525  11.225   3.902  0.2552 -0.4693  0.2775
27707SOL    HW188251   5.520  11.132   3.878 -0.9060  0.5731 -3.8476
27707SOL    HW288252   5.605  11.256   3.861 -0.0082  0.6437  0.5994
27708SOL     OW88253   5.084   9.066   1.247  0.0694 -0.3681  0.0527
27708SOL    HW188254   5.105   9.025   1.331 -0.1580 -1.6904 -0.5118
27708SOL    HW288255   5.159   9.121   1.227  0.4999 -0.7088  0.7176
27709SOL     OW88256   1.118   7.966   8.276  0.4125 -0.3393 -0.3560
27709SOL    HW188257   1.211   7.982   8.266  0.6811 -1.1295  0.8018
27709SOL    HW288258   1.112   7.896   8.341 -1.0745  1.3225  1.3660
27710SOL     OW88259  10.158   4.708   5.841  0.0396  0.0887 -0.1407
27710SOL    HW188260  10.238   4.710   5.789  0.6687 -0.0269  0.8193
27710SOL    HW288261  10.091   4.746   5.783  0.3920 -1.4412 -1.5816
27711SOL     OW88262   4.993   3.038  10.919 -0.3738  0.1571  0.1894
27711SOL    HW188263   5.063   3.023  10.856 -1.9047 -1.7070 -1.1302
27711SOL    HW288264   4.978   2.952  10.958 -4.6378 -0.4082 -2.4610
27712SOL     OW88265  10.466   2.681   2.298 -0.1278  0.3404  0.1776
27712SOL    HW188266  10.527   2.739   2.344  0.8906 -0.3801 -0.2533
27712SOL    HW288267  10.401   2.740   2.261  0.0035  1.0781  1.0888
27713SOL     OW88268   6.505   4.154   5.507 -0.3483  0.3209  0.1686
27713SOL    HW188269   6.547   4.217   5.448  0.0962  0.1260  0.2820
27713SOL    HW288270   6.517   4.069   5.465 -0.4413  0.2368  0.3112
27714SOL     OW88271   7.835   1.905   0.708  0.7932 -0.0200 -0.0883
27714SOL    HW188272   7.759   1.963   0.702 -0.3756 -1.5621 -0.2393
27714SOL    HW288273   7.861   1.891   0.617 -0.2740 -1.4980 -0.1715
27715SOL     OW88274  10.845   8.957   7.761  0.2071 -0.2130  0.1057
27715SOL    HW188275  10.924   8.924   7.804 -0.1264  0.7852  1.5213
27715SOL    HW288276  10.782   8.885   7.769  0.0287  0.0964  1.6500
27716SOL     OW88277   2.702   2.086   1.839 -0.0067  0.7763 -0.3828
27716SOL    HW188278   2.705   2.120   1.750 -0.1839  0.0203 -0.6894
27716SOL    HW288279   2.727   1.994   1.829 -1.2315  0.3700  0.1735
27717SOL     OW88280   7.902   4.353   4.455  0.1039  0.8796  0.0427
27717SOL    HW188281   7.910   4.265   4.493  0.3233  1.2186  0.7802
27717SOL    HW288282   7.934   4.342   4.365 -0.6217  0.0324 -0.1271
27718SOL     OW88283   6.197   4.772   0.605  0.0372  0.6798 -0.5608
27718SOL    HW188284   6.184   4.739   0.516 -0.4774  1.4396 -0.7666
27718SOL    HW288285   6.172   4.864   0.601 -1.4125  0.3603  0.7109
27719SOL     OW88286   3.200   2.798  10.922 -0.1110  0.1775  0.2951
27719SOL    HW188287   3.161   2.739  10.986  2.6686 -1.3915  0.6340
27719SOL    HW288288   3.162   2.883  10.940 -2.3081 -1.0332  1.4547
27720SOL     OW88289   4.673   9.810  11.189  0.3014  0.7288  0.4971
27720SOL    HW188290   4.726   9.820  11.268 -0.5722  2.0104  0.9503
27720SOL    HW288291   4.625   9.728  11.203 -0.4067  1.3257  1.6428
27721SOL     OW88292  10.815   5.688   6.689  0.7814  0.0224 -0.4501
27721SOL    HW188293  10.794   5.679   6.596  0.4733 -0.7936 -0.3059
27721SOL    HW288294  10.844   5.601   6.716  0.8417  0.2457  0.2262
27722SOL     OW88295   3.288   3.970  10.574  0.1038  0.2360  0.1355
27722SOL    HW188296   3.195   3.951  10.562  0.1465  1.0968 -1.7801
27722SOL    HW288297   3.333   3.894  10.537  0.1810  1.0637 -1.5159
27723SOL     OW88298   7.077   2.598   2.367  0.3893 -0.4430 -0.4374
27723SOL    HW188299   7.158   2.573   2.411  1.3162  0.1898 -1.7504
27723SOL    HW288300   7.099   2.597   2.273  0.1200  3.8845 -0.6307
27724SOL     OW88301   4.727  10.451   3.853 -0.5512 -0.4596  0.6581
27724SOL    HW188302   4.647  10.451   3.801  0.7630  1.4853 -1.5114
27724SOL    HW288303   4.797  10.439   3.788  1.1101  1.3440  2.0428
27725SOL     OW88304   6.732  10.986   4.037 -0.1967  0.4134  0.0189
27725SOL    HW188305   6.827  10.981   4.045 -0.2104 -1.0473 -0.5056
27725SOL    HW288306   6.717  11.023   3.950 -0.1133  0.4933  0.0386
27726SOL     OW88307   3.734   1.646   3.183 -0.1157 -0.0528 -0.2997
27726SOL    HW188308   3.703   1.689   3.104  1.8249  1.7470 -0.1259
27726SOL    HW288309   3.718   1.709   3.253 -0.7432 -1.1629  0.5907
27727SOL     OW88310   6.170   6.647   0.308  0.6171 -0.0196 -0.7767
27727SOL    HW188311   6.095   6.662   0.250 -0.9046 -1.3811  0.8048
27727SOL    HW288312   6.207   6.735   0.322 -1.6462  0.8714 -0.2617
27728SOL     OW88313   6.163  10.472   0.178 -0.8684  0.1754  0.0752
27728SOL    HW188314   6.158  10.557   0.220  0.3247 -0.8915  2.4718
27728SOL    HW288315   6.197  10.490   0.091 -0.6369  2.1334  0.5507
27729SOL     OW88316   4.959   1.619   8.598 -0.2099 -0.1666 -0.0182
27729SOL    HW188317   5.012   1.664   8.532  0.3865 -0.4933  0.2293
27729SOL    HW288318   5.022   1.566   8.647 -0.7805 -0.6027  0.2481
27730SOL     OW88319   4.405   5.760   2.945  0.6187  0.4339  0.1863
27730SOL    HW188320   4.377   5.680   2.900  1.3269 -0.1210  0.7198
27730SOL    HW288321   4.479   5.732   2.999 -0.2453  1.1031  1.7185
27731SOL     OW88322  10.895   6.604   9.359  0.3174  0.1681 -0.2690
27731SOL    HW188323  10.854   6.636   9.439  0.1335 -1.0296  0.1238
27731SOL    HW288324  10.844   6.645   9.288 -0.9747 -0.5642  0.2151
27732SOL     OW88325   6.458   0.436   3.273 -0.1903 -0.0301 -0.6282
27732SOL    HW188326   6.471   0.341   3.275 -1.5381 -0.1922  1.0415
27732SOL    HW288327   6.540   0.470   3.237 -0.1040 -1.8829 -2.3252
27733SOL     OW88328   6.617   0.277   8.149 -0.0232  0.1165 -0.2372
27733SOL    HW188329   6.570   0.195   8.134  1.0871 -0.4796 -0.5448
27733SOL    HW288330   6.623   0.285   8.244  1.7455 -1.2906 -0.1916
27734SOL     OW88331   1.116   9.397   7.990 -0.2238 -0.0929  0.4552
27734SOL    HW188332   1.171   9.407   7.913 -0.4309 -0.6269  0.2378
27734SOL    HW288333   1.055   9.327   7.967 -1.6547  1.1769  0.3121
27735SOL     OW88334   5.163   5.376   5.309  0.0717 -0.6724 -0.3825
27735SOL    HW188335   5.107   5.321   5.255 -2.5396  0.7494  0.7694
27735SOL    HW288336   5.248   5.374   5.266 -1.2030 -1.8388 -2.9372
27736SOL     OW88337   1.985   1.261   7.724  0.6647 -0.2242 -0.2119
27736SOL    HW188338   2.033   1.274   7.806 -0.0482 -0.7649  0.2923
27736SOL    HW288339   1.925   1.188   7.742 -0.0717  0.1881 -0.9566
27737SOL     OW88340   3.383   3.109  10.051 -0.0978  0.3527  0.3418
27737SOL    HW188341   3.313   3.104  10.115 -0.2690  0.6734  0.1862
27737SOL    HW288342   3.362   3.188  10.000 -0.2273 -0.1589 -0.4085
27738SOL     OW88343   8.436  10.983   3.598  0.1197  0.3336 -0.1277
27738SOL    HW188344   8.369  10.957   3.534  1.1476  0.1293 -1.1358
27738SOL    HW288345   8.493  11.042   3.550  0.2923  1.0361  0.9253
27739SOL     OW88346   6.820   4.756   8.480 -0.2074  0.2918  0.2105
27739SOL    HW188347   6.891   4.710   8.435  2.1364  2.9710  1.1011
27739SOL    HW288348   6.775   4.803   8.410  0.5625  0.7440  0.0119
27740SOL     OW88349  10.486   4.562   7.000  0.0396 -0.6378 -0.0307
27740SOL    HW188350  10.525   4.585   6.916 -0.5012  0.3227 -0.0294
27740SOL    HW288351  10.473   4.468   6.996  0.9129 -0.7365 -0.6411
27741SOL     OW88352   8.581   1.091   0.968  0.0828  0.1366 -0.5206
27741SOL    HW188353   8.606   1.104   1.060  1.3322 -0.5285 -0.7553
27741SOL    HW288354   8.625   1.010   0.942  0.5623  0.8407 -1.9880
27742SOL     OW88355   7.829   5.586   9.622  0.1640  0.2602 -0.3068
27742SOL    HW188356   7.737   5.565   9.641  0.5569 -1.1885  0.0136
27742SOL    HW288357   7.825   5.639   9.542 -0.8226 -1.1410 -1.2009
27743SOL     OW88358   3.819   6.871   8.558  0.2149 -0.2926 -0.3402
27743SOL    HW188359   3.774   6.787   8.561  0.5426 -0.4538  0.1567
27743SOL    HW288360   3.912   6.849   8.554  0.2933  0.0418 -0.3800
27744SOL     OW88361   2.628   5.774   4.607 -0.2578  0.3951 -0.2630
27744SOL    HW188362   2.618   5.785   4.701 -2.0507  1.3326 -0.5557
27744SOL    HW288363   2.657   5.860   4.575  0.7224 -0.0232 -0.5316
27745SOL     OW88364   9.265   5.048   0.616 -0.0181  0.4165 -0.0912
27745SOL    HW188365   9.345   5.093   0.642 -0.9519  1.0499  1.7465
27745SOL    HW288366   9.248   5.079   0.526  1.3102  0.9318 -0.1722
27746SOL     OW88367  11.313   2.724   3.270 -0.3217  0.2949  0.4472
27746SOL    HW188368  11.257   2.695   3.342 -0.2810 -0.0094  0.3590
27746SOL    HW288369  11.309   2.652   3.206 -0.2439  0.4986  0.2116
27747SOL     OW88370   6.366   3.215   2.698 -0.5395 -0.3054 -0.1018
27747SOL    HW188371   6.440   3.173   2.653 -0.2677 -0.2113  0.2484
27747SOL    HW288372   6.337   3.149   2.762  0.2704  0.2517  0.8595
27748SOL     OW88373  10.505   3.450   6.177 -0.4511 -0.1150  0.2915
27748SOL    HW188374  10.495   3.473   6.269  0.4113  1.0506  0.1202
27748SOL    HW288375  10.571   3.381   6.176 -0.3906 -0.0612  0.5448
27749SOL     OW88376   5.720   6.051   0.975  0.1183 -0.6698 -0.3173
27749SOL    HW188377   5.632   6.026   1.004  0.1248 -0.6216 -0.2562
27749SOL    HW288378   5.778   6.024   1.046  0.0413  0.1987  0.0925
27750SOL     OW88379   2.378   7.763   0.656 -0.4443 -0.8796  0.1078
27750SOL    HW188380   2.355   7.745   0.564  0.8951 -1.4278 -0.1375
27750SOL    HW288381   2.307   7.724   0.707 -1.9096  0.6170 -0.7292
27751SOL     OW88382   4.926   1.850  10.968  0.1285 -0.5032 -0.0299
27751SOL    HW188383   5.008   1.849  10.918  0.5982 -0.8638  0.7367
27751SOL    HW288384   4.907   1.942  10.982 -0.0177 -0.3959 -0.8897
27752SOL     OW88385   1.078  10.943   1.846  0.2471  0.3250 -0.0259
27752SOL    HW188386   1.016  10.895   1.901 -0.5989  1.8452  0.3522
27752SOL    HW288387   1.111  11.013   1.902  2.0531 -0.2361 -0.3309
27753SOL     OW88388  11.258   9.869   3.629  0.1678  0.3703  0.1764
27753SOL    HW188389  11.262   9.965   3.631  0.4226  0.4083 -1.4348
27753SOL    HW288390  11.222   9.848   3.543 -0.7706 -0.9698  0.8716
27754SOL     OW88391   4.011   9.392   8.483  0.2299  0.0393  1.0507
27754SOL    HW188392   4.042   9.439   8.406  0.1369  0.5991  1.3519
27754SOL    HW288393   4.080   9.405   8.548  0.7931 -1.2830  0.7476
27755SOL     OW88394   8.248  11.247   6.163 -0.0481 -0.1242 -0.1463
27755SOL    HW188395   8.326  11.229   6.216  0.3317 -1.0774 -1.0098
27755SOL    HW288396   8.242  11.172   6.104 -0.6302  0.7898 -1.2574
27756SOL     OW88397   2.944   9.599  10.597 -0.2346  0.0770 -0.0163
27756SOL    HW188398   3.003   9.561  10.662 -0.7451 -1.2207 -0.2850
27756SOL    HW288399   2.928   9.688  10.628 -0.6823 -0.6129  1.7932
27757SOL     OW88400   4.236   5.886   2.047 -0.5857  0.2037  0.1666
27757SOL    HW188401   4.142   5.902   2.036 -0.4781 -1.1611 -3.1226
27757SOL    HW288402   4.273   5.895   1.959  1.8194 -2.7953  0.7876
27758SOL     OW88403   6.193   9.840  10.150 -0.0800  0.0151 -0.3258
27758SOL    HW188404   6.160   9.916  10.103 -0.2385  0.2029  0.0849
27758SOL    HW288405   6.287   9.857  10.161 -0.0799  0.0630 -0.4024
27759SOL     OW88406   8.789   9.802   2.994 -0.6173 -0.0360 -0.0901
27759SOL    HW188407   8.859   9.866   2.986 -0.8420  0.3661  1.0106
27759SOL    HW288408   8.711   9.848   2.960 -1.5623  1.6538  4.0217
27760SOL     OW88409  11.029   3.755   4.765  0.1242 -0.2874 -0.0899
27760SOL    HW188410  10.963   3.710   4.712  0.9567 -1.9426  0.2516
27760SOL    HW288411  11.013   3.724   4.854 -0.5444  1.6274  0.4738
27761SOL     OW88412   9.927   6.763   5.491 -0.1081 -0.2816 -0.3553
27761SOL    HW188413   9.940   6.795   5.581 -1.2792  2.3486 -1.0814
27761SOL    HW288414   9.859   6.696   5.500  1.6436 -1.9485  1.0482
27762SOL     OW88415   1.023   6.300   4.187 -0.2443  0.3692 -0.2325
27762SOL    HW188416   0.997   6.217   4.227 -0.9254  0.5345 -0.3248
27762SOL    HW288417   1.081   6.341   4.251 -0.0674 -0.0889 -0.1013
27763SOL     OW88418   0.901  10.253   1.402 -0.3113 -0.0562 -0.0296
27763SOL    HW188419   0.901  10.347   1.382  0.3136 -0.1038 -0.2611
27763SOL    HW288420   0.900  10.210   1.316 -0.3087 -0.2616  0.0727
27764SOL     OW88421   9.331  10.815   9.317  0.1829  0.1224 -0.8202
27764SOL    HW188422   9.272  10.760   9.266  0.3933  0.6497 -1.6557
27764SOL    HW288423   9.285  10.899   9.324  0.4750  0.2828 -0.7927
27765SOL     OW88424   7.781   8.442  10.092  0.1342  0.6558  1.0245
27765SOL    HW188425   7.790   8.530  10.128 -0.4674  1.6409 -1.1182
27765SOL    HW288426   7.768   8.456   9.998 -2.4191 -1.6163  0.9824
27766SOL     OW88427   2.907   5.729   9.677  0.3845 -0.1176  0.4218
27766SOL    HW188428   2.816   5.728   9.646  0.2324 -0.4382  0.8793
27766SOL    HW288429   2.929   5.822   9.682 -0.5664  0.0243  2.1859
27767SOL     OW88430   0.572   0.203   3.868 -0.5927  0.2702 -0.5222
27767SOL    HW188431   0.581   0.113   3.838  0.9230 -0.2915  1.4725
27767SOL    HW288432   0.561   0.196   3.963 -0.6328  2.1821 -0.3465
27768SOL     OW88433   4.377   0.650   6.657 -0.9587  0.2050 -0.1491
27768SOL    HW188434   4.390   0.610   6.743  0.5178  0.7233 -0.1110
27768SOL    HW288435   4.385   0.744   6.673 -2.1350  0.3928 -0.6163
27769SOL     OW88436   4.266   3.582   8.309 -0.4955 -0.2318  0.3601
27769SOL    HW188437   4.240   3.492   8.288  0.3624 -0.6640  1.1303
27769SOL    HW288438   4.211   3.636   8.253 -0.3491 -1.2681 -0.8174
27770SOL     OW88439   6.746   4.438   5.499 -0.1895  0.4140  1.0308
27770SOL    HW188440   6.694   4.419   5.577 -0.3650 -0.6807  0.6447
27770SOL    HW288441   6.692   4.409   5.426  0.4593  0.3658  0.5657
27771SOL     OW88442   1.981   9.128   0.960  0.3187 -0.3353  0.2287
27771SOL    HW188443   1.928   9.078   0.897 -0.6912  0.9624  0.0263
27771SOL    HW288444   2.063   9.145   0.914 -0.6257  1.0795 -0.9678
27772SOL     OW88445   2.732   2.390   2.049 -0.0930 -0.0855  0.0165
27772SOL    HW188446   2.688   2.312   2.083  0.2712 -0.3075 -0.0266
27772SOL    HW288447   2.743   2.446   2.126 -1.0089  0.2378 -0.0794
27773SOL     OW88448  11.228   7.140   3.292 -0.1239 -0.1816 -0.0471
27773SOL    HW188449  11.197   7.219   3.338  0.3075  0.1232 -0.2809
27773SOL    HW288450  11.280   7.093   3.357 -0.6914 -0.4665  0.2083
27774SOL     OW88451   0.123   5.002   9.999 -0.1015 -0.2254 -0.1580
27774SOL    HW188452   0.205   5.009   9.950 -0.5531  0.2674 -0.8522
27774SOL    HW288453   0.092   4.914   9.981 -0.7349  0.2542 -1.5324
27775SOL     OW88454   2.582   8.522   1.565  0.0345 -1.0854  0.3727
27775SOL    HW188455   2.630   8.466   1.626 -0.6351 -2.4212 -0.3161
27775SOL    HW288456   2.595   8.481   1.480  1.0268  0.8006 -0.4339
27776SOL     OW88457   2.512   4.400   5.302 -0.0332 -0.6835  0.1689
27776SOL    HW188458   2.500   4.317   5.349  1.6093 -0.6044  0.7733
27776SOL    HW288459   2.515   4.374   5.209 -2.5223 -0.9266  0.1212
27777SOL     OW88460   6.373   6.624   1.220 -0.3453  0.1593  0.3684
27777SOL    HW188461   6.316   6.646   1.294  1.2549  0.7097  1.4586
27777SOL    HW288462   6.408   6.537   1.241 -0.7931 -0.1932 -0.3155
27778SOL     OW88463  10.509  10.570   2.549 -0.0316  0.3135 -0.4095
27778SOL    HW188464  10.498  10.474   2.546 -0.2768  0.3556 -0.8448
27778SOL    HW288465  10.480  10.600   2.464  2.2337  0.5568 -1.1335
27779SOL     OW88466   1.417   1.601   3.668  0.4530  0.7150  0.0559
27779SOL    HW188467   1.376   1.606   3.581 -0.1880  0.1561  0.3228
27779SOL    HW288468   1.396   1.513   3.700  1.4155  0.6151  0.4239
27780SOL     OW88469   8.001   0.965   4.779  0.2892  0.5710  0.0833
27780SOL    HW188470   7.990   0.979   4.873  0.5393  0.3758  0.1423
27780SOL    HW288471   8.033   1.049   4.745 -1.5195  1.2132 -0.1211
27781SOL     OW88472   8.863   4.779   8.497  0.1823 -0.0042 -0.5626
27781SOL    HW188473   8.796   4.816   8.555  1.9600  2.3365  0.0445
27781SOL    HW288474   8.873   4.689   8.528 -2.0887 -0.1605 -0.1567
27782SOL     OW88475   2.382   1.159   9.306 -0.5069  0.1708  0.4102
27782SOL    HW188476   2.405   1.144   9.398  1.7929 -0.3483 -0.2382
27782SOL    HW288477   2.460   1.198   9.267 -1.4663  0.3883 -1.3317
27783SOL     OW88478  11.007  10.486  10.668  0.2219 -0.0873 -0.1130
27783SOL    HW188479  11.075  10.419  10.662  0.8348  0.3887  1.3181
27783SOL    HW288480  10.951  10.470  10.592  2.0046 -0.3821 -1.3903
27784SOL     OW88481   6.110   3.432   5.352  0.2694  0.2176 -0.4129
27784SOL    HW188482   6.182   3.379   5.387 -2.0549 -0.8468  3.0351
27784SOL    HW288483   6.068   3.376   5.287 -0.5102 -1.1527  1.2458
27785SOL     OW88484   9.322   7.745   1.008  0.2567  0.2685 -0.4765
27785SOL    HW188485   9.364   7.727   0.924  0.2071  0.0144 -0.4468
27785SOL    HW288486   9.237   7.784   0.985  1.3131  2.5994 -0.5199
27786SOL     OW88487   7.042   1.485   5.145 -0.1175  0.7282  0.0880
27786SOL    HW188488   7.098   1.415   5.179 -2.7526 -1.4052  0.2236
27786SOL    HW288489   6.973   1.495   5.211 -2.0564  0.5435 -1.8454
27787SOL     OW88490   0.732   0.658  11.215 -0.3837  0.3384 -0.6880
27787SOL    HW188491   0.824   0.635  11.223 -0.4601  0.2715  0.0109
27787SOL    HW288492   0.715   0.717  11.288 -0.3600  2.0917 -2.0446
27788SOL     OW88493   9.918   1.300  11.032  0.6138  0.4210 -0.2484
27788SOL    HW188494   9.890   1.213  11.004 -1.0146  1.1614 -1.0095
27788SOL    HW288495   9.962   1.286  11.115 -0.7350 -1.0023  0.2529
27789SOL     OW88496   4.134   6.058   0.854  0.6917 -0.3789 -0.6395
27789SOL    HW188497   4.066   6.088   0.915  0.8884  0.7261 -0.9628
27789SOL    HW288498   4.104   6.087   0.768  2.1498  1.2024 -0.6519
27790SOL     OW88499   8.582   9.570   1.290  0.0416 -0.0263  0.0396
27790SOL    HW188500   8.587   9.487   1.338  1.1502 -0.3670 -0.6382
27790SOL    HW288501   8.491   9.599   1.302 -0.2380 -1.1134  0.6541
27791SOL     OW88502  11.239  10.336   9.804 -0.6631 -0.2265 -0.1660
27791SOL    HW188503  11.308  10.403   9.812  0.4125 -1.4459  0.8654
27791SOL    HW288504  11.226  10.327   9.709  0.0104  0.5975 -0.3462
27792SOL     OW88505   5.889   5.782   5.124  0.2154  0.3184  0.3188
27792SOL    HW188506   5.823   5.712   5.119  0.1456  0.5069 -1.8338
27792SOL    HW288507   5.964   5.748   5.075  0.1504  1.7569 -0.8133
27793SOL     OW88508   3.886   8.473   4.023  0.1512 -0.0450 -0.1392
27793SOL    HW188509   3.910   8.524   3.946  1.7019 -1.2549 -0.4923
27793SOL    HW288510   3.882   8.383   3.991  1.1792 -0.5994  1.2511
27794SOL     OW88511   1.444   7.089   9.189  0.3580  0.7071  0.2185
27794SOL    HW188512   1.412   7.175   9.162 -2.2235 -0.1826  0.3274
27794SOL    HW288513   1.408   7.077   9.277  0.1159 -0.7733 -0.0817
27795SOL     OW88514   9.789   7.604   4.198 -0.4843 -0.0988  0.4107
27795SOL    HW188515   9.718   7.586   4.260 -0.6373  0.4952  0.4193
27795SOL    HW288516   9.865   7.559   4.234 -1.0059 -1.2625  0.0749
27796SOL     OW88517   8.475   2.865   3.067 -0.2736 -0.0761 -0.4037
27796SOL    HW188518   8.444   2.921   3.138  1.2641 -1.7871  1.6847
27796SOL    HW288519   8.397   2.840   3.019 -1.4595  0.3388  1.2831
27797SOL     OW88520   9.225   2.049   5.995 -0.2994 -0.2245  0.5989
27797SOL    HW188521   9.320   2.054   6.011  0.1234 -3.0416 -0.7194
27797SOL    HW288522   9.186   2.041   6.082  0.8889 -1.7369  1.0102
27798SOL     OW88523   9.141   0.534   9.064  0.0821  0.0584  0.3362
27798SOL    HW188524   9.171   0.607   9.119 -1.4616  0.8052  0.2132
27798SOL    HW288525   9.047   0.547   9.057 -0.0089 -1.1910 -0.8259
27799SOL     OW88526   9.365   4.370   1.648  0.2937 -0.5003 -0.0939
27799SOL    HW188527   9.324   4.377   1.734  1.3095  0.2111  0.3401
27799SOL    HW288528   9.372   4.275   1.632  0.3011 -0.6349  0.6970
27800SOL     OW88529  10.506   0.776   4.119 -0.0766 -0.0921  0.2639
27800SOL    HW188530  10.469   0.852   4.165  0.8173  0.4220  0.1402
27800SOL    HW288531  10.433   0.741   4.069 -0.3541  1.0565 -0.1535
27801SOL     OW88532   7.453   0.481   4.429  0.4319 -0.3364  0.3533
27801SOL    HW188533   7.419   0.567   4.455 -0.8109 -0.7673  0.1506
27801SOL    HW288534   7.520   0.502   4.363 -1.8439  0.3512 -1.8027
27802SOL     OW88535  10.652   8.929   0.054 -0.3595 -0.2120 -0.1594
27802SOL    HW188536  10.738   8.920   0.014 -0.7853 -1.0345 -0.8880
27802SOL    HW288537  10.629   9.021   0.040  1.1828  0.5093  1.6600
27803SOL     OW88538   1.708   1.843   6.989 -0.3251 -0.3750 -0.1843
27803SOL    HW188539   1.790   1.892   6.996  0.4153 -1.2077 -2.6917
27803SOL    HW288540   1.702   1.819   6.897 -2.4749 -1.9219  0.3258
27804SOL     OW88541  10.450   5.896   0.908  0.2069 -0.3914  0.5232
27804SOL    HW188542  10.487   5.964   0.852 -1.0171 -0.5677 -0.5130
27804SOL    HW288543  10.436   5.939   0.992 -1.1755  0.8245 -0.3104
27805SOL     OW88544   4.338   8.600   7.944 -0.0044  0.0273 -0.5139
27805SOL    HW188545   4.368   8.691   7.938 -0.8060  0.4667  1.7156
27805SOL    HW288546   4.271   8.601   8.013  0.9584 -2.5076  0.5335
27806SOL     OW88547   0.034   7.681  10.764  0.4503 -0.1080  0.2589
27806SOL    HW188548   0.120   7.710  10.793  0.0679  0.5826  0.7275
27806SOL    HW288549   0.048   7.593  10.729  1.6190  0.5990 -1.1113
27807SOL     OW88550   7.800   0.089   9.209 -0.3102  0.3523 -0.0735
27807SOL    HW188551   7.755   0.020   9.160  1.1723 -0.5207 -0.2476
27807SOL    HW288552   7.770   0.077   9.299  0.4999 -1.0376  0.0385
27808SOL     OW88553   0.477   8.977   1.259 -0.3854 -0.3970 -0.4380
27808SOL    HW188554   0.495   8.978   1.165 -0.5016  0.2772 -0.4629
27808SOL    HW288555   0.414   8.906   1.272 -0.0004 -0.7989 -0.7985
27809SOL     OW88556   0.749   1.221   2.890 -0.2398 -0.2679 -0.0874
27809SOL    HW188557   0.676   1.234   2.830  0.0475  0.7910 -0.2116
27809SOL    HW288558   0.749   1.298   2.945  0.4928 -0.4867  0.2244
27810SOL     OW88559   1.736   2.536   1.248  0.0825  0.0950 -0.3459
27810SOL    HW188560   1.685   2.461   1.281  1.3606 -1.0404 -0.8930
27810SOL    HW288561   1.672   2.589   1.200 -0.7449 -0.8954 -0.3624
27811SOL     OW88562   4.073   2.367   3.114 -0.5724 -0.3605  0.1455
27811SOL    HW188563   3.997   2.406   3.158 -1.6200 -1.4068 -0.6851
27811SOL    HW288564   4.140   2.360   3.183 -1.3435  0.2813  0.9690
27812SOL     OW88565   5.133   7.420   3.099 -0.0097  0.2099 -0.5773
27812SOL    HW188566   5.150   7.505   3.138 -0.7376 -0.6415  1.6505
27812SOL    HW288567   5.070   7.379   3.157  0.4226 -1.9156 -1.5605
27813SOL     OW88568   8.119   7.758   2.179 -0.2592 -0.4050 -0.0840
27813SOL    HW188569   8.142   7.813   2.254 -0.1691 -0.2299 -0.2408
27813SOL    HW288570   8.108   7.670   2.216 -0.2400 -0.3129  0.1388
27814SOL     OW88571   4.980   5.002   2.585 -0.3182 -0.2466  0.1239
27814SOL    HW188572   4.968   4.913   2.619 -2.1246 -0.0728 -0.0392
27814SOL    HW288573   4.892   5.039   2.581  0.3179  1.2310 -0.7063
27815SOL     OW88574   0.628   9.562   8.767  0.2249 -0.5083  0.0583
27815SOL    HW188575   0.617   9.635   8.828 -1.8172  0.1722 -1.0457
27815SOL    HW288576   0.558   9.576   8.702  0.2844 -3.0335 -0.5784
27816SOL     OW88577   2.852   9.928  11.051  0.3996 -0.1144 -0.2272
27816SOL    HW188578   2.901   9.990  11.104  0.7886 -0.4350 -0.2042
27816SOL    HW288579   2.877   9.949  10.961  1.4543 -0.9949 -0.1570
27817SOL     OW88580   0.741   1.996   4.203 -0.0415 -0.0004  0.0514
27817SOL    HW188581   0.801   1.961   4.138  0.6598 -1.6495  1.5456
27817SOL    HW288582   0.662   1.942   4.195  0.7083 -1.3855  1.7489
27818SOL     OW88583   9.061   4.431   5.776  0.2481  0.0011  0.4152
27818SOL    HW188584   9.132   4.463   5.720 -0.8496  1.9553  0.1182
27818SOL    HW288585   8.989   4.415   5.716  0.6017 -2.5751  0.6335
27819SOL     OW88586   6.375   2.986   9.977 -0.0740  0.3484 -0.5510
27819SOL    HW188587   6.464   3.019   9.994 -0.5958  1.9073 -0.7529
27819SOL    HW288588   6.385   2.928   9.901  0.5906  1.3888 -1.2672
27820SOL     OW88589   7.032   7.869   2.896  0.5453  0.5424  0.4403
27820SOL    HW188590   6.958   7.827   2.941  0.3063  0.0107 -0.4323
27820SOL    HW288591   7.063   7.802   2.835  1.4631  0.9258  0.4875
27821SOL     OW88592  10.348   9.046   4.762 -0.2345 -0.2341 -0.6037
27821SOL    HW188593  10.396   9.016   4.840 -2.3282 -2.4710 -0.1272
27821SOL    HW288594  10.389   9.130   4.740  2.8051 -1.3008  0.7226
27822SOL     OW88595   7.571   5.454   9.883 -0.0548 -0.2166  0.1767
27822SOL    HW188596   7.601   5.485   9.797  1.5525 -0.1752  0.7326
27822SOL    HW288597   7.520   5.527   9.918 -0.2114 -0.0057 -0.4767
27823SOL     OW88598   2.614   3.970   3.435  0.3524  0.2260  0.6352
27823SOL    HW188599   2.679   4.031   3.472 -1.0404  2.0027  0.2264
27823SOL    HW288600   2.650   3.947   3.349  0.0105  1.9905 -0.0184
27824SOL     OW88601   5.182   9.326  10.187 -0.1357 -0.3854 -0.1011
27824SOL    HW188602   5.214   9.399  10.240 -0.5243 -0.8450  0.7652
27824SOL    HW288603   5.220   9.342  10.100 -2.1986  2.2292 -0.6040
27825SOL     OW88604   9.866   6.124   2.459  0.2375 -0.8750 -0.0233
27825SOL    HW188605   9.797   6.061   2.436 -0.5792  0.2852 -0.8032
27825SOL    HW288606   9.831   6.170   2.536  0.4966 -0.8506  0.0780
27826SOL     OW88607   1.035   8.431   7.321 -0.2330 -0.1535 -0.0102
27826SOL    HW188608   0.967   8.476   7.270 -1.0324 -0.9391  0.3493
27826SOL    HW288609   1.044   8.484   7.400  0.4141  0.6053 -0.5901
27827SOL     OW88610  10.948   9.151   7.595 -0.2474 -0.0594  0.2400
27827SOL    HW188611  10.877   9.194   7.547 -1.5879 -0.3956  1.8839
27827SOL    HW288612  10.906   9.079   7.641  1.4741 -1.3116 -0.1141
27828SOL     OW88613   6.868   0.051   3.517  0.4413 -0.2104 -0.6460
27828SOL    HW188614   6.899   0.082   3.602  0.7368 -1.2042 -0.3903
27828SOL    HW288615   6.946   0.019   3.472  0.2941  0.3496 -1.3134
27829SOL     OW88616   1.196   0.142   0.676  0.0199  0.3594 -0.2704
27829SOL    HW188617   1.253   0.152   0.752 -3.0558  1.0497  2.0831
27829SOL    HW288618   1.242   0.187   0.605  2.7759  0.0858  1.2710
27830SOL     OW88619   0.411   4.845   3.311  0.0038 -0.4279 -0.2314
27830SOL    HW188620   0.498   4.819   3.339  1.0625  1.2222 -1.8584
27830SOL    HW288621   0.352   4.786   3.357  1.8413 -0.0835  2.6554
27831SOL     OW88622  10.954   8.930   9.736 -0.7101  0.1448 -0.3027
27831SOL    HW188623  11.047   8.928   9.711 -0.2362 -1.1450  1.5036
27831SOL    HW288624  10.940   9.020   9.766 -0.1901  0.4869 -1.0432
27832SOL     OW88625  10.817   0.893   7.445  0.0018  0.1379  0.2076
27832SOL    HW188626  10.911   0.915   7.449 -0.1462  0.6201  1.5878
27832SOL    HW288627  10.780   0.958   7.386  0.3889  0.5295  0.3868
27833SOL     OW88628   7.342   8.023   5.051 -0.1944 -0.1745 -0.5268
27833SOL    HW188629   7.383   8.087   5.109  1.7753 -2.7900  1.0831
27833SOL    HW288630   7.350   8.061   4.964  0.6701  1.8848  0.4145
27834SOL     OW88631   4.046   6.137  11.331 -0.1808  0.3779  0.0426
27834SOL    HW188632   4.003   6.184  11.259 -1.1603 -1.2509 -0.4666
27834SOL    HW288633   4.052   6.047  11.300  1.4572  0.1138  1.1065
27835SOL     OW88634   2.522   8.181   9.224 -0.7278  0.5134  0.2064
27835SOL    HW188635   2.583   8.197   9.296 -1.4395  1.5637  0.5879
27835SOL    HW288636   2.483   8.267   9.206 -1.8069 -0.0731 -0.2975
27836SOL     OW88637   4.245   7.070   4.030 -0.1124  0.2162  0.8191
27836SOL    HW188638   4.329   7.100   3.995 -0.9225  0.7030 -0.7345
27836SOL    HW288639   4.232   7.124   4.109 -0.0137  1.7000 -0.1520
27837SOL     OW88640   9.768   3.322   0.103  0.4425 -0.7369  0.0667
27837SOL    HW188641   9.719   3.287   0.177  0.1944  0.1322  0.3167
27837SOL    HW288642   9.846   3.360   0.141  0.5548 -0.7265 -0.1709
27838SOL     OW88643   2.202   7.812   9.976 -0.2584  0.6035  0.3790
27838SOL    HW188644   2.176   7.722   9.989 -0.9879  0.8454  0.5842
27838SOL    HW288645   2.198   7.852  10.063 -0.0512  0.8612  0.2732
27839SOL     OW88646  10.330   3.635   4.150  0.6006 -0.1272 -0.4263
27839SOL    HW188647  10.334   3.551   4.196  0.2742  0.6988  1.1768
27839SOL    HW288648  10.389   3.626   4.076  1.0470 -1.5553  0.0926
27840SOL     OW88649   3.630   9.750   2.836  0.0912  0.0535  0.2425
27840SOL    HW188650   3.722   9.760   2.812 -0.5499  1.8102 -1.6791
27840SOL    HW288651   3.584   9.812   2.779 -2.3140 -1.0366  0.9338
27841SOL     OW88652   0.306   3.125   0.269 -0.1017  0.4414  0.4097
27841SOL    HW188653   0.324   3.157   0.357 -1.2886  1.6662  0.2179
27841SOL    HW288654   0.364   3.176   0.212  0.2013  0.1064  0.4203
27842SOL     OW88655   4.375   6.585   4.915  0.2666 -0.0629 -0.8807
27842SOL    HW188656   4.445   6.598   4.851  1.6196 -2.6787 -0.0268
27842SOL    HW288657   4.381   6.660   4.974  1.0683  0.7301 -1.9550
27843SOL     OW88658   9.510   4.516   3.793 -0.5925 -0.2851 -0.5104
27843SOL    HW188659   9.576   4.455   3.760 -0.1938 -0.8949  1.3558
27843SOL    HW288660   9.434   4.502   3.736 -0.6495 -2.8440  0.1137
27844SOL     OW88661   0.616   4.226   1.705 -0.3353  0.2823 -0.1364
27844SOL    HW188662   0.533   4.241   1.750 -1.3728 -2.0664 -1.1706
27844SOL    HW288663   0.617   4.290   1.634 -0.5894  1.2790  0.7624
27845SOL     OW88664   7.843   4.585   2.818  0.3063 -0.7138 -0.0170
27845SOL    HW188665   7.907   4.634   2.870 -0.2430  0.0143 -0.0237
27845SOL    HW288666   7.851   4.495   2.850 -0.9069 -0.0645  2.2233
27846SOL     OW88667   0.916   8.483   0.868  0.2113  0.2058  0.3023
27846SOL    HW188668   0.857   8.522   0.803  0.6095 -2.6064 -1.8395
27846SOL    HW288669   0.858   8.431   0.924  0.3157 -0.3676 -0.1194
27847SOL     OW88670   3.356   1.641   9.622  0.0058  0.3423  0.1034
27847SOL    HW188671   3.377   1.671   9.534  0.2920  0.1031  0.0894
27847SOL    HW288672   3.269   1.602   9.614 -0.7420  1.9286  0.2954
27848SOL     OW88673   0.177  10.541   8.296 -0.1616  0.2107  0.4958
27848SOL    HW188674   0.135  10.513   8.377 -0.8290 -0.2611 -0.0083
27848SOL    HW288675   0.155  10.472   8.233  1.0670  0.1396  0.1329
27849SOL     OW88676   4.582   6.315   4.255 -0.2299  0.3219  0.4374
27849SOL    HW188677   4.586   6.381   4.325  0.3304 -0.8334  1.5067
27849SOL    HW288678   4.597   6.365   4.175 -0.9783  1.6809  1.1253
27850SOL     OW88679   1.850   9.128   8.392 -0.1258  0.1011 -0.3031
27850SOL    HW188680   1.884   9.069   8.324  1.5389  1.6995 -0.8769
27850SOL    HW288681   1.833   9.210   8.346 -3.3236 -0.1709  0.3008
27851SOL     OW88682   0.848   5.546   8.097  0.5257 -0.6485 -0.1185
27851SOL    HW188683   0.826   5.485   8.026  0.5915  0.1264 -0.8186
27851SOL    HW288684   0.792   5.520   8.170  0.1198 -1.1694 -0.6154
27852SOL     OW88685   4.748   8.470   0.473 -0.0376  0.2358 -0.3087
27852SOL    HW188686   4.837   8.436   0.463  0.6970  1.4011  2.0028
27852SOL    HW288687   4.750   8.556   0.431  0.2137  0.7204  0.7024
27853SOL     OW88688   5.801   1.969   7.817  0.3186  0.1378 -0.0320
27853SOL    HW188689   5.860   1.916   7.870  1.2329 -0.4312 -1.5765
27853SOL    HW288690   5.836   1.962   7.728 -1.2805  0.9246 -0.7421
27854SOL     OW88691   0.438   6.982   0.471 -0.6247  0.6629  0.5758
27854SOL    HW188692   0.385   7.062   0.476 -1.4355  0.1026  0.9169
27854SOL    HW288693   0.389   6.917   0.522 -0.6451 -0.4307 -0.8140
27855SOL     OW88694   3.805   6.290   9.225 -0.5343  0.2400  0.0380
27855SOL    HW188695   3.735   6.309   9.288 -0.6732  0.7603 -0.2762
27855SOL    HW288696   3.886   6.304   9.274 -0.6461  0.2361  0.2232
27856SOL     OW88697  10.868   0.647   4.838  0.4237 -0.2613 -0.3310
27856SOL    HW188698  10.835   0.714   4.897  0.8859 -1.7717  1.6966
27856SOL    HW288699  10.929   0.695   4.780  0.0214  1.2263  0.4407
27857SOL     OW88700   6.490   6.664   5.354  0.5366  0.3289 -0.0012
27857SOL    HW188701   6.578   6.663   5.316  0.9440  2.4055  0.8155
27857SOL    HW288702   6.434   6.696   5.283  0.4265 -1.0318 -0.5350
27858SOL     OW88703   5.532   0.672   7.350 -0.6507 -0.3910  0.1647
27858SOL    HW188704   5.625   0.666   7.372  0.0519  0.9843 -2.3309
27858SOL    HW288705   5.493   0.718   7.424  1.1784  1.6493 -0.1053
27859SOL     OW88706   1.318   4.723  10.901 -0.6214 -0.1622  0.1781
27859SOL    HW188707   1.406   4.697  10.875  0.1964  0.8186  1.9192
27859SOL    HW288708   1.318   4.718  10.996 -2.1814  0.6800  0.2386
27860SOL     OW88709   6.745   5.908   1.988  0.1705 -0.0846 -0.4139
27860SOL    HW188710   6.700   5.842   2.041  1.3680 -0.6366 -0.0354
27860SOL    HW288711   6.724   5.884   1.897  1.4600 -1.6828 -0.3300
27861SOL     OW88712   3.670  11.299   1.192 -0.2972  0.2013  0.0051
27861SOL    HW188713   3.700  11.335   1.109  0.7674 -0.5401  0.0418
27861SOL    HW288714   3.743  11.315   1.252 -0.2484 -1.0059  0.2880
27862SOL     OW88715   2.976   2.228   2.830 -0.3985 -0.1376 -1.1359
27862SOL    HW188716   2.890   2.213   2.868 -1.3050  0.8157 -2.7204
27862SOL    HW288717   2.963   2.302   2.770  1.4019 -0.3198 -1.7937
27863SOL     OW88718   2.199   9.608  10.896  0.2856  0.2288  0.1314
27863SOL    HW188719   2.105   9.591  10.886  0.4405  0.2947 -1.5713
27863SOL    HW288720   2.216   9.684  10.841  1.5389 -0.4603 -0.4632
27864SOL     OW88721   3.366   1.754   3.863 -0.1974 -0.1987  0.1892
27864SOL    HW188722   3.306   1.691   3.823 -0.2264 -1.0916  1.6018
27864SOL    HW288723   3.422   1.783   3.791  0.2416 -2.3398 -0.3676
27865SOL     OW88724   5.260   0.511   1.966 -0.3584 -0.0482  0.5157
27865SOL    HW188725   5.249   0.435   1.910 -0.2344  0.1722  0.1873
27865SOL    HW288726   5.290   0.476   2.050  0.1151 -0.3207  0.2312
27866SOL     OW88727   8.754   8.773   9.371 -0.1047  0.3002  0.1191
27866SOL    HW188728   8.702   8.832   9.426 -1.1356  0.0965 -0.6369
27866SOL    HW288729   8.826   8.827   9.340  1.6843 -0.1085  3.3484
27867SOL     OW88730   4.389  10.189   8.160  1.1219 -0.4660 -0.0121
27867SOL    HW188731   4.464  10.136   8.136  1.2472  0.3514 -1.4861
27867SOL    HW288732   4.314  10.131   8.150  1.4687 -1.0482  0.7015
27868SOL     OW88733   3.296   6.949   3.149  0.0083  0.1915 -0.2016
27868SOL    HW188734   3.316   6.865   3.108  1.9123 -0.2143  1.4543
27868SOL    HW288735   3.318   7.014   3.082 -0.1840 -0.5734 -1.0210
27869SOL     OW88736   4.502   2.140   1.169 -0.0476  0.5207 -0.0623
27869SOL    HW188737   4.535   2.076   1.231  1.0345  0.6423 -0.5068
27869SOL    HW288738   4.409   2.119   1.159  0.2279 -0.7492  0.0566
27870SOL     OW88739   1.074   4.363   7.810 -0.4419  0.4501  0.1308
27870SOL    HW188740   1.133   4.332   7.740  0.2883 -0.7739  1.2670
27870SOL    HW288741   1.088   4.301   7.881 -1.5142  1.4445  1.2077
27871SOL     OW88742   6.118   4.905   4.439 -0.2742 -0.5017 -0.2274
27871SOL    HW188743   6.091   4.829   4.388 -0.3765 -1.3074  1.0141
27871SOL    HW288744   6.037   4.939   4.477 -0.1154 -0.3021 -0.0619
27872SOL     OW88745   6.979   5.124  10.667  0.2716  0.1967  0.4494
27872SOL    HW188746   6.900   5.166  10.701 -0.7796 -0.3608 -1.2542
27872SOL    HW288747   6.954   5.092  10.581  2.1114 -0.7662  0.2490
27873SOL     OW88748   0.876   8.000   1.728 -0.3329  0.5792  0.3481
27873SOL    HW188749   0.806   8.004   1.663 -1.7538 -0.9207  1.7487
27873SOL    HW288750   0.899   8.092   1.743 -1.3183  1.0390 -0.8489
27874SOL     OW88751   0.537   2.274   9.741  0.0535  0.3927 -0.3386
27874SOL    HW188752   0.558   2.240   9.654 -1.9223  1.3141 -1.2204
27874SOL    HW288753   0.575   2.362   9.742 -1.0202  0.8725 -0.7715
27875SOL     OW88754  10.990   4.467   2.792  0.3826  0.3098 -0.2169
27875SOL    HW188755  10.937   4.528   2.843 -0.7702 -1.0384  0.2074
27875SOL    HW288756  11.073   4.462   2.840 -0.5547 -0.6540  1.3525
27876SOL     OW88757   9.857   9.503   6.092 -0.8668  0.0623  0.0112
27876SOL    HW188758   9.922   9.543   6.033 -1.8736 -0.5230 -1.5265
27876SOL    HW288759   9.909   9.471   6.166  0.2501  2.0666  0.1442
27877SOL     OW88760   0.301   1.052   9.096 -0.0365  0.2715 -0.1186
27877SOL    HW188761   0.235   0.990   9.067 -0.6765  2.0540 -2.5292
27877SOL    HW288762   0.252   1.129   9.125  0.8323  0.2958  1.3814
27878SOL     OW88763  10.419   4.666   9.571 -0.0943 -0.0511  0.0829
27878SOL    HW188764  10.358   4.723   9.523  0.1725  0.4912  0.3902
27878SOL    HW288765  10.362   4.605   9.618 -0.4190  0.7199  0.6990
27879SOL     OW88766   6.765   5.817   7.153  0.3271 -0.0976 -0.3893
27879SOL    HW188767   6.814   5.749   7.199 -0.5750 -0.3613  0.1919
27879SOL    HW288768   6.783   5.801   7.061  1.4613 -0.0991 -0.1672
27880SOL     OW88769   4.385   9.522   8.442  0.5621 -0.0973  0.5575
27880SOL    HW188770   4.454   9.476   8.394 -0.1091  0.3462 -0.8228
27880SOL    HW288771   4.342   9.452   8.492  2.2389 -0.3315  1.7590
27881SOL     OW88772   1.773   3.842   2.720 -0.2878  0.3563  0.7816
27881SOL    HW188773   1.709   3.820   2.652  1.6619  1.1031 -1.3690
27881SOL    HW288774   1.760   3.775   2.788 -0.9782 -1.6031 -1.2153
27882SOL     OW88775   7.851   8.174   2.181  0.2886  0.5263  0.3691
27882SOL    HW188776   7.935   8.217   2.188 -0.0066  1.4223 -1.4552
27882SOL    HW288777   7.790   8.243   2.156 -1.0541 -0.0541  1.9297
27883SOL     OW88778  10.544   9.395   8.770  1.1452  0.6203 -0.4656
27883SOL    HW188779  10.500   9.479   8.767  1.1215  0.6008 -0.6659
27883SOL    HW288780  10.623   9.411   8.822  0.2444  0.3389  0.9849
27884SOL     OW88781   2.602   9.704   2.318 -0.3478  0.7160 -0.0339
27884SOL    HW188782   2.562   9.750   2.392 -1.9922 -0.1050 -0.3881
27884SOL    HW288783   2.696   9.708   2.335 -0.6556  1.3807  1.5998
27885SOL     OW88784   4.673   3.873   5.345  0.3216 -0.3627 -0.1539
27885SOL    HW188785   4.745   3.916   5.391 -0.0490 -0.2818  0.3574
27885SOL    HW288786   4.595   3.900   5.393  0.1815 -2.5380  0.8855
27886SOL     OW88787   4.879   0.187   9.238 -0.5357 -0.1196 -0.1879
27886SOL    HW188788   4.896   0.110   9.293 -1.4106 -0.4395 -0.3537
27886SOL    HW288789   4.848   0.150   9.154 -3.0874  0.4229  0.4525
27887SOL     OW88790   6.929  10.444   4.875  0.0995  0.0072  0.2041
27887SOL    HW188791   6.952  10.506   4.944  1.1775  1.0175 -1.0461
27887SOL    HW288792   6.976  10.364   4.899  2.3583  1.0504 -0.5512
27888SOL     OW88793   2.799   4.822   0.618 -0.4373  0.3827  0.5384
27888SOL    HW188794   2.784   4.909   0.581 -1.1441  0.2402  0.4852
27888SOL    HW288795   2.796   4.763   0.542  0.4814  0.3584  0.5148
27889SOL     OW88796   1.406   5.835   0.330  0.1237 -0.6044 -0.1591
27889SOL    HW188797   1.334   5.824   0.268  0.3217 -0.0789 -0.4844
27889SOL    HW288798   1.427   5.746   0.358 -0.4148 -0.7874 -0.3322
27890SOL     OW88799   1.649   1.226   7.337 -0.1787  0.0146  0.1082
27890SOL    HW188800   1.559   1.225   7.302 -0.1404  0.1075  0.0064
27890SOL    HW288801   1.668   1.319   7.349  0.3162  0.0593 -0.9304
27891SOL     OW88802   6.743   2.557   6.002  0.1158 -0.4693 -0.3306
27891SOL    HW188803   6.721   2.493   5.934  0.2011 -0.3528 -0.4693
27891SOL    HW288804   6.673   2.548   6.067  0.4320 -1.0898 -0.0761
27892SOL     OW88805   8.789   2.653   3.951 -0.0467 -0.5846 -0.5238
27892SOL    HW188806   8.704   2.695   3.947  0.8321  1.2200 -0.8016
27892SOL    HW288807   8.785   2.584   3.884 -0.8512  0.2997 -1.4063
27893SOL     OW88808   8.050   0.075  11.006 -0.2754  0.1898 -0.2180
27893SOL    HW188809   8.106   0.134  11.055  0.7877  0.1085 -1.3134
27893SOL    HW288810   8.044  -0.004  11.060  0.8456  0.1156 -0.1962
27894SOL     OW88811   1.029   7.883   7.273 -0.1224  0.4324 -0.0646
27894SOL    HW188812   0.988   7.841   7.198 -0.9418  0.2030  0.5048
27894SOL    HW288813   0.957   7.899   7.334  0.6660 -0.3131  1.1046
27895SOL     OW88814   1.789   8.430   5.357 -0.4838 -0.0555 -0.1783
27895SOL    HW188815   1.744   8.353   5.391 -1.1414  1.1570  1.7378
27895SOL    HW288816   1.791   8.491   5.430  0.7990  1.4236 -1.4221
27896SOL     OW88817   9.234  11.270   2.538 -0.2116  0.1615 -0.2895
27896SOL    HW188818   9.217  11.257   2.632  0.0281  0.6412 -0.1801
27896SOL    HW288819   9.329  11.262   2.530 -0.3261 -1.0482 -0.6774
27897SOL     OW88820   5.730   1.029   1.474 -0.4638  0.5957  0.1363
27897SOL    HW188821   5.667   1.101   1.476 -1.7444 -0.5130  0.6871
27897SOL    HW288822   5.677   0.950   1.489  1.1790 -0.2846  1.4468
27898SOL     OW88823   6.169   3.727   2.690  0.3727 -0.4298 -0.5365
27898SOL    HW188824   6.205   3.755   2.774 -1.8890 -0.5560  0.5038
27898SOL    HW288825   6.214   3.645   2.671  1.4528 -0.0078  0.1577
27899SOL     OW88826  11.063   1.629   3.721  0.0689  0.6388 -0.0621
27899SOL    HW188827  11.015   1.642   3.640 -1.0970  0.2892  0.5654
27899SOL    HW288828  11.045   1.539   3.746 -0.0424  0.9144  0.8816
27900SOL     OW88829   1.020   2.118   5.007  0.3520 -0.4400  0.6576
27900SOL    HW188830   1.047   2.030   5.035 -0.9841 -1.0304  0.1411
27900SOL    HW288831   0.962   2.102   4.932  0.6386  0.9201  0.1459
27901SOL     OW88832   4.665   4.407   7.445 -0.2556  0.0657 -0.1545
27901SOL    HW188833   4.682   4.317   7.475  0.0217  0.2100  0.1250
27901SOL    HW288834   4.574   4.423   7.470 -0.1811  0.0045  0.1671
27902SOL     OW88835   0.138   3.561   5.152  0.3561 -0.4056  0.9808
27902SOL    HW188836   0.163   3.478   5.191  0.8021 -1.2321 -0.9880
27902SOL    HW288837   0.053   3.544   5.111  0.5766  0.0156  0.3254
27903SOL     OW88838   8.346  10.407   1.257 -0.1559 -0.0454 -0.4922
27903SOL    HW188839   8.407  10.391   1.185  1.1512 -0.4309  0.6658
27903SOL    HW288840   8.383  10.482   1.303  0.3752 -1.3123  1.2013
27904SOL     OW88841   1.454   8.340   7.372 -0.6304  0.1709  0.0545
27904SOL    HW188842   1.507   8.304   7.301 -2.0752 -0.9629 -0.4749
27904SOL    HW288843   1.492   8.426   7.389  0.9923 -0.3765 -0.7089
27905SOL     OW88844   1.094   9.493   3.693 -0.4122  0.7777 -0.0645
27905SOL    HW188845   1.129   9.581   3.675  1.6956 -0.3459 -1.6230
27905SOL    HW288846   1.108   9.445   3.612 -1.5783 -1.0306  0.7823
27906SOL     OW88847   1.380   1.487   3.384 -0.4599  0.1433  0.2639
27906SOL    HW188848   1.422   1.402   3.367  0.3470  0.4463  0.6726
27906SOL    HW288849   1.362   1.523   3.298 -2.7438 -1.3649  0.0705
27907SOL     OW88850   1.833   3.267   2.457  0.1691 -0.5794  0.1873
27907SOL    HW188851   1.861   3.336   2.397 -2.3274 -0.1898 -0.5754
27907SOL    HW288852   1.800   3.197   2.400 -0.0081 -1.2111  1.0495
27908SOL     OW88853   3.403   8.148   2.012  0.3245  0.2595  0.1340
27908SOL    HW188854   3.383   8.070   2.064 -1.0919  1.3202  1.2260
27908SOL    HW288855   3.334   8.151   1.946  0.6374  0.3348 -0.1884
27909SOL     OW88856  11.187   7.510   7.036 -0.1309 -0.0590  0.2430
27909SOL    HW188857  11.227   7.481   6.954  0.6595  1.5137  0.0638
27909SOL    HW288858  11.103   7.547   7.010 -0.2469 -0.3249  0.2389
27910SOL     OW88859   6.837   8.499   6.341  0.1452  0.3003  0.3136
27910SOL    HW188860   6.755   8.467   6.377 -0.4146 -0.4296 -1.5313
27910SOL    HW288861   6.898   8.426   6.351  0.3622  0.5605  0.9466
27911SOL     OW88862  10.897   5.333   5.808 -0.1934 -0.2640 -0.0104
27911SOL    HW188863  10.990   5.357   5.806 -0.1000 -0.5984  0.2848
27911SOL    HW288864  10.897   5.238   5.814 -0.5744 -0.3830 -1.7460
27912SOL     OW88865   2.490   4.338   1.581 -0.1106  0.0703  0.2958
27912SOL    HW188866   2.497   4.304   1.492 -1.5123 -1.3284  0.6948
27912SOL    HW288867   2.577   4.327   1.618 -0.1410 -1.6570 -0.1063
27913SOL     OW88868   0.758   1.696   5.564 -0.2742  0.2248 -0.3758
27913SOL    HW188869   0.808   1.710   5.645  0.2301 -1.1772 -0.4323
27913SOL    HW288870   0.823   1.666   5.501 -1.1193 -1.3008 -0.5405
27914SOL     OW88871   8.676   6.642   1.802 -0.5127  0.0308  0.1953
27914SOL    HW188872   8.736   6.712   1.779 -0.1758 -0.1121  0.6296
27914SOL    HW288873   8.589   6.677   1.782 -0.2774  0.1979 -0.5254
27915SOL     OW88874   9.400   5.852   5.202  0.4515 -0.0364  0.2612
27915SOL    HW188875   9.428   5.835   5.112  0.4509  0.0061  0.2531
27915SOL    HW288876   9.379   5.945   5.204 -1.6800 -0.4778 -0.2754
27916SOL     OW88877   5.388  11.247   0.079  0.3350 -0.4107  0.5372
27916SOL    HW188878   5.467  11.199   0.102  0.2346 -1.0103 -0.3457
27916SOL    HW288879   5.318  11.182   0.081  0.2847 -0.4505 -1.2083
27917SOL     OW88880   4.885   5.221   4.715  0.0637 -0.7114 -0.0102
27917SOL    HW188881   4.924   5.305   4.741 -1.7945  0.6578 -1.4259
27917SOL    HW288882   4.922   5.203   4.629 -0.0083 -1.0271  0.0245
27918SOL     OW88883   6.884  10.200  11.075  0.0961  0.0258  0.1504
27918SOL    HW188884   6.864  10.268  11.139 -1.3005  1.3921 -1.6991
27918SOL    HW288885   6.979  10.205  11.063  0.3553 -0.1439  1.9700
27919SOL     OW88886   6.866   8.384  10.393 -0.4525 -0.1630  0.1883
27919SOL    HW188887   6.952   8.370  10.431 -0.1043 -1.9219 -1.1809
27919SOL    HW288888   6.813   8.416  10.466  0.6791 -1.6688  1.7321
27920SOL     OW88889  10.971  10.382   6.258 -0.6052 -0.2245 -0.1927
27920SOL    HW188890  10.906  10.313   6.265 -1.7402  0.6794 -1.5751
27920SOL    HW288891  10.967  10.410   6.166  0.4119  1.1066  0.1481
27921SOL     OW88892   2.567   5.617   2.416 -0.1343 -0.1714  0.1480
27921SOL    HW188893   2.629   5.689   2.411 -0.4919  0.2195  1.2900
27921SOL    HW288894   2.527   5.614   2.329  0.0041  0.8946  0.0410
27922SOL     OW88895   9.438   3.941   4.017  0.3348 -0.2486 -0.7085
27922SOL    HW188896   9.348   3.918   3.996 -0.5829  0.5599  2.1359
27922SOL    HW288897   9.470   3.987   3.939 -1.6056 -0.7719 -1.8377
27923SOL     OW88898   4.892   8.057   9.804 -0.2104 -0.2399  0.0439
27923SOL    HW188899   4.802   8.045   9.834 -0.5703  0.6051 -0.6735
27923SOL    HW288900   4.941   7.989   9.848 -1.0768 -0.2401  1.0253
27924SOL     OW88901   6.754   3.213   5.129  0.4825 -0.5079  0.2997
27924SOL    HW188902   6.683   3.158   5.096 -0.7773  0.3175  1.5685
27924SOL    HW288903   6.798   3.247   5.051  0.1793 -1.9213 -0.4821
27925SOL     OW88904   3.651   9.462  10.317  0.0692 -0.7114 -0.2090
27925SOL    HW188905   3.567   9.502  10.294  1.0493  0.9402 -1.0060
27925SOL    HW288906   3.652   9.380  10.269 -0.8816 -0.5211 -0.5751
27926SOL     OW88907   2.799  10.872   2.850 -0.0807 -0.3190  1.0953
27926SOL    HW188908   2.773  10.901   2.762  0.9511 -1.3895  0.4099
27926SOL    HW288909   2.885  10.912   2.864 -0.0499 -0.5020  1.4282
27927SOL     OW88910  11.184   1.661   4.450 -0.2329  0.3851  0.0635
27927SOL    HW188911  11.166   1.580   4.402  0.8516 -0.2144  0.6313
27927SOL    HW288912  11.257   1.701   4.403 -0.4413  0.7785  0.0750
27928SOL     OW88913   2.096   1.666   5.123 -0.1186  0.2461 -0.2566
27928SOL    HW188914   2.077   1.715   5.043  0.3469 -0.2566 -0.6798
27928SOL    HW288915   2.035   1.701   5.188 -1.3621 -0.2059 -1.1571
27929SOL     OW88916   9.727   0.501   1.745 -0.5108 -0.0967 -0.0464
27929SOL    HW188917   9.756   0.588   1.772 -0.4243 -0.0338 -0.3329
27929SOL    HW288918   9.750   0.444   1.818  0.4506 -0.0666 -0.3235
27930SOL     OW88919   1.405   9.863   8.409 -0.0549 -0.4011  0.2683
27930SOL    HW188920   1.313   9.885   8.397 -0.0086 -1.0260 -1.3830
27930SOL    HW288921   1.447   9.946   8.429 -0.4934  0.4046 -2.0348
27931SOL     OW88922   2.850  11.167   2.693  0.0387 -0.0532 -0.6819
27931SOL    HW188923   2.886  11.128   2.772  0.7291  0.4332 -0.7583
27931SOL    HW288924   2.779  11.224   2.724 -0.3592 -0.6459 -0.4984
27932SOL     OW88925   0.617   0.060   0.550  0.5223  0.0041  0.2416
27932SOL    HW188926   0.689   0.026   0.497  1.6647  1.4216  0.8657
27932SOL    HW288927   0.554   0.094   0.486  0.0891 -1.8018 -0.3305
27933SOL     OW88928   5.090   2.229   8.873 -0.1723  0.3969 -0.0692
27933SOL    HW188929   5.180   2.241   8.904 -0.2379 -2.9996  1.5379
27933SOL    HW288930   5.067   2.140   8.897 -3.2532  0.4755 -2.3942
27934SOL     OW88931  10.908   2.845   4.124 -0.6511  0.4896  0.0516
27934SOL    HW188932  10.912   2.930   4.081  0.2193  0.0236 -0.7870
27934SOL    HW288933  10.993   2.804   4.107 -0.5561  0.0075  1.6032
27935SOL     OW88934   4.591   9.107   9.559 -0.0578 -0.2328  0.2657
27935SOL    HW188935   4.635   9.052   9.494 -1.9517 -0.0856 -1.2151
27935SOL    HW288936   4.595   9.057   9.640 -0.7311 -2.0727 -0.7903
27936SOL     OW88937  10.727   3.269   4.452 -0.3960 -0.0330 -0.1672
27936SOL    HW188938  10.693   3.196   4.504 -1.0894  0.0352 -0.5175
27936SOL    HW288939  10.821   3.255   4.449 -0.0584  1.1346  2.9404
27937SOL     OW88940   2.794  11.133   9.839 -0.2686  0.5273  0.1608
27937SOL    HW188941   2.873  11.183   9.855 -0.1832  1.1857 -2.1218
27937SOL    HW288942   2.824  11.053   9.795 -0.8222  0.6174 -0.3974
27938SOL     OW88943  10.535   8.651   5.814 -0.7474 -0.0035  0.0029
27938SOL    HW188944  10.482   8.638   5.892  0.8864 -1.6950  0.8488
27938SOL    HW288945  10.489   8.601   5.746  0.2176 -2.1968  0.9383
27939SOL     OW88946   1.229   5.819   8.611 -0.4993  0.1359 -0.0055
27939SOL    HW188947   1.188   5.862   8.535  1.1401  1.0429 -0.4053
27939SOL    HW288948   1.245   5.890   8.673  2.0021  0.1097 -0.5622
27940SOL     OW88949   0.675   1.687   1.813 -0.2038 -0.0161 -0.3854
27940SOL    HW188950   0.700   1.629   1.885 -0.6910 -1.2921 -1.2361
27940SOL    HW288951   0.597   1.647   1.776 -0.3673  1.0228 -1.1866
27941SOL     OW88952   3.922   6.832   3.625  0.3205  0.1428  0.6277
27941SOL    HW188953   3.990   6.813   3.561  2.0946 -0.6062  2.6735
27941SOL    HW288954   3.968   6.874   3.698 -1.4013 -0.3273  2.0286
27942SOL     OW88955   6.716  10.567   9.576  0.1041  0.5291 -0.0348
27942SOL    HW188956   6.740  10.477   9.554 -1.0129  0.5323 -1.3298
27942SOL    HW288957   6.709  10.567   9.671 -0.2569 -0.8404 -0.0457
27943SOL     OW88958   0.174   6.646   7.088  0.3922 -0.0151  0.5625
27943SOL    HW188959   0.135   6.639   7.175  0.6379  1.4517  0.8033
27943SOL    HW288960   0.150   6.733   7.057  0.3281 -0.5101 -0.8366
27944SOL     OW88961  11.058   9.763   2.241 -0.2050  0.2885 -0.0472
27944SOL    HW188962  10.983   9.821   2.246 -0.4928 -0.1879  1.1595
27944SOL    HW288963  11.086   9.750   2.331  2.6857  2.1953 -0.5908
27945SOL     OW88964   9.526   9.621   1.197 -0.2202 -0.3285 -0.4096
27945SOL    HW188965   9.562   9.708   1.209  0.6993 -0.8510  0.7453
27945SOL    HW288966   9.437   9.636   1.165 -0.1684  1.0338  0.0455
27946SOL     OW88967   6.502   3.664   6.255 -0.2144 -0.1408 -0.3711
27946SOL    HW188968   6.496   3.667   6.160 -0.4743  0.4764 -0.3357
27946SOL    HW288969   6.417   3.698   6.286  0.2024  0.5073  0.0781
27947SOL     OW88970   5.957   1.263   2.877 -0.3699  0.1062  0.0005
27947SOL    HW188971   5.887   1.301   2.824 -0.8669  0.3447  0.8102
27947SOL    HW288972   5.932   1.171   2.886  1.0922 -0.5429 -2.3737
27948SOL     OW88973   7.395   3.858   2.956  0.7268 -0.5717  0.3696
27948SOL    HW188974   7.386   3.937   2.902  1.4215  0.5172  1.8111
27948SOL    HW288975   7.357   3.788   2.903  1.7582  0.3913 -1.6898
27949SOL     OW88976   2.763   4.706   5.487  0.3493 -0.4270 -0.3397
27949SOL    HW188977   2.846   4.658   5.490  0.9253  0.5639  0.1345
27949SOL    HW288978   2.772   4.773   5.555 -2.0172 -2.1314  1.7466
27950SOL     OW88979   4.603   2.035   5.749  0.3486 -0.0653  0.6810
27950SOL    HW188980   4.516   2.027   5.709  1.2851 -1.6440 -1.0860
27950SOL    HW288981   4.616   1.951   5.793  1.9511 -0.7586 -1.0727
27951SOL     OW88982   2.903   1.409   5.591 -0.2738  0.4122 -0.1620
27951SOL    HW188983   2.827   1.456   5.555 -1.1517 -0.7605  0.1339
27951SOL    HW288984   2.929   1.350   5.520  1.4264  1.9749 -0.8954
27952SOL     OW88985   6.117   4.996   7.968 -0.3686 -0.4954  0.4772
27952SOL    HW188986   6.084   5.076   8.008  1.7532  0.6609  0.0310
27952SOL    HW288987   6.086   4.999   7.878 -0.8515 -0.5106  0.6442
27953SOL     OW88988   6.361   9.084   1.804  0.1186 -0.4346  0.1182
27953SOL    HW188989   6.301   9.113   1.872 -0.6261 -1.6595  0.0078
27953SOL    HW288990   6.387   9.164   1.759 -0.6824  0.2128  0.7888
27954SOL     OW88991   6.781   8.916   4.369 -0.1743 -0.3473 -0.4060
27954SOL    HW188992   6.864   8.964   4.373 -0.0252 -0.7283  1.3904
27954SOL    HW288993   6.734   8.955   4.294  1.0639  0.7639 -0.6154
27955SOL     OW88994   2.376   2.290   0.168 -0.0116  0.5202  0.8756
27955SOL    HW188995   2.367   2.315   0.076  0.9685  0.2661  0.7132
27955SOL    HW288996   2.437   2.217   0.168  0.7055  1.1074  1.8252
27956SOL     OW88997   9.975   7.588   2.618 -0.0732  0.1197 -0.1306
27956SOL    HW188998  10.062   7.560   2.646 -0.1867  0.4390  0.5692
27956SOL    HW288999   9.917   7.518   2.649  0.0076 -0.4203 -1.1836
27957SOL     OW89000   8.623   4.935   4.228  0.8644 -0.2281 -0.0671
27957SOL    HW189001   8.534   4.920   4.261  1.1230 -0.1709  0.6734
27957SOL    HW289002   8.648   4.852   4.187  0.3258 -0.1206 -0.6135
27958SOL     OW89003   4.105   2.854  10.590  0.3746  0.1698 -0.6376
27958SOL    HW189004   4.189   2.898  10.598 -1.2056  3.4066 -0.7755
27958SOL    HW289005   4.070   2.855  10.680  1.0024 -2.3191 -0.3408
27959SOL     OW89006   9.786  10.404   4.289  0.0537  0.2295  0.1959
27959SOL    HW189007   9.836  10.331   4.252 -0.2714  0.2939 -0.3784
27959SOL    HW289008   9.831  10.482   4.257  2.0960  0.3264  3.0655
27960SOL     OW89009   8.272   2.960   8.208  0.5244  0.5246  0.3704
27960SOL    HW189010   8.262   2.878   8.258  0.0030  1.9079  2.6250
27960SOL    HW289011   8.358   2.994   8.234  0.1978  1.3166  0.4422
27961SOL     OW89012   4.583   8.507  11.162  0.1770 -0.3796  0.0193
27961SOL    HW189013   4.633   8.563  11.222  0.1549  1.4267 -1.6070
27961SOL    HW289014   4.647   8.446  11.126  0.7049  0.2298 -0.0755
27962SOL     OW89015   2.390   5.905   4.284 -0.1538  0.4839 -0.5962
27962SOL    HW189016   2.386   5.927   4.377 -0.5033  4.1117 -1.3890
27962SOL    HW289017   2.483   5.915   4.261  0.0024 -0.8334 -0.5455
27963SOL     OW89018   6.497   1.855   7.282  0.4484 -0.2848  0.5005
27963SOL    HW189019   6.458   1.936   7.315 -0.1175 -0.6968  0.8361
27963SOL    HW289020   6.473   1.853   7.189 -2.0158 -1.5262  1.1317
27964SOL     OW89021   1.224   0.008   7.203 -0.2651  0.5676 -0.2386
27964SOL    HW189022   1.305  -0.043   7.202 -1.1253 -0.8429 -0.2304
27964SOL    HW289023   1.165  -0.042   7.260 -1.2481  1.3867 -0.5234
27965SOL     OW89024  11.227   4.424   6.774 -0.1704  0.3071  0.2595
27965SOL    HW189025  11.264   4.467   6.851  0.4301  1.2410 -0.5250
27965SOL    HW289026  11.261   4.476   6.700 -1.7253  0.1698 -0.5625
27966SOL     OW89027   1.584   2.507   5.308 -0.5465 -0.1690 -0.2529
27966SOL    HW189028   1.547   2.583   5.353 -2.0619 -1.1654  0.2370
27966SOL    HW289029   1.676   2.530   5.292  0.3446 -0.1596  4.2481
27967SOL     OW89030   0.192   8.395   5.969  0.2359 -0.1314 -0.0506
27967SOL    HW189031   0.146   8.419   5.888  1.8100  0.4850 -0.7789
27967SOL    HW289032   0.133   8.423   6.039  0.0215  1.7536 -0.9567
27968SOL     OW89033  10.513   9.014   4.981 -0.1918  0.5627  0.0293
27968SOL    HW189034  10.471   9.058   5.054 -2.7425  1.2333 -1.7571
27968SOL    HW289035  10.514   8.921   5.005 -1.7991  0.6663  0.5535
27969SOL     OW89036   5.284   7.046   0.126  0.5178  0.4864  0.0619
27969SOL    HW189037   5.314   7.033   0.216  0.6042  0.4415  0.0268
27969SOL    HW289038   5.228   6.971   0.108  0.2572  0.6514  0.1818
27970SOL     OW89039   2.420   1.663   1.173 -0.3259  0.1448  0.2476
27970SOL    HW189040   2.351   1.619   1.222 -1.8696  2.0933 -0.0935
27970SOL    HW289041   2.459   1.723   1.236 -0.1681  0.3626 -0.0570
27971SOL     OW89042   1.570   4.700   1.909  0.1067 -0.0180 -0.4479
27971SOL    HW189043   1.591   4.620   1.860  1.2869  0.1390 -0.2007
27971SOL    HW289044   1.628   4.698   1.984 -1.5335 -0.1290  0.8376
27972SOL     OW89045   6.300   2.704   5.882  0.1173 -0.1534  0.1224
27972SOL    HW189046   6.228   2.662   5.930 -0.9253  0.8034 -0.5797
27972SOL    HW289047   6.370   2.639   5.883 -0.3513 -0.6508  1.7991
27973SOL     OW89048  10.514   6.306   9.980 -0.2121 -0.5458 -0.3452
27973SOL    HW189049  10.576   6.253  10.031 -1.1807 -1.5258 -0.1809
27973SOL    HW289050  10.568   6.342   9.909  0.7381 -0.6908  0.2902
27974SOL     OW89051   4.064   4.332   7.063  0.3301  0.1774 -0.3212
27974SOL    HW189052   4.124   4.368   7.128  0.6272 -0.1615 -0.4014
27974SOL    HW289053   3.992   4.394   7.059 -0.9681 -1.0553  2.2225
27975SOL     OW89054   1.213   7.298   3.944  0.3275 -0.5650  0.8117
27975SOL    HW189055   1.194   7.212   3.983  1.9487 -1.3205 -0.0145
27975SOL    HW289056   1.259   7.278   3.863 -1.0042  1.0548 -0.3780
27976SOL     OW89057   1.992   7.126  11.074 -0.4182  0.1601 -0.1430
27976SOL    HW189058   1.971   7.216  11.101  0.3932 -0.0153  1.1173
27976SOL    HW289059   2.002   7.079  11.157 -0.5135 -1.0224 -0.7991
27977SOL     OW89060   9.077   9.117   3.347  0.0329  0.3446  0.1406
27977SOL    HW189061   9.038   9.038   3.310  0.9984  0.2771 -0.7701
27977SOL    HW289062   9.084   9.177   3.273 -0.1353  1.0761  0.7029
27978SOL     OW89063   8.846   7.532   5.095  0.1045 -0.4696 -0.1684
27978SOL    HW189064   8.883   7.618   5.075 -0.5939 -0.2643 -0.6218
27978SOL    HW289065   8.921   7.477   5.114  0.5974  0.0963 -0.4568
27979SOL     OW89066   8.352   6.421   6.838 -0.3512 -0.0861 -0.4939
27979SOL    HW189067   8.318   6.508   6.857 -0.3431 -0.1217 -0.3108
27979SOL    HW289068   8.443   6.424   6.866 -1.1197 -1.0265  2.2419
27980SOL     OW89069   5.997   4.544   5.196  0.3313 -0.1648 -0.2791
27980SOL    HW189070   5.955   4.539   5.110  0.5030  0.0060 -0.3736
27980SOL    HW289071   5.931   4.583   5.253  0.1280 -0.5119 -0.2764
27981SOL     OW89072   2.348   1.874   5.805  0.0061  0.1261 -0.4343
27981SOL    HW189073   2.294   1.838   5.876 -1.0919  0.1461 -1.2523
27981SOL    HW289074   2.369   1.799   5.750 -0.0220  0.2884 -0.6654
27982SOL     OW89075   5.158   1.052   6.533 -0.0597  0.0506 -0.3167
27982SOL    HW189076   5.070   1.047   6.497 -0.4382  1.0804  0.4241
27982SOL    HW289077   5.156   0.995   6.610 -0.5187  1.1684  0.5259
27983SOL     OW89078   0.506   9.948  10.549 -0.5192  0.0024  0.6383
27983SOL    HW189079   0.467   9.881  10.605 -2.0603  0.7957  0.5466
27983SOL    HW289080   0.529  10.019  10.608 -1.9597  0.7561  0.3193
27984SOL     OW89081   7.435   7.054   7.760 -0.2477  0.3341 -0.0755
27984SOL    HW189082   7.432   7.124   7.695  0.5286  0.0651 -0.4090
27984SOL    HW289083   7.425   6.974   7.709  0.1440  0.1321  0.1631
27985SOL     OW89084   2.495   7.015   3.283 -0.2012  0.2927  0.4027
27985SOL    HW189085   2.428   6.954   3.253 -0.0650  0.9533 -1.3066
27985SOL    HW289086   2.522   6.982   3.369 -1.7174 -0.7617  0.4835
27986SOL     OW89087  11.133   7.599   3.845 -0.2335 -0.6854 -0.0101
27986SOL    HW189088  11.087   7.592   3.761  0.2778  0.3431 -0.3943
27986SOL    HW289089  11.066   7.630   3.906 -0.9797 -2.9036  0.3167
27987SOL     OW89090   0.463   4.449   7.841 -0.4688  0.6719 -0.4141
27987SOL    HW189091   0.395   4.476   7.902  0.5693  0.7547  0.7348
27987SOL    HW289092   0.532   4.515   7.852  0.6044 -0.4752 -0.1516
27988SOL     OW89093   3.488   7.909   3.920  0.1433 -0.4521  0.7030
27988SOL    HW189094   3.410   7.858   3.899  0.3550 -0.3458 -0.3704
27988SOL    HW289095   3.556   7.875   3.861  1.0483 -0.8854  1.9591
27989SOL     OW89096   5.916  10.793   0.525  0.8772  0.2279 -0.1381
27989SOL    HW189097   5.954  10.881   0.527  1.7626 -0.1394 -0.2774
27989SOL    HW289098   5.823  10.807   0.506  0.5537  1.2601  2.0875
27990SOL     OW89099   5.063  10.116   9.626 -0.5804 -0.0134 -0.5074
27990SOL    HW189100   5.119  10.079   9.695  1.5324  0.2688 -2.0295
27990SOL    HW289101   4.993  10.052   9.616 -1.0622  0.0401  2.0396
27991SOL     OW89102   6.058   4.171   8.267 -0.3838  0.0690 -0.3601
27991SOL    HW189103   6.037   4.229   8.340  0.5404  1.8734 -1.4688
27991SOL    HW289104   5.989   4.186   8.203  0.7404  1.2484 -1.3447
27992SOL     OW89105   9.039   9.922   7.155 -0.7818  0.3574 -0.3805
27992SOL    HW189106   9.087  10.005   7.150  0.9050 -0.6771 -1.5574
27992SOL    HW289107   8.988   9.919   7.073 -3.1508  1.5653  0.9644
27993SOL     OW89108   4.740   8.059   9.132  0.1271  0.5349 -0.1714
27993SOL    HW189109   4.774   7.990   9.190 -1.5067 -0.1244  0.0093
27993SOL    HW289110   4.819   8.097   9.092  1.0356 -1.5620 -0.4222
27994SOL     OW89111   0.028   8.758  11.004 -0.1586  0.7911 -0.3968
27994SOL    HW189112  -0.034   8.696  11.042 -0.4097  1.2679 -0.0102
27994SOL    HW289113   0.113   8.728  11.035 -0.1135 -0.3505 -1.6122
27995SOL     OW89114   4.486   0.085   2.992 -0.0321 -0.2212  0.4151
27995SOL    HW189115   4.538   0.100   2.912  1.6097  2.4392  1.8894
27995SOL    HW289116   4.505  -0.005   3.017  0.0983 -0.8187 -1.7235
27996SOL     OW89117   1.830   8.055   6.360 -0.5906 -0.1551 -0.1197
27996SOL    HW189118   1.786   8.134   6.389 -0.0212 -0.2673  1.0762
27996SOL    HW289119   1.924   8.073   6.370 -0.2804  0.3793 -3.4133
27997SOL     OW89120   7.228   0.710   1.030 -0.4606 -0.5876  0.0913
27997SOL    HW189121   7.166   0.753   0.971 -0.1850 -1.3898 -0.7917
27997SOL    HW289122   7.300   0.682   0.973  1.1029  1.0391  1.2211
27998SOL     OW89123   5.066  11.092   8.170  0.5811  0.4118 -0.1182
27998SOL    HW189124   5.121  11.054   8.238 -0.5237 -1.4504 -0.2404
27998SOL    HW289125   5.123  11.098   8.094  0.4727 -2.1591 -0.4467
27999SOL     OW89126   9.684   4.038  10.722  0.9337  0.1048  0.2364
27999SOL    HW189127   9.714   4.007  10.637  1.8369  0.5283  0.3894
27999SOL    HW289128   9.745   4.108  10.745  0.9346 -0.2660  1.4052
28000SOL     OW89129   3.745   7.923   6.072  0.0497  0.5507  0.0798
28000SOL    HW189130   3.680   7.885   6.013 -0.5257  0.5042  0.7326
28000SOL    HW289131   3.767   8.007   6.032  0.4626  0.0486 -0.7566
28001SOL     OW89132   1.268   2.367  11.154  0.1756 -0.4901 -0.5789
28001SOL    HW189133   1.356   2.392  11.128 -0.3062  2.2798  0.3644
28001SOL    HW289134   1.265   2.382  11.249 -1.7231  0.7757 -0.8096
28002SOL     OW89135   4.747   5.344   9.450  0.1342 -0.0739 -0.2226
28002SOL    HW189136   4.733   5.382   9.363 -1.2475 -1.0944 -0.4582
28002SOL    HW289137   4.700   5.402   9.509  0.5070  0.2427 -0.2360
28003SOL     OW89138   0.143   7.056   2.641  0.3113 -0.2373  0.4493
28003SOL    HW189139   0.078   6.996   2.676  0.7073 -0.8867  0.0963
28003SOL    HW289140   0.162   7.116   2.713 -1.6919  0.8326  0.1135
28004SOL     OW89141   6.337   0.195   4.594  0.0803  0.4438 -0.1699
28004SOL    HW189142   6.334   0.249   4.673  0.7191  0.4327 -0.1338
28004SOL    HW289143   6.246   0.172   4.577 -0.1907  1.4883 -0.1537
28005SOL     OW89144   1.844   4.900   5.906 -0.0471 -0.3760  0.7990
28005SOL    HW189145   1.832   4.953   5.985 -0.5262 -0.8477  1.0494
28005SOL    HW289146   1.888   4.958   5.844  0.3267  0.0004  1.4100
28006SOL     OW89147   8.713   8.344   2.558 -0.1389  0.0037 -0.0366
28006SOL    HW189148   8.699   8.411   2.625  0.5125 -0.3670  0.4662
28006SOL    HW289149   8.642   8.281   2.573  0.6352 -0.6301  0.9882
28007SOL     OW89150   9.066   2.630   9.662  0.1685 -0.1856  0.2072
28007SOL    HW189151   8.977   2.653   9.689 -1.6677 -4.0657 -2.0079
28007SOL    HW289152   9.069   2.648   9.568  1.6638 -0.2715  0.2158
28008SOL     OW89153   2.935   0.709   3.195 -0.2427  0.0390 -0.0467
28008SOL    HW189154   2.949   0.630   3.247 -1.0573 -0.7960 -1.0945
28008SOL    HW289155   2.901   0.678   3.111 -3.4224  1.6665  0.5627
28009SOL     OW89156   4.789  11.284   7.409  0.2703  0.7006  0.1761
28009SOL    HW189157   4.876  11.251   7.387  0.2596  1.4627 -1.0948
28009SOL    HW289158   4.751  11.216   7.465  1.5474  0.2053  0.4670
28010SOL     OW89159   0.623   9.387   9.778 -0.0014  0.5448 -0.1069
28010SOL    HW189160   0.542   9.352   9.814  1.1418  1.0256  3.1774
28010SOL    HW289161   0.596   9.438   9.702 -2.6218 -0.2485  0.2434
28011SOL     OW89162   1.563   7.376   3.914  0.1466  0.9505  0.0994
28011SOL    HW189163   1.647   7.355   3.956  0.6744  1.2805 -0.7819
28011SOL    HW289164   1.498   7.332   3.968  0.8573  0.9973  1.0153
28012SOL     OW89165   4.700  10.837   2.703 -0.1423 -0.4171  0.0304
28012SOL    HW189166   4.765  10.775   2.670 -1.9137 -1.3635 -1.8268
28012SOL    HW289167   4.648  10.786   2.765  0.6998  0.2536  1.2921
28013SOL     OW89168   4.742   5.185   8.347 -0.3642  0.1304  0.1302
28013SOL    HW189169   4.746   5.275   8.378  1.4023  1.1310 -2.7763
28013SOL    HW289170   4.680   5.141   8.406 -2.1328  3.5049  0.8783
28014SOL     OW89171   6.779   6.535   1.588 -0.4774  0.0477 -0.0169
28014SOL    HW189172   6.711   6.513   1.651 -1.1459 -0.6865 -0.9723
28014SOL    HW289173   6.763   6.626   1.566 -1.5338 -0.2903 -0.6812
28015SOL     OW89174   6.472   7.737   6.351  0.3348 -0.4983 -0.5305
28015SOL    HW189175   6.412   7.663   6.343 -1.4865  0.7708  0.7804
28015SOL    HW289176   6.437   7.803   6.290  1.3924 -0.3611 -1.0020
28016SOL     OW89177   2.348  10.240   8.272 -0.8527  0.1712  0.1072
28016SOL    HW189178   2.431  10.267   8.233 -1.1967  0.7816 -0.2117
28016SOL    HW289179   2.310  10.180   8.209 -0.5230 -0.3267  0.3816
28017SOL     OW89180   5.481   8.989   0.384  0.7286 -0.3036 -0.2202
28017SOL    HW189181   5.498   8.898   0.408 -0.0752 -0.4542 -0.2220
28017SOL    HW289182   5.497   8.992   0.290  1.1766 -0.3407 -0.1483
28018SOL     OW89183   4.112  11.244   2.345  0.8438 -0.2015 -0.3987
28018SOL    HW189184   4.040  11.222   2.286  1.8241 -0.6600 -1.4427
28018SOL    HW289185   4.081  11.322   2.392 -0.6337 -0.8351 -0.2669
28019SOL     OW89186   5.513  11.039   0.251  0.2704  0.5055 -0.5489
28019SOL    HW189187   5.565  10.964   0.280  0.8837  1.6704  1.4186
28019SOL    HW289188   5.425  11.004   0.240  0.4303 -0.3826  0.9171
28020SOL     OW89189   4.535   5.955   6.224 -0.1573 -0.3952 -0.1020
28020SOL    HW189190   4.612   5.900   6.240 -0.2161 -0.3443  0.3698
28020SOL    HW289191   4.469   5.921   6.285 -0.1885  0.2152  0.2084
28021SOL     OW89192   7.281   7.684   5.340  0.5147  0.2046 -0.4390
28021SOL    HW189193   7.319   7.638   5.265 -1.0957  0.7673 -1.6194
28021SOL    HW289194   7.220   7.747   5.302 -0.5312  0.3073  1.3514
28022SOL     OW89195  10.811   1.336   4.793 -0.3841 -0.0005 -0.6661
28022SOL    HW189196  10.848   1.361   4.708 -0.0830 -1.6527 -1.0380
28022SOL    HW289197  10.764   1.254   4.775 -1.0969  0.1342  0.5705
28023SOL     OW89198   1.395   7.874   7.887 -0.2192  0.0832 -0.1234
28023SOL    HW189199   1.416   7.909   7.800  0.0518  0.7375  0.1975
28023SOL    HW289200   1.465   7.906   7.943  1.1208 -2.6672 -0.1821
28024SOL     OW89201   0.615   3.544   6.307  0.4861 -0.0965  0.0943
28024SOL    HW189202   0.656   3.592   6.378 -0.4461 -0.5296  0.9468
28024SOL    HW289203   0.528   3.522   6.340  1.0545 -2.7833 -0.0674
28025SOL     OW89204   4.368   2.045   3.183 -0.1550 -0.4095  0.3281
28025SOL    HW189205   4.370   2.128   3.232 -2.3390 -0.5764  0.7556
28025SOL    HW289206   4.317   2.066   3.104 -1.1468 -1.4513  0.6778
28026SOL     OW89207   5.400   1.358   6.801  0.3633  0.2738 -0.0247
28026SOL    HW189208   5.473   1.419   6.789  2.0628 -1.4088  1.5405
28026SOL    HW289209   5.435   1.273   6.775 -1.8693 -0.1610 -1.8314
28027SOL     OW89210   2.840   2.195   7.505  0.4073 -0.0986  0.2700
28027SOL    HW189211   2.862   2.109   7.471 -2.0008 -0.6418 -0.0063
28027SOL    HW289212   2.864   2.256   7.435 -0.9984 -0.8661 -0.9085
28028SOL     OW89213   4.453   0.038   9.082  0.1855 -0.0950  0.7586
28028SOL    HW189214   4.486   0.004   8.998 -0.4082 -0.6325  0.7439
28028SOL    HW289215   4.497  -0.016   9.148 -0.0035 -0.2338  0.7691
28029SOL     OW89216   8.327   9.486   8.133 -0.0306  0.5162  0.1362
28029SOL    HW189217   8.326   9.451   8.044  2.7515  0.4229  0.1158
28029SOL    HW289218   8.248   9.540   8.138 -0.6218 -0.0866 -2.1241
28030SOL     OW89219   9.278   5.723   2.111 -0.3758  0.4275 -0.0281
28030SOL    HW189220   9.222   5.670   2.053  0.2937  0.6813 -0.9154
28030SOL    HW289221   9.308   5.661   2.177 -0.2965 -0.1198 -0.5651
28031SOL     OW89222   1.968   2.048   5.102  0.3219  0.0308 -0.2186
28031SOL    HW189223   1.903   2.072   5.036  0.5840  1.0200 -0.1203
28031SOL    HW289224   2.049   2.038   5.052  0.3250 -0.1288 -0.1815
28032SOL     OW89225   1.199   4.589   9.726 -0.7775  0.2801 -0.1860
28032SOL    HW189226   1.177   4.569   9.817 -1.7858 -0.3310 -0.5464
28032SOL    HW289227   1.276   4.645   9.731 -1.2433  0.8145  1.0652
28033SOL     OW89228   9.726   1.682   4.391 -0.1406  0.4319  0.1323
28033SOL    HW189229   9.654   1.628   4.361  1.2265 -0.0486 -2.4787
28033SOL    HW289230   9.758   1.640   4.470 -0.2662 -1.5443 -0.8541
28034SOL     OW89231   8.156  10.146   9.499  0.3568 -0.5465 -0.0375
28034SOL    HW189232   8.154  10.110   9.410 -1.0673  0.5727 -0.4725
28034SOL    HW289233   8.243  10.122   9.532  0.4370 -2.0431 -1.2733
28035SOL     OW89234   2.582   2.612   4.543 -0.2680 -0.2403 -0.1452
28035SOL    HW189235   2.504   2.560   4.563 -1.6775  0.4738 -3.4190
28035SOL    HW289236   2.652   2.547   4.531 -0.7655 -1.0010  1.0087
28036SOL     OW89237   8.740  10.316   7.722  0.0874  0.8592  0.8894
28036SOL    HW189238   8.764  10.389   7.778  0.1134  1.2398  0.3931
28036SOL    HW289239   8.708  10.357   7.641  0.3758  0.3232  0.4937
28037SOL     OW89240   0.211   0.725   1.366 -0.4469 -0.4396 -0.6771
28037SOL    HW189241   0.295   0.717   1.412 -0.7371  2.8269  0.5305
28037SOL    HW289242   0.145   0.700   1.431 -0.5569 -0.4234 -0.7816
28038SOL     OW89243   8.663   3.645   9.558 -0.2892 -0.1920  0.2411
28038SOL    HW189244   8.611   3.671   9.482 -1.0704 -0.4829  0.6757
28038SOL    HW289245   8.715   3.723   9.579 -1.8146  0.6772  0.8609
28039SOL     OW89246   0.655   1.170   4.024  0.3733  0.1902 -0.0339
28039SOL    HW189247   0.691   1.081   4.033  0.3171  0.1719  0.0073
28039SOL    HW289248   0.567   1.165   4.061  0.1805  0.1425 -0.4964
28040SOL     OW89249   5.538  11.042   3.159 -0.2191 -0.0620 -0.0026
28040SOL    HW189250   5.517  10.974   3.095 -2.0480  1.0030 -0.5719
28040SOL    HW289251   5.533  10.997   3.244 -0.5682 -0.8516 -0.4304
28041SOL     OW89252   7.679   9.224   8.280 -0.6239 -0.1547 -0.6779
28041SOL    HW189253   7.737   9.157   8.316  0.1741 -0.6074 -2.6847
28041SOL    HW289254   7.711   9.306   8.317 -1.4393 -0.8375  1.5895
28042SOL     OW89255   8.628   0.806   3.414 -0.2400 -0.6037 -0.2956
28042SOL    HW189256   8.574   0.842   3.485 -0.3432 -0.6368 -0.3584
28042SOL    HW289257   8.572   0.812   3.336 -0.4118 -1.3076 -0.2228
28043SOL     OW89258   5.968   2.533  11.135  0.2380 -0.4391  0.0541
28043SOL    HW189259   5.962   2.496  11.223 -2.2096 -0.1199  0.0371
28043SOL    HW289260   6.048   2.494  11.098  2.4407  0.9718  3.1119
28044SOL     OW89261   3.344   9.368   9.636 -0.1039  0.0722  0.2235
28044SOL    HW189262   3.305   9.391   9.720 -0.5236 -1.1437  0.3633
28044SOL    HW289263   3.378   9.451   9.602 -2.9410  1.1817  0.0238
28045SOL     OW89264   0.808   6.145   7.572  0.6592  0.0030  0.9690
28045SOL    HW189265   0.716   6.130   7.551  0.5533  0.3151  1.1956
28045SOL    HW289266   0.849   6.164   7.489  1.1764 -3.3823  0.3861
28046SOL     OW89267   2.317   0.666   0.734  0.2553  0.0006 -0.0895
28046SOL    HW189268   2.326   0.613   0.813  1.5587  0.5188  0.1267
28046SOL    HW289269   2.227   0.699   0.737  0.1853 -0.2671  0.9904
28047SOL     OW89270   6.194   8.986   3.302 -0.3008 -0.1258  0.1523
28047SOL    HW189271   6.289   8.987   3.311 -0.1629  1.1910 -1.3314
28047SOL    HW289272   6.162   8.976   3.392  1.2384 -1.6834  0.5518
28048SOL     OW89273   8.373   8.068   0.594  0.3500 -0.1943 -0.4265
28048SOL    HW189274   8.451   8.107   0.633  0.4492 -0.6883 -0.1297
28048SOL    HW289275   8.404   8.029   0.512  0.3573 -0.1254 -0.4561
28049SOL     OW89276   3.051  11.219   8.511 -0.4687 -0.2330  0.1122
28049SOL    HW189277   2.962  11.182   8.516 -1.0322  1.0723 -0.1201
28049SOL    HW289278   3.040  11.302   8.465  0.9923 -0.4081 -0.5974
28050SOL     OW89279  10.336   7.879  11.086 -0.2230  0.5182  0.1218
28050SOL    HW189280  10.431   7.871  11.082 -0.3593 -0.9264 -0.2052
28050SOL    HW289281  10.304   7.845  11.003 -1.0005  1.6669 -0.0769
28051SOL     OW89282   7.243   5.834   8.394  0.2969  0.1565  0.0108
28051SOL    HW189283   7.285   5.859   8.476 -1.6887 -0.4691  1.2638
28051SOL    HW289284   7.272   5.745   8.378 -0.9217 -0.4668  1.1559
28052SOL     OW89285   3.022   4.820  10.419  0.1446  0.2101  0.3944
28052SOL    HW189286   2.941   4.861  10.449 -0.1584 -0.1995  0.1508
28052SOL    HW289287   3.082   4.827  10.493 -0.8539 -1.4903  1.3933
28053SOL     OW89288   2.537  10.884   1.480 -0.1318 -0.3701 -0.1407
28053SOL    HW189289   2.632  10.869   1.476  0.2139  1.8577 -0.6319
28053SOL    HW289290   2.502  10.829   1.410  0.7953 -1.1498 -0.0128
28054SOL     OW89291   9.690   6.552   1.130 -0.0035  0.5342  0.0194
28054SOL    HW189292   9.666   6.616   1.063 -2.5539 -0.4555 -0.0615
28054SOL    HW289293   9.632   6.572   1.204 -0.5166 -1.3468  0.1619
28055SOL     OW89294   9.333   5.058   4.725 -0.5459  0.7392 -0.2919
28055SOL    HW189295   9.256   5.022   4.682  0.2101 -0.3223 -0.7621
28055SOL    HW289296   9.297   5.122   4.787 -1.7877  0.4148 -0.6524
28056SOL     OW89297   2.863  10.114  10.643  0.5539  0.4730 -0.2037
28056SOL    HW189298   2.881  10.186  10.704 -1.2412  0.5938  0.2142
28056SOL    HW289299   2.944  10.104  10.594  1.8448  0.7804  1.7839
28057SOL     OW89300   1.215   1.888   7.945  0.4376  0.4545  0.2397
28057SOL    HW189301   1.266   1.879   8.025  0.8237  1.2679  0.0923
28057SOL    HW289302   1.129   1.851   7.967  1.3506 -1.7352  0.1975
28058SOL     OW89303   8.303   6.635   3.161  0.2156 -0.1420 -0.4965
28058SOL    HW189304   8.387   6.590   3.160  0.6313  0.6123 -0.0490
28058SOL    HW289305   8.248   6.585   3.101  0.0506 -2.4130  1.4792
28059SOL     OW89306   1.480   2.042   4.168  0.2803 -0.1488  0.1339
28059SOL    HW189307   1.427   2.120   4.184  1.5148  1.0309 -1.3766
28059SOL    HW289308   1.571   2.072   4.176  0.7811 -1.3037 -0.9925
28060SOL     OW89309   9.575   8.540   3.110  0.0494 -0.3124 -0.2421
28060SOL    HW189310   9.613   8.612   3.160 -1.7548  0.0908  0.5975
28060SOL    HW289311   9.603   8.556   3.020 -0.3219  1.4395 -0.0620
28061SOL     OW89312  10.255   2.386   4.494  0.3244  0.1680  0.1513
28061SOL    HW189313  10.344   2.409   4.522  0.7237  1.0490 -1.7456
28061SOL    HW289314  10.203   2.464   4.514 -0.0990 -0.4532  1.5281
28062SOL     OW89315   6.569   8.371   1.517 -0.2754  0.0138 -0.4298
28062SOL    HW189316   6.595   8.449   1.469 -1.6248 -0.3426 -1.7923
28062SOL    HW289317   6.631   8.365   1.589  0.2922  1.9274 -0.7344
28063SOL     OW89318  11.234   3.510   5.025 -0.6059 -0.0115 -0.3389
28063SOL    HW189319  11.152   3.532   5.068 -0.7436 -2.7982  0.9062
28063SOL    HW289320  11.255   3.422   5.056  2.7336  0.5423 -0.8034
28064SOL     OW89321   7.705   6.609   0.798  0.2746  0.5375 -0.0822
28064SOL    HW189322   7.684   6.539   0.736 -0.2218  1.3975 -0.8955
28064SOL    HW289323   7.698   6.568   0.884  4.3168 -1.5817 -0.6597
28065SOL     OW89324   0.717   9.175   1.825  0.1482  0.0096 -0.1706
28065SOL    HW189325   0.726   9.189   1.919  0.3647 -2.5657  0.2142
28065SOL    HW289326   0.784   9.231   1.786  1.9487 -1.0193  1.3730
28066SOL     OW89327   9.528   6.257   7.622 -0.1758 -0.1911  0.4342
28066SOL    HW189328   9.564   6.188   7.567  0.3269 -0.4249  1.0434
28066SOL    HW289329   9.507   6.329   7.562  0.5219 -0.3801 -0.0279
28067SOL     OW89330  10.196   8.724   4.365 -0.0781  0.0877  0.6844
28067SOL    HW189331  10.181   8.703   4.458 -0.3985 -0.6748  0.4684
28067SOL    HW289332  10.276   8.777   4.365  0.5435 -0.8337  1.2995
28068SOL     OW89333   1.047   5.250   9.881  0.0660  0.0449 -0.3833
28068SOL    HW189334   1.039   5.316   9.950 -0.6059 -0.9425  0.5093
28068SOL    HW289335   1.080   5.298   9.805  0.5442  1.2045  0.5398
28069SOL     OW89336   6.717   4.363   7.837  0.2214 -0.3511 -0.7774
28069SOL    HW189337   6.625   4.387   7.848  0.1243 -1.1356  0.1651
28069SOL    HW289338   6.760   4.444   7.809 -0.3752  0.5511  0.8500
28070SOL     OW89339   1.671   9.420   7.539 -0.5740  0.1685  0.6408
28070SOL    HW189340   1.687   9.344   7.595 -0.0069  0.0646  0.3446
28070SOL    HW289341   1.632   9.485   7.598  1.4553  0.6234  1.5576
28071SOL     OW89342   0.532   2.131   0.927 -0.4923  0.1840 -0.2581
28071SOL    HW189343   0.566   2.073   0.860  0.8804  0.6811 -0.0044
28071SOL    HW289344   0.450   2.165   0.890 -1.4911 -2.1417 -0.2538
28072SOL     OW89345   7.985   9.862   7.067 -0.7745  0.1690 -0.5282
28072SOL    HW189346   8.080   9.857   7.079 -0.4946  2.7781 -1.4767
28072SOL    HW289347   7.960   9.773   7.041  1.1305 -0.9997  1.4488
28073SOL     OW89348   5.857   9.034   0.727  0.3464  0.1322  0.0634
28073SOL    HW189349   5.871   9.126   0.707  0.1998 -0.1763 -1.5699
28073SOL    HW289350   5.930   9.010   0.784  1.1340  0.9384 -0.5957
28074SOL     OW89351   4.513  10.702   2.845 -0.4887  0.0095  0.5320
28074SOL    HW189352   4.553  10.616   2.856 -1.6768 -0.6648 -0.3209
28074SOL    HW289353   4.449  10.707   2.916 -0.5272  0.1364  0.4881
28075SOL     OW89354   5.698   3.984  11.023 -0.1781  0.2063 -0.5660
28075SOL    HW189355   5.772   4.008  11.080  0.0310 -0.9960 -0.3148
28075SOL    HW289356   5.734   3.989  10.934 -0.1445  0.8144 -0.5242
28076SOL     OW89357   9.604   4.242   6.634 -0.2205 -0.3190  0.5522
28076SOL    HW189358   9.608   4.272   6.725  0.1980  1.5107 -0.0622
28076SOL    HW289359   9.513   4.260   6.607  0.1474  0.8099  0.0500
28077SOL     OW89360   5.546   1.144  10.251  0.1417  0.5345  0.5004
28077SOL    HW189361   5.601   1.204  10.202  0.1038  0.1418 -0.0221
28077SOL    HW289362   5.599   1.117  10.326  1.1530 -0.8624 -0.6889
28078SOL     OW89363   0.888  10.912  11.025  0.1666  0.5151  0.4200
28078SOL    HW189364   0.827  10.867  10.967  1.1345 -1.1222  0.6565
28078SOL    HW289365   0.941  10.966  10.967  0.6995 -0.6145 -0.1571
28079SOL     OW89366  10.709   3.090   3.720 -0.3972  0.3335 -0.9450
28079SOL    HW189367  10.695   3.016   3.779  0.7626  0.2189 -0.7930
28079SOL    HW289368  10.732   3.051   3.636 -0.0576  0.5125 -0.9379
28080SOL     OW89369  10.177   4.728   4.326  0.0553 -1.0238 -0.4812
28080SOL    HW189370  10.251   4.678   4.360  3.2919  2.6531 -1.6668
28080SOL    HW289371  10.147   4.780   4.400 -1.1974 -2.3220 -0.0674
28081SOL     OW89372   6.903   8.676   0.981 -0.0178 -0.0517  0.2144
28081SOL    HW189373   6.936   8.714   1.062  0.9205 -0.8952  0.2331
28081SOL    HW289374   6.951   8.594   0.971  0.5843  0.5058 -1.6939
28082SOL     OW89375   2.559   3.906   9.892  0.3340 -0.1852 -0.1204
28082SOL    HW189376   2.636   3.901   9.835  0.3450  0.4306 -0.1706
28082SOL    HW289377   2.507   3.829   9.869  1.3482 -1.0753  0.5287
28083SOL     OW89378   5.463   3.035   4.040 -0.2039  0.3466 -0.2083
28083SOL    HW189379   5.526   2.978   4.085 -0.8457  0.0693  0.3501
28083SOL    HW289380   5.399   2.975   4.001 -1.0588  0.6893  0.6517
28084SOL     OW89381   6.590   1.256   3.843  0.7680 -0.4229  0.0950
28084SOL    HW189382   6.560   1.346   3.852  1.0390 -0.2895 -0.3227
28084SOL    HW289383   6.633   1.253   3.757  1.4574 -0.7473  0.4457
28085SOL     OW89384   3.796   4.821   7.106  0.3617  0.0948 -0.1728
28085SOL    HW189385   3.728   4.774   7.153  2.0847 -0.6297  1.6821
28085SOL    HW289386   3.817   4.765   7.031  0.4561 -0.7646  0.4837
28086SOL     OW89387   5.367   0.570   9.043  0.1419  0.5183  0.4100
28086SOL    HW189388   5.453   0.529   9.038  0.5868  1.6457 -1.4683
28086SOL    HW289389   5.335   0.549   9.131  2.2617 -0.0219  1.0617
28087SOL     OW89390   6.112   3.763   6.588  0.3867  0.4519 -0.3190
28087SOL    HW189391   6.027   3.799   6.615 -1.3579 -4.0306  0.6350
28087SOL    HW289392   6.171   3.784   6.661 -0.9243  0.0835  0.8608
28088SOL     OW89393   7.599   2.239   5.830 -0.6389  0.0860  0.4474
28088SOL    HW189394   7.653   2.244   5.908 -1.8858 -0.2554  1.3446
28088SOL    HW289395   7.596   2.328   5.797 -0.2640  0.2656  0.9008
28089SOL     OW89396   0.542   0.153   2.017 -0.5736  0.0921 -0.1394
28089SOL    HW189397   0.610   0.173   2.082  0.0600  1.3722 -1.1794
28089SOL    HW289398   0.548   0.224   1.953 -1.9435 -0.5543 -1.0097
28090SOL     OW89399   5.663   7.323  10.199  0.4132 -0.3402  0.2813
28090SOL    HW189400   5.671   7.334  10.294  1.2315 -0.6090  0.2426
28090SOL    HW289401   5.694   7.406  10.163 -1.1189  0.2516  0.2891
28091SOL     OW89402   3.894   8.934   1.705 -0.2676  0.5708  0.1395
28091SOL    HW189403   3.898   8.946   1.610 -1.6817  1.2114  0.1454
28091SOL    HW289404   3.809   8.969   1.730  0.0566  0.3274  1.6431
28092SOL     OW89405   5.978   8.107   4.796 -0.1440 -0.2278 -0.3133
28092SOL    HW189406   6.070   8.084   4.779  0.0915 -0.9774  1.8333
28092SOL    HW289407   5.976   8.203   4.793  1.3303 -0.0539  2.4461
28093SOL     OW89408   3.469   5.882   4.441 -0.5075  0.1439 -0.4326
28093SOL    HW189409   3.394   5.877   4.382  0.0567 -1.1011 -1.0535
28093SOL    HW289410   3.537   5.924   4.389 -0.0854 -0.7349 -0.5954
28094SOL     OW89411  11.022   1.232   7.033  0.0499 -1.0512  1.0764
28094SOL    HW189412  11.067   1.316   7.024  1.1866 -1.8603 -1.0360
28094SOL    HW289413  10.936   1.255   7.069 -0.1430  1.1417 -0.6847
28095SOL     OW89414   5.445   9.864  11.204 -0.2410  0.0958  0.4374
28095SOL    HW189415   5.382   9.933  11.183  0.2701  0.4387 -0.0120
28095SOL    HW289416   5.525   9.890  11.158  0.4199 -0.0005  1.5019
28096SOL     OW89417   2.451   9.525  11.016 -0.7774  0.3106  0.3368
28096SOL    HW189418   2.417   9.471  11.087 -0.1760 -0.9123 -0.2871
28096SOL    HW289419   2.372   9.560  10.974 -1.2439 -1.1911 -0.0965
28097SOL     OW89420   8.573   8.721   9.844  0.3132 -0.2695  0.8697
28097SOL    HW189421   8.497   8.779   9.842  0.8046  0.3582  0.0997
28097SOL    HW289422   8.591   8.709   9.938  0.4081  1.1034  1.0421
28098SOL     OW89423   8.930   1.260   2.204  0.0112 -0.0064 -0.0431
28098SOL    HW189424   8.991   1.324   2.240  0.6012 -0.2291 -0.6373
28098SOL    HW289425   8.872   1.238   2.277 -1.6678  2.9043 -0.4462
28099SOL     OW89426   5.792   3.176   3.724 -0.0370  0.0042 -0.0329
28099SOL    HW189427   5.710   3.153   3.679 -0.0555 -0.0223  0.0134
28099SOL    HW289428   5.820   3.257   3.683  1.5743 -1.6018 -2.2407
28100SOL     OW89429   7.422   9.794   4.388 -0.3933 -0.2903 -0.2187
28100SOL    HW189430   7.491   9.753   4.335  1.6864 -0.4771  2.4842
28100SOL    HW289431   7.448   9.886   4.395  0.9004 -0.7951  2.6400
28101SOL     OW89432   6.172   0.452   8.000 -0.0890  0.7883  0.3318
28101SOL    HW189433   6.144   0.529   8.049  0.8975 -0.4366  2.9289
28101SOL    HW289434   6.266   0.464   7.988  0.0251  0.1249  0.5334
28102SOL     OW89435   8.983  10.542   8.026 -0.1540 -0.1454  0.1489
28102SOL    HW189436   9.042  10.581   7.962  0.3914 -0.0323  0.7101
28102SOL    HW289437   8.998  10.593   8.106  0.3793 -1.3265  0.8192
28103SOL     OW89438  11.196  10.025   9.662 -0.0376 -0.0708  0.3012
28103SOL    HW189439  11.144  10.103   9.643  1.9455  1.2765  0.2229
28103SOL    HW289440  11.244  10.008   9.581  0.6136 -0.5246  0.7781
28104SOL     OW89441  10.612   9.003   3.268  0.0235  0.1007  0.1284
28104SOL    HW189442  10.583   8.916   3.242 -0.0252  0.3066 -0.5223
28104SOL    HW289443  10.678   8.988   3.335 -0.7184 -0.4037  0.7451
28105SOL     OW89444   6.181   3.451   8.361 -0.2018 -0.3404 -0.1686
28105SOL    HW189445   6.160   3.528   8.310  0.0293  0.3938  0.8224
28105SOL    HW289446   6.264   3.472   8.404 -1.2896 -0.1987  1.9533
28106SOL     OW89447   8.004   3.383   7.307  0.3293  0.0540 -0.2267
28106SOL    HW189448   7.969   3.462   7.349  1.2476  0.4463 -0.1750
28106SOL    HW289449   8.061   3.345   7.373  0.2116 -0.4316 -0.4047
28107SOL     OW89450   6.420   7.628   4.213 -0.0474  0.2021 -0.4013
28107SOL    HW189451   6.457   7.706   4.171  1.3466 -0.3739 -0.2394
28107SOL    HW289452   6.455   7.629   4.302  1.2803 -1.4757 -0.8852
28108SOL     OW89453   7.469   3.668  10.732  0.5417  0.7723 -0.2781
28108SOL    HW189454   7.374   3.663  10.722  0.8373 -1.3605 -2.6799
28108SOL    HW289455   7.496   3.731  10.665  0.9605 -0.0858 -0.9364
28109SOL     OW89456   2.299   2.345   9.890 -0.4012 -0.3325 -0.8043
28109SOL    HW189457   2.384   2.302   9.893 -0.6555 -0.9184 -1.9140
28109SOL    HW289458   2.310   2.423   9.944  0.4603 -1.0658  0.0958
28110SOL     OW89459   0.943   8.652   4.813  0.2187 -0.0938  0.1674
28110SOL    HW189460   1.009   8.633   4.880  0.6301  0.5911 -0.0454
28110SOL    HW289461   0.867   8.682   4.862  0.3079 -0.1946  0.3672
28111SOL     OW89462   4.540   9.493   3.615 -0.0354 -0.0429 -0.2540
28111SOL    HW189463   4.462   9.547   3.626 -0.4180 -0.5908 -0.2317
28111SOL    HW289464   4.546   9.443   3.696 -0.7317 -1.3636 -0.9999
28112SOL     OW89465   1.078   2.991   7.266  0.0002  0.5666 -0.1889
28112SOL    HW189466   1.033   2.939   7.332 -1.0960  3.4038  1.3758
28112SOL    HW289467   1.169   2.991   7.294  0.0196 -0.4747 -0.2109
28113SOL     OW89468   3.308   8.509   8.889 -0.0509 -0.3341 -0.3024
28113SOL    HW189469   3.276   8.596   8.910 -0.9930 -0.5960 -0.6039
28113SOL    HW289470   3.286   8.497   8.796 -0.1138 -0.9632 -0.2096
28114SOL     OW89471  10.835   6.999   8.984 -0.5906  0.2137  0.3093
28114SOL    HW189472  10.813   6.961   9.069 -1.4629 -0.7439 -0.3342
28114SOL    HW289473  10.762   7.057   8.963 -0.3385  0.5136  0.2526
28115SOL     OW89474   0.721   5.571   5.691 -0.1352 -0.0183 -0.5177
28115SOL    HW189475   0.772   5.495   5.662  0.7767  0.4608 -0.1911
28115SOL    HW289476   0.660   5.587   5.619 -0.0734 -0.8250 -0.7559
28116SOL     OW89477   0.722   2.867  10.313 -0.1379 -0.2281 -0.5183
28116SOL    HW189478   0.807   2.907  10.295  0.9478 -1.6050  1.2498
28116SOL    HW289479   0.691   2.911  10.392  0.2203 -1.5701  0.3905
28117SOL     OW89480   2.811   8.803  10.201 -0.0654 -0.0580 -0.1144
28117SOL    HW189481   2.843   8.866  10.266 -1.1524  0.6307 -0.2313
28117SOL    HW289482   2.876   8.805  10.131  1.2363 -0.9676  1.0415
28118SOL     OW89483   5.564  10.963   6.306  0.3784 -0.7613  0.0271
28118SOL    HW189484   5.636  11.015   6.272  0.2883  0.6128  1.8554
28118SOL    HW289485   5.495  10.971   6.240  1.6946 -1.6623 -1.4847
28119SOL     OW89486   2.660   9.060   7.428 -0.1288 -0.3626 -0.2383
28119SOL    HW189487   2.686   9.152   7.422  0.1385 -0.5096 -1.4316
28119SOL    HW289488   2.689   9.021   7.346  1.1493 -1.8880  0.8992
28120SOL     OW89489   9.545   7.853   1.146 -0.5785  0.2879  0.2642
28120SOL    HW189490   9.499   7.798   1.083  2.3403 -1.0236 -0.8186
28120SOL    HW289491   9.478   7.914   1.178 -2.9839 -1.4019 -1.3451
28121SOL     OW89492   8.785   9.631   9.975  0.1792  0.1332  0.3436
28121SOL    HW189493   8.875   9.662   9.980 -0.1445  1.0139  0.6644
28121SOL    HW289494   8.749   9.644  10.063 -0.4105  0.2472  0.0922
28122SOL     OW89495   8.733   7.434   7.029  0.1393 -0.2279  0.0080
28122SOL    HW189496   8.676   7.416   6.954  0.8768 -1.3709 -0.2828
28122SOL    HW289497   8.822   7.424   6.994  0.5338  1.2852  0.5190
28123SOL     OW89498   8.940   5.992   3.097  0.2399 -0.6863 -0.0315
28123SOL    HW189499   8.946   5.897   3.104 -0.0265 -0.9971 -3.1665
28123SOL    HW289500   8.950   6.010   3.003 -3.9085  2.0530 -0.0819
28124SOL     OW89501   7.655   2.623   5.492 -0.9891  0.0149 -0.2703
28124SOL    HW189502   7.597   2.680   5.443 -2.7302 -2.0601 -0.6937
28124SOL    HW289503   7.685   2.558   5.428 -1.2152 -1.1723  0.8150
28125SOL     OW89504  10.989   1.972   5.778  0.1766 -0.0599 -0.2278
28125SOL    HW189505  11.004   2.001   5.688  0.3769 -0.0661 -0.1980
28125SOL    HW289506  11.071   1.992   5.823  0.2169 -0.4214 -0.1412
28126SOL     OW89507   9.458   8.160   4.633 -0.0385  0.1462 -0.2702
28126SOL    HW189508   9.533   8.100   4.630 -0.2620 -0.1052 -0.9295
28126SOL    HW289509   9.461   8.207   4.549 -1.8044 -1.3225 -1.1920
28127SOL     OW89510   6.718   8.186   5.289 -0.6902  0.3628 -0.0198
28127SOL    HW189511   6.649   8.206   5.225  0.1160  1.3307 -0.5980
28127SOL    HW289512   6.773   8.264   5.289 -0.2646  0.0656  1.3227
28128SOL     OW89513   1.549  10.587   2.306  0.9752  0.2856  0.1238
28128SOL    HW189514   1.540  10.567   2.213 -0.1493 -2.4594  0.7766
28128SOL    HW289515   1.577  10.505   2.346  1.6734  1.4882  2.2009
28129SOL     OW89516   9.786   0.601   0.546 -0.3146 -0.5254 -0.2731
28129SOL    HW189517   9.872   0.634   0.569 -0.8638  1.9018 -1.4873
28129SOL    HW289518   9.803   0.538   0.476  0.4855  0.1615 -0.7164
28130SOL     OW89519   0.958   7.846   0.445 -0.1349 -0.2110  0.7684
28130SOL    HW189520   1.021   7.800   0.500  0.5512 -0.5986 -0.3225
28130SOL    HW289521   0.936   7.783   0.376 -0.6318  0.4288  0.3308
28131SOL     OW89522  10.548   1.058   3.679 -0.8811  0.2816  0.2848
28131SOL    HW189523  10.489   0.984   3.689 -0.4591  0.0719  1.3079
28131SOL    HW289524  10.581   1.075   3.767 -0.3565  1.1757 -0.0710
28132SOL     OW89525   4.602  10.373   6.418 -0.2263  0.0734  0.7165
28132SOL    HW189526   4.682  10.404   6.462 -0.2028 -0.3958  1.0098
28132SOL    HW289527   4.534  10.432   6.448 -0.4065 -0.8436  2.1898
28133SOL     OW89528  11.204  10.587   1.735  0.0781  0.2001  0.3098
28133SOL    HW189529  11.128  10.600   1.791 -1.3050 -1.4584 -1.1230
28133SOL    HW289530  11.201  10.495   1.710  3.0016 -0.1024  0.8167
28134SOL     OW89531   5.957   2.722  10.243 -0.4100  0.0949 -0.0002
28134SOL    HW189532   5.974   2.816  10.237  2.8098 -0.3256  1.6966
28134SOL    HW289533   6.015   2.683  10.177 -1.1820 -0.7658 -0.1798
28135SOL     OW89534   6.040   4.389   3.970 -0.1569  0.1740  0.2887
28135SOL    HW189535   5.987   4.408   4.048 -0.3912  0.5878  0.0297
28135SOL    HW289536   5.978   4.397   3.897  0.4836  1.6680 -0.1033
28136SOL     OW89537   1.298   9.806   5.575  0.4526 -0.2823  0.2306
28136SOL    HW189538   1.296   9.813   5.480 -0.4860 -0.1334  0.2557
28136SOL    HW289539   1.370   9.746   5.593  1.0699  0.2138 -0.5406
28137SOL     OW89540   2.230   8.206  10.788  0.4436 -0.1516 -0.1887
28137SOL    HW189541   2.194   8.177  10.872  1.5139 -0.2508  0.2364
28137SOL    HW289542   2.192   8.145  10.724 -1.1307  0.5194  0.0828
28138SOL     OW89543   1.052   1.459  10.665  0.2167 -0.2334  0.3692
28138SOL    HW189544   1.038   1.527  10.731 -1.0602 -0.9398  0.8448
28138SOL    HW289545   1.147   1.446  10.664  0.2569 -0.1331  1.9891
28139SOL     OW89546   8.003   8.603   0.860 -0.1992 -0.1374 -0.1864
28139SOL    HW189547   8.060   8.583   0.934 -0.2339  0.5129  0.0191
28139SOL    HW289548   7.933   8.657   0.898  0.0198  0.5621 -0.7704
28140SOL     OW89549   1.892   6.212   2.303  0.2197  0.0899  0.0124
28140SOL    HW189550   1.891   6.208   2.398 -1.4817 -0.3055 -0.0040
28140SOL    HW289551   1.808   6.175   2.276  0.6081  0.3432 -1.6368
28141SOL     OW89552   5.081   0.269  10.177 -0.1084  0.2892 -0.0342
28141SOL    HW189553   5.156   0.221  10.142 -0.5293  0.1058 -0.6830
28141SOL    HW289554   5.034   0.205  10.230 -1.9011 -0.6443 -2.6881
28142SOL     OW89555   3.219   9.445   2.550  0.2617  0.2447 -0.0345
28142SOL    HW189556   3.277   9.369   2.555  0.2402  0.4333  4.7100
28142SOL    HW289557   3.278   9.520   2.544  0.4600  0.2391  1.7079
28143SOL     OW89558   4.136   7.924   0.677 -0.2637 -0.2926  0.0587
28143SOL    HW189559   4.227   7.950   0.663 -0.3594 -0.4360 -0.8364
28143SOL    HW289560   4.105   7.983   0.747  0.8305 -0.9815  1.1464
28144SOL     OW89561   2.605   0.672   7.269 -0.0018 -0.3684 -0.0384
28144SOL    HW189562   2.609   0.593   7.215  0.0083  0.1826 -0.8480
28144SOL    HW289563   2.516   0.671   7.306  1.6192 -3.5105  4.1893
28145SOL     OW89564   3.827  10.938  10.828  0.1120  0.1561 -0.2567
28145SOL    HW189565   3.854  10.979  10.746  0.0462 -2.0850 -1.4477
28145SOL    HW289566   3.788  11.009  10.879 -1.7368  1.1891 -2.9909
28146SOL     OW89567   8.391  10.650   0.558  0.1723  0.0792  0.2997
28146SOL    HW189568   8.357  10.636   0.646  0.5239 -1.9715  0.1465
28146SOL    HW289569   8.338  10.592   0.503  1.0569  0.0980 -0.5781
28147SOL     OW89570   3.448   8.512  10.368  0.0449 -0.6486  0.1859
28147SOL    HW189571   3.486   8.583  10.316 -0.9255 -0.5161 -0.3597
28147SOL    HW289572   3.355   8.512  10.344 -0.3399 -0.8493  1.6309
28148SOL     OW89573   0.407   9.300   8.162  0.0485 -0.0817  0.3947
28148SOL    HW189574   0.413   9.345   8.078  3.4029 -1.5953 -0.2612
28148SOL    HW289575   0.332   9.241   8.153  0.2658 -0.0852 -1.4493
28149SOL     OW89576   7.423   2.752   8.705  0.6473  0.4251 -0.0104
28149SOL    HW189577   7.426   2.660   8.679  0.6571  0.5072 -0.2938
28149SOL    HW289578   7.513   2.774   8.727  0.9256  0.8188 -1.4845
28150SOL     OW89579   9.986   9.842   8.922 -0.2747  0.3470  0.0985
28150SOL    HW189580   9.972   9.763   8.869 -0.7963  0.4034  0.1494
28150SOL    HW289581   9.914   9.843   8.984  1.8025 -1.1455  2.6103
28151SOL     OW89582   5.957   1.459   4.933  0.1800 -0.4120  0.0773
28151SOL    HW189583   6.009   1.492   5.006 -0.7399 -1.1392  1.0750
28151SOL    HW289584   6.020   1.441   4.864  1.3481 -1.9506  1.5063
28152SOL     OW89585   1.393   6.476   1.896  0.2459 -0.3928  0.2511
28152SOL    HW189586   1.310   6.516   1.867 -1.2982 -2.5179  1.5970
28152SOL    HW289587   1.396   6.393   1.849  1.6264 -0.3495  0.2527
28153SOL     OW89588   1.884   7.111   1.924 -0.6317 -0.1847 -0.0768
28153SOL    HW189589   1.879   7.026   1.968  1.4375 -0.5399 -0.4976
28153SOL    HW289590   1.931   7.167   1.985 -0.3322  0.1355 -0.6043
28154SOL     OW89591   0.957   1.907  10.314 -0.5903 -0.1514  0.5058
28154SOL    HW189592   0.883   1.870  10.266 -0.9426 -2.5643  2.8380
28154SOL    HW289593   0.961   1.998  10.285 -5.0838  0.3153  1.0456
28155SOL     OW89594   3.181   4.560  11.164 -0.4205 -0.0523 -0.1326
28155SOL    HW189595   3.262   4.608  11.180 -0.7105  0.4915 -0.2871
28155SOL    HW289596   3.209   4.479  11.121  0.2305 -0.8703  1.7802
28156SOL     OW89597   0.690  10.723   8.834 -0.6883 -0.2806 -0.0438
28156SOL    HW189598   0.670  10.815   8.853 -0.1029 -0.1049 -0.2714
28156SOL    HW289599   0.724  10.725   8.744 -0.0964 -0.6454  0.1780
28157SOL     OW89600   3.546   6.630   3.327 -0.8379 -0.2131 -0.2736
28157SOL    HW189601   3.534   6.725   3.320 -1.8657 -0.2805  0.3989
28157SOL    HW289602   3.514   6.595   3.244 -1.4319 -0.0505 -0.1141
28158SOL     OW89603   0.597   1.629   6.162  0.1013 -0.3392  0.4394
28158SOL    HW189604   0.538   1.599   6.093 -2.0566  0.5931  1.8114
28158SOL    HW289605   0.682   1.636   6.119 -1.0813 -0.2415 -2.0152
28159SOL     OW89606   3.835   2.771   6.425  0.5285 -0.1626  0.5258
28159SOL    HW189607   3.870   2.770   6.514 -0.6552 -2.1851  1.0056
28159SOL    HW289608   3.759   2.828   6.430  1.1214  0.6410  0.5272
28160SOL     OW89609  11.156   7.531   9.550  0.1044 -0.0854  0.0648
28160SOL    HW189610  11.197   7.465   9.495 -1.5628 -1.5906  0.5731
28160SOL    HW289611  11.111   7.589   9.488  0.1368 -0.4375 -0.2909
28161SOL     OW89612   9.227   0.602   1.747  0.0824 -0.2134  0.1202
28161SOL    HW189613   9.291   0.558   1.691 -1.0365 -0.4224 -1.0086
28161SOL    HW289614   9.247   0.571   1.836  1.8058  0.0501 -0.1720
28162SOL     OW89615  10.599   5.533  10.414  0.6266  0.3502 -0.7224
28162SOL    HW189616  10.693   5.549  10.424  0.3081  1.7005  0.1911
28162SOL    HW289617  10.564   5.535  10.503 -0.1828 -0.7747 -0.9984
28163SOL     OW89618   2.114   6.104   0.623  0.0901 -0.5136 -0.0559
28163SOL    HW189619   2.086   6.173   0.684 -0.2536  1.6740 -2.6037
28163SOL    HW289620   2.033   6.072   0.584  0.2542 -2.3720  1.0719
28164SOL     OW89621   2.540   4.200   4.607 -0.1378  0.4012  0.3218
28164SOL    HW189622   2.486   4.194   4.528  1.1873 -0.2103 -0.5615
28164SOL    HW289623   2.479   4.223   4.676 -1.2166  1.6175 -1.0045
28165SOL     OW89624  10.256   8.766   5.628  0.5397 -0.0033 -0.0765
28165SOL    HW189625  10.331   8.781   5.570  1.5634  0.7590  1.4215
28165SOL    HW289626  10.191   8.831   5.602  0.7464 -0.0782 -0.7763
28166SOL     OW89627   5.734  10.841   4.414 -0.3026  0.1154 -0.3483
28166SOL    HW189628   5.746  10.913   4.351  0.2283 -0.8177 -1.3362
28166SOL    HW289629   5.823  10.821   4.444 -0.3404 -0.7379 -0.7870
28167SOL     OW89630   1.395   5.332   8.899 -0.2431 -0.9183  0.3829
28167SOL    HW189631   1.483   5.358   8.871 -0.5166  0.4181  0.7183
28167SOL    HW289632   1.410   5.277   8.976  0.3408 -1.3383 -0.0381
28168SOL     OW89633   3.460   6.088   7.140 -0.0620 -0.0589 -0.1484
28168SOL    HW189634   3.475   5.994   7.125  0.1780 -0.5093  2.6219
28168SOL    HW289635   3.374   6.105   7.101 -0.5498 -1.6528  0.1896
28169SOL     OW89636   9.809   0.893   9.311  0.2644  0.0880 -0.8476
28169SOL    HW189637   9.778   0.975   9.272  0.8406 -0.9520 -3.6371
28169SOL    HW289638   9.891   0.917   9.354 -0.3096  1.2473 -0.3576
28170SOL     OW89639   5.212  11.183  10.271 -0.1881 -0.2410 -0.1929
28170SOL    HW189640   5.162  11.199  10.351  0.2349  1.9492 -0.3424
28170SOL    HW289641   5.146  11.161  10.205 -0.8612  1.3438 -0.0687
28171SOL     OW89642   8.997   9.969   3.860 -0.2436  0.3232 -0.0098
28171SOL    HW189643   8.922   9.956   3.918  0.3810 -0.8193  0.5570
28171SOL    HW289644   9.053  10.030   3.908  0.0367 -0.2306  0.3708
28172SOL     OW89645   7.828   7.672   4.495  0.3260 -0.2402  0.1334
28172SOL    HW189646   7.909   7.680   4.546  0.6662  1.9346 -0.6839
28172SOL    HW289647   7.858   7.663   4.404 -0.3371 -0.2911 -0.0799
28173SOL     OW89648   0.777   9.253  10.640  0.4641 -0.1754 -0.4671
28173SOL    HW189649   0.717   9.180  10.653  2.0114 -1.2031  1.0831
28173SOL    HW289650   0.814   9.240  10.553 -1.3764  0.3527 -1.3437
28174SOL     OW89651   9.502   6.711   9.178  0.4231  0.2771 -0.1057
28174SOL    HW189652   9.496   6.629   9.128 -0.0787 -0.4373  1.1075
28174SOL    HW289653   9.596   6.732   9.177  0.4741  0.0410 -0.9689
28175SOL     OW89654   1.905   2.177   8.847 -0.6502 -0.3440  0.3562
28175SOL    HW189655   1.855   2.106   8.887 -0.0154 -0.5954  0.7080
28175SOL    HW289656   1.860   2.257   8.875 -1.7680 -0.6191 -0.5912
28176SOL     OW89657  10.394   2.447   6.317  0.2082 -0.4472  0.4738
28176SOL    HW189658  10.367   2.365   6.276  0.7983 -1.5183  2.1601
28176SOL    HW289659  10.438   2.496   6.247 -1.8520 -0.7269 -1.0427
28177SOL     OW89660   8.074   1.214  10.861 -0.2617  0.0866 -0.4259
28177SOL    HW189661   8.072   1.260  10.945  0.6180 -1.4365  0.4654
28177SOL    HW289662   7.982   1.201  10.839 -0.5172  2.3918 -0.7757
28178SOL     OW89663   1.063   5.682   2.492 -0.1555 -0.5537  0.2568
28178SOL    HW189664   1.084   5.613   2.428 -0.6368 -1.9715  1.6186
28178SOL    HW289665   0.968   5.684   2.494 -0.1593  0.8186 -0.4538
28179SOL     OW89666   7.674   7.351   6.856  0.2584  0.0447 -0.2143
28179SOL    HW189667   7.652   7.427   6.910  1.1966 -0.7964  1.4023
28179SOL    HW289668   7.769   7.340   6.867  0.6073  0.3266 -2.6871
28180SOL     OW89669   5.355   4.104   0.151  0.3835  0.0952  0.1537
28180SOL    HW189670   5.389   4.186   0.117 -0.0842 -0.8051 -2.6456
28180SOL    HW289671   5.432   4.055   0.180  0.9477  0.3597 -0.8856
28181SOL     OW89672   1.279   8.777   3.023  0.0493  0.6797 -0.6540
28181SOL    HW189673   1.208   8.726   3.061  0.0329  0.9579 -0.3092
28181SOL    HW289674   1.258   8.867   3.045  0.9727  0.6960  0.2453
28182SOL     OW89675   4.992   1.193   7.974  0.4482 -0.3912  0.4488
28182SOL    HW189676   4.944   1.277   7.977  0.2979 -0.4115 -1.0325
28182SOL    HW289677   5.083   1.218   7.958  0.2507 -0.5460 -0.9665
28183SOL     OW89678   5.092   3.981   5.507  0.4711 -0.0857 -0.2654
28183SOL    HW189679   5.156   4.043   5.542  0.0607  0.5090 -0.5563
28183SOL    HW289680   5.144   3.913   5.466  0.9128  0.8419 -1.2633
28184SOL     OW89681   3.786   6.809   2.385  0.0448 -0.4022  0.1592
28184SOL    HW189682   3.873   6.768   2.389  0.4681  0.3485 -1.0177
28184SOL    HW289683   3.772   6.826   2.292 -0.6555  1.0074  0.5128
28185SOL     OW89684   5.765   5.791   4.608 -0.3760 -0.2419  0.3460
28185SOL    HW189685   5.832   5.800   4.676 -0.0775  0.2204 -0.0028
28185SOL    HW289686   5.813   5.762   4.531 -0.2232  2.1804 -0.5067
28186SOL     OW89687   1.436  10.195   5.356  0.2751 -0.1083  0.1756
28186SOL    HW189688   1.386  10.117   5.380  0.4496 -0.8257 -1.6720
28186SOL    HW289689   1.386  10.268   5.394  0.9167 -1.1905  3.1920
28187SOL     OW89690   7.664  10.215   6.817  0.6854 -0.2775  0.4207
28187SOL    HW189691   7.738  10.228   6.876  0.9374 -0.0883  0.0648
28187SOL    HW289692   7.615  10.298   6.822 -0.0005 -0.7339  1.3499
28188SOL     OW89693   0.593   7.129   9.799 -0.4229  0.2097 -0.5111
28188SOL    HW189694   0.538   7.184   9.854 -0.4552  1.0007 -1.3279
28188SOL    HW289695   0.560   7.142   9.710 -0.6628 -1.4005 -0.6785
28189SOL     OW89696   8.882   8.460   8.479  0.2894  0.7122  0.1120
28189SOL    HW189697   8.870   8.549   8.513 -1.5564  0.1844  0.8930
28189SOL    HW289698   8.953   8.468   8.417  1.1520  2.4577  1.2821
28190SOL     OW89699   3.315   0.624   3.675 -0.2400 -0.3341 -0.3615
28190SOL    HW189700   3.235   0.591   3.634 -0.2841 -1.3671  0.5636
28190SOL    HW289701   3.285   0.685   3.742 -0.1955  0.5806 -1.1624
28191SOL     OW89702   8.048   4.395   7.026  0.1516  0.8043 -0.1185
28191SOL    HW189703   8.023   4.360   7.112  0.2921  2.6447  0.6890
28191SOL    HW289704   8.041   4.490   7.036 -0.1433  1.0203 -2.2564
28192SOL     OW89705   5.815   5.931   1.731 -0.5347  0.0549 -0.0878
28192SOL    HW189706   5.873   6.005   1.748 -1.8005  0.7381  1.4112
28192SOL    HW289707   5.813   5.923   1.635  0.4403  1.2830 -0.2177
28193SOL     OW89708   9.395   9.194   3.125 -0.1476  0.3395 -0.1665
28193SOL    HW189709   9.412   9.232   3.211 -0.1896  0.6187 -0.2786
28193SOL    HW289710   9.420   9.102   3.134 -1.1157  0.1288  0.4370
28194SOL     OW89711   9.597   8.203   4.214 -0.0970  0.7530 -0.1420
28194SOL    HW189712   9.663   8.218   4.282 -1.7301  1.8921  1.2386
28194SOL    HW289713   9.568   8.112   4.229  0.8909  0.3697 -0.5300
28195SOL     OW89714  10.613   0.353  11.117 -0.2239 -0.1616 -0.0443
28195SOL    HW189715  10.620   0.405  11.037 -0.9381  0.0431  0.0215
28195SOL    HW289716  10.631   0.415  11.188 -2.1885  0.2787  0.1023
28196SOL     OW89717   5.324   5.500   8.976 -0.2397 -0.0156  0.3165
28196SOL    HW189718   5.372   5.558   8.916 -1.8578  0.5810 -0.4309
28196SOL    HW289719   5.328   5.414   8.934 -1.6555  0.4630 -0.8703
28197SOL     OW89720  10.258   5.164   2.240  0.4382 -0.0940 -0.1111
28197SOL    HW189721  10.201   5.098   2.200 -0.9837  0.4986  0.8777
28197SOL    HW289722  10.203   5.205   2.307  2.2995 -0.0925  1.4617
28198SOL     OW89723   5.170   4.938   3.138  0.4592  0.0373 -0.6298
28198SOL    HW189724   5.084   4.977   3.153 -0.4767 -1.8067 -1.1140
28198SOL    HW289725   5.231   5.011   3.147 -0.8348  0.7453  3.0117
28199SOL     OW89726   6.133   7.680   4.037 -0.0611  0.0044  0.5744
28199SOL    HW189727   6.168   7.712   3.953 -0.3020 -0.7025  0.2048
28199SOL    HW289728   6.202   7.702   4.101 -0.2588  1.3479  0.3512
28200SOL     OW89729  10.451   5.383   7.004  0.7181  0.3646  0.1011
28200SOL    HW189730  10.395   5.318   7.048  0.2099 -0.3631 -1.5734
28200SOL    HW289731  10.489   5.335   6.930 -0.5986  2.2556 -1.8733
28201SOL     OW89732   5.773   3.950   6.423 -0.0259  0.2345  0.3257
28201SOL    HW189733   5.794   3.889   6.494  0.2118 -0.3334 -0.2275
28201SOL    HW289734   5.762   4.035   6.467  1.1096  0.0881  0.9224
28202SOL     OW89735   9.109   5.679   2.756 -0.2080  0.0586  0.0404
28202SOL    HW189736   9.021   5.699   2.788  0.5378  3.7810  0.0930
28202SOL    HW289737   9.143   5.614   2.817 -1.9402  0.6296  1.6588
28203SOL     OW89738   2.302   7.934   1.666 -0.7580  0.0102  0.0995
28203SOL    HW189739   2.365   7.871   1.631 -0.2360  1.3841 -1.4713
28203SOL    HW289740   2.352   8.015   1.676 -2.2984  1.1384 -1.2454
28204SOL     OW89741  11.190   3.059   7.927 -0.0786  0.0587 -0.2442
28204SOL    HW189742  11.095   3.052   7.916 -0.0326  2.0525 -2.2282
28204SOL    HW289743  11.203   3.056   8.021 -2.1249 -0.0666  0.0714
28205SOL     OW89744   2.803   8.781   4.548  0.9720 -0.4227 -0.3013
28205SOL    HW189745   2.781   8.705   4.494  2.0496 -1.3029  0.4737
28205SOL    HW289746   2.833   8.847   4.485  1.3188 -1.1139 -0.8689
28206SOL     OW89747   6.990   0.020  11.278 -0.8532 -0.0842 -0.0834
28206SOL    HW189748   6.929   0.085  11.312 -3.1493 -1.5652 -1.2603
28206SOL    HW289749   6.967   0.011  11.186 -0.2180 -2.1432 -0.0631
28207SOL     OW89750   1.861   6.055   1.594  0.3016  0.2306  0.4082
28207SOL    HW189751   1.807   6.117   1.546  0.5676  1.1093  1.2332
28207SOL    HW289752   1.894   6.105   1.669  0.8559 -0.7843  0.8462
28208SOL     OW89753  10.407   5.554   9.063 -0.0360 -0.0737  0.1064
28208SOL    HW189754  10.317   5.538   9.036  0.2609 -1.3726 -0.1391
28208SOL    HW289755  10.450   5.588   8.984 -0.5448  1.5897  0.5033
28209SOL     OW89756   1.001   4.020   6.103 -0.1048  0.3451 -0.5202
28209SOL    HW189757   1.053   4.054   6.176  0.1834 -0.3927 -0.3826
28209SOL    HW289758   0.983   4.097   6.049  0.9410  0.6392 -0.4544
28210SOL     OW89759   1.512   0.963   0.302  0.0002  0.3439  0.1708
28210SOL    HW189760   1.498   0.984   0.394  0.1035 -1.7321  0.6890
28210SOL    HW289761   1.425   0.953   0.265 -0.0435  1.3218 -0.0035
28211SOL     OW89762  10.241   1.658   9.460  0.2009  0.0670 -0.3445
28211SOL    HW189763  10.202   1.592   9.518 -0.5838  1.3421  0.6202
28211SOL    HW289764  10.334   1.635   9.458  0.0202 -0.7885  0.3675
28212SOL     OW89765   9.292   3.356   8.804  0.2155 -0.4200  0.0347
28212SOL    HW189766   9.228   3.330   8.737  0.0420 -0.5106  0.2338
28212SOL    HW289767   9.286   3.452   8.806 -0.9940 -0.5073  1.1014
28213SOL     OW89768   7.197   8.137   3.929 -0.1826  0.0877 -0.3368
28213SOL    HW189769   7.203   8.140   4.025  0.2436 -0.7439 -0.3283
28213SOL    HW289770   7.274   8.086   3.903 -0.5851 -0.1378 -1.0844
28214SOL     OW89771   3.609   4.874   5.069  0.3016  0.4333  0.0003
28214SOL    HW189772   3.540   4.912   5.124  1.4948  1.4360  0.8309
28214SOL    HW289773   3.596   4.780   5.076 -1.7116  0.6153 -0.8066
28215SOL     OW89774  11.110   2.396   4.900 -0.1977  0.1078 -0.2710
28215SOL    HW189775  11.056   2.324   4.869  0.6407 -0.3934 -0.6097
28215SOL    HW289776  11.192   2.387   4.850  0.2751  0.7026  0.3888
28216SOL     OW89777   2.595   7.791   9.548  0.0051 -0.1299 -0.3308
28216SOL    HW189778   2.686   7.778   9.575 -0.3088  1.4797  1.6564
28216SOL    HW289779   2.601   7.829   9.460  1.1873 -1.3019 -0.7806
28217SOL     OW89780   6.829   8.238   4.633  0.6133  0.4132  0.7313
28217SOL    HW189781   6.764   8.308   4.639  0.1452  0.1089 -0.5409
28217SOL    HW289782   6.839   8.223   4.539  3.2829  1.1512  0.8676
28218SOL     OW89783   6.129   1.065   9.767 -0.2301 -0.5802 -0.2409
28218SOL    HW189784   6.156   0.980   9.731  0.3631 -0.2304 -0.6168
28218SOL    HW289785   6.068   1.100   9.702 -0.8983 -0.9504  0.1687
28219SOL     OW89786  11.008   5.961   8.201  0.1151 -0.1054  0.1012
28219SOL    HW189787  10.955   5.941   8.278  0.2326  1.6164  0.6458
28219SOL    HW289788  11.096   5.976   8.235  0.2938  0.0808 -0.4357
28220SOL     OW89789   4.928   9.480   4.661  0.0411  0.3933  0.5558
28220SOL    HW189790   4.833   9.472   4.664  0.1965 -1.9299 -0.0789
28220SOL    HW289791   4.960   9.427   4.734  0.9004 -0.0191 -0.1040
28221SOL     OW89792   0.347   3.966   7.932 -0.2665  0.1587  0.2026
28221SOL    HW189793   0.317   3.933   7.848 -0.2847 -0.6939  0.5339
28221SOL    HW289794   0.386   4.051   7.912 -1.1719  0.4172 -0.5106
28222SOL     OW89795  10.278   5.672   4.684  0.0145 -0.1633  0.3640
28222SOL    HW189796  10.275   5.754   4.734 -0.7674  1.3811 -2.0976
28222SOL    HW289797  10.369   5.665   4.656  0.1004 -0.1710  0.6439
28223SOL     OW89798   2.223   4.149   4.517 -0.1919  0.3376  0.2508
28223SOL    HW189799   2.217   4.191   4.603 -1.5581 -0.5296  0.6003
28223SOL    HW289800   2.139   4.166   4.475  0.3987  0.5931 -0.8490
28224SOL     OW89801  10.763  10.725  11.103  0.1867 -0.6462  0.1647
28224SOL    HW189802  10.764  10.655  11.168  0.6212 -0.0054  0.8544
28224SOL    HW289803  10.706  10.692  11.033 -0.1773 -1.3954  0.8043
28225SOL     OW89804   5.072   8.267   8.428  0.1018 -0.0274 -0.4512
28225SOL    HW189805   5.128   8.280   8.352  1.9408  0.4615  0.9623
28225SOL    HW289806   5.124   8.213   8.488 -0.0007  2.2886  1.8379
28226SOL     OW89807   2.902   2.606   9.116 -0.1549  1.0044 -0.5521
28226SOL    HW189808   2.924   2.590   9.208  1.6759  0.4306 -1.0647
28226SOL    HW289809   2.837   2.676   9.119  0.2313  1.3193  1.1618
28227SOL     OW89810   7.389   4.241   3.043 -0.4875  0.2682  0.1242
28227SOL    HW189811   7.437   4.244   2.961  0.4164  0.6357  0.6658
28227SOL    HW289812   7.317   4.303   3.031 -2.3887 -2.1918 -1.6522
28228SOL     OW89813   5.553  10.037  10.277 -0.0480  0.2147  0.2827
28228SOL    HW189814   5.602   9.962  10.245  1.2240  0.5539  1.3766
28228SOL    HW289815   5.491   9.999  10.340 -0.8613 -0.1593 -0.7411
28229SOL     OW89816   0.244   1.083   4.556  0.1261  0.2229  0.2451
28229SOL    HW189817   0.243   1.171   4.592  2.8221  0.3314  0.1650
28229SOL    HW289818   0.240   1.025   4.633  0.0490  0.4413  0.4039
28230SOL     OW89819   9.276   7.962   1.608  0.3837  0.1949  0.4122
28230SOL    HW189820   9.329   8.036   1.579 -0.4115  1.2646  1.6220
28230SOL    HW289821   9.322   7.929   1.686  0.7781 -0.6328 -0.1665
28231SOL     OW89822  10.716   8.364   5.858 -0.3520 -0.2125  1.1995
28231SOL    HW189823  10.680   8.361   5.770 -0.3585  0.1792  1.1901
28231SOL    HW289824  10.712   8.273   5.889  1.1469 -0.6361  0.2033
28232SOL     OW89825   0.223   2.881   9.606 -0.4994  0.2324 -0.1023
28232SOL    HW189826   0.209   2.975   9.591 -1.4750  0.0239 -0.4900
28232SOL    HW289827   0.268   2.851   9.527  0.5523  0.5244  0.3673
28233SOL     OW89828   6.854   8.904   5.941 -0.3820 -0.5453 -0.1137
28233SOL    HW189829   6.941   8.900   5.982  0.1996  2.8724 -0.8316
28233SOL    HW289830   6.793   8.916   6.014  0.1984  1.0875  0.1259
28234SOL     OW89831   7.584   4.908   5.038  0.6539 -0.2147 -0.4485
28234SOL    HW189832   7.586   4.881   4.946  0.6141 -0.2306 -0.4453
28234SOL    HW289833   7.593   5.003   5.036 -2.0927  0.0805 -0.6237
28235SOL     OW89834  10.161  10.916   0.079 -0.0102 -0.4016  0.2071
28235SOL    HW189835  10.204  10.979   0.022 -0.3668 -0.1940  0.1655
28235SOL    HW289836  10.068  10.938   0.073 -0.0126 -0.1190  1.1766
28236SOL     OW89837   0.725   4.023   2.012  0.1216 -0.0465 -0.5765
28236SOL    HW189838   0.794   3.962   1.988  0.5470  0.9574 -2.0406
28236SOL    HW289839   0.658   4.011   1.944 -0.6745 -0.2745  0.2401
28237SOL     OW89840  11.321   0.301   2.461 -0.4078 -0.4526 -0.3187
28237SOL    HW189841  11.371   0.221   2.444 -1.7881 -1.9595  2.3129
28237SOL    HW289842  11.244   0.294   2.404  0.1171 -0.3714 -1.0349
28238SOL     OW89843   9.568   3.286   8.172 -0.2580  0.1624 -0.1430
28238SOL    HW189844   9.530   3.373   8.188  0.0316  0.2385  0.1445
28238SOL    HW289845   9.587   3.285   8.078 -2.0452 -0.3147 -0.5013
28239SOL     OW89846   5.523   5.238   5.707 -0.3303 -0.5468 -0.1076
28239SOL    HW189847   5.559   5.215   5.621  1.8944 -0.6813  0.8236
28239SOL    HW289848   5.571   5.317   5.732 -1.2771 -0.2631  0.8432
28240SOL     OW89849   4.217   9.723   8.570  0.3583  0.0731 -0.2673
28240SOL    HW189850   4.232   9.758   8.657  0.7294  0.6910 -0.5769
28240SOL    HW289851   4.174   9.638   8.585 -0.7956  0.7766  0.4721
28241SOL     OW89852   1.685  10.146  11.215 -0.3843 -0.0907  0.2331
28241SOL    HW189853   1.734  10.077  11.170  0.1118 -0.8654  1.9312
28241SOL    HW289854   1.637  10.101  11.284 -0.5087  1.1933  1.0067
28242SOL     OW89855   9.713   1.953   0.779 -0.1245  0.3220  0.2823
28242SOL    HW189856   9.701   1.858   0.790  0.7472 -0.0334 -1.5208
28242SOL    HW289857   9.631   1.983   0.741 -0.3451  0.2648  0.7101
28243SOL     OW89858   2.699   5.977   3.830  0.2224  0.4002 -0.2250
28243SOL    HW189859   2.793   5.993   3.819  0.3594  2.2581  2.8830
28243SOL    HW289860   2.663   6.062   3.853 -1.8412 -0.7499  0.9540
28244SOL     OW89861   3.682   0.446  10.756  0.2911 -0.1745  0.5441
28244SOL    HW189862   3.775   0.469  10.745  0.0967  0.6979  0.7129
28244SOL    HW289863   3.648   0.441  10.667  0.6706 -1.2546  0.4433
28245SOL     OW89864  10.997   9.630   0.861 -0.3854 -0.2423 -0.3810
28245SOL    HW189865  10.954   9.618   0.945 -0.9851  1.1872 -0.4688
28245SOL    HW289866  11.087   9.656   0.883 -0.5050  0.0027 -0.1895
28246SOL     OW89867   2.754   8.036   4.834  0.1218  0.7814 -0.6521
28246SOL    HW189868   2.705   8.082   4.767 -3.4199 -2.0589 -0.1667
28246SOL    HW289869   2.806   7.971   4.786  1.4328  2.0484 -0.9708
28247SOL     OW89870   3.065   4.367   9.208 -0.3416 -0.4327  0.3899
28247SOL    HW189871   3.010   4.293   9.234 -1.5206  1.1925  2.7847
28247SOL    HW289872   3.016   4.410   9.139 -0.5385 -0.8242  0.2835
28248SOL     OW89873   6.260   5.650   5.334  0.6134  0.0442  0.4084
28248SOL    HW189874   6.208   5.636   5.414  0.8106 -0.5778  0.4254
28248SOL    HW289875   6.313   5.571   5.326  1.4387  0.6104  0.2936
28249SOL     OW89876   9.308   5.226   6.554  0.2771 -0.5859  0.4221
28249SOL    HW189877   9.258   5.178   6.489 -1.1704 -0.0154  1.0746
28249SOL    HW289878   9.357   5.159   6.602 -1.1805 -1.3594  0.8737
28250SOL     OW89879  10.123  10.296   2.660 -0.0398 -0.1879  0.8665
28250SOL    HW189880  10.133  10.381   2.616 -2.4233 -0.5266 -0.4006
28250SOL    HW289881  10.208  10.254   2.651  0.1999  0.7227 -1.3690
28251SOL     OW89882  11.121   8.890   3.938  0.2369 -0.3247  0.1431
28251SOL    HW189883  11.130   8.806   3.892 -2.6481 -0.9763  0.6662
28251SOL    HW289884  11.186   8.887   4.007  1.5436 -1.2598 -1.1038
28252SOL     OW89885  10.163   6.245   3.452 -0.0721  0.1664 -0.0164
28252SOL    HW189886  10.070   6.241   3.430 -0.7626 -0.0258  2.7500
28252SOL    HW289887  10.165   6.254   3.547  2.7441  0.6157 -0.0666
28253SOL     OW89888   6.995   1.084   0.107 -0.5251  0.1027  0.0221
28253SOL    HW189889   7.071   1.046   0.062  1.1920  1.7009  1.4901
28253SOL    HW289890   6.985   1.031   0.186  0.0870  0.8529  0.6214
28254SOL     OW89891   9.232   5.321   0.457  0.2561 -0.3122  0.5890
28254SOL    HW189892   9.147   5.342   0.418  0.7997  0.0476 -0.4060
28254SOL    HW289893   9.226   5.353   0.547 -0.6972 -0.3743  0.5493
28255SOL     OW89894  10.963   1.410   6.732 -0.6061  0.5963 -0.3734
28255SOL    HW189895  10.948   1.408   6.827  1.4930 -0.8112 -0.0387
28255SOL    HW289896  10.946   1.501   6.707 -2.2725  0.7481  1.1412
28256SOL     OW89897   7.807   0.180   0.780  0.0717  0.1807  0.0290
28256SOL    HW189898   7.875   0.247   0.785 -1.0738  1.4381 -1.0699
28256SOL    HW289899   7.790   0.170   0.687  1.1405 -2.6027  0.0960
28257SOL     OW89900   9.545   5.808  10.576 -0.0605 -0.4109  0.3463
28257SOL    HW189901   9.574   5.899  10.569  0.5789 -0.4264  2.6885
28257SOL    HW289902   9.626   5.757  10.582 -0.4714 -0.9223  1.5484
28258SOL     OW89903   4.142  10.382   4.529 -1.1865 -0.5480  0.1499
28258SOL    HW189904   4.098  10.364   4.612 -0.8870 -2.0070  0.0064
28258SOL    HW289905   4.076  10.361   4.463 -1.7494  1.5126  0.0113
28259SOL     OW89906  10.297   4.286   7.038  0.8978 -0.1301 -0.4006
28259SOL    HW189907  10.343   4.324   6.963  1.1775  1.2663  0.4541
28259SOL    HW289908  10.320   4.193   7.036  2.1375  0.1848 -1.1609
28260SOL     OW89909   8.742   0.800   6.829  0.3622 -0.0938 -0.1146
28260SOL    HW189910   8.661   0.763   6.865  0.2563  0.9397  0.7617
28260SOL    HW289911   8.812   0.754   6.874  0.2310  1.1627  1.4176
28261SOL     OW89912   6.168   6.567   5.228 -1.1420 -0.6300  0.3609
28261SOL    HW189913   6.112   6.614   5.166 -1.4446  0.4649  1.4549
28261SOL    HW289914   6.200   6.492   5.178  0.4333  1.4410 -1.8433
28262SOL     OW89915   8.438   4.177   6.051 -0.6014  0.7160 -0.3168
28262SOL    HW189916   8.420   4.269   6.029  1.0213  1.7152  2.2504
28262SOL    HW289917   8.497   4.182   6.127  0.5593 -2.4558 -0.9404
28263SOL     OW89918  10.865   0.398   1.298  0.1688 -0.3865  0.2661
28263SOL    HW189919  10.838   0.325   1.354  0.2259 -0.8279 -0.2746
28263SOL    HW289920  10.950   0.424   1.332  0.7110 -1.3792 -0.2983
28264SOL     OW89921  10.558   2.318   5.438 -0.6615  0.1678  0.5168
28264SOL    HW189922  10.632   2.315   5.499  0.1329  1.8539 -0.3192
28264SOL    HW289923  10.516   2.233   5.446  0.1908 -0.0824  2.4813
28265SOL     OW89924  10.783   6.078   4.812  0.0607 -0.3445  0.8058
28265SOL    HW189925  10.846   6.078   4.884  1.0988  1.2158 -0.0972
28265SOL    HW289926  10.706   6.121   4.848 -0.1891 -1.4283  1.6164
28266SOL     OW89927   0.527   1.339   6.240  0.1954  0.0803  0.4435
28266SOL    HW189928   0.586   1.376   6.305  0.1605  0.5580  0.2091
28266SOL    HW289929   0.525   1.404   6.169 -0.5443  0.0370  0.4120
28267SOL     OW89930  11.038   3.582   2.330  0.5826  0.2714 -0.0667
28267SOL    HW189931  11.008   3.515   2.391  0.1557  0.3802 -0.1548
28267SOL    HW289932  11.133   3.575   2.331  0.5283 -0.6506 -0.4242
28268SOL     OW89933   0.187   5.927   6.129  0.1488  0.1457 -0.2310
28268SOL    HW189934   0.109   5.872   6.133  0.5935 -0.5152 -0.3489
28268SOL    HW289935   0.236   5.893   6.053  0.2272  0.9900 -0.5681
28269SOL     OW89936   5.262   0.768   2.193  0.4250  0.0852 -0.3846
28269SOL    HW189937   5.351   0.801   2.204  0.4646 -0.3819  0.8563
28269SOL    HW289938   5.229   0.758   2.283 -0.3369 -1.1700 -0.7862
28270SOL     OW89939   0.478   2.460   6.628  0.0490 -0.7494  0.3612
28270SOL    HW189940   0.469   2.550   6.599 -0.4392 -0.3387  1.7531
28270SOL    HW289941   0.390   2.422   6.619  0.3255 -1.2026 -0.5523
28271SOL     OW89942   1.813   9.767   2.184 -0.1937 -0.0308 -0.1500
28271SOL    HW189943   1.765   9.849   2.176  0.2139  0.2173 -0.0725
28271SOL    HW289944   1.832   9.742   2.094  0.9448  0.7141 -0.1223
28272SOL     OW89945   5.393   1.774   5.682 -0.1138  0.4803 -0.4121
28272SOL    HW189946   5.427   1.736   5.763  2.3305  3.2386 -0.0592
28272SOL    HW289947   5.315   1.822   5.709  2.0467  3.4425  0.8437
28273SOL     OW89948   7.058   2.116   8.035  0.6470 -0.5557  0.0729
28273SOL    HW189949   7.031   2.028   8.008 -3.6832  0.7274 -0.0441
28273SOL    HW289950   7.028   2.173   7.964 -0.0815  1.4549  1.9682
28274SOL     OW89951   8.029   8.201   6.392 -0.2060  0.4471 -0.3753
28274SOL    HW189952   7.945   8.219   6.434  0.3020 -1.1360  1.3963
28274SOL    HW289953   8.021   8.112   6.359  0.6069  0.4625 -0.6390
28275SOL     OW89954   0.319   3.436   2.373  0.0759 -0.3121 -0.5790
28275SOL    HW189955   0.337   3.431   2.467 -1.0208  0.1250 -0.3366
28275SOL    HW289956   0.275   3.521   2.362 -0.4638 -0.6874 -1.3699
28276SOL     OW89957   8.757   5.387   4.952 -0.1297 -0.3637  0.0479
28276SOL    HW189958   8.712   5.369   4.869  0.5865 -2.2749  0.0329
28276SOL    HW289959   8.688   5.381   5.018 -0.3770 -0.6906 -0.2364
28277SOL     OW89960   8.735  10.521   7.896 -0.2234  0.2715 -0.1355
28277SOL    HW189961   8.721  10.600   7.844  0.2127 -1.3844 -2.9180
28277SOL    HW289962   8.800  10.546   7.961 -0.9176  2.4866 -0.2483
28278SOL     OW89963   9.091   9.047   3.753  0.2980 -0.7756  0.0036
28278SOL    HW189964   9.156   9.109   3.720  0.8475 -0.7668  1.0762
28278SOL    HW289965   9.113   8.964   3.711 -0.5572 -0.2244 -1.5911
28279SOL     OW89966   8.279   2.443   8.856  0.4632 -0.3782 -0.0017
28279SOL    HW189967   8.244   2.397   8.780  2.8037 -1.1239 -0.6774
28279SOL    HW289968   8.203   2.484   8.897 -0.8601 -0.0167 -2.7109
28280SOL     OW89969   7.539   5.863  10.259 -0.0578  0.3903  0.0841
28280SOL    HW189970   7.596   5.897  10.190 -1.0952  1.3382 -0.3237
28280SOL    HW289971   7.594   5.863  10.337  0.1559  2.5802 -0.0115
28281SOL     OW89972   4.189   7.677   3.538 -0.3360 -0.1530 -0.1998
28281SOL    HW189973   4.109   7.634   3.508  0.5073 -0.7295 -1.6623
28281SOL    HW289974   4.204   7.641   3.626 -1.2499 -0.6271 -0.2376
28282SOL     OW89975   2.023   0.919   8.784  0.4564 -0.0771 -0.2872
28282SOL    HW189976   2.102   0.909   8.836  1.0281  2.2068 -0.6777
28282SOL    HW289977   2.052   0.960   8.703 -1.1848  1.1912 -0.2684
28283SOL     OW89978   2.592   6.194   5.933  0.0908 -0.0620  0.1991
28283SOL    HW189979   2.632   6.232   5.855  1.3882  1.1160  1.4076
28283SOL    HW289980   2.666   6.163   5.986 -0.7662 -0.8188  0.9919
28284SOL     OW89981   6.182   3.437   8.769 -0.0973  0.0703 -0.2036
28284SOL    HW189982   6.277   3.448   8.777 -0.3324  0.6315  2.4606
28284SOL    HW289983   6.165   3.352   8.810 -0.9992  1.1392  1.6971
28285SOL     OW89984   0.935   5.581   7.464  0.3464  0.7098  0.6816
28285SOL    HW189985   0.869   5.588   7.395  2.0333 -1.2830 -1.2428
28285SOL    HW289986   0.886   5.566   7.544 -1.5406 -0.2866 -0.6376
28286SOL     OW89987   6.797   6.130   3.338 -0.1087 -0.1946  0.2179
28286SOL    HW189988   6.839   6.198   3.391 -1.0936 -0.3273  1.2053
28286SOL    HW289989   6.799   6.164   3.249 -0.1172  0.8937  0.6228
28287SOL     OW89990   7.183   4.753   0.671 -0.2162  0.0202  0.3613
28287SOL    HW189991   7.244   4.807   0.723  0.0177 -1.5092  1.6964
28287SOL    HW289992   7.132   4.705   0.735 -2.4474  0.8159 -0.7725
28288SOL     OW89993   8.840  11.089   9.549  0.2889 -0.1276 -0.0621
28288SOL    HW189994   8.767  11.027   9.551 -0.5632  0.8968  1.1926
28288SOL    HW289995   8.899  11.054   9.482 -0.3617 -2.0880  0.3462
28289SOL     OW89996   0.386   7.993   9.297  0.8069 -0.7192 -0.1995
28289SOL    HW189997   0.325   7.925   9.323 -0.8479  1.2076  1.1518
28289SOL    HW289998   0.408   7.973   9.206 -2.9583 -0.7132 -1.1774
28290SOL     OW89999   1.155   9.441   9.242  0.6078  0.2214 -0.9653
28290SOL    HW190000   1.112   9.367   9.199 -0.4768  1.1124 -1.4491
28290SOL    HW290001   1.097   9.462   9.316  0.5867  0.9531 -1.1813
28291SOL     OW90002   6.991  11.019   5.132 -0.2030  0.4166 -0.6004
28291SOL    HW190003   6.918  11.016   5.194  0.3120  0.7269  0.0345
28291SOL    HW290004   7.061  10.971   5.176  0.2181  0.7681 -0.8818
28292SOL     OW90005   2.435   2.710   0.792  0.2870  0.3054  0.2443
28292SOL    HW190006   2.470   2.737   0.708  1.3562 -0.3733  0.4701
28292SOL    HW290007   2.360   2.769   0.807 -1.4218 -1.1577 -2.2743
28293SOL     OW90008   4.133   1.102   3.354  0.3079 -0.6459  0.1298
28293SOL    HW190009   4.127   1.169   3.287  4.6993  1.1309  1.3441
28293SOL    HW290010   4.135   1.150   3.437 -0.5158 -2.5280  1.2914
28294SOL     OW90011   3.774   5.094   5.775 -0.4558  0.1893 -0.0592
28294SOL    HW190012   3.681   5.074   5.787 -0.1471 -0.5482  1.1324
28294SOL    HW290013   3.776   5.147   5.695 -1.8911  0.1622 -0.1369
28295SOL     OW90014   1.072   2.171   7.324  0.2676 -0.4235 -0.0919
28295SOL    HW190015   1.108   2.083   7.334  0.5975 -0.6490 -2.7244
28295SOL    HW290016   0.997   2.173   7.383  0.0868 -2.5872 -0.2027
28296SOL     OW90017   3.337   5.609  10.560  0.1907 -0.5691 -0.2008
28296SOL    HW190018   3.312   5.516  10.554  0.9706 -0.7464 -0.7681
28296SOL    HW290019   3.371   5.630  10.473  1.5920 -0.2198  0.4130
28297SOL     OW90020   4.010   9.313   9.815 -0.0717  0.0133 -0.2476
28297SOL    HW190021   3.916   9.313   9.798 -0.0834 -1.1485 -0.1808
28297SOL    HW290022   4.023   9.243   9.880  0.8410  0.1443 -0.2793
28298SOL     OW90023  10.434   7.454   3.463 -0.4419  0.1400  0.1097
28298SOL    HW190024  10.511   7.511   3.468  0.7111 -1.3681 -0.2709
28298SOL    HW290025  10.371   7.496   3.521  2.0537 -0.6707  3.6191
28299SOL     OW90026   3.198   5.259   3.084 -0.6567  0.5294  0.2775
28299SOL    HW190027   3.228   5.343   3.050 -0.7477  0.0633 -0.9718
28299SOL    HW290028   3.142   5.224   3.015 -1.0087 -0.3391  0.9969
28300SOL     OW90029   1.924   3.542   1.346 -0.6643  0.3950 -0.8548
28300SOL    HW190030   1.936   3.456   1.307 -1.1980 -0.2025  0.2752
28300SOL    HW290031   1.960   3.603   1.281  0.3109 -0.7174 -1.3873
28301SOL     OW90032   2.769   4.320   5.784 -0.2024 -0.1750 -0.0802
28301SOL    HW190033   2.775   4.345   5.877 -2.3055  0.7523 -0.1754
28301SOL    HW290034   2.695   4.370   5.750 -1.7688 -3.2421 -1.3746
28302SOL     OW90035   2.213   3.941   8.651  0.1019  0.1533  0.2071
28302SOL    HW190036   2.306   3.949   8.670 -0.1563 -0.4838  1.8633
28302SOL    HW290037   2.185   3.865   8.702 -0.7902 -1.2873 -2.3330
28303SOL     OW90038   5.194   9.548   1.146 -0.0891  0.2655  0.0728
28303SOL    HW190039   5.102   9.523   1.138  0.3399 -1.0413 -0.8602
28303SOL    HW290040   5.213   9.594   1.064 -0.1665  1.3855  0.6764
28304SOL     OW90041   8.455   5.447  10.073 -0.0718  0.7859  0.0756
28304SOL    HW190042   8.488   5.373  10.124  0.2132 -0.2933 -1.6143
28304SOL    HW290043   8.482   5.524  10.122 -1.2446 -0.2386  2.3924
28305SOL     OW90044   9.952   7.645   7.434  0.2497  0.5490  0.2415
28305SOL    HW190045   9.874   7.595   7.458  0.6429 -0.6982 -1.0309
28305SOL    HW290046   9.926   7.737   7.444 -1.4751  0.1457 -0.4397
28306SOL     OW90047  10.684  10.070   3.969 -0.2827  0.3656  0.2554
28306SOL    HW190048  10.664   9.994   4.024 -1.6655  0.6123  0.1125
28306SOL    HW290049  10.757  10.042   3.915 -2.1262 -1.6270 -1.2906
28307SOL     OW90050   6.749   1.136   0.020 -0.2827  0.1164 -0.1902
28307SOL    HW190051   6.689   1.129   0.094 -2.0509 -1.7249 -1.7295
28307SOL    HW290052   6.835   1.116   0.057 -0.6303  2.4074  1.9803
28308SOL     OW90053   6.078   4.855   5.750  0.7260  0.2398 -0.5646
28308SOL    HW190054   5.985   4.877   5.742  0.5950  0.1126  0.6167
28308SOL    HW290055   6.115   4.878   5.664 -0.3839  0.3083 -1.0329
28309SOL     OW90056   6.874   1.928   1.611 -0.8320  0.1869  0.0092
28309SOL    HW190057   6.919   1.903   1.692 -1.0598 -0.1313  0.0384
28309SOL    HW290058   6.945   1.944   1.548 -0.5714  2.1946  0.7645
28310SOL     OW90059   1.037   7.619   8.723  0.7204 -0.0085 -0.1587
28310SOL    HW190060   1.085   7.687   8.770  1.9041 -0.3985 -0.7894
28310SOL    HW290061   1.008   7.558   8.790  2.5877 -0.6784  0.0503
28311SOL     OW90062   3.497   4.905   1.589 -0.3695 -0.1791  0.8491
28311SOL    HW190063   3.515   4.985   1.639 -0.7299  0.2815  0.2421
28311SOL    HW290064   3.560   4.841   1.623  1.3441  0.9628 -0.1319
28312SOL     OW90065   5.156   2.851   9.915 -0.2540 -0.0065 -0.0730
28312SOL    HW190066   5.179   2.941   9.891  0.8571 -0.3506 -0.3507
28312SOL    HW290067   5.175   2.799   9.837 -1.0908 -0.4623  0.0143
28313SOL     OW90068   1.339   2.687   9.966  0.3440 -0.6243 -0.4205
28313SOL    HW190069   1.293   2.742   9.902 -0.6848  0.3215  1.0878
28313SOL    HW290070   1.284   2.691  10.044  0.6432 -3.2478 -0.0550
28314SOL     OW90071   0.471   0.608   0.067  0.0889 -0.1927  0.2094
28314SOL    HW190072   0.464   0.629  -0.026  0.2620 -0.3716  0.1570
28314SOL    HW290073   0.392   0.646   0.106  0.9099  1.5108  0.2815
28315SOL     OW90074   7.614   5.516   1.852  0.3865  0.2112 -0.2366
28315SOL    HW190075   7.589   5.516   1.945 -0.4321 -0.8302 -0.4547
28315SOL    HW290076   7.709   5.509   1.853  0.1511 -3.8207  0.4865
28316SOL     OW90077  10.661   7.948   7.631 -0.5396 -0.1669  0.0734
28316SOL    HW190078  10.624   7.949   7.719  0.4942  0.0248  0.5113
28316SOL    HW290079  10.668   7.855   7.610  0.1584 -0.2317  0.5942
28317SOL     OW90080   5.305   7.718  11.015  0.0352  0.3357  0.5987
28317SOL    HW190081   5.211   7.715  11.036 -0.1159 -1.7696 -0.1885
28317SOL    HW290082   5.342   7.643  11.062  1.2589  0.8901  0.5391
28318SOL     OW90083   4.024   6.826   6.071  0.7650 -0.1934  0.1047
28318SOL    HW190084   4.003   6.738   6.103 -1.1811  0.9210  1.9391
28318SOL    HW290085   3.959   6.883   6.111  2.3363  2.1884 -0.6363
28319SOL     OW90086  10.309   7.174   6.013 -0.2188 -0.2138  0.3337
28319SOL    HW190087  10.321   7.136   6.100 -2.5396 -1.6300  0.0892
28319SOL    HW290088  10.285   7.265   6.030 -2.1454 -0.8644  1.2811
28320SOL     OW90089   5.605   2.996   5.285 -0.5456 -0.1718  0.1955
28320SOL    HW190090   5.614   2.948   5.368  2.8471 -0.4657 -0.2473
28320SOL    HW290091   5.653   2.942   5.221 -2.3603  0.4870 -1.7926
28321SOL     OW90092   1.408   0.042   8.711 -0.1390  0.0489 -0.6057
28321SOL    HW190093   1.410   0.137   8.719  0.6027  0.2292 -2.4815
28321SOL    HW290094   1.316   0.019   8.718 -0.3580  0.9445 -0.4926
28322SOL     OW90095   6.052   6.154   0.328 -0.0834  0.6403  0.2806
28322SOL    HW190096   6.003   6.079   0.362  0.3509  0.3430  0.2710
28322SOL    HW290097   6.136   6.150   0.375  0.9464 -0.4022 -1.5883
28323SOL     OW90098   2.507   3.942   1.459  0.0185  0.4254 -0.3725
28323SOL    HW190099   2.522   3.970   1.369 -0.7100  0.7999 -0.3804
28323SOL    HW290100   2.594   3.934   1.496  0.2956  1.1262 -0.8538
28324SOL     OW90101   7.290   2.822   9.824  0.4726 -0.4214  0.4704
28324SOL    HW190102   7.272   2.759   9.894  0.0673  0.5297  1.2245
28324SOL    HW290103   7.301   2.768   9.745 -1.3820 -1.3178  0.8117
28325SOL     OW90104   0.088   0.747   6.449 -0.3003 -0.1821 -0.5717
28325SOL    HW190105   0.016   0.807   6.431 -1.5139 -1.8949 -1.6592
28325SOL    HW290106   0.106   0.757   6.543 -2.1192  0.0733 -0.2454
28326SOL     OW90107   0.825   3.357  10.356 -0.1042  0.3608  0.6762
28326SOL    HW190108   0.751   3.377  10.412 -0.2009  1.6454  0.0870
28326SOL    HW290109   0.892   3.324  10.417 -0.1067  1.9944  1.5952
28327SOL     OW90110   2.940   7.109   2.460 -0.1800 -0.7450  0.3610
28327SOL    HW190111   2.985   7.028   2.437  0.5096  0.6104 -3.4171
28327SOL    HW290112   2.899   7.138   2.378 -0.8228  2.4648  1.7435
28328SOL     OW90113   8.836   0.914   4.791  0.2386  0.6498  0.2367
28328SOL    HW190114   8.802   0.832   4.755 -0.1603  1.0535 -0.3214
28328SOL    HW290115   8.921   0.891   4.828  0.5619  0.1704 -0.7672
28329SOL     OW90116   2.259   2.365   8.858  0.1260 -0.2399  0.2245
28329SOL    HW190117   2.184   2.423   8.868 -0.7525 -1.0370 -1.4795
28329SOL    HW290118   2.329   2.408   8.906 -0.8864  1.5287  0.1651
28330SOL     OW90119   0.396   1.705   0.678  0.0207 -0.5009 -0.0063
28330SOL    HW190120   0.311   1.717   0.636 -0.6030 -0.8071  1.1488
28330SOL    HW290121   0.395   1.765   0.752  1.1556  0.1196 -0.4862
28331SOL     OW90122   2.094   0.750   7.507  0.1855  0.5006 -0.1935
28331SOL    HW190123   2.146   0.706   7.574  0.1969  1.3577  0.3757
28331SOL    HW290124   2.035   0.808   7.557  0.1806  1.1317 -0.9221
28332SOL     OW90125   4.241   4.719   0.041 -0.0776  0.2428  0.2358
28332SOL    HW190126   4.205   4.749  -0.042 -0.8067  0.3067  0.5736
28332SOL    HW290127   4.329   4.686   0.019  0.1680  1.2806 -0.3778
28333SOL     OW90128   5.492  10.347   2.708  0.1840  0.0776  0.4940
28333SOL    HW190129   5.514  10.294   2.632 -0.7075  1.5496 -0.8208
28333SOL    HW290130   5.536  10.431   2.693 -1.9841  1.2349  0.3642
28334SOL     OW90131  10.431   0.548   3.100  0.9899  0.1536  0.3367
28334SOL    HW190132  10.412   0.616   3.035 -1.0072 -2.0183 -1.4844
28334SOL    HW290133  10.494   0.491   3.057 -1.6056 -2.2405 -0.4540
28335SOL     OW90134   3.997   1.298   0.747 -0.0396 -0.6613  0.0629
28335SOL    HW190135   3.955   1.347   0.817 -0.7358  0.7986 -1.3550
28335SOL    HW290136   4.081   1.271   0.784  0.6548  2.1684  0.6517
28336SOL     OW90137   7.071   5.902  11.159  0.1167  0.0891 -0.4667
28336SOL    HW190138   7.018   5.835  11.116  0.5128 -0.4348 -0.1482
28336SOL    HW290139   7.161   5.881  11.134  0.5337 -1.2376  1.9476
28337SOL     OW90140   5.387   5.861   8.362 -0.0888  0.0571  0.4705
28337SOL    HW190141   5.460   5.921   8.343  0.4651 -0.5860  0.5513
28337SOL    HW290142   5.314   5.895   8.309 -0.3970  2.0242  2.1272
28338SOL     OW90143   2.031   0.240   9.884  0.0668 -0.0467 -0.3419
28338SOL    HW190144   2.070   0.301   9.822  1.5439  0.0397  0.6214
28338SOL    HW290145   2.104   0.217   9.942 -1.0587 -0.8479  0.7646
28339SOL     OW90146   3.586   6.433   4.789 -0.0033  0.1430  0.1514
28339SOL    HW190147   3.598   6.474   4.703 -1.6405  0.3977  0.0317
28339SOL    HW290148   3.567   6.506   4.848 -0.7278 -0.2201  0.3666
28340SOL     OW90149   0.723   1.002   7.811  0.4342 -0.4583  0.2514
28340SOL    HW190150   0.776   1.079   7.792  0.7877 -1.2221 -1.9821
28340SOL    HW290151   0.681   0.980   7.728  0.6369 -2.8903  0.7403
28341SOL     OW90152  10.041   3.414   5.309 -0.1526  0.1715 -0.0527
28341SOL    HW190153  10.124   3.457   5.288 -0.6830  0.5538 -1.4289
28341SOL    HW290154  10.042   3.335   5.255 -0.1511 -0.4410  0.8418
28342SOL     OW90155  10.390   9.406   1.267 -1.1688  0.2456  0.7965
28342SOL    HW190156  10.334   9.343   1.312 -2.5292  0.4040 -0.6222
28342SOL    HW290157  10.464   9.354   1.236 -1.5856 -0.3991  0.8716
28343SOL     OW90158   5.208  10.868   0.289  0.5634 -0.2847  0.2864
28343SOL    HW190159   5.179  10.780   0.265 -1.3177  0.1842  0.7768
28343SOL    HW290160   5.191  10.875   0.382  1.5380  0.3115  0.4335
28344SOL     OW90161   5.262   5.266   8.851  0.0166 -0.1023 -0.0839
28344SOL    HW190162   5.260   5.183   8.899  0.8774 -0.2993 -0.3703
28344SOL    HW290163   5.171   5.281   8.825 -0.0642 -1.2540 -0.5199
28345SOL     OW90164   2.709   0.963   2.263  0.0981  0.1926  0.2357
28345SOL    HW190165   2.723   0.878   2.222 -0.6034  0.4768 -0.6076
28345SOL    HW290166   2.622   0.955   2.304 -0.3127  0.7598 -0.5160
28346SOL     OW90167   0.025   9.692   3.389  0.0398  0.7209  0.3078
28346SOL    HW190168  -0.017   9.609   3.367  0.2670  0.2051  1.7707
28346SOL    HW290169  -0.047   9.755   3.391  0.3538  1.5479 -5.1256
28347SOL     OW90170   6.680   7.518   8.990 -0.5536  0.1529  0.6291
28347SOL    HW190171   6.704   7.509   8.898 -1.7833  2.8190 -0.0239
28347SOL    HW290172   6.761   7.543   9.034 -0.4673  1.4540 -0.2179
28348SOL     OW90173   1.081   9.594   4.102  0.5473  0.5500  0.0918
28348SOL    HW190174   1.152   9.641   4.145  0.1038 -0.7074  2.3010
28348SOL    HW290175   1.019   9.576   4.173 -1.0031 -0.1462 -1.4147
28349SOL     OW90176   2.479   2.986  10.359 -0.1391  0.1219 -0.2523
28349SOL    HW190177   2.478   2.890  10.357  1.3230  0.0728  0.5209
28349SOL    HW290178   2.518   3.007  10.444  1.6342  1.3868 -1.3637
28350SOL     OW90179   6.237   1.488   9.073 -0.0120  0.1903  0.2101
28350SOL    HW190180   6.326   1.496   9.109  0.5210  0.0450 -1.0476
28350SOL    HW290181   6.195   1.420   9.126  0.1942  1.1788  1.6522
28351SOL     OW90182   8.989  10.235   0.390  0.1033  0.0386  0.0685
28351SOL    HW190183   8.991  10.214   0.297  0.1329 -0.1466  0.1118
28351SOL    HW290184   8.908  10.284   0.401 -1.2136 -2.2064  0.4383
28352SOL     OW90185   2.378   7.782   6.089 -0.1209  0.3259 -0.2233
28352SOL    HW190186   2.363   7.758   6.181  0.7864 -1.3501 -0.4877
28352SOL    HW290187   2.473   7.794   6.083 -0.0745 -0.4434 -1.1367
28353SOL     OW90188   7.113   7.626  10.751 -0.0820 -0.0424 -0.2551
28353SOL    HW190189   7.034   7.596  10.797  0.5668  1.8571  2.2387
28353SOL    HW290190   7.182   7.567  10.781 -0.3109 -0.9908 -1.5559
28354SOL     OW90191  10.942   9.075   6.874 -0.2205 -0.4321 -0.3108
28354SOL    HW190192  10.868   9.126   6.840  1.4088  1.5417 -0.9962
28354SOL    HW290193  10.956   9.108   6.963  0.6217  0.1267 -0.6369
28355SOL     OW90194   7.060   2.886   1.445  0.0335  0.5819  0.3223
28355SOL    HW190195   7.079   2.825   1.517 -0.3920  0.3347  0.2300
28355SOL    HW290196   7.128   2.867   1.380 -0.7673 -0.6030 -0.1911
28356SOL     OW90197  11.018   6.655   7.982 -0.0850  0.1862  0.3682
28356SOL    HW190198  10.922   6.650   7.976 -0.2166  2.0303  0.8152
28356SOL    HW290199  11.038   6.620   8.070 -0.3064 -0.5098  0.1482
28357SOL     OW90200   7.997   4.509   3.730 -0.1547 -0.0383 -0.4260
28357SOL    HW190201   8.065   4.571   3.707  0.0656  0.2605  0.9868
28357SOL    HW290202   7.977   4.463   3.648  1.1244  0.4676 -1.0298
28358SOL     OW90203   6.881   6.347   1.433  0.0271 -0.0355  0.4435
28358SOL    HW190204   6.840   6.405   1.498  0.9219  0.5530  0.4831
28358SOL    HW290205   6.841   6.372   1.350  0.4417  0.6600  0.4563
28359SOL     OW90206   1.455   6.967  11.303  0.0648 -0.0658 -0.0802
28359SOL    HW190207   1.511   7.010  11.238  0.9361 -1.0170  0.0252
28359SOL    HW290208   1.376   7.020  11.305 -0.1893 -0.2902 -2.3072
28360SOL     OW90209   4.808  10.015   0.075 -0.7176 -0.3353  0.3480
28360SOL    HW190210   4.713  10.013   0.088 -0.6166 -1.0717  1.0598
28360SOL    HW290211   4.843   9.963   0.148  0.2691  0.4329  0.4367
28361SOL     OW90212   4.118   7.596  10.501  0.5982  0.5237 -0.5400
28361SOL    HW190213   4.097   7.562  10.588  0.1621  0.9680 -0.4657
28361SOL    HW290214   4.104   7.523  10.442  0.3529  0.3743 -0.2981
28362SOL     OW90215   0.055   1.186   3.494 -0.2085 -0.4050  0.5213
28362SOL    HW190216   0.049   1.147   3.407 -0.8592 -0.9552  0.8029
28362SOL    HW290217  -0.035   1.212   3.514 -0.2442 -1.2038  1.4443
28363SOL     OW90218   0.200   9.245   7.077 -0.3105  0.2741 -0.0204
28363SOL    HW190219   0.215   9.232   7.170 -1.2079  0.0589  0.1021
28363SOL    HW290220   0.148   9.169   7.050  1.3982 -0.5710 -1.0745
28364SOL     OW90221  10.451  10.135   5.301 -0.1986  0.1250 -0.2584
28364SOL    HW190222  10.486  10.050   5.276  0.5321 -0.1953  1.7401
28364SOL    HW290223  10.373  10.146   5.246  0.2559 -1.3746 -1.2435
28365SOL     OW90224   8.283   5.788   6.101 -0.2001  0.3400 -0.1427
28365SOL    HW190225   8.343   5.763   6.171  0.1556 -0.2400 -0.6499
28365SOL    HW290226   8.231   5.859   6.138 -0.7109 -0.6546  1.0604
28366SOL     OW90227  10.153   6.351   8.898 -0.2055 -0.4238  0.0346
28366SOL    HW190228  10.090   6.400   8.951  0.2803 -0.6558  0.8299
28366SOL    HW290229  10.238   6.388   8.920 -0.1395  0.6110 -1.8369
28367SOL     OW90230   1.502   4.732   0.272 -0.4332  0.5576 -0.1467
28367SOL    HW190231   1.562   4.749   0.344 -0.5826  0.2213  0.0571
28367SOL    HW290232   1.548   4.763   0.194 -1.3803  3.4858  0.4007
28368SOL     OW90233   5.112   2.849   3.101  0.2197 -0.2178 -0.2631
28368SOL    HW190234   5.085   2.820   3.014  1.4478 -1.6311 -0.1913
28368SOL    HW290235   5.067   2.932   3.114 -1.8296 -1.1323 -1.2997
28369SOL     OW90236   8.038   3.132  10.489  0.3875  0.4808  0.0847
28369SOL    HW190237   7.999   3.200  10.544 -0.4666 -0.1389  0.2455
28369SOL    HW290238   8.132   3.139  10.506  0.0457 -0.4375  2.4657
28370SOL     OW90239   1.074   6.695   9.821 -0.2038  0.2306 -0.5628
28370SOL    HW190240   1.059   6.605   9.793  0.0383 -0.1397  0.4732
28370SOL    HW290241   1.144   6.727   9.765  1.2079 -0.9434  0.4857
28371SOL     OW90242   8.455   6.145   0.840  0.2041  0.1047 -0.4881
28371SOL    HW190243   8.523   6.163   0.776  0.0619  0.6959 -0.4816
28371SOL    HW290244   8.500   6.105   0.914  0.0999 -2.3096 -1.7020
28372SOL     OW90245   6.228   0.303   1.131 -0.2143  0.1865  0.5207
28372SOL    HW190246   6.289   0.376   1.136  0.6679 -0.6090  1.6955
28372SOL    HW290247   6.155   0.329   1.188 -0.1029  0.3346  0.5971
28373SOL     OW90248   0.879   6.596   7.978  0.1197  0.1203  0.0120
28373SOL    HW190249   0.871   6.558   8.065 -0.9455 -0.1367 -0.1844
28373SOL    HW290250   0.909   6.686   7.993  0.9719 -0.2508  0.5735
28374SOL     OW90251   3.323   8.906   9.297  0.1935  0.1209 -0.0553
28374SOL    HW190252   3.306   8.812   9.285  3.0488 -0.3956 -0.5150
28374SOL    HW290253   3.403   8.922   9.247  1.2362  2.2252  2.2055
28375SOL     OW90254   7.028   8.734   7.981  0.1763 -0.3348  0.2850
28375SOL    HW190255   7.026   8.778   8.066 -2.6033 -1.3758  0.8298
28375SOL    HW290256   7.026   8.641   8.003  1.9269 -0.6741 -0.9047
28376SOL     OW90257   1.213  10.574   3.766  0.3634  0.2999  0.6203
28376SOL    HW190258   1.157  10.558   3.843 -1.0097  1.9603 -0.0114
28376SOL    HW290259   1.301  10.584   3.803 -0.1686  0.4047  1.9122
28377SOL     OW90260   4.387   5.320   3.183  0.2160  0.3115  0.2645
28377SOL    HW190261   4.415   5.247   3.239  2.3314  1.5410  0.8390
28377SOL    HW290262   4.314   5.359   3.231  0.0921 -0.4678  0.7232
28378SOL     OW90263   2.525  10.604   5.776 -0.0131  0.2762  0.2527
28378SOL    HW190264   2.433  10.585   5.795 -0.0987  2.0556  1.8043
28378SOL    HW290265   2.574  10.546   5.835 -0.1447 -0.3844 -0.2873
28379SOL     OW90266   3.485   7.504   2.385  0.2981 -0.3664 -0.0924
28379SOL    HW190267   3.490   7.571   2.452 -0.6448  0.2539 -0.6254
28379SOL    HW290268   3.426   7.438   2.422 -0.1233 -0.0827 -0.2471
28380SOL     OW90269   9.939   8.823   6.270 -0.0931 -0.1081 -0.2142
28380SOL    HW190270   9.976   8.911   6.273  0.0026 -0.0518 -2.1472
28380SOL    HW290271   9.886   8.816   6.349  0.2992  1.5047  0.2085
28381SOL     OW90272   7.455   7.561   7.598  0.1975  0.2293 -0.0660
28381SOL    HW190273   7.362   7.553   7.621  0.5963  0.5174  1.6866
28381SOL    HW290274   7.465   7.652   7.570 -0.4217 -0.2900 -2.1184
28382SOL     OW90275   8.798   5.754   1.185 -0.5596 -0.2741  0.6163
28382SOL    HW190276   8.849   5.834   1.197 -1.2748  0.3459 -0.3636
28382SOL    HW290277   8.713   5.785   1.154 -0.7625 -1.4398 -0.0004
28383SOL     OW90278   1.373  10.537  11.079 -0.0013  0.1686 -0.2610
28383SOL    HW190279   1.429  10.612  11.057  0.5169 -0.0630  0.2707
28383SOL    HW290280   1.340  10.507  10.995  2.2209 -0.9100 -0.7961
28384SOL     OW90281   5.055   5.420   0.518  0.3019  0.2726  0.0636
28384SOL    HW190282   5.092   5.493   0.467 -0.9394 -0.3424 -1.7780
28384SOL    HW290283   5.127   5.357   0.524  1.5147  1.7762  2.0074
28385SOL     OW90284   7.571   5.568   2.144 -0.1799  0.2121 -0.1998
28385SOL    HW190285   7.636   5.636   2.162 -1.0473  1.3049 -1.1397
28385SOL    HW290286   7.491   5.599   2.186  0.1814 -1.7444  2.0723
28386SOL     OW90287   9.065   4.053   2.907 -0.8895 -1.0960 -0.0879
28386SOL    HW190288   9.010   3.977   2.890 -0.2079 -0.9797 -3.1324
28386SOL    HW290289   9.142   4.017   2.951 -1.1619 -2.0080 -0.3400
28387SOL     OW90290   8.944  10.041   5.188 -0.7825  0.1466 -0.5066
28387SOL    HW190291   8.991   9.987   5.251  0.4463  0.8987 -0.7653
28387SOL    HW290292   8.964  10.131   5.213  1.8211  0.4884 -3.4635
28388SOL     OW90293   1.668   5.869   7.036 -0.3024 -0.3956 -0.1312
28388SOL    HW190294   1.631   5.814   7.105  1.6175  0.3024  1.5052
28388SOL    HW290295   1.709   5.942   7.083  3.4734 -1.3543 -1.7585
28389SOL     OW90296   6.040   7.383   2.355  0.2673  0.0422 -0.0781
28389SOL    HW190297   6.081   7.364   2.439  0.7546 -1.8726 -0.7112
28389SOL    HW290298   5.962   7.434   2.376 -0.9476 -2.5054  1.7202
28390SOL     OW90299   8.257  11.034   6.910  0.4891 -0.4191  0.1583
28390SOL    HW190300   8.229  10.980   6.983  2.7139 -1.2431  0.4318
28390SOL    HW290301   8.240  11.124   6.939 -1.0584 -0.8559  0.6256
28391SOL     OW90302   6.288   0.233   6.887 -0.4028  0.1226 -0.0462
28391SOL    HW190303   6.372   0.238   6.932 -0.4825 -0.5321  0.1723
28391SOL    HW290304   6.308   0.193   6.802 -0.6786 -1.1080  0.4668
28392SOL     OW90305   5.633   9.232   3.107 -0.4450  0.6081  0.0509
28392SOL    HW190306   5.649   9.326   3.114  1.1940  0.3200  0.3832
28392SOL    HW290307   5.602   9.207   3.194  0.7751  0.5550  0.4850
28393SOL     OW90308   5.449   4.418   1.115  0.3182 -0.2066  0.3677
28393SOL    HW190309   5.544   4.431   1.116  0.2603  0.1823  0.5743
28393SOL    HW290310   5.418   4.466   1.038  0.3207 -0.5614  0.1427
28394SOL     OW90311  10.305   8.175   0.771 -0.5880  0.7621 -0.4528
28394SOL    HW190312  10.219   8.141   0.797 -1.3755  1.8864 -1.5166
28394SOL    HW290313  10.300   8.183   0.676  1.6730 -1.7296 -0.8474
28395SOL     OW90314   5.127   5.243   6.600  0.2631 -0.1426  0.2156
28395SOL    HW190315   5.201   5.240   6.539  0.7785 -0.1934  0.8362
28395SOL    HW290316   5.095   5.153   6.605  0.9545 -0.3558  0.9037
28396SOL     OW90317   5.880   6.969   1.815 -0.0616  0.3226  0.0916
28396SOL    HW190318   5.870   7.042   1.876  1.0253 -0.2530  0.9784
28396SOL    HW290319   5.923   6.900   1.867  0.1956 -0.4431 -1.1189
28397SOL     OW90320   0.511   2.885  10.008 -0.0558 -0.1378  0.2150
28397SOL    HW190321   0.494   2.851   9.920  0.6706 -2.7373  1.0394
28397SOL    HW290322   0.445   2.953  10.020  0.1796  0.6526 -2.5373
28398SOL     OW90323   0.061   7.609   8.591 -0.0016  0.3335 -0.0190
28398SOL    HW190324   0.004   7.680   8.562  0.9107  1.2029  0.3179
28398SOL    HW290325   0.025   7.531   8.548 -1.5212  0.8438  0.2806
28399SOL     OW90326   1.191   4.915  10.755  0.1979 -0.5254  0.3649
28399SOL    HW190327   1.236   4.842  10.798 -0.2789  0.0024  1.7951
28399SOL    HW290328   1.102   4.883  10.740  0.0938 -0.3705  0.6496
28400SOL     OW90329   4.582   9.162   5.802  0.4212 -0.1440 -0.1476
28400SOL    HW190330   4.548   9.240   5.758 -0.1536 -1.1423 -1.5012
28400SOL    HW290331   4.627   9.113   5.733  0.7832 -1.0097  0.6898
28401SOL     OW90332   5.785   1.463   6.179  0.2267 -0.0214 -0.0911
28401SOL    HW190333   5.830   1.417   6.249  0.1799  1.4464  0.9364
28401SOL    HW290334   5.792   1.555   6.203  0.1961  0.5025 -2.0226
28402SOL     OW90335   6.063   4.139   1.431  0.0710 -0.3112  0.3274
28402SOL    HW190336   6.068   4.178   1.344  0.9990 -0.1148  0.4671
28402SOL    HW290337   6.050   4.046   1.415  0.4413 -0.3027 -0.0169
28403SOL     OW90338  10.761   8.046   3.497  0.5626  0.3038 -0.5836
28403SOL    HW190339  10.794   8.026   3.585 -0.3514  2.4247  0.2762
28403SOL    HW290340  10.838   8.036   3.441  1.1828 -1.0170  0.4563
28404SOL     OW90341  10.730   4.020   7.089 -0.6690  0.4519 -0.0457
28404SOL    HW190342  10.795   3.983   7.028 -2.7106 -0.4509 -1.7278
28404SOL    HW290343  10.717   4.110   7.056 -0.9174  0.3430 -0.2458
28405SOL     OW90344   4.110   2.619  10.179 -0.0215  0.4961  0.1179
28405SOL    HW190345   4.167   2.542  10.184 -0.6252  0.0739  0.5751
28405SOL    HW290346   4.092   2.629  10.085 -0.0433 -0.0095  0.0627
28406SOL     OW90347   8.886   6.761   5.103  0.2475  0.4070  0.5472
28406SOL    HW190348   8.877   6.767   5.198 -0.6752  2.3020  0.3546
28406SOL    HW290349   8.796   6.751   5.071  0.5591 -0.2911 -0.1338
28407SOL     OW90350   2.019   9.359   4.753 -0.5143  0.8313 -0.2563
28407SOL    HW190351   1.989   9.392   4.669 -0.2658 -2.2667 -1.6657
28407SOL    HW290352   2.083   9.291   4.730 -1.0082 -0.6184  2.3821
28408SOL     OW90353   0.460   9.036   4.561 -0.0871 -0.0397 -0.3563
28408SOL    HW190354   0.425   9.008   4.645  0.7698 -1.0390 -0.3291
28408SOL    HW290355   0.419   9.122   4.546 -0.9110 -0.2417  0.6544
28409SOL     OW90356  11.109   5.663   8.543 -0.8042 -0.5071  0.0145
28409SOL    HW190357  11.027   5.708   8.566 -0.4803  0.5941 -0.9225
28409SOL    HW290358  11.081   5.590   8.486 -1.2293 -0.8270  0.6272
28410SOL     OW90359  11.046   9.140   5.056 -0.1241  0.2294 -0.2226
28410SOL    HW190360  11.039   9.234   5.038  3.6017  1.1919  2.7225
28410SOL    HW290361  11.134   9.116   5.025 -1.0452 -2.3255 -0.9819
28411SOL     OW90362  10.379   8.433  10.242 -0.1527  0.0273  0.0307
28411SOL    HW190363  10.372   8.462  10.151  0.1239  1.2500  0.3995
28411SOL    HW290364  10.295   8.457  10.281 -0.1676 -0.2566  0.1779
28412SOL     OW90365   8.043   7.346   2.708 -0.8048 -0.0829 -0.1868
28412SOL    HW190366   8.129   7.303   2.708 -1.1275 -0.7388  0.1966
28412SOL    HW290367   8.055   7.423   2.654  0.0932 -0.0469  0.0515
28413SOL     OW90368  10.795   0.722  10.302 -0.6796  0.2825 -0.2867
28413SOL    HW190369  10.860   0.749  10.367 -1.2250  1.0191 -0.0488
28413SOL    HW290370  10.821   0.632  10.278  1.4310  1.1614 -1.4316
28414SOL     OW90371   7.274   6.825   6.095 -0.3874  0.4891 -0.2245
28414SOL    HW190372   7.342   6.762   6.069 -0.4408  0.8752 -1.3101
28414SOL    HW290373   7.200   6.804   6.039 -1.4423 -0.4305  1.4892
28415SOL     OW90374   8.301  10.775   1.187 -0.0133 -0.0508 -0.3599
28415SOL    HW190375   8.269  10.855   1.146 -1.2293  0.0593  0.7733
28415SOL    HW290376   8.330  10.720   1.114 -1.6341  0.3635 -1.3262
28416SOL     OW90377   3.161   9.716   1.329 -0.1861  0.1392  0.1217
28416SOL    HW190378   3.236   9.673   1.370  0.8485  0.5159 -1.3314
28416SOL    HW290379   3.119   9.764   1.400  2.3731  1.9195  0.4865
28417SOL     OW90380   6.698   0.655  10.611  0.7402 -0.4150 -0.3141
28417SOL    HW190381   6.695   0.590  10.541  2.7774 -0.4704 -0.3646
28417SOL    HW290382   6.746   0.729  10.574  0.3418  0.2528  0.4680
28418SOL     OW90383   4.338  10.811   1.342 -0.2098 -0.0717 -0.1126
28418SOL    HW190384   4.424  10.831   1.381 -1.0009  0.3528  1.4526
28418SOL    HW290385   4.323  10.719   1.364 -0.6565  0.1684  0.6354
28419SOL     OW90386   5.546   6.040   0.212 -0.3768  0.1760 -0.2772
28419SOL    HW190387   5.467   6.058   0.161 -1.7355  2.5193  2.5340
28419SOL    HW290388   5.517   5.979   0.280  0.6408 -0.2484 -0.2167
28420SOL     OW90389   7.202   3.558   4.697  0.1938 -0.1779  0.5735
28420SOL    HW190390   7.241   3.476   4.666  1.2161  0.6536 -0.4016
28420SOL    HW290391   7.269   3.624   4.678 -0.0612  0.6907  2.5565
28421SOL     OW90392   5.233   7.911   6.221  0.2218 -0.3252  0.1656
28421SOL    HW190393   5.230   7.968   6.145  1.3504  0.3203  0.5905
28421SOL    HW290394   5.316   7.863   6.212  0.3356 -0.2868  0.9425
28422SOL     OW90395  10.719   5.238   2.103  0.0599  0.3875 -0.3429
28422SOL    HW190396  10.624   5.242   2.095  0.1371 -0.3982 -1.7940
28422SOL    HW290397  10.741   5.145   2.095  1.0095  0.6451 -0.8331
28423SOL     OW90398   0.215   9.507   2.359 -0.2596 -0.5520  0.6189
28423SOL    HW190399   0.240   9.416   2.376 -1.0840 -0.7123  1.0298
28423SOL    HW290400   0.220   9.516   2.264 -1.7543 -1.5215  0.4263
28424SOL     OW90401   8.810   7.347   9.138 -0.2746  0.0743  0.4360
28424SOL    HW190402   8.829   7.254   9.131  0.4683  0.1364  1.4644
28424SOL    HW290403   8.852   7.386   9.062  0.0058 -0.3480  0.3728
28425SOL     OW90404   9.801   7.499  10.629 -0.5379 -0.4646 -0.0356
28425SOL    HW190405   9.836   7.508  10.540 -0.6106  0.3407  0.0129
28425SOL    HW290406   9.809   7.405  10.648 -1.2914 -0.7771 -1.2056
28426SOL     OW90407   1.763   8.648   5.537  0.0108  0.5447 -0.2465
28426SOL    HW190408   1.671   8.673   5.524  0.3036  1.5126 -0.4411
28426SOL    HW290409   1.779   8.664   5.630 -0.0115  0.3585 -0.2091
28427SOL     OW90410   0.516   8.812  11.021 -0.0839  0.1855 -0.1126
28427SOL    HW190411   0.536   8.902  10.995  0.7623  0.1558  0.4065
28427SOL    HW290412   0.595   8.762  10.999 -0.8535 -0.5907 -1.1629
28428SOL     OW90413   9.249   4.269   7.666  0.4501  0.2369  0.1488
28428SOL    HW190414   9.227   4.328   7.738 -1.8095 -1.7572  1.1582
28428SOL    HW290415   9.345   4.268   7.664  0.5250  2.0199  1.6943
28429SOL     OW90416   2.706   7.220  10.797  0.4000  0.3070  0.3064
28429SOL    HW190417   2.676   7.258  10.879 -0.0713 -0.3121  0.4300
28429SOL    HW290418   2.708   7.293  10.735 -2.3702  0.2052  0.0179
28430SOL     OW90419   9.407  10.256   6.436 -0.0881  0.4049 -0.3422
28430SOL    HW190420   9.483  10.213   6.397  0.3630  0.5890  0.3245
28430SOL    HW290421   9.439  10.293   6.518 -0.6771  1.2673 -0.4808
28431SOL     OW90422   0.129   7.417   3.127  0.2959  0.4982 -0.6563
28431SOL    HW190423   0.211   7.400   3.174  0.1472  2.5426  0.3931
28431SOL    HW290424   0.076   7.469   3.189 -0.4413  2.0909 -2.5828
28432SOL     OW90425  11.249   3.035   8.185  0.3842 -0.5105 -0.1621
28432SOL    HW190426  11.218   3.078   8.265  0.6248  0.0918 -0.3938
28432SOL    HW290427  11.303   2.963   8.216  0.6040 -0.1824  0.2188
28433SOL     OW90428   3.439   7.692   4.173 -0.2940  0.6378  0.8787
28433SOL    HW190429   3.482   7.777   4.186  1.1499 -0.2863  2.4144
28433SOL    HW290430   3.438   7.652   4.260 -4.3610  0.6128  0.9305
28434SOL     OW90431   1.031   4.618   6.582  0.1621  0.0833 -0.3713
28434SOL    HW190432   1.053   4.642   6.492 -1.1749 -0.9421 -0.9764
28434SOL    HW290433   1.064   4.529   6.592  1.0995  0.5111  0.4509
28435SOL     OW90434   9.664   7.774   2.589  0.2170  0.2562 -0.2984
28435SOL    HW190435   9.614   7.835   2.534 -0.7235  0.3353  0.6306
28435SOL    HW290436   9.753   7.781   2.556 -0.3845  0.0943 -1.9929
28436SOL     OW90437   6.709   0.219   2.375  0.3816 -0.5995 -0.3378
28436SOL    HW190438   6.793   0.180   2.349  1.1767  0.8299  0.0670
28436SOL    HW290439   6.731   0.277   2.447 -0.9499 -0.1106 -0.3219
28437SOL     OW90440  10.835   6.562   8.848  0.2987  0.4873  0.2443
28437SOL    HW190441  10.830   6.615   8.769  0.2519  1.5772  0.9605
28437SOL    HW290442  10.744   6.541   8.868  0.2805  0.5541  0.2366
28438SOL     OW90443   4.487   0.706   4.571 -0.0773 -0.3217  0.3642
28438SOL    HW190444   4.428   0.663   4.509 -0.9802  0.8392  0.4142
28438SOL    HW290445   4.429   0.746   4.636  0.8301 -0.8001  1.4873
28439SOL     OW90446   3.915   5.317   4.753  0.0595  0.1808  0.6233
28439SOL    HW190447   3.840   5.287   4.804  0.7461  0.1681  1.6622
28439SOL    HW290448   3.912   5.266   4.672  0.4725 -1.7868  1.8094
28440SOL     OW90449   8.774   0.264   3.072 -0.0904 -0.3168  0.2883
28440SOL    HW190450   8.704   0.247   3.135  0.8958  0.4894  1.6349
28440SOL    HW290451   8.772   0.189   3.013 -2.5396  0.0355 -0.1175
28441SOL     OW90452   9.470   1.316   1.179 -0.0013 -0.4047 -0.1510
28441SOL    HW190453   9.495   1.231   1.213 -0.9046 -1.2624 -1.5839
28441SOL    HW290454   9.376   1.309   1.162 -0.2088  1.0809  0.3258
28442SOL     OW90455   9.935   0.302   5.005 -0.2991  0.3418  0.4622
28442SOL    HW190456  10.023   0.301   4.969  0.1454 -1.7576  1.5031
28442SOL    HW290457   9.920   0.211   5.033 -3.8047  0.0288 -2.1178
28443SOL     OW90458   3.722   9.323   3.812 -0.1820  0.8683  0.3105
28443SOL    HW190459   3.672   9.321   3.730 -1.0614  0.0852  0.8539
28443SOL    HW290460   3.663   9.286   3.877  1.7437 -1.7958  0.6185
28444SOL     OW90461   6.966   8.828   1.201  0.3434  0.0336 -0.2091
28444SOL    HW190462   6.968   8.883   1.122  0.1730  0.2480 -0.0610
28444SOL    HW290463   7.036   8.863   1.256 -0.2885  0.6120  0.2332
28445SOL     OW90464   9.843   0.223   6.023 -0.7083  0.3202 -0.1611
28445SOL    HW190465   9.766   0.168   6.004  0.2027 -0.0992 -2.9504
28445SOL    HW290466   9.917   0.163   6.019 -0.0497  1.0775  0.5419
28446SOL     OW90467   9.371   0.313   0.465  0.0410 -0.3457 -0.0803
28446SOL    HW190468   9.425   0.389   0.486  0.6589 -0.7465 -0.1967
28446SOL    HW290469   9.408   0.278   0.384  0.2907 -1.2556  0.4130
28447SOL     OW90470  10.602  10.265   0.497 -0.4235 -0.1322 -0.5589
28447SOL    HW190471  10.665  10.336   0.488 -1.2118  0.6228 -0.2139
28447SOL    HW290472  10.647  10.200   0.550 -0.2608  0.8076  0.4838
28448SOL     OW90473   0.128   2.674   9.992  0.4074  0.1323  0.1347
28448SOL    HW190474   0.063   2.719   9.938 -1.6753 -1.1193  1.4952
28448SOL    HW290475   0.128   2.584   9.959  0.9581 -0.0405  0.5954
28449SOL     OW90476   4.684   9.922   1.610  0.5106 -0.9425 -0.3480
28449SOL    HW190477   4.729   9.960   1.685 -0.4511  0.6827 -0.5707
28449SOL    HW290478   4.596   9.902   1.641  0.3944 -1.1334 -0.7884
28450SOL     OW90479   0.818   4.958   9.391  0.2261 -0.4424  0.0558
28450SOL    HW190480   0.885   5.023   9.409 -0.1221  0.3223 -1.3292
28450SOL    HW290481   0.838   4.885   9.450  1.8398  0.0800  0.1708
28451SOL     OW90482   8.616  10.845   5.339 -0.1871 -0.2601  0.4740
28451SOL    HW190483   8.539  10.870   5.287  0.9152 -0.1518 -1.1373
28451SOL    HW290484   8.581  10.825   5.426 -2.3594 -2.3882 -0.8396
28452SOL     OW90485   0.498   0.645   8.572 -0.0546 -0.5998 -0.0298
28452SOL    HW190486   0.515   0.572   8.512 -1.3236 -0.1715 -0.9474
28452SOL    HW290487   0.532   0.722   8.526 -0.2812 -0.3885  0.1542
28453SOL     OW90488   2.549  10.698   6.416 -0.5781 -0.1995 -0.3203
28453SOL    HW190489   2.469  10.651   6.392 -0.8206  0.0044  0.0918
28453SOL    HW290490   2.598  10.636   6.470 -1.3379  0.3558  1.0274
28454SOL     OW90491   2.717   2.885   6.119  0.1106 -0.7778  0.0078
28454SOL    HW190492   2.662   2.809   6.100  2.1999 -2.1010 -0.9602
28454SOL    HW290493   2.733   2.925   6.034 -0.5692  0.4894  0.4609
28455SOL     OW90494   9.318   2.817   9.209 -0.1050 -0.3917  0.3040
28455SOL    HW190495   9.398   2.849   9.169 -0.8337  0.7787 -0.2679
28455SOL    HW290496   9.295   2.739   9.160 -0.9106  0.9450 -1.5114
28456SOL     OW90497   7.853   7.715   2.022  0.3692 -0.3897  0.2969
28456SOL    HW190498   7.850   7.746   2.113  0.1449 -1.2570  0.5952
28456SOL    HW290499   7.798   7.777   1.974 -1.4654 -1.2649  1.1773
28457SOL     OW90500  11.300   4.834   6.651  0.2144  0.2355  0.0604
28457SOL    HW190501  11.329   4.840   6.559  0.3557  0.1211  0.0966
28457SOL    HW290502  11.367   4.779   6.693 -0.4630 -0.6584 -0.0165
28458SOL     OW90503   2.850   8.969   4.295  0.4118 -0.0510 -0.4117
28458SOL    HW190504   2.920   9.021   4.333  0.3612 -0.5867  0.4426
28458SOL    HW290505   2.781   9.032   4.275  0.4912  0.2625  0.2822
28459SOL     OW90506   1.023  10.399   4.926  0.0804 -0.1387 -0.5718
28459SOL    HW190507   1.105  10.444   4.948 -1.4775  2.1949  0.6980
28459SOL    HW290508   0.987  10.450   4.853  0.3520 -1.9402 -2.0192
28460SOL     OW90509   6.999   3.582   1.338 -0.1218  0.1429 -0.3482
28460SOL    HW190510   6.930   3.605   1.276 -0.5132  0.3817  0.1745
28460SOL    HW290511   7.075   3.634   1.310 -0.0519 -0.3483 -1.1075
28461SOL     OW90512   9.419   3.839   1.838 -0.1310 -0.3526 -0.2807
28461SOL    HW190513   9.396   3.794   1.919  1.8667 -0.3216  0.3137
28461SOL    HW290514   9.513   3.824   1.828  0.0805  1.6034 -1.3658
28462SOL     OW90515   3.050   4.830   5.250 -0.0690 -0.4713 -0.0615
28462SOL    HW190516   3.139   4.861   5.263 -0.3529  0.1531  0.4370
28462SOL    HW290517   3.030   4.781   5.330 -0.6311  0.5029  0.3991
28463SOL     OW90518   1.906   8.880   2.860 -0.2957 -0.0765  0.1377
28463SOL    HW190519   1.901   8.904   2.767 -0.1085 -2.2759 -0.4871
28463SOL    HW290520   1.991   8.912   2.889 -0.5161  0.9615 -0.3518
28464SOL     OW90521   2.071   1.909   8.312  0.1299 -0.1254  0.4701
28464SOL    HW190522   2.111   1.827   8.282 -0.2655 -0.5015  0.9467
28464SOL    HW290523   2.063   1.898   8.407 -4.4080 -1.6017  0.0575
28465SOL     OW90524   9.618   2.919   0.050  0.0627  0.0837  0.3435
28465SOL    HW190525   9.683   2.913   0.120 -0.8163 -0.7918  1.1129
28465SOL    HW290526   9.628   2.836   0.002 -0.1112  0.1922  0.1198
28466SOL     OW90527   3.387   0.341  11.089 -0.7045 -0.4832 -0.0143
28466SOL    HW190528   3.296   0.314  11.101 -0.8675 -0.9713 -2.1523
28466SOL    HW290529   3.419   0.288  11.016  0.6597  1.1689 -0.6543
28467SOL     OW90530   1.575   6.999   0.881 -0.2708  0.7194  0.3824
28467SOL    HW190531   1.494   7.003   0.832 -1.3386  0.0475  2.0640
28467SOL    HW290532   1.640   6.968   0.818 -1.0444  2.4306 -1.2887
28468SOL     OW90533  10.644   0.352   1.096  0.1813  0.5066 -0.2139
28468SOL    HW190534  10.588   0.415   1.141  0.8921 -0.7377  2.5429
28468SOL    HW290535  10.711   0.330   1.161  1.4638 -1.1149 -2.0449
28469SOL     OW90536   8.502   0.262   7.086  0.2453 -0.3631 -0.4719
28469SOL    HW190537   8.475   0.345   7.126  2.0012  0.4681 -0.9732
28469SOL    HW290538   8.489   0.276   6.992 -0.1093 -0.9144 -0.5088
28470SOL     OW90539   2.185  10.077   3.805 -0.5690  0.1499 -0.2067
28470SOL    HW190540   2.147  10.032   3.730 -0.8915  1.1093 -0.6303
28470SOL    HW290541   2.141  10.162   3.807 -0.6115  0.1095  1.1136
28471SOL     OW90542   4.261   8.540   3.091  0.0234  0.3585  0.3321
28471SOL    HW190543   4.351   8.541   3.060  1.1153 -1.9084  3.1638
28471SOL    HW290544   4.266   8.580   3.178 -2.0222  1.7580 -0.1560
28472SOL     OW90545   5.593   3.589   6.710  0.1680 -0.2952 -0.5092
28472SOL    HW190546   5.588   3.527   6.782 -0.4384  1.3121  0.8636
28472SOL    HW290547   5.512   3.640   6.716  1.0572  1.2206 -1.0571
28473SOL     OW90548   5.526   0.118   8.745 -0.2271  0.3076  0.4502
28473SOL    HW190549   5.465   0.045   8.756  1.9335 -1.3167  2.1202
28473SOL    HW290550   5.493   0.186   8.804 -0.9328 -0.2066  0.6542
28474SOL     OW90551  10.348   9.298   6.628  0.4254  0.1575  0.1564
28474SOL    HW190552  10.306   9.365   6.574 -0.7377 -1.8466 -1.5283
28474SOL    HW290553  10.424   9.271   6.576  0.8217  0.1042  0.7658
28475SOL     OW90554   2.243   8.781   7.694 -0.9045 -0.0133  0.0333
28475SOL    HW190555   2.230   8.811   7.604 -0.5423  0.0479 -0.0012
28475SOL    HW290556   2.250   8.686   7.687  0.1085  0.0645 -0.1312
28476SOL     OW90557   6.945   5.602   9.543 -0.1206 -0.0084 -0.1762
28476SOL    HW190558   7.014   5.665   9.562 -0.6587  0.4244  0.3721
28476SOL    HW290559   6.896   5.641   9.471 -0.1916 -0.0005 -0.1228
28477SOL     OW90560   9.258   9.302   0.157  0.7021  0.0359 -0.1933
28477SOL    HW190561   9.234   9.346   0.239  1.8942  1.6343 -0.6709
28477SOL    HW290562   9.241   9.367   0.089  0.0308 -1.1704 -1.2035
28478SOL     OW90563   6.367   8.336   9.963 -0.5432  0.1369 -0.5327
28478SOL    HW190564   6.408   8.407   9.914 -3.0867  0.8719 -1.6842
28478SOL    HW290565   6.437   8.272   9.975  1.5758  2.4154 -0.2395
28479SOL     OW90566   7.626   3.975   6.153  0.0046 -0.6875 -0.1022
28479SOL    HW190567   7.531   3.987   6.165  0.2561 -0.0163  1.3046
28479SOL    HW290568   7.651   4.044   6.092 -0.3859 -0.8230 -0.4249
28480SOL     OW90569   3.724   8.936   9.718 -0.2103 -0.5060  0.7209
28480SOL    HW190570   3.658   9.005   9.728  1.0311  0.3888  3.1607
28480SOL    HW290571   3.791   8.957   9.783  3.4562 -0.3822 -2.9087
28481SOL     OW90572  11.076   1.570   8.006  0.2612 -0.4409  0.0368
28481SOL    HW190573  11.090   1.508   8.077  1.6936  0.2027  0.3351
28481SOL    HW290574  11.105   1.524   7.927  1.7255 -0.0247  0.3149
28482SOL     OW90575   5.172   7.919   0.132  0.7183  0.3718  0.0686
28482SOL    HW190576   5.177   7.974   0.053  0.8681 -1.0914 -0.9696
28482SOL    HW290577   5.235   7.849   0.115  0.2237 -0.3461  1.1856
28483SOL     OW90578   9.919   4.823   9.417 -0.2457 -0.1759  0.3462
28483SOL    HW190579   9.844   4.876   9.390 -0.2423 -0.0238  0.6311
28483SOL    HW290580   9.890   4.779   9.497 -0.4033 -0.9514 -0.1316
28484SOL     OW90581   7.056   1.281   4.772  0.0133 -0.1114 -0.2225
28484SOL    HW190582   6.986   1.218   4.753  0.6990 -1.0312  0.2782
28484SOL    HW290583   7.096   1.300   4.687 -0.2155 -0.3205 -0.3744
28485SOL     OW90584   8.007  10.560   9.205 -0.0131 -0.0742  0.1214
28485SOL    HW190585   8.015  10.644   9.160 -0.5998 -0.5312 -0.8427
28485SOL    HW290586   7.970  10.582   9.291  1.2772  0.8158  0.4623
28486SOL     OW90587   2.190   9.117   0.353  0.0628  0.6165  0.3578
28486SOL    HW190588   2.169   9.127   0.446  2.3502  2.3380  0.7419
28486SOL    HW290589   2.269   9.171   0.341 -1.7035  2.5860 -3.1266
28487SOL     OW90590   4.142  11.175   5.221  0.2887 -0.1015 -0.4629
28487SOL    HW190591   4.209  11.243   5.214  0.5404 -0.5479 -2.6189
28487SOL    HW290592   4.163  11.130   5.303  2.3085  0.1138 -0.8338
28488SOL     OW90593  10.632   5.674   3.779  0.0886  0.4937  0.1292
28488SOL    HW190594  10.648   5.579   3.776 -0.2521  0.4735 -2.2035
28488SOL    HW290595  10.539   5.682   3.800  0.6058  0.3837  2.5966
28489SOL     OW90596   6.477   0.654  11.246 -0.1494 -0.4241  0.6812
28489SOL    HW190597   6.410   0.720  11.229  0.6547  0.4982  1.0291
28489SOL    HW290598   6.455   0.619  11.333 -0.3834 -0.3657  0.6447
28490SOL     OW90599   4.952   0.424   0.404  0.4320  0.1993 -0.8498
28490SOL    HW190600   4.984   0.401   0.492  0.3472 -1.1591 -1.1571
28490SOL    HW290601   5.016   0.385   0.345 -0.4988 -0.4738 -1.4232
28491SOL     OW90602   9.354   3.407  10.159 -0.1305  0.1224  0.0411
28491SOL    HW190603   9.403   3.340  10.112  1.1962  1.4385 -0.4904
28491SOL    HW290604   9.290   3.358  10.211  1.7006 -1.6224  0.7061
28492SOL     OW90605   1.062   5.825   7.438  0.1034 -0.5175 -0.2511
28492SOL    HW190606   0.991   5.883   7.411  1.2018  1.8414  1.7582
28492SOL    HW290607   1.019   5.741   7.454 -2.0118  0.5066 -0.4171
28493SOL     OW90608   7.262   4.582   4.317  0.2687 -0.1377 -0.4136
28493SOL    HW190609   7.231   4.494   4.337  0.6288 -0.4137 -1.0487
28493SOL    HW290610   7.332   4.598   4.379  1.3872 -0.9891 -1.4401
28494SOL     OW90611   5.823   0.555   8.922 -0.0233 -0.5822  0.1372
28494SOL    HW190612   5.809   0.643   8.957  0.6462 -1.0916  1.7598
28494SOL    HW290613   5.894   0.564   8.859 -3.2877  0.9119 -3.5125
28495SOL     OW90614   9.777   8.746   5.934  0.1432 -0.0073  0.1028
28495SOL    HW190615   9.836   8.784   5.998 -1.5233  0.6955  1.2489
28495SOL    HW290616   9.727   8.680   5.983 -0.8524  0.2447 -0.5534
28496SOL     OW90617   4.210   6.203   0.571  0.2056 -0.0261 -0.0433
28496SOL    HW190618   4.268   6.147   0.519 -0.8724 -1.1174 -0.0735
28496SOL    HW290619   4.162   6.254   0.506  0.0311 -0.2255 -0.0732
28497SOL     OW90620   0.431   9.871   1.473  0.2394 -0.4233 -0.1128
28497SOL    HW190621   0.525   9.889   1.481  0.1608 -0.0411 -0.0578
28497SOL    HW290622   0.422   9.831   1.387 -0.0952  3.1741 -1.8241
28498SOL     OW90623   5.661   5.430  10.220 -0.1703 -0.1433  0.2530
28498SOL    HW190624   5.622   5.350  10.184  0.3371  0.1304 -0.9301
28498SOL    HW290625   5.754   5.423  10.199 -0.3045  1.2928 -0.8794
28499SOL     OW90626   2.605   0.055   6.237 -0.3042 -0.0364 -0.1328
28499SOL    HW190627   2.530  -0.001   6.217  1.9255 -2.0454 -3.3162
28499SOL    HW290628   2.678  -0.006   6.247  1.3006  2.0106  0.8498
28500SOL     OW90629   3.958   9.704   9.529  0.2511 -0.4266 -0.1732
28500SOL    HW190630   3.902   9.628   9.514  0.7286 -0.7680 -0.2360
28500SOL    HW290631   4.038   9.669   9.568  0.3369  0.0836  0.1260
28501SOL     OW90632   3.119   5.896   5.246 -0.4011  0.3610 -0.1034
28501SOL    HW190633   3.042   5.941   5.211  0.1488  0.8515 -0.7034
28501SOL    HW290634   3.105   5.803   5.224 -1.5173  0.2377  1.1037
28502SOL     OW90635  10.043   5.884   7.992 -0.6868 -0.3445  0.1650
28502SOL    HW190636  10.098   5.874   8.070  1.7490  1.7510 -1.2340
28502SOL    HW290637  10.026   5.795   7.963 -1.2885 -1.1388  2.8540
28503SOL     OW90638   0.835   9.234   1.237 -0.1214 -0.9308 -0.1828
28503SOL    HW190639   0.923   9.229   1.200 -0.4166 -0.5580 -0.9510
28503SOL    HW290640   0.778   9.198   1.169 -0.8644  1.2886 -0.7891
28504SOL     OW90641   3.194   9.617   8.400  0.5763  0.5721 -0.0012
28504SOL    HW190642   3.250   9.547   8.433  0.2870  0.5242  0.3920
28504SOL    HW290643   3.217   9.624   8.308  0.7095  0.0587 -0.0093
28505SOL     OW90644   0.187   6.201   3.188 -0.1919  0.2048 -0.0215
28505SOL    HW190645   0.277   6.174   3.169 -0.4000  0.4793 -1.5047
28505SOL    HW290646   0.148   6.126   3.232  0.8445  0.1813  0.8750
28506SOL     OW90647   5.691   6.426   1.541  0.4385  0.7538  0.5388
28506SOL    HW190648   5.673   6.333   1.524  0.3335  0.8458  0.1422
28506SOL    HW290649   5.673   6.437   1.634 -0.2474  0.5358  0.4368
28507SOL     OW90650   9.659   5.306   5.356  0.3194 -0.0592 -0.1481
28507SOL    HW190651   9.604   5.339   5.427  2.2326 -0.7437  1.7079
28507SOL    HW290652   9.648   5.370   5.285 -1.1561  0.9482  0.9654
28508SOL     OW90653   9.558  10.169   4.515 -0.1850  0.1721 -0.0692
28508SOL    HW190654   9.582  10.142   4.603  1.9793 -0.0903 -0.7081
28508SOL    HW290655   9.637  10.155   4.463 -1.1449  1.1707 -1.8595
28509SOL     OW90656   8.200   3.275   8.579  0.0158  0.1501  0.2500
28509SOL    HW190657   8.213   3.279   8.484 -1.3722  0.4590  0.0655
28509SOL    HW290658   8.196   3.181   8.599  0.3503  0.0853  0.0130
28510SOL     OW90659   4.605  11.143  10.924  0.4325 -0.1425  0.2552
28510SOL    HW190660   4.585  11.054  10.896 -1.1836  0.0530  0.7130
28510SOL    HW290661   4.696  11.157  10.897  0.3454 -1.5277 -0.8189
28511SOL     OW90662   0.146   4.453   4.725 -0.3897  0.2941  0.2326
28511SOL    HW190663   0.193   4.429   4.646 -0.2149  1.2557  0.0398
28511SOL    HW290664   0.104   4.372   4.753  0.3017 -0.2638 -0.3242
28512SOL     OW90665   6.786   3.107   3.769 -0.1486  0.1894  0.7745
28512SOL    HW190666   6.865   3.158   3.749 -0.8060  0.6123 -0.7865
28512SOL    HW290667   6.810   3.017   3.745  0.4913  0.0098  2.0754
28513SOL     OW90668   8.294   2.056   7.777 -0.5331 -0.3445  0.0283
28513SOL    HW190669   8.324   2.029   7.864 -1.2804  0.3781  0.5247
28513SOL    HW290670   8.285   1.975   7.728 -1.3951 -0.8927  1.0540
28514SOL     OW90671   6.080   7.234   4.615 -0.2861 -0.0982 -0.4034
28514SOL    HW190672   6.117   7.151   4.585  0.9967  0.6766 -1.0207
28514SOL    HW290673   6.033   7.268   4.539  0.7065  0.5830 -0.7282
28515SOL     OW90674   5.987   6.083   3.561 -0.2354 -0.3532  0.2998
28515SOL    HW190675   5.917   6.070   3.497  0.0368  0.6167 -0.1976
28515SOL    HW290676   6.060   6.120   3.510  0.0839  0.1454  1.1119
28516SOL     OW90677   4.618  11.164   9.215  0.3298  1.0119 -0.4799
28516SOL    HW190678   4.629  11.097   9.148 -0.0681  2.4534 -2.0150
28516SOL    HW290679   4.697  11.157   9.269 -0.6625 -2.1022  0.7152
28517SOL     OW90680   1.308   5.392   5.186 -0.1123 -0.3018 -0.0936
28517SOL    HW190681   1.299   5.479   5.147  1.4755  0.5613  1.4023
28517SOL    HW290682   1.297   5.406   5.280  1.4886 -1.5015  0.3023
28518SOL     OW90683   8.325   6.414   6.343  0.5406  0.3845 -0.6023
28518SOL    HW190684   8.357   6.324   6.358 -0.2977  0.3111  0.8574
28518SOL    HW290685   8.267   6.431   6.417 -0.7253  1.4882 -1.8276
28519SOL     OW90686   5.634   7.565   3.742  0.0701 -0.4405 -0.0413
28519SOL    HW190687   5.718   7.563   3.696  0.3172  0.0770  0.3831
28519SOL    HW290688   5.573   7.605   3.680  0.3719  0.1323  0.0285
28520SOL     OW90689  10.017   6.842   0.434 -0.1919 -0.2586  0.0324
28520SOL    HW190690  10.087   6.807   0.379  0.2584  0.3414  0.2191
28520SOL    HW290691   9.958   6.885   0.373  0.8804  1.3696  0.1222
28521SOL     OW90692   3.949   6.805   4.544  0.1029 -0.5230 -0.5115
28521SOL    HW190693   3.911   6.806   4.632 -0.1882  1.1141 -0.6302
28521SOL    HW290694   3.890   6.751   4.492 -0.1307 -0.8886  0.1329
28522SOL     OW90695  10.368   1.719   2.912 -0.2099  0.4080  0.2982
28522SOL    HW190696  10.301   1.769   2.958 -0.6184 -0.8738  1.1434
28522SOL    HW290697  10.335   1.709   2.823 -0.2712  1.3414  0.2114
28523SOL     OW90698   1.098   9.502   1.329  0.0628 -0.5694  0.1881
28523SOL    HW190699   1.088   9.512   1.234 -1.0032  0.8492  0.4314
28523SOL    HW290700   1.054   9.579   1.366  4.5587  1.4429  1.6793
28524SOL     OW90701   7.666   7.145   0.989 -0.5218 -0.1650  0.4946
28524SOL    HW190702   7.602   7.086   0.950  0.5143 -0.3686 -0.9841
28524SOL    HW290703   7.720   7.089   1.045  0.1257 -0.5430 -0.4900
28525SOL     OW90704   2.674   8.459  10.772 -0.5059 -0.1362  0.4799
28525SOL    HW190705   2.650   8.435  10.861 -0.2284  2.3355  1.2721
28525SOL    HW290706   2.639   8.547  10.761  0.6209  0.1118 -1.3863
28526SOL     OW90707   9.724   5.936   1.985  0.2471  0.0871 -0.0700
28526SOL    HW190708   9.737   5.862   1.926  2.5751 -0.9951  1.7374
28526SOL    HW290709   9.632   5.932   2.009  0.3326 -2.1770 -0.0676
28527SOL     OW90710   0.005   5.759   4.995 -0.0031  0.0381  0.2055
28527SOL    HW190711   0.073   5.783   4.931 -0.1950  0.3949  0.1367
28527SOL    HW290712   0.053   5.745   5.076  0.1669  0.1913  0.1321
28528SOL     OW90713   3.054   8.153   4.277  0.3390  0.4273 -0.0321
28528SOL    HW190714   3.042   8.176   4.184  1.2076 -1.4145 -0.6063
28528SOL    HW290715   3.116   8.081   4.276 -0.9299 -0.7173  1.8861
28529SOL     OW90716   5.399   0.254   5.977 -0.6127  0.1728  0.2813
28529SOL    HW190717   5.394   0.276   6.070  0.6284 -0.9059  0.6261
28529SOL    HW290718   5.479   0.203   5.969  0.3685  1.9547 -1.7488
28530SOL     OW90719   3.102   0.024   3.136  0.4680  0.5240 -0.1384
28530SOL    HW190720   3.023   0.058   3.177  0.9526 -2.2218  3.3296
28530SOL    HW290721   3.172   0.081   3.167  0.5555 -0.3204  1.2421
28531SOL     OW90722   2.080  10.861  10.227 -0.0931  0.2887 -0.1502
28531SOL    HW190723   1.989  10.849  10.198 -0.2344 -3.3443  1.5390
28531SOL    HW290724   2.074  10.866  10.322  1.5613 -0.6087  0.0083
28532SOL     OW90725   5.301   7.986   3.891 -0.5474 -0.3805 -0.4578
28532SOL    HW190726   5.215   7.972   3.932  0.3404 -1.5330  1.0876
28532SOL    HW290727   5.320   8.078   3.905 -0.9030 -0.4438  0.5271
28533SOL     OW90728   8.727   1.118   1.241  0.6322 -0.1702 -0.2317
28533SOL    HW190729   8.729   1.213   1.248  2.2146 -0.0313 -2.1937
28533SOL    HW290730   8.642   1.093   1.277 -0.2881  2.0728 -0.8055
28534SOL     OW90731  11.092   3.589   3.581  0.3847 -0.0615 -0.1497
28534SOL    HW190732  11.063   3.618   3.495  0.8109  0.8572  0.0090
28534SOL    HW290733  11.166   3.532   3.564  1.5737  1.5211 -0.3075
28535SOL     OW90734   6.328   5.461   6.728 -0.0973  0.5908 -0.2750
28535SOL    HW190735   6.347   5.439   6.637  0.4235 -0.6151  0.1066
28535SOL    HW290736   6.233   5.450   6.736  0.0854 -1.0420 -0.2324
28536SOL     OW90737   7.724   9.700   5.404 -0.1138 -0.4207 -0.7803
28536SOL    HW190738   7.669   9.649   5.463 -0.7426 -0.8043 -1.6903
28536SOL    HW290739   7.814   9.680   5.432 -0.3420 -2.2048 -1.2744
28537SOL     OW90740   6.423   3.816   9.543 -0.1194  0.5458 -0.2863
28537SOL    HW190741   6.486   3.790   9.610  0.2305  0.8226 -0.5071
28537SOL    HW290742   6.378   3.735   9.519 -1.6064  0.7554  1.6705
28538SOL     OW90743   8.555   2.499   6.555 -0.2853  0.5094  0.3416
28538SOL    HW190744   8.612   2.426   6.576  0.8781  1.2884 -0.0207
28538SOL    HW290745   8.485   2.461   6.503 -0.0871 -0.4600  0.7750
28539SOL     OW90746   8.588   1.801   9.873 -0.2455 -0.0043 -0.1225
28539SOL    HW190747   8.586   1.741   9.948 -0.7777  0.9724  0.6459
28539SOL    HW290748   8.499   1.799   9.839 -0.7123  1.6688  0.9598
28540SOL     OW90749   4.565   6.856  10.405  0.7005  0.3177 -0.1656
28540SOL    HW190750   4.595   6.777  10.360  1.6626  0.8932 -0.5475
28540SOL    HW290751   4.592   6.927  10.347  2.9185  1.1542  1.8411
28541SOL     OW90752   4.834   3.949   3.824 -0.4155  0.3636 -0.4216
28541SOL    HW190753   4.833   3.903   3.741 -0.7656 -1.7397  0.7269
28541SOL    HW290754   4.857   4.039   3.801  1.2999 -0.5818 -2.5944
28542SOL     OW90755   6.195   0.975   5.209 -0.0455  0.1399  0.3766
28542SOL    HW190756   6.148   1.044   5.162  0.0767 -1.4760 -2.1943
28542SOL    HW290757   6.130   0.905   5.219  0.4166 -0.1784  1.1884
28543SOL     OW90758   7.872   5.911   8.539 -0.5377  0.5282  0.0231
28543SOL    HW190759   7.894   5.832   8.589 -2.7767  0.9058  1.6835
28543SOL    HW290760   7.788   5.939   8.575 -2.0179  1.0906 -3.6759
28544SOL     OW90761   3.104   3.876   3.350  0.0131 -0.3151 -0.2154
28544SOL    HW190762   3.137   3.946   3.294  1.2504 -1.0474 -0.4176
28544SOL    HW290763   3.129   3.902   3.439  0.5386 -0.5167 -0.2980
28545SOL     OW90764   8.702  10.996   6.533 -0.7288  0.0434  0.0383
28545SOL    HW190765   8.716  11.091   6.537 -1.1838  0.1973 -1.6421
28545SOL    HW290766   8.782  10.962   6.493 -0.4894 -0.3001  0.8103
28546SOL     OW90767  11.155   2.559   4.362 -0.3889 -0.4110 -0.0946
28546SOL    HW190768  11.153   2.477   4.411 -1.6746 -0.5781 -0.4184
28546SOL    HW290769  11.138   2.627   4.428 -2.9751 -0.6986 -0.4000
28547SOL     OW90770   3.657   1.038   3.045 -0.5034 -0.1665 -0.2031
28547SOL    HW190771   3.688   1.004   2.961 -1.7079  0.1216 -0.7730
28547SOL    HW290772   3.570   0.998   3.056  0.0728 -1.0038  1.3888
28548SOL     OW90773  10.943   8.346   3.126  0.0347  0.1672 -0.0685
28548SOL    HW190774  11.009   8.343   3.056 -0.1348  2.8727 -0.4164
28548SOL    HW290775  10.989   8.383   3.201 -0.4758 -0.2114  0.4344
28549SOL     OW90776   7.455  10.790   7.988  0.0611  0.2925  0.3084
28549SOL    HW190777   7.472  10.859   8.053  2.4970 -0.5248  0.5952
28549SOL    HW290778   7.360  10.793   7.975 -0.0807  2.6528  1.4747
28550SOL     OW90779   2.349   3.395  10.857 -0.8089 -0.1003 -0.3601
28550SOL    HW190780   2.367   3.427  10.946  0.7329  0.0999 -0.7330
28550SOL    HW290781   2.291   3.461  10.820 -0.8171  0.2278  0.2200
28551SOL     OW90782   4.634   5.359   7.738 -0.3095  0.7352  0.0385
28551SOL    HW190783   4.645   5.369   7.643 -1.5080  0.1970 -0.1616
28551SOL    HW290784   4.669   5.273   7.758 -0.7817  0.5199 -0.0460
28552SOL     OW90785   2.273  10.973   1.685  0.2202 -0.1313 -0.1721
28552SOL    HW190786   2.227  10.895   1.652  1.0073 -0.8409  0.3876
28552SOL    HW290787   2.295  11.022   1.606 -1.0807 -0.0041 -0.4781
28553SOL     OW90788   2.364   1.511   9.474 -0.4337 -0.1522  0.1036
28553SOL    HW190789   2.351   1.454   9.550 -0.1586 -1.2413 -0.6520
28553SOL    HW290790   2.453   1.544   9.485  0.2409 -1.6507 -0.5951
28554SOL     OW90791   4.876   4.339   0.256  0.2235 -0.5507 -0.5112
28554SOL    HW190792   4.959   4.385   0.245 -0.2768  0.4751 -0.0941
28554SOL    HW290793   4.901   4.249   0.278  1.2452  0.1867  1.5303
28555SOL     OW90794  10.155   3.523   7.585  0.4987 -0.1239 -0.2402
28555SOL    HW190795  10.065   3.530   7.552  0.2958 -1.0697  0.1108
28555SOL    HW290796  10.146   3.531   7.680  0.9317  1.1069 -0.2877
28556SOL     OW90797   9.119   2.344   6.492  0.4371 -0.8833  0.3418
28556SOL    HW190798   9.214   2.356   6.479  0.3072 -1.2654 -1.0250
28556SOL    HW290799   9.082   2.349   6.404 -0.9996  0.7501  1.0152
28557SOL     OW90800   6.252   3.940  10.803 -0.2507 -0.4234 -0.1204
28557SOL    HW190801   6.324   3.878  10.816 -0.0341  0.0535  1.0216
28557SOL    HW290802   6.228   3.930  10.711  0.1416 -1.8171 -0.0793
28558SOL     OW90803   5.025   3.355   7.567  0.0690  0.0616 -0.1353
28558SOL    HW190804   5.100   3.369   7.624 -2.3526  0.4588  3.1399
28558SOL    HW290805   4.995   3.266   7.588 -0.3339 -0.1234 -1.4486
28559SOL     OW90806   4.203   2.822   9.627 -0.4512  0.0680 -0.0139
28559SOL    HW190807   4.276   2.838   9.567 -1.0434  0.6149 -0.6108
28559SOL    HW290808   4.133   2.879   9.594 -0.3393  1.4862  2.0652
28560SOL     OW90809   3.052   9.985   1.419 -0.1973 -0.8867  0.1240
28560SOL    HW190810   3.091  10.022   1.339  0.1327 -0.0542  0.6684
28560SOL    HW290811   3.030  10.061   1.472 -0.5514 -1.4408  0.7709
28561SOL     OW90812   8.307   4.116   8.243  0.3425  0.4779 -0.3069
28561SOL    HW190813   8.251   4.056   8.293  0.9303  1.8449  2.0628
28561SOL    HW290814   8.381   4.062   8.214  1.1856  0.1653  2.3536
28562SOL     OW90815  10.530   1.381  10.686 -0.0210  0.1675  0.1337
28562SOL    HW190816  10.610   1.328  10.691 -0.9335 -1.4794 -1.7823
28562SOL    HW290817  10.489   1.371  10.772  0.6997 -0.8246  0.3667
28563SOL     OW90818   5.950   1.265   2.426  0.0072  0.2931  0.1850
28563SOL    HW190819   5.913   1.309   2.349  1.7045  0.6278 -0.4410
28563SOL    HW290820   5.942   1.329   2.496  0.5335  0.8210 -0.2348
28564SOL     OW90821   3.407   4.644   5.863  0.1166  0.2567 -0.4776
28564SOL    HW190822   3.438   4.704   5.931  2.3298 -0.1362 -1.0813
28564SOL    HW290823   3.423   4.557   5.899  0.2925  0.0523 -1.0463
28565SOL     OW90824   8.259   3.889   9.024 -0.0587 -0.2800 -0.2474
28565SOL    HW190825   8.312   3.874   8.946  1.0134 -1.2215  0.6376
28565SOL    HW290826   8.216   3.973   9.009  1.8475  0.6101 -0.8945
28566SOL     OW90827   7.526  10.756   3.589  0.3128 -0.3806  0.1678
28566SOL    HW190828   7.453  10.698   3.607  0.4721 -0.4010  0.7568
28566SOL    HW290829   7.556  10.731   3.501  0.2555 -1.0486  0.3375
28567SOL     OW90830  11.189   0.654   1.880  0.6263 -0.3502 -0.2578
28567SOL    HW190831  11.175   0.652   1.785 -1.8878 -0.2532  0.0889
28567SOL    HW290832  11.196   0.747   1.902 -0.4294 -0.2921 -0.1387
28568SOL     OW90833   4.468   8.348   0.823  0.1981 -0.0743  0.1380
28568SOL    HW190834   4.394   8.355   0.885  0.1047  0.6240 -0.0509
28568SOL    HW290835   4.540   8.315   0.876 -0.3897 -1.2607  0.2127
28569SOL     OW90836   8.958  10.778   0.276 -0.0749  0.0714 -0.3278
28569SOL    HW190837   9.004  10.756   0.357 -0.0624  1.7500  0.1405
28569SOL    HW290838   9.002  10.857   0.244 -0.5425 -0.1676 -1.6056
28570SOL     OW90839   6.089   2.952   9.404 -0.1486 -0.1409  0.6900
28570SOL    HW190840   6.095   2.877   9.344 -1.0325  0.4634 -0.1647
28570SOL    HW290841   6.077   2.913   9.490  1.2136 -1.0255  0.4881
28571SOL     OW90842   5.219   4.615   5.983  0.6018 -0.4885  0.1403
28571SOL    HW190843   5.271   4.591   5.906 -0.2978  0.7714 -0.8721
28571SOL    HW290844   5.153   4.675   5.950 -0.2460 -0.4854  1.7846
28572SOL     OW90845   3.344  10.324   9.305 -0.1269 -0.4179 -0.2754
28572SOL    HW190846   3.347  10.419   9.318  2.4666 -0.4954 -0.0493
28572SOL    HW290847   3.363  10.311   9.213 -1.1770 -0.6996 -0.4586
28573SOL     OW90848   7.578   2.771   9.391 -0.1603  0.2566 -0.3539
28573SOL    HW190849   7.600   2.809   9.476  1.1761  0.4143 -0.7657
28573SOL    HW290850   7.617   2.684   9.393  1.2530  0.8513 -1.4084
28574SOL     OW90851  11.243   4.103   1.830 -0.3984  0.2222 -0.1170
28574SOL    HW190852  11.233   4.173   1.766 -1.0289  0.0488 -0.2138
28574SOL    HW290853  11.267   4.026   1.778  0.4117  0.3841  0.0007
28575SOL     OW90854   2.077   4.950   2.493 -0.0018 -0.0560 -0.2623
28575SOL    HW190855   2.139   4.881   2.517  0.9168  1.5701  2.3353
28575SOL    HW290856   2.063   4.999   2.575 -0.5066  2.9182 -2.0478
28576SOL     OW90857   2.927   7.171   6.146  0.4676 -0.3067  0.1396
28576SOL    HW190858   2.928   7.210   6.059  1.8907 -1.2957 -0.3026
28576SOL    HW290859   2.879   7.234   6.200 -1.3291 -0.1669 -1.5680
28577SOL     OW90860   2.427   6.741   4.481 -0.0071  0.3883 -0.4723
28577SOL    HW190861   2.447   6.815   4.539  1.3511 -0.3002 -0.0441
28577SOL    HW290862   2.396   6.781   4.400 -0.9167  1.3906  0.3557
28578SOL     OW90863   3.743   3.134   8.316  0.3820 -0.1386 -0.3567
28578SOL    HW190864   3.704   3.048   8.332 -0.4650 -0.0935 -2.0016
28578SOL    HW290865   3.784   3.158   8.398  0.2694 -1.9426  0.2441
28579SOL     OW90866   9.257  10.654   7.123  0.3010  0.0307 -0.4637
28579SOL    HW190867   9.195  10.690   7.059 -1.5186 -0.3031  1.0607
28579SOL    HW290868   9.316  10.726   7.144 -1.5727  1.3368  0.4586
28580SOL     OW90869   0.315   9.455   6.443  0.2874  0.2529 -0.1843
28580SOL    HW190870   0.379   9.512   6.485 -0.7608  0.9243  0.5387
28580SOL    HW290871   0.341   9.453   6.351  1.1633  0.7447  0.0444
28581SOL     OW90872   3.491  10.146   1.088  0.0597 -0.0439  0.4437
28581SOL    HW190873   3.546  10.184   1.020  1.4205 -0.0952  1.4888
28581SOL    HW290874   3.415  10.111   1.041  1.8709 -1.7877 -1.2942
28582SOL     OW90875   6.323   3.546   2.081  0.3306  0.0263  0.2587
28582SOL    HW190876   6.311   3.635   2.113  0.4713  0.0694  0.1879
28582SOL    HW290877   6.417   3.536   2.070  0.2423  0.2255 -0.7662
28583SOL     OW90878   8.543   1.650   2.860  0.1901 -0.0983  0.4231
28583SOL    HW190879   8.536   1.648   2.956 -0.8537 -0.8859  0.3359
28583SOL    HW290880   8.476   1.711   2.832 -0.8111 -1.3330  0.0876
28584SOL     OW90881   3.045   8.913   5.685 -0.0121 -0.3359 -0.2441
28584SOL    HW190882   3.044   8.818   5.696 -0.7546 -0.1407  1.5723
28584SOL    HW290883   3.063   8.926   5.592 -1.1532 -2.2651 -0.7592
28585SOL     OW90884   2.995   8.649   3.716  0.4709  0.1345 -0.1337
28585SOL    HW190885   3.000   8.559   3.683  0.4354  1.0468 -2.7006
28585SOL    HW290886   2.906   8.658   3.749  0.5344 -0.8237  0.3198
28586SOL     OW90887   5.171   7.651   4.654  0.2021  0.0635 -0.2179
28586SOL    HW190888   5.219   7.574   4.684 -0.2479  0.6131  1.9429
28586SOL    HW290889   5.237   7.708   4.614  0.8007 -0.6425 -0.2224
28587SOL     OW90890   4.641   8.126   3.463  0.3022 -0.0010  0.4364
28587SOL    HW190891   4.718   8.176   3.491 -0.8062  1.2220  1.3392
28587SOL    HW290892   4.573   8.147   3.527 -1.1167 -0.2062 -0.9495
28588SOL     OW90893   8.845   7.100   3.574 -0.7273  0.3759 -0.2540
28588SOL    HW190894   8.819   7.179   3.620 -0.0391  0.4384  0.0293
28588SOL    HW290895   8.915   7.129   3.515  1.0271 -0.4235  1.3976
28589SOL     OW90896  10.396   5.820   4.395  0.5283  0.3063  0.6725
28589SOL    HW190897  10.311   5.779   4.407  0.3206 -0.3056 -2.6057
28589SOL    HW290898  10.449   5.754   4.351  1.5099  2.0266 -0.7795
28590SOL     OW90899  10.556   0.315   6.974 -0.0071 -0.3026 -0.2402
28590SOL    HW190900  10.562   0.244   7.039  2.4294 -0.5927 -0.7486
28590SOL    HW290901  10.597   0.279   6.896 -0.6031  0.9753 -1.1453
28591SOL     OW90902   5.971   8.126   3.135  0.2604 -0.0879  0.3385
28591SOL    HW190903   5.904   8.062   3.155 -0.0397 -0.0553 -0.5233
28591SOL    HW290904   5.952   8.201   3.192  0.9245 -0.9469  1.7217
28592SOL     OW90905   4.192   6.416   3.014  0.0779 -0.4145 -0.1955
28592SOL    HW190906   4.135   6.359   2.961 -1.0075  0.2962  0.1819
28592SOL    HW290907   4.131   6.462   3.072  1.2681 -1.3329  1.8310
28593SOL     OW90908   1.400   4.282   6.362  0.2774  0.3678  0.0273
28593SOL    HW190909   1.480   4.255   6.316 -0.3191  0.4917 -1.0988
28593SOL    HW290910   1.377   4.206   6.415  1.4031  0.4991  0.7201
28594SOL     OW90911   4.239   2.322   8.084 -0.0760 -0.1871  0.3930
28594SOL    HW190912   4.234   2.332   7.989  0.7548  0.1977  0.3932
28594SOL    HW290913   4.218   2.409   8.119  0.8382 -0.0220  0.5335
28595SOL     OW90914   4.503   5.635   8.508  0.0683 -0.0543  0.0939
28595SOL    HW190915   4.510   5.725   8.542  0.2325  0.5202 -1.4340
28595SOL    HW290916   4.589   5.597   8.527  0.4682  0.5492 -0.4825
28596SOL     OW90917  10.144   7.997   7.226  0.2311  0.3068 -0.1906
28596SOL    HW190918  10.090   8.048   7.287 -1.6507 -1.3569 -0.4249
28596SOL    HW290919  10.225   7.979   7.275  0.2990  2.2075  0.4249
28597SOL     OW90920   8.366   3.625   2.230 -0.1188 -0.1560 -0.0219
28597SOL    HW190921   8.359   3.631   2.134 -0.2608  0.6718  0.0435
28597SOL    HW290922   8.460   3.633   2.247 -0.0098 -1.0640 -0.1389
28598SOL     OW90923   3.565   5.399   6.210  0.0593  0.0138 -0.5627
28598SOL    HW190924   3.479   5.440   6.195  0.1348 -0.1587 -1.4969
28598SOL    HW290925   3.605   5.453   6.278 -1.2440 -0.5739  0.6773
28599SOL     OW90926  10.095   0.542   1.903  0.0402 -0.3878 -0.1122
28599SOL    HW190927  10.011   0.521   1.862 -0.5685  0.3783  0.7012
28599SOL    HW290928  10.072   0.567   1.992  0.9862  1.1609 -0.2817
28600SOL     OW90929   6.562   8.113   9.990 -0.6412  0.7602  0.1782
28600SOL    HW190930   6.504   8.128  10.065  1.1901 -0.3772  1.8623
28600SOL    HW290931   6.629   8.053  10.023  1.0599  1.4457 -1.9374
28601SOL     OW90932   9.851   5.827   0.635  0.3196  0.4880  0.4474
28601SOL    HW190933   9.943   5.827   0.660  0.0891 -0.6915  1.3322
28601SOL    HW290934   9.843   5.760   0.567  0.1283  0.6636  0.2917
28602SOL     OW90935   5.357   2.924   5.525 -0.3730  0.2596  0.2577
28602SOL    HW190936   5.448   2.950   5.541  0.1124 -1.0837 -0.1920
28602SOL    HW290937   5.364   2.843   5.474 -1.8397  0.6465 -0.5753
28603SOL     OW90938   8.593   6.322   5.360 -0.2601  0.6949 -0.0963
28603SOL    HW190939   8.525   6.269   5.316 -1.2735  1.1437  0.9070
28603SOL    HW290940   8.549   6.356   5.438  1.3756  0.3331  0.9949
28604SOL     OW90941   1.893  10.613   7.094  0.4709 -0.4096 -0.0666
28604SOL    HW190942   1.954  10.561   7.147  0.4405 -0.0944  0.2817
28604SOL    HW290943   1.881  10.693   7.144  1.4924  0.4664 -1.1956
28605SOL     OW90944   8.254  10.599   8.272  0.0354 -0.0652  0.0439
28605SOL    HW190945   8.251  10.522   8.215  1.0432  0.0435 -0.1748
28605SOL    HW290946   8.304  10.571   8.349 -0.2070  0.1625  0.2841
28606SOL     OW90947   9.638   3.673   2.916 -0.1228  0.4105 -0.4045
28606SOL    HW190948   9.647   3.578   2.924  0.8740  0.7748  3.2978
28606SOL    HW290949   9.727   3.707   2.925 -0.5212  1.7587 -1.3104
28607SOL     OW90950   8.155   5.994   5.839  0.3228  0.6181 -0.3758
28607SOL    HW190951   8.225   5.991   5.904  1.9922  1.0663 -2.0813
28607SOL    HW290952   8.102   6.070   5.864 -1.1401 -1.2810  2.4551
28608SOL     OW90953   0.603   5.903   8.493 -0.1061  0.1761 -0.7261
28608SOL    HW190954   0.592   5.931   8.402  0.0207  0.9780 -0.5007
28608SOL    HW290955   0.514   5.895   8.527 -0.1346  0.8053 -0.6475
28609SOL     OW90956   3.559   8.917   8.987 -0.2761  0.3651 -0.0169
28609SOL    HW190957   3.633   8.883   8.938 -0.8473  0.1122 -0.7004
28609SOL    HW290958   3.593   8.996   9.029  1.1864 -1.2456  1.9441
28610SOL     OW90959  10.076   4.446   2.798 -0.3302  0.1138 -0.6083
28610SOL    HW190960  10.011   4.511   2.772 -0.5495 -0.0829 -0.5565
28610SOL    HW290961  10.029   4.389   2.859  0.4422  1.1511  1.0072
28611SOL     OW90962   6.787   2.228   8.503 -0.3161  0.3133  0.4216
28611SOL    HW190963   6.779   2.311   8.551  0.0265  0.9467 -0.6073
28611SOL    HW290964   6.880   2.221   8.484 -0.3876 -0.1768  0.2535
28612SOL     OW90965   0.580  10.886   3.368 -0.1323  0.0098  0.3479
28612SOL    HW190966   0.541  10.915   3.450 -0.4798  3.1616 -0.8699
28612SOL    HW290967   0.507  10.849   3.319 -0.5637  1.0214  0.2145
28613SOL     OW90968   0.190   2.250   3.027  0.5250 -0.3205 -0.3318
28613SOL    HW190969   0.213   2.169   3.072 -2.2296 -1.5653 -1.0483
28613SOL    HW290970   0.268   2.272   2.975  3.2990  0.4994  3.9464
28614SOL     OW90971   5.729  10.365   8.679  0.7708  0.5734 -0.1392
28614SOL    HW190972   5.760  10.455   8.670  0.2956  0.7990  0.4282
28614SOL    HW290973   5.746  10.325   8.593  1.1295  1.1537 -0.3442
28615SOL     OW90974   1.971   0.434   8.649 -0.4072 -0.8066 -0.0480
28615SOL    HW190975   2.039   0.434   8.717  1.3859 -0.2597 -1.8081
28615SOL    HW290976   2.017   0.455   8.569 -2.5500 -1.2287 -1.4319
28616SOL     OW90977   8.569   2.371   1.963  0.2081 -0.3841 -0.1975
28616SOL    HW190978   8.542   2.284   1.935  1.0441 -0.3473 -1.1399
28616SOL    HW290979   8.623   2.356   2.040 -2.9643 -0.4207  2.1131
28617SOL     OW90980   8.114   7.111   6.418  0.0976  0.2317  0.1467
28617SOL    HW190981   8.077   7.034   6.376  0.7086 -0.6910  1.2655
28617SOL    HW290982   8.094   7.184   6.359  0.6530 -0.9787 -1.5290
28618SOL     OW90983   0.066   2.449   8.331 -0.2631  0.1622  0.6621
28618SOL    HW190984   0.002   2.520   8.340  1.7789  2.1927 -0.2258
28618SOL    HW290985   0.150   2.492   8.342  1.0306 -2.1555  0.0567
28619SOL     OW90986   1.690   1.672   4.950 -0.7181  0.1128 -0.4831
28619SOL    HW190987   1.683   1.762   4.982  1.2027  0.1948 -0.2587
28619SOL    HW290988   1.734   1.681   4.865  1.8401 -0.8171  0.7149
28620SOL     OW90989   6.146  11.272   2.574 -0.1131 -0.0872  0.0929
28620SOL    HW190990   6.144  11.303   2.664 -1.0911  2.9322 -0.9282
28620SOL    HW290991   6.236  11.284   2.546 -0.2254  0.7683  0.0837
28621SOL     OW90992   1.236   5.894   6.719  0.6270  0.3937 -0.2017
28621SOL    HW190993   1.319   5.938   6.735  0.0087  1.6431 -0.3468
28621SOL    HW290994   1.170   5.963   6.727 -0.5035 -0.7826  0.9947
28622SOL     OW90995  10.458   5.968   8.034  0.0547  0.2237  0.2499
28622SOL    HW190996  10.397   6.035   8.006 -0.0974  0.5454  1.3387
28622SOL    HW290997  10.518   6.013   8.093  0.1856 -0.5085  0.6776
28623SOL     OW90998   1.925   0.714   4.380  0.1055  0.2503  0.2640
28623SOL    HW190999   1.908   0.647   4.445 -1.5462 -0.9856 -1.3946
28623SOL    HW291000   1.944   0.793   4.431 -1.1147 -0.6927  2.2284
28624SOL     OW91001   8.855   9.466   3.574  0.0490 -0.0287  0.4267
28624SOL    HW191002   8.835   9.559   3.583 -0.4036 -0.2963  2.5007
28624SOL    HW291003   8.791   9.433   3.511 -0.9467  0.7195  1.0418
28625SOL     OW91004   5.501  11.191   7.201 -0.3917 -0.2542  0.5237
28625SOL    HW191005   5.413  11.213   7.231 -0.1636  0.9026  0.3728
28625SOL    HW291006   5.495  11.192   7.105 -0.2154 -0.1454  0.5126
28626SOL     OW91007   0.621   8.997  10.535  0.6957  0.0550 -0.0225
28626SOL    HW191008   0.555   8.933  10.512  0.3372  0.1452  0.7386
28626SOL    HW291009   0.693   8.946  10.572  1.4247 -0.1250 -1.6657
28627SOL     OW91010   3.416   4.468   4.159 -0.2561 -0.6921  0.1296
28627SOL    HW191011   3.428   4.506   4.245  0.3310 -1.0562  0.2103
28627SOL    HW291012   3.449   4.534   4.098 -0.1924 -0.6477  0.2126
28628SOL     OW91013   6.247   5.328  11.031  0.2100  0.7228  0.3350
28628SOL    HW191014   6.177   5.295  11.087  0.8233 -0.3415  0.4895
28628SOL    HW291015   6.291   5.250  10.999  0.4922  1.3487 -0.8455
28629SOL     OW91016   6.120   9.695   8.275  0.0923  0.7894  0.6494
28629SOL    HW191017   6.196   9.729   8.323  0.8497  0.6892 -0.4598
28629SOL    HW291018   6.108   9.756   8.202  0.3981 -0.3317 -0.3704
28630SOL     OW91019   5.407   6.716   9.362  0.4293  0.0102  0.4073
28630SOL    HW191020   5.358   6.797   9.365  0.7235  0.2240 -0.3356
28630SOL    HW291021   5.365   6.664   9.293 -1.6004 -1.6913  2.8505
28631SOL     OW91022   9.061  10.869   5.131 -0.0360  0.2021 -0.3194
28631SOL    HW191023   9.097  10.799   5.077 -1.0282  0.7997 -1.7921
28631SOL    HW291024   8.984  10.831   5.173 -0.4766  0.3550 -0.9858
28632SOL     OW91025   5.675   7.917   3.740  0.5329  0.0911 -0.0637
28632SOL    HW191026   5.692   7.917   3.646 -1.9351  2.5287 -0.5708
28632SOL    HW291027   5.584   7.888   3.748  2.0068 -4.5078  1.9438
28633SOL     OW91028   7.417   6.270   2.990 -0.6938  0.1594  0.5475
28633SOL    HW191029   7.352   6.224   2.937  0.8284 -0.8826 -0.4596
28633SOL    HW291030   7.380   6.357   3.003 -0.6710  0.8263 -3.1512
28634SOL     OW91031   7.372   5.289  10.155 -0.4492 -0.2040  0.6216
28634SOL    HW191032   7.309   5.339  10.207 -0.4082 -0.0567  0.5323
28634SOL    HW291033   7.449   5.282  10.212 -1.4052 -2.4920  1.6797
28635SOL     OW91034   2.783   6.902   9.356  0.2232 -0.3526 -0.4622
28635SOL    HW191035   2.712   6.900   9.292 -0.8445  1.1465  0.6454
28635SOL    HW291036   2.741   6.882   9.440  1.3378 -0.7755  0.0048
28636SOL     OW91037  11.286   4.435  11.315 -0.3264  0.5568  0.3125
28636SOL    HW191038  11.235   4.366  11.358  0.5219  0.2271  0.7955
28636SOL    HW291039  11.376   4.403  11.317  0.0898  1.7349  0.6368
28637SOL     OW91040   0.665   3.829   2.652 -0.2177 -0.4963  0.3119
28637SOL    HW191041   0.627   3.742   2.639  0.2231 -0.6713  0.1885
28637SOL    HW291042   0.589   3.887   2.658 -0.4996 -0.5240 -2.2287
28638SOL     OW91043   2.282   3.629   8.722 -0.1101  0.3229  0.9227
28638SOL    HW191044   2.363   3.664   8.686 -0.2497  0.1017  0.3863
28638SOL    HW291045   2.305   3.542   8.754 -0.3353 -0.0957 -0.0406
28639SOL     OW91046   4.612   4.036   2.531  0.2941  0.0581  0.2299
28639SOL    HW191047   4.597   4.077   2.616 -2.0616 -1.7906  0.7558
28639SOL    HW291048   4.687   3.978   2.545 -1.3467 -1.7928  1.6525
28640SOL     OW91049   0.933   6.335   1.798  0.0231 -0.1319 -0.7882
28640SOL    HW191050   0.983   6.253   1.787  0.8206  0.1279  0.7764
28640SOL    HW291051   0.874   6.317   1.871 -0.3628  0.4252 -0.9676
28641SOL     OW91052   5.246   2.473  10.415 -0.1154  0.1008 -0.9356
28641SOL    HW191053   5.312   2.477  10.345  0.7753 -2.3833 -0.3283
28641SOL    HW291054   5.198   2.392  10.398  0.4899 -0.8527  1.6055
28642SOL     OW91055   0.404   9.527   6.194 -0.0998 -0.6193  0.0698
28642SOL    HW191056   0.408   9.622   6.184 -1.3365 -0.7578 -1.9323
28642SOL    HW291057   0.455   9.492   6.121 -3.8294 -1.5548 -2.2128
28643SOL     OW91058   1.367   6.921   7.058  0.0502  0.1777 -0.0218
28643SOL    HW191059   1.293   6.941   7.116 -0.1980  0.5819 -0.4793
28643SOL    HW291060   1.407   7.006   7.039  0.7804 -0.0638  0.4172
28644SOL     OW91061  11.166   9.727   5.427 -0.4325 -0.0006 -0.3669
28644SOL    HW191062  11.100   9.744   5.494 -0.1123  0.7237 -0.2256
28644SOL    HW291063  11.186   9.814   5.391  0.3243 -0.2344 -0.5155
28645SOL     OW91064   7.627   9.502   9.984 -0.3180 -0.0850  0.4025
28645SOL    HW191065   7.595   9.481  10.071  0.3699 -0.4904  0.5689
28645SOL    HW291066   7.662   9.418   9.951 -1.1191 -0.0774 -0.4978
28646SOL     OW91067   8.969   4.687   0.584 -1.0812 -0.1806  0.5212
28646SOL    HW191068   9.053   4.724   0.558  0.1847 -1.8955  1.9949
28646SOL    HW291069   8.923   4.672   0.502  0.4491 -0.1013 -0.3757
28647SOL     OW91070   5.337  10.201   1.065 -0.0527 -0.3319 -0.1926
28647SOL    HW191071   5.376  10.114   1.052 -0.8444 -0.8339  0.7049
28647SOL    HW291072   5.319  10.205   1.159 -0.8359  0.4468 -0.3687
28648SOL     OW91073   9.037   4.142   6.778 -0.2897 -0.4425  0.0818
28648SOL    HW191074   8.967   4.088   6.741  0.7342 -2.0804  0.4895
28648SOL    HW291075   9.005   4.166   6.865 -1.1424  0.4151 -0.4495
28649SOL     OW91076   7.782   3.449   5.865  0.0984 -0.2758  0.7165
28649SOL    HW191077   7.749   3.455   5.775  1.1086 -2.4343  0.1529
28649SOL    HW291078   7.835   3.528   5.877  1.2134 -0.6983 -1.1452
28650SOL     OW91079   8.798   8.546   3.729  0.4781  0.1074 -0.0852
28650SOL    HW191080   8.882   8.500   3.731  0.8981  0.8522 -0.2524
28650SOL    HW291081   8.734   8.482   3.762  1.5901  0.5281  3.0416
28651SOL     OW91082   8.575   7.487   4.673 -0.0082 -0.0133 -0.0976
28651SOL    HW191083   8.559   7.398   4.706 -1.0990  0.4151  0.5720
28651SOL    HW291084   8.642   7.523   4.732  0.2824 -0.3225 -0.2414
28652SOL     OW91085   3.824   7.178   3.950 -0.0665 -0.7403  0.0152
28652SOL    HW191086   3.897   7.223   3.908 -1.0059  1.3732  0.5683
28652SOL    HW291087   3.771   7.145   3.877 -1.4267  2.4824 -0.5346
28653SOL     OW91088   6.621   3.341   9.149  0.8725  0.2295 -0.0693
28653SOL    HW191089   6.607   3.413   9.211  1.6895 -1.2064  1.8557
28653SOL    HW291090   6.627   3.384   9.064 -0.7399  2.2324  0.7599
28654SOL     OW91091   8.609   6.234  10.069  0.5783 -0.0676  0.0689
28654SOL    HW191092   8.702   6.253  10.060  0.0883  1.7088 -1.3301
28654SOL    HW291093   8.587   6.183   9.992  0.4916 -0.9404  0.6602
28655SOL     OW91094   3.742   8.639   1.765 -0.2444  0.3100 -0.1143
28655SOL    HW191095   3.770   8.711   1.709 -0.6258 -0.4169 -1.2581
28655SOL    HW291096   3.668   8.675   1.815 -0.7244  0.5636 -1.0094
28656SOL     OW91097   4.664   3.835   0.577  0.1735  0.2913 -0.5824
28656SOL    HW191098   4.648   3.790   0.494 -1.0626  0.5790 -0.5118
28656SOL    HW291099   4.655   3.928   0.556  1.4518  0.4596 -0.4530
28657SOL     OW91100   7.950   2.583   2.362  0.5922 -0.1415  0.1143
28657SOL    HW191101   7.955   2.489   2.344 -2.0842 -0.2832  0.0024
28657SOL    HW291102   8.007   2.622   2.296 -0.3569 -1.5034 -1.5530
28658SOL     OW91103   5.850   7.912   4.920 -0.5150 -0.0746 -0.7898
28658SOL    HW191104   5.779   7.946   4.975 -0.3550 -0.8220 -0.0919
28658SOL    HW291105   5.904   7.988   4.900  0.2357 -0.0044  1.3282
28659SOL     OW91106   5.403   6.486   9.824 -0.5164  0.1983  0.2880
28659SOL    HW191107   5.398   6.529   9.739 -0.9815 -0.5446 -0.0650
28659SOL    HW291108   5.312   6.472   9.849 -0.3714 -0.3047  0.5417
28660SOL     OW91109  10.994   3.998   1.912 -0.1020 -0.4498 -0.2945
28660SOL    HW191110  11.079   4.038   1.894  0.3741 -0.6413  1.4464
28660SOL    HW291111  10.979   3.939   1.838  1.3027 -0.4368 -0.5972
28661SOL     OW91112   4.563   3.998   8.319 -0.3829  0.4433  0.0613
28661SOL    HW191113   4.472   3.985   8.293 -0.5528 -0.5590  1.1241
28661SOL    HW291114   4.563   3.984   8.413  1.1394 -1.0640 -0.1319
28662SOL     OW91115  10.283   1.042   7.450  0.5106  0.2268  0.0471
28662SOL    HW191116  10.337   0.981   7.502  1.2351 -0.1136 -1.0840
28662SOL    HW291117  10.196   1.004   7.452  0.6697 -0.1278  0.4658
28663SOL     OW91118   6.089   1.914   1.301  0.4546 -0.5239  0.2105
28663SOL    HW191119   6.130   1.890   1.384 -1.3271  0.5241  1.4064
28663SOL    HW291120   6.070   2.007   1.309  2.6365  0.2115 -2.4201
28664SOL     OW91121   3.830   7.328   2.152 -0.1388 -0.3012 -0.4197
28664SOL    HW191122   3.849   7.353   2.062 -1.5523 -0.9716 -0.9287
28664SOL    HW291123   3.900   7.266   2.175  0.7362  0.5651 -0.7375
28665SOL     OW91124   1.745   3.691   6.854 -0.3873 -0.1106 -1.0291
28665SOL    HW191125   1.744   3.608   6.902  0.2031  0.0605 -0.7239
28665SOL    HW291126   1.700   3.753   6.911  1.6939  0.4831  0.0152
28666SOL     OW91127   8.194   2.044   0.212  0.1676 -0.6196 -0.2449
28666SOL    HW191128   8.129   2.055   0.143  0.5922 -2.4786 -0.9703
28666SOL    HW291129   8.160   1.974   0.267 -0.1456  0.8065  1.4393
28667SOL     OW91130   7.465  10.899   5.825 -0.5242  0.4832  0.1455
28667SOL    HW191131   7.518  10.839   5.877  1.2310  0.5441 -1.5123
28667SOL    HW291132   7.411  10.946   5.889 -0.3509 -1.3202  1.6380
28668SOL     OW91133   3.520   2.076   4.184  0.1001  0.4961 -0.2798
28668SOL    HW191134   3.525   1.999   4.128  1.4195  0.5647 -0.2659
28668SOL    HW291135   3.611   2.105   4.194 -0.2199  1.0924  1.0446
28669SOL     OW91136   4.209   6.863   3.016  0.9255 -0.1728 -0.0144
28669SOL    HW191137   4.295   6.889   3.048  1.7513 -0.7212 -1.7071
28669SOL    HW291138   4.201   6.906   2.931 -0.8682  0.6121  0.5356
28670SOL     OW91139   1.304   5.828   1.235  0.1599  0.1125 -0.2536
28670SOL    HW191140   1.346   5.776   1.168 -0.1334  0.1511 -0.4674
28670SOL    HW291141   1.252   5.766   1.285 -0.9001  0.3380 -1.0640
28671SOL     OW91142   6.907  10.602   5.119  0.4339  0.6486  0.0631
28671SOL    HW191143   6.879  10.565   5.203 -3.0035 -0.6286 -1.5370
28671SOL    HW291144   6.839  10.666   5.097  1.3380  1.0363 -1.6833
28672SOL     OW91145   7.164   1.042   6.338  0.2426  0.1302 -0.3873
28672SOL    HW191146   7.236   1.002   6.290  1.6144  1.2100  0.7170
28672SOL    HW291147   7.207   1.092   6.408 -1.6410 -0.4438  1.2219
28673SOL     OW91148   3.749  10.763   5.943  0.0759  0.0384  0.0880
28673SOL    HW191149   3.750  10.683   5.995  0.9869 -0.6992 -1.0302
28673SOL    HW291150   3.718  10.831   6.004  1.6255 -0.6913  1.7406
28674SOL     OW91151   2.418   3.649  10.258  0.3175 -0.2662 -0.1658
28674SOL    HW191152   2.473   3.572  10.274  1.0093 -0.2999 -2.5063
28674SOL    HW291153   2.400   3.646  10.164  0.3895  2.4575 -0.3029
28675SOL     OW91154   6.742   1.983   8.000 -0.3959  0.1030 -0.2324
28675SOL    HW191155   6.709   2.028   8.078 -2.6126  0.5858 -1.4258
28675SOL    HW291156   6.796   2.049   7.956 -0.2324  0.2502  0.1800
28676SOL     OW91157   6.771   4.612   7.449  0.4531  0.5570  0.3895
28676SOL    HW191158   6.795   4.526   7.413  1.0560 -0.0853  2.2760
28676SOL    HW291159   6.676   4.611   7.451  0.4695 -0.4839  1.3405
28677SOL     OW91160   6.152   9.638   2.532  0.8476  0.4544 -0.3298
28677SOL    HW191161   6.204   9.592   2.598  0.7488 -0.6076 -0.9734
28677SOL    HW291162   6.215   9.660   2.464  0.7208  0.4613 -0.4437
28678SOL     OW91163   9.938   5.604   2.641 -0.4915  0.0111  0.0938
28678SOL    HW191164   9.905   5.514   2.650 -0.2297 -0.2446 -1.2563
28678SOL    HW291165   9.908   5.649   2.719 -1.4451 -1.0098  0.3334
28679SOL     OW91166   4.340   0.602   0.817  0.6888  0.2195  0.4393
28679SOL    HW191167   4.413   0.643   0.769 -0.4091  0.4172 -1.0788
28679SOL    HW291168   4.271   0.668   0.815  0.0305 -0.4623  0.8082
28680SOL     OW91169   7.928   0.085   1.192  0.0673 -0.0286  0.1923
28680SOL    HW191170   7.880   0.110   1.113  0.2825  2.3169  0.7538
28680SOL    HW291171   7.860   0.071   1.258  0.0588  2.0918  0.6630
28681SOL     OW91172   6.417  10.515  10.269  0.0377 -0.2188 -0.2970
28681SOL    HW191173   6.439  10.606  10.249  2.3915 -0.2446  1.8453
28681SOL    HW291174   6.480  10.490  10.336 -0.3787 -3.5445 -1.0703
28682SOL     OW91175   2.333   4.284  11.124 -0.1812 -0.5995 -0.5057
28682SOL    HW191176   2.382   4.243  11.053 -1.5901 -0.6243 -1.5041
28682SOL    HW291177   2.382   4.363  11.145  0.5200 -0.8525 -1.1724
28683SOL     OW91178   7.024   2.291   0.441 -0.3231  0.4105 -0.6361
28683SOL    HW191179   6.940   2.320   0.405 -0.5691  0.6563  0.1049
28683SOL    HW291180   7.087   2.358   0.413 -0.9657  1.9496  1.4077
28684SOL     OW91181   8.786   2.724   9.367 -0.0290 -0.2032 -0.0314
28684SOL    HW191182   8.853   2.785   9.396 -0.9956  0.9269 -0.1553
28684SOL    HW291183   8.738   2.771   9.299 -1.0784 -0.9302  0.1875
28685SOL     OW91184  11.061  10.043   2.862 -0.1747 -0.2210  0.6070
28685SOL    HW191185  11.114  10.109   2.818 -1.0828  2.1490  2.9515
28685SOL    HW291186  11.095  10.041   2.952 -3.6144  0.9082  1.9814
28686SOL     OW91187  11.323   2.999   3.956  0.6661  0.7799  0.2768
28686SOL    HW191188  11.360   3.046   3.881  1.3141  2.2375  1.5000
28686SOL    HW291189  11.389   3.005   4.024 -0.0630 -0.2617  1.0959
28687SOL     OW91190   7.217   1.397   6.333  0.1650  0.2615  0.9615
28687SOL    HW191191   7.297   1.438   6.366  0.3184  0.1553  0.7224
28687SOL    HW291192   7.152   1.412   6.402 -0.0544  1.7773  0.4638
28688SOL     OW91193   0.635   3.729   0.160  0.0149 -0.6811 -0.4785
28688SOL    HW191194   0.602   3.706   0.247  0.8085  0.6078  0.1792
28688SOL    HW291195   0.574   3.686   0.100 -1.8164  0.1634  0.7109
28689SOL     OW91196   7.805   9.270  10.723 -0.1659  0.2557 -0.0389
28689SOL    HW191197   7.838   9.248  10.810 -1.6959  0.3708  0.5856
28689SOL    HW291198   7.878   9.314  10.680  0.7270 -0.1552  1.0526
28690SOL     OW91199   1.704   8.386  10.407 -0.3088 -0.0269 -0.1756
28690SOL    HW191200   1.690   8.296  10.379  0.0506  0.3289 -1.5782
28690SOL    HW291201   1.660   8.439  10.340 -0.8570  0.8234  0.8459
28691SOL     OW91202   4.141   3.268   2.504  0.1239  0.1490  0.6102
28691SOL    HW191203   4.202   3.320   2.451 -2.0232  1.9705 -0.1609
28691SOL    HW291204   4.170   3.282   2.595  1.6742 -0.1363  0.1710
28692SOL     OW91205   3.305   7.529  11.139 -0.7351 -0.1297  0.3927
28692SOL    HW191206   3.312   7.584  11.217 -1.7078  0.3921  0.1282
28692SOL    HW291207   3.281   7.443  11.172  1.8270 -0.6894  0.8991
28693SOL     OW91208   1.670   3.064   4.706  0.0056 -0.1571 -0.1711
28693SOL    HW191209   1.700   3.069   4.797 -0.7152 -0.5329  0.0904
28693SOL    HW291210   1.733   3.117   4.657 -0.2712  1.0152  0.7123
28694SOL     OW91211   0.414   1.336   9.813  0.2042 -0.4442 -0.2282
28694SOL    HW191212   0.389   1.257   9.859 -2.7073  0.6816  0.2435
28694SOL    HW291213   0.505   1.322   9.788  0.1436 -3.3461  1.0224
28695SOL     OW91214   3.898   6.312   3.561 -0.0580 -0.3661 -0.2611
28695SOL    HW191215   3.906   6.384   3.624 -1.4533 -0.0778 -0.3740
28695SOL    HW291216   3.880   6.356   3.478  0.0373 -0.8059 -0.5136
28696SOL     OW91217   2.909   2.995   8.979  0.0251  0.3430 -0.1686
28696SOL    HW191218   2.961   2.969   9.056 -1.3133 -0.8003  0.3510
28696SOL    HW291219   2.924   2.925   8.915  1.6244  1.5903 -1.2221
28697SOL     OW91220   6.973   9.816   3.385 -0.0810 -0.0146 -0.2903
28697SOL    HW191221   7.065   9.791   3.396  0.2700  1.4415  0.3206
28697SOL    HW291222   6.926   9.766   3.450  0.3813 -0.2752 -0.1544
28698SOL     OW91223   6.081   4.577   1.213 -0.1546  0.7714 -0.3921
28698SOL    HW191224   6.176   4.578   1.207 -0.0601 -1.6212  0.3229
28698SOL    HW291225   6.062   4.604   1.303 -0.0591 -0.4882  0.0186
28699SOL     OW91226  10.734   9.781   8.818 -0.6070 -0.0563  0.2973
28699SOL    HW191227  10.744   9.686   8.815  0.2622  0.0240  0.3847
28699SOL    HW291228  10.796   9.813   8.752  0.3236  0.5242  1.4272
28700SOL     OW91229   2.771   7.547  10.895 -0.2935 -0.1242  0.4801
28700SOL    HW191230   2.837   7.479  10.881 -0.5939  0.0475 -1.9185
28700SOL    HW291231   2.822   7.628  10.900 -0.1221 -0.2683  1.1277
28701SOL     OW91232   0.862  10.189   5.005 -0.4736  0.0087  0.6177
28701SOL    HW191233   0.909  10.272   5.002  1.3996 -0.9790  1.3396
28701SOL    HW291234   0.836  10.179   5.097  1.6643 -1.4325  1.0978
28702SOL     OW91235   8.913  10.216   4.153  0.2671 -0.8284  0.5586
28702SOL    HW191236   8.931  10.123   4.169 -0.5283 -1.3838 -1.5743
28702SOL    HW291237   8.833  10.233   4.201  0.4358 -1.2270  0.9930
28703SOL     OW91238   8.947  11.014   6.377  0.4992 -0.3752 -0.0856
28703SOL    HW191239   8.998  11.038   6.299  1.6228 -0.7111  0.5329
28703SOL    HW291240   8.975  11.077   6.444  0.0254 -0.4993  0.2289
28704SOL     OW91241   3.771   0.277   1.964 -0.2135  0.2884  0.0560
28704SOL    HW191242   3.718   0.197   1.959  1.0938 -0.7059  1.5011
28704SOL    HW291243   3.789   0.288   2.057  0.3524  1.7870 -0.2181
28705SOL     OW91244   3.202   8.245  10.312 -0.4164  0.1991 -0.0327
28705SOL    HW191245   3.211   8.157  10.349  0.5217  0.5459  0.5681
28705SOL    HW291246   3.196   8.231  10.218 -0.4803 -0.5222  0.0782
28706SOL     OW91247   6.702   8.119   8.601 -0.2469  0.1299  0.6585
28706SOL    HW191248   6.687   8.213   8.602 -0.9688  0.0112  1.3825
28706SOL    HW291249   6.628   8.084   8.551  0.6425  0.0495 -0.6233
28707SOL     OW91250  10.267  11.273   6.687 -0.0637  0.0956 -0.7203
28707SOL    HW191251  10.266  11.181   6.711 -1.3036  0.3890  0.3966
28707SOL    HW291252  10.295  11.273   6.595  1.2741 -1.2804 -0.3247
28708SOL     OW91253   4.513   5.865   6.494  0.4599 -0.1212  0.0739
28708SOL    HW191254   4.563   5.936   6.534  1.4339 -0.5148 -0.4301
28708SOL    HW291255   4.487   5.810   6.568 -0.2980  0.7471  0.4643
28709SOL     OW91256   6.844   4.875   6.344  0.4177 -0.4334  0.4868
28709SOL    HW191257   6.823   4.787   6.376  0.5375 -0.1241  1.4326
28709SOL    HW291258   6.780   4.932   6.387  0.3506 -0.0480 -0.1137
28710SOL     OW91259   9.415   2.712   8.220 -0.1825 -0.2417  0.4640
28710SOL    HW191260   9.360   2.696   8.296 -1.4236  0.1898 -0.3126
28710SOL    HW291261   9.475   2.637   8.217 -1.1376 -1.0429  0.9792
28711SOL     OW91262   8.057   2.556   8.980  0.6052 -0.1242  0.1294
28711SOL    HW191263   7.997   2.491   9.017  1.3312 -0.7620  0.2021
28711SOL    HW291264   8.087   2.606   9.056  0.5740 -0.1505  0.1588
28712SOL     OW91265   5.394   5.292   5.150 -0.5273 -0.4499  0.1477
28712SOL    HW191266   5.382   5.308   5.057  2.2119  0.3960 -0.1165
28712SOL    HW291267   5.470   5.233   5.155 -0.4706 -0.2749  1.8542
28713SOL     OW91268   8.643   5.518   3.626 -0.2327 -0.1292  0.2859
28713SOL    HW191269   8.562   5.566   3.638 -0.6985 -0.7518 -0.2801
28713SOL    HW291270   8.711   5.585   3.622 -0.8620  0.4756 -0.4099
28714SOL     OW91271   5.922   1.794   2.857 -0.5437  0.6438 -0.1274
28714SOL    HW191272   5.941   1.767   2.767  0.5554  0.4029  0.1714
28714SOL    HW291273   5.830   1.821   2.855 -1.1254 -1.3321 -0.8503
28715SOL     OW91274  10.380   1.541   2.440 -0.2225  0.1488  0.3921
28715SOL    HW191275  10.401   1.448   2.428  0.7523  0.1106  2.2530
28715SOL    HW291276  10.396   1.580   2.354  4.6419 -0.4550  0.8883
28716SOL     OW91277   7.866   9.736   0.587 -0.4078 -0.2756 -0.1644
28716SOL    HW191278   7.844   9.816   0.634 -0.5734 -0.7241  0.5156
28716SOL    HW291279   7.818   9.743   0.504  0.1259  0.6472 -0.3958
28717SOL     OW91280   1.353   9.520  10.348  0.0807 -0.3612  0.5567
28717SOL    HW191281   1.435   9.496  10.391  0.3467 -1.1309 -0.3581
28717SOL    HW291282   1.372   9.603  10.304  0.0851 -0.0578  1.1266
28718SOL     OW91283   3.754   2.092   4.993 -0.0839  0.4629  0.2319
28718SOL    HW191284   3.750   2.010   4.945 -0.2775  0.0078  1.0043
28718SOL    HW291285   3.810   2.149   4.941  1.8095 -0.8860  0.7772
28719SOL     OW91286   6.056   1.774   6.531 -0.1010 -0.2114 -0.1537
28719SOL    HW191287   6.134   1.829   6.523  0.7130 -1.1957  0.8405
28719SOL    HW291288   6.001   1.820   6.595  0.6806 -0.6752  0.8528
28720SOL     OW91289   8.051  10.772   8.355  0.0984  0.0356 -0.3337
28720SOL    HW191290   8.105  10.738   8.427 -1.6693  1.0069  1.5150
28720SOL    HW291291   8.096  10.744   8.276  2.3183 -0.7436  1.1495
28721SOL     OW91292   8.689  10.167  10.912 -0.0817  1.0153 -0.1681
28721SOL    HW191293   8.640  10.140  10.834 -0.1017  1.3342 -0.2692
28721SOL    HW291294   8.648  10.250  10.938  2.0354  2.6402 -1.7900
28722SOL     OW91295   6.281   1.915   6.442  0.1012  0.1953 -0.3064
28722SOL    HW191296   6.357   1.869   6.477 -0.0967 -0.5006 -0.7652
28722SOL    HW291297   6.305   1.937   6.352 -0.5404 -0.7446 -0.7143
28723SOL     OW91298  10.610  11.064   3.330  0.4757  0.2712 -0.6607
28723SOL    HW191299  10.601  11.040   3.238  1.1442  0.4885 -0.7871
28723SOL    HW291300  10.615  11.160   3.329  1.3522  0.2253 -0.4773
28724SOL     OW91301   2.471   2.220   4.572 -0.8272  0.2243  0.5143
28724SOL    HW191302   2.424   2.289   4.619 -0.1392  1.9987 -1.2929
28724SOL    HW291303   2.406   2.182   4.513 -0.9636 -0.0073  0.8133
28725SOL     OW91304  11.284  10.556   0.291 -0.1525  0.1882 -0.4137
28725SOL    HW191305  11.361  10.609   0.311 -1.0609  0.9748  1.0818
28725SOL    HW291306  11.244  10.601   0.216 -0.7035  1.4134  0.5966
28726SOL     OW91307   9.865   5.155   1.624  0.2986  0.1317 -0.4641
28726SOL    HW191308   9.771   5.172   1.622  0.5356  1.3075 -1.6379
28726SOL    HW291309   9.901   5.222   1.683  0.1982 -1.3994  1.3957
28727SOL     OW91310   0.167   0.034   7.062 -0.3988 -0.4486 -0.3848
28727SOL    HW191311   0.250   0.032   7.109 -0.1977 -2.2660 -0.7535
28727SOL    HW291312   0.130   0.120   7.080  0.9485 -0.1212  0.8593
28728SOL     OW91313   8.937  10.470   8.336  0.0604 -0.2299 -0.1437
28728SOL    HW191314   8.966  10.395   8.284  1.2416  1.4590 -1.9691
28728SOL    HW291315   8.842  10.457   8.346  0.0322 -1.2692 -1.6046
28729SOL     OW91316   3.559   5.925   1.345  0.2709  0.0583 -0.6184
28729SOL    HW191317   3.639   5.876   1.323  0.9234  1.6624 -1.8954
28729SOL    HW291318   3.530   5.886   1.427  3.2916  0.5407  0.7547
28730SOL     OW91319   2.893   8.961   2.646  0.2150  0.2254 -0.1016
28730SOL    HW191320   2.810   9.008   2.654  0.1182 -0.0155  0.3047
28730SOL    HW291321   2.867   8.870   2.630  0.4033  0.1298  0.1414
28731SOL     OW91322   5.601   1.817   2.605 -0.2471  0.2808 -0.3788
28731SOL    HW191323   5.582   1.723   2.614  0.8422  0.1212  0.3264
28731SOL    HW291324   5.561   1.841   2.521 -1.9958 -0.4295  0.2229
28732SOL     OW91325   6.347   6.592   5.927 -0.1216 -1.4477 -0.2453
28732SOL    HW191326   6.285   6.599   5.854 -0.7737 -1.7219  0.2825
28732SOL    HW291327   6.293   6.601   6.006  0.4816 -1.8981  0.2233
28733SOL     OW91328   3.697   6.883   1.501 -0.0084  0.1760 -0.7084
28733SOL    HW191329   3.681   6.892   1.595 -0.2707  0.2063 -0.7546
28733SOL    HW291330   3.736   6.796   1.491  0.5378  0.3968 -0.5070
28734SOL     OW91331  10.037   0.446   9.638  0.7756  0.0559  0.0619
28734SOL    HW191332  10.105   0.416   9.577  1.7208  2.1719  0.0191
28734SOL    HW291333   9.967   0.479   9.582  0.9047  0.4091  0.1041
28735SOL     OW91334   0.278   9.004   3.128  0.2233  0.3404 -0.1913
28735SOL    HW191335   0.317   9.041   3.049  0.3330  1.5744  0.4365
28735SOL    HW291336   0.187   8.988   3.104  0.3785  0.2351 -0.7214
28736SOL     OW91337   5.657  10.344   4.406 -0.2008  0.1238  0.0203
28736SOL    HW191338   5.657  10.417   4.467  0.8081  0.6173 -0.5534
28736SOL    HW291339   5.701  10.377   4.328  0.7758 -1.2502 -0.0415
28737SOL     OW91340   6.453   2.580   4.358 -0.4099  0.4143 -0.0223
28737SOL    HW191341   6.444   2.669   4.323  0.7565  0.4415 -0.2804
28737SOL    HW291342   6.536   2.549   4.322 -1.1676 -1.0489 -0.5111
28738SOL     OW91343   0.158   0.109   2.367  0.0245 -0.2876  0.2530
28738SOL    HW191344   0.198   0.150   2.289 -0.6028  0.8887  0.5269
28738SOL    HW291345   0.232   0.088   2.423  0.5893 -2.2992 -1.1806
28739SOL     OW91346   2.073   0.699   8.534 -0.1016 -0.6173 -0.1293
28739SOL    HW191347   2.164   0.686   8.559 -0.2462 -1.4526 -0.0336
28739SOL    HW291348   2.060   0.794   8.540  0.3443 -0.6303  1.2931
28740SOL     OW91349   4.448   8.881   4.318  0.2434 -0.2410 -0.1848
28740SOL    HW191350   4.486   8.957   4.363  2.8818 -1.0323 -0.9800
28740SOL    HW291351   4.494   8.806   4.356 -0.1487 -1.1916 -1.5507
28741SOL     OW91352   0.137   9.133   1.043 -0.0987 -1.2658  0.7694
28741SOL    HW191353   0.157   9.046   1.078  1.3723 -1.0698  0.4531
28741SOL    HW291354   0.184   9.136   0.959  0.4870  0.1073  1.1413
28742SOL     OW91355   6.512   5.548   3.790 -0.9212  0.2828 -0.1644
28742SOL    HW191356   6.434   5.496   3.770  0.3203 -1.6960 -0.0048
28742SOL    HW291357   6.583   5.504   3.744  0.6345  0.2326  2.1920
28743SOL     OW91358   8.665   8.410   4.739  0.7340  0.0561  0.3440
28743SOL    HW191359   8.741   8.465   4.757 -0.0764  1.2477  0.1948
28743SOL    HW291360   8.675   8.383   4.648  0.9184  0.3049  0.2912
28744SOL     OW91361   8.151   5.204   4.069 -0.1195 -0.2178  0.2304
28744SOL    HW191362   8.163   5.133   4.006  1.9500  1.4496 -1.3432
28744SOL    HW291363   8.149   5.161   4.154 -1.7267 -2.3978 -0.8582
28745SOL     OW91364   1.060   2.715   8.742  0.7034  0.0652 -0.0986
28745SOL    HW191365   1.050   2.723   8.837  0.7558 -1.1270  0.0076
28745SOL    HW291366   1.045   2.622   8.724  3.4131 -0.2525 -0.9259
28746SOL     OW91367   7.046   4.504   6.623 -0.0907 -0.5478  0.3915
28746SOL    HW191368   7.053   4.482   6.716 -1.6138 -2.0777  0.1882
28746SOL    HW291369   7.120   4.459   6.582 -0.2391 -1.0597  0.6799
28747SOL     OW91370   2.180   7.138   6.072  0.2229  0.0050 -0.0645
28747SOL    HW191371   2.174   7.208   6.007  0.1597  0.3209  0.2794
28747SOL    HW291372   2.273   7.116   6.076  0.2553  0.1311 -0.1126
28748SOL     OW91373   8.520   0.120   4.137 -0.0855  0.3975 -0.0322
28748SOL    HW191374   8.500   0.144   4.227 -0.6120  0.1104 -0.0699
28748SOL    HW291375   8.576   0.042   4.145  1.2895  1.3832  0.0804
28749SOL     OW91376   4.736   4.517  10.263 -0.0254 -0.3963 -0.3215
28749SOL    HW191377   4.750   4.464  10.185  0.1798  0.1790 -0.6779
28749SOL    HW291378   4.640   4.525  10.270 -0.0145  1.8834 -2.1130
28750SOL     OW91379   4.029   9.333   3.328  0.3117  0.2166  0.1056
28750SOL    HW191380   3.988   9.257   3.370  1.8928 -0.9261 -0.3689
28750SOL    HW291381   4.069   9.382   3.400 -1.5842  1.1664  0.5296
28751SOL     OW91382   2.058   2.864   2.991 -0.1905 -0.6543 -0.2403
28751SOL    HW191383   2.058   2.939   3.051  0.6094 -0.5862 -0.3216
28751SOL    HW291384   2.015   2.897   2.912  0.7028 -0.0824 -0.5043
28752SOL     OW91385   2.042   0.091   3.920 -0.6348 -0.0315  0.8043
28752SOL    HW191386   2.041   0.052   4.007 -0.0014 -0.5422  0.5880
28752SOL    HW291387   2.107   0.161   3.926 -3.2103  2.3579  1.7623
28753SOL     OW91388   0.291   0.053   5.604  0.1736  0.0223 -0.0930
28753SOL    HW191389   0.336  -0.014   5.656 -0.2618 -1.0570 -1.0637
28753SOL    HW291390   0.302   0.024   5.513  1.2667  2.0866 -0.6502
28754SOL     OW91391   5.217   0.884   1.641  0.0855  0.7122 -0.2664
28754SOL    HW191392   5.192   0.801   1.681  1.2758  0.0887 -0.7895
28754SOL    HW291393   5.181   0.951   1.699 -0.2740 -0.1685  0.5343
28755SOL     OW91394  10.556  10.761   9.076 -0.2571  0.3469  0.2024
28755SOL    HW191395  10.535  10.845   9.036  0.3533 -0.3886 -1.7037
28755SOL    HW291396  10.651  10.761   9.085 -0.2904  0.0383  0.5923
28756SOL     OW91397   6.397   7.102   1.512 -0.3843 -0.4383  0.4732
28756SOL    HW191398   6.308   7.083   1.484 -0.9041  0.8676  1.1822
28756SOL    HW291399   6.425   7.173   1.454  0.0170 -0.5273  0.5596
28757SOL     OW91400   6.475   7.218   5.240  0.2225  0.2466  0.1904
28757SOL    HW191401   6.455   7.239   5.149  1.6570 -1.6896 -0.6035
28757SOL    HW291402   6.512   7.299   5.275  1.1185  0.5596 -1.4127
28758SOL     OW91403   1.675   0.558   7.397 -0.3965 -0.6114  0.1273
28758SOL    HW191404   1.763   0.571   7.361 -0.5425  1.3970  0.4156
28758SOL    HW291405   1.690   0.523   7.485  0.0781 -1.2863 -0.2166
28759SOL     OW91406   9.918   4.771   5.174  0.3675 -0.2029 -0.4272
28759SOL    HW191407   9.929   4.676   5.173  0.1995 -0.2154 -0.9448
28759SOL    HW291408   9.833   4.787   5.134 -0.2132  0.0845  0.9080
28760SOL     OW91409   8.439   3.229   7.944 -0.1930  0.3523 -0.0018
28760SOL    HW191410   8.368   3.171   7.915  0.7503 -0.3025 -1.0547
28760SOL    HW291411   8.519   3.189   7.909  0.6376  1.4168  0.6345
28761SOL     OW91412   3.167   2.291   8.285  0.0768  0.3748 -0.2482
28761SOL    HW191413   3.141   2.338   8.206  1.3272  0.2613 -0.7411
28761SOL    HW291414   3.262   2.282   8.277  0.0879 -0.5071  0.7964
28762SOL     OW91415  10.632   8.537   4.140 -0.7860  0.4348  0.1892
28762SOL    HW191416  10.667   8.566   4.055  1.9124  0.4167  1.2318
28762SOL    HW291417  10.646   8.612   4.198  0.4701 -0.7002  1.3892
28763SOL     OW91418   8.672   4.945   0.435 -0.1765 -0.6228 -0.4698
28763SOL    HW191419   8.634   4.880   0.495 -1.4660  0.1278 -0.4527
28763SOL    HW291420   8.599   4.970   0.378  0.4136  0.5224 -0.7321
28764SOL     OW91421   5.740   6.497   5.886 -0.0713 -0.1228 -0.3080
28764SOL    HW191422   5.816   6.464   5.839 -0.0212  0.1058 -0.3895
28764SOL    HW291423   5.748   6.458   5.974  0.2597  0.0737 -0.2485
28765SOL     OW91424   2.693   4.949   4.931  0.0249 -0.5241 -0.0467
28765SOL    HW191425   2.742   5.030   4.949 -2.6351  0.9283  1.0549
28765SOL    HW291426   2.690   4.904   5.015 -0.7013 -0.4828 -0.0473
28766SOL     OW91427   6.254   4.307   6.909  0.0117 -0.4143 -0.0023
28766SOL    HW191428   6.212   4.225   6.934  0.5951 -0.6277  0.2867
28766SOL    HW291429   6.307   4.284   6.832  0.7169 -0.4657  0.4930
28767SOL     OW91430   6.002   8.229   1.689  0.0035  0.0356  0.0376
28767SOL    HW191431   6.003   8.156   1.627  0.0025 -0.0763  0.1676
28767SOL    HW291432   5.977   8.305   1.637  1.4153  0.2119 -0.4013
28768SOL     OW91433   3.201   5.140   1.853 -0.5870 -0.2741 -0.1573
28768SOL    HW191434   3.202   5.167   1.760 -0.9657 -0.5370 -0.2386
28768SOL    HW291435   3.153   5.210   1.897 -0.5331 -0.2208 -0.1829
28769SOL     OW91436   4.404   4.240   3.363 -0.8515  0.0802 -0.1227
28769SOL    HW191437   4.354   4.276   3.436 -1.3338 -1.4965  0.3498
28769SOL    HW291438   4.458   4.312   3.332  0.2816  0.4477  2.5935
28770SOL     OW91439   4.170   6.685   9.942 -0.3487  0.2689 -0.3671
28770SOL    HW191440   4.131   6.608   9.982 -1.9505  1.5480  0.5894
28770SOL    HW291441   4.127   6.759   9.985  0.2597  1.6876 -2.1358
28771SOL     OW91442   1.169   7.401   3.642  0.3539 -0.1158 -0.1469
28771SOL    HW191443   1.248   7.347   3.649  1.0010  0.7727 -0.4951
28771SOL    HW291444   1.196   7.477   3.590 -0.3399  0.9133  0.9585
28772SOL     OW91445   8.326   2.345   1.823 -0.2289  0.2967  0.0831
28772SOL    HW191446   8.413   2.370   1.853  0.7423 -2.6042 -0.0966
28772SOL    HW291447   8.323   2.373   1.731  0.1464  1.2275  0.3537
28773SOL     OW91448   8.446   8.853   7.754 -0.0828  0.2423 -0.0385
28773SOL    HW191449   8.525   8.842   7.807  0.2558  0.3864 -0.5051
28773SOL    HW291450   8.478   8.858   7.664 -0.5105  1.5683 -0.1374
28774SOL     OW91451   4.649   9.600   0.611  0.7445 -0.4517  0.3523
28774SOL    HW191452   4.695   9.532   0.563  0.2689  0.1996 -1.0642
28774SOL    HW291453   4.556   9.583   0.595  0.6557  2.2334 -2.5219
28775SOL     OW91454   3.162  10.749   2.317  0.9657  0.2098 -0.2528
28775SOL    HW191455   3.124  10.826   2.360 -1.6931 -0.3207 -1.5448
28775SOL    HW291456   3.239  10.727   2.371 -0.0423  1.8705  1.9592
28776SOL     OW91457   9.586   2.424   8.747  0.2543  0.4315 -0.0544
28776SOL    HW191458   9.578   2.329   8.755 -3.5696  0.7322  0.6269
28776SOL    HW291459   9.595   2.455   8.837 -0.7960  0.8659 -0.0943
28777SOL     OW91460   3.610   6.310   3.981 -0.3081 -0.4319 -0.1374
28777SOL    HW191461   3.704   6.308   3.998 -0.1320 -0.3372 -1.0769
28777SOL    HW291462   3.575   6.369   4.047  0.1411 -1.3345  0.9139
28778SOL     OW91463   2.468   5.503   0.640 -0.3713 -0.2267 -0.6369
28778SOL    HW191464   2.425   5.559   0.575 -0.2650  1.1554  0.4625
28778SOL    HW291465   2.556   5.539   0.648 -0.1457 -0.8478 -0.2655
28779SOL     OW91466   9.620  10.034  10.353  0.5377  0.5413  0.9059
28779SOL    HW191467   9.526  10.046  10.342  0.7447 -0.0110 -1.8036
28779SOL    HW291468   9.656  10.123  10.355 -0.1567  0.7983  3.5060
28780SOL     OW91469   8.439   7.702   1.658  0.1641 -0.0453 -0.2517
28780SOL    HW191470   8.434   7.655   1.575 -2.7058  0.4177 -0.4053
28780SOL    HW291471   8.513   7.762   1.648  0.4076 -0.6343 -2.1214
28781SOL     OW91472   2.439   5.980   2.215  0.8165  0.0229  0.0192
28781SOL    HW191473   2.498   6.031   2.269  0.5579  0.0165  0.3094
28781SOL    HW291474   2.496   5.931   2.156  1.1780 -1.2333  1.3905
28782SOL     OW91475   3.502   9.228   4.000  0.2819  0.2584 -0.1988
28782SOL    HW191476   3.507   9.149   4.054 -0.1761  0.5612  0.2988
28782SOL    HW291477   3.414   9.225   3.961  1.0533 -0.5660 -1.8727
28783SOL     OW91478  10.418   8.424   6.002 -0.1065 -0.1628 -0.3518
28783SOL    HW191479  10.397   8.387   5.916  0.3459 -1.3206  0.0268
28783SOL    HW291480  10.378   8.364   6.065  0.9898 -0.2379  0.2886
28784SOL     OW91481   3.561   1.038   2.090 -0.2854 -0.3470  0.4474
28784SOL    HW191482   3.626   1.044   2.020 -1.6328  2.1717 -0.6440
28784SOL    HW291483   3.521   0.952   2.077  1.0301 -0.8548 -0.4454
28785SOL     OW91484   5.654   8.260   1.662  0.1796  0.1866 -0.0042
28785SOL    HW191485   5.612   8.328   1.610  0.4090 -0.0988 -0.5729
28785SOL    HW291486   5.592   8.242   1.733 -0.5829 -0.0948 -0.7231
28786SOL     OW91487   1.654   6.057  10.753 -0.4317 -0.3072 -0.0415
28786SOL    HW191488   1.646   6.102  10.670 -0.0363  0.8786  0.5502
28786SOL    HW291489   1.700   5.975  10.733 -0.7876 -0.2551 -1.0532
28787SOL     OW91490   1.043  10.124   2.251 -0.9272 -0.0112 -0.8134
28787SOL    HW191491   1.018  10.178   2.325 -0.1770 -0.7710  0.0098
28787SOL    HW291492   0.968  10.127   2.192 -0.4332  2.8862 -1.3642
28788SOL     OW91493   1.225   4.379   1.532 -0.0136 -0.0343  0.5426
28788SOL    HW191494   1.229   4.473   1.551  1.3156  0.1495 -0.5020
28788SOL    HW291495   1.187   4.340   1.610 -1.7901  1.5169  0.4825
28789SOL     OW91496  10.006   0.331   0.713 -0.1366 -0.0012  0.2906
28789SOL    HW191497   9.974   0.374   0.793  1.7231 -0.0206  1.0790
28789SOL    HW291498  10.001   0.237   0.733 -1.1739 -0.0616 -0.2268
28790SOL     OW91499   1.915   5.260   5.338  0.5813  0.9222  0.4593
28790SOL    HW191500   1.873   5.187   5.293  0.7989  0.7689  0.5030
28790SOL    HW291501   1.848   5.295   5.396  0.5539  0.5922  0.6306
28791SOL     OW91502   5.565   1.511   9.952  0.1778 -0.2033  0.0112
28791SOL    HW191503   5.556   1.497  10.047 -0.9781  0.0053 -0.0596
28791SOL    HW291504   5.628   1.445   9.925 -0.0296 -0.7532  0.8185
28792SOL     OW91505   6.653   9.080   4.154  0.3914 -0.1729 -0.5774
28792SOL    HW191506   6.559   9.098   4.164  0.8667  1.5573  1.0266
28792SOL    HW291507   6.664   9.064   4.060 -1.1748  1.5174 -1.0842
28793SOL     OW91508   0.096   1.840   1.711  0.0691 -0.3586 -0.0560
28793SOL    HW191509   0.083   1.866   1.620  1.2483 -1.1706 -0.4718
28793SOL    HW291510   0.184   1.801   1.713  1.2074  2.1472  1.9815
28794SOL     OW91511   5.027   5.805   8.679  0.4215  0.2034 -0.2400
28794SOL    HW191512   5.047   5.711   8.687  1.4996  0.3940 -0.6140
28794SOL    HW291513   5.111   5.849   8.695  0.6610  0.9689 -3.2536
28795SOL     OW91514   0.532   8.842   4.370  0.2451  0.4691 -0.1553
28795SOL    HW191515   0.521   8.921   4.423  0.0448  0.0107  0.5023
28795SOL    HW291516   0.614   8.856   4.322  1.5020  0.0636  1.7941
28796SOL     OW91517   2.688   1.927   6.418 -0.3416 -0.4689 -0.0621
28796SOL    HW191518   2.710   2.017   6.391 -3.1903  0.3278  0.1252
28796SOL    HW291519   2.729   1.872   6.351  1.7658  0.9083  0.0266
28797SOL     OW91520   6.819   1.872   6.390  0.3036  0.2199 -0.3757
28797SOL    HW191521   6.774   1.940   6.340  1.0671  1.1001  0.1188
28797SOL    HW291522   6.880   1.832   6.328 -0.2766 -0.1508 -0.7152
28798SOL     OW91523   4.545   9.753   0.230 -0.3930  0.1251 -0.3277
28798SOL    HW191524   4.475   9.707   0.183 -1.1203 -0.1094  0.9667
28798SOL    HW291525   4.522   9.846   0.221  0.7353  0.2517 -2.3977
28799SOL     OW91526   1.166   2.606   3.318  0.1289  0.6864 -0.1427
28799SOL    HW191527   1.212   2.526   3.345  0.1704  1.1178  1.0734
28799SOL    HW291528   1.149   2.593   3.225  1.5837 -0.0279 -0.3191
28800SOL     OW91529   6.018   5.273  11.206  0.2639 -0.9176  0.1569
28800SOL    HW191530   6.066   5.246  11.284 -0.9654 -1.5763  0.7094
28800SOL    HW291531   5.975   5.355  11.232  0.7325 -0.5612 -0.1886
28801SOL     OW91532   9.444   5.466  11.281 -0.3944  0.4605 -0.0181
28801SOL    HW191533   9.393   5.547  11.284 -0.1937  0.5919 -0.0549
28801SOL    HW291534   9.504   5.479  11.206  0.3248  0.6948  0.5903
28802SOL     OW91535   0.441   1.089   0.329 -0.1017  0.1432  0.3212
28802SOL    HW191536   0.439   1.167   0.384  1.0893  0.3179  0.1291
28802SOL    HW291537   0.416   1.018   0.387  1.8921  0.2068  1.2987
28803SOL     OW91538   1.690   8.966   3.008  0.2718  0.2672 -0.2816
28803SOL    HW191539   1.765   8.926   2.964 -0.6540  0.2337 -1.8840
28803SOL    HW291540   1.641   8.893   3.044 -0.1978  0.1203 -1.2123
28804SOL     OW91541   9.817   7.957   7.073  0.0455  0.2001  0.5825
28804SOL    HW191542   9.867   8.038   7.069 -0.0886  0.3433  1.6218
28804SOL    HW291543   9.792   7.939   6.982  3.5603 -0.9011 -0.2166
28805SOL     OW91544   6.478   1.297  10.224 -0.3512  0.4436 -0.1562
28805SOL    HW191545   6.428   1.217  10.242 -0.3680  0.3209 -0.7281
28805SOL    HW291546   6.529   1.276  10.145  0.4343  0.6443  0.2904
28806SOL     OW91547   0.848   1.888   2.655  0.0223  0.9557 -0.1486
28806SOL    HW191548   0.922   1.937   2.618 -0.0058  1.7368  0.7987
28806SOL    HW291549   0.888   1.811   2.696  0.2090  0.8642 -0.5038
28807SOL     OW91550   0.595   4.308  10.763  0.6594 -0.2094  0.4561
28807SOL    HW191551   0.659   4.241  10.786 -0.3667 -1.7131 -0.9814
28807SOL    HW291552   0.641   4.366  10.703  1.1572 -0.3612  0.6924
28808SOL     OW91553   7.329   7.902   2.179  0.2440  0.1542  0.0043
28808SOL    HW191554   7.296   7.988   2.154 -1.1245 -0.4788 -0.4444
28808SOL    HW291555   7.371   7.868   2.099 -3.8370 -1.7307 -1.4746
28809SOL     OW91556   5.474   5.966   2.003 -0.2875  0.1546  0.2058
28809SOL    HW191557   5.428   5.917   1.935 -0.2736 -0.0838  0.3713
28809SOL    HW291558   5.438   6.055   1.997  2.2114  1.0721 -2.5033
28810SOL     OW91559   4.775   8.840   3.689  0.3828 -0.0129 -1.0807
28810SOL    HW191560   4.697   8.784   3.682  0.3292 -0.1332  0.2811
28810SOL    HW291561   4.826   8.799   3.759  1.6648  0.0764 -1.9606
28811SOL     OW91562   5.260   1.965  10.242  0.1802 -0.2639 -0.0651
28811SOL    HW191563   5.227   1.991  10.156  1.2579 -0.2781 -0.4791
28811SOL    HW291564   5.342   2.013  10.252 -0.1642  0.1054  1.1609
28812SOL     OW91565  10.900   1.688   6.729  0.1648  0.3599  0.0743
28812SOL    HW191566  10.938   1.717   6.812 -0.8825  0.5897  0.4721
28812SOL    HW291567  10.820   1.739   6.720  0.0671  0.0366 -0.8820
28813SOL     OW91568   8.805   6.592   3.647  0.4520 -0.1814  0.1641
28813SOL    HW191569   8.785   6.542   3.726  0.5684  0.1044  0.3773
28813SOL    HW291570   8.876   6.543   3.605 -0.3214 -0.9013 -0.3142
28814SOL     OW91571   2.911   6.730   0.553  0.3032 -0.3255  0.8536
28814SOL    HW191572   2.897   6.803   0.493 -0.8589 -0.3733  1.0512
28814SOL    HW291573   2.955   6.664   0.500  2.2325  0.8669  0.9205
28815SOL     OW91574   5.613   3.202   8.515 -0.1408  0.3618 -0.7282
28815SOL    HW191575   5.623   3.110   8.538 -1.4120  0.2541 -0.5684
28815SOL    HW291576   5.636   3.206   8.422 -1.0275 -0.2859 -0.9788
28816SOL     OW91577   0.819   1.052   0.888 -0.1768 -0.0196  0.0514
28816SOL    HW191578   0.791   1.143   0.889  0.7985  0.2916 -0.2446
28816SOL    HW291579   0.780   1.015   0.809  0.9282  0.6299 -0.8081
28817SOL     OW91580   3.875  10.616   0.078  0.2990 -0.1439  0.2030
28817SOL    HW191581   3.801  10.601   0.137  0.3777  0.1115  0.3683
28817SOL    HW291582   3.853  10.567  -0.001 -0.5501  0.8072 -0.1572
28818SOL     OW91583  11.103   1.791   5.007 -0.2903  0.0477 -0.0745
28818SOL    HW191584  11.095   1.723   4.940  0.7868  0.8026 -0.9824
28818SOL    HW291585  11.026   1.847   4.993 -1.2060 -0.9964  0.7073
28819SOL     OW91586   7.493   8.209   0.551 -0.9028  0.2148 -0.2989
28819SOL    HW191587   7.499   8.216   0.646  0.8844  0.7505 -0.4310
28819SOL    HW291588   7.446   8.288   0.524 -1.4841  0.0210  0.1355
28820SOL     OW91589   7.827   6.525   9.089  0.1612 -0.8076  0.2371
28820SOL    HW191590   7.787   6.504   9.005 -0.1877  0.9950 -0.0640
28820SOL    HW291591   7.765   6.583   9.132  1.5717  0.4980  0.5643
28821SOL     OW91592   2.909   8.103   5.191  0.1059  0.8688  0.3616
28821SOL    HW191593   2.885   8.165   5.122 -0.4889  0.8762  0.5718
28821SOL    HW291594   2.825   8.074   5.227  0.3251 -1.0910 -0.6387
28822SOL     OW91595   5.077   6.715   2.494 -0.5489 -0.0598 -0.1882
28822SOL    HW191596   5.046   6.805   2.507  0.3400  0.3300 -0.6927
28822SOL    HW291597   5.132   6.720   2.416 -0.1992 -0.9707 -0.0054
28823SOL     OW91598  10.117   4.932  10.883  0.2911  0.0139 -0.0011
28823SOL    HW191599  10.120   4.891  10.969 -0.0640  1.1173  0.5317
28823SOL    HW291600  10.209   4.950  10.862  0.3645 -0.1001  0.2194
28824SOL     OW91601   2.452   2.451  10.471  0.4189  0.2004 -0.0796
28824SOL    HW191602   2.460   2.430  10.564  0.8457  1.1783  0.1087
28824SOL    HW291603   2.537   2.428  10.434  0.5466  0.6620 -0.0644
28825SOL     OW91604   4.460   4.977   0.393 -0.2476  0.2983  0.6699
28825SOL    HW191605   4.373   4.992   0.357 -0.7967  1.5750  2.4265
28825SOL    HW291606   4.497   4.907   0.339 -2.5777 -0.6677  0.2639
28826SOL     OW91607  11.273   6.665   9.545  0.1847  0.0444  0.4966
28826SOL    HW191608  11.199   6.605   9.544  2.1762 -2.5034  0.5355
28826SOL    HW291609  11.273   6.705   9.458 -1.2767  0.1345  0.5301
28827SOL     OW91610   7.444   0.252   9.744 -0.0990 -0.7267  0.0475
28827SOL    HW191611   7.465   0.201   9.822 -3.3874  0.0119  1.5024
28827SOL    HW291612   7.467   0.342   9.767  4.3453 -1.1994 -2.0033
28828SOL     OW91613   0.748   2.442   6.722  0.6135 -0.5390  0.1346
28828SOL    HW191614   0.782   2.368   6.671  0.2354  0.1855 -1.2152
28828SOL    HW291615   0.654   2.443   6.700  0.6414  0.3919  0.0683
28829SOL     OW91616   4.618   4.291   4.332 -0.1445  0.1193 -0.0315
28829SOL    HW191617   4.537   4.328   4.296 -0.7690 -2.7813 -1.7616
28829SOL    HW291618   4.590   4.218   4.387  1.1874  0.7070  1.4891
28830SOL     OW91619   6.750   2.519  11.299  0.2725  0.2797  0.1335
28830SOL    HW191620   6.823   2.489  11.354  1.8462  1.0091 -1.5207
28830SOL    HW291621   6.701   2.578  11.356  2.1217  1.3646  0.6604
28831SOL     OW91622   0.260   4.038   9.381 -0.4129 -0.3668 -0.2262
28831SOL    HW191623   0.269   4.132   9.367 -0.3424 -0.0314  1.8940
28831SOL    HW291624   0.349   4.007   9.395 -0.4654 -0.6959 -0.6113
28832SOL     OW91625  10.394   0.359   7.493  0.0838  0.6736  0.0780
28832SOL    HW191626  10.337   0.435   7.505 -2.7935 -1.5236  0.9823
28832SOL    HW291627  10.391   0.314   7.577 -1.3306 -2.4192 -1.5526
28833SOL     OW91628   1.714   8.466   0.419 -0.2348  0.4508 -0.3545
28833SOL    HW191629   1.707   8.370   0.421 -2.4985  0.5825  0.5796
28833SOL    HW291630   1.692   8.493   0.509  0.4953  1.8330 -0.5818
28834SOL     OW91631   4.475  11.329   8.608 -0.2777 -0.3612 -0.1530
28834SOL    HW191632   4.461  11.350   8.516  2.5984  1.4665 -0.2356
28834SOL    HW291633   4.429  11.397   8.656  0.6174  0.3580 -0.3002
28835SOL     OW91634   0.078   3.500   1.959  0.5175  0.3452  0.0151
28835SOL    HW191635   0.082   3.442   2.035 -0.8841  0.3097  0.0654
28835SOL    HW291636   0.158   3.552   1.964  0.4732  0.2719  1.4639
28836SOL     OW91637   8.294   0.684   3.430 -0.1945  0.0323 -0.1979
28836SOL    HW191638   8.241   0.763   3.426  0.0169  0.1915  0.0791
28836SOL    HW291639   8.322   0.679   3.522 -1.1095 -0.9643  0.0381
28837SOL     OW91640  10.614   5.187   5.162 -0.4611  0.4004 -0.4097
28837SOL    HW191641  10.625   5.238   5.081 -1.7227  1.4990  0.0930
28837SOL    HW291642  10.532   5.219   5.199  0.9976  1.2033  2.2376
28838SOL     OW91643   4.187   9.669   9.071  0.3741 -0.3842  0.4664
28838SOL    HW191644   4.129   9.728   9.119  0.2777  0.6947 -0.9304
28838SOL    HW291645   4.170   9.583   9.109 -0.4774  0.2722  1.6214
28839SOL     OW91646   9.954   1.743   7.736 -0.0046 -0.6603  0.1399
28839SOL    HW191647   9.898   1.702   7.802 -1.6360 -0.3142 -1.0047
28839SOL    HW291648   9.968   1.674   7.671  1.0276 -0.7827  0.4737
28840SOL     OW91649   1.137   5.935   8.365  0.5677 -0.0062 -0.2630
28840SOL    HW191650   1.122   5.918   8.272 -1.9272  0.2404  0.0509
28840SOL    HW291651   1.092   6.017   8.382  1.3118  0.1334  1.0936
28841SOL     OW91652   6.262   5.484   7.929 -0.3360 -0.3305 -0.0349
28841SOL    HW191653   6.234   5.417   7.866 -0.4524  0.0588 -0.4057
28841SOL    HW291654   6.289   5.558   7.874  0.2141 -0.2390  0.3579
28842SOL     OW91655   5.582   1.403   3.673  0.4626  0.6103 -0.2508
28842SOL    HW191656   5.640   1.469   3.709  1.1100 -0.1599  0.1395
28842SOL    HW291657   5.494   1.440   3.681  0.8298  1.4379 -0.0951
28843SOL     OW91658   1.897   1.919  10.339  0.3880 -0.1702  0.0222
28843SOL    HW191659   1.925   1.993  10.284  2.5659 -1.2876 -0.4499
28843SOL    HW291660   1.979   1.885  10.376 -0.4548 -2.9633 -0.5572
28844SOL     OW91661  10.351   1.817   6.868  0.3437 -0.3827 -0.0088
28844SOL    HW191662  10.390   1.877   6.932  0.2891 -0.2938 -0.0586
28844SOL    HW291663  10.354   1.731   6.911  2.0712 -0.6671 -0.6343
28845SOL     OW91664   4.352   9.327   1.257 -0.3408 -0.1751  0.1149
28845SOL    HW191665   4.414   9.309   1.328 -1.1395 -0.4414  0.7518
28845SOL    HW291666   4.282   9.263   1.269 -0.6621  0.0230 -0.6916
28846SOL     OW91667   5.770  11.179   6.489 -0.0778 -0.4488  0.1950
28846SOL    HW191668   5.704  11.202   6.554  0.5100 -0.5855  0.8556
28846SOL    HW291669   5.853  11.181   6.538  0.4221 -0.0993 -0.6550
28847SOL     OW91670  10.264   0.739   4.004 -0.4057 -0.1902 -0.1201
28847SOL    HW191671  10.188   0.775   3.957 -0.7643 -0.2541  0.4006
28847SOL    HW291672  10.235   0.653   4.032 -0.3885  0.0649  0.6888
28848SOL     OW91673   6.232  10.272  10.868  0.8128  0.6745 -0.0545
28848SOL    HW191674   6.253  10.236  10.782  0.4470 -1.5493  0.7339
28848SOL    HW291675   6.230  10.195  10.926  1.0381  2.1248  1.9311
28849SOL     OW91676  10.354   2.408   3.473 -0.1122 -0.1125  0.3436
28849SOL    HW191677  10.263   2.390   3.448  0.5205 -1.1448 -1.3585
28849SOL    HW291678  10.358   2.503   3.481 -2.4921 -0.2693  5.2228
28850SOL     OW91679   8.666   3.167   8.610 -0.2303  0.3792 -0.0794
28850SOL    HW191680   8.613   3.214   8.676  0.7305  0.8686  0.3500
28850SOL    HW291681   8.727   3.115   8.662  0.3063  0.5036 -0.5915
28851SOL     OW91682   5.242   8.123   6.058 -0.5558  0.0040  0.0814
28851SOL    HW191683   5.305   8.156   5.994  1.6378 -1.0307  1.6232
28851SOL    HW291684   5.233   8.195   6.121  0.1333 -0.3558  0.5907
28852SOL     OW91685   9.821  11.097   3.218 -0.3622  0.3507  0.2451
28852SOL    HW191686   9.737  11.111   3.175  0.1574 -0.2402 -0.9770
28852SOL    HW291687   9.806  11.125   3.309 -1.2573  2.3277 -0.4771
28853SOL     OW91688   4.029   0.230  11.123 -0.2709  0.1451 -0.2958
28853SOL    HW191689   4.030   0.241  11.218 -0.7395  1.4461 -0.4449
28853SOL    HW291690   4.078   0.148  11.108  1.4706  0.9363  0.9251
28854SOL     OW91691   5.474  10.281   8.324 -0.3003 -0.0179  0.1297
28854SOL    HW191692   5.462  10.344   8.254 -1.0316  0.3203  0.5507
28854SOL    HW291693   5.411  10.307   8.391 -0.3891 -0.9974  0.4411
28855SOL     OW91694   6.281   1.691   5.664  0.5770  0.6039  0.9882
28855SOL    HW191695   6.276   1.616   5.722 -1.0430 -1.6320 -1.9094
28855SOL    HW291696   6.370   1.689   5.629  0.4685 -0.1202  0.7487
28856SOL     OW91697   3.544   0.794   1.918 -0.0801 -0.1226 -0.0613
28856SOL    HW191698   3.576   0.706   1.941 -0.3478 -0.1953  0.0337
28856SOL    HW291699   3.528   0.790   1.824 -1.4826 -0.6184  0.1904
28857SOL     OW91700   3.094   6.085   5.514 -0.0938 -0.0715 -0.1073
28857SOL    HW191701   3.171   6.081   5.570  0.5544  1.3553 -0.8796
28857SOL    HW291702   3.123   6.050   5.430 -0.5903 -0.5455 -0.0883
28858SOL     OW91703   4.711   8.113   1.272  0.0432 -0.0925  0.4478
28858SOL    HW191704   4.673   8.167   1.202 -0.8143 -0.1802  0.8443
28858SOL    HW291705   4.796   8.086   1.237 -0.2531  0.1056 -0.4491
28859SOL     OW91706   6.342   1.700  11.116  0.3498  0.6228  0.3863
28859SOL    HW191707   6.391   1.643  11.057  1.6121  1.2239  0.8451
28859SOL    HW291708   6.329   1.647  11.194 -0.6312  0.1053 -0.1196
28860SOL     OW91709   4.211   6.724   4.172 -0.0877 -0.2025 -0.6085
28860SOL    HW191710   4.249   6.667   4.239 -1.6046 -0.6852 -0.1460
28860SOL    HW291711   4.184   6.802   4.219 -1.3409 -0.6243 -0.6146
28861SOL     OW91712   4.243   6.415   8.001 -0.1639 -0.3592 -0.0108
28861SOL    HW191713   4.231   6.395   7.909 -1.5238  0.2152  0.0324
28861SOL    HW291714   4.232   6.331   8.046 -1.2920 -0.3376 -0.2240
28862SOL     OW91715   4.939   8.062   1.135 -0.8323  0.2747  0.0238
28862SOL    HW191716   4.989   8.139   1.106 -0.2600 -0.0895  0.0247
28862SOL    HW291717   4.994   7.988   1.110 -1.5829 -0.1540 -0.3698
28863SOL     OW91718   6.356   5.480   5.666 -0.1039  0.2355 -0.3423
28863SOL    HW191719   6.380   5.413   5.730 -0.5561 -0.3467 -0.7821
28863SOL    HW291720   6.369   5.438   5.581 -1.1427  0.4522 -0.6062
28864SOL     OW91721   7.713   8.434   0.634  0.4274  0.1205 -0.2732
28864SOL    HW191722   7.658   8.483   0.695 -0.5562  1.0943 -1.9077
28864SOL    HW291723   7.760   8.371   0.689 -1.7166 -0.1865  1.2608
28865SOL     OW91724   5.422   9.047   4.241 -0.3812  0.3867 -0.5106
28865SOL    HW191725   5.468   9.131   4.245 -0.3509  0.2950  1.5499
28865SOL    HW291726   5.345   9.060   4.295 -0.5140 -0.8342 -0.4084
28866SOL     OW91727   7.959   2.539   1.561  0.0750  0.3033  0.1592
28866SOL    HW191728   8.023   2.519   1.492 -0.4221 -0.1761 -0.1659
28866SOL    HW291729   7.984   2.483   1.635  0.0244  0.1025  0.0253
28867SOL     OW91730   9.190   3.206   5.955  0.0571  0.2036  0.4501
28867SOL    HW191731   9.275   3.161   5.951 -0.5129 -0.9257  0.8353
28867SOL    HW291732   9.164   3.200   6.047 -1.9150 -2.2385 -0.2171
28868SOL     OW91733  11.133   6.241   2.038 -0.3077 -0.2281 -0.6723
28868SOL    HW191734  11.047   6.280   2.054  0.9108  1.5781  1.6824
28868SOL    HW291735  11.154   6.267   1.948 -1.1434  1.4367 -0.4019
28869SOL     OW91736   5.029   6.865   9.455  0.2529  0.1465 -0.2362
28869SOL    HW191737   4.947   6.911   9.435  1.5291  2.2821 -0.6846
28869SOL    HW291738   5.041   6.876   9.549 -1.2212 -2.3374  0.2970
28870SOL     OW91739   0.258   5.278   5.532 -0.2202  0.1415 -0.5700
28870SOL    HW191740   0.241   5.342   5.600 -1.5140 -1.0891  0.3008
28870SOL    HW291741   0.182   5.282   5.474 -0.9868 -1.5476  0.2702
28871SOL     OW91742   0.186   8.349   9.468  0.2675  0.1186  0.3740
28871SOL    HW191743   0.260   8.336   9.408 -0.2491  0.2703 -0.3086
28871SOL    HW291744   0.130   8.272   9.454 -0.1367  0.4342  0.2508
28872SOL     OW91745   8.968   9.650   7.020  0.2466  0.3296 -0.1368
28872SOL    HW191746   8.907   9.622   6.951 -1.0048  0.7307  0.7860
28872SOL    HW291747   9.052   9.659   6.975 -0.2201 -0.9158 -1.2883
28873SOL     OW91748   2.723   3.559   8.167  0.0228 -0.4555 -0.2765
28873SOL    HW191749   2.729   3.642   8.119  1.3962 -0.7133 -0.5675
28873SOL    HW291750   2.632   3.531   8.154  0.3141 -0.4538 -2.6699
28874SOL     OW91751   0.930  10.300   2.791 -0.3306 -0.2253  0.3154
28874SOL    HW191752   0.856  10.272   2.844 -1.9182  0.2398 -1.6043
28874SOL    HW291753   0.906  10.387   2.759  1.7414  0.6187  0.9497
28875SOL     OW91754   6.782   7.766   8.533 -0.3130  0.0676 -0.7280
28875SOL    HW191755   6.811   7.826   8.464 -1.1924 -1.3728 -2.4039
28875SOL    HW291756   6.860   7.715   8.556  0.6635  2.4052  1.3511
28876SOL     OW91757   7.544   3.105   2.819  0.0831  0.4871  0.3033
28876SOL    HW191758   7.478   3.054   2.772 -1.0482  2.0402  0.1954
28876SOL    HW291759   7.568   3.050   2.894  0.6072 -1.2332 -1.0978
28877SOL     OW91760   2.324   2.921   3.632 -0.2164 -0.0404 -0.7879
28877SOL    HW191761   2.291   2.846   3.582  0.4009  0.1161 -1.4454
28877SOL    HW291762   2.395   2.955   3.578  1.1964 -0.5303  0.7175
28878SOL     OW91763   6.953   3.004   1.005  0.5097 -0.0429  0.2510
28878SOL    HW191764   7.043   2.977   0.987  0.0709 -1.2193 -0.2631
28878SOL    HW291765   6.962   3.078   1.064  1.7718 -1.4842  1.9335
28879SOL     OW91766   1.938   0.786   1.317 -0.1349 -0.2155 -0.1711
28879SOL    HW191767   1.918   0.788   1.410 -1.1338 -0.5930 -0.3717
28879SOL    HW291768   1.936   0.694   1.293  0.0639 -0.1166 -0.5780
28880SOL     OW91769  10.845  10.063   1.386  0.2079 -0.5932  0.0395
28880SOL    HW191770  10.764  10.113   1.374  0.3122 -0.1325  1.2145
28880SOL    HW291771  10.895  10.079   1.306  0.0435  0.8359  0.2116
28881SOL     OW91772   1.158  10.497   5.230  0.4114  0.0501  0.1361
28881SOL    HW191773   1.164  10.565   5.297  0.8154 -0.5980  0.7567
28881SOL    HW291774   1.220  10.525   5.162 -1.1926  1.5649 -0.7524
28882SOL     OW91775   7.289   6.822   8.666 -0.3773 -0.7070  0.2780
28882SOL    HW191776   7.353   6.845   8.734 -0.3512 -0.9936  0.3507
28882SOL    HW291777   7.220   6.774   8.712 -0.8311 -0.0683  0.2597
28883SOL     OW91778   3.571   0.195   4.774  0.6070 -0.5914  0.0496
28883SOL    HW191779   3.578   0.154   4.687  0.3779 -0.4790 -0.0206
28883SOL    HW291780   3.606   0.283   4.762 -0.5955 -0.1407 -0.2267
28884SOL     OW91781   5.209   9.760  11.012  0.0685  0.4903 -0.2544
28884SOL    HW191782   5.272   9.738  11.080 -0.8006 -3.8977 -0.7160
28884SOL    HW291783   5.137   9.802  11.058  0.4680 -0.4274  1.2478
28885SOL     OW91784   6.325   3.510   8.045 -0.2009  0.0910 -0.2652
28885SOL    HW191785   6.388   3.523   8.116  1.2292 -2.3396 -1.0088
28885SOL    HW291786   6.357   3.565   7.974 -1.0966  1.7935  0.6297
28886SOL     OW91787   5.267   3.520   1.033 -0.1636  0.1099  0.5858
28886SOL    HW191788   5.269   3.450   0.968 -0.5286  0.9395 -0.3390
28886SOL    HW291789   5.180   3.560   1.022  1.0051  2.3791 -0.7003
28887SOL     OW91790  11.098   0.979   7.901  0.5519 -0.9334 -0.4330
28887SOL    HW191791  11.140   1.015   7.823  0.1126  2.3933  0.7939
28887SOL    HW291792  11.020   1.033   7.914  0.2056 -1.9255  1.8543
28888SOL     OW91793   7.152  10.053   7.543 -0.0138 -0.7053 -0.7266
28888SOL    HW191794   7.221  10.013   7.596 -1.4251 -2.4558 -0.1121
28888SOL    HW291795   7.161  10.147   7.556  0.8704 -1.0366  1.0911
28889SOL     OW91796   8.046   0.921   7.327  0.5406 -0.6517 -0.3014
28889SOL    HW191797   8.093   0.843   7.357 -0.0821 -0.3953  1.3881
28889SOL    HW291798   7.973   0.886   7.274  1.5955 -1.1034 -1.4851
28890SOL     OW91799   2.985   0.746   1.818  0.4291 -1.2516  0.7955
28890SOL    HW191800   3.062   0.700   1.784  0.0265 -1.0537 -0.4030
28890SOL    HW291801   3.017   0.790   1.897  1.4297 -1.5337  0.5598
28891SOL     OW91802   7.072   0.188   7.125 -0.4427 -0.7119  0.6730
28891SOL    HW191803   7.126   0.198   7.047  0.4672 -1.6772  1.1629
28891SOL    HW291804   7.085   0.268   7.175  0.3931 -0.8604  0.6951
28892SOL     OW91805   8.781   4.873   6.327  0.2222  0.1278  0.0619
28892SOL    HW191806   8.805   4.964   6.307 -0.6997  0.0484 -1.4967
28892SOL    HW291807   8.765   4.833   6.242  1.7050 -1.8330  0.6678
28893SOL     OW91808   4.137   7.467   2.199 -0.2878  0.1869 -0.2325
28893SOL    HW191809   4.148   7.385   2.247  0.6342  0.8555  0.7119
28893SOL    HW291810   4.178   7.451   2.114  0.8460  0.0055  0.3374
28894SOL     OW91811   9.462   4.947  10.775 -0.8148 -0.3415 -0.0336
28894SOL    HW191812   9.502   4.883  10.716  2.2721  1.8761 -0.4819
28894SOL    HW291813   9.406   5.000  10.719  1.5456  1.2949 -0.9235
28895SOL     OW91814   3.650   9.144   4.395 -0.0172  0.3790 -0.6220
28895SOL    HW191815   3.712   9.078   4.424 -2.1072 -1.2351  0.2482
28895SOL    HW291816   3.604   9.172   4.474 -0.3584  1.6076 -1.2342
28896SOL     OW91817   5.112   1.761   2.859 -0.9455 -0.0065 -0.1937
28896SOL    HW191818   5.193   1.710   2.844 -1.4034 -0.2447 -1.9742
28896SOL    HW291819   5.121   1.793   2.948  0.7587 -0.7132 -0.0770
28897SOL     OW91820   1.282   9.237   5.395 -0.7098 -0.2273 -0.1437
28897SOL    HW191821   1.228   9.158   5.400  0.5232 -1.1055 -0.5117
28897SOL    HW291822   1.334   9.225   5.316  1.2539 -0.1934  1.1086
28898SOL     OW91823   2.683   0.914   7.192 -0.1075 -0.0473  0.5741
28898SOL    HW191824   2.661   0.839   7.247 -0.6750  0.8023  1.5142
28898SOL    HW291825   2.702   0.984   7.253 -0.2171  0.7652 -0.3143
28899SOL     OW91826   2.497   6.097   5.271 -0.2432 -0.0204  0.2673
28899SOL    HW191827   2.425   6.046   5.308 -0.5130 -1.0199 -1.5943
28899SOL    HW291828   2.556   6.111   5.345 -1.3380 -0.9530  1.3531
28900SOL     OW91829   7.433   8.343   9.398 -0.2678  0.4087 -0.4869
28900SOL    HW191830   7.362   8.331   9.462  0.0478  0.3677 -0.1412
28900SOL    HW291831   7.388   8.362   9.316 -0.6636  1.8932  0.0514
28901SOL     OW91832   4.955   7.913   0.549 -0.2051  0.5415 -0.3796
28901SOL    HW191833   4.904   7.837   0.524  0.8560 -0.6524  1.0167
28901SOL    HW291834   4.986   7.894   0.638  0.2236  2.5092 -0.0749
28902SOL     OW91835   9.714   9.214   6.747 -0.0234 -0.2817 -0.2797
28902SOL    HW191836   9.731   9.182   6.836 -1.8012  1.4496  0.7166
28902SOL    HW291837   9.801   9.235   6.712  0.7154 -1.3078  0.9041
28903SOL     OW91838  10.565   4.594   4.255  0.3091 -0.5444  0.5498
28903SOL    HW191839  10.561   4.569   4.163  0.3524 -1.2950  0.7453
28903SOL    HW291840  10.653   4.627   4.268  0.5461 -1.1390  0.4891
28904SOL     OW91841  11.319   1.993   1.908 -0.6120  0.8657 -0.4951
28904SOL    HW191842  11.224   1.998   1.899 -0.6780 -0.2099 -0.4698
28904SOL    HW291843  11.348   1.940   1.833 -0.0928  0.7654 -0.2315
28905SOL     OW91844   3.586   5.485   1.021  0.6589 -0.5309 -0.4111
28905SOL    HW191845   3.625   5.567   0.992  2.3489 -1.1258  0.1039
28905SOL    HW291846   3.605   5.423   0.951 -0.7226 -0.4783 -0.8565
28906SOL     OW91847   1.269   8.544   5.618  1.0077 -0.0845  0.4363
28906SOL    HW191848   1.289   8.637   5.610  0.9750 -0.1479 -0.5416
28906SOL    HW291849   1.266   8.527   5.712 -0.9968  1.3222  0.6460
28907SOL     OW91850  10.714   9.719   3.423  0.4067 -0.0331  0.4148
28907SOL    HW191851  10.689   9.791   3.365 -1.4950 -0.0971  1.1216
28907SOL    HW291852  10.657   9.646   3.397  2.6000 -1.4532 -0.5890
28908SOL     OW91853   0.880   6.937   4.965  0.1637 -0.5229  0.3417
28908SOL    HW191854   0.899   7.011   5.022  0.9826 -1.8609  1.8561
28908SOL    HW291855   0.852   6.867   5.026 -0.3259 -1.5326 -1.0205
28909SOL     OW91856   9.085   2.066   8.815 -0.0710  0.5349 -0.1054
28909SOL    HW191857   9.007   2.056   8.762 -0.8167 -1.8221  1.3813
28909SOL    HW291858   9.149   2.006   8.777 -0.5001 -0.9209  1.3983
28910SOL     OW91859   5.668   2.984   0.350 -0.4011 -0.6128 -0.3552
28910SOL    HW191860   5.732   2.955   0.285  1.3213  0.7983  0.6711
28910SOL    HW291861   5.720   3.015   0.424 -2.2428  1.2669  0.2213
28911SOL     OW91862   5.490   0.485   9.648 -0.1352 -0.0501  0.2736
28911SOL    HW191863   5.405   0.503   9.687  0.2650 -0.7850  1.5241
28911SOL    HW291864   5.528   0.416   9.703  0.8874 -0.3681 -0.7981
28912SOL     OW91865  10.427   9.934  11.058  0.1385  0.4256  0.2233
28912SOL    HW191866  10.500   9.978  11.102  0.6935 -0.3018  0.0520
28912SOL    HW291867  10.350   9.985  11.081  0.4360  0.1361  1.9455
28913SOL     OW91868  10.657   3.937   7.394  0.2922 -0.5295 -0.0233
28913SOL    HW191869  10.728   3.984   7.437 -0.3692 -0.6992  1.2801
28913SOL    HW291870  10.670   3.954   7.300  1.1898  0.6252  0.2993
28914SOL     OW91871   5.337   3.862   1.694  0.1578 -0.1302  0.5359
28914SOL    HW191872   5.414   3.885   1.642 -0.6244  1.1204 -0.0929
28914SOL    HW291873   5.317   3.772   1.669  1.6815 -0.6273  1.0453
28915SOL     OW91874   3.959   6.451   8.099 -0.2343 -0.3978  0.2373
28915SOL    HW191875   3.930   6.370   8.139 -0.1934  0.1996  1.4999
28915SOL    HW291876   4.031   6.482   8.155  2.2925 -1.3952 -2.3233
28916SOL     OW91877   1.115   7.927   7.839  0.3246 -0.4323  0.7057
28916SOL    HW191878   1.204   7.905   7.866 -0.5320 -1.5121  2.7726
28916SOL    HW291879   1.126   7.989   7.766  2.7436 -0.8604  0.6806
28917SOL     OW91880   4.264   0.778   4.146  0.4409  0.0759  0.2299
28917SOL    HW191881   4.325   0.786   4.072 -0.0944  0.4544 -0.1793
28917SOL    HW291882   4.220   0.863   4.150 -0.4189 -0.3575  0.1956
28918SOL     OW91883   6.577   3.921   5.410 -0.3449  0.4540  0.2357
28918SOL    HW191884   6.576   3.835   5.453 -1.5547 -0.4714 -1.5643
28918SOL    HW291885   6.530   3.907   5.328 -0.8991  2.9374  0.0827
28919SOL     OW91886   4.289   4.369   2.384 -0.0338  0.3127  0.6040
28919SOL    HW191887   4.306   4.443   2.442  1.6020  0.3531  0.0931
28919SOL    HW291888   4.255   4.408   2.304  1.7690  0.6177 -0.0355
28920SOL     OW91889  10.117   7.216   2.534  0.0292 -0.4690 -0.2451
28920SOL    HW191890  10.038   7.186   2.489 -1.6565  2.4811  0.6289
28920SOL    HW291891  10.122   7.161   2.612 -2.5456  0.8767  0.9318
28921SOL     OW91892   2.450   3.542   5.221  0.2363  0.3196  0.5478
28921SOL    HW191893   2.361   3.539   5.257  0.9339 -0.3510  2.2784
28921SOL    HW291894   2.507   3.548   5.298  1.7494 -0.4171 -0.4869
28922SOL     OW91895  11.096   6.926   6.945  0.4865  0.5341 -0.5958
28922SOL    HW191896  11.071   6.935   6.853  1.8240  1.9046 -0.8493
28922SOL    HW291897  11.060   7.004   6.987 -3.0133 -1.6849  0.7557
28923SOL     OW91898   0.343   1.663   8.943 -0.1364 -0.2494 -0.3442
28923SOL    HW191899   0.341   1.578   8.987 -1.0573 -1.0646 -1.8894
28923SOL    HW291900   0.261   1.705   8.969 -0.4807 -0.5548 -0.9175
28924SOL     OW91901   8.112   3.663   5.627  0.6599  0.4406 -0.3410
28924SOL    HW191902   8.093   3.569   5.628 -3.9177  1.2276 -0.9782
28924SOL    HW291903   8.072   3.696   5.707  0.3554  2.1199 -1.1610
28925SOL     OW91904   2.537   8.635   1.952 -0.5252 -0.0708 -0.6271
28925SOL    HW191905   2.603   8.692   1.914 -1.2212  0.3788 -1.1618
28925SOL    HW291906   2.463   8.692   1.970 -0.6008 -0.4764  0.4247
28926SOL     OW91907   8.270   1.859   5.526 -0.3563  0.0053  0.5204
28926SOL    HW191908   8.294   1.951   5.512 -1.7275  0.6455  2.2849
28926SOL    HW291909   8.352   1.816   5.549  0.5966  0.4347 -1.8598
28927SOL     OW91910   2.900   3.419  10.125 -0.8818  0.1426 -0.7153
28927SOL    HW191911   2.972   3.401  10.066 -1.4408 -1.7113 -0.8402
28927SOL    HW291912   2.934   3.398  10.212 -1.0324 -0.0412 -0.6993
28928SOL     OW91913   8.716   3.153   2.503 -0.0387 -0.7266  0.2212
28928SOL    HW191914   8.638   3.186   2.546  0.3662 -1.4835  1.5476
28928SOL    HW291915   8.751   3.229   2.455 -0.9988 -0.1270  0.4706
28929SOL     OW91916   5.977   2.909   8.662 -0.0650  0.0851 -0.1063
28929SOL    HW191917   5.950   2.991   8.704  3.2166  0.3502  1.6503
28929SOL    HW291918   5.983   2.931   8.569  0.1316  1.6469  0.2608
28930SOL     OW91919   2.830  10.856   5.503 -0.4721 -0.1811  0.3454
28930SOL    HW191920   2.839  10.764   5.479 -0.8747 -0.3933  0.9789
28930SOL    HW291921   2.752  10.886   5.457 -1.1125 -0.5243  1.1979
28931SOL     OW91922   8.260   0.510   9.095 -0.5903 -0.4282  0.4812
28931SOL    HW191923   8.261   0.490   9.001 -0.6281  0.2969  0.3248
28931SOL    HW291924   8.168   0.512   9.118 -0.5468 -4.2947  1.3483
28932SOL     OW91925   8.483   3.203   2.001  0.4402 -0.3891  0.0599
28932SOL    HW191926   8.455   3.195   1.909 -0.7109 -0.6599  0.4190
28932SOL    HW291927   8.547   3.133   2.013 -1.2151 -1.9310  0.1167
28933SOL     OW91928   6.215   9.094   6.016  0.4866  0.0777 -0.2113
28933SOL    HW191929   6.247   9.159   6.079  1.1424 -1.1391  0.7205
28933SOL    HW291930   6.295   9.057   5.977  0.0904  1.2153 -2.1906
28934SOL     OW91931   1.992   4.535   4.323  0.3517 -0.4651  0.1651
28934SOL    HW191932   1.924   4.486   4.278  0.2770 -1.6637  1.5443
28934SOL    HW291933   2.073   4.489   4.302  0.2010 -1.6193  2.0108
28935SOL     OW91934   6.895  10.089   1.923 -0.0066 -0.1821  0.5688
28935SOL    HW191935   6.842  10.072   1.844 -0.8789 -1.2798  1.3694
28935SOL    HW291936   6.837  10.068   1.996  0.5035  1.7269  1.5398
28936SOL     OW91937   0.350   3.362  11.210 -0.2467  0.0146  0.4384
28936SOL    HW191938   0.335   3.396  11.298  2.5313  1.4944  0.3865
28936SOL    HW291939   0.380   3.272  11.225  2.0005  0.8410  1.1609
28937SOL     OW91940   2.984   3.511   2.124  1.1094  0.0354  0.1328
28937SOL    HW191941   2.916   3.480   2.184  2.1609 -1.0572  0.7701
28937SOL    HW291942   2.937   3.567   2.061 -0.7206 -2.2941 -0.6329
28938SOL     OW91943  10.001   8.883   4.212  0.3746  0.4879  0.1626
28938SOL    HW191944   9.913   8.894   4.247  0.6711  1.5901  0.5532
28938SOL    HW291945  10.040   8.814   4.266  0.2760  1.0581  0.9565
28939SOL     OW91946   2.725   8.184   3.640 -0.1958  0.4853 -0.4894
28939SOL    HW191947   2.636   8.148   3.639 -0.4552  1.0817  0.1935
28939SOL    HW291948   2.778   8.119   3.595 -1.1200  0.4928 -1.6233
28940SOL     OW91949  10.660   2.151   0.666 -0.2968  0.0274  0.0979
28940SOL    HW191950  10.619   2.223   0.712 -0.7358  0.3710 -0.8086
28940SOL    HW291951  10.588   2.093   0.642 -0.0115 -0.4383  0.3467
28941SOL     OW91952  10.149   0.863   7.968 -0.5219 -0.1255  0.3272
28941SOL    HW191953  10.108   0.829   7.888  1.0421  1.4279 -1.1928
28941SOL    HW291954  10.226   0.807   7.981  0.2562  0.7628 -0.3407
28942SOL     OW91955   4.327  10.499   1.677 -0.2278  0.7226  0.1220
28942SOL    HW191956   4.358  10.444   1.605 -0.1961  2.2033 -1.0112
28942SOL    HW291957   4.362  10.586   1.658 -2.1213  1.6422  0.7005
28943SOL     OW91958  10.326   4.670   0.407 -0.0546  0.1278  0.6664
28943SOL    HW191959  10.369   4.714   0.480 -1.1467 -1.2214  2.1618
28943SOL    HW291960  10.247   4.722   0.391  0.7724  1.0937 -0.3415
28944SOL     OW91961  10.293   1.183   3.149  0.2159  0.4896  0.4361
28944SOL    HW191962  10.207   1.142   3.143  0.8245 -0.2928 -3.9707
28944SOL    HW291963  10.277   1.275   3.127  0.5743  0.2663 -0.7441
28945SOL     OW91964   8.219   8.996   1.859 -0.2719 -0.1853 -0.0853
28945SOL    HW191965   8.181   8.936   1.923  0.9901 -1.3784 -0.4193
28945SOL    HW291966   8.277   9.052   1.910 -1.9672  1.2207  0.3293
28946SOL     OW91967   3.450  10.138   7.273 -0.4735 -0.1062 -0.0171
28946SOL    HW191968   3.498  10.206   7.225  0.0929 -1.3314 -1.2197
28946SOL    HW291969   3.506  10.061   7.269 -1.3719 -0.8220  0.8227
28947SOL     OW91970  10.348   5.219   8.202  0.1063 -0.6402 -0.4957
28947SOL    HW191971  10.313   5.296   8.158 -0.2135 -0.9386 -0.7649
28947SOL    HW291972  10.409   5.181   8.139  1.0539 -0.0242  0.0387
28948SOL     OW91973   4.755   3.057  10.010  0.1339 -0.3831  0.8124
28948SOL    HW191974   4.828   3.041  10.069  1.3676 -0.4582 -0.7144
28948SOL    HW291975   4.758   2.984   9.948  0.3521  1.0033 -0.8237
28949SOL     OW91976   8.100   5.537   6.766  0.1388 -0.4960  0.5074
28949SOL    HW191977   8.054   5.540   6.850  0.5826  2.5378  0.6809
28949SOL    HW291978   8.175   5.595   6.778  0.2798 -0.1446 -1.9544
28950SOL     OW91979   0.424   6.764  10.694  0.3668  0.4923 -0.0566
28950SOL    HW191980   0.351   6.706  10.716 -2.0617  3.2908 -0.4868
28950SOL    HW291981   0.419   6.834  10.759  1.6851  1.5666 -1.0996
28951SOL     OW91982   4.548  11.166   0.344  0.1252  0.4846  0.2381
28951SOL    HW191983   4.582  11.255   0.346 -1.6408  1.1975 -0.7476
28951SOL    HW291984   4.454  11.175   0.360  0.0838 -1.2957  1.1525
28952SOL     OW91985   5.105   1.171   2.354  0.0759  0.4226  0.5203
28952SOL    HW191986   5.107   1.212   2.440  0.6784  0.2988  0.5661
28952SOL    HW291987   5.136   1.239   2.294  1.6740 -0.1644  0.6774
28953SOL     OW91988   2.104   2.438   9.553 -0.6021  0.6738 -0.3905
28953SOL    HW191989   2.133   2.520   9.512  2.6460  1.4200  3.0606
28953SOL    HW291990   2.070   2.464   9.638  0.9743 -1.5248  0.9883
28954SOL     OW91991  11.146   0.846   1.380 -0.3725 -0.1751  0.0292
28954SOL    HW191992  11.206   0.842   1.306  0.9559 -0.9966  1.1248
28954SOL    HW291993  11.176   0.778   1.440 -2.6677 -0.8837  0.4239
28955SOL     OW91994  10.000   6.099   2.212 -0.8248 -0.0376  0.5182
28955SOL    HW191995   9.938   6.117   2.141 -0.9617  0.3405  0.7325
28955SOL    HW291996   9.951   6.118   2.292 -0.3647  0.4830  0.6789
28956SOL     OW91997   2.739   6.333   1.381  0.1961 -0.3760  0.2537
28956SOL    HW191998   2.832   6.317   1.371  0.4887  1.4635 -0.0597
28956SOL    HW291999   2.733   6.418   1.424 -1.3574 -0.1084 -0.4583
28957SOL     OW92000   1.329  10.923   9.146 -0.5419 -0.0609  0.1622
28957SOL    HW192001   1.404  10.864   9.133 -1.6486 -1.0382 -2.1250
28957SOL    HW292002   1.366  11.011   9.139  0.9455 -0.4481  2.4980
28958SOL     OW92003   1.959   4.946   0.261  0.4124 -0.0521 -0.6698
28958SOL    HW192004   2.053   4.932   0.250  0.4049 -0.4981 -0.2108
28958SOL    HW292005   1.924   4.954   0.172  0.8295 -0.2708 -0.8516
28959SOL     OW92006   8.279   6.328   8.143  0.4793 -0.2335  0.2381
28959SOL    HW192007   8.225   6.382   8.202 -0.0745  2.0850 -2.3003
28959SOL    HW292008   8.221   6.256   8.117 -0.3047  0.4374  0.1097
28960SOL     OW92009   4.307   3.390   4.831 -0.3397 -0.2194 -0.8674
28960SOL    HW192010   4.384   3.441   4.858 -0.4623 -0.0073 -0.9204
28960SOL    HW292011   4.306   3.315   4.890 -0.1644 -0.1567 -0.7843
28961SOL     OW92012   5.522   5.443   6.932 -0.0034 -0.3353  0.0776
28961SOL    HW192013   5.582   5.513   6.957 -0.5268  0.2560 -0.2899
28961SOL    HW292014   5.478   5.477   6.854 -1.6312 -0.2808  0.9992
28962SOL     OW92015   7.988  10.027   6.846 -0.4707  0.8352 -0.3520
28962SOL    HW192016   7.997   9.965   6.918  0.1513 -0.7864 -1.7801
28962SOL    HW292017   8.009  10.112   6.884 -0.2071  0.0125  1.3790
28963SOL     OW92018   3.310   1.233  10.155 -0.2331  0.0183 -0.3709
28963SOL    HW192019   3.351   1.176  10.089  0.2288 -1.2047  0.9539
28963SOL    HW292020   3.223   1.196  10.168  0.4194 -1.0125  1.2170
28964SOL     OW92021   6.570   8.339   0.580  0.0572  0.1386 -0.2837
28964SOL    HW192022   6.484   8.369   0.549  0.3986  0.9873 -0.4363
28964SOL    HW292023   6.553   8.255   0.621 -1.3089  1.5706  2.2035
28965SOL     OW92024   0.550   2.397   8.332  0.3266 -0.2136 -0.3546
28965SOL    HW192025   0.643   2.406   8.311  0.2854  0.2222 -0.3706
28965SOL    HW292026   0.538   2.305   8.352  0.9576 -0.1117  0.5469
28966SOL     OW92027   0.847   5.335   5.619 -0.1684 -0.1345  0.3326
28966SOL    HW192028   0.850   5.260   5.679 -0.0349 -0.8793 -0.5884
28966SOL    HW292029   0.806   5.300   5.539 -4.0005  1.8255  1.3357
28967SOL     OW92030   0.208   3.714   3.364  0.1716  0.6709 -0.2339
28967SOL    HW192031   0.124   3.748   3.395  0.0794  0.4871 -0.2765
28967SOL    HW292032   0.260   3.791   3.346  0.3881  0.7736  0.8165
28968SOL     OW92033   0.176   6.987   8.923 -0.0092  0.1986  0.4819
28968SOL    HW192034   0.179   6.952   9.012 -0.7488 -1.1610 -0.0182
28968SOL    HW292035   0.084   7.007   8.907 -0.0091 -0.4009 -0.2989
28969SOL     OW92036   3.801   5.453   9.416 -0.4257  0.0587  0.6072
28969SOL    HW192037   3.851   5.529   9.444 -0.1460  0.1102 -0.0412
28969SOL    HW292038   3.715   5.465   9.457  0.1394 -0.1255  1.8645
28970SOL     OW92039   3.692  11.106   8.018  0.0581 -0.9592  0.3925
28970SOL    HW192040   3.735  11.072   8.097  2.5759  0.4981 -0.2953
28970SOL    HW292041   3.646  11.185   8.048  0.1751 -0.9657  0.5906
28971SOL     OW92042   1.539   1.520   3.934 -0.1509 -0.8016  0.1775
28971SOL    HW192043   1.462   1.575   3.946 -0.8176 -2.0047  1.5021
28971SOL    HW292044   1.583   1.557   3.857 -2.6916 -0.8661 -1.3612
28972SOL     OW92045  10.452   8.159   8.374  0.3193 -0.2285  0.2278
28972SOL    HW192046  10.519   8.176   8.440 -1.3412  1.0610  1.6226
28972SOL    HW292047  10.461   8.231   8.311  1.3903 -1.0311 -0.5530
28973SOL     OW92048   0.660   2.796   4.078  0.0823 -0.3855 -0.1328
28973SOL    HW192049   0.720   2.752   4.019  0.1862 -2.2805  1.3412
28973SOL    HW292050   0.600   2.728   4.107 -1.2507  0.9552  0.3500
28974SOL     OW92051   8.646   4.498   5.061 -0.0759  0.0042  0.1958
28974SOL    HW192052   8.579   4.431   5.075  0.9856 -1.0894  0.1216
28974SOL    HW292053   8.611   4.575   5.106 -0.4518 -1.1330  1.9565
28975SOL     OW92054   2.108   3.770   8.835 -0.0005 -0.0983 -0.1022
28975SOL    HW192055   2.156   3.703   8.786  0.5419 -0.1562  0.4954
28975SOL    HW292056   2.098   3.733   8.923 -2.1345 -0.5667 -0.5028
28976SOL     OW92057   4.460   2.579   5.825  0.3982 -0.3611  0.3489
28976SOL    HW192058   4.415   2.509   5.777 -2.4946  1.7046 -0.0892
28976SOL    HW292059   4.497   2.536   5.901 -0.6103 -2.5302 -0.3549
28977SOL     OW92060   4.968   9.100   2.293  0.0131 -0.9401  0.0265
28977SOL    HW192061   4.943   9.029   2.234 -1.1151 -0.4935 -0.0314
28977SOL    HW292062   4.895   9.108   2.354 -1.1157  2.0039 -1.6518
28978SOL     OW92063   6.103   1.774   8.279 -0.0801  0.2743 -0.1060
28978SOL    HW192064   6.127   1.852   8.228  1.4263 -0.2526 -0.2248
28978SOL    HW292065   6.183   1.749   8.324 -1.3477  0.5794  2.3711
28979SOL     OW92066   1.203  10.803   3.623 -0.1242  0.4067 -0.1377
28979SOL    HW192067   1.194  10.712   3.651  2.6818  0.3688  0.7951
28979SOL    HW292068   1.191  10.854   3.703 -0.0693  0.7728 -0.3597
28980SOL     OW92069   6.279   8.956  10.980  0.4003  0.0191  0.2948
28980SOL    HW192070   6.228   8.966  11.060 -0.8544  1.2095 -0.6381
28980SOL    HW292071   6.370   8.971  11.007 -0.2793  3.1138  1.0330
28981SOL     OW92072   4.839   2.421   3.112  0.5577  0.0050  0.1172
28981SOL    HW192073   4.855   2.502   3.064 -0.2436  0.5126  0.6940
28981SOL    HW292074   4.744   2.410   3.109  0.2259  1.2737  3.5284
28982SOL     OW92075   6.976   2.051   4.409  0.1636 -0.3458  0.8597
28982SOL    HW192076   6.960   1.963   4.376 -1.7396 -0.1539  1.2279
28982SOL    HW292077   6.929   2.109   4.349  0.4734  0.3396  1.2640
28983SOL     OW92078   8.987   9.494   2.068  0.0400 -0.3284  0.2836
28983SOL    HW192079   8.923   9.528   2.130  0.3883  1.2341 -0.1902
28983SOL    HW292080   8.968   9.540   1.986  0.6251 -1.1778 -0.3404
28984SOL     OW92081   2.489   6.424   2.805 -0.0683 -0.2729 -0.1552
28984SOL    HW192082   2.546   6.351   2.829 -0.6958 -0.9570 -0.7520
28984SOL    HW292083   2.401   6.394   2.827 -0.4651 -0.1997 -1.5995
28985SOL     OW92084   9.792   4.393   4.400 -0.2835  0.1648 -0.7472
28985SOL    HW192085   9.853   4.457   4.363 -0.2021  0.0727 -0.7732
28985SOL    HW292086   9.830   4.308   4.377  0.4811  0.0950  0.6695
28986SOL     OW92087   2.139   8.997   2.930  0.2789  0.1439  0.2274
28986SOL    HW192088   2.190   8.933   2.980  0.3388  0.9982  1.2678
28986SOL    HW292089   2.189   9.078   2.935 -1.0206  0.9231  1.0183
28987SOL     OW92090   4.452   2.798   6.584 -0.2596  0.1945 -0.4710
28987SOL    HW192091   4.506   2.826   6.510 -1.4669  0.7688 -1.1499
28987SOL    HW292092   4.426   2.879   6.627  0.4251 -0.1386  0.5738
28988SOL     OW92093  10.676   0.263   9.373 -0.0521 -0.0339 -0.5356
28988SOL    HW192094  10.592   0.280   9.332  0.2337  1.6472 -0.4421
28988SOL    HW292095  10.741   0.300   9.313  0.5759 -0.5439 -0.1867
28989SOL     OW92096   6.645   8.644   4.337 -0.2913  0.0968  0.0999
28989SOL    HW192097   6.617   8.606   4.254  0.5991  1.1012 -0.6722
28989SOL    HW292098   6.667   8.735   4.315  0.4872  0.2035  1.3258
28990SOL     OW92099   1.729   7.494  10.832  0.2051  0.2701 -0.2068
28990SOL    HW192100   1.659   7.461  10.775  0.7263 -1.4960  0.1175
28990SOL    HW292101   1.810   7.474  10.784  0.4752  3.3365 -1.1064
28991SOL     OW92102   0.793   9.811   2.594 -0.4129  0.6114  0.3854
28991SOL    HW192103   0.738   9.887   2.574  3.3713  3.0469 -1.1541
28991SOL    HW292104   0.856   9.842   2.659  1.9464 -0.8118 -1.1345
28992SOL     OW92105   5.277   5.364   3.666  0.1309  0.7364 -0.1703
28992SOL    HW192106   5.274   5.457   3.691  1.2920  0.8635 -0.4664
28992SOL    HW292107   5.267   5.364   3.571  0.8819  0.6073 -0.2488
28993SOL     OW92108   0.879   6.266   7.340  0.0211  0.2244 -0.0094
28993SOL    HW192109   0.845   6.311   7.263 -1.1827  0.0186  0.3950
28993SOL    HW292110   0.912   6.336   7.396  1.8434  0.3042 -1.1511
28994SOL     OW92111   9.144   1.315   7.523 -0.0859  0.7820  0.0089
28994SOL    HW192112   9.059   1.355   7.543 -1.1890 -0.7421 -1.5698
28994SOL    HW292113   9.134   1.223   7.548  0.3314  0.0887 -2.2729
28995SOL     OW92114  10.917  10.027   3.850 -0.1596  0.5955 -0.3681
28995SOL    HW192115  10.896  10.117   3.824 -0.4122  0.8169  0.5823
28995SOL    HW292116  10.971  10.036   3.928  1.6444 -0.0396 -1.5256
28996SOL     OW92117   6.402  11.114   2.908 -0.4135  0.1866 -0.1268
28996SOL    HW192118   6.326  11.078   2.864  0.1377  0.4802 -1.3430
28996SOL    HW292119   6.397  11.208   2.891  1.5488 -0.0617 -2.3774
28997SOL     OW92120   3.021   1.623   0.291  0.0999  0.2822 -0.2165
28997SOL    HW192121   3.038   1.558   0.223 -0.2636 -1.2832  1.1543
28997SOL    HW292122   2.930   1.648   0.278 -0.0366 -0.1870 -0.1408
28998SOL     OW92123   9.399   6.749   2.873 -0.7149  0.1036 -0.2685
28998SOL    HW192124   9.356   6.725   2.790  0.2122 -1.1038 -0.4148
28998SOL    HW292125   9.490   6.765   2.849 -0.7817  1.3473  0.2635
28999SOL     OW92126   5.011   0.750   5.055 -0.6921  0.6476  0.4717
28999SOL    HW192127   5.102   0.774   5.040 -0.9678  2.6380  1.8736
28999SOL    HW292128   4.978   0.724   4.969  0.5602  2.0563 -0.4388
29000SOL     OW92129   3.783   6.800   8.877  0.3863  0.2334  0.5539
29000SOL    HW192130   3.863   6.849   8.858  0.3309  0.1059 -0.0196
29000SOL    HW292131   3.751   6.837   8.959  0.8183  0.5574  0.5779
29001SOL     OW92132   7.968   8.747   3.792  0.0548  0.0892  0.4713
29001SOL    HW192133   7.930   8.804   3.859 -0.8380  0.2389 -0.1491
29001SOL    HW292134   8.051   8.788   3.769 -1.1218  1.8414 -0.8374
29002SOL     OW92135   9.590  11.313  10.115  0.5293 -0.0313 -0.2370
29002SOL    HW192136   9.615  11.221  10.109 -0.4469 -0.2022 -1.9378
29002SOL    HW292137   9.495  11.311  10.124  0.4518  0.8221 -0.8503
29003SOL     OW92138   3.147   2.243   9.880 -0.2274  0.3976  0.2852
29003SOL    HW192139   3.140   2.207   9.969 -0.4847  1.1725  0.5798
29003SOL    HW292140   3.077   2.199   9.831  0.2136 -0.3800  0.3392
29004SOL     OW92141   0.888  10.762   2.823 -0.1361  0.3347  0.6603
29004SOL    HW192142   0.971  10.809   2.836 -0.4548  0.7057  1.3338
29004SOL    HW292143   0.863  10.733   2.910 -0.7839  0.3183  0.4667
29005SOL     OW92144   8.314   4.170   8.699  0.5241 -0.3623 -0.3678
29005SOL    HW192145   8.390   4.186   8.643  2.6811 -1.9080  2.0586
29005SOL    HW292146   8.323   4.233   8.770  0.0528 -1.2241  0.4537
29006SOL     OW92147   6.570   3.038   5.026  0.0873  0.5324 -0.2243
29006SOL    HW192148   6.569   2.976   5.098 -1.1964  1.3221  0.4565
29006SOL    HW292149   6.521   2.995   4.956  1.6554 -0.3895 -0.7770
29007SOL     OW92150   5.378  10.126   3.948  0.2230 -0.4644 -0.7130
29007SOL    HW192151   5.388  10.202   4.005 -1.5183 -0.0452 -0.9450
29007SOL    HW292152   5.389  10.162   3.859 -0.6484 -0.4727 -0.8250
29008SOL     OW92153   0.189   7.412   7.248 -0.3038 -0.7443 -0.3803
29008SOL    HW192154   0.209   7.388   7.339  1.2739 -2.7091 -1.2060
29008SOL    HW292155   0.103   7.373   7.232 -0.9134  0.2319  0.4901
29009SOL     OW92156   4.344  10.606   3.661 -0.5827 -0.3293 -0.0436
29009SOL    HW192157   4.400  10.666   3.612  0.8835 -1.8170 -0.2225
29009SOL    HW292158   4.342  10.642   3.750 -0.3192  0.3864 -0.3251
29010SOL     OW92159   6.593   1.430   5.300 -0.0658  0.1527 -0.0385
29010SOL    HW192160   6.556   1.351   5.261  2.1290 -0.0423 -1.8232
29010SOL    HW292161   6.572   1.500   5.238 -0.4691  0.6683  0.6659
29011SOL     OW92162   0.597   1.805   3.356  0.5248  0.0017 -0.1603
29011SOL    HW192163   0.624   1.892   3.385 -0.0552  0.2622 -0.3914
29011SOL    HW292164   0.668   1.747   3.385  0.7373  0.4931  0.3160
29012SOL     OW92165   8.795   1.382   4.556  0.6650  0.4292  0.5423
29012SOL    HW192166   8.783   1.320   4.485  0.4187  1.1590 -0.0615
29012SOL    HW292167   8.783   1.330   4.636  1.4514 -0.4895  0.0625
29013SOL     OW92168  10.476   9.030   8.131 -0.2463  0.5250 -0.0848
29013SOL    HW192169  10.526   9.095   8.181  1.6943 -0.7584 -0.3102
29013SOL    HW292170  10.539   8.992   8.070 -1.0574 -2.3436  0.7848
29014SOL     OW92171   7.274  10.858   5.198  0.3376  0.4837 -0.1482
29014SOL    HW192172   7.363  10.894   5.209  0.5420  0.1433 -0.6333
29014SOL    HW292173   7.240  10.850   5.287  1.4919 -1.1380  0.1815
29015SOL     OW92174   3.484   8.106   0.446  0.1071 -0.3506 -0.3005
29015SOL    HW192175   3.528   8.140   0.368  0.3686  1.8980  0.7576
29015SOL    HW292176   3.536   8.031   0.473 -0.1713 -1.3489 -2.4476
29016SOL     OW92177   0.969  11.071   1.632  0.5896 -0.1079  0.0169
29016SOL    HW192178   0.937  11.026   1.554  0.0380  1.1334 -0.4798
29016SOL    HW292179   1.033  11.010   1.670  0.8710 -0.7216 -1.4017
29017SOL     OW92180   5.301  10.976   8.970 -0.3047  0.1254  0.1125
29017SOL    HW192181   5.278  10.884   8.956  1.4958 -0.4492  0.7182
29017SOL    HW292182   5.316  11.011   8.882 -2.3140  0.2176 -0.2117
29018SOL     OW92183   4.003   0.973  11.145  0.1203 -0.3470 -0.3552
29018SOL    HW192184   4.003   0.925  11.062 -1.2588 -2.0084  0.5698
29018SOL    HW292185   3.982   0.907  11.211 -1.4543  1.4544  1.0086
29019SOL     OW92186   0.584   7.425   2.750  0.2064  0.3093  0.2396
29019SOL    HW192187   0.535   7.388   2.824  0.0120  0.8126  0.3651
29019SOL    HW292188   0.665   7.375   2.748 -0.4712 -0.7997 -0.2041
29020SOL     OW92189   1.236   9.059   3.143  0.1463  0.2835  0.4300
29020SOL    HW192190   1.167   9.090   3.084  0.8256 -0.0348 -0.5522
29020SOL    HW292191   1.312   9.111   3.119  0.1355  0.9798  1.8517
29021SOL     OW92192   2.278   8.840   5.719  0.5366 -0.3439 -0.2403
29021SOL    HW192193   2.199   8.852   5.666  0.9361  1.1967 -0.5166
29021SOL    HW292194   2.275   8.749   5.746 -1.1681 -0.3962 -0.5422
29022SOL     OW92195  11.203   1.061   0.819  0.2056 -0.0864 -0.3533
29022SOL    HW192196  11.175   1.112   0.743 -0.2302  0.0147 -0.1293
29022SOL    HW292197  11.289   1.096   0.841 -0.8576  1.7893  0.9021
29023SOL     OW92198   4.434   1.397   1.612 -0.0680 -0.2144  0.2995
29023SOL    HW192199   4.454   1.304   1.596  1.0412  0.2874 -1.3823
29023SOL    HW292200   4.492   1.422   1.684  3.0276  0.3243 -2.2725
29024SOL     OW92201   9.864   4.655   7.088 -0.4137  0.1430  0.3989
29024SOL    HW192202   9.842   4.746   7.066 -1.9627 -0.2396  0.2610
29024SOL    HW292203   9.949   4.640   7.047 -0.3034  1.4317  0.1403
29025SOL     OW92204   6.207   1.872   4.392  0.2531  0.0001 -0.0529
29025SOL    HW192205   6.204   1.781   4.362  0.8527 -0.2538  0.6560
29025SOL    HW292206   6.118   1.890   4.421  0.3898 -0.6954  0.8062
29026SOL     OW92207   8.212   1.665   2.203  0.6284 -0.8051 -0.2469
29026SOL    HW192208   8.270   1.621   2.265 -0.5395 -2.0237  0.0161
29026SOL    HW292209   8.203   1.754   2.237  0.9610 -1.1097  0.6528
29027SOL     OW92210   9.039   8.686   5.985 -0.1906  0.1131  0.3857
29027SOL    HW192211   8.988   8.692   5.905  0.0556  1.5152  0.3285
29027SOL    HW292212   9.092   8.766   5.986 -0.3177  0.1949  2.0189
29028SOL     OW92213   4.961   5.719   1.287  0.1175  0.0527 -0.1961
29028SOL    HW192214   5.000   5.797   1.327 -0.0428 -0.1107  0.2814
29028SOL    HW292215   4.885   5.699   1.342  0.2866 -0.5698 -0.1882
29029SOL     OW92216   4.531   2.934   9.743 -0.2499 -0.2527  0.0574
29029SOL    HW192217   4.453   2.952   9.794 -0.9663 -0.6229 -0.8877
29029SOL    HW292218   4.499   2.918   9.654  0.9576  0.3276 -0.5048
29030SOL     OW92219  11.079  11.208   2.891  0.4046  0.2044 -0.1639
29030SOL    HW192220  11.034  11.154   2.956 -0.1757 -1.0018 -1.5496
29030SOL    HW292221  11.150  11.250   2.940 -0.6576  0.1351  1.4712
29031SOL     OW92222   8.839   5.545   9.529 -0.9063 -0.3731 -0.0980
29031SOL    HW192223   8.810   5.481   9.594 -1.3457  0.9278  1.0176
29031SOL    HW292224   8.846   5.627   9.577 -0.0042  0.3624 -1.4249
29032SOL     OW92225   9.119   1.316   9.005 -0.1529 -0.4447  0.4123
29032SOL    HW192226   9.121   1.232   9.051  2.2770 -1.4757 -1.4562
29032SOL    HW292227   9.057   1.304   8.933  0.3474 -0.7112  0.0247
29033SOL     OW92228   1.290   7.258   6.588 -0.2227 -0.2211  0.2757
29033SOL    HW192229   1.276   7.351   6.606  2.4812  0.1158  0.9527
29033SOL    HW292230   1.356   7.256   6.519 -0.9880 -1.6413 -0.4379
29034SOL     OW92231   2.969   0.293  10.265  0.2719  0.0805  0.2370
29034SOL    HW192232   2.916   0.254  10.195  1.1266  0.1471 -0.4427
29034SOL    HW292233   2.905   0.337  10.321 -0.3537  0.5179 -0.8087
29035SOL     OW92234   2.009   3.092   1.432 -0.1863  0.0949 -0.6551
29035SOL    HW192235   2.019   2.998   1.416  0.6823 -0.2074  1.4779
29035SOL    HW292236   1.916   3.103   1.454  0.1188 -0.6242  1.1077
29036SOL     OW92237   5.424   3.049   4.749  0.1057 -0.0254  0.3640
29036SOL    HW192238   5.508   3.094   4.747  0.4984 -0.7451  0.2777
29036SOL    HW292239   5.372   3.091   4.681  0.3483  0.5094  0.5067
29037SOL     OW92240   6.684   1.354   6.678 -0.0127 -0.2792 -0.1826
29037SOL    HW192241   6.768   1.334   6.720  0.3307  0.0755 -0.6936
29037SOL    HW292242   6.672   1.282   6.615 -0.5602 -0.8494  0.5678
29038SOL     OW92243   5.797   5.548   7.422  0.1680 -0.4874 -0.3848
29038SOL    HW192244   5.759   5.604   7.490  0.9223 -1.1342  0.5701
29038SOL    HW292245   5.816   5.609   7.350  1.4683  0.5799  0.8360
29039SOL     OW92246   9.210   8.524   2.684 -0.1083 -0.3728 -0.3411
29039SOL    HW192247   9.131   8.476   2.660 -1.5283  1.0182  1.3236
29039SOL    HW292248   9.189   8.616   2.663  1.5419 -0.1336 -1.0242
29040SOL     OW92249   9.209   6.878   1.181  0.1539  0.0162 -0.2183
29040SOL    HW192250   9.284   6.893   1.239  0.1685  1.2065 -0.5111
29040SOL    HW292251   9.238   6.914   1.096 -1.1754  1.6186 -0.0220
29041SOL     OW92252   2.050  11.182   6.809  0.5445 -0.0577  0.5182
29041SOL    HW192253   1.977  11.127   6.836  0.0691  0.0976 -0.3944
29041SOL    HW292254   2.020  11.272   6.825  0.2990  0.0326 -0.3702
29042SOL     OW92255   2.716  10.646   4.037  0.1503  0.5644  0.4520
29042SOL    HW192256   2.775  10.577   4.068 -0.9619 -1.1396 -1.1008
29042SOL    HW292257   2.769  10.697   3.975  0.2700 -0.4415 -0.2926
29043SOL     OW92258   9.334   6.568  11.202  0.3729  0.8980  0.0391
29043SOL    HW192259   9.423   6.602  11.214  0.6182  0.5031 -0.6275
29043SOL    HW292260   9.323   6.562  11.107 -0.3590  0.9174  0.1194
29044SOL     OW92261  10.297   9.805   9.801  0.4713  0.5395 -0.3159
29044SOL    HW192262  10.370   9.744   9.802  1.6477  1.9287  0.7063
29044SOL    HW292263  10.322   9.871   9.735 -0.6057  0.1418 -1.1375
29045SOL     OW92264   7.556  10.932   2.398  0.3861  0.4589  0.2532
29045SOL    HW192265   7.639  10.889   2.376 -0.3600 -0.1990 -1.3480
29045SOL    HW292266   7.531  10.979   2.319 -0.8141  0.5931  0.6996
29046SOL     OW92267   9.459   2.553   9.602  0.1062 -0.2967 -0.4198
29046SOL    HW192268   9.384   2.531   9.657 -0.5093  1.8826 -0.3397
29046SOL    HW292269   9.524   2.485   9.621 -0.9099 -0.7947  1.3590
29047SOL     OW92270   2.087   2.298   6.002 -0.0478  0.0921 -0.3316
29047SOL    HW192271   2.067   2.385   6.038  0.0627 -0.4967  1.1797
29047SOL    HW292272   2.049   2.299   5.914 -1.2716  1.1802  0.1996
29048SOL     OW92273  10.753   6.074   1.695  0.0281  0.5461 -0.0693
29048SOL    HW192274  10.732   6.167   1.704  1.5598  0.7029  2.3525
29048SOL    HW292275  10.703   6.032   1.765  1.0276 -0.1752  0.2046
29049SOL     OW92276   0.322   9.588   7.081  0.0345  0.4565 -0.2934
29049SOL    HW192277   0.259   9.598   7.010  1.3488  2.0917 -1.3026
29049SOL    HW292278   0.395   9.540   7.041  1.7456  3.2967 -0.7879
29050SOL     OW92279   9.615   9.318   9.549  0.3165  0.1020  0.4859
29050SOL    HW192280   9.640   9.247   9.490  0.0138  0.8447 -0.5475
29050SOL    HW292281   9.519   9.314   9.551  0.3951 -1.4764  2.8715
29051SOL     OW92282   9.700   8.106   0.702 -0.0838  0.7609  0.0816
29051SOL    HW192283   9.688   8.185   0.754 -1.2673  1.0632 -0.6333
29051SOL    HW292284   9.616   8.060   0.707  0.1461  0.2416 -0.6294
29052SOL     OW92285   1.391  11.006   2.197  0.0917  0.0602 -0.2749
29052SOL    HW192286   1.335  10.999   2.274  1.6685  0.9760  0.9741
29052SOL    HW292287   1.339  11.055   2.133 -0.3227  1.3881  1.0623
29053SOL     OW92288   6.430   5.888   7.564  0.3075  0.0396  0.0800
29053SOL    HW192289   6.405   5.884   7.471 -1.5443 -1.3696  0.6190
29053SOL    HW292290   6.457   5.979   7.577 -1.5615  0.8158 -1.3138
29054SOL     OW92291   9.093  11.285   4.955  0.2841  0.7943  0.5336
29054SOL    HW192292   9.157  11.214   4.950 -0.0744  0.4720  0.5635
29054SOL    HW292293   9.052  11.274   5.041 -0.6734  0.2646  0.0116
29055SOL     OW92294   0.055   6.868   3.863  0.0623  0.4991 -0.6186
29055SOL    HW192295   0.056   6.894   3.954 -1.4130  1.6510 -0.9196
29055SOL    HW292296   0.133   6.910   3.825  1.6319 -1.3451  0.4382
29056SOL     OW92297   5.229   7.695  10.419 -0.0540  0.1198  0.3965
29056SOL    HW192298   5.251   7.678  10.511 -0.7248 -0.5864  0.4330
29056SOL    HW292299   5.236   7.610  10.377  1.5360  0.6758 -0.4901
29057SOL     OW92300   4.367   6.604   0.115 -0.5862  0.1452  0.2064
29057SOL    HW192301   4.360   6.582   0.208 -0.0367 -0.8462  0.0221
29057SOL    HW292302   4.435   6.671   0.111  0.5023 -0.9335  0.3612
29058SOL     OW92303   7.512   9.531   8.500 -0.2357 -0.1628 -0.5300
29058SOL    HW192304   7.469   9.608   8.537  0.3916  0.6002 -1.3474
29058SOL    HW292305   7.494   9.460   8.562 -0.4474  0.7460  0.4586
29059SOL     OW92306   6.967   0.752   1.365  0.2674  0.2730 -0.3576
29059SOL    HW192307   6.909   0.777   1.293  0.2884  2.1815  0.2520
29059SOL    HW292308   6.947   0.815   1.434  1.0081 -0.8777  0.9292
29060SOL     OW92309   5.513   8.160  10.487 -0.1200 -0.1078  0.4520
29060SOL    HW192310   5.604   8.131  10.490 -0.2609 -0.5454  0.5361
29060SOL    HW292311   5.485   8.162  10.579 -0.6444 -1.4149  0.3332
29061SOL     OW92312   1.657   0.678   7.726  0.1058  0.6556 -0.3514
29061SOL    HW192313   1.682   0.619   7.797 -0.7083  0.7021 -0.0083
29061SOL    HW292314   1.573   0.644   7.696 -0.2111  1.4367 -0.3736
29062SOL     OW92315  11.017  10.195   4.826 -0.0507  0.2715 -0.6433
29062SOL    HW192316  11.014  10.125   4.892 -1.7486  1.4020  0.5261
29062SOL    HW292317  10.973  10.158   4.750  1.8319 -1.0130 -1.1374
29063SOL     OW92318   6.542   3.179  10.995 -0.3995  0.0154 -0.2076
29063SOL    HW192319   6.512   3.153  11.082 -0.2420  0.1127 -0.1234
29063SOL    HW292320   6.529   3.101  10.941 -1.7472  0.3623 -0.4086
29064SOL     OW92321  10.190   8.448   1.232 -0.4818 -0.2089  0.0041
29064SOL    HW192322  10.180   8.541   1.249  1.3304  0.1596 -0.7903
29064SOL    HW292323  10.118   8.426   1.173  0.0887  1.0958 -1.2174
29065SOL     OW92324   3.053  10.158   6.066 -0.0118 -0.1134 -0.1057
29065SOL    HW192325   3.095  10.072   6.062 -0.3478 -0.2449 -0.9011
29065SOL    HW292326   3.099  10.210   6.000 -0.1504  0.1716  0.0205
29066SOL     OW92327   2.541  10.586   7.897  0.5658  0.3767  0.5205
29066SOL    HW192328   2.612  10.531   7.932 -0.9512 -1.7195  0.3854
29066SOL    HW292329   2.465  10.565   7.952 -0.2702  1.6822 -0.1259
29067SOL     OW92330  10.936   9.831   9.716 -0.7149 -0.1905  0.4625
29067SOL    HW192331  11.008   9.894   9.713 -0.9361  0.1086  1.3625
29067SOL    HW292332  10.963   9.767   9.783 -0.9304 -0.5075  0.2491
29068SOL     OW92333   2.268   5.445   1.233 -1.0260 -0.1885  0.1356
29068SOL    HW192334   2.232   5.502   1.302 -0.0326 -0.8526  1.2189
29068SOL    HW292335   2.253   5.356   1.266  1.0393 -0.4864  0.3128
29069SOL     OW92336   9.788   5.215   6.118 -0.6011  0.3567  0.5160
29069SOL    HW192337   9.741   5.185   6.041 -0.7185  1.2179  0.2480
29069SOL    HW292338   9.834   5.137   6.150  0.3112  0.2385 -1.0446
29070SOL     OW92339   9.303   1.529  10.666 -0.0953  0.4932 -0.0758
29070SOL    HW192340   9.320   1.604  10.609 -0.1317  0.7890  0.2963
29070SOL    HW292341   9.209   1.535  10.686  0.1726  1.1314  1.0424
29071SOL     OW92342   4.535   9.304   3.821 -0.0486  0.1054  0.4362
29071SOL    HW192343   4.458   9.265   3.860  0.1748 -0.1405  0.6282
29071SOL    HW292344   4.596   9.231   3.809 -0.2085  0.1312 -0.5911
29072SOL     OW92345   5.267   8.433   4.848  0.3254 -0.4693  0.4415
29072SOL    HW192346   5.314   8.516   4.849  1.3215 -1.0224  2.7483
29072SOL    HW292347   5.204   8.440   4.919  0.8532 -1.9081  1.0840
29073SOL     OW92348   1.877   4.078   3.076 -0.3288 -0.0590  0.4039
29073SOL    HW192349   1.799   4.132   3.088  1.0464  1.9990  0.2776
29073SOL    HW292350   1.898   4.086   2.983  1.5982  1.6420  0.9460
29074SOL     OW92351   1.347   4.630   6.683  0.1474 -0.3051  0.2389
29074SOL    HW192352   1.428   4.669   6.715  1.0750 -2.4511  0.5983
29074SOL    HW292353   1.336   4.551   6.736  0.2760 -2.4833 -2.8542
29075SOL     OW92354  10.745   2.529  11.226  0.0657  0.0130  0.3553
29075SOL    HW192355  10.692   2.450  11.232  1.2918 -0.8417 -0.0178
29075SOL    HW292356  10.827   2.507  11.269  0.1305  1.3306  0.9342
29076SOL     OW92357   4.191   3.544   9.205 -0.2916  0.3081 -0.0428
29076SOL    HW192358   4.164   3.633   9.183 -1.0143  0.2382  0.5400
29076SOL    HW292359   4.166   3.492   9.128  0.5186  0.6760 -0.5595
29077SOL     OW92360   9.912   1.666   3.973 -0.5776 -0.3731  0.1125
29077SOL    HW192361   9.966   1.588   3.987 -1.6079 -1.0951  0.0900
29077SOL    HW292362   9.887   1.660   3.881  0.3065  0.6069 -0.1959
29078SOL     OW92363   6.669   8.209   9.158 -0.5871 -0.0490  0.6068
29078SOL    HW192364   6.686   8.159   9.078  0.5038 -0.3723  1.0173
29078SOL    HW292365   6.574   8.221   9.160 -0.4978  1.1494 -1.4186
29079SOL     OW92366   9.405   3.330   6.340  0.0885  0.0332  0.4735
29079SOL    HW192367   9.498   3.316   6.321  0.0995 -2.2209  2.0775
29079SOL    HW292368   9.394   3.299   6.429 -2.5655 -1.3867 -0.3160
29080SOL     OW92369   3.593   5.941   5.087 -0.1244 -0.4043 -0.2211
29080SOL    HW192370   3.632   5.881   5.023 -0.6292 -2.7016  1.5869
29080SOL    HW292371   3.570   5.886   5.161 -2.5750  1.6983  0.6425
29081SOL     OW92372   0.370   1.150   7.111  0.5942  0.2540  0.1570
29081SOL    HW192373   0.397   1.059   7.095  1.1738  0.7157 -1.5884
29081SOL    HW292374   0.287   1.159   7.064  2.5871  1.7880 -3.2218
29082SOL     OW92375  10.792   9.427   3.924  0.2676 -0.4269 -0.3580
29082SOL    HW192376  10.823   9.337   3.930  1.6990  0.1670  1.3998
29082SOL    HW292377  10.860   9.473   3.875 -0.1517 -0.1516 -0.6939
29083SOL     OW92378   3.883   3.836   4.525 -0.5396 -0.5713  1.1153
29083SOL    HW192379   3.944   3.849   4.598 -0.5213  1.0097  0.8509
29083SOL    HW292380   3.894   3.745   4.501  3.1244  0.1062 -0.1374
29084SOL     OW92381   8.899   0.566   5.350  0.3272  0.0164 -0.7495
29084SOL    HW192382   8.959   0.621   5.300  0.4578  2.0996  1.6023
29084SOL    HW292383   8.885   0.614   5.432 -1.3116 -2.4090  0.4516
29085SOL     OW92384  11.254   7.756   7.798 -0.0638 -0.0754  0.3166
29085SOL    HW192385  11.176   7.811   7.802 -0.3748 -0.6351  2.1436
29085SOL    HW292386  11.313   7.792   7.864 -0.7691 -2.6527  2.4396
29086SOL     OW92387   4.947   2.237   0.356 -0.2078  0.3094  0.2432
29086SOL    HW192388   4.998   2.156   0.362 -1.7587 -0.8542 -1.7785
29086SOL    HW292389   4.877   2.226   0.420 -0.0321  0.3467  0.4429
29087SOL     OW92390   6.841  10.045   2.744  0.2867  0.4172 -0.1670
29087SOL    HW192391   6.798  10.128   2.764 -1.5926 -0.3115 -1.0989
29087SOL    HW292392   6.842   9.998   2.827 -0.1922  0.6827 -0.0074
29088SOL     OW92393   3.949  10.017   4.318  0.0750  0.5467 -0.3587
29088SOL    HW192394   4.037  10.054   4.315  0.0995  0.4195 -1.3518
29088SOL    HW292395   3.930  10.008   4.411  1.8454 -1.1490 -0.1276
29089SOL     OW92396   5.211   5.091   8.418 -0.1320 -0.3302  0.0347
29089SOL    HW192397   5.276   5.023   8.405 -0.4693 -0.5800 -0.3520
29089SOL    HW292398   5.154   5.085   8.341  0.1880  0.7769 -0.3019
29090SOL     OW92399  10.359   1.746   9.012  0.4958  0.1034  0.5139
29090SOL    HW192400  10.350   1.841   9.010 -0.4068  0.0015 -1.2387
29090SOL    HW292401  10.296   1.717   9.078 -2.2736  0.4391 -1.9251
29091SOL     OW92402   8.103   3.353   2.541  0.7460  0.2939 -0.3776
29091SOL    HW192403   8.025   3.350   2.597  0.1019  0.5080 -1.2589
29091SOL    HW292404   8.079   3.304   2.463  0.8377  1.9454 -1.4577
29092SOL     OW92405   3.933   6.156  10.571 -0.4094 -0.3025 -0.0985
29092SOL    HW192406   3.843   6.145  10.543 -0.8558 -0.9218  1.5122
29092SOL    HW292407   3.930   6.223  10.639  0.0018 -1.8789  1.5208
29093SOL     OW92408   4.393   0.861   2.415 -0.4458  0.6381  0.3910
29093SOL    HW192409   4.298   0.846   2.415 -0.3777  0.1806 -0.3169
29093SOL    HW292410   4.430   0.775   2.430 -0.1086  0.5536 -0.8775
29094SOL     OW92411   3.559   3.787   6.175 -0.1529  0.2582  0.1029
29094SOL    HW192412   3.626   3.855   6.179 -1.4733  1.5334  0.9054
29094SOL    HW292413   3.538   3.768   6.267 -2.0102  1.0097 -0.1481
29095SOL     OW92414   8.457   6.506  10.825 -0.4705 -0.1978  0.2527
29095SOL    HW192415   8.532   6.507  10.765 -1.2337  0.3579 -0.7113
29095SOL    HW292416   8.492   6.473  10.907  0.8913  0.3273 -0.1147
29096SOL     OW92417   3.407   2.289   1.058 -0.1458 -0.0887 -0.9516
29096SOL    HW192418   3.328   2.320   1.101 -0.1825  0.0282 -1.1033
29096SOL    HW292419   3.475   2.293   1.125  0.1430  1.5229 -1.3176
29097SOL     OW92420   6.945   2.626   4.644  0.0947  0.2596  0.8644
29097SOL    HW192421   6.925   2.703   4.590  0.4684  0.1054  0.5066
29097SOL    HW292422   6.975   2.560   4.582  1.8660  0.5278  1.4138
29098SOL     OW92423   3.596   5.057   6.546 -0.0672  0.8584 -0.4399
29098SOL    HW192424   3.532   5.100   6.489  0.0556  1.1957 -0.3267
29098SOL    HW292425   3.572   5.085   6.634  1.1313  2.1784 -0.5174
29099SOL     OW92426  10.292   7.723   6.745 -0.0603 -0.0566  0.0888
29099SOL    HW192427  10.323   7.804   6.706 -0.0344  0.0902  0.4117
29099SOL    HW292428  10.301   7.736   6.839 -1.2933  0.0674  0.2020
29100SOL     OW92429   3.019   3.738   8.784 -0.2364 -0.0669  0.2036
29100SOL    HW192430   3.050   3.804   8.723 -0.9690 -0.0962 -0.2059
29100SOL    HW292431   3.098   3.691   8.811  0.0613 -0.2038 -0.8909
29101SOL     OW92432   8.438   0.081   4.867 -0.2402  0.5898  0.3488
29101SOL    HW192433   8.407   0.110   4.953 -2.3653 -1.8306  0.4466
29101SOL    HW292434   8.375   0.117   4.805 -1.0881 -1.1222  0.1955
29102SOL     OW92435   7.662   7.628   8.482 -0.5622 -0.0267 -0.2733
29102SOL    HW192436   7.713   7.571   8.540  0.1865  1.5000  0.6063
29102SOL    HW292437   7.691   7.605   8.394  1.6536  0.7960  0.2168
29103SOL     OW92438  11.194  10.778   9.421  0.5983  0.0044 -0.3229
29103SOL    HW192439  11.174  10.870   9.438  0.2401 -0.3381  1.1016
29103SOL    HW292440  11.111  10.732   9.435 -0.0275 -0.1901 -4.0450
29104SOL     OW92441   2.073   7.947   3.712 -0.5870 -0.2560  0.2262
29104SOL    HW192442   1.980   7.971   3.711 -0.2969  1.0401  1.8565
29104SOL    HW292443   2.105   7.980   3.796  0.8359 -2.7001  0.6718
29105SOL     OW92444   2.143   3.595   3.417 -0.3710 -0.6475 -0.4310
29105SOL    HW192445   2.170   3.597   3.325 -0.0288 -2.0334 -0.3632
29105SOL    HW292446   2.134   3.688   3.441 -2.5508 -0.2618 -2.4683
29106SOL     OW92447   0.633   5.833   9.527 -0.0349  0.1789  0.1495
29106SOL    HW192448   0.576   5.764   9.563  1.8174 -0.7306  1.4565
29106SOL    HW292449   0.706   5.785   9.488  1.5930  1.3901  1.6293
29107SOL     OW92450   7.637   5.657   2.530 -0.5313  0.0732  0.2436
29107SOL    HW192451   7.589   5.600   2.589 -1.8089 -0.6758 -1.4630
29107SOL    HW292452   7.722   5.613   2.519 -0.7895 -0.4948  0.4720
29108SOL     OW92453   5.198   4.124   6.827 -0.0910 -0.1579  0.2481
29108SOL    HW192454   5.126   4.169   6.784 -1.1298 -0.9363  1.1254
29108SOL    HW292455   5.183   4.031   6.808 -0.4571 -0.5006  2.0745
29109SOL     OW92456   6.816   1.571   3.006 -0.3418 -0.5130  0.4346
29109SOL    HW192457   6.759   1.643   2.979  0.1469 -0.6625 -1.0539
29109SOL    HW292458   6.876   1.559   2.932  1.1725 -0.8163  1.6796
29110SOL     OW92459   3.029   2.131   9.434  0.1302 -0.6389 -0.0854
29110SOL    HW192460   3.082   2.174   9.501 -0.2383 -2.6327  1.5265
29110SOL    HW292461   3.091   2.114   9.362  0.7180  0.7364  0.0752
29111SOL     OW92462   3.447   9.929   5.395  0.1823  0.3694 -0.0595
29111SOL    HW192463   3.418   9.934   5.304  2.4083  0.9983 -0.7701
29111SOL    HW292464   3.449  10.020   5.425 -0.5559  0.1627  0.6367
29112SOL     OW92465   8.195   0.465   9.978  0.2653 -0.2284  0.2304
29112SOL    HW192466   8.274   0.418   9.951  0.7636 -0.3826  1.9064
29112SOL    HW292467   8.141   0.469   9.899  1.0341 -1.9513 -0.3932
29113SOL     OW92468   8.839   0.748   3.257 -0.5108 -0.2870  0.0589
29113SOL    HW192469   8.891   0.669   3.275  0.7482  0.2726 -1.0110
29113SOL    HW292470   8.775   0.751   3.328  1.0617 -0.8913  1.5553
29114SOL     OW92471   9.428   7.266   1.227 -0.5403  0.1336 -0.2786
29114SOL    HW192472   9.457   7.286   1.316  0.1342  2.3171 -0.9611
29114SOL    HW292473   9.374   7.341   1.202 -0.3463 -0.2479 -1.8764
29115SOL     OW92474   8.538  10.465   1.101 -0.1976 -0.6960 -0.3490
29115SOL    HW192475   8.634  10.469   1.099 -0.2512  1.7510  0.6067
29115SOL    HW292476   8.509  10.540   1.050 -1.5955 -0.5795  0.5810
29116SOL     OW92477   1.346   0.714   4.580  0.8935  0.6072  0.1357
29116SOL    HW192478   1.411   0.645   4.563 -0.2063 -0.3432 -0.2592
29116SOL    HW292479   1.333   0.711   4.675  0.0889 -0.4374  0.0012
29117SOL     OW92480  10.833   8.785   3.160  0.1107 -0.3154 -0.3889
29117SOL    HW192481  10.810   8.823   3.245  0.4214  1.1487 -0.9505
29117SOL    HW292482  10.793   8.698   3.161 -0.3996 -0.0769  1.0126
29118SOL     OW92483  10.041   4.536   4.197  0.1235 -0.0449  0.1961
29118SOL    HW192484  10.096   4.488   4.259  0.6255  0.2966  0.0196
29118SOL    HW292485  10.043   4.627   4.229  2.6745  0.6849 -1.9200
29119SOL     OW92486  11.143  10.601   0.915  0.3285  0.4062  0.0266
29119SOL    HW192487  11.161  10.508   0.899 -1.1145 -0.1315  1.3592
29119SOL    HW292488  11.085  10.627   0.843  1.4790  0.5447 -0.8722
29120SOL     OW92489   0.834   4.973   5.487 -0.0237  0.0953 -0.6685
29120SOL    HW192490   0.895   4.929   5.427  1.3040  0.7655  0.1484
29120SOL    HW292491   0.886   4.987   5.567 -1.0826  1.2079 -0.1612
29121SOL     OW92492   5.520   5.948   2.736 -0.0347  0.0628  0.2067
29121SOL    HW192493   5.503   5.872   2.680  1.3847  0.0559 -0.2361
29121SOL    HW292494   5.433   5.980   2.760 -0.6764 -2.6750  1.7735
29122SOL     OW92495   4.388   6.159   6.600 -0.4271 -0.5344 -0.4859
29122SOL    HW192496   4.469   6.202   6.628 -1.4340  2.7450 -2.3355
29122SOL    HW292497   4.397   6.152   6.505 -2.3105 -0.1699 -0.7053
29123SOL     OW92498   9.766  10.299   3.049 -0.1093 -0.1801  0.1355
29123SOL    HW192499   9.846  10.330   3.008  0.5469  0.1346  1.6211
29123SOL    HW292500   9.766  10.204   3.033 -0.4799  0.1012 -1.6023
29124SOL     OW92501   6.132   8.675   2.646  0.3561  0.2305  0.6363
29124SOL    HW192502   6.194   8.616   2.690 -0.8762 -0.4268  1.5482
29124SOL    HW292503   6.120   8.747   2.708  3.1584  2.3643 -1.1965
29125SOL     OW92504   2.369   7.758   6.379  0.4191 -0.4636  0.1902
29125SOL    HW192505   2.345   7.686   6.437  2.0622 -0.9674  0.2752
29125SOL    HW292506   2.361   7.837   6.433 -2.7766 -0.3870 -0.3048
29126SOL     OW92507   8.646  10.071   0.199 -0.3535  0.4518 -0.5092
29126SOL    HW192508   8.619   9.996   0.146 -0.2666  0.8423 -1.1198
29126SOL    HW292509   8.741  10.077   0.183  0.2629 -1.3442  2.1613
29127SOL     OW92510   5.747   6.018   0.030  0.0783 -0.6335  0.0593
29127SOL    HW192511   5.677   6.037   0.092  1.0601 -0.8579  1.2702
29127SOL    HW292512   5.748   5.922   0.024 -0.3715 -0.5924 -0.7349
29128SOL     OW92513   1.741   3.547   5.622 -1.1304  0.0433  0.3904
29128SOL    HW192514   1.741   3.524   5.715 -0.7316 -1.8108 -0.0590
29128SOL    HW292515   1.821   3.598   5.610 -0.0538 -1.5743  0.6258
29129SOL     OW92516   9.714   2.169   5.006  0.1812  0.3820  0.2877
29129SOL    HW192517   9.624   2.165   5.037  0.7638  0.6740  2.0365
29129SOL    HW292518   9.706   2.203   4.916 -1.6008 -1.7470 -0.4147
29130SOL     OW92519   4.588   1.179   1.272  0.5187  0.2451  0.1911
29130SOL    HW192520   4.637   1.117   1.325 -0.4702 -0.9860 -0.3213
29130SOL    HW292521   4.633   1.263   1.286  1.3869 -0.4188  1.4917
29131SOL     OW92522   4.798   0.926   1.050 -0.2949 -0.0891  0.3694
29131SOL    HW192523   4.888   0.929   1.016 -1.0596 -2.5459 -1.9934
29131SOL    HW292524   4.796   0.846   1.103 -0.2341  1.6632  3.1257
29132SOL     OW92525   9.116   8.735   9.253 -0.7141  0.8712  0.0675
29132SOL    HW192526   9.031   8.757   9.216 -1.6723  1.4115  2.4895
29132SOL    HW292527   9.124   8.641   9.240 -2.9146  0.3494  2.2055
29133SOL     OW92528   0.479   0.320   2.937  0.1957 -0.1300 -0.2707
29133SOL    HW192529   0.399   0.268   2.948 -0.3255  0.3841 -1.5625
29133SOL    HW292530   0.550   0.255   2.939 -0.4410 -0.8880 -1.6880
29134SOL     OW92531   1.136   0.677   7.486 -0.1512  0.2651  0.3366
29134SOL    HW192532   1.226   0.686   7.455  0.1543 -0.3677  1.0549
29134SOL    HW292533   1.115   0.763   7.522 -0.2019  0.7407 -0.7782
29135SOL     OW92534  11.123   9.945   5.060 -0.0658  0.5719 -0.1490
29135SOL    HW192535  11.100   9.975   5.148 -0.0708  0.3397 -0.0688
29135SOL    HW292536  11.185  10.010   5.027  0.2631  0.4322  0.1921
29136SOL     OW92537   2.684   4.411   4.977 -0.1721 -0.0534  0.0507
29136SOL    HW192538   2.666   4.505   4.985 -0.6172 -0.2521  1.5683
29136SOL    HW292539   2.779   4.406   4.967  0.0423  0.4820  1.6682
29137SOL     OW92540   2.316   2.564  10.040  0.2535 -0.6664 -0.0746
29137SOL    HW192541   2.330   2.655  10.067  1.8070 -0.2156 -2.2306
29137SOL    HW292542   2.303   2.517  10.122  1.9238  1.0924  1.2690
29138SOL     OW92543   9.846  11.318   1.538  0.0216  0.2383 -0.1240
29138SOL    HW192544   9.856  11.270   1.456  0.2483  0.7048 -0.3663
29138SOL    HW292545   9.889  11.402   1.523  1.5215 -0.3096  1.0349
29139SOL     OW92546   4.620  10.211   3.622  0.0916  0.2289 -0.2125
29139SOL    HW192547   4.593  10.252   3.540  1.7817  0.7150 -0.5586
29139SOL    HW292548   4.545  10.219   3.680 -0.5535  1.3320 -1.1937
29140SOL     OW92549   8.482   2.494   5.216 -0.2887 -0.4098 -0.0442
29140SOL    HW192550   8.418   2.556   5.250  0.2335  0.6300 -0.9102
29140SOL    HW292551   8.539   2.474   5.290 -0.4483  0.1632  0.2307
29141SOL     OW92552   4.651   7.028   8.926  0.2207  0.0465 -0.5009
29141SOL    HW192553   4.605   6.946   8.943  0.8238 -0.0198  0.8578
29141SOL    HW292554   4.679   7.021   8.835  0.9407 -1.5860 -0.1671
29142SOL     OW92555   9.108   0.810   4.683  0.0499 -0.2220 -0.1927
29142SOL    HW192556   9.176   0.858   4.731  2.4525 -0.7643 -2.8860
29142SOL    HW292557   9.055   0.878   4.642 -0.5104  0.1968  1.2007
29143SOL     OW92558   6.355   4.100  10.401  0.3118 -0.1993 -0.2009
29143SOL    HW192559   6.343   4.035  10.471  1.5043 -0.6176 -0.3717
29143SOL    HW292560   6.374   4.181  10.448 -0.8000 -0.0481  0.0049
29144SOL     OW92561   7.083   3.348   9.830  0.2628 -0.0075 -0.1279
29144SOL    HW192562   7.107   3.414   9.765 -1.0204 -0.5438 -1.1690
29144SOL    HW292563   7.126   3.268   9.799 -1.7558 -0.6756 -1.3145
29145SOL     OW92564   5.366   6.772   5.045  0.3462  0.3695 -0.4397
29145SOL    HW192565   5.298   6.780   5.112  2.0070  1.2573  1.1813
29145SOL    HW292566   5.385   6.679   5.040  0.3645  0.3255  0.4734
29146SOL     OW92567   3.945   5.536   5.548 -0.3051 -0.3331  0.0537
29146SOL    HW192568   3.888   5.492   5.611 -0.3386 -1.1083 -0.5052
29146SOL    HW292569   3.924   5.495   5.464  2.2658 -1.8554  0.1080
29147SOL     OW92570   5.101   5.335   7.780  0.8736 -0.0766 -0.3346
29147SOL    HW192571   5.044   5.393   7.730  0.2180 -1.1354 -0.8490
29147SOL    HW292572   5.146   5.282   7.713  1.1428 -0.4389  0.1306
29148SOL     OW92573   8.640   6.951   6.188  0.5372  0.3727 -0.0872
29148SOL    HW192574   8.638   6.986   6.277  1.7243  2.4921 -0.8611
29148SOL    HW292575   8.586   7.012   6.138  1.2722  0.1722 -1.1326
29149SOL     OW92576   7.406   2.927   4.550 -0.4152  0.2877 -0.3547
29149SOL    HW192577   7.437   2.941   4.639  0.0380  2.1971 -0.7873
29149SOL    HW292578   7.382   2.834   4.547 -0.1839  0.1428  1.6574
29150SOL     OW92579   4.631   9.918   3.613 -0.2747  0.0466 -0.7166
29150SOL    HW192580   4.649  10.012   3.611  0.7261 -0.1361 -0.5283
29150SOL    HW292581   4.569   9.904   3.541  0.1170  0.7342 -1.1940
29151SOL     OW92582   1.565   8.941   7.565  0.3594  0.3152  0.4454
29151SOL    HW192583   1.599   8.906   7.483 -1.1782  2.8796 -1.3339
29151SOL    HW292584   1.470   8.939   7.555  0.1186 -0.4018  2.6250
29152SOL     OW92585   4.584   7.322   7.065  0.0131 -0.1445 -0.1521
29152SOL    HW192586   4.590   7.333   6.970  0.6022 -0.7075 -0.1794
29152SOL    HW292587   4.588   7.411   7.099  2.2415 -0.0924 -0.5119
29153SOL     OW92588   6.276   3.552   5.751  0.0728  0.5417 -0.3423
29153SOL    HW192589   6.301   3.465   5.720  0.4928  0.8175 -0.7784
29153SOL    HW292590   6.186   3.563   5.720  0.1781  0.4511 -0.6774
29154SOL     OW92591   4.422  10.896   3.458 -0.2781 -0.2162  0.0847
29154SOL    HW192592   4.361  10.929   3.392 -0.1852  1.6446  0.9090
29154SOL    HW292593   4.396  10.941   3.538  1.9862  0.3432  0.5169
29155SOL     OW92594   3.981   8.989   1.968 -0.0131  0.4756 -0.1473
29155SOL    HW192595   3.988   8.981   1.873 -0.4807 -0.1320 -0.1348
29155SOL    HW292596   3.893   9.024   1.983  0.0991  0.6728  0.0585
29156SOL     OW92597   8.519   5.364   4.507  0.0808  0.1449 -0.4436
29156SOL    HW192598   8.521   5.316   4.424  1.0514  0.5133 -0.6404
29156SOL    HW292599   8.582   5.434   4.495  0.2706  0.1599  0.6391
29157SOL     OW92600  10.605   8.943   1.286  0.3830  0.5869 -0.6942
29157SOL    HW192601  10.610   8.853   1.254 -0.0888  0.2475  0.1778
29157SOL    HW292602  10.611   8.934   1.382 -2.4473  1.2748 -0.4324
29158SOL     OW92603   6.628   2.406   9.228 -0.3368 -0.7113 -0.1556
29158SOL    HW192604   6.699   2.392   9.291  0.5138 -0.8331 -1.1287
29158SOL    HW292605   6.613   2.319   9.191 -0.5397 -0.5577 -0.4283
29159SOL     OW92606   7.739   5.980   6.076 -0.2147  0.1116  0.0363
29159SOL    HW192607   7.687   5.922   6.132  0.4238 -1.2883 -0.8024
29159SOL    HW292608   7.743   5.935   5.992  2.7258 -0.0176  0.2100
29160SOL     OW92609   8.616   9.230   5.800  0.4763 -0.1719  0.4212
29160SOL    HW192610   8.543   9.256   5.856  0.5779  0.6553  0.1718
29160SOL    HW292611   8.689   9.217   5.861  0.3880 -0.0168  0.5607
29161SOL     OW92612   3.670   4.404   9.990  0.2380  0.1773 -0.1291
29161SOL    HW192613   3.734   4.419   9.921  1.7629  0.5523  1.3531
29161SOL    HW292614   3.599   4.355   9.946  2.7558 -2.7051 -1.1679
29162SOL     OW92615   6.321   9.949  10.888 -0.5873 -0.3113  0.1468
29162SOL    HW192616   6.334   9.898  10.968 -0.4789 -0.9559 -0.2758
29162SOL    HW292617   6.226   9.953  10.877 -0.5961 -0.4660  0.1597
29163SOL     OW92618   2.158   3.483   2.706 -0.2361 -0.5522  0.2987
29163SOL    HW192619   2.110   3.559   2.675 -0.3144 -1.2277 -1.3115
29163SOL    HW292620   2.091   3.421   2.735 -0.1974 -0.2720  1.0022
29164SOL     OW92621   1.635   1.229   8.962  0.1446  0.2128  0.5793
29164SOL    HW192622   1.720   1.187   8.976 -0.4389 -0.5733  1.9336
29164SOL    HW292623   1.584   1.165   8.913  0.4502  0.8317 -0.5528
29165SOL     OW92624   4.505   8.571  10.855  0.0710  1.0666 -0.3384
29165SOL    HW192625   4.458   8.637  10.805 -0.8359  1.6697  1.2636
29165SOL    HW292626   4.545   8.620  10.927  1.2303  0.2007 -0.3783
29166SOL     OW92627   3.668  10.356   9.457 -0.0313  0.1126 -0.6008
29166SOL    HW192628   3.586  10.307   9.463 -1.0457  1.8354 -0.0764
29166SOL    HW292629   3.657  10.429   9.517  1.0513  1.5587 -2.1066
29167SOL     OW92630   7.180   2.933  10.523  0.4564  0.2624 -0.4687
29167SOL    HW192631   7.268   2.968  10.533  0.3623  0.3888 -0.0643
29167SOL    HW292632   7.153   2.909  10.612 -1.0975  3.1036 -0.1036
29168SOL     OW92633  10.122   5.105   6.816  0.3164 -0.0615  0.1861
29168SOL    HW192634  10.189   5.080   6.880  0.3731  0.0382  0.1661
29168SOL    HW292635  10.084   5.022   6.787  1.0521 -0.1621 -0.4843
29169SOL     OW92636   2.463  11.152   9.523 -0.2488 -0.0345 -0.3711
29169SOL    HW192637   2.401  11.147   9.450 -1.4046  1.9190  0.4239
29169SOL    HW292638   2.518  11.227   9.502  0.1139 -0.1251  0.2392
29170SOL     OW92639  10.702   9.750   6.545 -0.2979  0.3474 -0.0726
29170SOL    HW192640  10.760   9.677   6.525 -0.8563 -0.2170  0.3616
29170SOL    HW292641  10.752   9.828   6.521  0.2351 -0.1847 -0.6864
29171SOL     OW92642   3.328   7.228  10.752 -0.1760 -0.0284  0.2601
29171SOL    HW192643   3.318   7.284  10.828  1.2169  0.7091 -0.0846
29171SOL    HW292644   3.308   7.140  10.784  1.6139  0.0935  1.7830
29172SOL     OW92645   7.828   9.027   4.400 -0.2512 -0.2003  0.1612
29172SOL    HW192646   7.832   8.988   4.488  0.7482 -0.9612 -0.2216
29172SOL    HW292647   7.903   9.086   4.396 -1.1184  0.9245  0.3282
29173SOL     OW92648   3.502   0.211   3.750 -0.1168 -0.4692 -0.0918
29173SOL    HW192649   3.446   0.138   3.725 -2.5970  1.1859  0.3485
29173SOL    HW292650   3.444   0.269   3.801  1.4054  2.3729 -1.4516
29174SOL     OW92651   7.985   4.245   3.160 -0.4537 -0.1051 -0.2616
29174SOL    HW192652   7.973   4.152   3.180 -1.1527  0.0939  0.2764
29174SOL    HW292653   7.896   4.278   3.144 -0.1049  0.2323 -1.5428
29175SOL     OW92654   5.016  10.152   8.806  0.0506  0.4027 -0.1013
29175SOL    HW192655   4.948  10.091   8.777  0.9148  0.0256 -1.3851
29175SOL    HW292656   5.003  10.230   8.752 -0.2447  0.8688  0.6402
29176SOL     OW92657   8.474   8.179   6.530 -0.3467 -0.2760 -0.2092
29176SOL    HW192658   8.567   8.194   6.513 -0.3987 -2.1617 -2.4318
29176SOL    HW292659   8.457   8.091   6.495 -2.8756 -0.1240  0.5262
29177SOL     OW92660  10.212   0.203  10.438 -0.2995  0.3435 -0.0272
29177SOL    HW192661  10.180   0.151  10.364 -1.2273 -1.0259  1.3047
29177SOL    HW292662  10.159   0.282  10.437 -1.1264 -0.2105 -0.1134
29178SOL     OW92663  10.171   1.636   0.659  0.1851  0.2980 -0.3389
29178SOL    HW192664  10.163   1.640   0.754 -2.2732 -1.9617 -0.3797
29178SOL    HW292665  10.257   1.674   0.640  1.6576 -1.1896  2.9631
29179SOL     OW92666   0.150   9.107   3.714  0.7391 -0.1176 -0.4056
29179SOL    HW192667   0.168   9.182   3.657  1.7710 -1.5897 -2.0677
29179SOL    HW292668   0.099   9.143   3.786  0.9492  2.1226 -1.3513
29180SOL     OW92669   3.292   3.590   6.655 -0.3257 -0.4348 -0.4063
29180SOL    HW192670   3.363   3.647   6.686 -0.4086  0.2323 -1.4127
29180SOL    HW292671   3.214   3.646   6.656 -0.4171 -0.5351 -1.3621
29181SOL     OW92672   9.922   2.728   7.160  0.4855 -0.1725 -0.4028
29181SOL    HW192673   9.931   2.823   7.149 -0.4981 -0.0067  0.1425
29181SOL    HW292674   9.828   2.712   7.152  0.5643 -1.0106  0.2614
29182SOL     OW92675   8.709  10.856   9.582  0.8089 -0.2238 -0.3654
29182SOL    HW192676   8.615  10.852   9.600  1.1651 -1.2278  1.4054
29182SOL    HW292677   8.724  10.788   9.516 -0.0863  1.6577 -2.5739
29183SOL     OW92678   9.312   7.663   1.382 -0.0690 -0.1409 -0.1930
29183SOL    HW192679   9.299   7.597   1.314 -0.3466 -0.7702  0.4662
29183SOL    HW292680   9.273   7.743   1.345  1.3814 -0.0142 -1.4990
29184SOL     OW92681   4.844   4.429   9.977 -0.2060 -0.7222 -0.4435
29184SOL    HW192682   4.910   4.479  10.026 -1.1805  1.0428 -0.8582
29184SOL    HW292683   4.885   4.411   9.893 -0.3995  0.8357 -0.9004
29185SOL     OW92684   6.018   2.045  10.537  0.2314 -0.0290 -0.6512
29185SOL    HW192685   5.964   2.123  10.546  0.0787 -0.1445 -0.5566
29185SOL    HW292686   6.108   2.077  10.539  0.1660  0.4637 -3.2921
29186SOL     OW92687   6.142   0.775   2.432  0.4359  0.2613 -0.2891
29186SOL    HW192688   6.158   0.791   2.339 -0.3988  0.6539 -0.3636
29186SOL    HW292689   6.105   0.856   2.464 -1.2101 -0.5691 -0.0560
29187SOL     OW92690   7.558   4.110   2.633  0.1334  0.4963 -0.2076
29187SOL    HW192691   7.548   4.020   2.603 -0.3857  0.3444  0.4324
29187SOL    HW292692   7.651   4.129   2.619 -0.1343  0.5242 -2.2057
29188SOL     OW92693   6.564   7.498   6.757 -0.2862 -0.3021  0.0422
29188SOL    HW192694   6.554   7.421   6.812 -0.7194 -1.1268 -1.1863
29188SOL    HW292695   6.654   7.527   6.773 -0.3732 -0.5955  1.0915
29189SOL     OW92696  11.052   2.996   3.542  0.7414  0.6728  0.7547
29189SOL    HW192697  11.068   3.017   3.450  1.2366 -0.4793  0.5689
29189SOL    HW292698  11.098   3.065   3.590  0.3368  1.3854  0.1501
29190SOL     OW92699  10.441   1.001   5.247 -0.3271 -0.1907 -0.1331
29190SOL    HW192700  10.409   1.005   5.157  1.0189 -2.2422 -0.7294
29190SOL    HW292701  10.531   1.033   5.242  0.2999 -1.8661  0.1788
29191SOL     OW92702  10.344   6.928   8.641 -0.4803 -0.1235  0.3303
29191SOL    HW192703  10.429   6.970   8.652  0.0601 -0.8451 -1.0154
29191SOL    HW292704  10.329   6.882   8.723  0.6669 -0.4333  0.3670
29192SOL     OW92705   1.749   8.599   1.372 -0.0564 -0.4452 -0.0492
29192SOL    HW192706   1.713   8.552   1.298  0.5394 -0.7361 -0.1551
29192SOL    HW292707   1.798   8.671   1.333 -1.7502  0.8419  0.1343
29193SOL     OW92708   4.238   4.253  10.368 -0.0605  0.0895  0.4125
29193SOL    HW192709   4.260   4.257  10.275 -0.8504 -1.0503  0.1727
29193SOL    HW292710   4.208   4.164  10.382  0.9234 -0.0153  1.9711
29194SOL     OW92711   6.376   0.003   5.408 -0.5897 -0.3981 -0.9574
29194SOL    HW192712   6.451  -0.052   5.425 -0.3688  0.3386  0.5180
29194SOL    HW292713   6.403   0.091   5.437 -1.8737 -0.0586 -0.7534
29195SOL     OW92714   8.134   5.375   9.062 -0.6592 -0.0835 -0.3585
29195SOL    HW192715   8.124   5.280   9.075  0.5094 -0.3004 -0.9183
29195SOL    HW292716   8.203   5.399   9.124 -2.0044  0.6858  0.8643
29196SOL     OW92717  10.737   8.187   8.429 -0.5227  0.0747  0.1462
29196SOL    HW192718  10.764   8.097   8.448  0.0344  0.0537 -0.7143
29196SOL    HW292719  10.773   8.205   8.342 -0.6813  1.1093  0.2874
29197SOL     OW92720   7.287   1.123  11.253  0.0003  0.0205 -0.2620
29197SOL    HW192721   7.310   1.069  11.178 -0.4290 -1.0648  0.3747
29197SOL    HW292722   7.228   1.190  11.218 -0.0884 -0.3941 -0.9060
29198SOL     OW92723   7.308   1.441   3.327 -0.0964 -0.4841 -0.0233
29198SOL    HW192724   7.260   1.452   3.245 -0.2481 -0.7388  0.0342
29198SOL    HW292725   7.370   1.370   3.309 -2.7254 -3.2099  1.2816
29199SOL     OW92726   3.305   3.853   6.081 -0.2544 -0.2414  0.2138
29199SOL    HW192727   3.395   3.826   6.099 -0.3377 -0.1839  0.7235
29199SOL    HW292728   3.254   3.818   6.154 -0.3324  1.4195  0.9687
29200SOL     OW92729   7.449   8.681   8.259 -0.0632  0.3212  0.2833
29200SOL    HW192730   7.489   8.610   8.208 -0.2063  0.2852  0.2205
29200SOL    HW292731   7.355   8.666   8.251 -0.1123  0.9303 -0.3285
29201SOL     OW92732   3.818   3.236   8.082 -0.4536  0.2767 -0.6107
29201SOL    HW192733   3.878   3.307   8.106 -0.0008 -0.2339 -0.2267
29201SOL    HW292734   3.799   3.191   8.164 -2.7610  1.4814 -0.4268
29202SOL     OW92735   8.260   9.407   6.540  0.1125  0.2606  0.4240
29202SOL    HW192736   8.245   9.341   6.608  1.3268  1.6578  2.0702
29202SOL    HW292737   8.336   9.376   6.492  0.0168 -0.0802  0.4903
29203SOL     OW92738   7.747   7.301   4.980  0.1946 -0.0265  0.2838
29203SOL    HW192739   7.805   7.233   5.013  0.4109  0.0559  0.0763
29203SOL    HW292740   7.671   7.253   4.947  1.8842 -0.4999 -3.1556
29204SOL     OW92741   8.858   9.264   1.904  0.4237  0.5065  0.5308
29204SOL    HW192742   8.951   9.286   1.900  0.6283 -0.5875 -1.2179
29204SOL    HW292743   8.816   9.322   1.841  0.2864 -0.7404 -0.5381
29205SOL     OW92744   5.168  10.065  10.728 -0.0230 -0.4057  0.1116
29205SOL    HW192745   5.240  10.122  10.755 -0.7385  0.1361  0.9063
29205SOL    HW292746   5.129  10.109  10.653 -2.0819  1.4385  2.1730
29206SOL     OW92747   8.429   4.034   4.801  0.3892 -0.4369  0.0234
29206SOL    HW192748   8.397   3.992   4.880 -0.8426 -0.2781 -0.3894
29206SOL    HW292749   8.499   4.093   4.832  1.2297 -1.7911  0.7446
29207SOL     OW92750   7.600   5.550  10.287 -0.2489  0.1222 -0.8035
29207SOL    HW192751   7.546   5.609  10.234  0.2089  0.5903 -0.7396
29207SOL    HW292752   7.602   5.469  10.236 -1.8733 -0.2386 -0.3219
29208SOL     OW92753   3.299   4.849   7.097 -0.1827 -0.5964  1.0105
29208SOL    HW192754   3.264   4.920   7.043 -0.4841  0.0328  2.0270
29208SOL    HW292755   3.328   4.784   7.034 -0.2263  0.2767  0.0719
29209SOL     OW92756   2.795   3.246   2.035 -0.0612  0.3455  0.0893
29209SOL    HW192757   2.706   3.238   2.000  0.3995 -0.8469 -0.8852
29209SOL    HW292758   2.849   3.267   1.958  0.6781 -0.2578  0.4375
29210SOL     OW92759   4.958   3.597   2.285 -0.4248  0.4665 -0.3592
29210SOL    HW192760   4.913   3.643   2.356  0.0761 -0.3079  0.4697
29210SOL    HW292761   4.929   3.507   2.292  0.6472  0.1186 -0.3195
29211SOL     OW92762   1.916   0.744  11.288  0.4622  0.4037  0.1379
29211SOL    HW192763   1.836   0.718  11.242 -0.3045  0.7001  1.2801
29211SOL    HW292764   1.906   0.839  11.301  0.1552  0.1428  1.8719
29212SOL     OW92765   5.125   9.450   2.840 -0.3492  0.0225 -0.1788
29212SOL    HW192766   5.177   9.375   2.812  1.1122  0.2663  1.8220
29212SOL    HW292767   5.117   9.504   2.761  3.2639  0.4638 -0.3085
29213SOL     OW92768   8.343   1.097  10.887  0.4497  0.1269  0.1048
29213SOL    HW192769   8.290   1.137  10.818  1.2556  0.7325 -0.1731
29213SOL    HW292770   8.365   1.170  10.945  1.1176 -0.0980  0.1281
29214SOL     OW92771   0.453   0.264   8.271 -0.4073  0.0421 -0.0505
29214SOL    HW192772   0.396   0.282   8.197  0.6150 -1.2709 -1.2117
29214SOL    HW292773   0.528   0.322   8.258 -0.4165  0.1012  0.1689
29215SOL     OW92774   9.250   3.065   8.620 -0.0872 -0.3167  0.6249
29215SOL    HW192775   9.327   3.059   8.564  0.8377 -1.3099  1.9530
29215SOL    HW292776   9.176   3.047   8.561  0.4953  2.4984 -1.0387
29216SOL     OW92777   8.456   1.566   7.684  0.3147  0.3553  0.1945
29216SOL    HW192778   8.364   1.565   7.658  0.8682  1.0141 -1.8622
29216SOL    HW292779   8.471   1.655   7.716 -0.0169 -0.0596  1.5353
29217SOL     OW92780   1.833  10.215   3.056  0.0576 -0.4547  0.2037
29217SOL    HW192781   1.851  10.255   3.141 -0.1338 -0.9071  0.4568
29217SOL    HW292782   1.759  10.157   3.072 -1.3202  1.0151 -0.7249
29218SOL     OW92783   6.953   7.003   8.486  0.6557 -0.0693 -0.0257
29218SOL    HW192784   6.974   7.095   8.475 -3.2320  0.6526 -2.1330
29218SOL    HW292785   6.934   6.994   8.579  2.0353  0.9717  0.3830
29219SOL     OW92786  10.762  11.247  10.126 -0.5367  0.0601 -0.4130
29219SOL    HW192787  10.727  11.293  10.202  0.1071 -1.3032  0.7481
29219SOL    HW292788  10.806  11.315  10.075 -1.3952  1.0749  0.1791
29220SOL     OW92789   6.446   3.664   5.983  0.2530 -0.1122 -0.2880
29220SOL    HW192790   6.462   3.753   5.952  0.4005 -0.3512 -0.8950
29220SOL    HW292791   6.415   3.617   5.906  2.5008 -1.2133 -0.5847
29221SOL     OW92792   7.942   9.465   7.647 -0.2391  0.2128 -0.1559
29221SOL    HW192793   7.862   9.475   7.595  0.0086 -1.6388 -0.9089
29221SOL    HW292794   7.983   9.552   7.644 -1.5231  0.8050 -0.9050
29222SOL     OW92795   2.219   0.208  10.071 -0.0280  0.3814 -0.1606
29222SOL    HW192796   2.161   0.274  10.109 -0.2416  0.5761 -0.8215
29222SOL    HW292797   2.246   0.154  10.145 -0.8481  0.4486  0.1863
29223SOL     OW92798   8.589   6.980   8.208 -0.8704  0.6348 -0.0288
29223SOL    HW192799   8.527   7.051   8.224 -0.8729  0.9962 -1.5108
29223SOL    HW292800   8.625   7.000   8.121 -0.2864 -0.7481 -0.1130
29224SOL     OW92801   1.808   3.731  11.127 -0.0275 -0.3741  0.2556
29224SOL    HW192802   1.825   3.769  11.041 -0.0104  0.5729  0.6709
29224SOL    HW292803   1.858   3.650  11.128  0.3627 -0.1475 -0.4478
29225SOL     OW92804   2.547   2.532   3.147 -0.4868  0.2290 -0.2231
29225SOL    HW192805   2.588   2.554   3.064  0.3835  1.0375  0.4132
29225SOL    HW292806   2.482   2.601   3.161 -0.0245  0.5863  0.1864
29226SOL     OW92807   4.234   7.986   9.870  0.4988 -0.3506 -0.3136
29226SOL    HW192808   4.279   7.933   9.805  0.3542 -1.8001  0.7362
29226SOL    HW292809   4.215   8.068   9.825  0.2118 -1.3946 -2.1457
29227SOL     OW92810   5.031   2.476   0.640 -0.0310 -0.4879 -0.3208
29227SOL    HW192811   5.126   2.468   0.638 -0.0291 -0.3515 -0.9514
29227SOL    HW292812   5.014   2.564   0.675  0.0903 -0.2339 -0.8915
29228SOL     OW92813   3.633   8.460   4.467 -0.2739  0.7268 -0.0035
29228SOL    HW192814   3.628   8.375   4.513  1.0194  0.3631 -0.5354
29228SOL    HW292815   3.670   8.520   4.532  0.1185  0.5623 -0.0744
29229SOL     OW92816   7.619   6.336   4.134 -0.4143 -0.2577 -0.1500
29229SOL    HW192817   7.529   6.350   4.103 -0.2016 -0.5032 -0.8902
29229SOL    HW292818   7.674   6.367   4.062  0.0953 -0.1901  0.2657
29230SOL     OW92819  10.933   4.780   4.775 -0.3801 -0.4280  0.4694
29230SOL    HW192820  10.910   4.688   4.766  0.2428 -0.4393 -1.2337
29230SOL    HW292821  10.900   4.821   4.695  2.0655  0.2296 -0.2606
29231SOL     OW92822   3.646   7.410   8.609 -0.3842 -0.1263  0.1588
29231SOL    HW192823   3.650   7.320   8.577 -0.6190 -0.2379  0.4365
29231SOL    HW292824   3.601   7.459   8.540 -0.4028 -0.2553  0.0807
29232SOL     OW92825   2.330   8.508   5.929  0.1212 -0.6912  0.1472
29232SOL    HW192826   2.291   8.429   5.964  1.2151 -1.2942  0.0434
29232SOL    HW292827   2.257   8.569   5.917 -0.6652 -1.5465  0.5896
29233SOL     OW92828   6.862  10.966   0.199 -0.1997 -0.3863  0.2043
29233SOL    HW192829   6.805  10.897   0.165 -0.6414 -0.3781  0.9123
29233SOL    HW292830   6.897  10.929   0.281 -1.5635  0.7607  1.3404
29234SOL     OW92831   0.566   9.257   7.517  0.0728  0.0215 -0.0870
29234SOL    HW192832   0.560   9.188   7.451 -0.5216  0.0135 -0.0308
29234SOL    HW292833   0.650   9.243   7.560  0.4886  0.0536 -0.8720
29235SOL     OW92834   6.366   6.932   3.943 -0.2911 -0.0382  0.1367
29235SOL    HW192835   6.362   6.856   3.886 -0.3744 -0.0061  0.0993
29235SOL    HW292836   6.300   6.916   4.010  0.4858 -0.5447  0.7981
29236SOL     OW92837   5.484  10.554  11.201 -0.3095 -0.8466  0.7326
29236SOL    HW192838   5.413  10.524  11.257 -0.0091 -0.5689  1.2675
29236SOL    HW292839   5.444  10.567  11.115 -0.0861 -4.5888 -0.0300
29237SOL     OW92840  10.767   8.997   2.897  0.1457  0.1772  0.3989
29237SOL    HW192841  10.707   8.938   2.851  0.1964  0.7674 -0.4281
29237SOL    HW292842  10.743   9.084   2.866  1.5830  0.4042 -0.0981
29238SOL     OW92843   8.257   8.424   5.856  0.0190 -0.2551  0.1020
29238SOL    HW192844   8.236   8.330   5.852 -0.9594 -0.0541  0.3262
29238SOL    HW292845   8.183   8.463   5.902  0.1558  0.7116 -0.4773
29239SOL     OW92846   1.302   4.891   6.579 -0.1742  0.1358 -0.0160
29239SOL    HW192847   1.212   4.911   6.554  0.0404  0.3603 -0.6361
29239SOL    HW292848   1.296   4.813   6.634 -0.9238  1.2919  1.5525
29240SOL     OW92849   0.102   1.184   7.022 -0.3666  0.1766  0.0487
29240SOL    HW192850   0.066   1.259   6.973  1.5757 -0.4354 -2.4841
29240SOL    HW292851   0.082   1.108   6.967  4.2154 -0.2247 -1.2689
29241SOL     OW92852   8.620   2.148   6.326 -0.7319  0.0695  0.0771
29241SOL    HW192853   8.661   2.196   6.398 -1.1103 -0.5979  0.7416
29241SOL    HW292854   8.683   2.079   6.305 -1.4455 -0.8798  1.0148
29242SOL     OW92855   9.026   3.919  11.130 -0.8958 -0.1832 -0.2855
29242SOL    HW192856   9.020   3.984  11.060 -1.9738 -2.2560 -2.2289
29242SOL    HW292857   9.120   3.905  11.143 -0.6426  2.1620  0.5990
29243SOL     OW92858   0.024  10.993   2.065 -0.6007 -0.1116 -0.4021
29243SOL    HW192859  -0.015  10.985   2.153 -0.2983  1.8257 -0.0677
29243SOL    HW292860   0.067  11.078   2.066  0.7210 -0.7486 -1.9420
29244SOL     OW92861   9.183   3.114   9.772 -0.3729 -0.1382  0.0622
29244SOL    HW192862   9.181   3.201   9.731 -2.3408 -0.0661  0.2657
29244SOL    HW292863   9.266   3.113   9.820 -0.4404  1.7477  0.2711
29245SOL     OW92864   3.946   0.557   8.846 -0.0192  0.4206  0.3763
29245SOL    HW192865   3.903   0.614   8.910  0.0788 -0.5961  1.3590
29245SOL    HW292866   4.017   0.610   8.811 -0.3735  1.1587  0.7589
29246SOL     OW92867   8.298   3.916   2.965  0.4953 -0.3497  0.1376
29246SOL    HW192868   8.359   3.974   2.919 -1.4207  0.8660 -0.9076
29246SOL    HW292869   8.280   3.846   2.903 -0.2267  0.0160 -0.0671
29247SOL     OW92870   0.930   8.186   5.243 -0.2870 -0.2401  0.0994
29247SOL    HW192871   0.960   8.100   5.271  0.0174 -0.0380  0.3911
29247SOL    HW292872   0.838   8.189   5.271 -0.0846 -0.1727  0.7602
29248SOL     OW92873   0.591  10.161  10.717  0.8365  0.4027 -0.1441
29248SOL    HW192874   0.662  10.174  10.779 -0.2679 -0.5744  1.3757
29248SOL    HW292875   0.511  10.171  10.769 -0.1275 -0.5382 -1.3836
29249SOL     OW92876   0.144   5.477   5.655 -0.2582  0.0156 -0.1835
29249SOL    HW192877   0.132   5.547   5.591 -1.5436 -0.2402 -0.2335
29249SOL    HW292878   0.170   5.522   5.735 -0.2301  0.4785 -0.4537
29250SOL     OW92879   2.548   0.604   9.605  0.4184  0.2552  0.0509
29250SOL    HW192880   2.620   0.614   9.543 -0.2221 -0.5557 -0.8295
29250SOL    HW292881   2.469   0.599   9.551 -0.0703 -1.2455  0.8580
29251SOL     OW92882   7.189  10.363   1.584  0.5559 -0.3861 -0.2079
29251SOL    HW192883   7.204  10.401   1.671 -1.6159  1.9319 -0.7510
29251SOL    HW292884   7.276  10.344   1.550  1.5352  0.5954  1.6827
29252SOL     OW92885   9.858   2.633   5.947  0.6681 -0.5652  0.0098
29252SOL    HW192886   9.940   2.674   5.974  0.2310  0.3147  0.0182
29252SOL    HW292887   9.847   2.659   5.856  0.0017 -0.0318  0.2389
29253SOL     OW92888   0.645   8.606   7.122  0.5145 -0.2259  0.8394
29253SOL    HW192889   0.574   8.602   7.187  0.7326  1.6860  1.2185
29253SOL    HW292890   0.601   8.590   7.038  0.0909 -1.8173  1.3299
29254SOL     OW92891   7.021  11.306  10.137  0.0506 -0.8525  0.3781
29254SOL    HW192892   7.047  11.247  10.208  1.0115 -1.4934 -0.4935
29254SOL    HW292893   7.028  11.394  10.175  1.3294 -1.1447  0.8459
29255SOL     OW92894   8.846   4.054  10.606 -0.1951 -0.5312 -0.0879
29255SOL    HW192895   8.760   4.057  10.649 -1.0227 -1.0852 -1.6450
29255SOL    HW292896   8.826   4.028  10.516  1.4525  1.0899 -0.9353
29256SOL     OW92897  10.272   3.729   7.970 -0.3429 -0.0351  0.1158
29256SOL    HW192898  10.354   3.683   7.956 -0.8293 -1.3030  1.2493
29256SOL    HW292899  10.292   3.821   7.955  1.4894 -0.2383  1.1809
29257SOL     OW92900   0.496  10.007   0.812 -0.2138 -0.3272  0.2902
29257SOL    HW192901   0.525  10.035   0.725  1.8521 -1.5328  0.5374
29257SOL    HW292902   0.495  10.087   0.864 -0.4902  0.2525 -0.5935
29258SOL     OW92903  10.895   7.206   3.266  0.6029 -0.3485  0.2457
29258SOL    HW192904  10.823   7.262   3.297  0.2889 -0.9434  0.6008
29258SOL    HW292905  10.853   7.123   3.243  1.0523 -0.4019 -0.3842
29259SOL     OW92906   9.882   4.628   4.848 -0.3697 -0.9405  0.4919
29259SOL    HW192907   9.910   4.579   4.770  1.0911  0.6807 -0.0288
29259SOL    HW292908   9.856   4.713   4.813  1.0502  0.0682  1.8792
29260SOL     OW92909   0.403   4.752   1.229 -0.0765 -0.0445 -0.1260
29260SOL    HW192910   0.484   4.802   1.236 -0.1879  0.1435 -0.1535
29260SOL    HW292911   0.342   4.798   1.288 -0.5916  0.6871 -1.2138
29261SOL     OW92912   4.624   3.732   5.074  0.1759 -0.2538  0.3448
29261SOL    HW192913   4.603   3.796   5.143  1.4677 -0.4303  0.9092
29261SOL    HW292914   4.539   3.708   5.038 -0.4455  0.6156  1.1893
29262SOL     OW92915   3.684   3.094   1.197 -0.1009 -0.2696 -0.3920
29262SOL    HW192916   3.720   3.182   1.183 -1.7843  0.6710  0.8998
29262SOL    HW292917   3.591   3.110   1.215 -0.3181 -2.2853  0.3269
29263SOL     OW92918   7.950   1.716   0.311  0.5216  0.5425  0.4823
29263SOL    HW192919   7.884   1.667   0.359  0.6795 -0.6162 -0.4551
29263SOL    HW292920   8.025   1.656   0.304  1.0878  1.2731  0.1764
29264SOL     OW92921   6.646  10.797   0.151 -0.3120  0.1001  0.4905
29264SOL    HW192922   6.656  10.702   0.142  0.6652  0.2102  0.2815
29264SOL    HW292923   6.575  10.809   0.213 -0.4981 -0.7727  0.4456
29265SOL     OW92924   9.389   8.764   9.864 -0.0940  0.4520 -0.4764
29265SOL    HW192925   9.472   8.718   9.878 -0.2998 -0.0619 -0.9382
29265SOL    HW292926   9.321   8.701   9.889 -0.3205  1.5554  1.8612
29266SOL     OW92927   5.104  11.198   7.413 -0.4286 -0.2167 -0.5270
29266SOL    HW192928   5.154  11.149   7.478 -0.9412  1.1390  0.9036
29266SOL    HW292929   5.058  11.131   7.363  0.5113 -1.3064  0.0538
29267SOL     OW92930   5.151   2.158  10.028  0.1326  0.8511  0.5819
29267SOL    HW192931   5.092   2.139  10.101  0.8354  0.8469  1.1503
29267SOL    HW292932   5.094   2.157   9.950 -0.4224 -0.2628  0.9915
29268SOL     OW92933   4.542   9.888   6.195  0.3161  0.4146  0.3099
29268SOL    HW192934   4.566   9.835   6.270  2.4484 -2.1416 -2.0620
29268SOL    HW292935   4.626   9.924   6.163 -0.6225  1.9530 -0.4922
29269SOL     OW92936   8.540  10.177   8.555 -0.2796  0.1448  0.3294
29269SOL    HW192937   8.534  10.211   8.466 -1.0733  1.9334  1.0231
29269SOL    HW292938   8.581  10.248   8.605 -0.9466 -0.3546  1.6228
29270SOL     OW92939   7.849   9.673   5.158  0.0356 -0.4672  0.2986
29270SOL    HW192940   7.788   9.672   5.232 -0.3657  0.4002 -0.0143
29270SOL    HW292941   7.933   9.697   5.195 -0.2611  0.4235  0.4142
29271SOL     OW92942   8.654   8.182   5.351  0.3844 -0.0687  0.1496
29271SOL    HW192943   8.599   8.105   5.366 -1.1887  1.0034 -0.1351
29271SOL    HW292944   8.678   8.211   5.439  0.5533 -0.5693  0.2712
29272SOL     OW92945   3.292   6.749   2.963 -0.4166  0.4060  0.4674
29272SOL    HW192946   3.352   6.787   2.899  0.0396 -0.5061  0.3324
29272SOL    HW292947   3.221   6.712   2.910 -0.0073 -0.4032  0.4751
29273SOL     OW92948   3.986   3.243   5.281 -0.7082 -0.9288  0.1770
29273SOL    HW192949   4.003   3.260   5.188 -1.6311 -1.3664 -0.0700
29273SOL    HW292950   4.062   3.192   5.310 -0.1603 -0.3404 -0.1988
29274SOL     OW92951   0.816  10.274   1.714  0.5122 -0.4539 -0.3586
29274SOL    HW192952   0.742  10.213   1.716 -0.0228  0.1890 -0.4699
29274SOL    HW292953   0.873  10.240   1.646 -0.4052 -0.1226 -1.3063
29275SOL     OW92954   4.405  10.352   1.436  0.2850 -0.2995  0.0262
29275SOL    HW192955   4.478  10.412   1.424 -1.0556  1.4706  0.6135
29275SOL    HW292956   4.430  10.274   1.387  0.7317  1.8130 -3.2345
29276SOL     OW92957   0.228   2.646   4.188  0.5938 -0.2426  0.1078
29276SOL    HW192958   0.269   2.730   4.209  0.4273  0.0202 -0.5809
29276SOL    HW292959   0.208   2.653   4.095  2.9664 -2.0526 -0.5944
29277SOL     OW92960   3.013   0.653  10.470 -0.5788  0.4686 -0.6602
29277SOL    HW192961   3.006   0.735  10.519  0.6832  0.2135 -0.0344
29277SOL    HW292962   3.011   0.680  10.378  0.7021  1.3044 -0.4669
29278SOL     OW92963   6.571   5.867   0.611  0.0481 -0.0681 -0.3363
29278SOL    HW192964   6.490   5.839   0.654 -0.8376  2.0873 -0.5171
29278SOL    HW292965   6.621   5.786   0.599 -1.5846 -1.2909  0.7836
29279SOL     OW92966   7.234   1.208   0.454  0.3634  0.2259 -0.3069
29279SOL    HW192967   7.301   1.271   0.482 -0.2024  0.4706  0.4905
29279SOL    HW292968   7.231   1.217   0.359  0.0799  1.6156 -0.1709
29280SOL     OW92969   7.724   7.573   7.020 -0.4750 -0.5880  0.0332
29280SOL    HW192970   7.681   7.622   6.950 -1.6906 -2.6215 -0.6891
29280SOL    HW292971   7.817   7.596   7.012 -0.6748 -0.4182 -1.9197
29281SOL     OW92972   5.172   1.657  10.068  0.0284 -0.4273  0.7219
29281SOL    HW192973   5.264   1.671  10.046 -0.6551  2.6061 -0.4589
29281SOL    HW292974   5.174   1.633  10.161  1.9976  0.1266  0.8573
29282SOL     OW92975   2.420   1.903   3.967 -0.3722  0.3349  0.2850
29282SOL    HW192976   2.414   1.890   4.062 -0.4298  1.2636  0.4137
29282SOL    HW292977   2.332   1.888   3.934 -1.0398  2.8825  0.7589
29283SOL     OW92978   6.824   2.028   5.914  0.2964  0.4685 -0.4495
29283SOL    HW192979   6.887   1.991   5.976  0.2984  0.8115 -0.2463
29283SOL    HW292980   6.845   1.985   5.830 -1.5154 -2.0770  0.3591
29284SOL     OW92981   7.509   4.307   9.255 -0.1470 -0.2498 -0.0562
29284SOL    HW192982   7.476   4.297   9.165 -0.3849 -0.0614  0.0120
29284SOL    HW292983   7.589   4.255   9.256 -0.6954 -1.1059 -0.0817
29285SOL     OW92984   8.745   5.598   8.948 -0.1666 -0.3343  0.3699
29285SOL    HW192985   8.766   5.510   8.980  0.4696 -0.5473 -0.5979
29285SOL    HW292986   8.826   5.647   8.957  0.1329 -0.4954 -1.1865
29286SOL     OW92987   7.277   0.361   8.679 -0.0549 -0.2737  0.8799
29286SOL    HW192988   7.300   0.316   8.598 -2.3658  0.0276  0.0214
29286SOL    HW292989   7.317   0.448   8.671 -1.8009  0.4039 -0.7787
29287SOL     OW92990   6.909   9.762   9.575  0.5266 -0.1727  0.2731
29287SOL    HW192991   6.855   9.768   9.653 -1.9203 -1.3639 -1.2687
29287SOL    HW292992   6.944   9.673   9.576  3.6531  1.0076  1.9706
29288SOL     OW92993   1.109   3.599   0.839  0.0154  0.1375 -0.2847
29288SOL    HW192994   1.040   3.647   0.794 -1.3024 -0.7271  0.7795
29288SOL    HW292995   1.169   3.667   0.871 -0.0860  0.8593 -1.5994
29289SOL     OW92996   9.729   4.129   8.404  0.0882  0.2956 -0.1765
29289SOL    HW192997   9.811   4.120   8.356  0.2745  0.6596  0.0731
29289SOL    HW292998   9.715   4.223   8.411 -0.7808  0.2253 -0.9487
29290SOL     OW92999  10.980   6.894   6.208 -0.0076  0.2849 -0.0283
29290SOL    HW193000  10.900   6.854   6.241  0.5953 -3.0697 -2.4285
29290SOL    HW293001  10.950   6.967   6.153 -1.2771  0.7320  1.2400
29291SOL     OW93002   8.397   0.621   7.673 -0.5022  0.1768  0.1416
29291SOL    HW193003   8.488   0.590   7.664 -1.0307 -1.6096  0.7529
29291SOL    HW293004   8.381   0.619   7.767 -0.8085  1.6056  0.1250
29292SOL     OW93005   1.877   2.617   4.834 -0.0525  0.3004  0.2714
29292SOL    HW193006   1.794   2.664   4.827  0.4489  1.1947  0.0791
29292SOL    HW293007   1.919   2.655   4.911  0.3562  0.1691  0.1147
29293SOL     OW93008   1.567   7.361  11.244  0.6795 -0.3151 -0.1913
29293SOL    HW193009   1.611   7.282  11.213  1.0320 -0.2545  0.1569
29293SOL    HW293010   1.491   7.370  11.186  1.6708  0.1408 -1.4327
29294SOL     OW93011   9.621   0.110   5.577 -0.1167  0.2427  0.2331
29294SOL    HW193012   9.592   0.073   5.494 -0.3999  2.7483 -0.8393
29294SOL    HW293013   9.714   0.127   5.564  0.2703 -1.1330  1.1240
29295SOL     OW93014   0.381   9.068   9.844  0.1534  0.3004  0.0480
29295SOL    HW193015   0.454   9.051   9.784 -0.2013 -0.1046 -0.2749
29295SOL    HW293016   0.388   9.161   9.865  2.1748 -0.2340  1.8898
29296SOL     OW93017   6.563   3.182   3.869 -0.8094  0.3674 -0.6851
29296SOL    HW193018   6.499   3.152   3.805 -0.9876 -2.2302  0.6257
29296SOL    HW293019   6.646   3.147   3.837 -0.8800 -0.8257  0.3952
29297SOL     OW93020   9.593   1.925   1.828 -0.5316 -0.0858  0.7256
29297SOL    HW193021   9.679   1.929   1.870  0.2534 -0.2057 -0.8473
29297SOL    HW293022   9.552   1.847   1.864  0.5076 -0.7137  0.5661
29298SOL     OW93023   7.011   9.691   5.905  0.1216 -0.1471 -0.0163
29298SOL    HW193024   7.068   9.625   5.866  0.8333  0.1953  0.4459
29298SOL    HW293025   7.069   9.747   5.955 -0.8783 -1.1149  2.3077
29299SOL     OW93026   9.734   8.921   1.377 -0.1139  0.7313 -0.2008
29299SOL    HW193027   9.678   8.998   1.364 -1.1326  0.1975  0.9627
29299SOL    HW293028   9.674   8.847   1.374  0.3796  0.2072  1.9743
29300SOL     OW93029   0.519   4.952   5.236 -0.4763  0.2956 -0.6151
29300SOL    HW193030   0.531   4.875   5.291  0.8406  0.2801 -0.9038
29300SOL    HW293031   0.485   4.918   5.154  1.4706 -0.1475 -1.2479
29301SOL     OW93032   5.997   8.592   3.221  0.7355  0.7365 -0.0316
29301SOL    HW193033   5.905   8.579   3.245  0.4305  1.6581 -0.6949
29301SOL    HW293034   6.041   8.609   3.304 -0.1616  3.0361 -0.0058
29302SOL     OW93035   9.300   9.604   4.335  0.2440 -0.4500  0.5690
29302SOL    HW193036   9.373   9.603   4.397 -0.1211 -2.4598  0.9908
29302SOL    HW293037   9.241   9.671   4.370  1.6584  0.8797  0.4684
29303SOL     OW93038  10.013   8.425   2.898  0.0571  0.5594 -0.1342
29303SOL    HW193039  10.081   8.450   2.835  2.5437  0.2808  2.3052
29303SOL    HW293040  10.019   8.491   2.967 -0.0214 -1.1771  1.5956
29304SOL     OW93041   5.445   5.296   0.251 -0.5888 -0.3280  0.5773
29304SOL    HW193042   5.481   5.233   0.314 -0.2163  2.1134  2.8636
29304SOL    HW293043   5.361   5.258   0.225 -0.2918 -1.8428  1.7539
29305SOL     OW93044   6.701   8.544  10.891 -0.0927 -0.3677  0.3649
29305SOL    HW193045   6.624   8.505  10.931 -0.0239 -1.9144 -0.9367
29305SOL    HW293046   6.724   8.617  10.948  0.6925 -3.1409  3.7962
29306SOL     OW93047   2.349  11.014   4.928  0.6868  0.3954 -0.1625
29306SOL    HW193048   2.359  11.094   4.980  0.4092  0.5265 -0.3104
29306SOL    HW293049   2.271  11.030   4.875  0.8622  0.1852 -0.4819
29307SOL     OW93050   3.101   3.631   9.676 -0.7228  0.5311  0.6558
29307SOL    HW193051   3.195   3.609   9.670 -1.1455 -0.9733 -1.2453
29307SOL    HW293052   3.099   3.722   9.705  1.4181  1.3441 -1.5237
29308SOL     OW93053   4.518   3.072  10.859  0.2673  0.1983 -0.0107
29308SOL    HW193054   4.458   3.145  10.874 -0.3702 -0.3707  0.2336
29308SOL    HW293055   4.543   3.044  10.947 -0.7451 -0.9025 -0.0598
29309SOL     OW93056   6.239   3.734   4.291 -0.3862  0.5314 -0.0809
29309SOL    HW193057   6.237   3.781   4.374  1.1041  2.1313 -0.9314
29309SOL    HW293058   6.232   3.642   4.316 -1.2425  1.0499  1.7287
29310SOL     OW93059  10.173   9.912   0.884  0.2555  0.7962 -0.3603
29310SOL    HW193060  10.082   9.937   0.868 -0.1539  0.0610  0.7646
29310SOL    HW293061  10.168   9.844   0.951  1.6880  1.3978  0.3858
29311SOL     OW93062   2.206   7.936   9.706 -0.3203 -0.0100 -0.2750
29311SOL    HW193063   2.204   7.944   9.801  0.3043  0.4697 -0.3003
29311SOL    HW293064   2.118   7.959   9.677 -0.2209  0.8526  0.1105
29312SOL     OW93065  11.321   4.097   7.837  0.1780 -0.1021  0.0116
29312SOL    HW193066  11.332   4.022   7.896 -0.4115 -0.5883 -0.4894
29312SOL    HW293067  11.334   4.060   7.749  0.6297  0.5323 -0.1938
29313SOL     OW93068   4.214   1.862  11.087  0.5550 -0.1459  0.3564
29313SOL    HW193069   4.240   1.820  11.169  1.8010 -0.4139 -0.1549
29313SOL    HW293070   4.119   1.863  11.089  0.5764  0.2136  1.9963
29314SOL     OW93071   1.689  10.467   6.659 -0.7053 -0.1886 -0.3967
29314SOL    HW193072   1.764  10.490   6.604 -0.0491  0.6954  0.8385
29314SOL    HW293073   1.612  10.490   6.606 -0.0744  2.4948 -0.2191
29315SOL     OW93074   0.273  10.369   9.304  0.0899  0.5573 -0.1838
29315SOL    HW193075   0.220  10.449   9.309 -2.1180 -0.7867 -1.2908
29315SOL    HW293076   0.297  10.361   9.212  0.2583 -0.0544 -0.0901
29316SOL     OW93077   2.623   0.063  11.184 -1.0205  0.1478 -0.3313
29316SOL    HW193078   2.640  -0.006  11.120 -0.2717  0.5461 -0.5709
29316SOL    HW293079   2.561   0.024  11.246 -0.1427 -0.9362 -0.1245
29317SOL     OW93080   5.526   5.331   9.439 -0.1310  0.3029  0.1383
29317SOL    HW193081   5.591   5.320   9.508  1.4186  0.6749 -1.2271
29317SOL    HW293082   5.523   5.247   9.394 -2.0443 -0.3351  1.3987
29318SOL     OW93083   6.253   3.802   6.302 -0.2497  0.1547 -0.3038
29318SOL    HW193084   6.262   3.885   6.255 -0.0961  1.0253  1.2317
29318SOL    HW293085   6.256   3.826   6.395  1.3542 -1.7317  0.1745
29319SOL     OW93086   1.493   4.300   0.758 -0.1079  0.7516  0.5375
29319SOL    HW193087   1.570   4.245   0.767  0.5606  1.6059  0.1712
29319SOL    HW293088   1.462   4.284   0.668  0.2990  1.2307  0.3072
29320SOL     OW93089  10.855   4.020   9.301 -0.2754  0.1796 -0.6148
29320SOL    HW193090  10.941   3.998   9.335 -0.4787 -0.7183 -0.6757
29320SOL    HW293091  10.861   4.004   9.207  0.0131  1.7950 -0.8942
29321SOL     OW93092   9.538   7.548   9.249 -0.4773 -0.0765 -0.3707
29321SOL    HW193093   9.545   7.493   9.327  0.7936 -1.0316 -1.1548
29321SOL    HW293094   9.548   7.637   9.283  0.8451 -0.5252  0.4722
29322SOL     OW93095  10.052   8.112   6.165  0.5152 -1.1828 -0.1972
29322SOL    HW193096   9.972   8.152   6.129  1.0611  0.4721  0.3638
29322SOL    HW293097  10.022   8.064   6.242  0.0440 -0.5949 -0.0077
29323SOL     OW93098   9.447   7.892  10.605  0.4847 -0.2367  0.0177
29323SOL    HW193099   9.362   7.860  10.635 -0.1164 -0.7772 -2.1774
29323SOL    HW293100   9.453   7.981  10.638 -0.7819 -0.3120  0.4614
29324SOL     OW93101   9.258   1.893   3.930 -0.1429 -0.7314 -0.0499
29324SOL    HW193102   9.290   1.863   3.845  0.2225  0.0203 -0.1803
29324SOL    HW293103   9.297   1.979   3.942  1.4041 -1.6476  1.7707
29325SOL     OW93104   3.457   4.601   2.476 -0.8904 -0.2501 -0.3612
29325SOL    HW193105   3.401   4.573   2.404 -1.5268  0.4086 -0.1305
29325SOL    HW293106   3.398   4.607   2.551 -1.0083  2.6829 -0.6258
29326SOL     OW93107   7.562   6.741  10.445  0.3828  0.3821 -0.4023
29326SOL    HW193108   7.645   6.741  10.494  0.0486  0.3479  0.1720
29326SOL    HW293109   7.496   6.760  10.511 -0.1886 -0.7227 -0.6484
29327SOL     OW93110   4.779   6.151   1.287 -0.2499 -0.1919  0.0118
29327SOL    HW193111   4.701   6.207   1.286 -0.5441 -0.6177 -1.8538
29327SOL    HW293112   4.747   6.066   1.317 -0.0272  0.2856  1.6556
29328SOL     OW93113   5.875   3.683   2.305  0.3346 -0.2693 -0.1951
29328SOL    HW193114   5.811   3.651   2.369 -0.1088  0.2345 -0.3829
29328SOL    HW293115   5.833   3.668   2.221  1.4298 -2.0715 -0.4373
29329SOL     OW93116   9.739   4.031   3.048 -0.4899  0.0879  0.1638
29329SOL    HW193117   9.760   4.110   3.098 -0.1793 -0.3563  0.7478
29329SOL    HW293118   9.706   3.969   3.114  0.8063 -0.8200 -0.0238
29330SOL     OW93119   8.270   7.923   5.212  0.0110 -0.1710 -0.7492
29330SOL    HW193120   8.272   7.828   5.202 -1.6718 -0.1643 -1.2259
29330SOL    HW293121   8.239   7.955   5.128 -0.5552  0.7290 -0.2005
29331SOL     OW93122   9.155   8.862   6.360  0.0543 -0.1230  0.4407
29331SOL    HW193123   9.235   8.812   6.343 -0.8489 -1.2530 -0.6147
29331SOL    HW293124   9.179   8.923   6.429  1.9741 -0.1006 -0.2105
29332SOL     OW93125   7.107   3.796   9.968 -0.1541  0.2165 -0.2176
29332SOL    HW193126   7.060   3.811  10.050 -0.5729  0.4589 -0.5034
29332SOL    HW293127   7.148   3.880   9.948 -0.3071  0.2405 -0.4215
29333SOL     OW93128   3.848   3.767   1.637  0.4065  0.4135  0.5297
29333SOL    HW193129   3.932   3.813   1.640  0.9360 -0.5676  1.2364
29333SOL    HW293130   3.801   3.806   1.563  1.8582  0.3602 -0.4461
29334SOL     OW93131   5.176   1.912  10.494  0.2806  0.1093 -0.4686
29334SOL    HW193132   5.090   1.941  10.526 -0.3456 -0.8279 -1.2483
29334SOL    HW293133   5.173   1.927  10.400  1.2149  0.6316 -0.4230
29335SOL     OW93134   0.330   3.485   8.067 -0.9735 -0.3502 -0.3658
29335SOL    HW193135   0.416   3.490   8.025 -0.5750  0.9886  0.5778
29335SOL    HW293136   0.345   3.433   8.146 -0.8782  0.4940  0.1718
29336SOL     OW93137   0.330   5.255   3.663  0.1991 -0.5301 -0.6329
29336SOL    HW193138   0.245   5.247   3.708  1.3108  0.4484  1.7420
29336SOL    HW293139   0.316   5.322   3.597 -1.3124 -1.5215 -1.3455
29337SOL     OW93140   6.355   3.377   6.851  0.0358 -0.2630 -0.2293
29337SOL    HW193141   6.372   3.384   6.945 -0.9265 -0.0155 -0.0662
29337SOL    HW293142   6.413   3.307   6.821  1.1233  0.3914  0.3509
29338SOL     OW93143   7.498   1.934   7.096  0.1032  0.0448 -0.2266
29338SOL    HW193144   7.482   1.844   7.069 -1.6386  0.4628 -0.6442
29338SOL    HW293145   7.462   1.987   7.025  1.9011  1.0859 -0.4085
29339SOL     OW93146   3.263   2.406   7.797 -0.3651 -0.3250  0.2431
29339SOL    HW193147   3.175   2.401   7.758 -0.8806  3.5227  0.6763
29339SOL    HW293148   3.322   2.411   7.722 -1.0158  2.6681 -0.1346
29340SOL     OW93149   9.167   2.232   3.189 -0.0656 -0.2372  0.0198
29340SOL    HW193150   9.203   2.308   3.236 -1.3888  1.1210 -1.1167
29340SOL    HW293151   9.122   2.270   3.114  1.7974 -2.3589 -2.2512
29341SOL     OW93152   7.113   3.893   9.552 -0.0325  0.1357 -0.2221
29341SOL    HW193153   7.202   3.920   9.575  0.5898 -1.0747 -1.1393
29341SOL    HW293154   7.124   3.841   9.473 -1.4482 -0.9187  0.2619
29342SOL     OW93155   6.345  10.093  10.252  0.1630  0.2458 -0.0417
29342SOL    HW193156   6.289  10.158  10.295 -2.1256 -0.3455 -1.9777
29342SOL    HW293157   6.384  10.140  10.179 -0.6486 -0.2430 -0.8055
29343SOL     OW93158   9.070   0.385   5.683  0.1626 -0.3919  0.3005
29343SOL    HW193159   9.092   0.294   5.661 -0.8318 -0.4925 -0.3299
29343SOL    HW293160   8.975   0.389   5.671 -0.2525 -0.0819  3.2635
29344SOL     OW93161   7.795   5.094   4.787  0.5490  0.0323 -0.2336
29344SOL    HW193162   7.888   5.094   4.810  0.6367  2.5977 -0.3611
29344SOL    HW293163   7.752   5.132   4.863 -0.4469 -1.3791 -0.0744
29345SOL     OW93164  10.292   7.458   6.020  0.1581 -0.1240  0.5512
29345SOL    HW193165  10.201   7.471   5.992  0.3776  1.4308  0.5057
29345SOL    HW293166  10.343   7.514   5.961  1.1064 -0.6326  0.8835
29346SOL     OW93167   6.462   2.973   1.937 -0.0448  0.3086 -0.1439
29346SOL    HW193168   6.412   2.981   2.018  2.1162  0.6337  1.1956
29346SOL    HW293169   6.397   2.951   1.870 -1.7549 -0.6520  1.8027
29347SOL     OW93170   0.403  10.069   1.651  0.6372 -0.5533  0.4244
29347SOL    HW193171   0.378  10.145   1.598  0.5573  0.3106  1.6794
29347SOL    HW293172   0.411   9.998   1.588 -0.7607  0.1441 -0.5777
29348SOL     OW93173   2.462   2.479   9.049 -0.1497 -0.1771 -0.3053
29348SOL    HW193174   2.506   2.525   8.978 -0.3439 -0.5804 -0.6833
29348SOL    HW293175   2.483   2.530   9.127 -0.7507  0.8269 -0.7913
29349SOL     OW93176   8.960   8.264   5.748  0.2357  0.2969 -0.6979
29349SOL    HW193177   8.925   8.296   5.831  1.1163 -0.2316 -0.1149
29349SOL    HW293178   9.041   8.218   5.772  1.1014  1.1212 -1.9690
29350SOL     OW93179   3.137  10.832   1.642  0.3768 -0.1436  0.6251
29350SOL    HW193180   3.209  10.880   1.601 -0.1073 -0.9196 -1.1754
29350SOL    HW293181   3.058  10.874   1.607 -0.0658  0.1975  1.9943
29351SOL     OW93182   5.949   4.485   4.924  0.1444  0.7153 -0.2274
29351SOL    HW193183   5.878   4.462   4.863 -0.0300  0.9961 -0.1303
29351SOL    HW293184   6.019   4.517   4.868  0.3545  0.0308 -0.3579
29352SOL     OW93185   2.453   1.728  10.047 -0.0679  0.0655  0.1054
29352SOL    HW193186   2.418   1.732   9.958  1.0798  0.8535 -0.3253
29352SOL    HW293187   2.546   1.749  10.037 -0.0051  0.5195  1.5267
29353SOL     OW93188   1.985   8.468   4.608  0.1565 -0.1022 -0.2242
29353SOL    HW193189   1.914   8.417   4.646  1.1376 -1.1587  0.2132
29353SOL    HW293190   1.941   8.534   4.554 -1.2003  0.2631  1.2911
29354SOL     OW93191   8.042   4.242   0.026  0.1750  0.5934 -0.6148
29354SOL    HW193192   8.134   4.264   0.016  0.5136  0.3205  1.5853
29354SOL    HW293193   7.994   4.322   0.003  1.1554  2.0377  2.1079
29355SOL     OW93194   3.927   1.141   3.938  0.3317  0.2550 -0.2479
29355SOL    HW193195   3.888   1.131   3.851  0.5012 -1.2436 -0.1664
29355SOL    HW293196   3.864   1.099   3.997  0.1605  1.3684  0.3762
29356SOL     OW93197   1.948  10.275  10.520 -0.1587  0.3274  0.1853
29356SOL    HW193198   1.890  10.306  10.451  0.1213  0.9160  0.2153
29356SOL    HW293199   1.988  10.196  10.483  0.9393  1.3438 -0.8171
29357SOL     OW93200   3.067   5.412   0.786 -0.2765 -0.4867  0.5517
29357SOL    HW193201   3.066   5.437   0.694 -1.9153 -2.1023  0.0927
29357SOL    HW293202   3.159   5.415   0.812  0.1865  0.0127 -1.1336
29358SOL     OW93203  10.609   3.672   9.497 -0.2758 -0.5008 -0.9008
29358SOL    HW193204  10.658   3.695   9.418 -0.1704  0.0843 -0.6677
29358SOL    HW293205  10.524   3.641   9.464 -0.6197  0.7357 -1.2003
29359SOL     OW93206  10.229   1.775   7.259 -0.0344 -0.3096 -0.4732
29359SOL    HW193207  10.277   1.839   7.205 -1.0776 -0.1527 -1.2252
29359SOL    HW293208  10.292   1.749   7.326  0.0906  2.2343  0.4373
29360SOL     OW93209   0.023   3.633   9.584  0.9154  0.3671 -0.0587
29360SOL    HW193210   0.026   3.723   9.552  0.2164  0.7567  0.9212
29360SOL    HW293211   0.058   3.639   9.674  1.4804 -0.4512 -0.2147
29361SOL     OW93212   9.679   9.186  10.150  0.0451  0.9944  0.1572
29361SOL    HW193213   9.597   9.143  10.173 -0.3044  2.5575  1.9819
29361SOL    HW293214   9.662   9.226  10.065 -0.1015 -1.1724 -0.8686
29362SOL     OW93215  11.272   2.343   2.106  0.4890 -0.2150  0.3956
29362SOL    HW193216  11.193   2.391   2.083  0.5864 -0.1004  0.2953
29362SOL    HW293217  11.267   2.331   2.201 -0.5588 -1.8415  0.1575
29363SOL     OW93218   0.326   6.097   8.407 -0.1073  0.1782  0.1456
29363SOL    HW193219   0.318   6.049   8.490  2.2967 -1.7026 -0.6337
29363SOL    HW293220   0.391   6.166   8.426 -0.8137  0.8114  0.2731
29364SOL     OW93221   2.951   7.014   4.608 -0.2509 -0.4573  0.2433
29364SOL    HW193222   2.859   7.033   4.628 -0.5023 -2.5193  1.1383
29364SOL    HW293223   2.957   6.919   4.609  1.3885 -0.4410 -2.2111
29365SOL     OW93224   7.489   3.198   9.098 -0.3406 -0.0938 -0.3047
29365SOL    HW193225   7.571   3.220   9.142  0.9133 -0.6337 -2.3233
29365SOL    HW293226   7.457   3.281   9.063 -0.3494  0.0163 -0.0361
29366SOL     OW93227   1.715   8.137   3.973  0.3123 -0.2006  0.1692
29366SOL    HW193228   1.694   8.184   3.893  1.1630 -0.3018 -0.1213
29366SOL    HW293229   1.747   8.204   4.033 -1.6125  0.0867  0.9086
29367SOL     OW93230   3.133   6.386   5.715  0.0614  0.5141 -0.3640
29367SOL    HW193231   3.063   6.376   5.651 -0.9841 -2.1664  1.1164
29367SOL    HW293232   3.211   6.351   5.671 -0.6816 -1.4408 -0.1991
29368SOL     OW93233   4.305  11.264   1.069  0.0707 -0.1142  0.1356
29368SOL    HW193234   4.228  11.213   1.094 -0.1139 -0.5928 -1.3781
29368SOL    HW293235   4.275  11.318   0.995  1.1198 -0.1445 -0.3206
29369SOL     OW93236   6.530   1.316   3.384  0.3632 -0.3961  0.3378
29369SOL    HW193237   6.599   1.334   3.320  0.5422 -1.5077  0.2131
29369SOL    HW293238   6.470   1.257   3.339  0.2829 -0.8738  1.0626
29370SOL     OW93239   5.023  10.861   4.142  0.3664 -0.2551  0.2228
29370SOL    HW193240   4.992  10.787   4.090  1.3883 -0.6072  0.1130
29370SOL    HW293241   5.118  10.861   4.131  0.3035  1.6467 -0.5221
29371SOL     OW93242   1.448   6.010   6.879 -0.2684  0.7094  0.0664
29371SOL    HW193243   1.516   6.002   6.813 -0.7723  0.7294 -0.4615
29371SOL    HW293244   1.472   5.947   6.947  1.5092  2.3187  0.9878
29372SOL     OW93245   6.564   3.919   1.882  0.0417 -0.6019 -0.1082
29372SOL    HW193246   6.531   3.833   1.857  0.9825 -1.0531  0.1638
29372SOL    HW293247   6.492   3.960   1.928 -0.5656 -1.0768 -0.6297
29373SOL     OW93248   0.780   9.755   0.806  0.1897  0.3328 -0.1011
29373SOL    HW193249   0.841   9.813   0.761  0.3619  0.3003  0.0910
29373SOL    HW293250   0.701   9.757   0.751  0.8175 -0.6467 -1.0474
29374SOL     OW93251   7.828  10.861   4.807 -0.0379  0.1806 -0.4720
29374SOL    HW193252   7.778  10.852   4.726  0.9148 -0.0483 -1.0438
29374SOL    HW293253   7.845  10.771   4.835  0.5435  0.2521 -0.5892
29375SOL     OW93254   9.828   7.244  10.995 -0.0809  0.0452  0.1032
29375SOL    HW193255   9.892   7.299  11.041 -0.5210  0.6054  0.0529
29375SOL    HW293256   9.743   7.280  11.020 -0.3389  0.0882 -0.8090
29376SOL     OW93257   1.390   0.541   1.159  0.1752  0.1014 -0.1592
29376SOL    HW193258   1.331   0.480   1.116 -2.1048  1.5229  0.8363
29376SOL    HW293259   1.418   0.495   1.238 -0.8676  0.0157  0.1656
29377SOL     OW93260   0.758   6.092   7.871 -0.1472 -0.0445  0.4049
29377SOL    HW193261   0.786   6.177   7.837  0.0317  0.1879  1.1425
29377SOL    HW293262   0.741   6.107   7.964 -1.7799 -0.4062  0.1789
29378SOL     OW93263   1.348   5.700   5.653 -0.0220 -0.2174 -0.1663
29378SOL    HW193264   1.271   5.727   5.704 -1.1275 -1.4989 -1.1250
29378SOL    HW293265   1.385   5.627   5.701 -0.4841 -0.7886 -0.6806
29379SOL     OW93266   1.872   2.192   8.507  0.0841 -0.0516  0.0389
29379SOL    HW193267   1.819   2.267   8.535  1.2618  0.8268 -0.0502
29379SOL    HW293268   1.936   2.229   8.446  0.6198 -1.1481 -0.0786
29380SOL     OW93269   1.907   9.099  10.184  0.0260  0.7916  0.2843
29380SOL    HW193270   1.996   9.112  10.218  0.5628 -2.3497  0.2074
29380SOL    HW293271   1.904   9.152  10.104  1.8410  0.9360  0.2842
29381SOL     OW93272   8.822   6.404  11.297 -0.0819  0.3838 -0.5242
29381SOL    HW193273   8.761   6.346  11.342  0.8227 -0.5929 -0.5255
29381SOL    HW293274   8.822   6.484  11.349 -0.4722 -0.0462  0.1443
29382SOL     OW93275  11.282   3.408   4.325 -0.0254  0.2140 -0.0274
29382SOL    HW193276  11.254   3.489   4.368  1.5930  0.6784  0.1867
29382SOL    HW293277  11.208   3.348   4.337 -0.9575  1.4279  0.4263
29383SOL     OW93278   6.693   4.723   0.075 -0.2858 -0.2200 -0.7522
29383SOL    HW193279   6.765   4.702   0.015  1.0202  0.7557  0.4255
29383SOL    HW293280   6.635   4.779   0.024  1.1935  1.2155 -0.9283
29384SOL     OW93281   7.045   6.042   5.431 -0.4130  0.4124  0.0669
29384SOL    HW193282   7.087   6.040   5.346 -1.7810 -0.0284 -0.6243
29384SOL    HW293283   7.085   6.116   5.477  1.1012 -0.0126 -0.5377
29385SOL     OW93284   0.384   5.182   7.309  0.0633 -0.0522  0.1694
29385SOL    HW193285   0.380   5.160   7.402  0.3578  0.3660  0.2817
29385SOL    HW293286   0.310   5.135   7.270  0.9901 -1.6773  0.3209
29386SOL     OW93287  10.517   5.273   2.380 -0.5199 -0.3387 -0.0788
29386SOL    HW193288  10.444   5.283   2.318 -1.1178  3.4361  1.0757
29386SOL    HW293289  10.474   5.254   2.464 -0.0211 -0.7793  0.0725
29387SOL     OW93290   0.382   4.259   6.150 -0.1249  0.4000  0.4090
29387SOL    HW193291   0.312   4.288   6.209 -1.1990 -0.2843 -0.4943
29387SOL    HW293292   0.337   4.205   6.085  0.9941  1.4219 -1.2308
29388SOL     OW93293   1.145   8.738   9.908 -0.1385 -0.1585  0.3518
29388SOL    HW193294   1.152   8.799   9.835  2.5303 -0.3799  0.3536
29388SOL    HW293295   1.053   8.740   9.933 -1.0927  0.0127 -2.9366
29389SOL     OW93296   8.799   5.463   0.126 -0.3515 -0.0403  0.1093
29389SOL    HW193297   8.736   5.534   0.122 -0.5340 -0.2419 -0.9424
29389SOL    HW293298   8.853   5.475   0.047  1.4919  0.6504  1.4288
29390SOL     OW93299   3.836   9.908   0.039  0.1626 -0.2880 -0.8907
29390SOL    HW193300   3.885   9.943   0.113  1.8567 -1.7991 -1.2720
29390SOL    HW293301   3.790   9.984   0.002  1.3624  0.9438  0.1212
29391SOL     OW93302   6.112   3.840   1.051 -0.5756 -0.0922  1.0086
29391SOL    HW193303   6.136   3.774   0.986  1.5402  1.0078  0.6341
29391SOL    HW293304   6.067   3.908   1.001  0.3505  0.3789  0.7976
29392SOL     OW93305   4.160   7.239   3.316  0.8666  0.5309  0.0179
29392SOL    HW193306   4.115   7.259   3.234 -1.3713  1.2878  1.4112
29392SOL    HW293307   4.250   7.267   3.300  0.3423  1.1827 -1.9801
29393SOL     OW93308   4.691   5.327   5.966  0.2698 -0.7061  0.1730
29393SOL    HW193309   4.704   5.381   5.888  0.8614 -1.6551 -0.3964
29393SOL    HW293310   4.757   5.359   6.028 -0.1222 -0.0326  0.2528
29394SOL     OW93311   1.012   4.013   2.571  0.4397  0.4285  0.3298
29394SOL    HW193312   0.992   3.919   2.566 -1.2555  0.8014 -0.2245
29394SOL    HW293313   0.989   4.047   2.485 -0.5045  1.6486  1.0474
29395SOL     OW93314   7.074   5.174   5.687  0.4952  0.4562  0.7415
29395SOL    HW193315   7.033   5.130   5.612  0.8264  2.7835 -0.8564
29395SOL    HW293316   7.029   5.137   5.763 -2.1466  0.3704 -0.7737
29396SOL     OW93317   8.872   5.732   6.262 -0.1983 -0.1037 -0.3671
29396SOL    HW193318   8.916   5.687   6.335 -0.3543  0.9038  0.3680
29396SOL    HW293319   8.929   5.719   6.187 -0.8039 -2.4980 -0.4451
29397SOL     OW93320   9.523   9.261   2.358  0.3390  0.1805 -0.0989
29397SOL    HW193321   9.485   9.230   2.440  0.4547  2.7216  0.9578
29397SOL    HW293322   9.450   9.301   2.311  0.6594  0.4453 -0.3720
29398SOL     OW93323   2.315  11.200   0.725 -0.2454  0.0459 -0.0636
29398SOL    HW193324   2.402  11.236   0.744 -0.1838 -1.1302  2.0413
29398SOL    HW293325   2.333  11.116   0.683 -0.3723  0.3202 -0.6651
29399SOL     OW93326  11.309   4.498   7.436  0.2218 -0.3186 -0.0661
29399SOL    HW193327  11.270   4.413   7.416 -0.2042 -0.3870  1.0271
29399SOL    HW293328  11.307   4.504   7.532  4.4938 -1.0983  0.2050
29400SOL     OW93329   2.690  10.518  10.158  0.2660 -0.1930 -0.4446
29400SOL    HW193330   2.643  10.565  10.228  1.8563  0.6724  0.0636
29400SOL    HW293331   2.649  10.431  10.157 -1.6178  0.6593 -0.2925
29401SOL     OW93332   0.153   3.663   0.344 -0.2388  0.0208 -0.0456
29401SOL    HW193333   0.204   3.736   0.309  0.5912 -0.4935  0.0755
29401SOL    HW293334   0.136   3.688   0.435 -2.1994  1.2488 -0.7149
29402SOL     OW93335   6.059   8.473   0.791  0.1147  0.5569 -0.4675
29402SOL    HW193336   6.118   8.535   0.834 -0.4837  1.3412 -0.7682
29402SOL    HW293337   6.008   8.434   0.862  1.2057 -0.3545 -0.1765
29403SOL     OW93338   2.760   6.443   7.081 -0.1336 -0.2410  0.3890
29403SOL    HW193339   2.676   6.479   7.052 -0.3139 -0.2610  0.8823
29403SOL    HW293340   2.801   6.514   7.131  0.9467  0.4048 -1.3477
29404SOL     OW93341   1.376  11.313   3.817  0.1746  0.8981 -0.2392
29404SOL    HW193342   1.376  11.237   3.876  2.6682 -0.0119 -1.3457
29404SOL    HW293343   1.433  11.377   3.859  1.1587  0.6348 -1.1431
29405SOL     OW93344   5.120  10.012  10.032 -0.5557 -0.1832  0.6668
29405SOL    HW193345   5.135   9.923  10.062  1.3521  0.5445  1.9795
29405SOL    HW293346   5.144  10.067  10.106 -0.7922  1.4679 -0.4431
29406SOL     OW93347   4.718   7.942  10.156 -0.4106  0.1702  0.5326
29406SOL    HW193348   4.748   7.910  10.071 -0.2029  1.4510  0.1181
29406SOL    HW293349   4.629   7.908  10.164 -0.4658  0.1182 -0.2401
29407SOL     OW93350  10.624  10.292   6.190 -0.0294 -0.3703  0.1864
29407SOL    HW193351  10.541  10.331   6.216 -0.4346 -0.8633 -0.3537
29407SOL    HW293352  10.685  10.366   6.188 -0.5960  0.0963 -0.0158
29408SOL     OW93353   1.451   7.821   7.448  0.4216  0.0318 -0.2215
29408SOL    HW193354   1.417   7.875   7.376  1.9110  0.0984 -0.9092
29408SOL    HW293355   1.492   7.884   7.508 -1.2995  0.0298  0.9839
29409SOL     OW93356   7.352   6.012   1.530  0.1931  0.3989 -0.4283
29409SOL    HW193357   7.277   5.954   1.544  0.6771 -0.0480  0.3006
29409SOL    HW293358   7.321   6.099   1.555  0.4475 -0.0634  1.5331
29410SOL     OW93359   7.001   2.713   9.398  0.1502 -0.1505  0.3353
29410SOL    HW193360   7.001   2.805   9.373 -2.6594  0.0586  1.0038
29410SOL    HW293361   7.035   2.668   9.320  2.7815  1.5086  0.4643
29411SOL     OW93362   8.978   3.271   0.736 -0.6995 -0.2298 -0.5215
29411SOL    HW193363   8.934   3.211   0.797 -2.7299  0.2997 -1.4316
29411SOL    HW293364   8.916   3.342   0.723 -0.5198 -0.5608 -3.5806
29412SOL     OW93365   4.082   1.056   1.548 -0.5222  0.2187 -0.1999
29412SOL    HW193366   4.130   1.138   1.535 -1.9944  0.8045 -2.3386
29412SOL    HW293367   3.990   1.081   1.535 -0.8714 -2.0416 -2.4335
29413SOL     OW93368   4.403   2.428  10.543 -0.0943 -0.2017  0.2041
29413SOL    HW193369   4.338   2.358  10.540  0.0788 -0.3141 -3.5596
29413SOL    HW293370   4.352   2.509  10.540 -0.2166 -0.1736  2.5040
29414SOL     OW93371   8.570   1.833   7.604 -0.7550  0.0709 -0.6322
29414SOL    HW193372   8.578   1.785   7.521  1.4150  1.4572 -1.2683
29414SOL    HW293373   8.475   1.847   7.614 -1.2754 -2.5081 -1.4460
29415SOL     OW93374   4.690   7.661   9.589  0.3488 -0.3228 -0.6210
29415SOL    HW193375   4.681   7.669   9.684  1.1001 -0.2665 -0.5544
29415SOL    HW293376   4.685   7.751   9.557 -0.1039 -0.3582 -0.6541
29416SOL     OW93377   5.714   5.628   4.078  0.3013 -0.1799 -0.2359
29416SOL    HW193378   5.760   5.603   3.997  0.7286 -0.2350  0.0198
29416SOL    HW293379   5.777   5.607   4.148 -0.4452 -1.0609  0.1814
29417SOL     OW93380   0.373   0.752   1.857 -0.2232  0.2859 -0.4557
29417SOL    HW193381   0.459   0.784   1.829 -0.5443  0.7220 -0.9665
29417SOL    HW293382   0.315   0.828   1.847 -0.4379  0.3187  0.9967
29418SOL     OW93383   4.218   2.155   7.102 -0.6610 -0.2012  0.3055
29418SOL    HW193384   4.190   2.244   7.122 -1.2185 -0.0461 -1.1167
29418SOL    HW293385   4.156   2.124   7.036  0.1906 -1.2516 -0.0220
29419SOL     OW93386   7.300   9.116   7.506  0.0054  0.2182  0.6820
29419SOL    HW193387   7.306   9.191   7.447  3.8687  0.9060  1.8531
29419SOL    HW293388   7.280   9.155   7.592  0.3802 -0.2383  0.9752
29420SOL     OW93389   4.974   6.471   3.141 -0.4215 -0.3033  0.5356
29420SOL    HW193390   5.060   6.459   3.183 -0.0114 -1.2763 -0.5727
29420SOL    HW293391   4.914   6.483   3.215  0.3413 -1.6961  1.4034
29421SOL     OW93392   9.560   9.719   2.444  0.3304  0.0144  0.4805
29421SOL    HW193393   9.503   9.724   2.368  0.5732  0.8722  0.3499
29421SOL    HW293394   9.637   9.770   2.420  0.7420 -0.3525  1.0099
29422SOL     OW93395   6.870   8.499   7.924  0.1555  0.5079 -0.1933
29422SOL    HW193396   6.888   8.481   7.832 -2.3909 -1.0157 -0.4141
29422SOL    HW293397   6.917   8.431   7.971  0.0334  0.2413 -0.4555
29423SOL     OW93398   4.918   9.957   3.073  0.0776 -0.7240  0.2327
29423SOL    HW193399   4.865   9.906   3.011 -1.2402  0.4621  0.3551
29423SOL    HW293400   4.963   9.891   3.126 -0.0613 -1.7519 -0.8919
29424SOL     OW93401   6.145   3.317   9.846 -0.0071  0.1574  0.2638
29424SOL    HW193402   6.083   3.320   9.773 -0.3470  0.0065  0.5447
29424SOL    HW293403   6.121   3.237   9.894 -0.6309  0.9410  1.2794
29425SOL     OW93404   4.564   9.979   0.725  0.3367  0.3068  0.9369
29425SOL    HW193405   4.589  10.043   0.792  0.7257 -0.0344  1.1151
29425SOL    HW293406   4.557   9.896   0.772 -2.9918  0.7146  1.2863
29426SOL     OW93407   7.806   4.880   8.972 -0.2557  0.0423  0.3427
29426SOL    HW193408   7.781   4.862   9.062 -3.2551  0.3530 -0.3665
29426SOL    HW293409   7.763   4.963   8.952  0.1330 -0.1678 -1.4403
29427SOL     OW93410   7.715   4.812   4.551 -0.2663  0.8433 -0.1269
29427SOL    HW193411   7.689   4.751   4.482 -3.1429  0.5647  1.1671
29427SOL    HW293412   7.808   4.794   4.565 -1.1061 -3.3981  0.3959
29428SOL     OW93413   2.005   8.936   6.569  0.4237  0.1038  0.6486
29428SOL    HW193414   1.914   8.920   6.541  0.2403  2.0498  0.0968
29428SOL    HW293415   2.057   8.879   6.512 -0.4282 -0.9244  0.8701
29429SOL     OW93416   6.902   1.759   4.412 -0.4041  0.1396 -0.9061
29429SOL    HW193417   6.931   1.726   4.497 -0.6473  1.7106 -0.1956
29429SOL    HW293418   6.977   1.745   4.354  0.4332  0.7703  0.0167
29430SOL     OW93419   0.656   3.836   5.103 -0.2123 -0.2911 -0.4919
29430SOL    HW193420   0.701   3.751   5.098 -0.4837 -0.4798  0.2572
29430SOL    HW293421   0.717   3.893   5.150 -0.3065 -0.2550 -0.4129
29431SOL     OW93422   0.856  10.887   5.206  0.0925 -0.4222  0.2888
29431SOL    HW193423   0.916  10.961   5.216 -0.6222  0.3260 -0.7604
29431SOL    HW293424   0.909  10.819   5.164  0.6944 -0.4220  1.0468
29432SOL     OW93425   4.274   3.994   3.308  0.3879 -0.1410 -0.1325
29432SOL    HW193426   4.309   4.077   3.339 -2.4422  1.0307  0.0234
29432SOL    HW293427   4.237   3.953   3.386 -0.2462 -0.5236 -0.6332
29433SOL     OW93428   1.143   0.408   4.762  0.0201 -0.3011  0.4257
29433SOL    HW193429   1.157   0.349   4.689  0.6593  2.1637 -1.5085
29433SOL    HW293430   1.059   0.449   4.745  0.4457  0.7281  0.7516
29434SOL     OW93431   4.640   7.834   5.788  0.0770 -0.4125 -0.2292
29434SOL    HW193432   4.695   7.906   5.757 -1.0557  0.1835 -0.8931
29434SOL    HW293433   4.702   7.765   5.811  1.1494  0.5403 -0.1746
29435SOL     OW93434  11.206   4.311   3.989  0.5241  0.0258 -0.3571
29435SOL    HW193435  11.259   4.388   3.967 -0.3614  1.2541  1.6537
29435SOL    HW293436  11.241   4.241   3.933  1.2964  1.8856 -2.2837
29436SOL     OW93437   2.169   0.911   9.174  0.1301  0.4748  0.2459
29436SOL    HW193438   2.120   0.994   9.180 -2.3882 -0.8152 -1.4998
29436SOL    HW293439   2.110   0.846   9.211  0.6292 -1.0919 -1.6125
29437SOL     OW93440   0.806   0.130  10.181  0.6825 -0.2222 -0.5119
29437SOL    HW193441   0.783   0.163  10.268 -1.3196 -1.6965 -0.4477
29437SOL    HW293442   0.896   0.098  10.191  0.3652 -0.6717  1.1142
29438SOL     OW93443   4.924   2.097   4.913 -0.0331 -0.1438 -0.2407
29438SOL    HW193444   4.901   2.125   5.002  0.1697 -0.5402 -0.0613
29438SOL    HW293445   4.936   2.002   4.921 -1.2748 -0.3769 -0.9510
29439SOL     OW93446   9.262   1.918   0.619  0.0552  0.5940 -0.0799
29439SOL    HW193447   9.188   1.950   0.670 -0.1924 -1.1423  0.6558
29439SOL    HW293448   9.280   1.831   0.653  3.0994  1.3610  0.4885
29440SOL     OW93449   2.933   5.080  11.151 -0.0845  0.2241 -0.0803
29440SOL    HW193450   2.954   5.121  11.235 -1.9498 -1.0158  1.0018
29440SOL    HW293451   3.016   5.040  11.123  0.7258  1.2237  0.8042
29441SOL     OW93452   5.524  10.661   1.378  0.5854 -0.1953 -0.3500
29441SOL    HW193453   5.616  10.676   1.397  0.6563  0.9025 -1.5063
29441SOL    HW293454   5.477  10.705   1.449  0.9452 -1.1422  0.4863
29442SOL     OW93455   2.880   3.053   0.289  0.4823  0.1450 -0.1703
29442SOL    HW193456   2.794   3.085   0.261  1.1154  1.1027 -1.0973
29442SOL    HW293457   2.874   3.049   0.384 -0.1353  1.5666 -0.1298
29443SOL     OW93458  10.604   7.499   2.964  0.2310  0.1210 -0.3061
29443SOL    HW193459  10.552   7.426   2.995 -0.7144  1.0132  0.2525
29443SOL    HW293460  10.631   7.545   3.044  0.5461  0.5588 -0.6589
29444SOL     OW93461   2.581   0.690   0.647 -0.3198 -0.6563  0.0123
29444SOL    HW193462   2.614   0.727   0.729 -1.0343  1.7194 -0.7349
29444SOL    HW293463   2.487   0.682   0.660 -0.3799 -0.6718 -0.4258
29445SOL     OW93464   9.769   6.635  10.201 -0.6973 -0.4057 -0.1097
29445SOL    HW193465   9.675   6.626  10.186 -0.4204  0.1240 -2.2573
29445SOL    HW293466   9.781   6.728  10.220 -0.4656 -0.2797 -0.8780
29446SOL     OW93467   0.940   2.903   8.612  0.7108  0.0518 -0.1008
29446SOL    HW193468   1.011   2.958   8.580  0.5219  0.2187 -0.2369
29446SOL    HW293469   0.982   2.842   8.674  1.1100 -0.3944 -0.8015
29447SOL     OW93470   1.365   6.152  10.276 -0.3233 -0.5222 -0.1177
29447SOL    HW193471   1.408   6.208  10.340  1.5054 -2.6467  0.5437
29447SOL    HW293472   1.279   6.134  10.314 -1.6130  3.0037 -1.0506
29448SOL     OW93473   4.954   5.233   9.285 -0.4558  0.2265 -0.3249
29448SOL    HW193474   4.894   5.246   9.359 -1.8663 -0.5809 -1.3222
29448SOL    HW293475   5.010   5.160   9.312 -1.2189 -0.3184 -0.2112
29449SOL     OW93476  11.087   5.976   4.230  0.6570 -0.3995  0.7226
29449SOL    HW193477  11.106   6.038   4.300  1.5123  0.3158 -0.1232
29449SOL    HW293478  11.100   6.026   4.149  2.2236 -1.9019  0.0000
29450SOL     OW93479   6.272   1.584   6.723 -0.6529  0.1053  0.5866
29450SOL    HW193480   6.296   1.534   6.646 -0.3127 -0.3850  1.0034
29450SOL    HW293481   6.182   1.557   6.742 -0.9884  0.7615 -0.0527
29451SOL     OW93482   0.001  10.198   4.844 -0.2125 -0.2709  0.1179
29451SOL    HW193483   0.076  10.252   4.866  0.3898 -0.2227 -1.9281
29451SOL    HW293484   0.033  10.108   4.850 -0.3639 -0.2972  0.5440
29452SOL     OW93485   8.816   6.231   1.147 -0.1768  0.4570 -0.1280
29452SOL    HW193486   8.736   6.221   1.095  0.4749  1.9947 -1.4949
29452SOL    HW293487   8.855   6.312   1.114  1.4983  0.1753  1.1281
29453SOL     OW93488   4.263   4.506   2.136 -0.0540 -0.2031  0.0556
29453SOL    HW193489   4.291   4.493   2.045  0.8917 -1.0721  0.4622
29453SOL    HW293490   4.318   4.578   2.167  1.1005 -1.2837  0.5645
29454SOL     OW93491  10.774   4.959  10.338 -0.3500 -0.6117 -0.0955
29454SOL    HW193492  10.748   4.951  10.430 -1.1819  0.4322 -0.2269
29454SOL    HW293493  10.701   5.006  10.297  1.0706  1.0255 -0.8148
29455SOL     OW93494   7.121   7.041   4.156  0.2170 -0.0479 -0.1697
29455SOL    HW193495   7.155   7.050   4.245 -1.3051 -0.8814  0.5374
29455SOL    HW293496   7.119   6.946   4.141  0.3997  0.0853 -1.0615
29456SOL     OW93497   7.718   1.534   8.318 -0.2458  0.1852 -0.3768
29456SOL    HW193498   7.739   1.460   8.260  0.6864 -0.9362  1.3522
29456SOL    HW293499   7.625   1.549   8.303  0.0651  0.1842 -2.4642
29457SOL     OW93500   5.522   1.121   6.796  0.0329 -0.3344  0.1808
29457SOL    HW193501   5.526   1.032   6.763 -1.9847 -0.4876  0.2857
29457SOL    HW293502   5.613   1.149   6.802  0.7591 -2.7853  1.2243
29458SOL     OW93503  10.020   3.919   3.693  0.2408  0.4239 -0.4546
29458SOL    HW193504  10.102   3.878   3.717  0.1972  0.1010 -0.8560
29458SOL    HW293505  10.007   3.988   3.758  0.3006 -0.2108  0.2350
29459SOL     OW93506   5.780   0.745   2.285 -0.3389  0.0258  0.2935
29459SOL    HW193507   5.872   0.719   2.281 -0.8574 -1.7055 -0.7194
29459SOL    HW293508   5.749   0.741   2.195 -1.6372 -0.2633  0.7362
29460SOL     OW93509   2.469  11.135  10.651 -0.2670  0.0551 -0.1716
29460SOL    HW193510   2.380  11.171  10.646 -0.3014 -0.1229 -0.8316
29460SOL    HW293511   2.526  11.211  10.639 -0.3372  0.0088 -0.8203
29461SOL     OW93512   8.893  10.688   5.864 -0.4243  0.0187 -0.7639
29461SOL    HW193513   8.864  10.635   5.790  0.2833  1.0516 -1.8042
29461SOL    HW293514   8.871  10.778   5.839 -0.4771  0.3458  0.4251
29462SOL     OW93515   4.097   4.678   0.786 -0.4323  0.1124 -0.3726
29462SOL    HW193516   4.172   4.682   0.726  0.2642  0.8814  0.5459
29462SOL    HW293517   4.040   4.749   0.758 -0.0092  0.6008  0.0088
29463SOL     OW93518  10.998   3.602   3.005  0.0146 -0.2468 -0.4256
29463SOL    HW193519  11.038   3.679   3.047  0.0773 -0.3314 -0.3309
29463SOL    HW293520  10.932   3.639   2.946  0.8688 -0.0707 -1.2732
29464SOL     OW93521   3.978  10.996  11.314  0.9567 -0.0324  0.3903
29464SOL    HW193522   4.007  10.931  11.250  2.8288 -0.7831  1.9496
29464SOL    HW293523   3.952  10.945  11.390  0.1935  0.9412  0.7981
29465SOL     OW93524   3.093  11.225   5.748 -0.0884  0.2503 -0.3957
29465SOL    HW193525   3.157  11.171   5.795 -0.3123  0.9952  0.7852
29465SOL    HW293526   3.061  11.287   5.814  1.3613  2.9092 -2.1364
29466SOL     OW93527   2.930   6.369   8.336  0.4330  0.1600  0.3915
29466SOL    HW193528   2.928   6.421   8.417  2.4738  0.9191 -0.0194
29466SOL    HW293529   2.933   6.434   8.266 -0.3434 -0.5093 -0.2730
29467SOL     OW93530   8.720   6.147   3.920  0.1715 -0.0835  0.3607
29467SOL    HW193531   8.790   6.099   3.875 -0.8349 -0.3882 -0.9004
29467SOL    HW293532   8.664   6.079   3.956 -0.8192  0.1171 -0.7493
29468SOL     OW93533   1.635   2.406   7.930  0.0841 -0.0427  0.2420
29468SOL    HW193534   1.634   2.450   8.014 -2.2314 -2.5225  1.5938
29468SOL    HW293535   1.686   2.326   7.944  1.3453  0.4755 -1.2360
29469SOL     OW93536  10.208   7.717   0.933 -0.0522  0.2954  1.3207
29469SOL    HW193537  10.203   7.692   0.841  0.0375 -2.3984  2.0159
29469SOL    HW293538  10.161   7.800   0.938  0.7867  0.9602 -1.3120
29470SOL     OW93539   7.965  10.447   5.172  0.0961  0.3109  0.1809
29470SOL    HW193540   7.949  10.368   5.224  1.9858 -0.3235 -0.1262
29470SOL    HW293541   7.879  10.476   5.145 -0.5134 -3.7377 -2.7656
29471SOL     OW93542   0.095   7.072   0.694 -0.2551  0.1033 -0.3316
29471SOL    HW193543   0.092   6.977   0.709 -0.4067 -0.0476 -1.2620
29471SOL    HW293544   0.109   7.110   0.781 -0.0969 -0.7773  0.0339
29472SOL     OW93545   4.180   0.446   5.569  0.0025 -0.1940  0.2800
29472SOL    HW193546   4.183   0.521   5.629 -0.8274 -0.2026  0.3359
29472SOL    HW293547   4.264   0.402   5.582  0.4891  0.7120  0.2658
29473SOL     OW93548   9.721   0.108   5.226  0.0766 -0.1710 -0.5771
29473SOL    HW193549   9.669   0.174   5.271 -0.5361 -0.7825 -0.3772
29473SOL    HW293550   9.670   0.085   5.148 -0.6373 -1.7683  0.3314
29474SOL     OW93551   0.015   8.493   3.731  0.0771  0.2220  0.0804
29474SOL    HW193552   0.011   8.458   3.642 -2.4642 -0.3520  0.3824
29474SOL    HW293553  -0.054   8.559   3.735  0.8162  0.9663  1.3544
29475SOL     OW93554   2.981   1.287   5.058 -0.3655  0.2253  0.2754
29475SOL    HW193555   3.065   1.331   5.043 -1.1560  1.4669 -0.5561
29475SOL    HW293556   2.985   1.208   5.004  1.4556 -1.3275  2.5178
29476SOL     OW93557  10.348   9.055   3.918  0.4471 -0.2030 -0.6623
29476SOL    HW193558  10.312   9.082   4.003 -0.8366 -1.7104 -0.7027
29476SOL    HW293559  10.396   8.975   3.936 -1.0306 -1.3338 -1.5551
29477SOL     OW93560   5.435   1.245   1.715 -0.9901 -0.5784  0.3530
29477SOL    HW193561   5.491   1.311   1.674  0.4657 -1.9898  0.0200
29477SOL    HW293562   5.378   1.295   1.774 -1.5272  1.2273 -1.6353
29478SOL     OW93563  10.912   0.622  11.191  0.0649 -0.2382 -0.6565
29478SOL    HW193564  10.937   0.696  11.247 -1.6653 -0.8561  0.9961
29478SOL    HW293565  10.994   0.574  11.177  0.9513  1.2262 -0.6191
29479SOL     OW93566   9.537  10.437   1.280  0.1152 -0.1318 -0.1702
29479SOL    HW193567   9.622  10.457   1.239  0.4282 -2.0026 -0.4883
29479SOL    HW293568   9.556  10.365   1.341 -1.0427  0.1642  0.5563
29480SOL     OW93569   2.515   2.919   1.751  0.4713  0.9653 -0.1966
29480SOL    HW193570   2.554   2.838   1.718 -1.1558  0.6463 -1.4636
29480SOL    HW293571   2.538   2.985   1.686  4.2227  2.2349  2.2666
29481SOL     OW93572   8.862   8.414   1.574 -0.0475 -0.1566 -0.0743
29481SOL    HW193573   8.783   8.407   1.628 -0.7451  2.1848 -0.7422
29481SOL    HW293574   8.830   8.405   1.484  0.6814 -0.8749 -0.2656
29482SOL     OW93575   3.717  11.158   7.449 -0.5173 -0.0140  1.2156
29482SOL    HW193576   3.635  11.110   7.449 -0.6640  0.2173  0.1771
29482SOL    HW293577   3.784  11.092   7.466 -0.7724 -0.5013  0.3831
29483SOL     OW93578   9.681   6.746   6.968 -0.3126  0.1024  0.1458
29483SOL    HW193579   9.656   6.654   6.957 -2.4498  0.8483 -1.7451
29483SOL    HW293580   9.628   6.775   7.042  0.2528 -0.1491  0.6505
29484SOL     OW93581   9.510  11.263   2.575  0.2203  0.4273  0.4237
29484SOL    HW193582   9.523  11.200   2.645  0.4106  0.7777  0.7066
29484SOL    HW293583   9.582  11.325   2.585  0.8919 -0.1412 -0.7701
29485SOL     OW93584   2.788   7.812  10.630  0.7205 -0.6686  0.2525
29485SOL    HW193585   2.700   7.791  10.660  0.6760 -1.4562 -0.4108
29485SOL    HW293586   2.778   7.826  10.535  1.4547 -1.6048  0.0363
29486SOL     OW93587  10.679   8.749   4.320  0.6132  0.3507  0.1061
29486SOL    HW193588  10.658   8.842   4.328  2.6900  0.9032 -0.6183
29486SOL    HW293589  10.707   8.723   4.408 -0.3170  0.2972  0.3970
29487SOL     OW93590   8.508   1.088   1.805  0.8676 -0.1440 -0.6242
29487SOL    HW193591   8.555   1.078   1.722  2.4514  1.1111  0.0951
29487SOL    HW293592   8.577   1.102   1.870 -0.3986 -0.4231  0.7941
29488SOL     OW93593   9.396   4.249   8.641 -0.3392 -0.7486  0.0301
29488SOL    HW193594   9.475   4.194   8.643  0.5267  0.4411 -0.4473
29488SOL    HW293595   9.412   4.310   8.570 -1.1265  0.3576  0.7900
29489SOL     OW93596   0.714   5.382   2.191 -0.0664 -0.1340 -0.5225
29489SOL    HW193597   0.778   5.404   2.258 -1.3256  0.1699  0.5940
29489SOL    HW293598   0.648   5.330   2.236 -0.0178 -1.4687 -1.9204
29490SOL     OW93599   1.970   0.569   5.959  0.2683 -0.0821  0.6767
29490SOL    HW193600   1.891   0.535   6.001  0.4762 -0.1155  1.0371
29490SOL    HW293601   1.995   0.645   6.011  1.7588 -1.3894  1.9282
29491SOL     OW93602   7.060   5.320   8.651  0.4204  0.0630  0.0341
29491SOL    HW193603   7.070   5.252   8.718  0.2879  0.8681  0.8805
29491SOL    HW293604   7.140   5.314   8.599  0.6648 -0.3647  0.4533
29492SOL     OW93605   0.082   2.381   3.646 -0.4536  0.4034  0.0675
29492SOL    HW193606   0.043   2.299   3.617  0.3974 -0.0960  0.3198
29492SOL    HW293607   0.163   2.389   3.595  0.4486  0.1140  1.4313
29493SOL     OW93608   6.960  10.927   0.836  0.6054 -0.1750  0.2063
29493SOL    HW193609   6.918  10.843   0.857 -1.2257  0.8855  0.9120
29493SOL    HW293610   6.944  10.938   0.742  0.4819 -0.4108  0.1972
29494SOL     OW93611   1.684   4.669   3.408 -0.2098  0.0016  0.2135
29494SOL    HW193612   1.634   4.602   3.362  0.7531  0.4094 -1.4692
29494SOL    HW293613   1.619   4.734   3.434 -0.6624  0.2180 -1.4030
29495SOL     OW93614   3.858   5.506   8.057 -0.0378  0.0165 -0.5033
29495SOL    HW193615   3.922   5.468   8.118  0.0084 -0.8311 -1.0687
29495SOL    HW293616   3.873   5.460   7.975 -1.4471 -0.2637 -0.6149
29496SOL     OW93617   9.524   4.161   9.138 -0.0607  0.1621 -0.3668
29496SOL    HW193618   9.473   4.228   9.091  0.7354  1.3036  0.3996
29496SOL    HW293619   9.510   4.180   9.230  0.9738 -0.1230 -0.1461
29497SOL     OW93620   1.084   5.789   3.657 -0.5713 -0.1255 -0.3208
29497SOL    HW193621   1.114   5.824   3.741 -2.0102  0.2507  0.0459
29497SOL    HW293622   1.157   5.736   3.626 -0.5957 -1.5035  1.8816
29498SOL     OW93623  11.200   2.678   8.367 -0.1487 -0.4508 -0.4376
29498SOL    HW193624  11.141   2.752   8.385  0.7080  0.0429  0.3609
29498SOL    HW293625  11.266   2.713   8.308 -0.0458 -0.7216 -0.4841
29499SOL     OW93626   1.896   9.212   3.333  0.4829  0.0461 -0.1867
29499SOL    HW193627   1.938   9.130   3.306  2.0795  1.0653 -0.8663
29499SOL    HW293628   1.922   9.275   3.266 -1.3963  0.9298 -0.1087
29500SOL     OW93629  11.290   9.262   3.093  0.5150 -0.4399 -0.0741
29500SOL    HW193630  11.344   9.335   3.126  1.2109 -0.9219 -0.1282
29500SOL    HW293631  11.283   9.277   2.999  2.5156 -1.6100 -0.4525
29501SOL     OW93632   0.971   3.222   2.115  0.4016 -0.7023 -0.0016
29501SOL    HW193633   0.878   3.225   2.139  0.1172 -1.3436 -0.9937
29501SOL    HW293634   1.001   3.136   2.145  1.6979  1.0030  3.8972
29502SOL     OW93635   0.758   1.387   3.509 -0.2122  0.3669  0.0101
29502SOL    HW193636   0.806   1.331   3.447  2.2315  2.4909 -0.1148
29502SOL    HW293637   0.765   1.342   3.593 -0.5945 -0.8358 -0.5936
29503SOL     OW93638   9.129   9.863   9.168  0.7113  0.1518 -0.1455
29503SOL    HW193639   9.221   9.839   9.162  0.8953  1.0522 -0.9549
29503SOL    HW293640   9.086   9.784   9.202  1.7581 -0.3020  0.1403
29504SOL     OW93641   3.468   9.855   8.369 -0.3075 -0.0823 -0.1408
29504SOL    HW193642   3.508   9.801   8.438 -0.6048  1.4997  1.3134
29504SOL    HW293643   3.482   9.805   8.289  2.6711 -0.6232  0.6180
29505SOL     OW93644  10.065   5.172  11.099  0.5944 -0.7614  0.0467
29505SOL    HW193645  10.127   5.245  11.100 -0.4253  0.1316 -1.2039
29505SOL    HW293646  10.120   5.094  11.106  1.7729  0.0711  0.1903
29506SOL     OW93647   9.558   2.819   8.565  0.6558  0.2882 -0.2211
29506SOL    HW193648   9.481   2.834   8.508  0.0338 -0.1546  0.4989
29506SOL    HW293649   9.547   2.883   8.636  0.8967  0.1453 -0.0594
29507SOL     OW93650   3.443   2.266   8.459 -0.1330 -0.0576 -0.1623
29507SOL    HW193651   3.390   2.190   8.483 -0.2570  0.6180  1.7315
29507SOL    HW293652   3.496   2.236   8.385  0.7697 -2.4028  1.3863
29508SOL     OW93653  11.187   3.549   9.037 -0.2244 -0.3125  0.0450
29508SOL    HW193654  11.099   3.548   9.075 -1.0678  0.3466 -1.8204
29508SOL    HW293655  11.182   3.487   8.963  0.0939  1.6943 -1.7082
29509SOL     OW93656   4.843   4.761   2.016  0.5562  0.0317  0.5621
29509SOL    HW193657   4.922   4.814   2.031  1.2367 -0.5371 -0.9094
29509SOL    HW293658   4.776   4.825   1.990  0.8368  0.3929  0.7259
29510SOL     OW93659  10.859   1.313   0.535  0.3982  0.1841 -0.1749
29510SOL    HW193660  10.834   1.222   0.552 -0.8234  0.4612 -0.3916
29510SOL    HW293661  10.838   1.359   0.617  1.4505  0.1903  0.0968
29511SOL     OW93662   3.306   6.677   9.758 -1.0275 -0.4787  0.2280
29511SOL    HW193663   3.228   6.733   9.754 -0.7233 -0.0119  0.8305
29511SOL    HW293664   3.308   6.646   9.848 -0.0433  0.1928  0.4448
29512SOL     OW93665   3.752   1.951   5.989 -0.0577 -0.1501 -0.3191
29512SOL    HW193666   3.835   1.965   6.035  0.6082  0.7597 -1.7477
29512SOL    HW293667   3.776   1.954   5.896 -1.9512  1.9237 -0.7914
29513SOL     OW93668   6.004   3.220   5.206 -0.1337  0.6932  0.0210
29513SOL    HW193669   5.995   3.135   5.162  0.0786  0.5306  0.2894
29513SOL    HW293670   5.918   3.261   5.196  0.0567  0.8581 -0.9557
29514SOL     OW93671   5.123  10.743  10.939 -0.7811 -0.0681 -0.1935
29514SOL    HW193672   5.056  10.808  10.960 -0.9894 -0.2257 -0.3710
29514SOL    HW293673   5.187  10.791  10.886 -0.6502  0.1323  0.1488
29515SOL     OW93674   0.956   7.437   3.455  0.0527 -0.1215 -0.1117
29515SOL    HW193675   0.886   7.373   3.438  0.5942 -0.8876  0.4957
29515SOL    HW293676   1.001   7.403   3.533  0.3496  1.0049  0.2201
29516SOL     OW93677   0.460   3.358   0.136 -0.0509 -0.0522  0.0406
29516SOL    HW193678   0.426   3.386   0.221 -3.0328 -0.0549 -1.0825
29516SOL    HW293679   0.538   3.307   0.157 -1.0362 -0.5262  2.8136
29517SOL     OW93680   5.330   9.103   1.516 -0.4780 -0.1485  0.4222
29517SOL    HW193681   5.420   9.118   1.544 -0.6254 -0.0877  0.8734
29517SOL    HW293682   5.322   9.008   1.510 -0.3149 -0.1451  0.1499
29518SOL     OW93683  10.780   2.933   3.508 -0.1296  0.0040  0.3276
29518SOL    HW193684  10.812   2.850   3.472  0.2024 -0.1923  1.0704
29518SOL    HW293685  10.859   2.986   3.521 -0.3644  0.5466 -0.4047
29519SOL     OW93686  10.993   0.890   3.688 -0.2804 -0.3253 -0.2290
29519SOL    HW193687  10.965   0.815   3.740  0.5914 -0.3148  0.2660
29519SOL    HW293688  10.936   0.888   3.611 -0.7398 -1.0708  0.1201
29520SOL     OW93689   1.285  11.031  10.145 -0.5521  0.7748 -0.0649
29520SOL    HW193690   1.340  10.994  10.076  0.5030  1.5899  0.3251
29520SOL    HW293691   1.206  10.978  10.143  0.3820 -0.6457 -0.4205
29521SOL     OW93692   4.342   1.824   6.065  0.2794  0.3954  0.6070
29521SOL    HW193693   4.311   1.878   6.138 -1.4904  0.7797 -0.4203
29521SOL    HW293694   4.433   1.852   6.052  0.2572  1.1244  1.9237
29522SOL     OW93695   6.952   6.224   0.133 -0.0792 -0.0926  0.1345
29522SOL    HW193696   6.906   6.143   0.153 -0.1149 -0.6430 -2.1258
29522SOL    HW293697   6.997   6.208   0.050  2.2803  1.2285  1.0787
29523SOL     OW93698   0.094  10.159   6.580 -0.6859  0.0525  0.0052
29523SOL    HW193699   0.105  10.107   6.659 -0.0511 -0.8799 -0.6876
29523SOL    HW293700   0.131  10.105   6.510 -0.3123  1.2988 -0.7725
29524SOL     OW93701   6.479   9.649  10.483 -0.0901 -0.0090 -0.2093
29524SOL    HW193702   6.389   9.639  10.515 -0.0058 -0.6517 -0.1504
29524SOL    HW293703   6.483   9.738  10.449 -0.5791  0.2309  0.3356
29525SOL     OW93704  10.139   4.242   5.037  0.0639  0.1408  0.0105
29525SOL    HW193705  10.113   4.175   5.100 -3.6274  1.6656  0.2512
29525SOL    HW293706  10.149   4.322   5.088  0.1481  0.6910 -0.8472
29526SOL     OW93707   8.952   5.245   9.307 -0.1475  0.1984  0.2472
29526SOL    HW193708   8.989   5.157   9.311 -0.3666  0.0954 -0.0233
29526SOL    HW293709   8.950   5.273   9.399  0.1205  0.0058  0.3136
29527SOL     OW93710   6.897   9.700   2.142  0.1730  0.0225 -0.1573
29527SOL    HW193711   6.875   9.607   2.138 -0.0561  0.0953 -0.5983
29527SOL    HW293712   6.853   9.738   2.066 -2.0370  0.9375  1.5051
29528SOL     OW93713   9.417   0.252   2.569 -0.4825  0.6641 -0.0486
29528SOL    HW193714   9.501   0.249   2.614  0.1391  1.8941 -1.0824
29528SOL    HW293715   9.354   0.277   2.637  0.4307  2.4192  0.1704
29529SOL     OW93716   8.629   0.997   4.958 -0.6930  0.1053 -0.4595
29529SOL    HW193717   8.594   0.908   4.964  0.1844 -0.1233  1.9653
29529SOL    HW293718   8.698   0.990   4.892  1.1026 -1.6581  1.5227
29530SOL     OW93719   3.075   2.181   1.552  0.6463  0.1705  0.3093
29530SOL    HW193720   3.094   2.275   1.556  0.4295  0.2538 -0.5279
29530SOL    HW293721   3.118   2.145   1.629  2.5597  0.6385 -0.4928
29531SOL     OW93722   2.030  10.659   5.023  0.0088  0.1543 -0.5893
29531SOL    HW193723   2.027  10.571   4.985  0.2547  0.4225 -1.2373
29531SOL    HW293724   1.990  10.715   4.957  0.0064  0.5547 -0.2478
29532SOL     OW93725   9.592   9.006   7.548  0.5789 -0.2972  0.3864
29532SOL    HW193726   9.618   9.086   7.593  2.0058 -0.2220 -0.5107
29532SOL    HW293727   9.661   8.942   7.570  0.1464 -0.8844  0.0662
29533SOL     OW93728   9.829   0.722   1.558  0.2668  0.1380 -0.5570
29533SOL    HW193729   9.896   0.789   1.545 -0.5148  1.0011 -0.1235
29533SOL    HW293730   9.820   0.715   1.653 -1.3905  1.1532 -0.6365
29534SOL     OW93731   3.708   8.741   0.411 -0.1513 -0.2659 -0.5471
29534SOL    HW193732   3.803   8.747   0.426 -0.0778 -0.4421 -0.9165
29534SOL    HW293733   3.681   8.665   0.462  0.1672 -1.1171 -1.6220
29535SOL     OW93734  10.463   8.731   9.665 -0.0019 -0.9756 -0.1645
29535SOL    HW193735  10.476   8.744   9.571 -0.5965  5.8629  0.4584
29535SOL    HW293736  10.548   8.752   9.704 -0.9203  0.5827  1.0656
29536SOL     OW93737   0.900   4.040   7.500  0.0912 -0.0842  0.1103
29536SOL    HW193738   0.899   4.028   7.405 -0.3868  0.2807  0.0671
29536SOL    HW293739   0.987   4.010   7.527 -0.2862 -1.5626 -0.2667
29537SOL     OW93740   7.566   2.097   1.352 -0.0996 -0.0897  0.3416
29537SOL    HW193741   7.595   2.056   1.434  0.4915  0.1198  0.2416
29537SOL    HW293742   7.551   2.189   1.375  0.1211 -0.0185  0.2022
29538SOL     OW93743   1.430   0.370   6.498  0.4694 -0.1842 -0.9481
29538SOL    HW193744   1.418   0.444   6.438  0.4585  1.0692  0.5716
29538SOL    HW293745   1.499   0.398   6.558 -1.9877  0.1334  1.9147
29539SOL     OW93746   4.423   3.506   5.147  0.0716  0.4511 -0.0653
29539SOL    HW193747   4.475   3.514   5.067  0.3699  1.1519  0.1918
29539SOL    HW293748   4.334   3.531   5.120 -0.1119 -0.6504 -0.4807
29540SOL     OW93749   2.103   2.338   1.308 -0.2878 -0.0855 -0.2082
29540SOL    HW193750   2.088   2.286   1.387 -0.9355  0.5471  0.0941
29540SOL    HW293751   2.033   2.311   1.248 -2.9014  2.9824  1.2599
29541SOL     OW93752   9.343   1.173  10.695 -0.4712  0.0858  0.0047
29541SOL    HW193753   9.341   1.252  10.749 -0.4756  0.1000 -0.0164
29541SOL    HW293754   9.409   1.118  10.736 -1.3773 -0.4444  0.7777
29542SOL     OW93755   2.704   9.553  10.302  0.0364  0.3674  0.1306
29542SOL    HW193756   2.651   9.531  10.226 -1.2046  2.2688  0.4096
29542SOL    HW293757   2.782   9.498  10.293 -1.0254 -0.9602 -1.3821
29543SOL     OW93758   9.835  10.646   0.444 -0.5489 -0.4562 -0.3618
29543SOL    HW193759   9.856  10.618   0.355 -0.9969 -3.1050  0.3211
29543SOL    HW293760   9.823  10.564   0.492 -0.9491  0.9513  1.9824
29544SOL     OW93761   4.674  10.602   4.250  0.3576  0.0068 -0.0642
29544SOL    HW193762   4.712  10.576   4.334 -1.8919 -0.7725  0.7488
29544SOL    HW293763   4.656  10.519   4.206  0.9698  0.4000 -1.0724
29545SOL     OW93764   8.742   6.899   6.798  0.1063  0.2704  0.1656
29545SOL    HW193765   8.652   6.866   6.799  0.3372 -0.4439 -0.9660
29545SOL    HW293766   8.758   6.922   6.707  1.0353  0.4771  0.3754
29546SOL     OW93767   0.611   5.342   4.730  0.2758 -0.0951 -0.1146
29546SOL    HW193768   0.545   5.374   4.668  1.4390  2.1118 -0.2509
29546SOL    HW293769   0.594   5.392   4.810 -0.1925 -1.7790  0.8575
29547SOL     OW93770   0.304   9.895   2.031 -0.2705 -0.0517 -0.1368
29547SOL    HW193771   0.374   9.928   2.088 -0.2687 -1.1404  0.5017
29547SOL    HW293772   0.271   9.973   1.986  2.7190  0.2221 -2.0053
29548SOL     OW93773   4.845   7.168   5.209  0.2623  0.2663 -0.7413
29548SOL    HW193774   4.811   7.174   5.298  0.8553 -0.3083 -0.4793
29548SOL    HW293775   4.768   7.184   5.153 -0.4355 -0.9805 -0.1554
29549SOL     OW93776  10.384   0.706   2.877 -0.0390  0.0786  0.3036
29549SOL    HW193777  10.330   0.722   2.799  0.4885 -1.1945 -0.3383
29549SOL    HW293778  10.375   0.785   2.929 -0.4704  0.9104 -1.0176
29550SOL     OW93779   6.354   1.444   0.092 -0.3806  0.1721  0.0235
29550SOL    HW193780   6.433   1.477   0.133 -0.3343  0.3265 -0.1858
29550SOL    HW293781   6.309   1.395   0.161 -0.8910  1.4098  0.5887
29551SOL     OW93782   2.581   2.032   7.444  0.0518 -0.3066  0.5005
29551SOL    HW193783   2.606   2.123   7.426  1.5942 -0.7565  0.2978
29551SOL    HW293784   2.538   2.036   7.529  0.5114  0.5486  0.7061
29552SOL     OW93785   6.241   2.143  11.265 -0.3890 -0.4525  0.5735
29552SOL    HW193786   6.168   2.202  11.247 -0.3059 -0.2565  0.8641
29552SOL    HW293787   6.317   2.201  11.269 -0.5560 -0.3204  2.6393
29553SOL     OW93788   5.570   3.697   7.120 -0.1326 -0.3301 -0.2990
29553SOL    HW193789   5.606   3.651   7.045 -1.5765  1.4093 -2.1469
29553SOL    HW293790   5.553   3.786   7.087 -0.7592  0.4680  2.0908
29554SOL     OW93791   2.339   8.878   7.916  0.7335  0.0141 -0.3983
29554SOL    HW193792   2.321   8.971   7.903  0.6537  0.4368  2.2705
29554SOL    HW293793   2.291   8.834   7.847  1.3901  1.9912 -2.1664
29555SOL     OW93794   3.838   3.724   3.647  0.4567  0.1911 -0.5914
29555SOL    HW193795   3.769   3.758   3.705  2.1062  3.0849 -0.2618
29555SOL    HW293796   3.790   3.694   3.569 -1.3620  0.2086  0.4771
29556SOL     OW93797   8.647   8.207   7.244  0.0590 -0.2663 -0.2428
29556SOL    HW193798   8.705   8.284   7.239  0.6655 -0.7812 -1.3279
29556SOL    HW293799   8.625   8.188   7.153 -0.4113 -1.1486  0.0530
29557SOL     OW93800  11.164   6.712   6.293 -0.2600 -0.1978  0.2681
29557SOL    HW193801  11.226   6.716   6.221  0.1668  2.3710  0.7291
29557SOL    HW293802  11.100   6.781   6.273 -1.5932 -1.1902  1.0365
29558SOL     OW93803   5.602   6.007   4.539 -0.4719  0.9888 -0.8058
29558SOL    HW193804   5.648   5.940   4.590 -1.8548  1.1202  0.6251
29558SOL    HW293805   5.617   5.982   4.448  0.5150 -0.2635 -0.3073
29559SOL     OW93806   2.145   0.627   2.589 -0.0464  0.4010 -0.1903
29559SOL    HW193807   2.099   0.640   2.672 -0.6227  0.0267 -0.4551
29559SOL    HW293808   2.076   0.611   2.525  0.4944 -0.9134 -0.4491
29560SOL     OW93809   8.948   6.019   0.970 -0.1388 -0.0841 -0.6310
29560SOL    HW193810   8.998   6.100   0.974  2.6800 -1.7944 -0.0499
29560SOL    HW293811   8.910   6.009   1.057 -1.9575  1.4755 -1.2212
29561SOL     OW93812   0.054   5.970   0.244  0.0550  0.0418 -0.4191
29561SOL    HW193813   0.028   6.014   0.325  0.9183  0.7448 -0.5152
29561SOL    HW293814   0.145   5.946   0.258  0.1822  0.0825 -1.1450
29562SOL     OW93815   4.183   7.319   2.756  0.0844 -0.6018  0.2207
29562SOL    HW193816   4.184   7.406   2.795  0.6766 -0.9174  0.9104
29562SOL    HW293817   4.090   7.294   2.757 -0.0565 -0.0894  0.2590
29563SOL     OW93818   7.648   8.376   3.072 -0.0919  0.1384  0.4578
29563SOL    HW193819   7.742   8.369   3.051 -0.5165  0.2667 -1.5027
29563SOL    HW293820   7.623   8.287   3.097  0.1112 -0.3304 -0.9542
29564SOL     OW93821  10.376   0.460   0.801  0.2222  0.4533 -0.4644
29564SOL    HW193822  10.436   0.514   0.852 -1.9685  1.9977  0.5583
29564SOL    HW293823  10.300   0.517   0.785 -0.8783 -1.3608 -1.9126
29565SOL     OW93824   2.783   5.187   0.279 -0.1373 -0.2645 -0.1434
29565SOL    HW193825   2.851   5.199   0.214  0.5818 -1.6728  0.3254
29565SOL    HW293826   2.719   5.255   0.260  1.0600  0.6292 -1.0193
29566SOL     OW93827   2.986   7.233   5.434  0.1654 -0.0119  0.0919
29566SOL    HW193828   2.917   7.258   5.496 -0.0797 -2.3031  0.7969
29566SOL    HW293829   2.957   7.268   5.350 -0.6915  1.0641  0.8204
29567SOL     OW93830   7.297   0.969  10.183 -0.4971  0.0125 -0.6369
29567SOL    HW193831   7.317   0.922  10.102 -1.5250 -2.8482  0.6666
29567SOL    HW293832   7.355   0.929  10.248 -0.6505  1.3149  0.3081
29568SOL     OW93833   6.655   3.706   4.949  0.5006  0.1096 -0.4184
29568SOL    HW193834   6.663   3.782   5.005 -0.7662 -0.1207  0.0867
29568SOL    HW293835   6.572   3.718   4.903  0.1843 -1.0702 -0.1735
29569SOL     OW93836   1.403  11.091   7.409 -0.3963 -0.2120 -0.4313
29569SOL    HW193837   1.465  11.027   7.445  0.5747  1.0672  0.2284
29569SOL    HW293838   1.454  11.138   7.343 -0.9291  0.2360 -0.5204
29570SOL     OW93839   1.043   9.869   1.207  0.0150  0.1102  0.3431
29570SOL    HW193840   1.107   9.862   1.135  0.6568  0.9454  0.8238
29570SOL    HW293841   0.958   9.867   1.163  0.4012  0.6861 -0.4536
29571SOL     OW93842   9.170   0.305   1.427  0.0607 -0.3936  0.4252
29571SOL    HW193843   9.222   0.346   1.359  1.0276 -1.8482  0.2498
29571SOL    HW293844   9.081   0.338   1.414  0.7870  1.4922  0.2183
29572SOL     OW93845   8.994   1.928   8.471 -0.7068 -0.5547 -0.0627
29572SOL    HW193846   9.036   1.851   8.431  2.4254  0.9675  0.1467
29572SOL    HW293847   9.021   2.001   8.416 -1.6736  0.7399  1.1537
29573SOL     OW93848   4.451  10.402   9.901 -0.4697 -0.3124 -0.1576
29573SOL    HW193849   4.388  10.330   9.890 -1.1765  0.3466 -0.4799
29573SOL    HW293850   4.514  10.369   9.966  0.7735 -2.2720 -2.2667
29574SOL     OW93851   2.095   0.717   4.844 -0.0104 -0.0865 -0.1328
29574SOL    HW193852   2.164   0.651   4.856  0.2312  0.2949  0.5721
29574SOL    HW293853   2.131   0.796   4.883 -0.3177  0.4592 -0.9601
29575SOL     OW93854   7.985  10.749   6.703 -0.1026  0.1041 -0.2814
29575SOL    HW193855   8.023  10.752   6.790 -0.2475 -0.5770 -0.1893
29575SOL    HW293856   7.953  10.837   6.687  0.6729  0.4437  0.0191
29576SOL     OW93857   7.710   6.465   8.269  0.2963 -0.4724 -0.5028
29576SOL    HW193858   7.803   6.463   8.247  0.0126 -1.9079 -1.6290
29576SOL    HW293859   7.669   6.402   8.210 -1.4015  0.1273 -0.0127
29577SOL     OW93860   5.260   1.473   3.203  0.2669 -0.1144  0.1336
29577SOL    HW193861   5.353   1.489   3.190  0.2547 -0.4898 -0.4343
29577SOL    HW293862   5.234   1.537   3.269  1.1301 -0.6413  0.9930
29578SOL     OW93863   9.382   8.553   9.302  0.4007  0.3746  0.2068
29578SOL    HW193864   9.469   8.554   9.261  1.3182 -2.6736  1.9313
29578SOL    HW293865   9.389   8.614   9.375  0.8165  0.7492 -0.1395
29579SOL     OW93866   9.598  10.065   4.774  0.0472  0.0110 -0.1493
29579SOL    HW193867   9.539  10.086   4.847 -0.1469 -1.9427  0.3015
29579SOL    HW293868   9.671  10.018   4.815 -0.6004 -2.1024 -1.3096
29580SOL     OW93869   8.673   1.444   6.301 -0.4926  0.1987 -0.3989
29580SOL    HW193870   8.694   1.394   6.381 -0.0097  1.0215 -0.0056
29580SOL    HW293871   8.744   1.423   6.241 -1.0075 -0.6481 -0.7213
29581SOL     OW93872   4.103   8.266   2.912  0.1710  0.9021  0.1531
29581SOL    HW193873   4.046   8.321   2.859 -2.6205 -0.8319  1.2279
29581SOL    HW293874   4.124   8.191   2.856  0.5685  1.0652  0.0878
29582SOL     OW93875   4.664  10.891   9.083 -0.0773 -0.3224 -0.4235
29582SOL    HW193876   4.597  10.872   9.017  0.4286 -0.8452 -0.7977
29582SOL    HW293877   4.739  10.837   9.056 -0.1797 -1.2446  1.1138
29583SOL     OW93878   3.750   9.058   9.100 -0.1757 -0.2829 -0.2692
29583SOL    HW193879   3.797   9.080   9.181 -0.6756 -1.2639  0.2921
29583SOL    HW293880   3.820   9.047   9.035  0.1464  2.0256 -0.3646
29584SOL     OW93881   2.276   6.120   1.140  0.0417 -0.4881 -1.1687
29584SOL    HW193882   2.339   6.179   1.100  1.1303 -1.3981 -0.8274
29584SOL    HW293883   2.291   6.128   1.235  2.2260 -3.4141 -1.1786
29585SOL     OW93884   9.120   0.462   6.926  0.6334  0.2303 -0.0297
29585SOL    HW193885   9.105   0.402   6.999  1.2202  0.2557  0.1200
29585SOL    HW293886   9.154   0.407   6.856  0.1493  0.2193 -0.2558
29586SOL     OW93887   3.802   6.589   4.339 -0.9557  0.3501  0.1070
29586SOL    HW193888   3.723   6.623   4.298 -0.8963  0.7859  0.3491
29586SOL    HW293889   3.869   6.596   4.272 -0.8884  0.9426  0.2334
29587SOL     OW93890   7.856   7.619   5.977  0.4286  1.2506 -0.1354
29587SOL    HW193891   7.793   7.690   5.993 -0.4721  0.4691 -0.1157
29587SOL    HW293892   7.819   7.544   6.023  0.7368  0.4482 -1.1662
29588SOL     OW93893   9.156   7.497   4.352  0.1850 -0.2393 -0.1702
29588SOL    HW193894   9.065   7.513   4.329 -0.2234  1.0630  2.2673
29588SOL    HW293895   9.164   7.402   4.357 -1.2510 -0.3179  0.5404
29589SOL     OW93896   1.606   9.023   4.205  0.4306  0.0412 -0.0221
29589SOL    HW193897   1.551   9.044   4.129  0.3580 -0.2005 -0.0382
29589SOL    HW293898   1.691   9.062   4.184  1.2097 -2.3182 -1.4616
29590SOL     OW93899   7.625  10.750   7.447  0.1333 -0.6311  0.0739
29590SOL    HW193900   7.616  10.668   7.398  0.0009 -1.0263  0.7649
29590SOL    HW293901   7.695  10.733   7.509  0.5494 -0.0044 -0.2199
29591SOL     OW93902   7.102   9.985   4.435 -0.4232 -0.1106 -0.2347
29591SOL    HW193903   7.067   9.933   4.507  0.7935 -0.7150 -0.0782
29591SOL    HW293904   7.161  10.048   4.476  0.6775 -0.7975 -0.7429
29592SOL     OW93905   0.256  10.340   5.231 -0.0815 -0.3021  0.5155
29592SOL    HW193906   0.274  10.315   5.322 -0.2097  2.1866  1.2606
29592SOL    HW293907   0.327  10.400   5.209  1.8082 -3.4052 -2.1643
29593SOL     OW93908   6.174   7.555   8.553 -0.3782  0.0432 -0.5146
29593SOL    HW193909   6.138   7.555   8.642  0.0721 -0.0862 -0.3304
29593SOL    HW293910   6.263   7.520   8.563  0.6422  2.5382 -0.6335
29594SOL     OW93911   2.771   2.184   6.337  0.0522 -0.3193 -0.2828
29594SOL    HW193912   2.685   2.180   6.378 -0.1576 -0.8234 -0.7666
29594SOL    HW293913   2.795   2.277   6.341  0.4676 -0.5074  1.8406
29595SOL     OW93914   9.455   9.149   2.607  0.2849 -0.2063  0.1745
29595SOL    HW193915   9.407   9.225   2.642  1.4925  0.3715  0.6001
29595SOL    HW293916   9.438   9.079   2.670  1.1953  0.4072  1.1260
29596SOL     OW93917   5.831   3.515   1.833  0.8548 -0.1591 -0.2937
29596SOL    HW193918   5.908   3.493   1.886 -0.4551  1.0439  2.2329
29596SOL    HW293919   5.786   3.432   1.821  1.2923 -0.4972  0.3274
29597SOL     OW93920  10.690   2.060   2.800  0.5500 -0.3241  0.3145
29597SOL    HW193921  10.713   2.010   2.721  1.1715  1.6078 -0.7478
29597SOL    HW293922  10.594   2.058   2.802  0.5344 -0.5450 -0.3798
29598SOL     OW93923   3.023   4.037   4.496 -0.6938  0.1523  1.0054
29598SOL    HW193924   3.045   4.106   4.433  2.2366 -1.5375  0.1097
29598SOL    HW293925   2.945   4.070   4.540 -0.9400  2.8334 -1.2642
29599SOL     OW93926  11.332   1.802   0.059  0.3385  1.0536 -0.4585
29599SOL    HW193927  11.329   1.707   0.055 -0.1901  1.0963 -1.4014
29599SOL    HW293928  11.419   1.822   0.095  0.5758  0.2229 -0.5565
29600SOL     OW93929   3.450   1.401   9.926  0.2401 -0.0584  0.1526
29600SOL    HW193930   3.409   1.485   9.907 -0.1544  0.0772  1.5888
29600SOL    HW293931   3.392   1.360   9.990  1.4241 -0.6248  0.8649
29601SOL     OW93932   7.962   2.672  11.181  0.4229 -0.1540  0.3318
29601SOL    HW193933   7.962   2.725  11.261 -0.0087  1.5620 -0.7808
29601SOL    HW293934   7.894   2.711  11.126  3.4757  1.2977 -2.5591
29602SOL     OW93935   7.567   2.601   3.156  0.3447  0.3868  0.0457
29602SOL    HW193936   7.559   2.507   3.172  1.1800  0.1395 -0.9189
29602SOL    HW293937   7.559   2.609   3.061  2.4551  1.0632 -0.0855
29603SOL     OW93938   7.336   0.375   5.406  0.1580  0.0247  0.0423
29603SOL    HW193939   7.417   0.330   5.384 -0.2151 -0.1806 -0.9230
29603SOL    HW293940   7.319   0.433   5.332  0.5269  1.6208  1.1845
29604SOL     OW93941   2.817   5.020   6.172 -0.5763 -0.2349  0.4622
29604SOL    HW193942   2.788   5.044   6.084 -0.8146 -0.1647  0.5578
29604SOL    HW293943   2.912   5.017   6.166 -0.5922 -0.2544  0.1955
29605SOL     OW93944   1.007   3.865   4.595 -0.2934  0.3535  0.3195
29605SOL    HW193945   1.017   3.808   4.672  0.4484  1.8080  1.3241
29605SOL    HW293946   0.925   3.836   4.555  0.6233 -2.1759  0.1532
29606SOL     OW93947  10.543   9.699   9.084  0.2743  0.3166  0.4847
29606SOL    HW193948  10.511   9.776   9.037  0.0262  1.2652  2.1430
29606SOL    HW293949  10.636   9.714   9.095  0.1775  0.5267  1.0509
29607SOL     OW93950   6.482   0.575   5.986  0.0823  0.4386  0.4651
29607SOL    HW193951   6.497   0.545   5.896 -0.9428 -2.2467  1.1451
29607SOL    HW293952   6.547   0.644   5.999  2.7706 -1.6949 -1.0756
29608SOL     OW93953   8.237   1.527   7.352  0.1996  0.1289 -0.5474
29608SOL    HW193954   8.290   1.496   7.279 -0.2267 -2.0396  0.0411
29608SOL    HW293955   8.151   1.488   7.337  0.2302 -0.7071  1.3464
29609SOL     OW93956  11.290   8.208   1.078  0.2826 -0.3153 -0.5258
29609SOL    HW193957  11.293   8.278   1.013 -3.1555 -0.4680 -0.9416
29609SOL    HW293958  11.293   8.127   1.026 -2.1207 -0.4343 -0.5588
29610SOL     OW93959  10.440   2.957   9.399  0.6048  0.3549  0.2678
29610SOL    HW193960  10.470   2.866   9.398  0.4657  0.3182 -0.9382
29610SOL    HW293961  10.381   2.962   9.474 -0.2947 -0.8563 -0.3354
29611SOL     OW93962  10.295   1.089   7.957 -0.1228  1.1022 -0.1892
29611SOL    HW193963  10.247   1.007   7.951 -1.0344  1.6367 -0.2212
29611SOL    HW293964  10.246   1.150   7.902 -0.8626  2.3535  1.8386
29612SOL     OW93965   8.754  10.049   3.271  0.0768 -0.2461  0.2385
29612SOL    HW193966   8.842  10.061   3.307 -0.3971 -1.1803  1.7380
29612SOL    HW293967   8.702  10.119   3.311 -0.2031 -0.6132  0.5133
29613SOL     OW93968   0.110   0.590   9.178  0.0315  0.1386 -0.0821
29613SOL    HW193969   0.192   0.606   9.225 -0.1702  0.2085  0.2430
29613SOL    HW293970   0.114   0.497   9.154  0.0980  0.0834  0.1417
29614SOL     OW93971   9.956   0.336  10.767  0.0113 -0.4226  0.4740
29614SOL    HW193972   9.968   0.313  10.675  2.8744 -0.4507  0.8128
29614SOL    HW293973   9.994   0.263  10.816  0.4995  0.5847  1.6337
29615SOL     OW93974   6.979   2.546   3.677 -0.0003 -0.2713  0.5406
29615SOL    HW193975   7.033   2.565   3.601 -0.4877 -0.4108  0.1557
29615SOL    HW293976   7.013   2.604   3.746 -0.4678  0.8743 -0.1900
29616SOL     OW93977   4.615   5.660   3.066 -0.5124  0.3498 -0.0558
29616SOL    HW193978   4.613   5.592   3.133 -3.5189 -0.7298 -1.1444
29616SOL    HW293979   4.668   5.730   3.104  1.4623 -1.9795  1.6567
29617SOL     OW93980   0.620  10.756   8.493 -0.3035  0.6752 -0.5078
29617SOL    HW193981   0.583  10.719   8.413 -2.7468  0.8759  0.4639
29617SOL    HW293982   0.566  10.832   8.511 -0.0624  0.3930  1.5512
29618SOL     OW93983   5.096   7.811   9.696 -0.6215  0.4158 -0.3485
29618SOL    HW193984   5.041   7.741   9.661 -0.6914  0.1702  0.2422
29618SOL    HW293985   5.165   7.824   9.631 -2.0370  1.5284 -1.6702
29619SOL     OW93986   0.833   7.760   4.370 -0.3436  0.4155 -0.3625
29619SOL    HW193987   0.786   7.838   4.401  0.7028  1.3426 -1.1033
29619SOL    HW293988   0.923   7.790   4.356  0.2635 -1.1401  0.1827
29620SOL     OW93989   5.436   2.830   0.260  0.5816 -0.6457 -0.4520
29620SOL    HW193990   5.482   2.749   0.239  0.5124 -0.3043 -1.9301
29620SOL    HW293991   5.484   2.867   0.334  1.6102 -1.1801 -0.8551
29621SOL     OW93992   8.314   6.910   4.619 -0.0540  0.2267  0.8152
29621SOL    HW193993   8.262   6.989   4.633  0.4406  0.5105  1.0804
29621SOL    HW293994   8.392   6.941   4.571 -1.3355 -0.6033 -1.8976
29622SOL     OW93995   5.471   0.070   2.090 -0.1149 -0.3772 -0.2483
29622SOL    HW193996   5.491   0.147   2.037  2.1705  0.4859  1.7945
29622SOL    HW293997   5.525   0.001   2.053  0.4527 -0.1260  0.1203
29623SOL     OW93998   0.173   8.938   5.123  0.1486 -0.1614  0.2075
29623SOL    HW193999   0.165   8.855   5.077 -0.2231 -0.3916  0.6779
29623SOL    HW294000   0.268   8.952   5.132  0.2278  0.1809 -1.1310
29624SOL     OW94001   9.473  10.219   6.011 -0.0360  0.0329 -0.1104
29624SOL    HW194002   9.509  10.137   6.047  0.7359  0.4725  0.1336
29624SOL    HW294003   9.394  10.192   5.965 -0.0475 -0.7909  0.3810
29625SOL     OW94004   8.384   2.045  11.109  0.3073 -0.7104  0.1282
29625SOL    HW194005   8.301   2.073  11.070  0.1034 -0.6858  0.5811
29625SOL    HW294006   8.358   1.981  11.175  0.7693 -2.0647 -0.9787
29626SOL     OW94007   0.973   6.731   1.920 -0.4146 -0.5655  0.0379
29626SOL    HW194008   1.026   6.795   1.967  0.7755 -0.5475 -1.3129
29626SOL    HW294009   0.940   6.673   1.988 -0.4702  0.7326  1.1326
29627SOL     OW94010   6.704   2.890   7.605  0.0219 -0.1208  0.0743
29627SOL    HW194011   6.699   2.936   7.521 -1.5706  0.5677  0.5363
29627SOL    HW294012   6.765   2.943   7.657  0.2794 -0.0342 -0.3099
29628SOL     OW94013   6.572   0.677   4.948 -0.0582  0.3011 -0.0575
29628SOL    HW194014   6.485   0.712   4.971 -0.7585 -0.5022 -1.4297
29628SOL    HW294015   6.633   0.746   4.974 -1.4094  2.5998 -2.7345
29629SOL     OW94016   2.555   3.545   5.469  0.3044  0.2825  0.4469
29629SOL    HW194017   2.520   3.520   5.555  1.6451  0.1379  0.9597
29629SOL    HW294018   2.649   3.528   5.476  0.3764 -0.0363 -1.1610
29630SOL     OW94019   8.194   4.344   3.863 -0.3651  0.5848 -0.7408
29630SOL    HW194020   8.130   4.409   3.833 -0.3297  0.2263 -1.5992
29630SOL    HW294021   8.278   4.376   3.830 -0.3486  0.0984 -1.1777
29631SOL     OW94022   6.696   9.261   9.204 -0.0210  0.6150 -0.1621
29631SOL    HW194023   6.631   9.284   9.137  0.1289  1.9949  0.1433
29631SOL    HW294024   6.681   9.168   9.221 -1.5454  0.7736 -0.5131
29632SOL     OW94025  10.745   6.400   4.691 -0.4739 -1.1708 -0.1606
29632SOL    HW194026  10.765   6.425   4.781 -0.2623 -1.7819 -0.0298
29632SOL    HW294027  10.811   6.443   4.638  0.8876 -2.7416  0.2183
29633SOL     OW94028   7.388  11.272   2.645 -0.3155  0.2558 -0.7069
29633SOL    HW194029   7.367  11.232   2.730  1.2396 -2.0654 -1.3699
29633SOL    HW294030   7.317  11.243   2.588  0.5226 -1.1315 -1.0539
29634SOL     OW94031   5.916   9.702   1.859 -0.0098  0.2208 -0.0902
29634SOL    HW194032   5.964   9.657   1.790 -1.5837 -2.6139  0.6033
29634SOL    HW294033   5.838   9.648   1.873 -0.0779  1.1410  3.3931
29635SOL     OW94034   9.686   8.516   5.735 -0.5761 -0.3118 -0.2601
29635SOL    HW194035   9.593   8.523   5.754 -0.6009  0.8590 -0.8222
29635SOL    HW294036   9.725   8.594   5.775  0.1319 -0.6742 -0.2343
29636SOL     OW94037   7.717   2.988   3.291  0.2709  0.0622 -0.0353
29636SOL    HW194038   7.725   2.897   3.320  1.3041  0.5953  1.4295
29636SOL    HW294039   7.716   3.039   3.372 -1.3136  1.2990 -0.8043
29637SOL     OW94040   1.828   4.150   5.149  0.1159  0.3332 -0.8258
29637SOL    HW194041   1.798   4.136   5.238  0.6995  0.9010 -0.5398
29637SOL    HW294042   1.751   4.183   5.103  0.1170  1.1356 -0.2578
29638SOL     OW94043   4.677   5.425   6.428 -0.0322 -0.0999  0.3219
29638SOL    HW194044   4.771   5.428   6.444 -0.1897  0.8923  1.0911
29638SOL    HW294045   4.638   5.419   6.515 -0.6884 -0.2810  0.0163
29639SOL     OW94046   0.116   8.300   0.561 -0.3164  0.0186  0.5813
29639SOL    HW194047   0.142   8.361   0.630 -0.0365  0.6559 -0.0813
29639SOL    HW294048   0.193   8.293   0.506 -0.0673 -1.6041  1.1228
29640SOL     OW94049   7.958   1.090   0.481 -0.4932 -0.0751  0.3888
29640SOL    HW194050   8.032   1.048   0.524  1.6725  1.7242 -1.4291
29640SOL    HW294051   7.994   1.170   0.444 -3.1104  0.3038 -1.5198
29641SOL     OW94052   4.911   1.915   3.448  0.2936  0.2954  0.1250
29641SOL    HW194053   4.996   1.884   3.415  0.0502 -0.3006  0.0512
29641SOL    HW294054   4.923   1.921   3.542  0.4594  0.3404  0.1020
29642SOL     OW94055   9.822   6.792   0.921 -0.2321 -0.0303  0.2169
29642SOL    HW194056   9.859   6.754   0.841 -0.6570 -1.0130  0.4776
29642SOL    HW294057   9.755   6.852   0.891  0.9401  1.0804 -0.2337
29643SOL     OW94058   4.194   3.391   2.737  0.2121 -1.2359 -0.1761
29643SOL    HW194059   4.255   3.385   2.811  0.5899 -1.3109 -0.4936
29643SOL    HW294060   4.109   3.367   2.775  0.2590 -0.4934  0.4098
29644SOL     OW94061   2.948   1.545   1.518  0.5813  0.3091 -0.2749
29644SOL    HW194062   2.962   1.566   1.426 -0.2397 -0.1098 -0.5038
29644SOL    HW294063   2.896   1.464   1.516  1.4116 -0.2574  0.5605
29645SOL     OW94064   4.247   7.552   2.509  0.2195 -0.3075  0.0236
29645SOL    HW194065   4.335   7.532   2.541  0.3514  1.4811  0.8976
29645SOL    HW294066   4.220   7.474   2.460  1.9378 -1.2156  0.4801
29646SOL     OW94067   1.985   8.180   4.289 -0.4844 -0.1579 -0.0770
29646SOL    HW194068   2.013   8.206   4.376  1.9999  0.3710 -0.9965
29646SOL    HW294069   1.989   8.084   4.290  0.7204 -0.1173  0.0473
29647SOL     OW94070   1.528   9.093   3.455  0.1387  0.1573 -0.5069
29647SOL    HW194071   1.439   9.089   3.492  0.7735  0.0178  1.0502
29647SOL    HW294072   1.515   9.120   3.364 -1.5844 -1.0305 -0.6327
29648SOL     OW94073   1.714   3.588   1.478  0.5022  0.0299 -0.3861
29648SOL    HW194074   1.798   3.570   1.436  0.4754  1.0975 -0.9079
29648SOL    HW294075   1.680   3.665   1.432 -0.8107 -0.4554 -0.2572
29649SOL     OW94076   6.549   6.977   5.603 -0.0944  0.3516  0.0751
29649SOL    HW194077   6.458   6.948   5.609  0.1611 -0.3986  0.3344
29649SOL    HW294078   6.582   6.938   5.522 -0.1490  1.0411 -0.2831
29650SOL     OW94079   2.305   3.196   8.562  0.7738 -0.3989 -0.3822
29650SOL    HW194080   2.300   3.165   8.472  0.6202 -0.1963 -0.4436
29650SOL    HW294081   2.245   3.271   8.565  1.3588  0.0737 -0.3101
29651SOL     OW94082  10.869   0.102   5.007  0.1805 -0.0571 -0.5753
29651SOL    HW194083  10.825   0.036   4.953 -1.1046 -0.6737  1.1623
29651SOL    HW294084  10.797   0.154   5.043  1.1060  1.3051 -0.6405
29652SOL     OW94085   9.137   1.212   6.070  0.4294  0.2075 -0.1722
29652SOL    HW194086   9.155   1.125   6.105  0.8740  0.6215  0.6556
29652SOL    HW294087   9.219   1.237   6.026 -0.0684 -0.2371 -1.3687
29653SOL     OW94088   1.454   5.159  10.343  0.2628 -1.1405 -0.5959
29653SOL    HW194089   1.361   5.140  10.334  0.4851 -1.5811 -2.0360
29653SOL    HW294090   1.463   5.249  10.311 -0.0795 -0.0892  2.0917
29654SOL     OW94091   2.056   3.996   7.601  0.1311 -0.2283  0.3935
29654SOL    HW194092   2.066   3.968   7.510  0.2228  0.6285  0.1303
29654SOL    HW294093   2.063   3.916   7.653 -0.7465 -0.8321 -0.4164
29655SOL     OW94094   4.996   8.372   9.486 -0.2327 -0.4771 -0.1335
29655SOL    HW194095   4.980   8.315   9.410 -0.4664 -0.0512 -0.4050
29655SOL    HW294096   4.911   8.409   9.506 -0.0910 -0.2672  0.0822
29656SOL     OW94097  10.695   9.596   7.349 -0.4969 -0.6017 -0.1061
29656SOL    HW194098  10.761   9.597   7.419  0.2575  0.3215 -0.8193
29656SOL    HW294099  10.611   9.589   7.396 -0.0332  0.4663  0.9240
29657SOL     OW94100   2.470   4.787   6.035 -0.0214  0.5996 -0.0809
29657SOL    HW194101   2.431   4.699   6.028 -1.9239  1.4135  0.0496
29657SOL    HW294102   2.412   4.834   6.095  0.5419  2.1979 -0.7662
29658SOL     OW94103   8.715   1.863   2.166 -0.1406  0.3765  0.2386
29658SOL    HW194104   8.651   1.801   2.132  0.6616 -0.6500  0.5431
29658SOL    HW294105   8.800   1.823   2.146  0.3884  1.3667  0.4619
29659SOL     OW94106   9.080   3.967   3.212 -0.2143  0.1713  0.2032
29659SOL    HW194107   9.142   4.038   3.195  0.4862 -0.3725  0.4591
29659SOL    HW294108   9.005   3.986   3.156  0.6107  0.2724 -0.8660
29660SOL     OW94109   4.161   9.008   1.572 -0.4407 -0.2650 -0.0574
29660SOL    HW194110   4.197   9.055   1.648  2.7193 -1.3756 -0.8072
29660SOL    HW294111   4.148   8.919   1.603 -5.6054  0.7610  1.0993
29661SOL     OW94112   6.654   9.900   1.936  0.1247 -0.4182  0.3760
29661SOL    HW194113   6.642   9.958   1.861 -2.6557 -0.9554  0.3235
29661SOL    HW294114   6.681   9.816   1.898 -1.7433 -0.8262 -0.1150
29662SOL     OW94115   1.438   5.397   9.931  0.1417 -0.0997  0.3303
29662SOL    HW194116   1.411   5.459   9.999 -3.2534 -0.7109 -0.3745
29662SOL    HW294117   1.429   5.311   9.971  1.9031 -0.3161  0.3148
29663SOL     OW94118   8.075   5.699   8.074  0.5418 -0.0835 -0.5291
29663SOL    HW194119   8.083   5.688   8.168  0.5250  0.4116 -0.4714
29663SOL    HW294120   8.098   5.613   8.038  0.4667 -0.2963 -0.0732
29664SOL     OW94121   5.148   0.833   1.370  0.1203  0.6173  0.3207
29664SOL    HW194122   5.097   0.913   1.357 -1.3301 -0.2451  0.5944
29664SOL    HW294123   5.180   0.840   1.460 -2.0000 -0.1898  1.1750
29665SOL     OW94124   2.719   1.903   4.105  0.0917 -0.1816 -0.0540
29665SOL    HW194125   2.635   1.930   4.066  1.0332  1.3479 -1.0667
29665SOL    HW294126   2.735   1.968   4.173 -1.1240 -2.3565  2.4042
29666SOL     OW94127  10.466   9.710  10.091 -0.5223  0.2347  0.7935
29666SOL    HW194128  10.395   9.774  10.097 -0.0233  0.7506  1.2258
29666SOL    HW294129  10.449   9.650  10.163 -1.1806 -0.3181  0.1877
29667SOL     OW94130   0.667  10.085   9.076  0.4230  0.0284 -0.4459
29667SOL    HW194131   0.626  10.090   8.990 -1.7440 -1.6281  0.4429
29667SOL    HW294132   0.659  10.173   9.112 -1.1426  0.0605 -0.8562
29668SOL     OW94133   8.123   2.367   2.668  0.0680 -0.4830 -0.1438
29668SOL    HW194134   8.070   2.433   2.622  1.8733 -0.9790 -3.0587
29668SOL    HW294135   8.209   2.407   2.675  0.5941 -1.6517  0.0870
29669SOL     OW94136   7.770   4.022   1.292  0.5547  0.6585 -0.4185
29669SOL    HW194137   7.721   3.943   1.314  1.1217  0.2445 -0.6401
29669SOL    HW294138   7.841   4.025   1.356  0.9371  0.6178 -0.8418
29670SOL     OW94139   5.407  10.799   9.571 -0.3030 -0.2368  0.2607
29670SOL    HW194140   5.425  10.813   9.664 -1.0156 -0.4279  0.4320
29670SOL    HW294141   5.417  10.704   9.559 -1.0794 -0.3370  0.3417
29671SOL     OW94142   3.268   8.480   8.171  0.5970 -0.3599 -0.1653
29671SOL    HW194143   3.281   8.385   8.172 -0.2652 -0.4921  2.3838
29671SOL    HW294144   3.177   8.491   8.142  0.1985 -0.4174  1.0186
29672SOL     OW94145   4.516   1.865   2.110 -0.5003 -0.4718 -0.1568
29672SOL    HW194146   4.596   1.910   2.083 -1.6384  1.2508 -0.7483
29672SOL    HW294147   4.470   1.846   2.028 -0.9325 -1.0006  0.2022
29673SOL     OW94148   8.499   5.088  11.205  0.0338 -0.3504  0.2988
29673SOL    HW194149   8.411   5.095  11.243 -0.7462 -0.0057 -1.5160
29673SOL    HW294150   8.501   4.999  11.168  0.5442 -0.4529  0.5764
29674SOL     OW94151   1.270   3.297   6.969 -0.2847 -0.1136 -0.3833
29674SOL    HW194152   1.303   3.384   6.990 -0.9218  0.0983 -0.2471
29674SOL    HW294153   1.290   3.244   7.046  0.3000 -0.1487 -0.5531
29675SOL     OW94154   6.059   9.645   1.322  0.2281  0.0789 -0.4310
29675SOL    HW194155   6.099   9.644   1.235  0.6154  0.2487 -0.2569
29675SOL    HW294156   6.127   9.682   1.379  0.2365 -0.6912  0.0645
29676SOL     OW94157  10.105   9.924   1.337  0.3564 -0.2030  0.3616
29676SOL    HW194158  10.098   9.864   1.262 -0.3069  1.8882 -1.3126
29676SOL    HW294159  10.044   9.888   1.402 -1.3041 -0.4221 -1.2654
29677SOL     OW94160   6.862   3.905   0.578  0.5905 -0.1527 -0.0229
29677SOL    HW194161   6.882   3.897   0.671  1.8120 -0.7869 -0.3156
29677SOL    HW294162   6.783   3.853   0.565  0.9176 -0.7861  0.5077
29678SOL     OW94163  11.070  10.240   2.548  0.1761  0.0896 -0.2945
29678SOL    HW194164  11.128  10.216   2.477 -0.8479 -1.4776 -0.6143
29678SOL    HW294165  11.128  10.252   2.623  1.2475  1.6415 -1.3308
29679SOL     OW94166   6.866   5.080   3.204 -0.2563 -0.0358  0.4672
29679SOL    HW194167   6.799   5.088   3.136  0.6539 -1.2435 -0.5870
29679SOL    HW294168   6.838   5.006   3.257 -1.1007  1.0600  1.6088
29680SOL     OW94169   1.750   4.940  10.350  0.1539 -0.1859 -0.3873
29680SOL    HW194170   1.660   4.927  10.380 -0.1150  2.2185 -0.0801
29680SOL    HW294171   1.765   4.868  10.288 -2.4183  0.1506 -1.4561
29681SOL     OW94172   0.407   3.227   1.794  0.4776  0.1821 -0.2534
29681SOL    HW194173   0.484   3.187   1.753  0.3308  0.1444 -0.4918
29681SOL    HW294174   0.395   3.309   1.747 -0.6214 -0.5796 -1.3300
29682SOL     OW94175  10.043   2.767   8.997  0.0094  0.2020 -0.1171
29682SOL    HW194176  10.070   2.680   9.024  0.2090  0.0193 -0.8849
29682SOL    HW294177  10.001   2.753   8.912 -0.4341  0.7830  0.0054
29683SOL     OW94178   7.926  10.342   7.600 -0.7638 -0.6514 -0.5028
29683SOL    HW194179   7.982  10.312   7.671  1.2513  3.0051 -0.4799
29683SOL    HW294180   7.986  10.365   7.529 -2.4946 -0.4673 -1.9665
29684SOL     OW94181   6.678  10.381   0.605 -0.3513  0.5399 -0.0356
29684SOL    HW194182   6.603  10.355   0.658  0.4212  0.7388  1.1483
29684SOL    HW294183   6.717  10.298   0.576 -0.6977  0.4339 -0.1997
29685SOL     OW94184   9.900   9.431   9.495 -0.3851 -0.3281 -0.0889
29685SOL    HW194185   9.909   9.393   9.408  1.3306  2.3657 -1.1635
29685SOL    HW294186   9.986   9.421   9.535 -0.9385 -0.8254  0.9778
29686SOL     OW94187   8.611   4.494  11.036 -0.4971 -0.1284 -0.4377
29686SOL    HW194188   8.627   4.445  10.955 -0.0086 -0.8274  0.0840
29686SOL    HW294189   8.698   4.519  11.066 -0.7146  0.6873 -0.4630
29687SOL     OW94190   5.614   5.276  10.461  0.0576 -0.2912 -0.3034
29687SOL    HW194191   5.608   5.369  10.437  0.8905  0.1421  1.1136
29687SOL    HW294192   5.707   5.262  10.479 -0.2953 -1.0004  1.0358
29688SOL     OW94193   5.954   3.308   4.037 -0.5176 -0.4775 -0.2087
29688SOL    HW194194   5.909   3.391   4.017  0.0200 -0.1902 -0.2366
29688SOL    HW294195   6.047   3.327   4.020 -0.2961 -0.8355  0.5912
29689SOL     OW94196   8.979   5.646   0.996 -0.0603  0.5328 -0.3691
29689SOL    HW194197   8.922   5.667   1.070  0.8488  1.5774  0.0411
29689SOL    HW294198   9.064   5.628   1.035  0.2639  0.4452 -1.1031
29690SOL     OW94199   0.057   0.137   5.742 -0.0065  0.1227 -0.5066
29690SOL    HW194200  -0.003   0.170   5.675  0.6054  1.1797 -0.5408
29690SOL    HW294201   0.134   0.108   5.693 -0.0843 -0.3192 -0.3711
29691SOL     OW94202   1.937   5.676  10.487 -0.3047 -0.1890  0.1345
29691SOL    HW194203   1.982   5.687  10.403 -0.0426  1.3198  0.4595
29691SOL    HW294204   1.987   5.607  10.532  0.4729  0.0807 -0.3169
29692SOL     OW94205   9.038   8.604   2.117  0.7587 -0.4081 -0.3092
29692SOL    HW194206   9.081   8.585   2.034  1.1740  0.4231 -0.2883
29692SOL    HW294207   9.096   8.567   2.183  1.2867  0.4314 -0.2986
29693SOL     OW94208  10.206   3.682   8.555 -0.4703 -0.3166 -0.6911
29693SOL    HW194209  10.228   3.603   8.605 -0.8653 -0.7350 -1.1615
29693SOL    HW294210  10.126   3.659   8.509 -0.6694  0.4205 -0.7161
29694SOL     OW94211   4.893   0.194   1.790  0.2011 -0.0437 -0.1181
29694SOL    HW194212   4.986   0.217   1.802  0.7756 -1.1252 -2.1711
29694SOL    HW294213   4.886   0.105   1.825  0.0149 -0.0595 -0.1965
29695SOL     OW94214   8.331   9.019  10.316 -0.1528 -0.5157 -0.3092
29695SOL    HW194215   8.426   9.029  10.323 -0.1466  0.0065 -1.0698
29695SOL    HW294216   8.312   8.936  10.360  0.8618 -1.4680 -1.6320
29696SOL     OW94217  10.348   3.099   1.044  0.0749  0.0053  0.5451
29696SOL    HW194218  10.310   3.138   1.123 -3.2202  1.2500 -1.5523
29696SOL    HW294219  10.388   3.172   0.998  0.2836 -0.3798  0.1155
29697SOL     OW94220  10.452   8.556  10.620  0.5483  0.4038  0.1891
29697SOL    HW194221  10.403   8.603  10.552 -0.9458  0.9322  1.5793
29697SOL    HW294222  10.401   8.477  10.635  0.6290  0.5027  0.9863
29698SOL     OW94223  10.875   8.181   1.931  0.8749  0.0154  0.2079
29698SOL    HW194224  10.801   8.236   1.909  0.2583 -1.1229 -0.6354
29698SOL    HW294225  10.849   8.093   1.902  2.0842 -0.5972  0.9416
29699SOL     OW94226   0.965   3.350  10.617 -0.0121 -0.1810  0.0061
29699SOL    HW194227   0.897   3.354  10.685  0.1490 -0.8076  0.2027
29699SOL    HW294228   1.034   3.295  10.654 -0.5586 -1.7368 -1.2099
29700SOL     OW94229   0.434   5.400   3.021 -0.1162  0.0986 -0.1889
29700SOL    HW194230   0.417   5.308   2.999 -0.0484  0.3121 -1.1781
29700SOL    HW294231   0.498   5.428   2.955  1.5134  0.2511  1.4393
29701SOL     OW94232   3.006   1.981   0.272 -0.1780 -0.2100 -0.2307
29701SOL    HW194233   3.016   2.004   0.180 -2.4337 -0.1878 -0.4859
29701SOL    HW294234   2.931   1.921   0.275 -0.1972 -0.1471  1.5999
29702SOL     OW94235   5.636   5.171   9.104 -0.1105  0.6000 -0.2631
29702SOL    HW194236   5.596   5.133   9.182  0.9469  0.4476  0.2197
29702SOL    HW294237   5.613   5.264   9.107  1.2717  0.9199  1.1053
29703SOL     OW94238   7.427   6.688   8.091 -0.2950  0.6733  0.3240
29703SOL    HW194239   7.369   6.763   8.098 -0.3627  0.6349  0.1830
29703SOL    HW294240   7.370   6.612   8.108 -0.5265  0.5589 -0.8792
29704SOL     OW94241   1.109   6.855   9.593 -0.2123  0.1044  0.4869
29704SOL    HW194242   1.030   6.909   9.597  0.1106  0.4879  2.0735
29704SOL    HW294243   1.181   6.917   9.587  0.0889 -0.1726  1.1598
29705SOL     OW94244   9.266   8.967  10.037  0.0171 -0.2913  0.0902
29705SOL    HW194245   9.275   8.888   9.983  0.3560 -0.3353  0.2086
29705SOL    HW294246   9.221   8.936  10.116  1.0237 -0.5676  0.5661
29706SOL     OW94247   6.393   8.630   8.634  0.5307  0.0762  0.0960
29706SOL    HW194248   6.466   8.568   8.641 -0.5091 -1.3988 -1.4938
29706SOL    HW294249   6.326   8.595   8.693 -0.5144 -1.0351 -1.6914
29707SOL     OW94250   8.080   8.708   1.835 -0.4743  0.4547  0.1746
29707SOL    HW194251   8.058   8.773   1.902  2.2701  0.4883  1.0871
29707SOL    HW294252   8.144   8.752   1.779  1.5008 -1.4355  0.8606
29708SOL     OW94253   6.886   0.203   1.911  0.2760 -0.4829 -0.1129
29708SOL    HW194254   6.890   0.275   1.847  2.7660  0.0238  0.5731
29708SOL    HW294255   6.808   0.222   1.963 -1.3449 -0.4647 -2.4537
29709SOL     OW94256   0.560   2.902   7.753 -0.3469 -0.5430  0.3606
29709SOL    HW194257   0.511   2.873   7.830  0.6007 -0.3790  1.0362
29709SOL    HW294258   0.571   2.997   7.766  1.3178 -0.7871  0.9105
29710SOL     OW94259   6.963   0.821   6.000 -0.5463 -0.2282  0.7097
29710SOL    HW194260   7.021   0.778   6.061  0.4766 -0.9062 -0.7095
29710SOL    HW294261   7.008   0.902   5.976 -0.0783 -0.8412 -0.5302
29711SOL     OW94262   3.287   2.398   8.062  0.2355  0.2427  0.1286
29711SOL    HW194263   3.262   2.407   7.970 -2.2110 -0.5923  0.6635
29711SOL    HW294264   3.305   2.305   8.073  2.1056  0.5799  0.1556
29712SOL     OW94265   1.187  10.963   8.836  0.3773 -0.7439 -0.7691
29712SOL    HW194266   1.132  10.900   8.882  0.1346  0.1449  0.1884
29712SOL    HW294267   1.158  10.958   8.745 -1.1646 -0.4419 -0.3108
29713SOL     OW94268   7.526   0.445  10.624 -0.6391  0.4387 -0.4800
29713SOL    HW194269   7.576   0.364  10.617 -0.9609  0.0765  1.0887
29713SOL    HW294270   7.525   0.481  10.536  0.7821 -0.5062 -0.8925
29714SOL     OW94271   1.232   7.758   9.784 -0.0699 -0.1234 -0.0943
29714SOL    HW194272   1.189   7.798   9.709  0.6662  0.1250 -0.3858
29714SOL    HW294273   1.295   7.698   9.745  0.3526  0.0483  0.3296
29715SOL     OW94274   2.893   2.316  11.052  0.0373  0.0676  0.2334
29715SOL    HW194275   2.886   2.224  11.028  0.7069 -0.1256  0.7430
29715SOL    HW294276   2.857   2.321  11.140  2.2758 -0.1755  1.1953
29716SOL     OW94277   7.226  10.598   6.975  0.3080 -0.2231 -0.1363
29716SOL    HW194278   7.247  10.609   7.068  0.9188  0.3734 -0.3480
29716SOL    HW294279   7.233  10.504   6.960  1.7910 -0.1367  0.0298
29717SOL     OW94280   5.102   8.438   1.698 -0.4608  0.5343  0.4658
29717SOL    HW194281   5.077   8.518   1.744 -1.5988  0.4102  0.0648
29717SOL    HW294282   5.195   8.428   1.717  0.0107  2.6673 -0.5652
29718SOL     OW94283   0.299   1.837  10.220 -0.3146  0.1155  0.1538
29718SOL    HW194284   0.288   1.787  10.300 -1.2369  0.7468  0.4432
29718SOL    HW294285   0.315   1.771  10.152  1.4790 -0.3546  1.0026
29719SOL     OW94286   1.652   4.168   1.470 -0.6096 -0.7853 -0.0799
29719SOL    HW194287   1.582   4.200   1.528  1.6497 -0.7844  2.7500
29719SOL    HW294288   1.645   4.073   1.474  0.2064 -0.8033  1.0614
29720SOL     OW94289   7.421   6.684  10.822  0.2671  0.2527 -0.1939
29720SOL    HW194290   7.433   6.778  10.832  1.7603 -0.0475  0.9364
29720SOL    HW294291   7.503   6.653  10.785  1.8078 -1.2868  4.1787
29721SOL     OW94292   0.537   4.583   6.550 -0.1714  0.1705 -0.1808
29721SOL    HW194293   0.541   4.629   6.466  0.4872 -0.2282 -0.3719
29721SOL    HW294294   0.578   4.499   6.532  1.7460  0.8219  1.0252
29722SOL     OW94295   7.154   7.395   5.767 -0.3255  0.1173  0.0478
29722SOL    HW194296   7.202   7.457   5.713 -0.7402  1.3202  1.0292
29722SOL    HW294297   7.206   7.316   5.766  1.4817  1.2713  0.7731
29723SOL     OW94298   8.407  10.472   3.447 -0.5037 -0.2094  0.4712
29723SOL    HW194299   8.470  10.446   3.514  0.6306  1.9836  0.3076
29723SOL    HW294300   8.325  10.433   3.475 -0.0934  0.8208  3.2505
29724SOL     OW94301   4.217   0.426   6.897 -0.2947 -0.0731 -0.1104
29724SOL    HW194302   4.293   0.385   6.940  0.9194  0.3016 -1.8691
29724SOL    HW294303   4.218   0.517   6.929  0.8486  0.3151 -1.2321
29725SOL     OW94304   8.039   3.652   3.278  0.0436  0.2362  0.2419
29725SOL    HW194305   8.045   3.654   3.374  0.6890  0.5377  0.1962
29725SOL    HW294306   8.082   3.733   3.250 -0.5259  0.3608 -0.2853
29726SOL     OW94307   5.510   1.945   7.306  0.0206  0.6110  0.3658
29726SOL    HW194308   5.524   1.984   7.392 -0.1812  0.5500  0.4240
29726SOL    HW294309   5.568   1.995   7.248  0.3625  0.4705  0.5828
29727SOL     OW94310   6.194   2.661   7.394 -0.2615 -0.3539  1.2194
29727SOL    HW194311   6.099   2.659   7.385 -0.2084 -0.1917  0.6054
29727SOL    HW294312   6.209   2.679   7.487 -0.8703  5.0850  0.4509
29728SOL     OW94313   6.049  11.205   8.715 -0.0839  0.0488 -0.0453
29728SOL    HW194314   6.028  11.242   8.629  0.3141  1.6659  0.5362
29728SOL    HW294315   5.984  11.244   8.774  0.4534 -0.0309  0.6093
29729SOL     OW94316   9.310  10.892  10.928 -0.2974 -0.1263 -0.3265
29729SOL    HW194317   9.293  10.912  10.836  0.9134  0.6253 -0.3966
29729SOL    HW294318   9.405  10.877  10.932 -0.4005 -0.5410  0.7302
29730SOL     OW94319   9.053   5.369  10.845 -0.0199 -0.7357 -1.0967
29730SOL    HW194320   9.002   5.364  10.765 -2.1194  1.3597  0.0377
29730SOL    HW294321   9.118   5.437  10.828 -1.5892  0.9510 -0.4489
29731SOL     OW94322   0.158   3.069   4.172  0.1659 -0.0080  0.7558
29731SOL    HW194323   0.083   3.128   4.174  0.0450 -0.1583  0.6270
29731SOL    HW294324   0.233   3.126   4.152  0.3112  0.3830  2.3479
29732SOL     OW94325   2.192  10.148   0.956  0.2397  0.3531 -0.4057
29732SOL    HW194326   2.259  10.209   0.924  0.9364 -0.4145 -0.4229
29732SOL    HW294327   2.242  10.074   0.992 -0.5783  0.2538  0.5412
29733SOL     OW94328   5.312   2.409   3.552 -0.0588  0.3043 -0.7518
29733SOL    HW194329   5.344   2.359   3.477 -1.8495 -1.2397 -0.5117
29733SOL    HW294330   5.377   2.479   3.563  0.6885  0.0545 -3.1891
29734SOL     OW94331  11.002  10.612   3.554  0.1816 -0.1341 -0.0297
29734SOL    HW194332  11.017  10.685   3.614  1.8713 -0.0989 -0.4880
29734SOL    HW294333  10.987  10.654   3.469 -2.3435 -0.1791  0.3624
29735SOL     OW94334  10.813   7.923   1.892  0.1658 -0.6507  0.5647
29735SOL    HW194335  10.766   7.911   1.809  0.7578 -1.5729  0.3459
29735SOL    HW294336  10.887   7.863   1.885  0.2503 -0.6876  1.7413
29736SOL     OW94337  10.261   8.583   2.230 -0.3400  0.1717  0.6832
29736SOL    HW194338  10.350   8.604   2.203 -0.9616  0.1971 -1.4420
29736SOL    HW294339  10.225   8.666   2.261 -0.3067  0.6342 -0.4848
29737SOL     OW94340   5.153   9.030   9.237  0.1222 -0.0101  0.2000
29737SOL    HW194341   5.131   9.123   9.252  1.9650  0.5571 -0.4882
29737SOL    HW294342   5.248   9.028   9.241  0.1820 -1.5648 -1.6755
29738SOL     OW94343   1.391   7.739   0.948 -0.9069 -0.2800 -0.2086
29738SOL    HW194344   1.329   7.667   0.938 -1.5509 -0.0257  1.7436
29738SOL    HW294345   1.410   7.741   1.042  0.4412  1.0006 -0.4937
29739SOL     OW94346  10.864  10.975   0.994 -0.8653 -0.0606 -0.5122
29739SOL    HW194347  10.926  10.932   1.052 -2.3421  0.4958  1.5594
29739SOL    HW294348  10.916  11.005   0.920  1.0038 -1.1118  0.3523
29740SOL     OW94349   1.638   5.422  10.649  0.5399  0.0730 -0.1252
29740SOL    HW194350   1.636   5.330  10.625  0.9908 -0.2958  1.2095
29740SOL    HW294351   1.710   5.429  10.712  2.1306  1.7993 -2.0826
29741SOL     OW94352   7.343   5.229   5.859 -0.2137  0.0205  0.2312
29741SOL    HW194353   7.272   5.170   5.885  0.3684 -0.7063  0.1858
29741SOL    HW294354   7.420   5.172   5.850  0.2765  0.7307 -0.1466
29742SOL     OW94355   0.060  11.135   8.609 -0.5738 -0.9065 -0.2002
29742SOL    HW194356   0.126  11.182   8.558 -1.3575 -0.4540 -0.8012
29742SOL    HW294357  -0.023  11.151   8.563 -1.4577  0.3309  1.7466
29743SOL     OW94358   7.009   0.341   5.471  0.1127 -0.5017  0.4856
29743SOL    HW194359   7.074   0.318   5.538  1.5465 -2.1371 -1.3782
29743SOL    HW294360   6.977   0.427   5.497  3.9455  0.9265  0.8592
29744SOL     OW94361   3.980   4.778   6.539  0.6873 -0.4149 -0.3924
29744SOL    HW194362   3.894   4.762   6.499 -0.5906 -1.8166  2.7947
29744SOL    HW294363   3.975   4.868   6.571  0.1243 -0.7157  0.3868
29745SOL     OW94364   7.587   7.129  10.122  0.0496 -0.0179 -0.2599
29745SOL    HW194365   7.635   7.100  10.201  1.1082 -0.3255 -1.0031
29745SOL    HW294366   7.632   7.086  10.050 -1.0693  0.0775 -1.0274
29746SOL     OW94367   9.338   2.870   7.067 -0.3615 -0.0167  0.0924
29746SOL    HW194368   9.345   2.808   6.993  1.1362 -0.6879  0.7711
29746SOL    HW294369   9.386   2.947   7.037  1.2420 -0.7262  0.7930
29747SOL     OW94370   9.470   2.355   5.583 -0.2476 -0.1037  0.8568
29747SOL    HW194371   9.438   2.364   5.494 -1.2685 -0.1582  1.2119
29747SOL    HW294372   9.509   2.440   5.604  0.0429 -0.1114  0.3430
29748SOL     OW94373   9.837   6.477   2.403  0.0762  0.2279 -0.2624
29748SOL    HW194374   9.787   6.425   2.466  1.7359  1.2320  1.9350
29748SOL    HW294375   9.832   6.427   2.322 -1.1901 -1.6667  0.9355
29749SOL     OW94376   5.248   4.565   3.280  0.2741 -0.0710  0.0614
29749SOL    HW194377   5.290   4.545   3.363  0.0803  0.8200  0.3789
29749SOL    HW294378   5.231   4.659   3.283 -2.1989 -0.4803  0.1748
29750SOL     OW94379   1.990   1.119   4.194 -0.4038 -0.2924  0.7290
29750SOL    HW194380   2.014   1.051   4.132 -1.1087 -0.8534  1.0671
29750SOL    HW294381   1.982   1.199   4.141  1.8089 -0.1599  0.5452
29751SOL     OW94382   6.937   2.640  10.620 -0.2798  0.3236  0.6004
29751SOL    HW194383   6.920   2.697  10.545 -1.3003 -0.2712  0.3673
29751SOL    HW294384   6.998   2.574  10.588 -0.1734  0.4735  0.4931
29752SOL     OW94385   7.699   2.970   8.375 -0.1993  0.2615 -0.2306
29752SOL    HW194386   7.633   3.039   8.379 -1.8208 -1.0654 -2.4731
29752SOL    HW294387   7.693   2.937   8.285 -0.0944 -3.3930  1.0333
29753SOL     OW94388   5.480   4.161  10.796 -0.1648 -0.1409  0.2186
29753SOL    HW194389   5.497   4.254  10.808 -0.8954  0.0044  0.1955
29753SOL    HW294390   5.386   4.156  10.776 -0.2079 -0.9070  0.5577
29754SOL     OW94391   9.504   9.410   6.103 -0.2174 -0.4122 -0.2920
29754SOL    HW194392   9.429   9.372   6.057 -0.6217  0.0963 -0.0648
29754SOL    HW294393   9.559   9.445   6.034  0.0871 -1.2874 -0.4946
29755SOL     OW94394   5.951  11.014   2.202 -0.5022 -0.3453  0.7907
29755SOL    HW194395   6.020  10.978   2.146 -0.6995 -1.2553  1.1157
29755SOL    HW294396   5.968  10.976   2.288 -1.5428 -0.7680  0.8240
29756SOL     OW94397   9.770   5.083   8.026 -0.1570  0.6834 -0.1678
29756SOL    HW194398   9.688   5.036   8.035  0.8285 -1.0317 -0.0334
29756SOL    HW294399   9.825   5.051   8.097  1.2977  0.4051 -1.3923
29757SOL     OW94400   5.581   9.152   1.316 -0.1256  0.4055 -0.3115
29757SOL    HW194401   5.560   9.062   1.338 -1.8373  0.4939 -1.4936
29757SOL    HW294402   5.671   9.165   1.349 -0.5380 -1.1412  1.4951
29758SOL     OW94403   7.790   2.064   3.669 -0.5411 -0.4751  0.0845
29758SOL    HW194404   7.799   1.975   3.703 -1.1298 -1.3144 -1.9142
29758SOL    HW294405   7.825   2.059   3.580 -0.3292  1.3563  0.0532
29759SOL     OW94406  10.403   7.761  10.540  0.3362  0.2379 -0.4359
29759SOL    HW194407  10.331   7.741  10.480  0.0531 -3.4205  1.0236
29759SOL    HW294408  10.479   7.776  10.483 -1.1689  2.6556 -1.9016
29760SOL     OW94409   5.980   9.633   0.971  0.2618  0.5247 -0.8083
29760SOL    HW194410   5.889   9.664   0.970 -0.5696 -1.8439 -0.6872
29760SOL    HW294411   6.032   9.713   0.985 -1.8490  1.7690  0.2525
29761SOL     OW94412   5.514   0.610  10.150  0.1443 -0.1129  0.0679
29761SOL    HW194413   5.500   0.522  10.186 -1.4263  0.4199  0.7823
29761SOL    HW294414   5.470   0.669  10.211 -0.6369  0.9906 -1.5245
29762SOL     OW94415   9.796   5.932   6.850 -0.4254 -0.7114 -0.5045
29762SOL    HW194416   9.888   5.960   6.853  0.0065 -2.2072  3.1174
29762SOL    HW294417   9.747   6.014   6.839  1.2884  0.1733 -1.9256
29763SOL     OW94418   4.291   4.263   9.573 -0.4740 -0.1611  0.1344
29763SOL    HW194419   4.347   4.230   9.504 -0.9057  0.9608 -0.7733
29763SOL    HW294420   4.324   4.222   9.653 -1.1287 -2.9070 -0.9577
29764SOL     OW94421  10.897   1.168   7.944  0.2139 -0.1451 -0.1258
29764SOL    HW194422  10.887   1.245   8.000  1.4983 -0.8886  1.1635
29764SOL    HW294423  10.841   1.102   7.985 -2.7623  0.7526 -2.5605
29765SOL     OW94424   5.106   0.397   2.730  0.2072  0.7161  0.1640
29765SOL    HW194425   5.138   0.377   2.818 -1.5476  1.8884  1.0948
29765SOL    HW294426   5.159   0.342   2.672  2.7542  1.3670  1.7862
29766SOL     OW94427   4.657   7.486  10.651  0.2261 -0.0381 -0.5541
29766SOL    HW194428   4.625   7.576  10.644 -1.3491 -0.6884 -1.8402
29766SOL    HW294429   4.622   7.441  10.575 -0.3216 -2.1655  0.8993
29767SOL     OW94430   2.499   3.540   1.197 -0.7665  0.0821  0.0283
29767SOL    HW194431   2.559   3.600   1.241 -0.1206 -0.3004 -0.3333
29767SOL    HW294432   2.453   3.595   1.133 -0.8627  0.3862  0.3510
29768SOL     OW94433   7.476  10.464   2.882 -0.0871 -0.4339  0.3080
29768SOL    HW194434   7.459  10.550   2.842  0.3241  0.5390  2.1545
29768SOL    HW294435   7.394  10.441   2.925  0.1848 -0.4170  0.8267
29769SOL     OW94436   8.587   9.266   5.132  0.2871 -0.9476 -0.4428
29769SOL    HW194437   8.619   9.178   5.152  3.4626  0.1205 -0.4024
29769SOL    HW294438   8.506   9.253   5.083 -0.0387 -3.8359  0.7966
29770SOL     OW94439   7.924   5.609   3.418 -0.3939 -0.3380  0.1466
29770SOL    HW194440   7.860   5.663   3.465 -0.0739  0.9454 -0.8845
29770SOL    HW294441   7.918   5.637   3.327  1.0733 -0.7619 -0.1003
29771SOL     OW94442   5.710   2.955  11.290  0.4985  0.2931 -0.0535
29771SOL    HW194443   5.715   3.046  11.320 -0.0125  0.4224 -0.3411
29771SOL    HW294444   5.800   2.923  11.293  0.8408  1.1432 -0.9423
29772SOL     OW94445  10.932   4.034   4.808 -0.5660  0.3310 -0.1813
29772SOL    HW194446  10.912   3.954   4.759 -0.8933  0.1625  0.2251
29772SOL    HW294447  10.988   4.005   4.879 -1.8716  0.2201  0.8285
29773SOL     OW94448   8.990   7.938  10.016  0.5029  0.1314 -0.5633
29773SOL    HW194449   9.022   8.026   9.994  0.1386  0.3210 -0.3340
29773SOL    HW294450   8.925   7.953  10.085 -0.2328 -0.2347 -1.1684
29774SOL     OW94451   2.828   3.674   3.127 -0.1689  0.3680 -0.1752
29774SOL    HW194452   2.892   3.627   3.180  0.1655  1.0008 -0.0189
29774SOL    HW294453   2.751   3.617   3.126  0.4237 -0.4221 -0.4262
29775SOL     OW94454   5.565   3.439   2.192 -0.2746 -0.2443 -0.1157
29775SOL    HW194455   5.611   3.519   2.169 -1.8397  0.5161 -0.6961
29775SOL    HW294456   5.586   3.377   2.123  0.4161 -0.1292 -0.0084
29776SOL     OW94457   7.840   2.598   5.715 -0.3359  0.0682  0.1215
29776SOL    HW194458   7.926   2.636   5.698 -0.2522 -0.9972 -1.8530
29776SOL    HW294459   7.797   2.595   5.630 -1.9145 -0.4529  0.9108
29777SOL     OW94460   2.426   9.855   0.302 -0.5522 -0.5691  0.2991
29777SOL    HW194461   2.348   9.848   0.356 -0.8735  0.5734 -0.0093
29777SOL    HW294462   2.402   9.915   0.232  0.4317 -0.6210 -0.0981
29778SOL     OW94463   4.418   0.808   8.770 -0.4085  0.1743  0.3012
29778SOL    HW194464   4.483   0.758   8.721  0.6928  0.7760  1.1128
29778SOL    HW294465   4.425   0.774   8.860 -2.2910 -0.8145  0.0916
29779SOL     OW94466   4.889   6.384   4.337 -0.5043 -0.7441 -0.3606
29779SOL    HW194467   4.803   6.373   4.378 -0.8443  0.0468 -0.8543
29779SOL    HW294468   4.876   6.450   4.269  0.6326 -0.1615 -0.0333
29780SOL     OW94469   2.699   0.370   1.885  0.4398 -0.0874 -0.1946
29780SOL    HW194470   2.742   0.292   1.849 -1.5004 -1.1236 -0.3285
29780SOL    HW294471   2.729   0.442   1.830  2.1707 -0.7529 -0.1472
29781SOL     OW94472   2.025   4.746   4.079  0.0239 -0.4748 -0.0456
29781SOL    HW194473   2.049   4.839   4.076  2.8960 -1.1857 -0.0822
29781SOL    HW294474   2.106   4.701   4.102 -1.6760 -2.8647  1.5419
29782SOL     OW94475   3.056   9.220   0.890 -0.2890  0.2583  0.0331
29782SOL    HW194476   3.019   9.149   0.838 -1.3374  0.9048 -0.1137
29782SOL    HW294477   3.105   9.273   0.827  0.7030 -0.4571  0.1852
29783SOL     OW94478  10.705   1.561   2.048 -0.3465  0.5089 -0.1342
29783SOL    HW194479  10.642   1.569   2.119  0.5871 -0.6594  0.8399
29783SOL    HW294480  10.789   1.585   2.088  0.1449  0.0737 -0.8972
29784SOL     OW94481  10.190   5.205   3.180  0.0369 -0.6577 -0.4108
29784SOL    HW194482  10.273   5.187   3.225  0.5230 -1.4819 -1.6242
29784SOL    HW294483  10.211   5.274   3.117 -0.2002 -0.8676 -0.7210
29785SOL     OW94484   4.562   9.057   1.863  0.1170  0.0773 -0.8713
29785SOL    HW194485   4.608   9.023   1.940 -0.9884 -0.8369 -0.6013
29785SOL    HW294486   4.506   9.126   1.898 -0.2410 -0.2064 -0.8837
29786SOL     OW94487   7.492   3.492  10.126  0.1959 -0.5969  0.4120
29786SOL    HW194488   7.546   3.559  10.084  0.8774 -0.5718  1.3229
29786SOL    HW294489   7.428   3.467  10.058  0.0798  0.7962 -0.0060
29787SOL     OW94490   3.482   7.077   2.718  0.3516 -0.3004 -1.2756
29787SOL    HW194491   3.408   7.132   2.692  0.6763  0.8030  0.0898
29787SOL    HW294492   3.519   7.046   2.635 -1.3302 -0.4830 -1.9854
29788SOL     OW94493   6.232   9.645   0.141 -0.0320  0.0607 -0.1093
29788SOL    HW194494   6.204   9.580   0.205 -0.7227 -0.4154 -0.8807
29788SOL    HW294495   6.300   9.695   0.185 -0.5765 -0.1952  1.0345
29789SOL     OW94496   0.951   5.268   7.449  0.3608 -0.2090  0.3313
29789SOL    HW194497   0.941   5.206   7.521 -1.5418 -0.9100 -0.4979
29789SOL    HW294498   0.905   5.226   7.376  1.7818  0.7472 -1.1178
29790SOL     OW94499   5.914   1.514  10.484 -0.2847  0.2090  0.2080
29790SOL    HW194500   5.946   1.431  10.518 -0.0726  0.6308  1.0350
29790SOL    HW294501   5.928   1.577  10.554 -1.8095  0.6553  0.1400
29791SOL     OW94502   5.944   6.762   3.324 -0.0063  0.0434  0.0696
29791SOL    HW194503   5.853   6.762   3.354  0.3809  1.8556  1.3287
29791SOL    HW294504   5.942   6.815   3.244  0.1357  1.1360  0.7792
29792SOL     OW94505   0.896   5.763   3.163  0.0389  0.2793 -0.0260
29792SOL    HW194506   0.980   5.739   3.201 -0.3570 -1.2814 -0.1062
29792SOL    HW294507   0.867   5.839   3.215  1.8133  1.2905 -0.4834
29793SOL     OW94508   1.149   8.067   1.178 -0.1006 -0.1537  0.2510
29793SOL    HW194509   1.082   8.133   1.162  0.4075  0.5605  1.0676
29793SOL    HW294510   1.207   8.073   1.103  0.1817  0.6199  0.5301
29794SOL     OW94511   5.595   2.794   6.830 -0.0907 -0.2084  0.3654
29794SOL    HW194512   5.653   2.853   6.878  1.3051 -0.7195 -0.6423
29794SOL    HW294513   5.530   2.765   6.895  2.4095 -1.7730  2.2552
29795SOL     OW94514   8.763   7.155   5.410 -0.0444 -0.1268 -0.0182
29795SOL    HW194515   8.755   7.060   5.406  2.0215 -0.2590 -1.9932
29795SOL    HW294516   8.785   7.173   5.501  0.6587 -1.6565  0.1387
29796SOL     OW94517   2.765   5.744   5.096  0.0314  0.6451 -0.2756
29796SOL    HW194518   2.708   5.668   5.106  0.2579  0.3647 -1.1278
29796SOL    HW294519   2.842   5.724   5.149 -0.4712  0.8506  0.5502
29797SOL     OW94520   7.179   8.960   1.830 -0.0304  0.1998  0.7400
29797SOL    HW194521   7.246   8.988   1.892  0.9789 -1.0458  0.2239
29797SOL    HW294522   7.215   8.982   1.744 -1.5450  2.1918  0.5624
29798SOL     OW94523   6.087   0.456   2.446 -0.0510 -0.1267 -0.1967
29798SOL    HW194524   6.171   0.412   2.438 -0.5212 -1.2295  0.8409
29798SOL    HW294525   6.109   0.549   2.446  1.1635 -0.4074  0.0661
29799SOL     OW94526   3.580  10.528   3.296 -0.0135  0.6092  0.2583
29799SOL    HW194527   3.650  10.588   3.320  0.4034  0.7516 -1.2403
29799SOL    HW294528   3.539  10.503   3.379  0.0502  2.6549  0.9109
29800SOL     OW94529  11.311   5.260  10.034 -0.3730  0.3951 -0.3276
29800SOL    HW194530  11.373   5.188  10.039  0.1662  0.9179  0.6716
29800SOL    HW294531  11.250   5.245  10.106 -0.2771  0.9163 -0.1334
29801SOL     OW94532   4.904   7.954  10.641  0.2588 -0.2541 -0.8320
29801SOL    HW194533   4.858   7.991  10.565  0.2757  0.2675 -0.5880
29801SOL    HW294534   4.996   7.955  10.616  0.4155  1.2231 -0.2683
29802SOL     OW94535   7.744   0.350   0.347  0.3922  0.0724 -0.4162
29802SOL    HW194536   7.768   0.325   0.258 -2.0076 -0.3205 -0.9727
29802SOL    HW294537   7.764   0.272   0.400  0.7264 -0.1043 -0.7993
29803SOL     OW94538  10.371   5.079   1.334  0.2515  0.2278 -0.2062
29803SOL    HW194539  10.309   5.116   1.271  0.4380  0.0295 -0.5082
29803SOL    HW294540  10.398   4.996   1.295 -2.2590 -1.6061  1.7670
29804SOL     OW94541   5.786   8.391  10.092 -0.4957 -0.2744 -1.0530
29804SOL    HW194542   5.726   8.464  10.076 -0.3459  0.3037  0.8254
29804SOL    HW294543   5.873   8.431  10.091 -0.2924 -0.7353 -1.7181
29805SOL     OW94544   0.409   8.004  11.196  0.1162  0.1145  0.0798
29805SOL    HW194545   0.426   7.924  11.146 -1.8339  1.0520 -2.1946
29805SOL    HW294546   0.371   7.973  11.278  1.4325 -1.3757  0.1448
29806SOL     OW94547   2.544   1.678   7.933  0.1706 -0.2288  0.3532
29806SOL    HW194548   2.595   1.638   8.004  0.8011  0.2249  0.1543
29806SOL    HW294549   2.453   1.667   7.961  0.3827 -0.8468  0.8115
29807SOL     OW94550   1.048   2.931   4.058  0.3125  0.1319  0.5255
29807SOL    HW194551   1.052   2.983   4.138 -0.5896  0.6853  0.2231
29807SOL    HW294552   0.972   2.965   4.011  2.0518  1.2279 -1.5574
29808SOL     OW94553   9.426   9.028   9.318  0.5128 -0.8319 -0.5364
29808SOL    HW194554   9.354   9.010   9.378  0.9588 -0.6831  0.0412
29808SOL    HW294555   9.411   8.968   9.244 -1.1840  0.4298 -1.2415
29809SOL     OW94556   7.210   4.765  10.997  0.1010 -0.1190 -0.2761
29809SOL    HW194557   7.119   4.746  11.017  0.6143 -1.3897  0.9550
29809SOL    HW294558   7.207   4.822  10.920 -1.7588  1.2218  0.7893
29810SOL     OW94559   6.216   5.908   5.442 -0.0407 -0.0831  0.4306
29810SOL    HW194560   6.243   5.824   5.404  0.2937 -0.1253  0.7630
29810SOL    HW294561   6.135   5.930   5.395  0.0430 -0.4313  0.1162
29811SOL     OW94562   2.968   0.648   7.810 -0.2038 -1.0525 -0.4800
29811SOL    HW194563   2.920   0.601   7.742 -0.0771 -1.9442  0.0370
29811SOL    HW294564   3.048   0.597   7.822  0.0605 -0.5494 -0.1006
29812SOL     OW94565   7.337   1.171   2.002 -0.0457  0.3280  0.7524
29812SOL    HW194566   7.326   1.263   1.979 -0.1032  0.7348  2.3392
29812SOL    HW294567   7.315   1.123   1.922 -0.1138  1.6797 -0.0539
29813SOL     OW94568   8.879   1.724  11.042  0.6695  0.1001 -0.2243
29813SOL    HW194569   8.839   1.657  11.097  2.3323 -0.0961  0.7723
29813SOL    HW294570   8.973   1.706  11.046  1.1838  2.7292  0.3830
29814SOL     OW94571   9.599   9.441   8.567  0.1867 -0.1289  0.2722
29814SOL    HW194572   9.674   9.430   8.508  0.7054 -1.1720  1.1115
29814SOL    HW294573   9.534   9.487   8.514  1.5590  1.1558 -0.3681
29815SOL     OW94574   3.270  10.458   8.387  0.1229 -0.4710 -0.2255
29815SOL    HW194575   3.291  10.367   8.408  0.5747 -1.0932 -3.2507
29815SOL    HW294576   3.240  10.456   8.296 -2.1684  2.0682  0.4154
29816SOL     OW94577  10.332   7.453   7.414  0.3893  0.0395 -0.7810
29816SOL    HW194578  10.361   7.492   7.496 -0.1537  0.1226 -0.6250
29816SOL    HW294579  10.261   7.510   7.384 -0.1443 -0.6006 -0.7513
29817SOL     OW94580   1.852   7.600   0.966  0.0599 -0.1879 -0.3178
29817SOL    HW194581   1.766   7.622   0.928 -0.6603 -1.8955  0.3125
29817SOL    HW294582   1.831   7.553   1.047  1.6046  0.6154  0.5639
29818SOL     OW94583   8.496   8.761   4.763  0.2848 -1.2315 -1.0174
29818SOL    HW194584   8.560   8.822   4.727  0.6507 -0.3403  1.1053
29818SOL    HW294585   8.535   8.729   4.844 -2.5939  0.6408  1.2352
29819SOL     OW94586   7.760   4.123   8.067  0.2509 -0.2221  0.0734
29819SOL    HW194587   7.764   4.041   8.018 -1.3370 -0.8124  0.9057
29819SOL    HW294588   7.852   4.147   8.081  0.7237 -1.7997 -0.2851
29820SOL     OW94589   7.593   3.100   9.506  0.1568 -0.3467 -0.3326
29820SOL    HW194590   7.680   3.106   9.466  1.3010 -0.1500  2.1408
29820SOL    HW294591   7.609   3.072   9.596 -2.2877  0.5062  0.4093
29821SOL     OW94592   6.017   1.727   5.574  0.2317 -0.1706 -0.2571
29821SOL    HW194593   5.987   1.812   5.604 -0.1509  0.4156 -2.2266
29821SOL    HW294594   6.097   1.710   5.624 -0.0604  1.0326  0.6229
29822SOL     OW94595   6.673   9.403  10.794 -0.1843 -0.2327 -0.4223
29822SOL    HW194596   6.685   9.313  10.825 -1.3788  0.0180  0.8273
29822SOL    HW294597   6.640   9.392  10.704 -0.0357 -1.0376 -0.3870
29823SOL     OW94598   8.172   2.835   1.341 -0.4097 -0.3171  0.2723
29823SOL    HW194599   8.193   2.742   1.341  1.0998  0.0134 -0.4598
29823SOL    HW294600   8.147   2.854   1.251 -0.7307 -0.0093  0.4218
29824SOL     OW94601  10.163   9.779   6.922 -0.1021  0.6550 -0.1921
29824SOL    HW194602  10.105   9.706   6.946 -0.4017  1.2054  0.7902
29824SOL    HW294603  10.103   9.850   6.899  0.1865  0.7062 -0.7795
29825SOL     OW94604   2.892   4.844   5.713  0.1729 -0.1374 -0.3089
29825SOL    HW194605   2.939   4.765   5.740  0.7816  0.3126 -0.0632
29825SOL    HW294606   2.816   4.848   5.771 -0.4170 -1.0950 -0.9830
29826SOL     OW94607  10.004   2.890   5.494  0.2977 -0.9602 -0.6012
29826SOL    HW194608   9.909   2.901   5.500  0.4065 -0.2817 -0.1140
29826SOL    HW294609  10.020   2.801   5.524 -0.0759 -0.6927  0.4068
29827SOL     OW94610   2.021   8.268   7.643 -0.1280  0.1405  0.3147
29827SOL    HW194611   1.930   8.242   7.633  0.1578 -0.5893 -0.5042
29827SOL    HW294612   2.025   8.357   7.609 -0.5938  0.2850  0.6385
29828SOL     OW94613   8.784   0.425   0.555 -0.2860 -0.1624 -0.2380
29828SOL    HW194614   8.723   0.486   0.513 -1.2733 -1.0471 -0.1103
29828SOL    HW294615   8.862   0.478   0.573 -0.0701  0.3780 -2.6207
29829SOL     OW94616  11.218   4.652   4.557  0.4288 -0.0605  0.2765
29829SOL    HW194617  11.280   4.581   4.540  0.5458  0.6175 -2.3140
29829SOL    HW294618  11.143   4.632   4.500 -0.3405  0.9047  0.9288
29830SOL     OW94619   8.278   4.284   1.349 -0.0709 -0.3401 -0.3321
29830SOL    HW194620   8.372   4.276   1.362 -0.0137 -0.1469 -0.6236
29830SOL    HW294621   8.265   4.375   1.323 -0.1941 -0.6955 -1.5473
29831SOL     OW94622   5.426   0.426   6.480 -0.2973  0.0325  0.8602
29831SOL    HW194623   5.457   0.433   6.389 -2.8729  0.1416 -0.0652
29831SOL    HW294624   5.405   0.333   6.491 -0.1129  0.0427  1.3146
29832SOL     OW94625   3.048   1.633   5.618  0.2689  0.4733 -0.1889
29832SOL    HW194626   2.991   1.694   5.572 -0.6259  0.3941  0.7700
29832SOL    HW294627   2.999   1.550   5.617  1.0532  0.0173 -0.6749
29833SOL     OW94628   3.512   1.504  10.871  0.0716  0.1869 -0.4623
29833SOL    HW194629   3.526   1.597  10.887 -1.8092  0.4300 -0.2057
29833SOL    HW294630   3.579   1.481  10.807  2.1975  1.1272  1.3401
29834SOL     OW94631   5.333   1.052   0.760 -0.1014  0.4805  0.0140
29834SOL    HW194632   5.401   1.115   0.738 -0.4290  1.1016  0.7741
29834SOL    HW294633   5.381   0.973   0.786  0.3351  0.9734  0.7210
29835SOL     OW94634   6.745   5.775   8.306  0.1377  0.2143 -0.5459
29835SOL    HW194635   6.818   5.713   8.295 -0.1315  0.0733 -1.6662
29835SOL    HW294636   6.667   5.720   8.300 -0.0922  0.5972 -1.1312
29836SOL     OW94637   0.365   8.426   5.562 -0.3157  0.1152 -0.0616
29836SOL    HW194638   0.305   8.499   5.546 -0.3607  0.3518  1.1166
29836SOL    HW294639   0.426   8.428   5.488 -1.5968  0.0251 -1.1370
29837SOL     OW94640   8.934   6.841   1.203 -0.3227 -0.0183  0.2298
29837SOL    HW194641   9.022   6.878   1.206  0.0193 -0.8296  0.1599
29837SOL    HW294642   8.933   6.775   1.273 -1.2919  0.9022  1.1019
29838SOL     OW94643   2.567   5.376   6.486  0.2109 -0.2308 -0.0869
29838SOL    HW194644   2.634   5.433   6.448  0.8953 -1.2785 -0.4862
29838SOL    HW294645   2.499   5.371   6.419 -0.3982  1.0511  0.4283
29839SOL     OW94646   7.443   1.223   6.081  0.3140 -0.4064 -0.7278
29839SOL    HW194647   7.517   1.254   6.029  0.3373  0.8573  0.0219
29839SOL    HW294648   7.372   1.284   6.061  0.2574 -0.0387  0.5057
29840SOL     OW94649   7.458   3.527   6.167  0.2731  0.0238 -0.1810
29840SOL    HW194650   7.496   3.444   6.195  0.4764 -0.1331 -0.9283
29840SOL    HW294651   7.531   3.589   6.171 -0.3436  0.6427  2.3956
29841SOL     OW94652   6.075   7.322   6.250 -0.1794 -0.0341 -0.0482
29841SOL    HW194653   5.985   7.301   6.224 -0.2080  0.1133 -0.0672
29841SOL    HW294654   6.120   7.238   6.246 -0.0105  0.0962 -1.2703
29842SOL     OW94655   4.751  10.490   4.931  0.0151  0.0004  0.0165
29842SOL    HW194656   4.691  10.558   4.900  1.7621  1.3952 -0.3648
29842SOL    HW294657   4.701  10.409   4.924 -1.7110  1.0948 -0.5990
29843SOL     OW94658   7.362   5.772   9.679 -0.0078 -0.3138  0.0991
29843SOL    HW194659   7.268   5.779   9.696 -0.1359 -1.4748 -0.0647
29843SOL    HW294660   7.388   5.859   9.649 -0.4446  0.8743  2.9708
29844SOL     OW94661   1.921  11.080   0.923 -0.0380 -0.4658 -0.0952
29844SOL    HW194662   1.888  10.993   0.901  0.2193 -1.2215  2.4219
29844SOL    HW294663   1.939  11.121   0.838  0.8747 -3.2646 -1.2926
29845SOL     OW94664   7.976   2.944   0.767 -0.4758  0.8655  0.1928
29845SOL    HW194665   8.013   3.008   0.707 -1.4734 -0.8738 -2.3780
29845SOL    HW294666   8.046   2.880   0.779 -0.3841  1.0485  0.6425
29846SOL     OW94667   4.979   8.404  10.084 -0.5913  0.4936  0.1637
29846SOL    HW194668   4.956   8.380   9.994 -0.7141  1.1080  0.0303
29846SOL    HW294669   5.049   8.343  10.107 -0.6791  0.2158 -0.2854
29847SOL     OW94670   4.912   1.011   6.458  0.0331  0.5309 -0.6523
29847SOL    HW194671   4.866   1.002   6.374 -0.5692  0.2236 -0.2913
29847SOL    HW294672   4.854   1.065   6.511  1.3825  2.5361 -1.1467
29848SOL     OW94673   9.437   4.067   2.596 -0.1594 -0.1859  0.3790
29848SOL    HW194674   9.380   3.990   2.599  1.0189 -1.1206 -0.4935
29848SOL    HW294675   9.377   4.142   2.599 -1.4674 -1.1323 -1.1873
29849SOL     OW94676   0.332   0.022   9.931 -0.0107  0.2095 -0.3115
29849SOL    HW194677   0.335   0.011   9.836 -1.1819  0.0400 -0.3396
29849SOL    HW294678   0.247  -0.014   9.956  0.5831 -0.3773  0.8892
29850SOL     OW94679   1.991   4.955   7.448 -0.1312  0.2990 -0.0749
29850SOL    HW194680   1.904   4.920   7.465  1.0380 -2.8494 -0.2189
29850SOL    HW294681   2.033   4.889   7.393  2.1763  2.0153 -0.4505
29851SOL     OW94682   4.292   0.186   8.126  0.1091  0.3754 -0.6863
29851SOL    HW194683   4.364   0.153   8.180  0.0511 -0.6564 -1.2377
29851SOL    HW294684   4.213   0.171   8.178  0.2848  1.5224 -0.0751
29852SOL     OW94685   8.676   3.468   1.632 -0.4105 -0.0935 -0.2476
29852SOL    HW194686   8.594   3.497   1.593 -0.7581  0.3870  0.8214
29852SOL    HW294687   8.744   3.509   1.578 -0.8913  1.5601  0.3688
29853SOL     OW94688   6.489   5.402   7.051  0.1497 -0.1896  0.5126
29853SOL    HW194689   6.469   5.370   6.963 -0.2413 -1.3088  0.9970
29853SOL    HW294690   6.435   5.480   7.062  2.0655  1.4351 -1.1720
29854SOL     OW94691  10.579   8.989   3.675 -0.0916 -0.0373 -0.3455
29854SOL    HW194692  10.523   8.953   3.606 -1.6864  1.9252 -0.1374
29854SOL    HW294693  10.524   9.055   3.718  2.1683  1.4588  0.3168
29855SOL     OW94694   7.133   0.265   9.834 -0.3670  0.3371  0.2187
29855SOL    HW194695   7.220   0.267   9.795 -0.8387  0.8211 -0.8149
29855SOL    HW294696   7.117   0.172   9.851  0.9360  0.3738  1.7665
29856SOL     OW94697  10.905   1.994   7.770 -0.1432  0.2282 -0.7757
29856SOL    HW194698  10.897   2.086   7.796  0.7060 -0.4680  2.2237
29856SOL    HW294699  10.817   1.958   7.785 -0.0277  0.1645 -0.2352
29857SOL     OW94700   8.114   7.836   3.933  0.1306  0.1444  0.0578
29857SOL    HW194701   8.058   7.869   3.863 -2.4151 -2.3260  0.8532
29857SOL    HW294702   8.155   7.757   3.897  0.2487 -0.1058  0.7313
29858SOL     OW94703   4.872   4.450   8.054  0.1184 -0.2263  0.3587
29858SOL    HW194704   4.781   4.475   8.066  0.2607  0.4305  0.0684
29858SOL    HW294705   4.922   4.508   8.112  0.2620 -1.4200  1.4793
29859SOL     OW94706   1.842   1.237   9.506  0.3794 -0.3613 -0.3828
29859SOL    HW194707   1.811   1.231   9.416 -0.3649 -3.4130  0.0138
29859SOL    HW294708   1.765   1.216   9.559  1.4582 -1.3768  0.8288
29860SOL     OW94709   3.190   0.912   9.917 -0.0472  0.0678  0.5293
29860SOL    HW194710   3.099   0.928   9.892  0.1781 -2.0944 -1.9191
29860SOL    HW294711   3.185   0.850   9.989 -0.5065 -1.2699 -0.6317
29861SOL     OW94712   8.827  11.200   2.401 -0.1549  0.1146 -0.3000
29861SOL    HW194713   8.859  11.131   2.459 -1.5230 -1.2436 -1.1264
29861SOL    HW294714   8.762  11.157   2.346 -0.3497  1.8558 -1.4738
29862SOL     OW94715   6.135   6.952  10.044  0.7089  0.0332  0.1827
29862SOL    HW194716   6.211   6.906  10.009  0.7370 -1.1033  1.7043
29862SOL    HW294717   6.164   7.043  10.053  1.5685 -0.2100 -0.1468
29863SOL     OW94718   9.138   1.980  11.095 -0.2015  0.0995  0.3116
29863SOL    HW194719   9.099   1.990  11.182  0.5431 -0.1464  0.6817
29863SOL    HW294720   9.230   2.007  11.107 -0.2806  0.7694 -0.5654
29864SOL     OW94721   1.584   1.153   5.165  0.1778 -0.2700  0.0880
29864SOL    HW194722   1.488   1.159   5.160  0.2586  1.0216 -0.1628
29864SOL    HW294723   1.602   1.149   5.259 -0.0583  1.2230  0.2241
29865SOL     OW94724   6.431   1.962   1.476 -0.1188 -0.2195  0.3126
29865SOL    HW194725   6.402   2.051   1.495 -1.4421 -0.8210  1.1939
29865SOL    HW294726   6.477   1.969   1.392 -2.3447  0.8798 -0.8500
29866SOL     OW94727   7.513  11.259   0.732 -0.2161 -0.5981  0.2203
29866SOL    HW194728   7.509  11.172   0.692 -1.4114 -0.8841  0.9633
29866SOL    HW294729   7.577  11.250   0.803  2.7486  0.1800 -2.1940
29867SOL     OW94730   6.835   7.746   0.673 -0.1743  0.2986  0.3122
29867SOL    HW194731   6.908   7.695   0.709 -0.4142 -1.5950 -1.7601
29867SOL    HW294732   6.868   7.782   0.591 -0.5366  2.1830  0.9738
29868SOL     OW94733   1.272   1.029   2.761 -0.3186  0.8247 -0.3308
29868SOL    HW194734   1.190   1.060   2.723 -0.2702  0.4420 -0.7478
29868SOL    HW294735   1.324   1.109   2.773 -0.3676  0.9617 -0.9864
29869SOL     OW94736   2.516   9.945  10.245  0.2661 -0.1376 -0.4003
29869SOL    HW194737   2.584   9.949  10.177  0.8817  0.0599  0.2272
29869SOL    HW294738   2.561   9.966  10.326  0.0741 -2.8010  0.4683
29870SOL     OW94739   5.229   3.459   9.483 -0.1844 -0.5138 -0.2093
29870SOL    HW194740   5.269   3.373   9.478  0.2511 -0.2696 -1.0327
29870SOL    HW294741   5.213   3.484   9.392 -1.5594 -0.3000  0.0777
29871SOL     OW94742  10.622   9.858   6.121  0.1439 -0.0981  0.5425
29871SOL    HW194743  10.657   9.913   6.051 -1.5642  0.6387  0.2602
29871SOL    HW294744  10.571   9.918   6.175 -0.4771 -1.1259  1.1049
29872SOL     OW94745   5.414   6.943   0.336 -0.4615 -0.6173  0.5431
29872SOL    HW194746   5.395   6.856   0.302  0.2580 -0.0127 -1.4463
29872SOL    HW294747   5.508   6.942   0.355  0.3101  0.8684 -2.9774
29873SOL     OW94748   5.907   7.073   0.815 -0.0280 -0.0566 -0.5182
29873SOL    HW194749   5.917   7.168   0.828  1.2837 -0.1844 -0.4833
29873SOL    HW294750   5.830   7.050   0.867  0.1458  0.8561  0.1687
29874SOL     OW94751   6.753   6.280   1.907  0.0421 -0.3215 -0.0665
29874SOL    HW194752   6.789   6.227   1.978 -0.6041  0.4692  0.8631
29874SOL    HW294753   6.817   6.351   1.896  0.1657 -0.4698 -0.3103
29875SOL     OW94754   7.622   7.441  10.449 -0.7085 -0.0499  0.3490
29875SOL    HW194755   7.706   7.470  10.486 -0.0699 -1.2672 -0.1031
29875SOL    HW294756   7.628   7.465  10.356  0.0044 -1.9558 -0.1221
29876SOL     OW94757   8.710   6.687   2.071  0.1123  0.6036  0.3548
29876SOL    HW194758   8.693   6.669   1.979 -1.1104 -0.2939  0.7469
29876SOL    HW294759   8.644   6.753   2.094 -0.4190 -0.1237  0.9184
29877SOL     OW94760  10.145   0.800   4.551  0.1704 -0.0169  0.0754
29877SOL    HW194761  10.200   0.818   4.626  0.0985  0.7520 -0.0496
29877SOL    HW294762  10.175   0.715   4.518  0.7141  0.0101  0.5042
29878SOL     OW94763   1.399   6.953   6.177 -0.2168  0.4190  0.3409
29878SOL    HW194764   1.456   6.877   6.186  0.6952  1.0670  0.0481
29878SOL    HW294765   1.378   6.956   6.084 -0.6222  0.2607  0.4258
29879SOL     OW94766   4.658   5.666   7.271  0.4214  0.1935 -0.0551
29879SOL    HW194767   4.599   5.613   7.218  0.9172  0.1754 -0.5930
29879SOL    HW294768   4.744   5.653   7.231  0.7767  0.2637  0.6910
29880SOL     OW94769   6.668   7.003   1.471 -0.0494  0.0287 -0.2932
29880SOL    HW194770   6.741   7.057   1.502  1.0471 -1.8926  0.5749
29880SOL    HW294771   6.590   7.056   1.489  0.7751  0.2380  3.1148
29881SOL     OW94772   6.002   0.247   9.745 -0.6473 -0.3629  0.0891
29881SOL    HW194773   6.073   0.310   9.759 -2.1442  1.2733  0.5781
29881SOL    HW294774   5.923   0.299   9.757 -1.9212 -2.2482 -0.0809
29882SOL     OW94775  11.218   6.721   7.799  0.0143 -0.0813  0.3933
29882SOL    HW194776  11.129   6.698   7.827 -0.0858  1.7726  1.7683
29882SOL    HW294777  11.271   6.707   7.877  0.2274  2.4901  0.7637
29883SOL     OW94778   2.964   6.369   5.485  0.5513 -0.0028  0.1827
29883SOL    HW194779   2.922   6.288   5.515  0.3754  0.2758  0.6870
29883SOL    HW294780   2.962   6.363   5.390 -2.2591  0.8440  0.1601
29884SOL     OW94781   5.806   1.812   9.058 -0.1367 -0.4197 -0.6286
29884SOL    HW194782   5.850   1.739   9.013  2.0431  0.0336  0.7278
29884SOL    HW294783   5.719   1.815   9.018  0.2298 -2.8572 -1.7056
29885SOL     OW94784   1.491   7.932   6.566 -0.2925 -0.0442  0.2302
29885SOL    HW194785   1.446   7.851   6.589  1.0049 -1.4161 -1.8860
29885SOL    HW294786   1.526   7.964   6.649  0.2807 -2.3458  0.9059
29886SOL     OW94787   5.884   6.529   5.482  0.2462 -0.1247 -0.5490
29886SOL    HW194788   5.886   6.434   5.492  1.6811  0.1493  2.4661
29886SOL    HW294789   5.818   6.559   5.545  1.1034  0.9790 -0.1418
29887SOL     OW94790  10.969   8.674   4.231 -0.1363  0.1225 -0.0346
29887SOL    HW194791  10.920   8.663   4.149  1.2654  0.5027 -0.9619
29887SOL    HW294792  10.913   8.730   4.285 -1.2371 -0.4147 -0.6017
29888SOL     OW94793   4.182   6.802   0.136  0.3314  0.2292 -0.3998
29888SOL    HW194794   4.105   6.771   0.090  0.5541  1.9812 -2.0340
29888SOL    HW294795   4.251   6.740   0.114 -0.0566 -0.0529 -0.8098
29889SOL     OW94796   8.179   6.127   2.675  0.2755  0.3162  0.5716
29889SOL    HW194797   8.143   6.197   2.620  1.2894  0.9449  0.7166
29889SOL    HW294798   8.229   6.072   2.614 -1.4217 -0.9253  0.2507
29890SOL     OW94799   9.223   7.169   5.276  0.4119 -0.1490  0.0804
29890SOL    HW194800   9.254   7.091   5.231  0.7956 -1.1052  1.9766
29890SOL    HW294801   9.278   7.177   5.353 -1.2276  0.5897  1.2141
29891SOL     OW94802   8.781   2.648  10.756  0.2436 -0.0668  0.2426
29891SOL    HW194803   8.865   2.618  10.792 -0.1097 -1.9626 -0.4765
29891SOL    HW294804   8.753   2.578  10.698 -2.1987  0.2414  0.9844
29892SOL     OW94805   4.321  10.162   9.924  0.5492  0.5346  0.5054
29892SOL    HW194806   4.329  10.083   9.977 -0.1829  0.2285  0.1728
29892SOL    HW294807   4.230  10.162   9.894  0.2727  2.0117  1.2866
29893SOL     OW94808   0.754   5.763   8.925 -0.0617 -0.2170 -0.4971
29893SOL    HW194809   0.760   5.834   8.861  0.9150 -0.2859 -0.4821
29893SOL    HW294810   0.811   5.790   8.996  1.0375 -1.4334 -0.8982
29894SOL     OW94811   7.022   6.874   3.035  0.1443  0.2514 -0.1881
29894SOL    HW194812   7.031   6.867   2.940 -1.1748 -1.2688 -0.2208
29894SOL    HW294813   6.928   6.887   3.050  0.1619 -0.8158  0.9701
29895SOL     OW94814   9.321   9.327   5.898 -0.0049  0.1093 -0.7646
29895SOL    HW194815   9.296   9.253   5.842  0.5700 -1.7598  1.3722
29895SOL    HW294816   9.239   9.372   5.917 -0.7772 -1.6469  0.1760
29896SOL     OW94817   9.171   5.410   4.004 -0.2644  0.0342  0.0149
29896SOL    HW194818   9.205   5.488   3.961  1.2987  0.0882  1.3028
29896SOL    HW294819   9.223   5.338   3.968  1.2379  0.1126  1.9843
29897SOL     OW94820   7.045   3.597   6.213  0.3443  0.3140  1.1255
29897SOL    HW194821   7.033   3.691   6.208  0.8295  0.2511 -1.6772
29897SOL    HW294822   6.958   3.561   6.198  0.5658  0.2631 -0.0226
29898SOL     OW94823   2.555   5.967   0.181 -0.1964 -0.0083  0.0001
29898SOL    HW194824   2.637   5.952   0.132  1.5502  2.1431  2.1380
29898SOL    HW294825   2.568   5.920   0.263  0.2618  2.8947  1.6589
29899SOL     OW94826  10.533   9.998   7.097 -0.1265  0.4329  0.0694
29899SOL    HW194827  10.605   9.941   7.125 -0.7111 -1.3927 -2.0234
29899SOL    HW294828  10.562  10.086   7.120  1.2770 -0.5731  2.3862
29900SOL     OW94829   5.302   7.108   4.785 -0.3792 -0.4868  0.4388
29900SOL    HW194830   5.288   7.040   4.720  1.5288 -1.3058  0.8606
29900SOL    HW294831   5.390   7.142   4.767 -0.0754 -0.2950  2.1659
29901SOL     OW94832   6.606   9.412  10.531  0.2097  0.3739  0.5723
29901SOL    HW194833   6.568   9.497  10.507  0.4334  0.1693 -0.5692
29901SOL    HW294834   6.664   9.391  10.457 -1.9970 -2.1101 -0.5229
29902SOL     OW94835  10.853   4.697   2.873  0.3139 -0.3539  0.3076
29902SOL    HW194836  10.842   4.743   2.790  0.4106  0.8228  0.9294
29902SOL    HW294837  10.767   4.699   2.914  1.1003  2.5050  1.9513
29903SOL     OW94838   0.190   0.199   9.035  0.0333  0.0764  0.0343
29903SOL    HW194839   0.160   0.146   8.961 -0.3013  0.5867 -0.2023
29903SOL    HW294840   0.121   0.264   9.048  0.8138  0.9791 -0.2276
29904SOL     OW94841   9.655   5.461   0.252  0.1812 -0.1326 -0.4056
29904SOL    HW194842   9.591   5.499   0.193 -0.1134  0.3172  0.1908
29904SOL    HW294843   9.604   5.406   0.311  0.1178  1.4159  1.0329
29905SOL     OW94844   9.793   7.150   1.818  0.1457 -0.3812  0.2323
29905SOL    HW194845   9.846   7.196   1.883 -0.1319  0.5997 -0.2254
29905SOL    HW294846   9.786   7.212   1.745 -0.8544 -0.8703 -0.0903
29906SOL     OW94847   9.825   1.883   1.948  0.3292 -0.1050  0.1522
29906SOL    HW194848   9.880   1.962   1.957 -0.3868  0.4645 -0.3707
29906SOL    HW294849   9.810   1.854   2.038  1.3485 -0.1669  0.3065
29907SOL     OW94850   4.663   1.978   4.125  0.1632 -0.0339 -0.3516
29907SOL    HW194851   4.572   1.951   4.133  0.5280 -1.1803  0.0167
29907SOL    HW294852   4.714   1.898   4.140  1.2400  0.6680 -0.1619
29908SOL     OW94853   0.787   5.328   3.671  0.5506 -0.3313  0.1464
29908SOL    HW194854   0.710   5.294   3.627  1.4102 -1.6142 -0.4214
29908SOL    HW294855   0.803   5.413   3.631  0.9876 -1.2342 -1.6449
29909SOL     OW94856   6.278   4.750   6.517  0.0088  0.0838  0.0262
29909SOL    HW194857   6.369   4.777   6.505  0.4429 -1.1983  0.4075
29909SOL    HW294858   6.257   4.701   6.437 -0.0605 -0.3891  0.3327
29910SOL     OW94859  10.322   4.337   2.257  0.3073  0.7909  0.1223
29910SOL    HW194860  10.272   4.334   2.176 -0.6681  0.0036  0.7442
29910SOL    HW294861  10.323   4.247   2.288  0.5439  1.1143  1.0724
29911SOL     OW94862   4.458   8.791   6.521 -0.4043 -0.1740  0.2580
29911SOL    HW194863   4.501   8.866   6.479 -0.6414 -1.0334 -1.5427
29911SOL    HW294864   4.365   8.807   6.509 -0.4248 -1.9074 -2.2412
29912SOL     OW94865   1.438   1.464   4.804  0.4123  0.3159 -0.1715
29912SOL    HW194866   1.528   1.467   4.771  0.7357  1.0327  0.7711
29912SOL    HW294867   1.396   1.541   4.766 -0.3768 -1.0920 -2.2264
29913SOL     OW94868   7.962  10.485   5.883  0.1467 -0.4648 -0.2910
29913SOL    HW194869   7.872  10.506   5.858  0.4116  0.3022 -0.6011
29913SOL    HW294870   7.953  10.406   5.937 -0.7297 -0.2779 -0.1481
29914SOL     OW94871   1.559  10.061   0.334  0.7695  0.2073 -0.0236
29914SOL    HW194872   1.536  10.145   0.372  0.7601 -0.2215  0.9406
29914SOL    HW294873   1.607  10.015   0.403 -0.6011 -1.1979  0.0388
29915SOL     OW94874   1.712   0.940  10.281  0.4750 -0.3781  0.0846
29915SOL    HW194875   1.804   0.968  10.285  0.4003 -0.0358 -0.5311
29915SOL    HW294876   1.686   0.958  10.191 -0.4293  0.2747  0.4752
29916SOL     OW94877   0.789   1.937   6.244  0.2462  0.0025  0.0246
29916SOL    HW194878   0.792   1.859   6.188 -0.8227 -0.6490  0.8492
29916SOL    HW294879   0.880   1.968   6.248  0.6354 -1.0603 -0.5059
29917SOL     OW94880   8.580  11.026   3.901 -0.2927 -0.4649 -0.3715
29917SOL    HW194881   8.640  11.045   3.829 -1.0446  0.1804 -0.8347
29917SOL    HW294882   8.598  11.093   3.966  1.1852 -1.7176  0.5612
29918SOL     OW94883   5.917   2.140  11.123  0.2942 -0.1202  0.3539
29918SOL    HW194884   5.964   2.202  11.068  1.3216 -0.3562  0.9483
29918SOL    HW294885   5.867   2.195  11.184 -0.4863  0.1338 -0.5075
29919SOL     OW94886   9.881   4.866   0.946  0.1492 -0.0137 -0.0819
29919SOL    HW194887   9.886   4.870   1.041 -0.3524 -0.7220 -0.0175
29919SOL    HW294888   9.810   4.804   0.929  0.5343 -0.2324 -0.9117
29920SOL     OW94889   6.045   9.407   3.803  0.5598 -0.2012 -0.1768
29920SOL    HW194890   6.105   9.480   3.788 -1.2189  1.7209  1.6524
29920SOL    HW294891   5.976   9.418   3.738  1.1336 -1.2171 -0.9617
29921SOL     OW94892   8.717   2.812   9.128 -0.1226 -0.5693 -0.3485
29921SOL    HW194893   8.653   2.841   9.062 -2.1621 -0.7683  1.4845
29921SOL    HW294894   8.795   2.863   9.108 -1.8901  2.1779 -0.6263
29922SOL     OW94895   0.693   2.687   7.668  0.4685 -0.3763  0.6805
29922SOL    HW194896   0.783   2.717   7.673  0.2470  0.7469 -1.4966
29922SOL    HW294897   0.640   2.761   7.698  0.1614 -0.2066 -0.2588
29923SOL     OW94898   3.211   8.045   3.280  0.2534  0.3083 -0.5817
29923SOL    HW194899   3.188   8.129   3.241  0.1497  0.7642  0.4486
29923SOL    HW294900   3.259   8.068   3.360  0.4683 -0.6125 -0.4365
29924SOL     OW94901   1.708   9.470  10.030 -0.1386 -0.1665  0.2102
29924SOL    HW194902   1.745   9.484  10.117  0.1702 -0.0648  0.0627
29924SOL    HW294903   1.662   9.552  10.010 -0.7125 -0.4060  0.5216
29925SOL     OW94904   9.210   3.197   3.975  0.1011  0.6835 -0.0356
29925SOL    HW194905   9.231   3.284   4.009  2.9675  0.3365 -0.7567
29925SOL    HW294906   9.170   3.151   4.048 -1.6264  2.6295  0.3047
29926SOL     OW94907   1.528  11.011   0.973 -0.0029 -0.5031  0.1042
29926SOL    HW194908   1.507  11.061   1.052 -0.3033 -2.1139  1.0677
29926SOL    HW294909   1.570  10.931   1.006  1.0843 -0.5808 -1.4369
29927SOL     OW94910   2.192  11.237   6.057 -0.0660 -0.3158  0.3193
29927SOL    HW194911   2.129  11.282   6.113 -1.7711 -1.2086 -0.8284
29927SOL    HW294912   2.188  11.284   5.973  2.9380  1.4243  1.0688
29928SOL     OW94913   2.133   5.969   7.444  0.2285  0.0596  0.3967
29928SOL    HW194914   2.166   5.893   7.396 -1.8036 -0.2471 -0.5470
29928SOL    HW294915   2.142   6.042   7.383  0.1769  0.1770  0.5284
29929SOL     OW94916   6.769   6.163   4.274  0.2266  0.5361 -0.7380
29929SOL    HW194917   6.699   6.191   4.333 -0.2140  1.3327 -1.6140
29929SOL    HW294918   6.732   6.174   4.186  1.9416  2.4502 -1.2872
29930SOL     OW94919  10.938   8.449   9.208  0.7123  0.3921 -0.8020
29930SOL    HW194920  10.976   8.453   9.120 -0.4399  1.6183 -1.2681
29930SOL    HW294921  10.875   8.522   9.210 -2.5243 -2.2947 -0.4876
29931SOL     OW94922  10.112   9.601   7.670 -0.8349  0.3573 -0.6847
29931SOL    HW194923  10.112   9.536   7.740 -1.1469  2.3855  1.2549
29931SOL    HW294924  10.041   9.575   7.611 -1.8997 -0.2282  0.8535
29932SOL     OW94925   4.392   4.945   1.668  0.1522 -0.1294  0.0877
29932SOL    HW194926   4.380   4.997   1.589  1.8188 -0.8671 -0.6727
29932SOL    HW294927   4.476   4.900   1.655  0.1033 -0.8169  1.9509
29933SOL     OW94928   8.077   4.538  11.332  0.1428  0.2256 -0.7071
29933SOL    HW194929   8.069   4.563  11.240  1.4529  0.4899 -0.7581
29933SOL    HW294930   7.990   4.554  11.369  0.0962  1.8082 -1.4722
29934SOL     OW94931   7.532   6.489   7.247  0.3680  0.8664  0.4294
29934SOL    HW194932   7.505   6.450   7.164  0.9041  0.5132  0.4165
29934SOL    HW294933   7.525   6.417   7.310  1.3476  0.7383  0.4068
29935SOL     OW94934   6.960   1.965   2.265  0.2214  0.1224  0.2432
29935SOL    HW194935   7.000   2.049   2.286  1.3930 -0.0660 -1.1705
29935SOL    HW294936   6.866   1.984   2.261  0.5001  1.4416 -0.3545
29936SOL     OW94937  10.691   7.657   3.188 -0.0929 -0.2425 -0.1798
29936SOL    HW194938  10.696   7.739   3.138  0.1910 -1.0451 -1.4951
29936SOL    HW294939  10.652   7.682   3.272 -0.6898  1.1106 -0.8477
29937SOL     OW94940   8.026   9.831   4.085  0.1968  0.2966  0.0266
29937SOL    HW194941   8.075   9.876   4.154  1.7742  0.2208 -1.0139
29937SOL    HW294942   7.942   9.808   4.126  1.2644 -0.1309  2.0609
29938SOL     OW94943   8.105   1.196   9.080 -0.1193  0.1754  0.3606
29938SOL    HW194944   8.150   1.139   9.018  1.4227 -0.0649  1.6470
29938SOL    HW294945   8.136   1.284   9.059 -1.2090  0.3524 -0.5430
29939SOL     OW94946   1.814  10.607  10.092  0.1889  0.4381  0.4844
29939SOL    HW194947   1.784  10.681  10.039  1.3179  0.8466  0.3874
29939SOL    HW294948   1.750  10.600  10.162 -0.7210  0.5887 -0.3305
29940SOL     OW94949   9.373   8.357   6.303 -0.2966  0.0352  0.0168
29940SOL    HW194950   9.440   8.326   6.364 -0.4684 -1.1202 -0.3646
29940SOL    HW294951   9.377   8.296   6.230 -1.1407  0.5041 -0.4314
29941SOL     OW94952   4.663   8.615   7.783  0.5904  0.3170  0.5864
29941SOL    HW194953   4.610   8.550   7.829  1.5838  0.1646  1.5332
29941SOL    HW294954   4.601   8.659   7.724  0.0453 -1.8550 -0.4885
29942SOL     OW94955   3.953   2.583   0.804 -0.5693  0.0612  0.0967
29942SOL    HW194956   3.886   2.651   0.812 -0.8992 -0.3991  1.3527
29942SOL    HW294957   4.028   2.618   0.852  0.1570  0.6431 -1.4367
29943SOL     OW94958   3.535   9.068   0.611  0.0475  0.2581 -0.4368
29943SOL    HW194959   3.540   9.025   0.696  2.2899  1.0727 -0.1094
29943SOL    HW294960   3.470   9.018   0.562 -2.3801  0.7007  2.2381
29944SOL     OW94961   3.896   4.458   1.411 -0.1432  0.0714 -0.4008
29944SOL    HW194962   3.807   4.423   1.405 -0.7771  1.3717  1.1546
29944SOL    HW294963   3.938   4.432   1.329 -1.6378 -1.4240 -0.7123
29945SOL     OW94964   1.177   7.902   3.143  0.0918  0.2433  0.0891
29945SOL    HW194965   1.111   7.882   3.209 -1.0244  1.6035 -0.5983
29945SOL    HW294966   1.247   7.945   3.191 -0.1322  0.0467  0.5949
29946SOL     OW94967   6.911  10.430   2.934 -0.0351  0.0629  0.1503
29946SOL    HW194968   6.947  10.355   2.886 -0.4382  0.1669 -0.3215
29946SOL    HW294969   6.987  10.473   2.972  0.1884 -0.6425  0.5098
29947SOL     OW94970   0.569   1.646   3.925  0.4264  0.4113 -0.0868
29947SOL    HW194971   0.619   1.663   4.005  0.0561  0.7144  0.0772
29947SOL    HW294972   0.571   1.728   3.877  1.4810 -0.0527 -0.8500
29948SOL     OW94973   6.563   8.391   2.942  0.3294  0.0343 -0.3071
29948SOL    HW194974   6.506   8.352   3.008  1.7453 -2.4791 -0.5113
29948SOL    HW294975   6.641   8.418   2.990 -0.0230  1.3311 -0.4224
29949SOL     OW94976   8.153   6.828   8.325 -0.2295 -0.0226  0.0154
29949SOL    HW194977   8.097   6.839   8.401  0.6679  0.1277  0.6573
29949SOL    HW294978   8.222   6.767   8.353 -0.0284 -0.1588 -0.7401
29950SOL     OW94979   6.212  11.249   1.042  0.0303  0.4755  0.1951
29950SOL    HW194980   6.121  11.276   1.029 -0.7986 -2.3814 -0.2436
29950SOL    HW294981   6.247  11.242   0.953  0.2974  0.2991  0.3146
29951SOL     OW94982   9.750   4.398   8.409 -0.2519  0.5486 -0.3177
29951SOL    HW194983   9.778   4.401   8.500 -2.6764 -0.2138  0.4984
29951SOL    HW294984   9.727   4.488   8.388 -1.0540  0.4931  0.2945
29952SOL     OW94985   1.998  10.692  10.800 -0.1682 -0.7475  0.1435
29952SOL    HW194986   1.906  10.670  10.813 -0.6862  0.3633 -1.3993
29952SOL    HW294987   2.047  10.618  10.837 -1.7642 -3.1510 -2.3008
29953SOL     OW94988   3.521   0.886   0.808  0.0810  0.3590 -0.2650
29953SOL    HW194989   3.437   0.914   0.846 -1.1047 -1.2195 -1.6427
29953SOL    HW294990   3.560   0.966   0.774 -0.8142  1.1273  0.4714
29954SOL     OW94991   7.470   6.449   1.482  0.4826 -0.0415 -0.0169
29954SOL    HW194992   7.400   6.391   1.453  0.5587 -1.0792  1.7702
29954SOL    HW294993   7.494   6.499   1.404 -1.3407 -0.5909 -0.9722
29955SOL     OW94994   0.877   4.424   6.437  0.7510 -0.1873 -0.0241
29955SOL    HW194995   0.933   4.396   6.509  2.8605 -0.4552 -1.7183
29955SOL    HW294996   0.869   4.519   6.448  0.4823 -0.3189  0.9530
29956SOL     OW94997   8.082   9.671   5.821 -0.2293 -0.1394  0.3829
29956SOL    HW194998   8.045   9.741   5.767 -1.1698 -1.0614 -0.1900
29956SOL    HW294999   8.150   9.714   5.872 -0.2782  1.0385 -0.5153
29957SOL     OW95000   2.082   4.170   8.162  0.1761 -0.8511 -0.0872
29957SOL    HW195001   2.066   4.142   8.252 -2.4688 -1.6188 -0.7586
29957SOL    HW295002   2.088   4.265   8.168  3.3420 -1.0612  1.3372
29958SOL     OW95003  10.611   8.010   8.760  0.1771  0.1543  0.3840
29958SOL    HW195004  10.643   7.995   8.849  0.2585 -0.0508  0.3208
29958SOL    HW295005  10.561   7.931   8.739  0.8106 -0.1403 -0.0438
29959SOL     OW95006  10.072   0.591   3.155 -0.1869  0.4103 -0.1162
29959SOL    HW195007  10.039   0.670   3.197 -2.1871 -0.2766 -0.3646
29959SOL    HW295008  10.123   0.547   3.222 -0.8223  0.8539  0.6599
29960SOL     OW95009   4.308  10.983   2.375 -0.1928  0.6240  0.3075
29960SOL    HW195010   4.244  11.041   2.335  0.2596  1.4153  0.7084
29960SOL    HW295011   4.281  10.895   2.350 -0.6154  1.0392 -0.7060
29961SOL     OW95012   2.527   1.353   8.808 -0.0122 -0.2593 -0.0602
29961SOL    HW195013   2.602   1.390   8.856  0.1564 -0.1984 -0.3690
29961SOL    HW295014   2.462   1.423   8.809  0.3257  0.0620 -0.6857
29962SOL     OW95015  11.157  10.858   5.011 -0.8365 -0.4296 -0.3916
29962SOL    HW195016  11.165  10.935   5.066 -0.3605 -2.4691  2.4878
29962SOL    HW295017  11.063  10.841   5.007 -0.7862 -0.9756  0.7821
29963SOL     OW95018   3.874   6.220   3.095 -0.1612  0.1650  0.2762
29963SOL    HW195019   3.881   6.190   3.186 -1.1804  0.8863  0.6046
29963SOL    HW295020   3.793   6.271   3.093  0.1650  0.6513 -0.9017
29964SOL     OW95021   6.623  10.577   2.928 -0.3184 -0.8444  0.3520
29964SOL    HW195022   6.655  10.552   3.014  0.6242  0.1800  0.3134
29964SOL    HW295023   6.701  10.606   2.881 -1.0813  0.3109 -0.2291
29965SOL     OW95024   2.663   0.483   5.403  0.4401  0.1313  0.4391
29965SOL    HW195025   2.644   0.553   5.466  1.8961  0.0295  1.0095
29965SOL    HW295026   2.669   0.528   5.318  1.5481  0.7213  0.8318
29966SOL     OW95027   9.003   9.646   1.861  0.0801 -0.0108  0.0203
29966SOL    HW195028   9.050   9.603   1.790 -0.5976  0.0781 -0.4846
29966SOL    HW295029   9.060   9.719   1.886  0.5938 -0.3907 -0.0299
29967SOL     OW95030   5.148   2.024   8.124 -0.1274  0.5315 -0.1326
29967SOL    HW195031   5.157   2.001   8.032  1.3113  0.9256 -0.0960
29967SOL    HW295032   5.207   1.964   8.170  2.4554  3.1310  0.1167
29968SOL     OW95033   9.931   0.724   8.841  0.1161 -0.4134 -0.0879
29968SOL    HW195034   9.950   0.656   8.906  1.0795  0.2784  0.3729
29968SOL    HW295035   9.837   0.742   8.851  0.4889  0.5119  1.9386
29969SOL     OW95036   8.882   8.990   5.165  0.1888 -0.5908  0.0908
29969SOL    HW195037   8.912   8.988   5.074 -2.0795  1.4051 -0.7623
29969SOL    HW295038   8.805   8.932   5.166 -0.5580  0.3855  0.4039
29970SOL     OW95039  10.986   5.224   2.977 -0.0063 -0.1193  0.1745
29970SOL    HW195040  10.938   5.167   2.917  0.5663 -1.9043  1.3561
29970SOL    HW295041  11.073   5.185   2.983  0.9194  1.8257 -0.2321
29971SOL     OW95042  10.771   9.056   8.942 -0.3411 -1.0901  0.0786
29971SOL    HW195043  10.772   8.980   8.885  0.4015 -0.3316 -0.9460
29971SOL    HW295044  10.685   9.096   8.928  0.0821 -0.5387 -1.0336
29972SOL     OW95045   3.570   0.569   7.387 -0.3663  0.2431 -0.4426
29972SOL    HW195046   3.665   0.559   7.396 -0.7429 -2.1109  1.2633
29972SOL    HW295047   3.550   0.526   7.304 -0.2516 -1.5228  0.4303
29973SOL     OW95048   3.859   9.360   1.775 -0.0316  0.7204  0.2891
29973SOL    HW195049   3.817   9.328   1.695  1.1156 -2.6196  0.9497
29973SOL    HW295050   3.796   9.421   1.813 -1.5784  0.5696 -1.9444
29974SOL     OW95051  11.008   4.930  10.174  0.0572 -0.2587 -0.3667
29974SOL    HW195052  10.942   4.957  10.239 -0.8076  0.7833 -1.6653
29974SOL    HW295053  11.088   4.917  10.225 -0.9217 -0.6669  1.1040
29975SOL     OW95054  11.091  10.270   1.357 -0.1849 -0.2224  0.0420
29975SOL    HW195055  11.000  10.288   1.333 -0.3689 -1.4991 -0.2829
29975SOL    HW295056  11.124  10.216   1.286 -0.0832 -2.2653  1.5720
29976SOL     OW95057   4.604  10.113   1.412 -0.1201  0.1300 -0.0090
29976SOL    HW195058   4.660  10.182   1.448  0.4159  0.1401 -0.8426
29976SOL    HW295059   4.620  10.037   1.468  2.6180 -0.6001 -1.6718
29977SOL     OW95060   5.153   1.848   2.361 -0.2720  0.8315  0.2175
29977SOL    HW195061   5.106   1.876   2.440 -2.2098 -1.0503 -0.2098
29977SOL    HW295062   5.161   1.928   2.309 -3.2572  1.2121  0.2294
29978SOL     OW95063   3.220  10.345   0.629 -0.5891 -0.0559 -0.3185
29978SOL    HW195064   3.260  10.360   0.714 -0.5170  1.9841 -0.7027
29978SOL    HW295065   3.217  10.249   0.620  1.6068 -0.2491  0.9104
29979SOL     OW95066   0.521   4.519   9.754 -0.1414  0.3813  0.3388
29979SOL    HW195067   0.550   4.559   9.671 -0.2609  0.4691  0.3388
29979SOL    HW295068   0.426   4.514   9.746 -0.1896  0.7824  0.6453
29980SOL     OW95069   8.944   2.141   8.141 -0.5170  0.6991  0.1948
29980SOL    HW195070   8.852   2.153   8.161 -1.0443 -2.0051 -0.5384
29980SOL    HW295071   8.987   2.133   8.227 -1.2520 -0.2085  0.4732
29981SOL     OW95072   4.738   2.761   3.177 -1.5827  0.1758  0.1450
29981SOL    HW195073   4.673   2.692   3.161 -2.1672  0.4534  1.2582
29981SOL    HW295074   4.739   2.812   3.096 -2.1139 -0.3500 -0.2021
29982SOL     OW95075   7.046   5.635   8.654  0.4709 -0.4086  0.3413
29982SOL    HW195076   7.126   5.685   8.673  0.0833 -0.2197  1.5010
29982SOL    HW295077   7.037   5.574   8.728  0.7622 -1.9863 -0.8976
29983SOL     OW95078   0.365  10.330   7.841 -0.0166  0.0578  0.1075
29983SOL    HW195079   0.274  10.326   7.870 -0.2139  0.8209 -0.4155
29983SOL    HW295080   0.368  10.401   7.777  0.6643 -0.8534 -0.8974
29984SOL     OW95081   8.864   1.442   2.498  0.5791  0.1250 -0.1524
29984SOL    HW195082   8.776   1.434   2.536  0.7722  1.5042  0.6249
29984SOL    HW295083   8.852   1.502   2.424  0.9639  0.7957  0.3222
29985SOL     OW95084   3.139   6.944  10.570  0.1210 -0.0797 -0.8373
29985SOL    HW195085   3.073   7.002  10.607 -0.8575 -1.7370  0.0288
29985SOL    HW295086   3.192   6.917  10.645  0.8930  0.0902 -1.3129
29986SOL     OW95087   1.818   6.721  10.249 -0.4532 -0.2297  0.6576
29986SOL    HW195088   1.833   6.769  10.168 -1.8046  1.0039  1.1129
29986SOL    HW295089   1.771   6.642  10.223 -1.0251  0.2419  0.2692
29987SOL     OW95090   5.016   5.928   2.372 -0.5638  0.8599  0.6088
29987SOL    HW195091   4.929   5.899   2.398 -0.6874  1.2003  0.5792
29987SOL    HW295092   5.023   6.017   2.406 -0.9575  1.5313 -1.0331
29988SOL     OW95093   0.384   9.524   4.565  0.1864 -0.1835 -0.0727
29988SOL    HW195094   0.354   9.567   4.645  1.2030 -0.5595  0.5112
29988SOL    HW295095   0.330   9.563   4.496 -1.1143 -0.2981  0.8657
29989SOL     OW95096   5.153   9.046  10.156  0.4709 -0.5160  0.4458
29989SOL    HW195097   5.076   9.067  10.103 -0.2787 -1.4877  1.1464
29989SOL    HW295098   5.192   9.131  10.177 -0.2961 -0.0378 -0.0686
29990SOL     OW95099   5.007   1.456   2.990  0.1178  0.0226 -0.1088
29990SOL    HW195100   5.042   1.543   3.008  1.4452 -0.4451 -0.3867
29990SOL    HW295101   5.074   1.396   3.021 -0.7650 -0.9128  0.0337
29991SOL     OW95102   4.276   1.101   5.664 -0.1580  0.8495 -0.3314
29991SOL    HW195103   4.209   1.065   5.721  0.8676 -0.0170  0.3461
29991SOL    HW295104   4.246   1.081   5.575  0.1314 -1.2173  0.0225
29992SOL     OW95105   5.451  10.708   8.786  0.0716  0.1341  0.0520
29992SOL    HW195106   5.544  10.697   8.771  0.4047  1.2138  1.2034
29992SOL    HW295107   5.433  10.658   8.866 -0.5778 -1.0323 -0.8076
29993SOL     OW95108  11.006   3.296   4.122  0.5704  0.2544  0.4218
29993SOL    HW195109  11.038   3.220   4.170 -0.9648 -1.2953 -0.9536
29993SOL    HW295110  11.006   3.269   4.030 -1.9424  1.1935  0.1154
29994SOL     OW95111   9.954  11.207   1.782  0.0519  0.0926 -0.1431
29994SOL    HW195112  10.008  11.139   1.742 -1.5096 -1.6594  0.6692
29994SOL    HW295113   9.890  11.230   1.715 -0.2377 -0.1947  0.0301
29995SOL     OW95114   6.772   8.670   9.537 -0.4919  0.2578  0.8556
29995SOL    HW195115   6.803   8.759   9.549 -0.6691  0.3765  0.4448
29995SOL    HW295116   6.803   8.623   9.614 -1.5951  0.9963  1.7859
29996SOL     OW95117   8.564   2.920  11.009 -0.0261 -0.2699  0.4085
29996SOL    HW195118   8.470   2.936  11.017  0.2256  1.5696 -0.2444
29996SOL    HW295119   8.576   2.833  11.048 -2.3521 -1.6321 -1.7149
29997SOL     OW95120   7.097   6.798   1.278 -0.1150 -0.3580 -0.6100
29997SOL    HW195121   7.108   6.753   1.361 -0.8773  0.7143  0.0817
29997SOL    HW295122   7.003   6.796   1.261 -0.2095  1.3828 -0.3338
29998SOL     OW95123   9.809   3.781   0.547 -0.1905 -0.3873  0.7833
29998SOL    HW195124   9.714   3.773   0.553 -0.3197 -1.1304 -1.5980
29998SOL    HW295125   9.826   3.874   0.557 -1.4451  0.1317 -1.5899
29999SOL     OW95126   8.355   5.116  10.560 -0.0016  0.0126  0.2486
29999SOL    HW195127   8.402   5.092  10.480  1.2372  0.6984  0.7624
29999SOL    HW295128   8.386   5.054  10.626 -1.6303 -1.0778  0.0183
30000SOL     OW95129   2.877   5.978  10.965  0.2009  0.2971 -0.3384
30000SOL    HW195130   2.952   5.949  11.017 -0.1160 -1.3660 -0.8046
30000SOL    HW295131   2.915   6.018  10.887  0.6013 -0.0508 -0.3166
30001SOL     OW95132   1.182   9.457   7.334 -0.1876  0.3208  0.0691
30001SOL    HW195133   1.218   9.383   7.382 -1.4478  0.1499  0.7646
30001SOL    HW295134   1.223   9.534   7.375  1.2057  0.0155 -0.7319
30002SOL     OW95135   2.591  11.242   2.790 -0.5064 -0.2583 -0.3813
30002SOL    HW195136   2.513  11.187   2.789 -0.5020 -0.2716 -1.6258
30002SOL    HW295137   2.558  11.331   2.791 -0.6639 -0.1557 -4.6554
30003SOL     OW95138   1.128  10.291   1.709 -0.4831  0.0474  0.0141
30003SOL    HW195139   1.160  10.234   1.778 -2.3160  1.0119  1.7055
30003SOL    HW295140   1.062  10.240   1.664  2.1307 -1.3340 -2.4107
30004SOL     OW95141   1.574   4.338   8.377 -0.0460 -0.3225 -0.2761
30004SOL    HW195142   1.611   4.316   8.463 -1.3290 -1.3786  0.0251
30004SOL    HW295143   1.483   4.308   8.382 -0.1775 -0.2273 -1.9464
30005SOL     OW95144  10.567  10.275   8.977  0.1179  0.3423 -0.1933
30005SOL    HW195145  10.609  10.360   8.986 -0.8561  0.9379 -1.1992
30005SOL    HW295146  10.637  10.211   8.991  0.9206  1.3128  0.1954
30006SOL     OW95147   7.408   5.895   2.134  0.1815  0.0226 -1.0812
30006SOL    HW195148   7.406   5.834   2.207  0.6860  0.3773 -0.7613
30006SOL    HW295149   7.350   5.857   2.068 -2.4671  1.0587  0.5799
30007SOL     OW95150   6.708  10.151   3.049 -0.3483 -0.3332  0.3082
30007SOL    HW195151   6.749  10.065   3.059 -1.2793 -0.6529  1.4980
30007SOL    HW295152   6.752  10.205   3.115 -1.3478 -0.4966  1.1124
30008SOL     OW95153   6.648   7.695   8.249  0.6108  0.0457 -0.1367
30008SOL    HW195154   6.672   7.742   8.328  0.5631  1.7488 -1.1056
30008SOL    HW295155   6.698   7.737   8.179  2.1932 -2.7259 -0.7613
30009SOL     OW95156   3.394   6.463   2.600  0.1079  0.0428 -0.6350
30009SOL    HW195157   3.418   6.554   2.584  0.6258  0.2126  1.0400
30009SOL    HW295158   3.391   6.455   2.695 -0.8543 -1.4575 -0.7801
30010SOL     OW95159   4.048   5.953   1.480 -0.5828  0.2889 -0.2883
30010SOL    HW195160   4.135   5.990   1.465 -0.0663 -0.4068  0.9431
30010SOL    HW295161   4.064   5.861   1.500 -1.4152  0.6222  2.0446
30011SOL     OW95162  10.059   1.476   3.579 -0.0730 -0.2293 -0.5646
30011SOL    HW195163  10.135   1.528   3.553 -0.8713  0.7147 -1.0416
30011SOL    HW295164  10.093   1.416   3.646  0.7863  1.1887  0.2941
30012SOL     OW95165   2.351  10.893   0.841  0.0223  0.6133 -0.0362
30012SOL    HW195166   2.309  10.864   0.760  1.0999  1.5453 -0.9394
30012SOL    HW295167   2.443  10.873   0.830  0.1664  0.6616  1.0047
30013SOL     OW95168   9.977   0.997  10.882 -0.3647  0.4626  0.5291
30013SOL    HW195169  10.032   1.024  10.955 -0.9515  0.8019  0.8438
30013SOL    HW295170   9.917   0.933  10.919 -0.7222  0.7015  0.3696
30014SOL     OW95171   4.377   2.092   5.585 -0.0702 -0.1856  0.8528
30014SOL    HW195172   4.293   2.119   5.623 -1.4309 -2.5989 -0.2624
30014SOL    HW295173   4.355   2.013   5.534  2.4686  0.4432 -1.3204
30015SOL     OW95174  11.227   8.856   4.218 -0.5574 -0.0186  0.2572
30015SOL    HW195175  11.168   8.783   4.198  0.2763 -0.0077 -2.4129
30015SOL    HW295176  11.174   8.935   4.202 -1.0328 -0.0111  1.7982
30016SOL     OW95177   9.846   6.899   8.924  0.2509  0.0041 -0.3279
30016SOL    HW195178   9.852   6.993   8.941 -0.2452  0.0989 -0.6759
30016SOL    HW295179   9.795   6.892   8.844  0.3145 -0.5634 -0.3182
30017SOL     OW95180   8.003   0.154   8.665 -0.4275 -0.3954  0.2304
30017SOL    HW195181   8.034   0.220   8.603 -1.7856  0.7625  0.7416
30017SOL    HW295182   8.055   0.170   8.744  0.3548 -0.9833 -0.1637
30018SOL     OW95183   5.776   4.689   3.030  0.2535 -0.9580  0.0079
30018SOL    HW195184   5.781   4.599   2.998 -0.8179 -0.7245 -0.8621
30018SOL    HW295185   5.701   4.689   3.089  1.1614 -0.9786  1.1664
30019SOL     OW95186   1.556   9.378   0.712 -0.0025  0.3073  0.0255
30019SOL    HW195187   1.546   9.409   0.803  1.7658 -0.6193  0.5654
30019SOL    HW295188   1.505   9.297   0.709 -0.7802  0.7913 -0.0690
30020SOL     OW95189   7.078   2.572   3.412  0.7476  0.0752 -0.4704
30020SOL    HW195190   7.150   2.558   3.350 -1.0521  0.3880 -2.6758
30020SOL    HW295191   7.071   2.667   3.419  0.8321  0.0411  0.0977
30021SOL     OW95192   1.041   4.668   3.582 -0.1240  0.1410 -0.5623
30021SOL    HW195193   1.134   4.688   3.570 -0.4594  1.1321 -1.4775
30021SOL    HW295194   0.998   4.705   3.506 -1.4072  0.5327  0.3384
30022SOL     OW95195   5.744  11.150   6.200 -0.1101  0.0213 -0.4729
30022SOL    HW195196   5.754  11.131   6.293  1.8430 -1.0471 -0.8921
30022SOL    HW295197   5.668  11.209   6.197  0.1173  0.5030  1.8310
30023SOL     OW95198  10.797   2.253   4.469  0.1597 -0.1818 -0.6427
30023SOL    HW195199  10.766   2.162   4.475  0.0473 -0.0126  1.6202
30023SOL    HW295200  10.875   2.255   4.524  0.1081  1.1257 -0.6135
30024SOL     OW95201   3.146   2.282   5.996  0.0697  0.4626 -0.4472
30024SOL    HW195202   3.100   2.366   5.992 -0.0049  0.4751  0.4920
30024SOL    HW295203   3.110   2.232   5.922 -0.7453  0.8313 -0.3104
30025SOL     OW95204   0.393   5.127   0.768  0.1020 -0.1816  0.4715
30025SOL    HW195205   0.441   5.045   0.753 -0.5384 -0.3087 -0.9917
30025SOL    HW295206   0.315   5.100   0.816  1.0899 -0.0799  2.1665
30026SOL     OW95207   8.698   3.757  10.658 -0.2228 -0.3081  0.4657
30026SOL    HW195208   8.732   3.747  10.747 -0.5806 -0.0928  0.6278
30026SOL    HW295209   8.762   3.712  10.603  0.7391  0.7654  0.6785
30027SOL     OW95210   3.141  10.304   5.864  0.4959 -0.1402  0.1776
30027SOL    HW195211   3.222  10.346   5.835  0.6180 -0.0349  0.6672
30027SOL    HW295212   3.071  10.352   5.821  0.6979 -0.2943 -0.3264
30028SOL     OW95213   8.613   4.111   3.719 -0.1255 -0.3792  0.3655
30028SOL    HW195214   8.584   4.025   3.748 -0.1240 -0.2256  0.8246
30028SOL    HW295215   8.579   4.119   3.630  3.0160 -2.3737 -1.1289
30029SOL     OW95216   0.096   4.126   4.757  0.0816 -0.1976  0.3449
30029SOL    HW195217   0.146   4.044   4.747  0.1272 -0.4462  2.4675
30029SOL    HW295218   0.005   4.098   4.763 -0.0199  0.0159 -0.1276
30030SOL     OW95219   3.678   4.778   2.439 -0.7088 -0.3553  0.2643
30030SOL    HW195220   3.644   4.836   2.371  0.1983  0.6965  0.7009
30030SOL    HW295221   3.619   4.703   2.437 -0.7310 -0.3231 -1.6518
30031SOL     OW95222  10.672   9.191   7.056 -0.1380  0.4267 -0.0725
30031SOL    HW195223  10.614   9.260   7.089  0.3914  1.0624 -0.4512
30031SOL    HW295224  10.696   9.220   6.968 -0.0896 -0.3533 -0.3193
30032SOL     OW95225   3.828   3.560   8.401 -0.1228 -0.0122 -0.2237
30032SOL    HW195226   3.852   3.643   8.442  2.0246 -0.3397 -0.7446
30032SOL    HW295227   3.740   3.574   8.368 -1.1158  0.9311  2.6561
30033SOL     OW95228   8.885   1.498   0.500 -0.3226  0.0938  1.2577
30033SOL    HW195229   8.809   1.508   0.443 -0.4223 -1.6164  1.0440
30033SOL    HW295230   8.873   1.563   0.569 -0.1413  2.2777 -0.7032
30034SOL     OW95231   5.377   5.802   9.499  0.1080  0.1350  0.5640
30034SOL    HW195232   5.368   5.757   9.415 -1.6582 -1.1802  1.4247
30034SOL    HW295233   5.461   5.771   9.533  0.2553 -0.2760 -0.1627
30035SOL     OW95234  11.044   6.968   1.629  0.1362 -0.3710  0.0304
30035SOL    HW195235  11.022   7.060   1.610  0.7999 -0.2490 -0.1656
30035SOL    HW295236  10.962   6.921   1.618 -0.3572  0.3053  0.8045
30036SOL     OW95237   7.299   7.316   3.108 -0.1460 -0.6072 -0.7289
30036SOL    HW195238   7.299   7.331   3.014  0.8566  2.3708 -0.2981
30036SOL    HW295239   7.378   7.358   3.140 -1.0733 -0.5192  1.6010
30037SOL     OW95240   0.931   3.767   8.790  0.1743  0.3161  0.0849
30037SOL    HW195241   0.972   3.729   8.868  1.1024 -0.2431 -0.6693
30037SOL    HW295242   1.003   3.807   8.742 -0.2459 -0.2066 -0.9954
30038SOL     OW95243  10.309   3.113   3.542 -0.3804 -0.0821 -0.1673
30038SOL    HW195244  10.271   3.195   3.513 -1.1759 -0.7843 -1.1105
30038SOL    HW295245  10.238   3.068   3.589  0.4628  0.3957  1.6277
30039SOL     OW95246   7.820   5.856   6.637  0.3454  0.1045  0.2233
30039SOL    HW195247   7.806   5.817   6.723 -0.2094  0.1542  0.1550
30039SOL    HW295248   7.770   5.802   6.577 -0.2166  0.7608  0.0948
30040SOL     OW95249   5.429   6.438   1.943  0.7442 -0.5241 -0.0544
30040SOL    HW195250   5.504   6.405   1.894  0.1124 -2.3295  0.1735
30040SOL    HW295251   5.465   6.461   2.029  1.1057 -0.9942 -0.0790
30041SOL     OW95252   4.795   2.770   6.659  0.0813 -0.0509 -0.4599
30041SOL    HW195253   4.816   2.860   6.635  0.4507 -0.3801 -1.3802
30041SOL    HW295254   4.735   2.779   6.733  0.7539  0.9431 -0.0120
30042SOL     OW95255   1.214   3.513   3.171 -0.6533 -0.1609 -0.0076
30042SOL    HW195256   1.251   3.532   3.258  0.8348 -2.2958 -0.1246
30042SOL    HW295257   1.241   3.587   3.117 -0.7395  0.7030  1.1156
30043SOL     OW95258   5.158   0.208   9.544 -0.0399 -0.4987 -0.2133
30043SOL    HW195259   5.144   0.121   9.581  0.2314 -0.9368 -1.1185
30043SOL    HW295260   5.240   0.200   9.495  0.9630  0.7832  1.2252
30044SOL     OW95261   8.840   7.255   7.772 -0.0693  0.3025 -0.2376
30044SOL    HW195262   8.904   7.187   7.748 -0.8153  0.0854 -1.6619
30044SOL    HW295263   8.772   7.207   7.821 -0.3379  0.1079 -0.7975
30045SOL     OW95264   3.681   5.338   5.964 -0.0225 -0.1832  0.2371
30045SOL    HW195265   3.648   5.365   6.050  0.0207  0.4412  0.0644
30045SOL    HW295266   3.622   5.268   5.937  1.1449 -1.7375  1.6269
30046SOL     OW95267   8.199   2.942   6.791  0.3162 -0.1682  0.2067
30046SOL    HW195268   8.294   2.952   6.789  0.4698 -1.5718 -0.4067
30046SOL    HW295269   8.179   2.889   6.713 -0.8214 -1.0744  1.0983
30047SOL     OW95270  10.212   2.753   4.091 -0.0983 -0.0750 -0.0420
30047SOL    HW195271  10.259   2.780   4.012 -1.4325  0.4660 -0.6624
30047SOL    HW295272  10.258   2.674   4.120  2.3883  1.5070  0.4730
30048SOL     OW95273   2.279  10.481   3.462 -0.0287  0.2212 -0.0740
30048SOL    HW195274   2.315  10.452   3.546 -1.0889  0.4155  0.4523
30048SOL    HW295275   2.186  10.498   3.480 -0.3926 -0.2923 -1.4183
30049SOL     OW95276   5.227   2.744   7.669  0.1302 -0.1507  0.1875
30049SOL    HW195277   5.167   2.669   7.671 -2.2540  1.6627 -0.0188
30049SOL    HW295278   5.313   2.706   7.653 -1.1168 -2.7803 -0.5692
30050SOL     OW95279   2.365   9.672   2.785  0.5555  0.7649  0.5064
30050SOL    HW195280   2.317   9.727   2.847 -0.2627 -1.4273  1.8676
30050SOL    HW295281   2.298   9.637   2.727  1.0515  1.0619 -0.2514
30051SOL     OW95282   1.845   2.540   2.778 -0.5107  0.1394 -0.2598
30051SOL    HW195283   1.807   2.497   2.701 -1.6332 -1.3875  1.1308
30051SOL    HW295284   1.902   2.608   2.741  0.0028 -1.4259 -2.4776
30052SOL     OW95285   6.534   7.374  10.655 -0.1561 -0.3532 -0.1616
30052SOL    HW195286   6.476   7.371  10.731 -2.0753  0.0546 -1.5546
30052SOL    HW295287   6.505   7.301  10.600 -1.6611  1.9006 -2.4611
30053SOL     OW95288   9.083   4.274   4.817 -0.7264  0.4041  0.0417
30053SOL    HW195289   9.051   4.333   4.885 -2.1732  0.3405 -0.5520
30053SOL    HW295290   9.109   4.195   4.864 -3.7956 -0.4801  0.3567
30054SOL     OW95291   3.213   3.402   7.595  0.0662  0.7458  0.0156
30054SOL    HW195292   3.165   3.397   7.678 -1.5773  1.3285 -0.8768
30054SOL    HW295293   3.157   3.356   7.532  1.6099 -0.2742 -0.6442
30055SOL     OW95294   3.799   4.510   5.221  0.4620  0.3627  0.2656
30055SOL    HW195295   3.832   4.597   5.243  2.6648 -0.5553  0.7802
30055SOL    HW295296   3.795   4.464   5.305 -0.1394 -0.1990 -0.0716
30056SOL     OW95297   6.186   5.690   0.446  0.2400  0.5703  0.0447
30056SOL    HW195298   6.102   5.714   0.486  1.1098  2.0029  1.0294
30056SOL    HW295299   6.174   5.598   0.421 -1.7946  0.8955 -0.2751
30057SOL     OW95300   7.693   4.364   1.569 -0.6167 -0.1817  0.1234
30057SOL    HW195301   7.653   4.294   1.620  2.6615 -0.9696  1.7328
30057SOL    HW295302   7.744   4.415   1.633 -0.5625  1.8892 -1.5103
30058SOL     OW95303   6.733   6.028   0.058 -0.8057 -0.3319 -0.6114
30058SOL    HW195304   6.684   6.069   0.129 -0.7811 -0.9730 -0.2178
30058SOL    HW295305   6.668   6.007  -0.008 -0.9490 -0.4757 -0.4244
30059SOL     OW95306   0.159   4.102   7.485  0.3212  0.0492 -0.4664
30059SOL    HW195307   0.218   4.176   7.500 -0.4236  0.2157  1.8524
30059SOL    HW295308   0.216   4.026   7.479  0.8743  0.3771  0.5319
30060SOL     OW95309   8.344   5.257   0.058 -0.6404  0.4998 -0.2026
30060SOL    HW195310   8.256   5.281   0.028 -0.0918  1.1286 -1.3727
30060SOL    HW295311   8.373   5.332   0.109  0.6779  2.0130 -3.0179
30061SOL     OW95312   9.577   2.504  10.507  0.6621 -1.1771  0.0878
30061SOL    HW195313   9.496   2.463  10.476 -0.1414  1.4956 -1.5361
30061SOL    HW295314   9.548   2.571  10.569  1.7770 -1.5316  0.9963
30062SOL     OW95315   5.320   6.572   0.607 -0.0064 -0.5820  0.3029
30062SOL    HW195316   5.372   6.518   0.667  1.1847  0.4965  0.2878
30062SOL    HW295317   5.356   6.552   0.520 -0.9844 -1.3216  0.0639
30063SOL     OW95318   4.607   9.328   9.432  0.2526  0.1263 -0.1317
30063SOL    HW195319   4.623   9.250   9.486 -1.4758  0.2557  0.5941
30063SOL    HW295320   4.648   9.308   9.348 -0.6898 -1.8268 -0.1576
30064SOL     OW95321  10.269   5.055   7.830  0.1764 -0.0683  0.2327
30064SOL    HW195322  10.211   4.985   7.801 -0.5277  0.0633  1.2944
30064SOL    HW295323  10.228   5.089   7.910  0.6221  1.4079 -0.1493
30065SOL     OW95324   2.202   6.712   2.963  0.2452 -0.0251 -0.0919
30065SOL    HW195325   2.194   6.805   2.981  1.6152  0.0387  0.2694
30065SOL    HW295326   2.283   6.686   3.008  1.1704 -0.8810 -2.2180
30066SOL     OW95327   2.324   8.111   2.964 -0.0125 -0.1944 -0.0481
30066SOL    HW195328   2.237   8.106   3.005  1.0248  1.6645  2.5143
30066SOL    HW295329   2.352   8.020   2.956 -0.8070 -0.6803  2.2628
30067SOL     OW95330  11.208   2.472   6.389  0.2354 -0.1773 -0.6899
30067SOL    HW195331  11.200   2.505   6.479  0.4575 -0.6858 -0.4780
30067SOL    HW295332  11.175   2.382   6.394 -0.7705  0.1554 -1.3478
30068SOL     OW95333   2.379   3.428   2.908 -0.2300 -0.3427  0.5554
30068SOL    HW195334   2.306   3.430   2.846 -0.1144 -0.1811  0.4226
30068SOL    HW295335   2.348   3.373   2.979 -0.7522  0.3189  0.8467
30069SOL     OW95336   5.734   2.250   5.721  0.4489 -0.2007  0.2536
30069SOL    HW195337   5.702   2.281   5.636 -0.3551 -0.4319  0.4692
30069SOL    HW295338   5.662   2.197   5.755  0.1407  1.1644  1.7891
30070SOL     OW95339   0.741   7.631   8.584  0.2810  0.1003 -0.5979
30070SOL    HW195340   0.760   7.725   8.571  0.6028 -0.0059 -0.9237
30070SOL    HW295341   0.805   7.603   8.650 -0.0503  0.1908 -0.2383
30071SOL     OW95342   2.963   2.893   8.718 -0.0244  0.0398  0.0958
30071SOL    HW195343   3.011   2.974   8.736 -2.0439  1.7613 -1.9316
30071SOL    HW295344   2.983   2.873   8.627 -1.5629 -0.3033 -0.1799
30072SOL     OW95345   8.517   7.364   7.176  0.0260 -0.1988  0.4881
30072SOL    HW195346   8.558   7.378   7.261 -0.4728  1.0449  0.5336
30072SOL    HW295347   8.574   7.409   7.114 -0.7524  0.7433  0.4395
30073SOL     OW95348   5.016   7.707   0.233  0.0051  0.4280  0.1057
30073SOL    HW195349   5.021   7.798   0.204  2.3069  0.3149  0.0181
30073SOL    HW295350   5.086   7.698   0.298  0.5293 -1.5381 -0.6715
30074SOL     OW95351  10.853   3.475   9.729 -0.5197  0.4119  0.1439
30074SOL    HW195352  10.819   3.562   9.752  0.4579  1.0611 -0.8088
30074SOL    HW295353  10.855   3.475   9.633  2.3427  0.4989  0.1589
30075SOL     OW95354   1.171   1.736   4.947 -0.1822  0.2740 -0.0849
30075SOL    HW195355   1.125   1.762   4.868  0.9482  0.7314 -0.5923
30075SOL    HW295356   1.261   1.723   4.920 -0.0397 -0.8152  0.8679
30076SOL     OW95357   7.150   9.721   4.098  0.3394 -0.4762  0.2799
30076SOL    HW195358   7.099   9.693   4.174  2.0080 -1.3893  1.0815
30076SOL    HW295359   7.159   9.816   4.109 -1.6834 -0.2100 -0.1908
30077SOL     OW95360   2.779   6.099   9.865  0.1153 -0.2761  0.3271
30077SOL    HW195361   2.711   6.032   9.855 -0.3784  0.6155 -3.1357
30077SOL    HW295362   2.733   6.182   9.849  2.0766  0.2981 -2.7552
30078SOL     OW95363   8.543   3.425  10.622  0.2011  0.4714 -0.6671
30078SOL    HW195364   8.603   3.444  10.549  1.0525 -0.1456 -0.1283
30078SOL    HW295365   8.529   3.510  10.664 -0.4189  0.8619 -1.6333
30079SOL     OW95366   3.468   8.394   3.931  0.0398 -0.1106 -0.1746
30079SOL    HW195367   3.441   8.330   3.865  2.9775 -1.6232  0.0315
30079SOL    HW295368   3.509   8.464   3.881 -0.9351  0.4577 -0.1988
30080SOL     OW95369   1.516  11.207  10.184  0.1186 -0.3495 -0.0092
30080SOL    HW195370   1.430  11.169  10.201 -0.5368  0.8777 -0.5583
30080SOL    HW295371   1.566  11.136  10.142 -0.8506 -0.8368 -0.3368
30081SOL     OW95372   2.145   5.025   9.836  0.7711  0.6062 -0.1405
30081SOL    HW195373   2.130   5.078   9.757  0.7777 -0.2340 -0.7106
30081SOL    HW295374   2.237   4.998   9.829  1.2868  1.9773  1.0508
30082SOL     OW95375   6.175   0.411  10.039 -0.4735  0.6212  0.0655
30082SOL    HW195376   6.116   0.372  10.103 -0.3430  0.3631  0.0289
30082SOL    HW295377   6.132   0.493  10.013 -0.8713  0.3752 -0.0505
30083SOL     OW95378  10.243   6.983   3.337 -0.5222 -0.3919 -0.2062
30083SOL    HW195379  10.189   7.056   3.307  2.4225  1.4638 -1.2476
30083SOL    HW295380  10.289   7.018   3.414  0.8145 -1.1711 -0.6369
30084SOL     OW95381   3.159   5.494   9.223  0.2154 -0.1596 -0.3599
30084SOL    HW195382   3.136   5.468   9.133  1.5059 -1.4890 -0.3275
30084SOL    HW295383   3.226   5.431   9.249  0.4598  0.7515  1.2399
30085SOL     OW95384   8.191   1.241   3.797 -0.0742  0.5379 -0.4896
30085SOL    HW195385   8.261   1.305   3.806 -0.3140  0.9070 -1.2149
30085SOL    HW295386   8.111   1.293   3.798 -0.3309  0.1297  0.2187
30086SOL     OW95387   0.812  10.253   8.692  0.2763  0.5856 -0.4533
30086SOL    HW195388   0.865  10.174   8.701  1.3620  1.0259 -2.6877
30086SOL    HW295389   0.871  10.318   8.654 -1.0755  1.9490 -0.2800
30087SOL     OW95390   4.401   2.565  10.988 -0.2062 -0.6912 -0.5270
30087SOL    HW195391   4.432   2.575  10.899 -1.4194  0.1000 -0.8867
30087SOL    HW295392   4.429   2.645  11.033 -1.8167  0.1021 -0.8969
30088SOL     OW95393   5.145   2.769   3.657  0.0068  0.1235  0.0873
30088SOL    HW195394   5.066   2.819   3.638 -1.4643 -1.3455  2.0807
30088SOL    HW295395   5.130   2.683   3.617  1.6927  0.6042 -1.6684
30089SOL     OW95396   8.859   0.850   8.536 -0.0202 -0.0910 -0.1764
30089SOL    HW195397   8.853   0.840   8.631 -1.2698  1.9955 -0.0095
30089SOL    HW295398   8.768   0.842   8.506  0.1910  0.7358 -1.0358
30090SOL     OW95399   9.051   2.913   8.026 -0.2840  0.3636  0.4708
30090SOL    HW195400   9.102   2.831   8.023 -0.2238  0.4575 -1.7016
30090SOL    HW295401   9.115   2.979   8.051  0.0778  0.0487  0.3929
30091SOL     OW95402   2.428   2.960   7.320 -0.2651 -0.8171  0.2763
30091SOL    HW195403   2.366   2.979   7.391  0.6614  1.7095  0.4583
30091SOL    HW295404   2.440   3.043   7.275  1.8893 -1.5746 -0.6455
30092SOL     OW95405   6.987   6.319   2.731  0.2479 -0.2845  0.3515
30092SOL    HW195406   6.932   6.397   2.739 -0.6568 -0.6899 -1.3973
30092SOL    HW295407   6.964   6.284   2.644  0.1712 -2.8221  1.3601
30093SOL     OW95408   3.765   3.262   8.849  0.6912 -0.1198  0.0893
30093SOL    HW195409   3.750   3.356   8.835  1.7573  0.1396  0.6076
30093SOL    HW295410   3.712   3.241   8.926  1.4995  0.3628  0.7840
30094SOL     OW95411   7.039   5.155   8.863  0.3082  0.4343 -0.2741
30094SOL    HW195412   7.010   5.086   8.923 -2.6261  0.8755 -1.0721
30094SOL    HW295413   7.123   5.183   8.897  0.6008 -2.1196  1.2684
30095SOL     OW95414   2.600   1.112   3.309 -0.3390 -0.2973 -0.1663
30095SOL    HW195415   2.653   1.065   3.245 -1.6202 -0.3508 -1.2036
30095SOL    HW295416   2.570   1.044   3.370  2.1862 -0.0206  1.4676
30096SOL     OW95417   7.271   8.061   8.366 -0.0899 -0.4165 -0.2752
30096SOL    HW195418   7.266   7.999   8.294  0.3298  1.5582 -2.0642
30096SOL    HW295419   7.365   8.079   8.375 -0.1810 -0.2936  0.4216
30097SOL     OW95420  10.707  11.053   2.394  0.6701  0.1178  0.2454
30097SOL    HW195421  10.674  10.972   2.354  0.1979  0.1872  0.4882
30097SOL    HW295422  10.711  11.115   2.322  0.9757 -0.1055  0.0691
30098SOL     OW95423   3.851   7.414   2.862  0.0204 -0.1067 -0.0564
30098SOL    HW195424   3.849   7.480   2.793 -0.1847 -0.5614 -0.4795
30098SOL    HW295425   3.808   7.456   2.936 -0.4606  0.0957 -0.4508
30099SOL     OW95426   1.524   8.235   5.008  0.1080  0.2591 -0.2457
30099SOL    HW195427   1.473   8.284   5.072 -0.5422  1.1999 -1.4576
30099SOL    HW295428   1.545   8.300   4.940  0.5623 -0.7776 -1.1081
30100SOL     OW95429   2.700   2.560   2.271 -0.4226  0.0893 -0.3171
30100SOL    HW195430   2.656   2.644   2.285  0.4584  0.2047  2.0297
30100SOL    HW295431   2.637   2.494   2.301 -1.0105 -0.0739 -1.9052
30101SOL     OW95432   8.533   0.511   3.718 -0.3846 -0.1606 -0.1691
30101SOL    HW195433   8.439   0.495   3.721 -0.4552  0.6084  2.3442
30101SOL    HW295434   8.553   0.521   3.625 -2.9805  0.8778 -0.6336
30102SOL     OW95435   2.266   4.008   3.008 -0.1923 -0.0893  0.4294
30102SOL    HW195436   2.210   3.942   2.968 -0.9376  0.3997  0.6505
30102SOL    HW295437   2.206   4.063   3.059  0.7673 -0.9681  2.6045
30103SOL     OW95438   6.420   2.653   0.941  0.2923  0.3387  0.5041
30103SOL    HW195439   6.446   2.684   1.028  0.7333 -0.5825  0.7054
30103SOL    HW295440   6.434   2.558   0.944  0.9361  0.3887 -0.7913
30104SOL     OW95441   7.104  10.284   5.019  0.0901  0.0629  0.3149
30104SOL    HW195442   7.104  10.246   5.107 -1.9498 -0.1955  0.2207
30104SOL    HW295443   7.190  10.326   5.011  0.3845 -0.1152  2.3332
30105SOL     OW95444   8.008  11.009   3.629 -0.2521  0.0339 -0.1687
30105SOL    HW195445   7.929  10.954   3.632  0.0054 -0.4791 -1.8766
30105SOL    HW295446   8.047  10.990   3.543  2.2377 -0.4184  1.0140
30106SOL     OW95447   0.789   3.484   1.673 -0.3938  0.1013 -0.4817
30106SOL    HW195448   0.721   3.485   1.606 -1.7029 -1.2228  0.7897
30106SOL    HW295449   0.742   3.501   1.755  0.9373  0.0994  0.2969
30107SOL     OW95450   2.855   2.983   1.185  0.1196 -0.5448 -0.1200
30107SOL    HW195451   2.918   2.929   1.138  1.1510  0.9253 -0.4627
30107SOL    HW295452   2.831   2.931   1.262  0.9729 -1.5314 -0.5077
30108SOL     OW95453   2.007   0.214   2.364  0.0829 -0.3201 -0.1789
30108SOL    HW195454   2.084   0.271   2.370  0.8210 -1.3333 -0.0301
30108SOL    HW295455   2.042   0.125   2.364 -1.0827 -0.7893 -0.2127
30109SOL     OW95456  10.962   7.396   0.970 -0.5299  0.4385  0.1213
30109SOL    HW195457  10.994   7.423   1.056 -1.3301 -0.8726  0.8494
30109SOL    HW295458  10.948   7.302   0.979  1.1847 -0.0480 -2.0305
30110SOL     OW95459   8.460   3.289   8.780 -0.1504 -0.0187 -0.3016
30110SOL    HW195460   8.414   3.297   8.863 -0.3319 -0.1199 -0.3931
30110SOL    HW295461   8.392   3.269   8.715  0.0176 -0.1706 -0.4343
30111SOL     OW95462   8.980   4.554   7.339 -0.1488 -0.2933 -0.2353
30111SOL    HW195463   8.902   4.505   7.311  0.8667 -1.3031 -1.3578
30111SOL    HW295464   8.980   4.632   7.283  0.1601 -0.7668 -0.9048
30112SOL     OW95465   8.471  11.214   7.161 -0.1556 -0.6695 -0.0565
30112SOL    HW195466   8.508  11.147   7.218 -1.2368 -1.4533 -0.2788
30112SOL    HW295467   8.522  11.293   7.181  1.9977 -1.8386 -0.7325
30113SOL     OW95468   9.026   9.278   1.560 -0.0808 -0.6205  0.0640
30113SOL    HW195469   9.070   9.296   1.643  0.6912  0.0368 -0.4814
30113SOL    HW295470   8.941   9.321   1.567 -0.5211 -1.6156  0.9953
30114SOL     OW95471   5.766   0.626   5.732  0.0847 -0.2159  0.2335
30114SOL    HW195472   5.718   0.548   5.702  0.1177 -0.0245 -0.3213
30114SOL    HW295473   5.697   0.690   5.752  0.0441 -0.4979  1.0049
30115SOL     OW95474   2.932   2.278   2.338 -0.4864 -0.2348  0.0894
30115SOL    HW195475   2.987   2.246   2.409  0.0009 -1.8314 -0.9940
30115SOL    HW295476   2.843   2.269   2.372 -0.4088 -3.3327 -0.3849
30116SOL     OW95477  10.934   9.770   3.048  0.2701  0.1637  0.0392
30116SOL    HW195478  10.861   9.715   3.074  1.1985 -1.0743  0.0538
30116SOL    HW295479  10.935   9.841   3.111 -1.5894  0.7836 -0.6022
30117SOL     OW95480  10.782   2.061   0.043 -0.3248 -0.0295  0.7762
30117SOL    HW195481  10.870   2.023   0.037 -0.4868 -0.2129 -0.4587
30117SOL    HW295482  10.728   1.991   0.079 -0.1616 -0.2193  0.6529
30118SOL     OW95483   1.878   3.246   4.615 -0.7747 -0.5146  0.1389
30118SOL    HW195484   1.860   3.262   4.523  0.9302 -0.0607 -0.1358
30118SOL    HW295485   1.858   3.329   4.658 -1.5371 -0.7160  0.1788
30119SOL     OW95486  10.923   5.741   7.695  0.0536  0.0304 -0.1580
30119SOL    HW195487  10.872   5.778   7.768  1.0508  0.0014  0.5625
30119SOL    HW295488  10.919   5.647   7.709 -2.0325 -0.1475 -1.6954
30120SOL     OW95489   6.901   8.903  11.044  0.1914  0.2759  0.4777
30120SOL    HW195490   6.902   8.976  11.106  0.4958  0.4701  0.2476
30120SOL    HW295491   6.859   8.939  10.966  0.1785  0.1505  0.4282
30121SOL     OW95492   7.077   1.419   7.291 -0.3554  0.7244  0.1236
30121SOL    HW195493   7.058   1.357   7.361  0.8345  1.0430  0.7456
30121SOL    HW295494   7.122   1.491   7.335 -0.2722  1.2696 -0.8517
30122SOL     OW95495   9.322   2.628   3.955  0.5880 -0.3166 -0.2935
30122SOL    HW195496   9.290   2.693   4.017  1.4838  0.0007 -0.1505
30122SOL    HW295497   9.251   2.564   3.947  0.0187  0.2618  0.1674
30123SOL     OW95498   8.172  10.064   6.099  0.4413 -0.0618  0.3820
30123SOL    HW195499   8.100  10.022   6.147  0.8076 -0.8210  0.2741
30123SOL    HW295500   8.238  10.082   6.165  0.1986  0.5355  0.4622
30124SOL     OW95501   0.273   6.799   5.961 -0.3293 -0.1502 -0.1467
30124SOL    HW195502   0.354   6.813   5.912  0.2391 -0.5793  0.6760
30124SOL    HW295503   0.288   6.841   6.045 -0.1641 -2.0524  0.7963
30125SOL     OW95504   7.899   8.210   5.315  0.7573  0.2964 -0.1669
30125SOL    HW195505   7.883   8.260   5.395 -1.0206 -0.5926  0.0598
30125SOL    HW295506   7.852   8.128   5.329  0.2510  0.2236 -2.2152
30126SOL     OW95507   6.809   1.460   9.151 -0.2603 -0.0377 -0.2074
30126SOL    HW195508   6.787   1.485   9.241  1.0453 -0.9164  0.3698
30126SOL    HW295509   6.730   1.479   9.101 -1.2978 -0.3471  1.2785
30127SOL     OW95510   7.521   0.353   4.154 -0.7839  0.3461 -0.0572
30127SOL    HW195511   7.471   0.294   4.211 -2.1487 -0.0672 -1.6304
30127SOL    HW295512   7.542   0.299   4.077  0.7514  0.9808 -0.0984
30128SOL     OW95513   3.118   1.809   5.083  0.0860 -0.1732  0.7815
30128SOL    HW195514   3.143   1.831   5.173 -0.9581  3.4890  0.2875
30128SOL    HW295515   3.070   1.887   5.053 -0.7100 -1.8674 -2.5048
30129SOL     OW95516  11.253  10.818   1.561  0.5672 -0.2171 -0.0441
30129SOL    HW195517  11.247  10.736   1.610 -0.1599  0.1079  0.4226
30129SOL    HW295518  11.185  10.811   1.494  0.6749 -0.1055 -0.1660
30130SOL     OW95519   3.180   8.389   2.623 -0.7300  0.4748 -0.8651
30130SOL    HW195520   3.170   8.418   2.533  0.4373 -1.0612 -1.5297
30130SOL    HW295521   3.154   8.297   2.621  1.5218 -0.2124 -0.1445
30131SOL     OW95522  10.100   8.982   6.981 -0.4256  0.1876  0.4209
30131SOL    HW195523  10.066   9.072   6.978 -0.4982  0.1779  0.9772
30131SOL    HW295524  10.030   8.932   7.024  0.0473  0.0586  1.0409
30132SOL     OW95525   0.721   9.578   4.835 -0.0438 -0.1339 -0.7780
30132SOL    HW195526   0.741   9.671   4.846 -0.1979 -0.2218  0.2967
30132SOL    HW295527   0.799   9.533   4.866 -0.7267 -0.4010  0.5992
30133SOL     OW95528   7.211   1.374  10.219 -0.0371  0.1315  0.1444
30133SOL    HW195529   7.302   1.403  10.214 -0.4034  1.3295  0.2940
30133SOL    HW295530   7.194   1.332  10.135 -0.3512  2.9250 -1.2194
30134SOL     OW95531   2.977   7.204   4.125  0.7359 -0.4762  0.1429
30134SOL    HW195532   2.907   7.233   4.185 -0.8019 -1.2652 -1.2197
30134SOL    HW295533   3.041   7.161   4.181 -0.1741 -0.2870  1.3512
30135SOL     OW95534  10.395   6.893   5.003 -0.9185 -0.2445  0.4583
30135SOL    HW195535  10.396   6.800   5.023 -0.2013 -0.3546 -0.0309
30135SOL    HW295536  10.487   6.913   4.982 -1.3027  0.2710 -0.7624
30136SOL     OW95537  11.232   6.657   1.633 -0.0441  0.0184 -0.3785
30136SOL    HW195538  11.235   6.729   1.570 -0.9469  0.5727  0.2159
30136SOL    HW295539  11.184   6.588   1.588 -2.3133  1.0716  0.3633
30137SOL     OW95540   8.639   3.902   3.444 -0.6271 -0.5303 -0.5779
30137SOL    HW195541   8.557   3.878   3.402 -1.0344 -0.3670  0.1135
30137SOL    HW295542   8.666   3.983   3.400 -0.9740 -0.4438 -0.6303
30138SOL     OW95543  10.186   1.147   2.478  0.4306 -0.2107 -0.2600
30138SOL    HW195544  10.272   1.105   2.478  0.6671  0.2016  2.1121
30138SOL    HW295545  10.194   1.218   2.543 -1.1997  0.8627 -1.2022
30139SOL     OW95546   7.366  11.203   5.477  0.3239 -0.3648  0.3758
30139SOL    HW195547   7.336  11.249   5.555  0.0585 -0.2922  0.2337
30139SOL    HW295548   7.297  11.140   5.458  0.1483 -0.0397 -0.0876
30140SOL     OW95549   0.077   6.461   1.540 -0.0989 -0.1896  0.5343
30140SOL    HW195550   0.152   6.403   1.549  0.6989  0.5418 -1.2422
30140SOL    HW295551   0.090   6.529   1.607 -0.3017 -1.2432  1.6579
30141SOL     OW95552   0.698   3.962   1.448  0.3325 -1.0380  0.2485
30141SOL    HW195553   0.720   3.886   1.394  1.9943  0.7091 -1.6852
30141SOL    HW295554   0.782   4.007   1.460 -0.9555  1.8058 -0.8299
30142SOL     OW95555   6.186   9.004   0.276 -0.2302  0.1532  0.1338
30142SOL    HW195556   6.249   8.939   0.307 -0.2239 -0.2345 -0.6725
30142SOL    HW295557   6.118   9.005   0.344 -1.2365 -2.1484 -0.7562
30143SOL     OW95558   6.771   8.732  10.322  0.1617  0.2209  0.4723
30143SOL    HW195559   6.762   8.684  10.405 -1.8567  0.9438  0.7044
30143SOL    HW295560   6.864   8.724  10.300  0.5759 -0.6810  2.3859
30144SOL     OW95561   5.606  10.451   0.516 -0.5574  1.0588 -0.2587
30144SOL    HW195562   5.604  10.358   0.539  0.8319  1.2421  0.6548
30144SOL    HW295563   5.614  10.452   0.420 -1.2828  0.2464 -0.3318
30145SOL     OW95564   3.869   1.636  10.014 -0.0621 -0.3175 -0.4505
30145SOL    HW195565   3.830   1.551   9.991 -0.9120  0.5932 -2.4843
30145SOL    HW295566   3.796   1.685  10.052  0.4488 -0.5151  0.7895
30146SOL     OW95567   1.646   7.691   7.047  0.8688  0.5406 -0.1553
30146SOL    HW195568   1.559   7.658   7.071  0.3877  0.8053 -1.4735
30146SOL    HW295569   1.707   7.633   7.093  0.0008  0.5177  0.9986
30147SOL     OW95570   1.268  10.301  10.367 -0.0959  0.0359  0.0927
30147SOL    HW195571   1.338  10.286  10.304  1.1589  0.7260  1.2913
30147SOL    HW295572   1.271  10.224  10.425 -1.5301 -0.8133 -0.9124
30148SOL     OW95573   3.874   5.254   4.154  0.1288  0.0186  0.2037
30148SOL    HW195574   3.863   5.222   4.243  0.2872 -1.3107 -0.2430
30148SOL    HW295575   3.797   5.309   4.139 -0.9226 -1.3341  0.4937
30149SOL     OW95576   7.502   6.368  10.744  0.3762  0.0450  0.1224
30149SOL    HW195577   7.543   6.388  10.828  0.9949 -1.5381  0.2061
30149SOL    HW295578   7.420   6.325  10.766 -0.0657  0.7762 -0.0765
30150SOL     OW95579   0.349   5.545   6.519  0.2560 -0.0505 -0.1257
30150SOL    HW195580   0.439   5.556   6.550  0.7542  0.8157 -1.8393
30150SOL    HW295581   0.309   5.485   6.582  1.3574  1.3238  1.9170
30151SOL     OW95582   7.326  10.190   9.930  0.0057  0.3010  0.2342
30151SOL    HW195583   7.421  10.187   9.927 -0.0215 -0.0620 -0.6425
30151SOL    HW295584   7.305  10.276   9.966  0.6624  0.6784 -0.2745
30152SOL     OW95585   0.705   5.956   6.137  0.7170  0.1433  0.7609
30152SOL    HW195586   0.662   5.967   6.052  1.7271  0.0496  0.2313
30152SOL    HW295587   0.772   5.889   6.121  1.4099  0.6647  1.4380
30153SOL     OW95588   2.825   3.544   5.448  0.8164 -0.2843 -0.0308
30153SOL    HW195589   2.837   3.636   5.473 -0.4847  0.1180 -0.8053
30153SOL    HW295590   2.913   3.509   5.439  1.3656 -0.0018  3.4508
30154SOL     OW95591   2.093   5.879   1.489  0.6334  0.5854 -0.1426
30154SOL    HW195592   2.153   5.952   1.473 -0.5525  1.1500 -2.2108
30154SOL    HW295593   2.016   5.919   1.529  0.2912  0.3573 -0.5674
30155SOL     OW95594   7.836   2.986   4.780 -0.4941 -0.0967 -0.6463
30155SOL    HW195595   7.835   2.913   4.842 -1.4119  0.9253  0.5899
30155SOL    HW295596   7.927   2.992   4.751 -0.4165 -1.7562 -0.8158
30156SOL     OW95597   8.082   8.426   9.199  0.3030  0.3591  0.7297
30156SOL    HW195598   8.004   8.474   9.172  1.8446  3.1153  1.0163
30156SOL    HW295599   8.089   8.442   9.293  1.0618 -0.0973  0.7571
30157SOL     OW95600   9.810   6.174   6.557 -0.0423 -0.3140 -0.1255
30157SOL    HW195601   9.724   6.132   6.559  0.3251 -1.0353  1.4227
30157SOL    HW295602   9.855   6.134   6.483 -0.2309 -1.5717  0.4342
30158SOL     OW95603  11.087  10.052   6.719  0.7192  0.3909 -0.0516
30158SOL    HW195604  11.091  10.042   6.624  0.1811  2.8139 -0.3649
30158SOL    HW295605  11.141   9.980   6.753  0.3400 -0.9323 -2.1391
30159SOL     OW95606   7.012   8.417   1.600 -0.7299 -0.5211 -0.7263
30159SOL    HW195607   6.942   8.449   1.657 -1.3542 -0.5051 -1.4831
30159SOL    HW295608   7.016   8.482   1.529  0.9403  0.1773 -0.0170
30160SOL     OW95609   5.608   8.361   0.146 -0.2569 -0.0304 -0.6345
30160SOL    HW195610   5.651   8.443   0.124 -0.8024  0.4987  0.2229
30160SOL    HW295611   5.677   8.310   0.190 -0.4450  0.7549  0.6029
30161SOL     OW95612   0.996   9.235   9.622  0.2009  0.1586  0.1798
30161SOL    HW195613   0.917   9.278   9.590  1.2727  2.5223  0.5801
30161SOL    HW295614   0.967   9.149   9.652 -2.0288  0.6317 -0.5642
30162SOL     OW95615   6.272   4.810   5.191 -0.3870  0.0577  0.4309
30162SOL    HW195616   6.270   4.830   5.098 -0.0498 -1.8073 -0.0002
30162SOL    HW295617   6.350   4.856   5.224  0.2011 -0.2745 -0.4617
30163SOL     OW95618   9.250   4.068   4.958  0.4680 -0.0240 -0.1945
30163SOL    HW195619   9.231   4.114   5.040 -1.3476  2.8209 -2.1015
30163SOL    HW295620   9.186   3.997   4.954 -1.8951  2.0671 -0.8048
30164SOL     OW95621   3.139   5.179   3.882  0.2723 -0.1712  0.0978
30164SOL    HW195622   3.211   5.118   3.863  0.7267  0.6217 -0.7274
30164SOL    HW295623   3.167   5.225   3.961 -0.0056 -0.9167  0.6404
30165SOL     OW95624   2.980   0.172   3.691  0.1401  0.2043  0.2983
30165SOL    HW195625   3.000   0.083   3.661  2.2932  0.5181  0.7785
30165SOL    HW295626   2.934   0.159   3.774  1.2642 -0.4362  0.8252
30166SOL     OW95627   7.870   3.860   9.026 -0.0690  0.3813 -0.6796
30166SOL    HW195628   7.792   3.915   9.013  0.5574  1.3968 -0.1646
30166SOL    HW295629   7.943   3.914   8.998  0.4571 -0.5959 -1.2165
30167SOL     OW95630   3.555  10.061   4.447 -0.5014 -0.0610  0.2670
30167SOL    HW195631   3.588  10.019   4.368 -0.2360  0.4062  0.1325
30167SOL    HW295632   3.541   9.988   4.508  1.6433 -0.1935  0.6485
30168SOL     OW95633   4.353   5.230   2.423 -0.4228  0.2221 -0.5916
30168SOL    HW195634   4.277   5.194   2.469  0.0118 -1.5796 -1.2487
30168SOL    HW295635   4.427   5.178   2.454 -0.0394 -0.6601 -2.8702
30169SOL     OW95636   9.338   4.341  10.439  0.0566  0.0069  0.9694
30169SOL    HW195637   9.428   4.369  10.460  0.3657 -0.3933  0.1984
30169SOL    HW295638   9.333   4.251  10.470  0.1661 -0.2217  0.3356
30170SOL     OW95639   9.554   7.189   4.642 -0.1555 -0.2196  0.2989
30170SOL    HW195640   9.510   7.227   4.719  1.5520  1.4181  0.5115
30170SOL    HW295641   9.495   7.206   4.569 -1.8219 -1.8294  1.2347
30171SOL     OW95642   6.170   4.021   6.137  0.6011 -0.2212 -0.0101
30171SOL    HW195643   6.104   4.076   6.094 -0.2407  1.7567  3.6060
30171SOL    HW295644   6.251   4.072   6.133  1.8268 -2.2833 -3.6902
30172SOL     OW95645   3.730   1.063   4.892 -0.0454  0.3566 -0.2744
30172SOL    HW195646   3.654   1.044   4.837  0.0408 -0.0131 -0.2701
30172SOL    HW295647   3.803   1.073   4.830  0.4512 -2.0376 -0.1228
30173SOL     OW95648   9.525   3.949   4.284 -0.2068 -0.3115  0.8108
30173SOL    HW195649   9.475   3.947   4.202 -0.0275  0.3389  0.6859
30173SOL    HW295650   9.466   3.991   4.346 -1.1824 -2.7341  1.5867
30174SOL     OW95651   6.302  10.499   7.675  0.0742  0.2877  0.4639
30174SOL    HW195652   6.309  10.554   7.597 -0.9358  0.9476  0.8323
30174SOL    HW295653   6.392  10.489   7.705  0.1260  3.2876  1.4582
30175SOL     OW95654   1.451  10.225   9.661  0.7732 -0.2218 -0.2609
30175SOL    HW195655   1.430  10.253   9.572 -1.4289 -1.2280 -0.0790
30175SOL    HW295656   1.533  10.177   9.652  0.2994 -0.7570 -1.8212
30176SOL     OW95657   5.311   2.318   6.459  0.3596  0.0051 -0.2599
30176SOL    HW195658   5.251   2.315   6.533  1.1801  0.8755  0.4541
30176SOL    HW295659   5.258   2.292   6.383 -1.3221  2.3528  0.0844
30177SOL     OW95660   4.878   3.897   2.988 -0.8813 -0.2551 -0.0984
30177SOL    HW195661   4.885   3.804   2.967  0.0777 -0.5426  1.3658
30177SOL    HW295662   4.829   3.899   3.071  0.5746  0.4119  0.7636
30178SOL     OW95663   1.341   7.312   9.705  0.4563  0.4864  0.0024
30178SOL    HW195664   1.265   7.359   9.740  0.1019  0.9093 -1.3245
30178SOL    HW295665   1.312   7.222   9.698  1.1621  0.0126  2.6306
30179SOL     OW95666   2.476   5.770   1.125 -0.3120  0.1777  0.6433
30179SOL    HW195667   2.432   5.818   1.054 -0.1445 -0.1604  0.3086
30179SOL    HW295668   2.565   5.806   1.126  0.7871 -2.2953 -1.7057
30180SOL     OW95669   8.714   2.560   4.703  0.6514 -0.2676  0.0084
30180SOL    HW195670   8.633   2.607   4.721  1.7465  1.3333  0.8978
30180SOL    HW295671   8.707   2.480   4.756 -0.1165  0.1208  0.5069
30181SOL     OW95672   1.685   1.590   1.416 -0.2321  0.6000 -0.3545
30181SOL    HW195673   1.761   1.630   1.459  0.0699  1.7839 -1.9767
30181SOL    HW295674   1.661   1.517   1.474  0.2546  2.0656  1.7400
30182SOL     OW95675   1.517   3.786   0.912 -0.2293  0.0011 -0.3443
30182SOL    HW195676   1.479   3.731   0.843  1.6102 -1.0951 -0.5252
30182SOL    HW295677   1.476   3.756   0.993  0.0514 -0.9788 -0.5615
30183SOL     OW95678   9.285   3.242  11.322  0.0905 -0.5065  0.6109
30183SOL    HW195679   9.215   3.248  11.387 -0.9528  0.0070 -0.5335
30183SOL    HW295680   9.338   3.321  11.336 -0.0530 -0.4675  0.9333
30184SOL     OW95681   2.952   8.542   0.732  0.3355  0.0770 -0.1724
30184SOL    HW195682   2.988   8.629   0.751  2.0665 -0.3932 -1.1987
30184SOL    HW295683   2.950   8.538   0.636  1.8037 -1.6102 -0.1551
30185SOL     OW95684   7.298   9.461   3.005  0.2907 -0.0095  0.0880
30185SOL    HW195685   7.385   9.425   2.989  0.6476  1.2329 -0.8862
30185SOL    HW295686   7.312   9.531   3.069  0.3219  1.4250 -1.4322
30186SOL     OW95687   0.700   7.075   5.351  0.1024  0.4470 -0.1603
30186SOL    HW195688   0.681   7.168   5.363  0.3330  0.7304 -1.8726
30186SOL    HW295689   0.795   7.070   5.346  0.0589  0.2360 -0.8702
30187SOL     OW95690   3.732   4.119   8.985 -0.6269 -0.2672  0.2629
30187SOL    HW195691   3.674   4.043   8.973  3.0285 -3.0185 -1.0526
30187SOL    HW295692   3.756   4.145   8.897  2.5752 -1.2066  0.8189
30188SOL     OW95693   2.547   4.954   4.035  0.1312  0.6390  0.4385
30188SOL    HW195694   2.616   5.017   4.057  0.7539  0.7104 -1.6354
30188SOL    HW295695   2.467   4.994   4.069  1.0983  0.4970  2.9611
30189SOL     OW95696   9.269   6.716   2.621  0.6756 -0.1106 -0.0541
30189SOL    HW195697   9.223   6.798   2.609  0.2437 -0.5558 -1.4434
30189SOL    HW295698   9.254   6.667   2.541  0.2259 -1.8955  1.0878
30190SOL     OW95699   6.426   5.639   3.233  0.2079  0.6175 -0.2737
30190SOL    HW195700   6.507   5.600   3.266 -0.9573 -2.6121 -1.0889
30190SOL    HW295701   6.394   5.692   3.306  1.5440 -0.3947  1.0937
30191SOL     OW95702   2.401   5.265   0.562 -0.1203 -0.0217  0.1527
30191SOL    HW195703   2.403   5.359   0.581 -1.3094 -0.2186  1.3351
30191SOL    HW295704   2.444   5.224   0.638  1.5956 -0.3658 -0.9682
30192SOL     OW95705   4.110   1.982   1.394 -0.8170 -0.5381 -0.4492
30192SOL    HW195706   4.147   1.987   1.306 -1.8155 -1.1054 -0.9059
30192SOL    HW295707   4.178   2.018   1.451  0.2564 -1.1547 -1.3299
30193SOL     OW95708   1.075   5.411   2.195  0.1570 -1.0582 -0.6849
30193SOL    HW195709   1.007   5.399   2.261  0.0528 -0.2976 -0.6530
30193SOL    HW295710   1.050   5.492   2.150  0.6489 -1.1652 -1.1456
30194SOL     OW95711   5.394   3.832   9.703  0.0139  0.6578  0.6628
30194SOL    HW195712   5.372   3.902   9.765  0.4661  1.7152 -0.3565
30194SOL    HW295713   5.479   3.800   9.734 -0.7329 -0.2439  1.8204
30195SOL     OW95714   0.049  10.424   8.563  0.0867 -0.0204 -0.2079
30195SOL    HW195715   0.004  10.451   8.643 -1.5283  1.8851 -1.6919
30195SOL    HW295716   0.139  10.407   8.590 -0.4196  0.6420  1.9870
30196SOL     OW95717   5.787  10.586   2.458  0.2844  0.0677 -0.4203
30196SOL    HW195718   5.754  10.665   2.414  1.7556  0.2391 -1.2773
30196SOL    HW295719   5.809  10.527   2.386 -0.4005 -0.9559  0.2084
30197SOL     OW95720  10.440   3.929   1.832 -0.3774 -0.0705  0.0274
30197SOL    HW195721  10.516   3.886   1.872 -1.1799  1.0979  2.9434
30197SOL    HW295722  10.469   4.019   1.817 -0.2801 -0.3516 -1.5055
30198SOL     OW95723   8.610   1.362   2.835  0.1686  0.9894 -0.1830
30198SOL    HW195724   8.595   1.446   2.880  0.5969  0.7193  0.4710
30198SOL    HW295725   8.645   1.305   2.903 -2.2293 -0.4159 -0.0804
30199SOL     OW95726   9.839   4.349   7.328  0.2177  0.4624  0.3177
30199SOL    HW195727   9.872   4.438   7.328 -0.8241  0.8621  2.1930
30199SOL    HW295728   9.787   4.342   7.408 -0.1787 -1.6471 -0.0917
30200SOL     OW95729   0.491   7.405   7.574  0.0055 -0.2842 -0.4829
30200SOL    HW195730   0.499   7.311   7.559  0.5266 -0.1697 -0.9024
30200SOL    HW295731   0.472   7.412   7.668 -0.5163 -0.8319 -0.5440
30201SOL     OW95732   6.724   4.039   2.715 -0.4432 -0.6196  0.2293
30201SOL    HW195733   6.742   4.117   2.767  1.1642  0.5097 -1.9736
30201SOL    HW295734   6.704   3.971   2.780  0.6295  0.9695  2.2727
30202SOL     OW95735   7.491   9.565  10.484  0.3429 -0.3013 -0.5166
30202SOL    HW195736   7.561   9.521  10.436  0.7153  0.1270 -0.3723
30202SOL    HW295737   7.462   9.501  10.549 -0.8166 -1.2270 -1.9412
30203SOL     OW95738  11.025   0.449   1.978  0.5682 -0.0789  0.3277
30203SOL    HW195739  10.955   0.498   2.020 -0.3585 -0.4946 -0.7194
30203SOL    HW295740  11.081   0.517   1.939  0.0658  0.2043  0.0967
30204SOL     OW95741   7.931   7.161   5.122  0.3899 -0.7528  0.1260
30204SOL    HW195742   7.949   7.070   5.098  0.8726 -1.0864  1.6627
30204SOL    HW295743   7.874   7.155   5.198 -0.7596  0.2610 -0.6469
30205SOL     OW95744   1.234   8.593   5.301  0.8266 -0.4405  0.2454
30205SOL    HW195745   1.143   8.597   5.273  1.5737 -0.1820 -2.2620
30205SOL    HW295746   1.230   8.588   5.397 -1.8236 -1.7161  0.0894
30206SOL     OW95747   5.927  10.419   9.608 -0.3539  0.4748  0.7069
30206SOL    HW195748   5.878  10.499   9.588  0.1832  0.8871  1.0400
30206SOL    HW295749   6.004  10.423   9.551 -0.9206 -0.3995 -0.1532
30207SOL     OW95750  10.648   0.755   8.891  0.5130 -0.0217 -0.0143
30207SOL    HW195751  10.564   0.732   8.853  0.9987 -0.9348 -0.5564
30207SOL    HW295752  10.654   0.850   8.881  0.7079 -0.2500 -2.4227
30208SOL     OW95753   7.818   2.181   1.717  0.0579 -0.3603 -0.2745
30208SOL    HW195754   7.744   2.234   1.748  0.5833 -0.7575  1.7365
30208SOL    HW295755   7.894   2.237   1.729  0.4589 -1.0907  0.7037
30209SOL     OW95756  10.822   6.483   4.934  0.2368  0.3537 -0.4417
30209SOL    HW195757  10.901   6.454   4.980 -0.3870 -0.2270  0.2602
30209SOL    HW295758  10.750   6.460   4.992 -0.3359  2.5164 -0.2774
30210SOL     OW95759   1.313   3.854   7.122  0.0179 -0.1585  0.1723
30210SOL    HW195760   1.350   3.883   7.205  2.1426 -1.1232 -0.4026
30210SOL    HW295761   1.384   3.866   7.059 -0.4488 -2.5800 -0.8620
30211SOL     OW95762   5.232  11.206  10.815  0.5985  0.0360 -0.4683
30211SOL    HW195763   5.164  11.273  10.822 -0.6122 -1.3526  1.2047
30211SOL    HW295764   5.292  11.224  10.887  0.7376 -0.1651 -0.5324
30212SOL     OW95765   1.437   4.583   5.462  0.0672  0.2231 -0.0714
30212SOL    HW195766   1.415   4.588   5.555  0.2662 -2.5057  0.1637
30212SOL    HW295767   1.526   4.548   5.460  0.2011  0.6123 -1.2778
30213SOL     OW95768   5.386   4.769   1.819 -0.1664  0.4918  0.4707
30213SOL    HW195769   5.352   4.730   1.900 -0.7805  0.9498  0.4392
30213SOL    HW295770   5.376   4.700   1.753  1.3460 -0.2674  1.0063
30214SOL     OW95771  10.016   6.847   2.974 -0.4000  0.0734  0.3764
30214SOL    HW195772   9.963   6.790   2.917 -1.0572  0.7777  0.2719
30214SOL    HW295773  10.103   6.808   2.972 -0.5846 -0.3101 -0.5641
30215SOL     OW95774  10.802   2.242   5.548 -0.0538 -0.5165  0.3086
30215SOL    HW195775  10.886   2.272   5.582 -0.5439  2.0381 -0.5932
30215SOL    HW295776  10.824   2.185   5.475  0.8918 -0.5027  0.5722
30216SOL     OW95777   5.134   4.402   0.286  0.3776  0.1736 -0.1857
30216SOL    HW195778   5.163   4.464   0.353 -2.3546 -0.6311  1.8525
30216SOL    HW295779   5.155   4.316   0.322 -2.3024 -0.3268  0.3306
30217SOL     OW95780   3.866  11.241  10.211 -0.1085  0.2297 -0.4579
30217SOL    HW195781   3.929  11.199  10.269 -0.2080  0.1886 -0.3795
30217SOL    HW295782   3.908  11.323  10.184 -0.7722  1.0651  1.0213
30218SOL     OW95783   1.385   1.715   8.847 -0.1730 -0.0777 -0.1976
30218SOL    HW195784   1.411   1.764   8.926 -1.6077 -0.7121  0.6957
30218SOL    HW295785   1.328   1.776   8.800 -0.5673 -0.2556  0.0456
30219SOL     OW95786   1.846  10.774   3.259  0.6436 -0.4460 -0.3359
30219SOL    HW195787   1.756  10.755   3.234  0.5329  0.6416 -0.8135
30219SOL    HW295788   1.851  10.870   3.259  0.5483 -0.3448  4.2291
30220SOL     OW95789  10.012   1.127   3.167  0.3917  0.5157  0.4573
30220SOL    HW195790   9.961   1.205   3.189 -1.6579 -1.0801  1.5420
30220SOL    HW295791   9.947   1.057   3.161  1.7923 -0.5489 -3.6223
30221SOL     OW95792   8.066   9.671   0.045 -0.5563  0.3350  0.0515
30221SOL    HW195793   8.067   9.645   0.137 -3.1355  0.8763  0.2776
30221SOL    HW295794   8.038   9.593  -0.002  3.5729 -0.8432 -0.6861
30222SOL     OW95795   9.548   8.573   8.831  0.0467  0.0182 -0.3531
30222SOL    HW195796   9.464   8.561   8.875  0.1738  0.5125  0.0305
30222SOL    HW295797   9.530   8.637   8.762  0.5162  1.5842  0.9436
30223SOL     OW95798   6.599   1.792   7.648  0.2647  0.5673 -0.3887
30223SOL    HW195799   6.674   1.780   7.707  0.9565  0.0449 -1.3555
30223SOL    HW295800   6.638   1.802   7.561 -0.8198 -0.5698 -1.0232
30224SOL     OW95801  10.161   6.875   0.697 -0.1025  0.3969 -0.0204
30224SOL    HW195802  10.126   6.817   0.764  2.5479 -0.0446  1.0467
30224SOL    HW295803  10.160   6.822   0.617 -1.6437  0.3448  0.0087
30225SOL     OW95804   0.683   2.849   3.062 -0.5444 -0.2281  0.0455
30225SOL    HW195805   0.642   2.832   3.146 -0.0586  0.0384  0.3390
30225SOL    HW295806   0.650   2.934   3.035 -0.5074 -0.2018  0.0844
30226SOL     OW95807  11.042   8.786   5.332 -0.0326 -0.3418 -0.5372
30226SOL    HW195808  11.010   8.742   5.410  1.7500 -0.6726  0.0301
30226SOL    HW295809  10.964   8.800   5.278 -1.2088 -0.4883  1.1016
30227SOL     OW95810   2.406   7.239  10.104  0.2261 -0.3429 -0.3536
30227SOL    HW195811   2.432   7.328  10.080 -0.9782 -0.0213 -0.5087
30227SOL    HW295812   2.348   7.211  10.033  1.1930 -1.5405 -0.6894
30228SOL     OW95813   5.541   9.034   5.529  0.0540  0.5044  0.1577
30228SOL    HW195814   5.620   9.069   5.487  1.1909  0.2831  2.0278
30228SOL    HW295815   5.528   9.091   5.605 -0.1271 -1.0074  1.2671
30229SOL     OW95816   2.004  10.873   5.227  0.5160  0.1763 -0.1784
30229SOL    HW195817   2.050  10.804   5.178  1.1000  0.5866 -0.2094
30229SOL    HW295818   1.941  10.825   5.281  0.2548 -0.3170 -0.9183
30230SOL     OW95819   4.116   4.172   1.742  0.0320 -0.4049  0.4133
30230SOL    HW195820   4.123   4.195   1.834  0.8270  0.6499  0.1013
30230SOL    HW295821   4.065   4.243   1.703  0.2703 -0.4961 -0.0755
30231SOL     OW95822   2.753   5.382  11.110  0.2267 -0.0512  0.4285
30231SOL    HW195823   2.781   5.457  11.162  0.6496 -0.0936  0.2670
30231SOL    HW295824   2.831   5.357  11.060  0.2579 -0.9429  0.9058
30232SOL     OW95825   5.401   2.297   5.526 -0.2604 -0.3779  0.8463
30232SOL    HW195826   5.337   2.292   5.597 -0.2698 -0.6981  0.8147
30232SOL    HW295827   5.388   2.216   5.476 -1.5474  0.6859 -0.6168
30233SOL     OW95828   0.887  10.540  10.072  0.6453 -0.1024  0.1362
30233SOL    HW195829   0.793  10.530  10.090  0.8037  1.1392  1.8322
30233SOL    HW295830   0.930  10.509  10.152  1.6938 -1.0735 -0.8021
30234SOL     OW95831   8.277   3.817   6.605 -0.0157 -0.0848  0.1968
30234SOL    HW195832   8.298   3.909   6.592  0.2223 -0.1016  0.4574
30234SOL    HW295833   8.291   3.802   6.698 -0.7910 -0.2030  0.2930
30235SOL     OW95834   6.476   1.845   8.249 -0.1203 -0.4154  0.3499
30235SOL    HW195835   6.475   1.778   8.181  0.0608  2.4924 -2.7028
30235SOL    HW295836   6.390   1.888   8.242  1.1254  2.0888 -0.4502
30236SOL     OW95837   5.098   5.283  10.957  0.2783 -0.0681  0.3328
30236SOL    HW195838   5.055   5.204  10.924 -0.8416  0.1400  1.2762
30236SOL    HW295839   5.189   5.273  10.930 -0.3851 -0.3895 -1.9010
30237SOL     OW95840   5.500   1.568   2.616 -0.1216  0.6275  0.3099
30237SOL    HW195841   5.561   1.497   2.638  0.1046  0.9785  0.8191
30237SOL    HW295842   5.440   1.572   2.690 -1.2209 -0.2040 -0.5237
30238SOL     OW95843   9.615   6.463   8.464 -0.0065 -0.1616  0.2653
30238SOL    HW195844   9.566   6.538   8.499 -0.3803 -0.5136  0.5014
30238SOL    HW295845   9.698   6.465   8.511  0.1404  0.3329 -0.0066
30239SOL     OW95846   4.968   6.074  10.499 -0.3438 -0.6897  0.3560
30239SOL    HW195847   4.939   6.053  10.411  0.0743  0.0356  0.0429
30239SOL    HW295848   4.909   6.025  10.556 -1.0670 -0.5954 -0.3110
30240SOL     OW95849   5.153   8.833   3.055  0.7683  0.8588  0.1192
30240SOL    HW195850   5.066   8.860   3.081  0.6201  0.4417  0.0622
30240SOL    HW295851   5.212   8.885   3.110  0.4756  0.7014  0.5816
30241SOL     OW95852   2.668   5.510   5.132  0.8920  0.3903  0.1835
30241SOL    HW195853   2.591   5.457   5.153  2.2689 -1.9410 -0.3834
30241SOL    HW295854   2.736   5.478   5.191  2.0907  0.6670 -1.0116
30242SOL     OW95855   2.905   6.521  10.594  1.1371 -0.4484 -0.3616
30242SOL    HW195856   2.871   6.597  10.641  0.8483  0.7345 -2.3928
30242SOL    HW295857   2.931   6.460  10.662 -2.7475 -0.3580  1.3337
30243SOL     OW95858   4.810   6.557   4.118  0.7027  0.0650  0.2469
30243SOL    HW195859   4.728   6.529   4.078  1.1591 -2.0047  0.7114
30243SOL    HW295860   4.803   6.652   4.123 -1.2261 -0.0071 -0.6590
30244SOL     OW95861   8.671   6.428  10.608  0.4508  0.1336  0.1897
30244SOL    HW195862   8.640   6.431  10.518  0.7012 -0.5927  0.0797
30244SOL    HW295863   8.630   6.350  10.645  1.2077 -0.1626  0.3983
30245SOL     OW95864  10.415   3.737   1.628  0.0541  0.4068 -0.0565
30245SOL    HW195865  10.322   3.747   1.611  0.3744  2.2258 -0.9717
30245SOL    HW295866  10.438   3.811   1.685  1.5179  1.9894 -2.5465
30246SOL     OW95867   0.435   6.700   1.272  0.4082  0.5696 -0.9332
30246SOL    HW195868   0.510   6.686   1.216  0.9831  0.4354 -0.1400
30246SOL    HW295869   0.432   6.622   1.328  1.1803  1.7154  0.7267
30247SOL     OW95870   1.088   5.593   4.706 -0.2997 -0.2832 -0.4143
30247SOL    HW195871   1.080   5.567   4.614  0.7052 -0.7190 -0.3846
30247SOL    HW295872   1.179   5.620   4.716  0.2421 -2.4740  1.0061
30248SOL     OW95873   7.611   8.327   2.077  1.0622 -0.0575 -0.6360
30248SOL    HW195874   7.646   8.407   2.040  0.5451  0.2437 -0.4751
30248SOL    HW295875   7.563   8.285   2.005  0.0206  0.5496 -0.3028
30249SOL     OW95876   9.346  10.731   3.120 -0.7886 -0.1735 -0.0458
30249SOL    HW195877   9.377  10.817   3.147 -0.2831 -0.4591  0.3100
30249SOL    HW295878   9.382  10.671   3.186 -1.5175 -0.6008 -0.0262
30250SOL     OW95879   5.579   4.366   6.836  0.1766  0.3427  0.0369
30250SOL    HW195880   5.650   4.430   6.833  0.4011  0.0750 -0.4602
30250SOL    HW295881   5.596   4.314   6.914  0.7831 -0.0103 -0.3299
30251SOL     OW95882   1.971   4.514   5.240 -0.0642 -0.0658 -0.2134
30251SOL    HW195883   2.060   4.487   5.265  0.5813 -0.6632 -3.0237
30251SOL    HW295884   1.938   4.442   5.186 -1.4918  1.0741 -0.8890
30252SOL     OW95885   9.714   0.651  10.489 -0.2779  0.5469  0.0282
30252SOL    HW195886   9.791   0.665  10.543 -0.2017  1.4313 -0.3022
30252SOL    HW295887   9.727   0.564  10.451 -0.3018 -0.0497  1.3591
30253SOL     OW95888   1.351   4.535   6.958 -0.1162 -0.3974 -0.2174
30253SOL    HW195889   1.350   4.611   7.016  1.8144  0.3325 -1.0901
30253SOL    HW295890   1.259   4.510   6.950 -0.7633  1.6838  0.2820
30254SOL     OW95891  10.406   0.510   3.797  0.4652  0.3664  0.0790
30254SOL    HW195892  10.413   0.456   3.876 -1.4878  0.5000  0.3798
30254SOL    HW295893  10.325   0.481   3.756  1.2297  0.6215 -1.6515
30255SOL     OW95894   9.484   5.937   1.309  0.0299 -0.2163 -0.0435
30255SOL    HW195895   9.485   6.018   1.361  0.1311  0.5346 -1.2061
30255SOL    HW295896   9.461   5.869   1.372 -1.0468  0.8563  0.7379
30256SOL     OW95897   1.327   7.668   1.989  0.1710  0.1197  0.2877
30256SOL    HW195898   1.278   7.585   1.995 -2.8404  1.8050  0.1352
30256SOL    HW295899   1.403   7.647   1.934  0.3882 -2.9330  1.6444
30257SOL     OW95900   4.066   3.296   6.945 -0.4989  0.0874 -0.2758
30257SOL    HW195901   4.032   3.207   6.955  0.3489 -0.0082  1.9804
30257SOL    HW295902   3.988   3.351   6.939 -1.0338 -0.6924 -0.5748
30258SOL     OW95903   0.011   5.034   6.174  0.1951  0.6753 -0.0624
30258SOL    HW195904   0.026   5.045   6.080  0.3371  2.8962  0.1974
30258SOL    HW295905   0.090   4.992   6.207  0.4563  0.5774 -0.8121
30259SOL     OW95906   2.762   8.457   3.551 -0.0542 -0.1350  0.4399
30259SOL    HW195907   2.705   8.519   3.596 -0.8797 -1.1212  0.7796
30259SOL    HW295908   2.719   8.372   3.563  1.1223 -0.7883  0.0901
30260SOL     OW95909   0.239   4.659   9.066  0.6529 -0.4128  0.1327
30260SOL    HW195910   0.233   4.669   9.161  1.6865 -2.6891  0.4601
30260SOL    HW295911   0.172   4.718   9.031  0.4612  0.6462  2.2605
30261SOL     OW95912   2.802   3.449   5.183 -0.3510  0.5753  0.6533
30261SOL    HW195913   2.827   3.539   5.162 -1.5147  0.6519 -0.4610
30261SOL    HW295914   2.820   3.441   5.277  2.3537  1.0886  0.2043
30262SOL     OW95915   0.737   2.987   6.784  0.3306 -0.1914 -0.3779
30262SOL    HW195916   0.793   3.006   6.860 -1.0341  0.9266  0.3795
30262SOL    HW295917   0.660   2.943   6.821 -0.3194  0.3148 -1.1090
30263SOL     OW95918   3.667   0.537   4.729  0.2642  0.0012 -0.2758
30263SOL    HW195919   3.626   0.611   4.683 -1.7659 -1.5527 -1.0552
30263SOL    HW295920   3.734   0.506   4.669  1.7191  1.7226  0.4202
30264SOL     OW95921   7.784   7.984   5.376  0.4411 -0.0999  0.1339
30264SOL    HW195922   7.774   7.982   5.471 -3.3381  0.3564 -0.1617
30264SOL    HW295923   7.748   7.901   5.346 -1.7017  1.2202 -1.0852
30265SOL     OW95924   9.818   0.755   1.819  0.4209 -0.0136  0.3952
30265SOL    HW195925   9.790   0.758   1.910  1.1529  3.2057  0.5765
30265SOL    HW295926   9.811   0.846   1.789  2.2249 -0.6579 -2.1062
30266SOL     OW95927   8.537  10.873   9.285 -0.6704 -0.1738  0.2772
30266SOL    HW195928   8.552  10.962   9.315 -2.0293  0.0299  0.3756
30266SOL    HW295929   8.550  10.876   9.191 -3.2652  0.7061 -0.0801
30267SOL     OW95930   9.785   4.510   7.849  0.0603  0.2029 -0.6311
30267SOL    HW195931   9.701   4.498   7.893 -0.9790 -0.7855 -2.7988
30267SOL    HW295932   9.848   4.465   7.905 -1.2987 -1.4726 -0.4029
30268SOL     OW95933   9.865   8.228  10.901 -0.6553  0.5060 -0.2846
30268SOL    HW195934   9.933   8.168  10.934 -0.3012  1.6757  1.1333
30268SOL    HW295935   9.789   8.172  10.887 -0.6114 -0.1554  1.8998
30269SOL     OW95936   5.102  10.967   4.827 -0.0409  0.0805  0.5456
30269SOL    HW195937   5.011  10.978   4.799  0.2856 -1.2562 -1.0612
30269SOL    HW295938   5.154  10.977   4.748  1.1574 -0.0501  1.2980
30270SOL     OW95939   2.125   8.028  10.615 -0.2106  0.3040 -0.0386
30270SOL    HW195940   2.064   8.007  10.685 -0.9721 -0.0074 -0.7868
30270SOL    HW295941   2.071   8.067  10.546  0.6405  1.2926 -0.1648
30271SOL     OW95942   5.703   1.353   5.940  0.3227 -0.8491 -0.3950
30271SOL    HW195943   5.621   1.314   5.972 -0.4867  1.1905  0.1470
30271SOL    HW295944   5.741   1.394   6.018  1.1806 -0.6200 -0.9345
30272SOL     OW95945   1.801   2.833   9.221  0.0724 -0.0563 -0.3626
30272SOL    HW195946   1.804   2.782   9.301  0.0690  0.1950 -0.2002
30272SOL    HW295947   1.709   2.832   9.194  0.1724 -0.6208 -0.6775
30273SOL     OW95948   0.017   7.935   7.971 -0.1506  0.4600  0.0258
30273SOL    HW195949   0.058   7.925   8.057 -0.7693  0.7251  0.3580
30273SOL    HW295950  -0.025   8.021   7.975 -1.4307 -0.1617 -0.0179
30274SOL     OW95951   1.071   8.083   4.329 -0.5840 -0.2438  0.9452
30274SOL    HW195952   1.051   8.088   4.236 -1.3870 -0.0685  1.1251
30274SOL    HW295953   1.103   7.993   4.342  2.2323  0.5827 -0.0088
30275SOL     OW95954   8.248   5.125   4.346  0.1063 -0.2906  0.9157
30275SOL    HW195955   8.237   5.040   4.303  1.3251 -0.4657  0.9254
30275SOL    HW295956   8.340   5.147   4.331  0.5672 -0.3419  3.4337
30276SOL     OW95957   3.521  10.050   0.595  0.3922 -0.1322 -0.0586
30276SOL    HW195958   3.477  10.099   0.665  1.4587 -1.6043  1.6995
30276SOL    HW295959   3.614  10.069   0.608  0.7261 -1.6933 -0.0443
30277SOL     OW95960   1.783   0.660   9.684  0.2899  0.1802  0.4678
30277SOL    HW195961   1.693   0.627   9.682 -0.5132  2.3187 -0.0489
30277SOL    HW295962   1.827   0.607   9.751 -1.3900 -0.7780  0.8369
30278SOL     OW95963   5.614   0.102   8.440  0.2796 -0.1292  0.1720
30278SOL    HW195964   5.602   0.081   8.533 -0.2107 -0.9554 -0.0734
30278SOL    HW295965   5.599   0.196   8.434 -0.3078 -0.1790  0.8266
30279SOL     OW95966   0.521   6.906   2.358 -0.4172 -0.1076  0.0680
30279SOL    HW195967   0.508   6.934   2.449 -0.6396  1.9384 -0.5809
30279SOL    HW295968   0.461   6.959   2.307  1.8483  0.9054 -1.6244
30280SOL     OW95969   3.417   2.072   0.636  0.1099  0.6151 -0.2912
30280SOL    HW195970   3.324   2.071   0.615  0.1437  1.5567 -0.5093
30280SOL    HW295971   3.430   2.154   0.684  1.0435  1.0915 -1.3234
30281SOL     OW95972   0.282   7.032  11.286 -0.1036 -0.0253 -0.3601
30281SOL    HW195973   0.364   6.986  11.306 -0.6855 -1.7509 -1.8294
30281SOL    HW295974   0.266   7.014  11.194 -2.2023  0.2118 -0.0705
30282SOL     OW95975   0.268   0.771   8.761  0.1520 -0.4731  0.6522
30282SOL    HW195976   0.342   0.804   8.813  0.7801 -0.1229 -0.4539
30282SOL    HW295977   0.270   0.822   8.681 -1.9486  0.2638  1.0350
30283SOL     OW95978   6.534   3.521   9.334  0.1188 -0.1322  0.3920
30283SOL    HW195979   6.508   3.597   9.282 -0.8553 -0.2305  0.7337
30283SOL    HW295980   6.452   3.486   9.368  0.5749 -1.2509  0.3623
30284SOL     OW95981   5.040   2.624   4.120  0.0317  0.1640  0.2169
30284SOL    HW195982   4.957   2.579   4.107  0.7599 -1.1254 -0.0518
30284SOL    HW295983   5.038   2.696   4.057 -0.1489 -0.9098 -1.0297
30285SOL     OW95984   0.988   4.811   3.957  0.0536 -0.4113  0.2836
30285SOL    HW195985   0.981   4.811   4.053 -1.3851  0.1994  0.1885
30285SOL    HW295986   1.053   4.879   3.938  0.3147 -0.5083  0.8266
30286SOL     OW95987   3.636   8.823   1.471  0.3222 -0.2657 -0.4164
30286SOL    HW195988   3.688   8.902   1.458 -2.2130  1.1597 -2.4466
30286SOL    HW295989   3.546   8.855   1.479 -0.6300 -2.8772 -0.1086
30287SOL     OW95990  11.000   7.098   6.593  0.3885 -0.1782 -0.0764
30287SOL    HW195991  11.044   7.015   6.612  1.0979  0.7252  2.4891
30287SOL    HW295992  11.071   7.161   6.583 -0.2039  0.4793 -0.1790
30288SOL     OW95993   3.432   8.567   4.743  0.3317 -0.5348  0.7936
30288SOL    HW195994   3.361   8.555   4.806 -0.1209 -0.1178  0.3683
30288SOL    HW295995   3.420   8.496   4.680  0.4118 -0.5818  0.8318
30289SOL     OW95996   9.286   0.953   2.621  0.1585  0.3814 -0.5982
30289SOL    HW195997   9.192   0.967   2.611  0.2295 -0.1291 -2.2109
30289SOL    HW295998   9.294   0.859   2.639  0.4055  0.2197 -1.5067
30290SOL     OW95999   8.415  11.140   9.499 -0.4164  0.1177 -0.0424
30290SOL    HW196000   8.443  11.086   9.574 -0.9117  0.2656  0.2509
30290SOL    HW296001   8.321  11.123   9.492 -0.1489 -0.8448 -1.4157
30291SOL     OW96002   7.168   2.671   0.839  0.4620 -0.3723 -0.3095
30291SOL    HW196003   7.162   2.761   0.871 -1.5882 -0.3156 -0.7329
30291SOL    HW296004   7.148   2.617   0.915  0.7046 -0.4239 -0.2838
30292SOL     OW96005   9.336   2.785   4.227 -0.2954  0.0403  0.2691
30292SOL    HW196006   9.425   2.813   4.247 -0.1836 -0.3324  0.3004
30292SOL    HW296007   9.344   2.691   4.209 -0.4126  0.3265 -1.3332
30293SOL     OW96008   8.492   9.483   3.457 -0.3091 -0.2191  0.0617
30293SOL    HW196009   8.438   9.560   3.475  1.1037  0.7603  0.1908
30293SOL    HW296010   8.538   9.466   3.540 -0.6157 -1.2322  0.0441
30294SOL     OW96011   6.073   3.176   4.259 -0.2697 -0.0488 -0.1658
30294SOL    HW196012   6.019   3.246   4.295 -2.3222 -1.1995 -0.9047
30294SOL    HW296013   6.041   3.163   4.170  0.4139 -1.5795 -0.2201
30295SOL     OW96014  10.372   5.203   7.391 -0.2563 -0.4597  0.1478
30295SOL    HW196015  10.423   5.157   7.323  1.2769 -0.3853  1.2233
30295SOL    HW296016  10.281   5.181   7.370 -0.0542  1.8000 -3.5719
30296SOL     OW96017   6.409   0.867   3.471  0.1049  0.1785 -0.1245
30296SOL    HW196018   6.427   0.787   3.520 -1.1032 -0.1894 -0.2871
30296SOL    HW296019   6.399   0.934   3.539  1.5227  0.2885 -0.0039
30297SOL     OW96020   5.921   4.511   3.708 -0.4638 -0.0906 -0.0263
30297SOL    HW196021   5.854   4.480   3.648  0.6135 -0.6448 -0.9605
30297SOL    HW296022   6.004   4.496   3.662  0.3638 -0.2957  1.4879
30298SOL     OW96023   0.557  10.626   7.816 -0.4495 -0.2727 -0.4659
30298SOL    HW196024   0.642  10.626   7.860 -1.3002 -0.1706  1.2365
30298SOL    HW296025   0.537  10.719   7.804 -0.8543 -0.2643  0.2317
30299SOL     OW96026   2.631   6.502   1.918  0.3270 -0.1398  0.5438
30299SOL    HW196027   2.692   6.446   1.871 -0.7923 -0.0650 -1.0088
30299SOL    HW296028   2.550   6.451   1.923 -0.0761  0.5277  0.9097
30300SOL     OW96029   7.414   6.101   9.594  0.7586  0.0554  0.1914
30300SOL    HW196030   7.464   6.137   9.667  0.4560 -0.4315  0.6398
30300SOL    HW296031   7.325   6.135   9.607  1.0004  1.0666 -0.7012
30301SOL     OW96032   6.513   8.690   5.317 -0.2926 -0.1756  0.1460
30301SOL    HW196033   6.457   8.713   5.392  0.6398  2.5752  0.0154
30301SOL    HW296034   6.479   8.605   5.288 -2.3608 -0.0451  2.0544
30302SOL     OW96035   3.388   1.922   2.189  0.1183 -0.5098  0.4951
30302SOL    HW196036   3.300   1.885   2.188  0.0772 -0.4038  0.0234
30302SOL    HW296037   3.414   1.921   2.282 -0.8388  0.5421  0.7839
30303SOL     OW96038   4.830   8.206   3.224  0.0296 -0.2253  0.1073
30303SOL    HW196039   4.789   8.125   3.192  0.6948 -1.0230  1.2662
30303SOL    HW296040   4.756   8.263   3.245 -0.4351 -0.2396 -1.4266
30304SOL     OW96041   3.044   1.576   7.040 -0.1727 -0.1983 -0.1268
30304SOL    HW196042   2.990   1.638   6.990 -1.6244 -1.2176  0.1478
30304SOL    HW296043   3.110   1.631   7.083 -0.5793  0.9909 -1.0019
30305SOL     OW96044   4.256   5.616   3.785 -0.0523 -0.0229  0.0389
30305SOL    HW196045   4.197   5.692   3.783 -2.6951 -1.9316  1.7544
30305SOL    HW296046   4.300   5.622   3.870 -1.2003 -1.0659  0.7176
30306SOL     OW96047   2.209   8.162   7.142 -1.5069 -0.2598 -0.6191
30306SOL    HW196048   2.209   8.108   7.221  1.3213 -0.1655 -0.4910
30306SOL    HW296049   2.167   8.244   7.169  1.6765  0.7599  1.6206
30307SOL     OW96050   3.290  11.307   0.849 -0.1437  0.2791 -0.0639
30307SOL    HW196051   3.285  11.382   0.909  0.0686  0.4133 -0.2156
30307SOL    HW296052   3.312  11.233   0.905  0.8616  0.5485 -0.0911
30308SOL     OW96053  11.301   4.734   5.852  0.5692  0.0306  0.0126
30308SOL    HW196054  11.296   4.704   5.761  0.5003  0.6262 -0.1784
30308SOL    HW296055  11.209   4.737   5.881  0.4521  1.7300 -0.5120
30309SOL     OW96056   0.866   2.661  10.964  0.2442 -0.5620 -0.6576
30309SOL    HW196057   0.881   2.570  10.938 -0.8667 -0.6107 -1.1496
30309SOL    HW296058   0.779   2.682  10.929 -0.8672 -0.2953  2.1761
30310SOL     OW96059   0.579   5.202   3.550  0.0385  0.2926 -0.9105
30310SOL    HW196060   0.483   5.203   3.556  0.0512  0.7999 -0.7707
30310SOL    HW296061   0.597   5.204   3.456 -0.0785  1.5190 -0.9117
30311SOL     OW96062   1.652   9.663   4.163  0.0028  0.2027 -0.0243
30311SOL    HW196063   1.698   9.609   4.100 -1.5561 -0.8572 -0.2981
30311SOL    HW296064   1.624   9.740   4.114  0.1556  0.1168 -0.2419
30312SOL     OW96065   1.222   2.199   4.775  0.1926 -0.6173 -0.4081
30312SOL    HW196066   1.130   2.178   4.788 -0.5717  2.3760 -0.5418
30312SOL    HW296067   1.223   2.293   4.757  3.2400 -0.6627 -0.8290
30313SOL     OW96068   4.827   2.741   4.720 -0.4035 -0.2250  0.1239
30313SOL    HW196069   4.766   2.780   4.657 -0.2188 -1.3150 -0.7204
30313SOL    HW296070   4.820   2.798   4.797 -0.0144  1.5975 -1.1605
30314SOL     OW96071   4.966   2.627   6.064 -0.1725  0.0840  0.2933
30314SOL    HW196072   5.053   2.606   6.031  0.0968  1.7483 -0.1407
30314SOL    HW296073   4.982   2.695   6.130 -1.1263  0.2590  0.3530
30315SOL     OW96074   1.658   4.616   9.850  0.6425 -0.1346 -0.0691
30315SOL    HW196075   1.583   4.602   9.908  1.8158 -0.9924  1.2755
30315SOL    HW296076   1.693   4.701   9.876  1.2635 -0.5905  0.5982
30316SOL     OW96077   2.518   7.371  10.418 -0.3295 -0.0926 -0.6267
30316SOL    HW196078   2.564   7.426  10.354 -2.3317 -0.0924 -2.0973
30316SOL    HW296079   2.505   7.288  10.374 -1.2187 -0.2954  0.0077
30317SOL     OW96080   7.242   8.190   8.032 -0.3060  0.1117 -0.1124
30317SOL    HW196081   7.300   8.254   7.991  1.0014 -0.8953  0.1326
30317SOL    HW296082   7.176   8.243   8.077  1.1452  1.2980  0.6513
30318SOL     OW96083   0.587  10.772  11.316  0.8545 -0.1731 -0.4937
30318SOL    HW196084   0.553  10.697  11.365  0.1414 -1.7974 -3.3505
30318SOL    HW296085   0.675  10.745  11.290  1.2985  0.7587 -0.0028
30319SOL     OW96086   0.273   9.835   5.831 -0.3330  0.2055  0.3055
30319SOL    HW196087   0.329   9.910   5.809 -0.2484 -0.3209 -1.2831
30319SOL    HW296088   0.307   9.763   5.778 -2.2400 -0.2374 -0.3348
30320SOL     OW96089   1.733   4.964   7.455 -0.2022  0.0115 -0.5293
30320SOL    HW196090   1.657   4.913   7.425 -0.3827 -0.3415  0.5129
30320SOL    HW296091   1.707   4.997   7.541  1.5717 -1.7649  0.7329
30321SOL     OW96092   9.773   3.847   8.934  0.1171 -0.0189  0.0740
30321SOL    HW196093   9.815   3.773   8.978 -0.3881 -0.4258 -0.1237
30321SOL    HW296094   9.741   3.902   9.005  0.9008  0.2539  0.2294
30322SOL     OW96095  10.977   2.315   3.924 -0.6767 -0.1584  0.5623
30322SOL    HW196096  11.004   2.300   3.833  0.0388  0.5305  0.6504
30322SOL    HW296097  10.927   2.397   3.921 -1.4205 -0.6046  0.6528
30323SOL     OW96098   4.333   8.874   2.520 -0.5123 -0.1421  0.2883
30323SOL    HW196099   4.367   8.963   2.520 -3.9848  1.2695 -0.6160
30323SOL    HW296100   4.291   8.864   2.606  0.8569 -1.3577  0.8475
30324SOL     OW96101   1.277   9.455   7.765  0.0339 -0.7691  0.2491
30324SOL    HW196102   1.354   9.507   7.741 -0.6405  1.0844  1.9138
30324SOL    HW296103   1.208   9.486   7.705 -0.4504  0.5372  1.4479
30325SOL     OW96104   3.101   1.439   4.833  0.4096  0.1611  0.0817
30325SOL    HW196105   3.065   1.527   4.823 -2.4260 -0.9867 -0.2555
30325SOL    HW296106   3.128   1.414   4.745  1.4480  0.7622  0.2193
30326SOL     OW96107  11.157   3.188   8.407 -0.7359  0.5842  0.2054
30326SOL    HW196108  11.100   3.116   8.433  0.9651 -0.6394  0.6042
30326SOL    HW296109  11.116   3.266   8.444 -1.4703 -0.4348  1.5391
30327SOL     OW96110   1.769   8.740   8.269  0.1265  0.2101  0.5248
30327SOL    HW196111   1.800   8.703   8.352  0.7077 -1.2143 -0.3067
30327SOL    HW296112   1.796   8.832   8.272 -1.2744  0.5763  2.5982
30328SOL     OW96113   5.836   1.889   4.396 -0.6056 -0.2032 -0.5336
30328SOL    HW196114   5.778   1.898   4.320 -1.4874 -0.2727  0.1195
30328SOL    HW296115   5.879   1.974   4.403 -0.6295 -0.1479 -1.0232
30329SOL     OW96116   9.640   6.411   4.610  0.3303  0.0131  0.1383
30329SOL    HW196117   9.692   6.346   4.562  2.1569 -0.8242  3.0850
30329SOL    HW296118   9.572   6.359   4.653  0.2834  0.4049  0.5340
30330SOL     OW96119   3.341   5.801   0.743  0.0307 -0.0092 -0.2259
30330SOL    HW196120   3.350   5.883   0.696 -0.1344 -0.1715 -0.5425
30330SOL    HW296121   3.431   5.767   0.751  0.0554  0.0049 -0.4480
30331SOL     OW96122   3.974   4.954   7.228 -0.3165 -0.0611  1.1366
30331SOL    HW196123   4.057   4.925   7.189 -1.1815 -0.5385 -0.4202
30331SOL    HW296124   3.909   4.892   7.194 -1.4795  0.9548  1.4587
30332SOL     OW96125   3.581  10.353   7.185 -0.3542 -0.2279 -0.7489
30332SOL    HW196126   3.506  10.411   7.169  0.0022 -0.2276 -2.4621
30332SOL    HW296127   3.633  10.400   7.250 -0.0473  1.4351 -2.1548
30333SOL     OW96128   6.149   0.081   9.235  0.1071  0.2613 -0.2038
30333SOL    HW196129   6.243   0.098   9.239  0.1059  0.3236 -0.3948
30333SOL    HW296130   6.113   0.156   9.186  0.1164 -0.3486 -1.1682
30334SOL     OW96131   3.610   8.244   9.815  0.4835 -0.1631 -0.0631
30334SOL    HW196132   3.581   8.195   9.891  0.8402  0.6699  0.6147
30334SOL    HW296133   3.610   8.335   9.843  1.6072  0.0598 -0.7368
30335SOL     OW96134   3.450   6.481  10.220 -0.5468  0.0496 -0.5094
30335SOL    HW196135   3.431   6.564  10.265  0.5296 -0.0479  0.1446
30335SOL    HW296136   3.542   6.489  10.193 -0.8462 -0.3694 -1.6753
30336SOL     OW96137   7.372   1.540   8.420  0.4842  0.2523  0.0596
30336SOL    HW196138   7.408   1.598   8.354  1.5631  0.3502  0.7058
30336SOL    HW296139   7.290   1.508   8.384  0.6185  1.0242 -0.9207
30337SOL     OW96140   7.905   9.533   4.157 -0.1907 -0.0066  0.1329
30337SOL    HW196141   7.844   9.488   4.216 -1.2045  0.4409 -0.5519
30337SOL    HW296142   7.866   9.619   4.144  0.5070  0.2257 -0.4577
30338SOL     OW96143   4.213   0.401   0.080  0.4775  0.0687 -0.0624
30338SOL    HW196144   4.175   0.325   0.125 -0.2463 -0.1638 -1.0527
30338SOL    HW296145   4.305   0.402   0.109 -0.1312  0.3577  1.9782
30339SOL     OW96146   8.191   7.092   0.953  0.1935  0.5179 -0.3509
30339SOL    HW196147   8.274   7.099   1.000 -0.1592  0.4918  0.2783
30339SOL    HW296148   8.144   7.172   0.975 -0.5712 -0.1534  0.5069
30340SOL     OW96149   0.110   6.870  10.555 -0.6808  0.1945  0.2846
30340SOL    HW196150   0.068   6.843  10.636  0.3137 -1.8114  0.1677
30340SOL    HW296151   0.149   6.790  10.520  0.6529  1.4108 -1.1240
30341SOL     OW96152   5.151  10.603   0.289  0.1583  0.1805  0.3568
30341SOL    HW196153   5.195  10.592   0.373  3.3012  2.2251 -0.9389
30341SOL    HW296154   5.196  10.544   0.229 -1.8175 -0.9924 -0.0104
30342SOL     OW96155   6.644  10.416   4.478  0.7326 -0.0626  0.3646
30342SOL    HW196156   6.636  10.511   4.471 -0.8563 -0.3070 -1.7148
30342SOL    HW296157   6.734  10.401   4.505  1.1149  2.0153  0.3031
30343SOL     OW96158   9.484   3.374   9.754 -0.0227 -0.5355 -0.5531
30343SOL    HW196159   9.482   3.319   9.675 -0.3109 -0.4328 -0.6187
30343SOL    HW296160   9.397   3.412   9.758 -0.1543 -0.9043  0.0799
30344SOL     OW96161   9.164   2.156   4.252 -0.0197  0.5311  0.3932
30344SOL    HW196162   9.206   2.192   4.330  0.2788  1.5002 -0.2158
30344SOL    HW296163   9.213   2.192   4.178  0.8423 -1.8050 -0.2165
30345SOL     OW96164   8.715   7.887   3.108  0.1289 -0.2046 -0.0311
30345SOL    HW196165   8.624   7.870   3.133  0.2563 -2.0223 -0.6915
30345SOL    HW296166   8.747   7.950   3.172 -1.0703 -0.9260  1.2964
30346SOL     OW96167   3.608   3.108   2.571  0.0443 -0.6591 -0.7514
30346SOL    HW196168   3.678   3.172   2.582  0.4138 -1.2117  0.1843
30346SOL    HW296169   3.528   3.157   2.588  0.4918 -1.0904  3.1102
30347SOL     OW96170   8.715   5.624   3.177  0.2079  0.0177  0.0181
30347SOL    HW196171   8.655   5.695   3.199  0.7990  0.7567 -0.7897
30347SOL    HW296172   8.658   5.547   3.167 -0.1716 -0.2783  3.6370
30348SOL     OW96173   5.218   3.198   7.757 -0.1033  0.1321 -0.4062
30348SOL    HW196174   5.291   3.137   7.750 -0.2386 -0.0677 -0.0971
30348SOL    HW296175   5.141   3.142   7.769 -0.3258  0.3382 -0.9071
30349SOL     OW96176   2.017   9.376   0.065  0.2321  0.3394 -0.4962
30349SOL    HW196177   2.040   9.465   0.039 -0.2368  0.6698  0.2249
30349SOL    HW296178   1.945   9.352   0.007 -0.8158  1.0788  0.4847
30350SOL     OW96179   2.891   1.762   6.901  0.1368 -0.5658 -0.5621
30350SOL    HW196180   2.844   1.844   6.916  0.8586  0.0007 -1.3687
30350SOL    HW296181   2.931   1.773   6.815  0.4359 -1.6762 -0.5698
30351SOL     OW96182   8.007   0.546   9.412 -0.7887  0.7212  0.1587
30351SOL    HW196183   7.997   0.553   9.317  1.0572  0.1071 -0.1001
30351SOL    HW296184   8.007   0.637   9.443  1.4547  1.0546 -0.7592
30352SOL     OW96185  10.367   2.202   2.347  0.0630 -0.4781 -0.1533
30352SOL    HW196186  10.343   2.271   2.409 -0.1114 -2.5369  2.1312
30352SOL    HW296187  10.283   2.168   2.316  0.1035 -1.6900  1.0436
30353SOL     OW96188   6.918  10.244   8.775  0.2608 -0.1554  0.0123
30353SOL    HW196189   6.902  10.173   8.713 -0.1084  0.1475 -0.2368
30353SOL    HW296190   6.975  10.304   8.728 -0.3986  0.3042 -0.1929
30354SOL     OW96191   7.074   8.472   0.623  0.3438 -0.8993  0.1504
30354SOL    HW196192   6.978   8.466   0.623  0.0184  2.8625 -0.0649
30354SOL    HW296193   7.101   8.428   0.543 -1.2673 -1.5446 -0.0567
30355SOL     OW96194   2.917   8.523   9.817 -0.0992  0.2374  0.2531
30355SOL    HW196195   2.895   8.495   9.728  0.9267 -0.5656  0.2428
30355SOL    HW296196   2.920   8.619   9.812  3.4555  0.0859 -1.4433
30356SOL     OW96197   1.294   5.788   2.644  0.1451 -0.3959 -0.6953
30356SOL    HW196198   1.209   5.762   2.608 -0.3996  2.2096 -1.4319
30356SOL    HW296199   1.272   5.845   2.718  1.2361 -0.1875 -0.5213
30357SOL     OW96200   6.594  11.239   0.670  0.2389  0.8040 -0.0421
30357SOL    HW196201   6.636  11.301   0.730  1.6220  0.1142 -0.2810
30357SOL    HW296202   6.650  11.161   0.673 -0.1297  0.4623 -1.5835
30358SOL     OW96203   4.677  10.754   5.255 -0.4653  1.0542  1.0671
30358SOL    HW196204   4.598  10.707   5.281  0.7155 -1.7474 -0.1459
30358SOL    HW296205   4.703  10.802   5.333 -0.1519 -2.6416  3.3619
30359SOL     OW96206   2.061   1.653   6.985  0.1720 -0.1415  0.2964
30359SOL    HW196207   1.971   1.628   7.007  0.1897  1.1358  1.9081
30359SOL    HW296208   2.115   1.598   7.040  0.3755 -0.5093 -0.2641
30360SOL     OW96209   5.635   4.399   7.641  0.0023 -0.3256  0.1876
30360SOL    HW196210   5.694   4.453   7.692  0.4855 -1.1906  0.5527
30360SOL    HW296211   5.690   4.362   7.571 -0.1701 -0.9048  0.3591
30361SOL     OW96212  10.006  10.560   2.446 -0.2270  0.7079 -0.1146
30361SOL    HW196213  10.066  10.564   2.521  0.2100 -1.3586 -0.3223
30361SOL    HW296214  10.033  10.632   2.390 -0.3366  2.0768  1.5486
30362SOL     OW96215   3.656   4.231   0.938  0.0038 -0.1668 -0.0685
30362SOL    HW196216   3.678   4.141   0.963  2.1762  0.6861  1.2979
30362SOL    HW296217   3.712   4.285   0.995 -0.9840  2.0269 -1.1477
30363SOL     OW96218   1.624   8.020   2.636 -0.2706  0.3590 -0.1033
30363SOL    HW196219   1.544   7.967   2.629 -1.0177  1.3964  0.4089
30363SOL    HW296220   1.682   7.985   2.568 -1.4302  0.0552 -0.9613
30364SOL     OW96221   9.590   3.732   2.322  0.3243 -0.4043  0.6495
30364SOL    HW196222   9.610   3.706   2.412  0.5499  0.6295  0.9033
30364SOL    HW296223   9.567   3.825   2.329 -1.4128 -0.7687 -0.0949
30365SOL     OW96224   2.130   8.999  10.779 -0.0942 -0.4301 -0.7578
30365SOL    HW196225   2.108   9.076  10.831  2.8014  0.0800 -0.2149
30365SOL    HW296226   2.173   9.034  10.701  1.0802 -1.4691 -0.5888
30366SOL     OW96227   9.974   3.533   5.774  0.0747  0.5072 -0.5265
30366SOL    HW196228   9.902   3.477   5.803  0.4981  0.3258  0.1973
30366SOL    HW296229   9.988   3.509   5.682 -1.8386  1.6797 -1.1401
30367SOL     OW96230   0.365   3.432   5.047 -0.2414 -0.2798  0.5979
30367SOL    HW196231   0.313   3.510   5.026 -0.1528 -0.5698 -0.7801
30367SOL    HW296232   0.373   3.433   5.142 -1.1553  0.8082  0.6761
30368SOL     OW96233   2.005   9.055   5.964 -0.0938 -0.5660  0.1905
30368SOL    HW196234   2.055   9.115   5.910 -0.6185  0.0704  0.4099
30368SOL    HW296235   1.957   9.111   6.025 -2.0982 -1.0562 -0.8919
30369SOL     OW96236   8.968   3.557   7.891  0.6028 -0.5928  0.0143
30369SOL    HW196237   8.965   3.505   7.810 -0.5275  0.2449 -0.4842
30369SOL    HW296238   8.888   3.609   7.889 -0.1645 -1.6284  2.4004
30370SOL     OW96239   7.043   8.559   1.375 -0.2662 -0.3722 -0.0661
30370SOL    HW196240   7.110   8.619   1.342 -0.2742 -0.2754  0.0920
30370SOL    HW296241   6.962   8.589   1.333 -0.1515 -0.7200 -0.5492
30371SOL     OW96242   0.926   6.802   0.708  0.3677 -0.0375 -0.1711
30371SOL    HW196243   0.882   6.800   0.793  0.5479 -0.3686 -0.0849
30371SOL    HW296244   0.861   6.839   0.649 -1.7540 -4.6433 -1.0207
30372SOL     OW96245   2.350   7.115   9.763 -0.1595 -0.1731 -0.1158
30372SOL    HW196246   2.266   7.133   9.722 -0.1148 -0.7757 -0.4700
30372SOL    HW296247   2.410   7.098   9.690  0.1660 -0.1909  0.1524
30373SOL     OW96248   3.168   3.649  10.716 -0.0883 -0.1908  0.2647
30373SOL    HW196249   3.227   3.574  10.709  0.9203  0.7889 -2.3416
30373SOL    HW296250   3.122   3.636  10.799  2.8106 -1.6652  1.6902
30374SOL     OW96251   9.608   3.435   5.193  0.0024  0.3657  0.2348
30374SOL    HW196252   9.544   3.390   5.247 -0.4358  1.0343  0.2761
30374SOL    HW296253   9.561   3.455   5.112  0.6052 -0.4863 -0.3295
30375SOL     OW96254   3.643   7.311  11.322  0.5914  0.1473 -0.2373
30375SOL    HW196255   3.603   7.366  11.253 -1.4672 -0.7187  0.2307
30375SOL    HW296256   3.676   7.374  11.386 -0.5790  0.9080 -0.3525
30376SOL     OW96257   3.175   2.110   8.740 -0.3239  0.2128 -0.1776
30376SOL    HW196258   3.208   2.099   8.651 -0.6195  3.1207 -0.7038
30376SOL    HW296259   3.095   2.162   8.731 -1.0838 -0.5713  1.6826
30377SOL     OW96260   2.206   5.259   0.181 -0.4827  0.5448 -0.4225
30377SOL    HW196261   2.135   5.254   0.244  1.2244 -1.1383  1.4393
30377SOL    HW296262   2.253   5.340   0.202  0.1757 -0.0909  0.6147
30378SOL     OW96263   5.902  10.089   8.107 -0.6817 -0.1310  0.1432
30378SOL    HW196264   5.853  10.156   8.154  0.0626  0.5587 -0.0479
30378SOL    HW296265   5.993  10.101   8.136 -0.0937  0.7652 -1.9662
30379SOL     OW96266   1.464  10.385   8.673 -0.0265  0.3728 -0.2424
30379SOL    HW196267   1.368  10.390   8.669 -0.0259  0.4956 -0.0862
30379SOL    HW296268   1.489  10.453   8.735  0.0179 -1.2901  1.5914
30380SOL     OW96269   1.799   4.357   7.597 -0.0210  0.3100 -0.1217
30380SOL    HW196270   1.882   4.325   7.632  0.4751 -0.1261 -1.6384
30380SOL    HW296271   1.740   4.282   7.603 -1.3922  1.6191  4.2320
30381SOL     OW96272   7.123   6.644   6.958  0.2366 -0.4820 -0.3503
30381SOL    HW196273   7.057   6.613   6.896  0.3768  1.1556 -1.3292
30381SOL    HW296274   7.155   6.564   6.999 -1.3893 -1.4096 -0.8318
30382SOL     OW96275   4.034   4.571   1.102  0.6375 -0.6344  0.3523
30382SOL    HW196276   4.036   4.666   1.097 -0.3389 -0.7197 -2.0766
30382SOL    HW296277   4.118   4.548   1.143  1.2381  1.2045  0.2031
30383SOL     OW96278   8.098   8.441   3.680 -0.1370 -0.4833  0.0119
30383SOL    HW196279   8.098   8.382   3.755 -1.1751 -0.8057 -0.2349
30383SOL    HW296280   8.021   8.496   3.693  0.1477  0.0096 -0.3830
30384SOL     OW96281   0.612   0.354  10.008  0.0502  0.6604 -0.1593
30384SOL    HW196282   0.560   0.434  10.018  1.7627  1.7724  0.1378
30384SOL    HW296283   0.671   0.354  10.083  2.1983  0.7878 -1.7859
30385SOL     OW96284   4.939   5.929  10.012 -0.4473 -0.7011 -0.3637
30385SOL    HW196285   4.889   5.950   9.934  1.5986 -0.7618 -1.7145
30385SOL    HW296286   4.982   5.845   9.992  0.2029 -0.6560  0.7607
30386SOL     OW96287   7.139   5.074   7.021  0.3222 -0.5835 -0.0872
30386SOL    HW196288   7.216   5.109   7.065 -1.1459  0.7423  1.4766
30386SOL    HW296289   7.067   5.131   7.049 -0.8539 -0.3827 -3.3205
30387SOL     OW96290   0.212   8.084   5.443  0.2277 -0.1614 -0.8558
30387SOL    HW196291   0.147   8.014   5.443  2.3385 -2.2660  2.8305
30387SOL    HW296292   0.166   8.159   5.481 -0.3167 -1.4261  1.0742
30388SOL     OW96293   8.504   6.535   9.332  0.4251  0.1019 -0.3208
30388SOL    HW196294   8.567   6.591   9.286  0.3845 -1.3461 -2.2009
30388SOL    HW296295   8.430   6.593   9.350  1.4060  1.2875  0.0176
30389SOL     OW96296   6.651   7.062  10.785  0.0029 -0.1367  0.7419
30389SOL    HW196297   6.610   7.102  10.709  1.2419  0.1722  0.2439
30389SOL    HW296298   6.605   6.978  10.795  0.0918 -0.3528 -0.5764
30390SOL     OW96299  11.131  10.432   5.767  0.2491 -0.1358 -0.7303
30390SOL    HW196300  11.065  10.461   5.830 -0.7243 -1.8426 -0.9500
30390SOL    HW296301  11.201  10.395   5.822 -0.4736 -1.3680 -0.6340
30391SOL     OW96302   8.425   8.347   6.198  1.2363 -0.1220 -0.1410
30391SOL    HW196303   8.423   8.252   6.194 -0.7955 -0.2054  1.9166
30391SOL    HW296304   8.435   8.375   6.106 -2.2357 -2.2636 -1.2941
30392SOL     OW96305  10.392   9.340   2.167 -0.4562 -0.1123 -0.0671
30392SOL    HW196306  10.434   9.381   2.091 -0.5756 -2.2822 -1.3597
30392SOL    HW296307  10.316   9.395   2.186  0.1624  1.0366 -0.8734
30393SOL     OW96308   6.563   0.442   4.627  0.5681 -0.1216 -0.5968
30393SOL    HW196309   6.494   0.507   4.638 -0.2086 -0.7951 -1.3577
30393SOL    HW296310   6.595   0.425   4.715 -0.6142 -0.1909 -0.1803
30394SOL     OW96311   4.417   0.946   9.975 -0.5466 -0.7095 -0.3841
30394SOL    HW196312   4.359   0.957  10.050 -0.0871 -1.2425  0.0543
30394SOL    HW296313   4.372   0.991   9.903  0.3952  2.3537  0.8635
30395SOL     OW96314   0.182   3.176   6.548  0.6418  0.2743 -0.2172
30395SOL    HW196315   0.121   3.121   6.500  0.8419  0.3144 -0.5165
30395SOL    HW296316   0.262   3.176   6.495  1.4713 -1.1473  1.0086
30396SOL     OW96317  11.058   1.869   9.435 -0.0235 -0.6191  0.0537
30396SOL    HW196318  11.138   1.873   9.384 -0.9559  2.0485 -1.2918
30396SOL    HW296319  10.994   1.830   9.376 -0.2666 -0.6771  0.3564
30397SOL     OW96320   6.876   6.143   6.323 -0.4772  0.1332  0.2113
30397SOL    HW196321   6.963   6.126   6.287  0.5102 -0.7895  2.9022
30397SOL    HW296322   6.820   6.156   6.246  1.3634 -2.5419 -1.6908
30398SOL     OW96323   9.422   2.186   7.195  0.2450  0.5832  0.4519
30398SOL    HW196324   9.429   2.223   7.283  1.0867 -0.4686  0.8388
30398SOL    HW296325   9.331   2.155   7.189  0.1781  0.6870  0.9238
30399SOL     OW96326   1.077   3.665   8.994 -0.1933  0.1120  0.4478
30399SOL    HW196327   1.163   3.641   8.961 -0.3901 -0.1966  0.1559
30399SOL    HW296328   1.041   3.584   9.031  0.1353  0.5117  1.6741
30400SOL     OW96329   0.544   1.547   5.694  0.8968 -0.6484 -0.4084
30400SOL    HW196330   0.584   1.471   5.735  1.8023 -0.2971 -0.6468
30400SOL    HW296331   0.616   1.593   5.651  1.2511  2.7241  3.3882
30401SOL     OW96332  10.231   3.245   7.555 -0.3420 -0.6400  0.6302
30401SOL    HW196333  10.213   3.336   7.580  1.4978  0.2720 -1.1613
30401SOL    HW296334  10.268   3.205   7.634 -1.1065  0.1706  1.4161
30402SOL     OW96335   8.592  10.118   2.100 -0.0205 -0.1615  0.8405
30402SOL    HW196336   8.580  10.182   2.030 -1.7213  0.7554  1.9202
30402SOL    HW296337   8.669  10.149   2.148  1.0811 -0.7368 -0.5424
30403SOL     OW96338   4.298   2.427  10.172  0.1901 -0.0355  0.1708
30403SOL    HW196339   4.322   2.360  10.237  0.0860  0.2541  0.5101
30403SOL    HW296340   4.287   2.378  10.090  3.6840  0.0751 -0.4142
30404SOL     OW96341   7.105   1.049   7.780 -0.1702 -0.0931 -0.2671
30404SOL    HW196342   7.192   1.049   7.821 -0.3173 -1.1447  0.0557
30404SOL    HW296343   7.045   1.063   7.853 -0.1821  2.4623 -0.7268
30405SOL     OW96344   8.558   8.362   4.454  0.3260  0.1110 -0.1153
30405SOL    HW196345   8.589   8.316   4.377  1.1319  0.4708 -0.0102
30405SOL    HW296346   8.593   8.451   4.445 -0.3757  0.4258  0.1835
30406SOL     OW96347  10.222   7.944   8.372  0.0041  0.1358  0.3964
30406SOL    HW196348  10.162   7.997   8.320  0.0131 -0.6887 -0.4700
30406SOL    HW296349  10.278   8.007   8.417 -1.0333  0.8971  0.6417
30407SOL     OW96350   2.453  10.018   8.723  0.6860  0.2099  0.0676
30407SOL    HW196351   2.475   9.925   8.719  1.3970  0.4092 -0.7980
30407SOL    HW296352   2.462  10.049   8.633 -0.5079  0.9048  0.1787
30408SOL     OW96353  11.146   0.762   6.586 -0.1175  0.1986 -0.1046
30408SOL    HW196354  11.140   0.833   6.650 -1.1381  0.4334 -0.4453
30408SOL    HW296355  11.061   0.717   6.592 -0.7255  0.9923 -2.1763
30409SOL     OW96356   7.804   5.441   2.906  0.3551 -0.3485  0.3240
30409SOL    HW196357   7.779   5.348   2.907 -0.0606 -0.2532 -0.5780
30409SOL    HW296358   7.724   5.486   2.878  1.1486  0.0895 -1.2726
30410SOL     OW96359   2.165  10.467   4.138  0.9190 -0.7389 -0.8834
30410SOL    HW196360   2.200  10.488   4.052 -1.1644  1.6887 -1.2059
30410SOL    HW296361   2.070  10.459   4.124  0.6059 -0.8235  1.0959
30411SOL     OW96362   0.255   4.692  10.436  0.3304  0.3246 -0.2104
30411SOL    HW196363   0.294   4.767  10.391  1.4080  0.1845  0.4641
30411SOL    HW296364   0.173   4.677  10.390  0.6677  1.1671 -1.1208
30412SOL     OW96365   9.072   3.235   5.436 -0.5633 -0.8248  0.4650
30412SOL    HW196366   9.131   3.310   5.433 -0.8455 -0.6220 -0.3541
30412SOL    HW296367   9.127   3.160   5.414 -0.1788 -0.9316  1.7730
30413SOL     OW96368   8.786  11.097   3.733  0.3247  0.1900  0.8318
30413SOL    HW196369   8.734  11.129   3.659  0.0124  0.9022  1.3532
30413SOL    HW296370   8.850  11.166   3.750 -0.6137  0.7367  2.2210
30414SOL     OW96371   1.070   5.598   8.456 -0.2525  0.2389  0.3206
30414SOL    HW196372   1.018   5.679   8.451  1.0534  1.0468 -0.5192
30414SOL    HW296373   1.161   5.628   8.462  0.1022 -1.1579  2.3924
30415SOL     OW96374   4.737   3.965   9.594  0.2667 -0.3160  0.2260
30415SOL    HW196375   4.758   4.058   9.583  0.3252 -0.1309  1.7833
30415SOL    HW296376   4.820   3.920   9.581  0.4207 -0.0810  0.4039
30416SOL     OW96377   3.418   4.559   4.440  0.0313  0.9381  0.2002
30416SOL    HW196378   3.451   4.639   4.481 -0.0736  0.4642  1.2358
30416SOL    HW296379   3.435   4.490   4.505 -0.5575  0.2476 -0.3695
30417SOL     OW96380   8.560   6.559   3.120 -0.0882  0.1110 -0.3535
30417SOL    HW196381   8.554   6.501   3.044  0.8083  0.2014 -0.5035
30417SOL    HW296382   8.577   6.646   3.082 -0.1929  0.2535 -0.0762
30418SOL     OW96383   6.430   7.301   1.337 -0.5863 -0.0179 -0.2890
30418SOL    HW196384   6.392   7.388   1.341 -2.1677 -0.5577 -2.6125
30418SOL    HW296385   6.500   7.309   1.272 -1.9683 -0.8844 -1.9266
30419SOL     OW96386   2.088   9.384   3.153  0.2191 -0.2139 -0.0301
30419SOL    HW196387   2.047   9.443   3.089  0.1852 -0.4995 -0.2737
30419SOL    HW296388   2.165   9.432   3.183  0.6330 -0.3645 -0.8160
30420SOL     OW96389   5.232   5.204   7.580  0.2413 -0.1881  0.1383
30420SOL    HW196390   5.243   5.114   7.609 -0.7652 -0.7822 -1.2573
30420SOL    HW296391   5.235   5.199   7.484 -3.1856  0.7465 -0.0932
30421SOL     OW96392   5.087   7.674   9.441  0.1793  0.3735 -0.3239
30421SOL    HW196393   5.142   7.684   9.363 -0.2746  0.5905 -0.6152
30421SOL    HW296394   5.042   7.591   9.428  0.2120  0.3384 -0.2180
30422SOL     OW96395   5.566   1.479   5.761  0.2559 -0.2333  0.5941
30422SOL    HW196396   5.621   1.546   5.721  0.3243 -1.6652 -1.7687
30422SOL    HW296397   5.622   1.438   5.828  1.5926 -0.6988 -0.7854
30423SOL     OW96398   9.231   5.306   2.353 -0.3037 -0.0225  0.4042
30423SOL    HW196399   9.262   5.218   2.330 -1.4060 -0.5791  0.9714
30423SOL    HW296400   9.162   5.290   2.418 -2.5856  1.0735 -1.6744
30424SOL     OW96401   2.880  11.056   0.081  0.2142  0.4948 -0.6353
30424SOL    HW196402   2.928  11.138   0.074  1.7913 -0.3627 -0.0736
30424SOL    HW296403   2.903  11.022   0.167 -1.0504 -0.1610 -0.5425
30425SOL     OW96404   6.757   0.339  11.063  0.6132 -0.2379 -0.2797
30425SOL    HW196405   6.742   0.394  10.986 -0.2184  1.0068  0.7419
30425SOL    HW296406   6.850   0.317  11.060  1.2541  2.2867 -0.0382
30426SOL     OW96407   0.619   5.472   2.856 -0.0265  0.2954 -0.0831
30426SOL    HW196408   0.586   5.471   2.766 -0.6963 -2.8369  0.1559
30426SOL    HW296409   0.684   5.542   2.857 -1.5791  1.8488 -2.4202
30427SOL     OW96410   7.193   5.845   4.992  0.1991  0.4914 -0.0682
30427SOL    HW196411   7.172   5.907   5.061  1.6979  0.2764  0.5900
30427SOL    HW296412   7.108   5.817   4.959 -0.5119  1.4357  0.9246
30428SOL     OW96413  10.750  10.972   5.961 -0.1568 -0.7421  0.4818
30428SOL    HW196414  10.812  10.907   5.995 -0.1028 -0.1456  1.5532
30428SOL    HW296415  10.723  11.022   6.038  0.0857  0.7503 -0.3800
30429SOL     OW96416   0.015  10.575  11.098  0.6274 -0.0972 -0.4051
30429SOL    HW196417  -0.055  10.510  11.101  0.3706  0.2296  1.2195
30429SOL    HW296418   0.069  10.554  11.174  0.6249  1.4959  0.0442
30430SOL     OW96419   4.122  10.611  11.284 -0.3684 -0.2008  0.0223
30430SOL    HW196420   4.048  10.604  11.344 -0.2575 -1.2472  0.0367
30430SOL    HW296421   4.083  10.638  11.200 -0.6065  0.5189  0.3626
30431SOL     OW96422   7.325   4.725   4.069 -0.1126 -0.0505 -0.1894
30431SOL    HW196423   7.384   4.651   4.060 -0.2008 -0.2902  1.1342
30431SOL    HW296424   7.285   4.714   4.156 -2.3975 -0.1188 -1.2137
30432SOL     OW96425  10.205   8.750   6.351 -0.4087  0.4027  0.2384
30432SOL    HW196426  10.113   8.740   6.331 -0.3750  0.9706 -0.1941
30432SOL    HW296427  10.240   8.660   6.352 -1.0688  0.1510  0.9196
30433SOL     OW96428   7.676   0.338   8.494 -0.0930 -0.2406  0.0188
30433SOL    HW196429   7.716   0.355   8.409  1.1997  0.5834  0.7759
30433SOL    HW296430   7.648   0.423   8.526  0.3636 -0.3881  0.8572
30434SOL     OW96431   8.332   1.799   6.840 -0.2927 -0.2213 -0.4085
30434SOL    HW196432   8.410   1.749   6.865 -0.6194 -0.5184  0.0211
30434SOL    HW296433   8.344   1.885   6.881 -0.2829 -0.3299 -0.1865
30435SOL     OW96434   8.725   6.731   8.619 -0.1496 -0.4748 -0.4251
30435SOL    HW196435   8.803   6.771   8.657 -0.6161  0.3805 -0.3745
30435SOL    HW296436   8.710   6.779   8.538  0.1539 -1.5241 -1.1144
30436SOL     OW96437   4.611   0.304   2.341  0.0224  0.2890 -0.5830
30436SOL    HW196438   4.671   0.237   2.309 -0.2021  0.0301 -0.4668
30436SOL    HW296439   4.666   0.361   2.395 -0.5916 -2.2682  2.9012
30437SOL     OW96440   8.846   3.225   5.694 -0.1929  0.0170 -0.1631
30437SOL    HW196441   8.932   3.185   5.706 -0.5191 -1.3772 -2.2478
30437SOL    HW296442   8.817   3.195   5.607 -2.6142  0.7607  0.3480
30438SOL     OW96443   6.097   5.591   4.311  0.2956 -0.9088 -0.1809
30438SOL    HW196444   6.161   5.522   4.328  0.3045 -1.0899 -0.9056
30438SOL    HW296445   6.115   5.619   4.221  1.1638  0.9921  0.5779
30439SOL     OW96446   9.488   1.345  10.430 -0.6046 -0.3978 -0.3781
30439SOL    HW196447   9.573   1.329  10.473  0.4245  0.8297 -1.9010
30439SOL    HW296448   9.424   1.332  10.499  0.8094 -1.6820  0.7292
30440SOL     OW96449   9.251   4.853   5.447 -0.3722 -0.0832  0.1339
30440SOL    HW196450   9.218   4.924   5.392  1.9160  0.5797 -0.4540
30440SOL    HW296451   9.341   4.878   5.467 -0.3395 -1.5778  2.0689
30441SOL     OW96452   3.116   3.364   4.401 -0.0690  0.1414  0.2651
30441SOL    HW196453   3.127   3.309   4.479  0.0067  0.8072  0.7290
30441SOL    HW296454   3.174   3.439   4.416  0.2198  0.0967 -0.6017
30442SOL     OW96455   1.576   4.539   8.743  0.1499  0.3845  0.4895
30442SOL    HW196456   1.569   4.625   8.783 -1.2960  0.6509 -0.3007
30442SOL    HW296457   1.664   4.537   8.704 -0.0348  1.7103  0.0088
30443SOL     OW96458   7.629   3.379   0.595 -0.4583  0.6715 -0.4112
30443SOL    HW196459   7.575   3.439   0.646 -0.8637  0.0068 -0.0666
30443SOL    HW296460   7.571   3.308   0.571  0.2188  0.0349 -0.1804
30444SOL     OW96461   4.672   0.406   3.035  0.7019  0.1206 -0.2852
30444SOL    HW196462   4.766   0.425   3.032  0.5283  0.8847 -1.0193
30444SOL    HW296463   4.667   0.311   3.026  1.4931 -0.1256  1.6567
30445SOL     OW96464   2.139   4.031  11.002 -0.2018  0.0868  0.0075
30445SOL    HW196465   2.146   3.985  10.918 -0.0452  1.2977 -0.6498
30445SOL    HW296466   2.184   3.974  11.065  0.5237 -0.3597 -0.9109
30446SOL     OW96467   8.330   4.094   0.796  0.6333 -0.1758 -0.4964
30446SOL    HW196468   8.363   4.097   0.706  0.8922 -1.9355 -0.4762
30446SOL    HW296469   8.254   4.036   0.792 -1.2466  2.1843 -0.1407
30447SOL     OW96470   3.844   9.966  10.211 -0.0374  0.1233 -0.1148
30447SOL    HW196471   3.785   9.942  10.282 -0.2540  0.8513 -0.0398
30447SOL    HW296472   3.835  10.061  10.204  2.1230  0.4421  0.8093
30448SOL     OW96473   1.270   1.137   8.282 -0.1666  0.3498  0.1610
30448SOL    HW196474   1.318   1.161   8.203  1.2483 -0.9622  0.6005
30448SOL    HW296475   1.336   1.100   8.340 -1.2996  0.7377  1.7368
30449SOL     OW96476   6.904   3.866   2.598  0.0850 -0.5175  0.7287
30449SOL    HW196477   6.833   3.914   2.641  0.7073  0.5129  0.6287
30449SOL    HW296478   6.968   3.934   2.574  0.4024 -1.2471 -0.5383
30450SOL     OW96479   8.661  10.435   8.607 -0.4955  0.1505 -0.5788
30450SOL    HW196480   8.754  10.413   8.594 -0.5930 -0.0197 -1.0013
30450SOL    HW296481   8.662  10.504   8.674  0.1166  1.7807 -2.2131
30451SOL     OW96482  11.322   5.421   6.657 -0.0219  0.5073 -0.0012
30451SOL    HW196483  11.393   5.402   6.718 -0.0771  1.8860  0.5023
30451SOL    HW296484  11.328   5.351   6.592 -0.2097 -1.1980  1.7671
30452SOL     OW96485   3.670   6.899   1.766  0.7609 -0.3582 -0.2904
30452SOL    HW196486   3.674   6.804   1.755 -0.4614 -0.3150 -1.1959
30452SOL    HW296487   3.578   6.917   1.786  0.8793  0.6912 -0.6431
30453SOL     OW96488   0.011   7.240   2.104 -0.2561 -0.4659  0.4056
30453SOL    HW196489   0.015   7.235   2.200  1.1476  1.1854  0.4468
30453SOL    HW296490  -0.017   7.330   2.086 -1.4716 -1.0575 -0.7285
30454SOL     OW96491   7.570   2.271   5.235 -0.2279  0.4118  0.0151
30454SOL    HW196492   7.644   2.230   5.190  0.3215  0.2534  1.0373
30454SOL    HW296493   7.494   2.223   5.203  0.2102 -0.0739 -0.3260
30455SOL     OW96494   5.333   0.457   4.305 -0.0558 -0.0404  0.3007
30455SOL    HW196495   5.355   0.545   4.278  0.8979 -0.1528  0.7018
30455SOL    HW296496   5.417   0.412   4.315 -0.5064 -0.8562  0.5522
30456SOL     OW96497   8.985   5.707   3.061 -0.5521  0.5297 -0.4831
30456SOL    HW196498   9.042   5.640   3.025  0.0367  1.4787 -1.3589
30456SOL    HW296499   8.898   5.684   3.029 -0.7695 -1.2185  1.2923
30457SOL     OW96500   7.190   7.028  10.407 -0.2542  0.1276  0.1222
30457SOL    HW196501   7.101   7.040  10.375  0.4055 -1.0649 -2.2363
30457SOL    HW296502   7.243   7.021  10.328  1.9004  0.5210  1.4982
30458SOL     OW96503   0.793   1.690   4.119 -0.2308  0.1573 -0.0647
30458SOL    HW196504   0.883   1.657   4.108 -0.7833 -0.7911 -2.0314
30458SOL    HW296505   0.791   1.724   4.208  2.6722  2.0160 -0.6315
30459SOL     OW96506   3.336   1.036   7.525 -0.4074 -0.2317  0.0404
30459SOL    HW196507   3.365   0.966   7.466 -1.1609 -0.2780 -0.2839
30459SOL    HW296508   3.400   1.106   7.513  1.2197 -1.4238  1.4781
30460SOL     OW96509   7.050   0.414   0.749  0.1265  0.8247  0.0489
30460SOL    HW196510   7.010   0.397   0.664 -0.4892 -0.2648  0.5419
30460SOL    HW296511   6.979   0.450   0.803 -1.1252 -4.0260  1.8819
30461SOL     OW96512   0.926   3.299   7.046 -0.2167  0.1000  0.0074
30461SOL    HW196513   0.951   3.389   7.067 -1.2999  0.2784  0.5073
30461SOL    HW296514   0.831   3.297   7.053 -0.2187 -1.0425 -0.1809
30462SOL     OW96515   9.017   6.024  10.760  0.1684 -0.3630 -0.0606
30462SOL    HW196516   9.012   6.078  10.681  2.4997  1.1421  0.7558
30462SOL    HW296517   9.111   6.004  10.769 -0.3846 -2.6828  0.9164
30463SOL     OW96518   2.434   9.080   7.604  0.0104 -0.3170 -0.1705
30463SOL    HW196519   2.507   9.085   7.542 -0.5286  0.1518 -0.7669
30463SOL    HW296520   2.425   8.986   7.622  0.7483 -0.3801 -0.1058
30464SOL     OW96521   8.327   1.067   7.789 -0.0588  0.0293  0.5795
30464SOL    HW196522   8.410   1.101   7.824 -0.8710  2.1761  0.4477
30464SOL    HW296523   8.270   1.143   7.782 -0.7706 -0.7457 -3.0979
30465SOL     OW96524   3.931   2.252   2.892  0.2653 -0.1645  0.5828
30465SOL    HW196525   3.963   2.312   2.824 -0.4269 -1.9456 -1.3621
30465SOL    HW296526   3.964   2.289   2.974  0.6237  2.3545 -0.6565
30466SOL     OW96527   5.557   2.704   1.545 -0.4084  0.0371  0.3370
30466SOL    HW196528   5.631   2.761   1.525 -0.3047 -0.4696 -0.7419
30466SOL    HW296529   5.571   2.677   1.636  0.5526  0.1984  0.2410
30467SOL     OW96530   2.238   2.797   7.041 -0.2312 -0.4322 -0.7424
30467SOL    HW196531   2.236   2.815   7.135 -0.7334  2.1954 -1.2100
30467SOL    HW296532   2.294   2.720   7.032  0.2822 -0.3684  1.6472
30468SOL     OW96533   2.617   6.319   6.328  0.0131 -0.2021  0.5099
30468SOL    HW196534   2.691   6.372   6.297 -0.1037  0.2478  0.9904
30468SOL    HW296535   2.644   6.287   6.414 -0.0670 -0.6174  0.3805
30469SOL     OW96536   3.961   5.549   8.892 -0.2026  0.0852 -0.5776
30469SOL    HW196537   3.937   5.560   8.985  0.2353 -0.8555 -0.3448
30469SOL    HW296538   3.915   5.619   8.847 -1.3477 -0.1422  0.2089
30470SOL     OW96539   2.893   0.843   2.537  0.2339 -0.8102 -0.1038
30470SOL    HW196540   2.916   0.898   2.611  1.4355  0.4829 -1.4138
30470SOL    HW296541   2.798   0.855   2.526  0.7365  2.3617 -1.4206
30471SOL     OW96542   6.581   0.372   1.807  0.2251 -0.3478  0.1864
30471SOL    HW196543   6.599   0.313   1.880  0.4914 -1.0645 -0.4478
30471SOL    HW296544   6.639   0.341   1.737  0.0662  0.4111 -0.2837
30472SOL     OW96545   9.111   7.130   2.896  0.0569  0.0522  0.1489
30472SOL    HW196546   9.200   7.125   2.932 -0.1353 -0.5028  0.5600
30472SOL    HW296547   9.080   7.217   2.921 -0.0835 -0.3403  1.3775
30473SOL     OW96548   4.262   4.281   8.171  0.5961  0.2332  0.3344
30473SOL    HW196549   4.236   4.233   8.249 -0.2480  0.6218  0.2914
30473SOL    HW296550   4.182   4.288   8.119  1.3953 -1.0287 -1.1070
30474SOL     OW96551   5.721   5.880   3.786  0.1724 -0.6544 -0.0969
30474SOL    HW196552   5.742   5.939   3.859 -1.3481 -0.6456  0.3332
30474SOL    HW296553   5.662   5.815   3.823 -3.2530  1.1979 -2.0186
30475SOL     OW96554   8.392   4.220  10.857 -0.3095  0.0544 -0.1235
30475SOL    HW196555   8.473   4.261  10.825  0.1708 -1.6150 -1.0784
30475SOL    HW296556   8.349   4.290  10.906  1.1033  1.3464 -0.6529
30476SOL     OW96557   6.395   7.989   1.647  0.0193 -0.6208  0.1242
30476SOL    HW196558   6.373   8.080   1.667 -0.1390 -0.8091  0.8448
30476SOL    HW296559   6.343   7.968   1.569  0.3495  0.0187 -0.2723
30477SOL     OW96560   8.948   6.488   5.772  0.1442 -0.1685 -0.3789
30477SOL    HW196561   8.899   6.462   5.850  0.0730  1.8811  0.2915
30477SOL    HW296562   8.928   6.581   5.761  0.9853 -0.1860 -2.2433
30478SOL     OW96563  10.811   9.323   0.494  0.2515 -0.7932  0.0106
30478SOL    HW196564  10.906   9.338   0.489  0.2756 -1.2355 -0.8801
30478SOL    HW296565  10.797   9.242   0.445 -0.3956 -1.5461  1.3955
30479SOL     OW96566   3.861   5.772   0.267  0.0370 -0.1356 -0.2349
30479SOL    HW196567   3.894   5.760   0.178 -1.4110  0.0517 -0.8091
30479SOL    HW296568   3.775   5.730   0.266  0.4964 -1.1502  1.4080
30480SOL     OW96569   5.277   0.057   4.441 -0.0534  0.2285  0.0340
30480SOL    HW196570   5.238   0.143   4.432  0.2123  0.1446 -2.3775
30480SOL    HW296571   5.204  -0.004   4.433  0.2783  0.1248 -2.9211
30481SOL     OW96572  11.132   3.064   4.244  0.4382  0.2958 -0.5442
30481SOL    HW196573  11.151   2.976   4.214 -0.7461  0.0115 -0.4811
30481SOL    HW296574  11.144   3.061   4.339 -0.1438  0.0615 -0.4785
30482SOL     OW96575   1.286   0.912   4.425 -0.3586 -0.3454 -0.9215
30482SOL    HW196576   1.309   0.902   4.333  0.6956 -1.7322 -0.5282
30482SOL    HW296577   1.313   0.829   4.466 -1.2127  0.0791  0.5473
30483SOL     OW96578   1.844   4.450  10.485 -0.3366 -0.0077  0.0069
30483SOL    HW196579   1.857   4.533  10.531  0.8986  0.8045 -1.7933
30483SOL    HW296580   1.917   4.395  10.513 -0.2835  0.0395 -0.0446
30484SOL     OW96581   4.765   5.783   9.356  0.4031 -0.4472  0.2061
30484SOL    HW196582   4.812   5.785   9.273  0.4243  0.5310  0.2320
30484SOL    HW296583   4.674   5.767   9.331  0.4408 -0.3447  0.0027
30485SOL     OW96584   2.095   1.312   1.934 -0.3170 -0.0612 -0.5416
30485SOL    HW196585   2.186   1.331   1.910 -0.4279  0.3499 -0.6245
30485SOL    HW296586   2.100   1.284   2.026 -0.1641  0.3689 -0.4217
30486SOL     OW96587   0.514   0.075  10.805 -0.2199 -0.7941 -0.6293
30486SOL    HW196588   0.593   0.129  10.795  0.1322 -1.3706 -0.9671
30486SOL    HW296589   0.444   0.128  10.766  0.2028 -0.7584 -1.3440
30487SOL     OW96590   9.586   6.104  10.763 -0.3378 -0.0675  0.1629
30487SOL    HW196591   9.611   6.055  10.841 -0.9571 -0.5028  0.0983
30487SOL    HW296592   9.632   6.061  10.691 -0.0987  0.0694  0.2344
30488SOL     OW96593   2.574   6.458   8.868 -0.3454 -0.1097 -0.2709
30488SOL    HW196594   2.489   6.448   8.912  0.1727 -1.6214  0.3936
30488SOL    HW296595   2.637   6.469   8.940  0.0618  0.8343 -0.7588
30489SOL     OW96596   6.034   5.818   3.347  0.0934 -0.1997 -0.1217
30489SOL    HW196597   5.970   5.886   3.329  0.5382  0.5076  0.9730
30489SOL    HW296598   6.049   5.777   3.262 -0.5248  0.7570 -0.7011
30490SOL     OW96599   0.703   9.007   0.217 -0.1250 -0.3711 -0.6703
30490SOL    HW196600   0.741   8.920   0.211  1.5148  0.2188  0.9239
30490SOL    HW296601   0.682   9.029   0.126 -1.5000 -2.8002 -0.9921
30491SOL     OW96602   0.959   1.915  10.593 -0.0354  0.1753 -0.3414
30491SOL    HW196603   0.945   1.911  10.498  1.4246  3.0224 -0.7315
30491SOL    HW296604   1.026   1.983  10.605 -0.7798  0.4445  2.7929
30492SOL     OW96605   6.428   8.295   7.995 -0.3584 -0.4282 -0.0347
30492SOL    HW196606   6.339   8.302   7.961 -0.2659  0.7255 -0.0421
30492SOL    HW296607   6.447   8.382   8.032  0.9601 -0.5079 -0.5149
30493SOL     OW96608   3.843   9.016   1.428  0.0774  0.0607  0.2112
30493SOL    HW196609   3.920   9.003   1.373  0.4983 -0.7363  0.9824
30493SOL    HW296610   3.811   9.103   1.404  0.3349 -0.2174 -1.1859
30494SOL     OW96611   9.911   1.650   1.801  0.1237 -0.0710 -0.2665
30494SOL    HW196612   9.876   1.687   1.882  0.1171 -2.2723  0.7796
30494SOL    HW296613   9.896   1.717   1.735 -0.5654  1.4495  1.4058
30495SOL     OW96614   4.119   8.001   0.984  0.8225  0.0430 -0.3613
30495SOL    HW196615   4.212   8.024   0.973  0.9315 -1.5404 -3.0801
30495SOL    HW296616   4.118   7.906   0.992 -0.5093  0.1206  0.5229
30496SOL     OW96617  10.184   1.459   4.648 -0.0134 -0.0864  0.1831
30496SOL    HW196618  10.102   1.412   4.632 -0.0966 -0.4652  1.6307
30496SOL    HW296619  10.184   1.476   4.742  1.2351  0.5510  0.0815
30497SOL     OW96620  10.349   6.804   1.172 -0.3002  0.1951  0.3103
30497SOL    HW196621  10.253   6.803   1.174 -0.3017 -1.0854  0.4531
30497SOL    HW296622  10.371   6.802   1.078 -0.3956  2.8017  0.2085
30498SOL     OW96623   6.887  11.183   6.235  0.0635 -0.3278 -0.4752
30498SOL    HW196624   6.894  11.246   6.307 -3.8509 -1.9162  1.4444
30498SOL    HW296625   6.923  11.102   6.271  0.6541 -0.4340 -1.2956
30499SOL     OW96626   6.744   7.321   4.681  0.6854  0.2203  0.1198
30499SOL    HW196627   6.749   7.241   4.734 -0.8253 -0.7636 -1.1871
30499SOL    HW296628   6.769   7.293   4.593  2.8966  1.7873  0.1950
30500SOL     OW96629   5.718   9.927  11.326 -0.7462  0.3227 -0.0326
30500SOL    HW196630   5.670   9.871  11.387  1.0459 -0.4726  0.6882
30500SOL    HW296631   5.771   9.984  11.383 -0.6268  0.9987 -0.8153
30501SOL     OW96632   1.731   8.847   7.369  0.3896 -0.2943 -0.6278
30501SOL    HW196633   1.688   8.828   7.286 -0.1774 -1.3624 -0.0950
30501SOL    HW296634   1.798   8.780   7.378 -1.6919 -2.1976  1.3039
30502SOL     OW96635   1.510   5.606   7.119 -0.1688 -0.1836 -0.7266
30502SOL    HW196636   1.450   5.631   7.048 -1.1789 -1.4870 -0.3433
30502SOL    HW296637   1.578   5.554   7.075 -0.3402 -0.2891 -0.8668
30503SOL     OW96638   8.900   4.382   1.821  0.0909  0.5572 -0.2077
30503SOL    HW196639   8.942   4.402   1.905 -0.7614 -0.0535  0.3696
30503SOL    HW296640   8.810   4.360   1.843  0.0267 -0.2550 -1.2207
30504SOL     OW96641  11.149   6.059  10.571 -0.5624 -0.1079 -0.3121
30504SOL    HW196642  11.210   6.042  10.499 -2.8716 -2.2973 -1.8032
30504SOL    HW296643  11.175   5.997  10.639 -0.0979  0.0716 -0.3249
30505SOL     OW96644  11.043   5.847   9.140 -0.0922  0.2429  0.2107
30505SOL    HW196645  10.980   5.920   9.134 -0.7518 -0.3604 -0.3109
30505SOL    HW296646  10.992   5.770   9.116  0.5963 -0.4022  0.8201
30506SOL     OW96647   9.354   3.533   5.675  0.2295 -0.1429  0.0570
30506SOL    HW196648   9.321   3.611   5.629 -0.0610 -0.6492 -0.5956
30506SOL    HW296649   9.449   3.537   5.664  0.2299  0.1951  0.1573
30507SOL     OW96650   0.319   7.590   1.530  0.7902  0.1971  0.6135
30507SOL    HW196651   0.387   7.628   1.474 -0.8274  1.0027 -0.8649
30507SOL    HW296652   0.253   7.659   1.539 -0.6911 -1.1471  0.5211
30508SOL     OW96653   4.316   8.753  10.749  0.1995  0.0198  0.5831
30508SOL    HW196654   4.272   8.820  10.802  1.5529 -0.2704  2.1254
30508SOL    HW296655   4.245   8.695  10.720 -0.9198  1.8390 -0.3893
30509SOL     OW96656   4.547   8.400   2.049 -0.0107 -0.1760 -0.1047
30509SOL    HW196657   4.534   8.343   1.974 -1.5039  0.5527 -0.4138
30509SOL    HW296658   4.492   8.476   2.032 -1.9559 -0.8590  2.6015
30510SOL     OW96659   0.471   4.509   4.818  0.3980 -0.2263 -0.3601
30510SOL    HW196660   0.546   4.470   4.773  0.7298 -1.0634  0.8867
30510SOL    HW296661   0.431   4.566   4.753  1.1164 -1.0839 -1.5786
30511SOL     OW96662   5.196   9.251   5.055  0.3672 -0.3477  0.5516
30511SOL    HW196663   5.270   9.194   5.035  0.0729 -0.4574 -0.2204
30511SOL    HW296664   5.237   9.333   5.083  0.8321  0.5731 -2.5996
30512SOL     OW96665   1.806   0.687  10.572 -0.4315  0.2107  0.3154
30512SOL    HW196666   1.824   0.775  10.540 -1.9327 -0.5567 -2.7842
30512SOL    HW296667   1.719   0.666  10.537 -0.3189 -2.3051  1.4337
30513SOL     OW96668   0.951  10.416   0.467  0.4428 -0.3436  0.0750
30513SOL    HW196669   1.000  10.497   0.470 -0.2974  0.1314 -0.5262
30513SOL    HW296670   1.011  10.352   0.427  0.7242  0.1159 -0.2355
30514SOL     OW96671   4.729   2.364   5.188  0.7163  0.6229  0.1775
30514SOL    HW196672   4.707   2.456   5.176 -1.0517  0.2852  0.5874
30514SOL    HW296673   4.669   2.335   5.257  0.8933 -0.9511 -0.3179
30515SOL     OW96674  10.473   1.017   9.727 -0.1347  0.5807  0.0432
30515SOL    HW196675  10.494   0.959   9.800 -1.3541  0.2065  0.1158
30515SOL    HW296676  10.521   0.981   9.652 -1.3456 -0.9020 -0.0548
30516SOL     OW96677   3.264  10.821   6.545  0.4180  0.6302 -0.1611
30516SOL    HW196678   3.262  10.849   6.636 -2.2936  2.9388 -0.8626
30516SOL    HW296679   3.208  10.744   6.541  0.0823  0.8658  0.0211
30517SOL     OW96680  10.828   9.562   7.584 -0.1703 -0.3775  0.3663
30517SOL    HW196681  10.825   9.505   7.660  1.0873  0.8682  1.3699
30517SOL    HW296682  10.762   9.630   7.601 -0.5228 -0.6048 -0.0745
30518SOL     OW96683   3.200   1.322   2.596  0.1389 -0.3373 -0.0665
30518SOL    HW196684   3.193   1.334   2.501 -0.6654 -2.8563 -0.3547
30518SOL    HW296685   3.146   1.392   2.633  1.2130  1.2388 -1.4120
30519SOL     OW96686   7.019   9.788   3.875  0.0300 -0.2826  0.0385
30519SOL    HW196687   7.029   9.883   3.875 -0.7245 -0.1981  0.0130
30519SOL    HW296688   7.058   9.760   3.958 -0.5755  0.1502  0.4773
30520SOL     OW96689   1.045   5.066  11.181 -0.2101  0.3017  0.1631
30520SOL    HW196690   1.070   4.975  11.170 -0.0683  0.1916  1.2628
30520SOL    HW296691   0.957   5.072  11.144 -0.0700 -0.1931 -0.2558
30521SOL     OW96692   2.110   6.791   9.341  0.3766 -0.5034 -1.0967
30521SOL    HW196693   2.205   6.782   9.343  0.2275 -2.0595 -0.1262
30521SOL    HW296694   2.094   6.884   9.359  1.7688  0.2147 -3.3856
30522SOL     OW96695   8.072   0.412   7.076 -0.2073 -0.0007  0.5495
30522SOL    HW196696   8.026   0.329   7.062  1.2042 -0.4806 -1.5671
30522SOL    HW296697   8.076   0.422   7.171 -0.4942 -2.2966  0.8350
30523SOL     OW96698   2.433   7.275   5.354 -0.1366 -0.1023  0.0534
30523SOL    HW196699   2.361   7.327   5.319  0.1410 -0.5013 -1.1383
30523SOL    HW296700   2.503   7.285   5.290  0.7277 -0.0467  1.0025
30524SOL     OW96701  10.201   1.852   1.397 -0.0801 -0.1878  0.5553
30524SOL    HW196702  10.129   1.908   1.423 -0.6814 -1.2310  1.1515
30524SOL    HW296703  10.246   1.830   1.479 -0.9580 -2.0813  0.5534
30525SOL     OW96704   4.770   6.124   4.575  0.7694 -0.6462 -0.4802
30525SOL    HW196705   4.748   6.217   4.564  3.5567 -0.0582 -1.3704
30525SOL    HW296706   4.732   6.081   4.498 -0.9333 -0.3628  0.1657
30526SOL     OW96707   9.085  11.267   0.533 -0.3170 -0.0758 -0.3619
30526SOL    HW196708   9.063  11.226   0.449  2.3013  0.2958 -1.2684
30526SOL    HW296709   9.087  11.361   0.513  0.9992 -0.0378 -0.0592
30527SOL     OW96710   5.585   2.716   0.527 -0.3407  0.6005  0.6791
30527SOL    HW196711   5.630   2.694   0.445 -0.7697 -0.7766  0.8002
30527SOL    HW296712   5.652   2.760   0.580  0.7331 -0.9590  0.6560
30528SOL     OW96713   1.196   3.368  10.954  0.2400  0.0175 -0.4452
30528SOL    HW196714   1.216   3.400  10.866 -0.0429  1.1932 -0.0874
30528SOL    HW296715   1.125   3.424  10.985  1.6220  0.8736  1.2615
30529SOL     OW96716  10.658   7.354   3.305 -0.3393 -0.4168  0.4204
30529SOL    HW196717  10.632   7.332   3.215 -0.2794 -0.9265  0.5232
30529SOL    HW296718  10.576   7.372   3.350 -0.3852 -0.3656  0.3154
30530SOL     OW96719   9.023   9.963   2.969  0.3419  0.4279 -0.0942
30530SOL    HW196720   9.041   9.957   3.063  1.0540 -1.3337 -0.3223
30530SOL    HW296721   9.083  10.032   2.938 -0.8089  1.9332  0.9342
30531SOL     OW96722   0.633   0.188   6.618 -0.3062 -0.5169  0.0002
30531SOL    HW196723   0.628   0.283   6.604 -5.0518 -0.9600 -2.4836
30531SOL    HW296724   0.672   0.154   6.537 -0.0074 -0.8060  0.2649
30532SOL     OW96725   3.277   4.928   9.562 -0.0460  0.1224 -0.6334
30532SOL    HW196726   3.359   4.932   9.612 -1.3965  1.9176  1.5320
30532SOL    HW296727   3.292   4.989   9.489  0.7330  0.0721 -0.5226
30533SOL     OW96728   5.202  10.268   2.927 -0.4274 -0.0837  0.7084
30533SOL    HW196729   5.185  10.296   3.017 -0.1374  0.4385  0.6028
30533SOL    HW296730   5.133  10.204   2.909  0.0648 -0.8761  1.6069
30534SOL     OW96731  10.131   1.039   6.394  0.0065 -0.1748 -0.0558
30534SOL    HW196732  10.144   1.023   6.301 -1.5996 -1.7238 -0.0308
30534SOL    HW296733  10.163   0.959   6.437 -0.9937 -0.2378  0.5872
30535SOL     OW96734   8.150   8.582   4.600  0.2342 -0.3246 -0.0714
30535SOL    HW196735   8.155   8.596   4.695  0.9687 -3.0739  0.3312
30535SOL    HW296736   8.241   8.590   4.570  0.4405 -2.3266 -0.0696
30536SOL     OW96737   6.791   2.677   9.896  0.1206  0.1497  0.3021
30536SOL    HW196738   6.733   2.662   9.822 -0.6853 -2.0342  1.3214
30536SOL    HW296739   6.874   2.638   9.870 -0.1550 -0.5938  0.5323
30537SOL     OW96740  10.339   2.669   9.026  0.6493  0.1914  0.0967
30537SOL    HW196741  10.355   2.758   9.057 -1.1659  0.6073 -0.0528
30537SOL    HW296742  10.425   2.634   9.004  1.3659  1.9787  0.0055
30538SOL     OW96743  11.248   2.841   6.664 -0.4633  0.9694  0.2217
30538SOL    HW196744  11.211   2.762   6.625 -0.2253  0.8156  0.3070
30538SOL    HW296745  11.271   2.815   6.753 -0.9967  1.3164  0.4647
30539SOL     OW96746   5.590   1.271   3.252  0.6058 -0.4523 -0.6836
30539SOL    HW196747   5.553   1.250   3.338  0.6387 -0.2236 -0.6119
30539SOL    HW296748   5.684   1.276   3.267  0.4796  1.3484 -0.3454
30540SOL     OW96749   3.847   5.803   8.108  0.2084 -0.0334 -0.2763
30540SOL    HW196750   3.842   5.840   8.019  1.5519 -0.2620 -0.4458
30540SOL    HW296751   3.891   5.719   8.097  3.4824  1.4442  1.0525
30541SOL     OW96752  10.625   2.248   1.817  0.5161 -0.1075  0.1607
30541SOL    HW196753  10.538   2.248   1.778 -0.1420 -0.8812  1.6152
30541SOL    HW296754  10.660   2.336   1.798 -0.3769  0.0431 -0.8262
30542SOL     OW96755   6.431   7.438   4.571 -0.4664  0.0041  0.1771
30542SOL    HW196756   6.352   7.493   4.567  0.0575  0.6185 -3.1726
30542SOL    HW296757   6.407   7.359   4.522  0.6684 -0.2457  0.0270
30543SOL     OW96758   0.030   7.295   2.437 -0.4302 -0.0221  0.0835
30543SOL    HW196759   0.090   7.296   2.511 -0.1456 -1.0906 -0.1276
30543SOL    HW296760  -0.034   7.227   2.459 -0.5799 -0.0639 -0.4684
30544SOL     OW96761   0.962   0.891   7.564 -0.0574  0.1728 -0.2309
30544SOL    HW196762   0.956   0.986   7.554 -1.6222 -0.0844 -2.1173
30544SOL    HW296763   0.880   0.858   7.527  0.2702 -1.8909  0.8215
30545SOL     OW96764   9.982   0.207   9.810 -0.1844 -0.1898 -0.1824
30545SOL    HW196765  10.008   0.274   9.747  0.5491 -1.4038 -1.1958
30545SOL    HW296766   9.962   0.130   9.757  0.0404 -1.1136  1.0379
30546SOL     OW96767   8.245   0.556   9.636  0.2204  0.5567  0.8500
30546SOL    HW196768   8.165   0.558   9.688  0.3658 -1.3383  1.1923
30546SOL    HW296769   8.219   0.588   9.549 -0.9731 -0.3399  0.8704
30547SOL     OW96770   4.194   5.624   3.143  0.0671 -0.3471  0.0406
30547SOL    HW196771   4.206   5.589   3.231 -3.2883 -3.9699 -0.8043
30547SOL    HW296772   4.113   5.675   3.148 -0.3308 -0.8567 -1.0253
30548SOL     OW96773   7.304   2.348   6.711 -0.5338  0.0630  0.2936
30548SOL    HW196774   7.214   2.314   6.710 -0.5916  0.2344 -0.7552
30548SOL    HW296775   7.350   2.297   6.644  0.2810 -0.3388  1.1343
30549SOL     OW96776   3.942   1.919  10.354  0.3430  0.0992 -0.3232
30549SOL    HW196777   3.865   1.936  10.300 -0.9894 -0.9288  1.2201
30549SOL    HW296778   3.944   1.991  10.417 -0.0357 -0.4931  0.3753
30550SOL     OW96779   8.853   9.752  10.982  0.3136  0.3077  0.1829
30550SOL    HW196780   8.936   9.771  10.937 -0.0764  0.5392 -0.4392
30550SOL    HW296781   8.822   9.671  10.943 -0.2034  0.6959 -0.2180
30551SOL     OW96782   4.997   3.712   0.162 -0.6011  0.1322 -0.3950
30551SOL    HW196783   4.971   3.630   0.121 -0.0847 -0.8037  1.1393
30551SOL    HW296784   4.917   3.765   0.161 -1.0761 -0.5877 -0.8642
30552SOL     OW96785  11.160   8.002   2.207  0.0671  0.2797  0.0645
30552SOL    HW196786  11.242   7.974   2.167 -0.9958  0.7670 -2.5077
30552SOL    HW296787  11.099   7.929   2.190 -0.1205  0.0234  1.7412
30553SOL     OW96788   3.974  10.761   1.096 -0.4764  0.7316 -0.4725
30553SOL    HW196789   3.951  10.830   1.159 -0.0223  1.1909 -0.8119
30553SOL    HW296790   4.061  10.785   1.065 -1.1065  1.0443 -2.0205
30554SOL     OW96791   4.990   2.594   6.499  0.4471  0.3127 -0.1441
30554SOL    HW196792   5.072   2.641   6.490  0.6040  0.6279  2.6053
30554SOL    HW296793   4.939   2.645   6.561 -1.2973 -0.5994 -0.7898
30555SOL     OW96794   0.393   6.838   4.331 -0.1478 -0.0307  0.3151
30555SOL    HW196795   0.476   6.805   4.368  0.8772  0.1996 -1.7177
30555SOL    HW296796   0.371   6.913   4.385  1.5187  0.5235  0.2545
30556SOL     OW96797   1.771   8.918   6.178 -0.5931 -0.1380 -0.9487
30556SOL    HW196798   1.801   8.849   6.120 -1.2020 -0.0206 -1.4109
30556SOL    HW296799   1.745   8.990   6.120  0.6386  0.7385 -0.4498
30557SOL     OW96800   9.804   8.553  10.051 -0.5443  0.2003 -0.0862
30557SOL    HW196801   9.863   8.620  10.016 -1.8369  1.0172 -0.7642
30557SOL    HW296802   9.733   8.603  10.091 -1.6811 -0.7622 -0.8632
30558SOL     OW96803   5.365   7.923   3.278  0.3122  0.2115  0.4329
30558SOL    HW196804   5.389   7.979   3.203 -0.0122 -0.2182  0.0032
30558SOL    HW296805   5.294   7.970   3.321  0.6238  0.5500  0.5834
30559SOL     OW96806   1.307   2.995   7.436 -0.2249 -0.1921 -0.1443
30559SOL    HW196807   1.345   2.910   7.413 -0.7752 -0.4155 -0.2419
30559SOL    HW296808   1.367   3.060   7.400  0.1825 -0.5455 -0.0928
30560SOL     OW96809   1.137   1.172   4.500  0.2677 -0.4386 -0.1485
30560SOL    HW196810   1.056   1.213   4.529 -0.0708 -1.6661  0.6767
30560SOL    HW296811   1.160   1.110   4.570  1.3012 -0.9188 -0.8889
30561SOL     OW96812   3.749   5.832  10.437  0.2756  0.5359 -0.5436
30561SOL    HW196813   3.806   5.825  10.514  2.3020  0.6195 -1.9874
30561SOL    HW296814   3.802   5.879  10.372 -0.4200 -1.6816 -2.8414
30562SOL     OW96815   2.369   0.967   1.831  0.7962 -0.4546  0.0579
30562SOL    HW196816   2.356   0.874   1.849  2.4038 -0.4190  1.5581
30562SOL    HW296817   2.288   1.010   1.860  0.6576 -1.2088  0.7847
30563SOL     OW96818   1.091   4.388   7.445  0.8439  0.2706 -0.2156
30563SOL    HW196819   1.111   4.445   7.520  2.6600  0.2726 -0.6695
30563SOL    HW296820   1.167   4.397   7.388  0.8372 -2.0505 -0.6372
30564SOL     OW96821   1.520   5.798   5.315  0.2591 -0.5551 -0.0551
30564SOL    HW196822   1.482   5.880   5.349  0.0612 -0.3805 -0.7024
30564SOL    HW296823   1.570   5.764   5.389  2.3304  1.3865 -0.5053
30565SOL     OW96824   1.043   8.813   2.234  0.0342  0.5479  0.8407
30565SOL    HW196825   1.080   8.901   2.228  0.7618  0.3140  1.7287
30565SOL    HW296826   0.980   8.808   2.162  0.6575  1.4713  0.2247
30566SOL     OW96827   0.001   7.834   0.314  0.1151 -0.3265  0.1072
30566SOL    HW196828  -0.085   7.847   0.273  0.5054  0.1867 -0.5535
30566SOL    HW296829   0.048   7.776   0.254  0.5622  0.1455 -0.0074
30567SOL     OW96830   2.186   7.547   0.658  0.9884  0.1311  0.0167
30567SOL    HW196831   2.212   7.536   0.567 -0.8956 -0.5590 -0.4813
30567SOL    HW296832   2.096   7.579   0.653  1.0783  0.6820  1.6373
30568SOL     OW96833   2.726   0.502   3.477  0.2475  0.9287  0.1132
30568SOL    HW196834   2.664   0.461   3.537  0.0586 -0.3061 -0.9170
30568SOL    HW296835   2.675   0.568   3.430 -0.0672  0.5269 -0.1055
30569SOL     OW96836  11.027   2.672   0.228 -0.1181 -0.9227 -0.0574
30569SOL    HW196837  11.013   2.685   0.321 -0.0187  0.0650 -0.1740
30569SOL    HW296838  11.055   2.758   0.195 -2.8091 -0.5192 -1.4739
30570SOL     OW96839   3.967   1.287  10.796  0.1454 -0.5008 -0.0218
30570SOL    HW196840   3.940   1.196  10.797  0.7902 -0.7168 -0.9015
30570SOL    HW296841   3.907   1.332  10.855  0.6326 -1.7173  1.4130
30571SOL     OW96842   8.553  10.597  10.804  0.2517 -0.4944  0.1771
30571SOL    HW196843   8.533  10.538  10.731  1.1395  0.2737 -0.6992
30571SOL    HW296844   8.643  10.626  10.788 -0.1229  1.0041  0.6456
30572SOL     OW96845   6.025   1.751   2.591 -0.4026 -0.0114  0.2872
30572SOL    HW196846   6.100   1.793   2.548  1.2425 -2.2664  0.8623
30572SOL    HW296847   5.950   1.805   2.567  0.9746  0.6722 -2.6997
30573SOL     OW96848  10.668   5.276   9.840 -0.5049  0.0495  0.3671
30573SOL    HW196849  10.643   5.187   9.818  0.2211 -0.1981  0.5075
30573SOL    HW296850  10.632   5.330   9.770  2.6563 -0.8501 -2.0813
30574SOL     OW96851   7.288   2.245   5.104  0.3847  0.2945 -0.2527
30574SOL    HW196852   7.340   2.266   5.026  0.0873  0.3642 -0.4335
30574SOL    HW296853   7.207   2.209   5.069  0.2163  0.4069  0.0269
30575SOL     OW96854   6.053   4.668   7.945 -0.2352  0.6849 -0.2882
30575SOL    HW196855   6.007   4.752   7.940  1.3447  1.5541 -0.4245
30575SOL    HW296856   6.140   4.687   7.911  0.1572 -0.9978 -0.2179
30576SOL     OW96857   6.862  10.447  10.245 -0.5305 -0.5533 -0.1795
30576SOL    HW196858   6.777  10.404  10.251 -1.3082  0.7710 -1.3440
30576SOL    HW296859   6.912  10.394  10.184 -1.0273 -0.5409 -0.5989
30577SOL     OW96860   3.382   5.705  10.157  0.6718 -0.5332 -0.1773
30577SOL    HW196861   3.329   5.683  10.080  0.4557 -0.6243 -0.0042
30577SOL    HW296862   3.319   5.705  10.229  0.4047  1.9508 -0.3601
30578SOL     OW96863   1.332   3.404   1.054 -0.4543 -0.0763  0.0126
30578SOL    HW196864   1.412   3.387   1.003 -0.5802  0.5419 -0.3948
30578SOL    HW296865   1.329   3.499   1.062 -3.2674  0.2186 -3.4455
30579SOL     OW96866   1.737   5.803  10.610  0.4031  0.3408 -0.0366
30579SOL    HW196867   1.807   5.745  10.580  0.5659  0.9124 -0.7956
30579SOL    HW296868   1.727   5.867  10.539 -0.6356  0.4881  0.2255
30580SOL     OW96869   4.001   4.894   9.837  0.3236 -0.0111 -0.1227
30580SOL    HW196870   4.015   4.915   9.745 -2.7496 -2.6866 -1.2825
30580SOL    HW296871   3.914   4.930   9.857  1.1715  0.9889  1.8980
30581SOL     OW96872   8.255  11.183   4.741  0.0385 -0.6780  0.4738
30581SOL    HW196873   8.188  11.237   4.782  1.3466  0.1693  1.5343
30581SOL    HW296874   8.206  11.118   4.690 -1.5587  0.6664  0.2543
30582SOL     OW96875   4.471   4.847   7.823  0.8314  0.4279 -0.7828
30582SOL    HW196876   4.502   4.760   7.800  0.6162  0.6570 -1.9338
30582SOL    HW296877   4.383   4.832   7.858  1.2313  0.0677  0.0973
30583SOL     OW96878   7.034   2.639   7.846  0.0453 -0.2996  0.6217
30583SOL    HW196879   6.968   2.653   7.778  0.5972 -2.6808 -0.4739
30583SOL    HW296880   7.002   2.563   7.895  1.5399 -0.9184  0.6493
30584SOL     OW96881  10.462   3.019   1.424 -0.0249 -0.6963 -0.4106
30584SOL    HW196882  10.435   2.927   1.427  0.2590 -0.7649  0.1684
30584SOL    HW296883  10.382   3.068   1.446 -0.0098 -0.8390 -0.0239
30585SOL     OW96884   5.985   5.971   5.313  0.6823  0.2906 -0.0158
30585SOL    HW196885   5.904   6.019   5.328  0.8327  0.3721  0.5345
30585SOL    HW296886   5.960   5.900   5.254 -0.1448 -0.6798  1.4735
30586SOL     OW96887   6.887   4.054   4.935 -0.1122 -0.3215 -0.2443
30586SOL    HW196888   6.818   4.023   4.876  0.0530  0.0560 -0.6343
30586SOL    HW296889   6.908   3.978   4.989  0.0875 -0.8078 -1.0069
30587SOL     OW96890  10.219   7.048  11.315  0.4387 -0.1352  0.4596
30587SOL    HW196891  10.127   7.051  11.342  0.3183 -1.0824  0.1828
30587SOL    HW296892  10.268   7.039  11.397  0.1689 -1.4089  0.5011
30588SOL     OW96893   8.315   8.174   8.841 -0.1741  0.1413 -0.3056
30588SOL    HW196894   8.403   8.167   8.803 -0.1956 -1.2302 -0.1301
30588SOL    HW296895   8.281   8.256   8.807  1.9311  1.6816  1.1588
30589SOL     OW96896   2.756   4.069   5.692 -0.2052  0.0169  0.3153
30589SOL    HW196897   2.764   4.157   5.729 -1.7927 -0.0852  0.9131
30589SOL    HW296898   2.779   4.080   5.599 -0.4403  1.0574  0.3754
30590SOL     OW96899   7.713   0.609   2.259 -0.6119 -0.4116  0.1585
30590SOL    HW196900   7.705   0.609   2.164  0.6322 -3.2908  0.0066
30590SOL    HW296901   7.622   0.618   2.291 -0.9134  1.8543 -1.2392
30591SOL     OW96902   3.442   2.528   1.414  0.1937 -0.4654 -0.0703
30591SOL    HW196903   3.460   2.551   1.505 -0.8542 -0.1570  0.0667
30591SOL    HW296904   3.483   2.442   1.402  1.2642 -0.0284  0.3750
30592SOL     OW96905   9.475   4.605   0.430 -0.4231  1.0243  0.4451
30592SOL    HW196906   9.522   4.678   0.388  0.5272  0.1895  0.0184
30592SOL    HW296907   9.535   4.575   0.498  1.1999 -2.2073 -2.2653
30593SOL     OW96908   8.481   8.644   1.936  0.3130 -0.6184  0.4640
30593SOL    HW196909   8.554   8.705   1.954 -1.8659  2.1861  0.1424
30593SOL    HW296910   8.454   8.666   1.847 -1.8062 -0.6773  1.0812
30594SOL     OW96911   8.341   1.609   9.184  0.4237 -0.0452  0.0514
30594SOL    HW196912   8.424   1.594   9.231 -1.1035 -0.9096  2.6167
30594SOL    HW296913   8.342   1.702   9.162  0.8862  0.5877  2.5470
30595SOL     OW96914   1.888   4.413   4.562 -0.4677  0.2504  0.4141
30595SOL    HW196915   1.845   4.489   4.602 -1.6582  0.6341 -1.5204
30595SOL    HW296916   1.965   4.448   4.519 -1.1336  0.4265 -0.6636
30596SOL     OW96917   1.122  11.259   8.702 -0.1089  0.2354 -0.0505
30596SOL    HW196918   1.168  11.196   8.647  1.3786  1.0284  0.2587
30596SOL    HW296919   1.104  11.333   8.644 -0.4060  0.1988 -0.0039
30597SOL     OW96920  10.547   3.448   3.339  0.8779 -0.2259 -0.8033
30597SOL    HW196921  10.637   3.422   3.319  0.4320 -2.2529 -0.3046
30597SOL    HW296922  10.514   3.378   3.396 -0.3135  1.5780  0.8094
30598SOL     OW96923   9.234   7.111   0.326  0.1646 -0.1379  0.0645
30598SOL    HW196924   9.291   7.064   0.386  0.0632  2.1817  2.0571
30598SOL    HW296925   9.231   7.200   0.360 -2.1290  0.5621 -1.8039
30599SOL     OW96926  10.944   5.240  11.178 -0.1966 -0.2431 -0.7275
30599SOL    HW196927  11.016   5.178  11.171 -1.1787 -1.4247 -0.5894
30599SOL    HW296928  10.976   5.307  11.238  0.6792 -0.9071 -0.4373
30600SOL     OW96929   0.533   9.901   2.211 -0.3919  0.1062  0.3808
30600SOL    HW196930   0.563   9.976   2.262  1.2411  0.6999 -1.3789
30600SOL    HW296931   0.592   9.898   2.135 -2.1532 -1.2928 -1.0021
30601SOL     OW96932   4.429   6.243   0.756 -0.0274  0.1232 -0.2045
30601SOL    HW196933   4.360   6.283   0.704  0.3416  1.6626  0.4696
30601SOL    HW296934   4.386   6.170   0.802 -0.5707 -0.6204 -1.8746
30602SOL     OW96935   0.148   8.030   9.621 -0.6980 -0.2994  0.3188
30602SOL    HW196936   0.138   8.042   9.526 -2.0852  2.0924  0.7378
30602SOL    HW296937   0.219   7.966   9.629  1.0418  1.1813 -2.3139
30603SOL     OW96938   1.325   9.952   2.104  0.6360 -0.1966  0.0262
30603SOL    HW196939   1.401   9.928   2.051  2.3466  0.5498  2.0848
30603SOL    HW296940   1.285  10.024   2.056 -0.1144 -2.0697 -2.2384
30604SOL     OW96941   6.314  10.593   5.022 -0.2221 -0.2356 -0.3052
30604SOL    HW196942   6.406  10.581   5.042  0.0434 -1.6266 -2.2424
30604SOL    HW296943   6.267  10.548   5.092  0.6040 -1.3266 -0.4471
30605SOL     OW96944   0.783   3.487   0.229 -0.8403 -0.0705  0.4915
30605SOL    HW196945   0.814   3.459   0.143  0.5596 -0.1243  0.9924
30605SOL    HW296946   0.723   3.559   0.211  0.7016  1.0119 -0.4607
30606SOL     OW96947   2.656   4.978   8.687  0.3025 -0.0352  0.0423
30606SOL    HW196948   2.699   4.976   8.601  0.4910 -1.5820  0.1671
30606SOL    HW296949   2.609   4.895   8.693 -1.3640  0.9258  0.6136
30607SOL     OW96950  10.523   1.613   5.254  0.1239 -0.3152  0.3816
30607SOL    HW196951  10.508   1.648   5.342  1.0706 -0.2384  0.5149
30607SOL    HW296952  10.601   1.558   5.263 -0.2726 -0.9893 -0.2269
30608SOL     OW96953  10.292   8.453   5.099  0.0706 -0.1965 -0.3485
30608SOL    HW196954  10.305   8.491   5.186  0.3072  0.9028 -0.8479
30608SOL    HW296955  10.358   8.385   5.092  1.2110  0.8879 -0.3288
30609SOL     OW96956   8.876   4.360   9.299 -0.0169 -0.4884  0.2511
30609SOL    HW196957   8.931   4.286   9.274 -1.4340 -1.2309 -0.7672
30609SOL    HW296958   8.916   4.436   9.257  1.0680 -0.7750  0.7549
30610SOL     OW96959   8.134  10.191  10.276  0.0380  0.0502  0.3309
30610SOL    HW196960   8.135  10.179  10.371  1.3411  2.6291  0.6720
30610SOL    HW296961   8.074  10.264  10.262  2.7984  2.2119 -0.4788
30611SOL     OW96962   4.971   0.495   1.019  0.3388  0.1374 -0.4781
30611SOL    HW196963   4.899   0.477   0.958  0.4543 -2.0683  0.0093
30611SOL    HW296964   5.039   0.433   0.995  2.0457  2.0911 -0.8034
30612SOL     OW96965   3.217   7.873   5.879 -0.1970 -0.1629  0.3155
30612SOL    HW196966   3.253   7.881   5.968  1.9281  0.5308 -0.5901
30612SOL    HW296967   3.221   7.779   5.860  3.3916  0.1090 -0.6443
30613SOL     OW96968   8.677   5.910   7.520  0.0628  0.1616 -0.1453
30613SOL    HW196969   8.690   5.820   7.490 -0.9457  0.1237 -0.4544
30613SOL    HW296970   8.589   5.911   7.556  0.5266  0.7159  0.9992
30614SOL     OW96971   7.656   7.615   4.290 -0.8238  0.1677  0.1205
30614SOL    HW196972   7.634   7.617   4.383 -3.0037 -0.1966 -0.3529
30614SOL    HW296973   7.663   7.522   4.269  0.6383  0.2648  0.1120
30615SOL     OW96974   7.209   2.771   5.559 -0.2259  0.1718 -0.2900
30615SOL    HW196975   7.210   2.696   5.619 -0.3779  1.5888  1.5187
30615SOL    HW296976   7.120   2.806   5.566 -0.3797  0.1043 -1.6854
30616SOL     OW96977  10.481   9.539   9.782 -0.5658 -0.6248  0.1134
30616SOL    HW196978  10.464   9.452   9.819  2.7232 -0.7420  1.5728
30616SOL    HW296979  10.539   9.581   9.845  0.7127  1.3232 -2.2408
30617SOL     OW96980   0.288   5.039   6.810 -0.1102 -0.4843 -0.1662
30617SOL    HW196981   0.310   4.982   6.736  1.0075  1.5585 -1.4688
30617SOL    HW296982   0.305   5.128   6.777 -0.7097  0.5259  2.1780
30618SOL     OW96983   2.095   4.178   3.616  0.4283 -0.9308 -0.2736
30618SOL    HW196984   2.138   4.111   3.670  1.8312 -2.2253 -2.9183
30618SOL    HW296985   2.077   4.250   3.677  0.2303 -3.1051  2.3032
30619SOL     OW96986   4.217   4.122   3.060 -0.1358 -0.5688  0.1533
30619SOL    HW196987   4.195   4.185   3.129 -1.3347  0.4635 -1.1476
30619SOL    HW296988   4.297   4.081   3.091 -0.3913  0.2011  1.9563
30620SOL     OW96989   4.088   0.966   7.017  0.0628 -0.4798  0.0532
30620SOL    HW196990   4.169   1.014   7.039 -0.8830  1.5215 -0.6959
30620SOL    HW296991   4.097   0.947   6.924  0.0627 -1.0694  0.1719
30621SOL     OW96992   5.598   7.393   9.103 -0.3900 -0.0579  0.1880
30621SOL    HW196993   5.543   7.472   9.110 -1.4886 -0.6028 -1.7551
30621SOL    HW296994   5.541   7.329   9.060  2.1379 -0.2395 -3.0765
30622SOL     OW96995   3.701   5.429   0.245  0.2625  0.7823  0.4218
30622SOL    HW196996   3.663   5.360   0.190 -1.7881  1.5839  0.8095
30622SOL    HW296997   3.784   5.450   0.202  0.6104 -1.4397 -0.0848
30623SOL     OW96998   0.002   3.695   6.591 -0.3264  0.4128  0.2325
30623SOL    HW196999  -0.030   3.785   6.581  1.2102  1.1769  1.9730
30623SOL    HW297000   0.058   3.698   6.668  1.7101 -1.5231 -1.1244
30624SOL     OW97001   9.998  11.026   8.762 -0.3263  0.0269 -0.6966
30624SOL    HW197002   9.971  11.117   8.749 -1.0903 -0.0080  0.5163
30624SOL    HW297003  10.093  11.027   8.751  0.1447  1.6775  2.8371
30625SOL     OW97004   1.011   1.776   3.292  0.7789 -0.1978 -0.0346
30625SOL    HW197005   0.958   1.822   3.226 -0.1590 -2.2919 -0.7980
30625SOL    HW297006   0.947   1.734   3.349  1.6138 -0.1149  0.9809
30626SOL     OW97007   9.863  10.803   5.726  0.8899 -0.1922 -0.0922
30626SOL    HW197008   9.914  10.756   5.792  2.6533  0.3506 -1.0208
30626SOL    HW297009   9.839  10.885   5.769  0.6091 -0.5390  0.4225
30627SOL     OW97010   3.536   9.229   9.056 -0.3451 -0.3969  0.0473
30627SOL    HW197011   3.611   9.170   9.050  1.1874  0.8865  4.6129
30627SOL    HW297012   3.575   9.315   9.074 -2.8161  0.7344  0.2268
30628SOL     OW97013   2.686   6.996   6.453  0.5031 -0.2273  0.1904
30628SOL    HW197014   2.684   7.079   6.406 -0.3873  0.2494  1.0593
30628SOL    HW297015   2.594   6.970   6.460  0.7590 -1.1951  0.0950
30629SOL     OW97016   6.772   6.658   2.437  0.1509  0.6233 -0.3971
30629SOL    HW197017   6.728   6.713   2.502 -1.4054 -0.7215 -0.2620
30629SOL    HW297018   6.735   6.685   2.353  0.9439  1.2316 -0.5496
30630SOL     OW97019   7.062   7.089   1.784 -0.2498 -0.4573  0.1359
30630SOL    HW197020   7.057   7.048   1.870 -0.6774 -0.7330 -0.0158
30630SOL    HW297021   7.092   7.178   1.801  1.5467 -1.1081  0.3720
30631SOL     OW97022  10.277  10.770   1.559 -0.0961 -0.3139 -0.1768
30631SOL    HW197023  10.348  10.833   1.547  0.1763 -0.7502 -0.9120
30631SOL    HW297024  10.283  10.711   1.483 -1.0898 -0.5037 -0.1270
30632SOL     OW97025   5.724   4.181   6.669  0.5819 -0.0500 -0.7221
30632SOL    HW197026   5.785   4.243   6.630  0.6482  0.6665  0.4764
30632SOL    HW297027   5.687   4.228   6.744 -1.1515 -0.6068 -1.1923
30633SOL     OW97028   5.528   8.131  11.048  0.0363  0.0346 -0.0312
30633SOL    HW197029   5.590   8.094  10.985 -1.0265 -0.0480 -1.0453
30633SOL    HW297030   5.583   8.178  11.111  1.0805  0.8270 -1.5016
30634SOL     OW97031   0.293   7.763  10.820  0.8103  0.1601  0.3939
30634SOL    HW197032   0.294   7.753  10.725  0.5449  2.0537  0.1865
30634SOL    HW297033   0.381   7.796  10.842 -0.5277  3.9939  0.2939
30635SOL     OW97034   4.222   0.478   9.012  0.1216  0.1521  0.1517
30635SOL    HW197035   4.256   0.389   9.003 -0.9237 -0.1562 -0.8973
30635SOL    HW297036   4.165   0.489   8.936  0.2721  1.7299  0.2578
30636SOL     OW97037  10.514   8.744   3.139 -0.8469 -0.3168 -0.3830
30636SOL    HW197038  10.529   8.696   3.057 -0.4600 -0.1041 -0.4344
30636SOL    HW297039  10.425   8.780   3.129 -1.3158 -1.3804 -0.1593
30637SOL     OW97040   4.148   1.523  10.828 -0.5748 -0.2823  0.0831
30637SOL    HW197041   4.068   1.561  10.864 -0.0575 -0.6666  1.7107
30637SOL    HW297042   4.128   1.429  10.820 -1.3298  0.0739 -2.4660
30638SOL     OW97043   5.849   4.957   9.272  0.2237 -0.7308  0.1032
30638SOL    HW197044   5.755   4.962   9.288  0.1578  2.5055 -0.9703
30638SOL    HW297045   5.888   5.017   9.336  1.5585 -1.8573  0.3803
30639SOL     OW97046   7.923   9.276   2.048 -0.1310 -0.0819  0.4142
30639SOL    HW197047   7.975   9.318   1.981 -0.1897 -1.5244 -0.5605
30639SOL    HW297048   7.833   9.304   2.031  0.1055  1.1244  1.1149
30640SOL     OW97049   0.134   6.567   4.391  0.2130  0.0941  0.4823
30640SOL    HW197050   0.173   6.561   4.478 -2.2758  0.6580  1.6887
30640SOL    HW297051   0.066   6.499   4.390 -0.0375  0.3506 -0.8634
30641SOL     OW97052   8.564  10.487   3.904 -0.6574  0.2637  0.0616
30641SOL    HW197053   8.496  10.455   3.844  0.6126 -0.6899 -0.8799
30641SOL    HW297054   8.579  10.578   3.878  0.7029 -0.4864 -1.8330
30642SOL     OW97055   4.267   1.549   0.990  0.5401  0.1478  0.5258
30642SOL    HW197056   4.209   1.490   1.037 -0.6247  1.6282  0.9460
30642SOL    HW297057   4.350   1.545   1.039  0.0930 -0.1696  1.2598
30643SOL     OW97058   9.233   6.631   6.732 -0.0636  0.4869  0.0136
30643SOL    HW197059   9.299   6.685   6.690 -0.0208  0.8021  0.4844
30643SOL    HW297060   9.161   6.628   6.669  0.4536  0.0195 -0.5620
30644SOL     OW97061  10.799   4.721   6.520 -0.1771  0.1147  0.3494
30644SOL    HW197062  10.874   4.669   6.550 -0.2284  0.3561  0.8912
30644SOL    HW297063  10.826   4.812   6.532 -1.3832  0.1993  2.5965
30645SOL     OW97064   7.065   2.213   8.739  0.1587  0.0022  0.2810
30645SOL    HW197065   7.073   2.222   8.644  0.9009 -0.5674  0.2926
30645SOL    HW297066   7.154   2.196   8.770 -0.1608 -0.3589  1.0178
30646SOL     OW97067   7.880   1.819   8.094 -0.2448 -0.0520  0.5448
30646SOL    HW197068   7.789   1.849   8.100 -0.1580  0.6435 -1.0567
30646SOL    HW297069   7.889   1.754   8.163 -1.2320  1.6977  2.3884
30647SOL     OW97070   2.626   9.243   8.486  0.2794 -0.0899  0.2753
30647SOL    HW197071   2.636   9.303   8.413  1.4533  1.0726  1.3759
30647SOL    HW297072   2.677   9.282   8.557 -0.3714 -1.4864  1.5431
30648SOL     OW97073   3.102   0.273   9.181 -0.2174 -0.1191 -0.7498
30648SOL    HW197074   3.037   0.210   9.212 -0.8234  0.8268 -0.1043
30648SOL    HW297075   3.156   0.223   9.119 -1.8041 -0.8006 -1.6157
30649SOL     OW97076   3.629   8.314   0.584  0.5174 -0.5543  0.0158
30649SOL    HW197077   3.584   8.350   0.661 -0.2902  0.1115 -0.7444
30649SOL    HW297078   3.574   8.241   0.557  1.0452 -1.0712  0.3347
30650SOL     OW97079   3.598   4.529   1.020  0.0807  0.3663 -0.4109
30650SOL    HW197080   3.586   4.613   0.976  1.7960  1.7304  1.6057
30650SOL    HW297081   3.521   4.477   0.995 -1.7038  3.0136 -0.6021
30651SOL     OW97082   5.862   4.692  10.190  0.0129 -0.7902  0.2476
30651SOL    HW197083   5.773   4.725  10.199 -0.1403 -1.0709 -0.2180
30651SOL    HW297084   5.876   4.686  10.095  0.3333 -1.2635  0.3244
30652SOL     OW97085  10.967   1.245   3.503 -0.9641  0.1142  0.5937
30652SOL    HW197086  11.007   1.227   3.418 -0.9837 -0.5332  0.7203
30652SOL    HW297087  10.874   1.227   3.490 -1.2629  1.8265  0.2405
30653SOL     OW97088  10.905   3.487   9.124  0.5122  0.1534  0.1301
30653SOL    HW197089  10.894   3.406   9.074 -1.4926 -0.1667  1.0368
30653SOL    HW297090  10.946   3.459   9.206 -1.6364 -0.2270  1.1169
30654SOL     OW97091   3.046   2.177   0.996  0.5459 -0.4964 -0.8247
30654SOL    HW197092   2.992   2.103   0.968  1.4234 -1.7783  0.7477
30654SOL    HW297093   2.985   2.235   1.040 -0.3281  0.2095 -2.8949
30655SOL     OW97094   7.095   3.731   0.931  0.0148  0.6433  0.3515
30655SOL    HW197095   7.111   3.742   0.837 -0.6669 -1.6890 -0.0509
30655SOL    HW297096   7.146   3.654   0.955 -0.1657  0.9777  1.8252
30656SOL     OW97097   3.132   9.976   0.018  0.0078  0.1255  0.0870
30656SOL    HW197098   3.114  10.067   0.042  0.7529 -0.4654  3.1215
30656SOL    HW297099   3.059   9.927   0.057  0.2535 -0.6892 -0.4877
30657SOL     OW97100   1.264   1.320  11.275 -0.2466 -0.4187  0.2429
30657SOL    HW197101   1.291   1.327  11.183  0.3423  0.5091  0.4716
30657SOL    HW297102   1.268   1.410  11.308 -0.0197 -0.7971  1.2904
30658SOL     OW97103   2.141   4.348   3.823 -0.1386  0.1991  0.0850
30658SOL    HW197104   2.111   4.288   3.891  0.1829  0.3392  0.3523
30658SOL    HW297105   2.114   4.434   3.853 -0.6898  0.1838 -0.3478
30659SOL     OW97106   8.314   1.846   9.900  0.2366 -0.5215  0.0628
30659SOL    HW197107   8.245   1.881   9.956  0.4408 -0.7187  0.4323
30659SOL    HW297108   8.334   1.760   9.936  2.6713  0.6764  1.6891
30660SOL     OW97109  11.109   6.477   3.714 -0.4327  0.5593  0.1621
30660SOL    HW197110  11.114   6.483   3.619  0.0759 -0.2985  0.1257
30660SOL    HW297111  11.096   6.567   3.744  0.6230  0.9881 -0.6422
30661SOL     OW97112   2.375   3.834   7.195 -0.6677 -0.2558  0.5137
30661SOL    HW197113   2.325   3.792   7.126  0.6838  0.7002 -1.0887
30661SOL    HW297114   2.391   3.923   7.162  1.1973 -0.2348  1.4319
30662SOL     OW97115   1.884   0.789   2.803 -0.2510  0.4404 -0.0858
30662SOL    HW197116   1.795   0.753   2.801 -0.2779  0.5078 -0.1092
30662SOL    HW297117   1.871   0.884   2.801 -0.1888  0.4559  0.2206
30663SOL     OW97118   4.061   1.466   9.856  0.0402  0.2141 -0.4932
30663SOL    HW197119   4.084   1.535   9.794 -1.1444  2.4139  1.4484
30663SOL    HW297120   3.980   1.428   9.821  0.3421  0.2400 -1.2247
30664SOL     OW97121   2.993   1.125   0.418  0.4130  0.7104 -0.5372
30664SOL    HW197122   3.017   1.169   0.336  3.0535 -0.4159 -0.4099
30664SOL    HW297123   3.077   1.108   0.461 -0.7999 -1.0399  1.1872
30665SOL     OW97124   8.013   1.685   7.078  0.1601 -0.2847  0.0920
30665SOL    HW197125   7.925   1.687   7.041 -1.3419 -1.3087  3.3732
30665SOL    HW297126   8.043   1.595   7.064 -0.4811 -0.7235  1.3962
30666SOL     OW97127   9.215   7.985   6.210  0.0532  0.2029 -0.1911
30666SOL    HW197128   9.179   7.923   6.274  0.1211 -1.3088 -1.5788
30666SOL    HW297129   9.138   8.019   6.164  0.1219 -0.0360 -0.4831
30667SOL     OW97130   9.573   8.522   1.958  0.5415  0.2675 -0.1398
30667SOL    HW197131   9.524   8.493   2.035  2.3289  0.1415  0.9902
30667SOL    HW297132   9.584   8.443   1.905 -0.2587  0.2490 -0.2789
30668SOL     OW97133   2.156   1.335  10.133  0.0893 -0.0673 -0.2386
30668SOL    HW197134   2.135   1.245  10.158  1.3697 -0.7846 -1.6834
30668SOL    HW297135   2.092   1.388  10.180  0.4377 -1.5882  2.0415
30669SOL     OW97136  10.146   9.578   5.257 -0.0697 -0.2808  0.4851
30669SOL    HW197137  10.152   9.667   5.223  0.0652  0.7515  3.1043
30669SOL    HW297138  10.055   9.553   5.240  0.1581 -0.0629 -1.1791
30670SOL     OW97139   1.966   5.877   6.782 -0.2046 -0.2193 -0.0980
30670SOL    HW197140   2.009   5.909   6.861  0.2804 -0.1060 -0.4101
30670SOL    HW297141   2.028   5.893   6.712 -0.9597  0.4123 -0.6273
30671SOL     OW97142   9.286   4.502   3.647  0.0988 -0.2856 -0.0670
30671SOL    HW197143   9.205   4.474   3.689  0.3336 -0.7806  0.0649
30671SOL    HW297144   9.261   4.575   3.592 -0.5037 -0.6583 -0.2910
30672SOL     OW97145   7.586  10.320   9.985  0.4727 -0.6198  0.0614
30672SOL    HW197146   7.661  10.266  10.010  0.5779 -1.0112 -1.0504
30672SOL    HW297147   7.604  10.344   9.894  0.9528  2.2005  0.8639
30673SOL     OW97148   3.196   0.449   4.826 -0.2933  0.0782 -0.9851
30673SOL    HW197149   3.273   0.502   4.849  0.0335 -0.6468 -0.3609
30673SOL    HW297150   3.191   0.453   4.731  2.5709 -2.6520 -1.3368
30674SOL     OW97151   1.691   1.206  10.696 -0.7330  0.2529 -0.4539
30674SOL    HW197152   1.676   1.113  10.715 -0.6470  0.5670  1.1446
30674SOL    HW297153   1.624   1.252  10.746  1.0953  1.2393  1.1295
30675SOL     OW97154   0.327   0.099   4.734  0.3365  0.0384  0.4768
30675SOL    HW197155   0.254   0.089   4.794 -0.1713 -1.4152 -0.3734
30675SOL    HW297156   0.320   0.190   4.703 -1.1867 -0.1286  0.2910
30676SOL     OW97157   6.830   7.050   7.727 -0.3272  0.0892 -0.5011
30676SOL    HW197158   6.901   6.995   7.693  0.0496  0.2259  0.0438
30676SOL    HW297159   6.777   6.992   7.781  1.1025  0.6285  1.5481
30677SOL     OW97160   3.036   4.563   3.617  0.3051  0.2700  0.1685
30677SOL    HW197161   3.014   4.623   3.545 -0.6533  0.8388  0.9075
30677SOL    HW297162   3.093   4.615   3.674 -1.3190  0.8287  1.3107
30678SOL     OW97163  11.145   7.839   4.653 -0.3723  0.2812  0.2978
30678SOL    HW197164  11.144   7.833   4.558  2.6983 -1.1088  0.2931
30678SOL    HW297165  11.220   7.895   4.673 -0.2440 -0.4307  1.9049
30679SOL     OW97166   9.111   4.942   0.819 -0.2882 -0.6408 -0.1899
30679SOL    HW197167   9.156   4.965   0.738  0.4359  1.2681  0.7328
30679SOL    HW297168   9.019   4.966   0.804 -0.1917 -0.4837 -0.5073
30680SOL     OW97169   1.136   0.835   3.753 -0.5810  0.2774  0.4854
30680SOL    HW197170   1.134   0.807   3.845  0.3326  1.3568  0.8541
30680SOL    HW297171   1.230   0.838   3.732 -0.8092 -0.4884 -0.6537
30681SOL     OW97172   8.038   4.312   8.188 -0.0591  0.4332 -0.4027
30681SOL    HW197173   8.044   4.321   8.093 -1.6347 -1.7770 -0.7650
30681SOL    HW297174   8.098   4.241   8.209 -0.3477  0.3542  0.1426
30682SOL     OW97175   0.733   4.744   1.559  0.1739 -0.7388  0.2212
30682SOL    HW197176   0.797   4.813   1.575  1.7310 -2.2220  0.4646
30682SOL    HW297177   0.698   4.723   1.646 -2.2416  1.5109 -0.1161
30683SOL     OW97178   1.106   2.076   4.034  0.4029 -0.4136  0.1178
30683SOL    HW197179   1.149   2.034   3.960 -1.3631  0.1102 -1.2531
30683SOL    HW297180   1.156   2.156   4.049  1.3695 -1.0256  0.1509
30684SOL     OW97181   9.284   4.315   4.630 -0.3932 -0.1869 -0.2715
30684SOL    HW197182   9.218   4.289   4.695  0.2689  0.4478  0.6690
30684SOL    HW297183   9.362   4.335   4.682  0.4465 -0.6349 -1.3538
30685SOL     OW97184   2.676   4.968   4.669 -0.6382 -0.2969  0.4323
30685SOL    HW197185   2.725   5.050   4.668  0.6581 -1.0653 -1.0750
30685SOL    HW297186   2.678   4.940   4.761 -1.1030  1.3393  0.9610
30686SOL     OW97187   7.937   8.233   9.471 -0.2325  0.5461  0.2494
30686SOL    HW197188   7.844   8.213   9.468 -0.4102  1.2501  0.8830
30686SOL    HW297189   7.977   8.174   9.407 -1.0410 -0.1597  0.3969
30687SOL     OW97190   0.371   2.100   3.660  0.2379  0.3306  0.6035
30687SOL    HW197191   0.427   2.096   3.737 -0.0606  0.1470  0.8139
30687SOL    HW297192   0.300   2.039   3.679  0.9343 -0.8393 -0.4486
30688SOL     OW97193   8.008   3.363   0.399  0.5441 -0.0987 -0.0133
30688SOL    HW197194   7.920   3.396   0.382  0.9610  1.0767 -0.0005
30688SOL    HW297195   8.035   3.407   0.480  1.1656 -0.3839 -0.0584
30689SOL     OW97196   7.792   1.417   4.827 -0.4422 -0.3149 -0.1759
30689SOL    HW197197   7.750   1.347   4.876 -3.2254  0.6439 -1.0531
30689SOL    HW297198   7.771   1.399   4.735 -1.2797  1.6605 -0.4081
30690SOL     OW97199   9.124   0.098   4.430 -0.6915  0.0139  0.4220
30690SOL    HW197200   9.216   0.078   4.411 -0.2780  1.5345  0.7648
30690SOL    HW297201   9.076   0.057   4.359  0.4130  0.8418 -0.8456
30691SOL     OW97202   0.103   3.612   7.988 -0.2373  0.0794  0.4744
30691SOL    HW197203   0.065   3.571   7.910 -0.6748  0.3652  0.5356
30691SOL    HW297204   0.184   3.564   8.003 -1.1554 -1.3321  1.0410
30692SOL     OW97205   4.032   3.126   0.845  0.2041 -0.2626  0.1184
30692SOL    HW197206   4.106   3.138   0.786  0.4162 -0.2080  0.3958
30692SOL    HW297207   3.966   3.083   0.791 -0.4506  1.8392 -0.7903
30693SOL     OW97208   0.297   5.965   1.989 -0.3194  0.0062 -0.3395
30693SOL    HW197209   0.283   5.906   2.063  0.8901  0.8061  0.5342
30693SOL    HW297210   0.340   5.910   1.923  2.9420  0.4280  1.3280
30694SOL     OW97211   3.906   1.545   6.334 -0.3633 -0.5742  0.1707
30694SOL    HW197212   3.850   1.611   6.375 -1.0660 -0.1471 -1.4411
30694SOL    HW297213   3.846   1.479   6.301  0.0806 -0.2390 -1.3462
30695SOL     OW97214   4.644   8.956   3.947  0.4120 -0.5378 -0.0083
30695SOL    HW197215   4.562   8.907   3.947  0.2908 -0.3536  0.9384
30695SOL    HW297216   4.634   9.019   4.019 -0.0358  1.8949 -2.1235
30696SOL     OW97217   3.380   1.829   9.057  0.3731  0.1884 -0.9337
30696SOL    HW197218   3.373   1.741   9.094 -0.6080  1.2936  1.6370
30696SOL    HW297219   3.331   1.824   8.975 -0.1597 -1.4957 -0.5429
30697SOL     OW97220   5.255   7.459   9.601 -0.3677  0.4432  0.1328
30697SOL    HW197221   5.195   7.527   9.569  1.1932  1.9024  0.2198
30697SOL    HW297222   5.269   7.402   9.525  0.9365  2.1657 -0.9684
30698SOL     OW97223   2.754   5.367  10.227  0.3684 -0.3178  0.8503
30698SOL    HW197224   2.674   5.315  10.241 -1.1519  1.6094 -0.4661
30698SOL    HW297225   2.794   5.328  10.150 -2.9200  2.8819 -2.6627
30699SOL     OW97226   1.083  10.665   4.218 -0.0413  0.1369 -0.0145
30699SOL    HW197227   1.159  10.615   4.188 -0.7253 -0.9732  0.0595
30699SOL    HW297228   1.061  10.628   4.303  0.2375  1.4640  0.6499
30700SOL     OW97229   2.847   0.038   0.071  0.0497  0.2341  0.8625
30700SOL    HW197230   2.883   0.062   0.156 -0.9905  0.6268  1.1907
30700SOL    HW297231   2.791   0.112   0.047  0.6014  0.2821 -0.3175
30701SOL     OW97232   7.723   5.801   5.594  0.2941 -0.1791  0.7676
30701SOL    HW197233   7.759   5.718   5.562 -2.2449 -0.9612 -0.1303
30701SOL    HW297234   7.691   5.846   5.516 -0.9631  0.3414  1.5636
30702SOL     OW97235   0.869   4.985   8.544 -0.1173 -0.6327 -0.7535
30702SOL    HW197236   0.837   5.069   8.577  1.1225 -1.1712  1.9879
30702SOL    HW297237   0.849   4.923   8.613  2.0675 -1.9450 -1.2316
30703SOL     OW97238   2.482   9.151   9.097  0.0444  0.0734  0.6891
30703SOL    HW197239   2.503   9.234   9.053  0.3908 -0.0663  0.5871
30703SOL    HW297240   2.391   9.135   9.076  1.1266 -1.7887 -2.9290
30704SOL     OW97241  11.189  10.260  10.659  0.4915 -0.2377 -0.3255
30704SOL    HW197242  11.202  10.168  10.680  1.8215 -0.1886 -0.8386
30704SOL    HW297243  11.276  10.291  10.634  0.4167  1.5974  1.5326
30705SOL     OW97244   9.350   4.420  11.102 -0.0585 -0.4953 -0.2746
30705SOL    HW197245   9.432   4.396  11.145  0.5701  0.8581 -0.7088
30705SOL    HW297246   9.330   4.346  11.045  0.0033 -1.5375  1.0284
30706SOL     OW97247   3.155   7.459   7.137  0.2392 -0.3838 -0.9440
30706SOL    HW197248   3.174   7.464   7.043 -1.6680 -0.2128 -1.3516
30706SOL    HW297249   3.107   7.540   7.156  0.4529 -0.5041  0.1364
30707SOL     OW97250   5.402   5.463   5.558  0.8244 -0.4102 -0.0664
30707SOL    HW197251   5.407   5.382   5.609 -1.5993 -0.6994 -0.2492
30707SOL    HW297252   5.456   5.445   5.481  1.0424 -1.5320  0.3290
30708SOL     OW97253   5.168   4.461   1.844  0.4416  0.3113 -0.0012
30708SOL    HW197254   5.178   4.550   1.810  1.4844  0.5859  0.9983
30708SOL    HW297255   5.150   4.473   1.937 -1.2274 -0.4738 -0.1939
30709SOL     OW97256   2.462   5.559   2.657 -0.0724  0.0177 -0.0478
30709SOL    HW197257   2.481   5.572   2.564  0.0772 -0.7382 -0.1246
30709SOL    HW297258   2.371   5.589   2.667 -0.3020 -0.4912 -0.5694
30710SOL     OW97259   4.225   5.175   8.434  0.0162 -0.4979  0.2521
30710SOL    HW197260   4.279   5.253   8.428 -1.9463  0.9145  0.2329
30710SOL    HW297261   4.215   5.144   8.344 -1.2952  0.7301 -0.0356
30711SOL     OW97262   2.868   4.497   7.822  0.2402 -0.4478  0.2612
30711SOL    HW197263   2.945   4.545   7.793 -1.3317  1.8180 -0.3295
30711SOL    HW297264   2.873   4.413   7.776  1.7376  0.1164 -0.6377
30712SOL     OW97265   7.519  10.277   9.213  0.3952 -0.2139  0.2032
30712SOL    HW197266   7.533  10.197   9.263 -0.5848 -0.5042  0.0343
30712SOL    HW297267   7.528  10.251   9.121  0.2074 -0.1031  0.1518
30713SOL     OW97268   1.708   7.720  10.018 -0.1758 -0.2053  0.0909
30713SOL    HW197269   1.630   7.684  10.062 -1.0462 -0.2890 -1.4691
30713SOL    HW297270   1.673   7.787   9.960  1.1695  1.3013  0.9825
30714SOL     OW97271   9.068   9.955   6.579  0.0027  0.3490  0.1397
30714SOL    HW197272   9.081  10.039   6.534  2.0045 -0.3134 -0.5553
30714SOL    HW297273   9.004   9.909   6.525 -1.4608  1.5841  0.7705
30715SOL     OW97274   9.780   6.161   3.158  0.0742 -0.1388 -0.0439
30715SOL    HW197275   9.839   6.177   3.085  0.7286 -0.6053  0.3790
30715SOL    HW297276   9.777   6.065   3.167 -1.8953 -0.1953 -0.9937
30716SOL     OW97277   0.508   7.772   5.351  0.6156  0.1281  0.5966
30716SOL    HW197278   0.471   7.718   5.421  0.1857  0.4103  0.5873
30716SOL    HW297279   0.537   7.852   5.395  1.0789 -0.0303  0.5799
30717SOL     OW97280  10.890   1.473   9.849  0.3963  0.3919 -0.7906
30717SOL    HW197281  10.920   1.561   9.828 -3.7838  2.4831  1.3439
30717SOL    HW297282  10.842   1.444   9.771 -1.8500  1.8113  0.0180
30718SOL     OW97283   4.744   1.580   3.568  0.4008 -0.2832  0.2177
30718SOL    HW197284   4.686   1.591   3.643 -0.7819  2.0489 -0.9686
30718SOL    HW297285   4.820   1.634   3.588  0.0444  0.4123 -0.2738
30719SOL     OW97286   5.640   2.472   6.349  0.0119  0.1063 -0.5451
30719SOL    HW197287   5.557   2.498   6.311 -0.9058 -2.0346 -0.0805
30719SOL    HW297288   5.653   2.381   6.320  2.9344  0.8586 -1.8654
30720SOL     OW97289   2.618   2.682   3.708 -0.2434 -0.3295 -0.5504
30720SOL    HW197290   2.590   2.607   3.760  0.3656 -1.7976 -2.3037
30720SOL    HW297291   2.572   2.673   3.625  1.2332  0.2019 -1.4544
30721SOL     OW97292   7.509   7.528   2.089  0.1088 -0.3757  0.0960
30721SOL    HW197293   7.537   7.619   2.079 -2.9656  0.7379  0.9165
30721SOL    HW297294   7.561   7.480   2.025  1.2232  2.0808 -0.9339
30722SOL     OW97295   6.904  10.954   2.084  1.3019  0.3093  0.3237
30722SOL    HW197296   6.964  10.889   2.121  3.3832  2.6957  1.2935
30722SOL    HW297297   6.940  10.973   1.997  0.5569  0.0026 -0.0580
30723SOL     OW97298   8.488   4.342   4.677 -0.6122 -0.0102 -0.1076
30723SOL    HW197299   8.489   4.355   4.582 -0.7948  0.2605 -0.0755
30723SOL    HW297300   8.579   4.348   4.704 -0.7494  1.9578 -0.0069
30724SOL     OW97301   3.638   6.233   9.638  0.6845 -0.4168  0.0646
30724SOL    HW197302   3.723   6.201   9.608  0.9141  0.1312  0.1185
30724SOL    HW297303   3.575   6.200   9.574  1.1617  0.7150 -1.0131
30725SOL     OW97304   9.762  10.515   2.138 -0.5906  0.3370 -0.0777
30725SOL    HW197305   9.702  10.565   2.193  0.7223 -0.1078  1.7967
30725SOL    HW297306   9.847  10.555   2.152  0.3389 -1.8533  0.8306
30726SOL     OW97307   6.510   5.717   2.418  0.2819 -0.0928  0.4285
30726SOL    HW197308   6.442   5.689   2.356  1.0532 -0.1591 -0.3968
30726SOL    HW297309   6.474   5.795   2.459 -0.0774  0.1754 -0.3932
30727SOL     OW97310   3.607   1.744  10.540  0.0488  0.4497  0.2276
30727SOL    HW197311   3.582   1.817  10.596 -1.2699 -0.2064  0.5163
30727SOL    HW297312   3.546   1.748  10.466 -0.0297 -0.3561  0.2444
30728SOL     OW97313   7.994   9.003   6.723 -0.4952  0.2199 -0.4071
30728SOL    HW197314   8.046   8.950   6.783  0.7072  0.7261 -0.9744
30728SOL    HW297315   8.001   8.957   6.639  2.3664  2.3943 -1.4180
30729SOL     OW97316   8.386   3.748   6.360  0.2105 -0.3616  0.2309
30729SOL    HW197317   8.479   3.756   6.381  0.3440 -0.4297 -0.3457
30729SOL    HW297318   8.342   3.768   6.443  0.7236  0.0119  0.4174
30730SOL     OW97319   5.128   6.577  10.507 -0.3282 -0.3833  0.8228
30730SOL    HW197320   5.189   6.543  10.572  0.0526  1.6282  1.5702
30730SOL    HW297321   5.057   6.513  10.505  0.1036 -0.9432  2.5580
30731SOL     OW97322   1.061   1.635  10.438  0.1619  0.1017 -0.7319
30731SOL    HW197323   1.022   1.575  10.501 -0.0561 -0.7359 -1.6462
30731SOL    HW297324   0.997   1.706  10.430  0.2261  0.2526  0.0367
30732SOL     OW97325   1.359   6.771  10.444 -0.0338 -0.0922  0.3784
30732SOL    HW197326   1.421   6.778  10.371  1.3467 -0.0391  1.5472
30732SOL    HW297327   1.356   6.860  10.481 -2.0853  0.3188 -0.6801
30733SOL     OW97328   6.354   8.026   4.694 -0.2865  0.4965  0.5490
30733SOL    HW197329   6.447   8.013   4.673  0.1556  1.5440  1.7159
30733SOL    HW297330   6.336   7.961   4.762 -0.3704  0.3584  0.3928
30734SOL     OW97331   9.426   1.265   6.947  0.2507 -0.4995 -0.6040
30734SOL    HW197332   9.482   1.313   7.009 -1.7561 -1.7137  2.2433
30734SOL    HW297333   9.422   1.176   6.982 -2.4986 -0.7286 -1.4046
30735SOL     OW97334   8.215   0.382   5.879  0.1710 -0.5651  0.2245
30735SOL    HW197335   8.155   0.443   5.923 -1.1972 -2.9156  1.7822
30735SOL    HW297336   8.302   0.418   5.895 -0.6286  1.2669  0.6314
30736SOL     OW97337   1.981   6.387   9.416  0.0899  0.6226 -0.3585
30736SOL    HW197338   2.022   6.414   9.498  0.7177 -0.3003 -0.3635
30736SOL    HW297339   1.956   6.295   9.430  0.1540  0.4711 -1.1779
30737SOL     OW97340   8.223   3.223   4.989  0.4284 -0.6506 -0.4490
30737SOL    HW197341   8.212   3.249   5.081  0.0550 -0.5822 -0.5132
30737SOL    HW297342   8.188   3.296   4.939  1.4046 -0.3153 -0.6661
30738SOL     OW97343   9.865  10.921   9.009 -0.1389  0.3545  0.1922
30738SOL    HW197344   9.895  10.977   9.081 -0.4370 -0.2563  0.7903
30738SOL    HW297345   9.902  10.962   8.930  0.1718  1.0337  0.6868
30739SOL     OW97346   5.159   5.864   6.755  0.0078 -0.3089 -0.0375
30739SOL    HW197347   5.127   5.788   6.804 -3.4705  0.7768 -0.5045
30739SOL    HW297348   5.142   5.939   6.812  1.6375  0.3162 -0.3645
30740SOL     OW97349   7.059   3.652   2.690  0.1721  0.0386  0.0867
30740SOL    HW197350   7.022   3.728   2.645 -0.3130  0.2475  0.8461
30740SOL    HW297351   6.986   3.612   2.736  0.4313 -0.8707 -0.2664
30741SOL     OW97352   5.644   3.932   2.618  0.2130 -0.9088  0.1082
30741SOL    HW197353   5.608   3.887   2.542 -0.3082 -0.4649  0.0909
30741SOL    HW297354   5.716   3.983   2.584 -1.2568  0.8503 -0.4374
30742SOL     OW97355   7.153   7.977   0.963 -0.2254  0.0049  0.2165
30742SOL    HW197356   7.221   7.925   1.005  0.1288  1.1861  1.1341
30742SOL    HW297357   7.140   8.051   1.022 -1.8973  0.0867 -0.2420
30743SOL     OW97358   9.564   5.636   4.455 -0.1931  0.6614 -0.3792
30743SOL    HW197359   9.560   5.540   4.451 -0.2331  0.6520 -0.0586
30743SOL    HW297360   9.473   5.663   4.466  0.0590  0.6328  2.0309
30744SOL     OW97361   3.314   8.788   0.188 -1.0220  0.5416  0.0298
30744SOL    HW197362   3.409   8.791   0.180 -1.0948  1.6210 -0.6568
30744SOL    HW297363   3.297   8.755   0.277 -0.0269 -0.5671 -0.1937
30745SOL     OW97364   9.139   3.243   3.224  0.3111  0.0786 -0.2305
30745SOL    HW197365   9.135   3.198   3.139  0.3841 -0.3329 -0.0157
30745SOL    HW297366   9.177   3.328   3.203 -1.2879  0.6506 -0.8838
30746SOL     OW97367   6.447   6.618   9.091  0.0973  0.6454  0.3887
30746SOL    HW197368   6.510   6.650   9.027  0.1541  2.4406  1.3155
30746SOL    HW297369   6.481   6.532   9.117  0.2414  0.0571 -1.7171
30747SOL     OW97370   7.310   5.590   6.542 -0.4881 -0.5447 -0.0970
30747SOL    HW197371   7.333   5.621   6.455  4.6946 -0.7861  0.9792
30747SOL    HW297372   7.290   5.669   6.592 -0.7781 -0.1567 -0.8268
30748SOL     OW97373   9.052   6.935   7.417 -0.4217  0.2873 -0.2179
30748SOL    HW197374   9.134   6.890   7.396  0.2041  0.7836  1.0459
30748SOL    HW297375   9.003   6.936   7.336 -0.2373 -2.2439 -0.3981
30749SOL     OW97376   1.644   1.475   2.555  0.0631 -0.1191 -0.1416
30749SOL    HW197377   1.614   1.388   2.529 -1.2818  0.2987 -0.0286
30749SOL    HW297378   1.612   1.486   2.645 -0.4295  0.7858 -0.4183
30750SOL     OW97379   1.847   3.538   4.178  0.5270  0.5522 -0.3908
30750SOL    HW197380   1.828   3.632   4.171 -0.4205  0.3641 -0.4883
30750SOL    HW297381   1.941   3.533   4.191  0.3291  1.6045  1.5115
30751SOL     OW97382   0.860   9.310   6.059  0.5117  0.4700  0.5624
30751SOL    HW197383   0.925   9.365   6.016  0.0276  0.4093 -0.2557
30751SOL    HW297384   0.776   9.340   6.025  0.2861 -1.2950 -0.5376
30752SOL     OW97385   1.349   8.631   0.462  0.5547  0.2574  0.0149
30752SOL    HW197386   1.417   8.693   0.487  0.9706 -0.0055 -0.4566
30752SOL    HW297387   1.313   8.601   0.545  0.6785  0.7677  0.2548
30753SOL     OW97388   1.698   7.593   9.354 -0.3659  0.2256  0.1760
30753SOL    HW197389   1.736   7.582   9.267  0.3336 -0.2476  0.5379
30753SOL    HW297390   1.673   7.686   9.358 -0.1644  0.3044 -0.4269
30754SOL     OW97391   6.738   9.142   0.860 -0.3725  0.1199  0.1535
30754SOL    HW197392   6.788   9.157   0.780  0.5985  0.2282  0.7843
30754SOL    HW297393   6.696   9.227   0.879  0.0769  0.3241  0.2301
30755SOL     OW97394   2.561   8.309  11.020 -0.3038  0.2939 -0.1966
30755SOL    HW197395   2.481   8.306  11.073 -0.1067 -0.3528  0.0630
30755SOL    HW297396   2.546   8.246  10.950  0.3825 -0.5787  0.4265
30756SOL     OW97397   1.000   6.137   6.454 -0.4493 -0.0157  0.1163
30756SOL    HW197398   0.964   6.048   6.453 -0.9076  0.1665 -0.6812
30756SOL    HW297399   1.090   6.126   6.422 -0.5915 -0.1665 -0.2489
30757SOL     OW97400   7.444   4.499   1.894 -0.4345 -0.1242 -0.7647
30757SOL    HW197401   7.388   4.529   1.822 -1.8487  0.8714  0.7212
30757SOL    HW297402   7.408   4.541   1.972  2.3855  0.5418  0.2463
30758SOL     OW97403  11.132  10.372   8.049  0.5589  0.1034  0.6147
30758SOL    HW197404  11.081  10.380   8.130  1.2498 -2.8371  1.4010
30758SOL    HW297405  11.171  10.459   8.037 -0.4347  0.9066  2.8560
30759SOL     OW97406   8.813  10.436   1.907  0.0718  0.6681 -0.3063
30759SOL    HW197407   8.850  10.476   1.986  0.1350  0.3415 -0.1713
30759SOL    HW297408   8.810  10.508   1.843  0.6464  0.7689 -0.2218
30760SOL     OW97409   8.811   2.951   8.209  0.4836 -0.2428 -0.1313
30760SOL    HW197410   8.886   2.900   8.178  1.2345 -0.0825  1.4200
30760SOL    HW297411   8.805   3.024   8.148  1.4877 -0.3386 -0.3494
30761SOL     OW97412  10.382   8.914   8.706  0.4068 -0.4539 -0.5981
30761SOL    HW197413  10.377   8.907   8.610 -0.6267 -0.8453 -0.5172
30761SOL    HW297414  10.309   8.860   8.738  0.8893 -0.5058  0.4178
30762SOL     OW97415   0.496   3.735   5.320  0.1434  0.1064 -0.0393
30762SOL    HW197416   0.553   3.761   5.248  0.2146  1.4723  0.4931
30762SOL    HW297417   0.488   3.640   5.312 -0.1631  0.2823 -2.0779
30763SOL     OW97418  10.969   6.126  10.288 -0.6100 -0.1691 -0.0942
30763SOL    HW197419  11.039   6.189  10.275 -1.0502  0.2077 -0.6587
30763SOL    HW297420  10.927   6.153  10.370  0.0773 -0.5675  0.3921
30764SOL     OW97421   5.437   1.053   6.505 -0.1621 -0.0435 -0.2949
30764SOL    HW197422   5.342   1.039   6.516  0.1339 -0.7368  1.7387
30764SOL    HW297423   5.477   0.984   6.558  1.4689  1.7671  0.9048
30765SOL     OW97424   1.608   1.846  11.141 -0.1542  0.0258 -0.6432
30765SOL    HW197425   1.523   1.862  11.099  0.3947  4.1226 -0.3952
30765SOL    HW297426   1.622   1.922  11.196  4.2864  0.0535 -1.6375
30766SOL     OW97427   6.387   5.598   4.997 -0.0548  0.3655  0.2670
30766SOL    HW197428   6.470   5.555   4.977  0.7671  2.2618 -0.5268
30766SOL    HW297429   6.413   5.684   5.033 -1.6638  1.4027 -0.9766
30767SOL     OW97430   1.028   2.761   7.413  0.2129  0.1587  0.6587
30767SOL    HW197431   1.086   2.691   7.445 -0.4425 -1.7333 -2.0949
30767SOL    HW297432   0.943   2.718   7.402 -0.3594  1.5627 -0.4867
30768SOL     OW97433   0.505  11.010   0.080  0.2044  0.0525  0.2639
30768SOL    HW197434   0.520  10.934   0.024 -1.1901  0.8791 -1.2940
30768SOL    HW297435   0.572  11.073   0.054  0.2521  0.0221  0.3127
30769SOL     OW97436   6.226   6.066   1.781 -0.7429 -0.0048  0.5213
30769SOL    HW197437   6.134   6.077   1.756 -0.9104  1.1195  1.5704
30769SOL    HW297438   6.269   6.145   1.749  0.2957 -1.4361 -1.7728
30770SOL     OW97439   7.125   2.577   5.362 -0.7563 -0.6147 -0.0154
30770SOL    HW197440   7.192   2.633   5.401  0.1804 -1.3377 -0.5526
30770SOL    HW297441   7.060   2.565   5.431  0.2955 -0.9153  0.9380
30771SOL     OW97442  10.025   9.438   4.715  0.5860  0.2288 -0.9762
30771SOL    HW197443   9.937   9.465   4.687 -0.0134  1.0150  1.5544
30771SOL    HW297444  10.081   9.512   4.691 -0.4047  2.1681  2.3516
30772SOL     OW97445   8.212  10.626   2.180 -0.0567 -0.2627  0.6501
30772SOL    HW197446   8.189  10.598   2.268  0.4470  0.4759  1.0257
30772SOL    HW297447   8.307  10.639   2.183  0.0621 -0.8778 -0.1890
30773SOL     OW97448  10.876   2.616   1.897 -0.4533  0.3858  0.3989
30773SOL    HW197449  10.892   2.611   1.803  0.4699  2.0280  0.4510
30773SOL    HW297450  10.788   2.578   1.909 -1.5581  2.2869 -1.4106
30774SOL     OW97451   9.801   6.741   5.042  0.2143  0.2105  0.3205
30774SOL    HW197452   9.831   6.733   4.951  0.6914  0.2762  0.4741
30774SOL    HW297453   9.705   6.740   5.035  0.2303 -2.0642  0.0019
30775SOL     OW97454  11.118   7.498   2.252  0.0819 -0.5176  0.2038
30775SOL    HW197455  11.118   7.469   2.343  0.3785 -0.5480  0.1958
30775SOL    HW297456  11.055   7.441   2.208 -1.5310  0.7975  0.7889
30776SOL     OW97457   1.583   5.854   9.307 -0.1021  0.3833  0.1302
30776SOL    HW197458   1.588   5.898   9.392 -0.2348 -1.9618  1.3929
30776SOL    HW297459   1.493   5.822   9.302  0.2082 -0.4240 -0.4073
30777SOL     OW97460   7.877   2.251   4.224  0.0084  0.1243 -0.0230
30777SOL    HW197461   7.788   2.225   4.245  0.7528 -0.5892  2.4439
30777SOL    HW297462   7.879   2.346   4.237 -0.5909  0.2471 -0.8468
30778SOL     OW97463   7.092   9.679  10.173  0.4474 -0.6440  0.2993
30778SOL    HW197464   7.114   9.621  10.246 -0.8217 -0.0282  1.1967
30778SOL    HW297465   7.002   9.708  10.192  0.1909 -0.2998 -1.3944
30779SOL     OW97466   9.874   7.019   3.694  0.6684  0.2740  0.0060
30779SOL    HW197467   9.895   7.099   3.742  1.4612  0.1110 -0.0659
30779SOL    HW297468   9.813   7.047   3.626  0.4733  0.7108  0.3533
30780SOL     OW97469   8.201   7.851   1.699  0.4213  0.0783 -0.2325
30780SOL    HW197470   8.294   7.832   1.688  1.1013  1.8612  2.0994
30780SOL    HW297471   8.186   7.847   1.793 -2.0860 -1.0334 -0.6279
30781SOL     OW97472   9.658   6.340   2.578 -0.0558 -0.4381  0.1463
30781SOL    HW197473   9.653   6.426   2.619  1.5374 -0.0969 -0.3482
30781SOL    HW297474   9.581   6.336   2.521 -0.1353  0.6532  0.1679
30782SOL     OW97475   3.290   6.624   0.625 -0.7595  0.6633 -0.1322
30782SOL    HW197476   3.272   6.586   0.539 -0.6573  0.0646  0.1041
30782SOL    HW297477   3.237   6.703   0.629 -2.5760 -0.5316  0.1550
30783SOL     OW97478   6.884   0.245   3.090  0.1432  0.0685 -0.5853
30783SOL    HW197479   6.874   0.264   3.183 -0.7363  0.3035 -0.7237
30783SOL    HW297480   6.885   0.149   3.085 -0.1218  0.0529 -0.3625
30784SOL     OW97481   4.791   0.555  10.050  0.3755 -0.2410  0.4134
30784SOL    HW197482   4.765   0.548  10.142 -0.2261 -0.5375  0.2234
30784SOL    HW297483   4.815   0.466  10.026 -0.1579 -0.2992  0.0822
30785SOL     OW97484   6.426   0.136   8.454 -0.3740 -0.2387 -0.3346
30785SOL    HW197485   6.509   0.183   8.457 -0.7759  0.4139  0.6862
30785SOL    HW297486   6.370   0.188   8.395 -0.7161  0.3924  0.5487
30786SOL     OW97487   4.238   5.538   8.089 -0.1963 -0.0022  0.3420
30786SOL    HW197488   4.152   5.497   8.089  0.2311 -0.9361 -1.1204
30786SOL    HW297489   4.286   5.493   8.019  1.1624  1.1523  0.5108
30787SOL     OW97490   8.704   3.385   6.828 -0.2295  0.1857  0.1361
30787SOL    HW197491   8.688   3.329   6.752 -0.7394 -0.0474  0.4058
30787SOL    HW297492   8.660   3.467   6.807  0.9657  0.6682 -0.4807
30788SOL     OW97493   2.409   0.051   8.347  0.5363  0.4409  0.5055
30788SOL    HW197494   2.329   0.099   8.367 -0.3761 -0.8644  0.1064
30788SOL    HW297495   2.454   0.103   8.281 -1.3147 -0.1171 -1.2314
30789SOL     OW97496  10.265   4.278  11.008 -0.0097  0.3874  0.0289
30789SOL    HW197497  10.355   4.309  11.010 -0.1148  0.6529  0.6330
30789SOL    HW297498  10.268   4.198  10.955  0.2979  1.2898 -1.3542
30790SOL     OW97499  10.570  10.508   7.528 -0.2731  0.3308  0.1718
30790SOL    HW197500  10.650  10.546   7.566 -0.1808 -0.5647  0.8845
30790SOL    HW297501  10.521  10.583   7.497  2.4457  0.7406 -3.4817
30791SOL     OW97502   4.442   6.961   9.346  0.3728 -0.2778 -0.1865
30791SOL    HW197503   4.424   6.955   9.439  0.5416  2.3701  0.0647
30791SOL    HW297504   4.432   6.872   9.313 -0.4618 -1.0936  2.2084
30792SOL     OW97505   6.634   5.451  11.086 -0.5510 -0.3241 -0.1165
30792SOL    HW197506   6.597   5.482  11.169 -1.0579  0.6855 -0.7119
30792SOL    HW297507   6.573   5.383  11.056 -0.8244 -0.0846 -0.0946
30793SOL     OW97508   2.139   6.754   4.754  0.0859  0.4017 -0.5808
30793SOL    HW197509   2.054   6.779   4.717 -0.6774 -0.9967  0.2009
30793SOL    HW297510   2.163   6.674   4.707  0.9661  0.7720 -0.7725
30794SOL     OW97511   5.207   5.427   9.226  0.0546  0.1349  0.1912
30794SOL    HW197512   5.244   5.435   9.138 -0.2782  3.8758  0.3315
30794SOL    HW297513   5.112   5.430   9.212  0.0043  0.9445  0.7032
30795SOL     OW97514  10.889   8.828   0.266  0.6686  0.2749  0.4181
30795SOL    HW197515  10.801   8.836   0.230  1.1248 -0.3274 -0.8631
30795SOL    HW297516  10.878   8.842   0.360 -0.6467  1.2090  0.1435
30796SOL     OW97517   3.919   7.822   4.502  0.3855 -0.4300  0.2906
30796SOL    HW197518   3.965   7.807   4.585 -0.3037 -0.3362  0.6965
30796SOL    HW297519   3.878   7.738   4.482 -1.0918  0.0976  1.0749
30797SOL     OW97520   0.279   6.017   1.274  0.0292  0.6375  0.0375
30797SOL    HW197521   0.370   6.006   1.248 -0.3647  0.6989 -1.4267
30797SOL    HW297522   0.276   6.103   1.315  1.1936 -0.5569  2.7390
30798SOL     OW97523   5.701   9.954   0.944 -0.2690  0.5226  0.4637
30798SOL    HW197524   5.693   9.859   0.935 -2.5411  0.6603  0.7126
30798SOL    HW297525   5.776   9.977   0.889  1.0051 -1.5242  1.2452
30799SOL     OW97526   6.393   1.665   3.244  0.2937  0.1731 -0.2407
30799SOL    HW197527   6.369   1.645   3.153  0.5450  0.0949 -0.2895
30799SOL    HW297528   6.365   1.588   3.293 -1.2882  0.8703 -0.0134
30800SOL     OW97529  10.381   9.003   7.243 -0.7468 -0.4252  0.3313
30800SOL    HW197530  10.335   9.081   7.212  1.6242  2.0635  2.8492
30800SOL    HW297531  10.454   8.993   7.182  0.0102  0.4395  1.0876
30801SOL     OW97532   6.146   0.862  10.432  0.4824 -0.1109 -0.2233
30801SOL    HW197533   6.050   0.854  10.431  0.3763  0.2746  3.2172
30801SOL    HW297534   6.162   0.954  10.410 -0.0102  0.1467  0.4812
30802SOL     OW97535   2.506   6.553   1.235  0.2637 -0.0812  0.0755
30802SOL    HW197536   2.415   6.585   1.234  0.2338 -0.1239  0.9818
30802SOL    HW297537   2.559   6.632   1.219  0.1422  0.2660  1.3216
30803SOL     OW97538   5.444   8.509   5.472 -0.2958  0.2571 -0.2292
30803SOL    HW197539   5.537   8.489   5.480 -0.2152  0.7212  0.0400
30803SOL    HW297540   5.414   8.457   5.397  0.3526  0.7133 -0.8081
30804SOL     OW97541  11.112   4.984   9.255  0.3391  0.1774  0.4597
30804SOL    HW197542  11.101   5.079   9.266 -0.2667 -0.0061  1.5046
30804SOL    HW297543  11.071   4.965   9.171  1.4237  1.0055 -0.2629
30805SOL     OW97544   1.699   5.229   6.016 -0.3142  0.1332 -0.2818
30805SOL    HW197545   1.643   5.297   6.053 -1.1016 -0.0667 -1.0826
30805SOL    HW297546   1.661   5.147   6.046  0.2941  0.0263  0.2088
30806SOL     OW97547   5.198   1.507   0.316  0.0598  0.2896 -0.5434
30806SOL    HW197548   5.237   1.593   0.302  0.2939 -0.0730 -2.2091
30806SOL    HW297549   5.230   1.480   0.403  1.6872  0.9782 -0.9101
30807SOL     OW97550   0.712   9.718   9.103 -0.0016 -0.1210  0.0517
30807SOL    HW197551   0.683   9.661   9.175  0.1092  0.0291  0.2159
30807SOL    HW297552   0.784   9.768   9.140  1.6245 -1.7240 -0.8978
30808SOL     OW97553   1.116   6.846   2.139  0.3589 -0.3627  0.1002
30808SOL    HW197554   1.192   6.880   2.091  0.1316  1.0989  0.7727
30808SOL    HW297555   1.142   6.849   2.231 -0.1039 -0.9227  0.2573
30809SOL     OW97556   8.044   0.695   4.017 -0.3538  0.1984 -0.0799
30809SOL    HW197557   8.045   0.790   4.030  1.1519  0.2463 -0.4336
30809SOL    HW297558   8.029   0.683   3.923 -0.9030  0.0787  0.0230
30810SOL     OW97559   4.234   3.811   7.078  0.7763  0.5350  0.0030
30810SOL    HW197560   4.238   3.838   6.986  0.7711  0.0004 -0.1555
30810SOL    HW297561   4.274   3.724   7.079 -0.7561 -0.1861  0.2150
30811SOL     OW97562   3.916  10.823   9.497 -0.3736 -0.2694  0.4384
30811SOL    HW197563   4.009  10.837   9.514 -0.1988 -0.4616 -0.3325
30811SOL    HW297564   3.908  10.825   9.402 -1.2698  0.4045  0.5232
30812SOL     OW97565   7.254   5.426   3.528  0.2702 -0.2676 -0.1181
30812SOL    HW197566   7.296   5.342   3.514  0.1401 -0.2311 -0.7255
30812SOL    HW297567   7.259   5.440   3.623  1.7045 -0.2211 -0.1865
30813SOL     OW97568   4.327   0.513   7.763 -0.2953 -0.3061 -0.6951
30813SOL    HW197569   4.367   0.591   7.725 -0.9578 -0.5390 -1.9042
30813SOL    HW297570   4.329   0.528   7.857 -0.2098  1.0565 -0.9063
30814SOL     OW97571  11.316   2.355   2.405  0.5906 -0.3664 -0.2816
30814SOL    HW197572  11.227   2.388   2.416 -0.4577 -3.4206  0.9422
30814SOL    HW297573  11.325   2.288   2.472  3.6653 -0.4510 -0.7131
30815SOL     OW97574   3.619   8.026   6.808 -0.0514 -0.1640 -0.0737
30815SOL    HW197575   3.645   8.007   6.718 -0.1917 -2.4652  0.3339
30815SOL    HW297576   3.581   7.944   6.840  1.6241  0.0585  2.6508
30816SOL     OW97577   1.764   0.418   8.247 -0.1270 -0.5421 -0.5678
30816SOL    HW197578   1.830   0.405   8.179 -0.4849 -2.0642 -0.6418
30816SOL    HW297579   1.812   0.455   8.321  0.1408  1.8054 -1.8737
30817SOL     OW97580   1.050   9.802   5.719  0.1437 -0.0895  0.0116
30817SOL    HW197581   1.143   9.780   5.709  0.5895  1.1976  1.1192
30817SOL    HW297582   1.021   9.828   5.632  0.6320 -1.1807 -0.4875
30818SOL     OW97583  11.326   9.680  10.744 -0.2126  0.0492  0.0498
30818SOL    HW197584  11.258   9.688  10.678  2.4947  1.8072 -2.6503
30818SOL    HW297585  11.376   9.603  10.718  0.2166  0.0919  0.7289
30819SOL     OW97586   2.359   6.061   7.985  0.2424  0.0666  0.4065
30819SOL    HW197587   2.334   6.041   7.894 -2.4937 -0.3700  1.2018
30819SOL    HW297588   2.439   6.113   7.977  0.0940 -0.0288 -2.2509
30820SOL     OW97589   8.273   0.683   7.431  0.1224 -0.1359  0.7197
30820SOL    HW197590   8.350   0.657   7.380  0.3886  0.7025  0.6966
30820SOL    HW297591   8.298   0.670   7.522  0.9997  2.0100  0.8141
30821SOL     OW97592   9.642   0.733   8.042 -0.5649 -0.7506  0.2276
30821SOL    HW197593   9.641   0.746   7.947 -1.0037  0.5611  0.4087
30821SOL    HW297594   9.667   0.641   8.053  0.3643 -0.6719 -1.1280
30822SOL     OW97595   2.869   1.941   9.575  0.0221 -1.1013 -0.4891
30822SOL    HW197596   2.779   1.948   9.544 -0.0137 -1.7101 -0.5245
30822SOL    HW297597   2.920   1.991   9.511 -0.3900 -0.0647 -0.0149
30823SOL     OW97598   9.955   9.326  11.064  0.2551 -0.5949  0.1057
30823SOL    HW197599   9.894   9.392  11.096  1.1776  0.7413 -0.8735
30823SOL    HW297600   9.908   9.281  10.994  0.3691  0.3879 -0.6020
30824SOL     OW97601   3.365   5.356   4.568 -0.0707 -0.3814  0.0536
30824SOL    HW197602   3.371   5.277   4.621  0.0176 -0.3304  0.1202
30824SOL    HW297603   3.305   5.333   4.497 -0.2990 -0.4033  0.2563
30825SOL     OW97604   5.593  10.712   0.641 -1.3847  0.1327  0.1844
30825SOL    HW197605   5.576  10.644   0.575  2.2119  0.1378 -0.8714
30825SOL    HW297606   5.606  10.664   0.722 -1.5235 -0.2028  0.0098
30826SOL     OW97607   3.001   5.061   7.657  0.0428  0.4491  0.0745
30826SOL    HW197608   3.027   5.142   7.700 -0.4634  0.4480  0.3923
30826SOL    HW297609   3.067   5.047   7.589  0.7965  0.5007  0.7875
30827SOL     OW97610   9.817   2.330  10.111 -0.2454  0.1398 -0.1432
30827SOL    HW197611   9.789   2.371  10.028  0.5116  1.2970  0.1542
30827SOL    HW297612   9.798   2.397  10.177  0.2536 -0.3239  0.4635
30828SOL     OW97613  10.510   4.817   2.544 -0.7677  0.2741  0.1064
30828SOL    HW197614  10.486   4.728   2.517  2.2881 -0.6713  0.3616
30828SOL    HW297615  10.522   4.865   2.462  0.2550 -0.3148 -0.0981
30829SOL     OW97616   4.357   6.633   2.832  0.0649 -0.0371  0.1079
30829SOL    HW197617   4.342   6.684   2.912 -0.5668  0.2338 -0.1835
30829SOL    HW297618   4.436   6.582   2.852  1.0848  1.5073  0.1850
30830SOL     OW97619   2.180   2.171   3.620 -0.2640  0.0644  0.1017
30830SOL    HW197620   2.133   2.088   3.615  0.4109 -0.3760  0.8227
30830SOL    HW297621   2.262   2.149   3.664 -0.3590  1.2425  0.8890
30831SOL     OW97622   7.526   3.465   2.417 -0.0555  0.0046 -0.2786
30831SOL    HW197623   7.582   3.538   2.390 -0.0540  0.5052  1.0201
30831SOL    HW297624   7.485   3.495   2.498 -0.2873 -1.3352  0.1122
30832SOL     OW97625   4.668   1.251  10.345 -0.3587 -0.1714 -0.3875
30832SOL    HW197626   4.600   1.292  10.292 -0.0617  0.5016 -0.2516
30832SOL    HW297627   4.711   1.189  10.286 -0.8983 -0.3869 -0.5553
30833SOL     OW97628   8.638  11.011   0.942 -0.1292  0.1711 -0.0110
30833SOL    HW197629   8.612  10.918   0.945 -1.4396  0.5116 -0.2349
30833SOL    HW297630   8.676  11.022   0.855  1.3697 -0.4909  0.5555
30834SOL     OW97631   3.421   5.234   4.987 -0.4253  0.3704 -0.1075
30834SOL    HW197632   3.439   5.300   5.054  0.5539  0.5775 -0.5575
30834SOL    HW297633   3.480   5.257   4.915  0.1246 -1.1358 -0.1632
30835SOL     OW97634   2.354   5.151  10.787 -0.2727  0.1475  0.5088
30835SOL    HW197635   2.368   5.101  10.706 -0.5376  0.9614 -0.0414
30835SOL    HW297636   2.442   5.180  10.812  0.0942 -1.7979  1.6364
30836SOL     OW97637   3.316   1.649   8.501  0.2609 -0.5463  0.2391
30836SOL    HW197638   3.285   1.595   8.428 -0.0487  0.0722 -0.0955
30836SOL    HW297639   3.342   1.731   8.460 -0.2579 -0.0577  0.8715
30837SOL     OW97640   7.528   8.897   6.573  0.2126 -0.0428 -0.0815
30837SOL    HW197641   7.521   8.970   6.635 -0.9844  0.5141 -0.8486
30837SOL    HW297642   7.603   8.919   6.519  1.2392 -0.5111  1.1315
30838SOL     OW97643   8.697  11.105   5.833  0.2621  0.5643 -0.4178
30838SOL    HW197644   8.602  11.100   5.823  0.5169 -1.8586 -1.8406
30838SOL    HW297645   8.710  11.134   5.924 -1.8111  1.4285 -0.3634
30839SOL     OW97646   2.024   8.541  10.239 -0.6132 -0.0833 -0.0298
30839SOL    HW197647   2.049   8.608  10.303  0.6793  0.5895 -1.2063
30839SOL    HW297648   2.061   8.460  10.275 -0.4468  0.1759  0.3905
30840SOL     OW97649   4.610   2.221   0.337 -0.4208 -0.6586 -0.4133
30840SOL    HW197650   4.640   2.309   0.315 -1.6732 -0.1404 -0.0805
30840SOL    HW297651   4.520   2.233   0.367 -0.5363 -2.0296 -0.1830
30841SOL     OW97652   2.425   3.780  10.942  0.1830 -0.3143  0.3516
30841SOL    HW197653   2.470   3.702  10.974  1.0540 -0.4365 -1.1301
30841SOL    HW297654   2.495   3.843  10.926 -0.2984  0.0043 -0.5607
30842SOL     OW97655   2.389   5.815   5.761  0.0154 -0.2082  0.2158
30842SOL    HW197656   2.382   5.884   5.827  0.3163  1.2296 -1.2413
30842SOL    HW297657   2.437   5.855   5.689 -2.7871 -0.8390 -2.1100
30843SOL     OW97658   9.978   6.898   8.461  0.0678 -0.4927  0.2616
30843SOL    HW197659   9.979   6.971   8.523 -3.0539  0.7082 -0.9869
30843SOL    HW297660  10.026   6.930   8.385 -2.7512  0.9980 -0.9706
30844SOL     OW97661   6.834   9.015  10.429  0.0186  0.0908  0.0901
30844SOL    HW197662   6.875   8.937  10.392  0.5345  0.8589 -0.9978
30844SOL    HW297663   6.748   9.019  10.387  0.1598  0.3344 -0.1808
30845SOL     OW97664   7.722   4.600   4.373 -0.2741 -0.1106 -0.1488
30845SOL    HW197665   7.713   4.653   4.294  1.0766  0.6486  0.1689
30845SOL    HW297666   7.747   4.513   4.342 -0.9320 -0.1370 -0.6044
30846SOL     OW97667   5.576  10.274   1.248 -0.1202  0.3008  0.2527
30846SOL    HW197668   5.525  10.287   1.328  0.0741  1.2306  0.2406
30846SOL    HW297669   5.640  10.207   1.271 -1.1004 -0.5915  0.3858
30847SOL     OW97670   2.604   5.872   5.547 -0.0113 -0.3423  0.0205
30847SOL    HW197671   2.564   5.944   5.499 -0.3262 -1.5413 -1.5208
30847SOL    HW297672   2.697   5.894   5.549 -0.2046  0.5126  0.3033
30848SOL     OW97673   6.316   5.142   6.868  0.1943 -0.1913  0.0750
30848SOL    HW197674   6.374   5.155   6.793 -2.2363  0.9340 -1.6768
30848SOL    HW297675   6.274   5.057   6.852 -0.3575  0.0690  0.1058
30849SOL     OW97676   6.492   9.297   1.912  0.0087  0.1298 -0.3522
30849SOL    HW197677   6.488   9.235   1.986  0.3757 -0.2363 -0.6383
30849SOL    HW297678   6.579   9.284   1.875 -0.1780  0.3170 -0.8537
30850SOL     OW97679  10.260   0.365   6.358  0.2966 -0.4097 -0.5450
30850SOL    HW197680  10.167   0.349   6.373  0.3262 -1.1516 -1.1321
30850SOL    HW297681  10.295   0.383   6.445 -0.2823 -0.7041 -0.2494
30851SOL     OW97682   2.697   9.431   4.179  0.0510 -0.3065  0.0512
30851SOL    HW197683   2.726   9.457   4.091  0.3008  1.2575  0.5809
30851SOL    HW297684   2.710   9.509   4.233 -1.8014 -0.6768  1.0934
30852SOL     OW97685   6.782  10.116   2.287 -0.2226  0.2087 -0.0231
30852SOL    HW197686   6.756  10.025   2.300 -0.1244  0.3000  0.8757
30852SOL    HW297687   6.703  10.166   2.309  0.2465  0.4167  1.2199
30853SOL     OW97688   3.240   2.219   8.982  0.1674  0.0955 -0.1442
30853SOL    HW197689   3.228   2.168   8.902  1.1091 -1.4766  0.7059
30853SOL    HW297690   3.330   2.251   8.977 -0.1427  0.9700 -0.2548
30854SOL     OW97691   8.866   9.895   0.062  0.1098 -0.5775 -0.1054
30854SOL    HW197692   8.899   9.870  -0.025 -0.5202 -0.9440 -0.2443
30854SOL    HW297693   8.805   9.825   0.085 -2.7623  1.5005 -1.0947
30855SOL     OW97694  11.313   0.035   9.769 -0.0358  0.2037 -0.4089
30855SOL    HW197695  11.376   0.032   9.697 -0.7794  1.0685 -1.1184
30855SOL    HW297696  11.363   0.067   9.844  0.0915  2.1638 -1.2900
30856SOL     OW97697   5.445   2.913   0.004  0.0454  0.1345  0.4741
30856SOL    HW197698   5.431   2.899   0.098 -0.2717  2.5223  0.8268
30856SOL    HW297699   5.528   2.960  -0.000  0.0507  0.0429 -0.4466
30857SOL     OW97700   7.306   2.540   3.607  0.4277  0.0665 -0.3411
30857SOL    HW197701   7.248   2.568   3.536  0.6918 -0.1940 -0.6603
30857SOL    HW297702   7.316   2.446   3.594 -0.8191 -0.2623  0.9999
30858SOL     OW97703   3.641   0.486   0.506 -0.2361 -0.5199 -0.0577
30858SOL    HW197704   3.720   0.512   0.552 -0.1141  0.3749 -0.7317
30858SOL    HW297705   3.660   0.506   0.414 -1.5161  0.4619 -0.1313
30859SOL     OW97706   9.788  11.311   7.318 -0.1678  0.0311  0.6853
30859SOL    HW197707   9.751  11.367   7.386 -0.4865 -1.0403  1.4005
30859SOL    HW297708   9.829  11.373   7.256 -1.4443  1.1030  0.8897
30860SOL     OW97709   4.026   2.516   3.559 -0.2563  0.0842  0.2146
30860SOL    HW197710   3.946   2.522   3.612 -1.4670  1.7645 -1.7338
30860SOL    HW297711   4.022   2.431   3.517 -1.4613  0.5141 -0.5438
30861SOL     OW97712   3.715   3.175   6.830  0.6248  0.2088  0.1995
30861SOL    HW197713   3.696   3.081   6.840 -1.0054  0.4939  0.0284
30861SOL    HW297714   3.630   3.213   6.808  1.3035  1.7174  0.1873
30862SOL     OW97715   1.795   5.490  11.127  0.3623  0.4664  0.3319
30862SOL    HW197716   1.846   5.456  11.054  0.5189  2.1873 -0.3892
30862SOL    HW297717   1.712   5.442  11.122  0.3814  0.5318 -0.9627
30863SOL     OW97718   5.755  10.041   5.464 -0.0454  0.4665 -0.8199
30863SOL    HW197719   5.706  10.123   5.457 -0.3075  0.3612 -0.2782
30863SOL    HW297720   5.716   9.984   5.398 -0.8240  0.3023 -0.2231
30864SOL     OW97721  10.712   2.942   8.504 -0.1670 -0.2497 -0.2773
30864SOL    HW197722  10.669   2.901   8.429  2.7048  1.3268 -2.9050
30864SOL    HW297723  10.803   2.913   8.499  0.9135  2.7962  0.3334
30865SOL     OW97724   8.514   8.011   8.288 -0.0329  0.1247  0.3498
30865SOL    HW197725   8.574   8.085   8.277 -0.7046  0.7675  0.9204
30865SOL    HW297726   8.429   8.046   8.265 -0.1508 -0.8750 -0.7694
30866SOL     OW97727   1.848   5.046   5.186  0.5205 -0.0858 -0.8845
30866SOL    HW197728   1.779   5.056   5.119 -0.6070  0.6696  0.3714
30866SOL    HW297729   1.929   5.068   5.139  0.0454 -1.8139 -2.6107
30867SOL     OW97730   5.400  10.334  10.295  0.0161  0.2197  0.5076
30867SOL    HW197731   5.468  10.383  10.248 -0.0198 -0.1563  0.0745
30867SOL    HW297732   5.434  10.245  10.300  1.2414  0.7676  3.4462
30868SOL     OW97733  10.509  10.615   0.666  0.6848 -0.3224 -0.0436
30868SOL    HW197734  10.561  10.686   0.630  0.9872 -0.6327 -0.2191
30868SOL    HW297735  10.563  10.579   0.736  0.4139 -0.2021  0.2288
30869SOL     OW97736   0.644   8.690   1.274  0.2044 -0.4662  0.2525
30869SOL    HW197737   0.673   8.682   1.183 -0.6244 -1.6688  0.0784
30869SOL    HW297738   0.678   8.774   1.303  0.3008  0.0257 -1.2457
30870SOL     OW97739   5.717   9.495   1.844 -0.1503 -0.1712  0.4401
30870SOL    HW197740   5.751   9.413   1.807 -1.2702 -0.6452  0.4493
30870SOL    HW297741   5.674   9.539   1.770  2.5459  1.5699 -0.1556
30871SOL     OW97742   3.894   8.739   4.741  0.4107  0.3817  0.3548
30871SOL    HW197743   3.832   8.666   4.739  0.1755  0.6073 -0.6165
30871SOL    HW297744   3.928   8.744   4.652  2.2492 -0.0923  1.0188
30872SOL     OW97745  10.281   1.328   1.534  0.2239 -0.0753  0.0540
30872SOL    HW197746  10.366   1.295   1.503  0.1690 -0.4009  0.2478
30872SOL    HW297747  10.284   1.422   1.515  0.8335  0.0052  0.5115
30873SOL     OW97748   9.223   7.802   8.018  0.0503  0.2002  0.3035
30873SOL    HW197749   9.313   7.808   7.985  0.3492  1.1199  1.2734
30873SOL    HW297750   9.197   7.892   8.034 -0.9504 -0.0863  0.3057
30874SOL     OW97751   3.292   5.094   8.230  0.0209 -0.4884 -0.1735
30874SOL    HW197752   3.312   5.000   8.223  0.4743 -0.4373  0.4191
30874SOL    HW297753   3.198   5.097   8.245 -0.3764 -0.7623 -2.3519
30875SOL     OW97754   0.924   1.372   4.648  0.3472 -0.1975  0.6467
30875SOL    HW197755   0.922   1.395   4.555  0.4096 -1.4866  0.3161
30875SOL    HW297756   1.001   1.418   4.682  0.1996  0.4574  0.1048
30876SOL     OW97757   5.747   4.257   8.649  0.2045  0.1522 -0.4749
30876SOL    HW197758   5.720   4.318   8.717  2.2907  0.3772  0.1724
30876SOL    HW297759   5.665   4.227   8.610 -0.9684  0.8926  1.3663
30877SOL     OW97760   7.871   5.032   2.033  0.4655 -0.4657 -0.3638
30877SOL    HW197761   7.846   5.059   1.945 -0.3250  0.8388  0.2600
30877SOL    HW297762   7.789   5.027   2.081  0.9447 -0.6878  0.4368
30878SOL     OW97763   1.472   4.172   5.079  0.0036 -0.0520 -0.0480
30878SOL    HW197764   1.512   4.230   5.014 -2.1274  1.5495  0.0388
30878SOL    HW297765   1.396   4.135   5.034 -0.6440 -0.0904  1.0679
30879SOL     OW97766   0.249   7.526   5.776  0.4284  0.1945  0.1408
30879SOL    HW197767   0.300   7.539   5.856  0.9009  0.3098 -0.1824
30879SOL    HW297768   0.175   7.472   5.805  2.0921 -2.2136  0.1193
30880SOL     OW97769   1.117   0.132   8.532  0.5150 -0.1320 -0.0873
30880SOL    HW197770   1.151   0.219   8.555 -0.2238  0.2381 -0.3801
30880SOL    HW297771   1.112   0.133   8.436 -0.2305 -0.2239 -0.0458
30881SOL     OW97772   5.965   0.297   1.816 -0.0884  0.2991  0.6365
30881SOL    HW197773   5.977   0.286   1.722  1.7973 -2.3180  1.1058
30881SOL    HW297774   5.900   0.232   1.840 -0.3952  0.7988  1.1750
30882SOL     OW97775   9.774   0.705   7.334  0.3080  0.6274  0.3157
30882SOL    HW197776   9.708   0.714   7.265 -0.3617 -0.5213  0.7875
30882SOL    HW297777   9.855   0.734   7.293 -0.4927  2.0821 -0.2722
30883SOL     OW97778   5.140   0.808   8.410  0.0822 -0.5508 -0.1935
30883SOL    HW197779   5.050   0.806   8.444  0.6173 -0.0126  1.2788
30883SOL    HW297780   5.142   0.883   8.351 -0.4968 -0.7209 -0.4347
30884SOL     OW97781  10.567  11.070   4.311  0.0193  0.6260  0.4182
30884SOL    HW197782  10.654  11.041   4.336 -0.0830 -0.7368 -0.7206
30884SOL    HW297783  10.577  11.164   4.292  1.1770  0.5328  0.5229
30885SOL     OW97784   0.308   5.122   1.216  0.2664  0.3846  0.3461
30885SOL    HW197785   0.311   5.041   1.268  2.3828 -0.0046 -0.3055
30885SOL    HW297786   0.297   5.191   1.281 -1.4235 -0.4101  0.9281
30886SOL     OW97787   9.222   9.426  10.260 -0.2821  0.3125 -0.3623
30886SOL    HW197788   9.262   9.384  10.184  1.5717  0.6528  0.3994
30886SOL    HW297789   9.221   9.519  10.239 -1.5635  0.2244 -0.7605
30887SOL     OW97790   8.970   3.561   6.478  0.8032 -0.3384 -0.1962
30887SOL    HW197791   8.905   3.496   6.452 -1.1290  1.7316 -0.6701
30887SOL    HW297792   8.963   3.566   6.573 -0.6258  0.7463 -0.3406
30888SOL     OW97793   8.540   0.430   4.656 -0.3126  0.6818 -0.0408
30888SOL    HW197794   8.611   0.466   4.602  0.2821  0.7763  0.7925
30888SOL    HW297795   8.461   0.472   4.623  0.2920  2.2737  0.4847
30889SOL     OW97796   7.915   9.839   7.343  0.7579 -0.4414 -0.7750
30889SOL    HW197797   7.926   9.898   7.268 -0.5567  0.2260 -0.4623
30889SOL    HW297798   7.848   9.777   7.315  2.2573 -1.9056 -1.1589
30890SOL     OW97799   8.661   8.226   2.300  0.4948  0.8822 -0.7714
30890SOL    HW197800   8.699   8.259   2.381  0.0490 -0.6937  0.0898
30890SOL    HW297801   8.566   8.238   2.311  0.4536  1.0010 -1.2199
30891SOL     OW97802   3.582   1.760   4.638  0.0045  0.2604  0.6555
30891SOL    HW197803   3.492   1.759   4.670 -0.3157  1.0743 -0.2178
30891SOL    HW297804   3.615   1.672   4.658 -1.2783 -0.3560  0.1187
30892SOL     OW97805   2.773  10.470   8.789  0.0250 -0.5206 -0.1890
30892SOL    HW197806   2.808  10.451   8.702  0.5223  1.2745 -0.4025
30892SOL    HW297807   2.773  10.385   8.834 -0.6164 -1.5356 -2.0574
30893SOL     OW97808   4.674  10.561   2.252  0.2787 -0.1671  0.4016
30893SOL    HW197809   4.654  10.474   2.216  1.2619 -0.2709  0.1114
30893SOL    HW297810   4.755  10.549   2.301  0.3064  0.5471  0.5385
30894SOL     OW97811   5.977  10.891  10.634  0.5512  0.5756 -0.0593
30894SOL    HW197812   5.962  10.886  10.539  0.6972 -0.5883 -0.0274
30894SOL    HW297813   5.902  10.939  10.667 -0.4672 -0.6491 -0.5492
30895SOL     OW97814   0.904   5.875   6.504  0.5243  0.4118  0.1340
30895SOL    HW197815   0.853   5.884   6.585  0.0401  1.1615 -0.2527
30895SOL    HW297816   0.879   5.789   6.470 -1.5799  1.3572 -0.7899
30896SOL     OW97817   4.142   6.325   4.303  0.2847  0.3384  0.1550
30896SOL    HW197818   4.115   6.367   4.220 -1.3888  2.1007  1.5375
30896SOL    HW297819   4.197   6.391   4.345  1.8380 -0.9002  0.0687
30897SOL     OW97820  10.622   2.351   7.078  0.0021 -0.2603  0.2224
30897SOL    HW197821  10.591   2.416   7.142 -2.1409  0.8693 -1.8636
30897SOL    HW297822  10.553   2.285   7.076  0.6398 -0.9190 -0.0550
30898SOL     OW97823   3.155   5.261   1.313 -0.2034 -0.4879 -0.1793
30898SOL    HW197824   3.129   5.189   1.255  0.1491  0.4024 -1.4443
30898SOL    HW297825   3.208   5.318   1.258 -0.9125  1.0213  0.6800
30899SOL     OW97826   0.604   1.923   1.523 -0.1340  0.1440 -0.4360
30899SOL    HW197827   0.612   1.990   1.455  0.1735 -1.5444 -2.1238
30899SOL    HW297828   0.693   1.888   1.532 -0.3055 -0.0789  0.3908
30900SOL     OW97829   0.722   9.388   1.470 -0.0576  0.0525 -0.3683
30900SOL    HW197830   0.757   9.344   1.548 -1.3314  1.2374  0.8976
30900SOL    HW297831   0.759   9.339   1.397  1.3660 -0.9334  0.9697
30901SOL     OW97832  10.437   8.296   6.689 -0.3055  0.0818  0.0018
30901SOL    HW197833  10.395   8.382   6.691 -1.0880 -0.2299 -1.9347
30901SOL    HW297834  10.482   8.289   6.773  0.4160  2.7029 -0.1304
30902SOL     OW97835   0.261   5.600   2.357 -0.2021  0.3799  0.2343
30902SOL    HW197836   0.309   5.561   2.430 -0.1665 -0.8827 -0.4578
30902SOL    HW297837   0.169   5.586   2.377 -0.2399  1.2392  0.6935
30903SOL     OW97838   3.761   1.704  10.252 -0.0902 -0.1703  0.4150
30903SOL    HW197839   3.721   1.727  10.336 -0.6627  1.3520 -0.2785
30903SOL    HW297840   3.847   1.746  10.254  0.1931 -0.7520  0.5442
30904SOL     OW97841   2.032   4.956   4.917 -0.0010  0.1923 -0.3116
30904SOL    HW197842   2.032   5.032   4.975  1.3107  0.6693 -0.9150
30904SOL    HW297843   2.125   4.934   4.907 -0.3783 -1.6767  0.0974
30905SOL     OW97844   7.000  10.372   2.273  0.3726 -0.3839  0.4850
30905SOL    HW197845   6.920  10.327   2.298  1.6899 -1.6902  2.5462
30905SOL    HW297846   7.065  10.302   2.264  1.3376  0.6713 -0.8917
30906SOL     OW97847   8.799   7.777   0.898 -0.6678  0.0418 -0.9097
30906SOL    HW197848   8.796   7.681   0.896 -1.8665  0.0506 -0.0419
30906SOL    HW297849   8.808   7.803   0.806 -1.8905 -0.8645 -1.2968
30907SOL     OW97850   4.913   9.037   5.825  0.1915  0.4699 -0.1728
30907SOL    HW197851   4.856   9.112   5.838  0.6484  0.6195  1.0171
30907SOL    HW297852   4.988   9.053   5.882  0.5192 -0.6549 -0.2616
30908SOL     OW97853  10.742   4.948   0.546 -0.0928 -0.1229  0.2989
30908SOL    HW197854  10.833   4.933   0.521 -0.5317  0.3993 -1.7219
30908SOL    HW297855  10.747   4.983   0.635  1.7388  0.5632 -0.0486
30909SOL     OW97856   8.265  10.796   6.317  0.0684  0.5383 -0.4971
30909SOL    HW197857   8.201  10.752   6.372  0.7606  0.7920  0.5128
30909SOL    HW297858   8.262  10.749   6.234 -0.7224 -0.0626 -0.1243
30910SOL     OW97859   3.682   2.405   8.133  0.4944  0.1295  0.3910
30910SOL    HW197860   3.758   2.460   8.115  1.3892 -0.8012  1.2633
30910SOL    HW297861   3.679   2.397   8.228 -0.4616 -0.1852  0.3451
30911SOL     OW97862   7.290   9.333   2.326  0.2518  0.5230  0.5361
30911SOL    HW197863   7.306   9.380   2.244  0.5612 -1.9844 -0.8801
30911SOL    HW297864   7.205   9.292   2.314 -0.0063  0.7005  1.7469
30912SOL     OW97865   4.131   5.187   2.592  0.0546  0.0626  0.4640
30912SOL    HW197866   4.169   5.119   2.648  0.4084  0.2635  0.4675
30912SOL    HW297867   4.107   5.257   2.652  1.5525  0.7978  0.2463
30913SOL     OW97868  10.751   5.583   4.532  0.1310  0.2588 -0.0552
30913SOL    HW197869  10.826   5.557   4.585 -0.7056 -0.7794  0.6390
30913SOL    HW297870  10.761   5.678   4.520  2.0742 -0.0213 -0.8022
30914SOL     OW97871   5.118   9.947  10.439  0.5009  0.2151  0.2827
30914SOL    HW197872   5.025   9.933  10.455  1.1270 -2.4733  1.8276
30914SOL    HW297873   5.121  10.018  10.375 -2.7126 -1.5479 -1.9322
30915SOL     OW97874   0.155  10.813   9.427 -0.1052  0.5558 -1.1560
30915SOL    HW197875   0.243  10.776   9.428 -0.5677 -0.5641  0.0774
30915SOL    HW297876   0.107  10.761   9.491 -0.8145  3.1967  0.5683
30916SOL     OW97877   2.399   0.981   6.338 -0.0659 -0.1021 -0.6963
30916SOL    HW197878   2.478   1.024   6.306 -0.1180 -0.4959 -1.3577
30916SOL    HW297879   2.369   1.037   6.410  0.2182  0.6197 -1.1391
30917SOL     OW97880   7.622   2.293   3.657 -0.1606  0.6111  1.0313
30917SOL    HW197881   7.677   2.214   3.660 -1.3095 -0.1855  1.7503
30917SOL    HW297882   7.544   2.266   3.608  1.1411  2.4410 -2.1786
30918SOL     OW97883   7.446   3.439   8.931  0.3298  0.4881 -0.5703
30918SOL    HW197884   7.517   3.444   8.867  0.2045  2.1736 -0.6158
30918SOL    HW297885   7.402   3.524   8.923 -0.1639  0.4032  1.2044
30919SOL     OW97886   8.859   6.617   8.114 -0.1055 -0.4421  0.1081
30919SOL    HW197887   8.851   6.668   8.033 -1.7562 -0.9957 -0.0939
30919SOL    HW297888   8.776   6.569   8.120  0.5407 -1.4081  1.4458
30920SOL     OW97889   8.135   3.142   0.635 -0.0144 -0.2837 -0.4205
30920SOL    HW197890   8.220   3.176   0.607  0.6438 -1.6337 -0.1026
30920SOL    HW297891   8.071   3.200   0.595  1.0120 -0.1941 -1.9509
30921SOL     OW97892  10.334   7.475   5.165 -0.1941 -0.3552  0.5878
30921SOL    HW197893  10.323   7.439   5.077 -1.2087 -1.3108  1.0965
30921SOL    HW297894  10.259   7.442   5.215  0.2310  0.3814  1.7476
30922SOL     OW97895   6.672   9.113  10.844 -0.6792 -0.0709 -0.9542
30922SOL    HW197896   6.750   9.104  10.789 -0.4149 -2.2638 -0.2848
30922SOL    HW297897   6.603   9.067  10.796 -0.0163 -3.6511  1.2565
30923SOL     OW97898   1.290   5.196   1.500  0.0507 -0.2485 -0.3478
30923SOL    HW197899   1.235   5.202   1.422 -0.3361  0.3133 -0.0326
30923SOL    HW297900   1.342   5.116   1.486 -1.0258 -0.9379 -0.5244
30924SOL     OW97901   7.990   0.464   5.562  0.2184  0.3678  0.2382
30924SOL    HW197902   7.945   0.449   5.645  2.1056  0.9609  1.4119
30924SOL    HW297903   7.987   0.379   5.517 -0.9754  0.0938  0.8207
30925SOL     OW97904   7.550  11.083   6.475 -0.1574  0.0157  0.4203
30925SOL    HW197905   7.618  11.060   6.538 -0.9678  0.0639  1.3126
30925SOL    HW297906   7.471  11.096   6.527 -0.7577  0.4045 -0.5602
30926SOL     OW97907   9.730  11.144   3.472 -0.2251  0.4421 -0.1454
30926SOL    HW197908   9.750  11.214   3.535 -0.9177  0.4047  0.1195
30926SOL    HW297909   9.669  11.087   3.518  0.8318 -0.6946 -0.1323
30927SOL     OW97910   6.884  10.330   9.042 -0.4507 -0.5043 -0.0236
30927SOL    HW197911   6.851  10.253   9.087  2.7697 -1.1303  1.3538
30927SOL    HW297912   6.908  10.299   8.955 -1.1952 -0.5588 -0.2153
30928SOL     OW97913  10.773   6.146  10.959 -0.8489 -0.3153 -0.0420
30928SOL    HW197914  10.682   6.133  10.986 -0.9928  0.6979 -0.0084
30928SOL    HW297915  10.769   6.220  10.898  0.0468  0.2700  0.5891
30929SOL     OW97916  11.321   0.980   4.999 -0.2331 -0.4138 -0.2740
30929SOL    HW197917  11.256   1.003   5.066  0.9613  0.3141  0.6471
30929SOL    HW297918  11.269   0.966   4.919 -1.9802 -3.8182  1.3441
30930SOL     OW97919   0.898   3.109   0.620  0.6100  0.1212 -0.4257
30930SOL    HW197920   0.961   3.060   0.674  1.3176 -1.4944 -2.6372
30930SOL    HW297921   0.920   3.201   0.635  1.4141 -0.3311  1.2892
30931SOL     OW97922   1.026   9.106   6.096 -0.0098  0.1568  0.5105
30931SOL    HW197923   0.964   9.177   6.078 -1.7369 -1.3570  0.2869
30931SOL    HW297924   1.105   9.150   6.127 -0.0200  2.3289 -2.3724
30932SOL     OW97925   6.551   7.555   0.951  0.0075  0.2002 -0.2000
30932SOL    HW197926   6.559   7.620   0.881  1.6081  1.0959  0.7791
30932SOL    HW297927   6.633   7.505   0.947 -0.6177 -0.8489 -0.0474
30933SOL     OW97928  11.019   5.846   9.450 -0.1747 -0.3032 -0.2011
30933SOL    HW197929  11.045   5.755   9.465  0.7421 -0.0812 -0.4265
30933SOL    HW297930  11.077   5.876   9.380 -0.6904  0.3588 -0.3457
30934SOL     OW97931  11.086   8.865  11.104  0.0929 -0.2889 -0.2435
30934SOL    HW197932  11.139   8.930  11.057  1.8655 -1.1245  0.5396
30934SOL    HW297933  11.129   8.782  11.085 -0.1129 -0.8268  1.5348
30935SOL     OW97934   2.449   3.023   9.421 -0.5542  0.4472  0.3290
30935SOL    HW197935   2.432   3.103   9.371 -0.3421 -0.8517 -1.8855
30935SOL    HW297936   2.517   3.048   9.483  1.3746  1.3426 -2.0776
30936SOL     OW97937   8.814   7.492   1.666 -0.0214 -0.4125  0.0368
30936SOL    HW197938   8.762   7.511   1.745  0.1774  0.0338  0.0608
30936SOL    HW297939   8.767   7.537   1.595  0.9200  0.9054  0.2307
30937SOL     OW97940   8.560   8.151   8.702  0.3213 -0.9232  0.4856
30937SOL    HW197941   8.568   8.245   8.685 -0.1312 -1.4299 -2.9441
30937SOL    HW297942   8.650   8.122   8.713  0.7350 -0.6221 -1.8728
30938SOL     OW97943   2.568  10.262   9.395 -0.2510  0.5428  0.1229
30938SOL    HW197944   2.606  10.256   9.307  0.1435  2.6967  0.1265
30938SOL    HW297945   2.495  10.201   9.393  0.1886  0.0380 -1.4846
30939SOL     OW97946   7.707   4.770   1.355  0.3414  0.6877 -0.2960
30939SOL    HW197947   7.728   4.864   1.351 -0.1144  0.8491  0.7946
30939SOL    HW297948   7.719   4.747   1.447  0.3716 -0.3106 -0.5501
30940SOL     OW97949   8.320   0.903   6.581  0.7254  0.3840 -0.7733
30940SOL    HW197950   8.393   0.841   6.588  1.4269  1.2483 -0.4296
30940SOL    HW297951   8.313   0.920   6.487 -0.2463 -1.1362 -0.9886
30941SOL     OW97952   9.916   9.948   8.336 -0.1722 -0.0742 -0.3142
30941SOL    HW197953   9.930   9.953   8.241  2.0825  1.5323  0.0462
30941SOL    HW297954   9.904   9.855   8.354  0.4138 -0.5082 -2.0499
30942SOL     OW97955   5.075   4.193   1.750  0.0081 -0.1784  0.8695
30942SOL    HW197956   5.136   4.261   1.780 -0.0409 -0.9209  2.7287
30942SOL    HW297957   4.997   4.241   1.722  0.1111  0.5728  1.8313
30943SOL     OW97958   0.095   9.696   0.327  0.2043  0.1547  0.5477
30943SOL    HW197959   0.122   9.788   0.325 -0.4085  0.3128 -2.8243
30943SOL    HW297960   0.163   9.650   0.277 -1.3341 -0.6593 -0.8522
30944SOL     OW97961   8.998   4.290   6.998 -0.0414 -0.1945 -0.7038
30944SOL    HW197962   9.044   4.370   7.019  0.5463 -0.3887 -1.2512
30944SOL    HW297963   8.913   4.319   6.963 -0.5248  0.1466  0.7472
30945SOL     OW97964   0.526   6.782   2.066  0.6460 -0.3170  0.2003
30945SOL    HW197965   0.532   6.815   1.976  1.2224 -0.3747  0.2124
30945SOL    HW297966   0.474   6.848   2.112 -0.8281 -0.9820 -0.4955
30946SOL     OW97967  11.312  11.250   4.549 -0.4749 -0.9599  0.0697
30946SOL    HW197968  11.318  11.183   4.481 -0.7987 -0.2725 -0.6377
30946SOL    HW297969  11.220  11.275   4.551 -0.2845 -0.2388  0.0417
30947SOL     OW97970   7.475   3.116   5.397 -0.2383 -0.5286 -0.0078
30947SOL    HW197971   7.453   3.069   5.477 -3.0459 -1.6557 -1.3722
30947SOL    HW297972   7.494   3.046   5.333  1.7914  0.3436 -0.4056
30948SOL     OW97973   3.157   0.505   7.367 -0.0541 -0.3360  0.2097
30948SOL    HW197974   3.113   0.438   7.420 -0.3751 -0.5434 -0.3205
30948SOL    HW297975   3.114   0.587   7.390  2.0928  0.1352  2.8714
30949SOL     OW97976   7.128   4.066   7.078 -0.2756 -0.1805  0.3039
30949SOL    HW197977   7.200   4.129   7.080  0.9708 -1.5612  0.1623
30949SOL    HW297978   7.050   4.119   7.064  0.6664  1.3872  0.9001
30950SOL     OW97979   5.711   2.906   4.118 -0.4623 -0.2290 -0.0660
30950SOL    HW197980   5.755   2.840   4.171 -1.4093 -1.2077 -0.4546
30950SOL    HW297981   5.776   2.974   4.104  1.2767 -2.1440 -1.5357
30951SOL     OW97982  11.294   2.349  10.568 -0.1464  0.2468 -0.2422
30951SOL    HW197983  11.242   2.281  10.526 -0.7352  0.4169  0.2004
30951SOL    HW297984  11.335   2.396  10.495  0.7387 -0.9437 -0.5180
30952SOL     OW97985   0.777   6.812   0.917  0.0404 -0.0094 -0.2956
30952SOL    HW197986   0.725   6.733   0.933  1.0835 -0.3685  1.4652
30952SOL    HW297987   0.771   6.862   0.999 -1.5729  2.3232 -1.7990
30953SOL     OW97988   5.709   4.857   0.596 -0.2025 -0.5458 -0.1347
30953SOL    HW197989   5.652   4.781   0.606 -0.7529 -0.3754 -1.8326
30953SOL    HW297990   5.773   4.831   0.530 -0.4944  0.4986 -0.8484
30954SOL     OW97991   6.556  10.078  10.853  0.7213  1.3709 -0.2103
30954SOL    HW197992   6.539  10.090  10.759  1.7352  0.9289 -0.4602
30954SOL    HW297993   6.477  10.035  10.886  1.0277  0.0075 -1.1945
30955SOL     OW97994   4.717   9.127  10.705 -0.2136 -0.3240 -0.5336
30955SOL    HW197995   4.747   9.214  10.732  1.5976 -1.2527  0.5686
30955SOL    HW297996   4.757   9.113  10.620  0.5152 -0.5808 -0.1493
30956SOL     OW97997   4.061   3.048   9.501 -0.5419 -0.2641 -0.0482
30956SOL    HW197998   3.990   3.081   9.556 -1.3728  0.1175 -1.3139
30956SOL    HW297999   4.019   2.981   9.446  0.2114 -0.4779 -0.3663
30957SOL     OW98000   0.218   5.457   9.470  0.0366  0.2730  0.2514
30957SOL    HW198001   0.197   5.428   9.381  0.0137 -1.5311  0.8298
30957SOL    HW298002   0.314   5.455   9.473  0.0490  0.7045  0.1484
30958SOL     OW98003   6.937   8.283   6.901  0.7611 -0.2615 -0.6831
30958SOL    HW198004   6.943   8.222   6.976 -0.1651 -1.1879 -1.3447
30958SOL    HW298005   6.943   8.370   6.941  2.1162 -0.7788  0.2814
30959SOL     OW98006   9.244  11.304   5.724 -0.9110 -0.0965 -0.7741
30959SOL    HW198007   9.220  11.358   5.648  0.8129  0.4809 -0.9267
30959SOL    HW298008   9.244  11.214   5.691 -3.3058 -0.1751 -0.6478
30960SOL     OW98009   7.002   0.607   7.218  0.1666  0.4337 -0.1733
30960SOL    HW198010   7.033   0.684   7.265 -1.0481  0.5780  0.4044
30960SOL    HW298011   6.915   0.631   7.188 -1.2054 -1.5826  2.0793
30961SOL     OW98012   5.982   8.283  10.371 -0.2562 -0.4046 -0.8155
30961SOL    HW198013   6.052   8.271  10.436 -1.0708 -0.2389  0.1127
30961SOL    HW298014   5.992   8.374  10.343 -0.4025 -0.2344 -0.3192
30962SOL     OW98015   4.616   5.636   6.285 -0.1598 -0.3809 -0.3822
30962SOL    HW198016   4.579   5.680   6.362  0.4823  1.4716 -1.0947
30962SOL    HW298017   4.608   5.543   6.304 -1.5546  0.0384  1.1923
30963SOL     OW98018   4.112   5.651   4.542 -0.0448  0.3072  0.0331
30963SOL    HW198019   4.073   5.661   4.455  1.1894 -1.8682 -0.8100
30963SOL    HW298020   4.196   5.697   4.536  0.1855 -0.1216 -0.0308
30964SOL     OW98021   2.511  10.968   6.185 -0.2067 -0.0883 -0.2359
30964SOL    HW198022   2.553  10.984   6.101 -0.4296 -1.3377 -0.6039
30964SOL    HW298023   2.580  10.927   6.238 -0.7748 -1.6058 -0.6500
30965SOL     OW98024   6.744   8.398   1.231  0.0421  0.3336 -0.3626
30965SOL    HW198025   6.663   8.347   1.231  0.5979 -0.5891 -1.4425
30965SOL    HW298026   6.812   8.334   1.250  0.6603  0.8255 -0.8879
30966SOL     OW98027  10.209   7.626   8.844  0.3199 -0.6005  0.4355
30966SOL    HW198028  10.201   7.561   8.914  1.4863 -2.4610 -1.0912
30966SOL    HW298029  10.157   7.589   8.772 -2.2501  2.0868  0.8151
30967SOL     OW98030   6.659   6.393   0.964  0.2647 -0.1805 -0.1152
30967SOL    HW198031   6.722   6.372   1.032 -1.0657  0.3114  1.3082
30967SOL    HW298032   6.665   6.488   0.954  0.0996 -0.1905 -0.3275
30968SOL     OW98033   6.027   1.970  11.285  0.0894  0.1980  0.4016
30968SOL    HW198034   5.982   2.023  11.218 -1.0532  0.4319  1.3342
30968SOL    HW298035   6.112   2.012  11.295  0.3754  0.0206 -1.0702
30969SOL     OW98036   9.002   5.532   1.694 -0.5414 -0.0505 -0.0510
30969SOL    HW198037   9.034   5.467   1.630 -0.7505 -1.1501  0.9433
30969SOL    HW298038   8.933   5.579   1.648  0.7874  0.6603 -1.3822
30970SOL     OW98039   8.094   9.435   9.550 -0.0341 -0.1124  0.1292
30970SOL    HW198040   8.138   9.503   9.602  1.1967 -1.9748  1.6166
30970SOL    HW298041   8.091   9.359   9.609 -0.9512 -1.4870 -1.6612
30971SOL     OW98042   1.323   5.543   1.881 -0.1205 -0.3827 -0.1257
30971SOL    HW198043   1.304   5.510   1.793  2.2740  0.8178 -1.1480
30971SOL    HW298044   1.349   5.466   1.931  0.7684 -0.7571 -1.1409
30972SOL     OW98045   5.199   8.433   4.089  0.2679 -0.1197 -0.0274
30972SOL    HW198046   5.253   8.354   4.101 -0.0026 -0.4844 -1.1765
30972SOL    HW298047   5.133   8.427   4.159 -0.5370 -1.5907 -0.8821
30973SOL     OW98048   1.415  10.522   9.108 -0.2508  0.1744 -0.3309
30973SOL    HW198049   1.438  10.455   9.173 -0.0288  2.7921  2.3714
30973SOL    HW298050   1.320  10.530   9.113 -0.0338  1.8871  1.2221
30974SOL     OW98051   8.131   7.389   0.675 -0.4688  0.6760  0.4481
30974SOL    HW198052   8.134   7.463   0.615 -0.4033  0.4401  0.1650
30974SOL    HW298053   8.213   7.393   0.723  0.0343  0.1206 -0.3554
30975SOL     OW98054   1.034   0.291   4.261  0.4919 -0.0515 -0.3360
30975SOL    HW198055   1.009   0.382   4.274 -2.6213 -1.1345  1.7701
30975SOL    HW298056   1.009   0.272   4.171  0.3109  0.9079 -0.4927
30976SOL     OW98057   4.794  10.963   3.908 -0.2408 -0.0283  0.1385
30976SOL    HW198058   4.773  10.953   4.001 -1.2395  0.1377 -0.0690
30976SOL    HW298059   4.827  10.877   3.882  1.3999  0.3257  0.9838
30977SOL     OW98060   4.201   2.937   5.217  0.2365  0.3711 -0.9891
30977SOL    HW198061   4.256   2.878   5.269  1.3833  1.3615 -1.0673
30977SOL    HW298062   4.230   3.025   5.241 -3.6536  1.0719  1.5191
30978SOL     OW98063   1.136   5.593   1.245  0.0237 -0.1341  0.2996
30978SOL    HW198064   1.120   5.530   1.175 -1.1322 -1.1042  1.4311
30978SOL    HW298065   1.092   5.557   1.322  1.6193  0.7123  1.6580
30979SOL     OW98066   8.620   3.587   6.516 -0.1079  0.7060 -0.4412
30979SOL    HW198067   8.624   3.608   6.610  1.2007  0.9208 -0.5330
30979SOL    HW298068   8.561   3.512   6.510  1.7394 -0.8625  0.8284
30980SOL     OW98069   3.116   2.716   3.642 -0.4833 -0.3012 -0.3540
30980SOL    HW198070   3.101   2.736   3.550 -0.5252 -0.5850 -0.4079
30980SOL    HW298071   3.035   2.745   3.686  0.1357  1.2330 -0.1999
30981SOL     OW98072   7.784   1.877   3.899 -0.3768 -0.0946  0.2832
30981SOL    HW198073   7.876   1.886   3.924 -0.0563 -1.3423 -0.3890
30981SOL    HW298074   7.735   1.911   3.974  0.6172 -1.0028  1.3609
30982SOL     OW98075   0.377   8.741   1.370 -0.0574  0.0760 -0.2709
30982SOL    HW198076   0.466   8.716   1.347 -0.5263 -1.0159 -0.9492
30982SOL    HW298077   0.328   8.659   1.369 -1.1442  0.7134 -0.2639
30983SOL     OW98078   3.011   2.115   4.380  0.0425  0.0624  0.3933
30983SOL    HW198079   2.930   2.162   4.358  1.0025  1.9922  0.9221
30983SOL    HW298080   3.066   2.124   4.302  0.7899  1.0456  1.0356
30984SOL     OW98081   4.627   9.040   7.986 -0.3762 -0.5331 -0.2400
30984SOL    HW198082   4.659   8.975   8.048 -1.7579 -3.4167 -2.4036
30984SOL    HW298083   4.556   9.085   8.032  0.4473 -0.7216  1.2194
30985SOL     OW98084   0.552   1.539   0.968  0.2414 -0.0096  1.0212
30985SOL    HW198085   0.627   1.517   0.913 -0.4997  0.5441 -0.2226
30985SOL    HW298086   0.541   1.463   1.025  0.3805 -1.0370 -0.3087
30986SOL     OW98087   9.630   1.837  10.626  0.7971 -0.2400  0.4218
30986SOL    HW198088   9.544   1.878  10.621  0.4443 -1.1757 -1.9669
30986SOL    HW298089   9.643   1.818  10.719 -1.7783 -0.4934  0.7610
30987SOL     OW98090   1.003   9.722   1.463  0.6032  0.2199  0.0257
30987SOL    HW198091   0.977   9.799   1.413  1.1233  0.2351 -0.2245
30987SOL    HW298092   1.051   9.758   1.538 -2.1534  0.3400  1.8255
30988SOL     OW98093   8.282   3.558  10.806  0.2156  0.2874  0.4388
30988SOL    HW198094   8.239   3.624  10.752 -0.0035 -0.4562 -0.2924
30988SOL    HW298095   8.316   3.608  10.881  1.2934  1.4801 -0.8027
30989SOL     OW98096   1.128   4.115   6.338  0.1744 -0.7166 -0.2888
30989SOL    HW198097   1.079   4.139   6.416  1.2031 -0.9681  0.4464
30989SOL    HW298098   1.214   4.087   6.371  0.9019 -0.0379 -1.5605
30990SOL     OW98099   3.913   4.066  11.066 -0.2286 -0.4471  0.3998
30990SOL    HW198100   3.849   4.109  11.122 -0.6464 -1.9315  1.0705
30990SOL    HW298101   3.998   4.090  11.104 -0.3171  1.8731 -0.7444
30991SOL     OW98102   4.247  10.516  10.067 -0.0011 -0.0683  0.1521
30991SOL    HW198103   4.313  10.471  10.015 -0.5426 -0.4425 -0.2208
30991SOL    HW298104   4.198  10.446  10.110 -0.2254  0.1986  0.3378
30992SOL     OW98105  10.581   6.486   8.353 -0.6304  0.1227 -0.1301
30992SOL    HW198106  10.541   6.515   8.271  0.1121 -0.2652 -0.6318
30992SOL    HW298107  10.542   6.542   8.420 -3.1122 -1.1992 -0.4100
30993SOL     OW98108   8.358   6.052   6.680  0.2167  0.1379 -0.5956
30993SOL    HW198109   8.303   6.035   6.756 -0.3221 -2.0158 -1.4565
30993SOL    HW298110   8.307   6.022   6.605  1.2035  1.1952 -1.7273
30994SOL     OW98111   3.546   6.508   5.910 -0.1671  0.6085  0.1387
30994SOL    HW198112   3.534   6.432   5.967  0.1829 -0.4426 -1.1629
30994SOL    HW298113   3.635   6.537   5.927 -0.0407  0.2560  0.0732
30995SOL     OW98114   9.907   3.321   8.558  0.1696  0.6482 -0.3664
30995SOL    HW198115   9.972   3.391   8.545  0.7413  0.4857  1.4338
30995SOL    HW298116   9.832   3.348   8.505  0.4050  2.6011  0.2483
30996SOL     OW98117   6.316   5.456   3.086 -0.0203 -0.3745 -0.2701
30996SOL    HW198118   6.226   5.436   3.112  0.3641 -0.2824  1.1453
30996SOL    HW298119   6.343   5.528   3.144 -0.2992  2.2039 -3.1717
30997SOL     OW98120   7.379  11.250   6.938  0.0587  0.3701  0.2735
30997SOL    HW198121   7.369  11.341   6.965  0.8261  0.3689  0.5596
30997SOL    HW298122   7.427  11.209   7.010 -1.2008 -0.5093  0.6409
30998SOL     OW98123   4.573   1.344   2.829  0.2226  0.3866  0.2293
30998SOL    HW198124   4.538   1.430   2.853  0.9916  0.7808 -0.0641
30998SOL    HW298125   4.542   1.330   2.739  1.7616  1.2552 -0.4666
30999SOL     OW98126   0.982   4.956   5.178 -0.3227 -0.3612  0.6335
30999SOL    HW198127   0.897   4.929   5.141  0.2345 -1.7131  0.3407
30999SOL    HW298128   1.013   4.880   5.226  0.7564  0.1147  0.6990
31000SOL     OW98129   6.420   3.942   5.936 -0.1614 -0.3173 -0.5996
31000SOL    HW198130   6.390   3.986   6.016 -1.3296 -0.9690 -0.6794
31000SOL    HW298131   6.490   3.999   5.903  2.2149 -1.3926  2.3224
31001SOL     OW98132   4.581   5.757   5.743 -0.2063  0.1226 -0.1948
31001SOL    HW198133   4.566   5.781   5.651 -3.1787 -0.8529 -0.0268
31001SOL    HW298134   4.645   5.686   5.738 -1.1153 -0.6446 -1.6373
31002SOL     OW98135  10.682   8.084   0.895  0.2737  1.0472  0.1917
31002SOL    HW198136  10.762   8.046   0.932 -0.3698 -1.5313 -0.9587
31002SOL    HW298137  10.621   8.011   0.889 -2.1318  2.9275  0.8204
31003SOL     OW98138   0.500   1.078   1.897  0.3045  0.2305  0.3164
31003SOL    HW198139   0.522   1.014   1.964 -0.3312  0.5147  0.8067
31003SOL    HW298140   0.547   1.048   1.819  0.9608 -0.1601  0.8558
31004SOL     OW98141   6.938   5.197   7.894 -0.1637 -0.1742  0.4529
31004SOL    HW198142   7.034   5.199   7.887 -0.2193  0.9117 -0.1750
31004SOL    HW298143   6.919   5.240   7.977 -0.0946 -0.5058  0.6375
31005SOL     OW98144  10.783  11.284   4.471  0.4263 -0.5898 -0.4042
31005SOL    HW198145  10.830  11.366   4.454  1.8442 -1.0853  0.9492
31005SOL    HW298146  10.852  11.218   4.478 -0.3038 -1.1048  3.0055
31006SOL     OW98147  10.541   1.985   1.542 -0.0725 -0.5751 -0.0056
31006SOL    HW198148  10.625   2.028   1.558 -0.4436  0.0971  0.1468
31006SOL    HW298149  10.491   2.048   1.489 -0.9927 -0.3925  1.0734
31007SOL     OW98150   9.562   2.824   4.819 -0.6890  0.5195  0.1274
31007SOL    HW198151   9.585   2.731   4.821  0.6626  0.8376  0.1425
31007SOL    HW298152   9.616   2.861   4.749 -2.0255  1.1008 -0.6215
31008SOL     OW98153   8.992   7.004   0.482 -0.0850 -0.4135  0.0643
31008SOL    HW198154   8.911   7.039   0.447 -0.1323  0.5884  1.1594
31008SOL    HW298155   9.060   7.041   0.425 -0.3000 -0.3426 -0.1501
31009SOL     OW98156   6.235   2.429  11.054  0.2512 -0.0053  0.4358
31009SOL    HW198157   6.213   2.381  10.974  1.3938  0.7072 -0.3180
31009SOL    HW298158   6.322   2.398  11.078  0.7821  1.2815  0.2297
31010SOL     OW98159   8.866   7.161   5.687 -0.3133 -0.0437  0.3351
31010SOL    HW198160   8.784   7.113   5.688 -0.4343  0.1536  2.3895
31010SOL    HW298161   8.926   7.108   5.739  0.8946 -0.2126 -1.1815
31011SOL     OW98162   0.937   5.100   4.117  0.8884 -0.2856  0.3353
31011SOL    HW198163   0.982   5.070   4.039 -0.1558  0.7770 -0.6956
31011SOL    HW298164   0.953   5.194   4.120 -1.9587  0.2914 -0.5591
31012SOL     OW98165  11.124   9.508   9.713  0.3893 -0.5407  0.2541
31012SOL    HW198166  11.215   9.503   9.684  0.8526 -0.0368  1.5543
31012SOL    HW298167  11.080   9.438   9.667  1.5975 -1.2405  0.1350
31013SOL     OW98168   7.473   1.113   1.478 -0.1299 -0.0988  0.1677
31013SOL    HW198169   7.512   1.039   1.524  0.6655 -0.0100 -0.3499
31013SOL    HW298170   7.379   1.098   1.484 -0.0078 -0.5372  1.0747
31014SOL     OW98171   5.824   3.350   5.805  0.4660  0.1888  0.5042
31014SOL    HW198172   5.802   3.413   5.873  0.9778 -1.6385  2.4089
31014SOL    HW298173   5.919   3.342   5.809  0.5915  0.6626 -1.0123
31015SOL     OW98174   3.388   0.618   4.854 -0.3340  0.2316 -0.4153
31015SOL    HW198175   3.376   0.699   4.904 -0.1507 -0.4127  0.6840
31015SOL    HW298176   3.414   0.647   4.767 -0.8115  1.3757 -0.1826
31016SOL     OW98177   2.602   4.460   4.308 -0.2389 -0.0183  0.2023
31016SOL    HW198178   2.606   4.537   4.251 -2.6982 -0.1218 -0.1570
31016SOL    HW298179   2.609   4.386   4.247 -0.3157 -0.1009  0.2944
31017SOL     OW98180   5.759   3.567   0.892 -0.6474  0.6565 -0.6539
31017SOL    HW198181   5.699   3.641   0.891 -0.6894  0.6302 -0.3057
31017SOL    HW298182   5.838   3.599   0.849 -0.3210  1.2002  0.3376
31018SOL     OW98183   4.050   4.374   9.555 -0.7889 -0.4113 -0.3626
31018SOL    HW198184   4.126   4.318   9.570  1.7583  2.5634 -1.6256
31018SOL    HW298185   4.007   4.336   9.478  0.8357 -0.7241 -1.1405
31019SOL     OW98186  11.268  11.309   9.125 -0.7339  0.3709 -0.1483
31019SOL    HW198187  11.329  11.328   9.196  0.1231 -1.4178 -0.3755
31019SOL    HW298188  11.278  11.215   9.109 -0.5110  0.8331 -3.0155
31020SOL     OW98189   7.878   3.015   9.705 -0.6413 -0.3181 -0.1276
31020SOL    HW198190   7.972   3.023   9.690 -0.7077  0.0752 -0.3172
31020SOL    HW298191   7.872   2.981   9.795 -0.3447  0.6439  0.2663
31021SOL     OW98192   8.759   2.838   1.820 -0.1927  0.2757 -0.2090
31021SOL    HW198193   8.758   2.880   1.734  1.7282 -1.1362 -0.9500
31021SOL    HW298194   8.683   2.780   1.820 -0.8276  1.0993 -0.5234
31022SOL     OW98195   5.896  11.292   1.373  0.3475  0.4296  0.2571
31022SOL    HW198196   5.928  11.217   1.422 -1.0131 -0.6921 -0.5494
31022SOL    HW298197   5.860  11.351   1.440  0.1852 -0.2576  0.7790
31023SOL     OW98198   2.084   8.281   9.859 -0.5563 -0.2905 -0.1686
31023SOL    HW198199   2.039   8.359   9.828 -0.2557 -0.4436 -0.9926
31023SOL    HW298200   2.048   8.266   9.947 -2.4374 -0.6690 -0.9895
31024SOL     OW98201   1.250   7.563   2.537 -0.2281  0.1557  0.3486
31024SOL    HW198202   1.156   7.570   2.521 -0.2055 -1.1701 -0.4386
31024SOL    HW298203   1.257   7.521   2.623 -0.3592 -0.3719  0.1023
31025SOL     OW98204   1.332   9.698   4.163 -0.1856  0.1197 -0.6231
31025SOL    HW198205   1.323   9.703   4.068  0.8335  1.7600 -0.6697
31025SOL    HW298206   1.369   9.612   4.180  0.4828  0.1589 -1.8086
31026SOL     OW98207   8.009   4.887  10.289  0.1107 -0.5452  0.1456
31026SOL    HW198208   8.078   4.853  10.346 -1.1946  1.0244  2.7753
31026SOL    HW298209   7.936   4.827  10.302  0.3941 -1.2356 -1.3394
31027SOL     OW98210   0.191   4.804   9.617  0.1495 -0.6449  0.2841
31027SOL    HW198211   0.272   4.850   9.638  0.9495 -3.1747  2.9914
31027SOL    HW298212   0.122   4.863   9.648  0.9426  1.0253 -1.0336
31028SOL     OW98213   9.650  10.161   6.829  0.2366  0.1993 -0.6917
31028SOL    HW198214   9.697  10.078   6.829  0.4707  0.3300 -1.4423
31028SOL    HW298215   9.663  10.196   6.741 -0.1185  0.8861 -0.4746
31029SOL     OW98216   4.974   9.633   0.359 -0.3519  0.3179  0.2063
31029SOL    HW198217   5.068   9.631   0.340  0.1491 -1.4988  2.5765
31029SOL    HW298218   4.959   9.719   0.397  0.2295  0.8607 -0.7859
31030SOL     OW98219   8.476   6.928   7.795  0.1952 -0.6551  0.1149
31030SOL    HW198220   8.418   6.947   7.722 -1.4209 -1.4375  1.1769
31030SOL    HW298221   8.514   6.842   7.774  2.3454  0.6092 -1.4102
31031SOL     OW98222   3.732   1.007   2.799 -0.4058 -0.1244  0.4367
31031SOL    HW198223   3.699   0.976   2.715 -0.7838 -0.8749  0.8544
31031SOL    HW298224   3.824   0.982   2.799 -0.7141 -1.3075  0.7827
31032SOL     OW98225   5.916   8.944   1.858  0.2474 -1.0742 -0.1987
31032SOL    HW198226   5.984   9.011   1.858 -0.8091  0.0131  1.3202
31032SOL    HW298227   5.935   8.890   1.935 -1.5119  0.1982  1.1608
31033SOL     OW98228   6.886   2.121   2.848  0.1856 -0.4283 -0.5545
31033SOL    HW198229   6.867   2.027   2.855 -0.7582 -0.0953  1.6147
31033SOL    HW298230   6.943   2.139   2.923 -1.0805  1.0778  0.0520
31034SOL     OW98231   7.172   9.226   3.059  0.5516  0.2926 -0.3743
31034SOL    HW198232   7.212   9.312   3.045  0.3493  0.1984 -1.6032
31034SOL    HW298233   7.132   9.232   3.146  2.8848  0.5034  0.7079
31035SOL     OW98234  10.214   1.420   9.613  0.5835  0.1588 -0.7045
31035SOL    HW198235  10.148   1.376   9.559  0.9896  0.3143 -1.3413
31035SOL    HW298236  10.297   1.381   9.585  0.7934  0.2035 -0.1486
31036SOL     OW98237   9.669   5.193   1.065 -0.4024 -0.5855 -0.5863
31036SOL    HW198238   9.597   5.228   1.012 -0.7270  1.1109  0.9462
31036SOL    HW298239   9.739   5.176   1.002 -0.8944  1.0997 -1.6132
31037SOL     OW98240   2.924   5.393   3.522  0.3240  0.1256 -0.5437
31037SOL    HW198241   2.877   5.423   3.444  0.6451  0.4407 -0.6196
31037SOL    HW298242   2.914   5.298   3.522 -0.6065  0.2187 -0.3691
31038SOL     OW98243   9.634   1.103   2.825 -0.0520 -0.1991  0.1975
31038SOL    HW198244   9.611   1.145   2.742  1.5280  2.7607  1.1705
31038SOL    HW298245   9.551   1.073   2.861 -1.1538  1.3548 -0.9808
31039SOL     OW98246   8.264   9.020   6.401  0.3229  0.9999  0.3506
31039SOL    HW198247   8.175   8.992   6.422  0.0652 -0.3117 -2.3437
31039SOL    HW298248   8.319   8.978   6.468 -0.9241  0.6128  1.1368
31040SOL     OW98249   7.613   4.354   7.711 -0.2588  0.0681  0.0218
31040SOL    HW198250   7.587   4.440   7.677 -0.4046 -0.2394 -0.6599
31040SOL    HW298251   7.608   4.296   7.635 -1.1939 -0.7656  0.7106
31041SOL     OW98252   3.823   4.594   4.386  0.5460  0.4998  0.4829
31041SOL    HW198253   3.825   4.680   4.344 -1.0683  0.2722 -0.1006
31041SOL    HW298254   3.730   4.580   4.406  0.8161 -1.0780  0.6410
31042SOL     OW98255   1.664   8.671   5.194  0.6063  0.3912  0.4789
31042SOL    HW198256   1.720   8.595   5.177 -0.5845 -0.9166  2.1990
31042SOL    HW298257   1.625   8.653   5.280 -2.5496  1.1717 -0.7235
31043SOL     OW98258   0.431   3.938  10.550  0.3578  0.2890  0.1151
31043SOL    HW198259   0.445   4.015  10.496  0.0397 -0.6914 -1.4117
31043SOL    HW298260   0.418   3.867  10.487  2.0919 -1.2797  1.4850
31044SOL     OW98261   2.699   0.578   5.152 -0.4857 -0.0663 -0.8821
31044SOL    HW198262   2.728   0.668   5.167 -2.5734  0.5028 -0.0646
31044SOL    HW298263   2.654   0.580   5.068 -1.8363  0.0150 -0.1819
31045SOL     OW98264   5.252   5.810   2.334  0.3728 -0.7407  0.1313
31045SOL    HW198265   5.246   5.747   2.406 -0.9311 -1.9473 -0.9910
31045SOL    HW298266   5.168   5.857   2.337  0.2150 -0.9498 -0.7086
31046SOL     OW98267   8.394   5.828   2.733  0.3264  0.3810 -0.1944
31046SOL    HW198268   8.395   5.796   2.823  0.1867  1.1485  0.0808
31046SOL    HW298269   8.307   5.804   2.700 -0.1394  1.3420  0.3253
31047SOL     OW98270   2.681   2.706   6.884 -0.0771 -0.0618 -0.2897
31047SOL    HW198271   2.656   2.766   6.954  1.3608  1.6468 -1.1625
31047SOL    HW298272   2.610   2.712   6.821 -0.2120  0.3281 -0.1050
31048SOL     OW98273   6.109   5.687   1.816 -0.1102  0.3125  0.2867
31048SOL    HW198274   6.142   5.602   1.789 -0.7653 -0.1501  0.9023
31048SOL    HW298275   6.017   5.688   1.789  0.4681  1.7253 -1.7270
31049SOL     OW98276   2.973   9.098   2.375 -0.1552 -0.4164  0.7330
31049SOL    HW198277   2.966   9.141   2.461 -2.2538 -1.1763  0.9763
31049SOL    HW298278   2.936   9.011   2.389  0.4241 -0.9127 -0.7211
31050SOL     OW98279   2.464   2.115   5.750  0.5431 -0.5753 -0.1611
31050SOL    HW198280   2.470   2.158   5.836  0.7803  0.2701 -0.5963
31050SOL    HW298281   2.427   2.029   5.769  1.1417 -0.6133  0.8701
31051SOL     OW98282   1.912   3.437   1.989  0.7897  0.3151  1.0280
31051SOL    HW198283   1.933   3.344   1.999  0.9592  0.1514 -0.7085
31051SOL    HW298284   1.966   3.466   1.916  1.7647  2.1438  2.4094
31052SOL     OW98285   9.046   2.554   6.688 -0.4115 -0.4665  0.0225
31052SOL    HW198286   9.061   2.467   6.652 -0.8344 -0.6707  0.3271
31052SOL    HW298287   8.960   2.548   6.730 -0.9768  0.4393 -0.9888
31053SOL     OW98288   1.521   6.541   4.231  0.2196 -0.5298  0.3781
31053SOL    HW198289   1.558   6.473   4.287 -0.6936 -0.1764  1.4394
31053SOL    HW298290   1.432   6.553   4.264  0.3592  1.1670  0.2144
31054SOL     OW98291   5.108   0.997   9.714  0.2643  1.0437  0.0305
31054SOL    HW198292   5.192   0.974   9.755  0.1063 -0.8681 -0.6633
31054SOL    HW298293   5.053   0.920   9.729 -0.5864  1.3164 -1.6300
31055SOL     OW98294   5.329   6.639   8.709  0.3778 -0.1388  0.6342
31055SOL    HW198295   5.310   6.732   8.723  1.6829  0.2755 -0.3209
31055SOL    HW298296   5.252   6.606   8.662 -1.2887 -0.1691  3.2871
31056SOL     OW98297   4.918  10.962   7.211  0.4677  0.1929  0.1760
31056SOL    HW198298   4.881  11.044   7.175  1.4828  1.2253  1.4628
31056SOL    HW298299   4.841  10.907   7.228 -0.5637  2.3306  2.8521
31057SOL     OW98300   3.038   3.287   3.274 -0.3919  0.3894  0.1371
31057SOL    HW198301   3.125   3.315   3.247 -0.8204  0.8798 -0.7375
31057SOL    HW298302   3.019   3.210   3.221 -2.0677  2.5345 -2.4940
31058SOL     OW98303   2.045   6.289   4.757  0.0417 -0.5788  0.3290
31058SOL    HW198304   2.049   6.220   4.691  2.7128  0.1385 -0.3086
31058SOL    HW298305   2.099   6.256   4.830 -1.9561 -0.8759  1.7142
31059SOL     OW98306   2.530   2.981   2.505 -0.4251  0.3568  0.3717
31059SOL    HW198307   2.560   3.069   2.525  0.0420 -0.4582  3.4934
31059SOL    HW298308   2.436   2.982   2.526 -0.5429  0.2618 -0.1414
31060SOL     OW98309   6.936   9.616   3.183 -0.6597 -0.3219  0.3351
31060SOL    HW198310   6.980   9.684   3.233 -1.0177  0.0000  0.2149
31060SOL    HW298311   6.848   9.611   3.220 -0.9116 -0.1135 -0.2212
31061SOL     OW98312   3.416   2.409   3.112 -0.0164 -0.8483  0.1863
31061SOL    HW198313   3.445   2.489   3.068 -1.8693  0.9199  2.1040
31061SOL    HW298314   3.496   2.358   3.124  1.0314  0.2308 -1.9938
31062SOL     OW98315   5.929   9.562   5.714  0.2794 -0.0458  0.2001
31062SOL    HW198316   5.963   9.614   5.786  2.3872  0.7322 -1.3270
31062SOL    HW298317   5.971   9.477   5.725 -0.0190 -0.1813  0.3207
31063SOL     OW98318   0.443   0.727  10.617  0.3699 -0.2097  0.3572
31063SOL    HW198319   0.482   0.815  10.615 -0.9138  0.3522 -1.0712
31063SOL    HW298320   0.350   0.743  10.632  0.1491 -1.3502  0.2482
31064SOL     OW98321   1.117   5.074   3.889 -0.0701 -0.5264  0.3447
31064SOL    HW198322   1.172   5.013   3.840 -0.6529 -2.3296  1.8870
31064SOL    HW298323   1.179   5.138   3.925  0.5563 -0.2545 -1.1547
31065SOL     OW98324   4.600   5.884   8.589  0.5563 -0.0012 -0.2732
31065SOL    HW198325   4.611   5.979   8.596  3.3373 -0.3382  0.6207
31065SOL    HW298326   4.602   5.853   8.680  0.2452 -0.9681 -0.5866
31066SOL     OW98327   8.068   6.282   3.566  0.3118 -0.2341  0.3025
31066SOL    HW198328   7.997   6.318   3.619  0.4727 -0.2742  0.5437
31066SOL    HW298329   8.147   6.301   3.615  0.1653 -3.6609  2.0019
31067SOL     OW98330   9.717   4.483   0.604 -0.0027  0.1343  0.0011
31067SOL    HW198331   9.735   4.439   0.521 -0.5559 -0.5603  0.2498
31067SOL    HW298332   9.639   4.440   0.638  0.1814  0.4597  0.8508
31068SOL     OW98333   1.519   0.878   7.623 -0.1973  0.1120 -0.2276
31068SOL    HW198334   1.590   0.815   7.636 -1.3117 -1.3414 -1.0180
31068SOL    HW298335   1.563   0.963   7.619  1.3707 -0.6381  0.5007
31069SOL     OW98336   6.396   2.175  10.785 -0.2618  0.2089 -0.5657
31069SOL    HW198337   6.433   2.157  10.871  1.0205  0.2553 -1.0836
31069SOL    HW298338   6.363   2.091  10.754 -0.9200  0.2350  0.0546
31070SOL     OW98339   9.682   8.356   9.115 -0.3886  0.0759  0.4371
31070SOL    HW198340   9.646   8.267   9.114  2.4156 -1.1615  1.9695
31070SOL    HW298341   9.659   8.389   9.202 -1.3165  0.8247 -0.0864
31071SOL     OW98342   5.520   9.930   5.629  0.3740  0.9401  0.4006
31071SOL    HW198343   5.600   9.896   5.669 -0.2136 -0.2945  0.5262
31071SOL    HW298344   5.532   9.916   5.535  0.1294  0.3929  0.4531
31072SOL     OW98345   4.841   0.719   3.605  0.2872  0.5282  0.2467
31072SOL    HW198346   4.921   0.669   3.620  0.6648  1.2829  0.7435
31072SOL    HW298347   4.775   0.675   3.658 -0.2478 -1.6513 -2.1219
31073SOL     OW98348   5.934   8.164   5.538  0.2668 -0.4423 -0.0018
31073SOL    HW198349   5.906   8.073   5.531  0.1089 -0.3672 -0.3183
31073SOL    HW298350   5.875   8.202   5.603  1.3372 -0.9725  1.3174
31074SOL     OW98351   6.415  10.557   2.741 -0.3817 -0.2215 -0.0301
31074SOL    HW198352   6.494  10.569   2.795 -1.2393 -0.3252  1.2573
31074SOL    HW298353   6.434  10.605   2.661  2.4957 -3.2387 -1.2880
31075SOL     OW98354   3.825   5.548  10.910  0.0918  0.0570 -0.2387
31075SOL    HW198355   3.733   5.566  10.893  0.2363  0.5723 -0.4915
31075SOL    HW298356   3.854   5.620  10.966  0.1572 -0.4949  0.4482
31076SOL     OW98357   7.361   1.904   1.407  0.3407  0.6573 -0.0265
31076SOL    HW198358   7.378   1.818   1.368  0.0988  0.2809  0.6811
31076SOL    HW298359   7.440   1.954   1.391  2.0080 -0.9287  2.8686
31077SOL     OW98360   9.169   9.002   6.584  0.1829  0.0852 -0.6162
31077SOL    HW198361   9.144   9.093   6.602 -0.4894 -0.0245 -0.9792
31077SOL    HW298362   9.224   8.977   6.659 -2.4184 -0.2959  1.2223
31078SOL     OW98363   5.616   3.581   3.717  0.3678  0.5986  0.5427
31078SOL    HW198364   5.581   3.656   3.765  0.5279  0.5838  0.6835
31078SOL    HW298365   5.604   3.507   3.776  0.5604  0.5791  0.5579
31079SOL     OW98366  11.045   9.386   0.728 -0.8774  0.1709  0.1530
31079SOL    HW198367  11.031   9.474   0.762 -1.6821 -0.0042  0.2682
31079SOL    HW298368  10.999   9.328   0.789  0.7934 -0.4573  0.8590
31080SOL     OW98369   2.027   8.192   5.741 -0.5623 -0.1423  0.2069
31080SOL    HW198370   1.997   8.271   5.697 -1.2784 -0.9687 -0.8056
31080SOL    HW298371   1.951   8.134   5.741  0.8768 -2.1572 -2.1221
31081SOL     OW98372   6.039   6.119   9.204 -0.3922 -0.2594  0.5422
31081SOL    HW198373   6.129   6.137   9.233 -0.5156  0.1866  0.6419
31081SOL    HW298374   5.985   6.137   9.281 -0.3991 -2.2618  1.0510
31082SOL     OW98375  11.189   5.576   3.009  0.1493  0.3705  0.3768
31082SOL    HW198376  11.275   5.561   2.971 -0.4669 -0.7299 -0.5970
31082SOL    HW298377  11.198   5.551   3.101  1.2588  1.6813  0.6357
31083SOL     OW98378   0.452   8.098   0.717  0.0244  0.8502 -0.4293
31083SOL    HW198379   0.539   8.107   0.757  0.5783 -1.8900 -0.9063
31083SOL    HW298380   0.466   8.122   0.626  0.2044  0.8076 -0.4144
31084SOL     OW98381   3.298   2.787   2.448 -0.2412  0.4279  0.4734
31084SOL    HW198382   3.354   2.804   2.523 -1.0944  0.8121  1.0380
31084SOL    HW298383   3.266   2.698   2.461  0.2062  0.2229  0.1725
31085SOL     OW98384   5.162  11.156   7.908 -0.0852 -0.4227 -0.0399
31085SOL    HW198385   5.252  11.176   7.883 -0.2661  0.2846 -0.1343
31085SOL    HW298386   5.150  11.064   7.885  0.8510 -0.7218  0.6724
31086SOL     OW98387   5.038   2.516   6.918 -0.4602 -0.2451  0.3259
31086SOL    HW198388   5.058   2.530   7.011 -0.2754  0.4912  0.1808
31086SOL    HW298389   4.944   2.534   6.911 -0.3300  0.4137  0.2399
31087SOL     OW98390   1.760   9.763   6.318  0.1681  0.0735  0.4418
31087SOL    HW198391   1.840   9.740   6.365  0.6966  1.4705  0.2431
31087SOL    HW298392   1.696   9.697   6.346  1.5718 -1.4873  0.0616
31088SOL     OW98393   1.629   0.912  10.012  0.5741 -0.5221 -0.5541
31088SOL    HW198394   1.538   0.904  10.040  0.2819  1.8728 -0.6873
31088SOL    HW298395   1.625   0.909   9.916  0.6454 -0.4492 -0.5589
31089SOL     OW98396   6.208   0.440   9.759 -0.1413 -0.3851 -0.2925
31089SOL    HW198397   6.297   0.414   9.733  0.4858  1.3351  0.0696
31089SOL    HW298398   6.203   0.416   9.852  0.1831  0.0974 -0.1470
31090SOL     OW98399   4.536   2.553   7.486  0.1384 -0.4562  0.6052
31090SOL    HW198400   4.505   2.463   7.497  1.4951 -0.9091  0.8150
31090SOL    HW298401   4.628   2.544   7.460  0.0379  0.8460 -0.3084
31091SOL     OW98402   2.172   8.500   4.285 -0.0606  0.3003 -1.0085
31091SOL    HW198403   2.175   8.427   4.346 -2.0257 -0.4119 -1.7225
31091SOL    HW298404   2.249   8.553   4.306  0.9374 -1.5421  0.0477
31092SOL     OW98405   8.386   2.787   8.685  0.0443  0.2964  0.3289
31092SOL    HW198406   8.435   2.767   8.765  0.9324  0.6725 -0.1219
31092SOL    HW298407   8.307   2.832   8.716  0.8753  1.3591  0.9286
31093SOL     OW98408   3.402   2.764   8.560  0.3597  0.7071  0.0299
31093SOL    HW198409   3.324   2.740   8.509 -0.3747  1.3859  0.8223
31093SOL    HW298410   3.452   2.683   8.566 -0.9183 -0.0487  0.6132
31094SOL     OW98411   8.963   6.984   3.255 -0.1687  0.2984 -0.4436
31094SOL    HW198412   8.989   7.075   3.270  1.3068  0.6256 -4.4125
31094SOL    HW298413   8.897   6.988   3.186  0.7886 -1.6918 -1.5291
31095SOL     OW98414   2.257   6.422   3.131  0.2567  0.0910  0.1376
31095SOL    HW198415   2.318   6.471   3.076  0.3119 -0.5640 -0.3821
31095SOL    HW298416   2.311   6.382   3.198  0.2493  0.4765  0.3774
31096SOL     OW98417   1.990   6.019  11.277  0.5160 -0.1280 -0.4031
31096SOL    HW198418   2.084   6.005  11.288  0.6053  0.8202  0.1422
31096SOL    HW298419   1.960   5.946  11.223  2.1106  1.2298 -3.2115
31097SOL     OW98420   9.098   0.839   4.976 -0.1439  0.1026  0.2490
31097SOL    HW198421   9.044   0.786   5.034  1.7292 -0.7982  1.2068
31097SOL    HW298422   9.147   0.776   4.923  2.8574  0.7726  2.0859
31098SOL     OW98423   1.205   0.652   6.350  0.4239 -0.0555  0.5800
31098SOL    HW198424   1.174   0.569   6.387 -2.0530 -0.9106 -3.1906
31098SOL    HW298425   1.177   0.718   6.413 -1.6822 -1.6606  1.3779
31099SOL     OW98426   1.050   5.661  10.943 -0.4781  0.2834 -0.3682
31099SOL    HW198427   1.145   5.659  10.930 -0.5438  1.7892 -1.2235
31099SOL    HW298428   1.035   5.604  11.019  0.6473 -3.1772 -2.6467
31100SOL     OW98429  10.546   9.561   9.508  0.0351  0.5356 -0.1278
31100SOL    HW198430  10.638   9.585   9.497  0.4550 -0.7696  0.4803
31100SOL    HW298431  10.530   9.571   9.602 -0.5938  1.2489 -0.3010
31101SOL     OW98432   5.054   1.433  10.848  0.1274 -0.0182  0.3807
31101SOL    HW198433   5.047   1.444  10.942  0.0298 -2.7561  0.7257
31101SOL    HW298434   5.141   1.465  10.826 -1.3113  4.4362  0.7524
31102SOL     OW98435   1.942   6.249   0.288  0.3493  0.9660  0.5736
31102SOL    HW198436   1.950   6.193   0.211 -1.4991 -0.2887  1.2576
31102SOL    HW298437   2.031   6.275   0.308  0.9796  0.2704 -1.2379
31103SOL     OW98438   5.048   4.279   7.958 -0.0801 -0.0119 -0.0025
31103SOL    HW198439   5.095   4.263   8.040  1.6439  0.8741 -0.8019
31103SOL    HW298440   4.979   4.342   7.981 -0.5926 -0.9516  1.0716
31104SOL     OW98441   1.642   2.054   3.754 -0.1819  0.4637  0.3388
31104SOL    HW198442   1.586   2.006   3.693 -0.3282  0.2655  0.6242
31104SOL    HW298443   1.627   2.146   3.734 -1.3143  0.4390  1.0265
31105SOL     OW98444   8.655   6.235   9.156 -0.2994  0.1161 -0.1381
31105SOL    HW198445   8.583   6.209   9.214  0.8554 -0.3885  1.0781
31105SOL    HW298446   8.611   6.270   9.079 -1.8627  0.6466  0.9624
31106SOL     OW98447   4.856   7.896   3.618  0.0221  0.4621 -0.6633
31106SOL    HW198448   4.855   7.957   3.692 -0.6027  0.2954 -0.5310
31106SOL    HW298449   4.766   7.864   3.612  0.5186 -1.0673 -0.2267
31107SOL     OW98450   1.594   5.367   4.507  0.0156 -0.1011 -0.4076
31107SOL    HW198451   1.552   5.309   4.570 -0.3678 -0.4230 -0.9562
31107SOL    HW298452   1.537   5.445   4.506 -0.4908 -0.4769 -1.0417
31108SOL     OW98453  10.972   0.775   1.168 -0.6106 -0.2216  0.3743
31108SOL    HW198454  10.996   0.856   1.122  0.1945 -1.8137 -2.0822
31108SOL    HW298455  11.048   0.756   1.224  0.0752 -0.3614 -0.5834
31109SOL     OW98456   5.807   7.195   1.967 -0.2885 -0.1757 -0.1748
31109SOL    HW198457   5.723   7.241   1.973 -0.7913 -1.1740  0.5216
31109SOL    HW298458   5.872   7.261   1.992 -0.7300  0.9724 -1.9662
31110SOL     OW98459   2.333   0.228  10.866 -0.2062  0.2335  0.1761
31110SOL    HW198460   2.331   0.246  10.960 -0.2055 -0.3376  0.2837
31110SOL    HW298461   2.426   0.224  10.844 -0.2058  0.1455  0.1931
31111SOL     OW98462  11.202   0.138  11.022  0.7426  0.1758  0.3591
31111SOL    HW198463  11.141   0.090  10.966  0.9559  1.6123 -1.1692
31111SOL    HW298464  11.274   0.076  11.037  0.0308 -0.7069  0.1815
31112SOL     OW98465   1.356   8.898   5.457 -0.9091  0.1772 -0.0068
31112SOL    HW198466   1.286   8.906   5.522 -1.0092  1.2955 -0.2455
31112SOL    HW298467   1.317   8.929   5.375 -0.1961  0.6457 -0.1740
31113SOL     OW98468   9.885   0.551   3.910  0.4899 -0.0267 -0.3620
31113SOL    HW198469   9.821   0.494   3.952  1.6679 -2.2890 -1.5812
31113SOL    HW298470   9.888   0.521   3.819  2.3628  0.8710 -0.6195
31114SOL     OW98471  11.008  10.947   6.744 -0.6834  0.4437  0.0248
31114SOL    HW198472  11.014  11.010   6.673 -1.5994 -0.7688 -1.1351
31114SOL    HW298473  10.942  10.982   6.803  0.2436  1.5651  0.4242
31115SOL     OW98474   6.311   1.099   2.904  0.2204  0.4057  0.1697
31115SOL    HW198475   6.384   1.039   2.921  0.0815  0.6419  1.7013
31115SOL    HW298476   6.250   1.083   2.976 -1.5426 -0.2208 -1.4419
31116SOL     OW98477  10.584   6.185   1.011  0.2374  0.1683  0.3452
31116SOL    HW198478  10.665   6.148   1.046  0.1813  0.1677  0.4753
31116SOL    HW298479  10.515   6.146   1.066  0.1316 -0.0289  0.0715
31117SOL     OW98480   9.902   6.225   7.672 -0.3472 -0.4901  0.3298
31117SOL    HW198481   9.829   6.186   7.720 -0.0969 -0.0802  1.0405
31117SOL    HW298482   9.862   6.295   7.620 -0.7222 -1.3540 -0.5684
31118SOL     OW98483   5.104   9.625  10.529 -0.0538  0.0818  0.1027
31118SOL    HW198484   5.120   9.550  10.585 -0.3690 -0.7540 -0.9221
31118SOL    HW298485   5.080   9.696  10.590 -1.9681 -1.2258  0.9259
31119SOL     OW98486   1.795   8.237   7.024  0.2652 -0.4071 -0.2945
31119SOL    HW198487   1.743   8.316   7.028  0.0796 -0.5626  0.5406
31119SOL    HW298488   1.800   8.215   6.931  0.8905  0.9529 -0.5911
31120SOL     OW98489  10.016   6.773   2.612  0.5561 -0.1130  0.1185
31120SOL    HW198490  10.052   6.725   2.537  1.0076  0.3763  0.0134
31120SOL    HW298491   9.949   6.715   2.648  0.2395 -0.2984 -0.7458
31121SOL     OW98492   5.035  10.651  10.671 -0.0624 -0.1552 -0.0602
31121SOL    HW198493   5.036  10.559  10.695 -0.3677 -0.6639 -1.8984
31121SOL    HW298494   5.077  10.696  10.744 -1.5504 -1.5374  1.6797
31122SOL     OW98495  10.884   5.970   2.381  0.1763 -0.4178  0.5908
31122SOL    HW198496  10.873   6.060   2.413  0.4533 -0.3575  0.5175
31122SOL    HW298497  10.975   5.967   2.350  0.5079 -1.0309  1.5877
31123SOL     OW98498   1.520   3.352   6.646 -0.0440 -0.0223 -0.4314
31123SOL    HW198499   1.454   3.293   6.610  0.5548 -0.1079 -1.4019
31123SOL    HW298500   1.526   3.327   6.738  1.1343 -2.3473 -1.1048
31124SOL     OW98501   5.566   7.749  10.254 -0.4177 -0.5905 -0.2273
31124SOL    HW198502   5.518   7.813  10.306 -0.3434 -0.2416 -0.5799
31124SOL    HW298503   5.517   7.745  10.171 -0.1839 -0.6773 -0.3623
31125SOL     OW98504  11.137   8.999  10.683  0.4160 -0.5531  0.3468
31125SOL    HW198505  11.056   8.949  10.668 -0.0784  0.6202 -0.9902
31125SOL    HW298506  11.207   8.936  10.669 -0.2094 -1.0011 -0.8002
31126SOL     OW98507   4.919   2.245   3.396  0.0016 -0.3589 -0.5692
31126SOL    HW198508   4.976   2.168   3.397 -1.0431 -1.1576 -1.1407
31126SOL    HW298509   4.832   2.211   3.419 -0.7077  0.4486 -1.9809
31127SOL     OW98510   3.074   7.721  10.590  0.0351  0.0538  0.0273
31127SOL    HW198511   3.081   7.726  10.495  1.4018  2.2157  0.2201
31127SOL    HW298512   3.128   7.647  10.615 -0.4332 -0.5997 -0.8836
31128SOL     OW98513   0.208   8.879  10.108 -0.5999 -0.0353  0.0200
31128SOL    HW198514   0.288   8.909  10.149 -0.2657 -0.8115 -0.0487
31128SOL    HW298515   0.138   8.917  10.161 -0.1852  0.2299  0.3818
31129SOL     OW98516   5.128   5.740   9.958  0.1570  0.1728  0.1913
31129SOL    HW198517   5.136   5.729   9.864 -1.4657  2.4472 -0.2673
31129SOL    HW298518   5.131   5.651   9.994  3.5752 -0.5525 -1.7202
31130SOL     OW98519   8.102   6.863   5.271  0.4009  1.0294 -0.0049
31130SOL    HW198520   8.072   6.795   5.212  1.1941  0.9927 -0.3616
31130SOL    HW298521   8.196   6.848   5.281  0.8921  2.9830 -1.3142
31131SOL     OW98522  10.879   6.297   1.991 -0.1520 -0.4298  0.6411
31131SOL    HW198523  10.820   6.305   1.916  0.0453  1.3176  0.6538
31131SOL    HW298524  10.840   6.229   2.045 -1.3484 -0.3477 -0.1077
31132SOL     OW98525   9.989  11.113  10.552 -0.1880  0.8140 -0.0507
31132SOL    HW198526   9.950  11.033  10.515  1.1192 -0.1743  0.6725
31132SOL    HW298527  10.017  11.087  10.640  1.0651  1.8228 -0.1422
31133SOL     OW98528  10.437   1.166   3.372 -0.4391  0.3689 -0.0226
31133SOL    HW198529  10.373   1.169   3.301 -3.2884 -1.6961  2.3295
31133SOL    HW298530  10.495   1.093   3.350 -1.0391  0.0250 -0.4761
31134SOL     OW98531   1.554   4.110   2.789  0.5271  0.5897 -0.2329
31134SOL    HW198532   1.527   4.193   2.751  2.2934  0.0014 -2.8744
31134SOL    HW298533   1.641   4.127   2.827  0.3139  0.2612  0.4258
31135SOL     OW98534   6.940   1.883  11.101  0.2420  0.1556 -0.0236
31135SOL    HW198535   6.955   1.976  11.088  0.3961 -0.0624 -1.4224
31135SOL    HW298536   6.950   1.870  11.196  4.4938  0.8201 -0.2921
31136SOL     OW98537   1.652   3.056   7.672  0.3225 -0.3210  0.2164
31136SOL    HW198538   1.640   3.101   7.588  1.3476  1.2034  0.8594
31136SOL    HW298539   1.683   3.125   7.731 -0.5739 -1.3488  1.8955
31137SOL     OW98540   1.592   1.615   0.469 -0.0054  0.0224  0.0446
31137SOL    HW198541   1.599   1.602   0.563 -1.1587  0.2252  0.1664
31137SOL    HW298542   1.504   1.650   0.456  0.6322  1.2935 -0.9696
31138SOL     OW98543   7.438   2.235   3.281 -0.5426 -0.2823 -0.3916
31138SOL    HW198544   7.522   2.190   3.268 -0.5559 -0.1225 -1.0927
31138SOL    HW298545   7.446   2.315   3.229 -1.4973 -0.7376 -1.2727
31139SOL     OW98546   9.766   1.656   8.326 -0.3248 -0.1210 -0.1258
31139SOL    HW198547   9.702   1.670   8.256 -0.3007  0.5800 -0.0082
31139SOL    HW298548   9.733   1.707   8.400 -0.4411 -0.9919  0.4377
31140SOL     OW98549   5.796   3.686   0.512  0.1593  0.3039 -0.0797
31140SOL    HW198550   5.739   3.609   0.508 -1.3754  1.4953 -1.4383
31140SOL    HW298551   5.880   3.656   0.478  0.4298 -1.5080  2.0680
31141SOL     OW98552   3.988   0.551  10.131  0.0777  0.1976 -0.0339
31141SOL    HW198553   4.054   0.486  10.156 -0.3432 -0.3298 -0.2958
31141SOL    HW298554   3.927   0.553  10.204 -0.5794 -0.5919 -0.5472
31142SOL     OW98555  10.752   3.655   4.421  0.2859  0.2161 -0.0380
31142SOL    HW198556  10.683   3.602   4.458 -0.0301 -0.3570 -1.4051
31142SOL    HW298557  10.826   3.646   4.481 -0.1211 -0.8904  0.2888
31143SOL     OW98558   2.052   5.833   3.891  0.0180  0.0013 -0.2245
31143SOL    HW198559   2.104   5.755   3.874 -1.3694 -0.9897 -0.0562
31143SOL    HW298560   2.082   5.864   3.976  0.7362 -0.2085 -0.3978
31144SOL     OW98561  10.942   2.588  10.132 -0.4181 -0.5154 -0.3110
31144SOL    HW198562  11.002   2.655  10.164  3.1047 -2.5390 -2.4565
31144SOL    HW298563  10.951   2.516  10.196 -1.9049 -0.1731  0.3069
31145SOL     OW98564   6.762   8.348   8.797  0.0051  0.4897 -0.2746
31145SOL    HW198565   6.834   8.327   8.737 -0.0941  0.4199 -0.3689
31145SOL    HW298566   6.805   8.388   8.873  0.1095  0.8094 -0.4977
31146SOL     OW98567   4.561   0.268   4.101  0.8223  0.3233  0.0962
31146SOL    HW198568   4.600   0.202   4.044  2.0912 -0.5428  1.9330
31146SOL    HW298569   4.631   0.331   4.117  0.1786  1.0975 -0.0891
31147SOL     OW98570   0.090   1.289   9.120  0.5538  0.3919 -1.0904
31147SOL    HW198571   0.044   1.371   9.138 -0.0146 -0.7223  2.9363
31147SOL    HW298572   0.021   1.223   9.114  1.3018 -0.5178  0.1298
31148SOL     OW98573   8.253   9.578  10.632  0.3324  0.0476 -0.4253
31148SOL    HW198574   8.190   9.649  10.626  1.0334  0.8506  1.2373
31148SOL    HW298575   8.332   9.613  10.590  0.7964  0.4117  0.7318
31149SOL     OW98576   8.474   0.851   9.724 -0.3905 -0.1741 -0.0510
31149SOL    HW198577   8.492   0.941   9.749  0.7637 -0.9205  1.8797
31149SOL    HW298578   8.431   0.813   9.801 -0.3243 -1.4406 -0.6300
31150SOL     OW98579   3.116   5.103   4.681  0.2925 -0.0576  0.1979
31150SOL    HW198580   3.102   5.041   4.610  0.8314 -0.2263  0.2343
31150SOL    HW298581   3.037   5.156   4.683  0.0101 -0.4615 -0.1175
31151SOL     OW98582   2.365   7.550   2.180  0.2456  0.1876  0.3676
31151SOL    HW198583   2.337   7.641   2.184 -1.4458 -0.3512  1.1574
31151SOL    HW298584   2.320   7.507   2.254  0.8013 -1.3295 -0.1512
31152SOL     OW98585   2.634   6.249   3.916  0.7550 -0.4771 -0.2928
31152SOL    HW198586   2.655   6.341   3.901  0.0680 -0.4134 -0.9223
31152SOL    HW298587   2.561   6.251   3.978  1.9407 -0.6647  1.1349
31153SOL     OW98588   3.939   2.419   5.074 -0.4450 -0.1656  0.4206
31153SOL    HW198589   4.007   2.472   5.114  0.4619 -0.2796 -0.9407
31153SOL    HW298590   3.888   2.482   5.022  1.0690 -0.7216 -1.7756
31154SOL     OW98591   4.431   7.836   4.470 -0.2893 -0.3458 -0.3195
31154SOL    HW198592   4.339   7.832   4.444 -0.6952  0.9512  0.8698
31154SOL    HW298593   4.437   7.779   4.546 -0.0893 -0.4949 -0.4472
31155SOL     OW98594   0.508   8.565  10.038 -0.1151 -0.2404 -0.2494
31155SOL    HW198595   0.542   8.504  10.104  0.3833 -0.7307 -0.9367
31155SOL    HW298596   0.574   8.563   9.968  0.3115  1.7222  0.0699
31156SOL     OW98597   1.574   2.616   3.642  0.0190 -0.0561 -0.0016
31156SOL    HW198598   1.519   2.540   3.624  0.7035 -0.3911 -0.7050
31156SOL    HW298599   1.514   2.681   3.679 -0.6074 -0.8639  0.4111
31157SOL     OW98600   9.156   5.162   7.542 -0.4863  0.0367  0.2649
31157SOL    HW198601   9.124   5.090   7.597  0.5411  1.2331  2.5171
31157SOL    HW298602   9.249   5.169   7.565 -0.4252  1.6200 -0.4387
31158SOL     OW98603   5.773   9.144   5.359 -0.1688  0.4111  0.0293
31158SOL    HW198604   5.783   9.219   5.417 -0.8909  1.3714 -1.0798
31158SOL    HW298605   5.765   9.181   5.271 -0.1484 -0.9749 -0.5757
31159SOL     OW98606  10.571   8.820   4.687  0.1245 -0.3295 -0.2250
31159SOL    HW198607  10.643   8.772   4.647  0.5979 -1.1617  1.5925
31159SOL    HW298608  10.613   8.893   4.733 -0.3884  0.4065 -0.8944
31160SOL     OW98609   6.854   0.102   7.445 -0.4855 -0.6622  0.1459
31160SOL    HW198610   6.796   0.111   7.521 -0.0984 -0.7514  0.4507
31160SOL    HW298611   6.939   0.080   7.482 -0.2918 -0.6871 -0.3149
31161SOL     OW98612  11.300   9.091   6.941  0.1506 -0.1421 -0.0944
31161SOL    HW198613  11.264   9.030   6.877  2.1650 -0.3233 -1.0967
31161SOL    HW298614  11.311   9.173   6.892 -1.1722  0.6243  0.8555
31162SOL     OW98615   3.861   0.255   4.379  0.1509  0.5254 -0.2451
31162SOL    HW198616   3.928   0.189   4.396 -0.6801 -0.5043 -0.9286
31162SOL    HW298617   3.888   0.297   4.298  0.2784  0.5003 -0.2155
31163SOL     OW98618   9.149   2.095   5.728 -0.2175  0.6011 -0.0528
31163SOL    HW198619   9.055   2.101   5.712 -0.2364 -0.2033 -0.2832
31163SOL    HW298620   9.157   2.086   5.823 -0.5267 -1.8320 -0.2281
31164SOL     OW98621   8.625  10.751   3.873 -0.0484 -0.2930 -0.1720
31164SOL    HW198622   8.677  10.759   3.953  1.0342  0.6238 -0.9517
31164SOL    HW298623   8.579  10.834   3.865  0.6460  0.0214 -1.0378
31165SOL     OW98624   1.533   5.451   7.408 -0.1478  0.6097 -0.3935
31165SOL    HW198625   1.493   5.434   7.493 -0.2600 -2.5572 -1.0232
31165SOL    HW298626   1.574   5.537   7.417  0.2030  0.1285  2.9916
31166SOL     OW98627   7.891   1.046   9.504  0.2588 -0.1654 -0.6928
31166SOL    HW198628   7.962   1.049   9.568 -0.6964  0.6008  0.3560
31166SOL    HW298629   7.901   1.127   9.453 -0.3238  0.3379 -0.0216
31167SOL     OW98630   2.363   9.302   1.658  0.3324  0.1633 -0.0202
31167SOL    HW198631   2.363   9.210   1.685  0.1187  0.2634  0.3327
31167SOL    HW298632   2.452   9.317   1.624  1.0596  0.3773  1.8958
31168SOL     OW98633   3.603   6.980   2.474  0.1573  0.5116 -0.1482
31168SOL    HW198634   3.580   7.032   2.398  1.0853  1.4956  0.2296
31168SOL    HW298635   3.681   6.931   2.447 -1.4327 -1.6442 -0.9170
31169SOL     OW98636  10.494   7.026   6.768  0.2819  0.4200 -0.0582
31169SOL    HW198637  10.579   6.993   6.742 -0.4525 -1.9735  0.4792
31169SOL    HW298638  10.507   7.062   6.856  1.1386  1.8555 -0.7521
31170SOL     OW98639   6.036   9.900  10.873  0.3842  0.5836  0.0385
31170SOL    HW198640   6.010   9.970  10.813  0.2823  1.1353  0.7197
31170SOL    HW298641   5.975   9.829  10.855  0.0941  0.9006 -0.2301
31171SOL     OW98642   4.205   8.182   0.675  0.1887  0.4780 -0.0949
31171SOL    HW198643   4.289   8.192   0.719  0.0460  0.9974  0.0670
31171SOL    HW298644   4.149   8.248   0.716 -0.1670  0.4378 -0.5162
31172SOL     OW98645   6.429   2.246   2.016 -0.0937 -0.3040  0.0334
31172SOL    HW198646   6.405   2.315   2.078 -2.3584 -0.4353 -0.6402
31172SOL    HW298647   6.523   2.259   2.001  0.0349  1.0689  1.8103
31173SOL     OW98648   2.616  11.252   4.923 -0.7186 -0.2209  0.5448
31173SOL    HW198649   2.575  11.207   4.996  0.9299 -0.7289  1.1613
31173SOL    HW298650   2.681  11.309   4.962  2.3624 -2.7635 -0.6437
31174SOL     OW98651   4.039  10.574   3.719 -0.0694 -0.2790  0.0408
31174SOL    HW198652   4.032  10.570   3.814 -0.2247 -0.6882  0.0148
31174SOL    HW298653   4.130  10.553   3.700 -0.5808 -2.5902 -0.0198
31175SOL     OW98654   7.774   4.551  10.412 -0.0794 -0.3096  0.1364
31175SOL    HW198655   7.869   4.542  10.408 -0.2344 -1.4561 -1.3674
31175SOL    HW298656   7.754   4.626  10.356 -0.0891 -0.3017  0.1502
31176SOL     OW98657   0.232   1.744   7.359 -0.6178 -0.2180 -0.0713
31176SOL    HW198658   0.166   1.703   7.304 -0.3552  1.0522 -1.3736
31176SOL    HW298659   0.251   1.679   7.427 -1.3312 -1.5895 -1.1656
31177SOL     OW98660   8.015  10.617   8.063  0.3041 -0.1665  0.6336
31177SOL    HW198661   7.955  10.544   8.073  1.4501 -1.1142  0.6783
31177SOL    HW298662   8.090  10.581   8.015  0.8254  0.9963  0.5385
31178SOL     OW98663  10.059   3.273   1.898  0.2319  0.3095 -0.0269
31178SOL    HW198664   9.973   3.312   1.914 -0.1470 -1.1221  1.6006
31178SOL    HW298665  10.107   3.286   1.980  1.1805  0.1372 -0.5467
31179SOL     OW98666   7.551   4.310   2.829 -1.0789 -0.7075 -0.1080
31179SOL    HW198667   7.530   4.371   2.758  0.1592 -2.3152 -1.9075
31179SOL    HW298668   7.552   4.224   2.787 -2.5444 -1.9641  2.3329
31180SOL     OW98669   0.985   4.783   0.444  0.0225 -0.7183  0.2774
31180SOL    HW198670   0.983   4.688   0.459  0.0983 -0.9606 -1.1806
31180SOL    HW298671   0.941   4.795   0.360 -0.2323  0.5777  0.5798
31181SOL     OW98672   1.746   1.021   7.048  0.3194 -0.0242  0.2501
31181SOL    HW198673   1.812   0.975   6.996  1.1643 -0.2911  1.5268
31181SOL    HW298674   1.698   1.073   6.984  1.5256 -0.1115 -0.7621
31182SOL     OW98675   7.931   3.317   3.972  0.1467  0.6513 -0.0067
31182SOL    HW198676   7.970   3.388   3.921 -1.0011  2.1898  1.2108
31182SOL    HW298677   7.862   3.281   3.916  0.7083  0.5159 -0.6083
31183SOL     OW98678   6.644   3.942   3.678  0.1903 -0.0940 -0.5502
31183SOL    HW198679   6.631   4.036   3.670  0.5587 -0.1321 -1.8572
31183SOL    HW298680   6.556   3.905   3.673  0.0719  0.1672 -0.3894
31184SOL     OW98681   7.986   2.511   1.159  0.0480 -0.1077 -0.3638
31184SOL    HW198682   7.998   2.532   1.067  1.7517 -1.7746 -0.5462
31184SOL    HW298683   7.927   2.579   1.192  0.9912  1.6501 -2.2156
31185SOL     OW98684   6.502   8.480   9.682 -0.2597  0.3402  0.4430
31185SOL    HW198685   6.487   8.567   9.645 -1.1314  0.0490  0.0980
31185SOL    HW298686   6.503   8.422   9.606 -0.4548 -0.0464  0.7357
31186SOL     OW98687   6.745   3.890   9.754 -0.3200  0.4588 -0.7504
31186SOL    HW198688   6.826   3.839   9.751 -0.1709  0.5479  1.1539
31186SOL    HW298689   6.675   3.824   9.761 -0.4095  0.3913 -2.1551
31187SOL     OW98690   2.517   9.128   7.900 -0.0287  0.2725 -0.2763
31187SOL    HW198691   2.533   9.168   7.985 -1.6553  2.8187 -1.1290
31187SOL    HW298692   2.590   9.157   7.846  0.5886 -0.7080  0.0162
31188SOL     OW98693   9.912  10.585   3.031 -0.4132  0.0683 -0.3793
31188SOL    HW198694   9.847  10.540   2.978 -0.0181 -1.1384  0.1284
31188SOL    HW298695   9.865  10.659   3.069 -1.1613 -0.0902 -0.9801
31189SOL     OW98696   5.404   4.587  10.620  0.5513  0.4393 -0.3796
31189SOL    HW198697   5.486   4.636  10.623 -0.1166  1.6665 -1.6686
31189SOL    HW298698   5.352   4.622  10.693  0.9577  0.0243  0.1156
31190SOL     OW98699   6.318   2.567   6.275  0.3163  0.0534 -0.8577
31190SOL    HW198700   6.234   2.595   6.240 -0.7970  1.3000  2.6046
31190SOL    HW298701   6.296   2.500   6.340  2.0233  0.0839 -0.2070
31191SOL     OW98702   8.280   5.927   7.198 -0.2073  0.3058  0.0784
31191SOL    HW198703   8.309   5.848   7.152  1.0480  0.7557  0.0611
31191SOL    HW298704   8.189   5.938   7.173 -0.1104 -0.5907 -0.7023
31192SOL     OW98705   5.472   7.528   1.144  1.0058 -0.3579  0.2582
31192SOL    HW198706   5.465   7.445   1.096  1.1852 -0.0779 -0.2503
31192SOL    HW298707   5.556   7.564   1.117  0.4204  0.5332 -0.3791
31193SOL     OW98708   8.082   0.876   2.721  0.1465  0.5280  0.3403
31193SOL    HW198709   7.995   0.839   2.705  0.1331  0.4589  0.5717
31193SOL    HW298710   8.067   0.947   2.784  0.3936 -0.1307  1.1428
31194SOL     OW98711   0.979   2.323   6.217  0.0690 -0.4922 -0.6543
31194SOL    HW198712   0.979   2.239   6.265  2.2215  0.3154  0.8310
31194SOL    HW298713   0.972   2.389   6.286 -0.3403  0.6079 -1.7432
31195SOL     OW98714   4.123   5.658   7.419 -0.4321 -0.4971 -0.1633
31195SOL    HW198715   4.044   5.618   7.455 -0.4991 -0.9280 -0.7728
31195SOL    HW298716   4.160   5.590   7.363  0.5291 -0.3987  0.3429
31196SOL     OW98717   8.114   2.274   0.380 -0.1664  0.1508  0.3031
31196SOL    HW198718   8.038   2.219   0.363  0.1543 -0.4856  0.9480
31196SOL    HW298719   8.187   2.228   0.338  0.1606 -0.0734  1.1262
31197SOL     OW98720   3.165   5.910   7.161  0.3814 -0.1170  0.0826
31197SOL    HW198721   3.143   5.953   7.244 -1.0442 -1.3679  0.3731
31197SOL    HW298722   3.181   5.982   7.101 -0.1251  0.8248  1.0477
31198SOL     OW98723   7.334   2.881   8.129 -0.2417 -0.1669  0.5958
31198SOL    HW198724   7.342   2.800   8.078  0.8916  0.2848  0.0349
31198SOL    HW298725   7.304   2.946   8.065  1.7629  0.5422  0.3311
31199SOL     OW98726  11.301   7.461   6.772 -0.1727  0.1572 -0.5889
31199SOL    HW198727  11.389   7.423   6.778  0.0972  0.6643 -1.2405
31199SOL    HW298728  11.277   7.448   6.680  0.0873  1.9068 -0.9258
31200SOL     OW98729   6.457   1.397   9.881  0.1064  0.0342  0.6119
31200SOL    HW198730   6.543   1.374   9.916  1.2846  0.2195 -2.0497
31200SOL    HW298731   6.412   1.313   9.871  1.0953 -0.3568 -0.7298
31201SOL     OW98732   0.763  10.968   6.442 -0.2917  0.3158  0.5812
31201SOL    HW198733   0.757  10.874   6.422  0.8332  0.1726  0.8800
31201SOL    HW298734   0.835  10.974   6.504 -0.5300  1.3607  0.7570
31202SOL     OW98735   0.896   8.473   1.533  0.5439 -0.4250 -0.1211
31202SOL    HW198736   0.990   8.492   1.536  0.7623 -1.6333  1.2363
31202SOL    HW298737   0.884   8.399   1.592 -1.2603 -0.3492 -0.3449
31203SOL     OW98738  10.569   6.307   4.456  0.0359  0.1831  0.1072
31203SOL    HW198739  10.588   6.236   4.394  0.6205 -0.6578  1.2306
31203SOL    HW298740  10.643   6.307   4.516 -0.9410  0.4118  1.3340
31204SOL     OW98741   1.802   9.471   6.635 -0.0531 -0.4515  0.1365
31204SOL    HW198742   1.837   9.560   6.622  1.3019 -1.1203 -0.9641
31204SOL    HW298743   1.742   9.480   6.709 -0.2865  1.4790 -0.2493
31205SOL     OW98744   2.532   7.920  11.003 -0.1280 -0.1046  0.1519
31205SOL    HW198745   2.518   7.960  10.917 -0.8780  0.6128  0.6008
31205SOL    HW298746   2.445   7.898  11.035  0.3564 -3.7114 -0.7923
31206SOL     OW98747   3.128  10.152   9.416 -0.2720  0.0860 -0.1323
31206SOL    HW198748   3.136  10.157   9.320 -4.3030 -0.2180 -0.5853
31206SOL    HW298749   3.105  10.241   9.442 -1.9281 -0.4216  0.1896
31207SOL     OW98750   8.904   1.277  11.286 -0.4661 -0.1749  0.2455
31207SOL    HW198751   8.890   1.184  11.266 -1.2673  0.4205 -2.0278
31207SOL    HW298752   8.849   1.293  11.362 -1.6263 -1.1556 -0.3702
31208SOL     OW98753  10.886  10.644   0.797 -0.1703  0.0329  0.2882
31208SOL    HW198754  10.932  10.587   0.735  0.1094 -0.0143  0.5377
31208SOL    HW298755  10.914  10.733   0.773 -0.6888  0.0748 -0.1700
31209SOL     OW98756   9.596   5.483   6.722  0.1575 -0.0194  0.2291
31209SOL    HW198757   9.654   5.457   6.793  0.6682 -0.1889 -0.2475
31209SOL    HW298758   9.623   5.429   6.648 -0.5158 -0.0026 -0.0318
31210SOL     OW98759   6.803   0.769   7.917  0.2079 -0.1291 -0.3207
31210SOL    HW198760   6.867   0.752   7.986  2.4038  0.9953 -2.0509
31210SOL    HW298761   6.793   0.865   7.918  0.7499 -0.0468 -1.9895
31211SOL     OW98762   1.908   2.914   3.874  0.3506  0.0449 -0.3445
31211SOL    HW198763   1.924   2.914   3.968  2.6333  1.1150 -0.7142
31211SOL    HW298764   1.959   2.839   3.841  2.5875  1.8716 -1.1772
31212SOL     OW98765   5.181   1.745   3.818 -0.0695  0.0064 -0.1976
31212SOL    HW198766   5.203   1.783   3.902  0.9455  1.5880 -1.1563
31212SOL    HW298767   5.090   1.717   3.827 -0.5579  1.8583  0.8270
31213SOL     OW98768   7.202   0.338   9.246  0.4841 -0.1962  0.2209
31213SOL    HW198769   7.241   0.251   9.237  2.4105  0.4165  2.3104
31213SOL    HW298770   7.261   0.396   9.200 -0.1563  0.1880 -0.1242
31214SOL     OW98771   0.568   3.269   4.453  0.2521 -0.3571  0.4776
31214SOL    HW198772   0.478   3.292   4.431  0.0748  0.4912  1.9617
31214SOL    HW298773   0.619   3.299   4.378 -0.8358 -2.0578 -0.9586
31215SOL     OW98774   3.347   1.441   8.675  0.0411 -0.0309 -0.1269
31215SOL    HW198775   3.272   1.461   8.730  0.0226 -0.5466  0.0367
31215SOL    HW298776   3.352   1.514   8.613  0.1285  0.6108  0.6245
31216SOL     OW98777  11.195   3.047   0.378  0.7213 -0.0028  0.0417
31216SOL    HW198778  11.111   3.002   0.368  0.1948  1.2567 -1.4782
31216SOL    HW298779  11.210   3.088   0.292  1.6537  1.8538  1.0715
31217SOL     OW98780   1.983   8.377   1.473 -0.3824  0.5380 -0.5043
31217SOL    HW198781   1.917   8.403   1.409 -0.8474  1.0021  0.1566
31217SOL    HW298782   2.056   8.438   1.459  0.0184 -0.1535 -1.4209
31218SOL     OW98783   3.915   7.661   9.372  0.7162 -0.5520 -0.2199
31218SOL    HW198784   3.948   7.716   9.443  1.7611 -1.8033  0.2765
31218SOL    HW298785   3.888   7.580   9.415 -0.6825 -0.5128 -0.9738
31219SOL     OW98786   7.236   0.533  10.611  0.2662  0.3365 -0.2788
31219SOL    HW198787   7.293   0.566  10.541  0.6757  1.2935  0.4994
31219SOL    HW298788   7.168   0.601  10.620 -0.1717 -0.1083 -0.2038
31220SOL     OW98789   4.674   3.273   7.480  0.5924  0.0125  0.7227
31220SOL    HW198790   4.743   3.261   7.414 -1.2875 -1.8601 -0.9854
31220SOL    HW298791   4.635   3.358   7.459 -0.0419 -0.6092 -0.6423
31221SOL     OW98792   3.750   6.525   6.283 -0.1772  0.2347 -0.0637
31221SOL    HW198793   3.722   6.495   6.369 -0.7124  0.5972 -0.1105
31221SOL    HW298794   3.698   6.474   6.221  0.6520 -0.4730 -0.1896
31222SOL     OW98795   4.349   2.404   5.657  0.0661  0.3072 -0.6033
31222SOL    HW198796   4.272   2.455   5.634 -1.2292 -1.7468 -1.0285
31222SOL    HW298797   4.362   2.345   5.583  1.3264 -0.1639 -0.0259
31223SOL     OW98798   0.127   8.556   2.734  0.4962  0.1750  0.2193
31223SOL    HW198799   0.184   8.591   2.665  1.7183 -0.6912  0.7734
31223SOL    HW298800   0.039   8.582   2.708  0.9975  0.2908 -1.4196
31224SOL     OW98801   2.353   8.736   1.193  0.5200  0.3628 -0.1847
31224SOL    HW198802   2.437   8.692   1.184 -1.4068 -2.8592 -3.8265
31224SOL    HW298803   2.305   8.684   1.258 -0.3217 -0.6381 -1.5807
31225SOL     OW98804   4.833   6.236   5.896  0.2958  0.4742  0.0719
31225SOL    HW198805   4.809   6.318   5.938  1.2068  0.2148  1.1319
31225SOL    HW298806   4.918   6.254   5.855 -0.5595  0.7120 -1.6501
31226SOL     OW98807  10.323   2.799   1.429 -0.2760  0.6583 -0.0908
31226SOL    HW198808  10.267   2.773   1.356 -0.6851  0.7443  0.1945
31226SOL    HW298809  10.338   2.718   1.478  0.9160  0.3745 -0.8911
31227SOL     OW98810   4.516   6.920   3.358  0.3337  0.2893  0.1869
31227SOL    HW198811   4.482   6.913   3.268  0.7437  2.7159 -0.1840
31227SOL    HW298812   4.568   6.841   3.370  0.3379 -0.0243 -1.7569
31228SOL     OW98813  11.116   8.474   9.428  0.2859  0.0925 -0.3359
31228SOL    HW198814  11.048   8.444   9.368  1.2360 -1.5049 -0.6568
31228SOL    HW298815  11.091   8.437   9.513  0.5707 -0.2212 -0.3872
31229SOL     OW98816  10.845   8.585  10.161 -0.1456 -0.0457 -0.0306
31229SOL    HW198817  10.807   8.517  10.106  0.6767  0.4579 -1.2727
31229SOL    HW298818  10.773   8.615  10.216 -1.1008 -0.2954 -1.1194
31230SOL     OW98819   6.302   0.849  11.274  0.1114 -0.4212 -0.4533
31230SOL    HW198820   6.331   0.936  11.301 -0.4773 -0.6876  1.1271
31230SOL    HW298821   6.218   0.864  11.231  0.3033 -0.1413 -0.7300
31231SOL     OW98822   3.039   3.692   4.468  0.3728 -0.0289 -0.8986
31231SOL    HW198823   3.092   3.760   4.509 -0.8930  0.2804  0.2709
31231SOL    HW298824   3.031   3.718   4.376 -1.1504  2.0769 -0.1963
31232SOL     OW98825   3.922   9.116   3.841 -0.3263 -0.5037 -0.2600
31232SOL    HW198826   3.971   9.133   3.921  1.1152  2.2248 -1.6307
31232SOL    HW298827   3.849   9.178   3.844  0.5082  0.5721 -1.6699
31233SOL     OW98828  10.039   4.128   2.655  0.0797  0.0964  0.2406
31233SOL    HW198829  10.011   4.144   2.745  0.2621 -1.4022  0.5835
31233SOL    HW298830   9.991   4.192   2.603 -1.5554 -0.3460  1.1827
31234SOL     OW98831   7.737   1.506  10.632  0.4057 -0.1173 -1.1722
31234SOL    HW198832   7.821   1.550  10.639  0.9844 -1.3512 -0.1858
31234SOL    HW298833   7.680   1.554  10.692  0.8679 -0.3333 -0.5553
31235SOL     OW98834   4.446   5.026   0.051 -0.4629  0.2895  0.3042
31235SOL    HW198835   4.369   4.969   0.058  0.0167 -0.4281 -0.1456
31235SOL    HW298836   4.415   5.112   0.079 -1.3661 -0.0493  0.3659
31236SOL     OW98837   7.986  10.427   8.362 -0.0532  0.9001  0.1474
31236SOL    HW198838   8.047  10.491   8.399 -0.8734  2.2843 -0.8653
31236SOL    HW298839   8.028  10.342   8.379  0.9859  1.6761  1.6026
31237SOL     OW98840   4.277   5.918   3.995 -1.1453  0.2273 -0.4060
31237SOL    HW198841   4.331   5.911   3.916 -1.2174 -1.1020 -0.3496
31237SOL    HW298842   4.318   5.988   4.046  0.5200 -0.7637 -0.3693
31238SOL     OW98843   7.306   2.524   6.929 -0.2169 -0.2161  0.4788
31238SOL    HW198844   7.394   2.545   6.960 -0.0632  0.6154 -0.4969
31238SOL    HW298845   7.320   2.475   6.848 -0.6725  0.8828 -0.2630
31239SOL     OW98846  10.877   6.578   1.515 -0.2079  0.6534 -0.5039
31239SOL    HW198847  10.796   6.529   1.528  0.1729 -0.3535 -1.7462
31239SOL    HW298848  10.922   6.573   1.599 -0.9176  0.2578 -0.1377
31240SOL     OW98849   1.882   3.927   4.277 -0.2267 -0.0080  0.1752
31240SOL    HW198850   1.795   3.888   4.282 -0.2848  0.1023  0.0212
31240SOL    HW298851   1.873   4.012   4.320 -0.3938  0.3516 -0.5652
31241SOL     OW98852   6.614   1.479   7.319 -0.2488 -0.1796 -0.3478
31241SOL    HW198853   6.699   1.520   7.301 -0.7530  1.0626  0.0440
31241SOL    HW298854   6.593   1.433   7.238  1.4567 -1.6872  0.0463
31242SOL     OW98855  10.616  10.491   4.053 -0.5388 -0.2257  0.3386
31242SOL    HW198856  10.648  10.557   4.114  2.5904  1.0779 -2.4769
31242SOL    HW298857  10.671  10.414   4.069  1.1282  0.5252 -1.5471
31243SOL     OW98858   0.793   1.847   5.162 -0.2422  0.0907  0.0806
31243SOL    HW198859   0.747   1.901   5.227  0.3217  0.8358 -0.1279
31243SOL    HW298860   0.740   1.855   5.083 -0.4804 -0.1407  0.2167
31244SOL     OW98861  10.005   5.633   5.227  0.3763  0.7838 -0.3387
31244SOL    HW198862   9.948   5.640   5.151  0.2047 -0.2157 -0.3028
31244SOL    HW298863  10.093   5.624   5.190  0.6748  3.3124 -0.3939
31245SOL     OW98864   6.010   4.187  10.545  0.4548  0.2622  0.2807
31245SOL    HW198865   6.041   4.219  10.460  0.4046  2.5168  1.0707
31245SOL    HW298866   6.020   4.092  10.540  1.5528  0.4542 -1.8142
31246SOL     OW98867   3.093   4.777   1.254 -0.3517 -0.0320 -0.1145
31246SOL    HW198868   3.036   4.722   1.308 -2.0203  0.4330 -1.3719
31246SOL    HW298869   3.125   4.845   1.315 -1.3374 -0.1475  0.5496
31247SOL     OW98870   9.230   9.519   8.195  0.1489 -0.1118  0.0618
31247SOL    HW198871   9.177   9.538   8.118 -0.1895  0.4089  0.4233
31247SOL    HW298872   9.203   9.584   8.260  0.1798 -0.7705  0.7384
31248SOL     OW98873   1.841  11.304   5.390  0.4011  0.4678  0.3197
31248SOL    HW198874   1.751  11.271   5.387  0.4412  0.4416 -0.6081
31248SOL    HW298875   1.880  11.261   5.467  0.0609 -0.6555 -0.1331
31249SOL     OW98876   0.972   8.822   1.962 -0.0709 -0.0820  0.3423
31249SOL    HW198877   1.051   8.770   1.952 -0.3245 -0.2849 -0.6131
31249SOL    HW298878   0.915   8.796   1.890 -0.3779  1.1904  0.0989
31250SOL     OW98879   2.362   7.445   4.902 -0.3177 -0.4256  0.0322
31250SOL    HW198880   2.351   7.370   4.961 -0.2216  0.5273  1.2681
31250SOL    HW298881   2.295   7.508   4.929  0.6256  0.5895  0.0413
31251SOL     OW98882   1.446   5.804   7.618 -0.1260 -0.0144  0.3221
31251SOL    HW198883   1.522   5.750   7.598 -0.8450 -0.0277 -2.5370
31251SOL    HW298884   1.477   5.894   7.606 -0.3788  0.0058 -0.1769
31252SOL     OW98885   4.270  10.355   1.904  0.1303 -0.1120  0.5026
31252SOL    HW198886   4.305  10.397   1.826 -0.8373  1.0615  0.6868
31252SOL    HW298887   4.266  10.424   1.970 -1.4558 -0.4642  0.8170
31253SOL     OW98888   7.974   4.322   7.280  1.1567  0.5656 -0.4784
31253SOL    HW198889   8.037   4.360   7.341  0.3169 -0.5032  1.0828
31253SOL    HW298890   7.888   4.352   7.311  0.5438 -1.7818  0.2450
31254SOL     OW98891   9.678   8.330  10.373  0.0303  0.3197  0.1229
31254SOL    HW198892   9.589   8.305  10.397 -0.1207  1.0014  0.2848
31254SOL    HW298893   9.683   8.424  10.394  0.8711  0.2201  0.3844
31255SOL     OW98894  11.304   3.430   6.543  0.2685 -0.0338  0.4488
31255SOL    HW198895  11.292   3.524   6.558  0.4270 -0.0519  0.6946
31255SOL    HW298896  11.215   3.394   6.548  0.1024  0.2310 -0.5649
31256SOL     OW98897   2.741   0.710  10.748  0.1834  0.0655  0.1006
31256SOL    HW198898   2.827   0.674  10.726  0.3302  0.8393 -0.5977
31256SOL    HW298899   2.693   0.636  10.784  0.6132 -0.7549 -0.9823
31257SOL     OW98900   9.831   9.216   1.508 -0.5488  0.0258 -0.2538
31257SOL    HW198901   9.737   9.236   1.505 -0.7203 -0.3303  1.7666
31257SOL    HW298902   9.850   9.175   1.424 -1.8487  1.6316 -1.3472
31258SOL     OW98903   5.888   0.157   9.404 -0.1181 -0.0824  0.0070
31258SOL    HW198904   5.831   0.134   9.478  2.0285  0.1992  1.7971
31258SOL    HW298905   5.879   0.252   9.397 -1.2660 -0.2550 -0.8927
31259SOL     OW98906   0.486   8.002   5.515 -0.4822  0.0310  0.0803
31259SOL    HW198907   0.515   8.069   5.576 -0.4730  0.6120 -0.5613
31259SOL    HW298908   0.396   8.026   5.493 -1.0790 -1.1180  1.1641
31260SOL     OW98909   5.468   4.003   0.840  0.6344  0.3683 -0.1382
31260SOL    HW198910   5.382   4.010   0.883  0.1133  3.1709 -1.4941
31260SOL    HW298911   5.506   4.090   0.850  2.0810 -0.0235 -2.1032
31261SOL     OW98912   7.146   8.092   7.748 -0.1625  0.2121 -0.4158
31261SOL    HW198913   7.239   8.085   7.725 -0.2708  1.0377 -1.1084
31261SOL    HW298914   7.140   8.170   7.803 -0.2747 -0.4780  0.5772
31262SOL     OW98915   0.168   4.335   2.694  0.3399 -0.2107  0.4827
31262SOL    HW198916   0.251   4.362   2.654  0.1818 -1.5084 -0.7594
31262SOL    HW298917   0.104   4.399   2.663 -0.0336 -1.9122 -2.4276
31263SOL     OW98918   2.726   6.089   2.161 -0.0717  0.3536  0.0615
31263SOL    HW198919   2.812   6.069   2.197  0.2277  0.4303 -0.6027
31263SOL    HW298920   2.702   6.010   2.112 -0.2898  0.4071  0.0831
31264SOL     OW98921   8.918   8.677   0.395  0.3985 -0.1289 -0.4217
31264SOL    HW198922   8.937   8.592   0.433  0.0164 -0.2308 -0.4602
31264SOL    HW298923   8.904   8.734   0.470  1.8079  0.1751 -0.3668
31265SOL     OW98924   4.086   7.134   9.857  0.6635  0.5880  0.5932
31265SOL    HW198925   4.157   7.083   9.818  0.5578 -0.7390  2.0936
31265SOL    HW298926   4.130   7.200   9.911  0.8224  2.7076 -2.0083
31266SOL     OW98927   4.890  10.660   9.462 -0.0150 -0.1433  0.0956
31266SOL    HW198928   4.949  10.686   9.533 -1.8691 -0.1511  1.6995
31266SOL    HW298929   4.905  10.725   9.394  0.6407  0.8448  1.1521
31267SOL     OW98930   0.270   0.356   5.619  0.3982  0.6932 -0.1641
31267SOL    HW198931   0.233   0.308   5.694 -1.5873  1.4591 -0.6173
31267SOL    HW298932   0.208   0.427   5.603 -0.2017 -0.4934 -3.6416
31268SOL     OW98933   9.333   3.272   2.844  0.7571  0.0942 -0.0749
31268SOL    HW198934   9.294   3.207   2.786 -0.2297 -1.6642  2.5159
31268SOL    HW298935   9.423   3.242   2.858  1.0641  0.6357 -0.8279
31269SOL     OW98936   1.927   3.625   8.326  0.3956 -0.1888 -0.3497
31269SOL    HW198937   1.958   3.591   8.410  1.1681 -0.2862 -0.6672
31269SOL    HW298938   1.846   3.671   8.347  1.1819  0.7741  0.6373
31270SOL     OW98939   5.074   0.704   3.091 -0.3868  0.3822 -0.0123
31270SOL    HW198940   5.120   0.787   3.083  0.7330 -0.1123  1.2177
31270SOL    HW298941   5.143   0.638   3.099 -1.2716 -0.6039 -0.3623
31271SOL     OW98942   0.870   7.801   0.747  0.0074 -0.3023 -0.2466
31271SOL    HW198943   0.797   7.837   0.697 -0.7345 -0.1858  0.8980
31271SOL    HW298944   0.887   7.716   0.705 -0.7942 -0.3418 -0.5178
31272SOL     OW98945   9.393   8.717   6.035 -0.7172 -0.0240 -0.1129
31272SOL    HW198946   9.482   8.713   6.069 -0.9784 -0.1609  0.5646
31272SOL    HW298947   9.388   8.644   5.973 -0.8993 -1.1708  1.1953
31273SOL     OW98948  10.260   1.416   3.767  0.5887 -0.4693  1.1532
31273SOL    HW198949  10.264   1.326   3.736 -0.5844  0.2503 -1.1494
31273SOL    HW298950  10.338   1.458   3.732  0.0363 -0.0485  0.4038
31274SOL     OW98951   0.473   2.846   3.251  0.1241  0.1160 -0.3264
31274SOL    HW198952   0.497   2.903   3.324  0.9854  0.1463 -0.6265
31274SOL    HW298953   0.415   2.781   3.289  1.5627 -0.6169  0.6662
31275SOL     OW98954   8.575   4.541   3.223 -0.3896  0.0384  0.6186
31275SOL    HW198955   8.668   4.526   3.205 -0.1160 -0.2344  2.1382
31275SOL    HW298956   8.529   4.502   3.149  0.7377  1.0195 -0.6265
31276SOL     OW98957   6.708   0.804   1.245 -0.1267  0.4039 -0.4360
31276SOL    HW198958   6.637   0.767   1.296  1.4929 -1.3302  0.6232
31276SOL    HW298959   6.745   0.873   1.301  0.1687  0.0821 -0.2342
31277SOL     OW98960   5.873  11.199   8.299 -0.0466  0.3244 -0.0341
31277SOL    HW198961   5.851  11.288   8.273 -0.2670  0.6358  1.1729
31277SOL    HW298962   5.808  11.144   8.254 -0.7711  0.8924  0.3055
31278SOL     OW98963   7.174   2.257   1.633 -0.4365  0.0392 -0.0644
31278SOL    HW198964   7.140   2.222   1.716 -0.7724 -0.4594 -0.4117
31278SOL    HW298965   7.263   2.221   1.628 -0.0378  0.9142  0.5846
31279SOL     OW98966   6.850   3.098   4.256  0.2099 -0.5631 -0.6728
31279SOL    HW198967   6.813   3.177   4.217 -0.0011 -0.1374  0.3601
31279SOL    HW298968   6.878   3.044   4.182 -0.2788  0.1793 -1.3947
31280SOL     OW98969   8.064   3.485   0.645 -0.2755  0.0545 -0.1491
31280SOL    HW198970   8.151   3.484   0.685 -1.1060 -0.0375  1.7147
31280SOL    HW298971   8.030   3.573   0.662 -1.3058 -0.5181  0.8878
31281SOL     OW98972   9.732   4.254   6.067  0.3575  0.1677  0.2599
31281SOL    HW198973   9.661   4.316   6.086 -0.1925  0.7777 -3.4743
31281SOL    HW298974   9.688   4.179   6.028  1.5081 -0.7547  0.7061
31282SOL     OW98975   4.073   4.136   6.226 -0.1230 -0.3060  0.6037
31282SOL    HW198976   4.113   4.150   6.140  0.7202 -0.3814  0.9803
31282SOL    HW298977   4.077   4.041   6.239 -3.7825 -0.7744 -0.9603
31283SOL     OW98978   6.337   0.564   7.456  0.4373  0.0630 -0.7941
31283SOL    HW198979   6.429   0.538   7.467 -0.0023 -0.3031  2.4831
31283SOL    HW298980   6.300   0.496   7.401  1.2385 -1.9520  1.0743
31284SOL     OW98981   4.046   0.625   4.483 -0.4876  0.6050 -0.6608
31284SOL    HW198982   4.138   0.622   4.457 -0.5702 -0.7034 -0.8253
31284SOL    HW298983   4.004   0.682   4.419 -0.0909 -0.0832 -1.5277
31285SOL     OW98984   9.671   2.513   2.157 -0.1282  0.4624 -0.3531
31285SOL    HW198985   9.608   2.584   2.144  0.4741  1.1376  0.4338
31285SOL    HW298986   9.737   2.526   2.089 -0.0812  0.5890 -0.2824
31286SOL     OW98987   7.593   8.519   4.813  0.6543  0.0439 -0.4718
31286SOL    HW198988   7.616   8.520   4.720  0.9181 -0.6921 -0.4246
31286SOL    HW298989   7.499   8.536   4.815  0.9796  1.9089 -0.7491
31287SOL     OW98990   9.895   4.543   3.851  0.0789  0.5351 -0.0004
31287SOL    HW198991   9.934   4.544   3.764 -2.2584 -0.6580 -1.1182
31287SOL    HW298992   9.926   4.463   3.891  0.4965  0.6640 -0.0713
31288SOL     OW98993   9.817   6.350   1.636 -0.5192 -0.0706 -0.2031
31288SOL    HW198994   9.883   6.322   1.700 -0.9879 -1.8988 -0.4802
31288SOL    HW298995   9.734   6.317   1.672 -0.4992 -3.3826 -2.9436
31289SOL     OW98996  10.609   7.715  10.334 -0.2567  0.3975 -0.2896
31289SOL    HW198997  10.618   7.620  10.333  1.7330  0.4450  3.5424
31289SOL    HW298998  10.582   7.738  10.245 -2.7727 -3.8866 -0.7423
31290SOL     OW98999   5.127  10.262   2.356 -0.1702 -0.5399 -0.2731
31290SOL    HW199000   5.162  10.173   2.358 -0.2092 -0.5980 -1.7480
31290SOL    HW299001   5.159  10.303   2.437  0.2193 -1.7514  0.1852
31291SOL     OW99002   0.997   4.834   9.749 -0.3745  0.2017 -0.0115
31291SOL    HW199003   0.943   4.758   9.773  1.6210 -0.9954  0.7929
31291SOL    HW299004   1.036   4.809   9.665 -0.4134  0.7198 -0.1829
31292SOL     OW99005   9.896   8.172   8.183  0.2819  0.4442 -0.1194
31292SOL    HW199006   9.988   8.159   8.204  0.5340  2.4453  0.0359
31292SOL    HW299007   9.864   8.233   8.250 -0.6356  1.4042 -1.4198
31293SOL     OW99008   5.390  10.571   5.627 -0.0668  0.4909 -0.3039
31293SOL    HW199009   5.376  10.577   5.721  1.4409 -2.4413  0.1945
31293SOL    HW299010   5.310  10.606   5.588 -2.8441 -2.7140  2.1707
31294SOL     OW99011   5.080  10.344   4.110  0.1553  0.4992  0.1989
31294SOL    HW199012   5.093  10.288   4.034 -3.0182  0.8354 -0.6420
31294SOL    HW299013   5.076  10.432   4.074  1.8895  0.9940  1.1608
31295SOL     OW99014   2.595   0.227  10.854  0.3246  0.4639 -0.5217
31295SOL    HW199015   2.654   0.297  10.827  1.2674 -0.1945 -0.2392
31295SOL    HW299016   2.653   0.152  10.869 -0.2699  0.4809  2.1998
31296SOL     OW99017   6.471   4.504   6.676 -0.2139 -0.0402 -0.0399
31296SOL    HW199018   6.474   4.579   6.617 -0.4376  0.9655  1.2035
31296SOL    HW299019   6.535   4.524   6.744  0.0646 -1.1972  0.0519
31297SOL     OW99020   3.367   7.722   0.792  0.4552 -0.1763  0.1546
31297SOL    HW199021   3.429   7.703   0.863 -0.0700  0.7845  0.8989
31297SOL    HW299022   3.391   7.810   0.763  1.1665 -0.8851 -1.4064
31298SOL     OW99023   2.307   5.524   4.435 -0.0633 -0.2438  0.0163
31298SOL    HW199024   2.303   5.595   4.499 -1.2200  0.2052 -0.5249
31298SOL    HW299025   2.216   5.512   4.407  0.3525 -0.7849 -1.1467
31299SOL     OW99026   2.162   1.004   4.906 -0.3761 -0.7706  0.0770
31299SOL    HW199027   2.149   1.054   4.826  0.7449  0.5602  0.7010
31299SOL    HW299028   2.087   1.027   4.961 -0.4514 -0.6386 -0.0810
31300SOL     OW99029   0.539   1.502   5.275 -0.1976  0.0282 -0.2599
31300SOL    HW199030   0.556   1.546   5.191  0.0107  1.3679  0.4738
31300SOL    HW299031   0.624   1.465   5.300 -0.2800 -0.4475 -0.6915
31301SOL     OW99032   5.924   5.553  11.231  1.0565 -0.2073 -1.0523
31301SOL    HW199033   5.913   5.631  11.176 -1.4134  0.7071  0.6430
31301SOL    HW299034   6.001   5.571  11.284  0.9978  0.7029 -1.2731
31302SOL     OW99035   0.403  10.872   6.302  0.2634 -0.1517  0.4686
31302SOL    HW199036   0.390  10.966   6.285  1.3578  0.2470  1.6774
31302SOL    HW299037   0.404  10.866   6.398 -2.8176 -1.8706  0.4381
31303SOL     OW99038   6.332   4.418   3.258 -0.4910 -0.1566  0.3030
31303SOL    HW199039   6.314   4.350   3.323 -1.3139 -0.0253  0.2268
31303SOL    HW299040   6.348   4.497   3.309  1.0365 -0.5266  0.4103
31304SOL     OW99041   2.535  10.130   3.433 -0.4518  0.3157  0.4720
31304SOL    HW199042   2.499  10.050   3.395 -0.4364  0.5662 -0.0642
31304SOL    HW299043   2.472  10.199   3.410  0.3803  0.7681 -0.5169
31305SOL     OW99044   4.309  10.879   1.929  0.1135 -0.2278  0.1767
31305SOL    HW199045   4.333  10.972   1.918 -0.8819 -0.1024 -1.1618
31305SOL    HW299046   4.337  10.857   2.017 -1.0732  1.8090  1.1026
31306SOL     OW99047   2.643   5.887   6.974 -0.2614 -0.0557  0.2002
31306SOL    HW199048   2.651   5.975   7.010 -2.4806  0.7924 -1.2811
31306SOL    HW299049   2.633   5.901   6.879  0.0503 -1.9308 -0.1262
31307SOL     OW99050   7.982   2.067   4.452  0.0298  0.2033  0.5475
31307SOL    HW199051   7.919   2.127   4.414 -0.0500  0.8044  1.5997
31307SOL    HW299052   7.933   1.986   4.466 -0.9570  1.1257  2.7505
31308SOL     OW99053  10.474   7.334   4.623  0.5114 -0.0077  0.4745
31308SOL    HW199054  10.432   7.269   4.679 -2.0502  1.0470 -0.1333
31308SOL    HW299055  10.423   7.414   4.637  0.1402  0.4181 -2.9042
31309SOL     OW99056   6.333   3.889   7.477  0.3853  0.6724 -0.3569
31309SOL    HW199057   6.260   3.931   7.431 -0.1244 -1.5700 -1.6738
31309SOL    HW299058   6.393   3.863   7.407  0.1300 -1.8059  0.3116
31310SOL     OW99059  10.263   2.581   5.798 -0.3974 -0.1897 -0.1485
31310SOL    HW199060  10.240   2.510   5.857 -1.0954 -0.2366 -0.4586
31310SOL    HW299061  10.271   2.658   5.854 -0.4611 -0.3527  0.0832
31311SOL     OW99062   8.151   0.739   6.690 -0.1753 -0.2010  0.1796
31311SOL    HW199063   8.093   0.717   6.617 -0.0658  1.2161 -0.3684
31311SOL    HW299064   8.207   0.808   6.655 -0.9440  1.3835  1.9660
31312SOL     OW99065   5.124   0.930   3.361  0.1433  0.0695 -0.2118
31312SOL    HW199066   5.143   0.891   3.446 -1.4232  0.0392  0.1393
31312SOL    HW299067   5.095   1.019   3.381  1.1039  0.5185 -0.8156
31313SOL     OW99068   6.371   3.272   0.124 -0.1501  0.0808 -0.2431
31313SOL    HW199069   6.368   3.178   0.140  2.9804 -0.1110 -0.4634
31313SOL    HW299070   6.321   3.284   0.043  0.3877 -1.5733 -0.8467
31314SOL     OW99071   2.742   5.608   1.217  0.1185  0.5728 -0.2404
31314SOL    HW199072   2.772   5.672   1.282 -1.2927  1.4827 -0.4823
31314SOL    HW299073   2.822   5.561   1.193  1.0396  1.7059  0.5185
31315SOL     OW99074   0.489   4.558  10.512  0.1554 -0.6378  0.0150
31315SOL    HW199075   0.406   4.585  10.472  1.7852  0.9811 -2.4163
31315SOL    HW299076   0.504   4.622  10.582 -0.7709 -1.1112  0.6547
31316SOL     OW99077   2.821   6.731   4.028 -0.2630  0.2760  0.0256
31316SOL    HW199078   2.775   6.794   4.084 -0.1152  0.5009 -0.1068
31316SOL    HW299079   2.864   6.785   3.962  0.7425  0.1195  0.5399
31317SOL     OW99080   5.884   5.992   8.681  0.1617  0.1628  0.1207
31317SOL    HW199081   5.966   6.039   8.665  0.8635 -0.9552  0.3265
31317SOL    HW299082   5.911   5.915   8.732 -0.5948 -1.6852 -2.1664
31318SOL     OW99083   0.721   4.087  10.914  0.1537 -0.1309 -0.1544
31318SOL    HW199084   0.682   4.004  10.885  1.0876 -0.2786 -0.9939
31318SOL    HW299085   0.809   4.063  10.941 -0.0041  0.3769  0.8233
31319SOL     OW99086   6.209  11.139   5.047 -0.5431 -0.0660 -0.0577
31319SOL    HW199087   6.253  11.109   4.967  1.2048  0.8970  0.5104
31319SOL    HW299088   6.228  11.071   5.112  2.4858  1.6027  0.9271
31320SOL     OW99089   4.995   5.460   4.806 -0.1315 -0.1453 -0.7154
31320SOL    HW199090   4.950   5.499   4.881 -1.4698  0.1257 -1.6606
31320SOL    HW299091   4.988   5.525   4.737  0.2025 -0.8254 -1.3910
31321SOL     OW99092   7.393   2.831   2.089 -0.4548 -0.5545  0.2057
31321SOL    HW199093   7.393   2.795   2.000 -0.8591 -1.3712  0.5280
31321SOL    HW299094   7.396   2.925   2.077  4.3521 -0.6854 -0.6576
31322SOL     OW99095   2.050   9.506   9.469  0.4728 -0.3619  0.1393
31322SOL    HW199096   2.043   9.540   9.380  0.3816  1.1399  0.7110
31322SOL    HW299097   2.116   9.561   9.511 -0.1081 -0.5042  1.2582
31323SOL     OW99098   8.101   8.138   6.764 -0.6928  0.2118 -0.0172
31323SOL    HW199099   8.084   8.210   6.703  0.3839  0.1907 -0.3439
31323SOL    HW299100   8.187   8.158   6.801 -0.8654 -0.3410  0.6968
31324SOL     OW99101   5.307   3.413   4.752 -0.0789 -0.4065 -0.5139
31324SOL    HW199102   5.285   3.350   4.682  1.8494  0.2726 -1.7713
31324SOL    HW299103   5.224   3.427   4.798 -0.9687 -2.3633 -1.4454
31325SOL     OW99104   4.012   9.107   0.691 -0.2293 -0.9426 -0.1561
31325SOL    HW199105   4.064   9.145   0.619 -1.2336  0.7114 -0.0356
31325SOL    HW299106   3.922   9.110   0.659 -0.5834 -0.9910  0.8306
31326SOL     OW99107   2.322  11.089  11.269  0.4787 -0.0014 -0.0481
31326SOL    HW199108   2.291  11.058  11.184  1.1161  0.9524 -0.6292
31326SOL    HW299109   2.418  11.079  11.265  0.3346 -2.7375  1.6476
31327SOL     OW99110   2.948   6.874   3.867 -0.0767  0.1514 -0.5883
31327SOL    HW199111   2.954   6.859   3.772 -0.8149  1.0725 -0.7885
31327SOL    HW299112   3.038   6.897   3.893  0.0024  0.5073 -1.1689
31328SOL     OW99113   3.278  10.287   9.996  0.0288 -0.2854  0.1134
31328SOL    HW199114   3.279  10.377  10.031  1.7688 -0.1424 -0.2785
31328SOL    HW299115   3.266  10.298   9.902 -0.8720 -0.5184  0.1972
31329SOL     OW99116   6.274   6.377   5.058 -0.4872  0.1183  0.4019
31329SOL    HW199117   6.215   6.311   5.096  0.5191 -1.2773 -0.4233
31329SOL    HW299118   6.361   6.338   5.064  0.1253  1.4022 -0.0426
31330SOL     OW99119   8.804   6.404   0.914  0.3471  0.6506 -0.2589
31330SOL    HW199120   8.807   6.428   0.822 -1.3674  0.7777 -0.2897
31330SOL    HW299121   8.727   6.450   0.949  1.4486  1.2827  1.4251
31331SOL     OW99122   9.288   3.257   1.114 -0.0422 -0.5511 -0.1090
31331SOL    HW199123   9.259   3.267   1.205  0.9849 -3.9019  0.6546
31331SOL    HW299124   9.215   3.211   1.072 -0.6098  1.1937 -1.0817
31332SOL     OW99125   7.496   1.960   9.432 -0.3644 -0.2126 -0.2049
31332SOL    HW199126   7.412   1.938   9.472  0.3015 -2.0441  0.2575
31332SOL    HW299127   7.473   1.997   9.347 -1.6384 -0.6256 -0.0598
31333SOL     OW99128   0.477   6.371   2.815  0.3844  0.2156  0.3015
31333SOL    HW199129   0.481   6.390   2.909  0.7002 -1.0868  0.5628
31333SOL    HW299130   0.496   6.455   2.773  3.1272  0.2137  1.4223
31334SOL     OW99131   4.244   3.539   3.782 -0.5249 -0.2892  0.1853
31334SOL    HW199132   4.272   3.448   3.772  0.1088 -0.0188 -0.5107
31334SOL    HW299133   4.157   3.542   3.742 -0.3175 -0.4626 -0.2781
31335SOL     OW99134   3.394   3.833   9.771 -0.1512 -0.1197  0.0236
31335SOL    HW199135   3.382   3.754   9.719  3.2077 -1.0048  0.4508
31335SOL    HW299136   3.458   3.885   9.721 -0.5286  1.2236  0.9099
31336SOL     OW99137   9.162   5.061   1.437 -0.2648 -0.5989  0.2616
31336SOL    HW199138   9.070   5.047   1.414 -0.9328  1.1323  1.7338
31336SOL    HW299139   9.163   5.054   1.533  0.8487  0.9102  0.3734
31337SOL     OW99140   9.784   6.897   4.776 -0.0865 -0.3135 -0.2652
31337SOL    HW199141   9.872   6.883   4.810  0.4618  0.6291 -1.2938
31337SOL    HW299142   9.746   6.809   4.771  0.7567 -0.7119  0.2457
31338SOL     OW99143   8.328  10.051   1.623  0.0447 -0.1333  0.0440
31338SOL    HW199144   8.238  10.048   1.655  0.1163  0.0841  0.2708
31338SOL    HW299145   8.323  10.104   1.543  0.4537  2.4394  1.6779
31339SOL     OW99146   2.290   4.502   1.458  0.5009  0.5119 -0.2587
31339SOL    HW199147   2.358   4.437   1.479  0.6019  0.7185  0.0462
31339SOL    HW299148   2.217   4.450   1.424  0.6117  0.2448 -0.0880
31340SOL     OW99149   7.675   0.515   1.021  0.4513 -0.1123  0.0041
31340SOL    HW199150   7.621   0.489   1.095 -1.8154 -0.8509 -1.8409
31340SOL    HW299151   7.657   0.609   1.010 -0.7502 -0.4137 -0.7799
31341SOL     OW99152   3.699   5.078   1.934  0.7527  0.6325  0.1134
31341SOL    HW199153   3.625   5.125   1.973  0.5057  1.5972 -1.4701
31341SOL    HW299154   3.701   4.993   1.979  0.3272  1.6065  2.0128
31342SOL     OW99155   0.580   1.964   4.604  0.5723  0.2370  0.5234
31342SOL    HW199156   0.672   1.984   4.586  0.4735  0.4648  0.2745
31342SOL    HW299157   0.559   1.890   4.547  0.6934 -0.0230  0.8166
31343SOL     OW99158   6.679   7.646   2.091  0.1187 -0.5750  0.1859
31343SOL    HW199159   6.709   7.662   2.181  0.7481  3.0039 -0.6028
31343SOL    HW299160   6.585   7.663   2.094  0.7094  3.0641 -0.5474
31344SOL     OW99161   9.333   9.997   0.150  0.1471 -0.4734 -0.5551
31344SOL    HW199162   9.341   9.927   0.086 -0.8302 -1.3251  0.2447
31344SOL    HW299163   9.240   9.998   0.174  0.5370 -0.3437  1.0369
31345SOL     OW99164   6.513   1.198   2.031  0.1838  0.6676  0.0839
31345SOL    HW199165   6.595   1.150   2.042 -0.5915 -0.7232 -0.1244
31345SOL    HW299166   6.531   1.261   1.961  0.6754 -0.5016 -0.8452
31346SOL     OW99167   7.194   4.625   6.251 -0.1373  0.3428 -0.3542
31346SOL    HW199168   7.267   4.684   6.229 -1.5908  1.8836 -1.1430
31346SOL    HW299169   7.117   4.669   6.217 -1.0330 -3.2865 -3.4344
31347SOL     OW99170   9.674   5.768   7.468  0.0172 -0.2284 -0.1751
31347SOL    HW199171   9.643   5.687   7.508  0.2965 -0.5587 -0.6257
31347SOL    HW299172   9.765   5.751   7.447 -0.6560 -0.8052 -2.8538
31348SOL     OW99173   7.777   8.013   6.271  0.2647  0.4073  0.4972
31348SOL    HW199174   7.715   7.973   6.333 -1.0883  0.7710 -0.5975
31348SOL    HW299175   7.728   8.020   6.189  2.2096 -0.5903 -0.7919
31349SOL     OW99176   2.819   4.782   2.243  0.2107 -0.0015  0.0248
31349SOL    HW199177   2.749   4.807   2.183 -1.0906 -1.3850  0.9366
31349SOL    HW299178   2.889   4.845   2.225 -2.0671  2.8078  0.6484
31350SOL     OW99179   5.415  10.925   8.447  0.5538 -0.3013  0.1507
31350SOL    HW199180   5.474  11.001   8.457  0.7042 -0.6383  2.0469
31350SOL    HW299181   5.471  10.857   8.410  0.9278 -0.0795  0.2985
31351SOL     OW99182   1.804   6.451  10.635 -0.1170  0.0818 -0.2311
31351SOL    HW199183   1.820   6.546  10.636 -0.0569  0.0783  1.6464
31351SOL    HW299184   1.889   6.413  10.656 -0.5481 -0.3073  0.8243
31352SOL     OW99185   0.567   8.439   0.860 -0.3478  0.6878  0.1468
31352SOL    HW199186   0.632   8.497   0.820  0.1849  0.3507  0.5147
31352SOL    HW299187   0.611   8.354   0.864 -1.8772 -0.2982 -2.4289
31353SOL     OW99188   8.837   7.224   6.456 -0.0349  0.8223  0.2228
31353SOL    HW199189   8.774   7.290   6.426  0.4734  1.5943  0.8548
31353SOL    HW299190   8.923   7.260   6.433  0.2129  0.0048 -0.1681
31354SOL     OW99191  10.162   7.256   8.052 -0.1507  0.1438 -0.1575
31354SOL    HW199192  10.147   7.350   8.057  1.1365  0.4299 -1.3854
31354SOL    HW299193  10.135   7.231   7.964 -1.6207 -0.8590  0.5616
31355SOL     OW99194   9.089   2.496   3.855  0.1117  0.1836  0.2647
31355SOL    HW199195   9.090   2.401   3.867  2.2770  0.2214  0.4535
31355SOL    HW299196   9.061   2.509   3.764  0.5749 -0.6593  0.0036
31356SOL     OW99197   6.054   4.100   7.733  0.7821 -0.0712  0.1812
31356SOL    HW199198   6.000   4.023   7.750  1.0782 -0.1290  0.8785
31356SOL    HW299199   6.141   4.066   7.716  0.5012 -0.0050 -1.4293
31357SOL     OW99200   5.074   3.889   4.446 -0.2544 -0.1227 -0.1564
31357SOL    HW199201   5.011   3.942   4.397  0.6658  0.9745 -0.1827
31357SOL    HW299202   5.158   3.934   4.434 -0.1024  0.5232  2.9136
31358SOL     OW99203  11.273  11.320   3.903  0.0533 -0.1065 -0.0150
31358SOL    HW199204  11.288  11.352   3.993 -0.5449  0.7069 -0.2061
31358SOL    HW299205  11.289  11.396   3.848 -1.1596 -0.1905 -0.4898
31359SOL     OW99206   9.417   4.058   1.435 -0.4777  0.4955 -0.2700
31359SOL    HW199207   9.381   4.079   1.521 -0.0163  0.9902 -0.1936
31359SOL    HW299208   9.473   4.133   1.413  1.1778 -0.6302 -0.0057
31360SOL     OW99209   0.023   8.474   6.529  0.3788  0.1253  0.1004
31360SOL    HW199210  -0.013   8.392   6.494  0.3070  0.3324 -0.3053
31360SOL    HW299211   0.045   8.526   6.452  2.9578 -0.5986  0.3085
31361SOL     OW99212   9.917   2.020   3.274  0.0985  0.1908 -0.8047
31361SOL    HW199213  10.012   2.029   3.264 -0.0117  0.4874 -1.5867
31361SOL    HW299214   9.883   2.018   3.185 -0.4510 -1.9563 -0.5606
31362SOL     OW99215  10.293   6.438   1.105  0.4863 -0.4870  0.2038
31362SOL    HW199216  10.250   6.483   1.033  1.9094 -0.4948 -0.6753
31362SOL    HW299217  10.267   6.347   1.096  1.4590 -0.6657 -0.9174
31363SOL     OW99218   2.673   3.497   1.540 -0.0914 -0.0174 -0.0118
31363SOL    HW199219   2.719   3.567   1.587 -0.5500 -0.5888  1.3362
31363SOL    HW299220   2.595   3.539   1.504  0.4259  0.4997 -0.5321
31364SOL     OW99221   3.460   3.553   6.048  0.0745  0.5501  0.4505
31364SOL    HW199222   3.414   3.560   5.965  0.4672  0.1842  0.2017
31364SOL    HW299223   3.488   3.642   6.068 -0.6783  0.7657  0.5702
31365SOL     OW99224  10.782   8.451   2.847 -0.4327 -0.0575  0.1107
31365SOL    HW199225  10.739   8.457   2.932  2.4875 -0.6624  1.6770
31365SOL    HW299226  10.806   8.542   2.826  0.4104 -0.1222  0.7770
31366SOL     OW99227   2.529   9.437   2.440  0.2581 -0.3250 -0.0122
31366SOL    HW199228   2.592   9.422   2.511 -1.4689 -1.5629  1.3068
31366SOL    HW299229   2.560   9.516   2.396  1.4807  0.3419  2.0083
31367SOL     OW99230   7.585   5.052   8.635  0.3401 -0.0753  0.1340
31367SOL    HW199231   7.668   5.090   8.605 -0.4649  1.1435 -0.6469
31367SOL    HW299232   7.609   4.967   8.672  1.9599  0.3571  0.1334
31368SOL     OW99233   4.881   1.834  10.359  0.8933 -0.3026 -0.3981
31368SOL    HW199234   4.803   1.832  10.303  0.6285  1.0958 -0.1183
31368SOL    HW299235   4.845   1.831  10.448  1.2603 -1.4275 -0.2797
31369SOL     OW99236   1.281   7.598   0.620  0.3513  0.0045  0.0556
31369SOL    HW199237   1.327   7.547   0.553  1.8696 -0.3247  1.3079
31369SOL    HW299238   1.345   7.663   0.648  0.2729 -0.8342  2.2549
31370SOL     OW99239   6.731   1.025   7.916 -0.3296  0.2811 -0.3468
31370SOL    HW199240   6.663   1.040   7.983 -0.4143 -4.6895  0.8677
31370SOL    HW299241   6.760   1.113   7.892 -3.4253  2.3890  3.0146
31371SOL     OW99242  11.169   1.521   0.119 -0.0337  0.8120 -0.0545
31371SOL    HW199243  11.257   1.495   0.146 -0.9319 -1.4643  0.8083
31371SOL    HW299244  11.118   1.519   0.200 -1.3450  0.0211 -0.8892
31372SOL     OW99245   6.959   8.003  10.097 -0.0342  0.0567 -0.4460
31372SOL    HW199246   6.913   8.071  10.147 -0.0104  0.1731 -0.5820
31372SOL    HW299247   6.944   7.923  10.147  1.2599  0.4324  0.5783
31373SOL     OW99248  10.495   9.142   5.767  0.4263 -0.1553  0.1509
31373SOL    HW199249  10.567   9.155   5.829  1.2964  0.4787 -0.9723
31373SOL    HW299250  10.531   9.081   5.701  0.3647  1.1041 -1.0718
31374SOL     OW99251   2.271   5.627   1.934 -0.3650  0.0839  0.1075
31374SOL    HW199252   2.318   5.568   1.875  1.2068  1.5919 -0.1946
31374SOL    HW299253   2.214   5.678   1.876  0.1477  0.6062  0.0637
31375SOL     OW99254   7.307   0.925   3.466  0.2817  0.0932 -0.6410
31375SOL    HW199255   7.298   1.002   3.411 -1.1394  0.6639  0.3542
31375SOL    HW299256   7.217   0.903   3.491  0.8791 -0.2861  1.2457
31376SOL     OW99257   0.043   2.145   5.843 -0.1348  0.1466 -0.1507
31376SOL    HW199258   0.088   2.220   5.804 -1.2665  0.6471 -0.5393
31376SOL    HW299259   0.059   2.153   5.937  2.6407 -1.0763 -0.4842
31377SOL     OW99260   4.254   2.347   0.279  0.2293 -0.4426  0.7493
31377SOL    HW199261   4.324   2.347   0.344  1.7506 -2.3900 -0.8092
31377SOL    HW299262   4.299   2.338   0.195 -1.7239  1.5368 -0.5581
31378SOL     OW99263   3.371   0.238   4.122  1.0039 -0.0980 -0.2950
31378SOL    HW199264   3.436   0.274   4.182  1.8783  0.8264 -1.7748
31378SOL    HW299265   3.308   0.309   4.108  1.1951 -0.0729 -1.0310
31379SOL     OW99266   0.454   1.922   4.173 -0.5697 -0.0625 -0.0424
31379SOL    HW199267   0.440   1.987   4.104  1.6429 -0.4688 -0.9150
31379SOL    HW299268   0.471   1.974   4.252 -0.5525  0.4247 -0.3658
31380SOL     OW99269   5.488   8.633   1.394  0.0078 -0.0648  0.1884
31380SOL    HW199270   5.446   8.569   1.451 -0.1716 -0.7561 -0.7103
31380SOL    HW299271   5.580   8.607   1.391 -0.4923 -1.7206 -2.0640
31381SOL     OW99272   4.794  11.008   8.155  0.8385  0.0537 -0.2900
31381SOL    HW199273   4.799  10.917   8.182  2.7759  0.5818  1.2434
31381SOL    HW299274   4.886  11.035   8.146  0.2817  1.7152 -1.2003
31382SOL     OW99275   7.419  11.235   6.124  0.2157  0.5012 -0.0850
31382SOL    HW199276   7.378  11.154   6.095 -2.1165  2.8929 -3.8901
31382SOL    HW299277   7.513  11.223   6.105 -0.2998 -0.7675 -2.0086
31383SOL     OW99278   5.153  10.036   4.349 -0.1749  0.5656 -0.4721
31383SOL    HW199279   5.153  10.038   4.254 -1.8116 -0.0786 -0.5119
31383SOL    HW299280   5.244  10.052   4.374  0.2235  0.9604 -2.1305
31384SOL     OW99281  10.426   4.899   6.773 -0.5377 -0.5620  0.5739
31384SOL    HW199282  10.351   4.934   6.821  0.6440  0.0702  1.9923
31384SOL    HW299283  10.394   4.816   6.736 -1.9795 -0.2101  1.0053
31385SOL     OW99284   7.494   1.556   5.478 -0.2620  0.2885  0.4633
31385SOL    HW199285   7.531   1.469   5.466 -0.9164  0.0094  0.4610
31385SOL    HW299286   7.451   1.553   5.564 -2.7695 -0.2909 -0.7645
31386SOL     OW99287  10.832   0.977   2.779 -0.1679 -0.2791  0.5650
31386SOL    HW199288  10.763   0.974   2.714 -0.9003 -0.8769  1.3510
31386SOL    HW299289  10.907   0.935   2.737 -1.7675 -4.1442  1.3923
31387SOL     OW99290  11.080   7.375   9.860 -0.0478  0.6153  0.2998
31387SOL    HW199291  11.111   7.396   9.949  1.6368 -2.9902  0.6806
31387SOL    HW299292  10.991   7.410   9.857  0.2676  1.8108  3.0298
31388SOL     OW99293   9.349   8.238   9.986  0.4400  0.0059  0.6887
31388SOL    HW199294   9.408   8.221   9.912  0.4773 -2.1018  1.1711
31388SOL    HW299295   9.382   8.318  10.025  0.8060  0.8079 -1.2134
31389SOL     OW99296   6.369  10.162   1.463  0.0379  0.1745  0.4219
31389SOL    HW199297   6.433  10.117   1.408 -1.0179  1.0318 -1.5932
31389SOL    HW299298   6.299  10.098   1.477  0.1226  0.0817  0.4235
31390SOL     OW99299   1.975   7.769   5.928  0.1255  0.4351  0.0061
31390SOL    HW199300   1.885   7.802   5.937  0.2983  0.8962  0.0972
31390SOL    HW299301   1.980   7.735   5.839  0.1442  1.3072 -0.3311
31391SOL     OW99302   3.299   3.316   8.037  0.1085 -0.2085  0.5345
31391SOL    HW199303   3.228   3.365   8.078 -0.1043 -0.2935  0.2694
31391SOL    HW299304   3.295   3.230   8.079 -0.2540 -0.3681  0.1711
31392SOL     OW99305   4.320   6.309   3.371 -0.1432  0.0685 -0.2170
31392SOL    HW199306   4.277   6.395   3.374 -2.0183 -0.8195 -1.5259
31392SOL    HW299307   4.403   6.323   3.418 -1.2021  2.1435  1.1199
31393SOL     OW99308  11.147   7.013  10.935 -0.3403 -0.2611  0.2237
31393SOL    HW199309  11.129   7.085  10.875  0.2960  0.0897  0.4540
31393SOL    HW299310  11.132   7.049  11.022  0.1707 -0.3430  0.3514
31394SOL     OW99311   4.641   4.604   9.929 -0.2061 -0.1677 -0.1427
31394SOL    HW199312   4.572   4.537   9.922  1.6802 -2.0932 -1.0649
31394SOL    HW299313   4.715   4.557   9.968  1.3041  1.2855 -1.2233
31395SOL     OW99314   3.607   5.965   6.775  0.2589 -0.6441 -0.5048
31395SOL    HW199315   3.522   6.009   6.780 -0.0504 -1.2247 -0.7101
31395SOL    HW299316   3.654   5.998   6.852 -0.9041 -1.9088  0.7714
31396SOL     OW99317   4.199   8.889   6.561 -0.1556 -1.4282 -0.0636
31396SOL    HW199318   4.194   8.984   6.550  1.1516 -1.5120 -1.5763
31396SOL    HW299319   4.196   8.875   6.656  1.4231  0.2389  0.2494
31397SOL     OW99320   7.239   3.720   1.261 -0.7916  0.3459  0.9058
31397SOL    HW199321   7.285   3.687   1.339 -1.4759 -0.3651  1.0114
31397SOL    HW299322   7.257   3.814   1.262  1.1234 -0.0023  0.6308
31398SOL     OW99323  10.821   8.394   7.909  0.1937  0.1788 -0.1781
31398SOL    HW199324  10.872   8.468   7.878 -2.2506  1.7453 -0.5980
31398SOL    HW299325  10.812   8.337   7.832  2.5075 -0.8329  0.2801
31399SOL     OW99326   2.582   7.438   3.137  0.0648 -0.0619 -0.0277
31399SOL    HW199327   2.647   7.367   3.132  0.6476  0.3370  1.6671
31399SOL    HW299328   2.498   7.392   3.142  0.1600 -0.5812 -2.4558
31400SOL     OW99329   9.494   1.287   4.136  0.0559  0.2722 -0.5117
31400SOL    HW199330   9.496   1.248   4.224  0.6958  0.9170 -0.2395
31400SOL    HW299331   9.581   1.324   4.124  0.2811 -0.6493 -1.8046
31401SOL     OW99332   7.663   9.599   8.767  0.3104 -0.2192 -0.8862
31401SOL    HW199333   7.663   9.682   8.719  1.8997 -0.0923 -0.6987
31401SOL    HW299334   7.749   9.596   8.809  0.0486 -1.7024 -0.4357
31402SOL     OW99335   3.312   8.679   0.701  0.0146 -0.5235  0.3266
31402SOL    HW199336   3.399   8.682   0.741  0.3198 -0.7041 -0.3239
31402SOL    HW299337   3.254   8.650   0.772  0.3432  0.4428  1.0008
31403SOL     OW99338   9.969   6.357  10.926 -0.4334  0.1469 -0.0129
31403SOL    HW199339   9.936   6.273  10.958  0.6662 -1.0416 -1.9086
31403SOL    HW299340   9.895   6.396  10.878 -0.1597 -0.9082 -1.2966
31404SOL     OW99341   8.876   9.161   8.007 -0.0730 -0.3921 -0.3953
31404SOL    HW199342   8.851   9.251   7.985  1.1439  0.1906  0.5316
31404SOL    HW299343   8.877   9.159   8.103 -0.4037 -1.4908 -0.4061
31405SOL     OW99344   7.180   1.427   8.261  0.1781  0.1689  0.4311
31405SOL    HW199345   7.152   1.389   8.345  0.4691  0.2503  0.5661
31405SOL    HW299346   7.115   1.495   8.243 -1.6882 -1.9440 -0.9767
31406SOL     OW99347   4.305   9.568   8.121 -0.3401 -0.0727  0.2981
31406SOL    HW199348   4.320   9.596   8.211 -1.4853 -0.5519  0.6409
31406SOL    HW299349   4.241   9.630   8.086  0.8213  0.7006 -0.4995
31407SOL     OW99350   5.215   4.784   4.572  0.1913 -0.1450 -0.1387
31407SOL    HW199351   5.186   4.696   4.550 -1.5664  0.0851  1.1618
31407SOL    HW299352   5.254   4.817   4.491  0.4274 -1.9292 -0.7775
31408SOL     OW99353   8.555   9.484  10.017  0.1889  0.4066 -0.2941
31408SOL    HW199354   8.480   9.532   9.981  0.5888  0.5527 -0.9503
31408SOL    HW299355   8.630   9.541   9.999  0.6799 -0.5089 -1.1410
31409SOL     OW99356   0.948   2.355   2.205 -0.3185  0.1484 -0.1524
31409SOL    HW199357   0.908   2.269   2.216 -0.0792  0.3133  2.2829
31409SOL    HW299358   0.878   2.417   2.229  1.1120  0.4519  3.5907
31410SOL     OW99359   6.340   7.500   0.457 -0.0530  0.1019  0.1703
31410SOL    HW199360   6.366   7.474   0.369  0.6325  1.2828  0.0241
31410SOL    HW299361   6.337   7.417   0.506  0.6011 -0.4372 -0.6834
31411SOL     OW99362   0.489   3.814   8.095 -0.1955  0.6989 -0.3214
31411SOL    HW199363   0.441   3.878   8.043  0.0134 -0.2869 -1.7860
31411SOL    HW299364   0.483   3.733   8.044 -0.0340 -0.3208  1.2442
31412SOL     OW99365   9.000   3.586   5.198  0.0842 -0.0855 -0.1284
31412SOL    HW199366   9.055   3.590   5.276  0.3994 -0.3093 -0.3386
31412SOL    HW299367   8.925   3.531   5.224  0.5989 -0.8414 -0.2321
31413SOL     OW99368   2.544   5.189   7.771  0.4744  0.4081  0.4449
31413SOL    HW199369   2.562   5.206   7.678  2.9350 -1.1104  0.5800
31413SOL    HW299370   2.628   5.205   7.815 -0.5169  0.5625  2.3351
31414SOL     OW99371   5.709   7.098   0.014 -0.0557  0.0407 -0.5035
31414SOL    HW199372   5.759   7.047   0.077  1.7695  0.5026 -1.5372
31414SOL    HW299373   5.620   7.063   0.020  0.1236 -0.0510  2.1628
31415SOL     OW99374   9.318   1.836   0.925  0.0329  0.0674 -0.2194
31415SOL    HW199375   9.231   1.804   0.901  0.5474 -1.3716 -0.2087
31415SOL    HW299376   9.307   1.930   0.934 -2.4640 -0.4624  3.6112
31416SOL     OW99377   7.841   6.080   5.610  0.5842 -0.5976  0.2146
31416SOL    HW199378   7.824   6.130   5.690 -0.2090 -1.5472  0.6540
31416SOL    HW299379   7.786   6.121   5.544  1.8978  0.7454 -0.0741
31417SOL     OW99380   0.004   7.875   4.349  0.1122 -0.3009  0.1682
31417SOL    HW199381  -0.078   7.830   4.372 -0.2780 -0.5465 -1.5893
31417SOL    HW299382   0.071   7.806   4.356 -0.1335 -0.5899 -0.2922
31418SOL     OW99383   1.179   8.484   9.431 -0.2623  0.3173 -0.2347
31418SOL    HW199384   1.232   8.551   9.475  1.3290 -1.8858  1.3580
31418SOL    HW299385   1.200   8.494   9.338  2.0558  0.3086  0.2362
31419SOL     OW99386   3.900   5.545  10.025 -0.1298  0.6336  0.2949
31419SOL    HW199387   3.828   5.570   9.967 -1.6218 -0.7227  1.5243
31419SOL    HW299388   3.924   5.457   9.995  1.2558  1.2135 -0.3260
31420SOL     OW99389   4.264   8.322   6.972 -0.1060 -0.2024 -0.3819
31420SOL    HW199390   4.348   8.316   6.926 -0.3521 -0.6686 -0.7618
31420SOL    HW299391   4.288   8.357   7.058  0.5167 -0.6003 -0.3866
31421SOL     OW99392   3.430   6.736  11.311  0.5418 -0.4055  0.4266
31421SOL    HW199393   3.405   6.775  11.228  1.0318 -0.7126  0.1324
31421SOL    HW299394   3.385   6.788  11.377 -0.4776 -0.6427 -0.0679
31422SOL     OW99395   0.319   9.564   9.720  0.3179 -0.2737 -0.3245
31422SOL    HW199396   0.259   9.627   9.681  0.1664 -0.6453 -0.7035
31422SOL    HW299397   0.264   9.512   9.779  0.0702 -1.1695 -1.3084
31423SOL     OW99398  10.574  10.478  11.032  0.2287  0.2321 -0.0300
31423SOL    HW199399  10.491  10.511  10.997  0.5180 -0.0686 -1.0323
31423SOL    HW299400  10.550  10.425  11.108 -0.5761 -0.5629 -0.8328
31424SOL     OW99401   5.471   7.389   1.394 -0.5706 -0.0535 -0.0596
31424SOL    HW199402   5.566   7.395   1.396 -0.4787 -1.3363  0.0841
31424SOL    HW299403   5.444   7.440   1.318  0.3160 -0.6692 -0.7852
31425SOL     OW99404   8.465   2.387   2.849  0.1480  0.0012 -0.1061
31425SOL    HW199405   8.488   2.294   2.853 -2.8036 -0.7156  1.2503
31425SOL    HW299406   8.434   2.400   2.759 -1.8841 -0.9744  0.4263
31426SOL     OW99407   1.375   0.265  10.578 -0.5795  0.0685 -0.5337
31426SOL    HW199408   1.285   0.277  10.607 -0.7144 -0.4861 -0.7160
31426SOL    HW299409   1.389   0.334  10.513 -1.0976 -0.2792 -1.0149
31427SOL     OW99410   7.580   7.890   4.324 -0.5977  0.9100 -0.2659
31427SOL    HW199411   7.590   7.921   4.414  2.4870  2.6361 -1.1291
31427SOL    HW299412   7.608   7.798   4.327  0.3267  1.2033  0.3867
31428SOL     OW99413   4.181   5.778  10.674 -0.0637  0.0161 -0.3575
31428SOL    HW199414   4.225   5.708  10.723 -0.1274  0.2438  0.0330
31428SOL    HW299415   4.173   5.744  10.585  3.2100  0.9587 -1.0937
31429SOL     OW99416   9.765   0.548   6.353  0.1646  1.0281  0.1574
31429SOL    HW199417   9.847   0.501   6.337  0.0616  1.0971 -0.5602
31429SOL    HW299418   9.711   0.529   6.277 -0.6373  0.6695  0.8096
31430SOL     OW99419   5.181   9.477   4.579  0.0858 -0.3654 -0.5270
31430SOL    HW199420   5.174   9.404   4.517  2.6659 -2.4015  1.4482
31430SOL    HW299421   5.092   9.488   4.614 -0.3063 -2.7265 -0.7068
31431SOL     OW99422   2.633   0.598   1.066 -0.2509 -0.5532  0.0883
31431SOL    HW199423   2.609   0.505   1.064 -1.1975 -0.2957 -0.9529
31431SOL    HW299424   2.555   0.644   1.034  0.1509  0.6175  0.7597
31432SOL     OW99425   4.188   3.014   6.145  0.2478 -0.1125  0.0050
31432SOL    HW199426   4.263   3.059   6.105  1.8425  1.2488  4.1718
31432SOL    HW299427   4.228   2.949   6.203 -1.8908 -1.6436 -0.2111
31433SOL     OW99428   0.598   0.409  11.155  0.4778 -0.3942  0.0235
31433SOL    HW199429   0.633   0.333  11.202 -1.1807  0.9667  3.6699
31433SOL    HW299430   0.666   0.476  11.164  1.2343 -0.9002 -1.7600
31434SOL     OW99431  10.860   2.042   6.592  0.3551 -0.1624  0.1226
31434SOL    HW199432  10.834   2.131   6.613  1.2826 -0.6982  3.8328
31434SOL    HW299433  10.782   1.989   6.610 -0.4667 -0.0781 -2.8775
31435SOL     OW99434   4.158   2.922   6.808 -0.6162  0.3850 -0.1021
31435SOL    HW199435   4.124   2.842   6.768  0.7645 -0.6617  0.7541
31435SOL    HW299436   4.081   2.974   6.828 -1.5983 -1.2124  0.3024
31436SOL     OW99437   2.639   3.924   3.772  0.4443 -0.0038  0.4206
31436SOL    HW199438   2.636   3.899   3.680  0.2546 -1.0273  0.6980
31436SOL    HW299439   2.601   3.849   3.819  1.9891 -0.1448  1.4698
31437SOL     OW99440   0.671   1.102  10.718 -0.6478 -0.0894  0.3461
31437SOL    HW199441   0.605   1.147  10.771  1.3070 -0.8053  3.4539
31437SOL    HW299442   0.742   1.165  10.710 -1.1616  0.2412 -2.0155
31438SOL     OW99443  11.024   3.804  11.242  0.0204 -0.5686 -0.4861
31438SOL    HW199444  11.030   3.888  11.197  0.0235 -0.5047 -0.3655
31438SOL    HW299445  11.039   3.824  11.334 -1.1657 -0.5347 -0.2918
31439SOL     OW99446  10.953   9.491   4.439  0.5789 -0.5669 -0.7080
31439SOL    HW199447  10.883   9.472   4.377 -1.1061  1.1050  0.6151
31439SOL    HW299448  10.984   9.578   4.413  0.0057  0.0508  0.6160
31440SOL     OW99449   5.602   1.421   1.583 -0.6196  0.6294 -0.1808
31440SOL    HW199450   5.695   1.430   1.605 -0.6984 -1.1192  0.9756
31440SOL    HW299451   5.588   1.484   1.512  1.3280  1.2614 -0.0418
31441SOL     OW99452   4.783   9.709   3.010 -0.3663 -0.1859 -0.6291
31441SOL    HW199453   4.820   9.621   3.018 -0.3311 -0.1267 -0.0586
31441SOL    HW299454   4.758   9.732   3.100  0.9412  0.9671 -0.5489
31442SOL     OW99455  10.454   2.699  10.633  0.1614 -0.7353  0.0053
31442SOL    HW199456  10.403   2.780  10.626 -1.3222 -1.7902 -2.2068
31442SOL    HW299457  10.390   2.633  10.660  1.3221 -1.2384  1.5913
31443SOL     OW99458   3.946   4.414   5.622  0.2803  0.2369 -0.3703
31443SOL    HW199459   3.919   4.346   5.684  0.0491  0.1861 -0.5256
31443SOL    HW299460   3.895   4.396   5.543  1.1132 -0.1491 -0.8309
31444SOL     OW99461  11.049   2.225   8.462 -0.0731  0.0383 -0.3853
31444SOL    HW199462  10.960   2.190   8.454 -0.6445  1.4840 -0.3463
31444SOL    HW299463  11.088   2.209   8.376 -0.2277 -0.9576 -0.2820
31445SOL     OW99464   7.718   5.767   1.433 -0.2377 -0.2116  0.5221
31445SOL    HW199465   7.809   5.759   1.463  0.0618  0.5441 -0.1623
31445SOL    HW299466   7.679   5.831   1.492 -0.2003 -0.2029  0.5374
31446SOL     OW99467   3.696   5.817   7.166  0.3323  0.1242 -0.6142
31446SOL    HW199468   3.745   5.882   7.116  0.2183  1.0425  0.4368
31446SOL    HW299469   3.607   5.822   7.131  0.2438  0.7894 -0.3099
31447SOL     OW99470   5.124   3.111   7.368  0.2274 -0.0858  0.3408
31447SOL    HW199471   5.076   3.029   7.382 -0.0059 -0.0490 -0.2479
31447SOL    HW299472   5.076   3.176   7.419 -0.2286 -0.0902 -0.0826
31448SOL     OW99473   0.591   7.657   6.412  0.0524  0.6422  0.1358
31448SOL    HW199474   0.649   7.721   6.371  0.1258  0.3992 -0.1491
31448SOL    HW299475   0.648   7.582   6.430 -0.0665  0.5959  0.3131
31449SOL     OW99476   1.595   1.571   0.170  0.1110 -0.1057 -0.2702
31449SOL    HW199477   1.502   1.552   0.159  0.0002 -0.3426  1.0336
31449SOL    HW299478   1.613   1.551   0.262  1.9936 -2.3448 -1.1044
31450SOL     OW99479   0.140   7.656   7.053 -0.1535 -0.0328 -0.3816
31450SOL    HW199480   0.074   7.714   7.092 -0.9389  0.3611 -2.2611
31450SOL    HW299481   0.128   7.573   7.100 -1.4322  0.2822 -0.1249
31451SOL     OW99482   2.868   4.254   9.943  0.4640 -0.1858 -0.8612
31451SOL    HW199483   2.860   4.180   9.883  0.1413 -1.6872  0.9980
31451SOL    HW299484   2.798   4.242  10.007  0.8139  1.3720 -0.1518
31452SOL     OW99485   4.551   9.562   2.251  0.0342  0.2182 -0.0072
31452SOL    HW199486   4.472   9.510   2.261  0.0983 -0.0514 -0.8939
31452SOL    HW299487   4.619   9.499   2.229 -0.3053  0.8736 -3.1899
31453SOL     OW99488   5.272   2.682   9.377  0.4417  0.1098 -0.2545
31453SOL    HW199489   5.194   2.629   9.360  0.6036 -0.5063  0.8908
31453SOL    HW299490   5.341   2.619   9.394  0.6277  0.6646  1.1799
31454SOL     OW99491   6.494   0.943   4.267  0.2689  0.3322  0.0113
31454SOL    HW199492   6.574   0.921   4.314  0.1694 -1.5058 -0.6454
31454SOL    HW299493   6.510   0.916   4.177 -1.1116 -0.1535 -0.1026
31455SOL     OW99494   2.514   1.644   7.522  0.4073  0.0415 -0.1174
31455SOL    HW199495   2.472   1.567   7.561  0.5228 -0.4863 -0.9944
31455SOL    HW299496   2.576   1.607   7.459  0.8659  0.8497 -0.1389
31456SOL     OW99497   8.620   0.889   2.776  0.4814  0.1118  0.2234
31456SOL    HW199498   8.698   0.841   2.805 -0.5690 -0.1926  2.6221
31456SOL    HW299499   8.566   0.823   2.731  1.2187  0.1501 -0.7415
31457SOL     OW99500   9.106   4.406   3.188 -0.1623  0.0952  0.0010
31457SOL    HW199501   9.108   4.360   3.272  0.6638  1.3600  0.6878
31457SOL    HW299502   9.178   4.367   3.138 -0.6783 -0.6857 -0.1413
31458SOL     OW99503  10.380   9.618   8.792 -0.2404 -0.0766 -0.3305
31458SOL    HW199504  10.383   9.706   8.830  2.8393 -0.6084  0.7692
31458SOL    HW299505  10.390   9.633   8.698  1.3323  0.6869 -0.0489
31459SOL     OW99506   1.440   1.349   8.410 -0.1581  0.0546 -0.2354
31459SOL    HW199507   1.473   1.303   8.487  0.3150  0.4551 -0.1921
31459SOL    HW299508   1.379   1.288   8.369  0.0830 -0.4097  0.0994
31460SOL     OW99509  10.454   8.117   5.625 -0.1668 -0.9028  0.2538
31460SOL    HW199510  10.451   8.023   5.605 -0.4223 -0.2865 -2.8854
31460SOL    HW299511  10.547   8.136   5.640 -0.3896 -2.0972  3.4823
31461SOL     OW99512   3.509   5.000  10.314  0.0317 -0.2135 -0.2490
31461SOL    HW199513   3.491   5.065  10.382  0.7958  0.1026 -0.3409
31461SOL    HW299514   3.604   4.987  10.317 -0.2287 -2.1285  0.4781
31462SOL     OW99515   8.508   2.092   1.882  0.5591 -0.4167  0.3192
31462SOL    HW199516   8.439   2.076   1.818  0.3060  0.8444  0.2688
31462SOL    HW299517   8.589   2.068   1.837  0.3523  0.1433 -0.3517
31463SOL     OW99518   9.990   6.672  10.708  0.0866 -0.3660 -0.2100
31463SOL    HW199519  10.077   6.695  10.741  0.5161  0.1602 -1.6741
31463SOL    HW299520  10.002   6.585  10.669  0.5104  0.6541 -2.4279
31464SOL     OW99521   1.955   0.595   0.600 -0.0662 -0.2023 -0.5594
31464SOL    HW199522   1.994   0.601   0.513  1.3516  0.3540  0.1017
31464SOL    HW299523   1.885   0.659   0.600  1.3660  1.4110 -0.5712
31465SOL     OW99524   6.854   0.295   5.878 -0.1399  0.3309  0.3098
31465SOL    HW199525   6.943   0.331   5.883 -0.5792  1.3884  0.7234
31465SOL    HW299526   6.811   0.327   5.958 -0.6080 -0.9643  0.5956
31466SOL     OW99527   6.471   6.000   8.947  0.6010 -0.2827  0.1369
31466SOL    HW199528   6.425   5.916   8.939  0.2985 -0.0172 -0.8599
31466SOL    HW299529   6.512   5.996   9.034 -0.9344 -0.7094  0.8686
31467SOL     OW99530   4.742   5.314  11.302 -0.1949 -0.1859  0.1679
31467SOL    HW199531   4.664   5.342  11.351 -0.9539 -1.2306 -0.4205
31467SOL    HW299532   4.711   5.242  11.246  0.9032  0.2382 -1.0196
31468SOL     OW99533   2.905   7.768   9.624  0.3742  0.2800 -0.1671
31468SOL    HW199534   2.881   7.685   9.666  1.1943 -0.6228 -1.4559
31468SOL    HW299535   2.904   7.832   9.696 -0.5405 -0.7768  0.7898
31469SOL     OW99536   8.367   4.108   7.679 -0.3189  0.5346  0.4699
31469SOL    HW199537   8.350   4.047   7.608  1.0227  0.8567 -0.1580
31469SOL    HW299538   8.348   4.194   7.642  0.1424  0.6838  0.5760
31470SOL     OW99539   7.708   3.350   2.191  0.3214 -0.0261  0.5886
31470SOL    HW199540   7.674   3.422   2.138 -0.3233 -1.2458 -0.6910
31470SOL    HW299541   7.796   3.335   2.159  0.8825  0.9340  1.6404
31471SOL     OW99542   7.165   5.646   4.763  0.1371  0.2396  0.1501
31471SOL    HW199543   7.229   5.606   4.823 -0.4880 -0.8846  0.0797
31471SOL    HW299544   7.157   5.583   4.691  0.3925  1.2857 -0.8018
31472SOL     OW99545   1.903  10.975   1.176 -0.5117 -0.5518  0.2662
31472SOL    HW199546   1.917  11.030   1.099 -0.1379 -2.2391 -0.8934
31472SOL    HW299547   1.931  11.029   1.250  0.7483  0.4618 -0.9367
31473SOL     OW99548   0.492   3.184  10.429 -0.1860  0.2599  0.1239
31473SOL    HW199549   0.535   3.111  10.474 -0.2075  0.1365 -0.0560
31473SOL    HW299550   0.409   3.148  10.400  0.2770  0.0266 -0.9390
31474SOL     OW99551  10.481   5.560   1.235 -0.1814 -0.0297 -0.5422
31474SOL    HW199552  10.447   5.474   1.211 -0.2614  0.2664 -1.4876
31474SOL    HW299553  10.557   5.540   1.291 -1.0657 -0.6918  0.4400
31475SOL     OW99554   5.662   2.323   5.480  0.5474 -0.8640 -0.4915
31475SOL    HW199555   5.656   2.367   5.395  1.7445 -1.9217 -1.1449
31475SOL    HW299556   5.571   2.310   5.507  0.1852  1.5519 -0.5169
31476SOL     OW99557   9.934   7.906   2.140 -0.0069 -0.1765  0.2390
31476SOL    HW199558   9.920   7.852   2.218  0.4695 -0.5740  0.0545
31476SOL    HW299559   9.948   7.995   2.174 -0.3134 -0.2532  0.5706
31477SOL     OW99560   4.010   2.298  10.382  0.0089  0.3632 -0.1317
31477SOL    HW199561   4.068   2.367  10.414  1.7759 -0.4208 -1.5571
31477SOL    HW299562   4.030   2.223  10.439  1.9082 -0.5124 -1.8850
31478SOL     OW99563   4.924   5.689   5.790 -0.0602 -0.7612  0.2898
31478SOL    HW199564   4.975   5.717   5.713 -1.5786 -0.0668 -0.4855
31478SOL    HW299565   4.903   5.770   5.835 -1.9819 -0.8662 -0.3695
31479SOL     OW99566   1.190   1.826   9.366 -0.1543  0.2953 -0.0445
31479SOL    HW199567   1.182   1.878   9.446  0.5984 -4.0526  2.9928
31479SOL    HW299568   1.280   1.839   9.337  0.5578 -0.6394  1.6934
31480SOL     OW99569  10.972  10.427   9.942  0.2359 -0.2938  0.7548
31480SOL    HW199570  11.066  10.418   9.952  0.9530  2.1532 -2.9043
31480SOL    HW299571  10.948  10.501   9.997  0.8949  0.6473 -0.2033
31481SOL     OW99572   1.773   3.053   6.753 -0.2180  0.0665 -0.2695
31481SOL    HW199573   1.754   3.124   6.813  0.3721  0.6831 -0.7981
31481SOL    HW299574   1.699   3.051   6.693 -0.6058 -0.2739  0.2208
31482SOL     OW99575   4.630   2.883   3.681  0.2980 -0.5270  0.1139
31482SOL    HW199576   4.546   2.916   3.650 -0.5363 -1.4812  1.3220
31482SOL    HW299577   4.652   2.812   3.621 -0.0331 -0.6310  0.1141
31483SOL     OW99578   3.085   2.785   0.096 -0.4763  0.6348  0.0182
31483SOL    HW199579   3.105   2.820   0.183  0.4609 -0.1872  0.1348
31483SOL    HW299580   3.093   2.861   0.038 -1.2734  1.2227  0.6664
31484SOL     OW99581  10.124   3.527   7.841 -0.5367 -0.4154  0.2690
31484SOL    HW199582  10.148   3.617   7.860  0.6493 -0.4992 -0.7515
31484SOL    HW299583  10.079   3.497   7.920  2.1960 -0.0466  2.0309
31485SOL     OW99584   1.174  11.153   8.293 -0.0366 -0.3244 -0.1142
31485SOL    HW199585   1.148  11.109   8.212  0.5697  0.4779 -0.7549
31485SOL    HW299586   1.185  11.245   8.268 -4.5743  0.9016  1.8941
31486SOL     OW99587   1.275   2.434  10.091  0.1402  0.2674  0.3965
31486SOL    HW199588   1.292   2.385  10.171 -0.0974 -1.9341 -0.8616
31486SOL    HW299589   1.336   2.507  10.094  1.3429 -0.7675  1.7263
31487SOL     OW99590   8.802   5.757   2.528 -0.0772  0.1254  0.2481
31487SOL    HW199591   8.756   5.716   2.455 -1.3254  3.2582 -0.7769
31487SOL    HW299592   8.787   5.697   2.602 -0.9416 -1.7770 -1.4176
31488SOL     OW99593   2.090   5.540   0.035  0.0314  0.4800 -0.1649
31488SOL    HW199594   2.109   5.552  -0.058  3.1676 -0.3890  0.3008
31488SOL    HW299595   2.123   5.619   0.076 -2.5669  1.4689  0.1207
31489SOL     OW99596   1.999   6.037   1.192 -0.6926  0.2181 -0.5937
31489SOL    HW199597   1.989   6.026   1.097  0.4968  2.2319 -0.9851
31489SOL    HW299598   2.086   6.076   1.202 -0.9293  0.2747  1.3107
31490SOL     OW99599   3.962   5.749   0.534  0.3413 -0.0047  0.7105
31490SOL    HW199600   3.944   5.828   0.585 -0.3667  0.5626 -0.3973
31490SOL    HW299601   3.932   5.770   0.446  0.9809 -1.1948  0.1971
31491SOL     OW99602   8.649   5.577   6.262 -0.4854 -0.1954 -0.1763
31491SOL    HW199603   8.721   5.632   6.295 -0.4617 -0.4864  0.2525
31491SOL    HW299604   8.570   5.623   6.291 -0.4886  0.4615 -1.1858
31492SOL     OW99605   3.455   3.189   0.819  0.0318  0.2274  0.6514
31492SOL    HW199606   3.408   3.145   0.890 -1.1791  0.4014 -0.0305
31492SOL    HW299607   3.468   3.121   0.753 -0.5835  0.5326  0.2088
31493SOL     OW99608   9.873   1.128   1.289  0.3065  0.5358 -0.0149
31493SOL    HW199609   9.937   1.105   1.222  1.1543  0.2224  0.9011
31493SOL    HW299610   9.925   1.168   1.359 -0.7032  1.9349 -0.0278
31494SOL     OW99611   9.259   6.464   7.758  0.3900 -0.2384  0.5514
31494SOL    HW199612   9.206   6.412   7.819 -1.5582 -0.2946 -1.1220
31494SOL    HW299613   9.209   6.544   7.745  2.4021  1.2272  1.5352
31495SOL     OW99614   1.835   3.164   5.207 -0.2270 -0.0990 -0.0339
31495SOL    HW199615   1.803   3.087   5.162 -1.0065 -0.2950  0.8515
31495SOL    HW299616   1.865   3.222   5.137  2.1067 -1.9590 -0.6274
31496SOL     OW99617  11.133   1.389   4.310 -0.0761 -0.7504 -0.0869
31496SOL    HW199618  11.113   1.308   4.262 -2.7701 -1.3745  1.9768
31496SOL    HW299619  11.201   1.364   4.372  1.3780 -0.6239 -1.5928
31497SOL     OW99620   7.356   8.987   1.604 -0.2687 -0.2923  0.1207
31497SOL    HW199621   7.362   9.082   1.593 -0.2310 -0.3769 -0.6272
31497SOL    HW299622   7.436   8.954   1.564 -0.8666 -0.7198 -0.7452
31498SOL     OW99623   7.594   8.811   5.407 -0.2857 -0.5579  0.6445
31498SOL    HW199624   7.521   8.755   5.382 -0.2674  0.7368 -2.5509
31498SOL    HW299625   7.564   8.900   5.390  0.8244  0.2264  2.5784
31499SOL     OW99626   5.468   8.836   2.065  0.1374  0.2495 -0.2486
31499SOL    HW199627   5.457   8.868   2.154  1.9059 -0.8326  0.3895
31499SOL    HW299628   5.461   8.740   2.072  0.8089  0.1159 -1.1657
31500SOL     OW99629   6.344   3.297   0.582  0.2219  0.4087  0.1263
31500SOL    HW199630   6.346   3.359   0.509  1.7194  1.6884  1.2340
31500SOL    HW299631   6.427   3.250   0.576 -0.7483 -1.2885 -0.4905
31501SOL     OW99632  10.515   1.461   6.613 -0.2925  0.0518  0.6280
31501SOL    HW199633  10.424   1.491   6.615 -0.4671 -0.2996 -1.4149
31501SOL    HW299634  10.548   1.478   6.702 -0.9684  4.4001  0.1305
31502SOL     OW99635  10.544   1.472   5.971 -0.0061 -0.0314  0.0039
31502SOL    HW199636  10.633   1.489   6.000  0.3503 -0.7264 -0.6723
31502SOL    HW299637  10.533   1.378   5.979 -0.7948  0.0912  0.4061
31503SOL     OW99638   2.322   5.878   7.693 -0.0281 -0.1344  0.0911
31503SOL    HW199639   2.251   5.942   7.697 -1.0443 -0.8584 -4.3661
31503SOL    HW299640   2.392   5.924   7.646  0.9864 -0.7595  0.9759
31504SOL     OW99641   3.399   1.203   4.199  0.4261  0.3758 -0.3381
31504SOL    HW199642   3.473   1.150   4.230 -0.9669 -1.6216 -0.3438
31504SOL    HW299643   3.388   1.270   4.267  1.9385  0.4115 -0.1063
31505SOL     OW99644   3.111  11.050   7.618  0.6711 -0.4961  0.4762
31505SOL    HW199645   3.136  11.116   7.682  1.5708 -1.7456  1.4244
31505SOL    HW299646   3.032  11.009   7.655 -0.6451  0.8780 -0.7185
31506SOL     OW99647  10.911   1.713   1.877 -0.0797 -0.0500  0.3581
31506SOL    HW199648  10.946   1.671   1.799 -0.3713  2.0988 -0.9744
31506SOL    HW299649  10.843   1.654   1.908 -2.4390  0.7401 -3.0886
31507SOL     OW99650   9.477   8.753  10.411  0.0728  0.2774 -0.4583
31507SOL    HW199651   9.394   8.705  10.406  0.7783 -1.4714  2.8903
31507SOL    HW299652   9.452   8.840  10.442 -0.7258  0.4067 -1.4585
31508SOL     OW99653   4.742  10.443   9.723 -0.1047 -0.1706  0.3870
31508SOL    HW199654   4.823  10.450   9.773  0.5715  0.2662 -0.7708
31508SOL    HW299655   4.715  10.352   9.734  2.3045 -1.2263 -1.9337
31509SOL     OW99656  10.827   0.644   2.101  0.0415  0.1893  0.4377
31509SOL    HW199657  10.858   0.728   2.135  2.4184 -0.6727  0.5104
31509SOL    HW299658  10.824   0.587   2.178  1.6249 -0.6841 -0.1354
31510SOL     OW99659   4.778   1.191   4.427 -0.5052 -0.8682 -0.3852
31510SOL    HW199660   4.775   1.107   4.472  1.5743  0.5249  2.4793
31510SOL    HW299661   4.706   1.241   4.464 -0.2296 -0.5234 -0.3127
31511SOL     OW99662  10.652   7.748   4.774  0.3089 -0.1598 -0.3900
31511SOL    HW199663  10.734   7.797   4.765 -0.8784  2.5719  2.4600
31511SOL    HW299664  10.587   7.801   4.727 -0.4633 -0.4271  0.3688
31512SOL     OW99665   6.423   5.670  10.510  0.1759 -0.2256  0.0383
31512SOL    HW199666   6.439   5.763  10.498 -1.7925 -0.0288 -1.2269
31512SOL    HW299667   6.341   5.665  10.559  0.0101 -1.2848 -0.3161
31513SOL     OW99668   7.595   9.013   7.813 -0.0052 -0.7123 -0.6548
31513SOL    HW199669   7.604   9.090   7.757 -1.0855 -0.6125 -0.7026
31513SOL    HW299670   7.667   9.020   7.875 -0.5190  0.7260 -0.2087
31514SOL     OW99671   3.631   7.829   0.503  0.4346  0.0680  0.3520
31514SOL    HW199672   3.649   7.791   0.589 -0.0876  0.5651  0.6886
31514SOL    HW299673   3.705   7.888   0.487  0.6839 -0.2500  0.3268
31515SOL     OW99674   5.839   4.191  10.261 -0.2904  0.8961 -0.3841
31515SOL    HW199675   5.929   4.201  10.291  0.1113  0.8102 -1.5138
31515SOL    HW299676   5.830   4.256  10.191 -0.9352  0.5501 -0.6294
31516SOL     OW99677   6.844   6.560   6.839 -0.0245  0.0589  0.6711
31516SOL    HW199678   6.784   6.595   6.905  0.7557  1.4369  0.6561
31516SOL    HW299679   6.851   6.628   6.773  0.6453 -0.5661  0.0844
31517SOL     OW99680   5.572   7.814   1.847 -0.3286 -0.3739  0.4797
31517SOL    HW199681   5.525   7.787   1.768 -1.1336  0.4687  0.6661
31517SOL    HW299682   5.612   7.898   1.824 -1.1975  0.2374  1.2160
31518SOL     OW99683   4.599   9.222   6.068 -0.2484  0.2110  0.4334
31518SOL    HW199684   4.562   9.143   6.108 -2.3725  0.6160 -0.6632
31518SOL    HW299685   4.582   9.212   5.975 -0.5064  1.9362  0.2790
31519SOL     OW99686   7.382   9.892   7.629 -0.5642 -0.2127 -0.6171
31519SOL    HW199687   7.356   9.802   7.646 -0.3683 -0.6768 -2.7349
31519SOL    HW299688   7.417   9.923   7.713 -1.4139 -1.8177  0.3462
31520SOL     OW99689   9.395   6.653   4.767  0.1954 -0.2752 -0.6099
31520SOL    HW199690   9.467   6.712   4.789  0.1701 -0.4054 -0.1618
31520SOL    HW299691   9.328   6.710   4.728 -0.2324  0.1620  0.7362
31521SOL     OW99692   7.162  10.969  10.027 -0.3159  0.1002 -0.0027
31521SOL    HW199693   7.214  10.940  10.102  1.7624  0.0823 -1.4131
31521SOL    HW299694   7.155  10.891   9.972 -1.0753  0.3496 -0.2595
31522SOL     OW99695   0.895   1.989   0.446 -0.1683 -0.7220 -0.2593
31522SOL    HW199696   0.851   2.053   0.390 -0.5477 -1.0978 -0.3943
31522SOL    HW299697   0.913   2.037   0.527  0.9497  0.0102 -0.9261
31523SOL     OW99698  10.049   1.547   6.431  0.3473  0.2401 -0.3252
31523SOL    HW199699  10.050   1.575   6.339 -0.8372 -0.5317 -0.5786
31523SOL    HW299700  10.027   1.454   6.427  1.4145 -0.0643  0.6868
31524SOL     OW99701   2.503   2.432   0.803  0.7692 -0.2394 -0.1606
31524SOL    HW199702   2.448   2.366   0.845  0.6015 -0.4212 -0.6635
31524SOL    HW299703   2.466   2.516   0.832 -1.1586 -0.3319 -2.2386
31525SOL     OW99704   2.839   0.584   0.548  0.1142 -0.2196  0.3666
31525SOL    HW199705   2.758   0.614   0.590 -0.7404 -0.7221 -0.8763
31525SOL    HW299706   2.904   0.649   0.573 -0.2143 -0.8134  2.9331
31526SOL     OW99707   8.721   9.546   2.813  0.8319  0.1306 -0.4453
31526SOL    HW199708   8.668   9.589   2.746  0.3903  3.0170  1.6507
31526SOL    HW299709   8.797   9.604   2.823  1.3966 -0.8067  0.8023
31527SOL     OW99710   6.305   5.837   9.189  0.4165  0.4318  0.3352
31527SOL    HW199711   6.400   5.824   9.191  0.2144 -1.0773  2.1018
31527SOL    HW299712   6.292   5.921   9.234  0.8777  0.2620  0.7984
31528SOL     OW99713   7.766   0.350   4.696 -0.2043  0.3556  0.0968
31528SOL    HW199714   7.752   0.318   4.606  2.4462 -1.5580  0.3022
31528SOL    HW299715   7.713   0.430   4.701  1.6018  1.9728 -4.0257
31529SOL     OW99716  11.132   7.247   8.926  0.3021  0.1277 -0.1593
31529SOL    HW199717  11.161   7.237   9.017 -1.4803 -0.1817  0.4135
31529SOL    HW299718  11.137   7.341   8.910 -0.2298  0.2960  0.5843
31530SOL     OW99719   0.372   9.480   7.967 -0.7001  0.2912 -0.3972
31530SOL    HW199720   0.279   9.493   7.982 -0.5438  1.6802 -0.6123
31530SOL    HW299721   0.380   9.469   7.873 -0.6109  0.4678 -0.4107
31531SOL     OW99722  10.770   2.125  10.456 -0.4969 -0.4520 -0.1036
31531SOL    HW199723  10.675   2.125  10.446 -0.5077 -1.2621 -0.0177
31531SOL    HW299724  10.804   2.155  10.372 -0.8700  1.1146  0.2937
31532SOL     OW99725   0.797   8.844   4.467  0.2898  0.2465 -0.3053
31532SOL    HW199726   0.833   8.869   4.551  2.1389  1.5544 -1.4515
31532SOL    HW299727   0.761   8.756   4.481  1.3672  0.0952  1.6088
31533SOL     OW99728   1.061  10.366   0.078 -0.0575 -0.2610 -0.1927
31533SOL    HW199729   1.083  10.459   0.079 -0.8408 -0.0510 -1.2720
31533SOL    HW299730   1.089  10.337  -0.009  2.4810 -1.6080  1.0298
31534SOL     OW99731   2.737   2.660   5.225 -0.2342 -0.2246 -0.3584
31534SOL    HW199732   2.771   2.573   5.245  0.8545  0.6478  1.7204
31534SOL    HW299733   2.644   2.646   5.206 -0.0509 -1.8303 -0.1259
31535SOL     OW99734   0.820   0.073   4.851  0.3319 -0.1126 -0.1197
31535SOL    HW199735   0.888   0.005   4.849 -1.1850 -1.7324  1.4533
31535SOL    HW299736   0.768   0.052   4.928 -0.5332  2.5297  0.0484
31536SOL     OW99737   8.710   4.572   5.490  0.0177  0.3933 -0.5679
31536SOL    HW199738   8.682   4.579   5.399 -0.1713  0.9731 -0.4638
31536SOL    HW299739   8.683   4.654   5.530 -0.6296 -0.2007  0.2119
31537SOL     OW99740   9.807   5.315   2.379 -0.2277  0.4604  0.1970
31537SOL    HW199741   9.795   5.400   2.336  0.2303  0.7727  0.6767
31537SOL    HW299742   9.784   5.331   2.471 -1.8957 -0.3735 -0.0573
31538SOL     OW99743   4.545   6.794   3.725 -0.7956 -0.6527  0.1311
31538SOL    HW199744   4.534   6.889   3.723  0.2875 -0.5310 -0.9707
31538SOL    HW299745   4.499   6.766   3.804  1.4140  1.1464  2.1605
31539SOL     OW99746   7.122  10.218  10.936 -0.7219 -0.7089 -0.0675
31539SOL    HW199747   7.141  10.127  10.956  0.4686 -0.6520 -0.9069
31539SOL    HW299748   7.193  10.267  10.976 -1.0051 -0.1933 -0.1840
31540SOL     OW99749   3.762   8.441   9.373 -0.4873 -0.4848 -0.1163
31540SOL    HW199750   3.694   8.416   9.436 -0.7775  0.9710  0.1729
31540SOL    HW299751   3.718   8.499   9.312  0.1966 -0.5773 -0.7040
31541SOL     OW99752   5.498  10.656   8.365 -0.3796 -0.2069  0.6295
31541SOL    HW199753   5.486  10.607   8.284 -0.5986 -0.8236  1.0304
31541SOL    HW299754   5.449  10.606   8.431 -0.4031  0.4151  1.0922
31542SOL     OW99755   1.467   6.787  10.177  0.3665 -0.2414 -0.0990
31542SOL    HW199756   1.554   6.827  10.181  0.0514  0.5136 -0.5477
31542SOL    HW299757   1.422   6.836  10.108 -1.3099  1.1561  1.9499
31543SOL     OW99758   1.229   1.368   5.940  0.4634 -0.0347  0.0885
31543SOL    HW199759   1.320   1.376   5.969  0.2703  0.1261  0.6541
31543SOL    HW299760   1.190   1.453   5.961 -0.0810 -0.4530  0.7776
31544SOL     OW99761   3.622   3.398  10.892 -0.2854  0.2648  0.0692
31544SOL    HW199762   3.605   3.416  10.984 -1.2966 -0.1593 -0.0293
31544SOL    HW299763   3.650   3.306  10.890  0.0276  0.3626 -0.0063
31545SOL     OW99764  10.752   9.187   5.435  0.4260 -0.1404  0.6314
31545SOL    HW199765  10.837   9.190   5.392 -0.2197  1.1487 -0.6212
31545SOL    HW299766  10.772   9.168   5.527  2.0193 -0.3758  0.2468
31546SOL     OW99767   0.689  10.338   3.588 -0.5183 -0.1652 -0.6900
31546SOL    HW199768   0.762  10.332   3.527 -0.4680 -0.3698 -0.6108
31546SOL    HW299769   0.727  10.372   3.668 -0.7298  0.8339 -1.0136
31547SOL     OW99770  10.646   3.521  10.064  0.0027 -0.4914 -0.1684
31547SOL    HW199771  10.596   3.599  10.088 -0.0809 -0.3443 -0.8131
31547SOL    HW299772  10.602   3.487   9.987  0.0240 -1.1946  0.1294
31548SOL     OW99773   5.039   4.735  10.942  0.3475  0.1611  0.0076
31548SOL    HW199774   5.025   4.649  10.982 -1.9337  1.1117  1.3170
31548SOL    HW299775   4.982   4.736  10.866 -0.3390  0.8430  0.5219
31549SOL     OW99776   5.327   5.841   4.762  0.1223  0.4143  0.2778
31549SOL    HW199777   5.376   5.848   4.843 -1.2403 -0.6920  1.2201
31549SOL    HW299778   5.241   5.878   4.783 -1.1850 -2.4498  0.1778
31550SOL     OW99779   0.192   8.878   9.520 -0.0274  0.2318 -0.0923
31550SOL    HW199780   0.221   8.787   9.525  1.3133  0.6455 -0.0544
31550SOL    HW299781   0.184   8.906   9.611  1.7457  0.8019 -0.0851
31551SOL     OW99782   0.150   2.877  10.196 -0.0706  0.0921  0.3594
31551SOL    HW199783   0.115   2.815  10.132  1.6102  1.9798 -2.4877
31551SOL    HW299784   0.073   2.911  10.242 -1.2865 -1.3351 -0.5669
31552SOL     OW99785   1.214   2.288   0.632 -0.4137 -0.5299 -0.1154
31552SOL    HW199786   1.182   2.373   0.602 -1.3475 -1.2385 -1.1574
31552SOL    HW299787   1.156   2.224   0.590 -0.3968 -1.6354  1.5280
31553SOL     OW99788   9.189   7.902   1.344 -0.1725  0.5860 -0.4916
31553SOL    HW199789   9.242   7.962   1.290  0.4386  0.5481  0.0519
31553SOL    HW299790   9.221   7.917   1.433 -0.0188 -0.5475 -0.3476
31554SOL     OW99791   0.303   9.944  11.220  0.0604  0.6010 -0.8928
31554SOL    HW199792   0.246  10.015  11.190 -1.6611  0.2608  1.4688
31554SOL    HW299793   0.244   9.871  11.236  1.2476 -0.0350  0.7462
31555SOL     OW99794   1.034   5.760   1.015  0.6757 -0.1679  0.0525
31555SOL    HW199795   1.073   5.750   1.101  0.2085  1.5373  0.4881
31555SOL    HW299796   1.106   5.749   0.953  1.5278  1.2376  0.7791
31556SOL     OW99797   8.227   9.046   8.317  0.4736 -1.0186 -0.3236
31556SOL    HW199798   8.159   8.991   8.278  0.3319 -1.6014  0.7536
31556SOL    HW299799   8.309   9.007   8.288  0.3665 -0.6496 -1.1483
31557SOL     OW99800   7.286   9.265   1.875  0.2965  0.4308 -0.3060
31557SOL    HW199801   7.191   9.275   1.868  0.1243  0.0003  1.3241
31557SOL    HW299802   7.313   9.333   1.937  0.4916 -2.1396  2.5136
31558SOL     OW99803   7.256   1.125   9.739 -0.2945 -0.3953 -0.0269
31558SOL    HW199804   7.261   1.191   9.670 -0.0885 -0.4707 -0.0861
31558SOL    HW299805   7.317   1.056   9.710  0.8901  0.2268  0.9471
31559SOL     OW99806   2.598   7.509   8.523 -0.7264 -0.2454  0.1206
31559SOL    HW199807   2.554   7.425   8.540 -1.2915  0.2722  1.2818
31559SOL    HW299808   2.559   7.569   8.587  0.2057  0.7224 -0.2178
31560SOL     OW99809   8.301   8.654   2.171 -0.5909 -0.4751 -0.1354
31560SOL    HW199810   8.368   8.662   2.104 -1.7461 -0.9022 -1.3725
31560SOL    HW299811   8.301   8.561   2.194 -1.0051 -0.5514 -0.4224
31561SOL     OW99812  10.235   8.242   8.553  0.2025 -0.2001  0.4774
31561SOL    HW199813  10.330   8.237   8.549  0.1236 -0.7218 -1.0916
31561SOL    HW299814  10.217   8.303   8.625  1.7212  0.4770  0.3004
31562SOL     OW99815   4.846  10.506   2.630 -0.3746  0.0839 -0.2715
31562SOL    HW199816   4.862  10.512   2.536 -1.5015 -2.8719 -0.6945
31562SOL    HW299817   4.856  10.413   2.651 -0.6387  0.6132  2.4494
31563SOL     OW99818   3.568   6.310   1.472  0.0141 -0.2565  0.1566
31563SOL    HW199819   3.637   6.293   1.409 -1.1393 -1.0500 -0.9276
31563SOL    HW299820   3.550   6.225   1.512  0.0518  0.0532  0.8359
31564SOL     OW99821   6.806   6.532  11.140  0.6024 -0.0287 -0.1416
31564SOL    HW199822   6.712   6.523  11.124  0.2524  2.0844  0.5880
31564SOL    HW299823   6.813   6.551  11.234  1.5522  2.1161 -0.6033
31565SOL     OW99824   1.123   7.809   4.279 -0.2538 -0.1982  0.1534
31565SOL    HW199825   1.090   7.745   4.216 -0.5645  0.0974  0.0184
31565SOL    HW299826   1.218   7.810   4.265  0.0061 -2.1446  1.5634
31566SOL     OW99827   6.015   6.792   1.947  0.0375 -0.2883  0.3353
31566SOL    HW199828   6.047   6.837   2.025 -1.7945  0.8005  0.4910
31566SOL    HW299829   6.002   6.702   1.975 -1.3475  0.2657  1.5036
31567SOL     OW99830   4.409   8.467   7.156 -0.2529 -0.3983 -0.0280
31567SOL    HW199831   4.474   8.473   7.226 -1.9018  1.9405  1.3937
31567SOL    HW299832   4.452   8.505   7.079  0.2405  0.6359  0.7549
31568SOL     OW99833   2.318   1.569   2.154  0.2056  0.3127  0.3385
31568SOL    HW199834   2.259   1.577   2.229  2.0663  0.6781  1.8078
31568SOL    HW299835   2.315   1.655   2.112  0.1707  0.5318  0.7830
31569SOL     OW99836   9.670  11.045  10.128  0.5360  0.0312  0.1798
31569SOL    HW199837   9.644  11.036  10.220  1.7915 -1.4737  0.4088
31569SOL    HW299838   9.636  10.966  10.086  2.1264 -0.5145 -0.1210
31570SOL     OW99839  11.175   7.486   7.422 -0.2183  0.4132 -0.1264
31570SOL    HW199840  11.257   7.527   7.448 -0.3978 -0.4633  1.9384
31570SOL    HW299841  11.199   7.429   7.348  0.7028  1.4057 -0.6008
31571SOL     OW99842  11.264   8.201   7.960 -0.4505 -0.5822  0.0748
31571SOL    HW199843  11.332   8.194   7.893 -1.2969 -0.5741 -0.8037
31571SOL    HW299844  11.241   8.294   7.962 -2.4899 -0.9814 -1.7616
31572SOL     OW99845   7.353   0.417   3.338  0.3497  0.0597  0.1686
31572SOL    HW199846   7.391   0.408   3.251 -0.4219  0.4902 -0.2093
31572SOL    HW299847   7.326   0.508   3.344 -0.1331 -0.1135  0.6465
31573SOL     OW99848   6.464  10.169   9.995 -0.0754 -0.0507 -0.6089
31573SOL    HW199849   6.514  10.250   9.981 -0.1619  0.1113 -0.0019
31573SOL    HW299850   6.530  10.100   9.995 -0.1078 -0.0957 -2.1358
31574SOL     OW99851   8.978   3.673  10.473 -0.3756  0.0006  0.5159
31574SOL    HW199852   9.064   3.671  10.432 -0.2178 -0.4329  0.8784
31574SOL    HW299853   8.994   3.655  10.565 -1.1306 -2.6595  0.1693
31575SOL     OW99854   1.896   0.951  10.520 -0.0036 -0.4433 -0.5579
31575SOL    HW199855   1.899   1.035  10.474 -0.1148  0.1281  0.4902
31575SOL    HW299856   1.922   0.971  10.610 -0.5985 -1.4358 -0.1594
31576SOL     OW99857   6.649   5.924  10.847 -0.5786  0.3152 -0.6420
31576SOL    HW199858   6.620   5.837  10.876 -0.0826  0.6587  0.9471
31576SOL    HW299859   6.582   5.952  10.784 -2.0248 -0.2252  0.6071
31577SOL     OW99860   4.500   3.798   4.039  0.1780 -0.1781 -0.2542
31577SOL    HW199861   4.504   3.755   3.954 -1.6284 -0.5541 -0.1710
31577SOL    HW299862   4.454   3.736   4.095  0.7113  0.3725  0.8227
31578SOL     OW99863   1.444   5.309  10.812 -0.1086  0.5035  0.3436
31578SOL    HW199864   1.498   5.343  10.740  0.3711 -2.5715 -0.8576
31578SOL    HW299865   1.379   5.253  10.769 -2.6210  2.0488  2.0002
31579SOL     OW99866   1.501   9.530   5.912 -0.0104  0.3093  0.8856
31579SOL    HW199867   1.546   9.567   5.989 -1.6589  0.5263  1.7724
31579SOL    HW299868   1.571   9.517   5.848  1.0475  2.4036  1.5459
31580SOL     OW99869  10.939   1.934   4.399  0.1872  0.2545  0.2298
31580SOL    HW199870  10.872   1.871   4.372  0.3214  0.1804  0.0692
31580SOL    HW299871  10.995   1.944   4.322  0.8211 -0.2809  0.6140
31581SOL     OW99872   8.875   9.700   7.848 -0.1325 -0.2238 -0.5089
31581SOL    HW199873   8.800   9.672   7.796 -0.1024  0.2530 -0.8084
31581SOL    HW299874   8.839   9.764   7.910  0.2485  0.9254 -1.4711
31582SOL     OW99875   9.114  10.752   4.129  0.6047 -0.2653 -0.4708
31582SOL    HW199876   9.092  10.845   4.132  2.0004  0.0251  1.3753
31582SOL    HW299877   9.090  10.719   4.216  0.6347 -1.5091 -0.9284
31583SOL     OW99878   0.082   7.104  10.258 -0.4037  0.2755  0.0193
31583SOL    HW199879   0.171   7.136  10.275 -0.6805  0.7014  0.7099
31583SOL    HW299880   0.081   7.083  10.165  0.4443  0.2065  0.0211
31584SOL     OW99881   3.828   7.867   4.111 -0.2835 -0.7735  0.2676
31584SOL    HW199882   3.811   7.804   4.042 -0.0948 -0.8440  0.2826
31584SOL    HW299883   3.743   7.906   4.132 -0.3719 -0.9068  0.1456
31585SOL     OW99884   7.278   9.613   4.508 -0.0625  0.5926  0.4364
31585SOL    HW199885   7.293   9.544   4.443  0.3002  0.6582  0.4485
31585SOL    HW299886   7.325   9.689   4.473 -0.2658  0.7659  0.5387
31586SOL     OW99887   2.631   9.238   0.985  0.3244  0.2122 -0.3415
31586SOL    HW199888   2.644   9.153   0.944  2.3484 -0.3880  1.4469
31586SOL    HW299889   2.538   9.240   1.007 -0.1195 -0.7638 -1.9967
31587SOL     OW99890   0.674   0.137   4.134  0.0090 -0.3378  0.3585
31587SOL    HW199891   0.739   0.143   4.064 -1.1609  1.0669 -0.6280
31587SOL    HW299892   0.689   0.215   4.187 -0.0853 -0.6286  0.8070
31588SOL     OW99893   6.734  11.331  10.848 -0.0443 -0.5314 -0.5832
31588SOL    HW199894   6.712  11.360  10.760 -3.0756  1.6686  0.7935
31588SOL    HW299895   6.651  11.299  10.884  0.7620  0.1614  1.9857
31589SOL     OW99896   2.394   9.479   3.585  0.3661 -0.0590  0.2509
31589SOL    HW199897   2.391   9.508   3.676  0.2946  0.5522  0.0571
31589SOL    HW299898   2.303   9.481   3.556 -0.0041 -3.0868  1.0319
31590SOL     OW99899   3.029   7.651   8.422  0.4101 -0.5950 -0.3456
31590SOL    HW199900   3.012   7.558   8.404  1.5280 -1.0275  0.7581
31590SOL    HW299901   2.944   7.686   8.449  0.0202 -1.3295 -0.5888
31591SOL     OW99902   6.128  10.104   2.073  0.1587 -0.0087 -0.2640
31591SOL    HW199903   6.052  10.157   2.051  0.4138  0.3254 -0.3606
31591SOL    HW299904   6.107  10.016   2.042 -0.9252 -0.3304  1.3135
31592SOL     OW99905   1.931   6.675   2.514  0.4509 -0.1269  0.0670
31592SOL    HW199906   2.000   6.629   2.561 -1.1323 -1.8802  0.7046
31592SOL    HW299907   1.918   6.755   2.564  1.9054  0.1722  0.0087
31593SOL     OW99908   1.551   1.583   3.137  0.5683 -0.3205 -0.1596
31593SOL    HW199909   1.582   1.633   3.212  2.1039  0.6781 -1.4274
31593SOL    HW299910   1.461   1.614   3.124  1.8090  2.9539 -1.5414
31594SOL     OW99911   9.152   7.305   8.582 -0.5895 -0.1221  0.5828
31594SOL    HW199912   9.194   7.303   8.497 -0.1810 -0.0708  0.7814
31594SOL    HW299913   9.088   7.377   8.576 -1.1020 -0.6143  0.0730
31595SOL     OW99914   2.641  10.135   1.437 -0.0122  0.0710 -0.0232
31595SOL    HW199915   2.638  10.137   1.341 -1.4156 -1.5073 -0.0394
31595SOL    HW299916   2.692  10.057   1.458  1.4735  1.1729  0.5283
31596SOL     OW99917   1.518   4.473   2.623 -0.3069  0.1575  0.3313
31596SOL    HW199918   1.460   4.420   2.678 -0.5472 -0.1080 -0.1746
31596SOL    HW299919   1.560   4.534   2.684 -0.3146 -0.3604  0.8596
31597SOL     OW99920  10.753   3.259   4.895  0.0100  0.5580  0.4394
31597SOL    HW199921  10.838   3.239   4.933 -0.5501  0.0576  1.4597
31597SOL    HW299922  10.734   3.348   4.925 -0.2686  0.2976  1.0577
31598SOL     OW99923   4.425   3.224   5.211 -0.0053 -0.1841 -0.2969
31598SOL    HW199924   4.445   3.315   5.186 -0.3274 -0.3208 -1.0755
31598SOL    HW299925   4.510   3.185   5.230  0.3950 -0.4300 -2.4490
31599SOL     OW99926   3.010   5.752   6.950  0.4534  0.2408 -0.1124
31599SOL    HW199927   3.087   5.797   6.985 -0.3449 -1.0843  3.5052
31599SOL    HW299928   2.954   5.736   7.026 -1.0104 -3.5351 -1.8702
31600SOL     OW99929   0.716   9.036   2.293  0.6718 -0.4649 -0.5680
31600SOL    HW199930   0.747   8.956   2.335  0.1504 -0.3465  0.0445
31600SOL    HW299931   0.753   9.107   2.345  1.5723 -0.3023 -1.4284
31601SOL     OW99932   2.207   7.571   5.723 -0.6183  0.4641  0.2211
31601SOL    HW199933   2.135   7.510   5.707  0.0389 -0.3421  0.2790
31601SOL    HW299934   2.217   7.573   5.818  0.0287 -0.1381  0.1714
31602SOL     OW99935   5.467   6.497   0.295  0.1637 -0.2313 -0.7004
31602SOL    HW199936   5.514   6.504   0.212  1.1715  2.6782  0.0392
31602SOL    HW299937   5.481   6.407   0.324  2.7123 -0.2857 -1.9775
31603SOL     OW99938   2.113   5.683   8.652  0.1544  0.5542  0.5353
31603SOL    HW199939   2.057   5.646   8.720 -0.0931  1.7160  0.9704
31603SOL    HW299940   2.075   5.651   8.569 -0.7409  0.7703  0.8543
31604SOL     OW99941   9.576   5.498   6.060  0.1527  0.0896  0.4340
31604SOL    HW199942   9.573   5.457   5.974  0.3222  0.8625  0.0514
31604SOL    HW299943   9.617   5.583   6.044  0.7610 -0.0238  1.3804
31605SOL     OW99944   0.228   1.694   6.454 -0.0435  0.2252  0.1643
31605SOL    HW199945   0.214   1.736   6.369  0.5854 -1.4943 -0.7951
31605SOL    HW299946   0.140   1.671   6.484 -0.1394 -0.7413 -0.8359
31606SOL     OW99947   6.732   1.770   7.417  0.4614  0.2133 -0.2019
31606SOL    HW199948   6.672   1.826   7.368 -0.3615 -0.3093  0.2049
31606SOL    HW299949   6.779   1.720   7.350 -0.3821 -0.2196 -0.4715
31607SOL     OW99950  10.641  10.459   2.965 -0.4405  0.3945  0.2681
31607SOL    HW199951  10.719  10.473   2.910 -0.0413  1.4507  1.0886
31607SOL    HW299952  10.583  10.407   2.910  1.5329 -1.8899  0.2583
31608SOL     OW99953   7.273   7.511  11.169 -0.6445 -0.1981  0.5013
31608SOL    HW199954   7.296   7.437  11.225 -1.5756 -0.2051  0.8825
31608SOL    HW299955   7.274   7.475  11.080  0.2532 -0.3315  0.5666
31609SOL     OW99956  11.205   0.674   4.030 -0.2332 -0.3893 -0.0858
31609SOL    HW199957  11.148   0.740   4.071  0.8167  0.4201  0.0809
31609SOL    HW299958  11.248   0.720   3.958  1.3820 -0.5645  0.7438
31610SOL     OW99959  10.869   2.322   1.598  0.5667  0.0611  0.3469
31610SOL    HW199960  10.961   2.322   1.571  0.8540  1.2668  1.3168
31610SOL    HW299961  10.849   2.414   1.616 -1.3594  0.0662 -1.6259
31611SOL     OW99962   0.553   8.080   1.790 -0.0567 -0.0513  0.2529
31611SOL    HW199963   0.602   8.049   1.866 -1.2029 -0.4243  0.8427
31611SOL    HW299964   0.534   8.172   1.810  0.2933  0.0596  0.0782
31612SOL     OW99965   6.411   4.711   7.104 -0.3001  0.3048 -0.0963
31612SOL    HW199966   6.355   4.730   7.179  0.5374  0.1352  0.5811
31612SOL    HW299967   6.495   4.752   7.126  0.6367 -1.6218  0.0682
31613SOL     OW99968   1.094   3.575   7.422  0.6356 -0.1043 -0.2483
31613SOL    HW199969   1.148   3.653   7.431  1.3306 -0.4323 -1.4463
31613SOL    HW299970   1.006   3.608   7.404  0.9507  0.4078 -0.8766
31614SOL     OW99971  10.728   7.152   3.799  0.1626 -0.7998  0.0354
31614SOL    HW199972  10.789   7.158   3.725 -0.1190 -0.9131 -0.2064
31614SOL    HW299973  10.677   7.073   3.782  0.7765 -1.3908  0.8803
31615SOL     OW99974   7.327   8.013   4.319 -0.1107 -0.3000 -0.3074
31615SOL    HW199975   7.338   8.097   4.275 -1.1552 -0.1900 -0.3519
31615SOL    HW299976   7.413   7.970   4.310  0.2004  0.4455 -0.9266
31616SOL     OW99977  10.096   6.592   5.369  0.9609 -0.0118 -0.2286
31616SOL    HW199978  10.013   6.629   5.398 -0.0978 -2.9151  0.6653
31616SOL    HW299979  10.084   6.580   5.274 -0.1737 -1.5677  0.0805
31617SOL     OW99980   8.577  10.240   5.986 -0.2675 -0.1639 -0.3152
31617SOL    HW199981   8.620  10.217   5.903 -0.1325  1.3016 -0.6713
31617SOL    HW299982   8.649  10.245   6.049 -0.1020  0.6769 -0.5572
31618SOL     OW99983   2.730   9.301   7.401  0.3269  0.4737 -0.1396
31618SOL    HW199984   2.694   9.388   7.384  0.5380  0.8933  1.4656
31618SOL    HW299985   2.790   9.314   7.474  2.1620 -0.5983 -1.4313
31619SOL     OW99986   8.411   0.474   2.069 -1.1638 -0.3920  0.6059
31619SOL    HW199987   8.497   0.514   2.084 -0.2762 -0.1117 -4.5301
31619SOL    HW299988   8.427   0.380   2.078 -0.5045 -0.3022  0.3906
31620SOL     OW99989   0.530   1.203   5.412 -0.0644  0.1057  0.2519
31620SOL    HW199990   0.614   1.250   5.415 -0.3247  0.5230  0.8956
31620SOL    HW299991   0.493   1.214   5.499 -0.4066 -0.7897  0.2244
31621SOL     OW99992   3.801   1.444   1.416  0.2367  0.3326  0.0190
31621SOL    HW199993   3.729   1.501   1.392  0.7362  1.6640  1.6058
31621SOL    HW299994   3.880   1.495   1.399  0.7316 -0.2511  0.5032
31622SOL     OW99995   9.491  10.520   9.489 -0.1324  0.7723 -0.9576
31622SOL    HW199996   9.516  10.491   9.577 -1.5695 -0.1926 -0.8335
31622SOL    HW299997   9.554  10.587   9.466  0.1885  1.1100  0.8672
31623SOL     OW99998   5.561   9.024   0.107 -0.2805 -0.2242 -0.0437
31623SOL    HW199999   5.521   8.985   0.029 -0.0855 -0.4910 -0.0078
31623SOL    HW2    0   5.651   8.992   0.107  0.3313  1.3937 -0.8383
31624SOL     OW    1   4.495   1.311   0.743 -0.1811  0.3367  0.2448
31624SOL    HW1    2   4.570   1.348   0.790  0.7926 -0.4804 -0.6371
31624SOL    HW2    3   4.508   1.216   0.749 -0.4422  0.2165 -1.0189
31625SOL     OW    4   1.398   1.062   8.927  0.3301  0.7572 -0.7189
31625SOL    HW1    5   1.351   1.129   8.877  0.9475  0.3142 -1.9041
31625SOL    HW2    6   1.340   0.985   8.925  0.7421  0.4624 -1.5058
31626SOL     OW    7   7.045   1.595  10.196  0.3066 -0.0317 -0.2519
31626SOL    HW1    8   7.099   1.516  10.187  0.6780  0.1716  0.1999
31626SOL    HW2    9   6.982   1.574  10.264 -1.2345 -0.8521 -1.8812
31627SOL     OW   10   9.407   3.330   7.794  0.1843  0.6962  0.1783
31627SOL    HW1   11   9.364   3.388   7.857 -0.8713  0.9704 -0.7750
31627SOL    HW2   12   9.462   3.272   7.848 -0.8363  0.8096  1.3629
31628SOL     OW   13   0.803   1.610   0.007 -0.3526 -0.5190 -0.0639
31628SOL    HW1   14   0.809   1.686   0.065 -0.4899 -0.9333  0.5005
31628SOL    HW2   15   0.761   1.643  -0.072 -0.0597  0.0785  0.0309
31629SOL     OW   16   6.656   2.613   9.033  0.5500  0.0523 -0.8734
31629SOL    HW1   17   6.736   2.596   8.984  0.9754  0.6674 -0.4021
31629SOL    HW2   18   6.662   2.557   9.110  0.0885 -0.5891 -1.3010
31630SOL     OW   19   5.823   6.418   0.449  0.1259  0.1898  0.2976
31630SOL    HW1   20   5.758   6.353   0.422 -0.1464  0.9731 -0.9783
31630SOL    HW2   21   5.807   6.430   0.543  0.2340 -1.6333  0.5546
31631SOL     OW   22  10.260  10.274   2.351 -0.0185 -0.0077  0.2237
31631SOL    HW1   23  10.176  10.271   2.305 -0.5666  0.1508  1.2130
31631SOL    HW2   24  10.302  10.354   2.319  0.8270 -1.3080 -2.0980
31632SOL     OW   25   9.869   1.681   0.718 -0.2700 -0.0039  0.1465
31632SOL    HW1   26   9.856   1.661   0.811  0.6334 -0.5199  0.1691
31632SOL    HW2   27   9.960   1.657   0.701 -0.0203  1.3743 -0.5421
31633SOL     OW   28  10.551   2.381   2.763 -0.1007 -0.0936 -0.4953
31633SOL    HW1   29  10.536   2.391   2.669  2.2135 -2.3638 -1.1575
31633SOL    HW2   30  10.496   2.307   2.789 -3.0760  2.3817  0.6455
31634SOL     OW   31   2.250   2.934   1.818  0.0383 -0.5826  0.4984
31634SOL    HW1   32   2.339   2.903   1.804  0.5504 -0.1750  2.6958
31634SOL    HW2   33   2.245   3.016   1.768 -0.0142 -1.9630 -1.8759
31635SOL     OW   34   1.077  11.170   2.877 -0.1215 -0.3094  0.0849
31635SOL    HW1   35   1.061  11.204   2.965 -1.5190 -2.2822  0.6327
31635SOL    HW2   36   1.111  11.245   2.828 -0.2856  1.0741  2.0192
31636SOL     OW   37   0.730   6.012   6.714 -0.2192 -0.4161  0.3388
31636SOL    HW1   38   0.720   6.067   6.636  0.2871 -0.6704  0.0936
31636SOL    HW2   39   0.642   6.007   6.752 -0.0997  1.3223  0.8774
31637SOL     OW   40   8.353   7.939  10.766 -0.0102  0.0407 -0.2818
31637SOL    HW1   41   8.258   7.929  10.758  0.0747 -0.3083 -0.8699
31637SOL    HW2   42   8.365   8.033  10.779 -0.5054 -0.0459  0.8599
31638SOL     OW   43   1.959   8.411   6.657  0.2028 -0.4295  1.0045
31638SOL    HW1   44   1.893   8.480   6.655  0.9040  0.2101 -0.7963
31638SOL    HW2   45   2.033   8.450   6.702  0.2815 -0.3043  0.7647
31639SOL     OW   46  11.079   2.165   7.440  0.0162 -0.2754 -0.3366
31639SOL    HW1   47  11.083   2.255   7.471 -0.3995 -0.0029 -1.0453
31639SOL    HW2   48  10.996   2.161   7.392  1.0176 -0.4531 -2.0926
31640SOL     OW   49  10.964   5.609   7.310 -0.0397  0.5517  0.5455
31640SOL    HW1   50  10.965   5.583   7.218  0.3060  4.6615 -0.7207
31640SOL    HW2   51  11.053   5.594   7.340  0.5014  1.4590 -0.5426
31641SOL     OW   52   6.386   3.759   4.565 -0.3209 -0.2902 -0.6336
31641SOL    HW1   53   6.303   3.726   4.599 -0.3662 -0.1591 -0.6173
31641SOL    HW2   54   6.426   3.805   4.638 -0.5816  0.2951 -0.8565
31642SOL     OW   55  10.600   0.533   2.003  0.0076  0.3020  0.5326
31642SOL    HW1   56  10.543   0.608   1.993 -0.9033 -0.0072  3.0203
31642SOL    HW2   57  10.686   0.570   2.025  0.5929  0.7320 -2.3480
31643SOL     OW   58  11.259   4.006   2.798  0.2765  0.1295 -0.0160
31643SOL    HW1   59  11.256   4.098   2.825 -2.2293  0.3010 -0.7697
31643SOL    HW2   60  11.245   3.958   2.880  3.2973  0.3169  0.6752
31644SOL     OW   61   3.917   2.173   1.690  0.2355 -0.2298 -0.1159
31644SOL    HW1   62   3.833   2.203   1.725  0.3904 -0.2687  0.2887
31644SOL    HW2   63   3.900   2.156   1.597 -0.6533 -1.9106  0.3363
31645SOL     OW   64   7.518   5.381   4.195 -0.1045  0.0294 -0.2275
31645SOL    HW1   65   7.575   5.414   4.266  0.9102  0.2750 -1.1418
31645SOL    HW2   66   7.487   5.460   4.151 -0.4969 -0.1373 -0.2532
31646SOL     OW   67   0.782   6.000   2.079 -0.3457 -0.2271 -0.0941
31646SOL    HW1   68   0.740   6.017   1.994 -1.0095  1.5799  0.5718
31646SOL    HW2   69   0.740   6.061   2.139  1.0789 -0.5522  1.2576
31647SOL     OW   70   8.108   2.465  10.285 -0.0421  0.2038 -0.1319
31647SOL    HW1   71   8.029   2.489  10.236 -0.2788  2.4211  1.2556
31647SOL    HW2   72   8.139   2.548  10.321  0.7632 -1.1997  2.5333
31648SOL     OW   73  10.531   5.685   5.581 -0.0136 -0.3398  0.0349
31648SOL    HW1   74  10.582   5.747   5.633 -0.9250 -1.0276  1.7833
31648SOL    HW2   75  10.576   5.601   5.592  0.8273 -0.1682 -1.7818
31649SOL     OW   76   1.680   3.498   5.358  0.1501 -0.5883 -0.8656
31649SOL    HW1   77   1.705   3.494   5.450 -0.8698 -1.2753 -0.6033
31649SOL    HW2   78   1.623   3.422   5.345  0.8433 -0.8926 -2.2452
31650SOL     OW   79   8.251   4.470   9.578 -0.2524  0.2138  0.5471
31650SOL    HW1   80   8.205   4.462   9.495 -1.6411  0.9442  1.2313
31650SOL    HW2   81   8.228   4.557   9.611  1.9181  0.7473  0.7455
31651SOL     OW   82   4.093   6.495   5.869 -0.0248 -0.4127 -0.3788
31651SOL    HW1   83   4.103   6.401   5.881 -0.3354 -0.5086 -0.8944
31651SOL    HW2   84   4.170   6.521   5.818  0.7168 -0.1804  0.8344
31652SOL     OW   85   2.949  11.238  11.163  0.5989  0.0346  0.2023
31652SOL    HW1   86   3.028  11.208  11.207  0.8532  0.3915 -0.0050
31652SOL    HW2   87   2.896  11.277  11.232  0.0102 -1.3944  0.5753
31653SOL     OW   88   0.892  10.674   5.915  0.3440  0.4191  0.3961
31653SOL    HW1   89   0.880  10.684   5.821  0.3666  0.9790  0.4528
31653SOL    HW2   90   0.803  10.659   5.949  0.2348  1.0078  0.3796
31654SOL     OW   91   5.808   1.951  10.904 -0.0101  0.2120  0.0388
31654SOL    HW1   92   5.743   1.999  10.852 -2.6078 -0.1998  2.8002
31654SOL    HW2   93   5.833   2.012  10.973 -1.1186 -1.3023  1.8182
31655SOL     OW   94   8.486   7.763   7.314  0.4453  0.5677  0.0081
31655SOL    HW1   95   8.532   7.738   7.234  0.1246 -0.2368  0.0690
31655SOL    HW2   96   8.487   7.684   7.368  0.3354  0.9962  0.6429
31656SOL     OW   97   8.009   3.298   4.440  0.5180  0.1363  1.1437
31656SOL    HW1   98   8.004   3.380   4.490  1.0486  1.9057 -1.5428
31656SOL    HW2   99   8.056   3.322   4.360  0.4946 -2.7719  0.1918
31657SOL     OW  100   3.297   2.884   3.766  0.0996  0.0948 -0.5830
31657SOL    HW1  101   3.313   2.944   3.693 -1.3536  1.2014 -0.0223
31657SOL    HW2  102   3.232   2.823   3.734 -0.2296  0.3246 -0.3556
31658SOL     OW  103   0.531   8.021   1.045  0.0544 -0.0062  0.6601
31658SOL    HW1  104   0.478   7.959   0.995  1.2279  0.3102 -0.9967
31658SOL    HW2  105   0.525   8.103   0.996  3.5619 -0.4266 -0.5962
31659SOL     OW  106   3.610   0.504   1.932 -0.5128 -0.1343 -0.1933
31659SOL    HW1  107   3.682   0.442   1.940 -0.3810 -0.1438 -1.3354
31659SOL    HW2  108   3.531   0.452   1.947 -0.3616 -0.4433 -0.4610
31660SOL     OW  109   9.876   5.662   6.918  0.4619  0.1427 -0.4757
31660SOL    HW1  110   9.963   5.672   6.958 -0.0418  1.8928  0.2609
31660SOL    HW2  111   9.858   5.747   6.878 -1.1780  0.0197 -0.0535
31661SOL     OW  112   1.403   0.050   0.005  0.0535  0.2117  0.2371
31661SOL    HW1  113   1.335   0.035  -0.061 -1.0214  1.5640  0.9960
31661SOL    HW2  114   1.368   0.010   0.084 -0.1419  1.4059  0.7727
31662SOL     OW  115   6.404   4.075   2.971 -0.0645 -0.1565 -0.0450
31662SOL    HW1  116   6.308   4.075   2.970 -0.0676  0.8199 -0.1971
31662SOL    HW2  117   6.428   4.145   2.910  0.7464 -0.4276 -0.0351
31663SOL     OW  118  10.423   4.710   2.238  0.1333  0.1940 -0.0006
31663SOL    HW1  119  10.498   4.651   2.246 -0.4742 -0.6220 -0.2207
31663SOL    HW2  120  10.461   4.797   2.237  1.0094 -0.1712  0.8848
31664SOL     OW  121  10.943   4.237   3.376 -0.5084 -0.1629  0.1030
31664SOL    HW1  122  10.975   4.219   3.288 -1.4244  1.4649 -0.5847
31664SOL    HW2  123  10.923   4.151   3.412 -0.0973 -0.8468 -1.2632
31665SOL     OW  124  10.886   1.653   4.592 -0.0355  0.0925 -0.1550
31665SOL    HW1  125  10.823   1.724   4.604  0.6890  0.4601  1.5359
31665SOL    HW2  126  10.948   1.686   4.527  0.1096  0.8855  0.3798
31666SOL     OW  127   9.453   5.471   6.337  0.1867 -0.2606  0.3148
31666SOL    HW1  128   9.510   5.471   6.261  2.5982 -2.3380  2.0286
31666SOL    HW2  129   9.428   5.563   6.348  2.0823  0.4905 -1.3073
31667SOL     OW  130   6.298   1.801   0.515  0.0090  0.5763  0.0291
31667SOL    HW1  131   6.321   1.739   0.584  1.2584  0.3178 -0.6043
31667SOL    HW2  132   6.211   1.832   0.538 -0.1709 -0.5949  0.9484
31668SOL     OW  133   9.810  10.865   7.073 -0.2393 -0.0432 -0.4661
31668SOL    HW1  134   9.836  10.837   6.986 -1.2260 -0.6542 -0.5810
31668SOL    HW2  135   9.739  10.805   7.097  0.1075  0.0458  0.7987
31669SOL     OW  136   7.411   0.142   7.260 -0.1347 -0.1669  0.3047
31669SOL    HW1  137   7.387   0.184   7.177 -0.5128  0.4932  0.7474
31669SOL    HW2  138   7.341   0.167   7.321 -0.6256 -1.8214  0.4599
31670SOL     OW  139   5.787   0.240   6.487  0.2928  0.3113  0.0681
31670SOL    HW1  140   5.776   0.328   6.523 -0.6075  0.3834 -0.3601
31670SOL    HW2  141   5.875   0.239   6.451  0.2436  1.0884 -0.0755
31671SOL     OW  142   9.614   4.533   1.595  0.3834  0.2118  0.1736
31671SOL    HW1  143   9.540   4.475   1.613  0.3095  0.3690  0.3853
31671SOL    HW2  144   9.649   4.502   1.512  0.0380  0.1776  0.0400
31672SOL     OW  145  10.505  10.344   6.556 -0.6427  1.2512 -0.0391
31672SOL    HW1  146  10.600  10.349   6.565 -0.5812  2.0554 -1.0383
31672SOL    HW2  147  10.488  10.370   6.466 -1.7125 -0.3841 -0.3148
31673SOL     OW  148   9.170  10.244   2.008 -0.4550  0.2460 -0.3289
31673SOL    HW1  149   9.114  10.171   1.979  0.9299 -1.1839  0.5529
31673SOL    HW2  150   9.236  10.252   1.939  0.0150 -0.0246  0.0891
31674SOL     OW  151   3.758  10.838   0.436  0.2928 -0.0975 -0.1962
31674SOL    HW1  152   3.679  10.871   0.477  1.3282  1.0799  0.8791
31674SOL    HW2  153   3.828  10.896   0.466  1.5646 -1.0633 -1.1796
31675SOL     OW  154   7.475   1.897   2.720  0.6196  1.1622 -0.3934
31675SOL    HW1  155   7.484   1.974   2.776 -1.5143  1.5240 -0.4948
31675SOL    HW2  156   7.547   1.904   2.657  2.1257  1.5601  1.3363
31676SOL     OW  157   8.296   9.177   2.234  0.0161 -0.0435 -0.2272
31676SOL    HW1  158   8.207   9.151   2.258 -0.0170  0.6194  0.3940
31676SOL    HW2  159   8.344   9.177   2.317  0.4832  0.0405 -0.4953
31677SOL     OW  160   0.454   2.788   9.759  0.3913 -0.0274 -0.0300
31677SOL    HW1  161   0.378   2.758   9.709  1.2050 -0.8086 -0.8071
31677SOL    HW2  162   0.474   2.874   9.722 -0.7316  0.6313  0.8666
31678SOL     OW  163   4.101   6.954   9.084 -0.0607  0.7266 -0.3599
31678SOL    HW1  164   4.067   6.960   8.994  0.2279 -1.2331 -0.6253
31678SOL    HW2  165   4.196   6.956   9.074 -0.0082 -0.4640 -0.2022
31679SOL     OW  166   0.595   4.690   0.476 -0.0629  0.2681 -0.0394
31679SOL    HW1  167   0.629   4.685   0.566 -0.6793 -0.7693  0.1492
31679SOL    HW2  168   0.500   4.679   0.487 -0.3214  1.7562 -0.6775
31680SOL     OW  169   1.180   3.845   3.173 -0.8844 -0.0217 -0.4842
31680SOL    HW1  170   1.224   3.809   3.095  0.7096 -0.0743  0.4225
31680SOL    HW2  171   1.224   3.804   3.247 -1.5155  1.0191  0.4924
31681SOL     OW  172   1.972   9.208   9.559 -0.1533 -0.3664  0.3293
31681SOL    HW1  173   1.989   9.266   9.485 -0.0890 -0.6240  0.1415
31681SOL    HW2  174   2.058   9.188   9.595 -0.2894  1.2415  1.6271
31682SOL     OW  175   9.355   3.113   9.983 -0.1750  0.7421 -0.1404
31682SOL    HW1  176   9.430   3.172   9.993 -0.6542  1.1843  0.9294
31682SOL    HW2  177   9.344   3.073  10.069  1.8586 -3.0623 -1.5149
31683SOL     OW  178   2.311   6.955   7.634 -1.1108 -0.4600  0.0758
31683SOL    HW1  179   2.257   7.032   7.653 -0.4739 -0.2936  1.2678
31683SOL    HW2  180   2.324   6.957   7.539 -0.4591  1.3240  0.1998
31684SOL     OW  181   4.268   1.355   2.664 -0.7200  0.2254 -0.4868
31684SOL    HW1  182   4.287   1.264   2.640  0.2092 -0.6936  3.2931
31684SOL    HW2  183   4.190   1.348   2.720 -1.6378  1.9539 -1.5395
31685SOL     OW  184   0.286   8.809   0.849  0.6699 -0.0823  0.0659
31685SOL    HW1  185   0.329   8.806   0.764  0.9360 -0.3232  0.2077
31685SOL    HW2  186   0.206   8.758   0.838  0.9668 -0.5536  0.1093
31686SOL     OW  187   4.497   5.912   7.895 -0.2204 -0.0822  0.5917
31686SOL    HW1  188   4.546   5.991   7.916 -0.9158  0.6852 -0.6132
31686SOL    HW2  189   4.532   5.846   7.955 -0.1866  1.3166  2.1460
31687SOL     OW  190   6.928   2.154   9.735 -0.2110  0.4910  0.2243
31687SOL    HW1  191   6.894   2.094   9.669  1.4408 -1.4478  1.1003
31687SOL    HW2  192   6.852   2.206   9.762 -1.5797 -0.9312 -0.8193
31688SOL     OW  193   4.670   3.472   1.306 -0.9084 -0.1287  0.2226
31688SOL    HW1  194   4.664   3.510   1.394 -1.7913 -1.4574  0.7541
31688SOL    HW2  195   4.625   3.388   1.313 -0.7659 -0.3627 -1.4479
31689SOL     OW  196   0.631   3.282   7.100 -0.2191  0.1648  0.0949
31689SOL    HW1  197   0.573   3.249   7.031 -1.8581  1.1053  0.9721
31689SOL    HW2  198   0.593   3.367   7.124  0.7943  0.2110  1.5879
31690SOL     OW  199   8.618  11.024   9.962 -0.0266 -0.6068 -0.8709
31690SOL    HW1  200   8.562  10.949   9.941 -0.8696  0.0317 -0.8686
31690SOL    HW2  201   8.558  11.097   9.974  0.8699  0.2790 -1.7346
31691SOL     OW  202   7.103   8.002  11.080  0.2042 -0.1304 -0.1407
31691SOL    HW1  203   7.047   7.924  11.084  0.0359  0.0461  1.4606
31691SOL    HW2  204   7.177   7.975  11.027  1.1766 -2.1028  2.1161
31692SOL     OW  205   4.458   9.609   7.374  0.1414  0.1125  0.4254
31692SOL    HW1  206   4.483   9.697   7.401  1.5784 -0.2846  0.4233
31692SOL    HW2  207   4.430   9.566   7.455 -0.7762  0.6260  0.3913
31693SOL     OW  208  10.220   1.034   9.816  0.3377  0.6054  0.4083
31693SOL    HW1  209  10.233   0.988   9.899  1.8993  2.0542  1.0216
31693SOL    HW2  210  10.305   1.027   9.771 -0.0797  0.9820 -0.4587
31694SOL     OW  211   9.439   1.011   7.079  0.0434  0.5301 -0.5948
31694SOL    HW1  212   9.532   1.012   7.097 -0.0048  2.2348 -0.3721
31694SOL    HW2  213   9.402   0.951   7.143  1.1614 -1.3663 -1.6716
31695SOL     OW  214   6.526   1.087   4.775 -0.2728  0.2624 -0.3134
31695SOL    HW1  215   6.557   1.157   4.718 -1.5918  0.3300 -0.9662
31695SOL    HW2  216   6.496   1.131   4.855 -0.0528  0.3319 -0.2690
31696SOL     OW  217   5.643   2.384   0.418  0.2187  0.4541  0.0584
31696SOL    HW1  218   5.554   2.356   0.398 -0.3628  0.6401  2.2839
31696SOL    HW2  219   5.638   2.421   0.506  1.8281  3.5833 -1.0781
31697SOL     OW  220   6.843   1.960   4.090  0.3165 -0.1849 -0.3332
31697SOL    HW1  221   6.884   1.874   4.074 -1.8564 -1.0165 -1.6602
31697SOL    HW2  222   6.783   1.944   4.163  0.1124  0.2910 -0.4026
31698SOL     OW  223   8.619   3.576   3.447  0.2847 -0.2143 -0.2495
31698SOL    HW1  224   8.550   3.624   3.402 -1.5714 -0.3392  2.3092
31698SOL    HW2  225   8.685   3.559   3.380 -1.2756  1.6014 -2.3179
31699SOL     OW  226   9.478   1.887   6.248  0.1876 -0.0356 -0.4289
31699SOL    HW1  227   9.554   1.836   6.276  0.0360 -0.7096 -1.2267
31699SOL    HW2  228   9.511   1.976   6.238  0.6862 -0.1673  0.0136
31700SOL     OW  229   0.055  10.708   9.710  0.0094  0.1399  0.2414
31700SOL    HW1  230  -0.038  10.728   9.720  0.4591  0.9979  3.4355
31700SOL    HW2  231   0.099  10.774   9.764  2.3167 -1.8637  0.8926
31701SOL     OW  232   1.435   7.157   3.214  0.3890  0.1752 -0.6187
31701SOL    HW1  233   1.525   7.133   3.238  0.2289  0.0756 -0.1215
31701SOL    HW2  234   1.439   7.170   3.119  0.6379 -1.1168 -0.7946
31702SOL     OW  235   6.995   5.918   8.263 -0.2041  0.2175 -0.0443
31702SOL    HW1  236   6.930   5.865   8.309 -0.0037 -0.8091 -0.9057
31702SOL    HW2  237   7.079   5.882   8.291  0.0152  1.6504  1.2010
31703SOL     OW  238   4.039   9.229   1.144  0.4061 -0.2542  0.0143
31703SOL    HW1  239   4.084   9.191   1.219 -0.4730 -1.1401  0.0938
31703SOL    HW2  240   4.058   9.170   1.071 -1.5892 -1.2952  0.3027
31704SOL     OW  241   9.327   2.119   6.418  0.3469  0.0680  0.4046
31704SOL    HW1  242   9.353   2.045   6.474  0.1857 -0.8001 -0.6538
31704SOL    HW2  243   9.406   2.172   6.410  1.0430 -1.0845 -0.5152
31705SOL     OW  244   7.073   1.538   2.564 -0.2568 -0.1465  0.0181
31705SOL    HW1  245   7.062   1.578   2.478  0.7216 -1.0764 -0.5401
31705SOL    HW2  246   7.146   1.477   2.554  0.3148  0.2228  1.6763
31706SOL     OW  247   3.251   6.012   8.025 -0.1294 -0.1891 -0.2618
31706SOL    HW1  248   3.203   6.063   8.090 -0.4802  0.7000 -1.2129
31706SOL    HW2  249   3.244   6.062   7.944  2.9830  0.3265 -0.2934
31707SOL     OW  250   1.712  10.427   5.408  0.2496 -0.1394  0.0547
31707SOL    HW1  251   1.787  10.450   5.463 -0.7436 -0.6910  1.6964
31707SOL    HW2  252   1.749  10.373   5.338  1.4291 -0.1760  0.6942
31708SOL     OW  253   3.889   8.613  10.103 -0.0973 -0.1602  0.0904
31708SOL    HW1  254   3.801   8.587  10.078 -0.3906 -0.4555  1.3724
31708SOL    HW2  255   3.942   8.535  10.089  0.2796  0.4921 -2.1982
31709SOL     OW  256   1.545   7.406  10.647 -0.7796  0.4937  0.2490
31709SOL    HW1  257   1.538   7.421  10.553 -1.0203  0.0839  0.1985
31709SOL    HW2  258   1.473   7.455  10.685 -0.5801  0.7961  0.2350
31710SOL     OW  259   7.644   0.796   0.993 -0.6140  0.6580 -0.0887
31710SOL    HW1  260   7.704   0.867   1.015 -1.2545  1.4214 -0.7950
31710SOL    HW2  261   7.562   0.839   0.972 -2.0382 -0.4921  2.7802
31711SOL     OW  262   6.649   1.384   1.248 -0.4280 -0.2546 -0.4084
31711SOL    HW1  263   6.705   1.422   1.180 -2.3524 -1.0994 -2.4954
31711SOL    HW2  264   6.710   1.362   1.319  1.6886  0.1545 -2.0541
31712SOL     OW  265   9.674  10.380   6.355  0.3580 -0.1585  0.4661
31712SOL    HW1  266   9.678  10.395   6.261 -2.8757 -1.4262  0.0668
31712SOL    HW2  267   9.647  10.465   6.391  2.1434  0.4836  0.3668
31713SOL     OW  268   1.337  10.708   6.564  0.1433 -0.0416 -0.1191
31713SOL    HW1  269   1.403  10.724   6.631  2.1884  2.7851 -2.6266
31713SOL    HW2  270   1.254  10.730   6.606  1.2374  0.4357  1.8469
31714SOL     OW  271   9.109   4.271   3.440  0.0849  0.0615 -0.5587
31714SOL    HW1  272   9.144   4.184   3.462 -0.1332  0.0791 -0.1506
31714SOL    HW2  273   9.079   4.307   3.523  1.1223  0.9614 -0.5656
31715SOL     OW  274   2.666   9.980   9.515  0.5786 -0.1517 -0.4571
31715SOL    HW1  275   2.606   9.933   9.457  0.6229  0.2389 -0.8200
31715SOL    HW2  276   2.681  10.064   9.471  1.1562 -0.1284 -0.2188
31716SOL     OW  277   0.807   1.664   3.449 -0.4953 -0.2468 -0.2773
31716SOL    HW1  278   0.816   1.569   3.443  0.1749 -0.1486 -0.8654
31716SOL    HW2  279   0.807   1.682   3.543  1.0122 -0.6806 -0.1778
31717SOL     OW  280   1.546  10.621   0.828 -0.2384  0.6044  0.4023
31717SOL    HW1  281   1.596  10.623   0.909 -0.3075  0.2888  0.4543
31717SOL    HW2  282   1.588  10.553   0.776 -1.7307 -0.9581  1.1864
31718SOL     OW  283   5.281   1.640   9.536 -0.1288 -0.5742 -0.3894
31718SOL    HW1  284   5.242   1.580   9.600  1.2096  0.7738  1.7434
31718SOL    HW2  285   5.355   1.592   9.500  0.8780 -0.2604  1.2407
31719SOL     OW  286   8.397   0.205   6.241  0.0936  0.2175  0.2587
31719SOL    HW1  287   8.308   0.237   6.249  0.0368 -0.0986  0.9063
31719SOL    HW2  288   8.407   0.142   6.313  0.5851 -0.3166 -0.2659
31720SOL     OW  289   8.931   6.014   7.612  0.3485  0.0800 -0.2434
31720SOL    HW1  290   8.961   6.003   7.521  0.2677 -1.6283 -0.0779
31720SOL    HW2  291   8.836   5.997   7.608  0.4094 -0.3877  0.2206
31721SOL     OW  292   9.374   4.082   1.717 -0.5795 -0.5617 -1.1587
31721SOL    HW1  293   9.286   4.104   1.746  0.5553  0.7761  1.4903
31721SOL    HW2  294   9.396   4.002   1.765  0.1214 -0.1441 -0.7643
31722SOL     OW  295   4.582   4.287   9.467 -0.2874 -0.1017 -0.1238
31722SOL    HW1  296   4.669   4.325   9.476 -0.1800  0.0037 -1.4980
31722SOL    HW2  297   4.521   4.357   9.489 -0.0302 -0.7750  3.0127
31723SOL     OW  298   3.720   2.394   7.121  0.2840  0.4579  0.4701
31723SOL    HW1  299   3.722   2.484   7.155  1.1596  0.9772 -0.9044
31723SOL    HW2  300   3.689   2.404   7.031 -1.8776 -0.8822  1.0195
31724SOL     OW  301   6.814  10.809   4.750  0.2341 -0.4018 -0.0437
31724SOL    HW1  302   6.748  10.746   4.724  0.0673 -0.7175  1.1433
31724SOL    HW2  303   6.789  10.836   4.838  1.5926 -0.4126  0.3590
31725SOL     OW  304   7.952   6.409   8.087  0.2447  0.3961  0.0993
31725SOL    HW1  305   7.993   6.495   8.079  0.4774  0.2440 -0.3820
31725SOL    HW2  306   7.962   6.370   8.000 -0.0076 -0.0504  0.2698
31726SOL     OW  307   3.205   7.961   9.519  0.5065  0.0429 -0.0369
31726SOL    HW1  308   3.120   8.002   9.540 -0.2613 -1.6087  0.1747
31726SOL    HW2  309   3.210   7.965   9.424  1.8445  3.3292  0.0979
31727SOL     OW  310   2.457  10.560   9.945 -0.2460 -0.2488 -0.6487
31727SOL    HW1  311   2.532  10.540  10.001  0.3729 -2.0959 -2.0676
31727SOL    HW2  312   2.402  10.482   9.949 -0.6793 -0.0147 -1.7944
31728SOL     OW  313   2.644   2.871   1.994 -0.4373 -0.5909 -0.3522
31728SOL    HW1  314   2.589   2.919   1.932  0.6806 -1.4230 -2.0336
31728SOL    HW2  315   2.615   2.901   2.080 -2.0733  0.5396 -1.2653
31729SOL     OW  316   7.591   5.583   4.755 -0.0450 -0.2721  0.2433
31729SOL    HW1  317   7.686   5.578   4.763  0.0609  1.7592  0.3806
31729SOL    HW2  318   7.566   5.657   4.810 -1.6131 -0.1377 -0.6278
31730SOL     OW  319   5.618   7.981   5.075 -0.2815  0.4279  0.2292
31730SOL    HW1  320   5.678   8.013   5.142  0.1717  1.2711 -0.5637
31730SOL    HW2  321   5.539   7.956   5.122  0.2789  0.3858  1.1465
31731SOL     OW  322   9.937   9.079   7.341 -0.0051  0.5956  0.2041
31731SOL    HW1  323   9.928   9.009   7.406 -1.6828 -1.6768 -2.3478
31731SOL    HW2  324   9.856   9.129   7.348  0.8073  1.7632  1.4149
31732SOL     OW  325   6.756   9.870   9.819 -0.2569  0.8518  0.1009
31732SOL    HW1  326   6.773   9.901   9.908  0.9152  1.3594 -0.2922
31732SOL    HW2  327   6.705   9.939   9.778 -0.8784  0.5750  0.4042
31733SOL     OW  328   5.218   4.728   3.008 -0.3510  0.1106 -0.5575
31733SOL    HW1  329   5.206   4.658   3.072  3.0636 -0.7492 -0.7579
31733SOL    HW2  330   5.221   4.808   3.060  0.7362 -0.4250  0.2297
31734SOL     OW  331   4.069   8.646   2.885  0.4576  0.1922 -0.2920
31734SOL    HW1  332   3.994   8.677   2.936  0.3631 -0.8449  0.2073
31734SOL    HW2  333   4.132   8.618   2.951  0.3505 -1.1244 -0.7318
31735SOL     OW  334   2.560   9.910   9.765  0.1716  0.0434  0.6335
31735SOL    HW1  335   2.603   9.979   9.715  0.6043  0.1256  1.1285
31735SOL    HW2  336   2.493   9.876   9.705 -0.0773  0.9230  0.4160
31736SOL     OW  337   1.385   1.359   7.242 -0.8133  0.0869  0.2785
31736SOL    HW1  338   1.384   1.391   7.151  1.4598  0.9263  0.5033
31736SOL    HW2  339   1.333   1.423   7.290 -3.2979 -1.1706 -0.6432
31737SOL     OW  340   4.776   9.094   1.522  0.1622 -0.3153 -0.1568
31737SOL    HW1  341   4.801   9.006   1.551  4.6289  1.4529  1.7683
31737SOL    HW2  342   4.763   9.143   1.604  1.5453  1.7707 -1.1479
31738SOL     OW  343   9.868   7.849   0.640 -0.7015 -0.3108  0.6362
31738SOL    HW1  344   9.903   7.876   0.555 -0.8742 -0.4513  0.5195
31738SOL    HW2  345   9.846   7.931   0.684  1.3193 -0.1422  1.3769
31739SOL     OW  346   0.453   9.458  11.293  0.1812 -0.5454 -0.2195
31739SOL    HW1  347   0.450   9.473  11.199  0.9148 -0.8788 -0.2967
31739SOL    HW2  348   0.361   9.461  11.321  0.1494  2.6602 -0.4454
31740SOL     OW  349   9.387   3.406   2.403 -0.9823 -0.5604  0.2582
31740SOL    HW1  350   9.312   3.350   2.383  0.6159 -2.1860 -1.3416
31740SOL    HW2  351   9.458   3.345   2.423  0.8545  0.8594 -1.6758
31741SOL     OW  352   8.461   6.533   4.452  0.2079 -0.0084  0.6905
31741SOL    HW1  353   8.537   6.583   4.419  1.1740 -2.0947 -0.3641
31741SOL    HW2  354   8.414   6.507   4.372 -0.4783 -0.4505  1.2408
31742SOL     OW  355   6.163   6.355   3.963 -0.3759  0.2434  0.1266
31742SOL    HW1  356   6.156   6.283   3.900 -1.1100  1.1710 -0.8782
31742SOL    HW2  357   6.110   6.328   4.037  1.4532 -1.3910  0.8923
31743SOL     OW  358   1.995   6.690   3.145 -1.3012 -0.3885  0.2578
31743SOL    HW1  359   2.083   6.690   3.107 -0.9685  0.2458  1.0266
31743SOL    HW2  360   1.962   6.778   3.130 -2.6130 -1.2029 -1.8535
31744SOL     OW  361   3.090  10.644   2.900 -0.5055 -0.1610  0.2608
31744SOL    HW1  362   3.006  10.690   2.894 -2.0421 -2.7702  1.1718
31744SOL    HW2  363   3.139  10.694   2.965 -1.2954  1.4366 -0.3292
31745SOL     OW  364   3.012   4.651   6.699 -0.0273  0.8487  1.0200
31745SOL    HW1  365   2.948   4.580   6.703 -0.7516  1.4668  0.4277
31745SOL    HW2  366   3.089   4.611   6.657 -1.6937  1.3228 -2.6876
31746SOL     OW  367   2.596  10.701   9.358 -0.4443  0.1306  0.4672
31746SOL    HW1  368   2.502  10.710   9.370 -0.4846  1.2203 -0.4721
31746SOL    HW2  369   2.606  10.630   9.294 -0.5896 -0.4549  1.0947
31747SOL     OW  370   3.868   7.565   2.632  0.0368  0.1072  0.4250
31747SOL    HW1  371   3.901   7.546   2.544 -0.5702  1.3150 -0.0774
31747SOL    HW2  372   3.780   7.599   2.618 -0.3403 -0.3871  1.5561
31748SOL     OW  373   9.826   1.021   0.532 -0.3183  0.8109  0.3421
31748SOL    HW1  374   9.873   0.972   0.599  0.5210  0.6054 -0.3821
31748SOL    HW2  375   9.818   0.960   0.458 -2.6259  0.5053  0.8125
31749SOL     OW  376   3.800   3.799   2.068 -0.6604  0.9025  0.0692
31749SOL    HW1  377   3.830   3.832   2.153  0.3685 -0.9696  0.4555
31749SOL    HW2  378   3.876   3.753   2.031 -1.4690  0.6357 -1.3067
31750SOL     OW  379   5.503   1.475   5.183  0.3424  0.1694 -0.1107
31750SOL    HW1  380   5.439   1.406   5.204  0.2212  0.4255  0.3677
31750SOL    HW2  381   5.458   1.556   5.205  0.0292  0.4884 -1.8543
31751SOL     OW  382   3.026  11.084   6.848  0.1947 -0.0689  0.6188
31751SOL    HW1  383   2.944  11.035   6.843  0.1584  0.1112 -0.6516
31751SOL    HW2  384   3.027  11.119   6.937 -2.1025  1.6467  0.0269
31752SOL     OW  385   4.891   9.292   8.939  0.4173  0.1184  0.2703
31752SOL    HW1  386   4.860   9.304   8.849 -1.6459 -2.7416  0.5581
31752SOL    HW2  387   4.986   9.305   8.933  0.2867  0.1223 -2.3014
31753SOL     OW  388  10.727   7.905   9.003 -0.3551 -0.0918  0.5597
31753SOL    HW1  389  10.795   7.864   8.950 -0.5763 -0.1560  0.3203
31753SOL    HW2  390  10.764   7.989   9.031  0.0750 -0.4303  1.0022
31754SOL     OW  391   5.077   6.491   0.738 -0.1944  0.5574  0.3415
31754SOL    HW1  392   5.153   6.538   0.705 -0.0837  1.1352  1.3943
31754SOL    HW2  393   5.076   6.509   0.832 -1.6094  0.5243  0.3459
31755SOL     OW  394   6.590   6.270  11.176  0.1874 -0.0754  0.2820
31755SOL    HW1  395   6.638   6.248  11.256  1.3344  1.4483  0.0383
31755SOL    HW2  396   6.532   6.341  11.202 -0.9550 -0.9751  0.2362
31756SOL     OW  397   0.872   2.905   8.222 -0.4969 -0.0259  0.0014
31756SOL    HW1  398   0.856   2.828   8.277 -1.3611 -0.1894 -0.4684
31756SOL    HW2  399   0.803   2.902   8.156  0.5912  0.1217 -1.1530
31757SOL     OW  400   3.038   0.421   1.337  0.4449  0.4188  0.2265
31757SOL    HW1  401   3.003   0.341   1.297 -1.2737  0.7954  0.9678
31757SOL    HW2  402   3.133   0.410   1.331  0.2322 -0.8122 -1.3993
31758SOL     OW  403   2.394  10.036   8.441  0.1946  0.1052  0.1534
31758SOL    HW1  404   2.397  10.107   8.376 -0.4196  0.0949  0.1108
31758SOL    HW2  405   2.302  10.034   8.469  0.3647 -0.2030  0.6755
31759SOL     OW  406   9.366   1.771   5.162 -0.6855  0.3425 -0.5317
31759SOL    HW1  407   9.297   1.818   5.116 -0.7568  2.0130  1.2346
31759SOL    HW2  408   9.333   1.682   5.170 -2.2785  0.9306 -0.4242
31760SOL     OW  409   4.653   1.908   9.193  0.3393 -0.1821 -0.0790
31760SOL    HW1  410   4.720   1.840   9.193  1.1406  0.5934 -0.9129
31760SOL    HW2  411   4.623   1.912   9.102  0.9290  1.1790 -0.2305
31761SOL     OW  412   3.501  10.359   7.786  0.3979 -0.0587 -0.2739
31761SOL    HW1  413   3.462  10.445   7.770 -1.5471 -0.9744 -0.5897
31761SOL    HW2  414   3.592  10.369   7.760 -0.1200  1.5472 -1.5484
31762SOL     OW  415   2.631   9.135   4.250 -0.2984  0.3823 -0.0275
31762SOL    HW1  416   2.624   9.179   4.336  0.5539 -0.8976  0.7062
31762SOL    HW2  417   2.541   9.110   4.230 -0.4310  0.2073  0.7509
31763SOL     OW  418   5.174   0.174   3.609  0.7585  0.1456  0.0913
31763SOL    HW1  419   5.245   0.148   3.668  0.9500  0.5089  0.0204
31763SOL    HW2  420   5.211   0.163   3.522  1.1108  1.4211  0.0744
31764SOL     OW  421   5.189   0.507   6.979 -0.0887  0.4291 -0.0097
31764SOL    HW1  422   5.149   0.432   6.934  0.6952  0.9720 -1.6293
31764SOL    HW2  423   5.164   0.495   7.071 -4.1455  0.8741 -0.9755
31765SOL     OW  424   9.348   0.679   4.926  0.1967 -0.3951  0.2473
31765SOL    HW1  425   9.372   0.610   4.865  0.6670  0.5811 -0.6974
31765SOL    HW2  426   9.355   0.639   5.013  2.6066 -0.9051 -0.1474
31766SOL     OW  427   5.665  11.052   2.622  0.2706 -0.0663  0.7839
31766SOL    HW1  428   5.722  11.129   2.626 -0.3823  0.4825 -0.2154
31766SOL    HW2  429   5.722  10.979   2.649  1.0320  0.6850  1.2426
31767SOL     OW  430   5.966   6.382   5.794 -0.2464  0.5464 -0.3265
31767SOL    HW1  431   6.004   6.328   5.864 -0.3122  1.6821  0.5956
31767SOL    HW2  432   5.975   6.328   5.715  0.7588 -0.3343  0.3730
31768SOL     OW  433   3.208   2.945   6.707 -0.1432  0.2733  0.5775
31768SOL    HW1  434   3.148   2.873   6.724 -1.4782  1.0662 -0.7048
31768SOL    HW2  435   3.152   3.022   6.699  1.0911  1.1353  0.0796
31769SOL     OW  436   8.272   7.057   0.692 -0.1838 -0.1049 -0.0908
31769SOL    HW1  437   8.212   7.075   0.765 -0.8488 -0.8636 -0.4469
31769SOL    HW2  438   8.281   6.962   0.691  0.4413 -0.0431 -0.5159
31770SOL     OW  439   4.876  11.115   0.209  0.1067  0.8416  0.0973
31770SOL    HW1  440   4.817  11.042   0.227  0.8727  0.0625 -0.4721
31770SOL    HW2  441   4.828  11.171   0.148  0.0325  0.1008 -0.5329
31771SOL     OW  442   8.454   7.471   9.922 -0.6788  0.2105 -0.2069
31771SOL    HW1  443   8.376   7.505   9.966 -1.4383 -2.4674  0.6565
31771SOL    HW2  444   8.420   7.429   9.842  0.2034  1.3852 -1.2145
31772SOL     OW  445   9.423   2.404   0.464 -0.4454 -0.9458 -0.1478
31772SOL    HW1  446   9.361   2.431   0.532 -2.1460 -1.6109 -1.4125
31772SOL    HW2  447   9.508   2.406   0.508 -1.6256 -2.4391  2.3340
31773SOL     OW  448   3.050   9.538   1.162 -0.7486 -0.0693 -0.4793
31773SOL    HW1  449   3.088   9.615   1.205 -1.3087  0.4401 -0.8664
31773SOL    HW2  450   3.110   9.467   1.182  0.1425  0.6123 -0.6842
31774SOL     OW  451   0.429   8.935   1.880  0.3061 -0.4303  0.2827
31774SOL    HW1  452   0.468   8.904   1.798  0.9778  0.7650  0.1389
31774SOL    HW2  453   0.342   8.965   1.854  0.4209 -0.2874  0.0597
31775SOL     OW  454   9.873   6.005   8.841  0.6157 -0.6219  0.1655
31775SOL    HW1  455   9.963   6.010   8.810  0.3962 -1.7928 -0.6492
31775SOL    HW2  456   9.881   5.998   8.936  1.2848  2.7942  0.4260
31776SOL     OW  457   9.118   6.360   0.633  0.2775 -0.3870  0.4107
31776SOL    HW1  458   9.214   6.355   0.635  0.3982  0.5042 -1.4114
31776SOL    HW2  459   9.099   6.454   0.633 -0.4657 -0.4939 -1.8440
31777SOL     OW  460   9.318  10.988   5.326  0.4121  0.4240 -0.2751
31777SOL    HW1  461   9.299  10.955   5.414  0.9617  0.4356 -0.1471
31777SOL    HW2  462   9.301  11.082   5.331  1.2907  0.5660  0.0625
31778SOL     OW  463  10.057   8.544   1.713 -0.0835  0.5098 -0.6195
31778SOL    HW1  464  10.044   8.624   1.764  1.4572  0.2156  0.2501
31778SOL    HW2  465  10.000   8.556   1.636  0.8521  2.8652 -0.9975
31779SOL     OW  466   0.807   9.449   7.845  0.2577 -0.1274  0.2411
31779SOL    HW1  467   0.753   9.527   7.839  0.4278 -0.0404 -0.2259
31779SOL    HW2  468   0.845   9.452   7.932  0.7572  0.6454  0.0064
31780SOL     OW  469   7.692  10.025   6.383 -0.2530  0.7617 -0.0654
31780SOL    HW1  470   7.744  10.000   6.460 -0.2649  0.5339 -0.1315
31780SOL    HW2  471   7.626  10.085   6.418 -0.8836 -0.1202  0.2783
31781SOL     OW  472   8.089   4.959   1.075  0.0921  0.3585 -0.8715
31781SOL    HW1  473   8.141   4.911   1.010  0.8032  1.5458 -1.1896
31781SOL    HW2  474   8.071   5.043   1.033  2.2279  1.9027  1.2200
31782SOL     OW  475   6.395   0.457   6.256 -0.4767  0.1067  0.1950
31782SOL    HW1  476   6.417   0.494   6.171 -0.1791 -0.5284 -0.0083
31782SOL    HW2  477   6.301   0.439   6.252 -0.2099 -1.1909 -0.4953
31783SOL     OW  478   5.042   2.670   5.456 -0.5153  0.1283  0.3179
31783SOL    HW1  479   5.084   2.601   5.404  1.4145  1.3412  0.2243
31783SOL    HW2  480   4.974   2.625   5.506  1.2519 -1.9748  0.8608
31784SOL     OW  481  10.799  10.843   6.470  0.0200  0.3223 -0.2411
31784SOL    HW1  482  10.865  10.773   6.468  0.8140  1.0748 -0.4656
31784SOL    HW2  483  10.850  10.924   6.469 -0.9367  0.9194 -1.7455
31785SOL     OW  484   6.974   3.776   1.576 -1.0872 -0.1046  0.2425
31785SOL    HW1  485   6.969   3.870   1.588 -0.1277 -0.0901  0.6166
31785SOL    HW2  486   6.901   3.755   1.518 -1.8957  0.7239  0.9501
31786SOL     OW  487   5.670   3.145   5.699 -0.1821  0.1576  0.1681
31786SOL    HW1  488   5.735   3.214   5.711 -0.7846  0.8161 -0.3350
31786SOL    HW2  489   5.637   3.127   5.788 -2.6633  3.1144 -0.0604
31787SOL     OW  490   0.076   5.697   5.272 -0.2212 -0.3002  0.0695
31787SOL    HW1  491   0.096   5.718   5.364 -0.0144 -0.2485  0.0139
31787SOL    HW2  492  -0.017   5.719   5.262  0.1061  1.0508 -0.1166
31788SOL     OW  493   7.698   8.432   8.729 -0.1608  0.3996 -0.1992
31788SOL    HW1  494   7.771   8.373   8.747 -0.9133 -1.5452 -3.1685
31788SOL    HW2  495   7.678   8.472   8.814  3.7659  0.3692  0.8391
31789SOL     OW  496  11.023   9.320   4.094  0.4760 -0.1266 -0.1433
31789SOL    HW1  497  11.021   9.260   4.020 -1.7663 -0.2287 -0.0218
31789SOL    HW2  498  11.011   9.407   4.055 -0.2084 -0.1365  0.0302
31790SOL     OW  499   9.284   3.888   8.295 -0.3945 -0.2816  0.3706
31790SOL    HW1  500   9.378   3.887   8.279 -0.3934 -1.5776  0.4321
31790SOL    HW2  501   9.253   3.969   8.255  0.7870  0.2760  0.5827
31791SOL     OW  502   9.717   0.474   4.994  0.1326  0.0213  0.0436
31791SOL    HW1  503   9.796   0.429   5.024  0.2423 -0.6904 -1.2776
31791SOL    HW2  504   9.672   0.410   4.939 -1.3369  0.4430  0.7261
31792SOL     OW  505   8.442   8.244   3.565 -0.5578  0.0929 -0.5925
31792SOL    HW1  506   8.481   8.250   3.478  0.1071 -0.6504 -0.3494
31792SOL    HW2  507   8.478   8.319   3.613  0.0559 -0.2182 -0.5688
31793SOL     OW  508   1.471   3.058   6.908  0.3354  0.2935 -0.3212
31793SOL    HW1  509   1.460   2.997   6.980 -0.2940  0.9560  0.1490
31793SOL    HW2  510   1.394   3.114   6.911 -1.3252 -1.6995 -3.5332
31794SOL     OW  511  10.961   3.410  10.440  0.3981  0.0268 -0.4157
31794SOL    HW1  512  10.940   3.378  10.528 -1.2640 -0.1841 -0.8548
31794SOL    HW2  513  10.879   3.397  10.390  0.7851  1.7237 -1.5318
31795SOL     OW  514   0.656   6.287   3.074 -0.6980  0.4159  0.3229
31795SOL    HW1  515   0.695   6.222   3.015 -0.1221  1.0391  0.0184
31795SOL    HW2  516   0.696   6.270   3.159 -0.1694  0.7031  0.1302
31796SOL     OW  517   1.575   6.671  11.075 -0.3419  0.0661 -0.2194
31796SOL    HW1  518   1.632   6.747  11.066 -1.1867  0.6149 -1.0598
31796SOL    HW2  519   1.614   6.605  11.017  0.5177 -0.2441  0.6809
31797SOL     OW  520   1.326   6.203   4.668  0.7378 -0.4088 -0.4043
31797SOL    HW1  521   1.298   6.117   4.700  1.6835 -1.2978 -1.9251
31797SOL    HW2  522   1.300   6.204   4.576  0.1743  1.2024 -0.2492
31798SOL     OW  523   1.659   7.006   1.826 -0.2198  0.3948  0.6304
31798SOL    HW1  524   1.703   6.932   1.785 -1.7858 -0.1067 -0.1743
31798SOL    HW2  525   1.730   7.059   1.863  0.9450 -1.1492  0.6278
31799SOL     OW  526   4.087   5.287   5.900  0.5703  0.5308  0.4006
31799SOL    HW1  527   4.113   5.353   5.964  0.9702  2.2518 -1.4629
31799SOL    HW2  528   4.119   5.204   5.936  1.8171  1.6012  1.8387
31800SOL     OW  529   2.323  10.152   7.836 -0.1187  0.2272  0.4610
31800SOL    HW1  530   2.243  10.159   7.783  0.4234  0.4364 -0.3345
31800SOL    HW2  531   2.303  10.085   7.901 -0.8760  0.1352  0.1365
31801SOL     OW  532   5.003   3.311   4.518 -0.5043  0.3874 -0.2482
31801SOL    HW1  533   4.997   3.232   4.463 -3.4991  0.9785 -0.8132
31801SOL    HW2  534   5.055   3.372   4.465  0.1455 -0.4981 -0.6513
31802SOL     OW  535   1.822  10.697   7.425  0.2142  0.1022 -0.5103
31802SOL    HW1  536   1.803  10.638   7.498 -1.2806  1.8839  0.5845
31802SOL    HW2  537   1.914  10.721   7.436 -0.0796  0.5950  0.9866
31803SOL     OW  538   7.068   5.457   2.232  0.4343 -0.2856  0.7468
31803SOL    HW1  539   7.129   5.417   2.170 -1.3900 -0.1554 -1.1884
31803SOL    HW2  540   6.988   5.404   2.224 -0.6828  1.3172  1.0799
31804SOL     OW  541   3.760   9.659   5.032  0.1178  0.4066 -0.5034
31804SOL    HW1  542   3.762   9.750   5.063 -1.3688  0.2974 -0.0666
31804SOL    HW2  543   3.771   9.607   5.112 -0.3251  0.1789 -0.5926
31805SOL     OW  544  11.231   1.295   8.598 -0.0619  0.0613 -0.0139
31805SOL    HW1  545  11.148   1.251   8.618  0.1204 -0.4696 -0.3965
31805SOL    HW2  546  11.298   1.231   8.624  0.2017 -0.0365 -0.9346
31806SOL     OW  547   5.901   6.545   1.429 -0.3526  0.1726 -0.2643
31806SOL    HW1  548   5.928   6.460   1.394 -1.7924 -0.2077 -0.4919
31806SOL    HW2  549   5.826   6.525   1.484 -0.0536  1.1746  0.5193
31807SOL     OW  550   6.195   7.271   0.764 -0.0110  0.2085  0.7963
31807SOL    HW1  551   6.245   7.306   0.837 -1.1300 -0.0564  1.7045
31807SOL    HW2  552   6.105   7.300   0.781 -0.7017 -1.8846  0.8108
31808SOL     OW  553   0.960   1.491   4.397 -0.1804  0.1043 -0.0788
31808SOL    HW1  554   1.045   1.497   4.353  0.5643 -1.2346  1.1107
31808SOL    HW2  555   0.916   1.573   4.376  1.3573  0.7538 -0.8371
31809SOL     OW  556   8.030   0.783   2.057  0.0591  0.1773  0.3162
31809SOL    HW1  557   8.039   0.879   2.055 -1.6158  0.3526  1.2412
31809SOL    HW2  558   8.100   0.754   2.116  2.0217  0.6198 -1.6863
31810SOL     OW  559   6.809   7.214   0.265  0.2332  0.0407 -0.4168
31810SOL    HW1  560   6.825   7.304   0.292 -0.6559  0.3118 -0.7666
31810SOL    HW2  561   6.891   7.168   0.283  0.3988  0.7249  0.5848
31811SOL     OW  562   5.946   0.065   7.135 -0.0790  0.1801 -0.7962
31811SOL    HW1  563   6.021   0.010   7.156  0.3363  1.4287  1.0667
31811SOL    HW2  564   5.911   0.028   7.054  1.3541 -1.6169 -0.6121
31812SOL     OW  565  10.053   7.556   6.962 -0.6196 -0.7511  0.5795
31812SOL    HW1  566   9.967   7.535   6.999 -2.2654  1.2587 -2.0124
31812SOL    HW2  567  10.058   7.651   6.964  2.0945 -0.8629  1.7911
31813SOL     OW  568   1.380   3.146   1.708  0.2145 -0.6654  0.1107
31813SOL    HW1  569   1.416   3.232   1.688  0.7194 -0.7581  0.6107
31813SOL    HW2  570   1.303   3.139   1.651 -0.1513  0.3392  0.4605
31814SOL     OW  571  10.659   0.513   7.744 -0.6563 -0.1181  0.1168
31814SOL    HW1  572  10.574   0.557   7.742  0.2505  1.6622 -0.4487
31814SOL    HW2  573  10.696   0.527   7.657  2.3087  3.3954  1.8137
31815SOL     OW  574   9.114   1.416   0.339  0.3676  0.3314 -0.1839
31815SOL    HW1  575   9.026   1.447   0.361  0.3891 -0.8742  1.7038
31815SOL    HW2  576   9.115   1.414   0.243 -1.8699 -0.1789 -0.2329
31816SOL     OW  577   3.140   6.395   7.868  0.4728 -0.2498  0.1756
31816SOL    HW1  578   3.055   6.390   7.912  1.0416  1.9732  1.6011
31816SOL    HW2  579   3.127   6.347   7.786 -1.9580 -0.5244  0.6728
31817SOL     OW  580   8.269   7.327   1.772 -0.2767  0.4541  0.2014
31817SOL    HW1  581   8.183   7.286   1.761 -0.0241 -0.6332  2.1676
31817SOL    HW2  582   8.330   7.266   1.730 -0.2250  0.1387  0.7253
31818SOL     OW  583   1.917   8.443  10.570 -0.1401 -0.1766 -0.4877
31818SOL    HW1  584   1.845   8.459  10.509 -0.9333 -0.8237  0.2588
31818SOL    HW2  585   1.969   8.523  10.567 -0.0131 -0.3086 -2.1997
31819SOL     OW  586   6.888   7.478  10.005  0.9223  0.1266 -0.2378
31819SOL    HW1  587   6.807   7.510  10.044  0.4874  0.6227 -1.5146
31819SOL    HW2  588   6.940   7.556   9.990  0.6114  0.0814 -1.6755
31820SOL     OW  589   5.795   7.890  10.174 -0.2973 -0.1754 -0.0664
31820SOL    HW1  590   5.718   7.843  10.206 -0.0295  0.3219  1.3140
31820SOL    HW2  591   5.766   7.980  10.162  0.3717  0.2719  1.5886
31821SOL     OW  592  10.244  10.627  10.437  0.0901 -0.4247  0.6805
31821SOL    HW1  593  10.241  10.723  10.432  1.0637 -0.3812  0.8948
31821SOL    HW2  594  10.276  10.600  10.351 -2.5725 -0.7006 -0.2691
31822SOL     OW  595   6.842   9.285  10.007  0.4222 -0.3676  0.3358
31822SOL    HW1  596   6.842   9.200  10.050 -2.4172 -0.5732  0.0028
31822SOL    HW2  597   6.774   9.335  10.052  0.7161  1.0592 -0.7624
31823SOL     OW  598   9.499   6.719   3.849 -0.0184 -0.4718  0.2871
31823SOL    HW1  599   9.552   6.784   3.896 -0.3584  0.0715 -0.0771
31823SOL    HW2  600   9.541   6.712   3.764 -0.8812  0.4202 -0.2295
31824SOL     OW  601   6.236   1.041  10.717  0.2493 -0.0403  0.0311
31824SOL    HW1  602   6.255   1.012  10.807 -0.6947  1.3937  0.7125
31824SOL    HW2  603   6.322   1.048  10.675  0.7079 -0.6382  0.8545
31825SOL     OW  604   5.966   6.253   5.544 -0.4250 -0.5618 -0.2773
31825SOL    HW1  605   5.927   6.250   5.457 -0.9488  0.7371 -0.0952
31825SOL    HW2  606   5.897   6.221   5.602 -1.1045  1.2918 -0.0120
31826SOL     OW  607   3.673   6.411   8.044 -0.5828 -0.9573  0.1480
31826SOL    HW1  608   3.748   6.463   8.073 -1.2076 -0.7599  1.4601
31826SOL    HW2  609   3.710   6.347   7.984  0.5798 -0.6075  0.4739
31827SOL     OW  610   1.711   8.194   0.475  0.4928  0.0967 -0.6153
31827SOL    HW1  611   1.676   8.115   0.517 -1.6915  1.2308 -0.2797
31827SOL    HW2  612   1.695   8.180   0.382  1.1735 -0.3386 -0.6810
31828SOL     OW  613   0.043   0.382  11.085 -0.2265 -0.3853  0.0790
31828SOL    HW1  614   0.100   0.412  11.156 -0.6250 -1.9783  1.1038
31828SOL    HW2  615   0.053   0.286  11.085 -0.4599 -0.4415 -1.8285
31829SOL     OW  616   6.711   1.303   8.296 -0.0341  0.2665 -0.4285
31829SOL    HW1  617   6.688   1.395   8.285 -0.5138  0.0376 -1.5102
31829SOL    HW2  618   6.780   1.288   8.231  0.3596 -0.0199  0.0590
31830SOL     OW  619   8.896   7.977   7.787  0.5061  0.0884 -0.4180
31830SOL    HW1  620   8.862   7.978   7.698  0.9065  0.4768 -0.5628
31830SOL    HW2  621   8.820   7.998   7.842  0.3770  0.3714 -0.7052
31831SOL     OW  622   2.835   1.469   6.395 -0.0751 -0.1467  0.0934
31831SOL    HW1  623   2.827   1.399   6.461 -0.1660 -0.3031 -0.0837
31831SOL    HW2  624   2.884   1.538   6.440  2.1737 -1.3057 -0.4849
31832SOL     OW  625   2.384   1.225   1.300  0.1060 -0.0247  0.1436
31832SOL    HW1  626   2.389   1.131   1.284 -1.1299 -0.0658 -0.0712
31832SOL    HW2  627   2.340   1.260   1.223  0.7484  0.7581  0.1276
31833SOL     OW  628   4.368   3.002   1.092 -0.0327 -0.2302 -0.2392
31833SOL    HW1  629   4.337   3.076   1.144  0.2085  0.3068 -0.8508
31833SOL    HW2  630   4.291   2.973   1.044  0.3904  1.1338 -1.7955
31834SOL     OW  631   9.611   8.810   4.049  0.5138 -0.8428  0.2089
31834SOL    HW1  632   9.583   8.799   3.958  0.3421  0.4029  0.0935
31834SOL    HW2  633   9.703   8.785   4.049  0.2251 -1.9199 -0.0752
31835SOL     OW  634   4.334   5.651   4.073 -0.3862 -0.3891 -0.2964
31835SOL    HW1  635   4.306   5.743   4.069 -1.9895 -0.7819  1.2736
31835SOL    HW2  636   4.382   5.644   4.156 -1.6242 -1.3163  0.3520
31836SOL     OW  637   5.568   8.117   3.412 -0.2604 -0.0830  0.5781
31836SOL    HW1  638   5.598   8.176   3.480 -0.1044  0.2571  0.2179
31836SOL    HW2  639   5.472   8.118   3.420 -0.4631  2.7261 -1.4771
31837SOL     OW  640   6.540   4.153   5.073  0.7103  0.0511 -0.0271
31837SOL    HW1  641   6.577   4.213   5.008 -0.7273  0.7512 -0.2012
31837SOL    HW2  642   6.447   4.148   5.052  0.6797 -1.7313  0.3924
31838SOL     OW  643   7.683   1.907   2.497 -0.0041  0.2195 -0.0079
31838SOL    HW1  644   7.643   1.823   2.474  1.1862 -0.5069  0.5396
31838SOL    HW2  645   7.769   1.904   2.455  0.0101  1.2008 -0.0465
31839SOL     OW  646   6.336   0.658   3.181  0.0002  0.2389  0.1325
31839SOL    HW1  647   6.362   0.583   3.234 -1.6787  0.7378  1.7226
31839SOL    HW2  648   6.327   0.730   3.243 -0.1014  1.3373 -1.1236
31840SOL     OW  649   0.434  10.969   4.673  0.0750 -0.4492 -0.2846
31840SOL    HW1  650   0.382  11.039   4.635  1.1555  0.5304  0.0351
31840SOL    HW2  651   0.384  10.889   4.654 -1.0830  0.3821 -0.7642
31841SOL     OW  652   8.089   1.198   4.707  0.9162  0.2829 -0.1344
31841SOL    HW1  653   8.117   1.290   4.709 -2.4607  1.3716  2.0760
31841SOL    HW2  654   8.025   1.193   4.636 -0.8863  0.3296  1.4434
31842SOL     OW  655   2.360   0.612   4.785  0.8916  0.1136  0.3184
31842SOL    HW1  656   2.363   0.702   4.754 -1.0873  0.6962  1.6721
31842SOL    HW2  657   2.440   0.602   4.836  0.9014  1.2748  0.5520
31843SOL     OW  658   9.298   3.474   2.018  0.5222 -0.0989  0.8471
31843SOL    HW1  659   9.251   3.449   1.938 -0.3307  0.6145  1.1243
31843SOL    HW2  660   9.321   3.566   2.005 -1.8105  0.7491  2.4593
31844SOL     OW  661   8.690   5.217   0.103 -0.1460 -0.0274  0.6048
31844SOL    HW1  662   8.620   5.206   0.039 -0.4239 -0.9705  1.0615
31844SOL    HW2  663   8.695   5.311   0.117 -1.2507  0.0551  0.4871
31845SOL     OW  664   4.916  10.542   2.371 -0.0637  0.1012  0.4635
31845SOL    HW1  665   4.965  10.623   2.386 -1.2561  0.4745  2.4569
31845SOL    HW2  666   4.959  10.502   2.295  1.2043  2.0659  0.1156
31846SOL     OW  667   7.420   4.905   2.625 -0.2973  0.0496  0.2763
31846SOL    HW1  668   7.439   4.950   2.543 -1.2659 -1.2070 -0.6556
31846SOL    HW2  669   7.418   4.812   2.602 -2.2642 -0.2051  1.3630
31847SOL     OW  670   7.044  10.304   3.921  0.0697 -0.0196  0.0309
31847SOL    HW1  671   7.007  10.297   4.009  0.2539  0.3400  0.1406
31847SOL    HW2  672   7.044  10.398   3.903  0.0056 -0.0955 -0.3649
31848SOL     OW  673  11.094   0.928   1.832 -0.3772  0.0504 -0.0581
31848SOL    HW1  674  11.019   0.985   1.816 -0.4148  0.1975  0.6631
31848SOL    HW2  675  11.083   0.856   1.770 -0.8749  0.3014 -0.2578
31849SOL     OW  676   2.210  10.191  11.139  0.0456  0.3284  0.4223
31849SOL    HW1  677   2.140  10.206  11.203 -0.6091  0.8372 -0.4048
31849SOL    HW2  678   2.283  10.245  11.171 -0.6081  1.3591  0.2093
31850SOL     OW  679   9.377   0.186   1.728  0.1983  0.0701  0.1016
31850SOL    HW1  680   9.290   0.196   1.766  0.2151  1.9016 -0.2697
31850SOL    HW2  681   9.363   0.140   1.646 -0.0824 -2.0134  1.2695
31851SOL     OW  682  10.979   4.442   6.919 -0.2450 -0.2486 -0.3895
31851SOL    HW1  683  10.920   4.489   6.860 -0.4953 -0.0509  0.0186
31851SOL    HW2  684  11.061   4.434   6.869 -0.7452 -0.8934 -1.1127
31852SOL     OW  685   1.054   1.327   1.386  0.0039 -0.3467 -0.1065
31852SOL    HW1  686   1.070   1.268   1.460  0.0863  0.6599  0.6862
31852SOL    HW2  687   1.073   1.414   1.420 -0.5123  0.1862 -1.1592
31853SOL     OW  688   4.772   4.367   4.087 -0.4796 -0.4159  0.2474
31853SOL    HW1  689   4.765   4.272   4.089 -0.4105 -0.4519 -1.1914
31853SOL    HW2  690   4.740   4.395   4.173 -1.6731 -1.6605  0.2214
31854SOL     OW  691  10.055   0.050   0.802  0.0295  0.4104  0.2525
31854SOL    HW1  692  10.042   0.012   0.716  0.2844 -0.7250  0.7115
31854SOL    HW2  693  10.140   0.095   0.796  0.4076 -0.3090  0.1303
31855SOL     OW  694   9.677   0.956   8.230 -0.0406 -0.1608 -0.6937
31855SOL    HW1  695   9.599   0.906   8.205  0.0041 -1.6022  1.8686
31855SOL    HW2  696   9.741   0.889   8.254  0.8060  1.0652  0.5333
31856SOL     OW  697   3.427   4.325  10.870 -0.0231 -0.1438  0.1986
31856SOL    HW1  698   3.443   4.256  10.806 -0.0702 -2.1427  2.2897
31856SOL    HW2  699   3.509   4.374  10.873  0.0402 -0.1519 -1.2395
31857SOL     OW  700   9.395   1.599   3.248  0.2917 -0.1255 -0.3703
31857SOL    HW1  701   9.351   1.559   3.174 -0.0164  2.3458 -1.5786
31857SOL    HW2  702   9.443   1.673   3.210  4.0086 -1.6023  1.1664
31858SOL     OW  703   6.617   3.470  11.152  0.3613 -0.0062  0.3933
31858SOL    HW1  704   6.583   3.393  11.197 -0.8964  0.5976  0.5007
31858SOL    HW2  705   6.634   3.533  11.222 -0.9291  0.6804  0.1144
31859SOL     OW  706  10.800   1.354   8.596 -0.4212 -0.1210 -0.3410
31859SOL    HW1  707  10.859   1.408   8.544 -1.8583  2.1672  0.3207
31859SOL    HW2  708  10.825   1.264   8.575  2.6969  0.7851 -0.6919
31860SOL     OW  709   3.803   2.587   4.267  0.0916  0.0485  0.5665
31860SOL    HW1  710   3.879   2.534   4.244 -1.1973 -1.0367 -1.4016
31860SOL    HW2  711   3.812   2.666   4.213 -0.1396 -0.0501  0.3839
31861SOL     OW  712   4.338  11.058   6.413  0.4982  0.1726  0.2167
31861SOL    HW1  713   4.321  10.983   6.355  0.5222 -0.7145  1.3427
31861SOL    HW2  714   4.390  11.118   6.359  1.6363 -1.2257 -0.2686
31862SOL     OW  715   4.970   3.184   0.748 -0.1464  0.0234 -0.0850
31862SOL    HW1  716   5.052   3.206   0.792  0.8493 -2.6799 -0.4786
31862SOL    HW2  717   4.909   3.164   0.819 -0.3549  1.6125  0.1980
31863SOL     OW  718   9.644   4.003   3.502 -0.0352 -0.0426 -0.4251
31863SOL    HW1  719   9.554   4.033   3.513  1.0146  2.4542  1.9478
31863SOL    HW2  720   9.698   4.081   3.517  2.6278 -2.1469  1.5648
31864SOL     OW  721   3.576   4.788   0.878 -0.2594  0.3480  0.4245
31864SOL    HW1  722   3.543   4.781   0.967 -0.1253 -0.1911  0.4376
31864SOL    HW2  723   3.530   4.863   0.840  0.0809  0.9056  1.1109
31865SOL     OW  724  11.025   6.293   7.557 -0.3547 -0.5508  0.7749
31865SOL    HW1  725  11.024   6.309   7.463 -0.2769  0.1515  0.8910
31865SOL    HW2  726  10.938   6.260   7.577 -0.2777 -0.9749  0.4084
31866SOL     OW  727   7.106   0.846   9.670  0.0115  0.3175 -0.7333
31866SOL    HW1  728   7.131   0.906   9.599 -1.3227 -0.8573 -2.2444
31866SOL    HW2  729   7.126   0.759   9.636 -0.2117 -0.2445  0.5417
31867SOL     OW  730   9.179   0.960   7.846  0.1845  0.5133 -0.2948
31867SOL    HW1  731   9.139   0.944   7.932 -0.3129 -0.3654 -0.6777
31867SOL    HW2  732   9.116   0.923   7.784  1.1054  0.0488 -0.9684
31868SOL     OW  733   8.305   2.198   3.760 -0.5913  0.2383 -0.8340
31868SOL    HW1  734   8.320   2.286   3.726  0.2793  0.2683 -0.3856
31868SOL    HW2  735   8.221   2.171   3.722 -1.7510  1.9637  0.4641
31869SOL     OW  736  10.568   5.968   1.888  0.2825 -0.4730 -0.0006
31869SOL    HW1  737  10.568   5.905   1.961  2.2849  0.4050  0.7772
31869SOL    HW2  738  10.545   6.051   1.928 -0.1267 -0.2738 -0.6464
31870SOL     OW  739   1.919   0.681  10.110  0.0970  0.2487 -0.0228
31870SOL    HW1  740   1.916   0.774  10.089 -0.4112  0.0835 -0.7251
31870SOL    HW2  741   1.972   0.675  10.189  0.8891  1.0501 -0.4843
31871SOL     OW  742   1.781   4.256   2.798 -0.2493 -0.2334  0.1303
31871SOL    HW1  743   1.845   4.188   2.817  0.3234  0.2708 -0.0137
31871SOL    HW2  744   1.747   4.282   2.884  0.3194  0.0688  0.2630
31872SOL     OW  745   3.304   0.605   4.255  0.0504 -0.1460 -0.7335
31872SOL    HW1  746   3.278   0.695   4.272  0.6825 -0.0221 -0.3717
31872SOL    HW2  747   3.377   0.590   4.316  0.9241 -0.4108 -1.8341
31873SOL     OW  748   5.631   3.555   7.354 -0.1132  0.5726  0.1482
31873SOL    HW1  749   5.627   3.573   7.260  2.0356  2.0374  0.2955
31873SOL    HW2  750   5.583   3.628   7.394 -0.8812  0.0395  0.2170
31874SOL     OW  751   8.679   8.205  11.330 -0.1057  0.4132  0.3832
31874SOL    HW1  752   8.774   8.206  11.338  0.0449  2.4372 -1.1753
31874SOL    HW2  753   8.655   8.297  11.321 -2.2376 -0.0697  0.9363
31875SOL     OW  754   9.113   8.647   0.971 -0.2136  0.1715  0.1047
31875SOL    HW1  755   9.062   8.583   1.021  0.0009  0.9780  1.3682
31875SOL    HW2  756   9.075   8.643   0.883  0.2176 -2.1579 -0.0184
31876SOL     OW  757   8.305   4.353   8.916 -0.2592  0.3305 -0.1903
31876SOL    HW1  758   8.297   4.440   8.876  0.8377  0.3864 -0.3079
31876SOL    HW2  759   8.305   4.370   9.010 -1.5239  0.3146 -0.1708
31877SOL     OW  760   8.175   2.704   8.294  0.3454  0.5259 -0.5862
31877SOL    HW1  761   8.105   2.768   8.283  1.4073  1.4451 -2.2572
31877SOL    HW2  762   8.182   2.663   8.208  0.8258 -0.6417  0.0097
31878SOL     OW  763   7.117   9.801   0.914  0.1215 -0.3242 -0.4400
31878SOL    HW1  764   7.161   9.859   0.851  1.1232 -0.0469  0.5029
31878SOL    HW2  765   7.031   9.786   0.876  0.1677  1.0666 -1.1428
31879SOL     OW  766   3.858   5.617   8.403 -0.2711 -0.0259 -0.1282
31879SOL    HW1  767   3.893   5.704   8.384  0.1421 -0.5717 -2.0417
31879SOL    HW2  768   3.793   5.602   8.334  0.0975 -1.4645 -0.1813
31880SOL     OW  769  10.479   2.792   0.278  0.2980 -0.4096  0.2750
31880SOL    HW1  770  10.493   2.747   0.195 -0.1416  0.4489 -0.2686
31880SOL    HW2  771  10.546   2.860   0.280 -0.3854  0.2652  0.1279
31881SOL     OW  772   8.267   9.121   7.648 -0.1868  0.1537  0.1896
31881SOL    HW1  773   8.225   9.068   7.716 -0.5994  0.1439 -0.0767
31881SOL    HW2  774   8.321   9.183   7.697 -0.4880  0.1489  0.5289
31882SOL     OW  775   7.582   4.401   0.894  0.4675 -0.1296  0.2723
31882SOL    HW1  776   7.541   4.382   0.978  0.1454  0.2150  0.1945
31882SOL    HW2  777   7.673   4.374   0.905  0.7540  1.1729  1.1711
31883SOL     OW  778   3.655   1.917   8.076  0.0001  0.2251  0.3869
31883SOL    HW1  779   3.708   1.992   8.101  1.2898 -0.2389 -0.8890
31883SOL    HW2  780   3.681   1.898   7.986 -0.2289 -1.8171  0.7199
31884SOL     OW  781  10.575   1.793   9.305 -0.3589 -0.2919 -0.0431
31884SOL    HW1  782  10.561   1.878   9.348  0.3976  1.2685 -2.7390
31884SOL    HW2  783  10.581   1.814   9.212  3.4363 -2.8041 -0.5002
31885SOL     OW  784   5.340   8.626  10.036  0.2297 -0.1244 -0.0051
31885SOL    HW1  785   5.274   8.563  10.062 -0.5909  0.6960 -0.0698
31885SOL    HW2  786   5.346   8.686  10.111  0.1915  0.3633 -0.3881
31886SOL     OW  787   7.643   7.088   7.272  0.0330  0.1400 -0.0073
31886SOL    HW1  788   7.563   7.085   7.323 -1.0117 -0.9122 -1.6424
31886SOL    HW2  789   7.674   7.178   7.279 -0.6115  0.2327  1.6490
31887SOL     OW  790  10.523   6.302   2.823  0.2326  0.6102  0.5270
31887SOL    HW1  791  10.587   6.270   2.759  0.7451  0.1851  1.2558
31887SOL    HW2  792  10.513   6.395   2.800 -1.0749  0.0252 -1.4212
31888SOL     OW  793   9.107   2.916   5.083 -0.0860  0.3456  0.0144
31888SOL    HW1  794   9.137   2.914   4.992 -0.0202  0.2188  0.0364
31888SOL    HW2  795   9.098   2.823   5.107  1.1798  0.3410  0.5493
31889SOL     OW  796   2.500   8.851   3.245 -0.2974 -0.2125  0.1898
31889SOL    HW1  797   2.546   8.829   3.164  1.2677  1.3426  0.6226
31889SOL    HW2  798   2.566   8.895   3.299 -1.9248  0.7849  1.4231
31890SOL     OW  799   3.850  10.759   4.424  0.3176  0.1084 -0.2002
31890SOL    HW1  800   3.767  10.798   4.450  0.4499  0.6837 -0.6295
31890SOL    HW2  801   3.916  10.824   4.447  0.4268  0.6806 -2.0357
31891SOL     OW  802   6.245   3.231  11.232  0.2764 -0.4669  0.0042
31891SOL    HW1  803   6.249   3.142  11.199 -1.3087 -0.7794  0.6130
31891SOL    HW2  804   6.185   3.276  11.172 -0.1425 -0.2174  0.6072
31892SOL     OW  805   0.079   6.913   5.527  0.0442 -0.1650 -0.1598
31892SOL    HW1  806   0.168   6.883   5.545  0.4858  1.3111  0.1477
31892SOL    HW2  807   0.080   7.007   5.546 -1.2946  0.0812 -1.1903
31893SOL     OW  808  10.030   4.274   0.020  0.0008  0.3768 -0.3477
31893SOL    HW1  809  10.052   4.205   0.083 -0.7494  1.3316  1.0158
31893SOL    HW2  810  10.109   4.327   0.013 -0.0668  0.5495  0.1787
31894SOL     OW  811  11.130   8.078   8.150 -0.4239  0.0888  0.0735
31894SOL    HW1  812  11.178   8.112   8.074  1.3354  0.1900  1.1807
31894SOL    HW2  813  11.047   8.046   8.115  1.1509 -1.6493 -2.2103
31895SOL     OW  814   8.619   9.361   8.125 -0.0849  0.2795  0.0158
31895SOL    HW1  815   8.703   9.397   8.154 -0.0410  0.5751 -0.4642
31895SOL    HW2  816   8.600   9.409   8.044 -0.1953 -0.5342 -0.4365
31896SOL     OW  817   0.613   6.329   4.282  0.3064 -0.6907  0.6386
31896SOL    HW1  818   0.694   6.380   4.294 -1.0624  1.3311  1.7081
31896SOL    HW2  819   0.598   6.288   4.367 -0.8288  0.5664  1.0659
31897SOL     OW  820  11.028   5.690   3.232  0.1076 -0.2257 -0.5830
31897SOL    HW1  821  11.010   5.691   3.138  0.4637  0.1096 -0.6483
31897SOL    HW2  822  11.003   5.602   3.260 -1.2871  0.1244 -0.7352
31898SOL     OW  823   8.334   8.422   3.169  0.2749 -0.4908  0.0374
31898SOL    HW1  824   8.398   8.352   3.180 -1.2141 -1.7972  0.5829
31898SOL    HW2  825   8.300   8.437   3.257  1.9040  2.2431  0.2619
31899SOL     OW  826  10.043   8.465   0.180  0.6237  0.3714  0.2056
31899SOL    HW1  827  10.114   8.427   0.232  1.4431 -0.5508 -1.5758
31899SOL    HW2  828  10.087   8.511   0.109 -0.3593  4.1575  1.9072
31900SOL     OW  829   4.240   4.316   5.866 -0.2543 -0.4794  0.1620
31900SOL    HW1  830   4.318   4.267   5.891 -1.5001 -1.4277  2.3567
31900SOL    HW2  831   4.170   4.251   5.862 -1.2153  0.5607 -0.3974
31901SOL     OW  832   7.365   8.270   9.870  0.1874 -0.4516  0.0308
31901SOL    HW1  833   7.359   8.364   9.887 -0.2393 -0.5375  0.3687
31901SOL    HW2  834   7.292   8.232   9.919  0.3170 -0.9514 -0.1580
31902SOL     OW  835   0.816  10.549   1.726  0.1741 -0.7542 -0.6354
31902SOL    HW1  836   0.908  10.559   1.704 -0.0321  0.5102 -0.9718
31902SOL    HW2  837   0.805  10.456   1.744  2.2796 -0.4377  2.7419
31903SOL     OW  838   8.690   3.864   2.411 -0.3697  0.0958 -0.0544
31903SOL    HW1  839   8.677   3.958   2.425  0.7989  0.4826 -1.4826
31903SOL    HW2  840   8.749   3.838   2.481  1.0039  0.8689 -0.9126
31904SOL     OW  841  10.567   3.957   6.620 -0.7253 -0.1676 -0.1291
31904SOL    HW1  842  10.472   3.953   6.613 -0.6127 -0.6378 -1.5845
31904SOL    HW2  843  10.595   3.866   6.608 -0.1656 -0.2445  1.6413
31905SOL     OW  844   5.752   9.870   3.434  0.0096  0.0365  0.0672
31905SOL    HW1  845   5.670   9.850   3.388  0.2729 -1.2947  0.1686
31905SOL    HW2  846   5.731   9.947   3.486 -1.1901 -0.2914  0.0913
31906SOL     OW  847   8.595   5.650  10.199  0.0671 -0.2972 -0.1404
31906SOL    HW1  848   8.684   5.617  10.209  1.5933  3.1523 -1.3737
31906SOL    HW2  849   8.576   5.695  10.281 -0.5739 -1.0782  0.1434
31907SOL     OW  850  11.131   0.372   2.769  0.4519 -0.3925 -0.6367
31907SOL    HW1  851  11.089   0.430   2.832  2.2108 -1.2016  1.3564
31907SOL    HW2  852  11.196   0.427   2.724 -0.0627 -0.0719 -0.9891
31908SOL     OW  853   5.760  10.294   8.405 -0.2895  0.4578  0.2719
31908SOL    HW1  854   5.675  10.277   8.365 -0.5612  0.8171  0.6817
31908SOL    HW2  855   5.799  10.362   8.350  0.2702 -0.5854 -0.6402
31909SOL     OW  856   4.705   4.303   1.054 -0.4629  0.3850  0.1427
31909SOL    HW1  857   4.786   4.344   1.024 -0.7442 -0.0185 -1.2251
31909SOL    HW2  858   4.728   4.261   1.137  0.9782 -0.5367 -0.7051
31910SOL     OW  859   6.854   3.077   4.686  0.0205  0.2528  0.2414
31910SOL    HW1  860   6.907   3.097   4.609 -0.1853 -1.1109 -0.2807
31910SOL    HW2  861   6.820   3.161   4.715  2.2158  1.1158  0.4069
31911SOL     OW  862   7.404   2.343   6.121 -0.3835 -0.1229  0.3722
31911SOL    HW1  863   7.482   2.384   6.083  0.4142 -1.2227  0.7934
31911SOL    HW2  864   7.357   2.307   6.046 -0.8651  1.1656  0.0452
31912SOL     OW  865   5.337   8.411   1.492 -0.4411 -0.1414 -0.2162
31912SOL    HW1  866   5.267   8.431   1.430 -0.0443 -1.4399 -1.1124
31912SOL    HW2  867   5.326   8.318   1.511 -0.2837  0.1422  1.3282
31913SOL     OW  868   0.625   8.371  10.217  0.2061 -0.2888 -0.7596
31913SOL    HW1  869   0.581   8.287  10.231  0.8351 -0.8635 -2.1160
31913SOL    HW2  870   0.712   8.358  10.255 -0.0494  0.1054 -0.0351
31914SOL     OW  871   2.428   7.341   8.688 -0.0525 -0.3868  0.1130
31914SOL    HW1  872   2.442   7.389   8.770  0.2016 -1.0632  0.4664
31914SOL    HW2  873   2.512   7.301   8.668 -0.0112  0.0736 -0.6804
31915SOL     OW  874  10.283   0.993   5.858 -0.2314 -0.9893 -0.3199
31915SOL    HW1  875  10.266   1.084   5.881 -0.4944 -1.2063  0.3473
31915SOL    HW2  876  10.233   0.979   5.777  0.8513 -0.1748 -1.1431
31916SOL     OW  877  10.670   6.133   5.471 -0.7203  0.9050  0.4999
31916SOL    HW1  878  10.756   6.174   5.460 -0.3789 -0.2073 -1.0824
31916SOL    HW2  879  10.607   6.201   5.449 -0.2185  1.3135  0.3317
31917SOL     OW  880   6.625   9.119   5.062 -0.3253 -0.3240  0.0942
31917SOL    HW1  881   6.655   9.070   4.985  1.6301  0.3879  0.3744
31917SOL    HW2  882   6.570   9.057   5.110  1.2992 -1.9350 -0.0731
31918SOL     OW  883   1.949   8.749   3.236  0.0903  0.0815 -0.0486
31918SOL    HW1  884   2.011   8.712   3.298  0.2946 -1.8820 -1.3539
31918SOL    HW2  885   1.867   8.757   3.284  0.6222 -0.0357  0.8737
31919SOL     OW  886   2.357   9.983   1.949 -0.0260 -0.4220 -0.4707
31919SOL    HW1  887   2.269   9.947   1.957  0.4798 -1.2001  1.9511
31919SOL    HW2  888   2.343  10.076   1.930 -1.3586 -0.7217 -0.9898
31920SOL     OW  889   8.981   5.233   9.027  0.2106  0.7859  0.0823
31920SOL    HW1  890   8.962   5.285   9.105 -1.3091 -0.5713  0.6347
31920SOL    HW2  891   8.966   5.294   8.954 -2.5154  0.8910  0.6670
31921SOL     OW  892   7.854   0.041   6.061 -0.2014 -0.1514  0.2373
31921SOL    HW1  893   7.862   0.079   6.148 -0.2776 -0.8346  0.5528
31921SOL    HW2  894   7.893   0.105   6.002  1.3075 -0.3758  0.9620
31922SOL     OW  895   7.306   5.558   5.529 -0.2696  0.0297  0.3635
31922SOL    HW1  896   7.293   5.501   5.454 -0.1907  1.3008 -0.6468
31922SOL    HW2  897   7.368   5.512   5.585 -0.6890 -1.1368 -0.1291
31923SOL     OW  898   6.375   5.760   3.651 -0.5612  0.1151 -0.0664
31923SOL    HW1  899   6.439   5.700   3.691 -0.3941 -0.2499 -0.8683
31923SOL    HW2  900   6.305   5.766   3.715  1.1315  2.0175  1.6946
31924SOL     OW  901   5.372   5.164   3.197  0.2030 -0.8396 -0.8439
31924SOL    HW1  902   5.450   5.139   3.245  0.7760 -0.6020 -1.6316
31924SOL    HW2  903   5.405   5.215   3.123 -0.7108 -0.5629 -1.0717
31925SOL     OW  904   4.153  10.615   2.748 -0.8623  0.2822 -0.3185
31925SOL    HW1  905   4.233  10.609   2.696  0.0382  1.7774  0.8355
31925SOL    HW2  906   4.176  10.573   2.831 -1.2650  0.7416  0.0260
31926SOL     OW  907   2.960  10.252   5.519 -0.1606  0.0169  0.0977
31926SOL    HW1  908   2.910  10.296   5.450 -1.0978  3.3965  2.7445
31926SOL    HW2  909   2.894  10.202   5.567 -0.1751  0.5845  0.6784
31927SOL     OW  910   7.237   7.127   3.451  0.2318 -0.0065  0.0197
31927SOL    HW1  911   7.261   7.039   3.480 -0.6130 -0.1664  0.2539
31927SOL    HW2  912   7.191   7.114   3.368 -0.3314  0.1691  0.3024
31928SOL     OW  913   6.129   9.094  10.440 -0.3654 -1.2354  0.0178
31928SOL    HW1  914   6.117   9.004  10.409  0.6706 -1.2313 -0.4185
31928SOL    HW2  915   6.153   9.085  10.532 -1.4747 -1.3406  0.3079
31929SOL     OW  916   2.927   0.178   9.930 -0.2382 -0.5527 -0.4497
31929SOL    HW1  917   2.853   0.201   9.872  0.0382  1.3531 -0.0609
31929SOL    HW2  918   2.997   0.238   9.904 -0.2475  0.6176  2.1518
31930SOL     OW  919   3.738   2.463   9.730  0.1140  0.0865  0.4626
31930SOL    HW1  920   3.823   2.433   9.761  1.0924  3.4217  1.1917
31930SOL    HW2  921   3.691   2.488   9.810 -1.3104 -1.0476  0.0072
31931SOL     OW  922   8.342   1.315   1.759  0.1456 -0.0718 -0.1884
31931SOL    HW1  923   8.300   1.338   1.842  0.4302  0.2007 -0.1199
31931SOL    HW2  924   8.406   1.248   1.783 -0.5335 -0.7954 -0.3557
31932SOL     OW  925   7.259   5.443   9.215 -0.1491 -0.3671  0.6863
31932SOL    HW1  926   7.231   5.382   9.146  0.6283  0.6300 -0.5372
31932SOL    HW2  927   7.270   5.526   9.169 -2.9039  1.1641  2.6432
31933SOL     OW  928   4.189   7.440   1.694 -0.2800 -0.2460 -0.0981
31933SOL    HW1  929   4.197   7.533   1.673  0.5491 -0.6083 -1.4070
31933SOL    HW2  930   4.110   7.411   1.648  0.1553 -0.4763 -0.6974
31934SOL     OW  931   2.554   4.652   3.292  0.4328 -0.2812  0.0319
31934SOL    HW1  932   2.636   4.621   3.252  0.4645 -0.1042 -0.0432
31934SOL    HW2  933   2.554   4.613   3.379  0.3488 -0.6989 -0.1507
31935SOL     OW  934   9.897   7.346   7.366 -0.6900  0.4746 -0.1823
31935SOL    HW1  935   9.876   7.370   7.456  0.3642 -0.8041  0.4276
31935SOL    HW2  936   9.970   7.403   7.341  0.5213 -0.7204  0.5807
31936SOL     OW  937   9.636   6.829   1.489 -0.1251 -0.2067  0.3090
31936SOL    HW1  938   9.598   6.821   1.576 -0.0613 -0.1811  0.3389
31936SOL    HW2  939   9.688   6.749   1.478 -1.4476 -0.9867 -0.3433
31937SOL     OW  940   3.893   5.378   7.025  0.2924 -0.6970 -0.0796
31937SOL    HW1  941   3.854   5.421   6.948  1.7599  0.6109 -0.1279
31937SOL    HW2  942   3.841   5.408   7.099  0.7257  0.4390 -0.2276
31938SOL     OW  943   3.867   3.220   5.543  0.1263 -0.1107 -0.0057
31938SOL    HW1  944   3.870   3.125   5.552 -0.4241 -0.3258 -1.8173
31938SOL    HW2  945   3.917   3.239   5.464  0.0313  1.0935  0.2056
31939SOL     OW  946   7.372   6.164   7.329  0.2234 -0.2695  0.0067
31939SOL    HW1  947   7.277   6.173   7.336 -0.2959 -3.9206 -1.1476
31939SOL    HW2  948   7.394   6.203   7.245 -0.0548  1.6483  0.8018
31940SOL     OW  949   7.880   1.066   6.330  0.2430  0.3208  0.3043
31940SOL    HW1  950   7.909   1.040   6.243 -0.3196  1.0704 -0.1135
31940SOL    HW2  951   7.936   1.139   6.354 -0.9212  1.4200 -0.2809
31941SOL     OW  952   9.228   1.268   8.000 -0.5449  0.3620 -0.3628
31941SOL    HW1  953   9.299   1.212   8.032  0.8104  1.0940 -1.9832
31941SOL    HW2  954   9.157   1.207   7.980 -0.4666 -0.3620  1.4988
31942SOL     OW  955   5.438   1.052   1.350  0.3318 -0.1762 -0.8797
31942SOL    HW1  956   5.385   1.004   1.287 -0.3284 -0.7248  0.0705
31942SOL    HW2  957   5.459   0.987   1.417  2.5663 -0.0669 -1.4525
31943SOL     OW  958   8.875   3.389   2.332 -0.3434  1.1548 -0.1118
31943SOL    HW1  959   8.965   3.369   2.306 -0.5615  0.4225 -0.3167
31943SOL    HW2  960   8.871   3.485   2.333  0.6466  1.1938  0.6260
31944SOL     OW  961   1.534   4.408   8.026 -0.5939  0.8278 -0.1714
31944SOL    HW1  962   1.596   4.407   8.099  0.2319 -1.2444 -0.8540
31944SOL    HW2  963   1.450   4.386   8.067 -0.6792  2.4412  0.5658
31945SOL     OW  964   6.345   5.182   9.117 -0.5772 -0.6557 -1.0605
31945SOL    HW1  965   6.335   5.187   9.213 -1.1063 -0.1678 -1.1369
31945SOL    HW2  966   6.268   5.132   9.088 -1.0942  0.3049 -1.3516
31946SOL     OW  967   3.058   0.911  10.852  0.3474 -0.3120  0.3481
31946SOL    HW1  968   2.980   0.957  10.883 -1.1666 -2.3286 -0.3703
31946SOL    HW2  969   3.064   0.834  10.908  1.7870 -0.2231  0.3361
31947SOL     OW  970   1.686  10.674   8.136 -0.5885 -0.1320  0.0104
31947SOL    HW1  971   1.626  10.643   8.068 -0.5336  2.0929 -1.0724
31947SOL    HW2  972   1.646  10.754   8.169  0.3442 -0.1858  1.3088
31948SOL     OW  973   9.472  10.189   2.023 -0.8608  0.6058  0.1101
31948SOL    HW1  974   9.406  10.151   1.965 -0.2842 -0.7590  0.3166
31948SOL    HW2  975   9.524  10.114   2.051  0.1268  1.5335  0.7768
31949SOL     OW  976   7.788   2.943   6.260 -0.0542 -0.0684 -0.2554
31949SOL    HW1  977   7.799   3.031   6.296  0.0125  0.0233 -0.4991
31949SOL    HW2  978   7.766   2.957   6.168 -1.7287 -0.2595  0.0985
31950SOL     OW  979   6.071   1.983   7.334  0.3917  0.2531  0.0347
31950SOL    HW1  980   6.012   1.973   7.408  0.7606 -6.4347 -0.2700
31950SOL    HW2  981   6.158   1.991   7.373  0.1899  1.1373  0.3226
31951SOL     OW  982   1.607  10.437   4.576 -0.1414  0.1562 -0.3525
31951SOL    HW1  983   1.611  10.481   4.491 -0.8536 -0.0796 -0.5141
31951SOL    HW2  984   1.696  10.408   4.592 -0.0568 -0.0418 -1.1526
31952SOL     OW  985   6.913   2.820   4.429  0.2164  0.5960 -0.3334
31952SOL    HW1  986   6.834   2.829   4.483 -0.4020  1.5854 -1.3926
31952SOL    HW2  987   6.941   2.910   4.413  2.8604  0.2290  1.9112
31953SOL     OW  988  10.448   1.882   0.061  0.6395  0.2571 -0.0309
31953SOL    HW1  989  10.405   1.945   0.003 -0.4343 -0.0067  0.4528
31953SOL    HW2  990  10.494   1.823   0.002  0.0881  0.3726 -0.5875
31954SOL     OW  991   6.479   9.395   6.412 -0.1566 -0.1113 -0.2544
31954SOL    HW1  992   6.487   9.488   6.394 -2.4177  0.3046  0.6673
31954SOL    HW2  993   6.555   9.373   6.466 -0.1257  1.3994  0.3176
31955SOL     OW  994   5.472   1.711   6.192 -0.3462 -0.1585  0.7732
31955SOL    HW1  995   5.505   1.627   6.225 -0.5689 -0.7228 -0.3815
31955SOL    HW2  996   5.525   1.777   6.235 -1.5104 -0.7842  3.2592
31956SOL     OW  997   3.886   1.990   5.216  0.2567 -0.1083 -0.4145
31956SOL    HW1  998   3.825   1.924   5.249  0.0732  0.8063  1.1132
31956SOL    HW2  999   3.840   2.033   5.144  0.3161 -1.5219 -1.3249
31957SOL     OW 1000   7.314  10.970   6.043  0.3682  0.1138  0.3844
31957SOL    HW1 1001   7.231  10.937   6.009  0.6043 -1.1510  1.0036
31957SOL    HW2 1002   7.316  10.941   6.134  1.0256  1.0327  0.6725
31958SOL     OW 1003  10.155   5.520   3.290  0.0445 -0.5338  0.0295
31958SOL    HW1 1004  10.188   5.600   3.331  0.8159 -1.4179  1.1870
31958SOL    HW2 1005  10.233   5.478   3.254 -0.1794 -1.3373  0.4600
31959SOL     OW 1006   0.437   8.794  10.580  0.2435 -0.3724 -0.1305
31959SOL    HW1 1007   0.446   8.709  10.623 -1.0179 -1.2646 -1.5824
31959SOL    HW2 1008   0.406   8.853  10.649 -0.5817 -1.4900  0.4574
31960SOL     OW 1009   2.191   1.905   4.903  0.0809  0.1394  0.1370
31960SOL    HW1 1010   2.214   1.821   4.863  0.8598  0.6300 -0.4481
31960SOL    HW2 1011   2.191   1.967   4.831  1.1090  0.9537  0.8287
31961SOL     OW 1012   2.469   5.216   9.237 -0.4064  0.5532  0.6879
31961SOL    HW1 1013   2.467   5.310   9.218 -2.0035  0.2332 -0.8617
31961SOL    HW2 1014   2.553   5.186   9.201 -0.1829  1.2604  0.6079
31962SOL     OW 1015   4.620   5.769  10.262  0.1313  0.0781  0.0614
31962SOL    HW1 1016   4.597   5.789  10.353  1.5223  1.3916  0.1502
31962SOL    HW2 1017   4.554   5.814  10.210 -1.1704 -1.3764  0.4264
31963SOL     OW 1018   7.083  10.443   3.472  0.0246  0.0645 -0.1995
31963SOL    HW1 1019   7.005  10.410   3.517 -0.1099  0.7622  0.0921
31963SOL    HW2 1020   7.121  10.366   3.430 -0.2034 -0.4921  0.5830
31964SOL     OW 1021   2.956   7.419   9.506  0.3731 -0.3161 -0.3588
31964SOL    HW1 1022   2.963   7.486   9.438  1.8306 -0.4050 -0.3206
31964SOL    HW2 1023   2.885   7.449   9.563  1.5510  1.6436  0.1400
31965SOL     OW 1024   0.097   3.833  11.163 -0.0377 -0.1992 -0.0969
31965SOL    HW1 1025   0.072   3.913  11.209 -1.6344 -0.7044 -0.0759
31965SOL    HW2 1026   0.147   3.864  11.087 -1.6437  0.8856 -0.7411
31966SOL     OW 1027   1.742   8.313   6.436 -0.5670  0.7424 -0.5359
31966SOL    HW1 1028   1.674   8.319   6.503 -0.4322 -0.7273 -0.2402
31966SOL    HW2 1029   1.824   8.324   6.485 -0.4796 -0.0893 -0.4905
31967SOL     OW 1030   1.091   6.895   5.689 -0.3825  0.4102 -0.0819
31967SOL    HW1 1031   1.168   6.902   5.745 -1.5741 -0.3917  1.7143
31967SOL    HW2 1032   1.101   6.810   5.646  0.8579  1.3123 -1.6131
31968SOL     OW 1033   4.694   2.764   1.795  0.1330 -0.0185  0.2770
31968SOL    HW1 1034   4.616   2.727   1.836 -0.0796 -0.2360 -0.3220
31968SOL    HW2 1035   4.762   2.698   1.808 -0.1527 -0.4697 -0.4664
31969SOL     OW 1036   4.227  10.961  10.074 -0.2524  0.2701 -0.3348
31969SOL    HW1 1037   4.266  10.931   9.991  0.8117 -1.1898  0.6562
31969SOL    HW2 1038   4.262  11.049  10.086  0.4462  0.0818 -0.9156
31970SOL     OW 1039   7.700   8.060   8.228 -0.0124 -0.6417  0.7507
31970SOL    HW1 1040   7.731   8.114   8.301  0.3926 -1.4383  1.1702
31970SOL    HW2 1041   7.763   8.075   8.159 -0.0128 -0.4227  0.7980
31971SOL     OW 1042   2.124   1.537   0.582 -0.7301  0.8082  0.3511
31971SOL    HW1 1043   2.117   1.448   0.549 -0.9260  1.0574 -0.2828
31971SOL    HW2 1044   2.209   1.540   0.627  0.0233  0.7558 -1.0291
31972SOL     OW 1045   3.152   3.659  10.019 -0.4649  0.3232 -0.1722
31972SOL    HW1 1046   3.200   3.737   9.990 -1.3612  1.1813  0.6095
31972SOL    HW2 1047   3.062   3.689  10.028 -1.2207 -1.3403 -1.9158
31973SOL     OW 1048   9.927  10.505   6.576 -0.3722 -0.7533  0.4760
31973SOL    HW1 1049   9.914  10.479   6.667 -0.1957  1.4764  1.1786
31973SOL    HW2 1050  10.016  10.541   6.573 -0.5489 -0.3543 -0.4478
31974SOL     OW 1051   5.283   2.119   9.750 -0.3558  0.0907  0.4833
31974SOL    HW1 1052   5.267   2.025   9.758 -0.7222  0.0151 -1.0319
31974SOL    HW2 1053   5.198   2.159   9.771 -1.0690 -0.0665 -2.0033
31975SOL     OW 1054   3.512   5.037   1.332  0.2540 -0.0263  0.3424
31975SOL    HW1 1055   3.472   5.121   1.351 -1.1047 -0.2023 -1.5443
31975SOL    HW2 1056   3.464   4.974   1.387 -0.5532  0.0910 -0.2063
31976SOL     OW 1057   1.266   9.343   4.433 -0.0890  0.1082  0.1383
31976SOL    HW1 1058   1.331   9.361   4.364 -0.6757  1.6292 -0.0497
31976SOL    HW2 1059   1.185   9.327   4.386 -0.0469 -0.8887  0.4072
31977SOL     OW 1060   4.685   7.182   4.777  0.1407 -0.5788  0.1388
31977SOL    HW1 1061   4.754   7.121   4.750 -0.4575 -0.8793 -0.7217
31977SOL    HW2 1062   4.628   7.189   4.700 -0.5682 -0.0209  0.7153
31978SOL     OW 1063   4.450   7.249   4.002 -0.2946  0.4982 -1.2249
31978SOL    HW1 1064   4.545   7.246   4.017 -0.2801  1.2401 -1.1540
31978SOL    HW2 1065   4.413   7.271   4.088 -0.6053 -0.7088 -1.0325
31979SOL     OW 1066   8.251   1.462   3.349  0.0452 -0.7344 -0.0268
31979SOL    HW1 1067   8.296   1.412   3.281  1.1847 -1.3680  1.1608
31979SOL    HW2 1068   8.195   1.398   3.393 -0.6678 -0.3345 -0.3350
31980SOL     OW 1069   2.175   8.671  10.031  0.1688 -0.2563 -0.4152
31980SOL    HW1 1070   2.122   8.610  10.082  1.6430 -1.3694 -0.1791
31980SOL    HW2 1071   2.266   8.646  10.051  0.7745  0.5151 -2.1350
31981SOL     OW 1072   8.519   8.298   8.299  0.5283 -0.2020 -0.4059
31981SOL    HW1 1073   8.517   8.334   8.211 -0.1500 -0.9086 -0.6884
31981SOL    HW2 1074   8.435   8.252   8.308  0.5440 -0.0369  0.6445
31982SOL     OW 1075   1.186   0.623   3.517 -0.1087  0.1326  0.2798
31982SOL    HW1 1076   1.227   0.704   3.488  0.6294 -0.8172 -1.4112
31982SOL    HW2 1077   1.252   0.582   3.574  0.5175 -0.4425 -0.8433
31983SOL     OW 1078   7.996   8.618   5.501 -0.9180  0.0157  0.1448
31983SOL    HW1 1079   8.042   8.653   5.578 -0.0809 -2.3689  0.7661
31983SOL    HW2 1080   8.044   8.652   5.426  1.2987 -1.6481  0.7775
31984SOL     OW 1081  11.235   0.481   0.572  0.2685 -0.5911  0.4495
31984SOL    HW1 1082  11.144   0.483   0.541  0.3712  1.0086  0.2279
31984SOL    HW2 1083  11.257   0.572   0.589  2.2774 -0.8089 -0.7731
31985SOL     OW 1084   9.185   3.735   6.882  0.5056 -0.6750  0.3840
31985SOL    HW1 1085   9.239   3.685   6.821  0.0303 -1.3329  0.4926
31985SOL    HW2 1086   9.151   3.670   6.943 -0.0616 -0.2105  0.5756
31986SOL     OW 1087   4.477   1.377   3.615 -0.0983  0.8303 -0.6975
31986SOL    HW1 1088   4.531   1.371   3.695 -1.8074 -0.2749  0.4092
31986SOL    HW2 1089   4.521   1.320   3.552  0.9772  1.2966 -0.3868
31987SOL     OW 1090   5.106   6.072   3.106  0.0288  0.1655  0.1685
31987SOL    HW1 1091   5.183   6.116   3.142  0.5981 -1.0715  0.4966
31987SOL    HW2 1092   5.032   6.122   3.140  0.6919  1.4314 -0.2481
31988SOL     OW 1093   1.041   4.941   3.023  0.2183 -0.4395 -0.6934
31988SOL    HW1 1094   1.109   4.883   3.057 -0.2344 -0.0304  0.9490
31988SOL    HW2 1095   0.959   4.906   3.059 -0.2309  0.1812 -1.1086
31989SOL     OW 1096   9.114  10.781   0.525 -0.3215 -0.0644 -0.1450
31989SOL    HW1 1097   9.087  10.839   0.596 -1.5845 -0.5550 -0.2061
31989SOL    HW2 1098   9.209  10.774   0.534 -0.1452  2.0019 -0.1428
31990SOL     OW 1099   5.057  11.284  10.039  0.1136 -0.1026 -0.3988
31990SOL    HW1 1100   5.127  11.344  10.065  0.9996 -0.8774 -0.9602
31990SOL    HW2 1101   5.074  11.266   9.946 -0.3742 -0.9068 -0.3389
31991SOL     OW 1102   0.828   2.836   1.169 -0.3326  0.5622 -0.2505
31991SOL    HW1 1103   0.864   2.852   1.256 -1.4361  0.7085  0.1845
31991SOL    HW2 1104   0.772   2.758   1.180 -0.9966  0.9737 -0.6754
31992SOL     OW 1105   6.243   2.779   7.718 -0.3041  0.6585 -0.3231
31992SOL    HW1 1106   6.186   2.829   7.660 -1.2511  0.2953  0.2837
31992SOL    HW2 1107   6.204   2.790   7.805  1.7648  2.2169  0.4676
31993SOL     OW 1108   4.045   4.407   0.804 -0.0594 -0.6792  0.3335
31993SOL    HW1 1109   3.950   4.410   0.808 -0.0280 -0.4760  0.8563
31993SOL    HW2 1110   4.073   4.498   0.814  0.1094 -0.4615 -1.8612
31994SOL     OW 1111   9.425   0.070  10.779  0.5746 -0.4075 -0.4580
31994SOL    HW1 1112   9.457   0.142  10.835  0.3156  0.0265 -0.8646
31994SOL    HW2 1113   9.330   0.079  10.781  0.5314 -0.8812 -0.3302
31995SOL     OW 1114   0.934   6.172  11.261  0.2530  0.1210  0.0740
31995SOL    HW1 1115   0.947   6.262  11.290 -0.7343  0.3255 -0.1083
31995SOL    HW2 1116   0.860   6.177  11.199 -0.4042 -0.9442  0.7652
31996SOL     OW 1117  10.376   2.769   9.975  0.7930 -0.2036 -0.1156
31996SOL    HW1 1118  10.321   2.825  10.030  0.6663  0.3162 -0.7664
31996SOL    HW2 1119  10.397   2.694  10.031 -2.4568 -1.5684 -0.6016
31997SOL     OW 1120   9.089   4.889   8.762  0.4477  0.1281  0.3649
31997SOL    HW1 1121   9.134   4.836   8.696  1.1895 -0.1225  1.0628
31997SOL    HW2 1122   9.149   4.890   8.837  0.0372  1.1855  0.6984
31998SOL     OW 1123   5.935   2.491   0.650  0.3524  0.4124  0.6119
31998SOL    HW1 1124   5.863   2.430   0.629  1.0396 -0.2510  0.1514
31998SOL    HW2 1125   5.891   2.571   0.677 -0.6121  0.8771 -2.1425
31999SOL     OW 1126  10.643   6.002   8.660  0.5868  0.5323  0.2684
31999SOL    HW1 1127  10.550   5.981   8.656  0.4694  0.9858  0.5879
31999SOL    HW2 1128  10.654   6.074   8.598  1.0346 -0.6104 -1.0265
32000SOL     OW 1129   8.848   9.013   2.969 -0.1388  0.1715 -0.3449
32000SOL    HW1 1130   8.907   9.088   2.961 -0.0524  0.0652 -0.7655
32000SOL    HW2 1131   8.760   9.051   2.962 -0.1681  0.4645  1.3776
32001SOL     OW 1132   5.260   6.122   5.711 -0.1746 -0.0576 -0.1992
32001SOL    HW1 1133   5.213   6.039   5.698 -0.1841 -0.2305  0.8960
32001SOL    HW2 1134   5.332   6.099   5.771  0.7634  0.4021 -1.1344
32002SOL     OW 1135   4.805   1.287   7.561  0.3949  0.4440 -0.2036
32002SOL    HW1 1136   4.807   1.331   7.646 -0.5633  0.4049 -0.1623
32002SOL    HW2 1137   4.853   1.346   7.502  1.8303  0.0594  0.5501
32003SOL     OW 1138   1.316   5.214   6.684 -0.0248 -0.0061  0.1846
32003SOL    HW1 1139   1.352   5.266   6.756 -0.3516  0.1808  0.2109
32003SOL    HW2 1140   1.280   5.136   6.726  0.6211 -0.3407  0.1271
32004SOL     OW 1141   0.052   1.019   0.527  0.3429 -0.5459 -0.4041
32004SOL    HW1 1142   0.139   0.997   0.492  1.1709  0.2002  1.1294
32004SOL    HW2 1143   0.032   0.948   0.588 -1.2118 -1.9781 -2.5124
32005SOL     OW 1144   2.294   2.285   0.860  0.1238 -0.1836  0.7958
32005SOL    HW1 1145   2.239   2.226   0.809  1.5540 -0.8586 -0.0005
32005SOL    HW2 1146   2.244   2.366   0.866 -0.5776 -0.4970 -0.6517
32006SOL     OW 1147   8.934   4.825   7.864  0.2043 -0.0488  0.4452
32006SOL    HW1 1148   8.889   4.751   7.823 -0.4096  0.7947 -0.3997
32006SOL    HW2 1149   8.865   4.873   7.910  0.4358  0.6070  0.1050
32007SOL     OW 1150  10.477  10.982  10.172  0.8978 -0.1162 -0.6662
32007SOL    HW1 1151  10.455  10.894  10.143 -0.4833  0.3678 -1.1602
32007SOL    HW2 1152  10.569  10.978  10.196  0.6914 -1.8277 -0.1320
32008SOL     OW 1153   8.353   3.969   9.436 -0.0930  0.0092 -0.0305
32008SOL    HW1 1154   8.380   4.005   9.520  2.5109 -2.9316  0.4540
32008SOL    HW2 1155   8.379   4.035   9.372 -0.6892  1.5594  1.2886
32009SOL     OW 1156   2.618   4.942   8.970  0.4302 -0.3332  0.0067
32009SOL    HW1 1157   2.526   4.924   8.985  0.3649 -0.5654 -0.6822
32009SOL    HW2 1158   2.625   4.961   8.877  1.1419 -0.7050 -0.0225
32010SOL     OW 1159   3.256   0.332   3.470  0.0562 -0.3384 -0.1437
32010SOL    HW1 1160   3.231   0.311   3.560  2.1234  0.5160  0.6806
32010SOL    HW2 1161   3.303   0.254   3.439  0.5640 -0.1055  0.0273
32011SOL     OW 1162  10.054   8.581   6.963  0.4847 -0.1492 -0.6835
32011SOL    HW1 1163  10.035   8.494   6.929 -0.3187 -0.1856 -0.1496
32011SOL    HW2 1164   9.988   8.596   7.030  1.4075  0.3469  0.1410
32012SOL     OW 1165   5.309   3.904   5.060 -0.4309 -0.3143  0.9373
32012SOL    HW1 1166   5.270   3.823   5.026 -0.6892 -0.0879  0.6804
32012SOL    HW2 1167   5.391   3.877   5.101  0.0424 -0.5612 -0.1474
32013SOL     OW 1168   6.230   5.848   4.612 -0.1667 -0.0388 -0.0923
32013SOL    HW1 1169   6.262   5.796   4.538 -0.2556  0.6457 -0.6195
32013SOL    HW2 1170   6.303   5.851   4.673 -0.3970 -1.3639  0.2558
32014SOL     OW 1171   7.235   3.185   4.160  0.9370  0.0631  0.5261
32014SOL    HW1 1172   7.320   3.228   4.167  1.7899 -1.6158  0.6315
32014SOL    HW2 1173   7.172   3.257   4.152  2.2389  1.3508  1.6843
32015SOL     OW 1174   1.490   3.866   6.891  0.0912 -0.5907 -0.0005
32015SOL    HW1 1175   1.481   3.809   6.814  0.2349  0.1027 -0.5363
32015SOL    HW2 1176   1.564   3.922   6.870 -0.0724 -0.1854  0.5163
32016SOL     OW 1177  11.188   7.222   6.937  0.1872  0.0957 -0.4608
32016SOL    HW1 1178  11.185   7.309   6.897 -0.4091  0.1052 -0.4001
32016SOL    HW2 1179  11.259   7.177   6.892  0.0164  0.3636 -1.0041
32017SOL     OW 1180   2.648   2.653   6.315 -0.0979 -0.5541 -0.1186
32017SOL    HW1 1181   2.670   2.600   6.392 -0.3851 -0.9296 -0.2941
32017SOL    HW2 1182   2.617   2.736   6.351  0.5639 -0.4247  0.1544
32018SOL     OW 1183   5.160   4.153  10.131  0.0936 -0.1508 -0.0519
32018SOL    HW1 1184   5.117   4.068  10.139 -0.0441 -0.0493  0.3103
32018SOL    HW2 1185   5.203   4.167  10.216  0.0201  0.1885 -0.0672
32019SOL     OW 1186   3.909   4.776  10.193 -0.1118 -0.7516 -0.5328
32019SOL    HW1 1187   3.844   4.845  10.204 -0.2701 -0.7085 -1.6739
32019SOL    HW2 1188   3.859   4.698  10.171  0.1311 -1.0320 -0.1091
32020SOL     OW 1189   8.699   0.311   0.116  0.0487  0.1616  0.2584
32020SOL    HW1 1190   8.691   0.294   0.210 -0.2698 -2.2238 -0.1836
32020SOL    HW2 1191   8.614   0.348   0.091  0.6579  2.3000  1.1638
32021SOL     OW 1192   0.527   3.719   7.833 -0.5288  0.0978 -0.2772
32021SOL    HW1 1193   0.450   3.729   7.776  1.1389 -0.8001 -2.7939
32021SOL    HW2 1194   0.601   3.732   7.774  1.2697  2.9560  2.5226
32022SOL     OW 1195  10.581   4.437   2.839 -0.1562  0.3219 -0.4369
32022SOL    HW1 1196  10.516   4.375   2.873 -0.3361  0.4693 -0.5058
32022SOL    HW2 1197  10.620   4.392   2.764  1.7655 -0.8686  1.2456
32023SOL     OW 1198   1.898   2.102   7.501  0.1418  0.1165 -0.0707
32023SOL    HW1 1199   1.897   2.126   7.408  0.9339 -1.0842 -0.4064
32023SOL    HW2 1200   1.932   2.013   7.502 -2.5470 -0.9620  1.1391
32024SOL     OW 1201   2.719   8.898   1.775 -0.2126  0.1340  0.0925
32024SOL    HW1 1202   2.673   8.871   1.695  0.7411  0.5167 -0.6002
32024SOL    HW2 1203   2.702   8.992   1.781 -0.6560  0.0176  0.5808
32025SOL     OW 1204   0.043   7.199   3.722 -0.1342  0.2043  0.1528
32025SOL    HW1 1205  -0.031   7.170   3.776 -1.0108  0.5927 -0.8236
32025SOL    HW2 1206   0.107   7.232   3.785 -1.0917  0.5332  0.9733
32026SOL     OW 1207   4.137   1.068   2.714 -0.3141 -0.1142  0.3787
32026SOL    HW1 1208   4.177   1.062   2.627 -2.2054 -0.3242 -0.5023
32026SOL    HW2 1209   4.082   0.990   2.720 -1.3564  0.6681  1.1597
32027SOL     OW 1210   8.543   0.510   3.446  0.4147  0.4545  0.4739
32027SOL    HW1 1211   8.486   0.434   3.432  1.0129  0.1424 -0.3106
32027SOL    HW2 1212   8.541   0.557   3.363  0.4569  1.0206  0.7932
32028SOL     OW 1213  11.026   4.940   3.383 -0.8878  0.1078 -0.5933
32028SOL    HW1 1214  10.936   4.975   3.386 -1.6535 -1.6669 -1.8719
32028SOL    HW2 1215  11.044   4.928   3.290  0.7261  0.4912 -0.3474
32029SOL     OW 1216   5.539   2.351  10.656 -0.1001  0.0941  0.6327
32029SOL    HW1 1217   5.527   2.437  10.616  1.3686  0.6689  1.3827
32029SOL    HW2 1218   5.451   2.324  10.682 -0.6153  1.2146  0.0908
32030SOL     OW 1219   6.775   0.368   2.895  0.4019  0.1782 -0.2810
32030SOL    HW1 1220   6.792   0.462   2.907  2.2926 -0.1081 -0.6861
32030SOL    HW2 1221   6.814   0.327   2.972 -2.0676 -0.1425  0.8600
32031SOL     OW 1222   2.029   2.793   9.667 -0.0315 -0.1398  0.5190
32031SOL    HW1 1223   1.943   2.804   9.709  0.1057  0.5489  0.6163
32031SOL    HW2 1224   2.036   2.867   9.607  1.0951  0.5909  1.5262
32032SOL     OW 1225  11.104   0.156   4.591  0.6990 -0.2292 -0.0392
32032SOL    HW1 1226  11.116   0.251   4.590 -1.7087  0.1273  1.3478
32032SOL    HW2 1227  11.138   0.129   4.676 -0.0321 -0.3968  0.1997
32033SOL     OW 1228  10.713   0.658   5.874  0.6553  0.2526  0.4203
32033SOL    HW1 1229  10.718   0.662   5.778  0.1757 -0.4258  0.3560
32033SOL    HW2 1230  10.650   0.725   5.898  0.8564  0.4954  0.2685
32034SOL     OW 1231   9.205   5.625   8.649  0.0346  0.5900 -0.3666
32034SOL    HW1 1232   9.274   5.590   8.592  0.9014  1.5340  0.0714
32034SOL    HW2 1233   9.125   5.620   8.597  0.0278 -2.4948 -0.1479
32035SOL     OW 1234   5.760   2.857   0.714 -0.2876 -0.0018  0.1592
32035SOL    HW1 1235   5.809   2.936   0.693 -3.4063  1.5073 -1.8163
32035SOL    HW2 1236   5.705   2.881   0.788 -1.7045 -0.0922 -0.8405
32036SOL     OW 1237   5.515  11.159   5.544  0.2889 -0.0067  0.0883
32036SOL    HW1 1238   5.537  11.164   5.637  1.2107 -1.6832 -0.0269
32036SOL    HW2 1239   5.431  11.112   5.541  1.6010 -2.4216 -0.0647
32037SOL     OW 1240   0.709  10.974   9.019  0.1962 -0.1222  0.1273
32037SOL    HW1 1241   0.784  11.022   8.983  1.4633  0.7760  3.7750
32037SOL    HW2 1242   0.650  11.042   9.050 -0.4564 -0.8823  0.5672
32038SOL     OW 1243   7.198   0.208   5.187 -0.4681  0.1435  0.2116
32038SOL    HW1 1244   7.104   0.219   5.198 -0.7615 -0.1031 -1.8917
32038SOL    HW2 1245   7.210   0.114   5.174  0.0770  0.1794  0.4127
32039SOL     OW 1246   0.391   6.585   6.932 -0.3301 -0.1338  0.0392
32039SOL    HW1 1247   0.302   6.589   6.968 -0.3179 -0.7978  0.1533
32039SOL    HW2 1248   0.389   6.511   6.871  0.1244 -0.0977 -0.0232
32040SOL     OW 1249   0.404   0.605   7.411  0.1925  0.2331  0.4975
32040SOL    HW1 1250   0.325   0.598   7.465 -0.6128  0.9246 -0.5643
32040SOL    HW2 1251   0.376   0.578   7.324  1.0577  0.7606  0.0490
32041SOL     OW 1252   9.087   1.928   6.651  0.1343  0.0700  0.2545
32041SOL    HW1 1253   9.170   1.969   6.675  1.1403 -1.7257 -0.0672
32041SOL    HW2 1254   9.109   1.868   6.580 -1.1244 -1.5951  1.2016
32042SOL     OW 1255   6.900   3.291   1.925 -0.6983  0.3197  0.3856
32042SOL    HW1 1256   6.861   3.331   2.003 -0.2759 -1.2771  1.4235
32042SOL    HW2 1257   6.883   3.198   1.934 -0.4803  0.0963 -1.3528
32043SOL     OW 1258   6.051   8.895   1.430 -0.0225  0.3576  0.3531
32043SOL    HW1 1259   6.023   8.986   1.429 -0.3086  0.3020  2.1354
32043SOL    HW2 1260   6.133   8.895   1.479  0.9666 -0.0811 -1.2750
32044SOL     OW 1261   5.332   0.984  10.652 -0.2171 -0.2647 -0.8701
32044SOL    HW1 1262   5.415   0.951  10.686 -0.5615 -0.7443 -0.4893
32044SOL    HW2 1263   5.348   0.995  10.558  0.5659  0.5459 -0.6606
32045SOL     OW 1264   4.610   6.778   0.987  0.0238 -0.2943 -0.1323
32045SOL    HW1 1265   4.656   6.856   1.018  1.7791 -1.0753 -0.7113
32045SOL    HW2 1266   4.573   6.804   0.903  1.3064 -0.3382 -0.7100
32046SOL     OW 1267   3.194   0.343   0.507 -0.6922  0.4100 -0.3463
32046SOL    HW1 1268   3.284   0.334   0.539 -0.8252  0.4496  0.0426
32046SOL    HW2 1269   3.176   0.437   0.514 -0.8641  0.3631 -0.1485
32047SOL     OW 1270  11.100  10.526  10.248 -0.0805 -0.1430  0.0728
32047SOL    HW1 1271  11.104  10.445  10.299  0.3231 -0.2416 -0.1190
32047SOL    HW2 1272  11.170  10.581  10.284 -1.3089  0.7233  1.2354
32048SOL     OW 1273   4.836   3.725   2.517 -0.1283  0.2494 -0.1705
32048SOL    HW1 1274   4.901   3.673   2.563  1.6266  2.5616  0.0537
32048SOL    HW2 1275   4.784   3.764   2.587 -0.7972 -0.3672 -0.3147
32049SOL     OW 1276   7.561   5.455   8.164 -0.3425 -0.1931  0.4509
32049SOL    HW1 1277   7.518   5.371   8.175 -0.3577 -0.3863 -0.9821
32049SOL    HW2 1278   7.549   5.476   8.072  0.1223  1.1257  0.6819
32050SOL     OW 1279   0.738   6.427   7.146  0.0026  0.5109  0.0703
32050SOL    HW1 1280   0.748   6.427   7.051 -1.3023 -0.3032 -0.0895
32050SOL    HW2 1281   0.643   6.426   7.160  0.1846  0.5024  1.3735
32051SOL     OW 1282   0.650   3.762   7.148 -0.1566 -0.5009  0.3876
32051SOL    HW1 1283   0.602   3.837   7.184  0.7035  0.3906 -0.3005
32051SOL    HW2 1284   0.704   3.799   7.079  1.8747 -1.4009  1.4518
32052SOL     OW 1285   1.201   7.935   6.288  0.1606  0.4510  0.2697
32052SOL    HW1 1286   1.165   7.904   6.205 -1.7900  2.3715  0.3580
32052SOL    HW2 1287   1.295   7.944   6.272 -0.0433 -0.2163 -1.3915
32053SOL     OW 1288  11.300   0.711   2.804  0.0782 -0.4069 -0.4383
32053SOL    HW1 1289  11.274   0.682   2.717 -2.1830 -0.4902  0.2419
32053SOL    HW2 1290  11.339   0.798   2.789  1.1638 -1.0770 -1.6900
32054SOL     OW 1291   7.807   6.903  10.217 -0.0461 -0.0987  0.8811
32054SOL    HW1 1292   7.733   6.854  10.183 -1.2247  1.5189  1.0305
32054SOL    HW2 1293   7.772   6.950  10.293  1.0255  0.9781  0.7252
32055SOL     OW 1294  10.187   3.150  10.226 -0.2444  0.6640  0.5029
32055SOL    HW1 1295  10.173   3.066  10.184 -0.5128  1.2518 -0.6171
32055SOL    HW2 1296  10.195   3.212  10.153 -0.0137  1.5929  1.3084
32056SOL     OW 1297   3.292   2.061   6.967 -0.3701  0.6365  0.0948
32056SOL    HW1 1298   3.330   2.044   7.054  0.5949 -2.2036 -0.8221
32056SOL    HW2 1299   3.360   2.110   6.921  0.1702 -0.0568  0.1308
32057SOL     OW 1300   5.726   6.236   8.381  0.5414  0.0481  0.1885
32057SOL    HW1 1301   5.696   6.306   8.440  1.3371  0.8076 -0.3004
32057SOL    HW2 1302   5.792   6.278   8.326  0.9143 -1.0581 -0.2126
32058SOL     OW 1303   6.469   4.588  10.107  0.2310 -0.4134  0.3398
32058SOL    HW1 1304   6.410   4.529  10.059  0.0126  1.1451 -1.3862
32058SOL    HW2 1305   6.529   4.621  10.040 -0.4574  2.3095  0.9909
32059SOL     OW 1306  10.636   5.148   7.788  0.5460  0.2837  0.0433
32059SOL    HW1 1307  10.688   5.215   7.832  1.1006  0.4336 -0.8319
32059SOL    HW2 1308  10.602   5.191   7.709  1.8027 -0.7506 -1.0958
32060SOL     OW 1309   2.535   6.296   8.019  0.2193  0.4377  0.1317
32060SOL    HW1 1310   2.608   6.274   8.076 -0.5669  1.6526  1.6265
32060SOL    HW2 1311   2.519   6.389   8.035 -2.2071 -0.0178  0.4826
32061SOL     OW 1312   3.788   2.297   1.211  0.1907  0.0168  0.0529
32061SOL    HW1 1313   3.756   2.235   1.145 -0.4202  0.7278 -0.3298
32061SOL    HW2 1314   3.807   2.243   1.287  0.1695 -0.7125 -0.4512
32062SOL     OW 1315   7.275   1.726   9.948  0.4276  0.1245  0.1519
32062SOL    HW1 1316   7.257   1.769  10.032 -1.9303 -0.2205 -0.1438
32062SOL    HW2 1317   7.327   1.790   9.899  0.2201  1.0856  1.1653
32063SOL     OW 1318   2.072   7.992   5.197  0.2047  0.9818  0.6478
32063SOL    HW1 1319   1.998   8.025   5.146  0.4260 -0.2758 -0.5390
32063SOL    HW2 1320   2.064   8.035   5.282 -1.3071  1.6355  0.1961
32064SOL     OW 1321   1.190   6.647   7.135  0.1014  0.0843  0.0776
32064SOL    HW1 1322   1.139   6.703   7.077 -0.0612  0.7460  0.8582
32064SOL    HW2 1323   1.143   6.564   7.136  0.1780  0.0133 -0.8380
32065SOL     OW 1324   5.237   1.082   9.443 -0.1167  0.1888  0.1008
32065SOL    HW1 1325   5.189   1.060   9.523  0.5709  0.0359  0.4779
32065SOL    HW2 1326   5.169   1.097   9.377 -0.6445 -2.0705  0.0902
32066SOL     OW 1327   1.877   6.002   5.997  0.4641  0.4390  0.5371
32066SOL    HW1 1328   1.953   6.045   6.035  0.3823  1.0778 -0.0099
32066SOL    HW2 1329   1.848   5.940   6.065  1.5329  0.0992  0.6959
32067SOL     OW 1330   4.183   4.716   9.964 -0.1030  0.0774  0.1549
32067SOL    HW1 1331   4.135   4.793   9.933  1.8952  1.1098 -0.4885
32067SOL    HW2 1332   4.240   4.750  10.033  1.4691 -0.6313 -0.7713
32068SOL     OW 1333   1.455   8.336   4.200  0.0526 -0.1637  0.2296
32068SOL    HW1 1334   1.513   8.356   4.126  0.2597 -1.1680  0.1058
32068SOL    HW2 1335   1.369   8.327   4.160  0.3035 -1.5471 -0.0350
32069SOL     OW 1336   4.488   5.581   1.666  0.4935  0.2602 -0.0330
32069SOL    HW1 1337   4.493   5.585   1.570  2.3763 -2.5152 -0.1355
32069SOL    HW2 1338   4.439   5.501   1.684  1.0195  0.2249  1.3058
32070SOL     OW 1339   3.485   2.162   6.801  0.4852 -0.0178  0.2318
32070SOL    HW1 1340   3.489   2.121   6.715 -0.7499 -0.7350  0.4874
32070SOL    HW2 1341   3.446   2.248   6.785 -1.9845 -1.0507  0.3148
32071SOL     OW 1342   1.079   6.950   3.576 -0.0719 -0.0708  0.2842
32071SOL    HW1 1343   1.108   6.866   3.611 -1.5666 -1.1542 -0.9846
32071SOL    HW2 1344   1.152   6.982   3.524  0.5379 -0.5449  0.8533
32072SOL     OW 1345   7.950   4.588   9.914  0.4944  0.4618  1.0024
32072SOL    HW1 1346   7.995   4.671   9.928 -1.3160  1.7371 -0.4697
32072SOL    HW2 1347   7.874   4.592   9.972 -0.3247  0.4500 -0.0404
32073SOL     OW 1348  11.101   9.585   7.693 -0.6311  0.5767 -0.3441
32073SOL    HW1 1349  11.136   9.671   7.713 -1.6358  0.8516  0.3018
32073SOL    HW2 1350  11.035   9.600   7.626 -0.0356  0.1669 -1.0256
32074SOL     OW 1351   3.346   8.786   3.633 -0.3509 -0.4910  0.2346
32074SOL    HW1 1352   3.298   8.869   3.627  0.0660 -0.1159  1.9361
32074SOL    HW2 1353   3.334   8.757   3.723  0.7365 -1.5448  0.0555
32075SOL     OW 1354   2.137   6.097   3.126 -0.3513 -0.0475 -0.5103
32075SOL    HW1 1355   2.137   6.074   3.033  1.0340  1.2328 -0.8563
32075SOL    HW2 1356   2.223   6.137   3.140 -0.6215 -0.0795  1.2869
32076SOL     OW 1357   7.082  10.821   5.977 -0.2548  0.0097 -0.2024
32076SOL    HW1 1358   6.987  10.828   5.985 -0.4098 -0.5107 -1.5071
32076SOL    HW2 1359   7.104  10.740   6.024 -0.4348  0.1575  0.1452
32077SOL     OW 1360   0.627  11.155   6.299 -0.4492 -0.2412  0.7357
32077SOL    HW1 1361   0.531  11.157   6.303 -0.4447  0.1136  0.6224
32077SOL    HW2 1362   0.652  11.084   6.359 -0.7960 -0.5221  0.5535
32078SOL     OW 1363   3.833   5.724   1.482 -0.3198 -0.0873 -0.1421
32078SOL    HW1 1364   3.919   5.682   1.473 -0.3350 -0.1459 -0.0060
32078SOL    HW2 1365   3.841   5.804   1.430 -1.0534 -1.4159 -2.3435
32079SOL     OW 1366   8.011   1.482   7.890  0.0400  0.4186 -0.5535
32079SOL    HW1 1367   7.994   1.496   7.797 -1.4220  1.9772 -0.0635
32079SOL    HW2 1368   8.026   1.570   7.925  0.1007 -0.1156  0.7832
32080SOL     OW 1369   2.089  10.824   4.465  0.1849  0.2021  0.0063
32080SOL    HW1 1370   2.151  10.774   4.412  0.2001  0.2310 -0.0027
32080SOL    HW2 1371   2.066  10.900   4.410  1.0069  0.7875  0.4703
32081SOL     OW 1372   2.251   5.178  10.044  0.6560  0.5345 -0.6213
32081SOL    HW1 1373   2.218   5.119   9.977  0.7951 -0.1235 -0.1115
32081SOL    HW2 1374   2.253   5.125  10.124 -3.3330  2.3892  0.8241
32082SOL     OW 1375  10.870  10.129   6.195  0.0552 -0.3765  0.2635
32082SOL    HW1 1376  10.924  10.061   6.157  0.5967  0.9230 -1.3301
32082SOL    HW2 1377  10.793  10.135   6.138 -0.4202 -0.2534  0.8979
32083SOL     OW 1378   7.790  10.107   7.421  0.4140  0.4711  0.0732
32083SOL    HW1 1379   7.875  10.098   7.378  1.1117 -4.0901  2.0706
32083SOL    HW2 1380   7.807  10.162   7.497  0.9956  1.6937 -0.9372
32084SOL     OW 1381   9.155   5.886   6.817  0.3954  0.5112  0.6541
32084SOL    HW1 1382   9.083   5.945   6.796  1.4124  1.2020 -0.9709
32084SOL    HW2 1383   9.117   5.822   6.878 -0.7420  2.7573  2.3826
32085SOL     OW 1384   4.934   1.055   3.124  0.1202  0.0790 -0.1107
32085SOL    HW1 1385   4.884   1.113   3.065  0.9790  0.6272 -0.3230
32085SOL    HW2 1386   4.869   0.996   3.161 -1.2520  2.9316  2.2268
32086SOL     OW 1387   0.688   8.768   5.377 -0.5187 -0.3077  0.0430
32086SOL    HW1 1388   0.735   8.819   5.312 -1.3027 -1.3460 -1.3670
32086SOL    HW2 1389   0.634   8.831   5.424  1.3867  0.7298  0.9274
32087SOL     OW 1390   8.488   9.417   4.069 -0.0752 -0.1770  0.3466
32087SOL    HW1 1391   8.583   9.404   4.069  0.2516  1.8680  2.1998
32087SOL    HW2 1392   8.477   9.510   4.045 -1.5183  0.0453  1.8093
32088SOL     OW 1393   7.033   0.091   0.733  0.4803 -0.3666  0.7530
32088SOL    HW1 1394   6.999   0.154   0.669  0.2910 -0.0079  1.2052
32088SOL    HW2 1395   7.010   0.005   0.696 -0.9036 -0.1343  1.0354
32089SOL     OW 1396   5.812  10.728   7.890  0.5317  0.3090  0.0545
32089SOL    HW1 1397   5.870  10.804   7.891  0.3301  0.4543  0.3463
32089SOL    HW2 1398   5.868  10.655   7.916  0.8084  0.2985 -0.5575
32090SOL     OW 1399   7.323  10.047   5.130  0.5909 -0.2103 -0.1552
32090SOL    HW1 1400   7.389   9.989   5.091 -0.0316 -1.4309  0.5963
32090SOL    HW2 1401   7.240  10.003   5.114  0.3441 -0.8869  2.8061
32091SOL     OW 1402   9.580   7.285  10.733 -0.2884 -0.5733  0.3312
32091SOL    HW1 1403   9.542   7.256  10.650  0.5373 -0.0098 -0.2587
32091SOL    HW2 1404   9.673   7.293  10.715 -0.2343  0.5005  1.0395
32092SOL     OW 1405   0.344  10.309  10.498 -0.6564  0.1986 -0.0115
32092SOL    HW1 1406   0.258  10.333  10.463 -0.8952  0.6034  0.8426
32092SOL    HW2 1407   0.388  10.265  10.425 -1.8399 -0.6216 -0.2416
32093SOL     OW 1408   7.533   0.276   6.355  0.0469 -0.0883  0.3912
32093SOL    HW1 1409   7.439   0.269   6.373 -0.0239 -0.9915 -0.2931
32093SOL    HW2 1410   7.545   0.364   6.321 -0.3267  0.5183  1.8035
32094SOL     OW 1411   3.759   7.594   4.524  0.0948 -0.0004  0.7317
32094SOL    HW1 1412   3.722   7.521   4.574  1.3550 -1.1549  0.0317
32094SOL    HW2 1413   3.684   7.636   4.483 -0.7513 -0.2765  1.9709
32095SOL     OW 1414  10.186   5.427   0.151  0.0347  0.6385  0.1517
32095SOL    HW1 1415  10.097   5.414   0.119  1.2044 -1.1969 -2.5242
32095SOL    HW2 1416  10.210   5.344   0.192  1.4398  0.1763 -1.5477
32096SOL     OW 1417   4.362   4.431   6.880 -0.3078 -0.0428 -0.2888
32096SOL    HW1 1418   4.319   4.490   6.818 -0.3655  0.2026 -0.0218
32096SOL    HW2 1419   4.327   4.345   6.861 -2.2908  0.4208  1.1217
32097SOL     OW 1420   7.571   2.871   3.800 -0.0897 -0.5345  0.0421
32097SOL    HW1 1421   7.511   2.797   3.799  0.0737 -0.6667 -1.6847
32097SOL    HW2 1422   7.656   2.833   3.821 -0.3884 -0.5241  1.2720
32098SOL     OW 1423  10.191  10.560   6.951 -0.0678 -0.2915  0.6335
32098SOL    HW1 1424  10.155  10.474   6.930 -0.6842  0.1594 -0.1906
32098SOL    HW2 1425  10.281  10.557   6.918  0.1300 -0.8482  1.2067
32099SOL     OW 1426   8.607   5.799   4.457  0.4114 -0.1364 -0.5323
32099SOL    HW1 1427   8.654   5.802   4.540 -1.7027  0.6984  0.6630
32099SOL    HW2 1428   8.626   5.883   4.416  1.3540 -0.4996 -0.8679
32100SOL     OW 1429   4.088   6.155   7.811 -0.1013  0.1569 -0.1876
32100SOL    HW1 1430   4.171   6.192   7.780  0.7069 -1.6087 -0.1801
32100SOL    HW2 1431   4.054   6.106   7.736 -0.2716 -0.5590  0.3507
32101SOL     OW 1432   0.443   9.043   0.583  0.3696  0.3994 -0.5744
32101SOL    HW1 1433   0.389   9.081   0.652  0.6712 -1.4787  0.7535
32101SOL    HW2 1434   0.421   8.950   0.585  1.9863 -0.0219 -1.5321
32102SOL     OW 1435   1.376   3.426   9.661  0.5488  0.1046 -0.1518
32102SOL    HW1 1436   1.289   3.442   9.698  0.2730 -1.3907 -0.1397
32102SOL    HW2 1437   1.437   3.465   9.724 -0.0518  0.2440  0.3435
32103SOL     OW 1438  10.118  10.426   2.107 -0.0926 -0.1560 -0.4100
32103SOL    HW1 1439  10.046  10.368   2.083 -0.7480  0.4019  0.1940
32103SOL    HW2 1440  10.092  10.512   2.073  0.6763 -0.1177 -0.9302
32104SOL     OW 1441  10.979   8.754   4.731 -0.0175 -0.0963 -0.7362
32104SOL    HW1 1442  11.024   8.814   4.672 -1.1740  0.5581 -0.9774
32104SOL    HW2 1443  10.948   8.810   4.803  0.1374 -0.6457 -0.2361
32105SOL     OW 1444   5.952   3.353   0.029 -0.3763  0.1416 -0.7053
32105SOL    HW1 1445   5.884   3.287   0.021 -0.0256 -0.5602  1.6612
32105SOL    HW2 1446   5.973   3.377  -0.061  0.0271 -3.5444 -1.6935
32106SOL     OW 1447   7.123   0.483   8.253 -0.0679  0.4137 -1.0095
32106SOL    HW1 1448   7.209   0.442   8.243  0.1743  1.1607 -2.0636
32106SOL    HW2 1449   7.080   0.432   8.322  1.5985  0.6561  0.2493
32107SOL     OW 1450   1.290   4.752   7.863 -0.1067  0.7539 -0.7995
32107SOL    HW1 1451   1.224   4.748   7.793 -1.5260 -0.6967  0.5774
32107SOL    HW2 1452   1.335   4.668   7.857  0.8790  1.2905 -1.0026
32108SOL     OW 1453  10.901   0.668   6.977 -0.3750 -0.1765 -0.5669
32108SOL    HW1 1454  10.986   0.627   6.994 -1.3178 -1.4292  1.4739
32108SOL    HW2 1455  10.839   0.611   7.022 -2.2150  1.1383 -1.3975
32109SOL     OW 1456   1.528   8.275   0.679 -0.1797 -0.2839  0.6080
32109SOL    HW1 1457   1.569   8.266   0.765  2.0511 -0.6883 -0.4618
32109SOL    HW2 1458   1.581   8.222   0.621 -1.0022  0.8580 -1.2525
32110SOL     OW 1459   1.382   6.353   8.220 -0.0437  0.1071  0.2483
32110SOL    HW1 1460   1.442   6.427   8.228 -1.3428  1.2439 -0.2487
32110SOL    HW2 1461   1.371   6.321   8.309 -1.1899  1.9275  0.7885
32111SOL     OW 1462   3.821   0.978   1.033  0.1997 -0.3884 -0.4993
32111SOL    HW1 1463   3.753   0.922   1.070  0.7844 -1.5020 -1.0676
32111SOL    HW2 1464   3.903   0.932   1.052  0.5794 -0.5068 -2.3047
32112SOL     OW 1465   1.282   9.462   8.529 -0.1217  0.6789 -0.3223
32112SOL    HW1 1466   1.227   9.527   8.572 -2.2362 -0.6724 -0.9151
32112SOL    HW2 1467   1.254   9.378   8.565  1.4423 -0.0573 -0.7599
32113SOL     OW 1468   9.491   0.392   2.180  0.3576 -0.5596 -0.2903
32113SOL    HW1 1469   9.558   0.323   2.185 -0.2450 -1.1435 -0.1095
32113SOL    HW2 1470   9.423   0.364   2.242 -0.3507 -0.3079 -0.9377
32114SOL     OW 1471   5.508   4.234   6.287 -0.6151  0.0657  0.5830
32114SOL    HW1 1472   5.425   4.277   6.269 -0.5766 -0.5306 -1.0983
32114SOL    HW2 1473   5.499   4.202   6.377 -2.8865 -1.5064 -0.1542
32115SOL     OW 1474   5.061   1.884   1.093 -0.1165  0.3234  0.2252
32115SOL    HW1 1475   4.966   1.899   1.085 -0.3135 -1.6692 -1.5790
32115SOL    HW2 1476   5.072   1.851   1.182 -1.2482 -0.3684  0.1194
32116SOL     OW 1477  10.868   1.139   4.383 -0.3689  0.0052  0.5143
32116SOL    HW1 1478  10.838   1.222   4.422 -2.6475 -0.5553  0.0364
32116SOL    HW2 1479  10.787   1.095   4.357  0.9249 -1.5466 -0.9419
32117SOL     OW 1480  11.081   0.791   0.362  0.1176  0.0826 -0.1325
32117SOL    HW1 1481  10.992   0.767   0.387  0.7436 -0.4527  1.7080
32117SOL    HW2 1482  11.071   0.867   0.305 -1.6794 -2.0264 -2.7104
32118SOL     OW 1483   6.556   2.186   5.690  0.4265 -0.1935  0.4797
32118SOL    HW1 1484   6.608   2.128   5.634  2.1640  0.7058  1.1390
32118SOL    HW2 1485   6.466   2.160   5.672  1.1150 -2.4616  0.0364
32119SOL     OW 1486   1.128   8.173   4.585  0.6938  0.5812 -0.5040
32119SOL    HW1 1487   1.059   8.139   4.641  1.6578  1.1707  1.0817
32119SOL    HW2 1488   1.099   8.154   4.496 -1.4258  0.7102  0.1521
32120SOL     OW 1489   1.948   5.075   3.983  0.0597  0.0103 -0.4155
32120SOL    HW1 1490   1.910   5.043   3.901 -0.0159  0.0844 -0.4095
32120SOL    HW2 1491   2.039   5.048   3.979 -0.2832 -1.2385  0.1318
32121SOL     OW 1492   3.561   7.997  10.449  0.4339 -0.4893 -0.2892
32121SOL    HW1 1493   3.562   8.093  10.447 -0.4223 -0.4840 -0.8486
32121SOL    HW2 1494   3.637   7.974  10.502  2.1191  0.4597 -2.1779
32122SOL     OW 1495  11.261   6.526   2.148 -0.4855 -0.1632  0.1679
32122SOL    HW1 1496  11.291   6.602   2.099 -4.7031  1.0336 -0.7136
32122SOL    HW2 1497  11.314   6.454   2.115  0.8826  1.6995 -1.7852
32123SOL     OW 1498   6.800   0.203   4.106 -0.1985 -0.2457 -0.2652
32123SOL    HW1 1499   6.889   0.227   4.131 -0.5011  0.3587  0.2445
32123SOL    HW2 1500   6.811   0.151   4.026  0.5433  0.6541 -0.7616
32124SOL     OW 1501   8.473  10.523  10.345 -0.2608 -0.4776  0.3263
32124SOL    HW1 1502   8.514  10.583  10.407  0.2864  0.2314 -0.6940
32124SOL    HW2 1503   8.386  10.561  10.330 -0.2081 -0.3710  0.2855
32125SOL     OW 1504   9.281   2.714  10.385 -0.4800 -0.1205  0.3196
32125SOL    HW1 1505   9.304   2.623  10.366 -1.4499 -0.3956  0.4502
32125SOL    HW2 1506   9.189   2.711  10.410 -0.7498  1.0280 -0.5227
32126SOL     OW 1507   9.629   1.379   7.120  0.2246 -0.4280 -0.0002
32126SOL    HW1 1508   9.683   1.454   7.146  2.8097 -2.6648  1.3946
32126SOL    HW2 1509   9.687   1.325   7.067 -1.8454 -1.0839 -1.6543
32127SOL     OW 1510   3.154   9.644   8.119  0.0050  0.3671 -0.2469
32127SOL    HW1 1511   3.094   9.570   8.111 -0.5482  0.6610  1.0755
32127SOL    HW2 1512   3.133   9.700   8.043 -1.1878  0.3237  0.0372
32128SOL     OW 1513  10.559   5.375   4.945  0.3947  0.1700  0.2009
32128SOL    HW1 1514  10.593   5.456   4.906 -1.1436  0.4733 -0.5287
32128SOL    HW2 1515  10.498   5.341   4.880 -0.9845 -0.1719  1.6560
32129SOL     OW 1516   9.671   2.108   6.232  0.2961 -0.3902  0.7201
32129SOL    HW1 1517   9.713   2.108   6.146  0.0396 -1.8431  0.5798
32129SOL    HW2 1518   9.738   2.075   6.292  0.3270  0.1875  1.0150
32130SOL     OW 1519   9.872   3.137   8.236 -0.6369  0.5693 -0.3683
32130SOL    HW1 1520   9.863   3.175   8.323 -1.1095 -0.7148  0.1488
32130SOL    HW2 1521   9.898   3.211   8.180  2.0148  0.9446  1.2754
32131SOL     OW 1522   6.219   5.798   8.080  0.4315  0.1435  0.4852
32131SOL    HW1 1523   6.259   5.881   8.057 -0.0843  0.3293  0.2592
32131SOL    HW2 1524   6.153   5.783   8.013 -0.0904 -0.0157  1.0313
32132SOL     OW 1525   2.884   7.922   9.846  0.6907 -0.0103 -0.5490
32132SOL    HW1 1526   2.821   7.994   9.846  0.4668 -0.2097 -0.8924
32132SOL    HW2 1527   2.932   7.933   9.929 -1.1825 -1.0889  0.7009
32133SOL     OW 1528   3.832   7.944  10.564  0.3510  0.0177 -0.1070
32133SOL    HW1 1529   3.828   7.864  10.512  0.1027 -0.5158  0.7208
32133SOL    HW2 1530   3.903   7.928  10.627  0.6297  0.6437 -0.2609
32134SOL     OW 1531   1.310  10.200   0.672  0.2796 -0.4768 -0.3932
32134SOL    HW1 1532   1.324  10.192   0.767  1.7802 -0.0718 -0.5769
32134SOL    HW2 1533   1.215  10.212   0.663 -0.1003 -2.2408  0.9380
32135SOL     OW 1534   7.998  10.676   3.716 -0.3165  0.2285 -0.0986
32135SOL    HW1 1535   7.921  10.713   3.673  0.3379  1.3730 -0.3180
32135SOL    HW2 1536   8.043  10.628   3.646 -0.8553 -0.4947  0.0451
32136SOL     OW 1537   7.079   2.556   1.090  0.0291 -0.7048  0.1097
32136SOL    HW1 1538   6.991   2.572   1.125  0.7289  1.4312  1.0065
32136SOL    HW2 1539   7.138   2.587   1.159  1.4689 -0.3357 -1.2480
32137SOL     OW 1540   0.259   6.815   3.539 -0.0205  0.0499  0.5243
32137SOL    HW1 1541   0.269   6.861   3.622 -2.0859  1.0141  0.2628
32137SOL    HW2 1542   0.192   6.864   3.492 -2.6525 -3.4459  0.4139
32138SOL     OW 1543   2.281  10.365   5.913  0.1852  0.6296 -0.1818
32138SOL    HW1 1544   2.310  10.362   5.822  0.9111 -1.2228  0.0851
32138SOL    HW2 1545   2.185  10.362   5.907  0.2052  1.3170 -0.9093
32139SOL     OW 1546  10.891   9.996   7.590  0.1767  0.2367 -0.1518
32139SOL    HW1 1547  10.828  10.067   7.579  1.1230  1.1232  0.0829
32139SOL    HW2 1548  10.976  10.040   7.595  0.7955 -0.9268 -0.2382
32140SOL     OW 1549  11.083   2.037   4.581 -0.1157  0.2940  0.1620
32140SOL    HW1 1550  11.031   1.998   4.511  1.2561 -0.0326 -0.7139
32140SOL    HW2 1551  11.152   1.972   4.598 -0.2410  0.5250  1.5741
32141SOL     OW 1552   3.308   5.592  10.857  0.3217  0.1002 -0.1582
32141SOL    HW1 1553   3.316   5.499  10.876  1.2049  0.1793 -0.1004
32141SOL    HW2 1554   3.336   5.600  10.765  0.2448  0.3006 -0.1648
32142SOL     OW 1555   0.665   5.791  10.772  0.4269  0.1772 -0.6472
32142SOL    HW1 1556   0.631   5.768  10.858 -2.3261  2.1272 -1.1473
32142SOL    HW2 1557   0.718   5.869  10.787  0.2369  0.3087 -0.6532
32143SOL     OW 1558  10.442   2.031   7.720  0.1667  0.2649  0.1793
32143SOL    HW1 1559  10.401   1.945   7.721 -0.7749  0.6984  1.8884
32143SOL    HW2 1560  10.397   2.078   7.649 -0.4485 -0.1231  0.3100
32144SOL     OW 1561   6.305   5.495   4.745 -0.3966 -0.2499 -0.3448
32144SOL    HW1 1562   6.341   5.489   4.657 -1.0928  1.9265 -0.8116
32144SOL    HW2 1563   6.360   5.559   4.790 -1.4432  0.3602  0.0864
32145SOL     OW 1564   2.708  10.796   8.164  0.1587  0.5767  0.1602
32145SOL    HW1 1565   2.722  10.873   8.220 -1.3609  1.5151 -0.7271
32145SOL    HW2 1566   2.616  10.772   8.178  0.2165 -0.1762 -0.6920
32146SOL     OW 1567   0.741   1.579   8.042  0.3740  0.3285 -0.5264
32146SOL    HW1 1568   0.756   1.502   8.097 -1.4929 -0.7364 -1.4793
32146SOL    HW2 1569   0.772   1.554   7.955  1.7306  1.4249 -0.3928
32147SOL     OW 1570   0.730   1.101   0.158 -0.0959  0.5157  0.4586
32147SOL    HW1 1571   0.681   1.115   0.239 -0.5309  0.2145  0.2531
32147SOL    HW2 1572   0.733   1.187   0.116 -2.9462 -0.0020 -0.9132
32148SOL     OW 1573   8.268   3.672   8.096 -0.3976 -0.2243  0.6647
32148SOL    HW1 1574   8.325   3.744   8.123 -0.1882 -0.1859  0.1152
32148SOL    HW2 1575   8.198   3.672   8.162 -1.0439  1.2532 -0.0004
32149SOL     OW 1576   9.222   9.331  10.933 -0.0214 -0.0904 -0.1737
32149SOL    HW1 1577   9.297   9.311  10.989 -0.0806  0.3654  0.0709
32149SOL    HW2 1578   9.151   9.278  10.969  0.1515 -0.4262 -0.3268
32150SOL     OW 1579   6.163   5.774  10.595 -0.3559 -0.3344 -0.5236
32150SOL    HW1 1580   6.100   5.793  10.664  1.3153  0.7525  0.7528
32150SOL    HW2 1581   6.140   5.833  10.523 -0.7362  0.1146 -0.0297
32151SOL     OW 1582   0.396   2.926   7.975  0.0524  0.2597  0.0537
32151SOL    HW1 1583   0.333   2.854   7.973 -0.1941  0.4690  0.3184
32151SOL    HW2 1584   0.345   3.004   7.952 -0.4161  0.9081  3.1115
32152SOL     OW 1585   9.102   8.538   7.214  0.2357 -0.0503 -0.1409
32152SOL    HW1 1586   9.147   8.506   7.135 -0.1599 -0.8066 -0.0625
32152SOL    HW2 1587   9.165   8.599   7.253  0.9669 -0.6520 -0.3455
32153SOL     OW 1588   9.941   5.685   9.363  0.8060  0.9407 -0.3251
32153SOL    HW1 1589   9.876   5.707   9.296 -0.6473  0.5815  0.9601
32153SOL    HW2 1590  10.022   5.723   9.330  0.4304 -0.3925 -2.9864
32154SOL     OW 1591   5.494   1.521  10.215 -0.0549  0.1487  0.0593
32154SOL    HW1 1592   5.571   1.561  10.256 -0.7976  1.8348 -0.1678
32154SOL    HW2 1593   5.420   1.574  10.246 -0.9534 -0.4945 -0.9661
32155SOL     OW 1594   8.460   0.650  11.097  0.2937 -0.2757 -0.5761
32155SOL    HW1 1595   8.444   0.580  11.033 -1.8247 -1.4790  1.1994
32155SOL    HW2 1596   8.470   0.729  11.044 -1.0777 -1.3175 -2.4457
32156SOL     OW 1597   3.794   8.253   6.807 -0.2026  0.4105  0.4612
32156SOL    HW1 1598   3.764   8.162   6.816  0.5076  0.0155 -0.9407
32156SOL    HW2 1599   3.731   8.292   6.746 -0.4145  0.8143  0.9417
32157SOL     OW 1600   0.283   9.649   5.427  0.0005 -0.2937 -0.4428
32157SOL    HW1 1601   0.314   9.731   5.389 -2.0704  1.4927  1.5609
32157SOL    HW2 1602   0.346   9.628   5.495  0.3398 -0.1760 -0.7207
32158SOL     OW 1603   4.860   0.278   8.818 -0.0629 -0.1583 -0.4078
32158SOL    HW1 1604   4.848   0.217   8.746 -2.1893  1.0851 -1.1732
32158SOL    HW2 1605   4.952   0.269   8.843 -0.1144 -2.9618 -1.0931
32159SOL     OW 1606   7.364   4.531   8.569 -0.7520 -0.3914  0.1837
32159SOL    HW1 1607   7.444   4.561   8.613 -0.6635  1.7739 -1.3443
32159SOL    HW2 1608   7.381   4.439   8.549  1.0483 -0.1775  0.5917
32160SOL     OW 1609  10.012   7.904   5.144 -0.6972 -0.2849 -0.0188
32160SOL    HW1 1610  10.058   7.987   5.155 -0.5440 -0.4584  0.6506
32160SOL    HW2 1611  10.041   7.872   5.059 -2.2942  1.3092 -1.2091
32161SOL     OW 1612   4.176   2.199   8.817  0.2509  0.0703 -0.2667
32161SOL    HW1 1613   4.166   2.152   8.900 -0.3115 -0.5559 -0.6763
32161SOL    HW2 1614   4.257   2.250   8.827 -0.5090  1.0239  1.1430
32162SOL     OW 1615   8.508   2.790   8.421  0.4601  0.1667  0.7406
32162SOL    HW1 1616   8.502   2.884   8.405  0.8584  0.1473  0.4898
32162SOL    HW2 1617   8.439   2.773   8.486 -0.1317  0.5017  0.2140
32163SOL     OW 1618   7.645   2.573   3.603  0.2164  0.4170  0.3631
32163SOL    HW1 1619   7.640   2.477   3.607  0.4088  0.3941  0.0733
32163SOL    HW2 1620   7.564   2.603   3.644 -0.3179  0.1147 -0.4603
32164SOL     OW 1621   4.489   1.881   9.773 -0.3120  0.4345  0.1155
32164SOL    HW1 1622   4.552   1.877   9.701 -2.3341  0.5075 -1.6951
32164SOL    HW2 1623   4.460   1.790   9.784  0.0620  0.4091  0.9240
32165SOL     OW 1624  10.828   9.037   4.479 -0.1916  0.5099  0.0296
32165SOL    HW1 1625  10.895   9.000   4.421 -0.0796  0.4936  0.1685
32165SOL    HW2 1626  10.746   9.023   4.432 -0.0981  0.5267 -0.1396
32166SOL     OW 1627  11.277   6.641   6.588  0.0945  0.2047 -0.0243
32166SOL    HW1 1628  11.241   6.655   6.500 -2.0480 -0.0236  0.7966
32166SOL    HW2 1629  11.351   6.583   6.574 -1.9244 -2.1542 -1.4072
32167SOL     OW 1630   2.337   5.732   6.398  0.4453  0.0242 -0.2954
32167SOL    HW1 1631   2.365   5.688   6.318  0.9806  0.4031 -0.3204
32167SOL    HW2 1632   2.357   5.670   6.469 -2.0573 -1.2355 -0.6386
32168SOL     OW 1633   3.992  11.195   1.471  0.2777  0.2063 -0.0924
32168SOL    HW1 1634   4.013  11.267   1.530  1.8100  0.9264 -1.4960
32168SOL    HW2 1635   4.066  11.136   1.477  0.9289  0.7898 -2.0473
32169SOL     OW 1636   2.962   8.303  10.589  0.0402 -0.7864  0.3873
32169SOL    HW1 1637   2.988   8.342  10.672 -0.9642  0.7864 -0.0295
32169SOL    HW2 1638   3.015   8.223  10.583  0.5906 -0.5805  2.2177
32170SOL     OW 1639   1.815   5.085   7.236 -0.2939  0.0902 -0.5193
32170SOL    HW1 1640   1.902   5.121   7.225  0.0233 -0.8436 -1.1655
32170SOL    HW2 1641   1.812   5.056   7.328  0.0402  0.2217 -0.4669
32171SOL     OW 1642   6.544   5.136   1.503 -0.7871  0.7237  0.2816
32171SOL    HW1 1643   6.611   5.115   1.440  0.1283  2.8833  0.4807
32171SOL    HW2 1644   6.590   5.185   1.572 -2.1640  0.3882  1.4700
32172SOL     OW 1645   9.712   7.067   5.844  0.2012 -0.1527 -0.0241
32172SOL    HW1 1646   9.637   7.123   5.822  0.3466  0.4640  0.9953
32172SOL    HW2 1647   9.703   7.052   5.938  2.9936  2.4399  0.7595
32173SOL     OW 1648   1.330   7.643   5.789 -0.7845 -0.9019  0.1396
32173SOL    HW1 1649   1.336   7.549   5.806  0.0928 -0.9213 -0.2303
32173SOL    HW2 1650   1.401   7.660   5.727 -0.4311  0.1507  0.8244
32174SOL     OW 1651   7.194   8.501   3.944  0.0688  0.6876 -0.0309
32174SOL    HW1 1652   7.287   8.508   3.968 -0.1057  0.9046  0.5659
32174SOL    HW2 1653   7.191   8.424   3.887  0.3060 -0.4395  1.4631
32175SOL     OW 1654   5.996   1.196   6.631 -0.3191  0.5094  0.4671
32175SOL    HW1 1655   6.000   1.286   6.664 -0.1059  0.9101 -0.6139
32175SOL    HW2 1656   6.069   1.151   6.674 -1.1831  0.5048  1.9789
32176SOL     OW 1657   6.929   8.087   3.867  0.0094  0.1958 -0.1945
32176SOL    HW1 1658   6.907   8.002   3.907  0.3894  0.0545 -0.2818
32176SOL    HW2 1659   7.025   8.092   3.874  0.2356 -0.4786 -2.3930
32177SOL     OW 1660   2.343  11.020   2.950 -0.4799  0.6871  0.6648
32177SOL    HW1 1661   2.303  11.104   2.929 -0.4294  0.5559  0.0134
32177SOL    HW2 1662   2.275  10.955   2.930  0.8217  0.2635 -2.8901
32178SOL     OW 1663  10.556   0.502   3.528 -0.5128  0.1433 -0.8244
32178SOL    HW1 1664  10.617   0.576   3.531 -1.3168  0.7615  0.7165
32178SOL    HW2 1665  10.506   0.509   3.609 -3.0193 -0.0437 -2.3141
32179SOL     OW 1666   4.524  10.587  10.253 -0.0671 -0.2901  0.0010
32179SOL    HW1 1667   4.453  10.649  10.238 -0.2520 -0.5125 -0.0459
32179SOL    HW2 1668   4.483  10.501  10.244 -0.2210 -0.4297  1.9037
32180SOL     OW 1669   4.441   5.303  10.595 -0.4746 -0.0348 -0.3668
32180SOL    HW1 1670   4.418   5.380  10.543  1.6440  1.8218  1.3407
32180SOL    HW2 1671   4.427   5.331  10.686  0.4911 -1.6063  0.2841
32181SOL     OW 1672   1.078   8.593  10.595  0.0617 -0.2390 -0.1156
32181SOL    HW1 1673   1.055   8.667  10.538 -0.0876 -0.0153  0.2386
32181SOL    HW2 1674   1.080   8.518  10.536 -1.9697 -0.3376 -0.0910
32182SOL     OW 1675   8.010   7.090   7.245  0.5005  0.4466 -0.4928
32182SOL    HW1 1676   7.946   7.019   7.248  1.3088 -0.2530  1.0394
32182SOL    HW2 1677   7.965   7.166   7.282  0.2109  0.2427 -0.4296
32183SOL     OW 1678   7.204   8.472  11.121  0.6933  0.1154 -0.4234
32183SOL    HW1 1679   7.125   8.420  11.106  0.1614  0.2436  1.7397
32183SOL    HW2 1680   7.241   8.486  11.034 -0.3774 -1.9545 -1.2356
32184SOL     OW 1681   2.607   2.419   8.070 -0.3272 -0.0826 -0.2894
32184SOL    HW1 1682   2.699   2.407   8.046 -0.2589  0.0158 -0.0726
32184SOL    HW2 1683   2.588   2.510   8.047 -0.0273  0.2646  0.8136
32185SOL     OW 1684   6.618   5.436   2.452 -0.1796 -0.0360  0.6117
32185SOL    HW1 1685   6.530   5.420   2.485 -0.4951 -1.5948 -0.9355
32185SOL    HW2 1686   6.619   5.530   2.431 -1.0242  0.2632  1.8414
32186SOL     OW 1687   0.757   7.634   7.901 -0.4868  0.9687 -0.1891
32186SOL    HW1 1688   0.775   7.688   7.824 -0.6664  0.1004 -0.8484
32186SOL    HW2 1689   0.662   7.622   7.900 -0.6049  1.8227  0.7566
32187SOL     OW 1690   4.751   0.528   7.398  0.4624 -0.8468 -0.0509
32187SOL    HW1 1691   4.808   0.457   7.430  0.9641 -0.3430  0.1831
32187SOL    HW2 1692   4.689   0.485   7.340  0.2921 -1.6022  0.6827
32188SOL     OW 1693   1.829   7.921   2.417 -0.4208  0.5149 -0.2384
32188SOL    HW1 1694   1.900   7.872   2.374 -0.1450  0.2272  0.5290
32188SOL    HW2 1695   1.872   7.997   2.455  0.0419 -1.1237  2.7257
32189SOL     OW 1696   2.361   0.203   5.542  0.1827 -0.4555 -0.2223
32189SOL    HW1 1697   2.306   0.125   5.546  1.1742 -1.0895  1.8436
32189SOL    HW2 1698   2.444   0.172   5.506  0.1368 -0.0745 -0.6591
32190SOL     OW 1699   5.310   8.778   5.089  0.2121  0.1784  0.0180
32190SOL    HW1 1700   5.226   8.743   5.117  0.6050 -0.7589  0.0421
32190SOL    HW2 1701   5.374   8.736   5.147  0.8565 -0.4366 -1.1221
32191SOL     OW 1702   9.397   4.515   9.652  0.0357  0.3821  0.0894
32191SOL    HW1 1703   9.406   4.543   9.561 -0.8272  1.7840  0.4168
32191SOL    HW2 1704   9.475   4.549   9.695  0.7169 -0.7536 -0.2229
32192SOL     OW 1705   4.230   9.961  10.928  0.3024  0.4408  0.9956
32192SOL    HW1 1706   4.249  10.053  10.947 -0.0087  0.7829 -0.3072
32192SOL    HW2 1707   4.135   9.954  10.931  0.1147  0.9517 -2.3268
32193SOL     OW 1708   3.269   7.268   1.914  0.2141 -0.5533 -0.2914
32193SOL    HW1 1709   3.321   7.338   1.953 -0.0270 -0.4668 -0.1280
32193SOL    HW2 1710   3.271   7.286   1.820  0.6735 -0.6795 -0.3093
32194SOL     OW 1711   0.277   3.342   7.008  0.4932 -0.1471 -0.2166
32194SOL    HW1 1712   0.209   3.322   6.943  0.5984  1.7751 -0.9677
32194SOL    HW2 1713   0.350   3.285   6.985 -0.4377 -1.3982 -0.1186
32195SOL     OW 1714   8.000   6.808   2.809  0.4062  0.2370 -0.2972
32195SOL    HW1 1715   8.094   6.791   2.811  0.6550  1.5658 -0.2171
32195SOL    HW2 1716   7.982   6.852   2.892 -0.4679 -0.9373  0.1317
32196SOL     OW 1717  10.229   6.711  10.831  0.1771 -0.2102  0.0686
32196SOL    HW1 1718  10.277   6.646  10.779 -1.3394 -0.5433 -0.9753
32196SOL    HW2 1719  10.297   6.761  10.877  1.3566 -2.7891  1.2183
32197SOL     OW 1720  10.959   8.219  10.302  0.0342  0.2946 -0.0166
32197SOL    HW1 1721  10.904   8.198  10.378 -1.5150  1.1776 -0.8666
32197SOL    HW2 1722  10.988   8.309  10.319  1.6523 -0.3445  0.6713
32198SOL     OW 1723   4.631   0.275   9.374 -0.1251 -0.0326  0.4809
32198SOL    HW1 1724   4.639   0.330   9.452  0.7894 -0.3706  0.6215
32198SOL    HW2 1725   4.720   0.245   9.355 -0.4807 -0.7136 -0.1452
32199SOL     OW 1726   9.238   0.620   7.682 -0.1417 -0.5286 -0.3567
32199SOL    HW1 1727   9.310   0.642   7.624 -1.7488  1.3845 -1.6761
32199SOL    HW2 1728   9.171   0.686   7.664 -1.2405 -0.7448  2.6521
32200SOL     OW 1729   2.702   3.551   9.981 -0.5190  0.1294  0.1640
32200SOL    HW1 1730   2.756   3.513   9.912 -2.1758 -1.3587 -0.3435
32200SOL    HW2 1731   2.733   3.510  10.061 -0.2524 -0.0124 -0.0100
32201SOL     OW 1732  10.569   4.804   8.232  0.2252  0.2441  0.2532
32201SOL    HW1 1733  10.562   4.850   8.149  1.9246  0.7759  0.3957
32201SOL    HW2 1734  10.657   4.766   8.232  0.2200  0.1843  1.7564
32202SOL     OW 1735   6.248   8.251   1.059  0.2913  0.0792 -0.2345
32202SOL    HW1 1736   6.260   8.184   0.992 -0.5880 -0.4138  0.0937
32202SOL    HW2 1737   6.313   8.230   1.126  0.8226  0.2682 -0.6884
32203SOL     OW 1738   9.878  11.160   7.722 -0.1336 -0.5160 -0.0825
32203SOL    HW1 1739   9.836  11.245   7.710 -0.6032 -0.7053  0.2219
32203SOL    HW2 1740   9.968  11.173   7.689 -0.2287  0.0674 -0.1198
32204SOL     OW 1741   5.572   2.926   8.551 -0.0045 -0.7075  0.1130
32204SOL    HW1 1742   5.624   2.848   8.574 -1.0528 -0.9977  1.6363
32204SOL    HW2 1743   5.545   2.961   8.636 -0.4320  0.7147 -0.6096
32205SOL     OW 1744  11.198   1.150   8.991 -0.1466 -0.4798 -0.1417
32205SOL    HW1 1745  11.164   1.236   8.970  0.1925  0.4824  3.0334
32205SOL    HW2 1746  11.124   1.102   9.027  0.1908 -0.7160  0.2522
32206SOL     OW 1747   4.078   9.413   1.608 -0.2797 -0.1594  0.0323
32206SOL    HW1 1748   4.070   9.461   1.526  1.2439 -0.3760 -0.2507
32206SOL    HW2 1749   3.989   9.380   1.625 -1.1790  2.0688 -0.1677
32207SOL     OW 1750   7.839   8.962   4.668  0.4435 -0.9732 -0.4615
32207SOL    HW1 1751   7.791   8.951   4.750 -0.3458  1.4158 -0.5656
32207SOL    HW2 1752   7.929   8.938   4.690 -0.3228 -3.2934  0.3101
32208SOL     OW 1753  10.583   5.721   2.017  0.4215 -0.5313 -0.0616
32208SOL    HW1 1754  10.570   5.739   2.110  1.2156 -1.5927  0.2562
32208SOL    HW2 1755  10.526   5.647   1.999 -0.7324  0.4869 -0.7435
32209SOL     OW 1756   6.824   9.481   4.533  0.2307 -0.7428  0.1147
32209SOL    HW1 1757   6.914   9.455   4.552  0.1378  0.2138  2.0035
32209SOL    HW2 1758   6.777   9.399   4.522  0.7069 -1.3428  2.3059
32210SOL     OW 1759   0.238   6.988   7.575  0.4918 -0.9530 -0.0656
32210SOL    HW1 1760   0.185   7.036   7.511  1.0584  0.1231  0.2559
32210SOL    HW2 1761   0.196   6.903   7.582 -0.7374 -0.3830 -0.4065
32211SOL     OW 1762   6.243   3.292   3.694 -0.3163 -0.7304  0.0602
32211SOL    HW1 1763   6.156   3.266   3.724  0.1559 -1.8855  0.4740
32211SOL    HW2 1764   6.281   3.339   3.769 -0.4782 -0.4693 -0.0211
32212SOL     OW 1765   2.689   6.000   6.725  0.2226 -0.0073 -0.0020
32212SOL    HW1 1766   2.651   6.088   6.724  0.4079  0.1365  2.3329
32212SOL    HW2 1767   2.776   6.010   6.688 -0.7764  0.2805 -2.3047
32213SOL     OW 1768   4.237   4.699   2.840  0.2652  0.7431 -0.8471
32213SOL    HW1 1769   4.295   4.765   2.878 -1.2140  0.6981  1.6268
32213SOL    HW2 1770   4.242   4.625   2.901  0.4758 -0.7246 -2.6005
32214SOL     OW 1771   0.232  11.197   9.320 -0.1961 -0.3014 -0.3722
32214SOL    HW1 1772   0.260  11.203   9.229  0.5134  0.5622 -0.1048
32214SOL    HW2 1773   0.300  11.242   9.369 -1.4889  0.8490  0.4137
32215SOL     OW 1774   0.637   5.101   4.073 -0.4518 -0.1706  0.2365
32215SOL    HW1 1775   0.629   5.071   3.983  0.5860  0.3071 -0.0254
32215SOL    HW2 1776   0.693   5.179   4.068 -1.0325  0.3179  1.1993
32216SOL     OW 1777   1.926   8.320   4.917  0.7620 -0.2928  0.2637
32216SOL    HW1 1778   2.008   8.294   4.875  0.0167  0.3119 -1.6138
32216SOL    HW2 1779   1.864   8.328   4.845 -0.6506  0.4155  1.5380
32217SOL     OW 1780   9.757   5.014   1.274 -0.7178  0.8308 -0.8652
32217SOL    HW1 1781   9.840   5.054   1.299 -0.5318  0.3042 -0.6419
32217SOL    HW2 1782   9.716   5.079   1.217 -0.2755  1.2079 -0.7602
32218SOL     OW 1783   9.972   2.085   2.062 -0.1688  0.2627  0.2483
32218SOL    HW1 1784  10.033   2.129   2.003 -0.6897 -1.5882 -1.6862
32218SOL    HW2 1785   9.917   2.156   2.095  1.3643  1.5846  0.0530
32219SOL     OW 1786   6.210   7.346   9.513 -0.0311  0.2376 -0.2133
32219SOL    HW1 1787   6.124   7.317   9.480  0.3922 -0.7525 -0.4698
32219SOL    HW2 1788   6.210   7.440   9.500 -0.4762  0.0472 -1.6509
32220SOL     OW 1789   2.221  10.262   5.034 -0.1589  0.7788 -0.2528
32220SOL    HW1 1790   2.152  10.329   5.037 -0.0551  0.8357  1.4771
32220SOL    HW2 1791   2.223  10.226   5.123  1.7503  0.4672 -0.4003
32221SOL     OW 1792   3.179   0.107  10.908  0.3786  0.1031 -0.4468
32221SOL    HW1 1793   3.206   0.048  10.838  0.9203 -0.8607  0.5766
32221SOL    HW2 1794   3.239   0.088  10.980 -1.1358  0.0350  0.8084
32222SOL     OW 1795   3.213   5.344  10.551  0.5720 -0.1160  0.2798
32222SOL    HW1 1796   3.229   5.341  10.645  0.1332  0.7230  0.3861
32222SOL    HW2 1797   3.287   5.297  10.513  1.6472  1.0171  0.9439
32223SOL     OW 1798   7.241   1.439   4.237  0.3964  0.1006  0.5607
32223SOL    HW1 1799   7.159   1.393   4.221  0.1070  0.2716  1.5127
32223SOL    HW2 1800   7.254   1.494   4.159  0.3614 -1.0098 -0.2413
32224SOL     OW 1801   5.067   0.622  10.956  0.3195 -0.2689  0.2525
32224SOL    HW1 1802   5.002   0.670  11.006  0.7209  0.1528  0.3773
32224SOL    HW2 1803   5.088   0.679  10.882 -0.2332 -0.8626 -0.3719
32225SOL     OW 1804   5.365   5.235   9.714  0.5331  0.2494 -0.3055
32225SOL    HW1 1805   5.304   5.198   9.650 -0.0010 -0.2996  0.5120
32225SOL    HW2 1806   5.340   5.328   9.720 -0.5161 -0.0579  0.3368
32226SOL     OW 1807   0.891   8.686   3.958 -0.4473  0.4245 -0.2128
32226SOL    HW1 1808   0.833   8.629   3.908 -1.7312  0.4700  1.1820
32226SOL    HW2 1809   0.852   8.690   4.045  0.8041  1.7173  0.3193
32227SOL     OW 1810   4.142   2.216   0.622 -0.0593 -0.6921 -0.5783
32227SOL    HW1 1811   4.119   2.126   0.643  1.6375 -1.4840 -2.0683
32227SOL    HW2 1812   4.236   2.215   0.607  0.0734  1.4350 -0.1093
32228SOL     OW 1813   9.455   1.413   0.916 -0.6143 -0.0413 -0.3624
32228SOL    HW1 1814   9.444   1.321   0.940  0.4905 -0.3274 -0.9434
32228SOL    HW2 1815   9.487   1.455   0.995  0.6997 -0.5241 -0.6235
32229SOL     OW 1816   9.813   2.373  10.564  0.1264  0.4313 -0.7180
32229SOL    HW1 1817   9.722   2.400  10.571 -0.3334 -1.7376  2.3661
32229SOL    HW2 1818   9.863   2.449  10.592 -0.7814  1.1341 -0.9984
32230SOL     OW 1819  10.845  11.140  10.630  0.3754 -0.3704 -0.2243
32230SOL    HW1 1820  10.830  11.046  10.637 -1.1387 -0.1129  0.3155
32230SOL    HW2 1821  10.767  11.173  10.584  1.1743  0.5373 -0.9439
32231SOL     OW 1822   2.408   4.732   5.291 -0.4887 -0.0026 -0.0759
32231SOL    HW1 1823   2.425   4.648   5.335 -0.7512  0.6682  1.3470
32231SOL    HW2 1824   2.368   4.708   5.208 -0.3169 -1.3032  0.2049
32232SOL     OW 1825   4.788   1.680   8.175 -0.6353  0.0719  0.2097
32232SOL    HW1 1826   4.873   1.709   8.207  0.7051 -0.6258 -2.5333
32232SOL    HW2 1827   4.748   1.758   8.138  0.4354 -0.2910 -1.8114
32233SOL     OW 1828  10.335   5.907  10.226  0.1002  0.0256  0.1143
32233SOL    HW1 1829  10.317   5.818  10.194 -0.4314  0.2882 -0.3370
32233SOL    HW2 1830  10.403   5.896  10.292 -0.7117 -0.8373  0.8077
32234SOL     OW 1831   1.486   7.076   5.802  0.0911  0.1362  0.3620
32234SOL    HW1 1832   1.529   7.048   5.883 -0.4085  0.1194  0.6244
32234SOL    HW2 1833   1.482   6.997   5.748  0.0299  0.0460  0.4987
32235SOL     OW 1834   4.614  10.325   4.066  0.6808 -0.2770  0.3061
32235SOL    HW1 1835   4.645  10.352   3.979 -0.5962 -2.3932 -0.8615
32235SOL    HW2 1836   4.524  10.357   4.070  1.1648  0.9814  1.4119
32236SOL     OW 1837   4.191   9.159   3.606 -0.4264  0.4506  0.5490
32236SOL    HW1 1838   4.270   9.153   3.553 -1.1738 -0.2817 -0.4937
32236SOL    HW2 1839   4.173   9.252   3.613  0.0790  0.5813  0.1062
32237SOL     OW 1840   7.032   8.877   3.427  0.3556 -0.2289  0.0787
32237SOL    HW1 1841   7.076   8.944   3.375 -0.8819  0.7037  0.2038
32237SOL    HW2 1842   7.062   8.794   3.390  1.6412  0.3993 -0.2999
32238SOL     OW 1843   4.772  11.199   0.808  0.0005 -0.2021  0.6160
32238SOL    HW1 1844   4.758  11.132   0.875 -1.1796 -0.2220  0.3603
32238SOL    HW2 1845   4.730  11.164   0.729  0.1782  0.4346  0.2326
32239SOL     OW 1846   9.314   3.653   9.175  0.7054  0.8711 -0.6983
32239SOL    HW1 1847   9.248   3.598   9.132 -0.2033  2.1032 -0.8714
32239SOL    HW2 1848   9.305   3.739   9.134  0.5818  1.7757  1.1793
32240SOL     OW 1849   1.644   6.784   8.919  0.0303 -0.2660 -0.3394
32240SOL    HW1 1850   1.558   6.744   8.906 -0.5406  0.6225  0.6595
32240SOL    HW2 1851   1.668   6.761   9.008  0.3774  0.3421 -0.2764
32241SOL     OW 1852   5.436   9.133  11.180 -0.0948  0.0102  0.2828
32241SOL    HW1 1853   5.480   9.217  11.194  0.6056 -0.2893 -0.1369
32241SOL    HW2 1854   5.472   9.100  11.098 -0.6691 -0.5156  0.2363
32242SOL     OW 1855   2.523   5.357  10.554  0.0499  0.1073 -0.7627
32242SOL    HW1 1856   2.513   5.342  10.460 -0.0687  0.8397 -0.8711
32242SOL    HW2 1857   2.472   5.436  10.571  1.4711  0.9643 -0.3924
32243SOL     OW 1858   7.836   1.238  10.745 -0.3794 -0.2002  0.5118
32243SOL    HW1 1859   7.825   1.329  10.717  3.7710 -0.1146 -1.1877
32243SOL    HW2 1860   7.869   1.193  10.667  1.6899 -2.2019  2.4814
32244SOL     OW 1861   3.221   1.089   8.003  0.4446  0.2404 -0.4737
32244SOL    HW1 1862   3.311   1.096   8.036 -0.4685  1.0823  1.9494
32244SOL    HW2 1863   3.218   1.151   7.930  1.5720  0.8826  0.0085
32245SOL     OW 1864   1.790   9.814  10.086  0.3963 -0.3030 -0.3699
32245SOL    HW1 1865   1.781   9.907  10.068 -1.1027 -0.6236 -1.4113
32245SOL    HW2 1866   1.865   9.786  10.034  1.8860  0.6296  1.2378
32246SOL     OW 1867   0.039   0.591   4.718 -0.4695 -0.1463 -0.0516
32246SOL    HW1 1868   0.119   0.564   4.763  0.1789  2.2578  0.2755
32246SOL    HW2 1869   0.069   0.649   4.648 -1.7305 -1.3388 -1.6222
32247SOL     OW 1870   3.793   0.960   4.103 -0.1385 -0.2815  0.1885
32247SOL    HW1 1871   3.739   0.914   4.039  0.3702 -0.0125 -0.4428
32247SOL    HW2 1872   3.730   1.002   4.162 -0.6588  1.5664 -1.6209
32248SOL     OW 1873  10.617  10.390   3.231 -0.3910  0.3738 -0.5078
32248SOL    HW1 1874  10.681  10.451   3.268 -0.4949  0.2489 -0.1219
32248SOL    HW2 1875  10.616  10.411   3.137 -0.9092  1.4050 -0.2820
32249SOL     OW 1876   1.402   4.451   2.108  0.2071 -0.0094  0.8677
32249SOL    HW1 1877   1.458   4.437   2.031  0.4629  1.3821  0.7779
32249SOL    HW2 1878   1.438   4.395   2.176  0.3163 -0.8353  0.1377
32250SOL     OW 1879   3.485  10.674   4.763 -0.1034  0.1460  0.0647
32250SOL    HW1 1880   3.509  10.588   4.727  0.1003  0.2333 -0.0084
32250SOL    HW2 1881   3.550  10.689   4.832  0.2182  0.5082 -0.3175
32251SOL     OW 1882   0.547   1.480   4.576 -0.1423  0.0962 -1.0371
32251SOL    HW1 1883   0.582   1.399   4.613 -2.3489 -0.2687  0.3106
32251SOL    HW2 1884   0.561   1.470   4.482  0.0930 -1.6380 -0.8456
32252SOL     OW 1885   9.165   3.186   8.250 -1.0482 -0.3343  0.3134
32252SOL    HW1 1886   9.211   3.132   8.186  2.3226  0.9923  1.4818
32252SOL    HW2 1887   9.124   3.255   8.199  0.6157  0.0215 -0.5877
32253SOL     OW 1888   8.333   0.189   2.059 -0.5873  0.5038 -0.1537
32253SOL    HW1 1889   8.280   0.201   1.980  0.4271 -0.8659 -1.0554
32253SOL    HW2 1890   8.317   0.099   2.085 -0.5001  0.7945  0.9116
32254SOL     OW 1891   1.360   5.509   9.191  1.0614 -0.1545  0.8528
32254SOL    HW1 1892   1.361   5.414   9.174  1.1092 -0.0100  0.0394
32254SOL    HW2 1893   1.433   5.543   9.141  0.6993  0.3928  0.6961
32255SOL     OW 1894   8.552   7.331  10.230  0.0536  0.2671  0.0913
32255SOL    HW1 1895   8.634   7.296  10.264  0.0154  0.1885  0.1000
32255SOL    HW2 1896   8.532   7.276  10.154 -1.4246 -1.5176  1.7218
32256SOL     OW 1897   5.163   1.451   9.723 -0.4498 -0.3406  0.2403
32256SOL    HW1 1898   5.120   1.398   9.790  1.1762 -2.7966 -0.5660
32256SOL    HW2 1899   5.254   1.421   9.724  0.2018  1.5160 -1.1835
32257SOL     OW 1900   8.181   8.464   9.452 -0.2756 -0.1499 -0.1416
32257SOL    HW1 1901   8.176   8.399   9.522  0.1807 -1.2377 -1.0998
32257SOL    HW2 1902   8.274   8.471   9.432 -0.4001  0.1892 -0.6026
32258SOL     OW 1903   5.162   1.627   7.957 -0.2168 -0.4146  0.0186
32258SOL    HW1 1904   5.146   1.632   8.051 -1.5313  1.9669 -0.2813
32258SOL    HW2 1905   5.235   1.687   7.942 -2.2405  1.9592 -0.8744
32259SOL     OW 1906   9.157   4.682   9.013  0.3517  0.2261  0.2819
32259SOL    HW1 1907   9.110   4.702   9.094 -1.1510  1.1400 -0.7825
32259SOL    HW2 1908   9.216   4.757   9.001 -0.4964  0.8120 -0.2427
32260SOL     OW 1909   7.420   7.129   8.982  0.0252  0.1104  0.2209
32260SOL    HW1 1910   7.437   7.161   9.071 -0.1693  0.3777  0.1608
32260SOL    HW2 1911   7.433   7.206   8.926  1.7838 -0.4319 -0.1578
32261SOL     OW 1912   6.498   1.692  10.634  0.5244 -0.0136 -0.6305
32261SOL    HW1 1913   6.583   1.707  10.592  0.8471 -1.8905 -0.6844
32261SOL    HW2 1914   6.433   1.714  10.567  0.8805  3.5521  0.0981
32262SOL     OW 1915  10.721   4.404   0.468  0.1662 -0.2228  0.3405
32262SOL    HW1 1916  10.737   4.463   0.542  0.1249  1.0734 -0.6695
32262SOL    HW2 1917  10.781   4.434   0.399  0.5374 -1.7183  0.0039
32263SOL     OW 1918   8.996   0.445   2.497  0.0351  0.2811 -0.2006
32263SOL    HW1 1919   8.985   0.352   2.478 -0.9083  0.2953  0.2317
32263SOL    HW2 1920   9.026   0.484   2.415  0.7789 -0.4597 -0.2861
32264SOL     OW 1921   8.069   6.216   7.350 -0.0083  0.1597 -0.0102
32264SOL    HW1 1922   8.163   6.233   7.353  0.1859 -0.6749 -1.0407
32264SOL    HW2 1923   8.059   6.150   7.281 -1.6138  2.0752 -1.6681
32265SOL     OW 1924   5.504   2.964   9.959 -0.1165  0.4252  0.2027
32265SOL    HW1 1925   5.432   3.016   9.925 -0.1098 -0.0445 -0.5600
32265SOL    HW2 1926   5.568   2.962   9.887 -0.1274 -0.6298  0.2038
32266SOL     OW 1927   7.281   6.356   8.544 -0.8758 -0.4978  0.6163
32266SOL    HW1 1928   7.293   6.420   8.474 -3.1551 -0.5032  0.1906
32266SOL    HW2 1929   7.206   6.389   8.594 -1.5227 -2.4051  0.9073
32267SOL     OW 1930  11.219   5.815  10.057 -0.0685 -0.0742  0.5233
32267SOL    HW1 1931  11.146   5.792  10.114 -0.2723 -0.4127  0.1222
32267SOL    HW2 1932  11.230   5.909  10.070 -0.5854 -0.0190  0.5715
32268SOL     OW 1933   9.744   9.325   2.784  0.0906 -0.8259 -0.3760
32268SOL    HW1 1934   9.687   9.399   2.762  0.1536 -0.8062 -0.4752
32268SOL    HW2 1935   9.742   9.269   2.706  1.5118 -0.0012 -1.0126
32269SOL     OW 1936   6.749   3.588  10.067 -0.2945  0.4475  0.0321
32269SOL    HW1 1937   6.658   3.567  10.088  0.1077 -0.6408  0.7622
32269SOL    HW2 1938   6.764   3.548   9.981 -0.4332  0.4191  0.0208
32270SOL     OW 1939   3.124   4.524   8.499  0.2595 -0.3708 -0.2180
32270SOL    HW1 1940   3.190   4.462   8.468  0.2132 -1.6947  2.2421
32270SOL    HW2 1941   3.043   4.495   8.457  0.5362 -1.0047 -0.3270
32271SOL     OW 1942   8.076   2.339   4.690 -0.4064  0.1186  0.1080
32271SOL    HW1 1943   8.043   2.253   4.717  0.2374 -0.7779 -1.8551
32271SOL    HW2 1944   8.169   2.337   4.712 -0.2126 -0.0228 -0.6877
32272SOL     OW 1945  10.344   6.934  11.077  0.7861 -0.1468  0.3531
32272SOL    HW1 1946  10.314   6.957  11.165  0.5799  1.7174 -0.1968
32272SOL    HW2 1947  10.289   6.985  11.018 -0.0140 -2.4224 -0.9427
32273SOL     OW 1948   3.191   3.968   8.722  0.1725  0.2971 -0.0980
32273SOL    HW1 1949   3.254   4.004   8.785 -0.8504  0.4933  0.8183
32273SOL    HW2 1950   3.111   4.019   8.736 -0.6733 -0.9975 -0.1711
32274SOL     OW 1951   6.278  10.136  10.648  0.1946  0.6591 -0.8512
32274SOL    HW1 1952   6.362  10.102  10.615 -0.0594  1.0182 -1.8726
32274SOL    HW2 1953   6.213  10.074  10.617 -0.0436  0.9832 -0.9983
32275SOL     OW 1954   9.628   0.112   2.931 -0.9078 -0.2947 -0.1029
32275SOL    HW1 1955   9.678   0.100   3.012 -2.1537 -0.7516  0.6077
32275SOL    HW2 1956   9.685   0.078   2.863  0.5546  0.9905  0.4581
32276SOL     OW 1957   9.655   3.010   7.158 -0.3720 -0.2655 -0.2334
32276SOL    HW1 1958   9.642   3.041   7.248 -1.1954 -0.4509 -0.2933
32276SOL    HW2 1959   9.646   2.915   7.163 -1.1877 -0.2074 -0.6536
32277SOL     OW 1960   2.338   1.815  10.597  0.0403 -0.5149 -0.4047
32277SOL    HW1 1961   2.352   1.853  10.684  0.5650 -0.9415 -0.3008
32277SOL    HW2 1962   2.421   1.773  10.576  0.1234  0.1536 -1.4002
32278SOL     OW 1963   9.774   7.827   5.294 -0.1732  0.2298  0.2798
32278SOL    HW1 1964   9.845   7.860   5.238  1.2298 -2.9646  0.0668
32278SOL    HW2 1965   9.715   7.781   5.234  0.5749 -1.9589  1.1720
32279SOL     OW 1966   8.552  11.279   1.946  0.3873 -0.0519  0.4785
32279SOL    HW1 1967   8.461  11.249   1.954 -0.3289  1.4412 -1.6190
32279SOL    HW2 1968   8.602  11.201   1.925 -0.8077 -0.4758 -0.8437
32280SOL     OW 1969   0.521   0.315   9.141 -0.6465  0.3201  0.2788
32280SOL    HW1 1970   0.454   0.328   9.209  0.0542  1.2978  0.7961
32280SOL    HW2 1971   0.514   0.392   9.085  0.6877  0.9068  0.9005
32281SOL     OW 1972   0.204   6.502   3.498  0.3509 -0.4475  0.1479
32281SOL    HW1 1973   0.205   6.485   3.404  0.6526 -0.5743  0.1732
32281SOL    HW2 1974   0.187   6.596   3.506  3.7461  0.2446 -0.1217
32282SOL     OW 1975  10.244   5.200   0.324 -0.3127  0.7813 -0.0228
32282SOL    HW1 1976  10.274   5.109   0.326  1.6487  1.3768 -1.1929
32282SOL    HW2 1977  10.292   5.243   0.395  0.3096  1.3487 -0.7770
32283SOL     OW 1978   6.492   2.006   2.728 -0.3169 -0.2041  0.2816
32283SOL    HW1 1979   6.539   1.986   2.647  0.2670 -2.0719  1.0374
32283SOL    HW2 1980   6.530   2.088   2.758 -0.2757  0.3071 -1.1460
32284SOL     OW 1981   4.848   1.462   4.533 -0.0579  0.4961  0.4661
32284SOL    HW1 1982   4.886   1.408   4.464 -0.3705  0.0201  0.6663
32284SOL    HW2 1983   4.893   1.546   4.525  0.6591  0.1019  0.3712
32285SOL     OW 1984   0.074   3.301   6.317  0.7205  0.1221  0.4643
32285SOL    HW1 1985   0.042   3.359   6.386  0.4859  2.1190 -1.2539
32285SOL    HW2 1986  -0.003   3.253   6.288  0.6320 -0.0192  0.9287
32286SOL     OW 1987   3.630   0.941   9.147 -0.2672  0.0228 -0.3849
32286SOL    HW1 1988   3.721   0.969   9.159  0.1439 -0.7164 -1.6863
32286SOL    HW2 1989   3.580   1.022   9.143  0.3247  0.4355  0.3472
32287SOL     OW 1990   1.726   8.584   0.738  0.1709 -0.3324 -0.1389
32287SOL    HW1 1991   1.739   8.521   0.808  0.6328  0.9457  0.9594
32287SOL    HW2 1992   1.645   8.629   0.760 -0.9190 -1.4666 -1.6689
32288SOL     OW 1993   0.017   5.063  10.615  0.5181 -0.1236  0.4309
32288SOL    HW1 1994  -0.003   5.084  10.706 -0.5421  0.3916  0.0929
32288SOL    HW2 1995   0.020   4.968  10.612  1.4398 -0.1323  1.1738
32289SOL     OW 1996  10.725   7.192   1.624 -0.0578  0.4036 -0.1737
32289SOL    HW1 1997  10.771   7.108   1.619 -1.1974 -0.1482 -1.6700
32289SOL    HW2 1998  10.716   7.209   1.718 -2.2447 -2.5184  0.2155
32290SOL     OW 1999  10.908   0.053   2.416 -0.1077  0.3623 -0.1395
32290SOL    HW1 2000  10.857   0.071   2.494 -0.3979  1.6228 -0.6136
32290SOL    HW2 2001  10.846   0.013   2.355  0.3009 -1.3910  0.5352
32291SOL     OW 2002   5.467   0.237   0.688  0.1056 -0.2992  0.2382
32291SOL    HW1 2003   5.478   0.332   0.696  1.4469 -0.4799  0.7747
32291SOL    HW2 2004   5.557   0.203   0.682 -0.2575 -1.6948  2.1534
32292SOL     OW 2005   0.144   4.263   8.565 -0.1581 -0.2455  0.5502
32292SOL    HW1 2006   0.134   4.239   8.473 -0.8389 -0.6462  0.7233
32292SOL    HW2 2007   0.110   4.187   8.614  0.5561 -0.1961  1.1329
32293SOL     OW 2008  10.489   3.927   4.463  0.4054  0.1143  0.5608
32293SOL    HW1 2009  10.479   3.839   4.500  1.2064 -0.4370 -0.4912
32293SOL    HW2 2010  10.548   3.971   4.524  0.3333 -0.2068  0.8699
32294SOL     OW 2011   7.513   8.189   0.820  0.1617 -0.1235  0.2895
32294SOL    HW1 2012   7.565   8.115   0.853 -0.0573  0.0316  1.0040
32294SOL    HW2 2013   7.480   8.232   0.899  0.3843  0.8094 -0.1165
32295SOL     OW 2014   2.546   2.102   4.920 -0.1480 -0.5319  0.5652
32295SOL    HW1 2015   2.546   2.007   4.912 -0.1984 -0.7257  2.5965
32295SOL    HW2 2016   2.455   2.128   4.904 -0.4649 -0.9875  1.5887
32296SOL     OW 2017   2.871  10.885   6.053  0.4879  0.4389  0.3211
32296SOL    HW1 2018   2.789  10.839   6.069  0.4890  0.5142  0.5456
32296SOL    HW2 2019   2.898  10.916   6.139  1.7960 -1.3641  0.5961
32297SOL     OW 2020   1.955   5.861   3.283 -0.2117 -0.3508 -0.0393
32297SOL    HW1 2021   1.987   5.830   3.198  2.9020  2.4013  0.0374
32297SOL    HW2 2022   2.008   5.814   3.347  1.5724  1.8542  0.1703
32298SOL     OW 2023   0.419   5.475   8.311  0.7627  0.7490 -0.0106
32298SOL    HW1 2024   0.342   5.528   8.330 -0.2048 -0.3521 -0.6985
32298SOL    HW2 2025   0.385   5.404   8.256  2.5369  1.0797 -1.5914
32299SOL     OW 2026   8.693   2.176  10.330  0.6829 -0.4816 -0.3405
32299SOL    HW1 2027   8.608   2.132  10.338 -0.0902  0.7129 -1.7774
32299SOL    HW2 2028   8.702   2.226  10.411 -0.9938  1.0862 -1.0785
32300SOL     OW 2029   0.054   2.451   5.451 -0.4522  0.5570  0.2394
32300SOL    HW1 2030   0.036   2.368   5.407 -1.9216  1.9743 -1.9852
32300SOL    HW2 2031  -0.033   2.489   5.467  0.2237  2.1075  0.3074
32301SOL     OW 2032   8.737   8.054  11.091 -0.5178 -0.1788 -0.1570
32301SOL    HW1 2033   8.655   8.015  11.060 -0.9039  1.7692 -1.6756
32301SOL    HW2 2034   8.712   8.102  11.171 -0.4069 -1.4148  0.6335
32302SOL     OW 2035   9.735   1.091  10.417 -0.4365 -0.6604  0.1161
32302SOL    HW1 2036   9.653   1.044  10.416 -0.4395 -0.7086  1.5610
32302SOL    HW2 2037   9.714   1.175  10.459  0.0728 -0.3661 -0.2169
32303SOL     OW 2038   7.090   0.465  11.096  0.0288 -0.4764  0.1960
32303SOL    HW1 2039   7.033   0.532  11.134 -0.0175  0.3389 -1.2488
32303SOL    HW2 2040   7.068   0.466  11.003  2.2173 -0.3351 -0.3374
32304SOL     OW 2041   1.401   6.663   5.788 -0.2780  0.0060 -0.4394
32304SOL    HW1 2042   1.370   6.664   5.698 -0.8689 -2.2731 -0.2831
32304SOL    HW2 2043   1.352   6.593   5.830  1.5217 -0.3848  1.1071
32305SOL     OW 2044   8.413   6.392   4.698 -0.4118  0.2387 -0.1124
32305SOL    HW1 2045   8.361   6.314   4.678  1.6627 -0.8470 -1.4733
32305SOL    HW2 2046   8.434   6.429   4.612 -0.9354  2.0202  0.5102
32306SOL     OW 2047  10.558   9.545   6.730 -0.0836  0.4897  0.0503
32306SOL    HW1 2048  10.621   9.515   6.666  0.4061  0.1600  0.6830
32306SOL    HW2 2049  10.583   9.636   6.747 -0.1925  0.5667 -0.1955
32307SOL     OW 2050   4.856   4.681   0.948 -0.0463 -0.4640  0.3178
32307SOL    HW1 2051   4.882   4.590   0.964 -0.5675 -0.3631  1.8328
32307SOL    HW2 2052   4.866   4.692   0.854  1.2982 -1.6928  0.2942
32308SOL     OW 2053   9.568   0.997  10.738 -0.0349  0.8140  0.3982
32308SOL    HW1 2054   9.575   0.914  10.786 -2.3246  1.2443  1.6034
32308SOL    HW2 2055   9.599   1.063  10.800  0.2655  1.0250  0.0251
32309SOL     OW 2056   2.637   6.909  11.260  0.4609 -0.2461 -0.6439
32309SOL    HW1 2057   2.588   6.851  11.202  0.4836  0.2210 -1.1343
32309SOL    HW2 2058   2.728   6.880  11.253  0.2377 -1.1865  0.3528
32310SOL     OW 2059   2.925  11.022   1.639 -0.3059 -0.1741 -0.0371
32310SOL    HW1 2060   2.840  11.053   1.671 -1.2054  0.1469 -2.5555
32310SOL    HW2 2061   2.945  11.080   1.565  2.2459 -0.0906  0.6748
32311SOL     OW 2062   2.570   2.656   2.902  0.1174  0.0386 -0.5690
32311SOL    HW1 2063   2.504   2.708   2.855  0.1037  0.7267  0.1953
32311SOL    HW2 2064   2.653   2.695   2.877  0.2037 -0.5706 -1.2167
32312SOL     OW 2065   7.960   6.244   6.142 -0.2876 -0.2432 -0.2342
32312SOL    HW1 2066   8.018   6.208   6.209  1.5316 -0.2959 -1.7914
32312SOL    HW2 2067   7.891   6.290   6.191  0.0603 -1.7257  1.6711
32313SOL     OW 2068   1.748   2.141   9.659  0.0057  0.1717  0.6284
32313SOL    HW1 2069   1.743   2.229   9.696  2.8787 -0.2873  2.2651
32313SOL    HW2 2070   1.801   2.151   9.580 -0.6713  0.0925  0.1612
32314SOL     OW 2071   9.459   0.733  10.512 -0.1589 -0.1633 -0.1486
32314SOL    HW1 2072   9.440   0.660  10.453  1.2469 -0.3023 -0.4526
32314SOL    HW2 2073   9.554   0.729  10.525 -0.2770  0.6626  1.0841
32315SOL     OW 2074   7.691   5.359   9.421  0.8715  0.3010  0.1818
32315SOL    HW1 2075   7.606   5.322   9.444  0.3413  0.6257 -1.1874
32315SOL    HW2 2076   7.742   5.354   9.501 -0.6228  0.6132  1.1773
32316SOL     OW 2077   4.014   1.194   5.803  0.5361 -0.0140  0.0973
32316SOL    HW1 2078   4.074   1.201   5.878  0.6334  1.4290 -0.0908
32316SOL    HW2 2079   4.058   1.243   5.733  0.5191 -1.4671 -0.9660
32317SOL     OW 2080   9.020   8.530   6.584 -0.7904 -0.2207  0.7584
32317SOL    HW1 2081   8.938   8.494   6.616 -0.1285 -0.1820  2.5831
32317SOL    HW2 2082   9.063   8.457   6.539 -1.5366 -0.4118  0.3603
32318SOL     OW 2083   5.116   5.207   5.102 -0.1587  0.2637  0.0641
32318SOL    HW1 2084   5.107   5.116   5.072  0.3822 -0.1882  1.2433
32318SOL    HW2 2085   5.166   5.250   5.033  1.0641 -0.7617  0.3037
32319SOL     OW 2086   0.651   6.481   3.950 -0.0956  0.0453 -0.0658
32319SOL    HW1 2087   0.574   6.536   3.936  1.8379  2.5225 -1.3062
32319SOL    HW2 2088   0.647   6.417   3.878 -0.9774  0.1387 -0.1136
32320SOL     OW 2089   3.567   7.433   0.769 -0.2718 -0.3319  0.3156
32320SOL    HW1 2090   3.489   7.466   0.726 -0.1015 -0.8030 -0.3724
32320SOL    HW2 2091   3.639   7.483   0.730  0.1007 -2.2584 -1.5582
32321SOL     OW 2092   8.078   8.818   2.466  0.0037 -0.5422  0.0127
32321SOL    HW1 2093   8.165   8.821   2.427 -0.0373 -0.0637 -0.0435
32321SOL    HW2 2094   8.048   8.728   2.452  0.1279 -0.4693 -0.7437
32322SOL     OW 2095   4.757   7.262   0.888  0.0395  0.0039 -0.3337
32322SOL    HW1 2096   4.724   7.214   0.964 -2.3261  0.7849 -0.8008
32322SOL    HW2 2097   4.852   7.258   0.896 -0.1503 -1.8770  1.4212
32323SOL     OW 2098   0.246   3.816   5.054 -0.2401 -0.9358 -0.1519
32323SOL    HW1 2099   0.218   3.844   4.967 -1.0489 -0.5699  0.2181
32323SOL    HW2 2100   0.190   3.741   5.075 -0.7002 -0.4451  0.4269
32324SOL     OW 2101   5.316  10.798   2.651  0.2613  0.0595 -0.2671
32324SOL    HW1 2102   5.309  10.708   2.622  0.7026  0.1543 -0.6760
32324SOL    HW2 2103   5.362  10.843   2.580 -0.5007  0.7348 -0.3362
32325SOL     OW 2104   8.682   7.746   9.316 -0.2918 -0.7056 -0.0968
32325SOL    HW1 2105   8.724   7.671   9.359  0.6894 -0.7153 -1.0412
32325SOL    HW2 2106   8.725   7.751   9.230 -1.8689 -0.3839 -0.8779
32326SOL     OW 2107   7.564   0.026   8.796 -0.4877  0.4046  0.3215
32326SOL    HW1 2108   7.602   0.077   8.724 -0.1874 -0.9864 -0.5442
32326SOL    HW2 2109   7.471   0.020   8.774 -0.1326 -1.3744 -0.8439
32327SOL     OW 2110   9.651   4.959   6.249 -0.2426 -0.1242  0.4243
32327SOL    HW1 2111   9.661   4.982   6.157 -0.6917 -1.3432  0.0634
32327SOL    HW2 2112   9.601   5.032   6.287 -0.4396  0.1678 -0.3933
32328SOL     OW 2113   4.493   4.583   5.994  0.0294 -0.0544 -0.4677
32328SOL    HW1 2114   4.553   4.542   5.932 -0.5452  0.9254 -1.7137
32328SOL    HW2 2115   4.446   4.510   6.034 -0.2890 -0.6766 -1.9228
32329SOL     OW 2116   8.823   2.238   8.896 -0.1941 -0.4829 -0.1816
32329SOL    HW1 2117   8.741   2.196   8.871  0.0145 -0.7624 -0.3956
32329SOL    HW2 2118   8.854   2.279   8.815 -0.2728 -0.1303 -0.0305
32330SOL     OW 2119   6.713   2.540   4.265  0.0451 -0.0763 -0.5599
32330SOL    HW1 2120   6.702   2.618   4.211  1.3441  0.1271 -0.5426
32330SOL    HW2 2121   6.782   2.563   4.327  0.1083 -1.0798 -0.2468
32331SOL     OW 2122   4.480   3.285   2.527  0.0561 -0.2327  0.0160
32331SOL    HW1 2123   4.505   3.284   2.435  1.3442  0.4594  0.3451
32331SOL    HW2 2124   4.433   3.203   2.541 -0.6624 -0.0705 -1.3880
32332SOL     OW 2125   3.764   1.470   0.868 -0.5467 -0.7457 -0.2560
32332SOL    HW1 2126   3.763   1.564   0.882  1.3572 -0.8634  0.8170
32332SOL    HW2 2127   3.747   1.460   0.774 -0.5270  0.6725 -0.4191
32333SOL     OW 2128   5.777   2.411   4.910  0.1105 -0.7267  0.3186
32333SOL    HW1 2129   5.841   2.482   4.907 -2.7080  1.8704 -1.6081
32333SOL    HW2 2130   5.799   2.356   4.835  0.9920 -0.7057  0.5542
32334SOL     OW 2131   3.392   9.460   8.540  0.3032  0.3363  0.9029
32334SOL    HW1 2132   3.385   9.409   8.621  1.5414 -0.1972  0.6960
32334SOL    HW2 2133   3.470   9.424   8.497  0.6969  1.8476  0.3505
32335SOL     OW 2134   7.781   1.710   7.345 -0.1550  0.0745  0.1670
32335SOL    HW1 2135   7.751   1.686   7.257  1.2410  0.5629 -0.4426
32335SOL    HW2 2136   7.874   1.728   7.335  0.0135  0.1378  1.7536
32336SOL     OW 2137   0.207   5.210   8.984  0.2080 -0.1848  0.0212
32336SOL    HW1 2138   0.162   5.192   9.066  1.1508  1.8348  1.0499
32336SOL    HW2 2139   0.142   5.254   8.930  0.2530  0.6341  0.6191
32337SOL     OW 2140   3.783   0.794   2.304  0.4102  0.4002 -0.2414
32337SOL    HW1 2141   3.708   0.740   2.279  0.3830  0.8228 -1.1061
32337SOL    HW2 2142   3.859   0.741   2.278  0.3950  0.4296 -0.3466
32338SOL     OW 2143   5.718   2.312   2.400  0.4173  0.1868 -0.0188
32338SOL    HW1 2144   5.640   2.294   2.452 -0.9138  1.6094 -1.4555
32338SOL    HW2 2145   5.752   2.395   2.435 -0.5671  1.2263 -1.4395
32339SOL     OW 2146   8.639   3.693   0.947  0.4128 -0.2477 -0.6149
32339SOL    HW1 2147   8.551   3.690   0.983  0.8043  1.1226  0.4791
32339SOL    HW2 2148   8.641   3.772   0.894  1.7474  1.1384  1.4292
32340SOL     OW 2149   7.369   4.217   9.893 -0.4634  0.5890 -0.0439
32340SOL    HW1 2150   7.298   4.281   9.903 -1.3613 -0.2170 -1.1203
32340SOL    HW2 2151   7.327   4.140   9.854  0.3877 -1.0350  2.0670
32341SOL     OW 2152   8.886   7.950   4.287  0.1148  0.3858 -0.5924
32341SOL    HW1 2153   8.957   7.947   4.223 -0.0740  1.4332 -0.8607
32341SOL    HW2 2154   8.925   7.917   4.368  1.1603  1.7531 -0.5181
32342SOL     OW 2155   6.762   1.619   1.451  0.2167  0.2090  0.4052
32342SOL    HW1 2156   6.825   1.648   1.518 -1.4197 -0.4934  2.3028
32342SOL    HW2 2157   6.748   1.526   1.470 -0.5328  0.0885 -0.7121
32343SOL     OW 2158   4.657   1.607   3.824 -0.1218  0.1500 -0.4784
32343SOL    HW1 2159   4.636   1.644   3.909  1.8067  0.2456 -0.0189
32343SOL    HW2 2160   4.653   1.512   3.837  0.2541  0.1640 -0.2600
32344SOL     OW 2161   7.947  10.403   3.576  0.3678  0.1676 -0.3258
32344SOL    HW1 2162   7.966  10.486   3.533  1.6488  0.8077  1.4256
32344SOL    HW2 2163   8.032  10.358   3.580 -0.3359 -1.3346 -1.4113
32345SOL     OW 2164  10.939   4.473   8.847  0.6529  0.1740  0.0370
32345SOL    HW1 2165  10.978   4.432   8.924 -0.5406  0.3757  0.7553
32345SOL    HW2 2166  11.010   4.474   8.782  1.0405 -1.9818  0.3801
32346SOL     OW 2167   5.996   4.576   9.205 -0.6658 -0.3105 -0.2426
32346SOL    HW1 2168   5.975   4.556   9.114 -0.9921  1.6088 -0.6185
32346SOL    HW2 2169   5.911   4.586   9.248 -0.5209 -0.0396 -0.0145
32347SOL     OW 2170  10.053   5.590   1.373  0.0262  0.2014  0.3545
32347SOL    HW1 2171  10.058   5.669   1.321  1.9396 -0.8217 -1.1039
32347SOL    HW2 2172  10.025   5.619   1.460 -0.2075  2.3245 -0.4185
32348SOL     OW 2173   9.295   5.958   0.528 -0.7440 -0.1844  0.4952
32348SOL    HW1 2174   9.211   5.934   0.568 -1.4410  0.9159 -0.2979
32348SOL    HW2 2175   9.348   5.989   0.601 -1.1524 -0.5402  0.9493
32349SOL     OW 2176   8.155   8.532   2.678 -0.3537 -0.1094 -0.7321
32349SOL    HW1 2177   8.186   8.462   2.621 -3.0328 -1.6671 -0.3811
32349SOL    HW2 2178   8.061   8.539   2.658 -0.9454  0.6521  2.0767
32350SOL     OW 2179   4.833   7.088  10.954 -0.0818 -0.3417  0.5928
32350SOL    HW1 2180   4.835   7.032  11.032  1.0339  1.8877  2.2184
32350SOL    HW2 2181   4.741   7.093  10.931 -0.6692  0.5375  2.9648
32351SOL     OW 2182   7.237   1.786  10.493 -0.3545  0.5798  0.0671
32351SOL    HW1 2183   7.191   1.802  10.576  0.1587 -0.8237  0.6393
32351SOL    HW2 2184   7.330   1.787  10.517 -0.1597  1.2828 -0.7038
32352SOL     OW 2185  11.015   5.953   3.275 -0.0040 -0.4143 -0.3016
32352SOL    HW1 2186  11.015   5.859   3.256 -0.8232 -0.6899  0.9921
32352SOL    HW2 2187  11.069   5.991   3.206  1.9065 -2.0557  0.2356
32353SOL     OW 2188   2.985   3.425   9.416  0.3763 -0.2733 -0.0686
32353SOL    HW1 2189   2.994   3.429   9.512 -1.3838 -0.6494  0.1421
32353SOL    HW2 2190   2.890   3.422   9.402  0.6200  0.2261 -1.8558
32354SOL     OW 2191   6.933   4.124   4.417  0.1495 -0.2290 -0.1648
32354SOL    HW1 2192   7.016   4.158   4.452 -0.3240  0.5787  0.1951
32354SOL    HW2 2193   6.909   4.187   4.348 -1.4065  0.9288  1.4035
32355SOL     OW 2194   5.962   1.163   5.936 -0.1820 -0.5597  0.1520
32355SOL    HW1 2195   5.918   1.123   6.011 -0.3326 -1.3324 -0.3475
32355SOL    HW2 2196   5.899   1.228   5.904 -1.1299 -1.9324 -0.7997
32356SOL     OW 2197   4.207   1.642   2.354  0.2930 -0.0893 -0.2041
32356SOL    HW1 2198   4.246   1.563   2.318 -0.6837 -1.1067  0.9316
32356SOL    HW2 2199   4.279   1.703   2.363  0.9314 -0.5897 -1.7876
32357SOL     OW 2200   6.073   5.200   6.646 -0.5182 -0.4483  0.5208
32357SOL    HW1 2201   6.024   5.141   6.702 -0.3477 -0.9711  0.1181
32357SOL    HW2 2202   6.164   5.193   6.677 -0.7739  0.9489  1.6430
32358SOL     OW 2203   1.514   2.235   2.382 -0.7579 -0.4413  0.0557
32358SOL    HW1 2204   1.419   2.248   2.383 -0.8504 -1.1328  1.1974
32358SOL    HW2 2205   1.525   2.141   2.393  0.0715 -0.3214  0.2781
32359SOL     OW 2206   3.659   8.867   8.415  0.6159 -0.3107  0.4862
32359SOL    HW1 2207   3.666   8.852   8.509  0.5693 -0.2278  0.5029
32359SOL    HW2 2208   3.581   8.921   8.405 -0.5830 -2.0621  0.2022
32360SOL     OW 2209   4.901   7.005   2.554 -0.6230  0.1527 -0.2779
32360SOL    HW1 2210   4.983   7.011   2.506  0.0526 -1.7449  0.5932
32360SOL    HW2 2211   4.842   6.959   2.495  0.0499 -1.7087  0.4551
32361SOL     OW 2212  10.723   5.289   8.701  0.0448 -0.2203 -0.7217
32361SOL    HW1 2213  10.741   5.197   8.682  0.1668 -0.3448 -0.0240
32361SOL    HW2 2214  10.803   5.335   8.675 -1.3276  0.1739 -4.4848
32362SOL     OW 2215   7.924   5.331   7.136  0.1810 -0.1204  0.3423
32362SOL    HW1 2216   7.965   5.311   7.220  0.9774  0.5625  0.1248
32362SOL    HW2 2217   7.912   5.246   7.093  1.3612 -0.3241  0.4153
32363SOL     OW 2218   1.282   3.614   2.699 -0.3046  0.3110 -0.7649
32363SOL    HW1 2219   1.317   3.684   2.754  1.4418 -1.2465  0.1887
32363SOL    HW2 2220   1.197   3.592   2.737  0.0681  0.5184  0.1959
32364SOL     OW 2221   0.432   7.667   4.805  0.1973 -0.0677 -0.1833
32364SOL    HW1 2222   0.382   7.662   4.724  0.3443 -1.5305 -0.1853
32364SOL    HW2 2223   0.374   7.714   4.865 -1.1893 -1.6943 -0.1925
32365SOL     OW 2224  10.236   6.619   0.523 -0.0132 -0.2645 -0.2551
32365SOL    HW1 2225  10.280   6.535   0.513 -2.4767 -1.6854  0.3935
32365SOL    HW2 2226  10.204   6.640   0.435 -1.6581 -1.3018  0.0934
32366SOL     OW 2227   3.874   4.334   9.805 -0.5668  0.1992  0.3167
32366SOL    HW1 2228   3.888   4.255   9.753 -0.8037  0.4235 -0.0920
32366SOL    HW2 2229   3.908   4.405   9.751 -2.6440  0.6751 -0.4092
32367SOL     OW 2230   6.125   7.370   4.014  0.1349 -0.0212  0.5002
32367SOL    HW1 2231   6.105   7.309   3.943 -0.5717 -0.4513  1.0618
32367SOL    HW2 2232   6.217   7.392   4.001  0.3159 -0.9751  0.1129
32368SOL     OW 2233   9.496   8.987   5.688  0.1190 -0.0502 -0.2567
32368SOL    HW1 2234   9.584   8.949   5.681 -0.3849 -1.2818 -0.0466
32368SOL    HW2 2235   9.487   9.012   5.780  0.3267  0.2806 -0.3247
32369SOL     OW 2236   7.127   7.480   2.252  0.1850  0.1242 -0.1057
32369SOL    HW1 2237   7.137   7.556   2.309  1.1608 -2.2538  3.0300
32369SOL    HW2 2238   7.042   7.443   2.277 -0.4915  0.3574 -1.9267
32370SOL     OW 2239   4.325   5.311   0.327  0.1549  0.1870  0.3694
32370SOL    HW1 2240   4.319   5.294   0.233 -1.9976  0.1754  0.4970
32370SOL    HW2 2241   4.290   5.399   0.338 -0.4000 -0.1396  1.2561
32371SOL     OW 2242   2.133   8.372   2.633 -0.7200  0.1274 -1.0048
32371SOL    HW1 2243   2.049   8.410   2.655 -0.5221 -0.5663  1.0193
32371SOL    HW2 2244   2.186   8.446   2.603 -1.7735  0.6855 -1.5061
32372SOL     OW 2245   4.245   9.887   9.658 -0.5233 -0.2799 -0.3837
32372SOL    HW1 2246   4.245   9.918   9.567  0.6594 -0.7528 -0.5493
32372SOL    HW2 2247   4.158   9.911   9.691 -0.8554  0.1630 -1.5433
32373SOL     OW 2248   4.376   6.772   1.106 -0.6875 -0.5388  0.7014
32373SOL    HW1 2249   4.450   6.784   1.047  0.1089  1.0468  1.9723
32373SOL    HW2 2250   4.410   6.718   1.177 -1.8892 -3.2096 -0.6879
32374SOL     OW 2251   5.742   9.562   9.828  0.0389  0.0845  0.0341
32374SOL    HW1 2252   5.823   9.565   9.777  0.3181  1.4893  0.5407
32374SOL    HW2 2253   5.690   9.493   9.786  1.0249 -0.0495 -0.9962
32375SOL     OW 2254   0.236   4.872   7.016  0.0081 -0.0672 -0.0389
32375SOL    HW1 2255   0.212   4.796   6.961  2.4038 -0.9779  0.1253
32375SOL    HW2 2256   0.239   4.945   6.955 -1.3210 -0.2858 -0.3866
32376SOL     OW 2257   2.587  10.113   2.286  0.1482 -0.0154 -0.3236
32376SOL    HW1 2258   2.632  10.193   2.312 -0.0396 -0.4526  1.3619
32376SOL    HW2 2259   2.579  10.120   2.191 -0.4292  2.2403 -0.1197
32377SOL     OW 2260  10.643   4.861  11.304  0.0468  0.4722  0.3805
32377SOL    HW1 2261  10.644   4.821  11.217  2.2177 -2.1917  1.5716
32377SOL    HW2 2262  10.708   4.931  11.299 -0.2689  0.7285 -0.2750
32378SOL     OW 2263   7.945  11.071   5.553  0.3680 -0.1995  0.4205
32378SOL    HW1 2264   7.853  11.094   5.537  0.9666  1.0880 -1.1792
32378SOL    HW2 2265   7.940  10.982   5.590 -1.5009 -0.2193  0.2034
32379SOL     OW 2266   2.236   1.097   8.633 -0.2420  0.2071  0.8286
32379SOL    HW1 2267   2.268   1.185   8.654  0.0658  0.0660  0.9535
32379SOL    HW2 2268   2.313   1.041   8.643 -0.7128 -0.2580  1.9535
32380SOL     OW 2269   7.909   0.722  10.079  0.3561  0.5797 -0.1746
32380SOL    HW1 2270   7.993   0.714  10.124  0.7447  0.6668 -0.8597
32380SOL    HW2 2271   7.852   0.658  10.122  0.6559  0.8033  0.5596
32381SOL     OW 2272  11.234   6.033   1.282 -0.6188 -0.7610 -0.1355
32381SOL    HW1 2273  11.227   6.040   1.377 -0.6106 -0.5767 -0.1489
32381SOL    HW2 2274  11.151   6.067   1.249 -0.0443  0.5455 -0.2513
32382SOL     OW 2275  11.274   3.879   4.751  0.0441  0.0371  0.6710
32382SOL    HW1 2276  11.189   3.837   4.750  0.0635  0.0104  0.2800
32382SOL    HW2 2277  11.324   3.835   4.683  0.7274 -0.6896  1.6275
32383SOL     OW 2278   2.607  10.733   6.037  0.1483 -0.1081  0.8393
32383SOL    HW1 2279   2.613  10.730   5.941 -0.5626  0.3469  0.7773
32383SOL    HW2 2280   2.515  10.714   6.056  0.1486  0.4286  1.3982
32384SOL     OW 2281   1.967   3.000   7.424 -0.1398  0.8075 -0.1499
32384SOL    HW1 2282   1.873   3.007   7.437 -0.1106  1.2610 -0.1639
32384SOL    HW2 2283   1.982   3.037   7.337  0.0223  0.4970 -0.2577
32385SOL     OW 2284   3.015   8.514   8.048  0.6049 -0.0793  0.7986
32385SOL    HW1 2285   2.979   8.603   8.040  0.0990 -0.2333  1.2588
32385SOL    HW2 2286   2.940   8.461   8.076  0.5619 -0.9244 -0.8525
32386SOL     OW 2287  11.086   7.117   7.337  0.0098 -0.0716 -0.1168
32386SOL    HW1 2288  11.020   7.186   7.324 -0.9720 -0.6974  1.4815
32386SOL    HW2 2289  11.039   7.047   7.382  1.6938 -0.6485  0.7692
32387SOL     OW 2290   5.480   3.650   7.936 -0.2559 -0.5158 -0.2747
32387SOL    HW1 2291   5.561   3.604   7.915  1.5314  1.8996  1.1083
32387SOL    HW2 2292   5.457   3.619   8.023  0.9545  1.1541  0.6623
32388SOL     OW 2293   2.676   7.546   2.289 -0.1602  0.1924  0.5101
32388SOL    HW1 2294   2.711   7.469   2.245 -1.8644 -1.4762  2.0003
32388SOL    HW2 2295   2.617   7.586   2.225  1.0631  0.5247 -0.4204
32389SOL     OW 2296   4.927   3.818   3.276 -0.7803  0.5623 -0.0586
32389SOL    HW1 2297   4.925   3.807   3.371 -1.2015  2.2169  0.1383
32389SOL    HW2 2298   4.917   3.912   3.263  0.1870  0.4520 -1.7105
32390SOL     OW 2299   9.567   1.946   7.243  0.1202 -0.3642  0.7700
32390SOL    HW1 2300   9.535   1.957   7.333  1.1446 -0.3593  1.1338
32390SOL    HW2 2301   9.545   1.855   7.221  1.0223 -0.7712  1.4957
32391SOL     OW 2302   8.711  10.783   6.092  0.1206 -0.1515  0.3202
32391SOL    HW1 2303   8.723  10.711   6.154  1.1418 -0.1743  0.1084
32391SOL    HW2 2304   8.682  10.739   6.012 -0.4611 -0.2017  0.5619
32392SOL     OW 2305   4.593   5.747   4.816 -0.1178 -0.5800  0.1700
32392SOL    HW1 2306   4.667   5.793   4.775 -0.8265  0.5471  0.1416
32392SOL    HW2 2307   4.523   5.812   4.820 -1.7382 -2.1894 -1.5050
32393SOL     OW 2308   6.718  11.306   7.021  0.1348  0.1708 -0.3091
32393SOL    HW1 2309   6.790  11.324   7.082 -0.3995  1.2788  0.0145
32393SOL    HW2 2310   6.762  11.278   6.941  0.8639 -0.7923  0.4039
32394SOL     OW 2311   5.787   0.558   3.786 -0.1589 -0.4902 -0.6456
32394SOL    HW1 2312   5.852   0.491   3.766  1.6949  0.7614  0.9242
32394SOL    HW2 2313   5.758   0.537   3.875  0.9835  1.1737  0.1432
32395SOL     OW 2314   9.721   0.460   8.148 -0.7867  0.6445 -0.0088
32395SOL    HW1 2315   9.749   0.525   8.212  0.1552  0.6206 -0.3747
32395SOL    HW2 2316   9.729   0.376   8.193 -1.4185  0.7355  0.2695
32396SOL     OW 2317  11.147   3.183   6.722 -0.0335 -0.5826 -0.0494
32396SOL    HW1 2318  11.140   3.225   6.636 -1.5602  0.1890  0.4340
32396SOL    HW2 2319  11.095   3.102   6.714  0.2785 -0.7845 -0.0237
32397SOL     OW 2320   2.834   5.964   5.618 -0.1490  0.4768 -0.2606
32397SOL    HW1 2321   2.924   5.983   5.591  0.5800  1.9452  3.0123
32397SOL    HW2 2322   2.841   5.944   5.711 -3.2105  0.5614  0.0152
32398SOL     OW 2323   7.888   3.482  11.241  0.6591 -0.2333  0.6316
32398SOL    HW1 2324   7.871   3.517  11.328 -0.8649  0.3308  0.1223
32398SOL    HW2 2325   7.801   3.464  11.205  1.3201 -1.9644 -0.1646
32399SOL     OW 2326   4.888   5.380   6.175 -0.1414 -0.1738 -0.2764
32399SOL    HW1 2327   4.942   5.402   6.099 -1.2534 -0.4029 -1.1425
32399SOL    HW2 2328   4.857   5.464   6.207 -1.1238 -0.1915 -1.1607
32400SOL     OW 2329   1.322   9.628   3.907 -0.5319 -0.3200 -0.2271
32400SOL    HW1 2330   1.229   9.647   3.924 -0.7483 -1.1363 -0.4948
32400SOL    HW2 2331   1.321   9.565   3.835  0.2802  0.6375 -1.0844
32401SOL     OW 2332   0.584   7.671   0.033 -0.1181 -0.8895 -0.0076
32401SOL    HW1 2333   0.677   7.691   0.022 -0.4082 -0.2455 -1.3912
32401SOL    HW2 2334   0.556   7.728   0.105  0.3285 -0.3691 -0.2433
32402SOL     OW 2335   3.028   3.051   7.607  0.4245 -0.7086 -0.2617
32402SOL    HW1 2336   2.990   2.981   7.660 -1.5338  0.4915 -0.0024
32402SOL    HW2 2337   3.090   3.094   7.666 -0.1741 -0.7066  0.3854
32403SOL     OW 2338   5.945   3.934   5.799  0.5300 -0.4237 -0.3173
32403SOL    HW1 2339   5.892   3.856   5.817 -1.2131  0.8122  0.0653
32403SOL    HW2 2340   5.982   3.958   5.884 -0.9573  0.5679  0.0907
32404SOL     OW 2341   7.126   6.056   8.512 -0.6369 -0.0266 -0.7635
32404SOL    HW1 2342   7.197   6.083   8.571 -1.0639  2.6736 -1.3973
32404SOL    HW2 2343   7.172   6.016   8.438  0.2833  1.5548 -1.0974
32405SOL     OW 2344   0.618  10.890   7.705 -0.5138  0.1125 -0.5683
32405SOL    HW1 2345   0.650  10.862   7.620  1.1633  1.3571 -0.3717
32405SOL    HW2 2346   0.583  10.978   7.691  3.1305  1.8369  0.7148
32406SOL     OW 2347   9.214   4.767   6.345 -0.6544  0.0910  0.0238
32406SOL    HW1 2348   9.230   4.679   6.378 -1.4265 -1.2734 -3.0209
32406SOL    HW2 2349   9.136   4.797   6.391 -0.4189 -0.8507  1.0402
32407SOL     OW 2350   9.096   8.495   8.255 -0.2003 -0.3781 -0.1455
32407SOL    HW1 2351   9.023   8.532   8.205 -0.8190 -0.2077  0.8752
32407SOL    HW2 2352   9.159   8.567   8.261  0.2288 -0.6338 -1.3335
32408SOL     OW 2353  10.089   8.891   7.616 -0.7560 -0.1757  0.1867
32408SOL    HW1 2354  10.157   8.951   7.584 -0.7927  0.2890  0.9792
32408SOL    HW2 2355  10.136   8.810   7.636 -0.0736  0.7953  2.6992
32409SOL     OW 2356   1.206   4.292   6.125  0.2856  0.4607  0.2553
32409SOL    HW1 2357   1.138   4.343   6.169 -0.9064 -1.0625  0.2095
32409SOL    HW2 2358   1.222   4.218   6.184  0.2798 -0.3979 -0.8059
32410SOL     OW 2359   6.346   7.351   0.987  0.4797  0.3534 -1.0366
32410SOL    HW1 2360   6.395   7.280   1.027  0.3438 -1.4389 -3.9426
32410SOL    HW2 2361   6.411   7.420   0.971  1.1085 -0.1304 -0.5445
32411SOL     OW 2362   1.901  11.182   0.648 -0.5899 -0.0671  0.0829
32411SOL    HW1 2363   1.833  11.118   0.629  0.9268 -1.7319  0.1250
32411SOL    HW2 2364   1.966  11.169   0.579  0.5322  0.2852  1.0653
32412SOL     OW 2365   0.543  11.150  10.741  0.6677  0.0339  0.5195
32412SOL    HW1 2366   0.544  11.231  10.791 -1.6850  0.5962 -0.2611
32412SOL    HW2 2367   0.604  11.165  10.668  2.0382  0.2064  1.6882
32413SOL     OW 2368   2.515   1.215   5.348  0.4065 -0.1816  0.0585
32413SOL    HW1 2369   2.579   1.160   5.393  2.5466  2.3620  0.2887
32413SOL    HW2 2370   2.432   1.198   5.392  1.5170 -1.3943  1.7152
32414SOL     OW 2371   0.898   4.309   2.763 -0.0164 -0.4097  0.2043
32414SOL    HW1 2372   0.965   4.252   2.801  1.5336  0.0909 -1.7349
32414SOL    HW2 2373   0.930   4.397   2.780 -0.6461 -0.1569  0.0687
32415SOL     OW 2374   2.863   3.596   0.761  0.1519  0.2706  0.2114
32415SOL    HW1 2375   2.899   3.528   0.817  0.2834 -1.6230 -2.0807
32415SOL    HW2 2376   2.938   3.628   0.711 -0.3086  0.5289 -0.3159
32416SOL     OW 2377   7.070   8.170   3.356  0.0058 -0.0954 -0.2100
32416SOL    HW1 2378   7.089   8.076   3.361  1.0546 -0.0922 -3.2074
32416SOL    HW2 2379   7.151   8.212   3.383 -0.6427 -0.0044  1.6907
32417SOL     OW 2380   7.126   5.252   0.827  0.2263 -0.5056  0.0033
32417SOL    HW1 2381   7.198   5.243   0.765 -0.9735 -0.6940 -1.3841
32417SOL    HW2 2382   7.153   5.322   0.886  1.4058 -0.3825 -0.6801
32418SOL     OW 2383   3.933   9.401  10.093  0.3376  0.2064 -0.4420
32418SOL    HW1 2384   3.981   9.336  10.143  0.9200  1.0455  0.1101
32418SOL    HW2 2385   3.999   9.466  10.069 -0.6360  1.7923  1.0154
32419SOL     OW 2386   9.462   2.781   5.081 -0.7047  0.2163 -0.1134
32419SOL    HW1 2387   9.511   2.818   5.007 -1.2854  1.5221  0.1390
32419SOL    HW2 2388   9.398   2.722   5.041  0.5698 -0.9419 -0.4917
32420SOL     OW 2389   8.513   4.422   5.666 -0.3416  0.4603  0.2018
32420SOL    HW1 2390   8.588   4.389   5.616 -0.5185 -0.4147  0.5029
32420SOL    HW2 2391   8.451   4.451   5.599 -0.2281  0.0759 -0.0722
32421SOL     OW 2392   2.251   3.205   2.133  0.1022  0.3302 -0.2801
32421SOL    HW1 2393   2.317   3.144   2.102  0.1421 -0.0606  0.5495
32421SOL    HW2 2394   2.301   3.273   2.178 -0.1361 -0.7292  1.6336
32422SOL     OW 2395   7.525   8.699   3.649 -0.0630 -0.1660  0.3559
32422SOL    HW1 2396   7.429   8.702   3.640 -0.1844 -0.8537  1.3007
32422SOL    HW2 2397   7.554   8.784   3.617 -0.9803 -0.0306 -0.1479
32423SOL     OW 2398   5.430   0.767   6.943 -0.2893 -0.1285  0.4004
32423SOL    HW1 2399   5.477   0.775   7.026  0.1671  0.4191  0.0904
32423SOL    HW2 2400   5.353   0.824   6.953  1.0584  1.8904 -0.4599
32424SOL     OW 2401   0.505   0.518   0.631  0.1335  0.2389 -0.0158
32424SOL    HW1 2402   0.467   0.478   0.709 -0.6026  0.5084 -0.2348
32424SOL    HW2 2403   0.600   0.510   0.644  0.0037 -0.9282  0.2776
32425SOL     OW 2404   6.656   5.995   6.188  0.7686 -0.5921 -0.2036
32425SOL    HW1 2405   6.656   5.939   6.111 -2.7593 -2.6738  1.1566
32425SOL    HW2 2406   6.676   5.935   6.261 -0.5999  0.3829  1.0028
32426SOL     OW 2407  10.974  10.082   1.979  0.4347  0.5079 -0.2927
32426SOL    HW1 2408  10.882  10.099   1.997  0.3999  0.1650 -0.1474
32426SOL    HW2 2409  10.973  10.008   1.918  0.6070  0.5933 -0.3985
32427SOL     OW 2410   8.937   7.131   0.050 -0.5149  0.0374  0.7859
32427SOL    HW1 2411   8.847   7.131   0.084 -0.9464  0.0210 -0.3493
32427SOL    HW2 2412   8.933   7.077  -0.029  0.1684  1.3385 -0.1475
32428SOL     OW 2413   8.930   6.507  10.307  0.4261  0.1527 -0.1789
32428SOL    HW1 2414   8.997   6.440  10.298 -0.3131 -0.6008 -0.1905
32428SOL    HW2 2415   8.920   6.543  10.218 -0.6631 -1.1998 -0.6308
32429SOL     OW 2416   9.036   0.730   4.009  0.0080 -0.0779 -0.6610
32429SOL    HW1 2417   8.991   0.769   4.083  1.6842 -0.5268  0.6311
32429SOL    HW2 2418   8.966   0.691   3.956 -1.0356 -2.3163  2.2059
32430SOL     OW 2419   5.300   3.358   6.120  0.7032  0.6153  0.0577
32430SOL    HW1 2420   5.389   3.390   6.105  0.8709  0.0718 -0.1522
32430SOL    HW2 2421   5.244   3.434   6.106  1.0646  0.7468 -0.7156
32431SOL     OW 2422   0.097   7.603   4.322 -0.1528 -0.0706 -0.1897
32431SOL    HW1 2423   0.056   7.517   4.335 -0.8380  0.3472  0.4708
32431SOL    HW2 2424   0.157   7.591   4.248  1.2756 -1.6480  1.1797
32432SOL     OW 2425   0.225   6.880   8.345 -0.3624 -0.0650  0.3158
32432SOL    HW1 2426   0.290   6.875   8.274 -0.5527 -1.4888  0.2378
32432SOL    HW2 2427   0.259   6.822   8.413 -0.4052  0.9561  1.2213
32433SOL     OW 2428   6.399   1.624   7.395  0.0140  0.0457 -0.4524
32433SOL    HW1 2429   6.418   1.714   7.369 -0.4576  0.4892  0.6862
32433SOL    HW2 2430   6.475   1.574   7.368  0.1971  0.7639 -1.2584
32434SOL     OW 2431   2.550   2.217   3.080 -0.5565 -0.2076 -0.3587
32434SOL    HW1 2432   2.532   2.149   3.145 -1.0339 -0.1520 -0.4271
32434SOL    HW2 2433   2.464   2.254   3.061 -0.2682  0.6017 -0.1172
32435SOL     OW 2434   6.992   3.375   8.794 -0.2964  0.7206  0.0188
32435SOL    HW1 2435   6.919   3.314   8.785 -0.3427  0.6462  0.8172
32435SOL    HW2 2436   7.064   3.335   8.746 -0.3614  0.0857  0.4385
32436SOL     OW 2437   5.347   4.520   9.310 -0.1069  0.1644  0.7390
32436SOL    HW1 2438   5.275   4.519   9.247 -0.1822 -0.4117  0.8316
32436SOL    HW2 2439   5.395   4.600   9.290 -0.2206  0.0636  0.0547
32437SOL     OW 2440   6.806   2.035   2.582  0.6390  0.3798 -0.5275
32437SOL    HW1 2441   6.845   2.083   2.655 -0.8564 -0.9988  1.2022
32437SOL    HW2 2442   6.853   1.951   2.581  0.3688  0.2304 -0.9195
32438SOL     OW 2443   9.686   9.292   0.600  0.1308 -0.0738 -0.3070
32438SOL    HW1 2444   9.710   9.383   0.586  1.1772 -0.3989 -0.7231
32438SOL    HW2 2445   9.675   9.284   0.695 -0.5979  0.6289 -0.3338
32439SOL     OW 2446   1.654   9.396  10.628  0.1852 -0.6211 -0.0477
32439SOL    HW1 2447   1.748   9.379  10.641  0.3015 -0.7977 -1.1231
32439SOL    HW2 2448   1.616   9.382  10.715  1.4274  1.3501  0.8756
32440SOL     OW 2449   1.492   8.667   5.431 -0.2651 -0.2031  0.1421
32440SOL    HW1 2450   1.471   8.760   5.441  0.6983  0.1386 -0.9041
32440SOL    HW2 2451   1.418   8.631   5.382  0.2293  0.4182 -1.0956
32441SOL     OW 2452   3.699   2.389   2.966  0.3707 -0.0287 -0.3024
32441SOL    HW1 2453   3.664   2.405   2.878  0.0287  0.3357 -0.1070
32441SOL    HW2 2454   3.783   2.346   2.952  0.9532  1.2527 -0.8446
32442SOL     OW 2455   9.146   7.795   9.009  0.3053  0.1573  0.1056
32442SOL    HW1 2456   9.137   7.699   9.009  0.3243  0.1370  2.1648
32442SOL    HW2 2457   9.220   7.811   8.950  0.4733 -1.1172 -0.0506
32443SOL     OW 2458   6.746   1.706   6.905 -0.5501 -0.0709  0.1754
32443SOL    HW1 2459   6.660   1.694   6.866 -0.9113 -1.3754  1.3334
32443SOL    HW2 2460   6.805   1.652   6.853 -0.6770 -0.2236  0.1889
32444SOL     OW 2461   3.024  10.501   5.270 -0.3551  0.0969 -0.5582
32444SOL    HW1 2462   2.967  10.425   5.261 -0.8157  0.5514 -1.5107
32444SOL    HW2 2463   3.112  10.466   5.259 -0.4611 -0.5431  0.5218
32445SOL     OW 2464   6.970   8.109   8.190  0.5438 -0.3027  0.1255
32445SOL    HW1 2465   6.996   8.201   8.192  1.6721 -0.5882 -0.6887
32445SOL    HW2 2466   7.045   8.062   8.224  0.1057 -0.9555  0.1975
32446SOL     OW 2467   4.974   6.026   4.087 -0.5502 -0.2610  0.2089
32446SOL    HW1 2468   5.061   5.991   4.103 -0.8700 -0.5646  1.4183
32446SOL    HW2 2469   4.918   5.977   4.148 -1.8984 -1.5239 -1.9912
32447SOL     OW 2470   6.530   5.709   7.963  0.4499 -0.8144 -0.5655
32447SOL    HW1 2471   6.557   5.693   7.872  0.1933 -2.1302 -0.4241
32447SOL    HW2 2472   6.437   5.729   7.956  0.7586  0.5689 -0.7387
32448SOL     OW 2473   5.755   2.305  11.287  0.7379 -0.3281  0.0011
32448SOL    HW1 2474   5.705   2.335  11.211  1.8541 -0.0280 -0.6244
32448SOL    HW2 2475   5.735   2.368  11.356  1.9324  1.0557 -0.8841
32449SOL     OW 2476   4.399   5.400   5.995 -0.3247  0.7657  0.0585
32449SOL    HW1 2477   4.419   5.322   5.943 -2.0708  0.7004 -0.5634
32449SOL    HW2 2478   4.311   5.383   6.031 -1.3120  3.0003 -1.1866
32450SOL     OW 2479   7.121   0.543   0.284 -0.0782 -0.1957  0.6201
32450SOL    HW1 2480   7.092   0.506   0.367 -0.1732  2.4521  1.7858
32450SOL    HW2 2481   7.078   0.628   0.279  2.2609  0.9412 -0.7539
32451SOL     OW 2482   9.939   5.401   2.920  0.3168 -0.0396  0.1736
32451SOL    HW1 2483   9.932   5.496   2.920 -1.0840 -0.1108 -1.9807
32451SOL    HW2 2484   9.924   5.376   3.011 -4.0447  1.5316 -0.0061
32452SOL     OW 2485   9.320   9.424   2.193  0.3388  0.3547  0.4377
32452SOL    HW1 2486   9.395   9.426   2.133  0.1717 -0.1194  0.2066
32452SOL    HW2 2487   9.247   9.396   2.138 -0.2703  2.0300  0.3876
32453SOL     OW 2488   4.185   5.494  10.119  0.2205 -0.4212 -0.6509
32453SOL    HW1 2489   4.115   5.525  10.176  1.1061 -0.6858  0.6005
32453SOL    HW2 2490   4.201   5.567  10.059  3.0613  2.1146  2.9741
32454SOL     OW 2491   0.005   4.100   6.383  0.5985  0.3553  0.2199
32454SOL    HW1 2492  -0.082   4.139   6.382  0.4813  0.1445  1.6647
32454SOL    HW2 2493   0.055   4.154   6.445  0.7893 -1.0034  1.2722
32455SOL     OW 2494   5.040   1.705   9.843 -0.9727  0.2600  0.1739
32455SOL    HW1 2495   5.079   1.636   9.789  0.5786  0.7424  0.6459
32455SOL    HW2 2496   5.078   1.692   9.930 -2.1307  0.5483  0.7346
32456SOL     OW 2497   6.999   0.676   3.266  0.2707  0.0401  0.2011
32456SOL    HW1 2498   7.051   0.644   3.192  0.7165 -0.4347  0.7094
32456SOL    HW2 2499   7.003   0.605   3.331 -1.1380 -0.0687  0.1957
32457SOL     OW 2500   1.860   4.350   6.350 -0.0390 -0.7610 -0.0850
32457SOL    HW1 2501   1.857   4.301   6.433  1.6392  0.1559  0.5312
32457SOL    HW2 2502   1.788   4.314   6.299 -0.3593 -2.1743  1.3195
32458SOL     OW 2503   7.985  10.076   9.706  0.2244  0.6307 -0.2430
32458SOL    HW1 2504   8.046  10.112   9.642 -0.4495  0.8182 -0.7823
32458SOL    HW2 2505   8.041  10.025   9.765  0.7293 -0.4941 -1.6473
32459SOL     OW 2506   7.708  11.307   4.146  0.2622 -0.0161  0.2369
32459SOL    HW1 2507   7.746  11.220   4.135  0.4303 -0.0975  1.4284
32459SOL    HW2 2508   7.783  11.365   4.162  0.1146  0.2845 -0.1285
32460SOL     OW 2509   1.741   7.282   4.914  0.0826  0.8962  0.0072
32460SOL    HW1 2510   1.829   7.263   4.881 -0.1258  0.1580 -0.1463
32460SOL    HW2 2511   1.700   7.333   4.844  0.5089  1.5464  0.2324
32461SOL     OW 2512   8.075   2.472   0.149 -0.1659 -0.3809 -0.1971
32461SOL    HW1 2513   8.057   2.426   0.230  0.4303 -1.2556 -0.5593
32461SOL    HW2 2514   8.138   2.540   0.173  0.9876 -1.4571 -0.1733
32462SOL     OW 2515   9.612   3.141   6.635  0.2183 -0.3448  0.2694
32462SOL    HW1 2516   9.516   3.135   6.630  0.2290  0.8069 -2.3103
32462SOL    HW2 2517   9.642   3.094   6.557  1.6515  1.3821 -0.2379
32463SOL     OW 2518   0.652   5.123   4.943 -0.3637  0.5264  0.1042
32463SOL    HW1 2519   0.747   5.134   4.937 -0.0525 -2.2008 -0.5251
32463SOL    HW2 2520   0.632   5.135   5.036  0.7703 -0.1639  0.4380
32464SOL     OW 2521   3.479   0.940   7.803 -0.3334  1.1008  0.2533
32464SOL    HW1 2522   3.568   0.923   7.771 -0.7254  0.7169 -0.6685
32464SOL    HW2 2523   3.471   1.035   7.802 -0.8970  1.0668 -2.4576
32465SOL     OW 2524   2.709   1.657   6.621  0.1605  0.0397  0.5367
32465SOL    HW1 2525   2.776   1.598   6.656  1.1887  1.5830  1.1929
32465SOL    HW2 2526   2.756   1.738   6.600 -1.2237  0.6164 -0.4301
32466SOL     OW 2527   8.665   4.776   9.647  0.2639 -0.4563 -0.0645
32466SOL    HW1 2528   8.637   4.818   9.565  2.1250  0.1610 -0.4095
32466SOL    HW2 2529   8.667   4.683   9.627 -0.6772 -0.4372 -0.2834
32467SOL     OW 2530   9.451   9.827   5.936  0.1187  0.2638  0.3455
32467SOL    HW1 2531   9.358   9.819   5.913  0.5020  1.4041 -1.7117
32467SOL    HW2 2532   9.484   9.738   5.935 -0.6950 -0.0430 -0.0357
32468SOL     OW 2533   7.786   9.310   4.904 -0.5720  0.5416  0.0036
32468SOL    HW1 2534   7.852   9.379   4.905 -0.2569  0.2335  2.7821
32468SOL    HW2 2535   7.825   9.240   4.850  1.7769  0.0032  2.3240
32469SOL     OW 2536   1.468   3.570   0.654  0.4875 -0.3539 -0.1520
32469SOL    HW1 2537   1.532   3.614   0.598 -0.2445 -0.5150 -1.1442
32469SOL    HW2 2538   1.386   3.578   0.606 -0.2239 -0.2007  1.0798
32470SOL     OW 2539   2.158   0.147   8.392 -0.3744  0.3244 -0.4588
32470SOL    HW1 2540   2.110   0.074   8.351 -0.1619 -1.3436  2.1954
32470SOL    HW2 2541   2.095   0.186   8.453  1.5027 -1.7903  2.9513
32471SOL     OW 2542   2.896  10.078   8.120  0.4006  0.1202 -0.4690
32471SOL    HW1 2543   2.864  10.157   8.078  1.6436 -0.3240 -2.3080
32471SOL    HW2 2544   2.874  10.008   8.059 -1.9640 -1.1708  1.7838
32472SOL     OW 2545   4.860   1.018   1.928  0.3334 -0.4248  0.2004
32472SOL    HW1 2546   4.942   1.011   1.879  0.5496  0.6394  0.3845
32472SOL    HW2 2547   4.884   0.999   2.018  0.7496  1.6059  0.5549
32473SOL     OW 2548  11.313   6.317   5.618 -0.5258 -0.1936 -0.1556
32473SOL    HW1 2549  11.403   6.296   5.641 -0.7959 -1.0677  0.1563
32473SOL    HW2 2550  11.267   6.320   5.702 -0.7364  0.4852 -0.2948
32474SOL     OW 2551   2.184   0.001   5.549 -0.2261 -0.5008 -0.1520
32474SOL    HW1 2552   2.177  -0.091   5.576 -2.0088 -0.0857  0.8894
32474SOL    HW2 2553   2.107   0.043   5.588 -0.7933  0.9383 -2.7034
32475SOL     OW 2554   1.346   2.593   1.679 -0.5221 -0.2251  0.2099
32475SOL    HW1 2555   1.425   2.607   1.731 -1.1205 -0.5916  1.2258
32475SOL    HW2 2556   1.310   2.680   1.665 -1.4895 -0.2752  2.2057
32476SOL     OW 2557  11.096   3.373   8.159  0.2839  0.1355  0.6507
32476SOL    HW1 2558  11.020   3.431   8.167  0.6211  0.6502  0.2241
32476SOL    HW2 2559  11.068   3.290   8.198 -0.3701  0.4376  0.8306
32477SOL     OW 2560   7.852   7.542  10.536 -0.5407  0.2871  0.6099
32477SOL    HW1 2561   7.822   7.603  10.603  0.9671  0.5665  1.0485
32477SOL    HW2 2562   7.931   7.503  10.573  0.5453  0.7549 -1.1814
32478SOL     OW 2563   8.776   2.701   6.468  0.1382 -0.2022  0.0831
32478SOL    HW1 2564   8.771   2.796   6.456  0.4575 -0.2511 -0.4468
32478SOL    HW2 2565   8.718   2.684   6.542 -0.6763  0.2903 -0.4237
32479SOL     OW 2566   6.016   8.546  10.322  0.3581  0.2802 -0.3764
32479SOL    HW1 2567   6.090   8.604  10.299 -0.8464  1.4303 -1.4390
32479SOL    HW2 2568   5.968   8.594  10.389 -0.1499  0.1112 -0.6204
32480SOL     OW 2569   7.648   6.674   8.449  0.2531 -0.0873 -0.5167
32480SOL    HW1 2570   7.587   6.729   8.399  0.3248 -0.5126 -1.0887
32480SOL    HW2 2571   7.668   6.601   8.390 -1.6775 -1.9833  1.1063
32481SOL     OW 2572  10.268   2.741  10.257  0.0797 -0.2061 -0.2256
32481SOL    HW1 2573  10.271   2.651  10.225 -0.3650 -0.3061  0.0248
32481SOL    HW2 2574  10.176   2.757  10.278 -0.0146  0.6267 -1.1972
32482SOL     OW 2575  10.502   7.830   3.344  0.1193  0.4634  0.3409
32482SOL    HW1 2576  10.492   7.903   3.405  0.3671  1.0495 -0.3148
32482SOL    HW2 2577  10.444   7.852   3.271  1.3157  0.7305 -0.5420
32483SOL     OW 2578   9.976   3.582   0.514  0.0490  0.5099 -0.1013
32483SOL    HW1 2579   9.919   3.658   0.527  0.9465  1.6715 -2.6281
32483SOL    HW2 2580   9.932   3.511   0.560 -0.3777  2.7263  3.0682
32484SOL     OW 2581   9.321   5.971   5.560 -0.2773  0.2823  0.0243
32484SOL    HW1 2582   9.239   5.962   5.511 -0.5269 -0.2675  0.5407
32484SOL    HW2 2583   9.387   5.933   5.502 -0.4370  0.3901 -0.2350
32485SOL     OW 2584   6.564   8.221   5.047  0.3144  0.0669  0.0328
32485SOL    HW1 2585   6.500   8.231   4.976  0.1051 -2.2534 -0.1591
32485SOL    HW2 2586   6.649   8.224   5.003  0.2369  0.4284 -0.0879
32486SOL     OW 2587  10.899   1.368   3.764  0.1030  0.6874 -0.5606
32486SOL    HW1 2588  10.981   1.330   3.794 -1.2556 -1.4680  0.5766
32486SOL    HW2 2589  10.891   1.340   3.672  0.0212 -0.2126 -0.2834
32487SOL     OW 2590   1.036   2.459   6.485 -0.3632 -0.3267  0.8971
32487SOL    HW1 2591   1.105   2.522   6.468 -1.6604  1.3598  1.6366
32487SOL    HW2 2592   0.956   2.512   6.488 -1.6991 -2.2194  0.0128
32488SOL     OW 2593   8.401   0.930   2.933 -0.1027 -0.4888  0.0559
32488SOL    HW1 2594   8.488   0.920   2.894 -1.1868 -0.2806 -2.5882
32488SOL    HW2 2595   8.410   0.897   3.022  3.1825  1.5432  0.5423
32489SOL     OW 2596   3.526   5.224   3.990 -0.3369 -0.1864  0.4134
32489SOL    HW1 2597   3.565   5.311   3.992  0.7878 -0.6677 -0.0195
32489SOL    HW2 2598   3.436   5.237   4.019 -0.3319  1.1954 -0.1717
32490SOL     OW 2599   0.015   6.579   9.802 -0.2064  0.4201  0.4817
32490SOL    HW1 2600  -0.074   6.575   9.837 -0.4120  1.5542  0.1104
32490SOL    HW2 2601   0.007   6.630   9.722  0.3309 -1.7459 -1.0048
32491SOL     OW 2602   6.311   4.356   5.907  0.5778 -0.4157  0.0990
32491SOL    HW1 2603   6.218   4.371   5.891  0.4297 -0.9643  0.4375
32491SOL    HW2 2604   6.335   4.285   5.846  1.1837  0.9063 -1.2261
32492SOL     OW 2605   4.330   3.712   4.573 -0.0359  0.0384  0.4810
32492SOL    HW1 2606   4.417   3.712   4.614 -0.7126  0.5180  1.9391
32492SOL    HW2 2607   4.279   3.651   4.625 -0.2909 -1.1023 -1.0488
32493SOL     OW 2608   4.451   3.054   5.770  0.2779  0.1912 -0.3246
32493SOL    HW1 2609   4.467   2.995   5.844  0.9550 -0.9213 -1.3354
32493SOL    HW2 2610   4.409   2.999   5.704 -3.5089  1.9518  0.4609
32494SOL     OW 2611   9.213   4.412   7.253  0.8699 -0.2030  0.1789
32494SOL    HW1 2612   9.127   4.438   7.286  0.7765 -1.1049  0.6558
32494SOL    HW2 2613   9.213   4.439   7.161  0.0597 -0.2335  0.1719
32495SOL     OW 2614  10.499   5.018   6.533 -0.3830 -0.2762 -0.2064
32495SOL    HW1 2615  10.435   5.086   6.512  1.9022  1.4374 -1.9144
32495SOL    HW2 2616  10.481   4.995   6.624 -0.9947  2.8646  0.5056
32496SOL     OW 2617   3.535   3.073   7.082 -0.0962 -0.4837 -0.5141
32496SOL    HW1 2618   3.542   3.107   6.993 -0.8023  0.5396 -0.1976
32496SOL    HW2 2619   3.462   3.011   7.078  1.6140 -2.5155 -1.2432
32497SOL     OW 2620   5.957   0.763   4.862  0.3370  0.2527  0.2709
32497SOL    HW1 2621   5.993   0.744   4.948  0.2779  0.4645  0.3402
32497SOL    HW2 2622   5.865   0.738   4.868  0.5988 -0.8666 -0.0881
32498SOL     OW 2623   9.276   6.864   7.753  0.4670  0.1426 -0.2197
32498SOL    HW1 2624   9.365   6.888   7.778  0.4011 -0.4395  0.6319
32498SOL    HW2 2625   9.257   6.914   7.674  1.8016 -0.2554 -0.7981
32499SOL     OW 2626   7.837   2.095   1.282  0.4833 -0.0400 -0.1918
32499SOL    HW1 2627   7.744   2.117   1.276  0.4810 -0.6938 -3.1434
32499SOL    HW2 2628   7.874   2.164   1.336 -1.1907  1.9507 -1.5196
32500SOL     OW 2629   0.111   4.032   8.688 -0.9197 -0.1261  0.4966
32500SOL    HW1 2630   0.095   3.951   8.640  2.0637 -0.0819 -0.6658
32500SOL    HW2 2631   0.184   4.012   8.747  1.2251  2.2042 -1.2351
32501SOL     OW 2632   3.968   4.554   3.189 -0.0831  0.5768 -0.7270
32501SOL    HW1 2633   3.954   4.498   3.266 -0.2990 -0.1025 -1.2557
32501SOL    HW2 2634   3.925   4.508   3.118 -1.0125  1.8653 -1.0024
32502SOL     OW 2635   0.358   9.097   0.196 -0.2645 -0.3082  0.1069
32502SOL    HW1 2636   0.403   9.181   0.200 -1.2876  0.1943  1.1680
32502SOL    HW2 2637   0.428   9.032   0.207  0.3507  0.4361  0.6372
32503SOL     OW 2638   8.949   3.236   7.190 -0.0403 -0.0135  0.4354
32503SOL    HW1 2639   8.939   3.298   7.262 -0.4714  2.9332 -2.0721
32503SOL    HW2 2640   8.860   3.224   7.156  0.3478 -0.3502 -0.4646
32504SOL     OW 2641   7.105   7.511   3.131  0.0102  0.3120  0.0068
32504SOL    HW1 2642   7.165   7.438   3.117 -0.0200  0.3017 -0.0745
32504SOL    HW2 2643   7.156   7.589   3.111  0.4673  0.4031  1.4896
32505SOL     OW 2644   0.805  10.525   2.680  0.0214 -0.0543  0.3797
32505SOL    HW1 2645   0.832  10.615   2.700  0.3097  0.0821 -0.6156
32505SOL    HW2 2646   0.727  10.536   2.625  1.0087 -0.3859 -1.1100
32506SOL     OW 2647   2.250  10.691   4.294  0.1467  0.0451 -0.6018
32506SOL    HW1 2648   2.332  10.708   4.248  1.1975 -0.9407  0.8519
32506SOL    HW2 2649   2.205  10.626   4.240 -0.0472  1.1568 -1.8063
32507SOL     OW 2650   8.339   1.805   5.915  0.1604 -0.1756  0.0259
32507SOL    HW1 2651   8.336   1.881   5.974  0.8133 -1.2242  1.4230
32507SOL    HW2 2652   8.271   1.747   5.948  1.2071 -1.2169  0.3712
32508SOL     OW 2653   7.292   5.291   8.524  0.5432  0.1602 -0.1727
32508SOL    HW1 2654   7.372   5.342   8.523  1.0211 -0.5653  0.1846
32508SOL    HW2 2655   7.319   5.205   8.557 -0.7549  0.5284  1.8838
32509SOL     OW 2656  10.147  11.059   7.179  0.0580  0.3382  0.0210
32509SOL    HW1 2657  10.184  10.974   7.157 -0.1916 -0.3100  2.0611
32509SOL    HW2 2658  10.053  11.044   7.184  0.0021  0.7588  0.2729
32510SOL     OW 2659   6.371   0.903   4.608  0.6943  0.0706  0.8080
32510SOL    HW1 2660   6.355   0.942   4.522  0.7749 -1.1046  0.2451
32510SOL    HW2 2661   6.426   0.966   4.653  0.5774  0.7397  0.0318
32511SOL     OW 2662   7.756   6.105   1.685  0.2944 -0.2173 -0.4532
32511SOL    HW1 2663   7.688   6.043   1.658 -1.0825  0.6335  0.9789
32511SOL    HW2 2664   7.740   6.183   1.633  0.2232 -0.0337 -0.1547
32512SOL     OW 2665   9.448  10.380   0.976  0.1803 -0.1673  0.1043
32512SOL    HW1 2666   9.509  10.381   1.050  0.1815  0.1546  0.1011
32512SOL    HW2 2667   9.367  10.415   1.012  0.5244  1.1132 -0.3377
32513SOL     OW 2668   0.870   7.361   2.523 -0.1334 -0.5879  0.7019
32513SOL    HW1 2669   0.883   7.436   2.464 -3.1418 -0.5071  0.0474
32513SOL    HW2 2670   0.958   7.326   2.537  1.1859  2.1999 -0.1194
32514SOL     OW 2671   0.242   6.894   2.940 -0.6631  0.3360  0.0973
32514SOL    HW1 2672   0.280   6.812   2.972 -1.3572 -0.8137 -1.9052
32514SOL    HW2 2673   0.164   6.906   2.995 -2.0994 -1.8474 -1.3660
32515SOL     OW 2674   5.135  10.438   1.398 -0.6071 -0.6794 -0.2979
32515SOL    HW1 2675   5.092  10.354   1.385 -1.0639 -0.3349 -1.0886
32515SOL    HW2 2676   5.099  10.494   1.329 -0.7717  0.3319  0.5901
32516SOL     OW 2677   8.626   5.636   6.970  0.6350 -0.2146 -0.1300
32516SOL    HW1 2678   8.640   5.651   6.877  2.2658 -1.5255 -0.1302
32516SOL    HW2 2679   8.672   5.709   7.013 -0.7448  0.8002 -0.3529
32517SOL     OW 2680   5.982  10.038   3.388  0.3521 -0.3734 -0.4689
32517SOL    HW1 2681   5.893  10.002   3.386 -0.1584  0.9250 -1.7127
32517SOL    HW2 2682   6.016  10.012   3.473 -0.8875 -1.6882 -0.3502
32518SOL     OW 2683   1.183   2.659   7.108  0.3216 -0.6036  0.8135
32518SOL    HW1 2684   1.091   2.681   7.101  0.8661  1.8133  1.0820
32518SOL    HW2 2685   1.183   2.568   7.139 -1.9377 -0.7131  0.5980
32519SOL     OW 2686   0.817   3.881   9.334 -0.2555  0.5764  0.2124
32519SOL    HW1 2687   0.731   3.889   9.291 -0.4768 -1.3831  0.2436
32519SOL    HW2 2688   0.880   3.884   9.261 -0.3151  2.2569  0.2090
32520SOL     OW 2689   0.829   3.547   2.293  0.0066 -0.4372  0.1818
32520SOL    HW1 2690   0.754   3.603   2.315 -0.6715 -0.8722 -1.0046
32520SOL    HW2 2691   0.791   3.459   2.286  1.0794 -1.0730  2.1118
32521SOL     OW 2692   0.715   9.588   7.060  0.2105 -0.7059  0.4665
32521SOL    HW1 2693   0.656   9.551   7.126  0.3931  0.4745  1.3103
32521SOL    HW2 2694   0.802   9.578   7.097  0.2951  0.1862  0.5276
32522SOL     OW 2695   6.383  10.460   3.807  0.5940  0.3671  0.3306
32522SOL    HW1 2696   6.412  10.381   3.852 -0.6375 -0.0648  0.4010
32522SOL    HW2 2697   6.410  10.446   3.716 -0.1090 -0.3941  0.2319
32523SOL     OW 2698   5.760   7.143   9.464  0.0232  0.1311  0.5047
32523SOL    HW1 2699   5.727   7.059   9.432  1.7970 -1.2213  2.1150
32523SOL    HW2 2700   5.699   7.167   9.533  0.0976 -0.3448  0.7394
32524SOL     OW 2701   9.475   0.452   8.003 -0.0045 -0.1667 -0.4637
32524SOL    HW1 2702   9.553   0.455   8.058 -0.3665 -1.8309  0.1608
32524SOL    HW2 2703   9.500   0.501   7.924  1.6546 -0.6484 -0.2554
32525SOL     OW 2704   1.716   4.059   9.214  0.8057 -0.3420  0.2602
32525SOL    HW1 2705   1.760   4.002   9.276  0.2901 -1.6120 -0.5228
32525SOL    HW2 2706   1.737   4.023   9.128  0.6574  0.7801 -0.2676
32526SOL     OW 2707   8.061   9.392  10.670 -0.1046  0.3121 -0.2013
32526SOL    HW1 2708   8.136   9.452  10.664 -0.1952  0.4463  0.0289
32526SOL    HW2 2709   8.099   9.310  10.702 -0.1148  0.4906  0.2734
32527SOL     OW 2710   5.748   0.566   1.368  0.4250 -0.2174 -0.2079
32527SOL    HW1 2711   5.656   0.553   1.343  0.0075  1.5524  0.3838
32527SOL    HW2 2712   5.748   0.558   1.463  0.6686  1.0270 -0.1007
32528SOL     OW 2713   4.097   4.106   9.323 -0.1251 -0.4008  0.0832
32528SOL    HW1 2714   4.009   4.143   9.333 -0.0375 -0.3988  0.8263
32528SOL    HW2 2715   4.106   4.043   9.393  1.4615  1.5371  1.7017
32529SOL     OW 2716   7.856   5.114   8.585 -0.3614 -0.1847  0.3074
32529SOL    HW1 2717   7.867   5.199   8.627  1.0354  1.2932 -2.8554
32529SOL    HW2 2718   7.932   5.062   8.614 -0.0655  0.3888  0.5603
32530SOL     OW 2719   9.829   0.915  10.574  0.1591 -0.1664 -0.3753
32530SOL    HW1 2720   9.799   0.981  10.511 -0.2164  0.0057 -0.0119
32530SOL    HW2 2721   9.784   0.937  10.655 -0.0273 -0.9131 -0.2735
32531SOL     OW 2722   1.257   6.904   8.440  0.0768 -0.0298 -0.5422
32531SOL    HW1 2723   1.322   6.965   8.473  1.1070 -1.1741 -0.4265
32531SOL    HW2 2724   1.307   6.826   8.416 -1.0478 -0.3181 -1.9920
32532SOL     OW 2725  10.298   8.861  10.011  0.1017 -0.3264 -0.6043
32532SOL    HW1 2726  10.310   8.916   9.934 -2.1155 -1.4068 -1.7518
32532SOL    HW2 2727  10.353   8.784   9.994 -0.4186 -0.5837 -1.1276
32533SOL     OW 2728  10.537   5.125   3.073  0.2319 -0.1455  0.1110
32533SOL    HW1 2729  10.602   5.166   3.017 -2.1444  1.6179 -1.4550
32533SOL    HW2 2730  10.565   5.033   3.080  2.4632  0.4176 -1.0611
32534SOL     OW 2731   8.271   0.279   5.414 -0.4992 -0.1097  0.1350
32534SOL    HW1 2732   8.177   0.290   5.431 -0.9802 -1.5527 -1.4355
32534SOL    HW2 2733   8.287   0.331   5.336 -0.0079  0.0421  0.3370
32535SOL     OW 2734   9.654   1.821   0.128  0.3895 -0.2601  0.2805
32535SOL    HW1 2735   9.583   1.885   0.119 -0.0755 -0.5372  1.9325
32535SOL    HW2 2736   9.713   1.859   0.193  0.8042 -0.8890  0.2774
32536SOL     OW 2737   2.013   9.559   3.729 -0.1321  0.2542  0.1587
32536SOL    HW1 2738   2.062   9.555   3.812  1.9650  3.0057 -0.8469
32536SOL    HW2 2739   2.055   9.493   3.674 -1.6632 -1.7267  1.3040
32537SOL     OW 2740   4.548   1.847   8.459 -0.1452 -0.7762 -0.1320
32537SOL    HW1 2741   4.534   1.752   8.463  1.6380 -0.9756  1.6436
32537SOL    HW2 2742   4.459   1.883   8.461 -0.9041 -2.4046 -1.8852
32538SOL     OW 2743   8.864   0.525   9.092  0.1715 -0.0285 -0.9285
32538SOL    HW1 2744   8.853   0.467   9.168  3.1643  0.5316  0.0135
32538SOL    HW2 2745   8.824   0.608   9.119  2.4316  0.6034  0.6408
32539SOL     OW 2746   0.006   8.077   6.237 -0.2083 -0.3279 -0.1715
32539SOL    HW1 2747   0.007   8.100   6.330  1.3153 -1.8550  0.2050
32539SOL    HW2 2748  -0.085   8.089   6.211 -0.4433  1.1861  1.2407
32540SOL     OW 2749   0.722   5.439   9.146 -0.1657 -0.1576 -0.1852
32540SOL    HW1 2750   0.795   5.445   9.086  0.6769 -1.8330  0.6408
32540SOL    HW2 2751   0.658   5.382   9.102  0.3539 -1.1978  0.3834
32541SOL     OW 2752   8.269  10.547   0.778 -0.0887 -0.2662 -0.5371
32541SOL    HW1 2753   8.318  10.597   0.844  0.9253 -0.5476 -1.0618
32541SOL    HW2 2754   8.253  10.462   0.819 -1.7820  0.4673  0.3426
32542SOL     OW 2755   7.437   3.526   2.664 -0.2753  0.3799 -0.4544
32542SOL    HW1 2756   7.386   3.577   2.726 -1.8751 -1.9957  0.2499
32542SOL    HW2 2757   7.481   3.459   2.717 -1.3790 -1.4458 -1.7920
32543SOL     OW 2758   0.286   0.383   7.741 -0.8627  0.7617  0.2815
32543SOL    HW1 2759   0.324   0.297   7.724 -1.0754  0.7215  0.0055
32543SOL    HW2 2760   0.195   0.376   7.710 -0.8614  1.1044  0.1944
32544SOL     OW 2761   0.866   0.548   9.565  0.1003 -0.4691 -0.0076
32544SOL    HW1 2762   0.873   0.476   9.629 -2.5186 -2.2713 -1.6224
32544SOL    HW2 2763   0.937   0.532   9.503 -0.0004 -1.2392  0.0665
32545SOL     OW 2764  10.517   0.628   0.984 -0.7877 -0.0215 -0.4139
32545SOL    HW1 2765  10.519   0.679   1.066  0.0153 -1.2355  0.3353
32545SOL    HW2 2766  10.607   0.599   0.972 -0.7614  0.6893 -2.0987
32546SOL     OW 2767  11.302   4.228   7.345  0.4202  0.2981  0.0385
32546SOL    HW1 2768  11.353   4.183   7.412 -0.9142 -1.6931 -0.2525
32546SOL    HW2 2769  11.330   4.189   7.262 -1.5471 -0.8337 -0.1257
32547SOL     OW 2770   8.142   1.265   1.499 -0.1620 -0.2129  0.0991
32547SOL    HW1 2771   8.171   1.266   1.590 -0.5765 -0.2933  0.2310
32547SOL    HW2 2772   8.080   1.192   1.494  1.0071 -1.1908 -0.5960
32548SOL     OW 2773   2.853   3.107   4.940  0.4472  0.0952  0.0996
32548SOL    HW1 2774   2.907   3.035   4.973  1.6524  0.7268 -0.4409
32548SOL    HW2 2775   2.894   3.131   4.857  0.7407  2.1186  0.7847
32549SOL     OW 2776   7.005   4.876   9.674  0.1640 -0.2986 -0.5280
32549SOL    HW1 2777   6.933   4.877   9.611  1.3964 -0.6463 -1.9478
32549SOL    HW2 2778   7.031   4.968   9.682  0.4554 -0.3365 -1.0425
32550SOL     OW 2779  10.780   6.473   3.250 -0.2914  0.0762 -0.1093
32550SOL    HW1 2780  10.763   6.430   3.334 -0.0304 -1.2181 -0.7099
32550SOL    HW2 2781  10.705   6.532   3.238 -1.6298 -1.6229 -0.1939
32551SOL     OW 2782   4.703   2.874   1.074  0.1139  0.6214  0.0402
32551SOL    HW1 2783   4.657   2.792   1.058 -1.8331  1.3121  1.9094
32551SOL    HW2 2784   4.720   2.875   1.168  4.6084  0.1100 -0.6397
32552SOL     OW 2785   1.282   9.235   6.129 -0.2059  0.4360  0.0939
32552SOL    HW1 2786   1.301   9.282   6.048  2.4982 -1.4752 -0.4260
32552SOL    HW2 2787   1.293   9.301   6.198 -2.1758  1.9735 -1.0128
32553SOL     OW 2788   2.547   4.726  11.045  0.4022 -0.0963 -0.3933
32553SOL    HW1 2789   2.581   4.671  11.116  2.0525 -1.2459 -2.0557
32553SOL    HW2 2790   2.617   4.788  11.027  0.4222 -0.5229 -1.7853
32554SOL     OW 2791   8.435   6.975   5.432  0.5460  0.4761  0.6345
32554SOL    HW1 2792   8.372   6.908   5.404  0.6480  0.9619 -0.8525
32554SOL    HW2 2793   8.521   6.936   5.416  0.6083  0.6260  0.5982
32555SOL     OW 2794   8.169   8.753  11.280 -0.5538  0.3127  0.2371
32555SOL    HW1 2795   8.212   8.679  11.324  0.4822  1.5595  1.3823
32555SOL    HW2 2796   8.085   8.762  11.325 -1.2921 -1.0655 -0.8647
32556SOL     OW 2797   6.633   0.795   3.350 -0.5194  0.2943  0.3653
32556SOL    HW1 2798   6.682   0.876   3.368 -0.9074  0.0189  2.7725
32556SOL    HW2 2799   6.541   0.820   3.360 -0.7874  0.2571 -1.8740
32557SOL     OW 2800   9.223  10.672   9.763 -0.1524 -0.2480  0.3816
32557SOL    HW1 2801   9.230  10.580   9.738 -1.2090  0.2547 -1.8833
32557SOL    HW2 2802   9.305  10.711   9.731  0.5404 -0.4813  1.8230
32558SOL     OW 2803   7.868   9.469   7.964  0.1273 -0.0041 -0.4606
32558SOL    HW1 2804   7.778   9.451   7.939  0.2507  0.4743 -1.2586
32558SOL    HW2 2805   7.919   9.452   7.885  0.6502  0.3755 -0.2093
32559SOL     OW 2806   4.793   1.508  10.365  0.1012  0.6252 -0.0063
32559SOL    HW1 2807   4.704   1.475  10.380  0.5151  0.4919  2.4189
32559SOL    HW2 2808   4.827   1.524  10.453  2.4464  0.7929 -0.9212
32560SOL     OW 2809   0.825   4.540   5.951 -0.0419 -0.0053 -0.3822
32560SOL    HW1 2810   0.872   4.470   5.997 -1.7071 -1.4627 -0.8555
32560SOL    HW2 2811   0.734   4.529   5.977 -0.7263  0.3432 -2.5359
32561SOL     OW 2812   0.917  10.420   5.449  0.5733 -0.0056  0.1392
32561SOL    HW1 2813   1.010  10.416   5.471  0.7018 -2.1087 -0.6498
32561SOL    HW2 2814   0.908  10.365   5.371 -1.5005 -0.7515  0.8620
32562SOL     OW 2815  10.594   5.505   0.254  0.3810 -0.2590 -0.1485
32562SOL    HW1 2816  10.556   5.500   0.342 -0.0078  0.1184 -0.2918
32562SOL    HW2 2817  10.546   5.576   0.211  2.5006  1.4218  0.2498
32563SOL     OW 2818  10.788  11.079   9.935  0.5592 -0.2200 -0.2705
32563SOL    HW1 2819  10.789  11.133  10.013  0.5245 -1.3554  0.5312
32563SOL    HW2 2820  10.843  11.126   9.872 -1.1450  1.7889 -0.3146
32564SOL     OW 2821  10.396  10.354   5.516 -0.2082  0.0305  0.2987
32564SOL    HW1 2822  10.302  10.345   5.503 -0.2362  2.3275 -1.3897
32564SOL    HW2 2823  10.435  10.303   5.445 -0.2304  1.6859 -0.9202
32565SOL     OW 2824   7.108   2.240   1.368  0.5250 -0.0017 -0.3947
32565SOL    HW1 2825   7.135   2.246   1.460  0.9233 -1.4022 -0.4111
32565SOL    HW2 2826   7.015   2.263   1.370  0.3594 -0.7028  0.4644
32566SOL     OW 2827  10.673   0.840   6.983  0.4843 -0.1109  0.3085
32566SOL    HW1 2828  10.760   0.801   6.987 -0.1070 -1.6631 -1.4452
32566SOL    HW2 2829  10.652   0.843   6.889 -0.8053  1.4964  0.6188
32567SOL     OW 2830   0.292   6.945   6.207  0.1069  0.2603 -0.1232
32567SOL    HW1 2831   0.259   7.031   6.184 -0.9929  0.5748  2.4924
32567SOL    HW2 2832   0.314   6.951   6.300  2.6256 -1.4783 -0.5355
32568SOL     OW 2833   5.072   8.645   9.037 -0.0998  0.7795 -0.4125
32568SOL    HW1 2834   5.014   8.718   9.058 -2.3971 -1.0722 -0.1385
32568SOL    HW2 2835   5.068   8.639   8.941  1.8301  2.3543 -0.6293
32569SOL     OW 2836   8.276   7.053   2.893 -0.0139 -1.0512  0.4414
32569SOL    HW1 2837   8.322   7.137   2.899 -0.2971 -0.8353 -0.3807
32569SOL    HW2 2838   8.188   7.071   2.926  0.0226 -1.0996  0.5640
32570SOL     OW 2839   3.618   0.878   8.174 -0.0271  0.5361  0.5935
32570SOL    HW1 2840   3.614   0.794   8.219  0.7139  0.6333  0.8437
32570SOL    HW2 2841   3.621   0.856   8.081 -1.1393  0.3244  0.5982
32571SOL     OW 2842   6.634   0.182   1.996  0.0461 -0.4876 -0.5777
32571SOL    HW1 2843   6.652   0.194   2.089  2.2517 -0.7121 -0.9508
32571SOL    HW2 2844   6.547   0.143   1.993 -0.5878  0.7263  1.3229
32572SOL     OW 2845   5.581   4.369   9.373  0.1107 -0.5513  0.2683
32572SOL    HW1 2846   5.502   4.415   9.347  2.1385  1.9754 -1.7010
32572SOL    HW2 2847   5.583   4.290   9.318 -0.1587  0.2590 -0.9116
32573SOL     OW 2848  10.975   7.763   3.394  0.4934 -0.1577  0.3175
32573SOL    HW1 2849  10.948   7.682   3.351 -0.3289 -0.9011  2.1957
32573SOL    HW2 2850  11.027   7.734   3.469 -0.1132  1.0291  1.2103
32574SOL     OW 2851   1.005   9.376   2.798 -0.1371  0.3016 -0.0458
32574SOL    HW1 2852   0.928   9.395   2.744 -0.1225  1.1168  0.2157
32574SOL    HW2 2853   1.006   9.446   2.864  0.5424  0.0087  0.2584
32575SOL     OW 2854   3.950   2.535   8.758  0.1227 -0.3247  0.1447
32575SOL    HW1 2855   3.892   2.558   8.684  0.1264  1.1630  0.5796
32575SOL    HW2 2856   4.038   2.540   8.721  0.0717 -0.5940 -0.0115
32576SOL     OW 2857   0.512   7.626   1.004  0.1229 -0.5446 -0.3481
32576SOL    HW1 2858   0.602   7.627   1.037 -0.5182 -0.7797  1.4574
32576SOL    HW2 2859   0.462   7.581   1.071 -1.4875  0.2104 -0.9993
32577SOL     OW 2860   2.864   2.913   4.694 -0.5593 -0.0722  0.2226
32577SOL    HW1 2861   2.922   2.897   4.769 -0.2755 -0.1377 -0.0096
32577SOL    HW2 2862   2.836   3.004   4.705  1.4800  0.7380 -0.9400
32578SOL     OW 2863   4.877   9.754   4.659  0.1468 -0.0978  0.6538
32578SOL    HW1 2864   4.872   9.659   4.650 -1.6517  0.1061 -0.7088
32578SOL    HW2 2865   4.930   9.782   4.584 -0.5421  0.1022  0.2422
32579SOL     OW 2866  10.591   6.435   1.472 -0.2298  0.0746 -0.2958
32579SOL    HW1 2867  10.554   6.506   1.420  0.5495 -1.5242 -3.1057
32579SOL    HW2 2868  10.523   6.415   1.537 -1.0474  2.3613 -0.4067
32580SOL     OW 2869   5.561   8.259   5.029  0.2863 -0.0580 -0.0662
32580SOL    HW1 2870   5.560   8.167   5.002 -1.7073 -0.3769  1.0323
32580SOL    HW2 2871   5.582   8.307   4.949  1.0400 -1.4390 -0.7153
32581SOL     OW 2872   7.377   4.873   1.384 -0.0162  0.1017 -0.4766
32581SOL    HW1 2873   7.425   4.864   1.467  0.4978 -0.3453 -0.8213
32581SOL    HW2 2874   7.285   4.865   1.409  0.0344  1.7580  0.3067
32582SOL     OW 2875   7.607   5.489  10.568  0.5057  0.3158  0.0362
32582SOL    HW1 2876   7.558   5.546  10.626 -0.8982 -2.0309  1.2499
32582SOL    HW2 2877   7.616   5.539  10.486 -2.0421  1.6398  0.5207
32583SOL     OW 2878   6.107   1.490   3.219  0.3246 -0.0267 -0.1490
32583SOL    HW1 2879   6.112   1.563   3.281  0.3966  1.7165 -2.1290
32583SOL    HW2 2880   6.014   1.480   3.201  0.4142  0.5687 -0.9844
32584SOL     OW 2881   2.191   0.314   1.009 -0.2169  0.2100  0.1234
32584SOL    HW1 2882   2.136   0.370   0.954 -1.5873 -0.8668  0.3558
32584SOL    HW2 2883   2.276   0.312   0.965 -0.6689  1.0779 -0.7961
32585SOL     OW 2884   6.035   6.626   9.659 -0.1942 -0.0170 -0.3417
32585SOL    HW1 2885   6.039   6.706   9.711 -0.5031  0.1836 -0.6202
32585SOL    HW2 2886   6.035   6.657   9.568 -0.9662 -0.2958 -0.4437
32586SOL     OW 2887   1.412   5.302   1.997  0.5008 -0.0482 -0.0817
32586SOL    HW1 2888   1.400   5.321   2.090 -1.8945  2.2922 -0.7913
32586SOL    HW2 2889   1.361   5.222   1.982  0.7730 -0.3488  0.5832
32587SOL     OW 2890   1.225  10.288   2.593 -0.2884 -0.0222  0.2660
32587SOL    HW1 2891   1.217  10.193   2.586 -0.1077 -0.0388  0.2659
32587SOL    HW2 2892   1.316  10.303   2.620 -0.2779  0.1546  0.1395
32588SOL     OW 2893  11.293   4.142  10.972  0.4075 -0.4569 -0.0359
32588SOL    HW1 2894  11.283   4.080  10.899  0.4979  0.5923 -0.9543
32588SOL    HW2 2895  11.311   4.226  10.930 -1.7249  0.6225  1.1244
32589SOL     OW 2896   3.008   6.834   1.510  0.3832  0.9142  0.0227
32589SOL    HW1 2897   3.037   6.869   1.594  1.6934  1.3400 -0.5968
32589SOL    HW2 2898   3.060   6.754   1.499 -0.6211  0.2388  0.1522
32590SOL     OW 2899   2.426   6.966   5.404  0.7017  0.5285 -0.2517
32590SOL    HW1 2900   2.456   6.971   5.494 -0.9995 -0.9581  0.4317
32590SOL    HW2 2901   2.383   7.050   5.389  1.6853  1.0917  0.0442
32591SOL     OW 2902   9.476   9.552   5.686  0.1106  0.7035  0.0805
32591SOL    HW1 2903   9.389   9.578   5.714  0.2167  1.3119 -0.1400
32591SOL    HW2 2904   9.496   9.474   5.737 -1.8329 -1.3214 -2.1097
32592SOL     OW 2905   9.574   4.441  11.248  0.2065 -0.1817 -0.1998
32592SOL    HW1 2906   9.636   4.374  11.277 -2.7713 -2.4327  1.2366
32592SOL    HW2 2907   9.589   4.515  11.307  2.0822 -0.3652 -0.4216
32593SOL     OW 2908   6.264   3.105   1.661  0.0533 -0.0212 -0.2787
32593SOL    HW1 2909   6.323   3.161   1.611  0.3318  0.6180  0.7546
32593SOL    HW2 2910   6.282   3.017   1.629  0.6645  0.3084 -0.8655
32594SOL     OW 2911   7.108   6.356   2.469 -0.2456 -0.1069 -0.1243
32594SOL    HW1 2912   7.178   6.350   2.535 -0.1127  0.1704 -0.2388
32594SOL    HW2 2913   7.152   6.337   2.387 -0.1363  0.8478 -0.2986
32595SOL     OW 2914   4.912   2.325   1.254 -0.5047 -0.5649 -0.4540
32595SOL    HW1 2915   5.002   2.293   1.267 -0.1372  0.2372 -1.0033
32595SOL    HW2 2916   4.873   2.261   1.193 -0.4881 -1.2166  0.2068
32596SOL     OW 2917   3.351   1.997   3.451  0.1302  0.1303 -0.0848
32596SOL    HW1 2918   3.340   1.970   3.360  0.1692 -0.6692  0.1425
32596SOL    HW2 2919   3.386   2.085   3.446 -1.6664  0.8233 -0.8391
32597SOL     OW 2920   6.740   2.367   1.158  0.3684 -0.0647 -0.0427
32597SOL    HW1 2921   6.812   2.341   1.100 -1.0578 -2.4867 -0.7919
32597SOL    HW2 2922   6.748   2.307   1.233  0.3368  1.0140  0.8359
32598SOL     OW 2923  10.347   0.204   3.266  0.8505 -0.0822  0.1309
32598SOL    HW1 2924  10.436   0.188   3.235  0.8080  0.0494 -0.0655
32598SOL    HW2 2925  10.292   0.148   3.211  0.7960 -0.0183  0.1195
32599SOL     OW 2926  10.642   7.134   2.661  0.0290  0.2859  0.3858
32599SOL    HW1 2927  10.679   7.222   2.651  1.2035 -0.3244 -0.7560
32599SOL    HW2 2928  10.706   7.087   2.714 -0.1178 -0.1862  0.1430
32600SOL     OW 2929   8.790   0.660   7.320 -0.0682 -0.1726 -0.2973
32600SOL    HW1 2930   8.842   0.597   7.369 -0.1782 -0.8301 -1.0122
32600SOL    HW2 2931   8.815   0.646   7.229 -0.8977  0.0639 -0.5645
32601SOL     OW 2932  10.881   5.204   5.341 -0.2175 -0.1157 -0.5832
32601SOL    HW1 2933  10.796   5.234   5.310 -0.4039 -1.4021 -1.3520
32601SOL    HW2 2934  10.864   5.158   5.423 -0.0742  0.8879  0.0147
32602SOL     OW 2935   5.944   1.459   3.609  0.2860 -0.6060 -0.0548
32602SOL    HW1 2936   5.866   1.506   3.640  0.7695 -0.2194  0.5874
32602SOL    HW2 2937   5.926   1.440   3.517 -0.4408 -0.2551  0.0129
32603SOL     OW 2938   8.058   5.415   4.742 -0.2070 -0.3299 -0.1604
32603SOL    HW1 2939   8.139   5.379   4.705 -0.9089 -1.9897 -0.1233
32603SOL    HW2 2940   8.001   5.428   4.666 -0.0785  0.3600 -0.1350
32604SOL     OW 2941   7.346   5.202   1.474  0.0910 -0.0320  0.1796
32604SOL    HW1 2942   7.330   5.170   1.385 -1.5295  0.0347  0.4386
32604SOL    HW2 2943   7.424   5.257   1.466  2.0146 -2.7598 -0.5580
32605SOL     OW 2944   0.566  10.130   8.802 -0.5110 -0.1932  0.4914
32605SOL    HW1 2945   0.484  10.169   8.771 -0.5339  2.2398  3.3078
32605SOL    HW2 2946   0.633  10.195   8.780  0.0719 -0.3963  1.6330
32606SOL     OW 2947   4.218   6.847  11.135  0.2599 -0.3954 -0.3322
32606SOL    HW1 2948   4.139   6.799  11.159  0.5761  0.0309  1.6342
32606SOL    HW2 2949   4.284   6.780  11.118  0.6713 -0.7254  2.3066
32607SOL     OW 2950   5.435   1.259   0.404  0.0359  0.3140  0.2480
32607SOL    HW1 2951   5.513   1.294   0.360 -1.4554  0.7794 -2.1416
32607SOL    HW2 2952   5.386   1.216   0.334 -2.0563  0.3973  1.6239
32608SOL     OW 2953   7.659   5.432   1.041 -0.3043  0.1804  0.3447
32608SOL    HW1 2954   7.700   5.513   1.010  1.6327 -0.6448  0.6683
32608SOL    HW2 2955   7.647   5.380   0.962 -1.6187  0.7832  0.1264
32609SOL     OW 2956   0.956   7.408  10.807 -0.0122  0.1177  0.0773
32609SOL    HW1 2957   1.002   7.383  10.726 -0.3296 -0.1477 -0.0230
32609SOL    HW2 2958   0.995   7.492  10.832  1.8069 -0.9443  0.9712
32610SOL     OW 2959   5.624   6.009   6.569  0.0179 -0.5782  0.1140
32610SOL    HW1 2960   5.543   5.987   6.615  0.0128  0.9440  0.8617
32610SOL    HW2 2961   5.685   6.033   6.638 -0.1171  2.1550 -0.6666
32611SOL     OW 2962   5.757   7.673  10.459  0.0829 -0.2707  0.0270
32611SOL    HW1 2963   5.728   7.584  10.481 -0.9161  0.2632  0.9577
32611SOL    HW2 2964   5.687   7.707  10.402  0.7513 -0.2852 -0.8083
32612SOL     OW 2965   6.773   3.789   2.069  0.1187 -0.1856  0.4225
32612SOL    HW1 2966   6.848   3.803   2.012 -0.2549  0.4498  0.0809
32612SOL    HW2 2967   6.699   3.828   2.022 -0.5500 -1.3860  0.4553
32613SOL     OW 2968  10.278   2.892   4.318  0.6533 -0.3413 -0.2003
32613SOL    HW1 2969  10.261   2.835   4.243 -0.3802 -0.6792  0.2832
32613SOL    HW2 2970  10.352   2.851   4.364  2.4225  0.7704 -1.9417
32614SOL     OW 2971   1.398   9.745   4.483  0.7758 -0.2620 -0.5439
32614SOL    HW1 2972   1.333   9.677   4.464  0.7313  0.0579 -1.5685
32614SOL    HW2 2973   1.359   9.797   4.553  0.5738 -0.9609 -0.1292
32615SOL     OW 2974   9.257   4.265   2.713  0.4898  0.2254 -0.3693
32615SOL    HW1 2975   9.177   4.216   2.731  0.1008  0.7025 -0.7704
32615SOL    HW2 2976   9.253   4.341   2.771  0.7077  0.1914 -0.3078
32616SOL     OW 2977   0.446   3.955   5.516 -0.3946 -0.7545 -1.1903
32616SOL    HW1 2978   0.387   4.016   5.471 -0.0769 -1.0367 -1.9924
32616SOL    HW2 2979   0.472   3.893   5.449  3.6071  1.4022 -1.7654
32617SOL     OW 2980   7.209   1.335   5.509  0.2829  0.2778 -0.0817
32617SOL    HW1 2981   7.121   1.301   5.526  0.1374  0.6996  0.0078
32617SOL    HW2 2982   7.217   1.331   5.413  0.1394  0.3020 -0.0952
32618SOL     OW 2983   1.708   6.904  10.014 -0.1275 -0.0451 -0.0782
32618SOL    HW1 2984   1.703   6.836   9.947  1.8017  0.0040 -0.2862
32618SOL    HW2 2985   1.725   6.985   9.966 -0.4649  0.2726  0.3324
32619SOL     OW 2986   7.539  10.398   3.278  0.0833 -0.3532 -0.7709
32619SOL    HW1 2987   7.556  10.348   3.358  0.0387  1.2874  0.2807
32619SOL    HW2 2988   7.595  10.358   3.212  1.5640 -0.5064  0.5551
32620SOL     OW 2989   9.040   5.143   8.074 -0.2718 -0.0725  0.2247
32620SOL    HW1 2990   8.955   5.147   8.031  0.2252 -0.6243 -0.8060
32620SOL    HW2 2991   9.053   5.231   8.111 -1.4155 -0.0746  0.6512
32621SOL     OW 2992   8.370   1.321   9.246  0.1428 -0.4740 -0.7073
32621SOL    HW1 2993   8.346   1.413   9.235 -1.0110 -0.7699 -0.6880
32621SOL    HW2 2994   8.327   1.276   9.173  1.5423 -0.8550 -1.3127
32622SOL     OW 2995  10.336   6.077   1.433 -0.1389  0.2467 -0.1474
32622SOL    HW1 2996  10.247   6.043   1.420 -0.0852  0.4029 -0.9545
32622SOL    HW2 2997  10.377   6.013   1.492 -0.6790 -0.0103 -0.0452
32623SOL     OW 2998   8.330  10.535   6.894  0.5286  0.1681  0.0095
32623SOL    HW1 2999   8.317  10.593   6.969 -0.2828 -1.2739  0.9968
32623SOL    HW2 3000   8.243  10.501   6.874  1.0429 -0.9339 -0.3900
32624SOL     OW 3001   2.758   5.173   5.100  0.0324  0.6956  0.0350
32624SOL    HW1 3002   2.709   5.145   5.177  1.9151 -3.7508 -0.2377
32624SOL    HW2 3003   2.848   5.146   5.117  1.1744  2.8695 -2.2104
32625SOL     OW 3004   3.981   1.240   7.645  0.2355 -0.2479 -0.1788
32625SOL    HW1 3005   3.909   1.232   7.583  1.3092  0.3442 -1.5313
32625SOL    HW2 3006   4.031   1.317   7.615  2.6324 -1.8889 -0.5628
32626SOL     OW 3007   4.997   7.132   0.901  0.5944 -0.5254 -0.5099
32626SOL    HW1 3008   5.033   7.063   0.958 -0.7363 -1.1101 -0.3536
32626SOL    HW2 3009   4.995   7.092   0.814 -1.1199 -1.0688 -0.2465
32627SOL     OW 3010  10.901  10.433   4.937  0.2074 -0.1557 -0.2772
32627SOL    HW1 3011  10.818  10.476   4.917  0.3680 -1.1266 -3.3181
32627SOL    HW2 3012  10.909  10.366   4.870  1.6092 -2.6793  2.3124
32628SOL     OW 3013   5.460   5.592   6.227  0.1820 -0.5559  0.2451
32628SOL    HW1 3014   5.556   5.587   6.224  0.1384 -0.8530 -1.0573
32628SOL    HW2 3015   5.436   5.552   6.311  1.3297  1.8849  1.7795
32629SOL     OW 3016   1.016   4.934   1.150 -0.5886 -0.1112 -0.4257
32629SOL    HW1 3017   0.990   5.011   1.200  1.3119 -0.6697  1.5303
32629SOL    HW2 3018   1.095   4.961   1.103  1.4906 -1.4707  2.1400
32630SOL     OW 3019   0.178   7.365   2.660 -0.8649 -0.1494 -0.3433
32630SOL    HW1 3020   0.185   7.338   2.751  0.9449  0.3360 -0.3329
32630SOL    HW2 3021   0.104   7.426   2.658 -2.0725 -1.5334  0.4444
32631SOL     OW 3022   1.625   1.224   8.628 -0.4275  0.3570  0.5406
32631SOL    HW1 3023   1.645   1.149   8.684  2.5026 -0.3932 -1.4059
32631SOL    HW2 3024   1.669   1.298   8.671  0.3473  0.1147  0.1697
32632SOL     OW 3025   3.563  10.085   2.007 -0.5797  0.3006  0.1840
32632SOL    HW1 3026   3.654  10.088   2.037 -0.9754  2.0096  1.3414
32632SOL    HW2 3027   3.558  10.155   1.942 -1.7959  2.4450  2.4682
32633SOL     OW 3028   4.523   2.663   6.822  0.0497  0.0332  0.9385
32633SOL    HW1 3029   4.444   2.617   6.851  0.3281  0.9853  3.3198
32633SOL    HW2 3030   4.503   2.692   6.734 -1.2635 -2.0268  0.5240
32634SOL     OW 3031   0.034   7.354   7.833  0.0674  0.2401  0.5011
32634SOL    HW1 3032  -0.004   7.300   7.764 -1.3193  1.4562  0.2866
32634SOL    HW2 3033   0.106   7.302   7.867  0.6296 -0.4823 -1.7054
32635SOL     OW 3034   2.677   6.004   4.983  0.5414 -0.1329  0.1370
32635SOL    HW1 3035   2.605   5.982   4.923 -0.0359  0.1488  0.7218
32635SOL    HW2 3036   2.697   5.921   5.027 -1.2148  0.3418  1.8884
32636SOL     OW 3037   2.103   4.761  10.843  0.0461  0.0401 -0.6806
32636SOL    HW1 3038   2.106   4.697  10.914 -1.2473  1.7745  1.0015
32636SOL    HW2 3039   2.185   4.810  10.853 -0.6365  1.0107  0.3691
32637SOL     OW 3040   2.726  10.227   0.960  0.7287 -0.2370 -0.0853
32637SOL    HW1 3041   2.736  10.140   0.921  1.2912 -0.1537 -0.1297
32637SOL    HW2 3042   2.772  10.285   0.900 -1.6053  0.4281 -1.2764
32638SOL     OW 3043  11.076   0.260  11.333 -0.0527 -0.2791 -0.2782
32638SOL    HW1 3044  11.126   0.332  11.295  0.0027 -0.6081 -0.8397
32638SOL    HW2 3045  11.112   0.248  11.420  0.8000 -0.4676 -0.6556
32639SOL     OW 3046   9.190   0.819   9.128 -0.3294 -0.1127 -0.4473
32639SOL    HW1 3047   9.249   0.830   9.054  0.8619 -0.1604  0.4787
32639SOL    HW2 3048   9.103   0.828   9.091  0.2987  2.9969 -1.3428
32640SOL     OW 3049   1.711  11.233   1.210  0.0445  0.4971  0.5224
32640SOL    HW1 3050   1.776  11.215   1.277  0.7763 -1.8588 -0.7743
32640SOL    HW2 3051   1.654  11.157   1.210 -1.0965  1.3379 -0.2167
32641SOL     OW 3052   8.060   5.660   2.109 -0.1054  0.0793  0.7395
32641SOL    HW1 3053   8.032   5.631   2.196  0.4247 -1.4977  0.4094
32641SOL    HW2 3054   8.084   5.579   2.064  2.4564  1.1475  0.1198
32642SOL     OW 3055  10.559   4.633   6.741  0.0945 -0.0709  0.3742
32642SOL    HW1 3056  10.648   4.654   6.712 -0.0577 -0.3309 -0.2686
32642SOL    HW2 3057  10.505   4.639   6.662 -0.0654 -2.2352  0.2935
32643SOL     OW 3058   4.829   3.475  10.920 -0.0573  0.1110  0.1295
32643SOL    HW1 3059   4.923   3.487  10.932  0.3872 -2.1375 -0.9687
32643SOL    HW2 3060   4.820   3.385  10.890 -2.4636  0.6862 -0.9376
32644SOL     OW 3061  10.987   2.755   9.376  0.1406 -0.2320 -0.1691
32644SOL    HW1 3062  11.034   2.717   9.450  1.4178 -1.2522 -1.4756
32644SOL    HW2 3063  10.929   2.820   9.416  0.8595 -0.6973  1.7104
32645SOL     OW 3064   5.958   2.366   1.613  0.2436  0.0767 -0.8044
32645SOL    HW1 3065   6.025   2.355   1.546  0.8953  1.3218 -0.3834
32645SOL    HW2 3066   6.007   2.379   1.694 -0.5115  0.2299 -0.3650
32646SOL     OW 3067   4.353   9.076   8.946  0.1615 -0.3131  0.5252
32646SOL    HW1 3068   4.402   9.087   8.865 -0.1957  0.9927  0.4634
32646SOL    HW2 3069   4.413   9.104   9.015  0.3994 -1.2381  0.6956
32647SOL     OW 3070   3.177   8.958   8.069 -0.0805  0.8626  0.5190
32647SOL    HW1 3071   3.171   8.924   7.980 -0.3700 -1.5198  1.4017
32647SOL    HW2 3072   3.260   8.923   8.102 -0.3558  1.0698  1.4473
32648SOL     OW 3073   5.871   5.164   3.547  0.3063  0.8357 -0.7565
32648SOL    HW1 3074   5.941   5.224   3.521  0.9411 -0.1598 -1.3532
32648SOL    HW2 3075   5.894   5.081   3.506 -1.4104  0.5902 -1.2796
32649SOL     OW 3076   9.744   0.407   2.584  0.3337 -0.0543 -0.1495
32649SOL    HW1 3077   9.811   0.339   2.586  0.3811 -0.0112 -0.3285
32649SOL    HW2 3078   9.705   0.404   2.672  0.0955 -0.5531 -0.2710
32650SOL     OW 3079   9.005   9.505   3.284 -0.4672  0.5026 -0.0501
32650SOL    HW1 3080   8.926   9.458   3.311  2.5578 -3.0062  3.2617
32650SOL    HW2 3081   9.055   9.441   3.234  1.3099  1.9715 -0.1843
32651SOL     OW 3082   5.467   5.012   1.748 -0.4765  0.1855  0.4305
32651SOL    HW1 3083   5.438   4.937   1.800  1.5097 -0.8949  0.0635
32651SOL    HW2 3084   5.414   5.085   1.778 -0.0224 -0.6233  3.3279
32652SOL     OW 3085   5.018   4.273   4.651 -0.8179 -0.4155 -0.2763
32652SOL    HW1 3086   5.082   4.201   4.655  0.0323  0.3894  1.4352
32652SOL    HW2 3087   4.959   4.248   4.581  0.8007 -1.6813 -1.2457
32653SOL     OW 3088   2.078   2.401   3.166 -0.1353  0.1210  0.1821
32653SOL    HW1 3089   2.156   2.414   3.219  0.9443 -0.3196 -1.2623
32653SOL    HW2 3090   2.072   2.480   3.113 -0.0170 -0.3207 -0.5039
32654SOL     OW 3091   7.872   4.065   2.193  0.0685  0.3168 -0.1436
32654SOL    HW1 3092   7.885   3.972   2.214 -1.3410 -0.5120 -2.7643
32654SOL    HW2 3093   7.956   4.106   2.215  0.5731 -1.4847  1.4358
32655SOL     OW 3094   3.405   1.284   7.192 -0.7750  0.0770 -0.3622
32655SOL    HW1 3095   3.317   1.323   7.200 -1.7664 -2.0790 -0.4643
32655SOL    HW2 3096   3.432   1.266   7.281 -0.6930  0.1686 -0.3678
32656SOL     OW 3097   9.794   8.158   0.243 -0.2285 -0.1575 -0.1525
32656SOL    HW1 3098   9.735   8.091   0.278 -0.6660  0.8389  1.0791
32656SOL    HW2 3099   9.847   8.184   0.318  0.3788  0.4188 -0.7762
32657SOL     OW 3100   9.056   4.160   5.151 -0.3644 -0.1514  0.2118
32657SOL    HW1 3101   8.969   4.197   5.136 -0.8078 -1.6631 -1.1357
32657SOL    HW2 3102   9.074   4.178   5.243 -2.0590  0.2870  0.4872
32658SOL     OW 3103   3.120   3.796   6.670 -0.7895  0.1412  0.5204
32658SOL    HW1 3104   3.052   3.835   6.615 -0.0537  0.7067  0.0171
32658SOL    HW2 3105   3.147   3.866   6.729 -2.0869 -0.6650  2.1058
32659SOL     OW 3106   2.366   4.336   9.424 -0.0056  0.3340  0.0039
32659SOL    HW1 3107   2.290   4.319   9.479 -1.0684 -0.5735 -1.7183
32659SOL    HW2 3108   2.331   4.344   9.336  1.9159 -0.3271 -0.8554
32660SOL     OW 3109   3.386   7.433   8.252  0.1296  0.5424 -0.1444
32660SOL    HW1 3110   3.390   7.393   8.165 -0.3951 -0.7819  0.4189
32660SOL    HW2 3111   3.477   7.437   8.281  0.2597  0.4894 -0.5431
32661SOL     OW 3112   1.184   0.694   0.198 -0.1548  0.4645 -0.1716
32661SOL    HW1 3113   1.176   0.610   0.153 -0.8477  0.4993 -0.1272
32661SOL    HW2 3114   1.258   0.682   0.257  0.8659  0.4826 -1.4345
32662SOL     OW 3115   7.463   7.965   3.865 -0.2390 -0.2288  0.3300
32662SOL    HW1 3116   7.407   7.928   3.796 -0.0922 -1.4784  0.8574
32662SOL    HW2 3117   7.482   7.890   3.922  0.8925  0.4662  0.8793
32663SOL     OW 3118   9.856   5.219   8.965  0.5165 -0.5248  0.0884
32663SOL    HW1 3119   9.821   5.266   8.889 -0.3323 -0.4846  0.4891
32663SOL    HW2 3120   9.797   5.244   9.037 -0.2680 -2.6026  0.1957
32664SOL     OW 3121   9.883  10.089   1.288 -0.2308  0.4984  0.1874
32664SOL    HW1 3122   9.974  10.071   1.309 -0.0434  0.7965 -0.3803
32664SOL    HW2 3123   9.849  10.006   1.254 -0.5903 -0.0518  1.8039
32665SOL     OW 3124   7.957   4.008   0.356  0.3077  0.6087 -0.3513
32665SOL    HW1 3125   7.964   3.975   0.446 -0.8047 -0.7413 -0.7523
32665SOL    HW2 3126   8.002   3.942   0.303 -0.5109  0.5514 -0.9779
32666SOL     OW 3127   0.132   6.507   1.288 -0.0515 -0.3975  0.7422
32666SOL    HW1 3128   0.118   6.592   1.245  0.8941 -1.0049 -0.8381
32666SOL    HW2 3129   0.107   6.521   1.379 -0.6617  1.3645  0.3213
32667SOL     OW 3130   7.821   6.100   3.297  0.3434 -0.1492  0.2140
32667SOL    HW1 3131   7.803   6.187   3.332  1.1442 -0.7056  2.0996
32667SOL    HW2 3132   7.818   6.043   3.374  3.1712 -1.2615 -0.4248
32668SOL     OW 3133   1.415   5.091   2.309  0.0442  0.0565 -0.2962
32668SOL    HW1 3134   1.382   5.175   2.277  0.5929  0.2909 -0.2365
32668SOL    HW2 3135   1.423   5.037   2.230 -2.1974 -0.5995 -0.1185
32669SOL     OW 3136   5.630   3.870   7.806  0.2749 -0.6348 -0.2119
32669SOL    HW1 3137   5.582   3.944   7.844  1.7179 -0.3088  0.9965
32669SOL    HW2 3138   5.600   3.794   7.856  1.5076 -0.3338  0.9925
32670SOL     OW 3139   9.596  10.122   3.788 -0.1422  0.2723 -0.4330
32670SOL    HW1 3140   9.512  10.090   3.821 -0.5218  1.7423  0.0900
32670SOL    HW2 3141   9.573  10.179   3.714  0.3903  0.7024 -0.2702
32671SOL     OW 3142   5.977   2.665   7.963  0.3076  0.3808 -0.7506
32671SOL    HW1 3143   6.042   2.602   7.994  0.2504  1.4947  1.7536
32671SOL    HW2 3144   6.026   2.747   7.956  0.5438  0.0034 -4.6035
32672SOL     OW 3145   9.558   3.058   4.971 -0.0289  0.7557 -0.8086
32672SOL    HW1 3146   9.475   3.102   4.955 -0.9175 -0.4782  0.3274
32672SOL    HW2 3147   9.557   2.981   4.914 -0.7323 -0.5591  0.9346
32673SOL     OW 3148   1.485  10.248   3.482 -0.2368  0.2883 -0.5866
32673SOL    HW1 3149   1.495  10.335   3.521  0.1374 -0.4978  1.1130
32673SOL    HW2 3150   1.392  10.242   3.461 -0.6415  0.3677  1.1031
32674SOL     OW 3151   2.060   0.590   2.864 -0.3512 -0.2494  0.8994
32674SOL    HW1 3152   2.013   0.672   2.852 -1.2275 -0.5640  2.1090
32674SOL    HW2 3153   2.010   0.526   2.813 -1.5390 -0.6795  2.5578
32675SOL     OW 3154  11.283   6.257   9.663 -0.2304  0.1802  0.0068
32675SOL    HW1 3155  11.284   6.178   9.717  1.0665  0.1911  0.0156
32675SOL    HW2 3156  11.281   6.329   9.726  0.3948  0.1793  0.0294
32676SOL     OW 3157   1.447   3.858   8.590  0.2495 -0.1155 -0.7652
32676SOL    HW1 3158   1.386   3.930   8.606 -0.5173 -0.9016 -0.0809
32676SOL    HW2 3159   1.486   3.841   8.676 -0.2855 -1.1464 -0.7175
32677SOL     OW 3160   2.072   2.999   6.630 -0.1546  0.2673  0.3044
32677SOL    HW1 3161   2.057   3.003   6.536 -0.2048 -1.6381  0.2094
32677SOL    HW2 3162   2.126   3.075   6.650  1.9586 -0.6779 -1.6723
32678SOL     OW 3163   7.494  10.951   7.294  0.6592  0.0031 -0.7357
32678SOL    HW1 3164   7.555  11.024   7.309 -0.8496  0.8787  1.3160
32678SOL    HW2 3165   7.527  10.880   7.349  0.2142  0.2647 -0.1241
32679SOL     OW 3166   5.929   5.966  10.287 -0.3398 -0.5590  0.0582
32679SOL    HW1 3167   5.984   5.985  10.363 -1.1766  0.7285  0.3525
32679SOL    HW2 3168   5.925   5.871  10.283  2.3390 -0.6969 -0.2721
32680SOL     OW 3169   8.125  10.498   7.418 -0.0674 -0.3194  0.2118
32680SOL    HW1 3170   8.125  10.583   7.463  0.1383 -0.2059 -0.0004
32680SOL    HW2 3171   8.215  10.486   7.389 -0.5183  0.3470 -1.5448
32681SOL     OW 3172   5.620   0.087   7.775  0.3546 -0.3606 -0.1465
32681SOL    HW1 3173   5.685   0.053   7.714  2.0361  0.3977  1.1600
32681SOL    HW2 3174   5.672   0.133   7.841 -1.7414  4.1645 -1.4422
32682SOL     OW 3175   6.667   3.612   0.318 -0.1409  0.0694 -0.2181
32682SOL    HW1 3176   6.675   3.516   0.318  2.6465  0.2473  1.1101
32682SOL    HW2 3177   6.641   3.633   0.408 -0.5779  0.5653 -0.4631
32683SOL     OW 3178  10.475   1.491   3.150  0.0192  0.0698 -0.1427
32683SOL    HW1 3179  10.429   1.456   3.227  0.3714 -1.1743 -0.4826
32683SOL    HW2 3180  10.558   1.523   3.185  1.0418 -2.3110 -0.2571
32684SOL     OW 3181   3.699   1.799   5.303  0.7505 -0.5343 -0.0264
32684SOL    HW1 3182   3.632   1.866   5.293 -0.6046 -2.0949 -2.0421
32684SOL    HW2 3183   3.690   1.768   5.393 -1.0026 -0.4650 -0.1733
32685SOL     OW 3184  10.893   8.623   3.981  0.2427 -0.6749 -0.1414
32685SOL    HW1 3185  10.966   8.648   3.924  1.1399 -1.8393  0.4915
32685SOL    HW2 3186  10.815   8.653   3.934  1.2128  2.3417  0.0783
32686SOL     OW 3187   5.738   8.645  10.366 -0.2268  0.4226  0.2708
32686SOL    HW1 3188   5.662   8.700  10.384 -0.9375 -0.3889 -0.2320
32686SOL    HW2 3189   5.787   8.691  10.298 -1.6094 -0.2813 -1.2326
32687SOL     OW 3190   6.972   3.108   0.727  0.3538  0.1300  0.3633
32687SOL    HW1 3191   6.973   3.060   0.810 -1.9261 -1.7924 -0.6975
32687SOL    HW2 3192   7.040   3.066   0.674  0.4543  0.0756  0.5330
32688SOL     OW 3193   6.690   9.868   5.492  0.9131  0.6726  0.2209
32688SOL    HW1 3194   6.717   9.823   5.572  2.9124  0.7560 -0.3613
32688SOL    HW2 3195   6.618   9.925   5.518  0.4059 -0.6005  1.5933
32689SOL     OW 3196   2.075   1.155   9.266 -0.2351 -0.1007 -0.2246
32689SOL    HW1 3197   2.052   1.157   9.359 -0.5388 -1.0383 -0.2735
32689SOL    HW2 3198   2.171   1.157   9.265 -0.2487  1.2904  0.0560
32690SOL     OW 3199   8.090   3.402   1.470 -0.0445  0.1588 -0.1605
32690SOL    HW1 3200   8.056   3.425   1.557  2.4703  0.3878  0.7931
32690SOL    HW2 3201   8.061   3.312   1.456 -3.3993  1.2220 -0.6096
32691SOL     OW 3202   5.316   3.009   1.064 -0.3223  0.1891  0.6522
32691SOL    HW1 3203   5.287   2.971   1.147  1.6639 -0.9296  0.8728
32691SOL    HW2 3204   5.270   2.958   0.997 -2.3754  1.4756  1.0468
32692SOL     OW 3205   3.749  10.179   4.187 -0.3295 -0.1264  0.0945
32692SOL    HW1 3206   3.682  10.218   4.130 -0.4738  0.5328  0.7057
32692SOL    HW2 3207   3.703  10.112   4.236 -0.6540  0.6530  0.8618
32693SOL     OW 3208   1.827   9.713  11.322 -0.4234  0.5778  0.8415
32693SOL    HW1 3209   1.815   9.766  11.400 -2.1243  1.5430 -0.0433
32693SOL    HW2 3210   1.747   9.726  11.271  0.0950 -1.0558 -0.4546
32694SOL     OW 3211   7.262   0.823   0.665  0.4371  0.3621 -0.0368
32694SOL    HW1 3212   7.255   0.854   0.575 -0.7054 -1.4811 -0.6208
32694SOL    HW2 3213   7.221   0.891   0.718  1.0819  1.4380 -0.9118
32695SOL     OW 3214  10.991   1.619   1.006 -0.4146  0.2340  0.3655
32695SOL    HW1 3215  11.054   1.615   0.933  0.9191 -0.3447  1.5098
32695SOL    HW2 3216  10.937   1.541   0.995 -1.5518  1.2108 -1.1497
32696SOL     OW 3217   0.979   6.134   2.281 -0.0767  0.0039 -0.3823
32696SOL    HW1 3218   1.016   6.089   2.357 -2.3546 -0.7672  0.3178
32696SOL    HW2 3219   0.976   6.066   2.213  0.3328  0.2290 -0.6282
32697SOL     OW 3220   2.342   5.857   2.441  0.1067  0.0842 -0.6389
32697SOL    HW1 3221   2.318   5.767   2.420  2.6716 -0.8849  0.3589
32697SOL    HW2 3222   2.369   5.895   2.357 -0.0911 -0.3798 -0.9120
32698SOL     OW 3223   3.918   2.209  10.105 -0.1744 -0.0319  0.3355
32698SOL    HW1 3224   3.956   2.231  10.190 -0.3246 -1.8937  0.9111
32698SOL    HW2 3225   3.841   2.155  10.126 -0.6065  0.0536 -0.9602
32699SOL     OW 3226   4.520   4.285   4.761 -0.6506 -0.2322 -0.4592
32699SOL    HW1 3227   4.542   4.242   4.679 -0.2527 -0.1478 -0.3973
32699SOL    HW2 3228   4.582   4.358   4.768  0.3684 -1.1929  0.6936
32700SOL     OW 3229  10.234   8.158   1.059  0.4298 -0.6818  0.0687
32700SOL    HW1 3230  10.237   8.148   1.154  0.4038  1.4477  0.3373
32700SOL    HW2 3231  10.321   8.193   1.036  0.6702 -1.8218 -0.7780
32701SOL     OW 3232   0.680  10.858   3.755  0.3406 -0.0137 -0.8634
32701SOL    HW1 3233   0.588  10.838   3.775  1.0757 -0.6270  2.2275
32701SOL    HW2 3234   0.677  10.942   3.710 -1.7678 -0.2875 -1.2930
32702SOL     OW 3235   7.671   9.815   3.275  0.4156 -0.1374  0.1663
32702SOL    HW1 3236   7.619   9.799   3.197  1.7964 -0.4884 -0.7016
32702SOL    HW2 3237   7.697   9.728   3.306  2.3026  0.1035 -0.6788
32703SOL     OW 3238   1.562   6.986   8.750  0.0904 -0.2218  0.0253
32703SOL    HW1 3239   1.468   6.971   8.761  0.1239 -0.1906  0.3565
32703SOL    HW2 3240   1.604   6.925   8.812  0.2469  0.7074  0.8468
32704SOL     OW 3241   9.240  11.246   9.465  0.0325 -0.3746 -0.1310
32704SOL    HW1 3242   9.320  11.297   9.453  0.4534 -0.9155  0.2954
32704SOL    HW2 3243   9.261  11.187   9.538 -0.2950 -1.4192 -0.8627
32705SOL     OW 3244   8.970   8.453   8.811 -0.3308  1.2031  0.2671
32705SOL    HW1 3245   9.056   8.458   8.769 -0.3503 -0.1759  0.0210
32705SOL    HW2 3246   8.986   8.407   8.894 -1.2349 -1.6515 -1.0629
32706SOL     OW 3247   7.734   9.125   4.152 -0.0713  0.0871  0.0681
32706SOL    HW1 3248   7.680   9.202   4.171 -0.9651 -0.6776  0.6688
32706SOL    HW2 3249   7.752   9.086   4.238 -1.4060 -1.5657 -0.3709
32707SOL     OW 3250   7.253   3.045   9.009  0.3045  0.5368 -0.1295
32707SOL    HW1 3251   7.274   3.024   8.918  0.9746 -1.4544  0.4675
32707SOL    HW2 3252   7.316   3.113   9.034 -0.6832  2.0014 -1.5097
32708SOL     OW 3253   0.685   7.201   8.244 -0.2275 -0.5043  0.4326
32708SOL    HW1 3254   0.755   7.148   8.206  1.2332  1.7341 -0.1418
32708SOL    HW2 3255   0.656   7.151   8.320  2.5159 -1.1670  1.1161
32709SOL     OW 3256   9.070   4.034   7.080 -0.3816 -0.5714  0.2361
32709SOL    HW1 3257   9.061   4.129   7.075 -1.5757 -0.5870  1.7592
32709SOL    HW2 3258   9.146   4.014   7.024  1.1813  1.5006  1.5370
32710SOL     OW 3259   4.011   6.305   7.471  0.3109 -0.3650 -0.0968
32710SOL    HW1 3260   4.050   6.222   7.499 -0.6095 -0.6165  0.4436
32710SOL    HW2 3261   3.978   6.344   7.551  0.0920  0.1910 -0.4568
32711SOL     OW 3262  10.078   3.704   8.156 -0.6728 -0.5139 -0.3481
32711SOL    HW1 3263  10.118   3.718   8.071  2.5234 -1.1001  0.9860
32711SOL    HW2 3264  10.061   3.610   8.160 -0.0082 -0.6295 -0.0420
32712SOL     OW 3265   2.374   2.265   7.179 -0.2641 -0.2046  0.0370
32712SOL    HW1 3266   2.426   2.208   7.236 -0.5491 -2.6258 -2.0355
32712SOL    HW2 3267   2.284   2.254   7.210 -0.3009 -0.8015 -0.2748
32713SOL     OW 3268   0.872   2.621   3.076 -0.1630 -0.9059  0.1063
32713SOL    HW1 3269   0.951   2.663   3.042 -0.3358 -1.5217 -1.0777
32713SOL    HW2 3270   0.802   2.682   3.057 -0.3132 -1.4060 -1.0037
32714SOL     OW 3271   6.380   6.170  10.536 -0.3043 -0.0033 -0.0222
32714SOL    HW1 3272   6.380   6.243  10.599  0.3930  0.3487 -0.4224
32714SOL    HW2 3273   6.400   6.212  10.452  0.5590 -0.7176 -0.1787
32715SOL     OW 3274  10.491   9.913  10.736 -0.1750  0.6055  1.0198
32715SOL    HW1 3275  10.406   9.872  10.755 -1.0493  0.8773 -2.0637
32715SOL    HW2 3276  10.556   9.847  10.762 -1.4431 -1.0323  0.1068
32716SOL     OW 3277   8.613   7.996   0.164  0.2443  0.5916 -0.0642
32716SOL    HW1 3278   8.565   8.039   0.094  0.8044  0.0125 -0.8117
32716SOL    HW2 3279   8.704   8.022   0.150  0.5337 -0.5531 -0.3135
32717SOL     OW 3280  10.091   6.806   4.229  1.0299 -0.1558 -0.1029
32717SOL    HW1 3281  10.179   6.842   4.230  0.8108  0.3889 -0.1345
32717SOL    HW2 3282  10.075   6.785   4.137  0.9163  0.2786 -0.1839
32718SOL     OW 3283   2.418   9.786   8.086  0.4112 -0.2423  0.0323
32718SOL    HW1 3284   2.448   9.751   8.003 -1.6924 -0.2586 -0.7550
32718SOL    HW2 3285   2.399   9.709   8.140 -0.5985 -0.2677 -0.3568
32719SOL     OW 3286   1.294  11.323   5.464 -0.5201 -0.2696 -0.1335
32719SOL    HW1 3287   1.236  11.398   5.452  1.6826  1.6886  1.0080
32719SOL    HW2 3288   1.289  11.275   5.382 -1.0841  1.7838 -1.3281
32720SOL     OW 3289   3.456   3.473   5.751 -0.1993  0.4637 -0.1796
32720SOL    HW1 3290   3.546   3.441   5.747  0.5790  2.5680  0.0711
32720SOL    HW2 3291   3.403   3.397   5.727  1.6069 -0.9112  0.0513
32721SOL     OW 3292   6.689   2.869   4.624 -0.3359 -0.5016 -0.3165
32721SOL    HW1 3293   6.665   2.888   4.533 -1.1465  1.9348  0.3510
32721SOL    HW2 3294   6.763   2.928   4.642 -0.1850 -0.9622  0.6025
32722SOL     OW 3295   3.842   3.818   5.896  0.4794 -0.4274 -0.0834
32722SOL    HW1 3296   3.906   3.832   5.826 -0.2275 -0.4863 -0.7599
32722SOL    HW2 3297   3.762   3.792   5.849  0.0615 -0.6806  0.7666
32723SOL     OW 3298   3.906   8.245   9.265  0.1540 -0.5297 -0.2660
32723SOL    HW1 3299   3.997   8.276   9.265  0.2390 -0.7639  0.2769
32723SOL    HW2 3300   3.858   8.311   9.315 -0.1260  0.0047 -1.2203
32724SOL     OW 3301   1.102   4.811  11.147  0.8136  0.3824 -0.5696
32724SOL    HW1 3302   1.184   4.765  11.168  0.1037 -0.2350  0.9218
32724SOL    HW2 3303   1.063   4.760  11.077  0.3760 -0.9014  0.5968
32725SOL     OW 3304  10.371   0.458   8.550  0.5198  0.0167  0.1806
32725SOL    HW1 3305  10.289   0.421   8.517 -0.4517  1.8260  0.4794
32725SOL    HW2 3306  10.400   0.517   8.480  0.8262  0.4413  0.6624
32726SOL     OW 3307   6.918   5.551   1.418 -0.4822  0.0266 -0.4195
32726SOL    HW1 3308   6.969   5.477   1.385 -0.5364  0.1576 -0.8064
32726SOL    HW2 3309   6.944   5.625   1.363  1.1454  0.7965  1.3469
32727SOL     OW 3310   9.942   8.012   4.770 -0.6482 -0.1639 -0.4965
32727SOL    HW1 3311   9.948   7.922   4.802  3.4408  1.0964  2.7761
32727SOL    HW2 3312  10.030   8.033   4.740 -1.4091  2.9109 -0.7633
32728SOL     OW 3313   9.109   2.349   7.308 -0.4609  0.0361  0.1750
32728SOL    HW1 3314   9.112   2.274   7.248 -0.1411 -0.7658  1.1837
32728SOL    HW2 3315   9.171   2.412   7.270 -1.8549  0.4273 -1.5048
32729SOL     OW 3316   7.124   6.548   2.096  0.0759  0.4876  0.2895
32729SOL    HW1 3317   7.097   6.574   2.184 -1.8329 -0.7074  0.0944
32729SOL    HW2 3318   7.198   6.489   2.109 -0.9717 -0.6650  1.1778
32730SOL     OW 3319   2.533   0.753   3.051  0.5919  0.5511 -0.1485
32730SOL    HW1 3320   2.472   0.700   3.000  1.6340  0.2694 -1.1133
32730SOL    HW2 3321   2.496   0.841   3.048 -0.6629  0.0764  0.6923
32731SOL     OW 3322   3.271   2.596   9.679 -0.3770 -0.0153 -0.3302
32731SOL    HW1 3323   3.265   2.640   9.593 -0.5535 -0.2326 -0.4282
32731SOL    HW2 3324   3.257   2.666   9.742  1.0390  0.3925 -0.4413
32732SOL     OW 3325   4.187  10.989   1.524 -0.2496  0.5401 -0.5193
32732SOL    HW1 3326   4.270  11.026   1.552 -0.5705  1.3305 -0.5992
32732SOL    HW2 3327   4.210  10.922   1.460  0.3759  0.0910  0.1738
32733SOL     OW 3328   6.701   8.962   1.707 -0.1730 -0.2818  0.3625
32733SOL    HW1 3329   6.647   8.988   1.633 -1.4203 -1.7240  0.7505
32733SOL    HW2 3330   6.786   8.941   1.668  0.2722  2.3347 -0.2023
32734SOL     OW 3331   4.568   9.735   0.839  0.2427  0.2228  0.0422
32734SOL    HW1 3332   4.497   9.695   0.889 -0.9603  1.9250 -0.2408
32734SOL    HW2 3333   4.595   9.668   0.777  1.4833 -1.7871  2.6541
32735SOL     OW 3334   6.590   1.180   6.484 -0.0078  0.0456 -0.2716
32735SOL    HW1 3335   6.549   1.111   6.536  0.6607  1.2006  1.8488
32735SOL    HW2 3336   6.674   1.143   6.457 -0.3954 -0.5954 -0.5914
32736SOL     OW 3337   7.455   8.843  10.025  0.3257  0.0358 -0.5443
32736SOL    HW1 3338   7.433   8.789  10.100  1.7510  0.5777  0.2750
32736SOL    HW2 3339   7.398   8.919  10.033 -0.4652 -0.5283 -0.7554
32737SOL     OW 3340   9.028   6.376   8.419 -0.1479 -0.1237  0.3616
32737SOL    HW1 3341   9.081   6.450   8.388 -0.2214 -0.4900 -0.6363
32737SOL    HW2 3342   8.951   6.416   8.459 -0.7266  0.3157 -1.1673
32738SOL     OW 3343   6.432   6.921   3.302  0.0467  0.1379  0.1412
32738SOL    HW1 3344   6.515   6.906   3.348  0.0787 -1.5038 -0.4097
32738SOL    HW2 3345   6.382   6.977   3.360  0.4170 -1.2289  1.8085
32739SOL     OW 3346   4.339  11.051   8.175  0.1554 -0.3534 -0.1922
32739SOL    HW1 3347   4.361  11.008   8.257  0.7345  1.2770  0.5335
32739SOL    HW2 3348   4.410  11.114   8.160 -0.9399  0.7651 -0.9062
32740SOL     OW 3349   5.357   0.135   7.774 -0.4923 -0.0130  0.6462
32740SOL    HW1 3350   5.336   0.142   7.867  0.1342 -2.6352  1.0177
32740SOL    HW2 3351   5.449   0.110   7.771 -0.5987 -0.3183 -0.6673
32741SOL     OW 3352   8.276   9.237   6.808 -0.0598  0.3406 -0.1316
32741SOL    HW1 3353   8.354   9.230   6.753  0.4333  0.1317  0.5896
32741SOL    HW2 3354   8.272   9.329   6.834  0.3034  0.2225  0.3470
32742SOL     OW 3355   0.958   9.922   5.020  0.5250  0.1069 -0.3716
32742SOL    HW1 3356   0.952   9.998   4.962  0.4889  0.1202 -0.3520
32742SOL    HW2 3357   0.903   9.855   4.978  0.2123  0.2376 -0.1645
32743SOL     OW 3358   9.493   1.087   0.833  0.1783  0.0058  0.4886
32743SOL    HW1 3359   9.509   1.014   0.772 -0.4311 -0.0081  0.3448
32743SOL    HW2 3360   9.401   1.078   0.858  0.1238  0.6733  0.5433
32744SOL     OW 3361   6.591   2.664   2.293  0.3266  0.0588 -0.1186
32744SOL    HW1 3362   6.658   2.604   2.324 -0.7713 -0.7932  0.6349
32744SOL    HW2 3363   6.613   2.679   2.201  1.1389 -0.7523 -0.0635
32745SOL     OW 3364   9.297   4.085   2.143  0.0865  0.2477  0.3202
32745SOL    HW1 3365   9.261   4.005   2.105  1.2072 -0.4377  0.6856
32745SOL    HW2 3366   9.276   4.080   2.236 -0.2489  0.6079  0.2670
32746SOL     OW 3367   6.802   1.449   4.353 -0.1053  0.0943  0.0183
32746SOL    HW1 3368   6.776   1.359   4.373 -0.2410  0.2624  0.6049
32746SOL    HW2 3369   6.728   1.503   4.381  0.7800  0.5597  1.5397
32747SOL     OW 3370   5.128   9.387   9.603  0.4317  0.0876  0.2553
32747SOL    HW1 3371   5.120   9.453   9.672 -1.1858 -1.6584  1.8016
32747SOL    HW2 3372   5.139   9.304   9.650  0.2887 -1.0052 -1.6081
32748SOL     OW 3373   9.266   4.552   5.644  0.0098 -0.7391  0.5862
32748SOL    HW1 3374   9.297   4.623   5.700  0.0514 -1.2398  1.1945
32748SOL    HW2 3375   9.339   4.535   5.584  0.1885 -0.6075  0.7663
32749SOL     OW 3376   3.936   6.465   4.662 -0.3030  0.0631  0.6836
32749SOL    HW1 3377   3.870   6.473   4.593 -0.2306  1.6744  0.7955
32749SOL    HW2 3378   3.899   6.401   4.722 -0.9668 -0.3708 -0.1680
32750SOL     OW 3379   7.862  10.040   2.742  0.5048  0.2310 -0.4622
32750SOL    HW1 3380   7.818  10.031   2.658 -0.9854 -3.7039  0.6109
32750SOL    HW2 3381   7.793  10.067   2.803  0.8781 -0.0198  0.0790
32751SOL     OW 3382   5.023  10.888   5.733 -0.1995  0.5474  0.4147
32751SOL    HW1 3383   5.046  10.937   5.812  1.2909  0.1715  0.2244
32751SOL    HW2 3384   5.040  10.797   5.756 -1.3220  0.2684  0.1890
32752SOL     OW 3385   6.251   7.866   3.829  0.1454 -0.0353  0.2809
32752SOL    HW1 3386   6.227   7.956   3.848 -0.6674 -0.2951  0.5392
32752SOL    HW2 3387   6.346   7.865   3.827  0.1397  1.2532 -1.7411
32753SOL     OW 3388   7.155   1.729   4.303 -0.5949  0.0771  0.9466
32753SOL    HW1 3389   7.226   1.786   4.273  0.0824 -0.6725  1.0998
32753SOL    HW2 3390   7.200   1.655   4.344 -1.4422 -1.2644 -0.4973
32754SOL     OW 3391   8.511   5.483   0.758 -0.3276 -0.0454 -0.2714
32754SOL    HW1 3392   8.424   5.449   0.736 -0.1336 -0.6326 -0.1486
32754SOL    HW2 3393   8.549   5.509   0.674 -0.8149  0.6779 -0.2708
32755SOL     OW 3394   5.235   5.137   4.175  0.1062  0.1914  0.2885
32755SOL    HW1 3395   5.226   5.109   4.266 -3.8711 -0.6248 -0.2933
32755SOL    HW2 3396   5.235   5.055   4.125 -0.3599  0.7427 -0.6246
32756SOL     OW 3397  11.147   7.496   4.289  0.5348  0.0576  0.2568
32756SOL    HW1 3398  11.197   7.433   4.341  2.9678  2.2551  0.6683
32756SOL    HW2 3399  11.163   7.470   4.198 -1.2614 -1.9525  0.4827
32757SOL     OW 3400   9.604   2.688   3.959  0.2287  0.2017 -0.6046
32757SOL    HW1 3401   9.517   2.649   3.951  1.1738 -1.9569 -0.7985
32757SOL    HW2 3402   9.664   2.613   3.953  2.1507  1.7861 -1.6732
32758SOL     OW 3403   3.462   3.416   7.776 -0.0185 -0.0670 -0.2675
32758SOL    HW1 3404   3.433   3.383   7.861  1.5244  0.2594  0.4176
32758SOL    HW2 3405   3.383   3.422   7.724 -0.9522 -0.5514  1.0630
32759SOL     OW 3406   3.622  11.281   9.255 -0.0880  0.3958 -0.1014
32759SOL    HW1 3407   3.710  11.316   9.238 -0.4972  0.6882 -1.6815
32759SOL    HW2 3408   3.635  11.187   9.266  0.3471  0.3573 -0.9315
32760SOL     OW 3409   0.937   7.882   1.029  0.1245 -0.5546  0.1486
32760SOL    HW1 3410   0.949   7.797   1.071 -0.7056 -1.2861 -1.0744
32760SOL    HW2 3411   0.884   7.863   0.952 -0.2097  1.1047 -0.0348
32761SOL     OW 3412   2.648   5.974  10.161 -0.0243  0.6126 -0.3965
32761SOL    HW1 3413   2.631   5.923  10.082 -0.2443  0.9683 -0.5763
32761SOL    HW2 3414   2.714   6.038  10.134  1.9025 -0.9962  0.3901
32762SOL     OW 3415   6.507   7.139  10.540 -0.0487  0.8790  0.1981
32762SOL    HW1 3416   6.588   7.098  10.508 -0.5523 -1.8562  2.2446
32762SOL    HW2 3417   6.437   7.081  10.510 -0.8360  0.5894  2.4626
32763SOL     OW 3418   0.769   4.792   8.353 -0.0702 -0.6008  0.1326
32763SOL    HW1 3419   0.821   4.870   8.373  0.0637 -0.8203  0.6558
32763SOL    HW2 3420   0.690   4.801   8.406 -1.2096  0.4071 -1.6998
32764SOL     OW 3421  10.567   7.351   4.966  0.2217 -0.1681 -0.0403
32764SOL    HW1 3422  10.613   7.334   4.883  0.9452  0.6797  0.1763
32764SOL    HW2 3423  10.475   7.338   4.945  0.6306 -3.2291 -0.1592
32765SOL     OW 3424   4.519   2.754   2.041  0.0973  0.3307  0.1374
32765SOL    HW1 3425   4.433   2.788   2.016  0.3555 -0.4607 -1.9575
32765SOL    HW2 3426   4.503   2.661   2.058  0.6471  0.0543 -0.8448
32766SOL     OW 3427   8.856   4.416   9.998 -0.2178 -0.1363 -0.1505
32766SOL    HW1 3428   8.855   4.324  10.023 -0.1240 -0.0392  0.2162
32766SOL    HW2 3429   8.916   4.457  10.061 -0.0298  0.1208 -0.4986
32767SOL     OW 3430   4.089   1.699   9.671  0.4527  0.0217  0.2466
32767SOL    HW1 3431   4.018   1.749   9.632  0.0526 -0.9800 -0.3430
32767SOL    HW2 3432   4.129   1.758   9.734 -0.7298  0.6905  0.3811
32768SOL     OW 3433   6.475   5.933   1.677  0.2299 -0.0784 -0.1663
32768SOL    HW1 3434   6.408   5.954   1.741  0.7251  0.2138  0.2643
32768SOL    HW2 3435   6.428   5.922   1.594 -0.4598 -0.8770  0.3320
32769SOL     OW 3436   6.676   7.117   2.286 -0.1883 -0.6209  0.1355
32769SOL    HW1 3437   6.766   7.145   2.302 -1.0591  1.5523  1.3909
32769SOL    HW2 3438   6.652   7.067   2.364 -0.8120  0.7162  0.8065
32770SOL     OW 3439   0.699   7.019   3.739 -0.0243  0.5913  0.0565
32770SOL    HW1 3440   0.660   7.018   3.651  1.1267  3.0236 -0.5246
32770SOL    HW2 3441   0.638   7.070   3.792 -0.4072 -0.3571  0.5571
32771SOL     OW 3442   8.092   3.949   0.810  0.1845  0.2763  0.0675
32771SOL    HW1 3443   8.040   3.955   0.891  1.5450 -0.0333  0.9714
32771SOL    HW2 3444   8.029   3.969   0.740 -0.8065  1.4402  1.2634
32772SOL     OW 3445   8.148   5.614  11.013  0.5022 -0.4682  0.1166
32772SOL    HW1 3446   8.170   5.584  10.925  0.6349  0.3109 -0.1276
32772SOL    HW2 3447   8.078   5.556  11.042 -0.0276 -0.2851 -0.7847
32773SOL     OW 3448   1.960   1.520   0.250 -0.3795  0.0511  0.6137
32773SOL    HW1 3449   2.044   1.563   0.268  0.5216 -0.7502 -1.4445
32773SOL    HW2 3450   1.918   1.576   0.185 -0.7280 -0.3881  0.4567
32774SOL     OW 3451   8.305   1.195   3.178 -0.4132  0.1301  0.2093
32774SOL    HW1 3452   8.296   1.205   3.083  0.4584 -0.4289  0.0579
32774SOL    HW2 3453   8.228   1.143   3.204 -0.3444 -0.2254 -0.2853
32775SOL     OW 3454   3.187  10.179   8.001  0.4457  0.1448  0.2651
32775SOL    HW1 3455   3.197  10.116   8.073  0.1814  0.2184  0.3686
32775SOL    HW2 3456   3.206  10.129   7.922  0.3776 -0.0275  0.3581
32776SOL     OW 3457   8.191   8.199   0.741 -0.2866  0.1779 -0.6047
32776SOL    HW1 3458   8.191   8.252   0.662  3.1484 -0.6441 -1.1956
32776SOL    HW2 3459   8.237   8.119   0.717 -0.5586 -0.7471  1.8182
32777SOL     OW 3460   5.163   2.436   7.157 -0.0585 -0.2712  0.8748
32777SOL    HW1 3461   5.148   2.353   7.112  1.4202 -0.1290  0.1050
32777SOL    HW2 3462   5.191   2.411   7.245  1.9414 -0.6417  0.1619
32778SOL     OW 3463   6.318   1.061   2.613 -0.4531 -0.3523  0.4312
32778SOL    HW1 3464   6.354   1.127   2.554 -0.7957 -0.2440  0.3395
32778SOL    HW2 3465   6.373   1.065   2.691 -0.5143  0.0858  0.4500
32779SOL     OW 3466  10.121   1.194   3.411  0.5647  0.1495 -0.6489
32779SOL    HW1 3467  10.123   1.161   3.321  0.2789 -0.4450 -0.4373
32779SOL    HW2 3468  10.029   1.215   3.427  0.1603 -2.3849  0.4600
32780SOL     OW 3469   9.344   0.198   1.224 -0.2045 -0.2052  0.5769
32780SOL    HW1 3470   9.392   0.181   1.143  0.6696  0.7835  0.8691
32780SOL    HW2 3471   9.410   0.235   1.283 -0.9151 -0.5870  1.6211
32781SOL     OW 3472   3.587   1.199  10.303  0.1481  0.3334  0.3904
32781SOL    HW1 3473   3.627   1.286  10.313  0.0892  0.5748 -1.3313
32781SOL    HW2 3474   3.523   1.210  10.234  0.3187 -1.1490 -0.0128
32782SOL     OW 3475   9.376   8.609   8.230 -0.3883 -0.1932  0.0876
32782SOL    HW1 3476   9.401   8.654   8.149  0.8023 -1.3975 -0.2238
32782SOL    HW2 3477   9.454   8.613   8.285 -0.3056 -1.7870  0.1011
32783SOL     OW 3478   7.527   7.598   9.922 -0.3116  0.0032 -0.0658
32783SOL    HW1 3479   7.562   7.518   9.884 -0.6779 -0.2124  0.0499
32783SOL    HW2 3480   7.593   7.626   9.985 -0.8825 -1.0428  1.0173
32784SOL     OW 3481   9.450   4.241   6.146 -0.2567 -0.3430  0.2792
32784SOL    HW1 3482   9.395   4.301   6.196 -0.3531 -0.9254  0.8697
32784SOL    HW2 3483   9.392   4.169   6.123  0.0520 -0.5718  0.2136
32785SOL     OW 3484   7.165   1.842   5.543  0.2165  0.3873 -0.1163
32785SOL    HW1 3485   7.151   1.792   5.463  2.1518  0.3729 -0.4700
32785SOL    HW2 3486   7.198   1.927   5.513  2.2382 -0.0851  0.6968
32786SOL     OW 3487   5.545   7.984   9.880  0.0705 -0.2763 -0.0269
32786SOL    HW1 3488   5.481   7.999   9.811  0.9786  0.4727 -0.7182
32786SOL    HW2 3489   5.627   7.966   9.834  0.8399  0.9107  0.8267
32787SOL     OW 3490   1.798   9.661   5.012 -0.6330  0.1329 -0.6406
32787SOL    HW1 3491   1.839   9.583   5.048 -1.3877  0.0142 -0.0201
32787SOL    HW2 3492   1.710   9.634   4.988 -0.5664  0.5439 -1.3800
32788SOL     OW 3493  10.449   7.367   7.186 -0.3014 -0.0402  0.2631
32788SOL    HW1 3494  10.407   7.391   7.268  1.0173  0.0222  0.9320
32788SOL    HW2 3495  10.467   7.451   7.143 -0.9567 -0.0717 -0.0833
32789SOL     OW 3496   5.434  10.793   9.283  0.0268 -0.2122 -0.0649
32789SOL    HW1 3497   5.452  10.840   9.365 -0.0661  2.0782 -1.3390
32789SOL    HW2 3498   5.519  10.791   9.238 -0.0639 -0.9319 -0.2066
32790SOL     OW 3499   1.841   6.875   5.671  0.0475 -0.2101  0.6463
32790SOL    HW1 3500   1.895   6.812   5.623 -1.8927 -0.4132 -1.3379
32790SOL    HW2 3501   1.764   6.825   5.697 -0.5055  0.7972  0.9627
32791SOL     OW 3502   6.965   5.637   8.223  0.6578 -0.1179  0.5273
32791SOL    HW1 3503   7.009   5.626   8.139 -1.7066 -0.0005 -0.7522
32791SOL    HW2 3504   7.006   5.571   8.280 -0.0205 -2.4642 -1.6449
32792SOL     OW 3505   7.856   9.751   1.145  0.2195 -0.3937  0.2953
32792SOL    HW1 3506   7.769   9.728   1.111  1.0084  0.3229 -2.2670
32792SOL    HW2 3507   7.908   9.772   1.067  2.4727 -0.0256  1.8562
32793SOL     OW 3508  10.884   5.016   2.802 -0.0710 -0.2416 -0.0019
32793SOL    HW1 3509  10.841   4.978   2.878 -1.9988  0.1683 -0.8348
32793SOL    HW2 3510  10.873   4.951   2.733 -0.3023  0.3166 -0.5006
32794SOL     OW 3511   3.525   8.849  10.938  0.1737  0.3246  0.2598
32794SOL    HW1 3512   3.516   8.838  10.844 -0.3653 -1.1966  0.4784
32794SOL    HW2 3513   3.467   8.923  10.960 -0.5057 -0.0005 -0.4434
32795SOL     OW 3514   2.669   5.466   4.250  0.0600 -0.3919  0.9308
32795SOL    HW1 3515   2.676   5.560   4.267 -1.0728 -0.1154 -0.0245
32795SOL    HW2 3516   2.608   5.460   4.176  1.0603 -1.8062  0.1890
32796SOL     OW 3517   4.162   4.799   4.937  0.3104 -0.1346 -0.1933
32796SOL    HW1 3518   4.156   4.854   4.859  0.3885 -1.2819 -1.0152
32796SOL    HW2 3519   4.255   4.776   4.943 -0.0137 -1.7351 -0.9556
32797SOL     OW 3520   2.257  10.380   1.588  0.7421  0.1878  0.5480
32797SOL    HW1 3521   2.179  10.425   1.556  1.6098  1.0342 -0.3926
32797SOL    HW2 3522   2.269  10.307   1.528  1.7492  1.1522 -0.4473
32798SOL     OW 3523   9.074   4.455   5.016  0.8170 -0.2083  0.5653
32798SOL    HW1 3524   9.070   4.428   5.108 -1.3823 -0.9865  0.2676
32798SOL    HW2 3525   9.094   4.548   5.020 -0.7459  0.0905  1.8846
32799SOL     OW 3526   5.610   9.285   3.959  0.2437 -0.2392 -0.0674
32799SOL    HW1 3527   5.663   9.210   3.933 -2.5806 -1.5488 -2.2919
32799SOL    HW2 3528   5.586   9.327   3.877 -1.2779  0.9250  0.9566
32800SOL     OW 3529   3.124   7.875   9.000 -0.1408  0.0606  0.5855
32800SOL    HW1 3530   3.194   7.869   8.935 -0.1617 -1.3070  0.6680
32800SOL    HW2 3531   3.052   7.918   8.954  0.2225  0.0817  0.0332
32801SOL     OW 3532   7.294   5.193   5.527 -0.1073  0.0741 -0.1538
32801SOL    HW1 3533   7.245   5.250   5.468 -0.6609  0.8065  0.9861
32801SOL    HW2 3534   7.235   5.180   5.602  0.2457 -1.5113 -0.1175
32802SOL     OW 3535   1.351   8.299   3.838 -0.5847 -0.3690  0.2156
32802SOL    HW1 3536   1.283   8.297   3.770  0.8223 -0.6097 -1.2124
32802SOL    HW2 3537   1.433   8.305   3.789  0.3921  0.5673  1.9378
32803SOL     OW 3538   0.399  10.850   8.002  0.0389 -0.0221 -0.4601
32803SOL    HW1 3539   0.396  10.891   7.915 -3.0661 -0.0098 -0.4053
32803SOL    HW2 3540   0.448  10.912   8.056  0.0738  1.0317 -1.6787
32804SOL     OW 3541   0.320   4.927   2.514 -0.1387 -0.7208  0.0378
32804SOL    HW1 3542   0.243   4.914   2.458  0.1295 -0.0980 -0.4904
32804SOL    HW2 3543   0.386   4.867   2.477  0.0470 -0.2901 -0.3389
32805SOL     OW 3544   0.369   5.894   8.679  0.3323  0.0751 -0.2821
32805SOL    HW1 3545   0.386   5.810   8.722 -0.4881 -0.7805 -1.6140
32805SOL    HW2 3546   0.315   5.942   8.742  1.7647  0.0852  0.9820
32806SOL     OW 3547   8.398   1.630   1.969  0.1513  0.2376 -0.7921
32806SOL    HW1 3548   8.354   1.583   2.039  0.4254  0.4431 -0.4826
32806SOL    HW2 3549   8.339   1.623   1.894  0.4183 -1.0318 -0.8954
32807SOL     OW 3550   2.033   2.502   8.878 -0.1982 -0.0977  0.2655
32807SOL    HW1 3551   2.044   2.566   8.948  1.3531  0.9397 -0.8888
32807SOL    HW2 3552   1.940   2.480   8.878 -0.9760  3.0235 -0.0622
32808SOL     OW 3553   5.055   4.414  11.332  0.4047 -0.1079 -0.3284
32808SOL    HW1 3554   5.040   4.320  11.321 -0.0107 -0.2312  1.1582
32808SOL    HW2 3555   5.076   4.424  11.424 -0.2406  1.3522 -0.3265
32809SOL     OW 3556   3.504  10.186   5.442 -0.1403  0.6805 -0.2011
32809SOL    HW1 3557   3.422  10.226   5.472  0.7078  1.7347  0.7304
32809SOL    HW2 3558   3.534  10.242   5.371 -0.7363 -0.2798 -1.2284
32810SOL     OW 3559  10.245   5.481   8.320  0.1576 -0.2065  0.2984
32810SOL    HW1 3560  10.321   5.465   8.376 -0.1906  0.2333  0.9073
32810SOL    HW2 3561  10.176   5.425   8.356  0.5078 -1.4359 -0.9352
32811SOL     OW 3562   2.531   6.482   4.924  0.3239  0.1890  0.1121
32811SOL    HW1 3563   2.568   6.570   4.926 -0.4202  0.4867  1.7754
32811SOL    HW2 3564   2.437   6.494   4.937  0.2575 -0.8524  0.7186
32812SOL     OW 3565   9.770   5.353   7.703  0.3526 -0.2732 -0.2621
32812SOL    HW1 3566   9.675   5.353   7.719 -0.0531  1.4175 -2.4446
32812SOL    HW2 3567   9.809   5.369   7.789 -1.2711 -2.2114  0.8840
32813SOL     OW 3568   7.088   9.182   3.779 -0.5141  0.2220  0.3007
32813SOL    HW1 3569   6.992   9.187   3.777 -0.4359  2.4405  1.5108
32813SOL    HW2 3570   7.109   9.162   3.870  0.2023 -0.1959  0.0524
32814SOL     OW 3571   4.655   6.021   2.739 -0.2254  0.1889 -0.3455
32814SOL    HW1 3572   4.721   6.089   2.753 -0.2250  0.0677  0.2747
32814SOL    HW2 3573   4.578   6.051   2.788 -0.4078  0.0001 -0.5104
32815SOL     OW 3574   3.946   7.491   4.719  0.0457 -0.4187  0.0446
32815SOL    HW1 3575   3.897   7.526   4.645 -0.9196  2.7951  2.0860
32815SOL    HW2 3576   3.881   7.444   4.771 -0.0161  0.3189  0.6384
32816SOL     OW 3577   0.461   1.836   7.617 -0.0553 -0.2921  0.1426
32816SOL    HW1 3578   0.515   1.888   7.677 -0.2244  0.0429  0.0081
32816SOL    HW2 3579   0.374   1.836   7.657  0.5407 -2.8341  1.6079
32817SOL     OW 3580   5.675   6.375   1.841  0.1037 -0.1975  0.1326
32817SOL    HW1 3581   5.702   6.461   1.872 -0.5666  0.1599 -0.2642
32817SOL    HW2 3582   5.719   6.314   1.900  0.3840  0.4213  0.5728
32818SOL     OW 3583   5.565   9.557   1.293 -0.2367 -0.1272  0.4705
32818SOL    HW1 3584   5.538   9.644   1.265  0.9953  0.8016  2.0717
32818SOL    HW2 3585   5.607   9.518   1.217 -0.9365  0.6059 -0.2977
32819SOL     OW 3586   6.866   5.651  11.006 -0.1733  0.0723  0.2621
32819SOL    HW1 3587   6.807   5.660  11.081 -1.9325 -1.5951 -0.9006
32819SOL    HW2 3588   6.881   5.557  10.998 -0.2000  0.2154 -1.6256
32820SOL     OW 3589   2.307   0.086   3.262  0.3865 -0.0584 -0.4014
32820SOL    HW1 3590   2.377   0.077   3.197  0.4552  0.0517 -0.3441
32820SOL    HW2 3591   2.301  -0.000   3.304 -0.1561 -0.3387 -1.0564
32821SOL     OW 3592   5.026  10.654   7.932  0.2288 -0.2153  0.2766
32821SOL    HW1 3593   5.081  10.608   7.868  0.1365  0.8541 -0.5818
32821SOL    HW2 3594   4.937  10.634   7.905  0.1901 -1.0043  0.9812
32822SOL     OW 3595   0.121   8.650   7.829  0.3994  0.1083 -0.3194
32822SOL    HW1 3596   0.169   8.728   7.858 -1.6904  2.0604 -1.8637
32822SOL    HW2 3597   0.189   8.588   7.803  2.1766  0.5296  2.9951
32823SOL     OW 3598  10.209   4.834   3.085  0.3622  0.4122  0.1179
32823SOL    HW1 3599  10.234   4.897   3.017 -0.5026  0.9717  0.2967
32823SOL    HW2 3600  10.262   4.859   3.161 -1.2367  2.0837  0.7339
32824SOL     OW 3601   0.460   5.796  11.232 -0.0897  0.4889 -0.0599
32824SOL    HW1 3602   0.399   5.722  11.228  1.9729 -1.2125 -1.2746
32824SOL    HW2 3603   0.404   5.873  11.232 -2.2244 -0.9925 -1.8749
32825SOL     OW 3604   4.394   0.467   9.356  0.4681  0.5298 -0.2006
32825SOL    HW1 3605   4.471   0.453   9.300  2.3253  1.4013  2.0300
32825SOL    HW2 3606   4.414   0.548   9.404 -1.5230  0.3776  0.9407
32826SOL     OW 3607   7.391   7.174  10.758 -0.0453 -0.1470 -0.1574
32826SOL    HW1 3608   7.297   7.154  10.753  0.1037 -0.5976 -1.5004
32826SOL    HW2 3609   7.416   7.190  10.667  0.6503  2.4834  0.4645
32827SOL     OW 3610   9.976   6.238   1.166  0.6347  0.2376  0.1586
32827SOL    HW1 3611   9.957   6.173   1.233 -0.6107  0.5463  0.1218
32827SOL    HW2 3612  10.070   6.228   1.148  1.1788  0.6851  2.5211
32828SOL     OW 3613  10.603   9.342   3.769 -0.5377  0.4939 -0.0003
32828SOL    HW1 3614  10.684   9.304   3.733 -0.5137 -1.0686  1.6415
32828SOL    HW2 3615  10.633   9.397   3.842 -0.8210  1.3120 -0.5015
32829SOL     OW 3616   5.894   8.297   3.335  0.3744 -0.1053 -0.2870
32829SOL    HW1 3617   5.865   8.387   3.319 -0.2092 -0.5146 -1.6442
32829SOL    HW2 3618   5.828   8.262   3.395 -0.7999 -0.3763 -1.7038
32830SOL     OW 3619  10.138   7.431  10.244 -0.1649  0.0688  0.0319
32830SOL    HW1 3620  10.162   7.377  10.169  1.7727  1.4286 -0.3585
32830SOL    HW2 3621  10.144   7.371  10.319 -0.8009 -0.9550 -0.7153
32831SOL     OW 3622   3.403  11.086   1.000 -0.1110 -0.5119 -0.1996
32831SOL    HW1 3623   3.428  11.131   1.081 -0.0699 -1.6259  0.4183
32831SOL    HW2 3624   3.328  11.032   1.025 -0.4472 -0.4256 -1.0413
32832SOL     OW 3625   0.012   5.963   8.019 -0.7835 -0.0428 -0.2327
32832SOL    HW1 3626  -0.039   5.907   8.079 -0.7593  0.3104  0.1170
32832SOL    HW2 3627   0.048   6.031   8.075 -0.1858 -0.1087 -0.5399
32833SOL     OW 3628   4.823   8.624   8.415 -0.4314 -0.3647 -0.4743
32833SOL    HW1 3629   4.813   8.618   8.320 -1.8996 -0.9720 -0.2950
32833SOL    HW2 3630   4.898   8.568   8.436  1.5275  1.7833 -1.5412
32834SOL     OW 3631   3.790   4.136   5.497 -0.0725  0.0443 -0.8270
32834SOL    HW1 3632   3.721   4.112   5.559  0.9201  0.2911  0.4102
32834SOL    HW2 3633   3.789   4.068   5.431 -1.6009  0.1273 -0.8958
32835SOL     OW 3634   5.504   6.738   4.351  0.1803  0.1155  0.2620
32835SOL    HW1 3635   5.432   6.702   4.298 -0.1165  1.9500 -0.6234
32835SOL    HW2 3636   5.581   6.731   4.294  0.5901 -1.2249  0.9576
32836SOL     OW 3637   2.213   5.007   3.915 -0.3253  0.4925 -0.2513
32836SOL    HW1 3638   2.278   4.976   3.977 -1.0368  2.3221  1.4721
32836SOL    HW2 3639   2.264   5.039   3.841  0.5725 -0.8831 -0.2476
32837SOL     OW 3640   1.432   4.132   9.644 -0.5544 -0.1039  0.9461
32837SOL    HW1 3641   1.451   4.128   9.550  1.3164  0.8595  1.2498
32837SOL    HW2 3642   1.390   4.217   9.656  1.1022  0.6925  1.2667
32838SOL     OW 3643   5.998   1.030   9.088  0.0835  0.4740  0.3540
32838SOL    HW1 3644   5.903   1.015   9.090  0.1943 -0.1882  0.7307
32838SOL    HW2 3645   6.036   0.943   9.092  0.7502  0.8505  3.1370
32839SOL     OW 3646   3.790   2.003   7.791 -0.1420  0.0398  0.1859
32839SOL    HW1 3647   3.784   1.975   7.700 -2.6844  1.3102 -0.0954
32839SOL    HW2 3648   3.805   2.097   7.786 -1.7172  0.3518  1.0505
32840SOL     OW 3649   3.761   2.377   1.873 -0.4150  0.7230  0.0223
32840SOL    HW1 3650   3.769   2.440   1.944  2.2953  2.4637 -1.7498
32840SOL    HW2 3651   3.717   2.425   1.803  1.1553  0.4884 -1.1441
32841SOL     OW 3652   7.360   1.160   2.964 -0.1020 -0.2137  0.1628
32841SOL    HW1 3653   7.449   1.126   2.978  0.4468  0.9056 -0.5638
32841SOL    HW2 3654   7.369   1.222   2.892 -1.7459 -1.1546 -0.8701
32842SOL     OW 3655   7.101  10.701   2.104 -0.2993 -0.0634  0.4634
32842SOL    HW1 3656   7.088  10.656   2.188  0.0449 -0.7610  0.1487
32842SOL    HW2 3657   7.195  10.719   2.101 -0.2290 -0.4950  0.0031
32843SOL     OW 3658   2.022   7.024   6.614  0.3855  0.7637 -0.2199
32843SOL    HW1 3659   1.998   7.015   6.706 -0.8275 -1.2762 -0.6999
32843SOL    HW2 3660   2.106   6.979   6.606 -1.1123 -2.1074 -0.7166
32844SOL     OW 3661   9.841  10.046   2.107  0.4539 -0.0953 -0.5840
32844SOL    HW1 3662   9.895  10.070   2.182 -1.2436 -0.8936  0.9385
32844SOL    HW2 3663   9.848  10.121   2.047  1.6182  0.6580  0.4906
32845SOL     OW 3664   0.735  10.297   9.506  0.0878  0.3549  0.0453
32845SOL    HW1 3665   0.643  10.307   9.480  0.0028 -1.0139 -0.2207
32845SOL    HW2 3666   0.774  10.245   9.436  0.5751 -0.7613  1.1160
32846SOL     OW 3667   9.131   9.233   8.335 -0.5249 -0.2733  0.2275
32846SOL    HW1 3668   9.179   9.290   8.275 -0.0846  0.3474  1.1723
32846SOL    HW2 3669   9.175   9.243   8.419 -0.8257 -1.5318  0.5479
32847SOL     OW 3670  10.136  11.008   4.985  0.2250  0.2637 -0.1608
32847SOL    HW1 3671  10.059  10.974   5.030 -1.3382  1.7782 -1.6055
32847SOL    HW2 3672  10.111  11.008   4.892  1.8481  1.0457 -0.6145
32848SOL     OW 3673   2.591   8.814   0.313 -0.3876  0.0603  0.8041
32848SOL    HW1 3674   2.566   8.871   0.241 -0.3839 -0.3264  0.4927
32848SOL    HW2 3675   2.614   8.731   0.271  0.0370 -0.0331  1.2098
32849SOL     OW 3676   0.690   6.976   6.409 -0.5819 -0.1498  0.0525
32849SOL    HW1 3677   0.716   7.018   6.327 -2.9094  0.6211 -0.3490
32849SOL    HW2 3678   0.636   6.902   6.381 -2.6783  1.0313  0.8749
32850SOL     OW 3679   6.376   4.002   2.502 -0.0162 -0.2009  0.3493
32850SOL    HW1 3680   6.305   4.042   2.552 -0.5081 -0.3348 -0.2222
32850SOL    HW2 3681   6.382   3.913   2.537  0.1829 -0.0423  0.7179
32851SOL     OW 3682   4.214   8.317   3.702 -0.7666 -0.2515  0.2644
32851SOL    HW1 3683   4.170   8.294   3.620 -1.3689  0.9152  0.2541
32851SOL    HW2 3684   4.221   8.412   3.700 -0.7266 -0.2183  1.5378
32852SOL     OW 3685  11.307   8.098   8.361  0.3427 -0.7897 -0.1850
32852SOL    HW1 3686  11.399   8.082   8.340  0.5806  2.3310 -1.7507
32852SOL    HW2 3687  11.261   8.083   8.278 -0.0774  1.1729 -0.3203
32853SOL     OW 3688   6.033   2.247   6.602  0.7864 -0.4519  0.0355
32853SOL    HW1 3689   5.951   2.215   6.562  0.1112 -0.9896  1.8072
32853SOL    HW2 3690   6.004   2.308   6.669  1.9709  1.5678 -1.2501
32854SOL     OW 3691   2.406   0.117   8.624  0.0354  0.3221 -0.1514
32854SOL    HW1 3692   2.398   0.036   8.573 -0.1017  0.2470 -0.0104
32854SOL    HW2 3693   2.443   0.180   8.563 -2.3024  0.8790 -1.0335
32855SOL     OW 3694   9.420   2.057  10.385  0.3052 -0.1753 -0.5299
32855SOL    HW1 3695   9.356   2.045  10.455 -0.2998 -0.9541 -1.2040
32855SOL    HW2 3696   9.424   2.152  10.372 -1.8558 -0.1875 -1.5147
32856SOL     OW 3697   8.926   1.761   6.788 -0.0460 -0.0802  0.0617
32856SOL    HW1 3698   8.975   1.808   6.720 -0.6750 -0.0721 -0.3902
32856SOL    HW2 3699   8.935   1.816   6.866  0.6013 -0.0413 -0.0356
32857SOL     OW 3700   0.771   1.499   2.705  0.2318 -0.8704 -0.0390
32857SOL    HW1 3701   0.728   1.576   2.742  0.8282  0.9883 -3.0284
32857SOL    HW2 3702   0.728   1.486   2.620 -0.3803 -4.3316  0.7304
32858SOL     OW 3703  10.629   4.547   9.433  0.2881  0.0590  0.1211
32858SOL    HW1 3704  10.553   4.589   9.474  0.3463  0.4467 -0.1648
32858SOL    HW2 3705  10.674   4.618   9.387  0.1878 -0.3736 -0.6694
32859SOL     OW 3706   0.082   0.569   5.597  0.5909 -0.2487  0.0793
32859SOL    HW1 3707   0.018   0.612   5.540 -0.3896 -2.8467 -0.8322
32859SOL    HW2 3708   0.031   0.543   5.674  0.6286 -1.8039 -0.3948
32860SOL     OW 3709   5.861   1.152   1.789  0.7955  0.2448  0.3553
32860SOL    HW1 3710   5.868   1.188   1.878  2.2064  0.9019 -0.0083
32860SOL    HW2 3711   5.786   1.198   1.751  1.8857  2.0259  0.2783
32861SOL     OW 3712  10.266   5.466   9.507  0.0228  0.0744  0.0056
32861SOL    HW1 3713  10.173   5.489   9.503  0.2916  1.2129 -0.1635
32861SOL    HW2 3714  10.311   5.550   9.496  1.0639 -0.3338  1.0851
32862SOL     OW 3715   5.061  10.329   4.610  0.5165  0.1044  0.2937
32862SOL    HW1 3716   5.008  10.304   4.685 -1.1232  1.9863 -0.2058
32862SOL    HW2 3717   5.008  10.305   4.533  0.2285  2.2007 -0.2048
32863SOL     OW 3718   7.438   8.176   1.434 -0.3527  0.5757  0.0191
32863SOL    HW1 3719   7.382   8.139   1.503  0.3727 -0.8316 -0.1229
32863SOL    HW2 3720   7.450   8.103   1.373  0.1626  1.4067 -0.8782
32864SOL     OW 3721   9.063   9.017   0.387 -0.1317 -0.0121 -0.2663
32864SOL    HW1 3722   9.037   9.068   0.311 -1.2999 -1.5722 -0.9333
32864SOL    HW2 3723   9.139   8.967   0.358 -0.6626 -0.7116 -0.4510
32865SOL     OW 3724  11.114   6.639   5.873  0.1212 -0.1012  0.1086
32865SOL    HW1 3725  11.030   6.633   5.918  1.2802 -0.5695  2.2733
32865SOL    HW2 3726  11.151   6.723   5.901  0.2834  0.2089 -1.0157
32866SOL     OW 3727  10.855   6.241   2.404 -0.3232 -0.2406  0.2285
32866SOL    HW1 3728  10.793   6.263   2.334  0.9370  0.4456 -0.6787
32866SOL    HW2 3729  10.940   6.268   2.370  0.9253 -3.9154  0.2040
32867SOL     OW 3730   3.852   1.020  10.812  0.2161 -0.2110 -0.5170
32867SOL    HW1 3731   3.762   1.025  10.778  0.8418  0.3084 -2.1811
32867SOL    HW2 3732   3.853   0.941  10.865 -1.4518  0.2313  0.2014
32868SOL     OW 3733   0.778  10.387   6.860  0.1836  0.9594  1.2347
32868SOL    HW1 3734   0.844  10.345   6.916  1.2203  0.2776 -0.4864
32868SOL    HW2 3735   0.822  10.464   6.825 -0.7480  1.8574  1.9917
32869SOL     OW 3736  11.216   4.599   9.469  0.1692  0.1866  0.5739
32869SOL    HW1 3737  11.250   4.654   9.399 -0.7462  0.4793  0.3471
32869SOL    HW2 3738  11.124   4.585   9.446  0.5798 -2.1204  0.2105
32870SOL     OW 3739   3.222   7.210   2.739 -0.0438 -0.6815 -0.2837
32870SOL    HW1 3740   3.233   7.259   2.820  1.3640 -0.9627 -0.2956
32870SOL    HW2 3741   3.133   7.176   2.744 -1.2226  2.2693 -0.5188
32871SOL     OW 3742   4.115   3.436   4.313  0.4565 -0.2504 -0.1932
32871SOL    HW1 3743   4.162   3.484   4.244 -1.9646 -0.9140 -2.3892
32871SOL    HW2 3744   4.103   3.348   4.277 -0.5523 -0.6962  1.2168
32872SOL     OW 3745   5.821   3.423   3.579 -0.5209 -0.5935  0.2581
32872SOL    HW1 3746   5.860   3.448   3.495 -1.6842 -0.8826 -0.3726
32872SOL    HW2 3747   5.746   3.482   3.589  1.0072  1.0749  2.2575
32873SOL     OW 3748   2.575   8.097   3.265 -0.1533 -0.0443 -0.0109
32873SOL    HW1 3749   2.580   8.122   3.173  0.4293 -1.2558 -0.3160
32873SOL    HW2 3750   2.545   8.176   3.310  0.0067  0.6870 -1.1789
32874SOL     OW 3751   4.161   5.210   8.717 -0.0752  0.1536 -0.0127
32874SOL    HW1 3752   4.163   5.118   8.742  1.6246  0.3988  0.7935
32874SOL    HW2 3753   4.192   5.212   8.627  0.1562 -0.0243  0.0662
32875SOL     OW 3754   1.203   6.578   5.252  0.4590 -0.0115 -0.6149
32875SOL    HW1 3755   1.159   6.543   5.174  0.4355  1.5249 -1.3180
32875SOL    HW2 3756   1.293   6.593   5.224  1.1611 -2.0250  0.4763
32876SOL     OW 3757   9.634   0.068   8.534 -0.2888  0.5816 -0.2583
32876SOL    HW1 3758   9.539   0.067   8.524 -0.0929 -0.8736 -2.1925
32876SOL    HW2 3759   9.666   0.004   8.470  2.0018  1.2221  0.1983
32877SOL     OW 3760   6.370   0.082   1.984  0.1934  0.6978 -0.1449
32877SOL    HW1 3761   6.337   0.171   1.988 -0.6334  0.3679  0.6551
32877SOL    HW2 3762   6.377   0.055   2.076 -0.6315 -0.4431 -0.4067
32878SOL     OW 3763   6.624   4.681  10.293 -0.1552  0.1694  0.4927
32878SOL    HW1 3764   6.658   4.604  10.338 -0.9660 -0.3229  0.2645
32878SOL    HW2 3765   6.574   4.646  10.220  1.6330  0.9546 -1.1736
32879SOL     OW 3766   1.341   9.685   4.841 -0.3760  0.2720  0.5388
32879SOL    HW1 3767   1.288   9.730   4.906 -0.3264  0.3295  0.5392
32879SOL    HW2 3768   1.373   9.607   4.885 -1.1300 -0.1853  0.2895
32880SOL     OW 3769   0.376   3.859   3.930  0.4557  0.2880  0.1852
32880SOL    HW1 3770   0.420   3.787   3.885 -0.3265  1.1744 -2.0840
32880SOL    HW2 3771   0.417   3.938   3.896  0.6853  0.9436  1.9723
32881SOL     OW 3772   3.110   1.234   1.132 -0.5734  0.4414  0.0895
32881SOL    HW1 3773   3.074   1.182   1.204  0.5110  0.2303  0.4871
32881SOL    HW2 3774   3.170   1.295   1.175 -1.8170  2.0139 -0.3712
32882SOL     OW 3775   2.679   0.789   8.975 -0.7482  0.0575 -0.2867
32882SOL    HW1 3776   2.589   0.818   8.992 -0.5270  0.1207  0.7800
32882SOL    HW2 3777   2.678   0.763   8.883 -1.7378  0.5154 -0.4155
32883SOL     OW 3778   6.739   0.911   2.248 -0.2948  0.4749 -0.0041
32883SOL    HW1 3779   6.662   0.942   2.295  0.7581 -0.4436  2.3795
32883SOL    HW2 3780   6.721   0.818   2.231  0.2394  0.2787  0.4887
32884SOL     OW 3781   6.469   6.552   3.315  0.1500 -0.3329 -0.3458
32884SOL    HW1 3782   6.490   6.465   3.351 -1.3817 -0.1024  1.1573
32884SOL    HW2 3783   6.377   6.546   3.290 -0.7128  1.6228  2.1540
32885SOL     OW 3784   1.327   1.692   6.146 -0.2400  0.3012  0.1265
32885SOL    HW1 3785   1.298   1.781   6.165 -1.8985 -0.7659  2.8154
32885SOL    HW2 3786   1.392   1.674   6.214  1.0184 -0.1336 -1.1643
32886SOL     OW 3787   5.450   2.294   2.966  0.0003 -0.2144 -0.1074
32886SOL    HW1 3788   5.405   2.297   3.051  0.3299  1.4565  0.0155
32886SOL    HW2 3789   5.379   2.280   2.903 -0.2068 -1.8569  0.4493
32887SOL     OW 3790   2.207   0.453   9.749  0.1993 -0.1664 -0.1972
32887SOL    HW1 3791   2.198   0.533   9.801  1.5330 -0.2853  0.2203
32887SOL    HW2 3792   2.226   0.483   9.660  1.7313 -0.0320  0.1691
32888SOL     OW 3793   6.853   0.768   0.717  0.1695  0.2801 -0.1302
32888SOL    HW1 3794   6.843   0.834   0.786 -0.8235 -1.0073  1.0013
32888SOL    HW2 3795   6.768   0.767   0.673  0.7944  1.0715 -1.3585
32889SOL     OW 3796   9.144   8.130   8.133  0.2009 -0.3292 -0.7119
32889SOL    HW1 3797   9.224   8.084   8.159  0.5955  0.3374 -0.7299
32889SOL    HW2 3798   9.082   8.060   8.113 -0.0401 -0.8905  1.7554
32890SOL     OW 3799   9.032   6.124   8.605 -0.0394  0.2545  0.2599
32890SOL    HW1 3800   8.974   6.067   8.554 -1.2111  1.1744  0.5200
32890SOL    HW2 3801   9.031   6.207   8.557  2.9735 -0.4138 -1.0385
32891SOL     OW 3802   1.633   2.896   5.254 -0.1947  0.3947  0.1498
32891SOL    HW1 3803   1.597   2.843   5.183 -1.0645 -2.0788  2.3256
32891SOL    HW2 3804   1.723   2.865   5.263 -0.5817 -0.4738  1.1631
32892SOL     OW 3805  11.211   8.917   6.764 -0.0706  0.2220  0.3143
32892SOL    HW1 3806  11.230   8.983   6.697 -2.8416  0.3065 -0.4467
32892SOL    HW2 3807  11.254   8.838   6.732 -1.4478  0.2347 -1.6565
32893SOL     OW 3808   1.273   7.978   7.309 -0.0808  0.5854 -0.1062
32893SOL    HW1 3809   1.191   7.940   7.278  0.3804  0.7325 -1.5528
32893SOL    HW2 3810   1.249   8.066   7.340 -0.4536  0.6598 -0.6042
32894SOL     OW 3811   8.072  10.385  10.503 -0.1735  0.0039 -0.0558
32894SOL    HW1 3812   8.056  10.297  10.537  0.0875 -0.5867 -1.4193
32894SOL    HW2 3813   7.985  10.425  10.497 -0.5403 -1.0262 -1.7237
32895SOL     OW 3814   4.464   4.687   1.464  0.0934  0.6042 -0.4836
32895SOL    HW1 3815   4.403   4.726   1.401 -1.4890  0.8039  1.1206
32895SOL    HW2 3816   4.414   4.616   1.505  0.6388  1.2914  1.4491
32896SOL     OW 3817   5.184   9.536  11.200 -0.2296  0.0080  0.1466
32896SOL    HW1 3818   5.126   9.470  11.161  1.8691 -0.2441 -2.6798
32896SOL    HW2 3819   5.124   9.594  11.248 -2.8612 -0.3858 -2.4578
32897SOL     OW 3820   4.683   1.015   2.867 -0.0252  0.0039  0.4634
32897SOL    HW1 3821   4.715   1.104   2.884 -1.2144  0.1389  2.0543
32897SOL    HW2 3822   4.673   1.011   2.772 -0.7245  1.8268  0.4451
32898SOL     OW 3823   8.454   6.146  10.989  0.0522  0.0032 -0.1851
32898SOL    HW1 3824   8.376   6.194  10.961  0.6555  1.4507  0.5697
32898SOL    HW2 3825   8.451   6.064  10.940 -0.8930  0.8955 -1.6354
32899SOL     OW 3826   6.554   2.570   0.202  0.1610 -0.0215  1.1604
32899SOL    HW1 3827   6.496   2.551   0.128  1.0622 -0.3961  0.5397
32899SOL    HW2 3828   6.501   2.623   0.262 -0.4764  0.5294  0.1109
32900SOL     OW 3829   9.258   2.315   4.064  0.4355  0.1701  0.0337
32900SOL    HW1 3830   9.241   2.307   3.970  0.9641 -1.0264  0.0224
32900SOL    HW2 3831   9.180   2.356   4.099  0.4187  1.0318 -0.9977
32901SOL     OW 3832   5.526   7.556  10.768 -0.1961 -0.2008 -0.8356
32901SOL    HW1 3833   5.610   7.586  10.802  0.3859 -2.0491 -0.5814
32901SOL    HW2 3834   5.488   7.506  10.840 -2.3996  2.2039 -0.2689
32902SOL     OW 3835   9.122   9.271   2.691 -0.1766 -0.1385 -0.3316
32902SOL    HW1 3836   9.205   9.312   2.716 -0.1991 -0.9929  1.2074
32902SOL    HW2 3837   9.149   9.190   2.646 -0.1594  0.6657 -1.7978
32903SOL     OW 3838   7.671   4.828   9.204 -0.0487  0.2821 -0.6146
32903SOL    HW1 3839   7.667   4.892   9.275  2.1542  0.5790 -0.7260
32903SOL    HW2 3840   7.603   4.764   9.226  0.2340  0.6612  1.4880
32904SOL     OW 3841   2.944  10.856   7.002 -0.3820 -0.3727  0.0119
32904SOL    HW1 3842   2.938  10.782   7.062 -0.3932  1.1058  1.9199
32904SOL    HW2 3843   2.868  10.910   7.024  1.7224  2.1464  1.4606
32905SOL     OW 3844   1.014  10.217   3.143 -0.9288  0.1840  0.0125
32905SOL    HW1 3845   0.946  10.255   3.198  0.1025  0.2375  1.2937
32905SOL    HW2 3846   1.003  10.122   3.155 -0.0350  0.2150  1.1748
32906SOL     OW 3847  11.299   5.711   3.230  0.1198 -0.3799  0.1353
32906SOL    HW1 3848  11.205   5.729   3.219  0.1831  1.1229  1.8310
32906SOL    HW2 3849  11.341   5.763   3.161 -0.2297 -0.4440 -0.1298
32907SOL     OW 3850   3.551   8.353   9.562  0.3185  0.4872  0.5834
32907SOL    HW1 3851   3.547   8.273   9.616  1.3744  0.8759  1.2547
32907SOL    HW2 3852   3.573   8.422   9.624 -0.3220  1.2663 -0.0486
32908SOL     OW 3853   6.347   1.251   4.970 -0.2006 -0.9767  0.5286
32908SOL    HW1 3854   6.409   1.243   5.042  0.1094 -0.9091  0.2681
32908SOL    HW2 3855   6.262   1.264   5.013  0.3573  1.7949  0.8637
32909SOL     OW 3856   6.618   9.837   2.884 -0.8032 -0.2572  0.5336
32909SOL    HW1 3857   6.648   9.749   2.863  0.3392 -0.3271  2.3829
32909SOL    HW2 3858   6.661   9.859   2.966  0.4098  2.7689 -0.8285
32910SOL     OW 3859   1.710   6.955  10.818 -0.2391 -0.2768 -0.1247
32910SOL    HW1 3860   1.790   6.903  10.817  0.4354  0.7050  1.3272
32910SOL    HW2 3861   1.704   6.991  10.730  1.8901  1.0599  0.2357
32911SOL     OW 3862   2.447   5.577   2.966 -0.1173 -0.2388  0.0682
32911SOL    HW1 3863   2.358   5.548   2.984 -0.1333 -0.3295 -0.1535
32911SOL    HW2 3864   2.466   5.543   2.878 -0.3025  0.8220 -0.3847
32912SOL     OW 3865  10.050   6.974   9.253 -0.0181 -0.0562 -0.4703
32912SOL    HW1 3866  10.128   7.025   9.277  0.3092  0.3509 -2.3014
32912SOL    HW2 3867   9.978   7.037   9.254  0.1994  0.2333 -1.6495
32913SOL     OW 3868   5.320   4.838   9.548  0.0465  0.1149  0.5305
32913SOL    HW1 3869   5.361   4.823   9.633 -0.4685 -1.0842  0.5720
32913SOL    HW2 3870   5.386   4.887   9.498  1.1314 -0.9265  0.9334
32914SOL     OW 3871  11.149   3.489   6.176  0.1694  0.2058 -0.0240
32914SOL    HW1 3872  11.087   3.534   6.118 -0.0904  0.3714  0.3840
32914SOL    HW2 3873  11.103   3.482   6.259  0.1776 -0.8949 -0.1040
32915SOL     OW 3874   4.858   3.382   6.002  0.2751  0.2169 -0.3837
32915SOL    HW1 3875   4.900   3.302   6.032 -2.0738 -0.5323  1.0150
32915SOL    HW2 3876   4.831   3.362   5.912 -1.2493 -0.9655  0.3174
32916SOL     OW 3877  10.262   8.683   1.921 -0.1708 -0.3896  0.2026
32916SOL    HW1 3878  10.317   8.678   1.999 -0.0684 -1.3864  0.0716
32916SOL    HW2 3879  10.174   8.699   1.955  0.0773  0.4354  0.4543
32917SOL     OW 3880   6.939   7.420  11.136  0.3676  0.5420 -0.3173
32917SOL    HW1 3881   6.993   7.341  11.136 -0.1597  0.1771 -0.1587
32917SOL    HW2 3882   6.938   7.449  11.227  0.8388  0.9250 -0.4336
32918SOL     OW 3883   1.704   9.919   0.504  0.5607 -0.4719 -0.2416
32918SOL    HW1 3884   1.698   9.835   0.550 -0.4327 -0.2827 -0.0118
32918SOL    HW2 3885   1.797   9.940   0.505  0.7415 -1.2570  0.2737
32919SOL     OW 3886   4.540   1.515   4.949  0.2840  0.0457  0.1204
32919SOL    HW1 3887   4.563   1.491   5.039  1.6834  0.2895 -0.1539
32919SOL    HW2 3888   4.552   1.434   4.899 -0.4795 -0.0863  0.1555
32920SOL     OW 3889  10.005   5.314   2.142  0.4099 -0.3211 -0.0797
32920SOL    HW1 3890  10.024   5.233   2.093  0.0694  0.1750 -1.0605
32920SOL    HW2 3891   9.934   5.290   2.201  0.5745 -0.8398 -0.0875
32921SOL     OW 3892   2.163   6.051  10.623 -0.2874 -0.3729 -0.1217
32921SOL    HW1 3893   2.111   6.029  10.546 -1.9881 -0.7783  1.1128
32921SOL    HW2 3894   2.180   5.968  10.666 -1.2713  0.0560  1.1325
32922SOL     OW 3895   1.507   3.956   7.588 -0.1393  0.3076  0.1087
32922SOL    HW1 3896   1.474   3.866   7.598  1.9777 -0.3992  1.1953
32922SOL    HW2 3897   1.487   3.998   7.671  0.0093  0.4386  0.0792
32923SOL     OW 3898   0.105   0.582   1.574  0.5089  0.9437  0.0521
32923SOL    HW1 3899   0.118   0.506   1.631 -5.4607 -1.7516 -1.7832
32923SOL    HW2 3900   0.084   0.654   1.634  1.8261  0.0827  1.5803
32924SOL     OW 3901   6.082   5.162   8.451  0.1646 -0.1004  0.1084
32924SOL    HW1 3902   6.021   5.206   8.510  0.6135  0.6190  0.0419
32924SOL    HW2 3903   6.143   5.231   8.424  0.4261 -0.5977 -0.5820
32925SOL     OW 3904   8.375  10.063   6.664  0.1673  0.0720  0.0386
32925SOL    HW1 3905   8.398  10.152   6.635 -0.9030 -0.2310 -1.8576
32925SOL    HW2 3906   8.388  10.065   6.758 -1.3244  2.7336  0.2641
32926SOL     OW 3907   6.478   2.688   5.490 -0.2661  0.0971 -0.0143
32926SOL    HW1 3908   6.429   2.702   5.409 -0.5438  0.6500  0.2444
32926SOL    HW2 3909   6.537   2.763   5.496 -2.0159  1.4209  1.5637
32927SOL     OW 3910   8.625   3.309   0.580  0.2230 -0.4469  0.5392
32927SOL    HW1 3911   8.676   3.285   0.503 -1.5194 -1.0608 -0.4600
32927SOL    HW2 3912   8.629   3.405   0.582  1.5072 -0.4919  0.5630
32928SOL     OW 3913   6.738   8.547   3.854  0.0270 -0.3743  0.2211
32928SOL    HW1 3914   6.773   8.542   3.943 -1.3449  2.0767  0.9416
32928SOL    HW2 3915   6.814   8.567   3.799  0.5246  0.2904  1.1405
32929SOL     OW 3916   0.948   4.885   4.504  0.2646  0.1393 -0.2519
32929SOL    HW1 3917   0.857   4.881   4.533 -0.5148  1.9493 -2.2718
32929SOL    HW2 3918   0.999   4.886   4.585 -1.5907  0.7112  0.9537
32930SOL     OW 3919   3.297  10.315   7.467  0.0094 -0.2064 -0.0082
32930SOL    HW1 3920   3.215  10.276   7.498 -1.0444  0.1616 -2.2805
32930SOL    HW2 3921   3.334  10.249   7.408  1.4094 -0.3988  1.0634
32931SOL     OW 3922   2.549   7.375   5.124 -0.2500  0.4306  0.0040
32931SOL    HW1 3923   2.539   7.463   5.160 -0.1607  0.9595 -1.2463
32931SOL    HW2 3924   2.576   7.389   5.034  2.4491 -0.8999  0.5711
32932SOL     OW 3925   1.317   7.343  10.165  0.3043 -0.4526  0.1117
32932SOL    HW1 3926   1.355   7.297  10.091  0.0388 -0.1681 -0.2044
32932SOL    HW2 3927   1.223   7.344  10.146  0.3374  0.4232  0.0040
32933SOL     OW 3928   9.854   6.386   4.276  0.0195 -0.0415 -0.0750
32933SOL    HW1 3929   9.910   6.386   4.198  0.7336  1.1729  0.4215
32933SOL    HW2 3930   9.881   6.464   4.325 -0.3555 -0.8432  1.4307
32934SOL     OW 3931  10.413   9.320  11.006 -0.5364  0.8246  0.2143
32934SOL    HW1 3932  10.340   9.364  11.050 -2.5027 -1.0020 -1.1517
32934SOL    HW2 3933  10.455   9.270  11.075 -0.8382  1.5427  0.9303
32935SOL     OW 3934  11.078   2.111   6.772 -0.3625  0.0447 -0.0136
32935SOL    HW1 3935  10.991   2.102   6.733 -0.7250  0.1963  0.7421
32935SOL    HW2 3936  11.073   2.193   6.821 -0.0828 -0.3903  0.7550
32936SOL     OW 3937   2.703   2.217   6.703  0.0690  0.0084  0.2223
32936SOL    HW1 3938   2.684   2.140   6.650  0.9377 -0.2585  0.2849
32936SOL    HW2 3939   2.625   2.232   6.755 -0.3367 -0.4505 -0.2557
32937SOL     OW 3940   7.423   4.000   9.304  0.3020  0.6531  0.0399
32937SOL    HW1 3941   7.415   4.088   9.266  0.1652  0.3951 -0.5384
32937SOL    HW2 3942   7.347   3.953   9.270  0.6110  0.1834  0.0037
32938SOL     OW 3943   6.273  10.225   7.510  0.5343 -0.5194  0.0876
32938SOL    HW1 3944   6.345  10.212   7.448  1.6272 -1.6464  1.5587
32938SOL    HW2 3945   6.263  10.320   7.515  1.1679 -0.3875 -0.9724
32939SOL     OW 3946   5.116   5.973   4.884  0.9658 -0.1516  0.2251
32939SOL    HW1 3947   5.021   5.975   4.894  0.8071 -0.3200 -1.1442
32939SOL    HW2 3948   5.150   5.983   4.973 -0.3243  0.4367  0.6597
32940SOL     OW 3949   3.422   5.800   3.217 -0.3412 -0.3868 -0.6368
32940SOL    HW1 3950   3.374   5.854   3.280  1.9111 -0.8743  1.5912
32940SOL    HW2 3951   3.411   5.711   3.249  2.5618 -0.4529  0.3527
32941SOL     OW 3952   2.192   3.300   0.148 -0.0925 -0.2796  0.9350
32941SOL    HW1 3953   2.173   3.216   0.189  0.8377 -2.3081 -2.5936
32941SOL    HW2 3954   2.165   3.289   0.057  0.5603  3.0846  0.2744
32942SOL     OW 3955   0.132   6.898   4.109  0.0442 -0.4840  0.5893
32942SOL    HW1 3956   0.206   6.949   4.142  0.7184 -1.0404 -0.0555
32942SOL    HW2 3957   0.158   6.807   4.124 -0.1203 -0.7043 -0.4755
32943SOL     OW 3958   4.067   9.538   3.841  0.1090 -0.1213  0.2914
32943SOL    HW1 3959   4.107   9.472   3.898  0.7418 -0.7111 -0.8177
32943SOL    HW2 3960   4.118   9.617   3.858  0.8100 -0.4988 -0.0292
32944SOL     OW 3961   5.266   2.816   2.426  0.7806  0.2044  0.2705
32944SOL    HW1 3962   5.330   2.868   2.378 -0.4484  1.0050 -0.5129
32944SOL    HW2 3963   5.181   2.856   2.406 -0.0906 -1.5301  0.3942
32945SOL     OW 3964   7.601   2.583   1.014  0.2995  0.4469  0.2739
32945SOL    HW1 3965   7.610   2.627   0.929 -2.2819  1.6472  0.5670
32945SOL    HW2 3966   7.579   2.493   0.992 -1.6187  1.0468 -0.3710
32946SOL     OW 3967   7.320   7.774   4.705  0.9421 -0.1426  1.1366
32946SOL    HW1 3968   7.411   7.785   4.731  1.3672  0.4917 -0.5872
32946SOL    HW2 3969   7.297   7.855   4.660  0.1866 -1.1212 -0.2926
32947SOL     OW 3970   8.095   3.448   7.604  0.4428 -0.3176 -0.3073
32947SOL    HW1 3971   8.096   3.420   7.696 -3.5031 -3.5168 -1.1085
32947SOL    HW2 3972   8.036   3.523   7.602  0.6277 -0.1684 -0.2206
32948SOL     OW 3973   1.143  10.321  11.130  0.4359  0.0560 -0.0129
32948SOL    HW1 3974   1.153  10.233  11.093  1.3658  0.1368  0.0221
32948SOL    HW2 3975   1.232  10.357  11.129  0.2546  0.5574  1.0506
32949SOL     OW 3976   8.253   0.484   1.831  0.4209  0.3006 -0.9276
32949SOL    HW1 3977   8.269   0.576   1.807  1.9468  0.5357  0.9547
32949SOL    HW2 3978   8.299   0.472   1.914  0.6790 -2.3279 -1.4121
32950SOL     OW 3979   5.001   8.375   1.451 -0.1750  0.2905  0.1349
32950SOL    HW1 3980   4.911   8.408   1.458 -0.5863 -1.0296  1.2770
32950SOL    HW2 3981   5.041   8.396   1.535 -0.3146 -1.7418  0.7099
32951SOL     OW 3982   6.471   8.970   3.376  0.5126 -0.2210  0.0046
32951SOL    HW1 3983   6.564   8.979   3.353  0.2771  1.3382 -0.3759
32951SOL    HW2 3984   6.471   8.921   3.459  1.6298 -0.8767 -0.3726
32952SOL     OW 3985   7.014   8.399   8.192 -0.6959  0.5862 -0.3180
32952SOL    HW1 3986   6.946   8.427   8.253 -1.0446  1.3392 -1.0486
32952SOL    HW2 3987   7.086   8.371   8.248 -0.1116  3.5034  0.4290
32953SOL     OW 3988   8.434   5.719   6.332 -0.1931 -0.1217  0.1055
32953SOL    HW1 3989   8.387   5.667   6.397 -0.9719  0.3836 -0.0469
32953SOL    HW2 3990   8.480   5.786   6.383 -1.5081  0.8214  0.0875
32954SOL     OW 3991   5.972   0.823   1.413 -0.5342  0.5298 -0.2817
32954SOL    HW1 3992   5.899   0.775   1.451  1.6410 -0.8785  2.2726
32954SOL    HW2 3993   5.953   0.915   1.433 -1.9935  0.2557 -0.3577
32955SOL     OW 3994   7.660   4.981   0.892 -0.0079  0.1081  0.7777
32955SOL    HW1 3995   7.608   5.034   0.952 -1.3016 -0.2563 -0.0027
32955SOL    HW2 3996   7.704   5.044   0.836  0.7935  0.4342  1.7675
32956SOL     OW 3997   8.626   8.780   5.858  0.3156 -0.0542  0.2882
32956SOL    HW1 3998   8.649   8.818   5.943 -2.6183  0.0269  1.0851
32956SOL    HW2 3999   8.610   8.855   5.802  1.9222 -0.1097 -0.2579
32957SOL     OW 4000   8.825   7.141   2.363 -0.5794  0.5939  0.1259
32957SOL    HW1 4001   8.833   7.175   2.452  2.0844 -0.7307  0.4403
32957SOL    HW2 4002   8.765   7.067   2.372 -0.7153  0.7759  0.7421
32958SOL     OW 4003   4.930   0.089   0.405 -0.4437  0.6239 -0.3208
32958SOL    HW1 4004   4.948   0.117   0.495 -1.0908 -0.8830  0.2902
32958SOL    HW2 4005   4.944  -0.005   0.406 -1.8093  0.3966 -1.4622
32959SOL     OW 4006   2.714   2.586   1.032  0.4115  0.2623  0.5081
32959SOL    HW1 4007   2.747   2.666   0.993 -1.1042  0.4069 -0.5131
32959SOL    HW2 4008   2.727   2.519   0.965 -1.0979  0.2705  0.1860
32960SOL     OW 4009   8.100   9.003  11.053 -0.5468  0.0200 -0.6477
32960SOL    HW1 4010   8.192   9.028  11.055 -0.1945 -1.2427 -0.3446
32960SOL    HW2 4011   8.071   9.012  11.144 -0.3803 -0.7412 -0.5075
32961SOL     OW 4012   5.838   9.166   2.660 -0.2964 -0.0955  0.3864
32961SOL    HW1 4013   5.806   9.226   2.728  2.4610  0.2798  1.4196
32961SOL    HW2 4014   5.848   9.082   2.706  1.3114  0.0911  0.3795
32962SOL     OW 4015   0.748   7.933   7.368 -0.3298  0.2048 -0.4338
32962SOL    HW1 4016   0.677   7.957   7.308 -0.8971  3.4164  1.3981
32962SOL    HW2 4017   0.769   8.015   7.414 -0.3125 -2.2292  4.1598
32963SOL     OW 4018   7.685   0.309   2.360 -0.0574  0.5997 -0.3144
32963SOL    HW1 4019   7.775   0.309   2.325  0.0813 -1.2623 -0.0047
32963SOL    HW2 4020   7.629   0.306   2.283  0.1406  1.1931 -0.4894
32964SOL     OW 4021   0.407   8.241   4.499  0.0286  0.4733 -0.3016
32964SOL    HW1 4022   0.469   8.167   4.497  0.2220  0.6458 -0.7886
32964SOL    HW2 4023   0.460   8.316   4.525 -0.1041  0.5024 -0.1152
32965SOL     OW 4024   7.672   2.942  10.527 -0.0510  0.4364  0.2176
32965SOL    HW1 4025   7.645   2.862  10.482  0.3692  0.5471 -0.2419
32965SOL    HW2 4026   7.720   2.912  10.604 -1.4581  0.2417  1.0231
32966SOL     OW 4027   8.626  10.605   6.989 -0.6518  0.7008  0.3779
32966SOL    HW1 4028   8.551  10.652   6.953 -0.4985 -0.5702 -1.7043
32966SOL    HW2 4029   8.588  10.545   7.053 -0.7959  3.9326  3.4052
32967SOL     OW 4030   1.421   1.533   7.497  0.0166  0.3350  0.1778
32967SOL    HW1 4031   1.427   1.565   7.587  1.1998  1.7930 -0.3933
32967SOL    HW2 4032   1.502   1.483   7.484 -0.2364 -0.0233 -0.0217
32968SOL     OW 4033   8.829   6.746   5.713 -0.2311 -0.5060  0.1676
32968SOL    HW1 4034   8.759   6.760   5.776 -1.3658  1.5188 -1.4758
32968SOL    HW2 4035   8.899   6.805   5.742 -0.8640  0.6411 -0.6118
32969SOL     OW 4036   9.680   8.074   9.035  0.0607  0.5148  0.0800
32969SOL    HW1 4037   9.728   8.119   8.965  0.4596  1.5364  0.9918
32969SOL    HW2 4038   9.730   7.993   9.050  0.6840  0.8785  0.0117
32970SOL     OW 4039   5.129   0.681   8.969  0.1630 -0.7053  0.1566
32970SOL    HW1 4040   5.205   0.624   8.977  0.2826 -0.6006 -0.2407
32970SOL    HW2 4041   5.054   0.621   8.967  0.2378 -0.8104  0.5059
32971SOL     OW 4042   5.539   3.007   2.574  0.2589 -0.0308 -0.4213
32971SOL    HW1 4043   5.601   3.038   2.508  0.6620  0.5042  0.2018
32971SOL    HW2 4044   5.468   3.072   2.572 -0.3445 -0.6973 -1.2066
32972SOL     OW 4045   2.448   9.835   5.322 -0.0668 -0.1133 -0.0273
32972SOL    HW1 4046   2.375   9.787   5.361 -0.5382 -0.3213 -1.1240
32972SOL    HW2 4047   2.423   9.843   5.229  1.7781 -1.1157 -0.6244
32973SOL     OW 4048   6.958   5.800   9.056 -0.2062  0.6086  0.1649
32973SOL    HW1 4049   6.893   5.859   9.017  0.2153 -0.9150 -2.9499
32973SOL    HW2 4050   7.042   5.833   9.025  0.0264 -1.6551 -1.7192
32974SOL     OW 4051   4.170   1.245   4.291  0.1057 -0.0275  0.7098
32974SOL    HW1 4052   4.257   1.285   4.292  1.4559 -2.8341  1.0591
32974SOL    HW2 4053   4.133   1.267   4.376 -0.0494  2.1948  0.1079
32975SOL     OW 4054   8.591   9.194   0.736  0.1199  0.5799  0.6746
32975SOL    HW1 4055   8.641   9.250   0.677 -0.0810  0.6696  0.5891
32975SOL    HW2 4056   8.504   9.190   0.697  0.8720 -2.0725 -0.8606
32976SOL     OW 4057   9.746   2.254   1.459  0.1494 -0.2147 -0.0841
32976SOL    HW1 4058   9.752   2.292   1.546 -0.5008  1.9414 -0.9432
32976SOL    HW2 4059   9.688   2.179   1.469  1.8806 -1.3741  1.7536
32977SOL     OW 4060   4.793   1.840   8.620  0.2498  0.0203  0.0891
32977SOL    HW1 4061   4.834   1.753   8.615  0.7644  0.3470 -1.5495
32977SOL    HW2 4062   4.719   1.835   8.559 -1.2009 -0.0306  1.8024
32978SOL     OW 4063  10.855   6.299   5.375  0.6625  0.3265  0.3149
32978SOL    HW1 4064  10.872   6.334   5.287 -0.0657  0.1434  0.0972
32978SOL    HW2 4065  10.934   6.320   5.425  0.1732  2.4709  0.2374
32979SOL     OW 4066   6.962   3.334   6.872  0.4442  0.6284  0.0589
32979SOL    HW1 4067   6.867   3.320   6.865  0.3907  0.5951  0.8282
32979SOL    HW2 4068   6.972   3.427   6.892  0.5600  0.5610  0.3119
32980SOL     OW 4069  11.235   9.930   7.543 -0.3373 -0.2909 -0.0021
32980SOL    HW1 4070  11.202   9.997   7.483  0.5033 -0.1148 -0.2863
32980SOL    HW2 4071  11.296   9.878   7.489  0.5500 -0.0302  0.7422
32981SOL     OW 4072   8.677   1.318   6.547 -0.7950 -0.8255 -0.1628
32981SOL    HW1 4073   8.588   1.295   6.574 -0.0760 -1.0160  2.1206
32981SOL    HW2 4074   8.721   1.234   6.535 -0.5957 -0.7135 -0.2284
32982SOL     OW 4075   1.983   8.810   9.867  0.3001 -0.4390 -0.2053
32982SOL    HW1 4076   1.929   8.835   9.942 -0.2121  0.9830 -1.0489
32982SOL    HW2 4077   1.999   8.716   9.880 -2.1966 -0.8380  0.1368
32983SOL     OW 4078   6.505   4.136   6.678 -0.6414 -0.6855 -0.6699
32983SOL    HW1 4079   6.456   4.198   6.624  0.0502 -0.2840 -0.8372
32983SOL    HW2 4080   6.516   4.059   6.622  1.1616  0.1966 -1.5684
32984SOL     OW 4081   6.821   0.546  10.362  0.2983  0.0156 -0.7521
32984SOL    HW1 4082   6.865   0.608  10.303  0.0546  0.8021 -0.1125
32984SOL    HW2 4083   6.739   0.524  10.317 -0.6020  1.7942 -0.0210
32985SOL     OW 4084   8.418  10.768   7.273  0.2323 -0.3371 -0.3261
32985SOL    HW1 4085   8.421  10.673   7.287 -2.4217 -0.3234  0.6490
32985SOL    HW2 4086   8.500  10.788   7.228  0.5881 -3.1798 -1.0520
32986SOL     OW 4087   8.476   4.390   2.401 -0.6162 -0.4361 -0.0450
32986SOL    HW1 4088   8.452   4.439   2.479 -0.2417 -1.8690  0.9927
32986SOL    HW2 4089   8.473   4.454   2.330 -0.7337  0.9290  1.1771
32987SOL     OW 4090   3.516   6.536   5.639 -0.1723 -0.3645 -0.3632
32987SOL    HW1 4091   3.431   6.580   5.635 -1.2598 -2.2801  0.7296
32987SOL    HW2 4092   3.526   6.511   5.731  1.2094 -0.8263 -0.6260
32988SOL     OW 4093   3.809  10.761   3.723  0.1028  0.4517  0.0093
32988SOL    HW1 4094   3.800  10.823   3.650  0.4707 -0.0552 -0.4726
32988SOL    HW2 4095   3.901  10.733   3.719 -0.0845 -0.1908  0.1655
32989SOL     OW 4096   2.247   2.620   5.688  0.8125 -0.0954 -0.1454
32989SOL    HW1 4097   2.241   2.567   5.767  1.0839  0.3372  0.1669
32989SOL    HW2 4098   2.228   2.559   5.617 -3.9655  0.4540  0.5158
32990SOL     OW 4099  11.314   1.934   2.581  0.5402 -0.2210  0.0180
32990SOL    HW1 4100  11.305   1.859   2.522  1.4375 -0.4816  0.2055
32990SOL    HW2 4101  11.372   1.903   2.651  0.2283  0.3798  0.5446
32991SOL     OW 4102   8.452   8.181   7.758  0.0160 -0.0556 -0.3684
32991SOL    HW1 4103   8.492   8.194   7.672 -0.9942  0.2366 -0.7936
32991SOL    HW2 4104   8.487   8.253   7.811 -1.1816  1.1453 -1.1824
32992SOL     OW 4105   0.301   4.638   3.457  0.0257  0.5766 -0.2452
32992SOL    HW1 4106   0.359   4.590   3.516 -0.1632  0.9754  0.2720
32992SOL    HW2 4107   0.212   4.615   3.486 -0.0745  0.0621 -0.9563
32993SOL     OW 4108   6.350   1.676   5.295 -0.0899 -0.1826 -0.4404
32993SOL    HW1 4109   6.360   1.715   5.208  1.2721  1.0829  0.2682
32993SOL    HW2 4110   6.288   1.733   5.341 -0.7824 -0.8302 -0.5573
32994SOL     OW 4111   0.592   8.095   0.115  0.3537 -0.9601  0.1849
32994SOL    HW1 4112   0.608   8.093   0.021 -0.8654 -1.5289 -0.0162
32994SOL    HW2 4113   0.678   8.076   0.154  1.4575  1.8263 -0.7316
32995SOL     OW 4114   4.025   7.448   1.322 -0.9133 -0.0389 -0.1803
32995SOL    HW1 4115   3.946   7.436   1.268 -1.4860  1.2043  0.3427
32995SOL    HW2 4116   4.068   7.363   1.321 -0.7421  0.0222 -2.8658
32996SOL     OW 4117   0.345   7.285   9.899 -0.0712 -0.0001 -0.0785
32996SOL    HW1 4118   0.335   7.199   9.939 -1.4679 -0.1784 -0.7754
32996SOL    HW2 4119   0.255   7.318   9.891  0.4966  1.7799  0.7629
32997SOL     OW 4120   9.024   5.127  10.221  0.5963 -0.2732 -0.1017
32997SOL    HW1 4121   9.055   5.188  10.154  1.8751 -0.9934 -0.1641
32997SOL    HW2 4122   9.007   5.045  10.173 -2.0120  0.2666 -0.1877
32998SOL     OW 4123   9.052   9.057   5.378  0.3382 -0.1526 -0.1636
32998SOL    HW1 4124   9.146   9.041   5.368  0.2383 -0.1493 -1.1845
32998SOL    HW2 4125   9.012   9.016   5.301 -0.3812  0.8265 -0.3250
32999SOL     OW 4126   3.793  10.863   9.239 -0.1813 -0.6703  0.6986
32999SOL    HW1 4127   3.807  10.910   9.157  1.5343 -2.4076 -0.0365
32999SOL    HW2 4128   3.735  10.920   9.290  2.6535  2.7940  0.2828
33000SOL     OW 4129   0.481   9.821   7.154 -0.2457  0.3063  0.5653
33000SOL    HW1 4130   0.416   9.759   7.123  0.8398  0.6389 -2.5370
33000SOL    HW2 4131   0.557   9.767   7.176 -0.1296  0.3120  0.1772
33001SOL     OW 4132   6.409   7.329   5.010 -0.0750  0.9170  0.2647
33001SOL    HW1 4133   6.362   7.270   4.951 -0.4564  1.9445 -0.4760
33001SOL    HW2 4134   6.498   7.295   5.011 -0.6096 -0.5356  0.9969
33002SOL     OW 4135   8.616   8.756   5.560  0.7649  0.5190 -0.0938
33002SOL    HW1 4136   8.634   8.816   5.488  0.3652  0.1862 -0.4722
33002SOL    HW2 4137   8.596   8.814   5.634 -1.7793  0.8590 -1.0011
33003SOL     OW 4138   6.345   3.288   5.676 -0.1078 -0.3166  0.0091
33003SOL    HW1 4139   6.379   3.303   5.589  0.5306  0.2701  0.3578
33003SOL    HW2 4140   6.411   3.234   5.719 -0.1555 -0.1268  0.3204
33004SOL     OW 4141   4.617   9.248   3.142 -0.5822  0.5245  0.1623
33004SOL    HW1 4142   4.658   9.163   3.158 -3.1659 -0.8311 -0.1721
33004SOL    HW2 4143   4.614   9.290   3.228  2.4422  1.1364  0.0241
33005SOL     OW 4144   3.724   0.743   7.945  0.5093  0.3671 -0.2890
33005SOL    HW1 4145   3.731   0.778   7.856 -1.2877  1.7026  0.0890
33005SOL    HW2 4146   3.788   0.671   7.946  1.7780  1.3954 -2.1273
33006SOL     OW 4147   3.974   3.649  10.972  0.0169 -0.3219 -0.1144
33006SOL    HW1 4148   3.890   3.626  10.932 -0.5805  1.5544  0.0020
33006SOL    HW2 4149   4.033   3.658  10.897 -0.3526  0.1784 -0.3550
33007SOL     OW 4150   7.355   9.413   6.082 -0.3461 -0.6860  0.2052
33007SOL    HW1 4151   7.355   9.385   5.990 -0.1569  1.1279 -0.3588
33007SOL    HW2 4152   7.353   9.331   6.132  0.8865 -1.7172 -1.4026
33008SOL     OW 4153  10.896  10.173   3.375  0.1388 -0.2492  0.4356
33008SOL    HW1 4154  10.910  10.233   3.449 -0.7955  0.8141 -0.2272
33008SOL    HW2 4155  10.920  10.224   3.298 -0.7005 -0.7129 -0.1425
33009SOL     OW 4156  10.473   0.671   2.315 -0.1287  0.1078 -0.3944
33009SOL    HW1 4157  10.503   0.760   2.297 -0.0254  0.6949  2.4545
33009SOL    HW2 4158  10.547   0.615   2.291  1.7325  1.2114  2.5296
33010SOL     OW 4159   7.633  11.199   4.688 -0.2956 -0.6574 -0.3390
33010SOL    HW1 4160   7.721  11.220   4.657  0.0101  0.3881  1.1784
33010SOL    HW2 4161   7.590  11.159   4.612  0.4480  1.7704 -2.1358
33011SOL     OW 4162   8.144   9.398   4.182 -0.2108 -0.5567 -0.1250
33011SOL    HW1 4163   8.061   9.444   4.172  0.4621  0.5293 -0.7081
33011SOL    HW2 4164   8.184   9.400   4.095 -0.1695 -2.2532 -0.1690
33012SOL     OW 4165   2.082   7.860   6.946 -0.4565 -0.5636 -0.2288
33012SOL    HW1 4166   2.067   7.891   7.036 -1.9232 -0.2984 -0.5592
33012SOL    HW2 4167   2.177   7.849   6.941 -0.1466  1.3784  0.7153
33013SOL     OW 4168   7.548   9.095   3.740  0.4034  0.1704 -0.4366
33013SOL    HW1 4169   7.613   9.049   3.688  0.2995 -0.3381 -0.1186
33013SOL    HW2 4170   7.465   9.050   3.721  0.2751  0.3206 -0.2414
33014SOL     OW 4171   1.754  10.203   4.976  0.4367  0.0033 -0.0338
33014SOL    HW1 4172   1.691  10.266   5.008  1.4772 -0.4161  2.9914
33014SOL    HW2 4173   1.704  10.121   4.967  0.3928 -0.1967  1.8299
33015SOL     OW 4174   9.204   2.938  11.318 -0.2326  0.0264 -0.4081
33015SOL    HW1 4175   9.271   2.946  11.387 -0.3275 -0.3684 -0.2648
33015SOL    HW2 4176   9.231   3.000  11.251  0.9000 -0.9219 -0.8447
33016SOL     OW 4177   4.367   2.098  11.091  0.0069 -0.3818  0.0128
33016SOL    HW1 4178   4.306   2.027  11.109  0.3035 -0.4455  0.8169
33016SOL    HW2 4179   4.451   2.066  11.126  0.3002  0.0628 -0.2804
33017SOL     OW 4180  10.637   4.384   3.224  0.2338 -0.2452 -0.5507
33017SOL    HW1 4181  10.580   4.377   3.300  0.7866 -0.4895 -0.1572
33017SOL    HW2 4182  10.603   4.459   3.175 -0.0382 -0.0078  0.0026
33018SOL     OW 4183   4.229   0.062   2.649  0.3848 -0.3145  0.1661
33018SOL    HW1 4184   4.288   0.136   2.636  1.8369 -1.6473 -0.9131
33018SOL    HW2 4185   4.154   0.081   2.592 -0.1794  1.2636  1.3760
33019SOL     OW 4186  11.284   5.277  11.211 -0.1720  0.1399 -0.1175
33019SOL    HW1 4187  11.265   5.238  11.126  0.9170 -0.5674 -0.0343
33019SOL    HW2 4188  11.251   5.367  11.203 -2.1738 -0.6092 -0.4837
33020SOL     OW 4189   9.700   2.212   0.654 -0.1847 -0.5581  0.0272
33020SOL    HW1 4190   9.766   2.148   0.682  0.8499 -0.5840 -2.3417
33020SOL    HW2 4191   9.617   2.168   0.669  0.2878 -0.5390  3.0404
33021SOL     OW 4192   1.938   1.558  10.154 -0.1298  0.4031 -0.3554
33021SOL    HW1 4193   1.947   1.647  10.190 -0.2226  0.9823 -1.7156
33021SOL    HW2 4194   1.910   1.572  10.064  0.1570 -1.0137 -0.6751
33022SOL     OW 4195   2.074   3.588   0.782 -0.6398  0.0293 -0.0505
33022SOL    HW1 4196   2.055   3.526   0.852 -0.3735 -0.8305 -0.7260
33022SOL    HW2 4197   2.161   3.562   0.750 -1.2127 -0.2625 -1.4018
33023SOL     OW 4198   4.988   6.463   4.808  0.0161 -0.4190 -0.2785
33023SOL    HW1 4199   5.071   6.494   4.842  0.1421 -0.0870 -0.8780
33023SOL    HW2 4200   4.996   6.473   4.713 -1.2676  1.0455 -0.2581
33024SOL     OW 4201  10.198  10.108  11.104  0.5605  0.2676 -0.5471
33024SOL    HW1 4202  10.146  10.088  11.027 -1.5127  0.5092  0.7505
33024SOL    HW2 4203  10.252  10.182  11.078 -1.3052  1.4067 -1.2914
33025SOL     OW 4204   8.845   4.419   6.229 -0.0980  0.4334  0.1285
33025SOL    HW1 4205   8.859   4.506   6.191 -0.9526  0.3617 -0.3643
33025SOL    HW2 4206   8.904   4.362   6.180  0.3375  0.7016  0.3356
33026SOL     OW 4207   1.411  11.320   4.099  0.2083 -0.1283 -0.2529
33026SOL    HW1 4208   1.497  11.334   4.138  0.0729 -1.7412  0.7022
33026SOL    HW2 4209   1.391  11.401   4.051  1.8690  0.5681  0.2328
33027SOL     OW 4210   1.342   4.146   1.979  0.0036 -0.3923 -0.1153
33027SOL    HW1 4211   1.401   4.083   2.022  1.2563  0.6754 -0.2511
33027SOL    HW2 4212   1.400   4.215   1.947 -1.2205  0.1440 -1.1885
33028SOL     OW 4213   2.137   2.509   5.140 -0.3907  0.5290  0.0985
33028SOL    HW1 4214   2.196   2.547   5.075 -3.1779 -0.0459 -2.9149
33028SOL    HW2 4215   2.165   2.418   5.148  0.7260  0.9080  0.6627
33029SOL     OW 4216   4.179  10.119   1.097  0.0057 -0.0323 -0.1126
33029SOL    HW1 4217   4.213  10.067   1.025 -1.5352  1.3784 -1.8935
33029SOL    HW2 4218   4.090  10.140   1.072 -0.7479  0.0616  2.4583
33030SOL     OW 4219   4.710   5.370   3.752  0.0104  0.1076 -0.3079
33030SOL    HW1 4220   4.765   5.320   3.812  1.7232  2.4071  0.1030
33030SOL    HW2 4221   4.621   5.359   3.786  0.8178  0.4590  2.0037
33031SOL     OW 4222   0.346   6.841   5.543  0.6682  0.0440 -0.4720
33031SOL    HW1 4223   0.334   6.861   5.450  1.9224  1.0411 -0.4341
33031SOL    HW2 4224   0.414   6.902   5.572  0.9041 -0.8484  0.8972
33032SOL     OW 4225  11.325   9.482   6.200 -0.1583  0.5953 -0.1451
33032SOL    HW1 4226  11.388   9.434   6.146  0.3306  0.6770  0.3522
33032SOL    HW2 4227  11.379   9.538   6.256 -0.6675  0.3506  0.5851
33033SOL     OW 4228   5.083   0.935  10.139 -0.2473 -0.0006  0.2449
33033SOL    HW1 4229   5.018   0.869  10.114  0.3164 -0.9658  1.2843
33033SOL    HW2 4230   5.055   1.014  10.093 -1.3577 -0.7640 -0.4326
33034SOL     OW 4231   2.697   8.368   0.753  0.4637 -0.1013 -0.1991
33034SOL    HW1 4232   2.659   8.433   0.812  3.0606  0.8400  0.5419
33034SOL    HW2 4233   2.769   8.414   0.709  3.5741 -2.8589  1.7180
33035SOL     OW 4234   4.959   4.105   6.999 -0.2321  0.3774  0.5891
33035SOL    HW1 4235   5.008   4.026   6.975 -0.4836  0.0154  1.2737
33035SOL    HW2 4236   5.027   4.171   7.015 -0.0083  0.1770  0.4757
33036SOL     OW 4237   5.209   3.487   7.279  0.0179  0.0041  0.0601
33036SOL    HW1 4238   5.193   3.466   7.187 -1.6225  1.5502 -0.0389
33036SOL    HW2 4239   5.247   3.408   7.316 -0.4285 -1.0319 -1.6715
33037SOL     OW 4240   9.016   6.536   4.961 -0.3280 -0.0781 -0.0408
33037SOL    HW1 4241   9.012   6.511   5.054  0.4896  0.8774  0.2574
33037SOL    HW2 4242   8.947   6.601   4.950 -0.5437 -0.3245 -0.1503
33038SOL     OW 4243   4.368   0.856  10.394 -0.1653 -0.6651  0.7515
33038SOL    HW1 4244   4.289   0.814  10.428 -0.3466 -1.2123 -0.3390
33038SOL    HW2 4245   4.371   0.941  10.438 -1.1130 -0.8275  1.1301
33039SOL     OW 4246   6.621   5.349   9.425 -0.2366 -0.3310 -0.2357
33039SOL    HW1 4247   6.598   5.413   9.358 -1.1663 -0.0617  0.3360
33039SOL    HW2 4248   6.537   5.314   9.455 -0.0182  1.7545  2.9614
33040SOL     OW 4249   9.280   6.057  10.354  0.1458  0.3241  0.9466
33040SOL    HW1 4250   9.315   6.058  10.443 -1.3037 -0.6191  1.5339
33040SOL    HW2 4251   9.289   5.966  10.325  0.8270  0.6679  0.0293
33041SOL     OW 4252   1.201   7.652   6.540  0.2487 -0.8371  0.3099
33041SOL    HW1 4253   1.292   7.633   6.565  0.4408 -1.4750 -0.8486
33041SOL    HW2 4254   1.179   7.585   6.476 -1.3229 -1.1717  1.1696
33042SOL     OW 4255   2.350   1.877   5.138  0.1421 -0.3887 -0.3145
33042SOL    HW1 4256   2.294   1.882   5.060  0.3631  0.4806 -0.4270
33042SOL    HW2 4257   2.436   1.852   5.103  0.4441  0.8076 -0.4642
33043SOL     OW 4258   2.190   0.628   5.604  0.4795  0.3429 -0.4518
33043SOL    HW1 4259   2.246   0.561   5.565  2.6332  1.8374 -0.0321
33043SOL    HW2 4260   2.173   0.596   5.693  0.5014 -0.1827 -0.6313
33044SOL     OW 4261   5.203   7.235   8.884  0.4225  0.4740  0.0390
33044SOL    HW1 4262   5.259   7.273   8.817  0.2576 -1.6856 -1.4060
33044SOL    HW2 4263   5.114   7.254   8.854  0.3528 -0.0085 -0.0617
33045SOL     OW 4264  10.515   6.453  11.162 -0.0369  0.4201 -0.3306
33045SOL    HW1 4265  10.438   6.459  11.106 -0.2879  0.1433 -0.0194
33045SOL    HW2 4266  10.579   6.405  11.111 -1.3554 -2.6618  0.8162
33046SOL     OW 4267   5.960   0.024   9.928 -0.0239 -0.3834  0.0631
33046SOL    HW1 4268   5.969   0.062  10.016 -2.5629  1.1139 -0.2632
33046SOL    HW2 4269   5.979   0.097   9.869 -1.9668 -0.3629 -0.5826
33047SOL     OW 4270   8.044   2.770   0.092  0.2838  0.1938  0.6996
33047SOL    HW1 4271   8.075   2.861   0.089  0.4286  0.1351  0.4161
33047SOL    HW2 4272   8.008   2.760   0.180 -1.6089  1.1463  0.0722
33048SOL     OW 4273   4.171  10.202   8.654 -0.3032 -0.2368  0.1061
33048SOL    HW1 4274   4.184  10.226   8.746 -0.3257 -1.3053  0.3972
33048SOL    HW2 4275   4.140  10.282   8.612 -0.9284  0.0827  1.1622
33049SOL     OW 4276   8.017   9.388   6.417 -0.3644 -0.5698  0.0031
33049SOL    HW1 4277   8.013   9.483   6.405 -2.2542 -0.7554 -0.9647
33049SOL    HW2 4278   8.099   9.374   6.464 -1.1599  1.7523  2.1952
33050SOL     OW 4279   5.579   6.296   9.736  0.5745  0.2959 -0.0343
33050SOL    HW1 4280   5.529   6.370   9.771 -1.3548 -0.7917 -0.3911
33050SOL    HW2 4281   5.516   6.224   9.734  1.9221 -0.8732 -1.4253
33051SOL     OW 4282   3.393   3.487   3.468  0.4957 -0.2522  0.2425
33051SOL    HW1 4283   3.430   3.452   3.549 -2.8958 -0.9504  1.5830
33051SOL    HW2 4284   3.393   3.582   3.480  2.0460 -0.2219  0.0965
33052SOL     OW 4285   0.222   5.739   1.333  0.0769  0.2887 -0.3803
33052SOL    HW1 4286   0.230   5.834   1.320  1.2815  0.3371  0.5927
33052SOL    HW2 4287   0.244   5.701   1.248 -3.0338  0.9503 -1.5397
33053SOL     OW 4288   3.814   0.239   0.833  0.2214  0.1546 -0.2271
33053SOL    HW1 4289   3.861   0.194   0.903  0.0840  0.2263 -0.0869
33053SOL    HW2 4290   3.721   0.222   0.852  0.1776  0.3073 -0.3014
33054SOL     OW 4291   5.435   2.331   3.338  0.2743  0.2409  0.4324
33054SOL    HW1 4292   5.512   2.378   3.305  0.4937  0.3580  1.0942
33054SOL    HW2 4293   5.468   2.243   3.358 -0.2201 -0.3147 -1.1604
33055SOL     OW 4294  10.617   1.046   4.321  0.0478  0.0525 -0.2754
33055SOL    HW1 4295  10.590   1.094   4.400  0.9370 -2.2276  1.4774
33055SOL    HW2 4296  10.536   1.031   4.272 -1.1818 -2.1972  2.3292
33056SOL     OW 4297   3.870   5.302   3.830 -0.3356 -0.1058 -0.1827
33056SOL    HW1 4298   3.887   5.366   3.761 -1.7624  0.9048  0.3826
33056SOL    HW2 4299   3.805   5.242   3.793  0.3013 -0.6750 -0.3801
33057SOL     OW 4300   7.394   4.911   6.414  0.2086 -0.6352 -0.6248
33057SOL    HW1 4301   7.324   4.850   6.439 -0.0499  0.6355  1.9168
33057SOL    HW2 4302   7.358   4.997   6.432  2.4587  0.0461  0.7989
33058SOL     OW 4303  11.199   6.354   8.831 -0.1201 -0.0369 -0.1901
33058SOL    HW1 4304  11.173   6.270   8.867 -1.1699  0.2748 -0.2015
33058SOL    HW2 4305  11.282   6.374   8.874 -0.4428 -0.5348  0.6885
33059SOL     OW 4306   8.191   5.946   3.366 -0.0106 -0.1444 -0.0389
33059SOL    HW1 4307   8.114   5.934   3.311 -0.0607  0.7904 -0.1834
33059SOL    HW2 4308   8.182   5.880   3.435 -0.7998 -0.2121 -0.2016
33060SOL     OW 4309   9.244   7.282   5.724  0.6485  0.0321 -0.0536
33060SOL    HW1 4310   9.175   7.269   5.659  0.0368  1.7977  0.2056
33060SOL    HW2 4311   9.280   7.369   5.704  0.0689  0.8454  2.2712
33061SOL     OW 4312   6.920   0.517   4.671  0.0010  0.0553 -0.4365
33061SOL    HW1 4313   6.899   0.426   4.653 -1.1094 -0.2618  2.2316
33061SOL    HW2 4314   7.011   0.515   4.701 -1.0213 -0.6805  2.8124
33062SOL     OW 4315   4.746   8.772   0.422  0.5672  0.1782 -0.2480
33062SOL    HW1 4316   4.822   8.806   0.468  0.3540  1.0089 -0.5018
33062SOL    HW2 4317   4.697   8.850   0.395  0.2190 -0.3256 -1.0823
33063SOL     OW 4318   0.345   4.530   2.564 -0.1006 -0.2196  0.1157
33063SOL    HW1 4319   0.338   4.558   2.655 -0.0483  0.6819 -0.1513
33063SOL    HW2 4320   0.412   4.587   2.526  0.4573 -1.1310 -0.2851
33064SOL     OW 4321   9.017   2.625  11.327  0.5115 -0.1808  0.7133
33064SOL    HW1 4322   8.931   2.667  11.320 -0.0694 -1.2504  1.3123
33064SOL    HW2 4323   9.055   2.662  11.406  1.1791  1.2878 -0.2558
33065SOL     OW 4324   3.535   4.354   8.682 -0.2718  0.2754  0.3087
33065SOL    HW1 4325   3.534   4.386   8.592 -1.2722 -1.0581 -0.1701
33065SOL    HW2 4326   3.457   4.299   8.689  0.7857 -1.1089  1.4406
33066SOL     OW 4327   6.697   2.303   9.805  0.2494 -0.1112 -0.3253
33066SOL    HW1 4328   6.698   2.331   9.896  0.6960 -0.5585 -0.1980
33066SOL    HW2 4329   6.613   2.337   9.771 -0.4445 -0.9385  0.5501
33067SOL     OW 4330   1.727   7.146   1.507 -0.3592  0.4033 -0.5491
33067SOL    HW1 4331   1.795   7.094   1.465 -0.6772  0.0938 -0.6842
33067SOL    HW2 4332   1.645   7.105   1.479 -0.6005  0.8023 -0.4247
33068SOL     OW 4333  10.140   8.172   7.800  0.4995  0.3463  0.3446
33068SOL    HW1 4334  10.174   8.142   7.885  1.1950 -1.0513 -0.4159
33068SOL    HW2 4335  10.131   8.267   7.810 -0.2218  0.1002  2.2637
33069SOL     OW 4336   9.068   5.683   6.055 -0.0509 -0.4223  0.8326
33069SOL    HW1 4337   9.119   5.602   6.045 -0.6917 -0.7457  0.1400
33069SOL    HW2 4338   9.061   5.718   5.966 -1.2863 -0.5366  0.8751
33070SOL     OW 4339   5.995   7.929   2.858 -0.1856 -0.1267  0.0593
33070SOL    HW1 4340   6.066   7.883   2.904  0.5688  0.0682 -0.8836
33070SOL    HW2 4341   6.018   7.921   2.765 -2.3270 -1.5855 -0.3929
33071SOL     OW 4342   1.025   4.845   4.230 -0.5479 -0.5617 -0.3141
33071SOL    HW1 4343   1.027   4.769   4.287 -0.2620  0.2519  0.7729
33071SOL    HW2 4344   1.116   4.857   4.202 -0.4938 -0.2821 -0.0239
33072SOL     OW 4345   1.449   1.107   1.964  0.1598  0.0449  0.0568
33072SOL    HW1 4346   1.445   1.199   1.992  1.4910  0.7204 -1.8866
33072SOL    HW2 4347   1.519   1.069   2.017  0.4547  0.4675 -0.0306
33073SOL     OW 4348  10.485   4.335   6.829  0.1234  0.1495  0.2752
33073SOL    HW1 4349  10.451   4.268   6.770  0.0701 -0.3425  0.8589
33073SOL    HW2 4350  10.525   4.400   6.771 -0.8541  0.1992 -0.3538
33074SOL     OW 4351   2.738   1.802   1.832  0.0011 -0.0227  0.4462
33074SOL    HW1 4352   2.672   1.795   1.763  0.1852  0.3486  0.2304
33074SOL    HW2 4353   2.811   1.750   1.800 -0.1042 -0.2568  0.5869
33075SOL     OW 4354   6.771   3.115   7.783 -0.3079  0.3376  0.0256
33075SOL    HW1 4355   6.799   3.165   7.860  0.6420  1.5542 -1.0761
33075SOL    HW2 4356   6.678   3.133   7.776  0.0358  2.1057 -0.4130
33076SOL     OW 4357   6.853   7.948   7.977 -0.1736 -0.0079 -0.1646
33076SOL    HW1 4358   6.925   7.989   8.025 -2.1191  1.9960  1.0849
33076SOL    HW2 4359   6.835   8.009   7.905  0.2903 -1.2075 -1.3214
33077SOL     OW 4360   8.615  10.696  11.231  0.0976 -0.2322  0.5125
33077SOL    HW1 4361   8.603  10.614  11.183  1.0279 -0.3655  0.5173
33077SOL    HW2 4362   8.709  10.708  11.236 -0.0308  1.6398 -0.8695
33078SOL     OW 4363   7.854   4.288   3.527  0.1844 -0.0503 -0.1700
33078SOL    HW1 4364   7.850   4.199   3.493 -2.2990  0.4134 -1.1945
33078SOL    HW2 4365   7.929   4.327   3.482  0.1059 -1.0260 -1.1753
33079SOL     OW 4366   3.690   3.858   9.913 -0.1172 -0.2610 -0.2054
33079SOL    HW1 4367   3.781   3.888   9.919 -0.9276  2.4101 -0.9123
33079SOL    HW2 4368   3.667   3.870   9.821 -1.7350  0.7283  0.3213
33080SOL     OW 4369   8.640  11.239   6.884 -0.3520  0.4195 -0.4017
33080SOL    HW1 4370   8.573  11.275   6.826  0.1840  1.1593 -0.5693
33080SOL    HW2 4371   8.597  11.233   6.969 -0.8106  0.3439 -0.6386
33081SOL     OW 4372   7.941   5.219   3.733 -0.4424 -0.1346  0.5071
33081SOL    HW1 4373   7.931   5.131   3.695  0.6186 -0.4135  0.8767
33081SOL    HW2 4374   7.913   5.278   3.663  0.6839 -0.6872 -0.4160
33082SOL     OW 4375   3.918   1.836   1.096 -0.4952  0.6774 -0.4631
33082SOL    HW1 4376   3.994   1.893   1.111 -1.2364  2.0164 -1.6772
33082SOL    HW2 4377   3.900   1.797   1.181  0.8174  1.2613  0.1043
33083SOL     OW 4378   7.338  10.052   1.263 -0.2658 -0.3999 -0.3253
33083SOL    HW1 4379   7.260  10.044   1.319 -0.5020  0.7898 -0.4577
33083SOL    HW2 4380   7.359   9.963   1.237 -2.7012 -0.5967 -1.7939
33084SOL     OW 4381   8.910   2.950   9.469  0.5873 -0.0683  0.1571
33084SOL    HW1 4382   8.870   3.036   9.483 -1.2445 -0.9284  0.3633
33084SOL    HW2 4383   9.003   2.969   9.455  0.6233  1.7682  2.4152
33085SOL     OW 4384   2.312   2.580   1.047  0.1582 -0.1375  0.0583
33085SOL    HW1 4385   2.241   2.567   0.984  1.4282 -0.4560 -1.3430
33085SOL    HW2 4386   2.377   2.632   1.000  0.2712  1.3187  1.7773
33086SOL     OW 4387  11.038   8.727   8.364 -0.3896  0.2035 -0.0684
33086SOL    HW1 4388  11.053   8.807   8.313  1.1016 -0.6389 -1.0053
33086SOL    HW2 4389  11.061   8.656   8.304 -0.9369 -0.9047  1.0112
33087SOL     OW 4390   9.873   9.427   8.477  0.1987 -0.1587 -0.1253
33087SOL    HW1 4391   9.965   9.399   8.477  0.9074  1.9691 -2.8509
33087SOL    HW2 4392   9.841   9.403   8.391 -1.2456  0.8686  0.1177
33088SOL     OW 4393   7.608   9.655   2.706 -0.1625  0.3534  0.2666
33088SOL    HW1 4394   7.651   9.645   2.621 -1.7926  0.4472 -0.5819
33088SOL    HW2 4395   7.528   9.703   2.687 -0.7704 -0.0331  1.7877
33089SOL     OW 4396  10.077   3.823   6.890 -0.3126  0.9670  0.4429
33089SOL    HW1 4397  10.046   3.841   6.979 -1.5472 -2.0632  0.6627
33089SOL    HW2 4398  10.163   3.783   6.902  0.5323  2.6136  0.1242
33090SOL     OW 4399   3.276   0.920   1.800 -0.1044 -0.1511  0.4880
33090SOL    HW1 4400   3.204   0.886   1.853 -0.9727  0.4759 -0.2870
33090SOL    HW2 4401   3.352   0.914   1.857 -1.1185  0.9688  1.9747
33091SOL     OW 4402  10.628   0.123   5.157 -0.0638 -0.3747 -0.9472
33091SOL    HW1 4403  10.590   0.044   5.119 -0.6092 -0.3808 -0.4081
33091SOL    HW2 4404  10.638   0.103   5.250  0.6723 -0.1412 -0.9726
33092SOL     OW 4405   0.134   0.741   0.630  0.3056  0.0291  0.3796
33092SOL    HW1 4406   0.056   0.755   0.685  1.1389 -0.8985  1.8514
33092SOL    HW2 4407   0.181   0.670   0.674  0.5246 -1.4073 -2.0976
33093SOL     OW 4408   9.869   2.761  11.180  0.1432 -0.4475  0.0763
33093SOL    HW1 4409   9.775   2.751  11.197  0.1149  1.1635  1.0122
33093SOL    HW2 4410   9.874   2.803  11.094 -0.0172 -0.0800  0.2445
33094SOL     OW 4411   3.052   4.049   6.818  0.0708  0.5944 -0.2120
33094SOL    HW1 4412   2.959   4.045   6.795  0.0159 -1.0192  0.2096
33094SOL    HW2 4413   3.053   4.043   6.914  0.6589 -1.0156 -0.2938
33095SOL     OW 4414   5.856   8.030   2.020  0.1374 -0.0794  0.5845
33095SOL    HW1 4415   5.815   7.962   2.074 -2.7074  1.2348  0.1669
33095SOL    HW2 4416   5.826   8.112   2.057  0.7810  0.8892 -0.9973
33096SOL     OW 4417   0.887   5.762   0.139 -0.1114  0.5502  0.0245
33096SOL    HW1 4418   0.833   5.783   0.063 -3.1482  0.0637  1.9752
33096SOL    HW2 4419   0.916   5.672   0.125 -0.5074  0.5301 -0.6376
33097SOL     OW 4420   5.867   5.968   1.194  0.1732 -0.5460  0.2278
33097SOL    HW1 4421   5.842   5.923   1.275  0.2649  0.3649  0.7740
33097SOL    HW2 4422   5.939   5.916   1.159  1.2535 -0.0313  1.6171
33098SOL     OW 4423   6.408   7.359   3.130  0.0079 -0.0433 -0.2741
33098SOL    HW1 4424   6.462   7.319   3.199  0.5538  0.1506 -0.5860
33098SOL    HW2 4425   6.462   7.430   3.096 -0.3093 -0.0702 -0.8329
33099SOL     OW 4426   7.870   1.917   1.805  0.0554  0.0075  0.1132
33099SOL    HW1 4427   7.866   2.012   1.798 -0.5028 -0.1223 -1.7677
33099SOL    HW2 4428   7.912   1.900   1.889 -1.6140  1.8896  1.3632
33100SOL     OW 4429  11.198  10.928   8.831 -0.2001 -0.4553 -0.6479
33100SOL    HW1 4430  11.272  10.916   8.772  1.2898 -0.0672  1.0903
33100SOL    HW2 4431  11.134  10.978   8.781  0.7789 -0.6757 -2.1268
33101SOL     OW 4432   9.518   4.236  10.809 -0.1042 -0.2249 -0.4795
33101SOL    HW1 4433   9.569   4.173  10.758  0.0477 -1.2364  0.8908
33101SOL    HW2 4434   9.583   4.286  10.858 -0.3502 -0.6240  0.2614
33102SOL     OW 4435   1.397   2.539   8.519 -0.4491  0.2374  0.5694
33102SOL    HW1 4436   1.435   2.466   8.470 -2.3704  0.4474 -1.3051
33102SOL    HW2 4437   1.348   2.589   8.454  0.6052  3.0763  1.8855
33103SOL     OW 4438   6.957   6.903  10.746  0.2923 -0.1711 -0.1606
33103SOL    HW1 4439   7.015   6.831  10.771  0.9805  0.7952  1.1189
33103SOL    HW2 4440   6.935   6.946  10.829 -0.4602  0.8313 -0.8596
33104SOL     OW 4441   2.697   9.533  10.914 -0.2010  0.1211 -0.7331
33104SOL    HW1 4442   2.612   9.536  10.958  0.4129  1.9151  0.4121
33104SOL    HW2 4443   2.681   9.486  10.832 -2.2978  0.4532 -0.5363
33105SOL     OW 4444   8.905   2.484   9.307  0.2433  0.2907  0.2037
33105SOL    HW1 4445   8.852   2.562   9.325 -1.4311 -1.3323  2.4954
33105SOL    HW2 4446   8.854   2.436   9.241  0.6535  0.4856 -0.2621
33106SOL     OW 4447   1.271   7.721   2.990 -0.0646 -0.1337 -0.0983
33106SOL    HW1 4448   1.360   7.752   2.973 -0.8082  1.3976 -1.3069
33106SOL    HW2 4449   1.239   7.778   3.060 -0.9345  0.9303 -1.3428
33107SOL     OW 4450   4.448   7.152   8.722 -0.1654  0.2223 -0.2683
33107SOL    HW1 4451   4.473   7.241   8.749 -0.2734 -0.1942  1.2799
33107SOL    HW2 4452   4.526   7.118   8.678  0.5683  0.4066  0.8643
33108SOL     OW 4453  10.276   6.741   2.904  0.9576  0.1734  0.0995
33108SOL    HW1 4454  10.366   6.768   2.889  0.6530 -0.9229 -4.1240
33108SOL    HW2 4455  10.277   6.646   2.894 -0.6071  0.1197  0.3270
33109SOL     OW 4456   0.711   6.457  11.075 -0.1376 -0.2829 -0.1896
33109SOL    HW1 4457   0.787   6.411  11.040 -1.7502 -1.9807 -1.6040
33109SOL    HW2 4458   0.747   6.520  11.138  2.6169  0.7521 -2.6799
33110SOL     OW 4459   7.294   8.061  10.264  0.9576 -0.0491  0.1941
33110SOL    HW1 4460   7.282   8.105  10.180 -0.3513 -0.1199  0.3315
33110SOL    HW2 4461   7.210   8.071  10.309  0.7313 -2.3801  0.3556
33111SOL     OW 4462   6.524   3.046   4.150 -0.0232  0.0023 -0.0991
33111SOL    HW1 4463   6.443   3.052   4.099 -0.2522 -0.0651  0.2526
33111SOL    HW2 4464   6.588   3.095   4.100 -0.6874  1.4454  0.4418
33112SOL     OW 4465   7.337   8.800  10.587  0.2594 -0.3061 -0.5150
33112SOL    HW1 4466   7.425   8.810  10.550  1.4578 -1.5564  1.9117
33112SOL    HW2 4467   7.317   8.707  10.576 -1.4761  0.2610 -2.5309
33113SOL     OW 4468   0.331   7.427   3.370  0.4683 -0.4016  0.0811
33113SOL    HW1 4469   0.310   7.335   3.382  0.3417 -0.2070  1.4454
33113SOL    HW2 4470   0.314   7.467   3.455 -0.7315  1.1301 -0.8517
33114SOL     OW 4471   9.422   1.677   2.561  0.4277  0.1570  0.0724
33114SOL    HW1 4472   9.341   1.690   2.512 -0.0861 -0.8066  0.6515
33114SOL    HW2 4473   9.475   1.621   2.504 -0.2074 -1.0414  0.6508
33115SOL     OW 4474   6.291   6.962   0.162  0.2653 -0.3052  0.5090
33115SOL    HW1 4475   6.353   6.935   0.230  1.0452  0.1163 -0.0269
33115SOL    HW2 4476   6.220   7.003   0.210  0.7776 -0.0657  1.0795
33116SOL     OW 4477   6.411   7.136   2.753  0.2339 -0.2149  0.4921
33116SOL    HW1 4478   6.423   7.148   2.658 -0.5459 -2.4836  0.0801
33116SOL    HW2 4479   6.363   7.214   2.781 -1.0998 -0.3586 -1.2970
33117SOL     OW 4480   9.055   3.525  10.726  0.2862  0.0517 -0.5992
33117SOL    HW1 4481   8.968   3.510  10.762  0.5856 -1.1972 -0.3757
33117SOL    HW2 4482   9.107   3.556  10.800  0.0944  0.5694 -0.6810
33118SOL     OW 4483   6.375   5.962   4.986 -0.0676  0.4755  0.6068
33118SOL    HW1 4484   6.361   6.025   5.057  1.5808  1.3893  0.1459
33118SOL    HW2 4485   6.419   5.888   5.029 -0.9477  0.1249  0.9217
33119SOL     OW 4486   3.841   6.210   7.929 -0.8020  0.1447 -0.3305
33119SOL    HW1 4487   3.934   6.208   7.906 -0.4356  0.5753  1.0617
33119SOL    HW2 4488   3.796   6.182   7.849  0.5511 -0.6052 -0.8459
33120SOL     OW 4489   2.502   1.804   8.756  0.4413 -0.1864 -0.1107
33120SOL    HW1 4490   2.594   1.814   8.781  0.2295 -0.0658  0.6431
33120SOL    HW2 4491   2.504   1.754   8.675  1.3195  2.6081 -1.8588
33121SOL     OW 4492   7.563   4.231   4.765 -0.1711  0.1830  0.1228
33121SOL    HW1 4493   7.646   4.185   4.753 -1.2958 -2.1267  0.7659
33121SOL    HW2 4494   7.584   4.323   4.752  2.6889 -0.2422  1.3222
33122SOL     OW 4495   6.480   3.767   7.000 -0.2739  0.6018  0.5180
33122SOL    HW1 4496   6.444   3.692   7.049  1.5998 -0.3559  0.4974
33122SOL    HW2 4497   6.468   3.842   7.058 -1.9104  0.2491  0.6647
33123SOL     OW 4498   1.424   0.364   6.818 -0.0369  0.2627 -0.3903
33123SOL    HW1 4499   1.384   0.282   6.789 -0.6827  0.5308 -0.2795
33123SOL    HW2 4500   1.356   0.430   6.803  0.5021  0.7895 -0.5513
33124SOL     OW 4501   8.728  11.015  10.429  0.1147 -0.2558 -0.4704
33124SOL    HW1 4502   8.779  10.961  10.369 -0.3420 -1.1911 -0.0314
33124SOL    HW2 4503   8.792  11.077  10.465  1.1577 -1.9822  0.7333
33125SOL     OW 4504  10.842   9.840   5.285 -0.4951  0.4138  0.3919
33125SOL    HW1 4505  10.884   9.925   5.282  0.9343 -0.2728  0.4756
33125SOL    HW2 4506  10.777   9.847   5.355  0.1946  1.1773  0.9608
33126SOL     OW 4507   5.526   3.257   9.610  0.3894  0.2720  0.1612
33126SOL    HW1 4508   5.589   3.185   9.595  0.9025  0.9847 -1.1756
33126SOL    HW2 4509   5.440   3.215   9.604  0.7026 -0.5618  1.2053
33127SOL     OW 4510   4.809   6.017  10.961  0.6555  0.2111  0.0643
33127SOL    HW1 4511   4.799   6.001  11.055  0.0111  0.0511 -0.0317
33127SOL    HW2 4512   4.782   6.109  10.949 -0.8320 -0.2512 -0.2086
33128SOL     OW 4513   7.111   5.483   8.009 -0.2825 -0.4469 -0.2650
33128SOL    HW1 4514   7.191   5.456   8.054 -0.3637 -0.3287 -0.0486
33128SOL    HW2 4515   7.135   5.486   7.916 -0.5536 -2.3130 -0.4183
33129SOL     OW 4516   2.014   5.042   5.733 -0.6469 -0.2916 -0.3162
33129SOL    HW1 4517   2.084   5.108   5.736  0.0953 -1.1234  1.1600
33129SOL    HW2 4518   2.023   5.001   5.647 -0.6157  0.9908 -0.9332
33130SOL     OW 4519   5.960   2.919   1.045 -0.2043  0.1186 -0.2407
33130SOL    HW1 4520   5.869   2.932   1.020 -1.2021  1.1678  3.6213
33130SOL    HW2 4521   5.999   3.007   1.041 -0.0976  0.1198  0.7879
33131SOL     OW 4522   0.198   5.861  10.605  0.7929  0.1597  0.0254
33131SOL    HW1 4523   0.126   5.857  10.668 -1.6032  0.0905 -2.6132
33131SOL    HW2 4524   0.260   5.923  10.644 -1.3798  1.3762  1.6968
33132SOL     OW 4525   1.540   3.681   7.708  0.6827 -0.0640  0.0300
33132SOL    HW1 4526   1.561   3.588   7.696  1.7690  0.4948 -2.8180
33132SOL    HW2 4527   1.611   3.715   7.762 -0.8756 -1.3070  2.9752
33133SOL     OW 4528   1.744   1.916   9.375 -0.6138 -0.0423  0.2981
33133SOL    HW1 4529   1.815   1.907   9.439 -0.3124  0.0968 -0.0161
33133SOL    HW2 4530   1.754   1.839   9.319 -1.9845 -1.1236  1.5004
33134SOL     OW 4531  10.234   0.890   3.285 -0.1848 -0.2304  0.5568
33134SOL    HW1 4532  10.140   0.889   3.298 -0.4460 -2.7479 -1.1379
33134SOL    HW2 4533  10.262   0.799   3.302  1.9418  0.4919  1.1394
33135SOL     OW 4534   4.213   0.727   5.088  0.1279  0.2029  0.7331
33135SOL    HW1 4535   4.215   0.694   4.998 -0.1014 -0.1377  0.8491
33135SOL    HW2 4536   4.122   0.754   5.101 -0.4194 -2.0109  1.6592
33136SOL     OW 4537   0.097   9.417   8.488  0.2796  0.4982  0.4275
33136SOL    HW1 4538   0.142   9.431   8.404 -1.4207 -0.1408 -0.6087
33136SOL    HW2 4539   0.153   9.461   8.552  1.0914  1.8609 -1.1738
33137SOL     OW 4540   4.125   2.580   4.707  0.5746  0.0527 -0.4120
33137SOL    HW1 4541   4.079   2.532   4.639 -0.2325  0.9762 -0.5294
33137SOL    HW2 4542   4.187   2.517   4.744  0.8885 -0.4969 -1.8711
33138SOL     OW 4543   7.133   8.668  10.038 -0.0981  0.1205 -0.1280
33138SOL    HW1 4544   7.120   8.715  10.121  0.5103  1.3395 -0.7100
33138SOL    HW2 4545   7.106   8.578  10.057 -2.3066  0.9311  0.7116
33139SOL     OW 4546   1.293   1.967   0.973  0.5615 -0.1804 -0.2948
33139SOL    HW1 4547   1.303   1.881   0.931 -0.6948 -2.2542  3.3946
33139SOL    HW2 4548   1.382   1.995   0.992  1.0041 -0.4691 -1.8349
33140SOL     OW 4549   8.765   6.564   7.736 -0.2786  0.0197 -0.0567
33140SOL    HW1 4550   8.769   6.486   7.681 -0.1852  0.0269 -0.0605
33140SOL    HW2 4551   8.774   6.637   7.675 -1.0875  0.0574 -0.1422
33141SOL     OW 4552   8.114   9.318   6.159 -0.6760  0.3190 -0.0403
33141SOL    HW1 4553   8.047   9.267   6.114 -0.8864  0.9998 -0.5058
33141SOL    HW2 4554   8.075   9.337   6.244 -0.4513 -0.5964  0.2786
33142SOL     OW 4555   8.374   8.879   9.682 -0.4553  0.5873 -0.1520
33142SOL    HW1 4556   8.307   8.916   9.741  0.1391  2.5206 -0.6485
33142SOL    HW2 4557   8.330   8.807   9.638 -2.6160  2.6027 -1.3746
33143SOL     OW 4558   0.100   8.823   7.067 -0.4667  0.2945  0.0667
33143SOL    HW1 4559   0.071   8.845   7.156  0.2497 -2.4050  1.0048
33143SOL    HW2 4560   0.041   8.753   7.039  2.1247 -2.0231  0.2028
33144SOL     OW 4561   8.312   8.690   3.640 -0.6288 -0.2364 -0.0043
33144SOL    HW1 4562   8.407   8.687   3.636 -0.5914 -3.8860  1.7479
33144SOL    HW2 4563   8.283   8.680   3.550  0.6431 -0.4402 -0.3880
33145SOL     OW 4564   1.436   3.411   5.279 -0.0896  0.6440 -0.5275
33145SOL    HW1 4565   1.496   3.461   5.225  1.7842 -0.2223  0.6837
33145SOL    HW2 4566   1.441   3.322   5.245 -1.1285  0.6721 -0.7752
33146SOL     OW 4567   4.362   2.086   1.766 -0.2388 -0.4468  0.1223
33146SOL    HW1 4568   4.439   2.029   1.770 -0.1676 -0.4229 -0.8398
33146SOL    HW2 4569   4.353   2.108   1.673  1.2986  3.2353  0.7458
33147SOL     OW 4570   2.487   6.808  10.051 -0.0415 -0.1234 -0.3210
33147SOL    HW1 4571   2.550   6.820   9.981  2.0606  2.0831  1.8613
33147SOL    HW2 4572   2.529   6.746  10.111 -0.5127  0.3425  0.5019
33148SOL     OW 4573  10.230  10.699   5.027 -0.1513  0.1345 -0.0736
33148SOL    HW1 4574  10.206  10.611   4.998 -0.0847  0.1046 -0.0385
33148SOL    HW2 4575  10.196  10.757   4.959  0.7526  0.0034 -0.6526
33149SOL     OW 4576   4.378   5.228   2.917 -0.0042 -0.7512  0.1869
33149SOL    HW1 4577   4.284   5.234   2.898  0.1507  1.3260 -0.0917
33149SOL    HW2 4578   4.383   5.235   3.013 -0.0944  0.2279  0.1335
33150SOL     OW 4579   4.882   8.029   9.512  0.4653  0.6160  0.0808
33150SOL    HW1 4580   4.934   7.992   9.584  0.6330  0.6241 -0.0365
33150SOL    HW2 4581   4.884   8.124   9.528 -0.2861  0.5484  0.5976
33151SOL     OW 4582   2.548   3.171   3.269 -0.1505 -0.2110 -0.3497
33151SOL    HW1 4583   2.552   3.124   3.185  0.7055 -0.1728 -0.3322
33151SOL    HW2 4584   2.633   3.214   3.276 -0.1590 -0.3552  0.6207
33152SOL     OW 4585   6.128  11.025   4.648  0.1781 -0.2362 -0.4561
33152SOL    HW1 4586   6.220  11.007   4.629  0.5707  0.8216  0.4473
33152SOL    HW2 4587   6.096  10.946   4.691  0.9833 -0.1360  0.3276
33153SOL     OW 4588   6.510   7.688   2.901  0.0874 -0.7343 -0.1443
33153SOL    HW1 4589   6.554   7.767   2.871 -1.7489  0.3720  0.0060
33153SOL    HW2 4590   6.450   7.718   2.970  2.4509 -2.8519  3.0166
33154SOL     OW 4591   3.803  10.602   8.220 -0.2202  0.2246 -0.3843
33154SOL    HW1 4592   3.876  10.662   8.235 -0.4524  0.2367  0.7814
33154SOL    HW2 4593   3.767  10.587   8.308 -0.4804 -1.2138 -0.7255
33155SOL     OW 4594   2.568   8.390   2.469 -0.0300 -0.6464 -0.2518
33155SOL    HW1 4595   2.486   8.351   2.440 -0.6303 -0.2542  0.8598
33155SOL    HW2 4596   2.568   8.478   2.433 -1.0472  0.0435  1.3626
33156SOL     OW 4597  10.364   6.707   3.289  0.0242  0.0074 -0.5361
33156SOL    HW1 4598  10.321   6.627   3.319 -0.5566  1.3986  2.5840
33156SOL    HW2 4599  10.292   6.766   3.267  0.3659  0.7452  0.2682
33157SOL     OW 4600   3.703   2.047  10.569  0.5029  0.2735  0.1157
33157SOL    HW1 4601   3.640   2.096  10.517 -0.8415 -0.6663  0.8288
33157SOL    HW2 4602   3.684   2.071  10.659  1.5030  0.3596  0.3172
33158SOL     OW 4603   2.295   4.714   0.783  0.1728 -0.1793 -0.3690
33158SOL    HW1 4604   2.385   4.679   0.789  0.2865 -0.3966 -3.0539
33158SOL    HW2 4605   2.301   4.801   0.823  1.1552 -0.8974  1.1212
33159SOL     OW 4606   1.394   8.357   5.204 -0.3606  0.2136 -0.2222
33159SOL    HW1 4607   1.344   8.285   5.242 -0.2940  0.2646 -0.0357
33159SOL    HW2 4608   1.335   8.432   5.208  0.0501  0.4908  0.8340
33160SOL     OW 4609   6.798   6.556   0.061  0.3449 -1.0878  0.3405
33160SOL    HW1 4610   6.709   6.569   0.095  0.5063 -0.1069  0.4073
33160SOL    HW2 4611   6.851   6.535   0.138  0.1443 -1.8416  0.2781
33161SOL     OW 4612   3.534   8.276   1.072 -0.3171 -0.4646  0.5093
33161SOL    HW1 4613   3.614   8.307   1.115  1.4603 -1.2135 -2.1875
33161SOL    HW2 4614   3.491   8.355   1.041  0.9810 -0.2453 -0.7632
33162SOL     OW 4615   5.663   2.131   7.155  0.1269  0.0733  0.4076
33162SOL    HW1 4616   5.635   2.189   7.083 -1.0403  0.9180  1.5255
33162SOL    HW2 4617   5.723   2.069   7.113 -2.5094 -1.0600 -1.8426
33163SOL     OW 4618   1.449   4.144   5.349  0.0200 -0.2260 -0.1822
33163SOL    HW1 4619   1.375   4.193   5.385  0.0581 -0.2491 -0.0713
33163SOL    HW2 4620   1.456   4.173   5.258  0.3850  0.3737  0.0373
33164SOL     OW 4621   2.745   1.944   5.150 -0.6514  0.3772  0.0992
33164SOL    HW1 4622   2.776   1.965   5.238 -0.0664  1.3159 -0.3227
33164SOL    HW2 4623   2.669   2.000   5.137 -1.7676 -0.9709  0.6284
33165SOL     OW 4624   0.707   6.881   2.962 -0.5963 -0.5542  0.1979
33165SOL    HW1 4625   0.686   6.809   3.021 -0.7697 -0.0255  0.7886
33165SOL    HW2 4626   0.647   6.951   2.987  0.7987  0.4358  0.8582
33166SOL     OW 4627   9.842   4.662  10.559 -0.2850  0.1561 -0.2398
33166SOL    HW1 4628   9.893   4.688  10.636 -1.1674  0.1351  0.3581
33166SOL    HW2 4629   9.882   4.580  10.531 -0.3502 -0.1632  0.5754
33167SOL     OW 4630   0.615   5.873   3.079  0.3231  0.5143  0.4427
33167SOL    HW1 4631   0.678   5.937   3.045 -1.0328  1.0931 -1.0078
33167SOL    HW2 4632   0.530   5.917   3.074 -0.3077 -0.5010  1.7770
33168SOL     OW 4633   8.054   8.600   5.961 -0.0645  0.5039  0.2817
33168SOL    HW1 4634   8.004   8.586   6.041 -0.2765  0.1676  0.0953
33168SOL    HW2 4635   7.995   8.651   5.905  0.4501  1.5767  0.7049
33169SOL     OW 4636   2.493   4.759   6.726  0.1113 -0.1665 -0.2023
33169SOL    HW1 4637   2.428   4.811   6.775  0.5442 -0.6309  0.8732
33169SOL    HW2 4638   2.450   4.675   6.711  0.1092 -0.1432 -0.3247
33170SOL     OW 4639   4.621  10.687   4.805  0.3153 -0.2926 -0.0371
33170SOL    HW1 4640   4.533  10.661   4.832  0.0866  0.8477  0.3799
33170SOL    HW2 4641   4.633  10.773   4.846  1.7005 -0.5380  0.0781
33171SOL     OW 4642   3.796  11.053   3.032 -0.3933 -0.2614 -0.0441
33171SOL    HW1 4643   3.858  11.016   2.968  0.2814  0.0346  0.4398
33171SOL    HW2 4644   3.719  10.996   3.025 -0.2917 -0.2962 -1.0496
33172SOL     OW 4645   5.211  10.256   9.028 -0.0772  0.1000  0.0940
33172SOL    HW1 4646   5.159  10.200   8.969  1.1898 -1.8897  0.8407
33172SOL    HW2 4647   5.192  10.223   9.115  1.6472  0.0279  0.4494
33173SOL     OW 4648   5.049   0.522   7.291  0.6132 -0.4461  0.2300
33173SOL    HW1 4649   5.089   0.606   7.268  0.6110 -0.1333  1.3289
33173SOL    HW2 4650   5.062   0.515   7.386 -0.9797 -0.8440  0.4313
33174SOL     OW 4651   5.457   6.608   1.466  0.1964  0.1562 -0.0500
33174SOL    HW1 4652   5.509   6.527   1.471  1.1389  0.6898 -0.9020
33174SOL    HW2 4653   5.419   6.618   1.553 -1.3233 -2.1075 -0.4001
33175SOL     OW 4654   5.765   3.975   7.050  0.2497  0.2225 -0.8213
33175SOL    HW1 4655   5.834   3.921   7.012  0.4304  1.8459 -2.9449
33175SOL    HW2 4656   5.809   4.058   7.072 -0.5912  0.5418 -0.3193
33176SOL     OW 4657   1.145   7.420   1.859  0.3427 -0.4242 -0.7213
33176SOL    HW1 4658   1.165   7.346   1.917  0.2053 -0.7352 -1.0704
33176SOL    HW2 4659   1.050   7.425   1.860  0.3729  0.0650 -0.3019
33177SOL     OW 4660   3.989   3.010   4.745 -0.3086  0.7393 -0.2676
33177SOL    HW1 4661   3.999   3.104   4.761 -2.1835  0.6963  1.2628
33177SOL    HW2 4662   3.997   2.970   4.831 -1.0008 -0.3753 -0.7135
33178SOL     OW 4663   0.594  10.037   2.562 -0.3979  0.1669 -0.1212
33178SOL    HW1 4664   0.589  10.075   2.474  1.6574  0.0747 -0.2931
33178SOL    HW2 4665   0.605  10.111   2.621 -0.0844  0.1107 -0.1070
33179SOL     OW 4666   8.916   2.226   6.149 -0.1923  0.0516  0.6328
33179SOL    HW1 4667   8.900   2.279   6.227  0.3637  0.1538  0.6815
33179SOL    HW2 4668   8.978   2.160   6.178 -0.3877 -0.2293  0.4054
33180SOL     OW 4669   6.565  10.442   5.111 -0.6491  0.2460  0.1533
33180SOL    HW1 4670   6.610  10.439   5.027  0.2522  2.6568  0.5151
33180SOL    HW2 4671   6.560  10.351   5.139  1.0363 -0.3715 -1.4628
33181SOL     OW 4672   0.001   3.946   9.508 -0.1011  0.1396 -0.4523
33181SOL    HW1 4673  -0.048   4.003   9.566 -0.5393  0.4554 -1.1330
33181SOL    HW2 4674   0.089   3.984   9.507  0.0158 -0.0894  0.2981
33182SOL     OW 4675   4.434   2.095   2.807  0.0902 -0.0526  0.2758
33182SOL    HW1 4676   4.360   2.079   2.865  0.3562 -0.7758  0.4175
33182SOL    HW2 4677   4.486   2.014   2.811  1.6319  0.9587  1.2579
33183SOL     OW 4678   6.723   9.764   5.023  0.2163  0.8942  0.0961
33183SOL    HW1 4679   6.702   9.744   5.114  0.6002 -1.5047 -0.3057
33183SOL    HW2 4680   6.815   9.740   5.014 -0.1299 -0.0176 -1.1996
33184SOL     OW 4681   4.638  10.979   7.938 -0.5154  0.5331  0.0761
33184SOL    HW1 4682   4.607  10.897   7.976  3.9737 -1.2943  0.0344
33184SOL    HW2 4683   4.707  11.009   7.996  0.0312  2.6837 -1.5905
33185SOL     OW 4684   4.064   4.417   1.647  0.3356  0.3734  0.1201
33185SOL    HW1 4685   4.046   4.462   1.564  0.8193 -0.0683 -0.2242
33185SOL    HW2 4686   4.010   4.464   1.711 -0.4689  0.3670 -0.5380
33186SOL     OW 4687   7.903   8.087   8.014 -1.0831 -0.4681  0.3327
33186SOL    HW1 4688   7.855   8.024   7.960 -1.5366  0.2226 -0.0867
33186SOL    HW2 4689   7.965   8.034   8.064 -1.8163 -1.3021  0.3782
33187SOL     OW 4690  10.070   5.815   0.351  0.7138 -0.1546 -0.4898
33187SOL    HW1 4691  10.129   5.763   0.405  1.2538  1.0759  0.1310
33187SOL    HW2 4692   9.983   5.781   0.371  1.1492 -1.5787 -0.9617
33188SOL     OW 4693   6.754   9.224   1.834  0.2042  0.7214  0.2421
33188SOL    HW1 4694   6.841   9.213   1.871  0.2770  3.0393  0.8237
33188SOL    HW2 4695   6.717   9.136   1.833  2.7926 -0.3887 -0.6628
33189SOL     OW 4696   7.513   5.054   1.194 -0.4829  0.1951  0.4283
33189SOL    HW1 4697   7.580   5.042   1.261  0.9958  1.9749 -0.6855
33189SOL    HW2 4698   7.454   4.980   1.205  2.2823 -2.0374  0.7242
33190SOL     OW 4699   7.712   9.446   6.053 -0.0512 -0.1117 -0.2924
33190SOL    HW1 4700   7.785   9.500   6.083 -1.3653  1.9006 -0.5961
33190SOL    HW2 4701   7.661   9.429   6.133  0.3201 -0.8761 -0.2095
33191SOL     OW 4702   4.902   4.761   5.322  0.4396 -0.5267  0.1847
33191SOL    HW1 4703   4.925   4.668   5.320  1.3286 -0.2867 -0.9775
33191SOL    HW2 4704   4.981   4.805   5.354  0.0014 -0.1726  0.7955
33192SOL     OW 4705   8.780   7.944   7.304 -0.1980 -0.0070 -0.0616
33192SOL    HW1 4706   8.756   7.852   7.290 -2.2228  0.3053  1.0665
33192SOL    HW2 4707   8.715   7.993   7.253  0.3965  0.8010 -0.0419
33193SOL     OW 4708   9.043   4.463   2.022 -0.0580 -0.1323  0.4827
33193SOL    HW1 4709   9.138   4.458   2.022 -0.0896 -0.9349 -0.9336
33193SOL    HW2 4710   9.019   4.463   2.115  1.3021 -0.3093  0.8436
33194SOL     OW 4711   4.167   3.592   5.073  0.1594 -0.4050  0.4520
33194SOL    HW1 4712   4.123   3.632   4.997 -0.3673 -0.1961  0.8650
33194SOL    HW2 4713   4.096   3.568   5.132  0.6722  1.4214  1.8547
33195SOL     OW 4714   6.728   2.071   0.566 -0.3254 -0.3328 -0.1254
33195SOL    HW1 4715   6.657   2.028   0.518 -0.0713 -1.0894  0.1725
33195SOL    HW2 4716   6.749   2.148   0.513 -0.7783 -0.5812 -0.6720
33196SOL     OW 4717   1.859   5.263   5.808 -0.5808 -0.6618  0.0046
33196SOL    HW1 4718   1.835   5.275   5.899  2.8370  0.1107  0.8562
33196SOL    HW2 4719   1.924   5.193   5.809 -0.3172 -0.4774 -1.7971
33197SOL     OW 4720   4.026   5.005   7.715 -0.0495 -0.0091  0.1892
33197SOL    HW1 4721   4.065   4.943   7.776 -0.4740 -1.5367 -1.0554
33197SOL    HW2 4722   4.080   4.999   7.636  0.6885  2.1767  0.4834
33198SOL     OW 4723   3.080   0.256   2.617 -0.3472 -0.0080  0.1068
33198SOL    HW1 4724   3.015   0.230   2.683 -1.9370 -2.8014 -2.4258
33198SOL    HW2 4725   3.138   0.180   2.609 -0.5124  0.0687 -2.0851
33199SOL     OW 4726   0.282   8.532   5.306  0.4072 -0.1028  0.0916
33199SOL    HW1 4727   0.249   8.621   5.293 -1.6512 -0.9738 -0.8402
33199SOL    HW2 4728   0.375   8.538   5.280  0.2491  1.7106 -0.1607
33200SOL     OW 4729   4.381   2.981  10.616  0.1320  0.0598 -0.4245
33200SOL    HW1 4730   4.449   2.991  10.682 -1.8926 -0.9937  1.8745
33200SOL    HW2 4731   4.342   3.069  10.608 -0.4358 -0.0830  0.7026
33201SOL     OW 4732   6.291   0.614   6.855  0.1022  0.0969  0.6965
33201SOL    HW1 4733   6.327   0.526   6.839 -0.1643  0.4281 -2.0002
33201SOL    HW2 4734   6.200   0.598   6.880 -0.2755 -0.3869 -0.8865
33202SOL     OW 4735   3.000   9.568   4.150 -0.3041 -0.0248 -0.3102
33202SOL    HW1 4736   2.921   9.611   4.181 -1.9524 -1.1919 -2.7083
33202SOL    HW2 4737   3.037   9.627   4.085 -0.4338 -0.4576 -0.7850
33203SOL     OW 4738   8.166   8.512   6.593 -0.1604  0.3519 -0.2654
33203SOL    HW1 4739   8.185   8.484   6.504 -0.3341 -1.1162  0.1555
33203SOL    HW2 4740   8.235   8.577   6.612  0.8113 -0.4672 -0.9103
33204SOL     OW 4741   2.861   4.784   3.917  0.1616  0.0283 -0.6257
33204SOL    HW1 4742   2.871   4.700   3.961  0.1008  0.8450  1.0155
33204SOL    HW2 4743   2.781   4.776   3.865 -0.5508 -0.4961  0.5417
33205SOL     OW 4744   9.097   3.834   4.996 -0.3671 -0.5191  0.0915
33205SOL    HW1 4745   9.004   3.813   5.003 -0.6156  0.3349 -0.6345
33205SOL    HW2 4746   9.137   3.755   4.961 -0.8862 -0.7345 -0.0150
33206SOL     OW 4747   5.836   2.748   6.681 -0.8095  0.2292  0.4246
33206SOL    HW1 4748   5.914   2.804   6.685 -1.6672  1.4403  0.5910
33206SOL    HW2 4749   5.780   2.780   6.753 -0.6448 -1.8861  1.5363
33207SOL     OW 4750   0.544   5.850  10.467  0.6726  0.5069  0.5195
33207SOL    HW1 4751   0.581   5.792  10.534  0.9339 -0.5456 -0.5201
33207SOL    HW2 4752   0.493   5.792  10.411  1.8132  1.0878 -1.1663
33208SOL     OW 4753   8.776   1.358   6.832  0.3392  0.2001  0.3509
33208SOL    HW1 4754   8.823   1.291   6.781  0.4464  0.1311  0.5403
33208SOL    HW2 4755   8.688   1.357   6.796  0.6205  0.6995 -0.3613
33209SOL     OW 4756   4.424  11.180  11.105  0.0832  0.3552  0.4341
33209SOL    HW1 4757   4.416  11.275  11.113  0.9016  0.3492  1.3660
33209SOL    HW2 4758   4.492  11.167  11.040 -0.5757  0.3989 -0.2739
33210SOL     OW 4759   4.314   9.791  11.130 -0.4841  0.0351 -0.0396
33210SOL    HW1 4760   4.347   9.718  11.077  1.4780  0.6258  0.3219
33210SOL    HW2 4761   4.264   9.845  11.069 -1.4533 -1.2976 -0.4391
33211SOL     OW 4762   9.311   6.416   7.497  0.6848 -0.3825  0.2668
33211SOL    HW1 4763   9.228   6.368   7.505 -0.9075  2.3357  0.7987
33211SOL    HW2 4764   9.325   6.455   7.583  0.7305  1.9492 -0.7595
33212SOL     OW 4765   1.115  10.062  10.564  0.4075 -0.2231  0.0586
33212SOL    HW1 4766   1.035  10.010  10.579 -0.1312  0.3409 -0.8365
33212SOL    HW2 4767   1.093  10.149  10.598  0.5101  0.0324 -0.5291
33213SOL     OW 4768  11.322   3.441   7.826 -0.0255 -0.0817 -0.2407
33213SOL    HW1 4769  11.241   3.434   7.877  1.5091 -2.3588  2.0083
33213SOL    HW2 4770  11.337   3.353   7.793  1.0989  0.5110 -1.3250
33214SOL     OW 4771   8.208   7.246   6.898 -0.1436  0.0299  0.0765
33214SOL    HW1 4772   8.263   7.263   6.821 -1.7039 -0.0467 -1.0794
33214SOL    HW2 4773   8.231   7.156   6.924  0.6723  0.1961 -0.0690
33215SOL     OW 4774   9.355   7.320   0.727  0.3234  0.2108  0.0126
33215SOL    HW1 4775   9.323   7.295   0.814 -2.1448  2.4949 -0.1853
33215SOL    HW2 4776   9.450   7.327   0.738  0.3035 -2.0398  1.8568
33216SOL     OW 4777   3.976  10.830   5.431  0.1681  0.0842  0.0404
33216SOL    HW1 4778   3.903  10.825   5.369  0.9485 -1.2012 -0.8079
33216SOL    HW2 4779   3.947  10.891   5.498 -1.1579  0.5992 -0.9899
33217SOL     OW 4780   9.475   0.446   4.506 -0.5490  0.2828  0.0109
33217SOL    HW1 4781   9.463   0.417   4.597  1.3619 -0.4640  0.0465
33217SOL    HW2 4782   9.513   0.533   4.514 -0.4458  0.2454 -0.0733
33218SOL     OW 4783   7.546   8.124   5.628 -0.4894 -0.1928 -0.0420
33218SOL    HW1 4784   7.464   8.146   5.672 -1.2192 -0.5834 -1.1675
33218SOL    HW2 4785   7.538   8.164   5.541 -0.5048 -2.2083 -0.9989
33219SOL     OW 4786   3.012   4.376   6.418  0.3663  0.2558 -0.4169
33219SOL    HW1 4787   2.939   4.325   6.454 -0.2498  2.2679  1.2681
33219SOL    HW2 4788   3.001   4.368   6.323 -0.2039 -2.0161 -0.1945
33220SOL     OW 4789   2.357   1.031   8.154  0.1140  0.0355  0.6208
33220SOL    HW1 4790   2.265   1.007   8.167  0.3317 -1.3436 -0.2536
33220SOL    HW2 4791   2.378   1.087   8.229 -1.1021 -0.6116  1.4667
33221SOL     OW 4792   6.829  10.598   9.115  0.0092 -0.0699 -0.1805
33221SOL    HW1 4793   6.871  10.516   9.088 -1.8806 -0.7284 -1.2249
33221SOL    HW2 4794   6.826  10.650   9.035 -0.5198  0.2483  0.0478
33222SOL     OW 4795   3.620   9.874   4.251 -0.5278 -0.2199  0.3522
33222SOL    HW1 4796   3.701   9.843   4.210 -0.4403 -0.0237  0.3714
33222SOL    HW2 4797   3.562   9.894   4.177  0.7259  3.0835  0.1743
33223SOL     OW 4798   9.256   3.133   2.251  0.0239  0.3014 -0.2604
33223SOL    HW1 4799   9.222   3.114   2.163 -0.7704 -0.2355  0.1570
33223SOL    HW2 4800   9.213   3.069   2.308  2.7121 -1.2798  0.1014
33224SOL     OW 4801   1.372   8.973   8.907  0.3114  0.6569 -0.1764
33224SOL    HW1 4802   1.307   9.024   8.955 -0.6898  0.5592 -1.3902
33224SOL    HW2 4803   1.423   8.928   8.975 -0.3464  1.3925  0.8141
33225SOL     OW 4804   6.167   9.142   3.628 -0.1650  0.8258 -0.0961
33225SOL    HW1 4805   6.152   9.049   3.647  0.7015  1.1971  2.6500
33225SOL    HW2 4806   6.087   9.171   3.584 -0.3770 -1.2476 -1.1477
33226SOL     OW 4807   0.274   5.584   1.908  0.3594 -0.5652  0.0943
33226SOL    HW1 4808   0.187   5.588   1.949  0.0284  0.6961 -0.7168
33226SOL    HW2 4809   0.327   5.535   1.971 -0.5424 -0.0405  1.2916
33227SOL     OW 4810   3.425   7.799   2.377  0.1423  0.6111  0.3081
33227SOL    HW1 4811   3.397   7.829   2.290  0.2233 -1.0707 -0.3147
33227SOL    HW2 4812   3.348   7.755   2.413  0.6260 -0.1986  0.3731
33228SOL     OW 4813   2.858   8.475  10.412 -0.1559  0.0377  0.1578
33228SOL    HW1 4814   2.763   8.467  10.402 -0.4356  0.8130  1.9651
33228SOL    HW2 4815   2.883   8.404  10.471  0.4995 -0.6015 -0.8794
33229SOL     OW 4816  10.395  10.310   0.705  0.3770 -0.1578  0.1638
33229SOL    HW1 4817  10.359  10.221   0.703  0.5192 -0.2338  0.9721
33229SOL    HW2 4818  10.459  10.311   0.633  1.0930 -1.0169  0.7696
33230SOL     OW 4819  11.018  11.014   5.749 -0.0537  0.0612  1.1042
33230SOL    HW1 4820  11.027  11.080   5.680  2.7499 -0.6564  0.7258
33230SOL    HW2 4821  11.013  11.064   5.830 -1.6692  0.8539  0.5259
33231SOL     OW 4822   1.000   9.601   8.359 -0.2113  0.2065  0.1390
33231SOL    HW1 4823   1.025   9.626   8.448  1.9630  0.5712 -0.5368
33231SOL    HW2 4824   1.023   9.676   8.306 -1.0606 -0.1965 -0.8118
33232SOL     OW 4825   6.306  11.266   1.768 -0.3845  0.0388 -0.2469
33232SOL    HW1 4826   6.327  11.334   1.833  3.0231 -1.1075 -0.0358
33232SOL    HW2 4827   6.292  11.187   1.820  1.4407 -0.6757 -0.8165
33233SOL     OW 4828   3.697   8.128   1.824 -0.0558 -0.4108  0.4689
33233SOL    HW1 4829   3.745   8.116   1.906 -1.1008  1.0502  1.3008
33233SOL    HW2 4830   3.740   8.202   1.782  0.4847 -1.1627 -0.3338
33234SOL     OW 4831   8.056   1.495   4.812 -0.5056 -0.7454  0.4298
33234SOL    HW1 4832   7.961   1.481   4.814 -0.7546  0.7324  0.0366
33234SOL    HW2 4833   8.069   1.556   4.739  0.7078 -0.6800  0.6945
33235SOL     OW 4834   6.183   5.539   2.489 -0.3357  0.1717 -0.4745
33235SOL    HW1 4835   6.239   5.571   2.418 -0.4456  1.8028  0.1489
33235SOL    HW2 4836   6.125   5.612   2.509 -3.1647 -1.7135 -1.5467
33236SOL     OW 4837   6.221   4.471   7.657 -0.5409  0.0200 -0.5563
33236SOL    HW1 4838   6.154   4.416   7.698 -1.6557  1.9515  0.3246
33236SOL    HW2 4839   6.236   4.541   7.721  0.5502  0.9449 -1.7994
33237SOL     OW 4840   0.235   6.440   7.419  0.0495 -0.3801  0.0611
33237SOL    HW1 4841   0.196   6.523   7.390  1.2946 -0.1362 -0.9653
33237SOL    HW2 4842   0.161   6.387   7.447 -0.7799  1.0188  0.5776
33238SOL     OW 4843   7.336  11.190  10.698  0.0123  0.2421 -0.5969
33238SOL    HW1 4844   7.241  11.200  10.699  0.0860  0.9207  1.7888
33238SOL    HW2 4845   7.351  11.109  10.649 -1.8944 -0.8347  0.5579
33239SOL     OW 4846   2.528   2.696   5.452  0.6541  0.7307  0.2660
33239SOL    HW1 4847   2.605   2.723   5.403  0.3311  1.3372  0.0890
33239SOL    HW2 4848   2.454   2.720   5.395  0.2683  1.6616  1.1476
33240SOL     OW 4849   2.032   1.860   7.704 -0.2929  0.2584 -0.2490
33240SOL    HW1 4850   2.005   1.768   7.694  2.2201 -0.8269  2.4479
33240SOL    HW2 4851   2.079   1.879   7.622  2.9956 -2.3163  0.9137
33241SOL     OW 4852   3.655  10.257   0.863 -0.0459 -0.1778 -0.6129
33241SOL    HW1 4853   3.652  10.352   0.850  0.3818 -0.2776 -1.5221
33241SOL    HW2 4854   3.697  10.224   0.783  1.0151 -1.0124  0.2732
33242SOL     OW 4855   3.645   9.903   5.145  0.0220  0.0506  0.5119
33242SOL    HW1 4856   3.558   9.939   5.128  0.3703  0.7570  0.2149
33242SOL    HW2 4857   3.668   9.938   5.231  1.3853  2.5639 -0.8253
33243SOL     OW 4858  11.267   3.890   2.161  0.6993  0.0871  0.2223
33243SOL    HW1 4859  11.299   3.849   2.081  0.9924 -2.1680  1.4504
33243SOL    HW2 4860  11.176   3.860   2.168  0.3745  1.0746  0.2088
33244SOL     OW 4861   8.236   9.781  10.330 -0.2792 -0.3603  0.3952
33244SOL    HW1 4862   8.210   9.817  10.415 -4.6362  0.2585 -1.0502
33244SOL    HW2 4863   8.304   9.841  10.298  0.3189  0.2641  2.7633
33245SOL     OW 4864   5.597   0.561   2.390 -0.6023  0.0925 -0.5727
33245SOL    HW1 4865   5.634   0.474   2.378  0.2927  0.4855 -0.7209
33245SOL    HW2 4866   5.666   0.621   2.361 -0.2215  0.9329  1.9345
33246SOL     OW 4867   7.388   1.618   0.235 -0.1825 -0.3114 -0.2504
33246SOL    HW1 4868   7.445   1.571   0.174 -2.2585 -1.7946 -1.1030
33246SOL    HW2 4869   7.352   1.550   0.292 -1.8217  0.4455 -0.3499
33247SOL     OW 4870   4.666   2.214   0.974  0.0150 -0.6935  0.1518
33247SOL    HW1 4871   4.618   2.208   1.057  1.6398  0.2351  1.1703
33247SOL    HW2 4872   4.725   2.139   0.975  1.2180  0.2541  0.5962
33248SOL     OW 4873   3.094   3.820   4.916 -0.3783 -0.1132  0.5184
33248SOL    HW1 4874   3.045   3.738   4.910  0.8181 -1.0334  2.9379
33248SOL    HW2 4875   3.035   3.886   4.880 -1.6379 -1.9043 -0.7724
33249SOL     OW 4876   0.825   3.354  10.905 -0.1641  0.1126 -0.3524
33249SOL    HW1 4877   0.830   3.445  10.933 -1.5317  0.2041 -0.3646
33249SOL    HW2 4878   0.732   3.333  10.908  0.0863 -1.1341 -0.8490
33250SOL     OW 4879  10.355   5.381   4.751  0.3841 -0.3422  0.3029
33250SOL    HW1 4880  10.392   5.462   4.716  0.6350 -1.0785 -1.1594
33250SOL    HW2 4881  10.261   5.399   4.757  0.3651 -0.1306 -0.5438
33251SOL     OW 4882  10.364   1.149   0.611  0.0602 -0.4351  0.2279
33251SOL    HW1 4883  10.285   1.186   0.650  0.8609  1.8140 -0.1986
33251SOL    HW2 4884  10.377   1.200   0.531  1.7136 -1.0408  0.0976
33252SOL     OW 4885   9.852   6.809   5.776  0.3919  0.0870  0.0295
33252SOL    HW1 4886   9.852   6.846   5.864  0.0572 -0.0393  0.0860
33252SOL    HW2 4887   9.776   6.848   5.734  0.8298  0.5168 -0.3645
33253SOL     OW 4888   0.241  10.297   4.916  0.2126 -0.0120  0.0980
33253SOL    HW1 4889   0.220  10.329   5.004  1.6822 -0.5664  0.6698
33253SOL    HW2 4890   0.289  10.370   4.876  0.8952 -0.3366  0.3156
33254SOL     OW 4891  10.667   3.290   1.827 -0.0412 -0.0386  0.0642
33254SOL    HW1 4892  10.660   3.262   1.735  2.8267 -1.1858  0.1612
33254SOL    HW2 4893  10.588   3.255   1.868 -0.9684 -0.2042 -1.7694
33255SOL     OW 4894   0.409   7.611   5.565 -0.2107 -0.7254  0.3750
33255SOL    HW1 4895   0.457   7.528   5.565 -0.0660 -0.6467  1.0111
33255SOL    HW2 4896   0.362   7.611   5.649 -0.3390 -0.2406  0.3040
33256SOL     OW 4897  10.121   3.301   7.020 -0.0831 -0.6187 -0.3735
33256SOL    HW1 4898  10.161   3.319   6.934  0.2818 -1.2796 -0.3434
33256SOL    HW2 4899  10.027   3.310   7.005  0.0867  1.3613 -0.3549
33257SOL     OW 4900   9.702   1.379   0.291 -0.1847 -0.8722  0.3377
33257SOL    HW1 4901   9.691   1.329   0.372 -1.3710 -0.0842  0.6827
33257SOL    HW2 4902   9.777   1.435   0.306 -0.9266 -0.1054  1.2256
33258SOL     OW 4903   8.280  11.159   9.004 -0.1152 -0.6509 -0.0801
33258SOL    HW1 4904   8.207  11.209   9.041 -0.0246 -1.0605  0.6580
33258SOL    HW2 4905   8.336  11.225   8.963 -1.2846 -0.4011 -1.3321
33259SOL     OW 4906   4.685   2.041   6.898 -0.2037  0.1814 -0.6471
33259SOL    HW1 4907   4.677   2.076   6.987 -0.2551 -1.5940  0.0853
33259SOL    HW2 4908   4.780   2.039   6.882 -0.1088 -0.7913 -0.0582
33260SOL     OW 4909   4.687  10.193   4.885 -0.1746  0.5132 -0.1928
33260SOL    HW1 4910   4.754  10.203   4.952 -0.6108  0.5537  0.2346
33260SOL    HW2 4911   4.713  10.256   4.816  2.0875 -1.8097 -1.5584
33261SOL     OW 4912  10.991   8.813   2.061  0.0169  0.1441  0.2062
33261SOL    HW1 4913  11.075   8.851   2.088  0.9848 -2.0777  0.4397
33261SOL    HW2 4914  10.960   8.766   2.139  0.2892 -1.9662 -0.9301
33262SOL     OW 4915   8.976   7.956   7.117  0.1948  0.3204  0.3176
33262SOL    HW1 4916   9.056   7.928   7.160  0.1664 -1.3559 -0.6545
33262SOL    HW2 4917   8.913   7.970   7.188  1.1098  0.8606  1.0218
33263SOL     OW 4918   9.661   1.321   5.206 -0.0582  0.6076 -0.0123
33263SOL    HW1 4919   9.668   1.229   5.232 -1.2475  0.2162 -0.9856
33263SOL    HW2 4920   9.729   1.366   5.255 -0.1258 -0.6361  1.2432
33264SOL     OW 4921   2.490   5.187   7.146 -0.7224  0.0025  0.8376
33264SOL    HW1 4922   2.486   5.093   7.166 -2.2421  0.4505  2.8151
33264SOL    HW2 4923   2.480   5.230   7.231 -3.8275  1.9745 -0.4230
33265SOL     OW 4924   7.691  10.322   2.600 -0.8057  0.0826  0.2306
33265SOL    HW1 4925   7.757  10.350   2.663 -1.1540  1.2079  0.1163
33265SOL    HW2 4926   7.699  10.385   2.528  0.4464 -1.9298 -1.4392
33266SOL     OW 4927   1.862   9.385   1.575  0.5482  0.5877  0.3312
33266SOL    HW1 4928   1.792   9.336   1.619  0.2005  0.8701  0.0981
33266SOL    HW2 4929   1.941   9.363   1.624  0.4184 -0.3220  0.1408
33267SOL     OW 4930   3.313   4.694   8.779 -0.3650 -0.4950 -1.1440
33267SOL    HW1 4931   3.223   4.695   8.812  0.0793  1.2697  0.1053
33267SOL    HW2 4932   3.313   4.759   8.708  0.4912  1.4048  0.5424
33268SOL     OW 4933   9.392   0.847   6.016 -0.5226 -0.1752 -0.4176
33268SOL    HW1 4934   9.406   0.861   6.109 -1.1600  1.2448 -0.5278
33268SOL    HW2 4935   9.440   0.766   5.997  0.2185 -0.0889  0.9864
33269SOL     OW 4936   5.088   9.815   1.585 -0.5141 -0.5257 -0.4018
33269SOL    HW1 4937   5.035   9.769   1.650  0.6272 -0.8002  0.3681
33269SOL    HW2 4938   5.098   9.752   1.513 -0.4762 -0.8014 -0.1532
33270SOL     OW 4939   8.932   6.008   7.052  0.1088  0.0417  0.4786
33270SOL    HW1 4940   8.900   6.018   6.963  0.4236 -0.3780  0.3131
33270SOL    HW2 4941   8.979   6.089   7.070  2.0099 -0.7682 -0.5788
33271SOL     OW 4942   0.143   1.951   3.747  0.9888  0.6006  0.3708
33271SOL    HW1 4943   0.152   1.965   3.841  1.2089 -0.3367  0.5008
33271SOL    HW2 4944   0.163   1.858   3.735 -2.6056 -0.1610 -0.1517
33272SOL     OW 4945   8.885   9.282   6.840 -0.4769  0.2835  0.1056
33272SOL    HW1 4946   8.862   9.353   6.779  4.7387  2.3463  0.2756
33272SOL    HW2 4947   8.874   9.202   6.789 -1.8334  1.5515 -1.6530
33273SOL     OW 4948   9.030   0.096   5.959  0.1755  0.2420  0.1190
33273SOL    HW1 4949   9.019   0.057   5.872  1.1631  1.5083 -0.5988
33273SOL    HW2 4950   9.068   0.027   6.012 -1.0410 -0.7521 -0.2765
33274SOL     OW 4951   6.501   6.808  11.281  0.1255  0.5128  0.1588
33274SOL    HW1 4952   6.414   6.844  11.295 -0.3496 -0.1887 -0.9785
33274SOL    HW2 4953   6.540   6.865  11.215  1.0805  1.7034  1.7095
33275SOL     OW 4954   5.025   1.980   7.247  0.0254  0.1242 -0.1655
33275SOL    HW1 4955   5.101   1.925   7.228 -0.2589 -0.7796  1.2349
33275SOL    HW2 4956   5.022   2.043   7.175  2.1653  0.2433 -0.1705
33276SOL     OW 4957  10.851   1.076   8.522 -0.8027 -0.3339  0.3297
33276SOL    HW1 4958  10.899   1.006   8.566 -0.3877 -0.4008 -0.2335
33276SOL    HW2 4959  10.841   1.046   8.432 -1.8752 -0.3077  0.4317
33277SOL     OW 4960   4.736   4.060   4.828 -1.2939 -0.8729 -0.1721
33277SOL    HW1 4961   4.787   4.140   4.840 -2.2113 -0.1821 -0.8376
33277SOL    HW2 4962   4.703   4.039   4.916  1.0145 -1.9593  0.5022
33278SOL     OW 4963   2.220   6.532   0.374 -0.2112 -0.4525  0.1237
33278SOL    HW1 4964   2.309   6.551   0.403  0.2230 -2.5954  0.2521
33278SOL    HW2 4965   2.165   6.576   0.439  0.7616 -0.7576  1.1789
33279SOL     OW 4966  10.640   5.811   0.616  0.3427 -0.1000 -0.2183
33279SOL    HW1 4967  10.698   5.868   0.665  1.8460 -0.9428 -0.9841
33279SOL    HW2 4968  10.600   5.868   0.551 -0.5190  0.7038  0.9835
33280SOL     OW 4969   8.756  10.534   4.317  0.2588  0.7506 -0.3911
33280SOL    HW1 4970   8.706  10.468   4.270 -1.3393  0.7165  1.2981
33280SOL    HW2 4971   8.819  10.485   4.370 -1.2774  0.4946  1.2655
33281SOL     OW 4972   9.815   4.370   9.412 -0.0581 -0.0025  0.1715
33281SOL    HW1 4973   9.889   4.321   9.448  0.9241  1.1510 -0.2391
33281SOL    HW2 4974   9.817   4.454   9.458 -2.4945 -0.7414  1.7961
33282SOL     OW 4975   2.391   6.299   2.273  0.2067  0.0085 -0.3138
33282SOL    HW1 4976   2.366   6.250   2.195 -1.5259  0.4390 -0.0294
33282SOL    HW2 4977   2.476   6.338   2.250  0.0058 -0.3776 -1.7434
33283SOL     OW 4978   2.370   1.593   8.877 -0.3400  0.0915  0.2634
33283SOL    HW1 4979   2.282   1.588   8.840  0.0729 -0.0259 -0.7033
33283SOL    HW2 4980   2.402   1.679   8.850  0.7831 -0.8631 -1.4928
33284SOL     OW 4981   5.935   2.973   1.851 -0.1453  0.0481  0.5786
33284SOL    HW1 4982   5.973   2.915   1.917  2.0432  0.8137  0.0234
33284SOL    HW2 4983   5.924   2.916   1.774 -0.9695 -0.3906  1.0147
33285SOL     OW 4984   6.040   9.410   1.106  0.2081 -0.1204 -0.0553
33285SOL    HW1 4985   6.082   9.431   1.190  0.3484  1.5836 -0.5433
33285SOL    HW2 4986   6.032   9.494   1.061  0.3530 -1.0477 -1.8656
33286SOL     OW 4987   9.797   1.212   8.805  0.1251 -0.4921  0.3062
33286SOL    HW1 4988   9.772   1.175   8.720 -0.1833  0.6432 -0.1073
33286SOL    HW2 4989   9.745   1.291   8.813  1.6022  0.4582  0.6644
33287SOL     OW 4990   1.218   8.953   6.975  0.2756  0.1930 -0.2423
33287SOL    HW1 4991   1.229   8.881   6.912  0.2360  1.5783 -1.8626
33287SOL    HW2 4992   1.213   9.031   6.921 -2.7157  1.1487  1.3118
33288SOL     OW 4993   9.425   3.715   5.204  0.0618 -0.1935  0.6317
33288SOL    HW1 4994   9.461   3.664   5.276 -0.2400 -0.1693  0.8002
33288SOL    HW2 4995   9.336   3.735   5.231 -0.4899 -1.2996 -0.3214
33289SOL     OW 4996   3.005   1.168   7.303  0.2788 -0.4333 -0.4466
33289SOL    HW1 4997   3.056   1.100   7.259 -1.0758 -0.7857 -1.4769
33289SOL    HW2 4998   3.054   1.249   7.286  1.2659 -0.9665 -0.1892
33290SOL     OW 4999   4.428   9.559  10.709 -0.2509  0.5621  0.2562
33290SOL    HW1 5000   4.445   9.471  10.743 -0.8281  0.8032  1.1893
33290SOL    HW2 5001   4.481   9.564  10.629 -1.0246 -1.0075 -0.3913
33291SOL     OW 5002  10.981   5.851  10.239  0.2848  0.4964  0.4515
33291SOL    HW1 5003  10.890   5.844  10.211  0.2812  0.3881  0.4922
33291SOL    HW2 5004  10.992   5.944  10.261  0.2117  0.5273  0.3529
33292SOL     OW 5005   3.459   5.322   8.254 -0.7906 -0.2481 -0.5188
33292SOL    HW1 5006   3.405   5.382   8.203 -0.4403  0.3585 -0.1866
33292SOL    HW2 5007   3.412   5.238   8.250 -1.2264  0.0165 -1.0766
33293SOL     OW 5008   3.396  10.182   0.387  0.6201 -0.1331 -0.0750
33293SOL    HW1 5009   3.429  10.262   0.427 -0.6391 -0.5128  1.7825
33293SOL    HW2 5010   3.433  10.111   0.440 -1.4034 -0.6289  0.7238
33294SOL     OW 5011   2.541   6.085   7.719 -0.7609  0.6841 -0.2089
33294SOL    HW1 5012   2.527   6.159   7.659 -0.5266  1.4868  0.7077
33294SOL    HW2 5013   2.569   6.126   7.801 -2.1128 -0.3252  0.7847
33295SOL     OW 5014   0.181  10.312   4.582  0.3727  0.8043  0.0815
33295SOL    HW1 5015   0.168  10.285   4.673  0.2100  0.1668 -0.1269
33295SOL    HW2 5016   0.092  10.321   4.547  0.4460  0.1104 -0.2848
33296SOL     OW 5017   9.305   8.968   2.753 -0.0089 -0.1951 -0.3885
33296SOL    HW1 5018   9.340   8.928   2.833  0.6952 -0.3122 -0.7484
33296SOL    HW2 5019   9.249   8.901   2.715 -1.0986  0.2053  0.5026
33297SOL     OW 5020   5.033   4.173   5.840 -0.4408  0.2967 -0.0734
33297SOL    HW1 5021   5.056   4.082   5.854 -0.7191  0.4814  1.8017
33297SOL    HW2 5022   5.022   4.209   5.928 -2.1333  1.6686 -0.7972
33298SOL     OW 5023   6.465   8.706  10.584 -0.2258 -0.5221  0.2570
33298SOL    HW1 5024   6.408   8.681  10.656 -0.6341 -0.8818 -0.1878
33298SOL    HW2 5025   6.487   8.797  10.601  0.2664 -0.8092  1.2246
33299SOL     OW 5026   5.508   1.607   2.926 -0.1204  0.5369 -0.3460
33299SOL    HW1 5027   5.432   1.582   2.874  0.7938  0.0095 -1.4481
33299SOL    HW2 5028   5.471   1.643   3.007 -1.5334 -0.8092 -0.3660
33300SOL     OW 5029   7.193   2.636   2.138  0.1392  0.3219  0.1264
33300SOL    HW1 5030   7.274   2.686   2.131  0.3406 -0.0444 -0.2024
33300SOL    HW2 5031   7.169   2.616   2.047  0.3739 -0.6653  0.2737
33301SOL     OW 5032   9.876  11.098   9.930  0.5055 -0.1558 -0.1207
33301SOL    HW1 5033   9.812  11.107  10.001 -3.5217 -0.6965 -3.5003
33301SOL    HW2 5034   9.900  11.187   9.907 -0.1223  0.1105  0.2542
33302SOL     OW 5035   2.111  11.286   2.417 -0.2282  0.1904 -0.1773
33302SOL    HW1 5036   2.122  11.259   2.326 -0.4595  0.0620 -0.1662
33302SOL    HW2 5037   2.196  11.268   2.458 -0.2639 -0.1679 -0.2596
33303SOL     OW 5038   8.931   2.652   7.142  0.5622 -0.0268  0.7142
33303SOL    HW1 5039   8.847   2.668   7.099  0.1792 -0.1697  1.4035
33303SOL    HW2 5040   8.908   2.635   7.233  1.5589  2.8303  1.5527
33304SOL     OW 5041   1.623   3.409   2.589  0.0290  0.1364 -0.0583
33304SOL    HW1 5042   1.545   3.356   2.575 -0.1367  0.3659 -0.0111
33304SOL    HW2 5043   1.688   3.373   2.529  0.1569 -0.6070  0.5237
33305SOL     OW 5044   4.948   0.304   5.478 -0.1424  0.5538  0.1210
33305SOL    HW1 5045   4.872   0.341   5.433 -1.1406 -0.5153  0.8759
33305SOL    HW2 5046   4.982   0.376   5.531 -1.8304  0.5438  1.2776
33306SOL     OW 5047   9.461  11.053   4.862  0.3354  0.4030 -0.3498
33306SOL    HW1 5048   9.374  11.049   4.900  0.3810 -2.7632 -0.4422
33306SOL    HW2 5049   9.469  11.142   4.828 -2.9746  0.6385 -0.6321
33307SOL     OW 5050   2.391   6.195   2.528  0.3606  0.9043 -0.3193
33307SOL    HW1 5051   2.402   6.115   2.580 -1.2739  0.3513 -0.7747
33307SOL    HW2 5052   2.478   6.234   2.524  1.1465 -0.7735  0.0561
33308SOL     OW 5053   3.408   4.771  10.225  0.1707 -0.1035 -0.0387
33308SOL    HW1 5054   3.377   4.790  10.136 -0.1832  0.4086  0.1971
33308SOL    HW2 5055   3.446   4.854  10.255  1.3971 -0.5969 -0.1674
33309SOL     OW 5056   8.925  10.683   9.013  0.3381  0.3825 -1.0914
33309SOL    HW1 5057   8.938  10.776   8.997  0.2257  0.8599  1.3820
33309SOL    HW2 5058   8.843  10.678   9.062 -0.2296 -1.1180 -2.1677
33310SOL     OW 5059  11.119   1.270   3.872  0.2593 -0.1142 -0.0976
33310SOL    HW1 5060  11.113   1.314   3.957 -1.4331  1.7018 -1.1220
33310SOL    HW2 5061  11.074   1.187   3.886 -2.1044  1.1586  0.1977
33311SOL     OW 5062   1.914  10.955   7.121 -0.4360 -0.1022  0.0917
33311SOL    HW1 5063   1.836  10.925   7.168  0.1584 -1.1812  0.4147
33311SOL    HW2 5064   1.925  11.045   7.149 -0.1706 -0.6876  1.9525
33312SOL     OW 5065   7.200   2.645  10.939  0.5419 -0.1325  0.2486
33312SOL    HW1 5066   7.232   2.565  10.896 -0.6052 -0.7478  0.5182
33312SOL    HW2 5067   7.277   2.682  10.982  1.4573 -0.1560 -1.3336
33313SOL     OW 5068   3.462  10.933  10.182  0.7095  0.1243 -0.3071
33313SOL    HW1 5069   3.537  10.875  10.199  0.4825 -0.0352  0.1544
33313SOL    HW2 5070   3.501  11.015  10.151  1.0372 -0.2630 -0.9358
33314SOL     OW 5071   1.641   4.221   2.522 -0.2064  0.1671  0.0622
33314SOL    HW1 5072   1.668   4.157   2.588  2.0801 -0.5110 -1.4577
33314SOL    HW2 5073   1.622   4.300   2.572  2.7923  0.0875  1.4920
33315SOL     OW 5074   4.371   0.472   3.871 -0.1852  0.0307  0.0503
33315SOL    HW1 5075   4.341   0.455   3.782  0.0240 -0.3520  0.0552
33315SOL    HW2 5076   4.370   0.387   3.914  2.7296 -0.3444 -0.4922
33316SOL     OW 5077   1.367   9.974  11.181  0.3206  0.0933 -0.2587
33316SOL    HW1 5078   1.458   9.948  11.186  0.7733  1.9761  2.3233
33316SOL    HW2 5079   1.354  10.000  11.090  2.5197  0.3818 -0.4986
33317SOL     OW 5080   8.967   2.009   1.378  0.0624  1.0287 -0.2846
33317SOL    HW1 5081   8.980   2.103   1.392 -0.8595  1.5692 -2.8863
33317SOL    HW2 5082   8.922   2.003   1.294 -1.4304 -1.6677  0.6626
33318SOL     OW 5083   3.295   6.216   3.296 -0.2119  0.5035 -0.0132
33318SOL    HW1 5084   3.203   6.232   3.276 -0.6174  0.8909  2.0117
33318SOL    HW2 5085   3.310   6.262   3.379  1.3687 -0.9156  0.5296
33319SOL     OW 5086   8.408  10.137   2.296 -0.1206  0.1355  0.3773
33319SOL    HW1 5087   8.478  10.136   2.230 -0.3370  1.9211  0.0799
33319SOL    HW2 5088   8.327  10.133   2.245 -0.2568 -0.0590  0.6106
33320SOL     OW 5089   2.539  10.046   2.545  0.0343 -0.1940 -0.4575
33320SOL    HW1 5090   2.452  10.007   2.552 -0.4396  0.8561 -0.4662
33320SOL    HW2 5091   2.547  10.070   2.453 -0.1669  0.8533 -0.2062
33321SOL     OW 5092   9.286   1.346   0.084  0.2367 -0.0579 -0.2879
33321SOL    HW1 5093   9.318   1.273   0.138  2.0901 -0.5973 -2.0332
33321SOL    HW2 5094   9.320   1.327  -0.003 -3.2390  0.4722 -1.7984
33322SOL     OW 5095   4.694  10.792  11.301 -0.3844 -0.2495  0.0036
33322SOL    HW1 5096   4.666  10.884  11.305 -0.0277 -0.1635  0.5042
33322SOL    HW2 5097   4.760  10.784  11.369 -0.7232 -0.9901  0.2490
33323SOL     OW 5098   0.350  10.523   1.978 -0.0188  0.2519 -0.2883
33323SOL    HW1 5099   0.435  10.508   1.937 -0.5254  0.5901 -1.4740
33323SOL    HW2 5100   0.287  10.520   1.906 -0.8684  1.2957  0.3836
33324SOL     OW 5101   4.999   4.294   6.718 -0.5716  0.1279 -0.6446
33324SOL    HW1 5102   5.029   4.382   6.695 -1.8893  0.6044 -0.6005
33324SOL    HW2 5103   4.957   4.306   6.803  1.0672 -0.9426  0.3503
33325SOL     OW 5104   8.357   2.396  10.370  0.0246  0.1961 -0.3930
33325SOL    HW1 5105   8.396   2.447  10.299 -0.9618  1.4685 -0.0393
33325SOL    HW2 5106   8.265   2.387  10.346 -0.4398  1.0906  0.9693
33326SOL     OW 5107   4.549   5.233   9.921 -0.1183  0.1949  0.1326
33326SOL    HW1 5108   4.576   5.145   9.947 -0.6088 -0.5459 -1.8267
33326SOL    HW2 5109   4.488   5.260   9.990  0.9034 -0.5323  1.3406
33327SOL     OW 5110   4.462   6.206   6.304 -0.8060 -0.0909  0.2218
33327SOL    HW1 5111   4.537   6.229   6.359  0.2807 -0.0494 -1.2351
33327SOL    HW2 5112   4.480   6.117   6.274 -2.1925 -0.7257  1.2415
33328SOL     OW 5113   1.149   2.597   6.013  0.0153 -0.0213 -0.0746
33328SOL    HW1 5114   1.177   2.642   5.934  0.2546  0.2293  0.1538
33328SOL    HW2 5115   1.115   2.513   5.982 -1.8665  0.9291 -0.6538
33329SOL     OW 5116   9.304   1.006   7.366  0.3395  0.0121 -0.1086
33329SOL    HW1 5117   9.225   1.032   7.414  0.4785  1.3127 -0.5746
33329SOL    HW2 5118   9.377   1.034   7.421  0.4911  0.8693 -0.7300
33330SOL     OW 5119   8.770   3.586  10.074  0.1434  0.2044  0.0298
33330SOL    HW1 5120   8.850   3.553  10.115  1.7148  3.1701 -0.5654
33330SOL    HW2 5121   8.796   3.667  10.031 -2.9974  0.7367 -1.0029
33331SOL     OW 5122   2.397  10.688   0.304 -0.0692  0.1644 -0.3718
33331SOL    HW1 5123   2.319  10.633   0.313  0.9013 -1.3153 -0.8534
33331SOL    HW2 5124   2.462  10.630   0.265  1.3718  1.2969  0.3443
33332SOL     OW 5125   0.307   2.200   7.554  0.5055  0.7987 -0.6477
33332SOL    HW1 5126   0.380   2.255   7.525  1.8771 -1.5248 -1.7529
33332SOL    HW2 5127   0.304   2.214   7.649  0.1428  3.5327 -1.0177
33333SOL     OW 5128   8.808   6.811   1.473  0.1390  0.1307  0.0340
33333SOL    HW1 5129   8.819   6.906   1.462 -1.4352  0.3749  0.3773
33333SOL    HW2 5130   8.816   6.796   1.567  0.1200 -0.0274  0.0111
33334SOL     OW 5131  10.075   3.384   6.459  0.1507 -0.5631  0.3440
33334SOL    HW1 5132  10.101   3.416   6.373 -0.1876 -1.1638  0.0178
33334SOL    HW2 5133   9.988   3.421   6.473 -0.2024 -1.2640  0.0052
33335SOL     OW 5134   8.724   8.139   6.499 -0.0963  0.2076  0.1990
33335SOL    HW1 5135   8.774   8.191   6.436 -1.1751  0.7707 -0.2270
33335SOL    HW2 5136   8.776   8.141   6.579 -0.3132  2.3670  0.3314
33336SOL     OW 5137  10.825   9.184   3.653  0.2858  0.6509  0.9315
33336SOL    HW1 5138  10.897   9.235   3.615  2.2822 -1.8842  1.1809
33336SOL    HW2 5139  10.791   9.134   3.579  0.6532 -0.2794  1.3889
33337SOL     OW 5140   9.834   1.774  10.108  0.0716 -0.1962  0.1913
33337SOL    HW1 5141   9.759   1.756  10.165  0.6184 -2.0485  0.3750
33337SOL    HW2 5142   9.907   1.787  10.169  0.3411 -0.6224 -0.0419
33338SOL     OW 5143   4.612   0.884   7.789 -0.2375  0.2633 -0.2139
33338SOL    HW1 5144   4.606   0.803   7.739  1.1779 -0.4114  0.6512
33338SOL    HW2 5145   4.684   0.932   7.748  0.8760 -0.2582  1.0927
33339SOL     OW 5146   4.502   6.324   2.600 -0.2072 -0.1007 -0.1384
33339SOL    HW1 5147   4.515   6.296   2.509 -0.7327 -2.0277  0.3735
33339SOL    HW2 5148   4.581   6.293   2.646 -0.2153  0.3541  0.1861
33340SOL     OW 5149   8.109  10.417   0.193 -0.1566 -0.2135  0.1657
33340SOL    HW1 5150   8.199  10.441   0.169 -0.1795  0.5410  0.8184
33340SOL    HW2 5151   8.070  10.387   0.111  0.7939 -0.8689 -0.0525
33341SOL     OW 5152   4.920   7.410   7.205 -0.9316  0.0754  0.2377
33341SOL    HW1 5153   4.874   7.446   7.130 -0.2545 -2.4749 -1.4412
33341SOL    HW2 5154   5.004   7.458   7.206 -0.9434  0.1232 -0.6261
33342SOL     OW 5155   2.123  10.773   1.628 -0.1267 -0.7043  0.5389
33342SOL    HW1 5156   2.095  10.769   1.536  0.3270 -0.6769  0.3991
33342SOL    HW2 5157   2.107  10.685   1.662  0.0077 -0.8031  0.3457
33343SOL     OW 5158   8.406   8.512  10.657  0.2842  0.1700  0.2491
33343SOL    HW1 5159   8.353   8.528  10.735  2.4817  0.0589  1.8174
33343SOL    HW2 5160   8.367   8.435  10.617 -0.0658 -0.5727  1.9836
33344SOL     OW 5161   3.048  11.079   4.835  0.6318 -0.0606 -0.1005
33344SOL    HW1 5162   3.111  11.016   4.800 -0.8196  0.0759 -3.0463
33344SOL    HW2 5163   3.084  11.165   4.811  1.1243  0.1601  1.3737
33345SOL     OW 5164   4.009   2.996   2.956 -0.0045 -0.4400 -0.1229
33345SOL    HW1 5165   4.058   2.922   2.992  0.1639  0.2864  1.1918
33345SOL    HW2 5166   4.021   3.066   3.021  0.0681  0.8274 -1.4786
33346SOL     OW 5167   0.749   7.507   3.249 -0.6531 -0.2657 -0.4795
33346SOL    HW1 5168   0.712   7.427   3.288 -1.1167  0.0056 -0.3599
33346SOL    HW2 5169   0.695   7.578   3.284  0.3688  0.1939  0.1588
33347SOL     OW 5170   8.860   3.381   1.132 -0.3934 -0.1059 -0.4322
33347SOL    HW1 5171   8.896   3.324   1.200  0.0654  0.7026  0.0050
33347SOL    HW2 5172   8.771   3.348   1.118 -0.9456  0.5209  1.4748
33348SOL     OW 5173  10.773   2.047   1.718  0.6034  0.1872 -0.1754
33348SOL    HW1 5174  10.866   2.069   1.708  0.5399  0.8871  0.7340
33348SOL    HW2 5175  10.730   2.131   1.732 -0.2161 -0.1096 -0.8507
33349SOL     OW 5176   8.676   6.693   4.607  0.2265 -0.0217  0.1376
33349SOL    HW1 5177   8.732   6.748   4.552 -0.1982  0.5840  0.2995
33349SOL    HW2 5178   8.604   6.751   4.633  0.1602 -0.4471  0.9167
33350SOL     OW 5179  10.703   7.396   2.728  0.3132  0.2321 -0.1033
33350SOL    HW1 5180  10.647   7.428   2.800  0.1260  0.9347 -0.5610
33350SOL    HW2 5181  10.724   7.474   2.677  0.3987 -0.2770 -0.8528
33351SOL     OW 5182   9.773   5.735   1.798  0.3367  0.1384  0.0931
33351SOL    HW1 5183   9.737   5.656   1.757  0.5585  0.5243 -0.8388
33351SOL    HW2 5184   9.856   5.749   1.754 -0.3422  1.6903 -0.7078
33352SOL     OW 5185   9.934   4.002   8.778  0.0689 -0.1182 -0.1315
33352SOL    HW1 5186   9.872   3.957   8.836  0.7414  0.1604  0.8094
33352SOL    HW2 5187   9.879   4.047   8.714 -0.7060  0.2616  0.7986
33353SOL     OW 5188   3.397   5.579   3.533 -0.4340 -0.1165 -0.5195
33353SOL    HW1 5189   3.390   5.510   3.599 -1.5952 -0.5955 -1.1363
33353SOL    HW2 5190   3.420   5.533   3.452  0.1280  0.3769 -0.6427
33354SOL     OW 5191   9.440   2.972   2.679 -0.3144  0.4120  0.0127
33354SOL    HW1 5192   9.418   2.880   2.666  1.4712  0.0223 -0.3396
33354SOL    HW2 5193   9.356   3.013   2.701 -1.0263 -1.4087  0.8660
33355SOL     OW 5194   0.345   0.156   6.785  0.6392  0.2350  0.0646
33355SOL    HW1 5195   0.427   0.176   6.740  0.1184 -0.3428 -1.1788
33355SOL    HW2 5196   0.311   0.242   6.811  0.3557  0.6925 -1.7385
33356SOL     OW 5197   7.035   1.332   1.175 -0.0527 -0.3218  0.3445
33356SOL    HW1 5198   7.036   1.424   1.204 -1.2233 -0.4236  0.7551
33356SOL    HW2 5199   7.098   1.288   1.232  2.9234  0.8011 -1.9357
33357SOL     OW 5200   3.887   5.737   4.976  0.0754 -0.0649  0.4355
33357SOL    HW1 5201   3.889   5.660   4.920  0.6635 -0.0025  0.3670
33357SOL    HW2 5202   3.947   5.716   5.048  1.3608  0.8980 -0.3429
33358SOL     OW 5203   8.615   5.157   3.910 -0.1991  0.0011 -0.1180
33358SOL    HW1 5204   8.679   5.213   3.865 -0.6324 -1.2959 -2.4236
33358SOL    HW2 5205   8.657   5.135   3.993  2.6794 -1.3811 -1.8524
33359SOL     OW 5206   4.140   2.222   5.040 -0.0471 -0.4928  0.1943
33359SOL    HW1 5207   4.095   2.159   4.983 -1.3377 -1.3234  2.1048
33359SOL    HW2 5208   4.077   2.293   5.051  0.6484  0.2149 -0.3323
33360SOL     OW 5209   0.911   4.321   4.830  0.7942  0.2106 -0.3642
33360SOL    HW1 5210   0.858   4.274   4.894  0.4574  0.6215 -0.3351
33360SOL    HW2 5211   0.959   4.253   4.783 -0.7292 -0.2632 -1.2622
33361SOL     OW 5212   0.742   1.674   6.393  0.6215  0.0281  0.4910
33361SOL    HW1 5213   0.828   1.662   6.353  0.2959  0.9604 -0.5214
33361SOL    HW2 5214   0.681   1.662   6.320 -0.0853 -0.1357  1.1052
33362SOL     OW 5215   4.953   5.280   0.898 -0.4815  0.3185  0.5783
33362SOL    HW1 5216   5.015   5.250   0.965  0.6404 -0.6520 -0.8810
33362SOL    HW2 5217   4.925   5.201   0.853 -0.5133  1.0563 -0.7236
33363SOL     OW 5218   6.978  10.922   7.592 -0.0003  0.4074  0.5697
33363SOL    HW1 5219   6.903  10.976   7.567  0.3764 -0.4763 -2.6292
33363SOL    HW2 5220   6.939  10.838   7.616 -0.1579  0.3735  0.2046
33364SOL     OW 5221   4.431   8.003   0.646 -0.9615 -0.6590  0.2659
33364SOL    HW1 5222   4.465   8.018   0.557  0.3454  1.8562  1.1445
33364SOL    HW2 5223   4.509   7.990   0.699 -1.6751 -0.6190  1.3288
33365SOL     OW 5224   7.934   8.327   0.826  0.2906 -0.0450  0.5180
33365SOL    HW1 5225   7.993   8.279   0.769  0.0435  1.3455 -0.9776
33365SOL    HW2 5226   7.974   8.414   0.835  0.3127 -0.2309  2.4770
33366SOL     OW 5227  10.141   7.324   4.538  0.4446  0.3140 -0.3444
33366SOL    HW1 5228  10.232   7.301   4.555  0.5229  0.2649 -0.8162
33366SOL    HW2 5229  10.109   7.358   4.621  0.3685 -1.3709  0.3428
33367SOL     OW 5230   8.702   0.823   5.322 -0.1943  0.3670  0.2559
33367SOL    HW1 5231   8.638   0.753   5.307  2.6817 -2.0226 -1.3581
33367SOL    HW2 5232   8.775   0.801   5.264  2.2481  2.8089  2.3077
33368SOL     OW 5233   1.051   2.508   9.855 -0.7573 -0.2077  0.0667
33368SOL    HW1 5234   1.042   2.552   9.940 -0.5880  0.0915 -0.0654
33368SOL    HW2 5235   1.140   2.474   9.855 -0.3708  0.7664 -0.4372
33369SOL     OW 5236   7.105   9.226   4.067 -0.2333 -0.1565  0.4726
33369SOL    HW1 5237   7.196   9.216   4.095 -0.1643 -0.1281  0.2652
33369SOL    HW2 5238   7.068   9.289   4.128  0.2283  0.7625 -0.1811
33370SOL     OW 5239   6.720  10.319   2.770  0.6553 -0.0913 -0.7579
33370SOL    HW1 5240   6.801  10.368   2.757  1.0801 -0.7752 -0.7542
33370SOL    HW2 5241   6.661  10.379   2.816  1.7806 -0.1762  0.8396
33371SOL     OW 5242   7.533   0.068   4.852  0.0563 -0.3152  0.2999
33371SOL    HW1 5243   7.579   0.015   4.787  2.3421  0.4742  1.2214
33371SOL    HW2 5244   7.504   0.146   4.804  0.2085 -0.5353 -0.1495
33372SOL     OW 5245   7.907   2.326   0.845  0.4422  0.0765 -0.2488
33372SOL    HW1 5246   7.938   2.413   0.867  0.4092 -0.4007  1.8112
33372SOL    HW2 5247   7.948   2.269   0.910 -0.2146 -1.3256 -1.0367
33373SOL     OW 5248   2.757   4.816   3.629  0.2385  0.3105 -0.4007
33373SOL    HW1 5249   2.824   4.790   3.566 -1.0969 -1.3096 -1.1962
33373SOL    HW2 5250   2.707   4.884   3.583 -0.7332 -0.8689 -1.1064
33374SOL     OW 5251   1.866   2.354   5.686 -0.0584  0.0706  0.2761
33374SOL    HW1 5252   1.784   2.312   5.710  0.4257 -0.8400  0.3615
33374SOL    HW2 5253   1.933   2.287   5.698  0.5827  0.4930 -0.7405
33375SOL     OW 5254   2.767  10.634   6.770 -0.5086  0.4505 -0.2265
33375SOL    HW1 5255   2.851  10.613   6.810  0.0388  1.6274 -0.7417
33375SOL    HW2 5256   2.712  10.558   6.789  0.5450 -0.1557  0.4543
33376SOL     OW 5257   4.454   5.781   0.100 -0.1180  0.0139 -0.4373
33376SOL    HW1 5258   4.524   5.736   0.052  1.4285  2.2346 -0.3420
33376SOL    HW2 5259   4.498   5.819   0.176 -2.1162 -1.5453  1.5602
33377SOL     OW 5260   7.572   1.250   0.089 -0.3945 -0.0609 -0.0114
33377SOL    HW1 5261   7.588   1.214   0.176  0.1330 -0.0767 -0.1134
33377SOL    HW2 5262   7.644   1.216   0.035 -0.2745  0.5917 -0.2703
33378SOL     OW 5263   5.748   2.608   3.420  0.2682  0.0889  0.1298
33378SOL    HW1 5264   5.714   2.521   3.399 -0.8543  0.2623  1.1375
33378SOL    HW2 5265   5.820   2.621   3.359 -0.7189 -0.7883 -1.2627
33379SOL     OW 5266   4.622   6.409   3.998 -0.1389 -0.5329 -0.2164
33379SOL    HW1 5267   4.581   6.381   3.916  0.4992  0.9398 -1.0486
33379SOL    HW2 5268   4.706   6.363   3.999 -0.1354 -0.5303 -0.3909
33380SOL     OW 5269   9.056   3.697   3.245 -0.5704 -0.1891  0.4408
33380SOL    HW1 5270   9.140   3.655   3.264 -0.3639 -0.4920 -1.0592
33380SOL    HW2 5271   9.076   3.791   3.242 -0.2306 -0.2705 -0.0784
33381SOL     OW 5272   4.623   0.746   7.180  0.3136 -0.2699 -0.3408
33381SOL    HW1 5273   4.597   0.835   7.202  0.2895 -0.4853  0.5285
33381SOL    HW2 5274   4.611   0.696   7.261  0.2502 -1.0813 -0.8378
33382SOL     OW 5275   4.880  11.088   3.691  0.4914  0.3079  0.0438
33382SOL    HW1 5276   4.794  11.101   3.653  0.0344  1.4349  1.4205
33382SOL    HW2 5277   4.863  11.053   3.778  1.3425  1.9336  0.8950
33383SOL     OW 5278   4.285   2.115   0.922  0.3969  0.1744  0.2304
33383SOL    HW1 5279   4.360   2.171   0.901  2.3562 -1.3341  2.8102
33383SOL    HW2 5280   4.254   2.083   0.838  3.6493 -0.3857 -0.8211
33384SOL     OW 5281   8.089   9.608   8.084  0.3383  0.1679 -0.6517
33384SOL    HW1 5282   8.019   9.544   8.073 -0.2877  0.8206 -0.5091
33384SOL    HW2 5283   8.079   9.668   8.010 -0.0416  0.9857  0.0501
33385SOL     OW 5284   3.334   5.064   2.398 -0.0529  0.0241  0.0138
33385SOL    HW1 5285   3.420   5.023   2.412  1.6357  3.5543  0.5944
33385SOL    HW2 5286   3.310   5.037   2.309  2.1379 -0.2296 -0.5425
33386SOL     OW 5287   6.954   1.082   5.774  0.2382 -0.0953 -0.0046
33386SOL    HW1 5288   6.878   1.024   5.762 -0.5422  0.6521  1.1539
33386SOL    HW2 5289   7.019   1.049   5.713 -0.5635 -1.5655 -0.1040
33387SOL     OW 5290   9.875   0.781   0.237  0.1232  0.0400 -0.3005
33387SOL    HW1 5291   9.849   0.691   0.254 -1.4694  0.6395  0.5389
33387SOL    HW2 5292   9.800   0.820   0.191  0.5511  1.1013 -0.1273
33388SOL     OW 5293   9.854   9.660   2.692 -0.4528  0.5193 -0.4354
33388SOL    HW1 5294   9.895   9.586   2.649  0.7592  1.2596 -0.5698
33388SOL    HW2 5295   9.926   9.721   2.710 -1.1293  0.7959  1.4516
33389SOL     OW 5296  10.196   3.426   4.614  0.4669 -0.4556  0.3146
33389SOL    HW1 5297  10.186   3.373   4.534  0.3698 -0.1797  0.1418
33389SOL    HW2 5298  10.220   3.513   4.582 -1.5752  0.1934  0.4681
33390SOL     OW 5299   2.337   6.268   5.497  0.3184  0.5205 -0.1579
33390SOL    HW1 5300   2.401   6.328   5.457  0.8926  0.3308  0.4807
33390SOL    HW2 5301   2.252   6.311   5.483  0.5113  0.4809 -1.5472
33391SOL     OW 5302   8.618   4.639   1.089 -0.3781  0.1727  0.1128
33391SOL    HW1 5303   8.669   4.577   1.142  0.6166  1.8939  1.2387
33391SOL    HW2 5304   8.618   4.602   1.001 -0.0091 -1.5336  0.8206
33392SOL     OW 5305   7.124   5.810   4.426 -0.4171  0.3800 -0.1403
33392SOL    HW1 5306   7.215   5.815   4.455 -0.6204 -1.1246  0.8143
33392SOL    HW2 5307   7.073   5.836   4.503 -0.8352  0.0686 -0.3078
33393SOL     OW 5308  10.842   2.688   3.326  0.7734 -0.0929  0.3357
33393SOL    HW1 5309  10.901   2.745   3.277 -1.1748 -0.1032 -2.1191
33393SOL    HW2 5310  10.883   2.601   3.321  2.1881  0.4796  1.4837
33394SOL     OW 5311   8.463   2.129   4.320 -0.1536  0.2564  0.1087
33394SOL    HW1 5312   8.523   2.086   4.258 -0.2007  1.1015 -0.5277
33394SOL    HW2 5313   8.376   2.099   4.294 -0.0048 -1.0827  1.1221
33395SOL     OW 5314   9.359   1.272   0.583 -0.2770  0.0408  0.1925
33395SOL    HW1 5315   9.275   1.228   0.573  0.1146 -0.4647 -0.8482
33395SOL    HW2 5316   9.353   1.316   0.669 -1.3382 -0.5379  0.4153
33396SOL     OW 5317   4.708   5.818   6.033 -0.0774  0.8887  0.2508
33396SOL    HW1 5318   4.767   5.779   6.098 -0.7707  3.1329  2.2917
33396SOL    HW2 5319   4.763   5.877   5.983  0.3108 -0.3379 -0.8117
33397SOL     OW 5320   8.166   6.802   3.988 -0.1218 -0.1649 -0.4717
33397SOL    HW1 5321   8.110   6.832   3.916 -1.0017 -0.7025 -0.0256
33397SOL    HW2 5322   8.107   6.799   4.064  1.1390  1.8634  0.6429
33398SOL     OW 5323   7.745   3.661   4.361  0.0219 -0.2725  0.2891
33398SOL    HW1 5324   7.664   3.710   4.350  0.8710  1.1413  0.2396
33398SOL    HW2 5325   7.753   3.609   4.280 -1.1131 -0.8546  0.5460
33399SOL     OW 5326  10.452   7.304   7.913  0.0986 -0.1656 -0.2607
33399SOL    HW1 5327  10.432   7.216   7.943 -0.2521  0.4994  1.5121
33399SOL    HW2 5328  10.406   7.311   7.829 -0.8746 -1.2527  0.1641
33400SOL     OW 5329   6.858   0.629   2.936  0.3181 -0.1145 -0.0455
33400SOL    HW1 5330   6.854   0.719   2.903  1.6811 -0.8148 -2.2352
33400SOL    HW2 5331   6.948   0.617   2.965  0.2245 -0.8406 -0.0327
33401SOL     OW 5332   2.977   9.748   2.629  0.9436  0.7369 -0.0551
33401SOL    HW1 5333   2.952   9.727   2.539  4.0102 -1.1873 -0.5074
33401SOL    HW2 5334   2.950   9.672   2.680  2.1794  0.4142  0.1187
33402SOL     OW 5335   1.442   6.946   4.224  0.2697  0.1878 -0.5460
33402SOL    HW1 5336   1.375   6.881   4.201  0.7141 -0.8150  0.9117
33402SOL    HW2 5337   1.422   7.022   4.168 -1.7198 -0.3039 -0.5470
33403SOL     OW 5338   0.328   0.950   0.722  0.2624  0.8114 -0.2763
33403SOL    HW1 5339   0.273   0.933   0.797  0.3714  0.5651 -0.2519
33403SOL    HW2 5340   0.375   1.031   0.744  1.3975 -0.0620  0.5527
33404SOL     OW 5341  10.180   5.174   4.369  0.1550 -0.7303  0.0201
33404SOL    HW1 5342  10.227   5.247   4.409 -1.2422  0.2370 -0.0506
33404SOL    HW2 5343  10.248   5.121   4.328  1.1022  1.0774 -0.8070
33405SOL     OW 5344   1.551  10.610   6.431 -0.6958  0.0374 -0.1755
33405SOL    HW1 5345   1.457  10.609   6.451 -1.2888 -1.1567 -2.7195
33405SOL    HW2 5346   1.557  10.562   6.348  2.4234 -1.7787  1.0294
33406SOL     OW 5347   9.955   9.473   6.362  0.0174 -0.4926  0.1510
33406SOL    HW1 5348   9.954   9.568   6.351  0.8719 -0.5026 -0.0322
33406SOL    HW2 5349  10.047   9.450   6.370 -0.3426 -0.9414  3.4985
33407SOL     OW 5350   0.794   2.215   5.667  0.0193 -0.4122 -0.4539
33407SOL    HW1 5351   0.845   2.156   5.612  1.1299 -1.0580  1.2023
33407SOL    HW2 5352   0.851   2.292   5.677  0.0373 -0.5015  0.1594
33408SOL     OW 5353   3.289   6.270   1.344  0.2735 -0.5900  0.5476
33408SOL    HW1 5354   3.335   6.354   1.342  0.3411 -0.6364  0.1625
33408SOL    HW2 5355   3.321   6.224   1.267 -2.0079  0.2172 -0.9103
33409SOL     OW 5356   5.388   8.358  10.993  0.2336 -0.1314 -0.0530
33409SOL    HW1 5357   5.403   8.401  11.077 -0.3828 -0.9067  0.4634
33409SOL    HW2 5358   5.425   8.270  11.004 -0.5079 -0.4846 -0.3409
33410SOL     OW 5359   9.217   4.071  10.590 -0.2862  0.1568  0.0885
33410SOL    HW1 5360   9.250   4.143  10.644 -0.7373 -1.7021  2.9715
33410SOL    HW2 5361   9.282   4.001  10.600  0.6920  0.4849 -3.5304
33411SOL     OW 5362   6.704   2.269   0.200  0.2212 -0.2625 -0.1514
33411SOL    HW1 5363   6.708   2.360   0.171  2.6003 -0.3515 -0.2118
33411SOL    HW2 5364   6.747   2.219   0.131  0.6720 -1.1782  0.7627
33412SOL     OW 5365   6.949  10.782   4.390 -0.5928  0.3736 -0.1581
33412SOL    HW1 5366   6.905  10.733   4.459  3.1325 -1.7641  0.7702
33412SOL    HW2 5367   6.978  10.863   4.432 -1.6341  0.7883 -0.2193
33413SOL     OW 5368   8.867   1.841   5.545  0.3788  0.1197 -0.0434
33413SOL    HW1 5369   8.884   1.924   5.589 -0.6795  0.0235  0.5653
33413SOL    HW2 5370   8.781   1.853   5.504  0.1491 -0.7349  0.1916
33414SOL     OW 5371  10.909   4.325   1.689 -0.1875  0.1916  0.4066
33414SOL    HW1 5372  10.867   4.268   1.624 -0.2585 -0.0097  0.6322
33414SOL    HW2 5373  11.003   4.315   1.673 -0.1983 -0.0349  0.4866
33415SOL     OW 5374   5.549   7.059  10.165 -0.0506  0.4461  0.1589
33415SOL    HW1 5375   5.589   7.145  10.164  0.5862  0.1435 -1.9947
33415SOL    HW2 5376   5.614   7.001  10.124 -0.6105 -0.9868  1.2423
33416SOL     OW 5377   4.463   0.512   1.306  0.1814 -0.4001 -0.5103
33416SOL    HW1 5378   4.408   0.439   1.332  0.9800 -0.2052  1.7853
33416SOL    HW2 5379   4.491   0.490   1.217  1.4063 -3.4773  0.5832
33417SOL     OW 5380   7.585   2.151   8.777  0.5501  0.2037 -0.2768
33417SOL    HW1 5381   7.626   2.224   8.731 -2.8321  0.9666 -2.2540
33417SOL    HW2 5382   7.549   2.189   8.856  2.0585 -0.1337  0.6014
33418SOL     OW 5383   6.626  10.403   0.037 -0.4246 -0.1161 -0.4454
33418SOL    HW1 5384   6.560  10.466   0.007  0.0429  0.5673 -0.0487
33418SOL    HW2 5385   6.674  10.449   0.105  1.6933  0.0841 -2.0195
33419SOL     OW 5386   6.325   2.910   6.382  0.1072 -0.4900  0.0496
33419SOL    HW1 5387   6.306   2.874   6.296  0.5367 -0.5292 -0.0325
33419SOL    HW2 5388   6.304   3.003   6.375  0.3206 -0.4563 -0.1541
33420SOL     OW 5389   1.920  10.169   4.065 -0.2874  0.4006 -0.1337
33420SOL    HW1 5390   1.842  10.114   4.073 -1.8281  2.5352 -0.1531
33420SOL    HW2 5391   1.992  10.107   4.050 -2.1506 -1.5245 -1.2929
33421SOL     OW 5392   7.975   9.624   4.498  0.1986 -0.1311  0.1234
33421SOL    HW1 5393   7.909   9.578   4.447 -1.5715  2.2992  0.0980
33421SOL    HW2 5394   7.925   9.679   4.558  2.2138  0.7392  1.0589
33422SOL     OW 5395  10.741   1.210  10.639  0.1450  0.6121  0.8326
33422SOL    HW1 5396  10.779   1.127  10.609  0.1797  0.0947  2.2330
33422SOL    HW2 5397  10.805   1.276  10.612  0.2158  0.1561 -0.1221
33423SOL     OW 5398   9.051   4.823   4.732 -0.0102 -0.7734 -0.0139
33423SOL    HW1 5399   8.969   4.790   4.695  0.7505 -0.6359 -1.8821
33423SOL    HW2 5400   9.065   4.907   4.688  1.9874 -1.5925 -1.0316
33424SOL     OW 5401   1.530   4.381   2.326  0.4708  0.3081 -0.2446
33424SOL    HW1 5402   1.501   4.442   2.393 -0.1829 -0.0727 -0.1794
33424SOL    HW2 5403   1.593   4.324   2.371 -0.0262  0.0037  0.0673
33425SOL     OW 5404   6.617   8.214   5.638  0.0243 -0.5157 -0.2143
33425SOL    HW1 5405   6.574   8.226   5.722  0.0318 -0.5576 -0.2050
33425SOL    HW2 5406   6.601   8.123   5.615  2.0524 -1.1675  0.8760
33426SOL     OW 5407   7.760  10.630  11.116 -0.9223  0.0882 -0.2634
33426SOL    HW1 5408   7.839  10.666  11.156 -2.0789  1.4855  0.8061
33426SOL    HW2 5409   7.704  10.608  11.190 -1.8218 -0.2330 -1.0376
33427SOL     OW 5410   8.942   9.901   3.592 -0.1490 -0.3324  0.2629
33427SOL    HW1 5411   8.920   9.987   3.555 -1.3119  0.1367  1.9597
33427SOL    HW2 5412   8.958   9.919   3.685  0.2809 -1.8600  0.4921
33428SOL     OW 5413  10.407   3.159   3.194  0.3502  0.0921  0.0064
33428SOL    HW1 5414  10.372   3.121   3.274  1.4170 -0.6114  0.1379
33428SOL    HW2 5415  10.483   3.106   3.173  1.1922  1.4418 -0.4262
33429SOL     OW 5416  11.239   1.638   1.715 -0.1433 -0.4762 -0.0744
33429SOL    HW1 5417  11.213   1.673   1.630  1.4752 -1.0953 -0.8501
33429SOL    HW2 5418  11.315   1.692   1.740 -0.8733 -0.0068  1.1919
33430SOL     OW 5419  11.192   2.871   9.866 -0.0547 -0.2699  0.6210
33430SOL    HW1 5420  11.124   2.817   9.906  0.2844 -0.3100  1.1406
33430SOL    HW2 5421  11.145   2.924   9.801 -0.7947  0.6648  1.9107
33431SOL     OW 5422   7.124   9.678   7.067  0.0817 -0.4062  0.4957
33431SOL    HW1 5423   7.129   9.773   7.081 -0.6690 -0.4353  1.0039
33431SOL    HW2 5424   7.152   9.666   6.976  0.5812  0.2563  0.5527
33432SOL     OW 5425   9.224   9.537   7.148 -0.0758 -0.3246  0.2095
33432SOL    HW1 5426   9.218   9.601   7.077  0.2477  0.6285  1.0338
33432SOL    HW2 5427   9.259   9.458   7.106 -0.4775  0.0237 -0.8133
33433SOL     OW 5428   2.029   3.826   7.369 -0.5090 -0.4520 -0.1697
33433SOL    HW1 5429   1.937   3.846   7.385 -0.6052 -0.0225 -1.2243
33433SOL    HW2 5430   2.064   3.904   7.327  0.4917 -0.3852  0.7354
33434SOL     OW 5431   4.412   0.835   8.311 -0.5345 -0.1680  0.4900
33434SOL    HW1 5432   4.359   0.912   8.331  1.7155  1.2943  1.0273
33434SOL    HW2 5433   4.357   0.782   8.254 -1.5901  2.5149 -1.0689
33435SOL     OW 5434   3.285   2.809   8.824  0.2005  0.0632  0.3077
33435SOL    HW1 5435   3.327   2.795   8.739 -1.6786  0.8998 -0.8009
33435SOL    HW2 5436   3.273   2.904   8.829 -1.9428 -0.1807  0.3647
33436SOL     OW 5437   0.937  10.222   7.361  0.6803 -0.5133 -0.1683
33436SOL    HW1 5438   1.020  10.266   7.342  0.4334 -0.4614 -1.1358
33436SOL    HW2 5439   0.881  10.242   7.286  0.0422 -1.1799  0.1252
33437SOL     OW 5440   6.944   1.141   0.450 -0.4099 -0.2258 -0.2667
33437SOL    HW1 5441   6.894   1.206   0.401  0.7646  0.9943  0.1149
33437SOL    HW2 5442   7.035   1.169   0.439  0.0966 -1.7410  0.0130
33438SOL     OW 5443  10.022   2.498   4.385  0.3798  0.6137 -0.4433
33438SOL    HW1 5444  10.082   2.572   4.392 -0.1296  1.0313 -0.4791
33438SOL    HW2 5445   9.944   2.525   4.433  0.1809  0.1100 -0.4729
33439SOL     OW 5446   8.835   5.093   2.025  0.3522 -0.1296  0.5367
33439SOL    HW1 5447   8.840   5.048   2.110  0.2551  0.0945  0.6629
33439SOL    HW2 5448   8.893   5.043   1.968 -0.0543 -0.6411  0.5699
33440SOL     OW 5449   8.378   6.444   2.039  0.5452 -0.1533 -0.1493
33440SOL    HW1 5450   8.381   6.533   2.074  2.1884 -0.2097 -0.0946
33440SOL    HW2 5451   8.290   6.413   2.060  0.5130  0.8517  1.3140
33441SOL     OW 5452   4.175  11.119   7.280 -0.4257 -0.4731 -0.3790
33441SOL    HW1 5453   4.169  11.162   7.366 -1.7733 -0.3502 -0.5165
33441SOL    HW2 5454   4.149  11.188   7.218 -0.9708 -1.0005 -0.7402
33442SOL     OW 5455   3.045   2.411   5.474  0.3687  0.4803  0.1269
33442SOL    HW1 5456   3.119   2.429   5.415  1.3499  0.3680  1.3107
33442SOL    HW2 5457   3.074   2.337   5.527 -1.0302 -0.2810 -0.1296
33443SOL     OW 5458  10.905   5.327   4.580 -0.0384 -1.0218 -0.1674
33443SOL    HW1 5459  10.897   5.247   4.632 -0.5149 -0.7415  0.1877
33443SOL    HW2 5460  10.817   5.364   4.578  0.4857  0.3525  1.0450
33444SOL     OW 5461  10.729   4.145   6.722 -0.2329 -0.1266 -0.1578
33444SOL    HW1 5462  10.770   4.078   6.776  1.3035 -0.0149 -1.1754
33444SOL    HW2 5463  10.666   4.097   6.667 -0.1623 -0.5332  0.1206
33445SOL     OW 5464   6.383   3.321   1.530 -0.1695 -0.4867  0.4496
33445SOL    HW1 5465   6.394   3.392   1.593 -1.8546 -0.1431  0.3853
33445SOL    HW2 5466   6.444   3.341   1.459  1.0226 -0.3433  1.5115
33446SOL     OW 5467   9.313   6.384   1.720  0.0183  0.0725  0.2937
33446SOL    HW1 5468   9.219   6.366   1.714  0.1102 -0.5534  0.6179
33446SOL    HW2 5469   9.338   6.405   1.630 -0.7984  2.2063  0.5405
33447SOL     OW 5470   1.734   8.121   8.319 -0.2173 -0.1526 -0.0885
33447SOL    HW1 5471   1.790   8.052   8.282 -0.3061 -0.2625 -0.0218
33447SOL    HW2 5472   1.710   8.087   8.406 -1.7992 -0.8790 -0.8046
33448SOL     OW 5473   6.804   3.616  10.800  0.2624 -0.0925 -0.0560
33448SOL    HW1 5474   6.855   3.685  10.758 -0.3486  0.1877 -0.3486
33448SOL    HW2 5475   6.869   3.553  10.831  0.7799  0.2510 -0.4405
33449SOL     OW 5476  10.406   0.658   9.473 -0.2521  0.1411  0.0260
33449SOL    HW1 5477  10.343   0.713   9.520 -0.0892 -1.3968  2.1008
33449SOL    HW2 5478  10.366   0.645   9.387 -1.8369  0.8358  0.6265
33450SOL     OW 5479   7.886   4.894   6.417  0.0791  0.0806 -0.2561
33450SOL    HW1 5480   7.804   4.929   6.382  0.4264  0.2056 -0.9479
33450SOL    HW2 5481   7.950   4.964   6.405  0.0818  0.3340  1.1390
33451SOL     OW 5482   3.125   7.246   5.098 -0.2917 -0.1558  0.3883
33451SOL    HW1 5483   3.062   7.177   5.076  1.7689 -1.0966 -2.8007
33451SOL    HW2 5484   3.078   7.327   5.080 -0.8150 -0.8281 -1.4040
33452SOL     OW 5485   6.645   4.507   6.220 -0.0084 -0.3345  0.1182
33452SOL    HW1 5486   6.645   4.497   6.316  0.6156 -0.2469  0.1251
33452SOL    HW2 5487   6.552   4.514   6.198 -0.1550 -0.2564  0.7309
33453SOL     OW 5488   7.910   3.705   8.797  0.3332  0.1173 -0.3910
33453SOL    HW1 5489   7.924   3.738   8.886 -0.2371  0.8744 -0.5732
33453SOL    HW2 5490   7.942   3.615   8.799  0.1182  0.0605  0.6359
33454SOL     OW 5491  10.716   4.318   7.543  0.5288 -0.5845 -0.2257
33454SOL    HW1 5492  10.623   4.333   7.530  0.7410 -0.0235 -1.1378
33454SOL    HW2 5493  10.745   4.388   7.601  0.4641 -0.5275 -0.2639
33455SOL     OW 5494   5.513   6.638  10.023 -0.1312  0.3215 -0.7649
33455SOL    HW1 5495   5.506   6.565   9.962  0.2144  0.0673 -0.5064
33455SOL    HW2 5496   5.447   6.700   9.994 -2.9977 -1.6689  1.1864
33456SOL     OW 5497   4.794  10.513   9.157 -0.1060 -0.6166  0.3615
33456SOL    HW1 5498   4.767  10.571   9.086 -0.6141 -1.8441 -0.4653
33456SOL    HW2 5499   4.722  10.517   9.220  0.6573  1.0158  1.1613
33457SOL     OW 5500   0.431   2.511   5.395  0.7107  0.1622 -0.3763
33457SOL    HW1 5501   0.508   2.566   5.410  0.1842  0.5302  1.0572
33457SOL    HW2 5502   0.369   2.537   5.463 -0.1045 -1.1872 -0.5727
33458SOL     OW 5503   9.654  10.758   8.388 -0.3319  0.8260 -0.0981
33458SOL    HW1 5504   9.578  10.773   8.445  1.7125  0.0573  2.8903
33458SOL    HW2 5505   9.621  10.697   8.321 -2.5874  1.2055  0.6011
33459SOL     OW 5506  10.986   7.887   5.508  0.2011  0.0114 -0.1812
33459SOL    HW1 5507  11.014   7.863   5.420 -1.1636 -2.4992  0.0244
33459SOL    HW2 5508  11.026   7.822   5.566 -0.5881  0.3936  0.8244
33460SOL     OW 5509   3.962   9.853   1.171  0.2295 -0.1186 -0.6239
33460SOL    HW1 5510   3.872   9.828   1.193 -0.0391  2.6479  1.6034
33460SOL    HW2 5511   3.954   9.938   1.130  1.8069 -0.1024 -0.9116
33461SOL     OW 5512   7.314   1.740   1.655 -0.5953 -0.0057  0.4616
33461SOL    HW1 5513   7.333   1.648   1.637  0.5355  0.3267 -0.0790
33461SOL    HW2 5514   7.356   1.787   1.583  0.4621  1.0761  1.7585
33462SOL     OW 5515   2.276   2.772   6.082  0.0613  0.4216  0.0866
33462SOL    HW1 5516   2.265   2.851   6.135 -0.1615  0.3033  0.2183
33462SOL    HW2 5517   2.216   2.783   6.008  0.5425  0.6926 -0.2683
33463SOL     OW 5518   6.012   9.188   3.954  0.1903  0.6958  0.4976
33463SOL    HW1 5519   6.098   9.155   3.928  0.3968 -0.0353  2.0891
33463SOL    HW2 5520   6.002   9.270   3.904  0.5142 -0.7210 -1.9667
33464SOL     OW 5521   6.634   2.921   4.367 -0.0278 -0.3790  0.0616
33464SOL    HW1 5522   6.577   2.930   4.290  0.9079  0.0009 -0.5859
33464SOL    HW2 5523   6.709   2.977   4.349  1.4051 -2.2166  0.1272
33465SOL     OW 5524   1.759   0.790   0.556  0.3580  0.9018 -0.6541
33465SOL    HW1 5525   1.753   0.884   0.537 -2.9957  0.8929  0.0507
33465SOL    HW2 5526   1.701   0.777   0.631 -1.3933 -2.1453 -2.4130
33466SOL     OW 5527   6.553   7.818   0.760 -0.4572 -0.2657  0.5371
33466SOL    HW1 5528   6.525   7.749   0.699  1.0378  0.1575 -0.6526
33466SOL    HW2 5529   6.648   7.818   0.754 -0.3929  1.1307  1.4180
33467SOL     OW 5530   9.436   7.002   0.497  0.9504 -0.7560 -0.5682
33467SOL    HW1 5531   9.489   6.922   0.496  0.1244 -1.3295  0.3037
33467SOL    HW2 5532   9.500   7.073   0.492  1.7385 -1.4571 -0.6246
33468SOL     OW 5533  10.754   5.018   7.403 -0.1321  0.6125  0.5470
33468SOL    HW1 5534  10.730   4.929   7.430 -1.7477  0.7247 -0.4766
33468SOL    HW2 5535  10.675   5.054   7.364  1.0155  1.8931 -0.6726
33469SOL     OW 5536   4.606   9.391   3.363 -0.6685 -0.2568 -0.0983
33469SOL    HW1 5537   4.613   9.398   3.459  1.1125 -0.0705 -0.2292
33469SOL    HW2 5538   4.528   9.443   3.341 -1.6646 -1.1069  1.3357
33470SOL     OW 5539   0.973   6.194   5.539  0.4650  0.4203  0.2462
33470SOL    HW1 5540   0.996   6.216   5.629  1.0290  1.1353 -0.0665
33470SOL    HW2 5541   0.919   6.268   5.509  1.8086  1.0805 -0.5925
33471SOL     OW 5542   0.200   0.209   1.107  0.2605  0.4454 -0.3067
33471SOL    HW1 5543   0.133   0.278   1.113  1.4377  1.6142 -0.2012
33471SOL    HW2 5544   0.211   0.178   1.196 -1.2838 -0.9084 -0.5513
33472SOL     OW 5545   0.813   2.271   6.952  0.2120 -0.1911 -0.3334
33472SOL    HW1 5546   0.900   2.249   6.987  0.6714  1.3766 -0.4504
33472SOL    HW2 5547   0.828   2.348   6.897 -1.2871  0.2371 -0.1687
33473SOL     OW 5548   1.203   1.166   6.143 -0.0514  0.1978 -0.1783
33473SOL    HW1 5549   1.154   1.110   6.082  1.6999 -1.3044 -0.2521
33473SOL    HW2 5550   1.227   1.243   6.091  0.7606 -0.7136 -1.1938
33474SOL     OW 5551   6.761   1.304  11.141  0.4026  0.1436  0.4772
33474SOL    HW1 5552   6.730   1.387  11.178  1.5774  0.7370  0.1569
33474SOL    HW2 5553   6.740   1.239  11.208  0.0786  0.8006  1.0206
33475SOL     OW 5554   5.931   9.587   3.227  0.6332  0.1864  0.2779
33475SOL    HW1 5555   6.013   9.636   3.240  0.3631  0.1797  2.1626
33475SOL    HW2 5556   5.894   9.622   3.146  2.2009  0.6146 -0.2652
33476SOL     OW 5557   5.890   5.572   9.987 -0.4890  0.0675  0.2396
33476SOL    HW1 5558   5.938   5.522  10.053  0.8552 -0.3846 -1.0623
33476SOL    HW2 5559   5.923   5.661   9.995 -2.2835  0.6137  1.9912
33477SOL     OW 5560   0.360   3.323   9.550  0.3414  0.5782 -0.0173
33477SOL    HW1 5561   0.295   3.266   9.508  0.7718  0.0700  0.0029
33477SOL    HW2 5562   0.326   3.411   9.537 -0.5407  0.2909  0.3199
33478SOL     OW 5563   9.047   5.856   6.535 -0.4245  0.2969 -0.1936
33478SOL    HW1 5564   9.098   5.813   6.603 -0.4120  0.1997 -0.2631
33478SOL    HW2 5565   8.983   5.791   6.508 -0.7601  0.5110  0.0811
33479SOL     OW 5566   0.262   3.474   3.900  0.5380  0.3038 -0.0653
33479SOL    HW1 5567   0.213   3.554   3.882  1.2975  0.6476 -0.6096
33479SOL    HW2 5568   0.354   3.497   3.884  0.8956 -0.3159  1.0084
33480SOL     OW 5569   1.958   2.832   1.423 -0.4406 -0.1338 -0.3737
33480SOL    HW1 5570   1.875   2.798   1.456  0.3597 -1.5393  0.2480
33480SOL    HW2 5571   1.943   2.843   1.329 -1.7292  0.8747 -0.0638
33481SOL     OW 5572   5.370   3.778   8.880  0.5459 -0.1968  0.1132
33481SOL    HW1 5573   5.435   3.823   8.827  0.7024 -1.4503 -0.7730
33481SOL    HW2 5574   5.420   3.740   8.953  0.2220  2.1760  1.6235
33482SOL     OW 5575   2.127  10.172   7.615 -0.1375  0.1507  0.1563
33482SOL    HW1 5576   2.092  10.261   7.618 -0.6675 -0.0329 -0.4295
33482SOL    HW2 5577   2.143  10.157   7.522 -0.8658 -0.6787  0.1645
33483SOL     OW 5578   8.371   9.179   9.732  0.0886  0.3059  0.6278
33483SOL    HW1 5579   8.392   9.086   9.723  1.7292  0.6711  0.3804
33483SOL    HW2 5580   8.455   9.220   9.757  0.2238  2.1885 -2.6031
33484SOL     OW 5581   2.904   0.028   0.822  0.5388 -0.3843 -0.4279
33484SOL    HW1 5582   2.955  -0.048   0.849  1.4841  0.7538  1.0796
33484SOL    HW2 5583   2.968   0.088   0.784 -0.0671 -0.0019 -0.8504
33485SOL     OW 5584   2.432   2.486   2.497 -0.3410 -0.0211 -0.3606
33485SOL    HW1 5585   2.421   2.502   2.403 -2.0743  0.2343 -0.1263
33485SOL    HW2 5586   2.386   2.403   2.513  2.5333 -1.6629 -0.2658
33486SOL     OW 5587   4.270   0.831   9.675 -0.1121  0.1735  0.0299
33486SOL    HW1 5588   4.237   0.835   9.585 -0.7744  0.6236  0.2898
33486SOL    HW2 5589   4.257   0.920   9.708  1.6139  0.4437  0.0444
33487SOL     OW 5590   2.351   9.473   0.784 -0.0830 -0.3614 -0.3285
33487SOL    HW1 5591   2.357   9.427   0.868 -1.5159 -0.4992 -0.2916
33487SOL    HW2 5592   2.259   9.466   0.760 -0.3712  2.6661 -0.2435
33488SOL     OW 5593   9.673   5.942  10.995 -0.2185  0.9403  1.4526
33488SOL    HW1 5594   9.619   5.872  10.958  0.6786  1.7174 -1.4690
33488SOL    HW2 5595   9.735   5.898  11.052  0.6878 -0.7339 -0.7842
33489SOL     OW 5596   6.431   1.768   3.661 -0.1256 -0.0893 -0.1804
33489SOL    HW1 5597   6.460   1.838   3.719  1.9015  0.7530 -2.1383
33489SOL    HW2 5598   6.337   1.761   3.677  0.1360  1.0499  2.1587
33490SOL     OW 5599   6.066   5.313   3.436 -0.3758  0.0058 -0.1961
33490SOL    HW1 5600   6.097   5.404   3.427  0.5153 -0.1911  0.7691
33490SOL    HW2 5601   6.141   5.260   3.409 -1.2890 -0.4381 -1.8856
33491SOL     OW 5602   2.588   3.656   4.450 -0.2800  0.2145 -0.4097
33491SOL    HW1 5603   2.537   3.581   4.420 -0.1261  1.0617 -2.9363
33491SOL    HW2 5604   2.632   3.625   4.530 -2.0784 -1.5878 -0.0805
33492SOL     OW 5605   5.891   4.092  11.215  0.0544  0.0385  0.4900
33492SOL    HW1 5606   5.955   4.049  11.159 -1.0512 -0.0780 -0.6930
33492SOL    HW2 5607   5.907   4.055  11.302  1.1629 -0.4580  0.0886
33493SOL     OW 5608  10.453   5.126   5.708  0.5956  0.5773  0.1199
33493SOL    HW1 5609  10.538   5.145   5.747  1.8597  0.1850 -2.3354
33493SOL    HW2 5610  10.422   5.210   5.675  0.9279  0.4203 -0.6276
33494SOL     OW 5611   7.581   9.774   2.987 -0.0553  0.3628 -0.0415
33494SOL    HW1 5612   7.505   9.768   2.929  0.7816 -0.9813 -1.0418
33494SOL    HW2 5613   7.639   9.703   2.957  1.6642  1.4834  0.5809
33495SOL     OW 5614   6.262   0.654   8.935  0.1978  0.4716  0.6066
33495SOL    HW1 5615   6.329   0.601   8.979  2.0087  1.4236 -0.9453
33495SOL    HW2 5616   6.242   0.605   8.855  0.1879  0.9718  0.3002
33496SOL     OW 5617   1.632   7.097   5.120  0.3817  0.0144 -0.4699
33496SOL    HW1 5618   1.656   7.069   5.032 -0.1981  0.8095 -0.8841
33496SOL    HW2 5619   1.555   7.153   5.108 -1.3003 -1.9424  0.7722
33497SOL     OW 5620   4.385   0.447   8.051  0.4479 -0.5481 -0.5522
33497SOL    HW1 5621   4.341   0.512   8.105  1.0721 -0.2069 -0.4495
33497SOL    HW2 5622   4.343   0.364   8.074 -0.6547 -0.1241 -1.0156
33498SOL     OW 5623  10.617   2.652   5.500 -0.0049  0.4521 -0.3862
33498SOL    HW1 5624  10.542   2.702   5.533  0.8237  0.4207  1.6282
33498SOL    HW2 5625  10.691   2.711   5.508  0.5652 -0.2750 -0.2308
33499SOL     OW 5626   3.213   0.816   7.825 -0.1728 -0.4964  0.0332
33499SOL    HW1 5627   3.284   0.865   7.783 -0.2756 -0.3985 -0.0287
33499SOL    HW2 5628   3.257   0.751   7.879 -0.0529 -1.1385 -0.8398
33500SOL     OW 5629   3.017   4.846   7.853 -0.7791 -0.2245 -1.3129
33500SOL    HW1 5630   3.029   4.918   7.791  0.4831 -0.2893 -1.1627
33500SOL    HW2 5631   3.045   4.768   7.805 -0.3923 -0.3572 -0.8816
33501SOL     OW 5632   5.942   5.911  10.747 -0.1599  0.3217 -0.3410
33501SOL    HW1 5633   5.890   5.839  10.782  0.8002  0.8649  2.3849
33501SOL    HW2 5634   5.887   5.988  10.759 -0.1285  0.3991 -0.7128
33502SOL     OW 5635   2.319   9.277   9.515 -0.1278  0.0322  0.0766
33502SOL    HW1 5636   2.326   9.186   9.545  0.4371 -0.0949 -0.4204
33502SOL    HW2 5637   2.310   9.328   9.595  1.1171 -0.3246  0.4481
33503SOL     OW 5638   4.660  10.456   8.247  0.3991  0.0133  0.1479
33503SOL    HW1 5639   4.627  10.374   8.283 -0.9133  0.3830 -0.1987
33503SOL    HW2 5640   4.598  10.479   8.178  0.5969  1.4280  0.4197
33504SOL     OW 5641   2.020   0.893   7.896  0.4366 -0.4969  0.1713
33504SOL    HW1 5642   1.974   0.880   7.814  0.4306 -1.2833  0.3006
33504SOL    HW2 5643   2.102   0.937   7.871 -1.0470  2.3733  0.1057
33505SOL     OW 5644   5.563  10.984   3.796  0.2547  0.1376  0.7613
33505SOL    HW1 5645   5.624  10.927   3.750  0.0332  0.4196  0.1104
33505SOL    HW2 5646   5.476  10.951   3.770  0.0819  2.5504 -1.9275
33506SOL     OW 5647   7.589   6.453   3.402 -0.2806  0.3152 -0.9304
33506SOL    HW1 5648   7.540   6.377   3.369 -0.6423 -1.0759  2.5610
33506SOL    HW2 5649   7.673   6.417   3.430 -0.9102  0.9008  1.8901
33507SOL     OW 5650   4.883  10.438   2.012 -0.0731  0.8278  0.2187
33507SOL    HW1 5651   4.949  10.443   2.081 -1.1811  1.4918  1.2618
33507SOL    HW2 5652   4.867  10.344   2.001  1.5138  0.6341 -0.5181
33508SOL     OW 5653   3.915   7.231   2.521 -0.0793  0.5281 -0.6724
33508SOL    HW1 5654   3.890   7.196   2.436  1.0833  1.4634 -1.4127
33508SOL    HW2 5655   3.841   7.286   2.547 -0.6740 -0.1973 -0.8142
33509SOL     OW 5656   9.169  10.164   0.907 -0.0747 -0.0641 -0.0656
33509SOL    HW1 5657   9.248  10.148   0.855 -0.6551 -3.9407  0.0463
33509SOL    HW2 5658   9.102  10.187   0.843  0.2031 -0.7194 -0.6012
33510SOL     OW 5659   7.885   5.890   5.322 -0.7125  0.1430 -0.4919
33510SOL    HW1 5660   7.888   5.977   5.363  0.2660 -0.4789  0.8044
33510SOL    HW2 5661   7.925   5.832   5.387  0.5221 -0.9503 -2.2054
33511SOL     OW 5662   4.032   5.619  10.483 -0.0861 -0.3835  0.3283
33511SOL    HW1 5663   4.125   5.613  10.458 -0.4565  1.2560 -1.4918
33511SOL    HW2 5664   4.029   5.580  10.571  2.1157 -1.5607 -0.0830
33512SOL     OW 5665  10.689  11.018   5.033 -0.1009 -0.0490 -0.1615
33512SOL    HW1 5666  10.664  10.959   5.104 -0.5750 -2.8527 -2.5718
33512SOL    HW2 5667  10.639  10.987   4.957  0.8383  2.5003 -1.8851
33513SOL     OW 5668   9.554   4.911   8.771 -0.3251  0.1662  0.3758
33513SOL    HW1 5669   9.532   4.986   8.716  0.0418 -0.1209 -0.1677
33513SOL    HW2 5670   9.624   4.866   8.724 -1.4968 -1.3133  0.0135
33514SOL     OW 5671   4.170   4.841  10.276  0.6142  0.0737  0.1337
33514SOL    HW1 5672   4.078   4.818  10.267 -0.1745  2.7023  0.8297
33514SOL    HW2 5673   4.196   4.805  10.360  0.8758 -2.5928 -1.0546
33515SOL     OW 5674   0.080   1.528   0.247 -0.1525  0.0775 -0.6461
33515SOL    HW1 5675   0.052   1.579   0.323  1.6647 -1.7573  1.3241
33515SOL    HW2 5676   0.175   1.524   0.255 -0.1346 -2.1946 -1.6437
33516SOL     OW 5677   2.601   9.944   1.738  0.4909  0.6750  0.6292
33516SOL    HW1 5678   2.531  10.004   1.714 -0.7981 -0.9487  0.2560
33516SOL    HW2 5679   2.557   9.874   1.785  1.6615 -1.1364 -0.9219
33517SOL     OW 5680   5.856   8.897   4.780  0.3296 -0.0101  0.3902
33517SOL    HW1 5681   5.911   8.964   4.739 -0.0469 -0.4617 -0.8505
33517SOL    HW2 5682   5.895   8.885   4.867  1.6091  0.3884 -0.1132
33518SOL     OW 5683   4.701   6.728   1.474  0.4904  0.3836 -0.9056
33518SOL    HW1 5684   4.718   6.670   1.400  0.5969  0.5806 -1.0340
33518SOL    HW2 5685   4.764   6.701   1.540 -1.5679 -1.8358  0.2489
33519SOL     OW 5686   3.877   6.604   0.373  0.2943  0.3885  0.2851
33519SOL    HW1 5687   3.823   6.602   0.452  0.1910  2.5309  0.2881
33519SOL    HW2 5688   3.819   6.641   0.306  0.3136 -1.5987 -0.8665
33520SOL     OW 5689   1.696   3.708   3.183  0.0031 -0.4887 -0.4966
33520SOL    HW1 5690   1.784   3.742   3.201  0.3714 -0.8639 -1.5470
33520SOL    HW2 5691   1.709   3.613   3.174 -0.8451 -0.8090  1.4100
33521SOL     OW 5692   9.912   0.944   4.450 -0.4746  0.4419 -0.4150
33521SOL    HW1 5693   9.979   0.877   4.461 -1.9826 -0.7950  1.7647
33521SOL    HW2 5694   9.905   0.986   4.535 -2.4514  0.5253 -0.5778
33522SOL     OW 5695   5.316   5.769   1.890 -0.2324 -0.0566 -0.1408
33522SOL    HW1 5696   5.268   5.722   1.957 -0.3265  1.6079  0.9949
33522SOL    HW2 5697   5.284   5.733   1.807 -0.2513 -1.9927  0.6932
33523SOL     OW 5698  10.562   9.001   9.652 -0.1931 -0.6833 -0.3982
33523SOL    HW1 5699  10.631   8.965   9.596 -0.9182 -0.0439 -1.7332
33523SOL    HW2 5700  10.554   9.092   9.624  0.0351 -0.1086  1.3704
33524SOL     OW 5701   2.332   4.115   3.463 -0.1621  0.0057  0.4390
33524SOL    HW1 5702   2.399   4.102   3.530 -1.1488 -1.8744  1.1101
33524SOL    HW2 5703   2.253   4.138   3.513 -0.7848 -0.9508 -0.0939
33525SOL     OW 5704   1.980   4.445   8.874 -0.8184 -0.2826 -0.0670
33525SOL    HW1 5705   1.899   4.430   8.923 -1.4438 -0.4244 -1.1143
33525SOL    HW2 5706   2.042   4.479   8.938 -0.9667 -2.4799  1.2572
33526SOL     OW 5707   0.454   3.172   8.683  0.7149  0.2530 -0.1587
33526SOL    HW1 5708   0.441   3.236   8.753 -0.1392  1.1577 -1.1167
33526SOL    HW2 5709   0.527   3.206   8.631  1.2303 -0.3228  0.1763
33527SOL     OW 5710   6.185  10.925   8.797 -0.2734  0.2770  0.4118
33527SOL    HW1 5711   6.105  10.974   8.782 -0.0765  1.1351  2.0297
33527SOL    HW2 5712   6.226  10.918   8.711 -2.0388 -0.1295 -0.4149
33528SOL     OW 5713   6.679   3.581   8.965  1.0535 -0.3412  0.9070
33528SOL    HW1 5714   6.679   3.676   8.981 -0.4509 -0.5195  2.0420
33528SOL    HW2 5715   6.769   3.554   8.984  1.0938  0.6214  2.1492
33529SOL     OW 5716   9.655   0.808   7.542  0.3291 -0.5355  0.4114
33529SOL    HW1 5717   9.722   0.774   7.484 -1.2339 -1.2252 -1.0548
33529SOL    HW2 5718   9.584   0.743   7.537 -1.3976  1.3138  0.1022
33530SOL     OW 5719   1.165   0.590   9.705 -0.6419  0.4824 -0.0997
33530SOL    HW1 5720   1.136   0.534   9.633  1.0138 -0.5556  0.0269
33530SOL    HW2 5721   1.157   0.679   9.670  0.1111 -0.0091 -1.5656
33531SOL     OW 5722   2.012   4.044   6.984 -0.3816 -0.0155  0.1324
33531SOL    HW1 5723   1.917   4.054   6.974 -0.6797 -1.2417  1.5526
33531SOL    HW2 5724   2.040   3.999   6.905 -1.2591 -1.2239  0.4973
33532SOL     OW 5725   9.994   5.586  11.204  0.0921 -0.1522 -0.1433
33532SOL    HW1 5726  10.077   5.614  11.243 -0.6114 -0.2953  1.5447
33532SOL    HW2 5727   9.957   5.524  11.268 -1.7458  0.6531 -0.3713
33533SOL     OW 5728   5.791   6.295   4.878 -0.2727  0.1313  0.5884
33533SOL    HW1 5729   5.751   6.370   4.922  0.8731  0.7529  0.5916
33533SOL    HW2 5730   5.885   6.315   4.876  0.0224 -1.1922  0.3826
33534SOL     OW 5731   5.673   5.425   9.888  0.6600  0.1131 -0.1478
33534SOL    HW1 5732   5.694   5.333   9.905 -1.3539 -0.2092  0.7036
33534SOL    HW2 5733   5.744   5.474   9.929  0.4913 -0.9937  1.5163
33535SOL     OW 5734   7.822   5.141   1.578 -0.1450 -0.2477 -0.0304
33535SOL    HW1 5735   7.900   5.105   1.621  0.7445  0.2888 -1.1719
33535SOL    HW2 5736   7.837   5.235   1.575 -0.6237 -0.1879 -0.6814
33536SOL     OW 5737   8.729   7.254   3.316  0.3293 -0.7821 -0.1939
33536SOL    HW1 5738   8.763   7.337   3.351 -0.6021  0.3340 -1.8173
33536SOL    HW2 5739   8.710   7.201   3.393 -0.9869  1.3078  0.9836
33537SOL     OW 5740   4.394   5.850   3.741 -0.3615  0.6494 -0.3766
33537SOL    HW1 5741   4.377   5.792   3.666 -0.6532  1.3942 -0.9004
33537SOL    HW2 5742   4.349   5.932   3.718 -0.9143  0.7017  0.8614
33538SOL     OW 5743   8.853  10.673   2.633 -0.3490 -0.0917 -0.3097
33538SOL    HW1 5744   8.924  10.619   2.669  0.8971  1.8737  0.2429
33538SOL    HW2 5745   8.880  10.691   2.543 -0.1564  0.6360 -0.1080
33539SOL     OW 5746  10.010   7.574   6.220  0.2174 -0.2277  0.2323
33539SOL    HW1 5747  10.031   7.518   6.146  1.3801  0.2738  0.1603
33539SOL    HW2 5748  10.017   7.663   6.185  0.3787  0.0018  0.8385
33540SOL     OW 5749   3.046   7.843   3.448 -0.5146  0.2136 -0.4860
33540SOL    HW1 5750   3.083   7.758   3.475  1.4698  0.4194 -2.3830
33540SOL    HW2 5751   3.120   7.890   3.410 -1.9036  2.2705 -0.7213
33541SOL     OW 5752   9.733   6.331   8.101 -0.3792 -0.3022  0.2401
33541SOL    HW1 5753   9.783   6.255   8.073 -1.3251 -0.6883 -0.4353
33541SOL    HW2 5754   9.695   6.366   8.020  2.3971  2.6384  0.0986
33542SOL     OW 5755   8.119   7.627   7.493 -0.1256 -0.0033  0.4534
33542SOL    HW1 5756   8.063   7.611   7.417 -0.8049 -0.1263  0.9696
33542SOL    HW2 5757   8.208   7.625   7.459 -0.4655  0.7894 -0.4762
33543SOL     OW 5758   6.567   1.021   1.697 -0.0993  0.2695  0.0709
33543SOL    HW1 5759   6.618   1.051   1.773 -0.0873  1.9431 -0.5650
33543SOL    HW2 5760   6.631   1.014   1.626 -0.0991 -1.3512  0.2292
33544SOL     OW 5761   1.106   5.948   8.100  0.3544  0.7579  0.7085
33544SOL    HW1 5762   1.121   6.009   8.028 -2.3824  2.4004  1.4491
33544SOL    HW2 5763   1.042   5.885   8.065  0.4822  0.4210  1.0847
33545SOL     OW 5764   8.348   8.493  10.101  0.1609 -0.5623  0.6709
33545SOL    HW1 5765   8.418   8.431  10.122  0.7696 -0.7439 -1.7191
33545SOL    HW2 5766   8.338   8.486  10.006 -2.8986 -0.3083  0.9187
33546SOL     OW 5767   7.134   2.953   9.259  0.7696  0.1477  0.1752
33546SOL    HW1 5768   7.160   2.971   9.169  0.2083  0.1767  0.0143
33546SOL    HW2 5769   7.209   2.982   9.312  0.1211  2.4779 -0.1172
33547SOL     OW 5770   9.076   3.767   0.274  0.0552 -0.4351 -0.2221
33547SOL    HW1 5771   9.014   3.753   0.345  0.7790 -0.0550  0.4894
33547SOL    HW2 5772   9.024   3.809   0.205 -0.0757  1.5576  1.0711
33548SOL     OW 5773   4.279   6.899  10.185  0.0627  0.3470  0.0004
33548SOL    HW1 5774   4.197   6.923  10.142  0.3809  0.6527 -0.4387
33548SOL    HW2 5775   4.347   6.925  10.123  0.5482  1.2662  0.9166
33549SOL     OW 5776   2.620   8.100   8.465  0.0794  0.2647  0.5283
33549SOL    HW1 5777   2.683   8.106   8.537  3.5025 -0.0508 -2.3356
33549SOL    HW2 5778   2.614   8.189   8.430 -0.6121  0.1702  0.3854
33550SOL     OW 5779   0.428   1.323   2.888 -0.0320  0.0196  0.0948
33550SOL    HW1 5780   0.454   1.245   2.840 -1.1536  0.0447 -0.5782
33550SOL    HW2 5781   0.365   1.291   2.954 -1.2539  0.4723 -0.8309
33551SOL     OW 5782  10.050   4.490   4.683 -0.3346 -0.1449 -0.1274
33551SOL    HW1 5783  10.063   4.492   4.588  1.6211 -0.5087  0.1117
33551SOL    HW2 5784  10.048   4.397   4.705 -4.4490 -0.1449 -0.2454
33552SOL     OW 5785   2.277   4.639   9.325  0.3568 -0.2005  0.5143
33552SOL    HW1 5786   2.298   4.631   9.418  1.0787 -1.4356  0.2588
33552SOL    HW2 5787   2.190   4.679   9.323  0.6731  0.5518  1.7036
33553SOL     OW 5788   0.902   0.354  10.964 -0.0221 -0.3027  0.3777
33553SOL    HW1 5789   0.934   0.405  11.039 -0.7315  0.1158  0.3970
33553SOL    HW2 5790   0.918   0.263  10.989 -0.5774 -0.1833  1.1982
33554SOL     OW 5791   0.097   4.925   2.355 -0.1064  0.3579 -0.0566
33554SOL    HW1 5792   0.112   4.944   2.263  0.3103  2.1133  0.3405
33554SOL    HW2 5793   0.008   4.891   2.359 -0.5663  1.4220 -0.9804
33555SOL     OW 5794   5.431  10.295   3.177 -0.2720 -0.0151  0.2710
33555SOL    HW1 5795   5.517  10.259   3.156  0.5183  0.3070  2.8289
33555SOL    HW2 5796   5.417  10.364   3.113  1.1039 -0.4763 -0.5337
33556SOL     OW 5797   0.383   4.887   3.042 -0.1317  0.4287 -0.1236
33556SOL    HW1 5798   0.406   4.868   3.133  0.3332  2.5684  0.2330
33556SOL    HW2 5799   0.435   4.964   3.020 -1.5190  0.9467 -1.6682
33557SOL     OW 5800   3.180   1.521   1.953 -0.3845 -0.0193 -0.5078
33557SOL    HW1 5801   3.094   1.534   1.992 -0.1269  1.8968 -0.5059
33557SOL    HW2 5802   3.242   1.543   2.023  0.1052 -0.9350 -0.6494
33558SOL     OW 5803  10.896  10.041   2.270  0.1545 -0.6694  0.2316
33558SOL    HW1 5804  10.853  10.113   2.224 -1.9983 -2.0176  0.0589
33558SOL    HW2 5805  10.906  10.072   2.360 -0.6288 -0.0907  0.1236
33559SOL     OW 5806   9.038   6.525   4.352  0.1894 -0.0122 -0.8362
33559SOL    HW1 5807   9.078   6.484   4.429  0.0144  0.0643 -0.7036
33559SOL    HW2 5808   9.039   6.457   4.285 -1.4031 -0.7117 -0.1890
33560SOL     OW 5809   6.504   0.523   3.828 -0.7197 -0.0778  0.1186
33560SOL    HW1 5810   6.468   0.435   3.819  0.6195 -0.5929 -0.4555
33560SOL    HW2 5811   6.506   0.558   3.739  2.8355 -1.1826 -0.3433
33561SOL     OW 5812   2.441   8.915   4.830 -0.3746 -0.2171 -0.2469
33561SOL    HW1 5813   2.464   8.822   4.829  0.7131  0.0414  0.2419
33561SOL    HW2 5814   2.492   8.952   4.902 -1.8074  0.5108  0.4071
33562SOL     OW 5815   0.056   6.062   7.765  0.0416  0.2971  0.2932
33562SOL    HW1 5816   0.074   6.012   7.844 -0.0824 -2.0402 -1.1135
33562SOL    HW2 5817  -0.038   6.081   7.769  0.2766  1.3672  1.3188
33563SOL     OW 5818  11.251   9.207   4.341  0.4091 -0.4373 -0.2521
33563SOL    HW1 5819  11.202   9.144   4.394  0.1613 -0.8508 -0.9649
33563SOL    HW2 5820  11.225   9.292   4.376 -0.1392 -0.6891 -0.0385
33564SOL     OW 5821   4.849  10.216   0.868  0.3552  0.1989  1.1121
33564SOL    HW1 5822   4.886  10.156   0.804  0.5572  0.5046  0.9379
33564SOL    HW2 5823   4.774  10.170   0.905 -0.2203  0.3198  0.1038
33565SOL     OW 5824   9.034   6.629   8.330 -0.2447  0.1898 -0.1431
33565SOL    HW1 5825   9.051   6.721   8.350 -2.9086  0.5418  0.7157
33565SOL    HW2 5826   8.973   6.631   8.257  0.1373 -0.9331 -0.5129
33566SOL     OW 5827   9.552   2.680   0.606 -0.4916  0.1743 -0.7651
33566SOL    HW1 5828   9.608   2.608   0.579 -0.6050 -0.0276 -0.4607
33566SOL    HW2 5829   9.554   2.678   0.702 -1.8862 -0.5226 -0.7375
33567SOL     OW 5830   0.991   8.133   4.073  0.8198 -0.3296  0.6033
33567SOL    HW1 5831   0.926   8.193   4.037  0.3940 -0.5937  0.9236
33567SOL    HW2 5832   1.003   8.066   4.006  1.0280 -0.0856  0.3954
33568SOL     OW 5833   6.856   4.520   8.705  0.6837  0.0281  0.3551
33568SOL    HW1 5834   6.905   4.442   8.680  1.1011  0.6316 -0.7297
33568SOL    HW2 5835   6.902   4.593   8.663 -2.0374  0.4699 -2.0562
33569SOL     OW 5836   5.098   2.619   1.670 -0.2744  0.2283  0.1220
33569SOL    HW1 5837   5.005   2.630   1.686 -0.0583  0.4162  1.2838
33569SOL    HW2 5838   5.141   2.651   1.750  0.7439 -0.6683 -0.0382
33570SOL     OW 5839   7.745   7.856  10.939  0.2282  0.6338 -0.3164
33570SOL    HW1 5840   7.755   7.918  11.011  2.3470  0.1969 -0.1829
33570SOL    HW2 5841   7.666   7.884  10.893  0.2329  2.4162  0.7236
33571SOL     OW 5842   3.915   4.606   2.276 -0.4266  0.3323 -0.1550
33571SOL    HW1 5843   3.936   4.594   2.369  0.1670 -0.5387 -0.3968
33571SOL    HW2 5844   3.822   4.585   2.270  0.1268 -2.2809 -0.2064
33572SOL     OW 5845   8.861   3.855   8.575  0.0567  0.0819 -0.1853
33572SOL    HW1 5846   8.878   3.783   8.636 -0.4107 -2.4476 -2.9051
33572SOL    HW2 5847   8.859   3.813   8.489 -0.9860  3.2678 -1.7877
33573SOL     OW 5848   9.357  10.045   3.182 -0.2442  0.4486  0.0719
33573SOL    HW1 5849   9.287  10.009   3.236 -0.4946  1.5990  0.5235
33573SOL    HW2 5850   9.438  10.020   3.227 -0.3548 -0.8088 -0.4065
33574SOL     OW 5851  10.263   7.144   9.518  0.3857  0.2810 -0.3956
33574SOL    HW1 5852  10.227   7.059   9.541  2.4433 -0.6690 -0.5974
33574SOL    HW2 5853  10.195   7.207   9.544  0.3054 -1.1394  3.1003
33575SOL     OW 5854  11.142  11.312  10.263 -0.1396  0.3235 -1.1829
33575SOL    HW1 5855  11.147  11.217  10.255 -1.5431 -0.0594  1.8694
33575SOL    HW2 5856  11.232  11.339  10.282 -0.5309 -1.0215  3.0960
33576SOL     OW 5857   7.844   3.855   7.936 -0.3483  0.7827 -0.4217
33576SOL    HW1 5858   7.916   3.870   7.998 -0.7369  1.8876 -0.2161
33576SOL    HW2 5859   7.883   3.872   7.850  0.0129 -0.0721 -0.4329
33577SOL     OW 5860   2.295   7.264   4.685 -0.0527  0.0967 -0.2896
33577SOL    HW1 5861   2.300   7.315   4.766 -2.5651 -0.8787  0.5205
33577SOL    HW2 5862   2.216   7.294   4.641 -0.0437 -1.0968 -1.1693
33578SOL     OW 5863   8.063   0.805   9.437 -0.2178  1.0133 -0.3625
33578SOL    HW1 5864   8.092   0.862   9.508  0.8995 -1.2647  1.0700
33578SOL    HW2 5865   8.011   0.862   9.381  0.3395  3.2880  1.3332
33579SOL     OW 5866   8.027   7.118   1.306 -0.0290 -0.5067  0.2312
33579SOL    HW1 5867   7.952   7.158   1.261 -0.8465 -0.4769  1.5813
33579SOL    HW2 5868   8.103   7.163   1.270 -0.6579 -0.4728 -1.1006
33580SOL     OW 5869   9.204  10.126   2.265 -0.1163  0.3194  0.0033
33580SOL    HW1 5870   9.181  10.133   2.173 -0.9367  0.9742  0.2636
33580SOL    HW2 5871   9.254  10.205   2.284  1.4430 -0.5709 -0.2781
33581SOL     OW 5872   8.055   0.096   9.121 -0.7739  0.2266 -0.1946
33581SOL    HW1 5873   7.960   0.101   9.137 -0.3896  0.2108  2.2856
33581SOL    HW2 5874   8.092   0.163   9.180  0.8143 -0.2956 -0.5927
33582SOL     OW 5875   6.753  10.503   2.433  0.3450 -0.1362  1.4066
33582SOL    HW1 5876   6.807  10.437   2.475  1.2728 -1.6621 -1.9962
33582SOL    HW2 5877   6.681  10.454   2.392 -0.8701  1.3365  1.7162
33583SOL     OW 5878   1.897   1.540   2.875 -0.5152 -0.7294  0.0366
33583SOL    HW1 5879   1.940   1.476   2.819 -0.3289 -0.4342 -0.1600
33583SOL    HW2 5880   1.814   1.499   2.899 -0.3383 -1.0989  0.0200
33584SOL     OW 5881   0.415   3.988   8.973  0.7531  0.8329 -0.6967
33584SOL    HW1 5882   0.393   3.985   8.880  0.0353  2.4886 -0.6017
33584SOL    HW2 5883   0.372   4.067   9.006  2.7466  1.4531  0.5837
33585SOL     OW 5884   6.233   9.521  10.112 -0.2358  0.3477 -0.7230
33585SOL    HW1 5885   6.209   9.598  10.164 -1.3673  0.6268 -1.6606
33585SOL    HW2 5886   6.245   9.452  10.177  0.3920  1.2031  0.0912
33586SOL     OW 5887   4.986   6.421   1.386  0.0570 -0.4784  0.5906
33586SOL    HW1 5888   5.076   6.452   1.377  0.6647 -2.3319 -0.0365
33586SOL    HW2 5889   4.992   6.346   1.445 -1.1098 -0.4957  0.7044
33587SOL     OW 5890   9.670   1.063  11.170 -0.0060  0.0082 -0.1683
33587SOL    HW1 5891   9.593   1.007  11.159 -0.6738  0.5401  1.5602
33587SOL    HW2 5892   9.662   1.098  11.259  3.1415 -1.2763  0.6873
33588SOL     OW 5893   2.087   6.403   1.109 -0.2813  0.1241 -0.5099
33588SOL    HW1 5894   2.001   6.382   1.144 -0.6221  1.8014 -0.3025
33588SOL    HW2 5895   2.141   6.419   1.187 -0.3510  1.1981 -0.6678
33589SOL     OW 5896  11.145   4.470   5.263  0.0973  0.0115 -0.4722
33589SOL    HW1 5897  11.053   4.486   5.239 -0.0099 -1.2708 -0.9181
33589SOL    HW2 5898  11.164   4.383   5.230  0.7484 -0.7572  1.8572
33590SOL     OW 5899   9.629   5.961  10.197 -0.3365 -0.3373 -0.2836
33590SOL    HW1 5900   9.568   5.993  10.130 -0.3477 -1.2914 -0.7344
33590SOL    HW2 5901   9.636   6.034  10.260 -1.8708 -0.1977 -0.2669
33591SOL     OW 5902   7.053   1.124  10.366  0.0963 -0.4073  0.5406
33591SOL    HW1 5903   7.145   1.141  10.347  0.1408  0.6574  1.6695
33591SOL    HW2 5904   7.052   1.096  10.457 -0.8101  0.5853  0.8451
33592SOL     OW 5905   3.119   6.447   3.155 -0.0150  0.1648 -0.3256
33592SOL    HW1 5906   3.081   6.371   3.198 -0.1485  0.4353  0.0409
33592SOL    HW2 5907   3.046   6.508   3.144  0.0880  0.2360 -0.6252
33593SOL     OW 5908   1.004   1.188   7.530  0.1789 -0.5865 -0.2253
33593SOL    HW1 5909   1.009   1.188   7.435  1.7726 -1.3735 -0.1588
33593SOL    HW2 5910   1.095   1.186   7.559 -0.2989 -1.1660  1.2995
33594SOL     OW 5911   9.921  11.227   4.683 -0.3046  1.1099 -0.1965
33594SOL    HW1 5912   9.932  11.250   4.591 -0.2779  0.0442 -0.4770
33594SOL    HW2 5913   9.934  11.132   4.685 -1.3145  0.9798  0.7480
33595SOL     OW 5914  10.893   7.354   2.106  0.3245  0.0334 -0.1491
33595SOL    HW1 5915  10.851   7.412   2.169  1.0386  1.2044 -0.7456
33595SOL    HW2 5916  10.828   7.346   2.035 -0.2115 -0.7704  0.4199
33596SOL     OW 5917   8.983  10.618   3.079  0.3442 -0.2160 -0.0080
33596SOL    HW1 5918   9.037  10.665   3.016 -0.9617 -0.3718 -1.2788
33596SOL    HW2 5919   8.998  10.526   3.058  0.7533 -0.3028  0.6473
33597SOL     OW 5920   9.613   5.161  10.290  0.0827 -0.2485  0.1611
33597SOL    HW1 5921   9.587   5.244  10.252  1.6972 -0.0404 -0.5093
33597SOL    HW2 5922   9.701   5.145  10.256  0.0507 -1.9005  0.8099
33598SOL     OW 5923  10.098   2.929  10.073  0.2005 -0.9952 -0.2741
33598SOL    HW1 5924  10.038   2.986  10.025  0.3931  0.3754  1.0640
33598SOL    HW2 5925  10.041   2.874  10.127  0.1165  0.1629  0.8420
33599SOL     OW 5926   5.441   6.979   9.133 -0.1413  0.6208  0.1886
33599SOL    HW1 5927   5.377   6.980   9.204 -1.7663 -0.0037 -1.2092
33599SOL    HW2 5928   5.514   6.927   9.167 -0.2678  1.5212  1.8912
33600SOL     OW 5929   2.570   8.004   4.371 -0.1596  0.4097  0.3120
33600SOL    HW1 5930   2.565   7.922   4.322  1.9858 -0.8277  2.1024
33600SOL    HW2 5931   2.560   8.072   4.305 -2.1993 -1.2749 -1.1698
33601SOL     OW 5932   8.358   5.157   9.945  0.2750 -0.1575  0.1424
33601SOL    HW1 5933   8.391   5.095  10.010 -0.2845 -0.1681  0.4259
33601SOL    HW2 5934   8.263   5.156   9.958  0.3347  1.5935  0.9455
33602SOL     OW 5935   8.104  10.076   5.203  0.5312  0.2739  0.1830
33602SOL    HW1 5936   8.037  10.120   5.254  0.4170 -1.2743  1.4301
33602SOL    HW2 5937   8.186  10.117   5.231  0.2152  1.2965 -0.3976
33603SOL     OW 5938   1.804   4.789   3.747 -0.1061  0.5688 -0.9669
33603SOL    HW1 5939   1.756   4.716   3.706 -2.3901  1.0886  0.7011
33603SOL    HW2 5940   1.826   4.757   3.835  0.4440  1.2691 -0.8456
33604SOL     OW 5941   1.869   2.449   3.392 -0.1237  0.2375 -0.4516
33604SOL    HW1 5942   1.904   2.414   3.310 -2.8711 -0.1564 -1.5179
33604SOL    HW2 5943   1.904   2.537   3.398  1.5717 -0.3783 -1.1170
33605SOL     OW 5944   4.895  11.222   4.740 -0.5826  0.3329  0.3460
33605SOL    HW1 5945   4.863  11.203   4.828 -0.6029  1.5387  0.6036
33605SOL    HW2 5946   4.975  11.271   4.754 -0.4735  0.3439 -0.3128
33606SOL     OW 5947   1.978   5.126   8.453  0.4325 -0.3133  0.2066
33606SOL    HW1 5948   1.983   5.220   8.471  0.8772 -0.1590 -0.6845
33606SOL    HW2 5949   1.885   5.107   8.445  0.2784 -0.1786  1.5457
33607SOL     OW 5950  10.135   6.608  10.069  0.2476 -0.2561  0.1878
33607SOL    HW1 5951  10.156   6.515  10.064 -2.2647 -0.7601 -2.7392
33607SOL    HW2 5952  10.085   6.617  10.150  0.9496 -1.3504  0.7564
33608SOL     OW 5953   7.843   8.353  10.434 -0.2117 -0.0089  0.2781
33608SOL    HW1 5954   7.770   8.403  10.472 -0.8261 -0.0491 -0.8409
33608SOL    HW2 5955   7.888   8.416  10.378  0.9358  0.1572  1.3467
33609SOL     OW 5956   5.723   6.039   3.985 -0.1787 -0.3382  0.4544
33609SOL    HW1 5957   5.678   6.123   3.991 -3.3320 -2.0122  1.4987
33609SOL    HW2 5958   5.714   6.001   4.072  4.2697 -0.3228  1.0144
33610SOL     OW 5959   3.021   1.442   6.217 -0.5768 -0.2773  0.2884
33610SOL    HW1 5960   2.962   1.446   6.293  1.6769 -0.9020  2.1452
33610SOL    HW2 5961   3.039   1.349   6.207 -1.5501 -0.2766 -1.6113
33611SOL     OW 5962  10.479   5.082   0.523  0.1910  0.2646 -0.7872
33611SOL    HW1 5963  10.523   5.094   0.607 -1.1998  0.0864 -0.0196
33611SOL    HW2 5964  10.507   5.156   0.470  1.7782 -0.0999 -0.4787
33612SOL     OW 5965   1.244  10.030   3.771  0.4484 -0.4205 -0.3454
33612SOL    HW1 5966   1.302   9.999   3.840  0.2172  0.0094  0.0434
33612SOL    HW2 5967   1.190  10.097   3.813  0.6618  0.2163 -1.0580
33613SOL     OW 5968   4.212   6.128   1.719  0.3840 -0.5571  0.1195
33613SOL    HW1 5969   4.217   6.032   1.720  0.7043 -0.5409  2.5408
33613SOL    HW2 5970   4.159   6.150   1.795  1.9066  1.2801  0.6894
33614SOL     OW 5971   4.101   5.270   1.375  0.3899  0.6819  0.9292
33614SOL    HW1 5972   4.101   5.176   1.352  2.0534  0.5330  1.4793
33614SOL    HW2 5973   4.065   5.273   1.464  1.7879  0.3814  1.5241
33615SOL     OW 5974   2.223   8.758   3.311 -0.0427  0.3966  0.1107
33615SOL    HW1 5975   2.167   8.834   3.321 -0.0016  0.3714  0.5203
33615SOL    HW2 5976   2.312   8.793   3.313 -0.0125  0.2944  0.6943
33616SOL     OW 5977   2.640   3.088   1.556 -0.4652 -0.3151 -0.0154
33616SOL    HW1 5978   2.606   3.167   1.514 -0.3482 -0.5297 -0.5174
33616SOL    HW2 5979   2.681   3.119   1.636 -1.5275 -0.0108  0.4221
33617SOL     OW 5980   4.631   7.313   2.511 -0.7905 -0.1762  0.2326
33617SOL    HW1 5981   4.590   7.354   2.587 -1.5330 -2.1815  0.9513
33617SOL    HW2 5982   4.641   7.221   2.536  2.8753 -0.0358 -0.4910
33618SOL     OW 5983   9.004   7.719  10.997  0.6525 -0.7394 -0.3513
33618SOL    HW1 5984   9.026   7.631  10.968 -1.1333 -0.2985 -3.2418
33618SOL    HW2 5985   8.914   7.733  10.967  0.4954  1.6521  1.0605
33619SOL     OW 5986   2.118   3.661   1.154 -0.3928  0.5642  0.1069
33619SOL    HW1 5987   2.212   3.663   1.137 -0.5257  1.6116 -0.5237
33619SOL    HW2 5988   2.083   3.740   1.111 -1.8941 -0.9737 -1.5746
33620SOL     OW 5989   7.499   6.087   4.904  0.2310  0.2038 -0.1535
33620SOL    HW1 5990   7.413   6.085   4.862 -0.2714 -3.1986  0.8535
33620SOL    HW2 5991   7.560   6.104   4.832 -0.8917 -2.2457 -1.7726
33621SOL     OW 5992   6.104   4.338   8.918  0.4053 -0.8568 -0.4803
33621SOL    HW1 5993   6.030   4.395   8.896  1.5059  1.1867  0.9022
33621SOL    HW2 5994   6.177   4.374   8.867  1.2537 -0.6345  0.8713
33622SOL     OW 5995   1.463   7.560   4.272 -0.4511 -0.2959 -0.2156
33622SOL    HW1 5996   1.371   7.533   4.264 -0.2471 -1.7774  1.7604
33622SOL    HW2 5997   1.459   7.651   4.300 -1.3009 -0.0290 -1.1793
33623SOL     OW 5998   4.182   0.530   9.707 -0.3162  0.1549  0.3808
33623SOL    HW1 5999   4.178   0.606   9.649 -0.6909  1.2563  1.8206
33623SOL    HW2 6000   4.222   0.563   9.787  0.0319 -1.3038  0.8142
33624SOL     OW 6001   8.218   1.802  10.904  0.2965  0.1776 -0.1929
33624SOL    HW1 6002   8.209   1.706  10.905 -0.3057  0.2398  1.2826
33624SOL    HW2 6003   8.138   1.832  10.861  0.4251  0.0300 -0.5386
33625SOL     OW 6004   7.622   8.110   6.074 -0.3174  0.1872  0.1304
33625SOL    HW1 6005   7.656   8.147   5.992 -0.3075  0.3990  0.2313
33625SOL    HW2 6006   7.541   8.067   6.048 -0.2591  0.1578 -0.0107
33626SOL     OW 6007  11.315   9.243   2.154 -0.1809 -0.2526  0.6513
33626SOL    HW1 6008  11.399   9.248   2.108 -1.1907 -0.2238 -1.2387
33626SOL    HW2 6009  11.338   9.219   2.244  2.0125  1.8627  0.7045
33627SOL     OW 6010   1.278   8.167   2.078 -0.5643 -0.1525 -0.6593
33627SOL    HW1 6011   1.215   8.239   2.076  0.0888  0.4551  0.1738
33627SOL    HW2 6012   1.363   8.210   2.089 -0.1651 -1.0383 -0.2470
33628SOL     OW 6013   4.745  10.947   8.457 -0.3971  0.6983  0.2639
33628SOL    HW1 6014   4.824  11.000   8.445  0.0902  0.3318  1.7525
33628SOL    HW2 6015   4.724  10.916   8.369  0.7213  1.3673 -0.2563
33629SOL     OW 6016   7.812   8.176   3.603 -0.1149  0.4859  0.3730
33629SOL    HW1 6017   7.756   8.098   3.601 -1.2406  1.2698  0.5044
33629SOL    HW2 6018   7.786   8.227   3.526  1.3509  0.2375 -0.2951
33630SOL     OW 6019   1.418   6.044   1.637  0.3314  0.6643  0.6657
33630SOL    HW1 6020   1.491   6.057   1.577  0.8040  0.2181  1.1428
33630SOL    HW2 6021   1.435   5.960   1.678 -1.2457 -0.1688 -0.3393
33631SOL     OW 6022   2.243   0.076  10.305 -0.4382  0.0695 -0.1195
33631SOL    HW1 6023   2.205   0.096  10.391  1.1530 -0.6309  0.7762
33631SOL    HW2 6024   2.219  -0.015  10.288 -1.8531  0.6032 -1.0254
33632SOL     OW 6025   0.083   4.330   6.055  0.2884 -0.3546 -0.5713
33632SOL    HW1 6026   0.009   4.385   6.029  0.4204  0.5490  0.9489
33632SOL    HW2 6027   0.043   4.245   6.076 -0.2597 -0.0080 -0.2125
33633SOL     OW 6028   5.775   3.364   8.956 -0.1464  0.0966  0.3045
33633SOL    HW1 6029   5.771   3.426   8.883  1.1985  1.2196  1.1459
33633SOL    HW2 6030   5.838   3.297   8.927  0.1259  0.3574  0.2904
33634SOL     OW 6031   7.983   3.674   3.545  0.2456 -0.1067  0.3843
33634SOL    HW1 6032   7.890   3.695   3.548  0.2370  0.1410 -1.0623
33634SOL    HW2 6033   8.027   3.757   3.566  0.1499  0.3677 -1.1757
33635SOL     OW 6034   4.810   4.164   8.905  0.2902 -0.2728 -0.2758
33635SOL    HW1 6035   4.814   4.227   8.833 -2.2420  0.5272  0.2500
33635SOL    HW2 6036   4.902   4.149   8.928  0.9587  3.1536 -0.4334
33636SOL     OW 6037   9.397   8.045   7.827 -0.4430  0.4527 -0.2669
33636SOL    HW1 6038   9.310   8.060   7.791 -1.1212  0.9640  1.4873
33636SOL    HW2 6039   9.405   7.950   7.832  0.1098  0.3595 -2.7599
33637SOL     OW 6040   2.853  10.976  10.322 -0.3590 -0.1663  0.1991
33637SOL    HW1 6041   2.819  11.031  10.251  0.9540  1.6513  0.9546
33637SOL    HW2 6042   2.938  11.014  10.344 -0.7678 -0.6526  2.8047
33638SOL     OW 6043   2.000   1.871   0.057 -0.0104  0.2033  0.2345
33638SOL    HW1 6044   2.086   1.866   0.015 -0.2077 -0.0368 -0.1405
33638SOL    HW2 6045   1.942   1.819   0.001 -0.6174  1.1932 -0.0684
33639SOL     OW 6046   4.687   1.507   6.884 -0.0631  0.2538  0.5706
33639SOL    HW1 6047   4.604   1.506   6.932 -0.9098 -0.5680 -0.8768
33639SOL    HW2 6048   4.680   1.434   6.823  0.9006  1.4014 -0.9360
33640SOL     OW 6049   8.347   6.044   4.046 -0.2172 -0.1327 -0.3048
33640SOL    HW1 6050   8.260   6.064   4.011 -0.7766 -0.6018  0.7955
33640SOL    HW2 6051   8.334   6.037   4.141  0.9128 -0.7800 -0.1869
33641SOL     OW 6052   0.784   3.051   9.736 -0.1850 -0.1031 -0.3080
33641SOL    HW1 6053   0.738   3.069   9.654  0.2508  0.4533 -0.4323
33641SOL    HW2 6054   0.810   3.137   9.769 -1.5685 -0.2163  1.1349
33642SOL     OW 6055  10.330   3.620   6.432  0.4880 -0.9300 -0.1520
33642SOL    HW1 6056  10.278   3.569   6.370 -0.5369 -2.1602  1.6754
33642SOL    HW2 6057  10.267   3.682   6.470  1.0607 -0.3307 -0.1737
33643SOL     OW 6058   9.420   6.121   2.337  0.0008 -0.6091 -0.1613
33643SOL    HW1 6059   9.392   6.201   2.382 -1.6261 -0.5141 -1.3371
33643SOL    HW2 6060   9.353   6.056   2.358 -2.1484  0.1060 -4.4451
33644SOL     OW 6061   9.694   1.672   6.460 -0.0507  0.0207 -0.0492
33644SOL    HW1 6062   9.749   1.627   6.524  0.2427  0.4869  0.0280
33644SOL    HW2 6063   9.604   1.650   6.486  0.1119 -1.6534 -0.8341
33645SOL     OW 6064   0.269   7.653   4.542  0.7746 -0.2591  0.6739
33645SOL    HW1 6065   0.213   7.646   4.465  0.1828  0.1736  1.0617
33645SOL    HW2 6066   0.208   7.663   4.616  1.3224 -1.0481  1.2450
33646SOL     OW 6067   2.259  10.269  10.342 -0.0510 -0.1823  0.1278
33646SOL    HW1 6068   2.256  10.239  10.433  1.2838  0.7875  0.5111
33646SOL    HW2 6069   2.346  10.308  10.332 -0.6986  0.9947 -1.1669
33647SOL     OW 6070   5.446  10.459   8.120  0.1823 -0.2602  0.0125
33647SOL    HW1 6071   5.501  10.502   8.053 -0.9423 -0.4780 -1.0593
33647SOL    HW2 6072   5.365  10.437   8.074 -0.4820 -0.6987  1.3806
33648SOL     OW 6073   2.465   1.057   3.718  0.1529  0.2719 -0.3800
33648SOL    HW1 6074   2.392   1.106   3.679 -1.4420 -0.6710  1.3533
33648SOL    HW2 6075   2.497   1.002   3.646 -1.6252 -0.1749 -0.8593
33649SOL     OW 6076   6.140   2.979  11.137 -0.2057 -0.4137  0.0718
33649SOL    HW1 6077   6.160   2.917  11.208  0.6519  0.0884  0.2792
33649SOL    HW2 6078   6.072   2.936  11.086 -0.8783 -0.7535  1.2413
33650SOL     OW 6079   7.636   1.635   5.164  0.2058  0.6097 -0.7202
33650SOL    HW1 6080   7.695   1.681   5.104  0.8686 -2.0819 -2.1871
33650SOL    HW2 6081   7.549   1.659   5.134  0.5141  2.3915 -0.2749
33651SOL     OW 6082   7.534   9.069   5.334  0.1432  0.7545  0.7326
33651SOL    HW1 6083   7.439   9.082   5.331  0.1450  0.8008  0.8626
33651SOL    HW2 6084   7.564   9.082   5.244 -0.0829 -0.1154  0.5264
33652SOL     OW 6085   2.383  10.632   4.526  0.2984  0.3130  0.3151
33652SOL    HW1 6086   2.454  10.696   4.518  0.2025  0.3510 -0.2373
33652SOL    HW2 6087   2.332  10.642   4.445  0.3117 -0.4941  0.1995
33653SOL     OW 6088   0.507   0.324   0.156 -0.5715  0.1456  0.1551
33653SOL    HW1 6089   0.509   0.416   0.127 -1.0835  0.5177  1.2884
33653SOL    HW2 6090   0.417   0.296   0.138 -0.7940  0.2749  1.0648
33654SOL     OW 6091   1.232   3.937   8.917  0.1304 -0.4776  0.4932
33654SOL    HW1 6092   1.275   3.913   8.999  2.9486  1.0574 -0.4976
33654SOL    HW2 6093   1.260   3.870   8.855  0.1923 -0.0860  0.1000
33655SOL     OW 6094   7.976  10.969  10.200  0.2974 -0.2742  0.0261
33655SOL    HW1 6095   7.989  10.943  10.108  1.8465  0.8444 -0.0873
33655SOL    HW2 6096   8.045  10.924  10.248  0.3401  0.2484  0.4538
33656SOL     OW 6097  11.268   2.626   1.132 -0.3649  0.4580  0.4409
33656SOL    HW1 6098  11.228   2.545   1.163  0.9836  0.1509  1.4111
33656SOL    HW2 6099  11.245   2.692   1.198 -3.5797  1.5064 -1.5874
33657SOL     OW 6100   8.813   8.166   6.045 -0.3400  0.6180  0.9462
33657SOL    HW1 6101   8.724   8.178   6.014 -0.3239 -0.3760  0.4985
33657SOL    HW2 6102   8.823   8.229   6.116 -1.5607  0.3973  1.3210
33658SOL     OW 6103   0.682   2.251   4.057 -0.1909 -0.0870 -0.8656
33658SOL    HW1 6104   0.757   2.310   4.056  0.0339 -0.2561  2.6268
33658SOL    HW2 6105   0.719   2.165   4.077 -1.0701 -0.6070 -1.4070
33659SOL     OW 6106   8.169   7.997   4.618 -0.0315 -0.8482 -0.4592
33659SOL    HW1 6107   8.085   7.999   4.571  0.1559 -0.1652 -0.7734
33659SOL    HW2 6108   8.198   7.906   4.611 -1.4198 -1.3984  0.8592
33660SOL     OW 6109   2.843   3.387   3.670 -0.4455  0.1458  0.0443
33660SOL    HW1 6110   2.852   3.471   3.623 -1.3388  0.3634  0.2520
33660SOL    HW2 6111   2.810   3.412   3.756  0.6595 -0.3050  0.5930
33661SOL     OW 6112   7.676   2.068   3.336  0.2406  0.5920  0.6152
33661SOL    HW1 6113   7.723   1.987   3.356  0.9213  0.3559 -1.7410
33661SOL    HW2 6114   7.731   2.138   3.372  1.0283  0.1583  0.2675
33662SOL     OW 6115   0.750   0.553   6.267 -0.0717 -0.0192  0.4624
33662SOL    HW1 6116   0.749   0.542   6.172  1.8732  0.6217  0.3319
33662SOL    HW2 6117   0.826   0.609   6.284  2.0405 -3.3302  2.7093
33663SOL     OW 6118   4.899   2.776  10.967  0.0833 -0.6221  0.2988
33663SOL    HW1 6119   4.832   2.710  10.946  1.6729 -1.7102 -1.4781
33663SOL    HW2 6120   4.943   2.741  11.044 -1.2649  0.0363  1.4025
33664SOL     OW 6121   7.849   2.093   6.524  0.0002 -0.5438 -0.0279
33664SOL    HW1 6122   7.903   2.078   6.601  0.9630  1.5934 -0.2405
33664SOL    HW2 6123   7.768   2.131   6.559 -0.5598 -1.8300  0.1107
33665SOL     OW 6124   0.089   0.276   7.122  0.0268  0.0225 -0.6968
33665SOL    HW1 6125   0.137   0.339   7.069  1.3834 -1.0732 -0.8003
33665SOL    HW2 6126   0.092   0.312   7.211 -1.6150  1.4846 -1.2006
33666SOL     OW 6127   8.663   7.463   0.025 -0.4343  0.4304  0.1513
33666SOL    HW1 6128   8.588   7.478  -0.033  0.8580  0.8462 -1.4182
33666SOL    HW2 6129   8.677   7.547   0.069  1.0711  1.2686 -1.8839
33667SOL     OW 6130   4.409   7.164  10.689 -0.0953  0.3374 -0.2053
33667SOL    HW1 6131   4.353   7.112  10.631 -0.0436  0.8477 -0.7204
33667SOL    HW2 6132   4.482   7.192  10.634 -0.9512  2.3318 -0.3894
33668SOL     OW 6133   3.096  10.162   7.579  0.4981 -0.2578 -0.0995
33668SOL    HW1 6134   3.113  10.107   7.656 -1.8985 -1.4747 -0.3711
33668SOL    HW2 6135   3.010  10.134   7.549  1.0908  0.7166 -2.8172
33669SOL     OW 6136  10.800   2.276   7.742 -0.4538  0.7170  0.0784
33669SOL    HW1 6137  10.705   2.260   7.745 -0.5450  1.3805  2.4600
33669SOL    HW2 6138  10.809   2.368   7.767  0.7987  0.7075 -0.3385
33670SOL     OW 6139   8.436   0.222   3.883 -0.4972  0.3783 -0.0509
33670SOL    HW1 6140   8.513   0.278   3.876  0.3841 -0.9073 -0.9910
33670SOL    HW2 6141   8.456   0.163   3.955 -0.3115 -0.3744 -0.7089
33671SOL     OW 6142   0.695   2.151   8.104  0.4540  0.1750 -0.2474
33671SOL    HW1 6143   0.600   2.143   8.105  0.4262  0.3759 -0.7711
33671SOL    HW2 6144   0.727   2.062   8.089  0.3397  0.1520 -0.3489
33672SOL     OW 6145   6.088   5.969   2.518 -0.1463 -0.1613 -0.7226
33672SOL    HW1 6146   6.154   5.963   2.586 -0.5972  0.0379 -0.2654
33672SOL    HW2 6147   6.014   6.013   2.559  0.3197  1.7850 -1.9158
33673SOL     OW 6148   3.323   9.752   4.450 -0.1523 -0.5201 -0.1629
33673SOL    HW1 6149   3.412   9.721   4.431  0.3190 -0.5074  1.8843
33673SOL    HW2 6150   3.333   9.805   4.529 -1.9753 -0.4236  0.0212
33674SOL     OW 6151   7.618   9.446   7.012  0.0234  0.4618 -0.3573
33674SOL    HW1 6152   7.639   9.353   7.012  0.1499  0.4503  2.2823
33674SOL    HW2 6153   7.522   9.449   7.007 -0.0610  0.1419  0.9499
33675SOL     OW 6154   0.686   5.053   3.199 -0.1498  0.2305  0.4030
33675SOL    HW1 6155   0.763   5.045   3.255 -0.7232  0.4435  1.2310
33675SOL    HW2 6156   0.652   5.140   3.218  0.0443  0.5764 -0.7975
33676SOL     OW 6157   4.617   7.962   9.604  0.0952 -0.2139 -0.3620
33676SOL    HW1 6158   4.586   8.051   9.586  0.9932  0.4616  1.3421
33676SOL    HW2 6159   4.709   7.972   9.625  0.3969 -1.6615 -0.9218
33677SOL     OW 6160   3.358   4.847   4.777  0.2594  0.2570  0.1335
33677SOL    HW1 6161   3.437   4.797   4.755  0.8246  0.4796  1.6148
33677SOL    HW2 6162   3.336   4.819   4.866 -2.6993 -1.5444 -1.1062
33678SOL     OW 6163   0.234   8.127   8.358 -0.4081  0.5474 -0.4051
33678SOL    HW1 6164   0.278   8.043   8.369  0.0650  0.7934 -0.4434
33678SOL    HW2 6165   0.288   8.189   8.406 -0.7843  0.8233 -0.3387
33679SOL     OW 6166   5.866   3.417   7.460 -0.2079  0.2556 -0.2351
33679SOL    HW1 6167   5.800   3.472   7.418  0.4689  0.8920 -0.4681
33679SOL    HW2 6168   5.949   3.448   7.425  0.1895 -0.7972 -0.2237
33680SOL     OW 6169   2.938   3.221   1.412 -0.1639  0.5862  0.5872
33680SOL    HW1 6170   3.004   3.289   1.421 -1.3887  1.8928 -0.1692
33680SOL    HW2 6171   2.983   3.141   1.439  2.0709  1.2538 -1.0008
33681SOL     OW 6172   1.844   9.972   2.735 -0.6288  0.0127 -0.3042
33681SOL    HW1 6173   1.796   9.908   2.788  0.8424 -0.6089  0.2834
33681SOL    HW2 6174   1.776  10.033   2.705 -1.6776 -0.3635  1.2340
33682SOL     OW 6175   3.831   9.507   3.237 -0.1723  0.1209 -0.0847
33682SOL    HW1 6176   3.856   9.599   3.238 -0.3857  0.2174 -1.7642
33682SOL    HW2 6177   3.900   9.463   3.286  0.3908  1.0756 -0.0135
33683SOL     OW 6178   6.204   7.062   6.227 -0.3430 -0.1717  0.1383
33683SOL    HW1 6179   6.214   7.085   6.134 -0.1627  0.2872  0.2698
33683SOL    HW2 6180   6.293   7.067   6.263 -0.1111 -2.2294 -0.0854
33684SOL     OW 6181   5.818   6.003   3.283  0.5730  0.7774  0.0801
33684SOL    HW1 6182   5.858   6.087   3.261  0.6711  0.4693 -0.9612
33684SOL    HW2 6183   5.724   6.022   3.286  0.6089  0.9678  0.0566
33685SOL     OW 6184   8.814   4.363   3.268 -0.1692  0.5068 -0.4855
33685SOL    HW1 6185   8.905   4.353   3.297 -0.6967 -1.3231  0.6121
33685SOL    HW2 6186   8.809   4.309   3.188 -0.3560  0.3966 -0.3990
33686SOL     OW 6187   0.703   3.907   6.199  0.4061  0.1405  0.4221
33686SOL    HW1 6188   0.643   3.895   6.125 -0.0853  3.1307  0.3032
33686SOL    HW2 6189   0.784   3.940   6.159  1.2699 -1.2947  0.9046
33687SOL     OW 6190   5.815   7.121   4.003 -0.2436  0.0897 -0.5803
33687SOL    HW1 6191   5.908   7.110   4.021 -0.3391 -2.3728 -1.3528
33687SOL    HW2 6192   5.772   7.113   4.088  0.2152  0.6338 -0.3029
33688SOL     OW 6193   2.486  11.234   4.688 -0.1056 -0.8777 -0.0763
33688SOL    HW1 6194   2.533  11.231   4.772  0.6956 -0.1012 -0.4856
33688SOL    HW2 6195   2.394  11.242   4.712  0.1280 -0.5999  0.7288
33689SOL     OW 6196  10.802   4.773   9.793 -0.4736 -0.2920 -0.0294
33689SOL    HW1 6197  10.853   4.758   9.873 -1.5667  1.9524  1.1501
33689SOL    HW2 6198  10.744   4.698   9.787  0.9122 -1.4078  0.2443
33690SOL     OW 6199   5.382   7.368   2.312 -0.3153  0.0090  0.1027
33690SOL    HW1 6200   5.408   7.459   2.299 -1.3817  0.3827  0.5617
33690SOL    HW2 6201   5.362   7.336   2.223 -0.8372  0.5043  0.0366
33691SOL     OW 6202   0.589  10.612   2.935  0.0283 -0.8211 -0.1426
33691SOL    HW1 6203   0.559  10.659   2.857 -1.9022 -1.1584  0.3728
33691SOL    HW2 6204   0.658  10.667   2.971 -0.4487  0.3468 -0.9849
33692SOL     OW 6205   4.235   3.132   5.399 -0.0472 -0.1581 -0.0140
33692SOL    HW1 6206   4.296   3.184   5.349  0.7800 -1.8722 -0.8288
33692SOL    HW2 6207   4.239   3.168   5.488 -0.7238  2.1877 -0.9000
33693SOL     OW 6208   1.945   2.163   8.198 -0.5646 -0.0216 -0.2919
33693SOL    HW1 6209   1.995   2.082   8.195 -0.8899 -0.5596  4.4568
33693SOL    HW2 6210   1.855   2.135   8.214 -0.7612  1.2228  0.9244
33694SOL     OW 6211   2.323   0.143   2.287 -0.0569 -0.3863  0.4648
33694SOL    HW1 6212   2.418   0.152   2.282  0.0245 -0.9930  0.7958
33694SOL    HW2 6213   2.308   0.049   2.282 -0.7992 -0.1641 -1.9384
33695SOL     OW 6214   1.381   7.896   9.555  0.2661 -0.0203  0.1803
33695SOL    HW1 6215   1.398   7.853   9.471 -1.1063 -0.5021  0.1316
33695SOL    HW2 6216   1.287   7.883   9.570  0.2691  1.0614  1.2340
33696SOL     OW 6217   6.943  10.446   2.625  0.3321  0.1171  0.0173
33696SOL    HW1 6218   7.002  10.522   2.620  0.0872  0.4102  1.3007
33696SOL    HW2 6219   7.001  10.372   2.646  0.1414  0.5820  2.2955
33697SOL     OW 6220   7.220   0.001   5.694  0.8844  0.6360  0.1386
33697SOL    HW1 6221   7.202  -0.088   5.726 -0.2257  0.1941 -1.6408
33697SOL    HW2 6222   7.161   0.057   5.744 -1.3071 -0.1299 -1.4929
33698SOL     OW 6223  11.164   2.316   8.830 -0.0889 -0.0116  0.3756
33698SOL    HW1 6224  11.230   2.363   8.779  0.3513  0.0924  1.0328
33698SOL    HW2 6225  11.108   2.275   8.765 -0.4242  1.3549 -0.2226
33699SOL     OW 6226   6.047   9.878   0.084 -0.3601 -0.0124 -0.2082
33699SOL    HW1 6227   6.050   9.872  -0.012 -1.0887 -3.3686 -0.0790
33699SOL    HW2 6228   6.123   9.827   0.113 -0.6568  0.2373  1.0278
33700SOL     OW 6229  10.929  11.168   5.113  0.3087 -1.1277  0.1437
33700SOL    HW1 6230  10.845  11.144   5.075 -0.4019 -1.4335  1.8908
33700SOL    HW2 6231  10.931  11.264   5.108  0.9697 -1.2188 -2.1793
33701SOL     OW 6232   6.544   9.282   1.193  0.6225  0.2253 -0.0838
33701SOL    HW1 6233   6.573   9.281   1.285  0.1358 -2.0071  0.0735
33701SOL    HW2 6234   6.494   9.364   1.185  0.8106  0.5292  1.5941
33702SOL     OW 6235   0.575   3.072   5.848 -0.4988 -0.1968  0.7489
33702SOL    HW1 6236   0.643   3.136   5.827  0.2650 -1.0266  0.6717
33702SOL    HW2 6237   0.525   3.063   5.767 -0.7577  0.4677  0.8261
33703SOL     OW 6238   6.017   9.385  10.938 -0.8594 -0.1610  0.4342
33703SOL    HW1 6239   6.090   9.340  10.980  0.0109 -0.0351 -0.8967
33703SOL    HW2 6240   5.948   9.386  11.004 -0.7981 -3.1905  0.6284
33704SOL     OW 6241   6.087  11.334  10.535 -0.0455  0.1066 -1.0575
33704SOL    HW1 6242   6.124  11.278  10.603 -1.0724 -0.7001 -1.1570
33704SOL    HW2 6243   6.085  11.421  10.575  3.3154  0.4807 -1.5779
33705SOL     OW 6244   0.625   9.571  10.725  0.1932  0.7340 -0.4835
33705SOL    HW1 6245   0.721   9.563  10.732  0.0662  0.6756  1.3456
33705SOL    HW2 6246   0.605   9.538  10.637  1.7804  0.0675 -0.6183
33706SOL     OW 6247   3.266   1.195   7.758 -0.4334 -0.0600 -0.8543
33706SOL    HW1 6248   3.352   1.184   7.800 -0.2984 -0.8241 -1.3197
33706SOL    HW2 6249   3.278   1.161   7.670 -1.2598 -0.2983 -0.8781
33707SOL     OW 6250   1.399  10.770   7.222 -0.2766  0.3350 -0.1476
33707SOL    HW1 6251   1.451  10.818   7.158 -0.2570 -0.0608 -0.4351
33707SOL    HW2 6252   1.308  10.783   7.194 -0.3074  0.7428  0.1519
33708SOL     OW 6253   9.440   5.946   2.769  0.9313 -0.4174  0.1922
33708SOL    HW1 6254   9.374   5.947   2.839 -0.5092 -2.4869 -1.0769
33708SOL    HW2 6255   9.391   5.960   2.689  2.6761  2.6852 -0.4191
33709SOL     OW 6256   7.525  10.608  10.091  0.7615  0.0691  0.1230
33709SOL    HW1 6257   7.594  10.558  10.047  0.9054  0.8584 -0.5545
33709SOL    HW2 6258   7.542  10.595  10.185  1.4460 -0.2586 -0.0396
33710SOL     OW 6259   0.994   2.250   2.508 -0.0454  0.3002  0.0285
33710SOL    HW1 6260   0.922   2.242   2.446 -0.7208 -0.0811  0.8504
33710SOL    HW2 6261   0.980   2.334   2.552  0.6194  0.7256 -0.5713
33711SOL     OW 6262   2.065   1.182  11.037  0.0247  0.2891  0.3539
33711SOL    HW1 6263   2.048   1.255  10.977 -0.4823 -1.0091 -1.1115
33711SOL    HW2 6264   2.138   1.135  10.996 -0.0786 -0.3932  0.9543
33712SOL     OW 6265   4.975   0.572   1.453 -0.5131  0.3334 -0.4919
33712SOL    HW1 6266   5.014   0.656   1.430 -1.4772  0.5459 -1.3726
33712SOL    HW2 6267   5.031   0.538   1.524 -1.1624  2.5341  1.1180
33713SOL     OW 6268   9.240   5.637   1.102 -0.3446 -0.1828 -0.3110
33713SOL    HW1 6269   9.246   5.678   1.188  0.3738  1.6531 -1.2009
33713SOL    HW2 6270   9.322   5.660   1.059 -0.6238 -1.2178 -1.4361
33714SOL     OW 6271   8.951   3.589   8.442  0.3599  0.2054 -0.0855
33714SOL    HW1 6272   8.937   3.498   8.419 -0.7182  0.1807  0.6458
33714SOL    HW2 6273   9.027   3.616   8.389 -0.4411 -0.5739 -1.6544
33715SOL     OW 6274   8.047   7.020   3.546  0.5998  0.6148  0.1840
33715SOL    HW1 6275   8.141   7.037   3.555  0.7528 -0.3420  0.5416
33715SOL    HW2 6276   8.043   6.945   3.486  0.1151  0.1379  0.8023
33716SOL     OW 6277   2.400   4.767   9.811  0.4067 -0.2908 -0.2879
33716SOL    HW1 6278   2.480   4.818   9.824 -0.3032  0.9569 -0.6843
33716SOL    HW2 6279   2.362   4.802   9.730  0.3238 -2.0317 -1.0086
33717SOL     OW 6280   8.800   8.060   8.390  0.1253  0.3459  0.3642
33717SOL    HW1 6281   8.860   8.126   8.423  2.0960 -1.3536  0.2440
33717SOL    HW2 6282   8.843   8.025   8.312 -1.1862 -0.6503  0.0613
33718SOL     OW 6283   5.909   9.139   4.645 -0.9818  0.0105  0.2311
33718SOL    HW1 6284   5.990   9.189   4.648 -0.7254 -0.3585 -0.4879
33718SOL    HW2 6285   5.841   9.205   4.629 -0.8421  0.3263  0.9181
33719SOL     OW 6286   5.236   6.583   9.133 -0.5479  0.0587 -0.9651
33719SOL    HW1 6287   5.230   6.498   9.088 -0.4564 -0.7491  0.5251
33719SOL    HW2 6288   5.294   6.635   9.078 -1.4896 -0.4608 -2.4906
33720SOL     OW 6289   8.219   0.818   5.085  0.0768 -0.3427  0.4144
33720SOL    HW1 6290   8.244   0.911   5.090 -0.9254 -0.1250  1.6049
33720SOL    HW2 6291   8.136   0.813   5.134  0.6103 -2.0331  1.1690
33721SOL     OW 6292   9.944   2.889  10.905  0.6189  0.0512 -0.2418
33721SOL    HW1 6293  10.032   2.855  10.888  0.4235 -0.0324 -1.1332
33721SOL    HW2 6294   9.954   2.984  10.905  1.0602  0.0049  1.6320
33722SOL     OW 6295   8.788   3.856   0.386 -0.1093 -0.1240  0.1387
33722SOL    HW1 6296   8.807   3.917   0.315  1.2292  0.7814  1.2571
33722SOL    HW2 6297   8.756   3.911   0.457 -0.7588 -0.9522  0.5102
33723SOL     OW 6298   4.832   8.421   0.163  0.0287 -0.1100  0.1511
33723SOL    HW1 6299   4.908   8.412   0.221  1.8885  1.1904 -2.0238
33723SOL    HW2 6300   4.869   8.430   0.076 -2.7503 -2.4228 -1.3510
33724SOL     OW 6301   0.986   8.362   8.058  0.2932 -0.1197  0.4318
33724SOL    HW1 6302   1.002   8.271   8.031  0.2058 -0.3006  0.9947
33724SOL    HW2 6303   1.025   8.415   7.988 -1.6515 -0.5836 -1.0453
33725SOL     OW 6304   1.706   6.172   1.968  0.1243 -0.1208  0.5219
33725SOL    HW1 6305   1.695   6.173   2.063  1.5189 -0.2349  0.6910
33725SOL    HW2 6306   1.622   6.138   1.935 -0.5956  0.4930  1.6630
33726SOL     OW 6307   4.348   2.118   1.457  0.2639 -0.3186  0.0312
33726SOL    HW1 6308   4.434   2.075   1.456  0.3435 -0.1642  0.0543
33726SOL    HW2 6309   4.368   2.210   1.435  0.0218 -0.4349 -0.6752
33727SOL     OW 6310   8.881   3.452   2.673  0.1514  0.0251 -0.2148
33727SOL    HW1 6311   8.880   3.449   2.577 -1.7343  0.1523 -0.2144
33727SOL    HW2 6312   8.943   3.523   2.693  1.0346 -0.4173 -1.3181
33728SOL     OW 6313   9.992   2.802  10.298 -0.1828 -0.1089  0.9163
33728SOL    HW1 6314   9.925   2.869  10.306 -0.5435 -0.4469  0.7560
33728SOL    HW2 6315   9.943   2.720  10.293  0.2012 -0.2707 -0.2547
33729SOL     OW 6316   8.740   7.718   9.040 -0.5792  0.4370 -0.0808
33729SOL    HW1 6317   8.662   7.669   9.066  0.1724  0.3296  2.1213
33729SOL    HW2 6318   8.810   7.653   9.041 -0.1369  0.9072 -0.2564
33730SOL     OW 6319   3.313   7.826   1.472 -0.0339 -0.0532 -0.2502
33730SOL    HW1 6320   3.281   7.813   1.561  2.1242 -3.3119  0.1367
33730SOL    HW2 6321   3.359   7.745   1.451  0.8866  1.2854 -3.7529
33731SOL     OW 6322  11.078   4.134   8.563 -0.1833 -0.3282 -0.0106
33731SOL    HW1 6323  10.985   4.114   8.552 -0.3098  0.1337  0.2252
33731SOL    HW2 6324  11.090   4.138   8.658 -0.1253  0.5966 -0.0594
33732SOL     OW 6325   8.495   6.408   2.850  0.1470 -0.2624  0.1631
33732SOL    HW1 6326   8.418   6.460   2.826 -0.5523 -1.4340 -0.1571
33732SOL    HW2 6327   8.459   6.329   2.891  1.1794 -0.8250  0.0027
33733SOL     OW 6328   6.714   4.145   4.685 -0.2926  0.3441  0.0707
33733SOL    HW1 6329   6.723   4.126   4.592 -1.4069  0.1697 -0.0073
33733SOL    HW2 6330   6.769   4.222   4.700  1.1834 -0.6077 -0.3994
33734SOL     OW 6331   0.322   6.358  10.962  0.0650  0.6837 -0.3683
33734SOL    HW1 6332   0.398   6.307  10.936  0.3067  0.9181 -0.1281
33734SOL    HW2 6333   0.347   6.449  10.947  0.2963  0.8419  0.8651
33735SOL     OW 6334   9.124  10.154   8.490  0.1833 -0.6446  0.0856
33735SOL    HW1 6335   9.070  10.083   8.455 -0.1038 -0.1509 -0.4783
33735SOL    HW2 6336   9.205  10.110   8.518 -0.2618 -1.2946  0.3693
33736SOL     OW 6337   0.758   9.129   8.779  0.3588  0.1129  0.5399
33736SOL    HW1 6338   0.723   9.152   8.865 -0.3985  0.4629  0.1350
33736SOL    HW2 6339   0.762   9.212   8.731 -2.8309 -0.6068 -1.0869
33737SOL     OW 6340   9.957   6.511   5.120  0.0531  0.1018 -0.0308
33737SOL    HW1 6341   9.882   6.571   5.116 -0.1522 -0.1153  0.4920
33737SOL    HW2 6342   9.950   6.458   5.041 -0.6328 -0.2475  0.2596
33738SOL     OW 6343   8.659   6.985   7.346 -0.6026 -0.1816 -0.1310
33738SOL    HW1 6344   8.671   7.059   7.406 -2.2277  0.1897 -0.2560
33738SOL    HW2 6345   8.690   7.016   7.261 -1.0256  0.2553 -0.1220
33739SOL     OW 6346  10.513   2.062   4.361 -0.5287  0.8381 -0.4638
33739SOL    HW1 6347  10.473   2.144   4.333 -2.0171  0.0232 -0.7607
33739SOL    HW2 6348  10.517   2.009   4.281 -0.9786  0.0484  0.0426
33740SOL     OW 6349   2.644   7.959   7.000 -0.3314 -0.2630  0.2004
33740SOL    HW1 6350   2.585   7.993   7.068 -0.9519 -1.8880  0.4965
33740SOL    HW2 6351   2.600   7.983   6.918 -0.6872 -0.2231  0.3985
33741SOL     OW 6352   4.307   6.351   1.289 -0.2679  0.4032  0.3283
33741SOL    HW1 6353   4.269   6.416   1.348 -0.0366  1.1478 -0.3331
33741SOL    HW2 6354   4.247   6.348   1.215 -0.1812 -0.0061  0.2745
33742SOL     OW 6355   1.221   8.826  10.871  0.3306 -0.6442  0.2058
33742SOL    HW1 6356   1.236   8.767  10.798 -2.2138  0.1099 -1.0102
33742SOL    HW2 6357   1.294   8.888  10.867  0.6801 -1.1208 -1.1675
33743SOL     OW 6358   1.958   2.672   7.677 -0.1386  0.2819 -0.0668
33743SOL    HW1 6359   1.869   2.655   7.647 -0.2714 -0.9802  1.0105
33743SOL    HW2 6360   1.954   2.757   7.720 -1.0480 -0.2395  0.8909
33744SOL     OW 6361   6.030   0.458   9.351  0.4149  0.3743 -0.3302
33744SOL    HW1 6362   5.940   0.469   9.321  0.5543  0.8816 -0.5823
33744SOL    HW2 6363   6.026   0.477   9.445 -0.1917 -2.1853  0.1830
33745SOL     OW 6364   2.819   6.002   0.067  0.5441  0.1713 -0.3077
33745SOL    HW1 6365   2.841   6.074   0.008  0.1968 -0.1946 -0.8988
33745SOL    HW2 6366   2.873   6.016   0.144  1.4914  0.3033 -0.9846
33746SOL     OW 6367   9.436   1.154   2.546  0.2026  0.2377 -0.3350
33746SOL    HW1 6368   9.469   1.106   2.470  2.1560  1.4367 -0.2835
33746SOL    HW2 6369   9.380   1.091   2.592  0.4248 -1.0507 -1.8107
33747SOL     OW 6370   7.887   7.277   0.731 -0.1570 -0.8130  0.4111
33747SOL    HW1 6371   7.979   7.298   0.717 -0.2487  0.0422  1.0768
33747SOL    HW2 6372   7.848   7.358   0.761 -1.5401 -0.6514 -1.7030
33748SOL     OW 6373   5.216   2.039   0.942  0.4600  0.0327 -0.1827
33748SOL    HW1 6374   5.136   2.072   0.902  0.2743 -0.7661 -0.4999
33748SOL    HW2 6375   5.186   1.991   1.019  0.7113  0.5500  0.2305
33749SOL     OW 6376   8.604   0.569   8.777 -0.0926  0.3600 -0.3085
33749SOL    HW1 6377   8.543   0.544   8.708 -1.4949  0.8665  0.7276
33749SOL    HW2 6378   8.579   0.515   8.852  1.5246 -0.3037 -0.2303
33750SOL     OW 6379   4.042   5.510   2.146 -0.0498 -0.3392  0.1678
33750SOL    HW1 6380   3.952   5.503   2.113  0.6194 -1.9098 -1.4065
33750SOL    HW2 6381   4.072   5.420   2.152  1.3621  0.1724  0.8681
33751SOL     OW 6382   2.477   2.870  11.170 -0.1365 -1.1231 -0.0815
33751SOL    HW1 6383   2.401   2.919  11.136  0.5063 -0.1410 -0.1236
33751SOL    HW2 6384   2.543   2.879  11.101  0.5640 -0.6201  0.6582
33752SOL     OW 6385   5.343   4.878   3.840 -0.1574 -0.4938  0.3515
33752SOL    HW1 6386   5.405   4.838   3.779 -0.1027 -0.2182  0.2275
33752SOL    HW2 6387   5.287   4.933   3.785 -2.1286 -2.6718  0.0786
33753SOL     OW 6388   5.847   6.471   0.747  0.5677  0.1799 -0.1468
33753SOL    HW1 6389   5.941   6.464   0.765  0.4223 -1.3720  0.0526
33753SOL    HW2 6390   5.805   6.421   0.817 -0.2560 -1.6021 -1.8570
33754SOL     OW 6391   4.007   5.914   4.787 -0.7052  0.3701 -0.8299
33754SOL    HW1 6392   4.020   5.987   4.847 -0.4833 -0.7976  0.5758
33754SOL    HW2 6393   3.960   5.848   4.839 -0.0966 -0.8448 -1.7909
33755SOL     OW 6394   1.331   0.521   9.943  0.1262  0.3757  0.2795
33755SOL    HW1 6395   1.410   0.502   9.892  0.3607  2.6779 -0.2701
33755SOL    HW2 6396   1.269   0.555   9.879 -1.2537 -1.1886  0.7558
33756SOL     OW 6397   1.133   9.612   4.645  0.3035 -0.5887 -0.6074
33756SOL    HW1 6398   1.081   9.692   4.649 -1.0853 -1.4531 -0.9133
33756SOL    HW2 6399   1.208   9.629   4.703 -0.6690  0.4263  0.3752
33757SOL     OW 6400   0.391   4.296   3.029  0.0531  0.0868 -0.1852
33757SOL    HW1 6401   0.461   4.357   3.008  2.3088 -2.2086  0.4500
33757SOL    HW2 6402   0.412   4.263   3.116 -1.1520 -1.5364 -0.4813
33758SOL     OW 6403   3.148   2.420   1.645  0.2851  0.2805 -0.5560
33758SOL    HW1 6404   3.112   2.508   1.660 -2.4277 -1.0332  1.0637
33758SOL    HW2 6405   3.169   2.388   1.733  0.3715 -1.0517 -1.0503
33759SOL     OW 6406  10.912   3.213   3.825  0.0607  1.0532 -0.4602
33759SOL    HW1 6407  10.860   3.291   3.843 -1.7009 -0.7813  2.9547
33759SOL    HW2 6408  10.848   3.148   3.795  0.8577 -0.2384  0.5770
33760SOL     OW 6409   5.151   8.112   1.870  0.0434 -0.0794  0.0955
33760SOL    HW1 6410   5.066   8.146   1.842 -0.4994  0.3050  2.0983
33760SOL    HW2 6411   5.130   8.049   1.939  1.3093 -1.0524 -0.3894
33761SOL     OW 6412   1.121   7.953   9.273 -0.9631  0.4074  0.4168
33761SOL    HW1 6413   1.177   8.029   9.262 -0.8306  0.1415 -0.7901
33761SOL    HW2 6414   1.126   7.907   9.189 -1.5353 -0.5908  0.9253
33762SOL     OW 6415   6.956   9.176   0.158  0.2427  0.0440 -0.0718
33762SOL    HW1 6416   6.901   9.105   0.191 -0.4944  0.4698 -0.3531
33762SOL    HW2 6417   6.918   9.196   0.072  0.1112  1.1229  0.2267
33763SOL     OW 6418  10.826   6.351   7.209  0.0560 -0.9840 -0.3997
33763SOL    HW1 6419  10.919   6.375   7.204 -0.0091 -0.5396  0.4487
33763SOL    HW2 6420  10.791   6.375   7.123  0.4408  0.0996 -0.2713
33764SOL     OW 6421   3.078   9.092   0.519 -0.3599 -0.5566 -0.3525
33764SOL    HW1 6422   3.126   9.105   0.437  2.9574 -0.5230  1.4759
33764SOL    HW2 6423   3.058   8.998   0.519 -0.6395 -0.5064 -1.3290
33765SOL     OW 6424   0.968   9.150   4.089 -0.0684  0.6198 -0.1148
33765SOL    HW1 6425   0.896   9.088   4.097  0.2423  0.0399 -1.6821
33765SOL    HW2 6426   0.943   9.208   4.017  1.5354 -0.2960 -1.4359
33766SOL     OW 6427   8.313  11.016  11.072 -0.2084 -0.4855 -0.0185
33766SOL    HW1 6428   8.329  10.965  10.993 -2.3215  0.3416 -1.0128
33766SOL    HW2 6429   8.220  11.037  11.069  0.3269  2.2567  1.0700
33767SOL     OW 6430  10.588   8.738   7.850  0.4237 -0.0340 -0.2651
33767SOL    HW1 6431  10.554   8.690   7.925  1.8903 -0.1348  0.3453
33767SOL    HW2 6432  10.540   8.702   7.775 -1.1025  0.1317  0.6293
33768SOL     OW 6433  10.536   2.601   0.093  0.2164 -0.2144  0.3496
33768SOL    HW1 6434  10.500   2.529   0.145 -0.0828  0.3882  0.9746
33768SOL    HW2 6435  10.623   2.569   0.067 -0.3202 -1.2211 -0.2514
33769SOL     OW 6436   6.532   7.871   6.079 -0.5380 -0.3626  0.3401
33769SOL    HW1 6437   6.502   7.789   6.042 -0.2628  0.9699 -3.0441
33769SOL    HW2 6438   6.456   7.907   6.124 -0.2983 -3.0146  2.9750
33770SOL     OW 6439  10.648  11.331   3.296  0.0443 -0.6053 -0.4464
33770SOL    HW1 6440  10.664  11.420   3.328  1.6844 -0.8577 -0.5350
33770SOL    HW2 6441  10.579  11.341   3.231  0.0276  0.5675 -0.2587
33771SOL     OW 6442   8.785   5.474   5.735 -0.3453 -0.1793  0.2479
33771SOL    HW1 6443   8.737   5.451   5.815  0.5950  0.6155  1.0558
33771SOL    HW2 6444   8.841   5.398   5.718 -0.9498 -0.5742  0.0434
33772SOL     OW 6445   4.139   9.867   8.355  0.4812  0.6983 -0.0306
33772SOL    HW1 6446   4.069   9.928   8.380 -2.7390 -1.6339 -2.7764
33772SOL    HW2 6447   4.145   9.806   8.428 -0.0744  1.1364  0.3916
33773SOL     OW 6448   6.755   7.708   1.824 -0.4610 -0.3925  0.3661
33773SOL    HW1 6449   6.723   7.790   1.787  1.8030  1.4403  2.3046
33773SOL    HW2 6450   6.738   7.716   1.918  2.9709 -0.5393  1.0668
33774SOL     OW 6451   2.523  11.204   0.936  0.1288  0.5380  0.2990
33774SOL    HW1 6452   2.543  11.225   0.845 -1.1680 -0.3694 -0.2243
33774SOL    HW2 6453   2.461  11.131   0.930 -0.5433  0.9545  1.8889
33775SOL     OW 6454  10.392   8.491   5.660  0.0144  0.7824  0.2262
33775SOL    HW1 6455  10.351   8.423   5.713  0.1806 -0.2636 -0.9678
33775SOL    HW2 6456  10.319   8.544   5.627 -0.4120 -0.9546 -1.7307
33776SOL     OW 6457   6.482   4.870   8.555  0.7286  0.4310  0.4779
33776SOL    HW1 6458   6.524   4.955   8.545 -0.4899  1.0849  0.7779
33776SOL    HW2 6459   6.463   4.841   8.466  2.3256 -0.1526  0.3031
33777SOL     OW 6460   3.677   8.360   1.452 -0.5823 -0.2662 -0.6619
33777SOL    HW1 6461   3.597   8.412   1.445 -2.0390 -2.4238 -0.5125
33777SOL    HW2 6462   3.685   8.340   1.546 -0.5736 -1.0925 -0.8307
33778SOL     OW 6463   6.635   9.611   1.253 -0.5519 -0.2418  0.1133
33778SOL    HW1 6464   6.676   9.621   1.339  0.2628 -1.1124 -0.1671
33778SOL    HW2 6465   6.547   9.579   1.272  0.0783 -1.7517  0.5702
33779SOL     OW 6466   6.847   0.580   6.552 -0.4110 -0.5435  0.8361
33779SOL    HW1 6467   6.798   0.628   6.618 -0.4789  0.1900  0.2638
33779SOL    HW2 6468   6.813   0.613   6.468  0.1577 -0.9531  0.4409
33780SOL     OW 6469   6.729   2.384   2.119  0.0480 -0.5388 -0.2761
33780SOL    HW1 6470   6.713   2.290   2.133  2.1319 -0.8092  0.5114
33780SOL    HW2 6471   6.761   2.415   2.203 -1.0318  0.9987 -0.4159
33781SOL     OW 6472   0.002   0.239   3.779  0.0758 -0.1614  0.4752
33781SOL    HW1 6473  -0.081   0.281   3.755 -0.6322 -1.3801  0.7647
33781SOL    HW2 6474   0.061   0.312   3.797 -0.8027  0.7241 -0.1818
33782SOL     OW 6475   8.943   4.259   7.779 -0.8160 -0.3691  0.1647
33782SOL    HW1 6476   8.960   4.232   7.689  0.2897  1.6541 -0.2717
33782SOL    HW2 6477   8.874   4.325   7.772  0.5048  1.0872  0.5823
33783SOL     OW 6478   0.185  10.165  11.145 -0.2825  0.1574  0.4487
33783SOL    HW1 6479   0.123  10.181  11.216 -0.0457  0.7585  0.5236
33783SOL    HW2 6480   0.222  10.251  11.125  1.4755 -0.3692  1.2768
33784SOL     OW 6481   9.976  10.880   9.416 -0.4143 -0.5371 -1.0292
33784SOL    HW1 6482  10.055  10.835   9.447 -0.7069 -0.4930 -0.2065
33784SOL    HW2 6483   9.938  10.819   9.353  0.7617 -0.1621 -2.1155
33785SOL     OW 6484   8.426   4.645   4.728  0.3352 -0.1489 -0.2012
33785SOL    HW1 6485   8.363   4.705   4.689  0.4916 -0.6086 -1.1659
33785SOL    HW2 6486   8.402   4.559   4.694 -0.4571 -0.7840  1.8695
33786SOL     OW 6487   0.827   8.307   9.742 -0.3160  0.6442 -0.2731
33786SOL    HW1 6488   0.900   8.359   9.709  0.0218 -0.4680 -1.3230
33786SOL    HW2 6489   0.794   8.260   9.665 -1.3971  0.2493  0.4129
33787SOL     OW 6490   9.854  10.486   5.495  0.3667  0.3386 -0.5273
33787SOL    HW1 6491   9.798  10.410   5.475 -0.8662  1.7762 -2.7571
33787SOL    HW2 6492   9.809  10.531   5.566  2.8182 -2.7501  3.1734
33788SOL     OW 6493   7.423   8.647   5.224  0.5862 -0.0975  0.6089
33788SOL    HW1 6494   7.487   8.588   5.265  1.1893  0.0445 -0.1026
33788SOL    HW2 6495   7.340   8.600   5.229  1.1686 -1.2715 -0.4552
33789SOL     OW 6496   9.849   6.361   3.773 -0.3301  0.0315 -0.2989
33789SOL    HW1 6497   9.843   6.426   3.703  0.5547 -1.1217 -1.4544
33789SOL    HW2 6498   9.801   6.285   3.739  0.7202 -0.7918  0.0565
33790SOL     OW 6499   2.499   1.550   4.944  0.5020 -0.3274  0.1034
33790SOL    HW1 6500   2.471   1.471   4.898  2.0737  0.5193 -2.4169
33790SOL    HW2 6501   2.515   1.521   5.034 -1.3148 -2.3278 -0.1786
33791SOL     OW 6502   3.236  10.876   6.806 -0.4386  0.1415  0.1819
33791SOL    HW1 6503   3.248  10.835   6.892 -0.6064  1.1747  0.7055
33791SOL    HW2 6504   3.154  10.924   6.814  0.0894  1.1155 -0.2180
33792SOL     OW 6505   8.791   1.055   5.805 -0.1512  0.3515  0.2519
33792SOL    HW1 6506   8.755   0.971   5.837 -1.5825  0.9014  0.1067
33792SOL    HW2 6507   8.730   1.121   5.837 -0.0873  1.1778 -1.2948
33793SOL     OW 6508   3.602   7.339   1.991  0.0637 -0.0251  0.4091
33793SOL    HW1 6509   3.647   7.329   2.075 -0.3077  0.3977  0.6627
33793SOL    HW2 6510   3.645   7.277   1.933  0.0415 -0.6209  1.0293
33794SOL     OW 6511   5.363   5.304   5.934  0.0046 -0.1007  0.2946
33794SOL    HW1 6512   5.361   5.400   5.942  0.5477  0.0021 -0.6378
33794SOL    HW2 6513   5.420   5.288   5.858  0.7768 -1.2092  1.0999
33795SOL     OW 6514   3.643   1.447   7.711 -0.5337 -0.3094 -0.2169
33795SOL    HW1 6515   3.575   1.515   7.708 -1.4868 -1.2338  0.3257
33795SOL    HW2 6516   3.696   1.464   7.633  0.4372  2.2916  0.9595
33796SOL     OW 6517   3.048   1.740   0.742 -0.0103 -0.3760 -0.0443
33796SOL    HW1 6518   3.100   1.793   0.803 -3.1375  1.5738  1.0502
33796SOL    HW2 6519   3.097   1.744   0.660  0.8695  2.6478  0.5477
33797SOL     OW 6520  10.582   8.024   8.171  0.7008  0.0893 -0.0943
33797SOL    HW1 6521  10.644   8.095   8.160  0.1524  0.4681 -0.8203
33797SOL    HW2 6522  10.529   8.049   8.247  0.9051  0.1621  0.0223
33798SOL     OW 6523  10.805   6.343  10.768  0.4207 -0.1093  0.4210
33798SOL    HW1 6524  10.732   6.391  10.728  0.5615 -0.4744 -0.2918
33798SOL    HW2 6525  10.870   6.337  10.698  0.4349 -1.2699  0.5144
33799SOL     OW 6526   2.093   5.539   6.885 -0.1604  0.0975 -0.0378
33799SOL    HW1 6527   2.007   5.525   6.926 -1.1526  1.2722 -1.6675
33799SOL    HW2 6528   2.073   5.564   6.795  1.8569  1.5802 -0.1087
33800SOL     OW 6529   9.481   7.522   0.422  0.4881  0.0212  0.2138
33800SOL    HW1 6530   9.436   7.604   0.401 -1.9578 -0.3652  3.4840
33800SOL    HW2 6531   9.547   7.547   0.487 -1.6308 -0.7951  2.7796
33801SOL     OW 6532  10.987   3.745   9.670  0.2620 -0.2221  0.0145
33801SOL    HW1 6533  11.020   3.731   9.581 -1.1334  1.2001 -0.7590
33801SOL    HW2 6534  11.064   3.743   9.726  1.2832  0.0912 -1.3814
33802SOL     OW 6535   1.633   5.651   8.555 -0.0286  0.7431  0.2033
33802SOL    HW1 6536   1.691   5.585   8.593 -0.5723 -0.8428 -1.6447
33802SOL    HW2 6537   1.556   5.651   8.611 -0.4109 -0.8466 -0.3224
33803SOL     OW 6538   0.905  10.009   1.529 -0.0748 -0.8488  0.1752
33803SOL    HW1 6539   0.914  10.087   1.475  0.2216 -0.5279  0.6801
33803SOL    HW2 6540   0.811   9.993   1.534 -0.1310 -0.5490  0.0331
33804SOL     OW 6541   2.796   0.532  10.095  0.4533  0.4203 -0.1241
33804SOL    HW1 6542   2.752   0.520  10.011 -1.2876  3.8778  0.2087
33804SOL    HW2 6543   2.724   0.541  10.158  1.7301 -0.8616  1.5821
33805SOL     OW 6544   9.065   9.649  10.024  0.2805  0.1540 -0.0104
33805SOL    HW1 6545   9.088   9.566   9.981  1.7781  1.2109 -1.3429
33805SOL    HW2 6546   9.129   9.658  10.094  0.5493  0.4933 -0.2949
33806SOL     OW 6547   4.754   8.793   0.855  0.0899  0.2498 -0.3493
33806SOL    HW1 6548   4.698   8.870   0.841 -0.7975 -0.5079 -0.9897
33806SOL    HW2 6549   4.834   8.814   0.808  0.6475  1.6470  1.1609
33807SOL     OW 6550  10.043  10.331   0.289 -0.5505 -1.0876  0.2532
33807SOL    HW1 6551   9.950  10.319   0.305 -0.7620 -0.4093 -0.4054
33807SOL    HW2 6552  10.086  10.273   0.351 -1.4189 -1.6239  0.3683
33808SOL     OW 6553   0.175   4.123   0.962 -0.3961 -0.0369 -0.1577
33808SOL    HW1 6554   0.153   4.030   0.970 -0.9377  0.0556 -0.5176
33808SOL    HW2 6555   0.269   4.124   0.946 -0.3188 -0.5037  0.2343
33809SOL     OW 6556   5.563   8.473   1.161  0.0630 -0.0169  0.0045
33809SOL    HW1 6557   5.614   8.496   1.238  0.9172  0.6696 -0.7568
33809SOL    HW2 6558   5.598   8.388   1.134 -0.6401 -0.5411  0.7042
33810SOL     OW 6559   7.190   2.611   9.977  0.0709  0.4738  0.0607
33810SOL    HW1 6560   7.128   2.581  10.043  1.0653  0.5059  1.0336
33810SOL    HW2 6561   7.146   2.596   9.893 -1.6490  1.4589  0.7673
33811SOL     OW 6562   7.308   3.005   0.545  0.2802 -0.3831 -0.1612
33811SOL    HW1 6563   7.333   2.998   0.453 -0.2197 -0.4032 -0.2955
33811SOL    HW2 6564   7.213   3.017   0.544  0.1703 -1.1514  0.3843
33812SOL     OW 6565   4.604   1.501   9.086  0.0324  0.1664  0.2735
33812SOL    HW1 6566   4.540   1.569   9.104  0.6398  0.7325  0.3042
33812SOL    HW2 6567   4.560   1.444   9.022 -0.3525  0.7715 -0.0123
33813SOL     OW 6568  10.824   6.797   9.563  0.3260  0.1953 -0.4445
33813SOL    HW1 6569  10.734   6.811   9.592  0.2808 -0.0195 -0.4790
33813SOL    HW2 6570  10.871   6.875   9.593  0.2723 -0.0025  0.1636
33814SOL     OW 6571   1.564   6.318   5.010  0.0900  0.3271  1.2699
33814SOL    HW1 6572   1.588   6.333   4.919  1.3072  2.9809  1.9809
33814SOL    HW2 6573   1.647   6.301   5.054 -0.1507  1.7979  2.3455
33815SOL     OW 6574   0.458   0.503   5.935  0.1367  0.0141  0.2667
33815SOL    HW1 6575   0.412   0.565   5.878 -1.5982  0.0340  1.6407
33815SOL    HW2 6576   0.415   0.512   6.020  2.2533 -0.4972  1.4250
33816SOL     OW 6577   0.056   0.049   5.382 -0.6274  0.2455 -0.2461
33816SOL    HW1 6578   0.006   0.050   5.301 -0.1058 -0.7211 -0.5982
33816SOL    HW2 6579   0.005  -0.006   5.441 -0.1474 -0.4943 -0.5067
33817SOL     OW 6580   8.684   8.608   7.397  0.2066 -0.0337 -0.0621
33817SOL    HW1 6581   8.735   8.683   7.367  0.7171  0.4273  1.9011
33817SOL    HW2 6582   8.670   8.556   7.318  0.7374  1.5926 -1.2547
33818SOL     OW 6583   3.450   2.102   9.827 -0.0061  0.2046  0.0465
33818SOL    HW1 6584   3.436   2.008   9.817  2.2917  0.1796 -3.8256
33818SOL    HW2 6585   3.365   2.142   9.807 -0.2082 -0.8941 -1.2762
33819SOL     OW 6586   1.595   0.572   5.852  0.4040 -0.0980  0.7862
33819SOL    HW1 6587   1.585   0.520   5.932  0.7006  1.2118  1.6853
33819SOL    HW2 6588   1.508   0.567   5.810 -0.1214  0.2131  1.8146
33820SOL     OW 6589   6.442   4.415   2.595 -0.6352  0.0369  0.0631
33820SOL    HW1 6590   6.519   4.360   2.611  0.7948  1.3362 -2.1827
33820SOL    HW2 6591   6.402   4.425   2.682  0.2818 -2.7249  0.8557
33821SOL     OW 6592  10.050   8.340  11.089 -0.3053 -0.5344 -0.8650
33821SOL    HW1 6593  10.082   8.250  11.095 -0.3585 -0.5203 -0.2964
33821SOL    HW2 6594   9.969   8.333  11.037 -1.0517 -1.0164  0.3460
33822SOL     OW 6595   1.514   9.567   3.685 -1.0016  0.0386  0.5826
33822SOL    HW1 6596   1.583   9.633   3.681  0.1172 -1.1628 -0.4871
33822SOL    HW2 6597   1.480   9.562   3.596 -4.0538  2.2171  1.5518
33823SOL     OW 6598   7.395   0.566   1.483  0.3272 -0.0548 -0.1203
33823SOL    HW1 6599   7.490   0.555   1.486  0.1377 -1.6544  0.3063
33823SOL    HW2 6600   7.379   0.607   1.398  1.3322 -0.4486 -0.5140
33824SOL     OW 6601   0.839   7.254   1.880 -0.0378 -0.6997 -0.5109
33824SOL    HW1 6602   0.828   7.294   1.794 -1.4510  1.5281  0.6552
33824SOL    HW2 6603   0.751   7.248   1.917  0.5138 -1.8421  0.7054
33825SOL     OW 6604   3.759   5.803   1.195 -0.5776  0.0378  0.3864
33825SOL    HW1 6605   3.849   5.796   1.163 -0.3290  1.6379  0.6873
33825SOL    HW2 6606   3.711   5.843   1.122 -1.2941 -1.7776 -0.1720
33826SOL     OW 6607   8.772   5.629  10.655  0.1979 -0.0323  1.0580
33826SOL    HW1 6608   8.770   5.533  10.663 -1.4613 -0.1303 -0.0838
33826SOL    HW2 6609   8.830   5.658  10.725  0.7468 -1.8780  1.4094
33827SOL     OW 6610   4.794   5.114   2.937  0.2031 -0.1111 -0.2292
33827SOL    HW1 6611   4.854   5.144   2.869  1.0984  0.7927  0.9236
33827SOL    HW2 6612   4.752   5.194   2.969  0.8459 -0.3537  1.2467
33828SOL     OW 6613   8.072   4.792   0.427  0.6353  0.4159  0.1433
33828SOL    HW1 6614   8.072   4.875   0.379  0.0812 -0.5723 -1.6253
33828SOL    HW2 6615   7.994   4.746   0.395 -0.6440  0.3605  3.1812
33829SOL     OW 6616   6.479   2.538   3.673  0.0592  0.0299 -0.9876
33829SOL    HW1 6617   6.454   2.516   3.584 -1.5238  1.5011 -0.9250
33829SOL    HW2 6618   6.400   2.523   3.725  0.2462  1.5143 -0.2439
33830SOL     OW 6619   0.160   5.291  10.329  0.1246 -0.9166  0.1531
33830SOL    HW1 6620   0.085   5.235  10.310  0.7750 -1.7407 -0.0455
33830SOL    HW2 6621   0.123   5.377  10.346 -0.8096 -1.1469 -0.6760
33831SOL     OW 6622   5.116   1.704   0.888 -0.0818  0.2697 -0.2915
33831SOL    HW1 6623   5.137   1.764   0.816 -0.7329 -0.3396 -0.9931
33831SOL    HW2 6624   5.088   1.762   0.959 -0.6051  0.8084 -0.9290
33832SOL     OW 6625   0.988   4.067   4.194  0.8569  0.3529  0.0457
33832SOL    HW1 6626   0.915   4.039   4.249  2.5825 -2.2865  1.0533
33832SOL    HW2 6627   0.987   4.005   4.121  0.5130  1.9187 -1.3071
33833SOL     OW 6628   6.892   1.495  10.697  0.1773 -0.2249  0.7420
33833SOL    HW1 6629   6.940   1.488  10.615 -0.7879 -0.5669  0.1917
33833SOL    HW2 6630   6.895   1.589  10.718  1.3029 -0.2864  0.8585
33834SOL     OW 6631   2.785   1.731   4.749  0.1091 -0.2402 -0.2039
33834SOL    HW1 6632   2.747   1.763   4.667  2.3049 -1.1929 -1.6495
33834SOL    HW2 6633   2.764   1.637   4.750  0.0715 -0.2262  0.3240
33835SOL     OW 6634   9.200   6.771   6.437  0.1376  0.0958  0.1711
33835SOL    HW1 6635   9.115   6.809   6.413 -0.1360 -0.1064  0.7914
33835SOL    HW2 6636   9.196   6.681   6.404 -0.3727 -0.2886  1.2394
33836SOL     OW 6637  10.868   0.796   9.493  0.2069 -0.7088  0.2540
33836SOL    HW1 6638  10.834   0.761   9.410  1.2744  0.6173 -0.7571
33836SOL    HW2 6639  10.923   0.725   9.527  3.4487  0.3809 -2.4502
33837SOL     OW 6640  10.755   1.285   1.279 -0.2559 -1.1811 -0.3230
33837SOL    HW1 6641  10.824   1.247   1.333  1.3966  0.1898 -1.4251
33837SOL    HW2 6642  10.693   1.322   1.342  0.5325 -1.5164  0.6559
33838SOL     OW 6643   2.034   8.999   3.199 -0.9588 -0.1051 -0.4196
33838SOL    HW1 6644   1.998   8.910   3.205 -0.5040 -0.2212  0.6655
33838SOL    HW2 6645   2.043   9.014   3.105  1.7499 -2.3360 -0.6006
33839SOL     OW 6646   8.977   4.950   3.962  0.4123  0.4252  0.3574
33839SOL    HW1 6647   9.039   4.897   4.012 -1.1111 -2.1991 -0.4426
33839SOL    HW2 6648   8.921   4.991   4.029  0.5029 -0.3780  0.9300
33840SOL     OW 6649   0.691   5.185   6.538 -0.8601 -0.1878  0.0473
33840SOL    HW1 6650   0.663   5.233   6.616  1.2091  1.5348 -0.2189
33840SOL    HW2 6651   0.711   5.253   6.474  0.5321 -1.4777 -0.9153
33841SOL     OW 6652   7.861   9.001   0.715  0.3153 -0.3714  0.1256
33841SOL    HW1 6653   7.858   9.005   0.810 -0.7288  0.9721  0.0476
33841SOL    HW2 6654   7.774   8.970   0.689  1.0251 -2.0323 -0.3426
33842SOL     OW 6655   5.524   7.265   0.203  0.8965  0.1159  0.1578
33842SOL    HW1 6656   5.554   7.236   0.117  1.4493 -2.4286  1.1588
33842SOL    HW2 6657   5.552   7.196   0.263  1.0821  2.1317  2.5025
33843SOL     OW 6658   6.477   3.053   6.850 -0.1595 -0.4232  0.3282
33843SOL    HW1 6659   6.497   3.121   6.785  0.2266 -0.3547  0.5159
33843SOL    HW2 6660   6.558   3.003   6.856 -0.7146 -1.4232 -0.4251
33844SOL     OW 6661   2.703   7.594  11.307 -0.0601 -0.1605 -0.0819
33844SOL    HW1 6662   2.661   7.680  11.312  1.8548  0.7163  1.5576
33844SOL    HW2 6663   2.795   7.612  11.287  0.3631 -1.8114  0.2511
33845SOL     OW 6664   7.022   1.573   9.918 -0.2272  0.6011  0.1045
33845SOL    HW1 6665   7.094   1.619   9.874 -0.3500 -1.3050 -2.1895
33845SOL    HW2 6666   7.028   1.601  10.009  3.9957 -0.1569  0.1576
33846SOL     OW 6667   2.977   6.383   2.773 -0.2011  0.1037  0.2339
33846SOL    HW1 6668   3.046   6.350   2.831 -0.3878 -1.3478 -0.3672
33846SOL    HW2 6669   3.001   6.352   2.686 -0.0853  2.0327 -0.4422
33847SOL     OW 6670   3.742   1.001   9.678 -0.0328 -0.8016  0.0682
33847SOL    HW1 6671   3.800   0.928   9.659  0.2762 -1.0363  1.8723
33847SOL    HW2 6672   3.770   1.033   9.764 -0.9935  0.6222 -0.1250
33848SOL     OW 6673   8.155   7.911   0.519 -0.0524  0.8876 -0.2970
33848SOL    HW1 6674   8.236   7.954   0.547  0.0363  1.0842 -0.8570
33848SOL    HW2 6675   8.116   7.971   0.456 -0.3767  0.5548 -0.4176
33849SOL     OW 6676   9.049  10.466   8.891 -0.3123  0.4126  0.1042
33849SOL    HW1 6677   9.004  10.401   8.945  1.0466  0.1449  0.9448
33849SOL    HW2 6678   9.026  10.550   8.931  0.0041  0.2744  0.5714
33850SOL     OW 6679   6.600   1.875   2.474  0.3274 -0.3702  0.6540
33850SOL    HW1 6680   6.653   1.796   2.466  1.9471  0.8704 -1.6260
33850SOL    HW2 6681   6.664   1.945   2.487 -0.8049  1.0075 -0.9968
33851SOL     OW 6682   3.552   3.093   4.605  0.1135 -0.2527 -0.4327
33851SOL    HW1 6683   3.641   3.058   4.609  0.2763  0.0631 -1.2523
33851SOL    HW2 6684   3.496   3.021   4.634  0.6110 -0.5486 -0.2088
33852SOL     OW 6685   5.236   1.054   4.402 -0.3566 -0.0616 -0.3476
33852SOL    HW1 6686   5.332   1.053   4.401 -0.3788 -1.6923 -1.0604
33852SOL    HW2 6687   5.210   0.985   4.342 -2.0001  1.5226 -1.5251
33853SOL     OW 6688   7.642   7.930   6.813  0.4919  0.2265  0.6379
33853SOL    HW1 6689   7.569   7.969   6.860  0.5104  0.8065  0.1868
33853SOL    HW2 6690   7.623   7.836   6.813 -0.7992  0.4864 -0.4068
33854SOL     OW 6691   6.038   0.830   3.570 -0.8230 -0.2158  0.7892
33854SOL    HW1 6692   6.094   0.885   3.515 -2.5694  0.6755 -0.1441
33854SOL    HW2 6693   6.066   0.741   3.552  0.7731  0.2666  0.8725
33855SOL     OW 6694   3.594   2.287   5.137 -0.1149 -0.0723  0.1596
33855SOL    HW1 6695   3.591   2.234   5.217 -0.4809  1.3941  1.1378
33855SOL    HW2 6696   3.615   2.225   5.068 -0.3950 -1.4699  1.3078
33856SOL     OW 6697   3.303   7.512   0.624 -0.3789 -0.1948  0.4065
33856SOL    HW1 6698   3.265   7.519   0.711 -0.1589  0.7622  0.4339
33856SOL    HW2 6699   3.306   7.602   0.592  1.1244 -0.3404  0.0943
33857SOL     OW 6700   8.807  10.212   6.161  0.0342  0.1710  0.2481
33857SOL    HW1 6701   8.797  10.118   6.147  0.9177  0.0702  0.2748
33857SOL    HW2 6702   8.867  10.219   6.235 -0.1781  0.7557  0.3695
33858SOL     OW 6703   6.960   1.531   2.319 -0.0826  0.2224  0.1276
33858SOL    HW1 6704   6.876   1.568   2.346 -0.7880 -1.7040  0.6803
33858SOL    HW2 6705   6.946   1.436   2.321  1.4371 -0.0783 -1.9406
33859SOL     OW 6706   7.008   6.347   0.520 -0.0684 -0.5220  0.3947
33859SOL    HW1 6707   7.026   6.261   0.481 -1.6305 -1.3887  1.5510
33859SOL    HW2 6708   6.983   6.328   0.610  0.9393  1.2694  1.0923
33860SOL     OW 6709   3.387   3.887   9.281 -0.1588  0.0261 -0.4109
33860SOL    HW1 6710   3.346   3.814   9.236 -0.3630 -0.5904  0.7564
33860SOL    HW2 6711   3.323   3.914   9.347  0.9030 -0.3362  0.7919
33861SOL     OW 6712  11.303   7.728   7.246  0.5581  0.1506 -0.1073
33861SOL    HW1 6713  11.246   7.651   7.255  0.7976 -0.2588 -1.8379
33861SOL    HW2 6714  11.356   7.728   7.326  1.0544 -1.9102 -0.3933
33862SOL     OW 6715   3.839   9.471   9.543 -0.9818 -0.1878 -0.3871
33862SOL    HW1 6716   3.772   9.450   9.477  0.8405 -1.5159 -1.8717
33862SOL    HW2 6717   3.822   9.409   9.614 -2.4998  0.7633  0.1117
33863SOL     OW 6718  11.172   3.257   5.736  0.3069 -0.4652 -0.4475
33863SOL    HW1 6719  11.106   3.250   5.667  4.0318 -0.5427 -4.1848
33863SOL    HW2 6720  11.160   3.179   5.790 -2.3092 -0.6860 -1.2813
33864SOL     OW 6721   2.446   8.038   6.834  0.3536  0.1043  0.2782
33864SOL    HW1 6722   2.361   7.994   6.829 -0.0756  0.9317  0.1878
33864SOL    HW2 6723   2.431   8.123   6.793  1.2796  0.1770  0.0818
33865SOL     OW 6724   4.018   0.499   2.499 -0.2389  0.0522 -0.4621
33865SOL    HW1 6725   3.923   0.489   2.510 -0.1485 -0.8215 -0.4310
33865SOL    HW2 6726   4.031   0.507   2.405 -0.3368  0.0873 -0.4728
33866SOL     OW 6727   7.459   0.855   2.303 -0.7995  0.4725  0.0152
33866SOL    HW1 6728   7.447   0.802   2.225 -0.4286 -0.7433  0.7633
33866SOL    HW2 6729   7.374   0.852   2.347 -0.7772  0.4908  0.0595
33867SOL     OW 6730   3.579   6.463   0.252  0.0224 -0.0751  0.3523
33867SOL    HW1 6731   3.654   6.441   0.197 -1.7360 -0.9911 -1.7369
33867SOL    HW2 6732   3.561   6.555   0.233 -1.9146 -0.9507 -2.3186
33868SOL     OW 6733   0.282   9.210   9.534 -0.1777 -0.0312  0.2836
33868SOL    HW1 6734   0.346   9.281   9.537 -1.0093  0.7055  1.0844
33868SOL    HW2 6735   0.331   9.135   9.501  0.5005  1.1210 -1.3755
33869SOL     OW 6736   0.964   4.221  10.209 -0.7352  0.4824  0.4459
33869SOL    HW1 6737   1.014   4.139  10.211 -1.0500  0.2960  0.9624
33869SOL    HW2 6738   0.879   4.197  10.172 -0.4038  0.8220 -0.5390
33870SOL     OW 6739   2.909   5.295   2.636 -0.3066 -0.1428 -0.6478
33870SOL    HW1 6740   2.847   5.330   2.572 -0.6548 -0.1877 -0.3384
33870SOL    HW2 6741   2.888   5.201   2.642  1.2444 -0.6121 -2.1773
33871SOL     OW 6742   5.508   0.871   3.690 -0.0588  0.1544 -0.6295
33871SOL    HW1 6743   5.475   0.805   3.629 -0.8149  0.0001 -0.0614
33871SOL    HW2 6744   5.599   0.884   3.665 -0.6190  0.7863 -2.4143
33872SOL     OW 6745   6.271   6.191   2.124  0.7160  0.5828  0.3104
33872SOL    HW1 6746   6.212   6.131   2.169  0.8796  0.8897  0.9432
33872SOL    HW2 6747   6.217   6.232   2.056  0.2341  0.7498  0.7876
33873SOL     OW 6748   0.991  11.215   7.725  0.3368 -0.7011  1.0388
33873SOL    HW1 6749   0.961  11.128   7.750 -0.8315 -0.3541  0.9014
33873SOL    HW2 6750   1.014  11.207   7.632 -4.4767  0.2313 -0.4055
33874SOL     OW 6751  10.217   0.487   1.482 -0.0698  0.2150  0.0974
33874SOL    HW1 6752  10.238   0.544   1.556 -0.7234  4.2857 -2.6948
33874SOL    HW2 6753  10.297   0.485   1.429 -0.7794  0.4836 -1.0154
33875SOL     OW 6754   8.703   5.329   7.674  0.0757  0.3100  0.4895
33875SOL    HW1 6755   8.696   5.319   7.580 -0.5513 -1.7893  0.7322
33875SOL    HW2 6756   8.682   5.421   7.690 -0.4280  0.5336 -1.3497
33876SOL     OW 6757   7.648   7.437   8.019 -0.0780  0.1244 -0.1468
33876SOL    HW1 6758   7.554   7.451   8.023 -0.2882 -1.2704  0.1795
33876SOL    HW2 6759   7.658   7.345   7.995  1.1986  0.1099  0.3591
33877SOL     OW 6760  11.169   1.511   6.355  0.7203  0.1641  0.1491
33877SOL    HW1 6761  11.078   1.540   6.364  0.3187 -0.8491 -0.5523
33877SOL    HW2 6762  11.204   1.569   6.287 -0.0269 -0.8426 -1.1150
33878SOL     OW 6763   0.753   9.560   3.512  0.7116 -0.8832 -0.1687
33878SOL    HW1 6764   0.778   9.477   3.553 -3.2380 -2.5625 -0.9269
33878SOL    HW2 6765   0.718   9.612   3.584  1.6564 -0.4720  0.0091
33879SOL     OW 6766   0.541   0.649   4.327 -0.2904 -0.3697  0.1330
33879SOL    HW1 6767   0.636   0.644   4.326 -0.3333 -2.1331  1.6421
33879SOL    HW2 6768   0.517   0.680   4.240  1.7294  1.8586  0.3254
33880SOL     OW 6769   5.682   3.700   6.277 -0.1807  0.2718  0.8966
33880SOL    HW1 6770   5.773   3.728   6.287  0.0021  0.3204 -0.7188
33880SOL    HW2 6771   5.669   3.636   6.347  1.5790 -0.8756  0.2105
33881SOL     OW 6772   2.748  10.890  11.068  0.4134  0.2116 -0.3641
33881SOL    HW1 6773   2.698  10.921  10.993  1.0066  0.3726 -0.6928
33881SOL    HW2 6774   2.805  10.821  11.032 -0.4048 -0.7914  0.2230
33882SOL     OW 6775   8.257   3.605   8.701  0.0333 -0.1038 -0.1489
33882SOL    HW1 6776   8.326   3.543   8.724 -0.4299 -0.6068 -0.1057
33882SOL    HW2 6777   8.287   3.690   8.734  0.6795 -0.3043 -0.2336
33883SOL     OW 6778   0.673   5.769   2.182  0.0680 -0.1222 -0.2125
33883SOL    HW1 6779   0.713   5.846   2.142 -1.3389  0.1462 -1.1437
33883SOL    HW2 6780   0.675   5.703   2.113 -0.1538 -0.4206  0.0696
33884SOL     OW 6781  10.987   7.658   7.565  0.5363  0.5996 -0.6514
33884SOL    HW1 6782  11.070   7.611   7.573  0.2038 -0.3553 -2.5229
33884SOL    HW2 6783  10.924   7.591   7.539 -1.2307  0.9688  2.3349
33885SOL     OW 6784   6.074   5.034   2.589 -0.4493  0.0064 -0.0051
33885SOL    HW1 6785   6.020   4.956   2.605  0.4976 -0.8052 -0.6587
33885SOL    HW2 6786   6.031   5.077   2.515 -0.6561 -0.2068 -0.0113
33886SOL     OW 6787   3.455   4.908   0.531 -0.2614  0.1348 -0.2080
33886SOL    HW1 6788   3.439   4.950   0.615  1.1821 -0.4540  0.3933
33886SOL    HW2 6789   3.401   4.829   0.533  0.7183 -0.5394  0.7301
33887SOL     OW 6790   6.104   6.011   4.927  0.5162  0.5369 -0.0796
33887SOL    HW1 6791   6.091   6.106   4.922 -0.0229  0.3805 -1.9601
33887SOL    HW2 6792   6.199   6.000   4.925  0.5973  1.0628  0.7143
33888SOL     OW 6793   9.554   7.573   3.904 -0.5154 -0.3361  0.4696
33888SOL    HW1 6794   9.493   7.513   3.947  0.2050 -0.6488  1.0628
33888SOL    HW2 6795   9.641   7.536   3.922 -0.1338  0.2310 -0.1753
33889SOL     OW 6796   2.413   1.898   4.675 -0.2592 -0.2601 -0.1894
33889SOL    HW1 6797   2.504   1.925   4.680 -0.2763 -0.1153 -0.6050
33889SOL    HW2 6798   2.416   1.805   4.653 -0.2026 -0.5582  1.0401
33890SOL     OW 6799   9.210   2.757   2.134  0.2759  0.7448 -0.0798
33890SOL    HW1 6800   9.133   2.715   2.172  1.0827  0.7398  1.5796
33890SOL    HW2 6801   9.182   2.783   2.046 -1.5791  0.6284  0.4537
33891SOL     OW 6802   3.146   9.190   9.865 -0.1151  0.0314 -0.0951
33891SOL    HW1 6803   3.118   9.109   9.822  0.2355 -0.7926  1.1979
33891SOL    HW2 6804   3.066   9.227   9.901 -0.2259  0.0925 -0.4026
33892SOL     OW 6805   7.439   4.852   0.758  0.1125 -0.1410  0.1124
33892SOL    HW1 6806   7.446   4.763   0.792 -1.0630 -1.0989 -1.9978
33892SOL    HW2 6807   7.497   4.904   0.813 -0.9697 -1.7588  2.8690
33893SOL     OW 6808   1.416   7.722   1.241 -0.5058  0.2881  0.0997
33893SOL    HW1 6809   1.332   7.682   1.262 -0.1904  0.1071  1.0581
33893SOL    HW2 6810   1.481   7.655   1.261 -0.0911  0.6520 -0.0040
33894SOL     OW 6811   6.364   3.012   8.098  0.2745  0.3900 -0.0521
33894SOL    HW1 6812   6.345   3.100   8.066 -0.9774 -0.4170 -1.5541
33894SOL    HW2 6813   6.380   3.024   8.192 -2.0692  1.9331  0.1946
33895SOL     OW 6814   1.202   2.873   2.111 -0.5194  0.3072 -0.1139
33895SOL    HW1 6815   1.173   2.782   2.112 -0.1135  0.1729  3.2998
33895SOL    HW2 6816   1.138   2.920   2.164 -0.6811  2.0327 -1.7698
33896SOL     OW 6817   4.607  10.129   0.960 -0.0697  0.9575  0.5623
33896SOL    HW1 6818   4.586  10.223   0.959  0.5420  1.1427  2.5092
33896SOL    HW2 6819   4.582  10.100   1.047 -0.9507 -0.8868 -0.2804
33897SOL     OW 6820   0.407  10.729  11.076  0.1839 -0.5403 -0.2238
33897SOL    HW1 6821   0.405  10.822  11.056 -2.3335 -0.4941  0.0715
33897SOL    HW2 6822   0.404  10.725  11.172 -1.6251 -0.9364 -0.2865
33898SOL     OW 6823   8.310   1.084   5.292  0.3105  0.4877 -0.4624
33898SOL    HW1 6824   8.400   1.099   5.318  1.0862 -1.4535 -1.9186
33898SOL    HW2 6825   8.310   1.094   5.196  0.3028 -5.0785 -1.2593
33899SOL     OW 6826   3.067   4.787   0.658 -0.3796 -0.6706  0.2369
33899SOL    HW1 6827   3.095   4.842   0.585 -0.8323 -2.2799 -1.1904
33899SOL    HW2 6828   2.972   4.794   0.659 -0.2664  1.3087  2.2951
33900SOL     OW 6829   9.194   4.715   8.586 -0.3170 -0.4253 -0.2885
33900SOL    HW1 6830   9.248   4.654   8.638 -0.3088 -0.6950 -0.6127
33900SOL    HW2 6831   9.105   4.679   8.593 -0.2967 -0.5275 -0.5562
33901SOL     OW 6832   4.665   2.014   6.635 -0.6057 -0.0217  0.3593
33901SOL    HW1 6833   4.646   2.103   6.604  0.6827 -0.3061 -1.2954
33901SOL    HW2 6834   4.670   2.023   6.730 -0.0427  1.7777  0.1885
33902SOL     OW 6835   5.966  10.529   8.575  0.1163  0.0817 -0.1506
33902SOL    HW1 6836   5.921  10.586   8.513 -1.3381 -1.6543 -0.7385
33902SOL    HW2 6837   6.026  10.477   8.522 -1.8626 -2.1305 -0.3309
33903SOL     OW 6838   7.699   3.190   6.863  0.5920  0.1641 -0.4248
33903SOL    HW1 6839   7.717   3.150   6.949 -0.5207 -1.7810 -1.0675
33903SOL    HW2 6840   7.681   3.116   6.806 -2.7076  1.6308 -1.3911
33904SOL     OW 6841   4.552   6.045   4.373  0.5088  0.0505 -0.5206
33904SOL    HW1 6842   4.599   6.111   4.322  1.0386 -0.1756 -0.3281
33904SOL    HW2 6843   4.492   6.095   4.428  1.1854  0.3922 -0.0917
33905SOL     OW 6844   1.596   7.799   5.253 -0.3490 -0.4133 -0.2520
33905SOL    HW1 6845   1.690   7.796   5.270 -0.6801 -0.3295  1.6574
33905SOL    HW2 6846   1.586   7.864   5.184  0.9227  0.1386  0.0807
33906SOL     OW 6847   9.755   5.178  10.557 -0.0536 -0.4018  0.2167
33906SOL    HW1 6848   9.839   5.221  10.537  0.2896 -0.8270  0.7397
33906SOL    HW2 6849   9.698   5.202  10.484 -0.3342  2.1882  1.2403
33907SOL     OW 6850   0.781   1.796   0.206 -0.1031  0.1974 -0.0715
33907SOL    HW1 6851   0.835   1.875   0.211 -0.0836  0.3996 -2.5782
33907SOL    HW2 6852   0.691   1.828   0.211 -0.0700  0.2225  0.3947
33908SOL     OW 6853   6.538   2.299   8.854  0.5160 -0.1544 -0.7379
33908SOL    HW1 6854   6.496   2.385   8.864  0.5308 -0.1195 -0.9611
33908SOL    HW2 6855   6.574   2.280   8.940 -1.3539 -0.9262 -0.1020
33909SOL     OW 6856   0.038   8.012   0.593  0.1111 -0.0064 -0.2043
33909SOL    HW1 6857   0.115   7.988   0.644 -0.2620  0.3142  0.5140
33909SOL    HW2 6858   0.067   8.086   0.540  0.8273 -1.0653 -1.3134
33910SOL     OW 6859   0.537   2.487   5.000 -0.2545  0.1625  0.2762
33910SOL    HW1 6860   0.547   2.400   5.037 -0.5554  0.0830  0.1783
33910SOL    HW2 6861   0.442   2.501   4.997 -0.3114 -0.4509 -1.8477
33911SOL     OW 6862   1.180   6.117   1.979 -0.3497  0.4206  0.2340
33911SOL    HW1 6863   1.132   6.077   1.905  0.8641 -2.1052  0.7483
33911SOL    HW2 6864   1.195   6.044   2.039  0.2513  2.0985  2.1597
33912SOL     OW 6865   8.730   9.366   7.368  0.3357 -0.2980  0.2383
33912SOL    HW1 6866   8.645   9.322   7.372  0.4920 -0.5796  0.4522
33912SOL    HW2 6867   8.732   9.406   7.281  0.4241 -1.1910 -0.1795
33913SOL     OW 6868   1.349   1.082   3.659 -0.1698 -0.4022 -0.0523
33913SOL    HW1 6869   1.398   1.027   3.719 -0.3192 -0.3973  0.0750
33913SOL    HW2 6870   1.319   1.023   3.590 -1.4476 -0.7337  0.7683
33914SOL     OW 6871   4.025   8.592   9.802  0.0271  0.0694  0.1785
33914SOL    HW1 6872   3.971   8.663   9.836 -0.7262 -0.2631 -0.3129
33914SOL    HW2 6873   4.113   8.628   9.798 -0.2615  0.8018  0.4379
33915SOL     OW 6874   9.146   6.953   0.139  0.6102  0.4813  0.9981
33915SOL    HW1 6875   9.086   7.014   0.095  1.3089 -0.3968 -1.2281
33915SOL    HW2 6876   9.206   7.010   0.187  0.1841  1.4932  0.3561
33916SOL     OW 6877   8.412   5.469  11.043  0.1176  0.0957  0.1511
33916SOL    HW1 6878   8.423   5.386  11.089  1.5893 -0.2674 -0.7901
33916SOL    HW2 6879   8.324   5.465  11.005 -0.7636  0.0359  2.1634
33917SOL     OW 6880   5.505   8.415   3.577  0.0990 -0.1321 -0.9270
33917SOL    HW1 6881   5.483   8.416   3.484 -0.3423 -0.8717 -0.8332
33917SOL    HW2 6882   5.435   8.464   3.620 -0.5377 -1.1213 -0.8123
33918SOL     OW 6883  11.060   1.017   1.058  0.2836  0.0483  0.2995
33918SOL    HW1 6884  11.126   1.032   0.991 -0.3933 -0.1257 -0.4160
33918SOL    HW2 6885  11.014   1.101   1.065 -1.0863 -0.5664 -1.0465
33919SOL     OW 6886   5.385   2.974   7.676  0.1064  0.0213  0.7036
33919SOL    HW1 6887   5.403   2.956   7.584 -0.1054  0.0985  0.6463
33919SOL    HW2 6888   5.318   2.911   7.701 -1.1818  1.2024  0.2955
33920SOL     OW 6889   0.044   7.685   4.773 -0.0689 -0.8512  0.5409
33920SOL    HW1 6890  -0.043   7.724   4.780  0.2097  0.4418 -2.4717
33920SOL    HW2 6891   0.099   7.735   4.834 -0.7402  0.4174  0.1056
33921SOL     OW 6892  11.172   8.381   5.184 -0.1107  0.5563  0.0068
33921SOL    HW1 6893  11.116   8.373   5.106  0.3930  1.9197 -0.5129
33921SOL    HW2 6894  11.140   8.313   5.243 -2.6711  1.6168 -0.0840
33922SOL     OW 6895  10.264   7.602  10.062 -0.2732  0.7074 -0.2355
33922SOL    HW1 6896  10.207   7.602  10.140  1.3897  0.6813  0.9956
33922SOL    HW2 6897  10.235   7.526  10.012  1.0130 -1.4331  2.1496
33923SOL     OW 6898  10.248  11.161   7.849 -0.4176 -0.2405 -0.4635
33923SOL    HW1 6899  10.333  11.193   7.819  0.6311 -2.7688 -0.2987
33923SOL    HW2 6900  10.240  11.194   7.938 -0.6731  1.9473 -1.2754
33924SOL     OW 6901   0.996   2.944   1.349  0.0485 -0.9265 -0.4673
33924SOL    HW1 6902   0.991   2.891   1.428  0.7978 -4.0397 -2.4525
33924SOL    HW2 6903   1.086   2.978   1.348 -0.1514 -0.3718  0.3288
33925SOL     OW 6904   1.320   5.072  10.946  0.3173 -0.2804  0.2477
33925SOL    HW1 6905   1.291   5.018  10.872 -0.6104 -0.5241  0.7880
33925SOL    HW2 6906   1.349   5.009  11.012 -0.4877 -0.1046  0.7658
33926SOL     OW 6907  10.724   2.962   9.110  0.2759  0.0036  0.1376
33926SOL    HW1 6908  10.694   2.914   9.032  1.6787  0.9543 -1.0116
33926SOL    HW2 6909  10.811   2.928   9.127  1.0105  1.6209 -0.2771
33927SOL     OW 6910   4.893   0.236   9.524  0.1519 -0.1382 -0.2118
33927SOL    HW1 6911   4.862   0.326   9.534  1.1996  0.2189 -0.0620
33927SOL    HW2 6912   4.988   0.244   9.520  0.2388 -1.2171 -0.4906
33928SOL     OW 6913   4.772   4.840   8.647  0.4930  0.1179  0.2762
33928SOL    HW1 6914   4.822   4.809   8.571  1.4518 -0.4230  1.1095
33928SOL    HW2 6915   4.739   4.926   8.621  1.3774  0.2297 -0.5095
33929SOL     OW 6916   8.041  11.167   1.227  0.8414 -0.2419 -0.2877
33929SOL    HW1 6917   7.985  11.128   1.159  1.5233  1.5209 -1.9153
33929SOL    HW2 6918   8.017  11.260   1.226  2.2774  0.1368  0.5064
33930SOL     OW 6919   7.129   3.365   1.479 -0.4908  0.7174 -0.1751
33930SOL    HW1 6920   7.082   3.330   1.554 -0.3945  0.4872 -0.2232
33930SOL    HW2 6921   7.066   3.424   1.437  0.1327  2.4435  1.2519
33931SOL     OW 6922   3.783   3.022   2.794 -0.3658  0.2453 -0.3000
33931SOL    HW1 6923   3.782   3.062   2.707 -1.7406 -0.2013 -0.4885
33931SOL    HW2 6924   3.869   3.046   2.830  0.1506  0.5570 -1.7118
33932SOL     OW 6925  10.877  10.729  10.539  0.3559  0.1937 -0.0372
33932SOL    HW1 6926  10.859  10.748  10.631  0.2712  1.8272 -0.3671
33932SOL    HW2 6927  10.969  10.750  10.527  0.9247 -2.0388  0.1406
33933SOL     OW 6928   4.088   9.546   0.058 -0.2813  0.1096 -0.2604
33933SOL    HW1 6929   4.019   9.480   0.059  0.1104 -0.3049 -0.3105
33933SOL    HW2 6930   4.048   9.622   0.016 -0.7636 -0.0628 -0.1137
33934SOL     OW 6931  10.125   1.057  11.129  0.3037  0.1796 -0.5113
33934SOL    HW1 6932  10.103   1.134  11.181 -0.3361 -0.0645 -0.4237
33934SOL    HW2 6933  10.214   1.074  11.099  0.4572  0.5985  0.1586
33935SOL     OW 6934   6.878   7.471   1.185 -0.4910 -0.3578 -0.7549
33935SOL    HW1 6935   6.863   7.497   1.276  0.1955 -0.8199 -0.5061
33935SOL    HW2 6936   6.973   7.465   1.176 -0.5971 -2.0563 -0.9844
33936SOL     OW 6937   1.730  10.150   7.097  0.1937 -0.4695  0.3173
33936SOL    HW1 6938   1.651  10.097   7.105  0.1859 -0.8766 -2.1794
33936SOL    HW2 6939   1.701  10.231   7.057  0.9831 -0.4894 -0.3041
33937SOL     OW 6940   6.216   2.430   6.515  0.7242 -0.1257  0.0766
33937SOL    HW1 6941   6.241   2.482   6.592 -0.0225  0.7951 -0.2923
33937SOL    HW2 6942   6.154   2.366   6.549  0.5458  0.1507  0.2780
33938SOL     OW 6943   8.498   7.241   1.614 -0.0643  0.1170 -0.0181
33938SOL    HW1 6944   8.569   7.235   1.678 -1.7232  0.0829  1.8332
33938SOL    HW2 6945   8.506   7.160   1.563  0.4491 -0.4790  0.9904
33939SOL     OW 6946   9.748  10.666   6.391  0.3804 -0.1287  0.0363
33939SOL    HW1 6947   9.739  10.758   6.415 -0.6286 -0.5735  1.4337
33939SOL    HW2 6948   9.787  10.625   6.468 -0.5454 -1.1263 -0.0200
33940SOL     OW 6949   2.963   2.405   7.317  0.4281  0.1787 -0.0418
33940SOL    HW1 6950   2.984   2.465   7.389 -1.5217 -0.2062  0.8895
33940SOL    HW2 6951   2.927   2.461   7.249 -0.4461  0.2167  0.4368
33941SOL     OW 6952   3.250  10.100   8.489 -0.0205  0.2560 -0.0222
33941SOL    HW1 6953   3.295  10.021   8.521 -0.4238  0.1106  0.1878
33941SOL    HW2 6954   3.303  10.172   8.523 -0.2161  0.0928  0.6379
33942SOL     OW 6955  10.947   2.481   1.165 -0.4531  0.1499 -0.0820
33942SOL    HW1 6956  10.953   2.407   1.105  1.4335  1.2774 -1.3305
33942SOL    HW2 6957  11.023   2.472   1.222 -1.1069  0.2344  0.8143
33943SOL     OW 6958   4.038   5.357  11.116 -0.2309 -0.0098  0.3083
33943SOL    HW1 6959   4.124   5.397  11.127 -0.6324  1.2777 -1.0935
33943SOL    HW2 6960   4.011   5.333  11.205  1.2713  0.2042  0.8292
33944SOL     OW 6961   1.090   7.593   3.272 -0.0805 -0.0527  0.0820
33944SOL    HW1 6962   1.031   7.552   3.335  1.3680  0.5300  1.8248
33944SOL    HW2 6963   1.069   7.549   3.189 -1.1362 -1.6938  1.1819
33945SOL     OW 6964   8.286   3.781   0.409  0.0379 -0.3633  0.1298
33945SOL    HW1 6965   8.246   3.739   0.333  1.6647  1.4477 -1.8019
33945SOL    HW2 6966   8.295   3.873   0.383  2.1310 -0.0431  1.8577
33946SOL     OW 6967   3.926   8.623  10.664  0.2114 -0.2498  0.3157
33946SOL    HW1 6968   3.907   8.658  10.577  2.3192 -0.4340 -0.2398
33946SOL    HW2 6969   3.998   8.562  10.650 -1.0467 -2.1551  1.8180
33947SOL     OW 6970   8.961   8.899   4.446  0.0807 -0.2032 -0.2691
33947SOL    HW1 6971   8.918   8.941   4.519  1.3243 -1.0730  0.9923
33947SOL    HW2 6972   8.995   8.971   4.393  1.6969  0.4234  1.5646
33948SOL     OW 6973   6.624   7.343   0.703 -0.2151  0.0501  0.4013
33948SOL    HW1 6974   6.564   7.269   0.699  1.3423 -1.3573  2.0762
33948SOL    HW2 6975   6.697   7.318   0.646 -1.2865  1.8669 -1.8509
33949SOL     OW 6976   6.281   3.440   6.112  0.4477 -0.4039  0.6339
33949SOL    HW1 6977   6.366   3.412   6.146  0.0182 -2.9828 -0.3121
33949SOL    HW2 6978   6.301   3.482   6.028  0.8319 -0.6081  0.6234
33950SOL     OW 6979   1.960   5.668   7.611  0.4939  0.4458 -0.2955
33950SOL    HW1 6980   1.977   5.742   7.553  1.4016  0.7174  0.3072
33950SOL    HW2 6981   2.027   5.675   7.679  0.0123 -0.3990  0.2738
33951SOL     OW 6982   3.212   1.234   0.296 -0.6996  0.7627  0.5344
33951SOL    HW1 6983   3.209   1.296   0.368  1.1884  1.2256  0.2341
33951SOL    HW2 6984   3.265   1.161   0.329  2.1562  1.9928 -1.0858
33952SOL     OW 6985   9.843   7.564   3.103  0.1128 -0.0649 -0.2531
33952SOL    HW1 6986   9.884   7.572   3.189 -0.9106  0.1770  0.2245
33952SOL    HW2 6987   9.826   7.654   3.076 -1.9882 -0.2089  0.4914
33953SOL     OW 6988   6.708   2.078   2.171 -0.5521  0.3910 -0.4865
33953SOL    HW1 6989   6.639   2.105   2.232  2.0509  0.7861  2.4120
33953SOL    HW2 6990   6.667   2.009   2.118 -2.9467  0.0978  1.6334
33954SOL     OW 6991   3.023   7.472   4.945 -0.6375  0.4358  0.0717
33954SOL    HW1 6992   3.008   7.484   4.851  1.1042 -1.6413 -0.5152
33954SOL    HW2 6993   3.106   7.518   4.962 -0.2148 -0.3987  0.2851
33955SOL     OW 6994  10.821   9.829   7.831  0.2061 -0.3509  0.4999
33955SOL    HW1 6995  10.749   9.809   7.771 -0.1529 -0.4355  0.9548
33955SOL    HW2 6996  10.875   9.891   7.782  0.8268 -1.7039 -0.5602
33956SOL     OW 6997   0.603   6.091   9.221  0.1673  0.7578  0.2216
33956SOL    HW1 6998   0.600   6.175   9.267  0.4772  1.1963 -0.5534
33956SOL    HW2 6999   0.617   6.115   9.130  0.1589 -0.1386 -0.0089
33957SOL     OW 7000  10.190   1.818   1.697  0.7070  0.0664  0.6740
33957SOL    HW1 7001  10.097   1.832   1.679  0.5354  0.7600  2.0076
33957SOL    HW2 7002  10.191   1.761   1.774  1.3977 -3.3912 -1.7917
33958SOL     OW 7003   3.204   2.778   2.159 -0.2691 -0.5894 -0.5414
33958SOL    HW1 7004   3.258   2.764   2.237 -1.1199 -2.0074 -0.1950
33958SOL    HW2 7005   3.114   2.772   2.191 -0.6239 -1.6115 -1.7011
33959SOL     OW 7006   4.220   7.871   0.193 -0.0892 -0.4063 -0.5963
33959SOL    HW1 7007   4.282   7.802   0.213  1.2354  1.3356  1.5661
33959SOL    HW2 7008   4.252   7.911   0.112  0.3990 -0.8687 -0.6284
33960SOL     OW 7009   8.098   8.804   3.448 -0.5568 -0.0066  0.2365
33960SOL    HW1 7010   8.051   8.829   3.368 -0.4480 -0.2252  0.1029
33960SOL    HW2 7011   8.081   8.710   3.457  0.0073 -0.1258  0.0824
33961SOL     OW 7012   1.595   1.670   7.162  0.5883 -0.1978 -0.1837
33961SOL    HW1 7013   1.592   1.590   7.109 -2.0813  0.4274 -1.0507
33961SOL    HW2 7014   1.641   1.733   7.107  1.5303 -0.7402 -0.0338
33962SOL     OW 7015   0.181   7.630  11.055  0.2547 -0.0131 -0.5285
33962SOL    HW1 7016   0.206   7.675  10.975  0.7960  0.3580 -0.1560
33962SOL    HW2 7017   0.135   7.696  11.107 -0.1476 -0.2676 -0.5520
33963SOL     OW 7018   3.600   3.143   4.896 -0.2901  0.1135  0.7358
33963SOL    HW1 7019   3.624   3.104   4.812  1.9411 -1.2945  1.9802
33963SOL    HW2 7020   3.506   3.128   4.904 -0.4340 -0.1179 -1.3263
33964SOL     OW 7021  10.815   5.781  11.137  0.2353  0.3450 -0.1519
33964SOL    HW1 7022  10.842   5.805  11.048 -1.4079  1.8622 -0.2690
33964SOL    HW2 7023  10.753   5.850  11.163  0.9902  0.1500  2.3196
33965SOL     OW 7024   9.221   0.757   9.481 -0.0632  0.2221  0.1903
33965SOL    HW1 7025   9.163   0.810   9.426 -1.6733  0.4872  2.0949
33965SOL    HW2 7026   9.293   0.815   9.503  2.3574 -0.8770 -4.2994
33966SOL     OW 7027   5.128   2.730  10.399 -0.0342 -0.6722 -0.3292
33966SOL    HW1 7028   5.136   2.654  10.455 -0.7703  0.6752  1.6683
33966SOL    HW2 7029   5.102   2.695  10.314  0.1064 -2.6669  0.4274
33967SOL     OW 7030   6.280   5.602  10.954 -0.4282 -0.0272 -0.2640
33967SOL    HW1 7031   6.203   5.605  10.897 -1.1206 -2.0744  0.4915
33967SOL    HW2 7032   6.279   5.512  10.989  1.4009  0.4289  0.9875
33968SOL     OW 7033   0.862   1.830  10.957  0.7586 -0.3365 -0.8216
33968SOL    HW1 7034   0.811   1.888  10.902 -1.2790 -1.6673 -0.4075
33968SOL    HW2 7035   0.817   1.832  11.042  2.7013  0.1758  0.2198
33969SOL     OW 7036  10.028   7.335   1.763 -0.2477  0.2054  0.5386
33969SOL    HW1 7037   9.970   7.355   1.837  0.3232 -0.2186  1.1162
33969SOL    HW2 7038  10.116   7.357   1.796  0.3002 -2.4357  0.9094
33970SOL     OW 7039   7.769   1.335   9.564 -0.1626 -0.2805 -0.0317
33970SOL    HW1 7040   7.812   1.285   9.633 -0.6885  0.0539  0.5407
33970SOL    HW2 7041   7.831   1.404   9.541 -0.5159  0.3942  1.0166
33971SOL     OW 7042   2.658   1.738   1.356  0.1130 -0.6107 -0.3245
33971SOL    HW1 7043   2.751   1.761   1.351 -0.1984  0.3282 -2.8756
33971SOL    HW2 7044   2.657   1.644   1.372  1.5439 -0.8679 -1.6065
33972SOL     OW 7045  10.735   8.247   5.588 -0.0458  0.0545  0.0604
33972SOL    HW1 7046  10.829   8.231   5.599 -0.2811 -0.2007  1.9574
33972SOL    HW2 7047  10.710   8.191   5.515  1.0126 -0.9605  0.4553
33973SOL     OW 7048   3.127   9.958   2.668  0.2545  0.1854 -0.5372
33973SOL    HW1 7049   3.077   9.876   2.665 -1.0459  0.8822  0.9538
33973SOL    HW2 7050   3.131   9.987   2.577 -0.9161 -0.5896 -0.8503
33974SOL     OW 7051   7.536   4.517   7.263 -0.4137  0.3344 -0.2138
33974SOL    HW1 7052   7.441   4.523   7.275 -0.2597 -0.0620  1.3015
33974SOL    HW2 7053   7.547   4.450   7.195 -1.2070  0.2257 -0.2398
33975SOL     OW 7054   6.866   4.750   7.136 -0.4988  0.2392 -0.9344
33975SOL    HW1 7055   6.786   4.802   7.141  0.7918  2.1943 -0.5154
33975SOL    HW2 7056   6.886   4.746   7.042  0.2846  1.8758 -0.8481
33976SOL     OW 7057   2.625  10.015   0.423  0.2911  0.5366  0.7409
33976SOL    HW1 7058   2.557   9.963   0.380 -0.4268  1.1923  1.0732
33976SOL    HW2 7059   2.686  10.038   0.353  0.4209 -0.4471  0.5263
33977SOL     OW 7060   8.435   3.992  11.324  0.2421 -0.1211 -0.4066
33977SOL    HW1 7061   8.437   3.897  11.311  1.9160 -0.0660 -0.6849
33977SOL    HW2 7062   8.354   4.020  11.283 -0.9166 -1.5922  0.8190
33978SOL     OW 7063   6.704   1.162   5.560 -0.6679 -0.0505  0.8221
33978SOL    HW1 7064   6.628   1.210   5.526 -0.1791 -0.0821 -0.3516
33978SOL    HW2 7065   6.666   1.086   5.605 -1.3274 -0.2212 -0.0032
33979SOL     OW 7066   1.841   1.398   9.240  0.3325  0.3853 -0.5819
33979SOL    HW1 7067   1.804   1.311   9.251 -0.4426  0.6922 -0.7347
33979SOL    HW2 7068   1.766   1.457   9.243  0.7485  0.9677 -1.4503
33980SOL     OW 7069   8.472  10.666   2.243 -0.0201 -0.0448  0.0497
33980SOL    HW1 7070   8.503  10.753   2.221 -0.7057  0.6835  1.8548
33980SOL    HW2 7071   8.466  10.666   2.339  0.6050 -2.2880  0.1149
33981SOL     OW 7072   6.650   0.973  11.068  0.3897 -0.3612 -0.4363
33981SOL    HW1 7073   6.653   0.889  11.022 -0.7665  0.3915 -1.9446
33981SOL    HW2 7074   6.732   1.016  11.043  1.2961 -1.2949  0.8754
33982SOL     OW 7075   5.406  10.761   1.613  0.1682 -0.3501  0.1481
33982SOL    HW1 7076   5.370  10.841   1.653 -0.0361  0.1489 -1.0051
33982SOL    HW2 7077   5.338  10.695   1.628  0.2033 -0.2350  0.8411
33983SOL     OW 7078   4.017   3.252   5.019 -0.3156  0.0246  0.2448
33983SOL    HW1 7079   3.981   3.313   4.955 -1.3598 -1.8498 -0.9936
33983SOL    HW2 7080   4.086   3.205   4.972  1.0991  0.8133  1.4531
33984SOL     OW 7081   0.705   7.392   0.296  0.4795  0.2405  0.4086
33984SOL    HW1 7082   0.629   7.353   0.340 -0.0888  2.2083  1.2286
33984SOL    HW2 7083   0.691   7.372   0.203 -1.3720  1.0688  0.4745
33985SOL     OW 7084   3.648   6.083   8.400  0.2932  0.8402  0.1518
33985SOL    HW1 7085   3.652   6.003   8.348  1.2583  0.2095  1.1615
33985SOL    HW2 7086   3.563   6.122   8.378 -0.6840 -1.0298  0.4715
33986SOL     OW 7087   7.982  10.674   1.095 -0.5438  0.7810 -0.3206
33986SOL    HW1 7088   8.047  10.742   1.079  0.3230  0.0803  0.1932
33986SOL    HW2 7089   7.920  10.683   1.023  0.4216  1.1033 -1.1249
33987SOL     OW 7090   6.060   8.898   9.521 -0.2918 -0.5003  0.2182
33987SOL    HW1 7091   6.045   8.813   9.564 -2.2903 -0.6776 -0.7604
33987SOL    HW2 7092   5.972   8.931   9.504  0.4914  0.9560 -1.0301
33988SOL     OW 7093   0.810   3.697   6.900 -0.0677 -0.0937 -0.3432
33988SOL    HW1 7094   0.880   3.693   6.835  0.1809 -0.2811 -0.0719
33988SOL    HW2 7095   0.842   3.642   6.972 -1.1466 -1.3910 -0.8334
33989SOL     OW 7096   9.462   3.885  10.718 -0.1627 -0.0097 -0.0862
33989SOL    HW1 7097   9.537   3.940  10.741 -0.2260 -0.2317  0.6592
33989SOL    HW2 7098   9.479   3.857  10.629  0.7427 -0.2332  0.1547
33990SOL     OW 7099   4.481  10.694  10.915 -0.0060 -0.7948 -0.1295
33990SOL    HW1 7100   4.443  10.659  10.995 -0.1303  0.5774  0.4237
33990SOL    HW2 7101   4.555  10.636  10.896  0.5687 -0.6012  1.4671
33991SOL     OW 7102   2.419  10.544   2.515  0.2956 -0.0172  0.0047
33991SOL    HW1 7103   2.436  10.511   2.603 -0.2513  0.2732  0.2194
33991SOL    HW2 7104   2.501  10.587   2.490 -0.2844  1.8971  1.2859
33992SOL     OW 7105   0.364   4.902   7.490 -0.1669  0.2650  0.1165
33992SOL    HW1 7106   0.327   4.817   7.515 -2.0271  0.9921 -0.0833
33992SOL    HW2 7107   0.391   4.890   7.399  0.3963 -0.3728  0.3630
33993SOL     OW 7108   6.507   4.751   1.783  0.4614 -0.1613  0.1669
33993SOL    HW1 7109   6.412   4.753   1.796  0.6404  0.5808  1.3362
33993SOL    HW2 7110   6.543   4.809   1.850  1.9472 -2.6502  1.6337
33994SOL     OW 7111   6.910   8.049   0.566  0.4237 -0.2619 -0.2331
33994SOL    HW1 7112   6.864   8.117   0.517 -0.3812  0.0977  1.0012
33994SOL    HW2 7113   7.003   8.072   0.558  0.2426  0.2954 -0.8156
33995SOL     OW 7114   6.659   8.004   0.417 -0.4034 -0.1659  0.5126
33995SOL    HW1 7115   6.724   7.937   0.440 -0.4078 -0.2037  0.4117
33995SOL    HW2 7116   6.626   7.977   0.332  0.6939  0.7944 -0.2348
33996SOL     OW 7117  10.351   7.788   9.828 -0.3607 -0.1532  0.2789
33996SOL    HW1 7118  10.312   7.873   9.850  0.5354 -0.0849  1.6453
33996SOL    HW2 7119  10.342   7.736   9.908 -1.2963 -1.5134 -0.6804
33997SOL     OW 7120   4.776  11.057   8.854  0.8818 -0.1127 -0.0894
33997SOL    HW1 7121   4.745  11.034   8.942  1.7277 -0.3820  0.1436
33997SOL    HW2 7122   4.803  10.973   8.816  0.3605 -0.0190 -0.6682
33998SOL     OW 7123   8.158   7.356   7.341 -0.5427 -0.7148  0.6611
33998SOL    HW1 7124   8.093   7.412   7.299  0.9231  1.0507  0.7048
33998SOL    HW2 7125   8.110   7.275   7.361 -2.0781 -0.3665 -1.4725
33999SOL     OW 7126   3.939   3.490   3.701 -0.1511 -0.0987  0.0560
33999SOL    HW1 7127   3.921   3.583   3.701  0.7482  0.0811  0.2792
33999SOL    HW2 7128   3.855   3.449   3.679 -0.8397  0.7028  1.1337
34000SOL     OW 7129   4.510   4.837   9.018  0.4426 -0.3722  0.4631
34000SOL    HW1 7130   4.577   4.904   9.028  0.5727 -0.5810  1.0321
34000SOL    HW2 7131   4.513   4.788   9.100  0.3882 -1.1070  0.0302
34001SOL     OW 7132   4.894   5.156   6.375  0.4759  0.4977  0.4338
34001SOL    HW1 7133   4.868   5.218   6.307 -2.7241  0.5374  1.5615
34001SOL    HW2 7134   4.946   5.090   6.329  0.8717  2.0972 -1.4754
34002SOL     OW 7135  10.297   7.361   1.870  0.4142  0.2425 -0.2988
34002SOL    HW1 7136  10.342   7.392   1.791 -0.5289 -1.2963 -1.4651
34002SOL    HW2 7137  10.309   7.266   1.869  0.4316  0.2033  1.4545
34003SOL     OW 7138   8.564   0.641   8.010 -0.5349  0.0228  0.3785
34003SOL    HW1 7139   8.646   0.691   8.005 -0.5442 -0.0858 -0.9877
34003SOL    HW2 7140   8.584   0.558   7.968 -0.9967 -0.4959  1.1723
34004SOL     OW 7141   1.944   7.489   8.358 -0.5877  0.0963  0.1490
34004SOL    HW1 7142   1.903   7.444   8.284 -0.9894  1.1741 -0.2813
34004SOL    HW2 7143   1.904   7.448   8.436 -1.0988 -0.1415 -0.2392
34005SOL     OW 7144   0.536   0.583  10.370 -0.2959 -0.3507  0.0389
34005SOL    HW1 7145   0.499   0.636  10.440 -1.1980 -1.1243  0.1694
34005SOL    HW2 7146   0.536   0.494  10.405  0.1701 -0.5999 -0.5771
34006SOL     OW 7147   3.988   7.699   3.087  0.1959 -0.1844  0.0280
34006SOL    HW1 7148   4.048   7.768   3.117 -0.5828 -0.6100  2.6967
34006SOL    HW2 7149   3.904   7.743   3.076  0.2509 -0.2348 -0.6229
34007SOL     OW 7150   6.026   0.742   9.382  0.3442  0.4925 -0.1775
34007SOL    HW1 7151   5.989   0.658   9.353  0.5084 -0.2223  1.6200
34007SOL    HW2 7152   5.955   0.805   9.367 -0.7262 -0.4229  0.8712
34008SOL     OW 7153   8.578   4.011   1.874  0.2887 -0.1411 -0.3539
34008SOL    HW1 7154   8.646   3.984   1.935 -0.2292 -1.0097 -0.1429
34008SOL    HW2 7155   8.599   3.966   1.792  0.3965  0.1874 -0.5069
34009SOL     OW 7156   2.619   9.287   0.382 -0.4214  0.8398  0.2366
34009SOL    HW1 7157   2.673   9.210   0.401 -1.5892  0.1582  0.8476
34009SOL    HW2 7158   2.675   9.362   0.405  1.1292  0.2457 -1.3960
34010SOL     OW 7159  10.557   7.847   9.440 -0.3684  0.8734 -0.4994
34010SOL    HW1 7160  10.576   7.917   9.377  0.2461  1.4270  0.2799
34010SOL    HW2 7161  10.492   7.885   9.499  2.4746  2.0748  2.0151
34011SOL     OW 7162   7.346   0.183   4.278 -0.0332 -0.1662  0.2939
34011SOL    HW1 7163   7.363   0.094   4.309  1.4862 -0.1202 -0.3858
34011SOL    HW2 7164   7.260   0.205   4.315 -0.4505 -1.9301  0.4037
34012SOL     OW 7165   6.629   1.072   2.984  0.1158 -0.0637 -0.2323
34012SOL    HW1 7166   6.591   1.076   3.072  0.2251  0.8120 -0.2261
34012SOL    HW2 7167   6.688   0.996   2.987 -0.6515 -0.6518  0.1393
34013SOL     OW 7168   9.000   7.350   2.958 -0.2177  0.1305 -0.4349
34013SOL    HW1 7169   8.925   7.335   3.016  0.7373 -0.5578  0.6438
34013SOL    HW2 7170   9.028   7.439   2.977 -1.3405  0.7429 -1.5411
34014SOL     OW 7171  11.171   9.260  10.112  0.3427  0.0836 -0.0058
34014SOL    HW1 7172  11.245   9.269  10.172  0.9144  1.0787 -0.8444
34014SOL    HW2 7173  11.135   9.349  10.105 -0.0650 -0.1294 -0.6950
34015SOL     OW 7174  11.293   8.519   4.749 -0.1508  0.2345  0.2218
34015SOL    HW1 7175  11.216   8.463   4.739 -0.6875  1.0752 -0.3979
34015SOL    HW2 7176  11.260   8.599   4.789  0.1563  1.1476 -1.2999
34016SOL     OW 7177   6.993   2.382   9.010 -0.7517  0.1628  0.3986
34016SOL    HW1 7178   7.079   2.353   8.978 -0.7992  1.4790 -0.9968
34016SOL    HW2 7179   6.932   2.315   8.980 -0.4824  0.2378 -0.3217
34017SOL     OW 7180   3.349   5.687   5.479  0.5694 -0.0104  0.0290
34017SOL    HW1 7181   3.424   5.632   5.503 -0.2216 -0.2783  2.0252
34017SOL    HW2 7182   3.275   5.626   5.474  0.0420  0.5825  0.4696
34018SOL     OW 7183   1.264   3.513   4.542  0.1039  0.2483 -0.2308
34018SOL    HW1 7184   1.301   3.583   4.596 -0.5295  1.7923 -1.7378
34018SOL    HW2 7185   1.252   3.440   4.602 -0.1366  1.7557  1.5978
34019SOL     OW 7186   7.202   7.551   2.002  0.8571  0.5493  0.5583
34019SOL    HW1 7187   7.154   7.556   2.085  0.7837 -1.7867  0.6762
34019SOL    HW2 7188   7.293   7.537   2.029  1.0331  1.0710  0.2465
34020SOL     OW 7189   1.746   8.704   4.924  0.4006  0.2555 -0.5730
34020SOL    HW1 7190   1.709   8.757   4.853  1.1060  0.8071 -0.5222
34020SOL    HW2 7191   1.703   8.737   5.003  0.6950  0.6089 -0.5640
34021SOL     OW 7192   5.345   5.531   6.455 -0.2351 -0.2966 -0.2582
34021SOL    HW1 7193   5.382   5.445   6.474  0.6933  0.3938  1.1309
34021SOL    HW2 7194   5.299   5.556   6.536 -3.1498 -0.7954 -1.6683
34022SOL     OW 7195   1.303  11.041   3.925 -0.1739 -0.2051 -0.1919
34022SOL    HW1 7196   1.220  10.999   3.905  0.5216 -1.4167 -0.5854
34022SOL    HW2 7197   1.303  11.051   4.020 -1.6538  1.7084 -0.3567
34023SOL     OW 7198   7.014  10.845  10.837 -0.1000 -0.2481  0.2736
34023SOL    HW1 7199   7.037  10.752  10.834 -1.7117 -0.6300 -0.5948
34023SOL    HW2 7200   7.022  10.876  10.747 -1.0296  0.0957  0.3040
34024SOL     OW 7201   7.340   8.474   2.133 -0.8378 -0.1919 -0.2319
34024SOL    HW1 7202   7.346   8.502   2.225  0.0625  2.4953 -1.0659
34024SOL    HW2 7203   7.431   8.467   2.104 -1.0708 -2.9878 -0.3845
34025SOL     OW 7204  10.138   3.673   4.510  0.0714  0.2252 -0.2240
34025SOL    HW1 7205  10.060   3.707   4.466  0.3522 -1.6321 -2.2873
34025SOL    HW2 7206  10.184   3.751   4.542 -0.9604  1.5655 -1.8995
34026SOL     OW 7207   1.030   5.362   4.076 -0.2712  0.1211  0.2609
34026SOL    HW1 7208   1.108   5.334   4.029 -1.0061  0.4758 -1.2254
34026SOL    HW2 7209   1.051   5.448   4.110 -0.1344  0.3815 -0.4711
34027SOL     OW 7210   5.249   6.454  10.751  0.4217  0.1227  0.0473
34027SOL    HW1 7211   5.171   6.401  10.768  1.1228 -1.3341 -1.1515
34027SOL    HW2 7212   5.319   6.409  10.798  1.1199 -0.2991 -1.3705
34028SOL     OW 7213   5.570   6.115   3.273  0.7070 -0.3601  0.0161
34028SOL    HW1 7214   5.478   6.121   3.298  0.7387 -0.3058  0.1195
34028SOL    HW2 7215   5.569   6.069   3.189  0.7317 -2.1733  0.9889
34029SOL     OW 7216   8.004   2.499   3.763  0.3320  0.2136  0.0355
34029SOL    HW1 7217   8.001   2.409   3.796  1.0409 -0.1111 -0.7652
34029SOL    HW2 7218   8.080   2.538   3.806  0.7021  0.0756 -0.4866
34030SOL     OW 7219   7.459   5.845   0.484 -0.2608 -0.0394  0.1260
34030SOL    HW1 7220   7.409   5.785   0.429 -0.3675  0.4340 -0.2946
34030SOL    HW2 7221   7.477   5.920   0.428  2.4191 -0.9386 -0.2764
34031SOL     OW 7222   0.852   1.725   6.064  0.0720  0.4379 -0.1523
34031SOL    HW1 7223   0.886   1.715   5.974 -1.4573 -1.0830 -0.5873
34031SOL    HW2 7224   0.929   1.711   6.119  0.6601 -0.5492 -1.1843
34032SOL     OW 7225   6.999   4.171   7.887 -0.3929  0.1723 -0.2604
34032SOL    HW1 7226   6.918   4.125   7.908 -0.9399  1.1184 -0.2947
34032SOL    HW2 7227   7.059   4.101   7.860 -0.5176 -0.7720  1.8159
34033SOL     OW 7228   9.045   9.731   6.740 -0.3641  0.3254  0.3851
34033SOL    HW1 7229   9.039   9.806   6.681 -0.5239 -1.2998 -1.7510
34033SOL    HW2 7230   8.954   9.707   6.758 -0.3212 -0.1075  0.0447
34034SOL     OW 7231   1.739   3.115   1.522 -0.3599  0.0790 -1.3807
34034SOL    HW1 7232   1.724   3.031   1.565  2.7497 -0.4026 -1.0850
34034SOL    HW2 7233   1.694   3.179   1.578 -0.3130 -1.0899  0.0190
34035SOL     OW 7234   7.326   4.217   2.201  0.2653 -0.1118 -0.0570
34035SOL    HW1 7235   7.416   4.190   2.189 -0.2677 -1.3628 -1.3226
34035SOL    HW2 7236   7.286   4.147   2.254 -0.4965 -0.6274 -1.2966
34036SOL     OW 7237   9.019   7.090   7.633 -0.2959  0.3656  0.3042
34036SOL    HW1 7238   9.083   7.156   7.603 -1.3620  0.8014 -1.0859
34036SOL    HW2 7239   9.019   7.024   7.564  0.7393 -1.0878  1.6822
34037SOL     OW 7240  10.246   4.356   8.873 -0.1698 -0.3909 -0.6633
34037SOL    HW1 7241  10.212   4.281   8.922 -2.0371  0.4608 -0.6210
34037SOL    HW2 7242  10.238   4.430   8.933  0.9998 -0.0184 -0.9516
34038SOL     OW 7243   3.248   9.297   0.701 -0.0483  0.0371 -0.7825
34038SOL    HW1 7244   3.231   9.255   0.617  1.5676 -2.3198  0.0417
34038SOL    HW2 7245   3.270   9.388   0.678 -0.6928 -0.2979 -2.8045
34039SOL     OW 7246   7.357  11.085   1.826 -0.2532  0.1054 -0.4262
34039SOL    HW1 7247   7.352  11.180   1.813  0.8606  0.0122 -1.6645
34039SOL    HW2 7248   7.392  11.074   1.914 -0.1561  0.8387 -0.3703
34040SOL     OW 7249  11.051   1.910   1.064 -0.7158  0.0183 -0.6288
34040SOL    HW1 7250  11.041   1.815   1.058  0.6182 -0.0163 -2.5731
34040SOL    HW2 7251  11.050   1.941   0.973  0.2716  1.7111 -0.0919
34041SOL     OW 7252   8.596   8.012   6.306  0.3172  0.2556 -0.0360
34041SOL    HW1 7253   8.638   8.071   6.369 -1.7492 -0.1771  1.8303
34041SOL    HW2 7254   8.643   7.929   6.316  1.5911  0.8644 -0.8514
34042SOL     OW 7255   9.645   0.772   1.214 -0.0029 -0.2116 -0.1220
34042SOL    HW1 7256   9.683   0.686   1.197  0.1811 -0.2878  0.6227
34042SOL    HW2 7257   9.647   0.817   1.130 -1.1934 -1.3619 -0.7661
34043SOL     OW 7258  10.685   0.975  10.865  0.3482 -0.1697 -0.4830
34043SOL    HW1 7259  10.664   0.905  10.803  0.7571  0.0219 -0.8456
34043SOL    HW2 7260  10.634   1.050  10.834 -0.0547 -0.2914 -0.1216
34044SOL     OW 7261   8.137   2.279   2.207 -0.1025  0.1983  0.9365
34044SOL    HW1 7262   8.048   2.305   2.231 -0.3753  0.0065  0.1641
34044SOL    HW2 7263   8.189   2.358   2.220 -0.4091  0.3480  1.2777
34045SOL     OW 7264  10.939   6.441   2.683 -0.5592  0.7079 -0.8305
34045SOL    HW1 7265  11.018   6.388   2.687 -1.2127 -0.1672  0.9064
34045SOL    HW2 7266  10.970   6.528   2.657  1.2650  0.8968  1.7750
34046SOL     OW 7267   9.420   2.243   9.955 -0.5739 -0.3771 -0.2088
34046SOL    HW1 7268   9.333   2.205   9.942 -0.7283 -0.1313  0.0919
34046SOL    HW2 7269   9.461   2.239   9.869 -0.3561 -1.7942 -0.0466
34047SOL     OW 7270   9.459  11.312   9.815 -0.0130 -0.5302  0.6045
34047SOL    HW1 7271   9.464  11.218   9.835  0.5283 -0.4558  0.8478
34047SOL    HW2 7272   9.404  11.348   9.884 -0.0367 -0.6323  0.6399
34048SOL     OW 7273   6.958  10.841   5.447  0.1512 -0.1255 -0.8237
34048SOL    HW1 7274   7.033  10.782   5.446  0.4595  0.2151  0.8062
34048SOL    HW2 7275   6.899  10.807   5.380  1.6268 -0.5677 -1.9163
34049SOL     OW 7276   7.397   3.460   5.178  0.1432 -0.0723 -0.6189
34049SOL    HW1 7277   7.346   3.442   5.098  1.9368  0.5871 -1.9528
34049SOL    HW2 7278   7.333   3.455   5.249 -0.9915 -3.2534 -1.8052
34050SOL     OW 7279   8.171   3.585   0.170 -0.0473 -0.3170  0.3714
34050SOL    HW1 7280   8.256   3.548   0.147 -0.7470 -0.5723 -1.8545
34050SOL    HW2 7281   8.109   3.512   0.158 -0.7475  0.1995  0.7959
34051SOL     OW 7282   1.803   7.889   6.879  0.1975 -0.4503  0.1946
34051SOL    HW1 7283   1.850   7.932   6.807 -0.0910 -0.6644 -0.1267
34051SOL    HW2 7284   1.869   7.876   6.946  0.7003 -1.1159 -0.4191
34052SOL     OW 7285   1.155   3.104   4.773 -0.2305  0.1787 -0.0713
34052SOL    HW1 7286   1.123   3.113   4.863  1.7450  1.1571  0.5595
34052SOL    HW2 7287   1.139   3.189   4.733  2.5518  1.0740  0.6074
34053SOL     OW 7288   8.744  10.874   7.896 -0.0927 -0.0450 -0.1934
34053SOL    HW1 7289   8.689  10.873   7.817  0.6652 -2.5873 -0.7365
34053SOL    HW2 7290   8.832  10.892   7.864  0.2742 -1.4433  0.0329
34054SOL     OW 7291   4.237   8.584   3.626 -0.2971  0.6156  0.2442
34054SOL    HW1 7292   4.152   8.626   3.611 -0.6985 -0.9257 -2.1089
34054SOL    HW2 7293   4.292   8.615   3.554  0.2407 -0.6682  0.0822
34055SOL     OW 7294   6.438   2.085   6.839  0.0918  0.0559  0.3236
34055SOL    HW1 7295   6.487   2.166   6.828 -1.7695  0.9067 -2.3686
34055SOL    HW2 7296   6.373   2.087   6.768 -0.6497 -3.2937  0.8277
34056SOL     OW 7297   9.425   1.642   6.516 -0.2748 -0.3257  0.4019
34056SOL    HW1 7298   9.366   1.632   6.590 -0.6407  1.9448  0.4537
34056SOL    HW2 7299   9.375   1.612   6.441 -0.5100 -1.0157  0.8347
34057SOL     OW 7300   3.795   0.782   8.950  0.2514  0.1763  0.5215
34057SOL    HW1 7301   3.703   0.768   8.931  0.2592  1.4842 -0.5345
34057SOL    HW2 7302   3.797   0.864   9.000  1.0078  1.3195 -1.3223
34058SOL     OW 7303   6.936   9.703   1.269 -0.0216 -0.1779 -0.3695
34058SOL    HW1 7304   6.870   9.640   1.238  0.1609  0.7418 -2.7240
34058SOL    HW2 7305   6.893   9.789   1.260  1.5962  0.4527 -2.2192
34059SOL     OW 7306   0.705   0.826   0.089  0.3098  0.3685  0.4471
34059SOL    HW1 7307   0.645   0.803   0.160  1.2132 -0.9252  0.7984
34059SOL    HW2 7308   0.745   0.908   0.118 -0.7227  0.8416  0.5581
34060SOL     OW 7309   3.974  10.901  10.104 -0.3920 -0.5822  0.6996
34060SOL    HW1 7310   3.983  10.806  10.102 -1.2918 -0.6866  1.2691
34060SOL    HW2 7311   4.063  10.934  10.113 -0.0616 -1.3675  0.2782
34061SOL     OW 7312   3.056  11.282  10.018  0.5604 -0.0454  0.4241
34061SOL    HW1 7313   3.002  11.341   9.966 -1.1364 -1.1822  0.8843
34061SOL    HW2 7314   3.123  11.339  10.056 -2.4130  2.0117  2.7351
34062SOL     OW 7315   9.228   2.523  11.034  0.1847 -0.4282  0.0243
34062SOL    HW1 7316   9.198   2.610  11.058 -0.9630 -0.6079 -0.7412
34062SOL    HW2 7317   9.197   2.466  11.105  1.7060 -0.0927  0.9824
34063SOL     OW 7318   2.109   8.807   0.049 -0.6097  0.0516  0.5256
34063SOL    HW1 7319   2.151   8.721   0.046 -0.0328  0.2921  1.6235
34063SOL    HW2 7320   2.015   8.788   0.054 -0.3526 -0.5707  3.6556
34064SOL     OW 7321   2.085   0.212   6.697  0.3140 -0.4468 -0.0943
34064SOL    HW1 7322   2.059   0.303   6.713 -0.4391  0.0951 -3.8406
34064SOL    HW2 7323   2.045   0.163   6.769 -0.8318  1.9394  0.9807
34065SOL     OW 7324   6.338   4.437   3.701  0.4224 -0.0790 -0.6494
34065SOL    HW1 7325   6.294   4.355   3.726 -1.2786  1.5504  2.0298
34065SOL    HW2 7326   6.416   4.440   3.757 -0.0339  0.5808 -0.0447
34066SOL     OW 7327   7.786   6.771   4.735 -0.0540 -0.3222  0.0548
34066SOL    HW1 7328   7.845   6.697   4.743 -0.6458 -0.7098  0.9033
34066SOL    HW2 7329   7.717   6.740   4.676  0.7123  0.2240 -1.1614
34067SOL     OW 7330   2.110   7.241   9.657 -0.5916  0.1049 -0.0506
34067SOL    HW1 7331   2.042   7.299   9.691  0.0858  0.0851  1.4039
34067SOL    HW2 7332   2.092   7.234   9.564 -1.9098  0.9962  0.1258
34068SOL     OW 7333   7.865   7.272   3.547 -0.0594 -0.5487  0.1302
34068SOL    HW1 7334   7.901   7.184   3.553  0.3025 -0.4102 -0.0135
34068SOL    HW2 7335   7.850   7.297   3.638  0.8290 -0.3533  0.2332
34069SOL     OW 7336   3.784   5.562  10.359  0.9227 -0.1664 -0.1062
34069SOL    HW1 7337   3.873   5.560  10.396 -0.2106 -0.5716  2.7009
34069SOL    HW2 7338   3.753   5.650  10.377  0.1019 -0.5864  0.5580
34070SOL     OW 7339   4.636   5.223   7.510  0.2501 -0.0125  0.2121
34070SOL    HW1 7340   4.730   5.229   7.491  0.1447  1.5243  0.1156
34070SOL    HW2 7341   4.618   5.129   7.515  1.2890 -0.3641 -2.2359
34071SOL     OW 7342   2.939   6.707  10.010  0.0972 -0.2572 -0.1027
34071SOL    HW1 7343   3.020   6.669  10.046 -1.7606 -3.0439  1.2889
34071SOL    HW2 7344   2.899   6.752  10.084 -0.6922 -0.6929 -0.2695
34072SOL     OW 7345   5.307   5.918   5.345 -0.2626 -0.2785  0.1927
34072SOL    HW1 7346   5.390   5.902   5.300 -0.5930 -0.5336 -0.3366
34072SOL    HW2 7347   5.287   5.835   5.388 -0.9210 -0.6559 -0.8113
34073SOL     OW 7348   1.606   4.302   4.187 -0.2978  0.0209  0.2470
34073SOL    HW1 7349   1.557   4.384   4.189 -0.7684 -0.2805  1.4590
34073SOL    HW2 7350   1.695   4.326   4.215 -0.1082  0.3213 -0.5941
34074SOL     OW 7351   1.479   0.307   8.950 -0.0832  0.3636 -0.1052
34074SOL    HW1 7352   1.459   0.398   8.969 -1.9448 -0.2000  0.7381
34074SOL    HW2 7353   1.473   0.300   8.854  0.6575  1.2482 -0.2200
34075SOL     OW 7354  10.522   5.870   2.233  0.4378  0.0195 -0.4371
34075SOL    HW1 7355  10.558   5.929   2.299 -1.4911  1.9383 -1.0522
34075SOL    HW2 7356  10.446   5.830   2.275 -0.5883  0.9798 -1.3317
34076SOL     OW 7357   5.682  10.739   9.181  0.5419 -0.3284 -0.4765
34076SOL    HW1 7358   5.686  10.644   9.192 -0.1279 -0.4262 -1.0529
34076SOL    HW2 7359   5.725  10.755   9.097  0.1050 -0.1761 -0.6675
34077SOL     OW 7360   0.009  10.927   6.211  0.4675  0.5237 -0.1014
34077SOL    HW1 7361  -0.012  10.959   6.298  0.4623  2.4661 -0.7943
34077SOL    HW2 7362  -0.061  10.960   6.155  0.7503 -0.2652 -0.9351
34078SOL     OW 7363   1.740   0.176   4.781 -0.1401  0.3072  0.3979
34078SOL    HW1 7364   1.712   0.110   4.845  0.6904 -2.0580 -1.5841
34078SOL    HW2 7365   1.834   0.182   4.793  0.2658 -1.3484 -1.5998
34079SOL     OW 7366   2.748   8.000   1.372  0.0878  0.1277  0.0258
34079SOL    HW1 7367   2.677   7.965   1.317  0.7128 -0.6801 -0.2737
34079SOL    HW2 7368   2.815   8.027   1.310  0.6115 -0.3704  0.3692
34080SOL     OW 7369   9.997   2.032   1.405  0.1425  0.5309  0.3055
34080SOL    HW1 7370   9.997   2.085   1.325 -0.4213  2.0593  1.2876
34080SOL    HW2 7371  10.011   2.095   1.475  1.1694 -0.8728  1.3858
34081SOL     OW 7372   9.664   1.279  10.618 -0.3354 -0.4224 -0.0736
34081SOL    HW1 7373   9.627   1.263  10.705 -1.9965 -0.8442 -0.8428
34081SOL    HW2 7374   9.727   1.349  10.632 -3.4322  2.3081  0.8076
34082SOL     OW 7375   9.816   3.770   9.821 -0.4319  0.2311  0.1101
34082SOL    HW1 7376   9.755   3.745   9.891  1.6113 -1.3884  1.3819
34082SOL    HW2 7377   9.820   3.693   9.765  0.7667  0.1558  0.2906
34083SOL     OW 7378   1.777   8.298   4.173  0.1453  0.1322  0.0840
34083SOL    HW1 7379   1.725   8.360   4.225  0.3616 -0.0204  0.4818
34083SOL    HW2 7380   1.847   8.270   4.232 -1.5235 -2.5953  0.8483
34084SOL     OW 7381   0.866   9.043  11.165  0.4595  0.0155 -0.2036
34084SOL    HW1 7382   0.898   8.971  11.111  0.6654 -0.1047  0.0794
34084SOL    HW2 7383   0.923   9.116  11.143 -0.1573  0.2751 -0.9731
34085SOL     OW 7384   6.279   4.948   1.216  0.2466 -0.1178 -0.0031
34085SOL    HW1 7385   6.252   4.912   1.300  1.1730 -1.5531 -0.3112
34085SOL    HW2 7386   6.374   4.948   1.219  0.3175 -1.1919 -1.4577
34086SOL     OW 7387   0.898   6.117   3.513  0.0327  0.4321  0.3350
34086SOL    HW1 7388   0.848   6.095   3.591 -1.2492 -0.3643 -0.6755
34086SOL    HW2 7389   0.957   6.043   3.500  0.0753  0.4504  0.4276
34087SOL     OW 7390   1.173   7.283  10.708 -0.1848 -0.0190  0.2687
34087SOL    HW1 7391   1.103   7.229  10.670 -1.6149  1.9162  0.0658
34087SOL    HW2 7392   1.236   7.294  10.637 -0.9799  0.4010 -0.3800
34088SOL     OW 7393  11.109   7.557   0.248 -0.0421  0.2426  0.2875
34088SOL    HW1 7394  11.102   7.639   0.296  1.9840 -0.0084  1.0701
34088SOL    HW2 7395  11.112   7.489   0.315 -0.7585 -0.3940 -0.3168
34089SOL     OW 7396   6.878   4.995  10.440 -0.7454  0.1906 -0.2669
34089SOL    HW1 7397   6.904   4.963  10.353 -0.7015  0.3410 -0.3093
34089SOL    HW2 7398   6.783   5.006  10.435 -0.7514  0.1342 -0.2750
34090SOL     OW 7399   5.078   5.887  10.918 -0.1566  0.1541 -0.3324
34090SOL    HW1 7400   5.117   5.943  10.851  0.1696  0.5733  0.2011
34090SOL    HW2 7401   4.993   5.926  10.936  0.2647  0.7647  0.3786
34091SOL     OW 7402   6.255   6.303   2.591 -0.4964  0.1555 -0.3468
34091SOL    HW1 7403   6.190   6.347   2.646  1.0956  1.6208  0.4239
34091SOL    HW2 7404   6.257   6.213   2.623 -1.3656  0.3605  0.3238
34092SOL     OW 7405   1.285   1.386   4.363 -0.5314 -0.0771  0.3788
34092SOL    HW1 7406   1.320   1.321   4.302  1.5666  0.3922  1.0635
34092SOL    HW2 7407   1.231   1.335   4.424  0.1988 -1.0193  0.2405
34093SOL     OW 7408   4.801   6.818  10.743 -0.3805  0.1114  0.4572
34093SOL    HW1 7409   4.885   6.846  10.779  0.0155  1.3208 -1.3386
34093SOL    HW2 7410   4.764   6.897  10.704 -2.0366 -0.5694  0.5900
34094SOL     OW 7411   7.852   6.350   3.384  0.1932 -0.0113  0.1268
34094SOL    HW1 7412   7.932   6.366   3.434  0.1805  0.9862 -0.1521
34094SOL    HW2 7413   7.863   6.403   3.305 -0.9568  0.5391  0.3190
34095SOL     OW 7414  10.089   4.904   4.514  0.3181  0.3300  0.3208
34095SOL    HW1 7415  10.129   4.990   4.515  1.0388 -0.0147  1.8454
34095SOL    HW2 7416   9.996   4.921   4.496  0.2888  1.4826  1.5172
34096SOL     OW 7417   9.561  10.521   9.174 -0.2359  0.4790 -0.1117
34096SOL    HW1 7418   9.550  10.516   9.269 -0.7391  0.9215 -0.1434
34096SOL    HW2 7419   9.541  10.612   9.153 -1.2666  0.0964 -0.7904
34097SOL     OW 7420   0.511   5.617   7.765 -0.4045 -0.0642  0.5823
34097SOL    HW1 7421   0.453   5.581   7.699 -0.4832  0.3865  0.4033
34097SOL    HW2 7422   0.491   5.711   7.766  0.8155  0.2133  0.0046
34098SOL     OW 7423   2.917  10.240   1.483 -0.5630  0.8020 -0.5282
34098SOL    HW1 7424   2.929  10.334   1.499 -0.0846  0.5818  0.4399
34098SOL    HW2 7425   2.910  10.233   1.388 -0.6212  1.8211 -0.6084
34099SOL     OW 7426   9.404   3.395   5.403 -0.3753 -0.3247  0.9234
34099SOL    HW1 7427   9.462   3.424   5.473  0.7871  2.2686 -1.0186
34099SOL    HW2 7428   9.443   3.314   5.371  1.3464  0.5718  0.6755
34100SOL     OW 7429   7.645   4.450   0.498 -0.0331  0.2545  0.0433
34100SOL    HW1 7430   7.721   4.486   0.452  0.3238  0.0831  0.4949
34100SOL    HW2 7431   7.589   4.416   0.429 -0.1358  1.2297 -0.3597
34101SOL     OW 7432  10.399   0.212   1.131 -0.5800  0.9420 -0.0274
34101SOL    HW1 7433  10.472   0.273   1.124  0.7231 -0.3863  1.5608
34101SOL    HW2 7434  10.323   0.261   1.100  1.0599  2.1747 -2.1628
34102SOL     OW 7435  10.016  10.253   2.929 -0.3676  0.0885 -0.4203
34102SOL    HW1 7436  10.060  10.321   2.878 -0.4109 -1.5914 -2.7742
34102SOL    HW2 7437  10.087  10.196   2.959 -0.5268 -0.0065 -0.2244
34103SOL     OW 7438   2.289  11.279   8.985 -0.7142 -0.4035 -0.4437
34103SOL    HW1 7439   2.368  11.318   8.947 -0.5282  1.7540  2.0304
34103SOL    HW2 7440   2.217  11.325   8.941 -0.5445 -0.3495 -0.6668
34104SOL     OW 7441   5.619   5.450   9.190  0.2987  0.0479 -0.3188
34104SOL    HW1 7442   5.597   5.509   9.118  0.1191  0.4832  0.0937
34104SOL    HW2 7443   5.550   5.464   9.255  0.9254  0.2652  0.3020
34105SOL     OW 7444   0.685  11.323   5.106  0.0221 -0.4757  1.1573
34105SOL    HW1 7445   0.621  11.263   5.067 -0.7606  1.4215 -0.5998
34105SOL    HW2 7446   0.640  11.362   5.180 -0.9885  1.0019 -0.1934
34106SOL     OW 7447   0.987   0.387   7.175  0.4313 -0.7948 -0.1482
34106SOL    HW1 7448   1.001   0.462   7.117  0.9015 -0.6345  0.1735
34106SOL    HW2 7449   1.075   0.357   7.198  0.2504 -0.8654  0.4704
34107SOL     OW 7450   3.134   3.697   2.424 -0.1574  0.7510  0.1097
34107SOL    HW1 7451   3.128   3.624   2.486  2.0144  1.0613  0.7486
34107SOL    HW2 7452   3.079   3.765   2.463 -2.2868 -0.5367 -0.5466
34108SOL     OW 7453   8.388   1.995  10.834 -0.2012  0.8699  0.5106
34108SOL    HW1 7454   8.472   1.980  10.877 -0.8256 -0.3667  1.3256
34108SOL    HW2 7455   8.331   1.926  10.867 -0.8076  0.0749 -2.0520
34109SOL     OW 7456   6.714   6.831   2.202 -0.1107 -0.4507  0.9205
34109SOL    HW1 7457   6.642   6.810   2.143  0.2342 -0.5134  0.5150
34109SOL    HW2 7458   6.693   6.917   2.238  0.2209  0.0908 -0.1519
34110SOL     OW 7459   2.784   9.012  11.242  0.2257  0.2949 -0.3608
34110SOL    HW1 7460   2.728   8.945  11.201  0.7804 -0.0987 -0.4798
34110SOL    HW2 7461   2.850   8.962  11.290  0.2009  0.7597  0.1612
34111SOL     OW 7462   7.246   6.299  11.177  0.5570 -0.2757 -0.5853
34111SOL    HW1 7463   7.153   6.274  11.168  1.0004 -2.1175 -0.3920
34111SOL    HW2 7464   7.263   6.357  11.103 -0.4538 -0.8816 -1.3078
34112SOL     OW 7465   6.581   8.692   0.065 -0.3078 -0.3336  0.2785
34112SOL    HW1 7466   6.567   8.670  -0.027  1.1416 -2.1779  0.4532
34112SOL    HW2 7467   6.551   8.782   0.073 -0.0578  0.0009 -2.0978
34113SOL     OW 7468   2.297   0.863   7.337  0.0287 -0.2389  0.3106
34113SOL    HW1 7469   2.231   0.807   7.378 -1.0221  0.5207 -0.3314
34113SOL    HW2 7470   2.300   0.940   7.393 -0.2762  0.1168 -0.1645
34114SOL     OW 7471   0.935   8.616  10.829  0.4249 -0.1850 -0.7427
34114SOL    HW1 7472   0.987   8.612  10.750  1.2836 -2.7719 -0.0857
34114SOL    HW2 7473   0.847   8.591  10.802  0.4725  0.0278 -1.0860
34115SOL     OW 7474   1.804   8.868   9.391  0.4504  0.6421  0.0499
34115SOL    HW1 7475   1.827   8.955   9.358  0.6437  0.1907 -1.0316
34115SOL    HW2 7476   1.886   8.818   9.386  0.0613  0.0485 -0.5083
34116SOL     OW 7477   8.526  10.717   7.638  0.2348 -0.0262  0.3023
34116SOL    HW1 7478   8.619  10.702   7.657  0.1192  1.1732  2.0393
34116SOL    HW2 7479   8.525  10.757   7.551  1.1414 -2.1912 -0.7350
34117SOL     OW 7480   9.173   3.826   2.266 -0.0329  0.5944 -0.1332
34117SOL    HW1 7481   9.137   3.738   2.270  0.3459  0.5441  2.7778
34117SOL    HW2 7482   9.117   3.872   2.203 -0.7500 -1.4557 -1.0224
34118SOL     OW 7483   5.275   0.469   9.283  0.6801 -0.0670  0.0224
34118SOL    HW1 7484   5.233   0.526   9.348  0.9770  0.9034 -0.6226
34118SOL    HW2 7485   5.203   0.418   9.246  0.3113  0.3624  0.1403
34119SOL     OW 7486   4.074   6.230   1.924 -0.1722 -0.0166  0.9241
34119SOL    HW1 7487   4.101   6.250   2.014  2.1826 -1.5497  0.6307
34119SOL    HW2 7488   3.996   6.176   1.934 -1.2424  1.7070  1.9707
34120SOL     OW 7489   9.677   5.534   1.643  0.6948  0.0266 -0.0734
34120SOL    HW1 7490   9.721   5.511   1.561  0.5964 -2.0194  0.4091
34120SOL    HW2 7491   9.591   5.567   1.617  0.7629 -0.3694 -0.8083
34121SOL     OW 7492   0.806  11.178   8.109 -0.4754  0.4889 -0.3516
34121SOL    HW1 7493   0.844  11.248   8.057  3.8276 -1.5696 -0.2443
34121SOL    HW2 7494   0.827  11.202   8.200 -0.3480 -0.1590 -0.2089
34122SOL     OW 7495   8.084   6.879  10.956  0.1524 -0.2570 -0.5828
34122SOL    HW1 7496   8.135   6.959  10.968  0.4113 -0.4798 -0.1943
34122SOL    HW2 7497   8.033   6.870  11.037 -0.2809 -0.1975 -0.8442
34123SOL     OW 7498   6.548  10.198   5.228  0.0543 -0.1796 -0.4953
34123SOL    HW1 7499   6.465  10.186   5.274 -0.1516  2.6304 -0.0425
34123SOL    HW2 7500   6.604  10.244   5.291  1.6038 -1.0999 -1.1706
34124SOL     OW 7501   7.829  11.099   7.906 -0.3223 -0.7296 -0.3907
34124SOL    HW1 7502   7.919  11.134   7.908 -0.4197 -0.4747 -0.4102
34124SOL    HW2 7503   7.833  11.021   7.961 -0.1419 -0.5874 -0.1978
34125SOL     OW 7504   1.971   1.762   8.789 -0.0567 -0.5681 -0.4384
34125SOL    HW1 7505   2.039   1.829   8.776 -0.1513 -0.0349  1.6315
34125SOL    HW2 7506   1.898   1.810   8.828 -0.3208 -1.7838  0.5648
34126SOL     OW 7507   7.829  10.010   0.702  0.0514 -0.8047  0.2163
34126SOL    HW1 7508   7.814  10.075   0.633 -0.4931 -1.2089 -0.0511
34126SOL    HW2 7509   7.824  10.059   0.784 -0.8770 -0.5873  0.0406
34127SOL     OW 7510   0.250   9.753   9.036 -0.1832  0.2680  0.1823
34127SOL    HW1 7511   0.262   9.683   9.100 -0.7157 -0.4237 -0.4587
34127SOL    HW2 7512   0.335   9.795   9.030 -0.3534  0.9280  2.0086
34128SOL     OW 7513   5.833   5.053  10.630 -0.7336 -0.0703 -0.1132
34128SOL    HW1 7514   5.838   5.141  10.590 -3.2243  0.7968  1.3616
34128SOL    HW2 7515   5.877   4.996  10.567 -2.3672  1.6605 -2.9533
34129SOL     OW 7516   8.873   7.732   7.608  0.2877  0.1202 -0.4217
34129SOL    HW1 7517   8.796   7.757   7.556 -0.7413 -0.2283  0.9032
34129SOL    HW2 7518   8.841   7.663   7.665  1.5715  0.0690  0.2379
34130SOL     OW 7519   2.433   7.519   9.434  0.5581  0.1347  0.2851
34130SOL    HW1 7520   2.355   7.507   9.379  1.2368  0.0693 -0.6865
34130SOL    HW2 7521   2.414   7.596   9.486 -0.2855 -0.0638  0.2773
34131SOL     OW 7522   9.262   1.702   6.223 -0.2029 -0.1709  0.1455
34131SOL    HW1 7523   9.331   1.765   6.203  0.1868 -0.5208  0.3749
34131SOL    HW2 7524   9.306   1.617   6.221 -0.3816 -0.3050  1.3883
34132SOL     OW 7525   9.641   7.638   0.605  0.7119 -0.0489 -0.6171
34132SOL    HW1 7526   9.711   7.601   0.551  0.4531  1.6033 -2.1042
34132SOL    HW2 7527   9.686   7.698   0.665  0.9658 -1.6835  0.8930
34133SOL     OW 7528  10.618   8.482   5.490  0.8091 -0.4364  0.5837
34133SOL    HW1 7529  10.534   8.480   5.535  0.6947  2.0588  0.5558
34133SOL    HW2 7530  10.673   8.420   5.538 -1.2956 -2.8766 -0.0134
34134SOL     OW 7531   9.588   7.415   3.255  0.3403  0.0693  0.4534
34134SOL    HW1 7532   9.615   7.470   3.182 -1.2971 -0.9796 -0.9736
34134SOL    HW2 7533   9.664   7.414   3.313  1.4787  1.3348 -0.9598
34135SOL     OW 7534   0.224  10.264   6.093  0.1143 -0.8323  0.5931
34135SOL    HW1 7535   0.260  10.341   6.137  0.0116 -0.9586  0.8900
34135SOL    HW2 7536   0.175  10.301   6.018 -0.3071 -0.5811  0.9878
34136SOL     OW 7537   1.721   5.653   4.307 -0.3735 -0.1009  0.0809
34136SOL    HW1 7538   1.773   5.600   4.246 -2.2059 -2.1147  0.1877
34136SOL    HW2 7539   1.692   5.728   4.256  0.9611 -0.0023 -0.5390
34137SOL     OW 7540   9.006   9.454   3.806 -0.2548  0.1566 -0.1006
34137SOL    HW1 7541   8.979   9.464   3.714 -0.2227  0.0997 -0.1165
34137SOL    HW2 7542   8.959   9.377   3.837  1.0319 -0.8368 -0.5622
34138SOL     OW 7543   0.577   0.403   7.433  0.5422 -0.0606  0.1965
34138SOL    HW1 7544   0.508   0.470   7.429 -0.9177 -1.4532  1.2844
34138SOL    HW2 7545   0.530   0.320   7.425  2.3209 -0.9909 -1.0668
34139SOL     OW 7546   1.037   9.147   2.976  0.2853  0.2565  0.6206
34139SOL    HW1 7547   0.987   9.224   2.950  0.0223  0.0975  0.6551
34139SOL    HW2 7548   1.087   9.123   2.898  0.6913  0.7168  0.7376
34140SOL     OW 7549   7.875   1.675   0.031  0.4006 -0.1052 -0.1528
34140SOL    HW1 7550   7.970   1.667   0.026  0.3616 -0.2873 -0.6819
34140SOL    HW2 7551   7.842   1.602  -0.021 -0.0471 -0.6589  0.8934
34141SOL     OW 7552  10.568  10.894  11.151  0.5096  0.4969  0.2173
34141SOL    HW1 7553  10.625  10.817  11.152 -0.2524 -0.1099 -1.7421
34141SOL    HW2 7554  10.481  10.860  11.173  0.3301  0.9518  0.2236
34142SOL     OW 7555  10.440   7.587   5.841 -0.3827  0.1192 -0.4567
34142SOL    HW1 7556  10.466   7.534   5.766  0.1714 -0.9738  0.4969
34142SOL    HW2 7557  10.514   7.645   5.857 -0.3721  0.1327 -0.5517
34143SOL     OW 7558   3.442   3.607   1.574  0.1911  0.2021 -0.6882
34143SOL    HW1 7559   3.501   3.664   1.523  1.0883 -1.1063 -1.1561
34143SOL    HW2 7560   3.384   3.569   1.508  1.8331 -2.0683 -0.8546
34144SOL     OW 7561   0.776   2.850   9.943 -0.1907 -0.2830 -0.2964
34144SOL    HW1 7562   0.705   2.884   9.997  0.8351  0.7273  0.4364
34144SOL    HW2 7563   0.763   2.891   9.857 -0.0667  0.4794  0.0457
34145SOL     OW 7564   8.258   2.417   6.903  0.0303  0.0311 -0.3690
34145SOL    HW1 7565   8.220   2.385   6.985 -0.6285  3.0534  0.5658
34145SOL    HW2 7566   8.187   2.409   6.839  0.2193 -1.3434 -0.4295
34146SOL     OW 7567   1.318   8.178  11.299 -0.2340 -0.2150 -0.0883
34146SOL    HW1 7568   1.302   8.258  11.349 -3.0799 -0.8489  0.1185
34146SOL    HW2 7569   1.371   8.206  11.224 -0.0956  1.6118  0.6698
34147SOL     OW 7570   6.316   9.820   3.547 -0.3991 -0.1869  1.0089
34147SOL    HW1 7571   6.258   9.744   3.556 -0.3761 -0.1139  1.8202
34147SOL    HW2 7572   6.322   9.856   3.636  0.5617  0.0480  0.8536
34148SOL     OW 7573   1.483   0.827   6.237  0.4434  0.2552  0.4401
34148SOL    HW1 7574   1.494   0.921   6.251  0.0551  0.7631 -2.2634
34148SOL    HW2 7575   1.402   0.804   6.281  0.1277  1.3706  0.4427
34149SOL     OW 7576   1.585  10.891   3.414 -1.0058  0.7207  0.6450
34149SOL    HW1 7577   1.514  10.842   3.372 -1.6364  1.5866  0.6929
34149SOL    HW2 7578   1.614  10.954   3.347  0.3969 -0.2916  0.2740
34150SOL     OW 7579   6.948   4.315   4.943 -0.1886  0.4979 -0.4724
34150SOL    HW1 7580   6.905   4.335   4.860 -3.2220 -0.1556  0.8611
34150SOL    HW2 7581   6.949   4.219   4.947 -2.4632  0.5124  1.3729
34151SOL     OW 7582  10.927   7.089   0.576  0.2386  0.7081 -0.3003
34151SOL    HW1 7583  10.888   7.176   0.581 -0.2832  0.6985 -3.2902
34151SOL    HW2 7584  10.854   7.030   0.559  0.6848 -0.2192  0.9577
34152SOL     OW 7585   1.862   5.505  10.247 -1.3386  0.2436 -0.3162
34152SOL    HW1 7586   1.921   5.430  10.236 -0.2559  1.2790 -1.8018
34152SOL    HW2 7587   1.814   5.486  10.327  1.0715 -0.6159  0.9855
34153SOL     OW 7588   7.257   7.164   2.434  0.1356  0.3813  0.0440
34153SOL    HW1 7589   7.341   7.191   2.471  0.3083 -1.6561  1.1756
34153SOL    HW2 7590   7.213   7.118   2.505 -1.3175  0.1273 -1.0086
34154SOL     OW 7591   1.217   2.739   4.509 -0.1391  0.4399 -0.4784
34154SOL    HW1 7592   1.197   2.744   4.602  0.9324  0.1632 -0.2341
34154SOL    HW2 7593   1.224   2.831   4.481 -0.9093  0.5289 -0.3945
34155SOL     OW 7594  10.944   7.454   2.495 -0.1495  0.5416 -0.1509
34155SOL    HW1 7595  10.983   7.541   2.495 -0.1005  0.5318 -1.1755
34155SOL    HW2 7596  10.913   7.440   2.584  1.5123  0.8694  0.4858
34156SOL     OW 7597   9.977   7.813   5.858 -0.4514  0.5826 -0.0386
34156SOL    HW1 7598  10.037   7.769   5.798 -0.3037 -2.0773  1.9610
34156SOL    HW2 7599  10.026   7.821   5.940 -2.6269 -1.3625  1.5396
34157SOL     OW 7600  10.713  10.180   7.482  0.0672  0.3568 -0.2339
34157SOL    HW1 7601  10.636  10.141   7.524  0.0975 -0.9399 -1.3595
34157SOL    HW2 7602  10.693  10.179   7.389  1.1751  0.6210 -0.4847
34158SOL     OW 7603   0.150  10.598   3.997  0.0384 -0.4975 -0.7074
34158SOL    HW1 7604   0.154  10.513   3.953  0.1218 -0.9951  0.2477
34158SOL    HW2 7605   0.165  10.662   3.927 -1.4568 -1.1958 -1.6710
34159SOL     OW 7606   4.010   4.640   5.781 -0.0581 -0.1213 -0.2565
34159SOL    HW1 7607   3.985   4.569   5.721  2.2675 -0.6483 -0.6537
34159SOL    HW2 7608   3.939   4.642   5.846 -1.6045 -0.8817 -1.8542
34160SOL     OW 7609   5.425   3.789   9.255  0.5986  0.4779 -0.1532
34160SOL    HW1 7610   5.493   3.757   9.196 -0.4470  1.5018 -1.9386
34160SOL    HW2 7611   5.352   3.727   9.244  0.8751 -0.0921  1.0793
34161SOL     OW 7612  10.676   6.741   0.966  0.3798  0.1377  0.3768
34161SOL    HW1 7613  10.674   6.650   0.994 -0.3091  0.6723  2.1561
34161SOL    HW2 7614  10.676   6.737   0.870  0.1213 -1.7136  0.4370
34162SOL     OW 7615  10.972   1.219   6.349  0.3381 -0.3935 -0.1519
34162SOL    HW1 7616  10.944   1.257   6.432 -0.0744 -0.6998 -0.1513
34162SOL    HW2 7617  10.912   1.146   6.335  1.4023 -1.3259  0.0725
34163SOL     OW 7618   8.549   8.577   5.308  0.6274  0.0436 -0.1540
34163SOL    HW1 7619   8.516   8.488   5.320 -1.5344  0.6325 -1.3289
34163SOL    HW2 7620   8.638   8.566   5.276  0.5768 -1.6919  0.2605
34164SOL     OW 7621   8.904   3.117   1.523  0.3045 -0.1348  0.2817
34164SOL    HW1 7622   8.904   3.022   1.537 -0.0847  0.1948  2.7637
34164SOL    HW2 7623   8.850   3.152   1.595  0.6730  1.9882 -0.4345
34165SOL     OW 7624   7.460   4.400  11.288  0.4017 -0.4745  0.0205
34165SOL    HW1 7625   7.405   4.427  11.362 -1.3343 -0.6607 -1.1729
34165SOL    HW2 7626   7.498   4.317  11.316  1.5935  0.5826  1.6085
34166SOL     OW 7627   8.219   0.477   8.160  0.1458 -0.5408 -0.5452
34166SOL    HW1 7628   8.292   0.458   8.220 -0.2815 -2.0953 -0.4701
34166SOL    HW2 7629   8.142   0.478   8.217 -0.0649 -0.3717 -0.8348
34167SOL     OW 7630   4.890   2.494   4.373 -0.4451  0.6115 -0.0782
34167SOL    HW1 7631   4.819   2.444   4.413 -0.4656 -0.1393 -1.0338
34167SOL    HW2 7632   4.869   2.494   4.280  0.8035  0.3844 -0.3634
34168SOL     OW 7633   2.571   0.565  10.254 -0.2254  0.1340 -0.0578
34168SOL    HW1 7634   2.537   0.495  10.198 -0.3848 -0.5325  0.8423
34168SOL    HW2 7635   2.496   0.592  10.307  0.1607  0.0274  0.5587
34169SOL     OW 7636   6.322  10.662   7.444  0.0785  0.4479  0.7888
34169SOL    HW1 7637   6.340  10.605   7.369  0.6389  1.6858 -0.0377
34169SOL    HW2 7638   6.295  10.745   7.405  0.3117  1.0791  1.9537
34170SOL     OW 7639   9.087   1.717   3.020 -0.9700 -0.0463 -0.0217
34170SOL    HW1 7640   9.107   1.810   3.009 -0.0004 -0.2102  0.3099
34170SOL    HW2 7641   9.037   1.694   2.942  0.1929  0.3692 -0.8917
34171SOL     OW 7642   8.742  10.485   6.323 -0.6387  0.9810 -0.3711
34171SOL    HW1 7643   8.805  10.496   6.393 -1.3968  1.4203  0.2542
34171SOL    HW2 7644   8.794  10.461   6.246  0.2692  1.3411  0.1351
34172SOL     OW 7645   1.710   7.385   1.135 -0.5791 -0.0644 -0.2398
34172SOL    HW1 7646   1.633   7.329   1.129  0.1109 -0.9131 -1.4209
34172SOL    HW2 7647   1.779   7.336   1.089  1.2495 -0.3179  2.6385
34173SOL     OW 7648   0.346   0.935   9.615 -0.3447 -0.4226  0.1119
34173SOL    HW1 7649   0.424   0.968   9.571 -1.4324 -0.5678 -1.9589
34173SOL    HW2 7650   0.274   0.982   9.575 -1.6125 -2.6750 -0.3402
34174SOL     OW 7651   7.615   5.336   2.278  0.6367 -0.5220  0.6931
34174SOL    HW1 7652   7.626   5.406   2.213 -0.6579 -1.7120 -0.8522
34174SOL    HW2 7653   7.537   5.362   2.326 -2.0030 -2.6018 -2.2346
34175SOL     OW 7654   1.745   9.005   7.893  0.2959  0.0302 -0.2972
34175SOL    HW1 7655   1.832   8.991   7.855 -0.1677 -0.3679 -1.2410
34175SOL    HW2 7656   1.711   8.916   7.908 -0.2822  0.1728 -0.7319
34176SOL     OW 7657   2.520   9.006   0.108  0.3237  0.0220  0.3309
34176SOL    HW1 7658   2.436   9.015   0.062  0.2066 -0.2658  0.4846
34176SOL    HW2 7659   2.574   9.076   0.073  0.3180 -0.3427 -0.4274
34177SOL     OW 7660   8.671   6.932   2.473 -0.2289  0.3400  0.3550
34177SOL    HW1 7661   8.643   6.898   2.558  0.8619 -0.9702  0.2251
34177SOL    HW2 7662   8.590   6.944   2.424 -0.8053  0.2714  1.2768
34178SOL     OW 7663   1.540   9.123   4.678 -0.0626 -0.2151  0.3544
34178SOL    HW1 7664   1.582   9.191   4.625  0.5250 -1.9714 -1.4863
34178SOL    HW2 7665   1.446   9.137   4.665  0.0775 -0.5871 -1.1069
34179SOL     OW 7666   2.020   8.780   2.254 -0.0212 -0.7098  0.0679
34179SOL    HW1 7667   2.007   8.763   2.347  1.6011 -1.7531  0.1168
34179SOL    HW2 7668   2.021   8.876   2.247  2.9651 -0.5598  1.6099
34180SOL     OW 7669   9.421   4.388   1.098  0.6847 -0.0336 -0.0498
34180SOL    HW1 7670   9.455   4.459   1.151  0.4259  1.6919 -2.1352
34180SOL    HW2 7671   9.332   4.414   1.076 -0.2240 -2.0815  1.0327
34181SOL     OW 7672   0.040   3.682  10.280  0.5839  0.5421  0.4663
34181SOL    HW1 7673  -0.050   3.652  10.293  1.8305 -2.1789  3.3876
34181SOL    HW2 7674   0.042   3.770  10.317 -1.1999  1.2401 -1.0278
34182SOL     OW 7675   3.547   0.213   1.159 -0.4762  0.1871  0.1495
34182SOL    HW1 7676   3.605   0.287   1.175  0.7764 -0.4196 -1.4333
34182SOL    HW2 7677   3.580   0.144   1.218 -0.1644  0.1446 -0.0716
34183SOL     OW 7678   3.284   9.200   8.135  0.6296 -0.4702  0.1574
34183SOL    HW1 7679   3.249   9.117   8.103 -0.9930  0.2723 -0.0170
34183SOL    HW2 7680   3.211   9.261   8.129  2.4655  1.5895 -2.0373
34184SOL     OW 7681   0.500   3.360   2.060 -0.0263  0.1126  0.0761
34184SOL    HW1 7682   0.415   3.384   2.097  0.8231  1.9428  0.8891
34184SOL    HW2 7683   0.478   3.323   1.974 -1.6337  0.7638  0.1806
34185SOL     OW 7684   9.801  10.796   8.667  0.7496  0.2278  0.3022
34185SOL    HW1 7685   9.769  10.876   8.709 -1.5900 -0.4101 -0.1684
34185SOL    HW2 7686   9.810  10.820   8.575 -0.8784 -0.2855 -0.0061
34186SOL     OW 7687   1.805   6.048   3.568 -0.0150  0.2225 -0.5234
34186SOL    HW1 7688   1.735   6.014   3.511 -0.0576 -0.9724  0.2113
34186SOL    HW2 7689   1.810   6.141   3.548  0.2788 -0.2471 -2.8221
34187SOL     OW 7690   4.707   6.376   9.533 -0.1582  0.1868  0.1997
34187SOL    HW1 7691   4.773   6.435   9.496 -0.9400  1.5562  0.9280
34187SOL    HW2 7692   4.629   6.431   9.542 -1.3330 -1.3435 -0.4288
34188SOL     OW 7693   0.678   7.399   0.020  0.3299 -0.8236  0.5079
34188SOL    HW1 7694   0.769   7.382  -0.004 -0.3930 -0.6520 -2.6230
34188SOL    HW2 7695   0.664   7.491  -0.004 -0.7483 -0.9365  0.6848
34189SOL     OW 7696   6.954   0.329   6.294 -0.1838 -0.5902 -0.1554
34189SOL    HW1 7697   6.951   0.412   6.343  0.7003 -0.2577 -0.6591
34189SOL    HW2 7698   7.042   0.296   6.310 -0.5548 -1.4658  0.0838
34190SOL     OW 7699   2.385   1.942   8.187 -0.0121 -0.0974 -0.8469
34190SOL    HW1 7700   2.353   1.984   8.107  1.7966  1.9112 -0.5756
34190SOL    HW2 7701   2.347   1.994   8.258 -0.7263 -1.2010 -0.4120
34191SOL     OW 7702   9.887   3.525  10.289  0.3807  0.0548 -0.3784
34191SOL    HW1 7703   9.886   3.563  10.377 -0.1389  1.7131 -1.0763
34191SOL    HW2 7704   9.941   3.586  10.238 -2.6944  1.4037 -2.1835
34192SOL     OW 7705  10.791   4.369   6.335  0.1943  0.6533  0.3825
34192SOL    HW1 7706  10.861   4.401   6.278 -0.1085 -0.4313 -0.5955
34192SOL    HW2 7707  10.716   4.424   6.314  0.7123  1.7604  1.3697
34193SOL     OW 7708   8.193   4.823   8.518  0.1400  0.2681 -0.0122
34193SOL    HW1 7709   8.130   4.865   8.575  1.7252 -1.5010  3.1534
34193SOL    HW2 7710   8.153   4.739   8.495  1.5420 -1.1629  2.5683
34194SOL     OW 7711   8.401   2.234   0.162  0.1324 -0.1420  0.3097
34194SOL    HW1 7712   8.345   2.158   0.175 -2.3476  1.4206 -0.9075
34194SOL    HW2 7713   8.481   2.214   0.211 -1.0203 -2.9099  1.1257
34195SOL     OW 7714   7.676   3.540   5.619 -0.3694 -0.4857 -0.6913
34195SOL    HW1 7715   7.592   3.497   5.604 -0.8510  1.0541 -2.6848
34195SOL    HW2 7716   7.734   3.503   5.552  0.1734 -0.5473 -0.1915
34196SOL     OW 7717   1.313   9.263   1.743 -0.0776  0.1325 -0.4461
34196SOL    HW1 7718   1.249   9.298   1.682  0.9865  3.9816  0.5144
34196SOL    HW2 7719   1.267   9.260   1.827  0.2659  0.6160 -0.2386
34197SOL     OW 7720   1.328   1.745   4.020 -0.2412 -0.0004 -0.3755
34197SOL    HW1 7721   1.337   1.684   4.093 -1.5691  0.3925  0.1421
34197SOL    HW2 7722   1.398   1.809   4.032  1.0517 -1.3005 -0.8192
34198SOL     OW 7723   0.257   5.902  10.904  0.1717 -0.0262  0.1290
34198SOL    HW1 7724   0.345   5.885  10.870 -0.1314 -1.6304  0.0824
34198SOL    HW2 7725   0.220   5.814  10.918 -1.6288  0.6268 -0.4326
34199SOL     OW 7726   2.505  11.217   7.868 -0.1143 -0.1677  0.2559
34199SOL    HW1 7727   2.546  11.167   7.797 -0.4176  0.1482 -0.1480
34199SOL    HW2 7728   2.515  11.162   7.945 -1.9648 -1.6526 -0.5187
34200SOL     OW 7729   1.506   1.874   6.694 -0.1563 -0.3985 -0.0919
34200SOL    HW1 7730   1.554   1.952   6.721 -1.2684  0.5204 -0.7233
34200SOL    HW2 7731   1.574   1.813   6.664  0.4851  1.7674 -3.2492
34201SOL     OW 7732   4.028  11.112   7.574  0.0899  0.1478  0.9469
34201SOL    HW1 7733   4.086  11.038   7.589 -1.2135 -0.9647  0.6176
34201SOL    HW2 7734   3.998  11.137   7.662  0.2377  0.0350  1.0287
34202SOL     OW 7735   8.288   0.732   6.013  0.0074  0.5067  0.2449
34202SOL    HW1 7736   8.339   0.698   6.087 -1.1195  1.6081  1.5677
34202SOL    HW2 7737   8.205   0.686   6.018 -0.3924  1.2060  0.1972
34203SOL     OW 7738   8.557   0.392   5.851  0.2823  0.6975  0.1923
34203SOL    HW1 7739   8.522   0.345   5.775 -0.1470  0.2359  0.6684
34203SOL    HW2 7740   8.559   0.326   5.920 -0.6643  1.4773  0.9655
34204SOL     OW 7741   3.307   5.697   4.628  0.2340 -0.0279 -0.5078
34204SOL    HW1 7742   3.218   5.728   4.612  0.6059  1.6949  0.6369
34204SOL    HW2 7743   3.362   5.751   4.571  0.5536 -1.2888 -1.4380
34205SOL     OW 7744   9.225   7.212   7.452  0.5840  0.7536 -0.4507
34205SOL    HW1 7745   9.207   7.226   7.359 -0.5562 -0.2294 -0.3879
34205SOL    HW2 7746   9.268   7.293   7.481  1.0930  1.0098 -1.8593
34206SOL     OW 7747   5.019   3.489   4.824  0.3844  0.7094  0.0726
34206SOL    HW1 7748   4.991   3.478   4.733 -1.8652 -1.0056  0.9350
34206SOL    HW2 7749   4.967   3.563   4.856  1.7705  1.8388 -0.2529
34207SOL     OW 7750   0.642   5.375   9.852 -0.5497 -0.2226  0.1993
34207SOL    HW1 7751   0.663   5.281   9.856  0.1442 -0.0996 -0.3845
34207SOL    HW2 7752   0.709   5.412   9.794  0.4823  0.9837  2.0976
34208SOL     OW 7753   1.240   2.837  10.463  0.6066 -0.7748 -0.2417
34208SOL    HW1 7754   1.307   2.883  10.513  0.4595 -0.4752 -0.3212
34208SOL    HW2 7755   1.214   2.764  10.519  1.2299 -1.0797 -0.3400
34209SOL     OW 7756   9.696   8.054   4.933 -0.0657  0.1221  0.1847
34209SOL    HW1 7757   9.693   7.980   4.994 -1.4044 -0.0399 -0.0599
34209SOL    HW2 7758   9.767   8.032   4.872  0.3714 -0.3583  0.8629
34210SOL     OW 7759   9.988   4.514   3.566 -0.7536  0.2052 -0.1641
34210SOL    HW1 7760  10.057   4.573   3.535 -1.0146 -0.0109 -1.1821
34210SOL    HW2 7761  10.033   4.451   3.622  0.1438 -0.8314 -1.9943
34211SOL     OW 7762   0.019   0.915   6.928 -0.5820  0.0180  0.1447
34211SOL    HW1 7763   0.034   0.832   6.973 -0.5786 -0.1015 -0.0772
34211SOL    HW2 7764  -0.073   0.936   6.946 -0.5491  0.0292  0.3028
34212SOL     OW 7765   9.187   8.385   9.248  0.1629 -0.0672  0.3371
34212SOL    HW1 7766   9.263   8.442   9.265  0.4079  0.4603 -2.3065
34212SOL    HW2 7767   9.205   8.306   9.298  1.8649  0.5586  0.7520
34213SOL     OW 7768   5.578   4.916   3.321  0.1938 -0.2952 -0.4350
34213SOL    HW1 7769   5.523   4.944   3.394  0.8529 -0.7013  0.2240
34213SOL    HW2 7770   5.598   4.996   3.274  0.4418  0.0752  0.2995
34214SOL     OW 7771   1.239  10.307   2.194  0.1157  0.1777  0.5572
34214SOL    HW1 7772   1.210  10.376   2.134  0.7906 -0.8654 -0.9995
34214SOL    HW2 7773   1.174  10.238   2.183  1.1998 -0.7063 -0.2299
34215SOL     OW 7774   6.788   9.636   4.310  0.0913  0.1934  0.2157
34215SOL    HW1 7775   6.759   9.723   4.336 -0.2484  0.5575 -1.3525
34215SOL    HW2 7776   6.790   9.586   4.392 -2.0200  1.0190  0.8001
34216SOL     OW 7777   7.453   2.985   5.893  0.0043 -0.1176 -0.0740
34216SOL    HW1 7778   7.488   3.073   5.881 -1.0216  0.9039  3.7957
34216SOL    HW2 7779   7.369   2.998   5.937  0.2798 -3.0714  1.4593
34217SOL     OW 7780   5.071   4.351   1.465  1.1097  0.4183  0.4217
34217SOL    HW1 7781   5.085   4.267   1.510  0.7964  1.6322  2.8904
34217SOL    HW2 7782   5.159   4.386   1.452  1.2279 -0.1571 -0.3942
34218SOL     OW 7783   6.940   1.388   2.776  0.4202 -0.2133  0.3775
34218SOL    HW1 7784   6.871   1.340   2.730 -2.7673  2.4895  2.1861
34218SOL    HW2 7785   6.980   1.443   2.709 -2.3334  1.6423  0.1848
34219SOL     OW 7786   8.608   7.808   5.099 -0.0736 -0.8923  0.3303
34219SOL    HW1 7787   8.534   7.819   5.040 -0.5280  0.1506  1.0722
34219SOL    HW2 7788   8.665   7.882   5.081 -0.6294 -0.0919  1.7748
34220SOL     OW 7789   1.680   8.994   9.010 -0.0786  0.4447 -0.2870
34220SOL    HW1 7790   1.633   8.956   9.085 -0.7247  0.9387 -0.4332
34220SOL    HW2 7791   1.650   8.943   8.935  1.4597 -0.8156 -0.0607
34221SOL     OW 7792   6.140   8.239   2.216  0.4008  0.0548 -0.4541
34221SOL    HW1 7793   6.195   8.298   2.165  0.1208  0.8900  0.2081
34221SOL    HW2 7794   6.068   8.216   2.157  0.3747  0.5719 -0.6250
34222SOL     OW 7795   0.377  10.475   6.173 -0.1779  0.5977 -0.3534
34222SOL    HW1 7796   0.343  10.557   6.136  0.3081  1.1847  0.4862
34222SOL    HW2 7797   0.412  10.500   6.258  0.4845 -0.3913 -0.3319
34223SOL     OW 7798   3.747   5.467   7.247 -0.5958 -0.0255 -0.0728
34223SOL    HW1 7799   3.739   5.552   7.289 -0.1015 -0.2143  0.4029
34223SOL    HW2 7800   3.779   5.409   7.316 -0.1349 -0.4116 -0.6078
34224SOL     OW 7801   9.590   3.437   7.619 -0.1539 -0.1430 -0.4946
34224SOL    HW1 7802   9.511   3.397   7.655  0.4523 -0.4278  0.5409
34224SOL    HW2 7803   9.645   3.456   7.695  0.9320 -0.2744 -1.2279
34225SOL     OW 7804  11.195  11.275   8.422 -0.0512  0.0891 -0.2473
34225SOL    HW1 7805  11.269  11.297   8.366 -0.3818  1.4179 -0.1847
34225SOL    HW2 7806  11.179  11.354   8.473  0.4841 -1.2008  1.9971
34226SOL     OW 7807   4.412   2.188   6.888 -0.0466 -0.0729  0.1822
34226SOL    HW1 7808   4.494   2.140   6.894 -0.2860 -0.4230  0.7265
34226SOL    HW2 7809   4.361   2.158   6.964 -0.7091  0.0814 -0.1982
34227SOL     OW 7810   6.338   9.425   4.937 -0.5608  0.1950 -0.4551
34227SOL    HW1 7811   6.323   9.366   5.011  2.4792  2.5054  2.1222
34227SOL    HW2 7812   6.426   9.403   4.907 -0.6846  1.2149 -1.5858
34228SOL     OW 7813   3.130  10.166   3.469  0.3003  0.0634  0.4467
34228SOL    HW1 7814   3.178  10.099   3.517  0.3589  0.5591  1.0829
34228SOL    HW2 7815   3.071  10.205   3.534 -1.5326 -1.0676 -0.5026
34229SOL     OW 7816   4.904   7.576   8.993  0.3849  0.0002  0.5251
34229SOL    HW1 7817   4.840   7.578   9.064  0.2409  1.6744  0.3863
34229SOL    HW2 7818   4.899   7.488   8.957 -1.2514 -0.1218  1.0467
34230SOL     OW 7819  10.388   3.373   7.232 -0.0160 -0.2402 -0.3901
34230SOL    HW1 7820  10.466   3.415   7.270 -1.3644  1.6651  0.3453
34230SOL    HW2 7821  10.380   3.290   7.280  3.5456 -2.1660 -2.9069
34231SOL     OW 7822   1.504  10.328   1.547  0.0342 -0.1248 -0.1580
34231SOL    HW1 7823   1.502  10.243   1.591  0.9850 -0.3097 -0.4561
34231SOL    HW2 7824   1.414  10.342   1.517 -0.0689 -1.1542 -0.3469
34232SOL     OW 7825   8.403   6.568  10.002  0.0935 -0.0319  0.0071
34232SOL    HW1 7826   8.367   6.642  10.050 -1.1489  0.4695 -1.6247
34232SOL    HW2 7827   8.384   6.587   9.910  0.1419 -2.1501 -0.4861
34233SOL     OW 7828   1.157   8.852   7.793 -0.0396 -0.3778  0.0071
34233SOL    HW1 7829   1.241   8.807   7.802  0.3980  0.2953 -0.7157
34233SOL    HW2 7830   1.112   8.835   7.876  0.2442 -1.8877 -0.1250
34234SOL     OW 7831  10.403  11.273   2.833 -0.1134  0.7649  0.1359
34234SOL    HW1 7832  10.353  11.194   2.854  1.6578 -0.2598  0.5935
34234SOL    HW2 7833  10.442  11.255   2.748  0.4386  1.0827  0.3193
34235SOL     OW 7834   7.467   4.530   6.649  0.4455  0.0363  0.7419
34235SOL    HW1 7835   7.404   4.534   6.578  1.2922  1.5050  0.0594
34235SOL    HW2 7836   7.551   4.512   6.606  0.3360 -3.2914  1.7413
34236SOL     OW 7837  10.012   2.581  10.019  0.2757 -0.5651  0.1468
34236SOL    HW1 7838  10.023   2.674  10.000  0.2222 -0.6607 -0.3579
34236SOL    HW2 7839   9.934   2.556   9.969 -0.0244 -0.7556  0.7103
34237SOL     OW 7840   0.232   9.347   3.592 -0.3089 -0.0499  0.5837
34237SOL    HW1 7841   0.325   9.324   3.599 -0.1348  0.2889 -0.4178
34237SOL    HW2 7842   0.214   9.399   3.670  0.2267 -0.5102  1.0193
34238SOL     OW 7843   9.616   7.729   3.506  0.0494 -0.1933 -0.3483
34238SOL    HW1 7844   9.626   7.823   3.521  0.3120 -0.1430 -0.8563
34238SOL    HW2 7845   9.540   7.722   3.449 -1.0108 -0.3935  1.0491
34239SOL     OW 7846   0.365   5.190   6.495 -0.3113  0.3806 -0.3016
34239SOL    HW1 7847   0.310   5.262   6.527 -0.7185 -0.9717  2.1859
34239SOL    HW2 7848   0.444   5.195   6.549 -0.6295 -1.4349  0.3432
34240SOL     OW 7849   8.596   0.564   2.917  0.0104 -0.6060  0.2423
34240SOL    HW1 7850   8.567   0.582   2.828 -2.3413 -1.4501  0.7891
34240SOL    HW2 7851   8.690   0.546   2.909 -0.0494 -0.0794 -1.9587
34241SOL     OW 7852   6.440   5.976   2.183 -0.1704 -0.1231  0.4185
34241SOL    HW1 7853   6.385   5.920   2.128 -1.6501  0.6946  1.0616
34241SOL    HW2 7854   6.394   6.059   2.187  1.6289  0.9171  0.1196
34242SOL     OW 7855   9.169   2.970   7.616 -0.2073 -0.6566  0.4285
34242SOL    HW1 7856   9.229   2.980   7.542 -0.8537 -0.5845 -0.0910
34242SOL    HW2 7857   9.227   2.957   7.691  0.4378 -3.1694 -0.4518
34243SOL     OW 7858   0.579   9.030   6.983  0.5617  0.1542 -0.4295
34243SOL    HW1 7859   0.624   8.946   6.988  0.7986  0.2029 -1.6200
34243SOL    HW2 7860   0.524   9.033   7.061  1.7504 -0.4127  0.4456
34244SOL     OW 7861   2.934  10.517   1.343  0.1962 -0.5813 -0.5994
34244SOL    HW1 7862   2.999  10.493   1.277 -0.6037 -1.6684 -1.0066
34244SOL    HW2 7863   2.855  10.471   1.316  0.0464 -1.6423  1.5128
34245SOL     OW 7864   3.529   7.209   4.842  0.4259 -0.3428 -0.5011
34245SOL    HW1 7865   3.475   7.231   4.918 -0.4654  2.8169 -1.9259
34245SOL    HW2 7866   3.586   7.285   4.831  0.5989 -0.7796 -2.9082
34246SOL     OW 7867   0.446  10.857   2.783  0.4919  0.2686 -0.0522
34246SOL    HW1 7868   0.479  10.873   2.871  0.7152  0.5892 -0.1924
34246SOL    HW2 7869   0.407  10.940   2.756 -2.9264 -0.8508  1.1562
34247SOL     OW 7870   0.065   2.455   3.103 -0.1840  0.6578 -0.1023
34247SOL    HW1 7871   0.091   2.374   3.058 -0.5807  0.0924  0.6844
34247SOL    HW2 7872   0.014   2.503   3.037  0.3383  0.4308 -0.6838
34248SOL     OW 7873   0.221   6.222   9.931  0.1664 -0.4293 -0.3778
34248SOL    HW1 7874   0.196   6.307   9.967  3.6326 -0.1663  1.6524
34248SOL    HW2 7875   0.282   6.243   9.860  0.1016 -1.2187 -0.6764
34249SOL     OW 7876   3.818   4.179  10.831 -0.0115  0.1415 -0.1088
34249SOL    HW1 7877   3.882   4.234  10.786 -0.0582  0.3047  0.0242
34249SOL    HW2 7878   3.871   4.123  10.889 -0.0392  0.7058  0.4607
34250SOL     OW 7879   6.452   5.894   8.643  0.4468  0.1924  0.0486
34250SOL    HW1 7880   6.376   5.863   8.693 -0.5766  0.7395 -1.1215
34250SOL    HW2 7881   6.456   5.988   8.662  3.2073 -0.4966  3.1579
34251SOL     OW 7882   8.851   1.675   5.959 -0.2835  0.6121 -0.4401
34251SOL    HW1 7883   8.902   1.731   5.901 -1.3000  1.6200 -0.3822
34251SOL    HW2 7884   8.870   1.707   6.047  1.7691 -1.3361 -0.1150
34252SOL     OW 7885   2.186   4.674   3.432  0.1491  0.4175 -0.6682
34252SOL    HW1 7886   2.092   4.693   3.435  0.1219  0.5627 -2.0018
34252SOL    HW2 7887   2.192   4.585   3.398  0.4253 -0.4683  1.6629
34253SOL     OW 7888   3.158   6.276   8.881 -0.4398 -0.0187 -0.1692
34253SOL    HW1 7889   3.199   6.354   8.921  0.9152 -0.0991 -1.3509
34253SOL    HW2 7890   3.085   6.255   8.939  0.1528  1.1825  1.0499
34254SOL     OW 7891   6.229   7.063  10.795 -0.1354  0.2989  0.1147
34254SOL    HW1 7892   6.269   7.105  10.871 -0.7703 -1.5059  1.4879
34254SOL    HW2 7893   6.142   7.036  10.825  0.1892 -1.8090 -0.7306
34255SOL     OW 7894   3.010   4.367   0.844  0.0711  0.1189  0.1641
34255SOL    HW1 7895   2.970   4.447   0.878 -1.8484 -0.8456  0.1948
34255SOL    HW2 7896   2.958   4.344   0.767  0.9389 -0.8286 -0.1524
34256SOL     OW 7897   6.369   9.474   1.026  0.6075  0.1320 -0.1812
34256SOL    HW1 7898   6.302   9.542   1.037  0.2358 -0.2408 -0.1560
34256SOL    HW2 7899   6.320   9.393   1.015  1.0404 -0.0513 -0.7991
34257SOL     OW 7900   7.315   8.201  11.036 -0.0042 -0.4646 -0.4587
34257SOL    HW1 7901   7.287   8.212  11.127  0.2662  0.0346 -0.4359
34257SOL    HW2 7902   7.355   8.284  11.013  0.1517 -0.6774 -0.9574
34258SOL     OW 7903   2.311  10.549   6.385  0.2780 -0.3502  0.2115
34258SOL    HW1 7904   2.260  10.515   6.459 -0.9675 -0.6336 -0.7718
34258SOL    HW2 7905   2.288  10.492   6.312  2.7661 -1.1239 -0.0368
34259SOL     OW 7906   9.259   4.039   0.651 -0.6752  0.0349 -0.7362
34259SOL    HW1 7907   9.176   4.039   0.603 -0.3749 -2.5251 -1.3171
34259SOL    HW2 7908   9.255   4.119   0.704 -3.6048 -0.1334 -0.5955
34260SOL     OW 7909   7.616   9.462   2.449  1.0288 -0.6032 -0.2848
34260SOL    HW1 7910   7.580   9.434   2.365 -0.8927  1.2637 -0.1428
34260SOL    HW2 7911   7.553   9.431   2.513  0.0553  1.9680  0.0478
34261SOL     OW 7912   9.990   6.347   6.297  0.2322 -0.0759  0.0297
34261SOL    HW1 7913  10.028   6.407   6.233  0.9098  0.2128  0.6952
34261SOL    HW2 7914  10.064   6.291   6.324 -0.2475 -0.7904 -0.1119
34262SOL     OW 7915   0.757   4.518   1.199 -0.3388 -0.1863 -0.1563
34262SOL    HW1 7916   0.807   4.513   1.281  0.0745  0.7684 -0.3429
34262SOL    HW2 7917   0.723   4.607   1.197 -0.7951 -0.3672 -0.7780
34263SOL     OW 7918   3.313   0.175   1.039  0.4217  0.0273  0.5062
34263SOL    HW1 7919   3.289   0.265   1.018  1.2563  0.1589  0.0965
34263SOL    HW2 7920   3.396   0.182   1.085  0.3126 -0.5144  0.7975
34264SOL     OW 7921   6.177   4.557   0.801  0.0973 -0.2591 -0.0028
34264SOL    HW1 7922   6.178   4.601   0.886 -0.4115 -0.4255  0.0909
34264SOL    HW2 7923   6.160   4.627   0.738 -0.6394 -0.3021  0.1398
34265SOL     OW 7924   0.945  10.424   8.528  0.0208 -0.9019  0.1151
34265SOL    HW1 7925   1.038  10.438   8.512  0.4466 -2.2081  1.4043
34265SOL    HW2 7926   0.909  10.400   8.443  0.7437  0.1515 -0.5043
34266SOL     OW 7927   5.803  11.073   0.709  0.2021 -0.2198  0.2645
34266SOL    HW1 7928   5.784  11.150   0.762 -0.1822  0.4036 -0.7578
34266SOL    HW2 7929   5.752  11.003   0.750  0.2521  0.1574  0.9765
34267SOL     OW 7930   9.881   9.155   7.013  0.5745 -0.4264  0.1067
34267SOL    HW1 7931   9.899   9.249   7.019  3.8394 -1.0901  1.8717
34267SOL    HW2 7932   9.875   9.126   7.104  0.4508 -2.0843 -0.4188
34268SOL     OW 7933   9.759   0.072  10.764 -0.1639 -0.4406  0.5809
34268SOL    HW1 7934   9.795   0.137  10.824 -0.9476  2.4158 -1.8849
34268SOL    HW2 7935   9.827   0.061  10.697 -1.0569 -0.1723 -0.3932
34269SOL     OW 7936  10.410   8.207   3.508 -0.2032  0.1094  0.5869
34269SOL    HW1 7937  10.352   8.172   3.440 -0.2743  0.1838  0.6093
34269SOL    HW2 7938  10.351   8.236   3.577 -0.0629 -1.2284  1.2778
34270SOL     OW 7939   4.932   2.218   5.174  0.3414 -0.2324  0.1157
34270SOL    HW1 7940   5.015   2.259   5.200  0.1957  0.6368 -0.7704
34270SOL    HW2 7941   4.867   2.287   5.182 -0.7023 -1.4478  2.7956
34271SOL     OW 7942   2.398  10.453   3.736  0.1706 -0.5349 -0.1293
34271SOL    HW1 7943   2.331  10.452   3.804  0.2573 -1.2308 -0.0505
34271SOL    HW2 7944   2.438  10.540   3.743  3.9163 -2.3988  4.3743
34272SOL     OW 7945   6.914   3.816  10.146 -0.0841  0.1552 -0.1579
34272SOL    HW1 7946   6.845   3.750  10.137  1.4284 -1.6356  1.0477
34272SOL    HW2 7947   6.876   3.883  10.203 -0.5390 -1.2377  1.2177
34273SOL     OW 7948   4.682   1.860   5.965 -0.1898 -0.0338 -0.2240
34273SOL    HW1 7949   4.685   1.891   6.056 -0.0021 -1.4481  0.2604
34273SOL    HW2 7950   4.767   1.819   5.951  0.2626  1.2907 -1.4535
34274SOL     OW 7951   8.369   1.175   3.554 -0.1382 -0.4683  0.3391
34274SOL    HW1 7952   8.398   1.189   3.644 -0.3415  0.1451  0.3129
34274SOL    HW2 7953   8.284   1.132   3.562 -0.7650  0.7730  0.4650
34275SOL     OW 7954   7.292   7.943   1.742 -0.0164 -0.1296  0.0591
34275SOL    HW1 7955   7.264   8.005   1.675 -0.1366 -1.6610 -1.3264
34275SOL    HW2 7956   7.222   7.946   1.808 -1.1048 -0.3936 -1.0571
34276SOL     OW 7957   4.899   7.615   4.383 -0.3896  0.0553  0.4117
34276SOL    HW1 7958   4.922   7.670   4.308 -0.6281 -0.0183  0.2812
34276SOL    HW2 7959   4.953   7.647   4.455  1.0905 -0.9480 -0.2046
34277SOL     OW 7960  10.108   0.756   0.064 -0.8067 -0.9361 -0.2127
34277SOL    HW1 7961  10.070   0.773   0.150 -0.6903  1.3397 -0.5969
34277SOL    HW2 7962  10.033   0.750   0.005 -0.8351 -1.6747 -0.1162
34278SOL     OW 7963  11.094   7.896   6.015  1.1866  0.0214  0.0723
34278SOL    HW1 7964  11.129   7.966   5.960 -0.6843  0.3313 -0.7614
34278SOL    HW2 7965  11.164   7.830   6.018  2.5804  1.4756  0.0670
34279SOL     OW 7966   6.441   4.846   6.224  0.1109  0.6211  0.4486
34279SOL    HW1 7967   6.524   4.833   6.178 -0.2647  1.7706 -0.5815
34279SOL    HW2 7968   6.467   4.873   6.313  0.8346 -2.3275  1.1725
34280SOL     OW 7969  10.695   7.896   1.662  0.5151 -0.2639  0.2637
34280SOL    HW1 7970  10.610   7.870   1.628  0.6038  0.3935 -0.4640
34280SOL    HW2 7971  10.754   7.825   1.635 -0.3291 -2.2555  3.3517
34281SOL     OW 7972   0.981   9.507   5.216  0.1121  0.5006 -0.3102
34281SOL    HW1 7973   1.008   9.511   5.308  0.6358 -0.3390 -0.4246
34281SOL    HW2 7974   0.891   9.473   5.220  0.4670 -0.4344 -0.1592
34282SOL     OW 7975   9.352   4.049   1.011 -0.3792 -0.1947  0.4483
34282SOL    HW1 7976   9.438   4.008   1.008 -0.6290 -0.7125  0.3642
34282SOL    HW2 7977   9.362   4.129   0.959  0.2489  0.1296  1.0693
34283SOL     OW 7978   8.209   2.818   9.090  0.2168  0.2599  0.8123
34283SOL    HW1 7979   8.207   2.896   9.146 -0.4801  1.8247 -1.3476
34283SOL    HW2 7980   8.299   2.786   9.097  0.7300  1.7331  1.0906
34284SOL     OW 7981   1.625   1.928   0.136  0.5027 -0.4331  0.2537
34284SOL    HW1 7982   1.656   1.961   0.221  0.9019 -1.8034  0.6425
34284SOL    HW2 7983   1.701   1.884   0.099  0.8340  1.5810 -1.5792
34285SOL     OW 7984   6.584   6.609   0.235  0.1579  0.2233  0.0833
34285SOL    HW1 7985   6.558   6.696   0.203  0.8612 -0.6048 -2.9632
34285SOL    HW2 7986   6.502   6.560   0.240 -0.0330  0.5386  0.0984
34286SOL     OW 7987   1.392   8.347   9.203 -0.4873 -0.0544 -0.4855
34286SOL    HW1 7988   1.402   8.297   9.284  0.0728  0.6321 -0.1251
34286SOL    HW2 7989   1.482   8.355   9.170 -0.7834 -0.9373 -1.5452
34287SOL     OW 7990   6.846   0.234   0.015  0.5107 -0.0992 -0.3185
34287SOL    HW1 7991   6.797   0.274   0.087  0.4014  1.0582 -1.0183
34287SOL    HW2 7992   6.792   0.252  -0.062  1.5489  0.3121 -0.9541
34288SOL     OW 7993   8.176   4.053   5.293  0.3440 -0.1639 -0.5393
34288SOL    HW1 7994   8.210   3.965   5.308 -2.5280 -1.5529 -1.6623
34288SOL    HW2 7995   8.137   4.078   5.376 -1.2592 -1.1496 -0.9554
34289SOL     OW 7996   5.755   0.345   9.820  0.1397 -0.2023 -0.5650
34289SOL    HW1 7997   5.700   0.300   9.884  1.9257  0.2714  1.3717
34289SOL    HW2 7998   5.729   0.437   9.827  1.6030  0.1369  0.8818
34290SOL     OW 7999   0.900   4.089   9.866  0.3393  0.6088 -0.1607
34290SOL    HW1 8000   0.893   4.084   9.770  0.7416 -1.5608 -0.1134
34290SOL    HW2 8001   0.991   4.116   9.881 -0.1957  2.6054 -0.3961
34291SOL     OW 8002   5.103   1.261   0.058 -0.4283 -0.1183 -0.0055
34291SOL    HW1 8003   5.179   1.320   0.068 -0.4361 -0.1231  0.0888
34291SOL    HW2 8004   5.124   1.186   0.114 -0.9020  0.2830  0.7291
34292SOL     OW 8005   3.908   0.906   5.214  0.0696 -0.5432 -0.1128
34292SOL    HW1 8006   3.901   0.885   5.307 -0.0980 -1.2917 -0.2933
34292SOL    HW2 8007   3.826   0.951   5.193  0.1522 -0.2790  0.1187
34293SOL     OW 8008   1.168   9.570   2.587 -0.3778 -0.2163  0.2451
34293SOL    HW1 8009   1.073   9.555   2.583 -0.2928 -0.4768 -0.9956
34293SOL    HW2 8010   1.196   9.526   2.668 -1.2448 -0.5273  0.3808
34294SOL     OW 8011   0.048   9.787   1.860  0.4857  0.4766 -0.3439
34294SOL    HW1 8012   0.055   9.865   1.914 -1.4612 -0.1179  0.8199
34294SOL    HW2 8013  -0.003   9.726   1.913  0.8195 -1.0922 -1.7873
34295SOL     OW 8014   2.839   9.072   9.670 -0.2950  0.3712  0.1685
34295SOL    HW1 8015   2.775   9.028   9.726 -0.8004  1.2954  0.3112
34295SOL    HW2 8016   2.923   9.032   9.694 -0.8039 -0.8447 -0.0264
34296SOL     OW 8017   6.899   0.450   3.398  0.2081 -0.1543 -0.5138
34296SOL    HW1 8018   6.948   0.433   3.479  0.2965  0.7043 -0.3843
34296SOL    HW2 8019   6.819   0.398   3.407  0.2289 -0.0766  0.1170
34297SOL     OW 8020   2.222   1.508   7.178  0.0686  0.3448  0.0257
34297SOL    HW1 8021   2.207   1.426   7.226  1.4561  0.3457  0.5005
34297SOL    HW2 8022   2.250   1.570   7.244 -3.2840  1.9192  0.0339
34298SOL     OW 8023   1.309   6.911   9.987  0.2840  0.2086 -0.5063
34298SOL    HW1 8024   1.216   6.906  10.008  0.4130 -0.0470 -0.0012
34298SOL    HW2 8025   1.324   6.836   9.928 -0.2022  1.2708 -2.0158
34299SOL     OW 8026  10.241   4.650   7.400  0.7733 -0.1347 -0.4497
34299SOL    HW1 8027  10.156   4.670   7.361  0.1524 -0.8320  0.5452
34299SOL    HW2 8028  10.221   4.597   7.477  2.0708  0.2279  0.1552
34300SOL     OW 8029   2.832   3.791  10.281  0.4785  0.1298  0.2326
34300SOL    HW1 8030   2.843   3.751  10.194 -1.8128 -0.0379 -0.0040
34300SOL    HW2 8031   2.741   3.819  10.283  0.2627 -0.6408  2.9180
34301SOL     OW 8032   3.011   6.261   7.666 -0.0305  0.3618 -0.1695
34301SOL    HW1 8033   2.930   6.296   7.703  0.0428 -0.0444  0.3938
34301SOL    HW2 8034   2.989   6.172   7.640  0.5452 -0.1770  1.1219
34302SOL     OW 8035   8.444   2.714   9.105  0.3662  0.3729 -0.2345
34302SOL    HW1 8036   8.531   2.708   9.143  0.6866 -0.7221 -1.1245
34302SOL    HW2 8037   8.459   2.732   9.013 -0.2862 -1.6755 -0.7733
34303SOL     OW 8038   8.157   0.199   3.294 -0.3736  0.2176 -0.3509
34303SOL    HW1 8039   8.175   0.288   3.325  1.8832 -0.1430 -0.5872
34303SOL    HW2 8040   8.131   0.151   3.373  1.0608  0.4059  0.2445
34304SOL     OW 8041   0.147   6.300   2.916  0.1234 -0.3729 -0.3505
34304SOL    HW1 8042   0.162   6.297   3.010 -0.9155  3.4180  0.0215
34304SOL    HW2 8043   0.067   6.249   2.902 -1.7145  1.9280  1.3543
34305SOL     OW 8044   0.642   1.784   1.082 -0.4021 -0.3581  0.6898
34305SOL    HW1 8045   0.597   1.718   1.029 -1.3847  1.6631 -1.0607
34305SOL    HW2 8046   0.574   1.821   1.138 -0.6670  1.6424 -0.8868
34306SOL     OW 8047   8.162   5.168   2.794  0.9124 -0.0286  0.0685
34306SOL    HW1 8048   8.110   5.216   2.730  0.8105  0.9071  0.8351
34306SOL    HW2 8049   8.139   5.076   2.780 -0.2429  0.2989 -0.2283
34307SOL     OW 8050   1.272   5.975   0.970  0.0157  0.0234  0.0983
34307SOL    HW1 8051   1.280   6.021   1.054 -0.5376  0.6886 -0.2117
34307SOL    HW2 8052   1.355   5.929   0.960 -0.5903 -1.5209  1.8708
34308SOL     OW 8053   9.854   9.412   3.772  0.9891 -0.5236  0.3823
34308SOL    HW1 8054   9.786   9.474   3.799  1.9586  0.7416 -0.0237
34308SOL    HW2 8055   9.808   9.349   3.716  0.7296  2.2560 -2.6952
34309SOL     OW 8056   7.524   3.725   7.423 -0.1026  0.3142 -0.4557
34309SOL    HW1 8057   7.501   3.678   7.343  0.8660 -1.3094  0.1961
34309SOL    HW2 8058   7.488   3.670   7.494  3.9091 -1.2595  0.4880
34310SOL     OW 8059   2.293  10.686   5.978  0.2836 -0.6166 -0.2751
34310SOL    HW1 8060   2.279  10.772   5.938  1.8911 -0.1758  0.0903
34310SOL    HW2 8061   2.251  10.692   6.064  1.3016  0.1564  0.1726
34311SOL     OW 8062   2.083   9.221   4.331  0.1801 -0.4906 -0.2416
34311SOL    HW1 8063   2.064   9.139   4.376  0.8193 -0.2379  0.4933
34311SOL    HW2 8064   2.003   9.242   4.283 -0.3527 -0.9745  0.4438
34312SOL     OW 8065   8.209   0.608  10.437  0.0703  0.5726 -0.0906
34312SOL    HW1 8066   8.132   0.572  10.480 -0.4666  1.4250 -0.3142
34312SOL    HW2 8067   8.236   0.541  10.374 -0.1717  0.0547  0.3594
34313SOL     OW 8068   5.725   8.723   9.442  0.0702  0.1879  0.1854
34313SOL    HW1 8069   5.730   8.819   9.440  0.6472  0.1403 -1.7818
34313SOL    HW2 8070   5.791   8.695   9.378 -1.6650 -1.4517 -0.9380
34314SOL     OW 8071   5.985   0.427   3.046  0.2346  0.4502  0.0480
34314SOL    HW1 8072   5.927   0.375   2.990  2.3713 -1.7921 -0.2080
34314SOL    HW2 8073   5.983   0.514   3.008 -0.3316 -0.4282 -2.0294
34315SOL     OW 8074   6.940   3.481   4.725  0.2447  0.0317 -0.1764
34315SOL    HW1 8075   7.033   3.503   4.721  0.3779 -0.4875  0.0234
34315SOL    HW2 8076   6.895   3.565   4.715  0.6937  0.0764 -2.0832
34316SOL     OW 8077   4.937  10.081   4.727 -0.8489 -0.0546 -0.1717
34316SOL    HW1 8078   5.026  10.054   4.705 -0.3297  2.7922 -1.7107
34316SOL    HW2 8079   4.887  10.068   4.647 -1.0015  1.7847 -0.3849
34317SOL     OW 8080   2.211   1.600   6.759 -0.4379 -0.0622 -0.4829
34317SOL    HW1 8081   2.165   1.629   6.838  0.8896  0.6012  0.0729
34317SOL    HW2 8082   2.149   1.615   6.688 -0.9776  1.1034  0.2095
34318SOL     OW 8083   8.288   6.902   3.213 -0.1571  0.1491 -0.4492
34318SOL    HW1 8084   8.249   6.950   3.140  0.6246 -0.1444 -1.0763
34318SOL    HW2 8085   8.286   6.810   3.185  0.7063  0.1008 -0.3660
34319SOL     OW 8086   0.516   4.198   4.879 -0.5879  0.0339  0.7676
34319SOL    HW1 8087   0.608   4.222   4.890 -0.4957  0.1383 -0.2475
34319SOL    HW2 8088   0.506   4.118   4.932  0.2763 -0.4257  0.2428
34320SOL     OW 8089   3.494   0.275   3.100 -0.2025  0.4834 -0.0158
34320SOL    HW1 8090   3.533   0.350   3.056  3.1747 -0.2346  1.5357
34320SOL    HW2 8091   3.537   0.273   3.186 -0.9735 -2.5867  0.3711
34321SOL     OW 8092   8.872   7.104   1.523  0.0744  0.2791  0.1993
34321SOL    HW1 8093   8.940   7.160   1.484 -0.6947  0.4918 -0.8482
34321SOL    HW2 8094   8.858   7.141   1.610  2.2884 -0.6122  0.9676
34322SOL     OW 8095   2.838   9.546   9.175 -0.3058 -0.5326  0.8476
34322SOL    HW1 8096   2.903   9.477   9.160  0.7699  0.2831  1.6648
34322SOL    HW2 8097   2.875   9.599   9.245 -1.5337  0.3678  0.8292
34323SOL     OW 8098  10.873   0.632   4.292  0.6140 -0.2130 -0.3613
34323SOL    HW1 8099  10.796   0.620   4.349 -1.3589 -2.3041 -3.3064
34323SOL    HW2 8100  10.914   0.546   4.290  0.8076 -0.0987 -1.8342
34324SOL     OW 8101   9.511   8.032   3.377  0.3749 -0.3222 -0.1920
34324SOL    HW1 8102   9.542   8.122   3.365  0.7563 -0.4095  0.1133
34324SOL    HW2 8103   9.549   7.983   3.305  0.1341 -0.2277 -0.3813
34325SOL     OW 8104   5.624  10.184   5.725 -0.4695 -0.2725 -0.4978
34325SOL    HW1 8105   5.558  10.243   5.689  0.0505 -0.3106 -1.5126
34325SOL    HW2 8106   5.573  10.114   5.767 -1.0704  0.0031 -0.7612
34326SOL     OW 8107   1.778  11.223  10.692 -0.1602 -0.3805  0.0654
34326SOL    HW1 8108   1.747  11.305  10.654  0.4763 -0.0625  0.2228
34326SOL    HW2 8109   1.796  11.167  10.617 -0.4601 -0.3257 -0.0465
34327SOL     OW 8110  10.488   0.065   6.802 -0.2642  0.1557 -0.4123
34327SOL    HW1 8111  10.435   0.067   6.882  1.2836 -0.1380  0.6394
34327SOL    HW2 8112  10.436   0.013   6.740 -0.6713 -1.1476  0.9874
34328SOL     OW 8113   7.597   2.519   8.948 -0.3396 -0.1253 -0.2116
34328SOL    HW1 8114   7.534   2.579   8.989  1.1360  0.9952  0.4539
34328SOL    HW2 8115   7.566   2.432   8.972 -2.3684  0.3586 -0.9813
34329SOL     OW 8116   5.192   3.797   8.468  0.2366  0.4991  0.7020
34329SOL    HW1 8117   5.099   3.787   8.485  0.5776 -0.4960  2.0009
34329SOL    HW2 8118   5.214   3.724   8.410  0.3722  0.2511  1.0617
34330SOL     OW 8119   4.698   4.898   8.374 -0.1925 -0.5129  0.2412
34330SOL    HW1 8120   4.720   4.910   8.281 -2.1177 -0.5625 -0.2242
34330SOL    HW2 8121   4.622   4.953   8.388  0.6507  0.2405  2.0523
34331SOL     OW 8122   4.387  10.793   2.607 -0.4485 -0.1194 -0.4043
34331SOL    HW1 8123   4.433  10.792   2.691 -1.2422 -1.2245  0.0429
34331SOL    HW2 8124   4.379  10.885   2.585  1.8273  0.0971 -0.4166
34332SOL     OW 8125  10.283   9.083   5.585  0.6404  0.2633 -0.4375
34332SOL    HW1 8126  10.345   9.053   5.518 -0.1795  0.3988 -1.2677
34332SOL    HW2 8127  10.338   9.116   5.655  1.5659 -1.9574 -0.0546
34333SOL     OW 8128   2.406   7.078   0.384  0.4187 -0.0285 -0.5827
34333SOL    HW1 8129   2.452   7.024   0.448  2.4352  0.1074 -1.8844
34333SOL    HW2 8130   2.322   7.033   0.371  0.0625 -0.1697  1.9404
34334SOL     OW 8131   8.627   0.291   5.104 -0.0002  0.6724  0.0674
34334SOL    HW1 8132   8.635   0.345   5.182 -0.3181 -0.0453  0.6062
34334SOL    HW2 8133   8.554   0.328   5.055 -2.3855 -1.2067  2.0368
34335SOL     OW 8134   8.458   5.673   4.730  0.5176 -0.3898  0.6555
34335SOL    HW1 8135   8.479   5.599   4.786  1.3582 -0.9694 -0.3901
34335SOL    HW2 8136   8.543   5.703   4.698  0.1768  1.0524  1.1032
34336SOL     OW 8137   3.723   1.401   9.854 -0.2031 -0.0610 -0.6677
34336SOL    HW1 8138   3.717   1.446   9.770 -1.2223  2.4995  0.7064
34336SOL    HW2 8139   3.634   1.404   9.889  0.4108 -0.1572  0.9512
34337SOL     OW 8140   5.227   4.700   2.743 -0.5850  0.2022 -0.2901
34337SOL    HW1 8141   5.134   4.706   2.720 -0.4856 -0.2519 -0.8260
34337SOL    HW2 8142   5.232   4.732   2.833 -1.3624 -0.4426 -0.0141
34338SOL     OW 8143  10.985   2.328   6.013 -0.3213  0.3515 -0.0440
34338SOL    HW1 8144  10.978   2.303   6.105  0.3229 -0.0431 -0.1002
34338SOL    HW2 8145  10.934   2.262   5.966 -0.8806  0.7094  0.0461
34339SOL     OW 8146   2.701   7.845   3.245 -0.0706  0.4832  0.0300
34339SOL    HW1 8147   2.688   7.936   3.272 -1.0066  0.2801  0.2614
34339SOL    HW2 8148   2.645   7.794   3.303  0.3106 -0.2304 -0.2209
34340SOL     OW 8149   0.398   9.353   7.713 -0.0322  0.0663  0.1931
34340SOL    HW1 8150   0.466   9.332   7.649  0.8803 -0.0308  1.1832
34340SOL    HW2 8151   0.318   9.359   7.661  0.4838 -1.2089 -0.7825
34341SOL     OW 8152   3.146   8.156   6.272 -0.5600  0.3249  0.1941
34341SOL    HW1 8153   3.100   8.073   6.262  1.6465 -1.0779  1.1356
34341SOL    HW2 8154   3.175   8.179   6.184  0.9227 -1.1991  0.2592
34342SOL     OW 8155   5.828   9.010   3.109 -0.2633  0.6907 -0.8790
34342SOL    HW1 8156   5.757   9.071   3.088 -0.8286  1.0939  1.9631
34342SOL    HW2 8157   5.897   9.066   3.144  1.7261  0.3590 -4.0581
34343SOL     OW 8158   2.445   2.133   8.506 -0.0193 -0.9413  0.1702
34343SOL    HW1 8159   2.453   2.126   8.601 -0.3906 -0.4210  0.2442
34343SOL    HW2 8160   2.350   2.139   8.491  0.1207  0.7618 -0.0939
34344SOL     OW 8161   8.383   7.326   3.251 -0.5435 -0.3603 -0.1832
34344SOL    HW1 8162   8.398   7.311   3.157 -0.5012  0.8754 -0.3730
34344SOL    HW2 8163   8.439   7.401   3.272 -1.4666  0.1119  0.5722
34345SOL     OW 8164   4.674   1.976   0.178 -0.1596 -0.3045  0.3308
34345SOL    HW1 8165   4.653   2.057   0.225  0.3984 -0.8817  1.6058
34345SOL    HW2 8166   4.719   1.922   0.243 -1.7393 -2.1996 -0.1010
34346SOL     OW 8167   9.898   8.917  10.955 -0.4096  0.1283  0.0245
34346SOL    HW1 8168   9.813   8.947  10.986 -0.6425 -1.4473  1.0009
34346SOL    HW2 8169   9.956   8.926  11.031 -0.6445 -2.4180  0.5680
34347SOL     OW 8170  11.262   4.676   5.589  0.8352  0.3813  0.1142
34347SOL    HW1 8171  11.251   4.639   5.502  0.3295  0.5282  0.1122
34347SOL    HW2 8172  11.227   4.765   5.583 -0.8824 -0.1971  0.9002
34348SOL     OW 8173   1.114   1.491   3.415 -0.4706 -0.2001  0.0800
34348SOL    HW1 8174   1.092   1.580   3.386  0.0857 -0.2132 -0.3743
34348SOL    HW2 8175   1.209   1.489   3.415 -0.4378 -0.0478  2.3591
34349SOL     OW 8176   4.020   5.077   1.785  0.2531  0.3258  0.1460
34349SOL    HW1 8177   3.947   5.116   1.833 -0.3618 -1.2735  0.5164
34349SOL    HW2 8178   3.988   4.992   1.757  1.9576 -0.3561  0.2219
34350SOL     OW 8179   8.373   4.658   1.188  0.3110  0.1198 -0.4470
34350SOL    HW1 8180   8.462   4.642   1.159  0.4218  1.1782 -0.7319
34350SOL    HW2 8181   8.330   4.698   1.112  0.0893  1.1959  0.2296
34351SOL     OW 8182   7.012   2.308   0.719 -0.1048  0.1990  0.0253
34351SOL    HW1 8183   6.921   2.292   0.747 -0.0218 -1.4040 -0.6019
34351SOL    HW2 8184   7.011   2.291   0.625  0.8357  0.2897 -0.0012
34352SOL     OW 8185   4.292   0.608   5.782 -0.3489 -0.7071  0.1915
34352SOL    HW1 8186   4.362   0.574   5.838  0.8964 -0.6502 -1.2934
34352SOL    HW2 8187   4.331   0.685   5.739 -0.4815 -2.0499 -2.4613
34353SOL     OW 8188   4.782   0.391   1.198  0.0066 -0.1515 -0.5914
34353SOL    HW1 8189   4.850   0.404   1.265 -1.1537 -0.6234  0.6885
34353SOL    HW2 8190   4.829   0.400   1.115  1.5363  0.0905  0.2770
34354SOL     OW 8191   6.105   4.121   2.950 -0.0851  0.2196  0.0832
34354SOL    HW1 8192   6.014   4.123   2.921  0.1206 -1.5500 -0.7217
34354SOL    HW2 8193   6.114   4.199   3.005 -1.7631  1.0386 -0.7580
34355SOL     OW 8194   4.913   3.216   8.311 -0.3462  0.3055 -0.7553
34355SOL    HW1 8195   4.979   3.181   8.251 -1.1063  0.2687 -1.5796
34355SOL    HW2 8196   4.963   3.242   8.389  0.5171 -0.5450 -1.0122
34356SOL     OW 8197   3.975  10.966   5.064  0.1508  0.3562  0.6481
34356SOL    HW1 8198   3.961  10.886   5.114 -3.2361  1.0303  0.9082
34356SOL    HW2 8199   4.037  11.016   5.116  1.6687 -1.7294  0.9002
34357SOL     OW 8200   1.421   7.918   3.622 -0.4023 -0.0777  0.0226
34357SOL    HW1 8201   1.407   7.867   3.701  1.1566  0.9294  0.9892
34357SOL    HW2 8202   1.339   7.911   3.573 -0.8659 -1.9059  1.0257
34358SOL     OW 8203   6.256   5.023   0.950 -0.5516 -0.1581 -0.4244
34358SOL    HW1 8204   6.240   5.014   1.044  0.9185  0.9836 -0.0479
34358SOL    HW2 8205   6.214   4.946   0.911 -2.5897  0.1998  0.9788
34359SOL     OW 8206   9.677   5.289   9.381  0.1410  0.3502  0.0453
34359SOL    HW1 8207   9.587   5.269   9.406  0.3328 -0.7121 -0.0928
34359SOL    HW2 8208   9.707   5.351   9.447  0.6449 -2.4119  2.4944
34360SOL     OW 8209   5.455   4.154   2.390  0.3470 -0.3113  0.2786
34360SOL    HW1 8210   5.515   4.079   2.386 -0.0825 -0.6225 -0.5794
34360SOL    HW2 8211   5.385   4.125   2.448  0.1573 -0.5994 -0.0895
34361SOL     OW 8212   7.429  10.168   2.232  0.4651  0.7104  0.2844
34361SOL    HW1 8213   7.334  10.178   2.229  0.2633  0.5744  3.9665
34361SOL    HW2 8214   7.444  10.074   2.227  0.3919  0.6964  0.3357
34362SOL     OW 8215   9.568   7.547   7.297 -0.2360  0.3369  0.5437
34362SOL    HW1 8216   9.631   7.547   7.369  1.4426 -0.5509 -0.8953
34362SOL    HW2 8217   9.575   7.635   7.259  0.2315  0.1974  0.3056
34363SOL     OW 8218   6.329   6.890  10.448  0.4713 -0.3799 -0.1553
34363SOL    HW1 8219   6.256   6.842  10.489 -0.3401  1.8035  1.0263
34363SOL    HW2 8220   6.287   6.940  10.378  1.3806 -1.7164 -1.6608
34364SOL     OW 8221   3.500   4.108   2.965  0.0521 -0.2326  0.7585
34364SOL    HW1 8222   3.417   4.070   2.937  0.5787 -1.0291  0.2888
34364SOL    HW2 8223   3.551   4.035   2.998  0.5599  0.2654  1.0958
34365SOL     OW 8224   8.987  11.333   9.678 -0.0895  0.1226 -0.7771
34365SOL    HW1 8225   8.994  11.270   9.606 -0.2276 -1.1615  0.3130
34365SOL    HW2 8226   8.925  11.293   9.738 -0.8021  1.6954 -0.4477
34366SOL     OW 8227   5.262   9.681   5.207 -0.0677 -0.0989  0.9222
34366SOL    HW1 8228   5.312   9.639   5.276 -0.9592 -1.1637  0.9233
34366SOL    HW2 8229   5.239   9.767   5.243  1.8830  0.4642  0.8518
34367SOL     OW 8230  10.182   6.527   1.359  0.0330 -0.2073  0.8878
34367SOL    HW1 8231  10.200   6.538   1.265 -0.6115  0.3604  0.8268
34367SOL    HW2 8232  10.190   6.433   1.374  0.0861 -0.3077  0.2449
34368SOL     OW 8233   3.190   6.453   4.105 -0.3455 -0.2798 -0.5298
34368SOL    HW1 8234   3.198   6.359   4.116 -0.6139 -0.1839  0.5157
34368SOL    HW2 8235   3.268   6.478   4.056  0.3548 -0.8751  0.2691
34369SOL     OW 8236   9.315   8.602   6.546 -0.2669  0.7945  0.7241
34369SOL    HW1 8237   9.222   8.600   6.566 -0.0467  1.1513  1.8521
34369SOL    HW2 8238   9.320   8.614   6.451 -1.3621  0.1987  0.5992
34370SOL     OW 8239   6.081   6.266   4.867 -1.0796  0.2240 -0.0748
34370SOL    HW1 8240   6.128   6.348   4.855  0.3097 -0.2695  1.6682
34370SOL    HW2 8241   6.091   6.220   4.784  0.1807  0.8064 -0.2678
34371SOL     OW 8242   2.796  11.079   4.744  0.1518  0.4841 -0.5487
34371SOL    HW1 8243   2.744  11.143   4.793  0.0718  0.0887 -0.1104
34371SOL    HW2 8244   2.885  11.092   4.775 -0.3746 -2.1316  2.3453
34372SOL     OW 8245   8.333   6.751   5.305 -0.8197  0.0961 -0.2215
34372SOL    HW1 8246   8.272   6.687   5.341 -1.0514  0.6703  0.4208
34372SOL    HW2 8247   8.402   6.698   5.265 -1.1450 -0.5571  0.0659
34373SOL     OW 8248   3.237   2.683   9.049 -0.4287  0.2153 -0.0709
34373SOL    HW1 8249   3.156   2.645   9.014 -0.4137  1.5933 -1.6984
34373SOL    HW2 8250   3.264   2.746   8.982  2.8848 -1.3610 -0.3043
34374SOL     OW 8251   1.654   6.312   4.383 -0.0830 -0.3407  0.4329
34374SOL    HW1 8252   1.629   6.363   4.460 -0.7641 -2.6650  1.7869
34374SOL    HW2 8253   1.746   6.335   4.369 -0.3755  1.2583  1.0036
34375SOL     OW 8254   5.553   0.173   2.703  0.0974 -0.6136 -0.1679
34375SOL    HW1 8255   5.572   0.260   2.667  0.1420 -0.4295  0.2987
34375SOL    HW2 8256   5.581   0.178   2.794 -0.3595 -0.9610 -0.0032
34376SOL     OW 8257   5.978   6.555   3.135 -0.2156  0.4072 -0.6784
34376SOL    HW1 8258   6.068   6.557   3.102 -0.6890 -0.4154 -2.0625
34376SOL    HW2 8259   5.971   6.633   3.189  0.7081  1.5866 -2.2100
34377SOL     OW 8260   0.959   3.150   0.353 -0.3873 -0.0867  0.1329
34377SOL    HW1 8261   0.950   3.115   0.442 -1.8841 -0.3536 -0.1220
34377SOL    HW2 8262   0.958   3.245   0.365  1.2320 -0.0993  0.5709
34378SOL     OW 8263  10.137   2.180   1.871 -0.1619 -0.0907 -0.1149
34378SOL    HW1 8264  10.145   2.271   1.897 -1.1651 -0.2963  0.9270
34378SOL    HW2 8265  10.221   2.159   1.830  0.3883  1.0364  0.4406
34379SOL     OW 8266   7.914   8.559   3.120 -0.0755 -0.5199 -0.0785
34379SOL    HW1 8267   7.942   8.555   3.211 -1.0318 -1.2073  0.1990
34379SOL    HW2 8268   7.990   8.532   3.069  0.7978  0.9296  0.4510
34380SOL     OW 8269  10.138   5.905   6.512 -0.0541 -0.5234 -0.9045
34380SOL    HW1 8270  10.176   5.912   6.600  0.8369  1.0733 -1.3921
34380SOL    HW2 8271  10.189   5.836   6.470  0.1923 -0.5827 -0.5176
34381SOL     OW 8272   0.570   2.170   4.805 -0.4882  0.1186 -0.2905
34381SOL    HW1 8273   0.482   2.207   4.803 -0.1448  0.9148 -0.9160
34381SOL    HW2 8274   0.566   2.098   4.742 -0.7481  0.0148 -0.1592
34382SOL     OW 8275   6.636   3.595   7.420  0.3750 -0.1646 -0.2163
34382SOL    HW1 8276   6.622   3.526   7.485  0.6447 -0.6716 -0.6843
34382SOL    HW2 8277   6.731   3.606   7.417  0.3112  0.5181  0.1503
34383SOL     OW 8278   8.063   5.456   2.326 -0.0808 -0.0004  0.0780
34383SOL    HW1 8279   8.034   5.402   2.253 -0.3797 -1.3674  1.1940
34383SOL    HW2 8280   8.119   5.398   2.378  1.3987  1.4191  0.1133
34384SOL     OW 8281   8.985   2.738   6.279  0.3136  0.0669  0.0215
34384SOL    HW1 8282   9.053   2.794   6.315 -0.0038  0.3499  0.1782
34384SOL    HW2 8283   8.919   2.732   6.348  0.4660 -0.7047  0.1051
34385SOL     OW 8284   1.962  10.605   4.508 -0.0425 -0.1363 -0.4316
34385SOL    HW1 8285   2.020  10.681   4.517 -0.7021  0.3746 -0.4944
34385SOL    HW2 8286   1.885  10.638   4.462 -0.2121 -0.9092 -0.7205
34386SOL     OW 8287   6.161   0.584   3.502 -0.0829  0.0557 -0.4374
34386SOL    HW1 8288   6.188   0.558   3.590 -2.4149  0.0412  0.3237
34386SOL    HW2 8289   6.169   0.504   3.450 -1.9095 -0.8399  0.5893
34387SOL     OW 8290   4.604   2.472  10.104  0.7734  0.0588 -0.1252
34387SOL    HW1 8291   4.604   2.519  10.020 -0.9032  1.0013  0.3802
34387SOL    HW2 8292   4.528   2.506  10.150  0.0581 -2.4949  0.6520
34388SOL     OW 8293   9.592  10.178   0.851 -0.2315 -0.0383 -0.1226
34388SOL    HW1 8294   9.525  10.246   0.855  1.2050  1.4609 -0.7455
34388SOL    HW2 8295   9.567  10.124   0.776 -0.9069  0.3220 -0.1615
34389SOL     OW 8296   9.486   4.346   8.375 -0.2740  0.1137 -0.4490
34389SOL    HW1 8297   9.444   4.431   8.365  0.5328  0.8069  1.9002
34389SOL    HW2 8298   9.579   4.366   8.387 -0.3587 -0.9329  2.2747
34390SOL     OW 8299   5.106   4.476   2.111 -0.1282  0.1657 -0.2362
34390SOL    HW1 8300   5.076   4.511   2.194  1.0351  1.4542 -0.3454
34390SOL    HW2 8301   5.109   4.381   2.124 -0.7882  0.3017  0.8970
34391SOL     OW 8302   3.632  11.296  11.241  0.3379 -0.0113 -0.3985
34391SOL    HW1 8303   3.636  11.263  11.331  1.0632 -0.5840 -0.6325
34391SOL    HW2 8304   3.683  11.377  11.242  2.5413 -1.3244 -0.8258
34392SOL     OW 8305   7.141   8.764  10.981  0.6001  0.1415 -0.1451
34392SOL    HW1 8306   7.046   8.777  10.973  0.4249  0.5658  2.1105
34392SOL    HW2 8307   7.177   8.853  10.976  0.6424  0.2232  1.4045
34393SOL     OW 8308   2.345  11.102   1.450  0.4459 -0.3240  0.1566
34393SOL    HW1 8309   2.404  11.034   1.416 -0.1077 -1.2023  0.9443
34393SOL    HW2 8310   2.367  11.180   1.399  4.5024  0.2255  2.5329
34394SOL     OW 8311   1.413   5.077   3.337  0.2326 -0.2215  0.1019
34394SOL    HW1 8312   1.408   5.150   3.275  0.2749 -1.3834 -1.2707
34394SOL    HW2 8313   1.325   5.070   3.373  0.2932  0.6679  0.4511
34395SOL     OW 8314   7.649   6.192   5.098 -0.6701  0.0241  0.1905
34395SOL    HW1 8315   7.680   6.255   5.032  1.8033 -0.8994  0.4127
34395SOL    HW2 8316   7.597   6.129   5.048 -0.8202  0.6782 -0.4873
34396SOL     OW 8317   5.323   5.876   6.248  0.4137  0.3182 -0.1862
34396SOL    HW1 8318   5.269   5.879   6.327  0.6914  1.0421 -0.0178
34396SOL    HW2 8319   5.370   5.793   6.254  0.4414  0.3771  0.4115
34397SOL     OW 8320   7.626   7.890   9.280 -0.9557  0.1337 -0.2398
34397SOL    HW1 8321   7.670   7.806   9.293 -0.2861  0.7689  1.7392
34397SOL    HW2 8322   7.547   7.885   9.334  0.2167  1.5902  1.6706
34398SOL     OW 8323  10.538   6.183   3.904  0.2084 -0.5314 -0.4792
34398SOL    HW1 8324  10.511   6.160   3.993 -0.4142  0.6939 -0.3370
34398SOL    HW2 8325  10.513   6.275   3.894  0.1065 -0.7049 -1.9929
34399SOL     OW 8326   9.378   1.651   7.720  0.2622 -0.3028  0.1247
34399SOL    HW1 8327   9.372   1.566   7.763 -0.3119 -0.5773 -0.4909
34399SOL    HW2 8328   9.452   1.642   7.660 -0.4930 -0.7277 -0.7409
34400SOL     OW 8329  10.951  10.082   9.965 -0.3010 -0.2706  0.0165
34400SOL    HW1 8330  11.016  10.014   9.983  0.6954  0.6222 -0.2129
34400SOL    HW2 8331  11.002  10.158   9.937 -1.3917  0.6784  0.5693
34401SOL     OW 8332   0.709   2.155   8.852  0.6587 -0.0541 -0.3302
34401SOL    HW1 8333   0.761   2.075   8.847  0.4390 -0.1012 -2.5679
34401SOL    HW2 8334   0.758   2.218   8.799  0.0217  0.8150  0.1099
34402SOL     OW 8335   7.728   4.408   8.073  0.4092 -0.0364  0.3848
34402SOL    HW1 8336   7.715   4.314   8.078 -3.2985  0.4295  0.8984
34402SOL    HW2 8337   7.734   4.426   7.979 -1.5030 -0.5070  0.1543
34403SOL     OW 8338   7.505   6.043   1.258  0.2040 -0.2628 -0.1360
34403SOL    HW1 8339   7.576   5.980   1.269  1.4373  0.6342 -2.6447
34403SOL    HW2 8340   7.456   6.039   1.341  2.3211 -1.9235  1.0714
34404SOL     OW 8341   7.577   5.336   3.931  0.5262 -0.0943  0.2974
34404SOL    HW1 8342   7.564   5.338   4.026 -0.7683  0.0564  0.1333
34404SOL    HW2 8343   7.656   5.284   3.918  0.1881 -0.9036  1.4085
34405SOL     OW 8344   9.386   0.920   6.268  0.2383 -0.4176  0.5791
34405SOL    HW1 8345   9.352   0.986   6.328 -0.1171 -0.0513 -0.0151
34405SOL    HW2 8346   9.458   0.878   6.316 -0.4783 -0.5963  1.5155
34406SOL     OW 8347   5.817   0.842   8.194  0.6450  0.2728  0.5822
34406SOL    HW1 8348   5.907   0.875   8.191  1.4105 -1.8381 -0.2679
34406SOL    HW2 8349   5.769   0.900   8.134  0.8496  2.9491  2.8774
34407SOL     OW 8350   9.494   5.062   5.481  0.0832  0.1224  0.4244
34407SOL    HW1 8351   9.520   5.094   5.395 -0.3109  0.4410  0.4252
34407SOL    HW2 8352   9.508   4.967   5.476 -0.2230  0.1024 -0.0842
34408SOL     OW 8353   4.679   0.680   2.128  0.4261  0.0006  0.7515
34408SOL    HW1 8354   4.773   0.661   2.129 -0.0187 -2.5046  0.2921
34408SOL    HW2 8355   4.638   0.594   2.114 -1.9464  0.9822  1.4250
34409SOL     OW 8356   9.648   1.251   4.948 -0.6104 -0.3009 -0.2673
34409SOL    HW1 8357   9.653   1.280   5.039  2.4201 -1.4916  0.0099
34409SOL    HW2 8358   9.627   1.330   4.899  2.4276  1.3816  0.9984
34410SOL     OW 8359   0.513   5.716   7.379  0.4719  0.5587  0.2538
34410SOL    HW1 8360   0.446   5.661   7.419 -1.8376  2.4557 -0.8653
34410SOL    HW2 8361   0.518   5.793   7.435  2.5973 -0.0719  0.9771
34411SOL     OW 8362   0.573  10.256   5.231  0.5773  0.0406 -0.4921
34411SOL    HW1 8363   0.661  10.236   5.263  1.0384 -0.5572 -2.0980
34411SOL    HW2 8364   0.514  10.212   5.293  1.3522  1.3381  1.2164
34412SOL     OW 8365   7.339   5.185  10.882  0.8308 -0.4789 -0.3241
34412SOL    HW1 8366   7.426   5.166  10.918  1.0673 -1.7851 -1.5039
34412SOL    HW2 8367   7.321   5.110  10.825 -0.5012  0.4335 -1.1155
34413SOL     OW 8368   0.462   8.532  10.685  0.6737 -0.0722  0.0406
34413SOL    HW1 8369   0.378   8.496  10.712  0.9046  0.7467  1.9374
34413SOL    HW2 8370   0.467   8.514  10.591 -1.5970 -0.1153 -0.0909
34414SOL     OW 8371   7.137   0.228   7.441 -0.2769  0.1380 -0.0821
34414SOL    HW1 8372   7.139   0.209   7.535 -0.0864 -1.4834 -0.3906
34414SOL    HW2 8373   7.054   0.272   7.427 -1.0353 -1.0278  0.6110
34415SOL     OW 8374   7.319  10.450   5.025 -0.2521 -0.3094  0.0834
34415SOL    HW1 8375   7.410  10.474   5.007 -0.4039 -0.7837 -1.3912
34415SOL    HW2 8376   7.276  10.533   5.047  0.3082  0.0701 -0.2562
34416SOL     OW 8377   7.846   6.288   7.496 -0.0101 -0.5638  0.6460
34416SOL    HW1 8378   7.797   6.207   7.513 -0.7503 -0.0817  0.8504
34416SOL    HW2 8379   7.925   6.259   7.451 -0.5613 -1.3456  0.1565
34417SOL     OW 8380   7.830   3.168   7.160  0.4301  0.1431  0.5494
34417SOL    HW1 8381   7.914   3.166   7.113 -0.2936  1.0672 -0.8103
34417SOL    HW2 8382   7.833   3.250   7.209  0.7105 -0.2813  1.2487
34418SOL     OW 8383   2.473   7.113   0.844  1.0525  0.1132  0.1761
34418SOL    HW1 8384   2.470   7.205   0.871  0.3262  0.2072 -0.2103
34418SOL    HW2 8385   2.562   7.100   0.812  1.2259  0.6218  0.4420
34419SOL     OW 8386   6.069   6.580  10.608  0.2455 -0.1245 -0.4604
34419SOL    HW1 8387   6.159   6.556  10.584  0.5743  0.6549 -0.0361
34419SOL    HW2 8388   6.055   6.664  10.564 -0.1690 -0.0986 -0.2757
34420SOL     OW 8389   3.068  10.648   6.577 -0.2139  0.0541 -0.3175
34420SOL    HW1 8390   3.095  10.559   6.556  0.9554  0.4765 -0.6561
34420SOL    HW2 8391   3.047  10.646   6.670  1.6700 -0.1522  0.1263
34421SOL     OW 8392   3.872   3.405  11.208 -0.1958  0.0373  0.0045
34421SOL    HW1 8393   3.929   3.472  11.169  1.2114 -1.2383 -0.1575
34421SOL    HW2 8394   3.789   3.413  11.161  0.7058  0.1434 -1.5805
34422SOL     OW 8395   9.768   9.454   5.547  0.3771 -0.2506 -0.2473
34422SOL    HW1 8396   9.688   9.429   5.594  2.0674 -0.0219  2.8606
34422SOL    HW2 8397   9.832   9.387   5.571  1.7567  0.8000 -0.9511
34423SOL     OW 8398   4.946   8.772   1.492 -0.4929 -0.2624 -0.2535
34423SOL    HW1 8399   4.862   8.757   1.449 -0.5599 -0.7019  0.0210
34423SOL    HW2 8400   4.927   8.765   1.586  0.2052 -2.4054 -0.2301
34424SOL     OW 8401   7.322   4.493   6.887  0.4863 -0.1915  0.3455
34424SOL    HW1 8402   7.362   4.501   6.801 -0.1899  1.9358  0.2046
34424SOL    HW2 8403   7.240   4.447   6.872 -0.0577  0.9673 -0.2973
34425SOL     OW 8404   8.443   3.302   8.213 -0.7528  0.6006  0.3711
34425SOL    HW1 8405   8.354   3.320   8.245 -1.3678 -0.2168 -0.8302
34425SOL    HW2 8406   8.430   3.269   8.124  0.7387  0.1198  0.3216
34426SOL     OW 8407   3.086   0.538   3.432 -0.0873  0.4066  0.9308
34426SOL    HW1 8408   3.153   0.474   3.406  0.4030  1.5109 -0.5699
34426SOL    HW2 8409   3.006   0.486   3.439  0.3942 -0.4555  0.1920
34427SOL     OW 8410   9.516   0.427   6.599  0.0820 -0.0498 -0.4644
34427SOL    HW1 8411   9.606   0.460   6.603  0.3778 -0.7003 -1.4189
34427SOL    HW2 8412   9.524   0.343   6.555 -1.0841  0.2189 -1.2087
34428SOL     OW 8413   1.544   2.302   0.347  0.4242  0.5908  0.1526
34428SOL    HW1 8414   1.478   2.298   0.277 -0.8692  0.5384  1.3623
34428SOL    HW2 8415   1.616   2.352   0.308  0.6102 -1.2067 -1.9344
34429SOL     OW 8416   6.439   8.961   0.385 -0.1586  0.1496 -0.1165
34429SOL    HW1 8417   6.386   8.920   0.453  0.4356  0.6999  0.6900
34429SOL    HW2 8418   6.523   8.981   0.428  0.0383  0.9779 -0.8523
34430SOL     OW 8419   9.076   0.031  10.480 -0.1741  0.3929 -0.0091
34430SOL    HW1 8420   9.115   0.098  10.423  1.0837 -0.5472 -0.2634
34430SOL    HW2 8421   9.047  -0.038  10.420  1.7827 -0.9136  0.5169
34431SOL     OW 8422  10.371   3.415   4.318 -0.1630 -0.1631  0.1608
34431SOL    HW1 8423  10.420   3.377   4.245 -0.9707 -1.2499  0.1804
34431SOL    HW2 8424  10.310   3.346   4.345 -3.2233  1.9187 -1.2501
34432SOL     OW 8425   5.302   4.161  10.359 -0.3725 -0.5569  0.0777
34432SOL    HW1 8426   5.307   4.071  10.390  0.1700 -0.0950  1.3353
34432SOL    HW2 8427   5.293   4.214  10.438 -1.6442  0.4360 -0.7070
34433SOL     OW 8428   4.178   5.035  10.009  0.3748 -0.0986  0.3199
34433SOL    HW1 8429   4.111   4.987   9.960  0.6549  0.7328 -0.9256
34433SOL    HW2 8430   4.247   5.053   9.944  1.0838  0.4227  1.1944
34434SOL     OW 8431   6.267  11.330   8.871 -0.1790  0.6556  0.8513
34434SOL    HW1 8432   6.233  11.419   8.863 -0.4858  0.4589 -0.0704
34434SOL    HW2 8433   6.210  11.277   8.815 -0.2665 -0.1948  1.7395
34435SOL     OW 8434   6.885   2.993   1.833  0.0371  0.5465 -0.7787
34435SOL    HW1 8435   6.960   3.022   1.781  0.3943  0.2427 -0.4362
34435SOL    HW2 8436   6.825   2.954   1.770  0.6318 -0.1541 -0.9177
34436SOL     OW 8437   2.292   6.485   8.136 -0.2644  0.2386  0.2912
34436SOL    HW1 8438   2.244   6.423   8.191 -1.3820 -0.1488 -1.0829
34436SOL    HW2 8439   2.229   6.511   8.069  0.7374  1.5391 -0.1603
34437SOL     OW 8440   9.851   7.349   5.232 -0.2083 -0.7012 -0.0476
34437SOL    HW1 8441   9.775   7.365   5.288 -0.4202 -2.0132  0.0496
34437SOL    HW2 8442   9.848   7.419   5.167 -1.7242 -0.9659 -0.2774
34438SOL     OW 8443   2.303   1.076  10.472 -0.1893  0.2212  0.3380
34438SOL    HW1 8444   2.245   1.007  10.503  1.6056 -0.7760  1.5751
34438SOL    HW2 8445   2.335   1.045  10.387  0.2549 -0.2677  0.6812
34439SOL     OW 8446   9.509   4.429   2.250  0.1689 -0.1038 -0.0527
34439SOL    HW1 8447   9.597   4.408   2.279  1.0621  1.1805 -1.7909
34439SOL    HW2 8448   9.517   4.447   2.157 -1.6756  1.3810  0.0409
34440SOL     OW 8449   2.767   2.001   5.911  0.1754 -0.6081 -0.5319
34440SOL    HW1 8450   2.780   2.093   5.935  0.8492 -0.7190 -0.4661
34440SOL    HW2 8451   2.706   2.005   5.837 -1.3328 -0.2335  0.6980
34441SOL     OW 8452   3.522   8.940   1.114 -0.6846  0.3853 -0.2502
34441SOL    HW1 8453   3.498   8.854   1.148 -0.6689  0.9692  1.2903
34441SOL    HW2 8454   3.462   9.001   1.158  0.4554  1.3368  0.0169
34442SOL     OW 8455   2.424   9.971   3.914 -0.3854 -0.6706  0.2832
34442SOL    HW1 8456   2.343  10.007   3.878  0.3975 -0.1767 -1.0327
34442SOL    HW2 8457   2.476   9.947   3.837  0.8954 -0.5961  1.1010
34443SOL     OW 8458   6.144   2.768   9.805 -0.4241  0.4076 -0.7449
34443SOL    HW1 8459   6.123   2.745   9.714 -0.7676 -2.4396  0.0101
34443SOL    HW2 8460   6.234   2.800   9.800 -0.1537 -0.4876 -1.9878
34444SOL     OW 8461   8.793   5.947   9.006  0.2154  0.3422 -0.1479
34444SOL    HW1 8462   8.736   5.937   8.930 -0.0260 -1.9231  0.2809
34444SOL    HW2 8463   8.734   5.946   9.081  0.7151 -0.9935  0.2462
34445SOL     OW 8464   8.314   3.605   3.709  0.0170  0.4310 -0.1882
34445SOL    HW1 8465   8.408   3.596   3.728  0.3455  0.8364 -1.5257
34445SOL    HW2 8466   8.282   3.667   3.774  0.9337  1.1857 -0.4484
34446SOL     OW 8467   5.548   6.775   4.612  0.0131 -0.1511 -0.7992
34446SOL    HW1 8468   5.639   6.764   4.638 -0.3727 -1.2763  0.1089
34446SOL    HW2 8469   5.547   6.752   4.519  0.2728 -2.4250 -0.2821
34447SOL     OW 8470   4.362   2.933   4.445  0.1713 -0.4447  0.3499
34447SOL    HW1 8471   4.335   2.926   4.354  1.1351 -0.8703  0.0887
34447SOL    HW2 8472   4.282   2.915   4.496 -0.5761  0.7245 -0.4027
34448SOL     OW 8473   7.001   7.047   4.651  0.1302  0.0940 -0.3754
34448SOL    HW1 8474   6.916   7.062   4.692  0.9271  1.1817  0.9430
34448SOL    HW2 8475   6.981   7.023   4.560 -1.5798 -0.0139  0.0194
34449SOL     OW 8476   3.339   1.047   0.936  0.0293 -0.7254  0.4212
34449SOL    HW1 8477   3.286   1.110   0.984 -0.4444  0.2621 -1.3416
34449SOL    HW2 8478   3.423   1.091   0.923 -0.1394 -0.6453 -0.4029
34450SOL     OW 8479  11.033   1.231   8.181 -0.2203  0.1073  0.0790
34450SOL    HW1 8480  11.072   1.145   8.163 -1.1357 -0.8473  2.3981
34450SOL    HW2 8481  11.107   1.286   8.206  0.1002 -0.7243  1.0163
34451SOL     OW 8482   1.092   1.218   6.373 -0.1572  0.2711  0.3027
34451SOL    HW1 8483   1.131   1.189   6.290 -1.7752 -0.0654 -0.3440
34451SOL    HW2 8484   1.142   1.296   6.397 -0.4043  1.0247 -1.5557
34452SOL     OW 8485   6.707   4.499  10.888 -0.2778 -0.2797  0.1230
34452SOL    HW1 8486   6.713   4.431  10.821 -0.3970  0.4425 -0.6393
34452SOL    HW2 8487   6.789   4.549  10.879 -0.9336  0.7124 -0.4834
34453SOL     OW 8488   8.893   0.435   8.490  0.2141 -0.2542  0.3579
34453SOL    HW1 8489   8.944   0.358   8.462 -0.6087 -0.6659 -0.0433
34453SOL    HW2 8490   8.959   0.502   8.508  0.8762 -0.5735 -0.7634
34454SOL     OW 8491   8.035  10.612   8.779  0.0879  0.0167  0.3093
34454SOL    HW1 8492   7.971  10.544   8.802  1.3185 -0.6361  1.9786
34454SOL    HW2 8493   8.054  10.656   8.862 -0.6209  2.3621 -0.7362
34455SOL     OW 8494   2.702   6.169   4.323 -0.0260 -0.3561  0.3880
34455SOL    HW1 8495   2.626   6.227   4.321  2.0084  2.4722  1.1829
34455SOL    HW2 8496   2.761   6.204   4.257  2.0108 -0.4215  2.1365
34456SOL     OW 8497   6.295   9.740   9.598  0.2483 -0.9118 -0.1214
34456SOL    HW1 8498   6.374   9.793   9.588  0.3797 -1.4243 -2.0246
34456SOL    HW2 8499   6.328   9.652   9.618  0.0151 -0.1699  3.8103
34457SOL     OW 8500  10.903   5.501   7.048 -0.1386 -0.1527  0.5914
34457SOL    HW1 8501  10.817   5.478   7.085  0.6185 -2.4731  1.0044
34457SOL    HW2 8502  10.965   5.445   7.095  1.0419 -2.1056 -3.1510
34458SOL     OW 8503   6.751   0.395   5.133  0.1524 -0.3947 -0.2999
34458SOL    HW1 8504   6.687   0.370   5.066 -0.6169  0.3470  0.1545
34458SOL    HW2 8505   6.705   0.460   5.187  0.7486 -1.0175  0.9696
34459SOL     OW 8506   2.205  10.761   6.637  0.3649 -0.0202  0.1868
34459SOL    HW1 8507   2.296  10.761   6.667  0.2940  0.9622  0.4515
34459SOL    HW2 8508   2.209  10.802   6.550  0.1876 -0.0346  0.1729
34460SOL     OW 8509   7.324   2.249   8.621  0.2561  0.4990  0.1632
34460SOL    HW1 8510   7.378   2.170   8.627  0.2946  0.4624 -0.5903
34460SOL    HW2 8511   7.363   2.299   8.548 -1.3364  0.0014 -1.0451
34461SOL     OW 8512   7.044   5.298   7.282  0.1780  0.6318 -0.0268
34461SOL    HW1 8513   7.082   5.223   7.328  2.3788  1.1078 -1.0042
34461SOL    HW2 8514   6.977   5.261   7.225  0.4629 -0.4633  0.3470
34462SOL     OW 8515   8.113   6.334   2.124 -0.2519 -0.0571 -0.3166
34462SOL    HW1 8516   8.098   6.320   2.217 -0.0343 -0.2608 -0.3109
34462SOL    HW2 8517   8.058   6.269   2.080 -0.4554  0.1265 -0.3319
34463SOL     OW 8518   7.203   2.363   8.216 -0.6545 -0.0782 -0.2543
34463SOL    HW1 8519   7.260   2.398   8.284 -1.0562  1.7649 -0.8413
34463SOL    HW2 8520   7.253   2.291   8.176 -0.4246 -1.1863  1.9716
34464SOL     OW 8521   1.056   5.914   3.404  0.3319 -0.0722  0.1973
34464SOL    HW1 8522   1.136   5.967   3.404  0.6349 -0.5302  0.6590
34464SOL    HW2 8523   1.061   5.863   3.484  0.0977 -0.9011 -0.3156
34465SOL     OW 8524   8.677   5.928   6.739 -0.3004  0.6412  0.0818
34465SOL    HW1 8525   8.625   5.932   6.819  2.6199  0.8192  2.0434
34465SOL    HW2 8526   8.690   5.835   6.724 -0.2624  0.6264  0.2041
34466SOL     OW 8527   8.556   7.886  10.336 -0.0898  0.0528  0.3344
34466SOL    HW1 8528   8.616   7.913  10.267 -1.1208 -0.0176 -0.6018
34466SOL    HW2 8529   8.607   7.825  10.389  0.7425  0.1801 -0.3062
34467SOL     OW 8530   6.818   1.776   7.846  0.5320 -0.2019  0.0733
34467SOL    HW1 8531   6.789   1.846   7.905  0.2410  0.1535 -0.4861
34467SOL    HW2 8532   6.910   1.795   7.830 -0.2773  1.8245 -2.4971
34468SOL     OW 8533  10.754   9.833   7.174  0.3606 -0.3008  0.0910
34468SOL    HW1 8534  10.797   9.820   7.090  2.6068  0.4133  1.0863
34468SOL    HW2 8535  10.715   9.748   7.195 -1.4742 -0.0929 -2.3120
34469SOL     OW 8536   9.160   8.161  10.504 -0.5467 -0.2086  0.1464
34469SOL    HW1 8537   9.153   8.065  10.504  0.4727 -0.2972 -0.7359
34469SOL    HW2 8538   9.155   8.185  10.596 -0.2487 -1.1589  0.4238
34470SOL     OW 8539  11.304   3.954   1.168 -0.0016  0.2559 -0.0833
34470SOL    HW1 8540  11.216   3.949   1.206  0.5547 -0.3130  1.1524
34470SOL    HW2 8541  11.340   3.866   1.179  0.3575  0.2133 -1.5056
34471SOL     OW 8542   2.316   8.468   8.527  0.2515  0.3941  0.0060
34471SOL    HW1 8543   2.227   8.472   8.562  0.9272  0.7638  1.7383
34471SOL    HW2 8544   2.308   8.499   8.437 -1.0199  2.8579  0.9084
34472SOL     OW 8545   8.599   7.551   1.825  0.0261  0.5051  0.0625
34472SOL    HW1 8546   8.540   7.496   1.876  0.2903  0.6219  0.4867
34472SOL    HW2 8547   8.543   7.587   1.756 -0.3592  0.4708  0.3551
34473SOL     OW 8548  10.122   6.067   7.447  0.6388  0.4988 -0.3158
34473SOL    HW1 8549  10.061   6.037   7.379 -1.2692  0.8213  1.2014
34473SOL    HW2 8550  10.205   6.025   7.424 -0.7676 -2.0718 -0.9809
34474SOL     OW 8551   0.521   5.971   4.225  0.1234 -0.0875  0.5330
34474SOL    HW1 8552   0.525   5.975   4.130  1.0810 -2.1782  0.4745
34474SOL    HW2 8553   0.438   6.014   4.248 -0.8606 -0.9878 -1.3153
34475SOL     OW 8554   2.133   4.266   5.719 -0.3266 -0.1607 -0.1810
34475SOL    HW1 8555   2.219   4.308   5.725 -0.8315  0.9153 -0.4312
34475SOL    HW2 8556   2.096   4.274   5.807 -1.2057  1.6167 -0.6970
34476SOL     OW 8557  10.909   0.089   0.815 -0.0553 -0.0245  0.0047
34476SOL    HW1 8558  10.910   0.008   0.763 -0.1438 -0.4286  0.6266
34476SOL    HW2 8559  10.965   0.149   0.766 -0.3563 -0.3115 -0.6994
34477SOL     OW 8560   7.178   3.503   9.255 -0.1451  0.0984  0.5799
34477SOL    HW1 8561   7.130   3.486   9.174 -0.1962  0.1738  0.5943
34477SOL    HW2 8562   7.211   3.417   9.281  0.8687  0.2524 -0.1535
34478SOL     OW 8563   1.923   9.307  10.659  0.2494  0.1424 -0.1643
34478SOL    HW1 8564   2.009   9.329  10.623  1.5535  0.1035  2.7622
34478SOL    HW2 8565   1.942   9.268  10.744 -2.6790  0.1139  0.5332
34479SOL     OW 8566   9.498   3.122   1.974 -0.1929 -0.5764  0.3316
34479SOL    HW1 8567   9.448   3.045   1.949  0.5988 -0.8149 -0.5655
34479SOL    HW2 8568   9.526   3.105   2.064 -0.4796 -1.0907  0.3246
34480SOL     OW 8569  10.390   5.779   6.452 -0.2055  0.0695 -0.0385
34480SOL    HW1 8570  10.351   5.693   6.465  1.7966 -0.5715  2.1467
34480SOL    HW2 8571  10.425   5.776   6.363  0.3010 -1.5863  0.2067
34481SOL     OW 8572   5.334  10.590  10.970  0.0795 -0.7644  0.1548
34481SOL    HW1 8573   5.296  10.503  10.975 -0.4211 -0.4820  1.4217
34481SOL    HW2 8574   5.260  10.648  10.953  0.1977 -0.4174  0.8092
34482SOL     OW 8575   3.541   3.814   5.836 -0.0535  0.0552  0.0468
34482SOL    HW1 8576   3.567   3.749   5.771  0.0539  0.5370 -0.3914
34482SOL    HW2 8577   3.446   3.805   5.843  0.0214 -0.5162  0.3837
34483SOL     OW 8578   5.584   8.877   2.844  0.2514  0.1869 -0.4655
34483SOL    HW1 8579   5.548   8.965   2.857  1.0636  0.3788  0.5986
34483SOL    HW2 8580   5.672   8.892   2.811  0.4063 -0.2307 -0.2403
34484SOL     OW 8581   2.660   7.784   4.988  0.1079  0.4616 -0.3856
34484SOL    HW1 8582   2.625   7.873   4.991 -0.5145  0.2238 -0.5235
34484SOL    HW2 8583   2.613   7.743   4.916 -0.4736 -0.3372  0.4401
34485SOL     OW 8584   7.282   4.612   1.551 -0.2437  0.3547 -0.2540
34485SOL    HW1 8585   7.372   4.585   1.534 -0.4940  1.5771 -3.9510
34485SOL    HW2 8586   7.233   4.530   1.559  0.4808 -0.3304 -2.5435
34486SOL     OW 8587   8.007   4.398   0.797 -0.1308 -0.1370  0.0794
34486SOL    HW1 8588   8.046   4.347   0.726 -1.2320 -1.3212  0.3072
34486SOL    HW2 8589   8.042   4.487   0.785  1.3020 -0.7941 -0.6937
34487SOL     OW 8590   4.101   2.991   0.526  0.0053  0.1559 -0.2502
34487SOL    HW1 8591   4.124   2.913   0.475  1.6151 -1.9747  3.4564
34487SOL    HW2 8592   4.014   2.972   0.561 -0.9071  1.4125 -1.7862
34488SOL     OW 8593   0.982  10.260   9.699 -0.0317 -0.0147 -0.1732
34488SOL    HW1 8594   1.055  10.319   9.683  1.0481 -1.2233  0.1732
34488SOL    HW2 8595   0.904  10.314   9.687  0.9169  1.3320 -0.3908
34489SOL     OW 8596   7.042   8.606   3.090  0.2255 -0.0151 -0.5708
34489SOL    HW1 8597   7.021   8.538   3.025 -0.4673  0.0210 -0.3882
34489SOL    HW2 8598   6.996   8.684   3.059 -0.9434 -0.2604  0.4965
34490SOL     OW 8599   3.995   5.958  10.355 -0.4124  0.7043 -0.0530
34490SOL    HW1 8600   3.995   6.028  10.420 -0.7155  0.4853  0.1801
34490SOL    HW2 8601   3.988   6.003  10.271 -1.0252  0.9302  0.1187
34491SOL     OW 8602   5.937   0.149   7.795 -0.1493 -0.1005 -0.4699
34491SOL    HW1 8603   5.939   0.244   7.786  0.4396 -0.0063  0.5493
34491SOL    HW2 8604   5.881   0.119   7.723 -0.9929  1.0709 -0.3152
34492SOL     OW 8605   8.609   5.813   0.721 -0.3124  0.2609 -0.8116
34492SOL    HW1 8606   8.665   5.815   0.644  0.5368  3.2836 -0.1753
34492SOL    HW2 8607   8.532   5.865   0.696 -1.5279 -1.4061 -0.6694
34493SOL     OW 8608   5.394   4.401   8.645 -0.1533 -0.6527  0.7525
34493SOL    HW1 8609   5.362   4.322   8.689  0.5027 -0.9868  0.6351
34493SOL    HW2 8610   5.417   4.461   8.716 -0.1395 -0.7736  0.8494
34494SOL     OW 8611   3.480   1.797   3.585 -0.1190  0.4087  0.4870
34494SOL    HW1 8612   3.464   1.890   3.570  0.9226  0.9125  2.4251
34494SOL    HW2 8613   3.411   1.753   3.535  1.2344  2.0766 -3.0523
34495SOL     OW 8614   9.672   9.713   6.271  0.5742 -0.0766 -0.3038
34495SOL    HW1 8615   9.641   9.624   6.287  1.2742 -0.2554  0.0596
34495SOL    HW2 8616   9.652   9.760   6.352  1.9747 -0.3909  0.2248
34496SOL     OW 8617   9.840   1.020   9.876  0.5791  0.5088  0.3756
34496SOL    HW1 8618   9.883   0.958   9.934  0.6082 -0.1670 -0.3591
34496SOL    HW2 8619   9.891   1.100   9.883  1.3105  0.0459  0.3358
34497SOL     OW 8620   4.219   3.335   7.290 -0.1542 -0.4538  0.2249
34497SOL    HW1 8621   4.270   3.254   7.293  0.7310  0.1089  0.3289
34497SOL    HW2 8622   4.222   3.368   7.380  2.7026  1.6888 -0.5923
34498SOL     OW 8623  10.989   0.697   4.582  0.6058 -0.0774 -0.0043
34498SOL    HW1 8624  10.906   0.652   4.572  0.8379 -0.2827 -1.1020
34498SOL    HW2 8625  11.017   0.716   4.492  1.0800  1.1968  0.4039
34499SOL     OW 8626   2.409  11.180   5.149 -0.1850  0.4668  0.0304
34499SOL    HW1 8627   2.388  11.271   5.169 -1.1179  0.4835 -0.9983
34499SOL    HW2 8628   2.357  11.130   5.213  0.8727  0.6576  1.0641
34500SOL     OW 8629   4.566   6.546   8.705 -0.0667 -0.1225  0.2007
34500SOL    HW1 8630   4.502   6.502   8.649 -0.4021  0.0760  0.4260
34500SOL    HW2 8631   4.546   6.515   8.793  1.0544 -1.1506  0.1013
34501SOL     OW 8632   1.242   3.698   5.869 -0.1836 -0.0265 -0.4932
34501SOL    HW1 8633   1.335   3.710   5.888  0.3047 -0.7845 -2.3588
34501SOL    HW2 8634   1.208   3.651   5.945  1.3090 -1.2562 -0.5667
34502SOL     OW 8635   8.353   7.538   7.376  0.0240  0.1389  0.8559
34502SOL    HW1 8636   8.348   7.550   7.281 -0.0079  0.3365  0.8837
34502SOL    HW2 8637   8.283   7.475   7.396 -3.3778  3.8879  1.4076
34503SOL     OW 8638   8.855   8.351   3.260 -0.2155 -0.0923 -0.6778
34503SOL    HW1 8639   8.828   8.442   3.275  0.3668 -0.1116  0.5894
34503SOL    HW2 8640   8.827   8.332   3.171 -0.3587  1.3270 -0.9495
34504SOL     OW 8641   3.453   0.323   0.657 -0.8199 -0.3014 -0.5050
34504SOL    HW1 8642   3.479   0.341   0.747 -0.4399  0.7391 -0.8276
34504SOL    HW2 8643   3.521   0.363   0.603 -0.6114 -1.6250 -1.2456
34505SOL     OW 8644  11.297   1.026   1.997  0.2091 -0.3382  0.8182
34505SOL    HW1 8645  11.238   1.031   2.072 -0.3513  0.1947  0.3410
34505SOL    HW2 8646  11.240   1.007   1.923  0.6797 -0.1342  0.4082
34506SOL     OW 8647   6.754   2.347   0.454 -0.1718 -0.2467  0.2822
34506SOL    HW1 8648   6.672   2.363   0.500 -0.6337  3.0233 -1.5371
34506SOL    HW2 8649   6.727   2.316   0.368  0.4541  1.1536 -0.4345
34507SOL     OW 8650   8.113   6.923   9.894  0.5955 -0.1068 -0.2081
34507SOL    HW1 8651   8.205   6.926   9.919  1.0661  0.2954 -1.9246
34507SOL    HW2 8652   8.113   6.884   9.806 -0.8388  0.1770 -0.3564
34508SOL     OW 8653   3.689   9.674   0.077  0.1171 -0.3133  0.4080
34508SOL    HW1 8654   3.719   9.626   0.154 -0.1720 -0.2533  0.5580
34508SOL    HW2 8655   3.751   9.747   0.069 -0.6828  0.5036  1.4290
34509SOL     OW 8656   0.459   2.866   0.253  0.0231  0.3112  0.1172
34509SOL    HW1 8657   0.543   2.837   0.218 -0.3570 -1.3955  0.5509
34509SOL    HW2 8658   0.418   2.915   0.182  0.4434 -0.7720 -0.8827
34510SOL     OW 8659   6.300   6.315   6.640 -0.3052 -0.4771  0.2155
34510SOL    HW1 8660   6.374   6.257   6.619 -0.0404 -0.3348  0.7399
34510SOL    HW2 8661   6.275   6.352   6.555  0.8842  0.2505  0.1643
34511SOL     OW 8662   6.660   9.750   0.615 -0.4037 -0.1467  0.1888
34511SOL    HW1 8663   6.729   9.729   0.678  0.2186  0.5587 -0.2642
34511SOL    HW2 8664   6.593   9.683   0.631 -0.0797 -0.2107  1.3341
34512SOL     OW 8665   8.816  10.502   1.169  0.4074  0.0913  0.1627
34512SOL    HW1 8666   8.867  10.543   1.100  1.4271 -2.2667 -0.5282
34512SOL    HW2 8667   8.877  10.443   1.213 -1.1844 -1.2715  0.6230
34513SOL     OW 8668   9.695   9.386   8.279  0.2152  0.2883 -0.2418
34513SOL    HW1 8669   9.724   9.416   8.193  0.5782  1.2109  0.2001
34513SOL    HW2 8670   9.601   9.373   8.270  0.7715 -2.9841 -1.7636
34514SOL     OW 8671   3.912   0.307   4.786 -0.2195  0.3344  0.2177
34514SOL    HW1 8672   3.881   0.359   4.712 -1.7737 -1.1308 -0.1968
34514SOL    HW2 8673   3.887   0.358   4.863 -0.7107  0.7439 -0.2099
34515SOL     OW 8674   7.037  10.639   1.536 -0.2508  0.2827  0.2466
34515SOL    HW1 8675   6.976  10.589   1.589  0.8953 -0.6910  0.6578
34515SOL    HW2 8676   7.119  10.636   1.584  0.4650  0.4681 -0.9431
34516SOL     OW 8677   0.056   7.710   7.503 -0.2542 -0.0113  0.0050
34516SOL    HW1 8678   0.118   7.748   7.566 -1.7215 -0.8978  2.0450
34516SOL    HW2 8679   0.050   7.618   7.528 -1.5840 -0.1676 -0.8480
34517SOL     OW 8680   7.904   0.857   4.303 -0.0162  0.0805  0.3847
34517SOL    HW1 8681   7.954   0.868   4.222 -1.5095  0.5375 -0.4984
34517SOL    HW2 8682   7.964   0.813   4.363  1.5781  0.9766 -0.5136
34518SOL     OW 8683   4.882   2.570   1.872  0.3553 -0.1169 -0.4054
34518SOL    HW1 8684   4.927   2.586   1.955 -1.6949 -0.2440  0.7569
34518SOL    HW2 8685   4.866   2.476   1.871  0.0934 -0.0693 -0.7908
34519SOL     OW 8686   6.531   7.076   0.676 -0.1659  0.2117  0.6418
34519SOL    HW1 8687   6.499   7.015   0.742 -0.1136 -1.2608 -0.6581
34519SOL    HW2 8688   6.611   7.037   0.642 -1.1715 -0.0320 -1.6023
34520SOL     OW 8689   7.517   4.733   8.951  1.0087 -0.5641  0.3397
34520SOL    HW1 8690   7.589   4.784   8.989  0.9147 -0.0557 -0.1769
34520SOL    HW2 8691   7.554   4.645   8.940  0.3786 -1.3574  3.7365
34521SOL     OW 8692   4.301   0.252   3.048 -0.0220 -0.3176 -0.0146
34521SOL    HW1 8693   4.372   0.193   3.026 -0.6442 -0.8607 -0.6042
34521SOL    HW2 8694   4.228   0.223   2.993 -0.4721  0.7023  0.0298
34522SOL     OW 8695   0.780   1.276   1.617  0.0496 -0.1407  0.0744
34522SOL    HW1 8696   0.851   1.291   1.679 -1.7145  0.3986  2.0275
34522SOL    HW2 8697   0.711   1.337   1.644 -0.7060  0.2021 -2.5192
34523SOL     OW 8698   2.082   5.912   4.835  0.0230  0.0287 -0.1029
34523SOL    HW1 8699   2.116   5.964   4.908  0.1785 -0.4428  0.1633
34523SOL    HW2 8700   2.093   5.968   4.759  0.5522  0.2354  0.1209
34524SOL     OW 8701   0.547   6.053   8.108  0.2124 -0.0172  0.3673
34524SOL    HW1 8702   0.503   5.974   8.141  0.3387  0.2820  1.2639
34524SOL    HW2 8703   0.479   6.099   8.057  0.5320 -1.4176 -1.3948
34525SOL     OW 8704  10.775   5.992   0.769  0.0355  0.0649 -0.2060
34525SOL    HW1 8705  10.829   5.946   0.704 -0.5905 -0.5713 -0.2746
34525SOL    HW2 8706  10.838   6.046   0.817  0.7557 -0.7550 -0.2060
34526SOL     OW 8707   3.338   6.987   0.639  0.6901 -0.1498 -0.0896
34526SOL    HW1 8708   3.380   6.967   0.555 -0.9565 -1.6339 -0.5903
34526SOL    HW2 8709   3.298   7.072   0.625  0.7319 -0.2242 -0.6962
34527SOL     OW 8710   8.377   8.083   6.133 -0.2605 -0.3260  0.0100
34527SOL    HW1 8711   8.460   8.063   6.176 -0.0906  3.6766  1.8243
34527SOL    HW2 8712   8.318   8.012   6.159  1.6586 -1.3931  1.5595
34528SOL     OW 8713   6.778   3.577   3.805  0.0311 -0.2206 -0.1016
34528SOL    HW1 8714   6.827   3.498   3.781 -0.0646  0.1220 -1.4614
34528SOL    HW2 8715   6.725   3.597   3.728  0.5147  1.5338 -0.0005
34529SOL     OW 8716   5.442   7.291   1.011 -0.1392 -0.1913  0.6000
34529SOL    HW1 8717   5.435   7.250   1.097 -1.6117 -0.7278  0.2449
34529SOL    HW2 8718   5.355   7.278   0.971  0.1242  1.1762 -0.4541
34530SOL     OW 8719   1.396   0.701   0.364  0.1309  0.5181  0.4446
34530SOL    HW1 8720   1.474   0.691   0.310 -1.3506  1.6858 -2.0410
34530SOL    HW2 8721   1.420   0.767   0.429  0.8473  1.7734 -1.0670
34531SOL     OW 8722   3.833   5.766  11.095  0.2472 -0.3565 -0.1008
34531SOL    HW1 8723   3.829   5.860  11.117  0.8183 -0.5985  1.0516
34531SOL    HW2 8724   3.743   5.744  11.070  0.0273  0.4111 -0.0143
34532SOL     OW 8725   7.210   5.982   2.601  0.7485  0.1544 -0.5653
34532SOL    HW1 8726   7.257   5.997   2.519  0.5860  2.3849 -0.3076
34532SOL    HW2 8727   7.134   5.930   2.576  0.9456  0.4338 -1.7789
34533SOL     OW 8728  10.781   2.955   6.156  0.3062  0.0188  0.0433
34533SOL    HW1 8729  10.717   2.975   6.224 -0.6870 -0.7509 -0.6588
34533SOL    HW2 8730  10.782   3.032   6.100 -0.0597  0.0004  0.0120
34534SOL     OW 8731   3.258   3.668   9.175 -0.1342 -0.1130  0.4565
34534SOL    HW1 8732   3.170   3.678   9.140 -1.5474  2.0937  4.3178
34534SOL    HW2 8733   3.258   3.582   9.217 -0.0450 -0.6185 -0.5700
34535SOL     OW 8734   1.116   6.814   9.143  0.0492 -0.0124 -0.4198
34535SOL    HW1 8735   1.087   6.902   9.121 -0.3996 -0.2357 -0.7350
34535SOL    HW2 8736   1.210   6.821   9.155 -0.0089  0.5394 -0.2962
34536SOL     OW 8737   9.633   3.906   2.691 -0.2410 -0.0841 -0.5820
34536SOL    HW1 8738   9.628   3.882   2.784 -1.4420 -3.5713 -1.4988
34536SOL    HW2 8739   9.564   3.973   2.681 -1.9593 -1.6346  0.4941
34537SOL     OW 8740  11.242   5.272   2.421 -0.2037  0.0045 -0.4496
34537SOL    HW1 8741  11.297   5.234   2.353 -1.1671  0.7093 -1.6440
34537SOL    HW2 8742  11.195   5.197   2.458  0.2333 -0.3649 -0.6311
34538SOL     OW 8743  11.146   3.066   9.182  0.6428  0.6582 -0.7220
34538SOL    HW1 8744  11.069   3.035   9.135  0.6878 -0.0710 -0.3196
34538SOL    HW2 8745  11.214   3.072   9.115  0.2864  1.1269 -1.0418
34539SOL     OW 8746  10.883   9.947   2.558  0.2177  0.4563 -0.3875
34539SOL    HW1 8747  10.976   9.940   2.537  0.0322 -0.5645 -0.9210
34539SOL    HW2 8748  10.875   9.903   2.643  0.0279 -0.5597 -0.9228
34540SOL     OW 8749   7.862  10.603   9.454  0.1712  0.3451  0.0971
34540SOL    HW1 8750   7.876  10.514   9.485  0.7286  0.9466  1.6193
34540SOL    HW2 8751   7.787  10.635   9.503  0.2694  0.8702 -0.0893
34541SOL     OW 8752   8.482   0.440   0.065  0.1851 -0.6897 -0.3621
34541SOL    HW1 8753   8.388   0.423   0.065 -0.5674  2.9388  2.2146
34541SOL    HW2 8754   8.492   0.519   0.012  1.7592 -0.9366 -0.4552
34542SOL     OW 8755   1.309   7.970   6.953 -0.0198  0.1036  0.4220
34542SOL    HW1 8756   1.244   7.956   6.884 -1.2154  1.9650  1.1215
34542SOL    HW2 8757   1.276   7.922   7.028  0.2383 -0.2618  0.3020
34543SOL     OW 8758   0.935   2.976  10.187  0.2079 -0.0509 -0.0208
34543SOL    HW1 8759   0.883   3.040  10.138  0.6022  0.5465  0.3351
34543SOL    HW2 8760   0.929   2.896  10.135  1.2681  0.7866 -1.4684
34544SOL     OW 8761   1.720   8.914   3.343  0.2763  0.2032  0.3016
34544SOL    HW1 8762   1.661   8.973   3.389  0.1456  1.2300 -1.1481
34544SOL    HW2 8763   1.747   8.962   3.265  0.1790 -1.6376 -0.9113
34545SOL     OW 8764   4.332   4.483   1.612  0.2883 -0.1288  0.6700
34545SOL    HW1 8765   4.356   4.548   1.679  1.2868 -0.5336  0.7206
34545SOL    HW2 8766   4.262   4.432   1.652 -0.4782  0.8794  0.6487
34546SOL     OW 8767   6.664   2.770   2.028  0.4978  0.1750  0.2574
34546SOL    HW1 8768   6.617   2.845   1.991  0.2511 -0.7722 -1.3875
34546SOL    HW2 8769   6.751   2.803   2.049  0.3050  0.9836 -0.2106
34547SOL     OW 8770   4.745   2.705   5.933 -0.4201 -0.4239 -0.2327
34547SOL    HW1 8771   4.827   2.685   5.979 -0.4435 -0.6853 -0.3017
34547SOL    HW2 8772   4.690   2.627   5.948  0.3397 -1.4269 -2.4463
34548SOL     OW 8773  10.445   7.583   0.531 -0.6046  0.0956  0.1358
34548SOL    HW1 8774  10.427   7.490   0.519  1.5118 -0.1984 -0.9602
34548SOL    HW2 8775  10.497   7.608   0.454 -0.4151  1.9823  0.8425
34549SOL     OW 8776   7.423   1.132   5.615 -0.2547 -0.4904 -0.1156
34549SOL    HW1 8777   7.347   1.184   5.588  0.2071  0.1649 -0.1521
34549SOL    HW2 8778   7.497   1.192   5.611  0.2438 -1.0751  0.1084
34550SOL     OW 8779  10.362   8.749   4.111  0.0755  0.0801 -0.0331
34550SOL    HW1 8780  10.309   8.810   4.162  2.5073  0.5074  2.1117
34550SOL    HW2 8781  10.441   8.799   4.088  0.9384 -1.4381 -0.4909
34551SOL     OW 8782   2.403   8.990   8.813  0.5634  0.3692 -0.4377
34551SOL    HW1 8783   2.398   9.067   8.869  1.4981 -0.5510  0.9339
34551SOL    HW2 8784   2.360   9.017   8.732  2.2419  2.8464 -0.5763
34552SOL     OW 8785  10.828   3.390   3.307 -0.0794  0.0551  0.3465
34552SOL    HW1 8786  10.845   3.299   3.281 -0.2848 -0.0215  0.4741
34552SOL    HW2 8787  10.882   3.403   3.385 -1.4295 -0.5435  1.4197
34553SOL     OW 8788   6.486   3.992   7.954 -0.0504  0.2155  0.4773
34553SOL    HW1 8789   6.559   4.046   7.924  0.2933 -0.5191 -0.0233
34553SOL    HW2 8790   6.503   3.978   8.047  0.2082  0.4167  0.4605
34554SOL     OW 8791   3.670  10.830   3.302 -0.2546 -0.3009 -0.2550
34554SOL    HW1 8792   3.585  10.839   3.345  0.1376 -0.2072  0.5045
34554SOL    HW2 8793   3.658  10.873   3.217 -1.3386 -1.3869 -0.6758
34555SOL     OW 8794   4.442  10.304   8.412  0.2365 -0.1571  0.3706
34555SOL    HW1 8795   4.427  10.235   8.476 -0.5604  0.3252  0.7066
34555SOL    HW2 8796   4.381  10.285   8.341 -1.3584  1.2840  1.3253
34556SOL     OW 8797   4.773   4.281   3.078  0.0715  0.1035 -0.3882
34556SOL    HW1 8798   4.834   4.283   3.004 -0.6716  2.2920 -0.9769
34556SOL    HW2 8799   4.813   4.220   3.140  2.6078  1.0990 -0.9863
34557SOL     OW 8800   8.900   9.241   0.940  0.1817  0.0268  0.2210
34557SOL    HW1 8801   8.971   9.280   0.992 -0.4314  0.5399  0.6834
34557SOL    HW2 8802   8.901   9.149   0.964 -1.0592  0.5276  2.2918
34558SOL     OW 8803   2.606   5.011   1.587 -0.2896  0.5374 -0.0381
34558SOL    HW1 8804   2.649   4.964   1.659  0.9494  1.3464 -0.2364
34558SOL    HW2 8805   2.671   5.076   1.558 -0.8363  0.3539 -1.7536
34559SOL     OW 8806   0.557   1.810   8.841  0.1716  0.4579 -0.0648
34559SOL    HW1 8807   0.496   1.884   8.832 -1.7521 -1.2377 -1.3427
34559SOL    HW2 8808   0.509   1.747   8.894  0.8649 -0.8580 -0.9894
34560SOL     OW 8809   3.457   8.005   0.076 -0.2709 -0.2413 -0.1765
34560SOL    HW1 8810   3.440   7.918   0.112 -0.8656 -0.0996 -0.1124
34560SOL    HW2 8811   3.426   8.000  -0.015 -0.9074  0.0961  0.0179
34561SOL     OW 8812   0.213  11.223   0.773  0.4873  0.5331 -0.1947
34561SOL    HW1 8813   0.239  11.267   0.854  1.2478  0.3013 -0.3089
34561SOL    HW2 8814   0.293  11.224   0.719  0.5335 -1.0406 -0.1775
34562SOL     OW 8815  10.070   7.957   0.943  0.1575  0.2535 -0.1776
34562SOL    HW1 8816   9.986   7.999   0.958  0.4960  1.8474 -2.5375
34562SOL    HW2 8817  10.133   8.013   0.988  0.1782  0.0482  0.0547
34563SOL     OW 8818   1.430   6.201   8.006 -0.1102 -0.1103  0.1413
34563SOL    HW1 8819   1.395   6.235   8.088  0.6954 -1.0733  0.8949
34563SOL    HW2 8820   1.352   6.187   7.951 -0.7436 -0.4923  1.1321
34564SOL     OW 8821   9.414   2.800   0.421 -0.5416  0.2784 -0.3698
34564SOL    HW1 8822   9.476   2.745   0.468 -0.8776  0.1256 -0.1027
34564SOL    HW2 8823   9.360   2.839   0.490 -0.2197  1.0495 -0.5457
34565SOL     OW 8824   6.268   6.527   4.817  0.4218  0.0723  0.4828
34565SOL    HW1 8825   6.356   6.557   4.840 -0.4112  1.9253  1.3861
34565SOL    HW2 8826   6.226   6.508   4.900  0.0995 -1.2199  0.0290
34566SOL     OW 8827   7.235   9.746   2.092  0.2083  0.8189  0.6587
34566SOL    HW1 8828   7.189   9.825   2.063  0.3371  0.2914 -1.0062
34566SOL    HW2 8829   7.325   9.776   2.109  0.3981  0.9321 -0.4937
34567SOL     OW 8830   5.024   2.729   1.345 -0.2162  0.1741  0.1897
34567SOL    HW1 8831   5.015   2.791   1.418 -1.1485 -1.2729  1.3105
34567SOL    HW2 8832   4.935   2.704   1.324 -0.0085  1.1592 -1.9861
34568SOL     OW 8833   1.832   7.025   3.980 -0.1099 -0.1524  0.5701
34568SOL    HW1 8834   1.762   7.022   4.045  0.5752  0.0450  1.3375
34568SOL    HW2 8835   1.907   6.985   4.025  1.1372  2.4137  0.8814
34569SOL     OW 8836   5.345   9.038   4.923  0.3074 -0.2300 -0.1780
34569SOL    HW1 8837   5.319   8.957   4.967  0.0247  1.0165  1.9998
34569SOL    HW2 8838   5.439   9.028   4.907  0.2690 -0.9894  0.0336
34570SOL     OW 8839   1.019   1.637   5.431 -0.2574  0.2172 -0.1297
34570SOL    HW1 8840   1.095   1.678   5.390  0.0040  0.3400  0.4710
34570SOL    HW2 8841   1.057   1.569   5.487 -0.5721  0.4800  0.4021
34571SOL     OW 8842  10.653   4.383   4.608  0.2761  0.4989 -0.1158
34571SOL    HW1 8843  10.621   4.469   4.634 -2.1461 -0.9108  1.8371
34571SOL    HW2 8844  10.683   4.342   4.689 -0.5094 -1.2506 -0.6745
34572SOL     OW 8845   0.686   2.673   2.358  0.0201 -0.1267 -0.0247
34572SOL    HW1 8846   0.648   2.760   2.372 -0.1811 -0.2837  0.4136
34572SOL    HW2 8847   0.631   2.614   2.410  0.8480 -0.3642  0.5924
34573SOL     OW 8848   8.559   9.716   6.060 -0.6375  0.1036  0.3252
34573SOL    HW1 8849   8.539   9.809   6.049 -1.6812 -0.1745 -0.1924
34573SOL    HW2 8850   8.556   9.702   6.154 -0.7249  0.5370  0.3892
34574SOL     OW 8851   4.723  11.250   6.860 -0.5195 -0.1782 -0.1818
34574SOL    HW1 8852   4.723  11.178   6.798 -1.3626 -0.3476  0.0129
34574SOL    HW2 8853   4.635  11.250   6.897 -0.2967  0.4827  0.3587
34575SOL     OW 8854   9.568   2.154   8.847  0.1131 -0.3725 -0.2003
34575SOL    HW1 8855   9.632   2.094   8.884  1.2492 -0.1690 -1.7777
34575SOL    HW2 8856   9.532   2.107   8.772 -0.3728  0.1777 -0.3178
34576SOL     OW 8857   5.715  11.228   1.762  0.1264 -0.3395  0.2553
34576SOL    HW1 8858   5.695  11.223   1.669  2.1702  0.5499 -0.2589
34576SOL    HW2 8859   5.803  11.190   1.770 -0.0118 -0.3933  1.8159
34577SOL     OW 8860   9.189   7.013   9.410 -0.1921  0.1555 -0.3076
34577SOL    HW1 8861   9.241   7.072   9.355 -2.3503  0.3665 -2.2114
34577SOL    HW2 8862   9.176   7.060   9.492  2.0699  0.3387 -0.0355
34578SOL     OW 8863  10.242   7.857   7.567 -0.2185  0.4376 -0.2089
34578SOL    HW1 8864  10.158   7.894   7.595  1.0345  2.1835  1.3647
34578SOL    HW2 8865  10.300   7.869   7.642  0.8869 -2.7654 -0.4448
34579SOL     OW 8866   5.225   1.646   4.267  0.2811 -0.0456  0.4334
34579SOL    HW1 8867   5.279   1.567   4.275 -0.7599 -0.7464  0.6360
34579SOL    HW2 8868   5.255   1.703   4.338  1.5737  0.0800 -0.1872
34580SOL     OW 8869   8.648   9.156   2.791  0.0213 -0.0540 -0.0150
34580SOL    HW1 8870   8.671   9.127   2.702 -0.8226 -0.0049 -0.2588
34580SOL    HW2 8871   8.590   9.087   2.824  2.1811 -1.2293  1.3846
34581SOL     OW 8872  10.556   3.624   5.608 -0.2047 -0.0357  0.9005
34581SOL    HW1 8873  10.464   3.600   5.612 -0.9262  2.0682 -1.4902
34581SOL    HW2 8874  10.588   3.611   5.697 -2.3154 -2.5365  1.3771
34582SOL     OW 8875   7.981   0.624   2.914  0.2795  0.7958 -0.0553
34582SOL    HW1 8876   8.004   0.532   2.901 -0.1975  1.0629 -3.1355
34582SOL    HW2 8877   8.061   0.672   2.895  0.0648  1.1197 -0.1393
34583SOL     OW 8878   9.825  10.997   0.688 -0.5486  0.0953 -0.0154
34583SOL    HW1 8879   9.795  11.062   0.752  2.3588  1.8417 -0.3586
34583SOL    HW2 8880   9.907  10.964   0.725  0.4559  0.1471 -2.1723
34584SOL     OW 8881   6.850   2.428   7.360  0.2367 -0.1404 -0.0565
34584SOL    HW1 8882   6.926   2.392   7.406  0.5952  3.5528  2.4900
34584SOL    HW2 8883   6.779   2.423   7.424 -0.4793  0.6788 -0.7761
34585SOL     OW 8884   0.625   1.238   7.381  1.0711  0.2031 -0.2901
34585SOL    HW1 8885   0.650   1.175   7.313  1.6536 -0.6272  0.6947
34585SOL    HW2 8886   0.700   1.243   7.439  1.2567  2.2617 -0.6704
34586SOL     OW 8887   9.654   0.793   8.914 -0.1805 -0.1399  0.4261
34586SOL    HW1 8888   9.624   0.834   8.996 -0.6346  0.3885 -0.0030
34586SOL    HW2 8889   9.608   0.841   8.845 -2.1775 -2.6276 -0.0168
34587SOL     OW 8890  10.379   9.707   0.333 -0.2861 -0.1638 -0.0678
34587SOL    HW1 8891  10.332   9.645   0.389 -0.1489 -1.9920 -1.9369
34587SOL    HW2 8892  10.472   9.688   0.349 -0.2232  0.3499  0.1977
34588SOL     OW 8893   3.722   2.378  10.350 -0.3312 -0.2505 -0.5021
34588SOL    HW1 8894   3.712   2.416  10.262 -0.6453 -2.3354 -1.3999
34588SOL    HW2 8895   3.816   2.358  10.357 -0.1553  0.7217 -0.0072
34589SOL     OW 8896   4.061   9.764   3.480 -0.5569 -0.0198 -0.5164
34589SOL    HW1 8897   3.973   9.763   3.518 -0.4477  3.6538  0.0868
34589SOL    HW2 8898   4.046   9.778   3.387 -0.6610 -2.6669 -0.9221
34590SOL     OW 8899   4.239  10.544   1.351 -0.7450 -0.2298  0.2248
34590SOL    HW1 8900   4.283  10.466   1.386  0.3823 -0.0383 -0.7430
34590SOL    HW2 8901   4.146  10.524   1.360 -0.4728 -1.5597  0.2953
34591SOL     OW 8902   5.688   3.226   3.282 -0.4615  0.6695 -0.2840
34591SOL    HW1 8903   5.631   3.150   3.294 -0.9471  1.3238  1.7420
34591SOL    HW2 8904   5.770   3.202   3.326 -0.4312  1.1036 -0.1007
34592SOL     OW 8905   9.711  10.521   8.773  0.2936  0.5004 -0.3045
34592SOL    HW1 8906   9.759  10.517   8.855 -1.8999  0.9601  1.0343
34592SOL    HW2 8907   9.734  10.607   8.736  0.7092  0.6020  0.1882
34593SOL     OW 8908   2.022  10.042   1.473 -0.3977 -0.8374 -0.1733
34593SOL    HW1 8909   1.964   9.969   1.451 -1.5131 -0.4117  1.2869
34593SOL    HW2 8910   1.972  10.095   1.535  0.7632  0.6693 -0.4926
34594SOL     OW 8911   4.097   6.030   5.119 -0.2509 -0.1525  0.4627
34594SOL    HW1 8912   4.159   5.957   5.117  1.1529  1.0339 -0.9533
34594SOL    HW2 8913   4.090   6.058   5.028  0.2162  2.2490  1.1225
34595SOL     OW 8914   2.293   3.286   3.143  0.2425  0.4237  0.1481
34595SOL    HW1 8915   2.330   3.269   3.230 -1.3718 -0.9509  0.5914
34595SOL    HW2 8916   2.263   3.200   3.114  1.5873  0.7121 -2.1720
34596SOL     OW 8917   1.113   6.968   6.180 -0.4783 -0.8015  0.7028
34596SOL    HW1 8918   1.146   6.974   6.090 -0.6281 -2.3439  0.5279
34596SOL    HW2 8919   1.018   6.965   6.171 -0.5370  0.0393  0.9829
34597SOL     OW 8920  11.229   8.972   5.251 -0.6027  0.3025 -0.2870
34597SOL    HW1 8921  11.162   8.922   5.298 -0.2526  0.0472 -0.0548
34597SOL    HW2 8922  11.223   8.942   5.160 -0.1552 -0.4196 -0.0787
34598SOL     OW 8923   3.666   7.590   6.963 -0.0530  0.1035  0.1450
34598SOL    HW1 8924   3.642   7.498   6.976 -0.5963  0.2081 -0.1161
34598SOL    HW2 8925   3.707   7.616   7.046  1.5505 -0.8175 -0.3387
34599SOL     OW 8926   7.533   3.268   4.341  0.3785 -0.2113  0.2565
34599SOL    HW1 8927   7.613   3.217   4.354  0.3708 -0.2662  0.0856
34599SOL    HW2 8928   7.530   3.285   4.247  1.2606  1.5451  0.5268
34600SOL     OW 8929   8.501   4.194   9.925 -0.4628 -0.0986  0.3257
34600SOL    HW1 8930   8.565   4.185   9.854  0.0781  3.1701  0.3060
34600SOL    HW2 8931   8.540   4.147   9.999  0.3469 -1.0209 -0.6799
34601SOL     OW 8932   4.986   9.006   7.568  0.1812  0.3320 -0.6624
34601SOL    HW1 8933   4.920   8.939   7.585  1.2720 -0.6636 -0.2031
34601SOL    HW2 8934   5.067   8.969   7.605  1.1587  1.1526 -1.9485
34602SOL     OW 8935   7.985   2.781   0.354 -0.3585  0.1973  0.0854
34602SOL    HW1 8936   8.069   2.746   0.385 -0.3501 -0.6268 -0.8583
34602SOL    HW2 8937   8.005   2.870   0.326  0.3510 -0.2357 -0.7989
34603SOL     OW 8938   0.104   5.447   1.234 -0.1523 -0.4744  0.2419
34603SOL    HW1 8939   0.141   5.416   1.151  0.6793 -1.7927  1.0950
34603SOL    HW2 8940   0.039   5.513   1.208  0.3084 -0.6633 -1.4394
34604SOL     OW 8941   1.988   3.451   1.005 -0.3385 -0.0340  0.0917
34604SOL    HW1 8942   2.033   3.495   1.077 -1.1884 -0.9711  1.2047
34604SOL    HW2 8943   1.895   3.457   1.026 -0.7244  1.2894 -1.8569
34605SOL     OW 8944   7.083   7.360   4.608 -0.3139 -0.2304  0.3036
34605SOL    HW1 8945   7.104   7.442   4.563 -0.1420  0.3991  1.5054
34605SOL    HW2 8946   7.162   7.307   4.597 -1.0310 -0.8893 -1.8910
34606SOL     OW 8947   1.931   1.405   6.655 -0.4011  0.2006  0.1968
34606SOL    HW1 8948   1.883   1.391   6.574 -2.2618 -0.0289  1.3213
34606SOL    HW2 8949   1.966   1.494   6.647 -0.3694  0.0933 -0.9412
34607SOL     OW 8950   6.737   8.016  11.246 -0.1513 -0.6725 -0.2055
34607SOL    HW1 8951   6.776   7.941  11.291  0.3873 -0.8875 -1.0153
34607SOL    HW2 8952   6.703   7.979  11.164  2.8075  0.4757 -2.0491
34608SOL     OW 8953   8.086   6.712   8.067  0.4291 -0.0536 -0.4363
34608SOL    HW1 8954   8.085   6.763   8.148 -1.9027  0.3797 -0.6955
34608SOL    HW2 8955   8.178   6.707   8.043  0.8772  2.5075  0.5678
34609SOL     OW 8956  10.223   7.849   3.488  0.0022  0.4529  0.1968
34609SOL    HW1 8957  10.294   7.785   3.488  0.5922  1.1180 -0.4955
34609SOL    HW2 8958  10.230   7.895   3.405 -1.4900  0.2481 -0.0612
34610SOL     OW 8959  10.056   5.008   5.142  0.1887  0.3059  0.0005
34610SOL    HW1 8960  10.126   5.000   5.076  1.2348  0.6440  1.0465
34610SOL    HW2 8961  10.017   4.921   5.145  1.4687 -0.2765  0.3734
34611SOL     OW 8962   8.284   6.152   4.627 -0.7845 -0.3132  0.1912
34611SOL    HW1 8963   8.208   6.094   4.629 -0.9762 -0.0362  1.0282
34611SOL    HW2 8964   8.349   6.108   4.681 -1.4160  0.9189  1.9820
34612SOL     OW 8965   9.820   1.270   3.477 -0.2319 -0.2084 -0.1154
34612SOL    HW1 8966   9.762   1.194   3.480 -0.8372  0.2591  0.0779
34612SOL    HW2 8967   9.775   1.332   3.420 -0.6334  0.7433  1.2176
34613SOL     OW 8968   7.184   3.968   9.128 -0.3219 -0.3056  0.2642
34613SOL    HW1 8969   7.130   3.929   9.197  0.4754 -3.2293 -0.7338
34613SOL    HW2 8970   7.198   3.898   9.064 -0.1311  2.0355 -2.3643
34614SOL     OW 8971   5.559   3.817   3.484 -0.4231 -0.1589  0.1384
34614SOL    HW1 8972   5.477   3.780   3.517 -0.8274 -0.0866 -0.7560
34614SOL    HW2 8973   5.608   3.742   3.452 -0.8030 -0.0456 -0.7313
34615SOL     OW 8974   9.563   4.273   6.908 -0.9708  0.2947  0.6577
34615SOL    HW1 8975   9.478   4.240   6.879 -0.3270 -2.5088  1.7901
34615SOL    HW2 8976   9.554   4.283   7.002  0.2792 -1.1823  0.9607
34616SOL     OW 8977   9.564   0.333   1.569  0.1531  0.6630  0.2706
34616SOL    HW1 8978   9.633   0.396   1.590 -0.6184  1.3643  0.7423
34616SOL    HW2 8979   9.521   0.316   1.652  1.2771 -1.6383  0.4272
34617SOL     OW 8980   5.768  10.760   5.037  0.0010  0.5462  0.3158
34617SOL    HW1 8981   5.784  10.707   4.959  1.1017  0.5311  0.5327
34617SOL    HW2 8982   5.681  10.797   5.025 -0.2523 -0.2901 -0.4322
34618SOL     OW 8983   1.740   4.241   7.162 -0.0424 -0.3775 -0.5855
34618SOL    HW1 8984   1.697   4.326   7.151 -0.3067 -0.7424 -2.6263
34618SOL    HW2 8985   1.751   4.208   7.073  1.7807 -1.6353  0.0560
34619SOL     OW 8986   9.898   2.767   8.739  0.5450  0.3348  0.0499
34619SOL    HW1 8987   9.883   2.674   8.722 -2.2005  0.2736  2.2838
34619SOL    HW2 8988   9.891   2.809   8.653 -2.6286 -1.0513 -0.4553
34620SOL     OW 8989   6.992   7.034   0.373  0.5525  0.6560  0.1516
34620SOL    HW1 8990   6.977   6.992   0.457  0.3771 -0.0337 -0.2166
34620SOL    HW2 8991   7.070   7.089   0.386  1.1646 -0.2866  0.4622
34621SOL     OW 8992   0.889   0.183   8.189  0.1850  0.3047 -0.4289
34621SOL    HW1 8993   0.862   0.241   8.117  0.0797  0.4242 -0.2941
34621SOL    HW2 8994   0.964   0.136   8.155  0.3428  0.6064 -0.5024
34622SOL     OW 8995  11.167   8.795   7.359  0.0727 -0.1487  0.3646
34622SOL    HW1 8996  11.261   8.776   7.357 -0.0182 -0.5453 -1.1016
34622SOL    HW2 8997  11.162   8.887   7.385  0.8853 -0.0471  0.2010
34623SOL     OW 8998   9.062   1.647   7.113 -0.3259 -0.4012 -0.0692
34623SOL    HW1 8999   9.110   1.609   7.186  0.2943  1.7604  0.6857
34623SOL    HW2 9000   9.100   1.607   7.035  0.8751 -0.6808  0.6594
34624SOL     OW 9001   6.495   4.338   0.422 -0.6510  0.0074  1.0250
34624SOL    HW1 9002   6.471   4.272   0.357  0.6943 -0.9018  1.4307
34624SOL    HW2 9003   6.544   4.404   0.374  0.2385 -0.6044  1.0767
34625SOL     OW 9004   2.994   5.087   5.177 -0.6248 -0.1829  0.0974
34625SOL    HW1 9005   3.075   5.098   5.128 -1.0149 -1.7547 -0.9599
34625SOL    HW2 9006   3.003   5.002   5.220 -1.3947 -0.0235  0.5911
34626SOL     OW 9007   6.553   3.993   4.826 -0.2032  0.1649  0.6863
34626SOL    HW1 9008   6.574   4.007   4.918 -0.6633  0.1822  0.7888
34626SOL    HW2 9009   6.619   4.044   4.778 -0.6813  1.1025  1.0219
34627SOL     OW 9010   2.078   8.665   5.836 -0.3267 -0.2138 -0.3751
34627SOL    HW1 9011   1.999   8.687   5.885 -0.7287  0.6596 -1.3999
34627SOL    HW2 9012   2.049   8.658   5.745  0.4543 -1.5757 -0.5435
34628SOL     OW 9013   7.983  11.168   5.296  0.4331  0.2575 -0.1265
34628SOL    HW1 9014   7.981  11.118   5.378  0.1078 -1.8413 -1.3702
34628SOL    HW2 9015   7.913  11.232   5.305 -1.0661 -1.3983  0.3861
34629SOL     OW 9016   3.540   7.384  10.243  0.2863  0.3651  0.3173
34629SOL    HW1 9017   3.543   7.391  10.339 -1.2175  0.9536  0.3198
34629SOL    HW2 9018   3.610   7.442  10.213  0.1727  0.8679  1.0134
34630SOL     OW 9019   8.208   9.663   3.958 -0.3159  0.4591 -0.3172
34630SOL    HW1 9020   8.282   9.721   3.970 -0.7944  1.1983 -0.9026
34630SOL    HW2 9021   8.134   9.710   3.996 -0.6077 -0.0028 -0.3038
34631SOL     OW 9022   0.174   4.628   0.268 -0.2464  0.0367 -0.3312
34631SOL    HW1 9023   0.253   4.600   0.223 -0.1728  0.2206 -0.3141
34631SOL    HW2 9024   0.200   4.638   0.360  0.3564  2.6169 -0.7423
34632SOL     OW 9025   1.367   4.490   3.052 -0.2760  0.5322  0.0691
34632SOL    HW1 9026   1.276   4.508   3.075 -0.3652  0.4500 -0.2238
34632SOL    HW2 9027   1.387   4.552   2.981  0.0431  0.8812  0.4585
34633SOL     OW 9028   9.775   4.925   8.929 -0.2754 -0.6285 -0.8059
34633SOL    HW1 9029   9.685   4.925   8.896 -0.1840  0.1461 -1.0764
34633SOL    HW2 9030   9.805   5.015   8.916  0.5143 -0.8626 -0.6445
34634SOL     OW 9031   3.600   5.679   0.224 -0.0622 -0.1049  0.3378
34634SOL    HW1 9032   3.605   5.704   0.131  1.6120  2.5970  1.1146
34634SOL    HW2 9033   3.584   5.585   0.222  1.1294 -0.3101 -2.7019
34635SOL     OW 9034   9.814   6.325   8.929 -0.0728 -0.1933 -0.2175
34635SOL    HW1 9035   9.799   6.335   9.023 -0.0401 -0.3857 -0.1925
34635SOL    HW2 9036   9.866   6.402   8.905  0.3773 -0.4223  0.0235
34636SOL     OW 9037   1.172   9.078   2.755 -0.2567  0.6019 -0.0830
34636SOL    HW1 9038   1.166   8.982   2.750  2.0073  0.3872  0.7405
34636SOL    HW2 9039   1.240   9.101   2.692  1.0231  1.4049  1.5457
34637SOL     OW 9040   9.450   3.081   3.237 -0.6762 -0.1282  0.3045
34637SOL    HW1 9041   9.400   3.035   3.170  1.4918 -0.2203 -1.2866
34637SOL    HW2 9042   9.530   3.031   3.247  0.5473  1.7978  0.4856
34638SOL     OW 9043   2.851   7.510   6.033  0.0804 -0.0735 -0.0041
34638SOL    HW1 9044   2.761   7.518   5.999  0.5387  1.5113 -0.9225
34638SOL    HW2 9045   2.891   7.442   5.979  0.1746  0.9890 -1.3193
34639SOL     OW 9046   3.407   2.281   5.702 -0.1745  0.3006 -0.6221
34639SOL    HW1 9047   3.408   2.296   5.797 -0.5188  2.1024 -0.8936
34639SOL    HW2 9048   3.330   2.226   5.688  0.0515 -0.2322  0.1746
34640SOL     OW 9049   8.607   1.706  10.910 -0.8223  0.1884  0.9754
34640SOL    HW1 9050   8.699   1.690  10.929 -0.8183  0.5564  1.2709
34640SOL    HW2 9051   8.598   1.801  10.915 -0.9212  0.2670 -0.3709
34641SOL     OW 9052  10.249   9.030   4.179 -0.2319 -0.0491  0.0090
34641SOL    HW1 9053  10.171   8.986   4.213 -1.2912  0.9915 -1.0238
34641SOL    HW2 9054  10.229   9.123   4.186  0.8040  0.2244 -0.5259
34642SOL     OW 9055   5.383   8.097   1.537 -0.1877  0.0733 -0.3868
34642SOL    HW1 9056   5.312   8.092   1.473 -0.8834  0.5516  0.3313
34642SOL    HW2 9057   5.355   8.039   1.608  1.5589 -2.1172 -1.4176
34643SOL     OW 9058   5.229  10.004   4.730  0.1230 -0.1797  0.2893
34643SOL    HW1 9059   5.217  10.024   4.823  0.5491 -0.2295  0.3538
34643SOL    HW2 9060   5.320  10.026   4.712  0.1882 -0.6808  0.0112
34644SOL     OW 9061   1.246   7.161   2.394 -0.1892  0.4701 -0.3068
34644SOL    HW1 9062   1.186   7.200   2.457 -1.8682 -0.9856 -0.9673
34644SOL    HW2 9063   1.253   7.225   2.324 -1.5093  0.3638 -0.5478
34645SOL     OW 9064   5.502   3.388   2.457 -0.4626 -0.3067 -0.2524
34645SOL    HW1 9065   5.571   3.323   2.472  0.7260  1.3467  1.7057
34645SOL    HW2 9066   5.517   3.418   2.367  0.4733 -0.9987 -0.3438
34646SOL     OW 9067   2.176   7.584   4.171 -0.2917  0.0180 -0.3228
34646SOL    HW1 9068   2.162   7.622   4.258  3.2519  1.7866 -0.4093
34646SOL    HW2 9069   2.232   7.508   4.188  0.7674  0.6200 -1.0551
34647SOL     OW 9070   5.095  10.631   8.204 -0.3812  0.4396  0.2817
34647SOL    HW1 9071   5.147  10.550   8.209  0.2612  0.8805  0.8167
34647SOL    HW2 9072   5.068  10.636   8.112 -1.0717 -0.7798  0.4139
34648SOL     OW 9073   8.073   4.128   2.546 -0.0195  0.4424 -0.3886
34648SOL    HW1 9074   8.113   4.211   2.574  1.0691  0.0859 -0.8536
34648SOL    HW2 9075   7.981   4.137   2.570 -0.3245  2.5627 -2.1387
34649SOL     OW 9076  10.355   4.813  10.758  0.3867 -0.2721 -0.4694
34649SOL    HW1 9077  10.421   4.797  10.691 -1.0021 -0.8319 -1.7216
34649SOL    HW2 9078  10.372   4.746  10.825  0.3330 -1.1845 -1.3554
34650SOL     OW 9079   5.842   4.336   3.204 -0.0065  0.1393 -0.7419
34650SOL    HW1 9080   5.774   4.385   3.158 -0.9006  0.7982  1.2281
34650SOL    HW2 9081   5.829   4.245   3.175 -0.9530  0.4369 -1.2970
34651SOL     OW 9082   4.722   4.454   7.077  0.1277  0.1748  0.2807
34651SOL    HW1 9083   4.809   4.474   7.113  1.0674 -1.5883 -0.9345
34651SOL    HW2 9084   4.735   4.374   7.027 -2.2261 -0.1063  0.0840
34652SOL     OW 9085  10.116   0.464   2.918  0.4948 -0.4436  0.1881
34652SOL    HW1 9086  10.099   0.545   2.869 -1.9748 -0.6968  0.5919
34652SOL    HW2 9087  10.126   0.493   3.009 -1.0670 -0.6682  0.4321
34653SOL     OW 9088   2.055   2.867   5.486  0.3148  0.1909 -0.2901
34653SOL    HW1 9089   2.132   2.919   5.510 -0.3580  0.6341  0.9619
34653SOL    HW2 9090   2.091   2.782   5.461  1.2238  0.4111  0.2207
34654SOL     OW 9091  11.072   1.159  10.280 -0.0738  0.4595  0.6401
34654SOL    HW1 9092  11.028   1.169  10.196 -2.4282  1.4549  1.9397
34654SOL    HW2 9093  11.150   1.214  10.274  0.7316 -0.8655 -1.4850
34655SOL     OW 9094   3.390  10.585   5.290 -0.1811  0.0198  0.9356
34655SOL    HW1 9095   3.364  10.523   5.221  2.4107  0.4163 -0.4281
34655SOL    HW2 9096   3.400  10.530   5.368 -1.7033 -0.6538  0.6913
34656SOL     OW 9097   5.717   3.069   9.541  0.4249  0.6208 -1.0078
34656SOL    HW1 9098   5.678   2.982   9.554  0.6274  0.4321 -1.6364
34656SOL    HW2 9099   5.742   3.070   9.449  0.8061  1.1936 -0.8985
34657SOL     OW 9100   0.145   3.830  10.047 -0.2450  0.4204 -0.5054
34657SOL    HW1 9101   0.236   3.848  10.068 -0.8458  2.1039  0.7677
34657SOL    HW2 9102   0.109   3.789  10.126 -0.7407  0.3169 -0.7815
34658SOL     OW 9103   3.012   8.636   5.703  0.3460 -0.0157  0.1902
34658SOL    HW1 9104   2.937   8.591   5.664  0.2917 -0.8009  1.1787
34658SOL    HW2 9105   3.036   8.582   5.778  1.0686  0.9409  0.6635
34659SOL     OW 9106   4.734   4.191   8.403  0.1087  0.4961 -0.0712
34659SOL    HW1 9107   4.672   4.142   8.349 -0.1681  0.5330  0.2081
34659SOL    HW2 9108   4.820   4.165   8.370 -0.0087 -0.7233  0.5231
34660SOL     OW 9109   8.458   7.074   6.945  0.5503 -0.5141  0.1430
34660SOL    HW1 9110   8.484   7.012   6.877 -0.2327 -1.7256  0.9261
34660SOL    HW2 9111   8.404   7.023   7.005  0.9944  0.6102  1.5321
34661SOL     OW 9112   9.205   6.445   5.887 -0.0458 -0.3122  0.5071
34661SOL    HW1 9113   9.154   6.370   5.857 -0.3793  0.0355  0.1992
34661SOL    HW2 9114   9.294   6.428   5.855  0.0973 -1.0622  1.3064
34662SOL     OW 9115   3.592   6.393   8.898 -0.1483 -0.1836 -0.1225
34662SOL    HW1 9116   3.652   6.326   8.930  1.1394  0.6841 -0.6954
34662SOL    HW2 9117   3.571   6.445   8.976  2.1418  1.2708 -0.4151
34663SOL     OW 9118   7.377   0.621   0.833  0.1797  0.1891 -0.0363
34663SOL    HW1 9119   7.340   0.692   0.781 -0.7553  0.3357  0.8165
34663SOL    HW2 9120   7.453   0.592   0.783  0.2751  1.4494 -0.6430
34664SOL     OW 9121   4.695   2.668   8.810  0.1682 -0.5281  0.0060
34664SOL    HW1 9122   4.685   2.738   8.874 -0.6791 -0.4783 -0.1689
34664SOL    HW2 9123   4.608   2.659   8.771  0.9438  0.2471 -1.9824
34665SOL     OW 9124   4.643   6.552   9.964 -0.2626  0.2050 -0.6269
34665SOL    HW1 9125   4.566   6.522   9.916  0.7582 -1.9125 -0.9981
34665SOL    HW2 9126   4.717   6.513   9.917  0.8884  0.1783  1.1795
34666SOL     OW 9127   7.157   9.054  11.261 -0.1865  0.5660 -0.0149
34666SOL    HW1 9128   7.080   9.050  11.317  1.2722  0.5063  2.0302
34666SOL    HW2 9129   7.206   9.130  11.291  0.0851  1.1769 -1.9394
34667SOL     OW 9130   2.250   5.563   8.295 -0.0698 -0.1205 -0.0780
34667SOL    HW1 9131   2.263   5.561   8.390 -0.2759 -0.1554 -0.0500
34667SOL    HW2 9132   2.239   5.471   8.271  2.1488 -0.3200 -0.4457
34668SOL     OW 9133   0.533   6.907   0.212 -0.4602 -0.0602  0.2804
34668SOL    HW1 9134   0.585   6.971   0.165 -0.9293  0.6735  0.7464
34668SOL    HW2 9135   0.523   6.944   0.300  0.1586 -1.2698  0.8684
34669SOL     OW 9136   9.336   1.566   0.415 -0.2158 -0.4090 -0.0612
34669SOL    HW1 9137   9.261   1.532   0.367 -0.4143  0.5930 -0.4810
34669SOL    HW2 9138   9.402   1.582   0.348 -0.3541  0.6198  0.0367
34670SOL     OW 9139   8.261   3.333   1.022  0.1924  0.2924 -0.0079
34670SOL    HW1 9140   8.248   3.262   1.085 -0.8657 -1.4650 -2.1679
34670SOL    HW2 9141   8.310   3.294   0.950 -1.2112  1.4677 -1.6452
34671SOL     OW 9142   7.584   9.877   1.705  0.0995  0.2994 -0.4292
34671SOL    HW1 9143   7.594   9.782   1.714  0.7067  0.3612 -0.3669
34671SOL    HW2 9144   7.607   9.896   1.614 -1.3850  0.2285 -0.8236
34672SOL     OW 9145   4.776  10.505   0.521 -0.7248 -0.1269 -0.6403
34672SOL    HW1 9146   4.810  10.562   0.452 -0.0240 -0.9649 -1.0008
34672SOL    HW2 9147   4.682  10.502   0.506 -0.6525  0.2026 -1.1646
34673SOL     OW 9148   2.969   2.599  11.278 -0.0152 -0.1945 -0.2112
34673SOL    HW1 9149   3.052   2.553  11.267  1.1391  1.7592  0.0839
34673SOL    HW2 9150   2.991   2.676  11.330 -2.1478  0.0058  0.4428
34674SOL     OW 9151   2.101   7.889   0.720  0.2082  0.3821 -0.0604
34674SOL    HW1 9152   2.033   7.943   0.679 -0.2756  1.9079  2.5782
34674SOL    HW2 9153   2.179   7.906   0.668 -0.8396  0.6634 -1.5697
34675SOL     OW 9154   2.130   1.475   1.678  0.2470 -0.0419  0.1880
34675SOL    HW1 9155   2.106   1.418   1.606 -1.7005  0.8874  0.0778
34675SOL    HW2 9156   2.221   1.452   1.697 -0.0654 -2.1814 -0.7545
34676SOL     OW 9157   0.343   9.026   8.753 -1.1900  0.1972  0.1448
34676SOL    HW1 9158   0.251   9.001   8.760 -0.6696 -1.2710  1.9904
34676SOL    HW2 9159   0.345   9.118   8.778 -1.7238 -0.6253  3.3453
34677SOL     OW 9160   8.412   9.146   1.991  0.3178 -0.0888  0.6134
34677SOL    HW1 9161   8.356   9.174   2.064 -0.7517 -0.5469 -0.0157
34677SOL    HW2 9162   8.499   9.136   2.030  0.0838  1.1889  1.4829
34678SOL     OW 9163   5.826   8.737   1.301 -0.1225 -0.2005  0.5218
34678SOL    HW1 9164   5.879   8.704   1.228  0.0341 -0.4626  0.7535
34678SOL    HW2 9165   5.889   8.777   1.360 -0.2755  0.2091  0.4081
34679SOL     OW 9166   1.352   9.228   9.829 -0.1594 -0.2120 -0.6498
34679SOL    HW1 9167   1.364   9.189   9.915  0.3009 -1.1573 -1.1307
34679SOL    HW2 9168   1.431   9.279   9.813  0.8641 -2.0106 -1.5184
34680SOL     OW 9169   8.652   1.427   1.855  0.0350  0.2742  0.1994
34680SOL    HW1 9170   8.613   1.404   1.770  1.8983 -0.4383 -0.4816
34680SOL    HW2 9171   8.706   1.351   1.877  3.0502  2.2849 -0.0893
34681SOL     OW 9172   8.993   1.888   7.047  0.6242 -0.1407 -0.4696
34681SOL    HW1 9173   9.054   1.943   7.097  0.8206 -1.5766  0.9254
34681SOL    HW2 9174   9.015   1.799   7.073  0.5299 -0.9239 -2.9352
34682SOL     OW 9175   4.102   2.776   3.114  0.3569 -0.6455 -0.5035
34682SOL    HW1 9176   4.187   2.795   3.152  1.6313 -3.0919 -1.9835
34682SOL    HW2 9177   4.052   2.735   3.184 -0.2521  2.2821  0.8611
34683SOL     OW 9178   5.393   0.653   4.611  0.3040 -0.2586  0.1755
34683SOL    HW1 9179   5.373   0.588   4.678  0.9855  0.2707  0.9074
34683SOL    HW2 9180   5.337   0.630   4.537 -0.6983 -0.6539  1.0497
34684SOL     OW 9181   0.958   5.504   0.826  0.5600  0.0005  0.3096
34684SOL    HW1 9182   0.920   5.440   0.766  2.1254 -0.0481 -0.6614
34684SOL    HW2 9183   0.964   5.584   0.775  1.2118  0.1559  0.6253
34685SOL     OW 9184   0.972   1.075   1.807  0.5625  0.0265  0.2481
34685SOL    HW1 9185   0.925   1.152   1.838  1.9552  0.3744  1.5644
34685SOL    HW2 9186   0.932   1.002   1.855 -0.0684  0.0583 -0.2317
34686SOL     OW 9187   2.452   5.479   1.698  0.9303 -0.2018 -0.4298
34686SOL    HW1 9188   2.451   5.419   1.624 -0.1340  1.3128 -1.6757
34686SOL    HW2 9189   2.513   5.548   1.672  0.0894  0.6525 -0.1609
34687SOL     OW 9190   6.308   5.224   1.230  0.4947 -0.3314 -0.1222
34687SOL    HW1 9191   6.238   5.274   1.187  0.5347  0.9237  1.2358
34687SOL    HW2 9192   6.275   5.134   1.230 -1.2431  0.2809  0.7103
34688SOL     OW 9193   1.062   0.789  11.177  0.5017 -0.2295 -0.7058
34688SOL    HW1 9194   1.039   0.876  11.211  2.0294  0.0092 -0.2377
34688SOL    HW2 9195   1.110   0.807  11.096  3.3847 -0.4942  0.8925
34689SOL     OW 9196   9.132   3.405   1.810 -0.1509  0.4522 -0.0858
34689SOL    HW1 9197   9.098   3.486   1.773 -1.0537  1.2701  2.3869
34689SOL    HW2 9198   9.055   3.350   1.823  0.4829 -0.9508 -1.9732
34690SOL     OW 9199   7.746   7.691   3.190 -0.5151  0.1070 -0.7669
34690SOL    HW1 9200   7.812   7.691   3.259 -0.4318  1.2755 -0.8284
34690SOL    HW2 9201   7.683   7.758   3.216 -1.0641 -0.1950 -1.2851
34691SOL     OW 9202   9.097   6.846   5.352 -0.1288 -0.6342  0.0551
34691SOL    HW1 9203   9.162   6.880   5.290 -0.3978 -1.7013 -0.8379
34691SOL    HW2 9204   9.097   6.908   5.424  1.4351 -0.2782 -0.2328
34692SOL     OW 9205  10.158   0.319   1.082 -0.3934  0.2578 -0.4087
34692SOL    HW1 9206  10.172   0.392   1.021 -1.5447  0.6315 -0.2406
34692SOL    HW2 9207  10.085   0.348   1.137 -0.3728 -0.7215  0.1337
34693SOL     OW 9208  10.727   2.990   1.481  0.3608 -0.1000 -0.4877
34693SOL    HW1 9209  10.634   2.992   1.460  0.4827  0.5477 -0.9683
34693SOL    HW2 9210  10.770   3.024   1.403  0.9946 -0.3346 -0.2406
34694SOL     OW 9211   5.919   0.059   6.664  0.1336 -0.4135  0.1821
34694SOL    HW1 9212   5.995   0.068   6.606  1.2303  0.9504  1.7790
34694SOL    HW2 9213   5.851   0.111   6.622  1.5134  2.1847  1.0480
34695SOL     OW 9214   3.993   3.876   8.825 -0.1298 -0.0487  0.2729
34695SOL    HW1 9215   3.960   3.811   8.887 -0.0677  0.2761  0.6471
34695SOL    HW2 9216   3.915   3.908   8.780 -0.6440  2.3505  2.7195
34696SOL     OW 9217  10.532   3.348   9.152 -0.3740  0.4696  0.4519
34696SOL    HW1 9218  10.597   3.290   9.192  0.9692  0.6280 -1.4161
34696SOL    HW2 9219  10.561   3.358   9.061 -2.0648  1.9406  0.0317
34697SOL     OW 9220  10.972   2.440   9.000 -0.4679  0.5447  0.2654
34697SOL    HW1 9221  11.019   2.398   8.928 -1.6662 -0.1258 -0.1283
34697SOL    HW2 9222  11.014   2.407   9.079 -1.3950 -1.3964 -0.0400
34698SOL     OW 9223  10.651   9.235   2.768 -0.0357 -0.0698  0.0240
34698SOL    HW1 9224  10.570   9.286   2.769  1.9848  3.3083  2.7104
34698SOL    HW2 9225  10.684   9.244   2.679 -1.5226  0.2774 -0.5116
34699SOL     OW 9226  10.323   3.192   8.703  0.2805 -0.4005  0.4535
34699SOL    HW1 9227  10.318   3.127   8.773 -0.2050 -0.0322  0.7637
34699SOL    HW2 9228  10.264   3.159   8.635 -0.2160 -0.1117  0.7498
34700SOL     OW 9229  11.323   9.506   2.035  0.6816  0.3734  0.2521
34700SOL    HW1 9230  11.302   9.416   2.060 -1.9407  0.6447 -0.8060
34700SOL    HW2 9231  11.419   9.510   2.037  0.7874 -1.2866  4.2647
34701SOL     OW 9232   1.356   8.578   6.645 -0.0470 -0.3362 -0.2747
34701SOL    HW1 9233   1.412   8.506   6.617 -1.1427 -0.9525 -0.9329
34701SOL    HW2 9234   1.341   8.630   6.566 -0.0663  0.0683 -0.0110
34702SOL     OW 9235   5.534  10.158   1.976  0.1684  0.6119  0.5347
34702SOL    HW1 9236   5.542  10.212   1.897 -2.2419 -0.5794 -0.5978
34702SOL    HW2 9237   5.612  10.104   1.976 -1.0914 -1.3738 -2.6527
34703SOL     OW 9238   5.877   1.013   3.006  0.2136 -0.2730  0.0972
34703SOL    HW1 9239   5.818   1.013   3.081  1.6456 -0.9776  1.2521
34703SOL    HW2 9240   5.872   0.923   2.972 -2.1880  0.6185 -2.1138
34704SOL     OW 9241   2.781   6.740   3.643  0.0733  0.6310  0.0201
34704SOL    HW1 9242   2.854   6.772   3.590 -0.0687  2.4872  0.9162
34704SOL    HW2 9243   2.824   6.688   3.712  0.2657 -1.6203 -1.7429
34705SOL     OW 9244   1.038   0.168   5.379  0.4515  0.7651  0.3451
34705SOL    HW1 9245   0.995   0.178   5.464 -1.1275 -1.0564 -0.1871
34705SOL    HW2 9246   0.979   0.111   5.330  2.4560 -0.0441 -1.1840
34706SOL     OW 9247  10.216   0.590   0.419  0.0184 -0.6389  0.3136
34706SOL    HW1 9248  10.211   0.666   0.361 -0.2777 -0.4155  0.6308
34706SOL    HW2 9249  10.198   0.625   0.506  1.3117 -0.8362  0.6633
34707SOL     OW 9250   2.405  10.319   4.660 -0.3103 -0.4742 -0.1360
34707SOL    HW1 9251   2.311  10.322   4.680 -0.4562  0.0456 -0.8820
34707SOL    HW2 9252   2.417  10.385   4.591  0.1408 -2.4381 -1.9883
34708SOL     OW 9253   1.597   0.095   7.767 -0.2624  0.0175  0.1734
34708SOL    HW1 9254   1.577   0.080   7.859 -2.6310  0.8287 -0.1651
34708SOL    HW2 9255   1.544   0.172   7.743  3.8483  2.7249 -0.7030
34709SOL     OW 9256   6.066  10.928   7.453 -0.2970 -0.2683 -0.0938
34709SOL    HW1 9257   5.996  10.863   7.444 -0.0700 -0.5934  0.4319
34709SOL    HW2 9258   6.112  10.927   7.369 -0.9882  0.0312 -0.4860
34710SOL     OW 9259   1.437   2.216   9.427 -0.2444 -0.1345  0.3768
34710SOL    HW1 9260   1.414   2.207   9.519  0.6868  0.1029  0.6421
34710SOL    HW2 9261   1.488   2.297   9.423  1.4570 -1.2016  0.0007
34711SOL     OW 9262   1.898   3.528   5.186 -0.2548  0.2970 -0.4905
34711SOL    HW1 9263   1.900   3.446   5.137 -0.3605 -0.8492  1.3922
34711SOL    HW2 9264   1.834   3.513   5.256  0.1880  1.7629  0.2460
34712SOL     OW 9265   1.630   5.880   4.155 -0.0960  0.1452  0.7195
34712SOL    HW1 9266   1.628   5.966   4.197 -2.7356  0.3388  0.2686
34712SOL    HW2 9267   1.683   5.892   4.077 -0.0816  1.2427  0.8932
34713SOL     OW 9268   0.475   6.815   0.755 -0.4124 -0.1673 -0.2383
34713SOL    HW1 9269   0.441   6.849   0.838 -1.0778  1.2398 -1.0750
34713SOL    HW2 9270   0.436   6.728   0.748  0.5300 -0.7640  1.4463
34714SOL     OW 9271  10.116   6.318   3.722  0.3271  0.6037 -0.3778
34714SOL    HW1 9272  10.021   6.324   3.712  0.5152 -0.3409 -3.0816
34714SOL    HW2 9273  10.128   6.283   3.810 -1.7303  3.1856  1.0008
34715SOL     OW 9274   4.851   4.468   3.369 -0.0492 -0.1683 -0.0179
34715SOL    HW1 9275   4.781   4.524   3.403 -0.2028 -0.0203 -0.5725
34715SOL    HW2 9276   4.881   4.418   3.445 -1.0181 -0.5151  0.1439
34716SOL     OW 9277   7.243   2.579   6.566  0.2016  0.5608  0.2796
34716SOL    HW1 9278   7.168   2.598   6.623  1.1158  1.1413  1.3116
34716SOL    HW2 9279   7.278   2.497   6.600 -1.1947 -0.8317 -1.5184
34717SOL     OW 9280   8.056   6.242   8.902 -0.0463 -0.4899 -0.5325
34717SOL    HW1 9281   8.133   6.277   8.857 -0.4790 -0.5459 -1.3309
34717SOL    HW2 9282   7.994   6.223   8.831  0.0673 -2.6161 -0.0924
34718SOL     OW 9283   6.434   5.431   4.089 -0.9102  0.1887  0.2167
34718SOL    HW1 9284   6.484   5.509   4.115 -0.4172 -0.1406  0.2552
34718SOL    HW2 9285   6.401   5.452   4.001  1.0573 -0.4210 -0.6943
34719SOL     OW 9286   4.397   0.329   4.958 -0.2379  0.4602 -0.5467
34719SOL    HW1 9287   4.312   0.333   4.915 -0.6017 -0.5620  0.0440
34719SOL    HW2 9288   4.388   0.259   5.022  0.9419  0.5748 -0.2352
34720SOL     OW 9289   1.165   5.712   0.771  0.4919  0.3264  0.0381
34720SOL    HW1 9290   1.086   5.752   0.736  1.4107  0.8517 -1.4448
34720SOL    HW2 9291   1.170   5.627   0.728  1.1418  0.5993 -0.4168
34721SOL     OW 9292   0.400   9.381   8.583  0.3733  0.2682  0.0573
34721SOL    HW1 9293   0.456   9.444   8.538  1.3641  1.1993  2.4785
34721SOL    HW2 9294   0.422   9.296   8.545  3.2393  0.6637  0.7442
34722SOL     OW 9295   6.971   9.472   2.950 -0.3210 -0.1339 -0.1269
34722SOL    HW1 9296   7.003   9.388   2.984  2.1053  0.3991 -1.0386
34722SOL    HW2 9297   6.956   9.525   3.029  0.8094 -0.4749  0.3267
34723SOL     OW 9298   4.045   2.210   9.598 -0.3656  0.5563  0.3053
34723SOL    HW1 9299   4.137   2.186   9.609 -0.2215 -0.0073 -1.8743
34723SOL    HW2 9300   4.045   2.306   9.596  0.2730  0.5448 -0.3980
34724SOL     OW 9301   9.469  11.102   0.351 -0.5693  0.1581 -0.7952
34724SOL    HW1 9302   9.417  11.182   0.340 -0.7051  0.3638  1.1958
34724SOL    HW2 9303   9.536  11.125   0.415 -1.5379 -1.7344  0.9785
34725SOL     OW 9304   6.451   7.052   6.797  0.2050 -0.1636 -0.0479
34725SOL    HW1 9305   6.451   7.083   6.707 -2.5877  0.9865  0.3091
34725SOL    HW2 9306   6.471   7.129   6.849 -0.7674 -0.2426  0.4611
34726SOL     OW 9307   0.177   6.192   2.048 -0.3118  0.1519  0.4413
34726SOL    HW1 9308   0.230   6.117   2.021 -1.4390 -0.2445 -0.7348
34726SOL    HW2 9309   0.221   6.227   2.125  2.2567  0.4575 -1.1020
34727SOL     OW 9310   2.551   9.685   6.952 -0.3458  0.3885 -0.2501
34727SOL    HW1 9311   2.617   9.743   6.992  0.2672 -0.7251  0.3997
34727SOL    HW2 9312   2.577   9.597   6.981 -1.3004 -0.1998 -1.1683
34728SOL     OW 9313   5.348   2.707   2.121  0.2034 -0.0767  0.3149
34728SOL    HW1 9314   5.386   2.787   2.159  1.3386 -0.5259  0.1450
34728SOL    HW2 9315   5.418   2.671   2.067 -1.0346 -0.0038 -1.4140
34729SOL     OW 9316   4.325   1.657   8.502  0.2263 -0.1280 -0.6738
34729SOL    HW1 9317   4.277   1.740   8.490  1.4113  1.3747  3.7932
34729SOL    HW2 9318   4.256   1.590   8.502 -1.6628  1.6623  2.4664
34730SOL     OW 9319   3.503  10.720   9.903  0.0959 -0.2059  0.1561
34730SOL    HW1 9320   3.555  10.717   9.823  0.9581  1.4342  0.6317
34730SOL    HW2 9321   3.529  10.642   9.952  0.1784 -0.7759 -0.7710
34731SOL     OW 9322   8.855   5.441  10.024  0.3031 -0.2995  0.5743
34731SOL    HW1 9323   8.771   5.411   9.988  0.7213 -0.0085 -0.6825
34731SOL    HW2 9324   8.919   5.377   9.991  0.9383  0.9121 -0.6357
34732SOL     OW 9325   4.815  10.847  10.531 -0.0148 -0.5625 -0.1654
34732SOL    HW1 9326   4.831  10.753  10.529  0.2141 -0.5219 -3.0542
34732SOL    HW2 9327   4.791  10.869  10.441 -1.7760  1.8658  0.8426
34733SOL     OW 9328   9.322   5.962   5.885 -0.5047  0.4409 -0.3586
34733SOL    HW1 9329   9.348   5.955   5.793  3.5068 -1.6131  0.8287
34733SOL    HW2 9330   9.248   5.902   5.894 -1.6268  1.4473 -2.4152
34734SOL     OW 9331   4.797   4.076  11.068  0.1040 -0.0785  0.3453
34734SOL    HW1 9332   4.828   4.119  11.148 -0.5115  1.7725 -0.3667
34734SOL    HW2 9333   4.771   4.149  11.011  1.1936 -1.3560 -1.8170
34735SOL     OW 9334   9.416   6.361   0.659  0.1912 -0.6231 -0.7485
34735SOL    HW1 9335   9.439   6.433   0.718 -1.2469 -0.0041 -0.9278
34735SOL    HW2 9336   9.409   6.402   0.573  0.5254 -1.1932 -1.0448
34736SOL     OW 9337   7.811   0.788   2.685  0.5063  0.0552 -0.2002
34736SOL    HW1 9338   7.763   0.835   2.617  0.7827  1.2989  0.4548
34736SOL    HW2 9339   7.743   0.751   2.741  0.2983  0.4743 -0.1759
34737SOL     OW 9340   6.434   8.272   3.159 -0.0020 -0.2398 -0.4869
34737SOL    HW1 9341   6.379   8.216   3.104 -0.9218 -0.1330  0.3186
34737SOL    HW2 9342   6.433   8.230   3.245  1.9717 -0.7711 -0.6880
34738SOL     OW 9343   8.079   3.549   9.059 -0.0367  0.3011  0.0982
34738SOL    HW1 9344   8.105   3.558   9.151 -1.1654 -0.1065  0.4632
34738SOL    HW2 9345   7.997   3.500   9.062  0.5770 -0.8541 -1.1995
34739SOL     OW 9346   6.622   5.518   1.559 -0.1602 -0.4019 -0.0186
34739SOL    HW1 9347   6.542   5.554   1.522 -0.9955 -0.6006  1.5609
34739SOL    HW2 9348   6.688   5.532   1.491 -0.9111  2.2433 -0.2618
34740SOL     OW 9349   3.015   1.643   3.499 -0.1054 -0.0027  0.1974
34740SOL    HW1 9350   3.080   1.636   3.430 -2.0818 -1.9122 -1.5425
34740SOL    HW2 9351   3.032   1.567   3.555  0.3238  0.5311  0.8018
34741SOL     OW 9352   0.532   2.521   4.634  0.1970  0.2653  0.6922
34741SOL    HW1 9353   0.445   2.482   4.641 -0.5600  1.7885  0.0444
34741SOL    HW2 9354   0.532   2.563   4.548  1.3971  0.7061  0.8963
34742SOL     OW 9355  10.238   8.590   9.763 -0.1198  0.7237 -0.3232
34742SOL    HW1 9356  10.318   8.639   9.740  0.9329 -0.7448  0.1361
34742SOL    HW2 9357  10.168   8.655   9.759  1.1406  2.0924 -0.5058
34743SOL     OW 9358   1.373   4.194  10.177 -0.0759  0.0872  0.1232
34743SOL    HW1 9359   1.464   4.191  10.150 -0.4670 -0.0395 -1.1883
34743SOL    HW2 9360   1.324   4.152  10.106 -1.0321 -0.9957  1.3838
34744SOL     OW 9361  10.567   9.204   1.267 -0.1765 -0.1451  0.1387
34744SOL    HW1 9362  10.658   9.201   1.236 -0.8736  1.3831 -2.1912
34744SOL    HW2 9363  10.541   9.112   1.274  1.9833 -0.6300  2.2332
34745SOL     OW 9364   2.420   7.339   5.714 -0.3785 -0.4948 -0.2884
34745SOL    HW1 9365   2.486   7.392   5.671 -0.9830  0.2209 -0.3554
34745SOL    HW2 9366   2.339   7.389   5.703 -0.7581 -0.9087  0.5886
34746SOL     OW 9367  10.578   9.355   9.298  0.0886  0.0745 -0.3529
34746SOL    HW1 9368  10.526   9.369   9.219 -0.9835  0.0328  0.3335
34746SOL    HW2 9369  10.583   9.442   9.339  1.9417  0.4151 -1.2342
34747SOL     OW 9370   4.927   1.381   6.436  0.2353 -0.1839  0.2403
34747SOL    HW1 9371   4.866   1.332   6.492 -0.9657 -0.0866 -0.9564
34747SOL    HW2 9372   4.972   1.439   6.497 -1.9576  0.8360  0.9747
34748SOL     OW 9373  10.893   1.616   0.499  0.4019 -0.0837  0.1436
34748SOL    HW1 9374  10.840   1.588   0.424  0.6642  0.4176 -0.2312
34748SOL    HW2 9375  10.838   1.680   0.544  0.2268 -0.4191  0.4108
34749SOL     OW 9376   0.008   0.568   9.616  0.5688 -0.4869 -0.2210
34749SOL    HW1 9377  -0.028   0.651   9.648  2.0828 -0.1589  0.6524
34749SOL    HW2 9378  -0.006   0.571   9.521 -0.5214  0.1915 -0.0547
34750SOL     OW 9379   8.220   1.286   8.711  0.5919  0.6727 -0.0198
34750SOL    HW1 9380   8.228   1.276   8.806  0.6792  2.2493  0.1476
34750SOL    HW2 9381   8.154   1.222   8.686 -0.8800  1.5904  1.3998
34751SOL     OW 9382   4.100   6.146   7.055  0.2241  0.1470 -0.3675
34751SOL    HW1 9383   4.066   6.114   6.971 -1.9423 -0.8086  0.8154
34751SOL    HW2 9384   4.132   6.068   7.099 -0.7080  0.2935  0.5881
34752SOL     OW 9385   7.858  10.788   5.922 -0.2991  0.5190 -0.4217
34752SOL    HW1 9386   7.764  10.782   5.909 -0.1369 -2.4461 -0.5448
34752SOL    HW2 9387   7.871  10.766   6.014  0.0225  4.6525  0.6337
34753SOL     OW 9388   4.304   6.609   0.415  0.1439  0.2547 -0.1656
34753SOL    HW1 9389   4.296   6.680   0.478  1.0365  0.4810 -0.3025
34753SOL    HW2 9390   4.384   6.563   0.441  0.6810  0.5364 -1.3213
34754SOL     OW 9391   6.076   4.317  10.290 -0.5756 -0.0271  0.2536
34754SOL    HW1 9392   6.147   4.273  10.243  0.0645  0.5056  0.6863
34754SOL    HW2 9393   6.115   4.401  10.316 -1.6111  0.5744 -0.1366
34755SOL     OW 9394   1.144   2.415   1.333 -0.1581  0.1633  0.0510
34755SOL    HW1 9395   1.139   2.498   1.381  0.5802  0.4555 -0.3689
34755SOL    HW2 9396   1.061   2.410   1.285 -0.0660  0.8240 -0.1852
34756SOL     OW 9397   0.134   9.430   1.803  0.1757  0.1799  0.2869
34756SOL    HW1 9398   0.167   9.496   1.742  1.7998 -1.4595 -0.6737
34756SOL    HW2 9399   0.038   9.437   1.798  0.3265  1.5126 -0.8164
34757SOL     OW 9400   9.757   1.908   2.479  0.4452  0.6236  0.1955
34757SOL    HW1 9401   9.790   1.821   2.455  0.9816  0.6806  0.7026
34757SOL    HW2 9402   9.727   1.946   2.396 -1.4355 -0.7187  0.2243
34758SOL     OW 9403   4.603   1.095   1.005  0.0331  0.0242 -0.2881
34758SOL    HW1 9404   4.654   1.018   1.028 -0.3306 -0.4443 -1.0103
34758SOL    HW2 9405   4.592   1.142   1.088  1.9946  0.3738 -0.2029
34759SOL     OW 9406   4.671   8.679   9.932  0.5169 -0.4743 -0.5343
34759SOL    HW1 9407   4.715   8.618   9.991  0.7945 -2.1655 -2.4199
34759SOL    HW2 9408   4.688   8.765   9.968  0.4528 -1.4790  1.9899
34760SOL     OW 9409   3.814   7.977   8.317  0.0482 -0.3319 -0.2928
34760SOL    HW1 9410   3.876   8.044   8.289 -1.5753  0.9327 -0.9565
34760SOL    HW2 9411   3.869   7.906   8.351  1.8516  0.6349 -1.1104
34761SOL     OW 9412  11.066   8.979   8.281 -0.4877 -0.8140 -0.4440
34761SOL    HW1 9413  11.130   9.032   8.329 -1.5793 -0.4677  0.6542
34761SOL    HW2 9414  11.056   9.024   8.197 -0.7752  0.2583  0.1563
34762SOL     OW 9415   6.846   4.318   0.336 -0.1347 -0.3182 -0.1929
34762SOL    HW1 9416   6.910   4.321   0.407 -1.5130 -0.4977  1.1024
34762SOL    HW2 9417   6.838   4.225   0.315 -1.8500 -0.5805  1.4536
34763SOL     OW 9418   8.897  10.580   0.565  0.5626 -0.4551  0.2536
34763SOL    HW1 9419   8.980  10.622   0.544 -0.8643  2.3537 -0.0668
34763SOL    HW2 9420   8.913  10.536   0.649  2.1782  0.6498  0.5522
34764SOL     OW 9421   1.772   6.160   5.103 -0.1846  0.5304 -0.3355
34764SOL    HW1 9422   1.789   6.076   5.060 -0.3899  0.6223 -0.5966
34764SOL    HW2 9423   1.694   6.144   5.157  0.3450  0.2844  0.3727
34765SOL     OW 9424   0.670   2.965   8.034  0.3873 -0.2647  0.3268
34765SOL    HW1 9425   0.577   2.944   8.035  0.3507 -0.1174  0.0730
34765SOL    HW2 9426   0.673   3.060   8.047  0.5537 -0.4375  1.5873
34766SOL     OW 9427   2.345   8.872   0.401  0.1899 -0.7356 -0.1273
34766SOL    HW1 9428   2.437   8.858   0.379  0.2281 -0.6265 -0.0381
34766SOL    HW2 9429   2.317   8.943   0.343  0.4792  0.0274  0.6442
34767SOL     OW 9430   1.773   8.484   5.929  0.7574 -0.0007  0.1188
34767SOL    HW1 9431   1.774   8.479   6.025 -0.3806  0.9539  0.1828
34767SOL    HW2 9432   1.710   8.417   5.902  1.9657 -1.1077 -0.0393
34768SOL     OW 9433   0.109   9.420   9.152 -0.4422  0.6360 -0.4733
34768SOL    HW1 9434   0.108   9.332   9.189 -0.8902  0.9741  0.3423
34768SOL    HW2 9435   0.044   9.468   9.204  2.6602  2.5511  1.7842
34769SOL     OW 9436   8.252   7.989   6.512  0.3533  0.4764 -0.3770
34769SOL    HW1 9437   8.161   7.962   6.498 -0.2875  0.9608  2.6625
34769SOL    HW2 9438   8.254   8.081   6.485  0.2077  0.1942 -1.3871
34770SOL     OW 9439   5.039   5.699   5.475  0.2435  0.2635 -0.7197
34770SOL    HW1 9440   5.112   5.647   5.443  0.3042  0.5273 -1.0213
34770SOL    HW2 9441   4.979   5.705   5.400 -0.4426 -0.5814 -0.2420
34771SOL     OW 9442  10.204   7.373   3.881 -0.4496  0.9307  0.5265
34771SOL    HW1 9443  10.297   7.349   3.879 -0.2709  1.4313  2.1304
34771SOL    HW2 9444  10.198   7.451   3.825 -0.0183  0.5699 -0.0322
34772SOL     OW 9445   0.926  10.289   9.096  0.3764  0.4623  0.2477
34772SOL    HW1 9446   1.003  10.287   9.040 -0.2633  1.0433 -0.6606
34772SOL    HW2 9447   0.868  10.353   9.056 -0.8434 -0.4071  0.5797
34773SOL     OW 9448   3.688   3.678   3.427 -0.4886  0.4545  0.3710
34773SOL    HW1 9449   3.742   3.716   3.358  0.5894 -1.1884  0.2861
34773SOL    HW2 9450   3.614   3.738   3.434  0.0714  1.3914 -1.2424
34774SOL     OW 9451   6.059  10.481  11.021 -0.7397 -0.1378  0.1209
34774SOL    HW1 9452   5.986  10.496  10.962  0.3473 -1.3172 -1.5935
34774SOL    HW2 9453   6.094  10.396  10.994  2.3753  1.2186 -0.3598
34775SOL     OW 9454   7.743   5.116   2.853  0.0484  0.0419  0.5425
34775SOL    HW1 9455   7.736   5.038   2.797  0.4149  0.8757 -0.6972
34775SOL    HW2 9456   7.654   5.132   2.883 -0.8041  1.6244 -2.6623
34776SOL     OW 9457   4.982   9.402   0.116  0.0459 -0.1532 -0.3401
34776SOL    HW1 9458   5.075   9.416   0.135  1.0642 -2.0766 -3.4355
34776SOL    HW2 9459   4.948   9.488   0.093  1.5873  0.2283 -1.2268
34777SOL     OW 9460   0.108   9.701   4.126 -0.6508  0.3616  0.4015
34777SOL    HW1 9461   0.073   9.778   4.080 -3.7633  0.1964  2.2977
34777SOL    HW2 9462   0.052   9.629   4.098  0.7837 -0.7736  0.4137
34778SOL     OW 9463   7.352   4.740   5.132  0.4175  0.1600  0.6599
34778SOL    HW1 9464   7.432   4.773   5.091 -0.0252  1.6203  0.9211
34778SOL    HW2 9465   7.281   4.780   5.081 -0.1436 -1.0854  0.4587
34779SOL     OW 9466   7.799   0.903  10.257  0.1043 -0.2257 -0.0912
34779SOL    HW1 9467   7.849   0.880  10.178 -3.2593 -2.4857 -1.7018
34779SOL    HW2 9468   7.834   0.846  10.325  0.8240 -0.6379 -0.7930
34780SOL     OW 9469   7.325   9.057  11.037  0.7349 -0.6865  0.9346
34780SOL    HW1 9470   7.260   9.038  11.104 -0.8416  0.2185 -0.2991
34780SOL    HW2 9471   7.305   9.146  11.008  3.1347 -0.0073  1.2123
34781SOL     OW 9472  10.312   1.198   5.572  0.0778 -0.3371  0.1281
34781SOL    HW1 9473  10.261   1.252   5.511  0.6271  1.2875  1.1011
34781SOL    HW2 9474  10.247   1.141   5.612 -0.7470  0.6041  0.1620
34782SOL     OW 9475   3.151   6.544   5.215  0.3114  0.1942 -0.0656
34782SOL    HW1 9476   3.222   6.480   5.207  0.3606  0.0660  1.2808
34782SOL    HW2 9477   3.132   6.547   5.309  1.7103  3.6753  0.1778
34783SOL     OW 9478   0.598   6.650   4.423 -0.7000 -0.2011  0.1375
34783SOL    HW1 9479   0.650   6.577   4.458 -0.8836 -0.0278  0.7782
34783SOL    HW2 9480   0.577   6.623   4.334  0.0222 -0.5195  0.0560
34784SOL     OW 9481   8.731   2.381   3.244  1.0232  0.7644 -0.1554
34784SOL    HW1 9482   8.683   2.462   3.263  1.6012  0.9290  0.6727
34784SOL    HW2 9483   8.711   2.362   3.153 -0.7086  0.7573  0.2035
34785SOL     OW 9484   3.279   7.643   8.090  0.1985 -0.1505 -0.1285
34785SOL    HW1 9485   3.285   7.608   8.179  1.5893 -0.9111 -0.5137
34785SOL    HW2 9486   3.351   7.602   8.043 -0.3450  0.4790 -1.5392
34786SOL     OW 9487   3.119   0.074   5.017  0.1195  0.0270  0.5797
34786SOL    HW1 9488   3.121   0.159   5.062 -0.8196  1.2200 -1.5074
34786SOL    HW2 9489   3.130   0.009   5.086 -0.7759  1.7923  2.4349
34787SOL     OW 9490   3.625   6.062   4.273 -0.0153  0.0885  0.6960
34787SOL    HW1 9491   3.715   6.048   4.302  0.4858  2.2067  0.2042
34787SOL    HW2 9492   3.606   6.153   4.295 -0.4865  1.0236 -3.1892
34788SOL     OW 9493   1.072   7.531   6.109 -0.1142 -0.5559 -0.0263
34788SOL    HW1 9494   1.016   7.521   6.032 -1.6117 -2.3260  1.2496
34788SOL    HW2 9495   1.023   7.591   6.166  1.2313  1.1685 -0.6382
34789SOL     OW 9496   8.374   7.249   4.891 -0.5908  0.3325 -0.9542
34789SOL    HW1 9497   8.469   7.266   4.891 -0.3354 -1.0017 -0.2579
34789SOL    HW2 9498   8.365   7.168   4.942 -2.1216  0.5267 -0.9182
34790SOL     OW 9499   5.048   8.508   8.522 -0.2707 -0.3076 -0.2373
34790SOL    HW1 9500   5.039   8.413   8.514 -0.9858 -0.0817 -2.5481
34790SOL    HW2 9501   5.122   8.531   8.466  0.1264  0.4731  0.5809
34791SOL     OW 9502   6.079   8.105   9.479  0.1671  0.1396 -0.7180
34791SOL    HW1 9503   6.083   8.192   9.519 -1.3663 -0.1874  0.2007
34791SOL    HW2 9504   6.090   8.045   9.552  2.9590 -0.4584 -1.5877
34792SOL     OW 9505   5.671   5.177   4.207 -0.0012  0.1251  0.0749
34792SOL    HW1 9506   5.639   5.121   4.277  1.4050 -1.4777 -0.5449
34792SOL    HW2 9507   5.599   5.239   4.192 -1.3930 -1.1960  1.0733
34793SOL     OW 9508   0.135   0.563   3.201 -0.5284 -0.1005  0.1114
34793SOL    HW1 9509   0.184   0.488   3.234 -1.1665 -1.1610 -1.2656
34793SOL    HW2 9510   0.117   0.616   3.278  0.0324 -1.3187  1.0998
34794SOL     OW 9511   2.500   0.913   3.449 -0.2547 -0.7751  0.1536
34794SOL    HW1 9512   2.519   0.830   3.406  1.4053 -0.0489 -0.5605
34794SOL    HW2 9513   2.405   0.913   3.461 -0.7114 -1.2217 -3.0886
34795SOL     OW 9514   9.593   6.271   1.804  0.2174 -0.8295 -0.1447
34795SOL    HW1 9515   9.581   6.212   1.878 -0.3242  1.4157  1.6319
34795SOL    HW2 9516   9.509   6.318   1.797  0.8529  0.2060 -1.0582
34796SOL     OW 9517   1.914  10.581   2.895 -0.0224 -0.1370  0.2838
34796SOL    HW1 9518   1.918  10.514   2.827 -1.8884 -0.1947  0.2014
34796SOL    HW2 9519   1.867  10.654   2.855 -1.8729 -0.4880  1.7407
34797SOL     OW 9520   9.727  10.646   2.450 -0.2502  0.2946 -0.0673
34797SOL    HW1 9521   9.703  10.731   2.489  0.1932  0.8267 -0.9324
34797SOL    HW2 9522   9.816  10.630   2.482 -0.5783 -0.1750  0.6293
34798SOL     OW 9523   5.437   4.543   2.880 -0.0848  0.0167  0.1123
34798SOL    HW1 9524   5.391   4.461   2.864  0.8408 -0.9923  2.4961
34798SOL    HW2 9525   5.368   4.606   2.899 -0.6168 -0.9515  1.4029
34799SOL     OW 9526   8.381   0.363   7.396 -0.2679  0.2765  0.6823
34799SOL    HW1 9527   8.383   0.389   7.304 -1.5146  0.7343  0.7786
34799SOL    HW2 9528   8.460   0.401   7.434 -0.0231  0.5301 -0.0875
34800SOL     OW 9529  11.214   5.905   6.669 -0.0889  0.1634  0.1525
34800SOL    HW1 9530  11.179   5.822   6.639  1.0753 -0.8990  1.6700
34800SOL    HW2 9531  11.293   5.882   6.718  0.4363  2.1762  0.3025
34801SOL     OW 9532  10.834   1.920   1.414 -0.0420 -0.5416 -0.2741
34801SOL    HW1 9533  10.791   2.005   1.422 -0.3979 -0.6868 -0.6018
34801SOL    HW2 9534  10.909   1.925   1.473 -0.8743 -0.5153  0.7846
34802SOL     OW 9535   0.901   8.965  10.261 -0.0404  0.2256 -0.2543
34802SOL    HW1 9536   0.884   8.896  10.326  0.0983  0.6437  0.2330
34802SOL    HW2 9537   0.996   8.960  10.246  0.3890  1.9883  1.7072
34803SOL     OW 9538   6.266   0.803   6.396 -0.1152  0.2416 -0.7942
34803SOL    HW1 9539   6.197   0.869   6.408 -0.8378 -0.5303 -0.6539
34803SOL    HW2 9540   6.231   0.743   6.331  0.7019  0.2100 -1.2060
34804SOL     OW 9541   0.196   3.436   2.912  0.0072 -0.5063 -0.3950
34804SOL    HW1 9542   0.205   3.522   2.870 -1.7004 -0.1489 -0.0677
34804SOL    HW2 9543   0.186   3.456   3.005 -0.4025 -1.0579 -0.3212
34805SOL     OW 9544   7.345   2.231   4.010 -0.7497  0.2816  0.3605
34805SOL    HW1 9545   7.251   2.218   4.018 -0.8583 -0.7512 -2.3050
34805SOL    HW2 9546   7.377   2.230   4.101 -3.2242  0.3029  1.2678
34806SOL     OW 9547   7.312  10.941   2.711  0.4143 -0.2869 -0.5078
34806SOL    HW1 9548   7.283  10.910   2.625 -2.2850 -0.2176  0.3164
34806SOL    HW2 9549   7.315  10.862   2.766  1.2222 -0.2012 -0.4233
34807SOL     OW 9550   3.300   0.053   2.728 -0.0428 -0.0707 -0.0041
34807SOL    HW1 9551   3.252   0.104   2.793  0.1211 -0.3286  0.3197
34807SOL    HW2 9552   3.261  -0.034   2.731  0.2913 -0.2211  0.1055
34808SOL     OW 9553   1.322   9.561   1.875 -0.5654 -0.2174 -0.5170
34808SOL    HW1 9554   1.362   9.648   1.865 -1.6228  0.3761  0.3754
34808SOL    HW2 9555   1.392   9.507   1.912 -0.5016  0.7504  0.7965
34809SOL     OW 9556   7.457   0.933   6.496  0.2805  0.5725 -0.4550
34809SOL    HW1 9557   7.445   0.944   6.402 -1.3401 -0.9472 -0.4535
34809SOL    HW2 9558   7.459   0.838   6.509  0.9078  0.7703  1.0027
34810SOL     OW 9559   2.398   4.731   1.946 -0.1825 -0.3274  0.0674
34810SOL    HW1 9560   2.414   4.713   1.853 -0.0882  1.3792 -0.2548
34810SOL    HW2 9561   2.327   4.795   1.947 -1.0025 -1.2268  1.2301
34811SOL     OW 9562   4.732   4.858   4.483  0.2264  0.0178  0.4306
34811SOL    HW1 9563   4.657   4.909   4.452 -2.0953 -2.9571  0.9175
34811SOL    HW2 9564   4.734   4.782   4.425  1.9650 -0.6889  1.3910
34812SOL     OW 9565  10.207   7.543  11.115 -0.2910  0.2198  0.3138
34812SOL    HW1 9566  10.184   7.628  11.078 -1.7118  0.4200  1.5923
34812SOL    HW2 9567  10.240   7.493  11.040  1.4977  2.1930 -0.2508
34813SOL     OW 9568  11.242  11.325   7.953 -0.1916  0.2700  0.1148
34813SOL    HW1 9569  11.277  11.272   8.025 -0.6394  0.0271  0.1608
34813SOL    HW2 9570  11.215  11.407   7.994 -2.1765 -0.5741  0.5784
34814SOL     OW 9571   8.519   1.635   3.137 -0.1306 -0.6151 -0.2184
34814SOL    HW1 9572   8.532   1.716   3.186  1.4915 -0.2195 -1.2418
34814SOL    HW2 9573   8.582   1.574   3.175 -0.1762 -0.8738 -0.5529
34815SOL     OW 9574   3.584   6.733   4.251 -0.1152 -0.2195  0.1410
34815SOL    HW1 9575   3.590   6.811   4.196  0.9255 -0.8559 -0.6605
34815SOL    HW2 9576   3.493   6.733   4.282 -1.2600 -0.8289 -3.0368
34816SOL     OW 9577  10.395  10.395   9.941 -0.5549  0.5218 -0.3235
34816SOL    HW1 9578  10.360  10.387   9.852  1.8064 -2.0350 -1.1086
34816SOL    HW2 9579  10.385  10.308   9.978  0.1409  1.1163  1.2970
34817SOL     OW 9580   8.535   5.652   5.405  0.0234  0.4352 -0.2535
34817SOL    HW1 9581   8.584   5.641   5.487  0.3137  1.1628 -0.3188
34817SOL    HW2 9582   8.590   5.710   5.352 -1.7912  2.9185  0.4486
34818SOL     OW 9583   8.102  10.282  10.824 -0.1301 -0.0668 -0.4931
34818SOL    HW1 9584   8.076  10.198  10.787  0.2858 -0.0870 -0.7428
34818SOL    HW2 9585   8.151  10.325  10.754 -1.1531  0.7865 -0.6939
34819SOL     OW 9586   4.831   6.018   8.746 -0.2843 -0.5178 -0.4350
34819SOL    HW1 9587   4.903   6.036   8.807 -0.2749  0.4825 -0.7319
34819SOL    HW2 9588   4.861   5.941   8.697 -0.1713 -1.1656  0.6237
34820SOL     OW 9589   0.398   2.481   8.949 -0.5243 -0.3281  0.1112
34820SOL    HW1 9590   0.338   2.407   8.946 -0.0538 -0.8288  2.3823
34820SOL    HW2 9591   0.341   2.557   8.961 -0.9314 -0.4348 -1.1209
34821SOL     OW 9592  10.980   7.615   1.425 -0.3127 -0.2768 -0.0962
34821SOL    HW1 9593  10.939   7.682   1.371  1.6398  1.2025  0.2180
34821SOL    HW2 9594  11.036   7.566   1.364  0.3377  0.1107  0.1835
34822SOL     OW 9595   4.492  11.028   8.511 -0.2284 -0.4438 -0.1120
34822SOL    HW1 9596   4.520  11.108   8.553 -1.3430  0.2585 -0.6698
34822SOL    HW2 9597   4.573  10.984   8.485  0.3964  0.2314  0.6786
34823SOL     OW 9598   5.919  10.558   2.094  0.5006  0.0638  0.5537
34823SOL    HW1 9599   5.909  10.463   2.103 -0.7936  0.3003  1.8051
34823SOL    HW2 9600   6.012  10.571   2.076  0.6859 -1.4410  0.3633
34824SOL     OW 9601   9.983   9.375  10.202  0.0907 -0.5395  0.1009
34824SOL    HW1 9602   9.971   9.308  10.269  0.1078 -2.0021 -1.3200
34824SOL    HW2 9603  10.031   9.331  10.132  0.1916  0.9865 -0.8283
34825SOL     OW 9604   5.741   1.150   0.634 -0.5274  0.1228 -0.0819
34825SOL    HW1 9605   5.745   1.125   0.542  1.2097  1.9663 -0.5290
34825SOL    HW2 9606   5.668   1.211   0.640  0.2580  1.1010 -0.5064
34826SOL     OW 9607   7.269   3.349   7.809  0.3402  0.0894  0.3893
34826SOL    HW1 9608   7.357   3.329   7.841  0.8294  0.6984 -0.5727
34826SOL    HW2 9609   7.243   3.270   7.761  1.1094  0.6183 -0.9150
34827SOL     OW 9610   9.748   7.439   5.876  0.2496 -0.1544  0.5264
34827SOL    HW1 9611   9.755   7.429   5.781 -0.0253 -1.7433  0.6646
34827SOL    HW2 9612   9.717   7.529   5.889 -0.2726 -0.1200 -0.9183
34828SOL     OW 9613   2.498   4.881   1.078  0.2890 -0.2554 -0.4290
34828SOL    HW1 9614   2.436   4.932   1.025  0.8254  0.9468  0.0767
34828SOL    HW2 9615   2.539   4.946   1.135 -0.2921 -1.5281  1.4840
34829SOL     OW 9616   4.056  11.292   4.919  0.0263 -0.4434  0.6458
34829SOL    HW1 9617   3.997  11.292   4.994 -0.3640 -0.2260  0.3388
34829SOL    HW2 9618   3.998  11.295   4.842  0.4054 -1.2952  0.3219
34830SOL     OW 9619   8.937   0.022   1.308  0.3289 -0.2295 -0.0693
34830SOL    HW1 9620   8.882  -0.055   1.318 -0.5386  0.2125 -1.2751
34830SOL    HW2 9621   8.970   0.040   1.396 -1.8826 -0.1978  0.7805
34831SOL     OW 9622   5.097   5.368   1.423 -0.1712  0.2270 -0.4146
34831SOL    HW1 9623   5.147   5.290   1.446  2.2621  1.9225  0.3504
34831SOL    HW2 9624   5.024   5.369   1.485  0.2170 -1.0176  0.0843
34832SOL     OW 9625   0.266   1.396   4.376 -0.2198  0.1598 -0.1378
34832SOL    HW1 9626   0.357   1.424   4.364 -0.0809 -0.0797  0.3361
34832SOL    HW2 9627   0.225   1.411   4.291 -0.6372  3.5725  0.5899
34833SOL     OW 9628   7.510   6.175   4.356 -0.1180 -0.4220 -0.3665
34833SOL    HW1 9629   7.480   6.104   4.299  1.2660 -1.5623  0.2820
34833SOL    HW2 9630   7.587   6.210   4.312  0.0483 -0.2823  0.0330
34834SOL     OW 9631   4.851   3.171   6.798  0.2647 -0.1404 -0.3655
34834SOL    HW1 9632   4.938   3.131   6.798  0.5950  0.5729 -0.6357
34834SOL    HW2 9633   4.795   3.106   6.756  0.6588 -0.6176 -0.1590
34835SOL     OW 9634   1.005  10.114   4.235 -0.5191  0.2949 -0.2984
34835SOL    HW1 9635   0.954  10.193   4.221 -1.3364 -0.2127 -0.2011
34835SOL    HW2 9636   1.073  10.116   4.167 -1.2252  0.5095 -0.9974
34836SOL     OW 9637   7.792   8.031   4.224  0.0228  0.7722  0.0080
34836SOL    HW1 9638   7.801   7.997   4.135 -1.1308  2.1596 -0.6393
34836SOL    HW2 9639   7.708   7.996   4.255 -0.1203  1.2304  0.1398
34837SOL     OW 9640   0.482   7.728   7.873  0.1901  0.5063  0.0762
34837SOL    HW1 9641   0.525   7.743   7.788  0.8727  0.1081  0.3546
34837SOL    HW2 9642   0.392   7.757   7.859 -0.3919 -1.9193 -1.5611
34838SOL     OW 9643   5.636   0.907   0.974 -0.4651 -0.2680  0.1573
34838SOL    HW1 9644   5.572   0.960   1.022 -0.5199  0.2793 -0.5058
34838SOL    HW2 9645   5.590   0.825   0.956  0.1756 -1.2225  2.6307
34839SOL     OW 9646   3.030   6.200   6.442 -0.0288  0.3444 -0.8836
34839SOL    HW1 9647   3.018   6.280   6.391 -2.8419 -0.6026 -1.8007
34839SOL    HW2 9648   3.061   6.135   6.379  0.4091  0.2303 -0.5500
34840SOL     OW 9649   7.664   7.636  10.228 -0.9711  0.0567 -0.5589
34840SOL    HW1 9650   7.740   7.605  10.178 -0.9461 -1.0238  0.1254
34840SOL    HW2 9651   7.664   7.731  10.215  0.4856  0.0702 -0.6032
34841SOL     OW 9652   3.728   4.330   9.157 -0.0440 -0.1715  0.2644
34841SOL    HW1 9653   3.734   4.264   9.088 -0.0244 -0.3130  0.4036
34841SOL    HW2 9654   3.647   4.378   9.137  0.9880  1.0971 -1.0287
34842SOL     OW 9655  10.197   6.880   9.576  1.2870 -0.0797  0.3186
34842SOL    HW1 9656  10.153   6.796   9.565  3.1541 -0.6689 -3.5401
34842SOL    HW2 9657  10.288   6.857   9.594  1.2842  1.1408  1.9925
34843SOL     OW 9658   0.469   7.749   6.626  0.2552  0.0087  0.0153
34843SOL    HW1 9659   0.504   7.706   6.548 -0.5469 -0.8395  0.1109
34843SOL    HW2 9660   0.490   7.689   6.697 -1.9116 -0.8322 -0.0095
34844SOL     OW 9661   2.734   4.250   8.579  0.5325 -0.0868  0.0085
34844SOL    HW1 9662   2.663   4.254   8.515  1.4107 -0.8316 -1.0343
34844SOL    HW2 9663   2.709   4.313   8.646 -0.2410  0.9568 -1.2295
34845SOL     OW 9664  10.113   3.626   3.426  0.1661 -0.0134  0.3349
34845SOL    HW1 9665  10.167   3.585   3.359 -2.4906  0.9435 -2.5042
34845SOL    HW2 9666  10.108   3.718   3.400  1.8535  1.1353  3.7819
34846SOL     OW 9667   1.770   1.646   7.903 -0.8817  0.0567  0.6906
34846SOL    HW1 9668   1.738   1.710   7.967 -1.4183 -1.1031  1.6120
34846SOL    HW2 9669   1.725   1.669   7.822 -1.1462  0.7938  1.0406
34847SOL     OW 9670   5.624   2.902   5.545  0.0394  1.1178 -0.4121
34847SOL    HW1 9671   5.682   2.965   5.589  1.4475  0.5894 -1.4528
34847SOL    HW2 9672   5.624   2.825   5.603 -2.2001  2.2774  1.1863
34848SOL     OW 9673   5.976   4.844   7.287 -0.2534 -0.1103 -0.5760
34848SOL    HW1 9674   5.923   4.770   7.317  1.0948 -0.1929  1.7030
34848SOL    HW2 9675   6.066   4.815   7.296  0.2885  1.6296 -0.1104
34849SOL     OW 9676   9.642   8.278   2.972 -0.2403 -0.5913  0.7663
34849SOL    HW1 9677   9.588   8.345   3.014  1.2402  0.8332  0.4344
34849SOL    HW2 9678   9.719   8.326   2.940 -0.3588 -1.9823 -1.7281
34850SOL     OW 9679   1.299   3.575   0.216  0.0028 -0.0104 -0.5316
34850SOL    HW1 9680   1.270   3.483   0.209  0.0816  0.0116 -1.1974
34850SOL    HW2 9681   1.392   3.569   0.240  0.2670 -0.1210 -1.5578
34851SOL     OW 9682   5.059  10.376  10.698  0.1772  0.1908  0.5531
34851SOL    HW1 9683   5.127  10.364  10.764  0.0650  0.4914  0.7236
34851SOL    HW2 9684   4.987  10.320  10.727 -0.7378  2.0264  1.8893
34852SOL     OW 9685   1.157   4.160   8.004  0.2584 -0.0747  0.0397
34852SOL    HW1 9686   1.211   4.086   8.031  0.8854  0.9462  1.6546
34852SOL    HW2 9687   1.068   4.133   8.028  0.5170 -0.2017  0.8987
34853SOL     OW 9688   9.123   5.803   1.798 -0.0937  0.0929 -0.3338
34853SOL    HW1 9689   9.137   5.726   1.852  2.4313 -0.3087 -1.4801
34853SOL    HW2 9690   9.053   5.778   1.737  0.3447 -1.1265 -0.3549
34854SOL     OW 9691   5.742   2.056   8.529 -0.8999 -0.2607 -0.3057
34854SOL    HW1 9692   5.767   2.005   8.452 -0.9190 -0.2342 -0.3293
34854SOL    HW2 9693   5.817   2.050   8.587  0.0820  1.6442 -1.3069
34855SOL     OW 9694   1.753   1.147   9.267 -0.1370  0.1132 -0.0351
34855SOL    HW1 9695   1.816   1.096   9.217 -0.3348  0.4285 -0.6059
34855SOL    HW2 9696   1.668   1.126   9.228 -0.2852  0.4045  0.1261
34856SOL     OW 9697   8.907  10.664   0.019 -0.4573 -0.1192  0.0272
34856SOL    HW1 9698   8.912  10.570   0.036 -0.9797 -0.4200 -1.4037
34856SOL    HW2 9699   8.920  10.705   0.105  1.5951 -1.4449  0.3703
34857SOL     OW 9700  10.797   4.048  10.052  0.4048 -0.0165 -0.1646
34857SOL    HW1 9701  10.815   3.963  10.013  1.1409 -0.4454  1.0838
34857SOL    HW2 9702  10.766   4.102   9.979  1.5662 -0.8500 -1.2938
34858SOL     OW 9703   2.048   0.971   8.504 -0.9979  0.3624 -0.2172
34858SOL    HW1 9704   2.119   1.026   8.535 -0.7341 -0.7295  1.1301
34858SOL    HW2 9705   2.000   1.027   8.442  1.5833  0.7878 -1.9193
34859SOL     OW 9706   3.260   2.406   0.487 -0.3417 -0.2136  0.1793
34859SOL    HW1 9707   3.250   2.500   0.475 -1.6886 -0.4954 -0.9754
34859SOL    HW2 9708   3.184   2.380   0.539  0.0713 -0.6571  0.5695
34860SOL     OW 9709   0.402   5.494   7.002 -0.0652  0.4409  0.2612
34860SOL    HW1 9710   0.349   5.449   6.937 -0.5709 -0.4841  1.3015
34860SOL    HW2 9711   0.417   5.581   6.965 -0.8414  0.1243 -0.8137
34861SOL     OW 9712  10.708   5.460   1.334 -0.3993  0.0170  0.2559
34861SOL    HW1 9713  10.701   5.381   1.387 -1.6869 -0.9135 -1.2619
34861SOL    HW2 9714  10.797   5.459   1.300 -0.0540 -0.1838  1.1839
34862SOL     OW 9715   7.068   0.279   8.429  0.7181 -0.4757  0.4753
34862SOL    HW1 9716   7.133   0.209   8.438 -0.1864 -1.7133 -2.1359
34862SOL    HW2 9717   6.998   0.255   8.489  0.8939 -1.2326  0.3790
34863SOL     OW 9718   8.873  10.191   6.518 -0.1903  0.0601  0.1263
34863SOL    HW1 9719   8.967  10.179   6.521 -0.1421  0.6612  1.4755
34863SOL    HW2 9720   8.861  10.286   6.515 -0.7621  0.0108  0.7762
34864SOL     OW 9721   2.989   1.890  10.392 -0.7961 -0.0231 -0.2580
34864SOL    HW1 9722   3.045   1.879  10.469 -1.6072  0.6965  0.4393
34864SOL    HW2 9723   2.960   1.981  10.396  0.3280  0.4717 -2.2183
34865SOL     OW 9724  10.038   0.988   9.475 -0.3034 -0.0378 -0.2309
34865SOL    HW1 9725  10.080   1.068   9.442  0.2047  0.0723  0.6828
34865SOL    HW2 9726   9.961   1.019   9.522 -0.9010 -0.1838 -1.0958
34866SOL     OW 9727   3.878   3.003   0.664 -0.1887  0.2971 -0.7014
34866SOL    HW1 9728   3.807   3.060   0.634  0.1898  0.4220 -1.3638
34866SOL    HW2 9729   3.833   2.934   0.714 -0.8570 -0.1235 -1.8741
34867SOL     OW 9730   4.877   2.693   9.108 -0.0993  0.2287 -0.3478
34867SOL    HW1 9731   4.943   2.630   9.080 -2.1500 -2.0807 -0.1449
34867SOL    HW2 9732   4.807   2.639   9.146 -2.0047  2.6131 -0.3630
34868SOL     OW 9733   6.651   5.641  10.392 -0.8763 -0.2149  0.0226
34868SOL    HW1 9734   6.673   5.732  10.374 -1.5191 -0.3434 -1.4706
34868SOL    HW2 9735   6.566   5.645  10.437  0.7745  0.1119  3.2520
34869SOL     OW 9736   8.260   6.349   1.494 -0.3326 -0.3855  0.3841
34869SOL    HW1 9737   8.205   6.339   1.572  0.5178  0.3988  1.0871
34869SOL    HW2 9738   8.336   6.292   1.510  0.3357  0.5546  0.5798
34870SOL     OW 9739   7.629   6.486  11.314 -0.9754 -0.4259 -0.7271
34870SOL    HW1 9740   7.659   6.525  11.396 -0.0386 -3.3779  0.3854
34870SOL    HW2 9741   7.699   6.503  11.251 -0.7721  0.0522 -0.3671
34871SOL     OW 9742   3.259   6.367   6.236  0.6746 -0.3420 -0.2689
34871SOL    HW1 9743   3.193   6.371   6.166 -1.7490 -1.5467  1.8701
34871SOL    HW2 9744   3.308   6.287   6.218 -0.1776 -0.8414 -0.4343
34872SOL     OW 9745   1.350   9.829   5.972 -0.3511  0.1550 -0.2174
34872SOL    HW1 9746   1.412   9.818   6.044  0.6949  2.5162 -0.6930
34872SOL    HW2 9747   1.367   9.754   5.915  0.5895 -0.3762  0.7344
34873SOL     OW 9748  11.167   9.624   2.940  0.6386  0.3806 -0.0523
34873SOL    HW1 9749  11.142   9.604   2.850 -0.1152 -3.0598  0.8678
34873SOL    HW2 9750  11.086   9.656   2.980  0.3664 -0.4126  0.0385
34874SOL     OW 9751   4.503   5.896  10.512 -0.4291  0.2478  0.0785
34874SOL    HW1 9752   4.565   5.926  10.578 -1.0192  1.0621  0.2544
34874SOL    HW2 9753   4.424   5.946  10.527 -1.2814 -1.0663  0.0973
34875SOL     OW 9754   4.912  10.462   5.852 -0.2749  0.0490 -0.1103
34875SOL    HW1 9755   4.906  10.368   5.835 -0.2269 -0.3324  1.7843
34875SOL    HW2 9756   4.968  10.496   5.783 -2.0460 -0.9443 -2.0615
34876SOL     OW 9757   1.035   8.602  10.277  0.2319  0.0272 -0.0767
34876SOL    HW1 9758   1.064   8.514  10.251  2.1668 -0.0801  2.2630
34876SOL    HW2 9759   1.112   8.657  10.266 -0.0722  0.7827  1.4545
34877SOL     OW 9760   7.219   4.777   8.975  0.4222  0.0759  0.2569
34877SOL    HW1 9761   7.312   4.768   8.954  0.3064 -0.2642 -0.1183
34877SOL    HW2 9762   7.211   4.746   9.065  0.7281  0.4143  0.3964
34878SOL     OW 9763  10.075   8.483  10.370  0.1087  0.1957 -0.3463
34878SOL    HW1 9764  10.010   8.450  10.433 -0.9253  0.6769 -1.1341
34878SOL    HW2 9765  10.060   8.578  10.369 -0.8813  0.0398 -2.3905
34879SOL     OW 9766   7.831   7.444   2.223  0.0714  0.1994  0.3551
34879SOL    HW1 9767   7.772   7.497   2.277 -0.0631  2.0819 -1.5751
34879SOL    HW2 9768   7.775   7.378   2.182 -0.2562  0.3640  0.5404
34880SOL     OW 9769   9.792   6.218   5.963 -0.5850 -0.1386  0.0983
34880SOL    HW1 9770   9.799   6.213   6.059 -0.2050  0.8672  0.1326
34880SOL    HW2 9771   9.699   6.209   5.945 -0.7443  0.4277  0.6209
34881SOL     OW 9772   6.573   0.850   5.533 -0.0826 -0.5857 -0.5388
34881SOL    HW1 9773   6.488   0.882   5.560 -0.3382 -1.8706  0.2045
34881SOL    HW2 9774   6.568   0.847   5.437 -0.2956  0.8745 -0.5838
34882SOL     OW 9775   0.748   5.541   5.077  0.4034 -0.6902  0.8382
34882SOL    HW1 9776   0.749   5.516   5.169  1.9942  0.2127  1.0841
34882SOL    HW2 9777   0.682   5.485   5.037 -1.6569  0.2106  2.8968
34883SOL     OW 9778   0.440   4.733   5.380 -0.2418  0.0336 -0.2537
34883SOL    HW1 9779   0.395   4.652   5.401 -0.7396  0.3064 -0.2711
34883SOL    HW2 9780   0.520   4.730   5.433 -0.0406 -0.6700 -0.5796
34884SOL     OW 9781   6.772   3.331   4.576  0.5129  0.0693  0.4432
34884SOL    HW1 9782   6.840   3.371   4.630  0.6853  0.6973 -0.2331
34884SOL    HW2 9783   6.783   3.371   4.490 -0.7480  0.2230  0.3412
34885SOL     OW 9784   8.027  10.630   0.640 -0.6499  0.3825 -0.6765
34885SOL    HW1 9785   8.055  10.572   0.569  0.3654 -0.4628  0.3982
34885SOL    HW2 9786   8.102  10.633   0.699 -1.2036  1.7062 -0.0286
34886SOL     OW 9787   5.615   8.231   0.723  0.0196 -0.1076 -0.3667
34886SOL    HW1 9788   5.552   8.200   0.788 -0.3930  0.1785 -0.6291
34886SOL    HW2 9789   5.572   8.305   0.681  0.0684 -0.6231 -1.3370
34887SOL     OW 9790   2.036   9.998   5.298  0.0456  0.2597  0.5593
34887SOL    HW1 9791   1.948  10.006   5.333  0.9438 -0.7650  3.1862
34887SOL    HW2 9792   2.052   9.904   5.295  0.4198  0.3785 -1.5596
34888SOL     OW 9793   7.735   9.882   8.151 -0.2888  0.2086 -0.0785
34888SOL    HW1 9794   7.750   9.883   8.056  0.8090 -2.6095  0.0253
34888SOL    HW2 9795   7.730   9.790   8.174 -0.4439  0.8457  2.6561
34889SOL     OW 9796   5.216   2.467   1.298  0.4090  0.4577  0.3289
34889SOL    HW1 9797   5.165   2.525   1.242 -0.2920  0.9870  1.4953
34889SOL    HW2 9798   5.159   2.391   1.310  0.9440 -0.0705 -0.4325
34890SOL     OW 9799   2.471  10.212   9.821  0.5817 -0.2793  0.2637
34890SOL    HW1 9800   2.422  10.259   9.888 -0.3480 -2.4225  1.1192
34890SOL    HW2 9801   2.480  10.276   9.750  0.6020  1.6499  1.9487
34891SOL     OW 9802   4.433   7.536   2.992  0.4078 -0.4868 -0.0739
34891SOL    HW1 9803   4.445   7.567   3.082  1.0282  2.1969 -1.0506
34891SOL    HW2 9804   4.340   7.547   2.975  0.6351  0.9138 -0.4323
34892SOL     OW 9805   5.833   9.448  11.139  0.1843  0.3467  0.0407
34892SOL    HW1 9806   5.847   9.509  11.212 -1.0404  2.4780 -1.4322
34892SOL    HW2 9807   5.749   9.406  11.159  0.1807  0.4365  0.2190
34893SOL     OW 9808   8.688   8.693   8.981 -0.0324 -0.3058 -0.4806
34893SOL    HW1 9809   8.653   8.606   8.962 -0.7505 -0.6820  2.3673
34893SOL    HW2 9810   8.776   8.677   9.015 -0.3688  0.0390  0.5675
34894SOL     OW 9811   5.982  10.874   1.049 -0.2219 -0.4285  0.1321
34894SOL    HW1 9812   5.910  10.933   1.069  0.7450  0.6327  0.5498
34894SOL    HW2 9813   5.975  10.859   0.954 -0.3500  0.5382 -0.0151
34895SOL     OW 9814   3.834   0.755   9.956  0.4446 -0.4614 -0.1610
34895SOL    HW1 9815   3.795   0.721   9.876 -0.0197 -1.6904  0.5785
34895SOL    HW2 9816   3.879   0.680   9.995  0.4799  0.0694  0.8351
34896SOL     OW 9817   2.341   8.314  11.209 -0.8971  0.0551 -0.4414
34896SOL    HW1 9818   2.247   8.324  11.191 -1.0174  1.1790  0.6991
34896SOL    HW2 9819   2.358   8.376  11.280  1.3034  1.8932 -2.5187
34897SOL     OW 9820   4.311   1.977  10.502  0.2161  0.1230  0.3127
34897SOL    HW1 9821   4.287   1.937  10.585 -0.3018  0.9859  0.5885
34897SOL    HW2 9822   4.273   1.920  10.435  2.6709 -1.8943  0.5846
34898SOL     OW 9823  10.795   7.879   0.304  0.4781 -0.2875  0.0184
34898SOL    HW1 9824  10.791   7.813   0.373  1.1248 -0.1631  0.1773
34898SOL    HW2 9825  10.879   7.924   0.318 -0.7432  1.7554  1.0241
34899SOL     OW 9826   0.081   8.343   9.000  1.3169 -0.1366 -0.2219
34899SOL    HW1 9827   0.018   8.367   8.932  0.1674 -0.4964  0.6936
34899SOL    HW2 9828   0.079   8.417   9.062 -0.3332 -1.3900  1.2738
34900SOL     OW 9829   3.677   4.137   7.111 -0.2045  0.1605  0.1797
34900SOL    HW1 9830   3.754   4.088   7.085 -0.2426  0.0547  0.2618
34900SOL    HW2 9831   3.684   4.144   7.206 -0.4681 -0.1416  0.2211
34901SOL     OW 9832   5.942   6.773   5.246 -0.1732 -0.0759  0.6287
34901SOL    HW1 9833   5.896   6.691   5.266 -1.1987  0.2848 -0.2107
34901SOL    HW2 9834   5.881   6.822   5.192  1.2001  0.4254 -0.5048
34902SOL     OW 9835  10.427   5.781   7.149 -0.5375  0.8002  0.0681
34902SOL    HW1 9836  10.425   5.725   7.072  0.4181  0.3295  0.3746
34902SOL    HW2 9837  10.480   5.856   7.123 -1.8072  1.5657 -0.3387
34903SOL     OW 9838   5.094   7.796   1.069 -0.3040 -0.0800 -0.7891
34903SOL    HW1 9839   5.120   7.708   1.042  0.2106  0.0053 -0.5838
34903SOL    HW2 9840   5.119   7.801   1.162 -0.4511  0.2365 -0.7662
34904SOL     OW 9841   4.622   0.949   2.614 -0.2759 -0.6477  0.3163
34904SOL    HW1 9842   4.567   1.006   2.561 -1.6167 -1.1859  1.0951
34904SOL    HW2 9843   4.677   0.903   2.551 -1.0209 -0.4074 -0.5114
34905SOL     OW 9844   4.932   7.494   7.568  0.1860 -0.1408  0.1917
34905SOL    HW1 9845   4.865   7.440   7.525 -0.6197  0.7274  0.3278
34905SOL    HW2 9846   4.894   7.582   7.569  1.1269  0.2652  0.7241
34906SOL     OW 9847   8.404  10.443   7.718 -0.0232 -0.2341  0.0025
34906SOL    HW1 9848   8.395  10.389   7.639 -4.0357  2.8980 -1.8885
34906SOL    HW2 9849   8.444  10.524   7.687  1.3301 -0.1599  1.8659
34907SOL     OW 9850   3.456   2.974   6.140 -0.5256  0.2533  0.4884
34907SOL    HW1 9851   3.431   2.960   6.049  0.1619 -3.8357  0.8532
34907SOL    HW2 9852   3.379   2.950   6.191  0.5036 -1.7157  1.1509
34908SOL     OW 9853   8.966   8.614  10.251 -0.1897 -0.2268  0.6898
34908SOL    HW1 9854   9.004   8.699  10.229  0.4057 -0.3673  1.1509
34908SOL    HW2 9855   8.930   8.581  10.169  0.7321 -0.1141  0.2440
34909SOL     OW 9856   6.704   4.227   3.914  0.0168 -0.3294  0.3025
34909SOL    HW1 9857   6.759   4.155   3.944 -0.3414 -0.0041  1.7625
34909SOL    HW2 9858   6.616   4.205   3.943 -0.4089 -0.1859 -0.8400
34910SOL     OW 9859  11.219  10.938   2.745  0.1904  0.4686 -0.3907
34910SOL    HW1 9860  11.300  10.908   2.787 -0.1739  1.0467  0.7715
34910SOL    HW2 9861  11.203  10.875   2.675 -0.6298 -2.1498  2.0483
34911SOL     OW 9862   0.576   7.502  11.022 -0.0258 -0.5431  0.1833
34911SOL    HW1 9863   0.541   7.453  11.096  1.8442 -1.0595  0.7431
34911SOL    HW2 9864   0.648   7.449  10.990  0.2807  0.5275 -0.9146
34912SOL     OW 9865   6.536   7.495   5.325  0.0814 -0.1244  0.1626
34912SOL    HW1 9866   6.526   7.543   5.243 -0.1912  0.6778  0.6598
34912SOL    HW2 9867   6.584   7.556   5.382  1.5426 -1.2184  0.1221
34913SOL     OW 9868  10.144   6.902   7.411 -0.1993  0.3316  0.1950
34913SOL    HW1 9869  10.223   6.927   7.459 -1.0342  0.7352  1.4067
34913SOL    HW2 9870  10.159   6.932   7.322  1.4649 -0.5950  0.1512
34914SOL     OW 9871   4.367   8.544   6.235 -0.2563  0.2979  0.3595
34914SOL    HW1 9872   4.373   8.459   6.192  0.1127  0.4682  0.0761
34914SOL    HW2 9873   4.448   8.589   6.212  0.7615 -0.2685  2.6725
34915SOL     OW 9874   9.633   1.178   0.466 -0.1117  0.2982 -0.3766
34915SOL    HW1 9875   9.580   1.211   0.539 -0.0099 -2.7844  1.1625
34915SOL    HW2 9876   9.688   1.110   0.505  0.9523 -0.4538 -3.0688
34916SOL     OW 9877   1.622   0.069   2.974  0.4921 -0.3835  0.1873
34916SOL    HW1 9878   1.665   0.070   3.059 -2.1520 -1.3261  1.5908
34916SOL    HW2 9879   1.664  -0.004   2.927  1.0635 -0.6927  1.1654
34917SOL     OW 9880  10.768   7.331   6.310 -0.1132  0.0977  0.3177
34917SOL    HW1 9881  10.818   7.407   6.339  1.1013 -1.1840  1.6450
34917SOL    HW2 9882  10.823   7.288   6.245 -0.5858  0.0537 -0.0646
34918SOL     OW 9883   9.529   0.584   0.611 -0.2997  0.5130 -0.6081
34918SOL    HW1 9884   9.487   0.666   0.587  1.6571  1.9795  0.7341
34918SOL    HW2 9885   9.617   0.590   0.573 -0.6082 -1.5825 -1.6906
34919SOL     OW 9886   0.808   6.499   5.208  0.6732 -0.0395  0.4536
34919SOL    HW1 9887   0.744   6.440   5.247  0.2351  0.3080  0.2741
34919SOL    HW2 9888   0.856   6.445   5.145  1.1743 -0.5224  1.2495
34920SOL     OW 9889   1.841   0.035   2.745  0.3197  0.1787  0.1137
34920SOL    HW1 9890   1.782  -0.038   2.763  0.8184 -0.8270 -2.1816
34920SOL    HW2 9891   1.923   0.012   2.789 -0.9171  1.5507  3.2570
34921SOL     OW 9892   7.419   7.242   9.540  0.1163 -0.1616 -0.2690
34921SOL    HW1 9893   7.369   7.194   9.606 -2.0044  0.8973 -1.0506
34921SOL    HW2 9894   7.354   7.294   9.493  1.9457  1.1953 -1.4102
34922SOL     OW 9895   3.514   1.454   1.069 -0.1024 -0.2052  0.1407
34922SOL    HW1 9896   3.582   1.389   1.087  0.1336  0.1664  0.6039
34922SOL    HW2 9897   3.559   1.523   1.021 -0.8696 -1.4968 -2.5253
34923SOL     OW 9898   2.045   8.129   5.436  0.3726 -0.5600  0.1127
34923SOL    HW1 9899   2.075   8.220   5.438  0.2357 -0.4716 -1.2268
34923SOL    HW2 9900   2.095   8.085   5.505  0.5132  0.5032  0.6943
34924SOL     OW 9901  10.426   5.677   7.877  0.5148 -0.1366  0.3115
34924SOL    HW1 9902  10.495   5.667   7.811 -0.6034  0.1624 -0.9083
34924SOL    HW2 9903  10.455   5.751   7.930  1.5233 -0.5138  0.3095
34925SOL     OW 9904   5.243   5.818   9.011 -0.0791 -0.0267 -0.3566
34925SOL    HW1 9905   5.217   5.803   8.920  2.1715  0.7061 -1.1615
34925SOL    HW2 9906   5.307   5.890   9.006 -0.5082  0.5475  1.8937
34926SOL     OW 9907   6.510   0.033   8.058  0.2588 -0.4599 -0.2754
34926SOL    HW1 9908   6.566  -0.041   8.078 -0.0665 -0.8033 -0.6305
34926SOL    HW2 9909   6.430  -0.006   8.023  0.2873  0.0761 -0.9484
34927SOL     OW 9910   7.240   5.101   5.201  0.1245 -0.2304 -0.1502
34927SOL    HW1 9911   7.329   5.077   5.227  0.2189  0.6403  0.3322
34927SOL    HW2 9912   7.240   5.197   5.200 -1.0293 -0.2162  0.6373
34928SOL     OW 9913  10.572   6.951   3.717  0.5965  0.6165  0.2411
34928SOL    HW1 9914  10.642   6.885   3.714  0.5165  0.5831 -1.4390
34928SOL    HW2 9915  10.492   6.900   3.729  0.5933  0.4473 -0.4811
34929SOL     OW 9916   1.868   2.473   1.022  0.4170 -0.0224 -0.1968
34929SOL    HW1 9917   1.896   2.384   1.040  0.2171 -0.0481 -0.0040
34929SOL    HW2 9918   1.827   2.502   1.103  1.0415  0.4640 -0.0577
34930SOL     OW 9919  10.686   6.823   4.657 -0.6788  0.3628 -0.0906
34930SOL    HW1 9920  10.648   6.759   4.716 -0.2357  0.6669  0.5295
34930SOL    HW2 9921  10.766   6.852   4.701 -0.7376  1.1398 -0.4896
34931SOL     OW 9922   6.032  10.380   3.084  0.6762  0.1122  0.0782
34931SOL    HW1 9923   5.966  10.449   3.070 -0.6522 -1.1293  0.1017
34931SOL    HW2 9924   6.116  10.425   3.073 -0.1817  1.4998 -1.0193
34932SOL     OW 9925   9.664   6.602   6.197  0.1379  0.0034 -0.4997
34932SOL    HW1 9926   9.652   6.534   6.263  1.1655  0.2747 -0.0154
34932SOL    HW2 9927   9.754   6.632   6.210  1.0705 -1.3726 -3.3443
34933SOL     OW 9928   4.031   2.229   7.487 -0.4881 -0.2839  0.4150
34933SOL    HW1 9929   3.997   2.218   7.576 -1.5236 -0.0921  0.0473
34933SOL    HW2 9930   3.954   2.252   7.434  0.3524  1.0833 -0.2482
34934SOL     OW 9931  11.327   0.549  10.489  0.2633 -0.1941  0.7820
34934SOL    HW1 9932  11.238   0.515  10.495  0.5599 -1.0266  0.5251
34934SOL    HW2 9933  11.338   0.571  10.397  0.4110 -0.3423  0.7641
34935SOL     OW 9934   7.308   5.702   7.079  0.0153  0.0063  0.0720
34935SOL    HW1 9935   7.218   5.669   7.074  0.3799 -1.7711  3.4750
34935SOL    HW2 9936   7.362   5.623   7.074  1.2613  0.7832  1.1232
34936SOL     OW 9937   9.465   7.970   7.436  0.7103  0.8776  0.0244
34936SOL    HW1 9938   9.442   8.053   7.393  2.7146  0.8120 -1.2565
34936SOL    HW2 9939   9.552   7.985   7.472 -0.1492  0.2782  2.4319
34937SOL     OW 9940   5.133   5.688   2.115 -0.3687 -0.0993 -0.3328
34937SOL    HW1 9941   5.052   5.724   2.150  0.0373  0.6730 -0.1577
34937SOL    HW2 9942   5.202   5.745   2.150  0.2961 -1.0505 -0.0558
34938SOL     OW 9943   9.556   9.540   0.934  0.1798  0.1240  0.3363
34938SOL    HW1 9944   9.545   9.447   0.952 -0.1322  0.0671 -0.1335
34938SOL    HW2 9945   9.547   9.583   1.019 -0.3654 -0.2158  0.4464
34939SOL     OW 9946   9.337   9.680   7.819 -0.0222 -0.0366 -0.1942
34939SOL    HW1 9947   9.388   9.713   7.745 -0.0511  2.2901  0.7872
34939SOL    HW2 9948   9.350   9.745   7.889 -1.0006 -1.5339  1.4355
34940SOL     OW 9949   3.979   0.194  10.567  0.1932 -0.1776 -0.2519
34940SOL    HW1 9950   3.897   0.165  10.609  1.0720 -0.2732  1.4340
34940SOL    HW2 9951   3.985   0.287  10.588  0.8559 -0.3231  0.2174
34941SOL     OW 9952   5.528   5.224   2.634  0.3661 -0.0563 -0.2038
34941SOL    HW1 9953   5.545   5.203   2.542  0.7939 -0.2583 -0.0814
34941SOL    HW2 9954   5.603   5.277   2.660  0.4521 -0.3491  0.1444
34942SOL     OW 9955   5.474   7.812   9.351  0.4801 -0.2568 -0.5395
34942SOL    HW1 9956   5.554   7.782   9.395  0.5898  2.2448  1.0078
34942SOL    HW2 9957   5.505   7.849   9.268  0.8027 -0.1802 -0.3839
34943SOL     OW 9958   5.587  10.394   0.246 -0.0653  0.1895 -0.6554
34943SOL    HW1 9959   5.518  10.424   0.186 -2.3640 -0.5196  1.5388
34943SOL    HW2 9960   5.589  10.299   0.235 -0.6915  0.0224  0.5202
34944SOL     OW 9961   4.100   4.704   4.248 -0.3254  0.2864  0.4818
34944SOL    HW1 9962   4.137   4.653   4.320 -1.9214 -1.2482  0.2612
34944SOL    HW2 9963   4.042   4.642   4.203 -2.5666  2.4118  0.3781
34945SOL     OW 9964   3.488   0.164   6.805  0.1419  0.2326  0.1117
34945SOL    HW1 9965   3.539   0.180   6.885 -0.9621  0.1602  0.8403
34945SOL    HW2 9966   3.553   0.134   6.741  0.9993  0.0566  1.0478
34946SOL     OW 9967   7.989   4.604  11.081  0.2922 -0.4799  0.2922
34946SOL    HW1 9968   7.901   4.626  11.049  0.0021 -2.6852 -0.5528
34946SOL    HW2 9969   8.042   4.681  11.061 -0.8916 -0.0892 -1.5197
34947SOL     OW 9970   9.134   1.149   5.700  0.3982 -0.1727 -0.0613
34947SOL    HW1 9971   9.126   1.092   5.624  0.7082 -0.1206 -0.1343
34947SOL    HW2 9972   9.228   1.155   5.716  0.3557  0.1516  0.0733
34948SOL     OW 9973   5.220   5.346   4.890  0.3846 -0.0626 -0.4399
34948SOL    HW1 9974   5.291   5.341   4.826 -0.9543 -0.3829 -1.9203
34948SOL    HW2 9975   5.151   5.395   4.846 -0.5705 -0.3015  0.7537
34949SOL     OW 9976   1.326   1.678   6.699 -0.1743  1.2024  0.1226
34949SOL    HW1 9977   1.249   1.708   6.651  0.2885  0.6066 -1.0117
34949SOL    HW2 9978   1.386   1.752   6.698 -1.7339  2.6298  3.3178
34950SOL     OW 9979   5.835   1.287   7.703  0.0448 -0.1794 -0.1188
34950SOL    HW1 9980   5.918   1.301   7.659  0.2710 -1.0625  0.0206
34950SOL    HW2 9981   5.787   1.227   7.645 -1.3965  2.0165 -1.3226
34951SOL     OW 9982   9.386   7.626   0.765 -0.3420 -0.0883  0.0865
34951SOL    HW1 9983   9.460   7.637   0.705  0.2215 -0.4776  0.7056
34951SOL    HW2 9984   9.366   7.532   0.762 -0.4902 -0.0649  0.2922
34952SOL     OW 9985   1.676   9.652   4.734  0.2424  0.6298  0.1852
34952SOL    HW1 9986   1.746   9.715   4.720 -0.0029  0.4468 -2.1378
34952SOL    HW2 9987   1.596   9.698   4.709  0.0023 -0.3887 -1.0051
34953SOL     OW 9988   2.903   3.462  10.722  0.3427 -0.4196  0.0789
34953SOL    HW1 9989   2.864   3.472  10.635 -0.4634 -1.9225  0.2304
34953SOL    HW2 9990   2.869   3.536  10.772 -0.8813 -0.6959 -0.3108
34954SOL     OW 9991   0.075   8.964   7.574 -0.0537 -0.3437  0.2072
34954SOL    HW1 9992   0.069   8.932   7.664 -0.0837 -2.8695 -0.6452
34954SOL    HW2 9993  -0.016   8.980   7.548 -0.0997 -0.3265  0.3820
34955SOL     OW 9994   2.710   9.353   3.674 -0.5135  0.6778  0.0387
34955SOL    HW1 9995   2.624   9.385   3.649 -1.5422 -0.4179  2.0203
34955SOL    HW2 9996   2.702   9.257   3.670  1.2611  0.5882 -1.8378
34956SOL     OW 9997   6.017  10.519   5.139 -0.1019 -0.0603  0.4083
34956SOL    HW1 9998   6.023  10.453   5.070 -0.5958 -0.1905  0.4836
34956SOL    HW2 9999   6.082  10.493   5.204 -1.2237 -1.2395  1.0764
34957SOL     OW10000   0.422   6.495   9.000 -0.1470  0.0207  0.1641
34957SOL    HW110001   0.442   6.583   8.968 -2.3860  1.1968  1.8676
34957SOL    HW210002   0.402   6.445   8.921  1.1061  1.0064 -0.8195
34958SOL     OW10003   6.202   7.592   8.282 -0.2927  0.2525  0.3973
34958SOL    HW110004   6.196   7.569   8.375 -0.5708 -2.2908 -0.2141
34958SOL    HW210005   6.293   7.575   8.259 -1.0130 -2.5872 -0.6007
34959SOL     OW10006   1.800   3.772  10.006 -0.0074 -0.0572  0.4635
34959SOL    HW110007   1.722   3.760  10.060  0.3391 -1.6046  0.6342
34959SOL    HW210008   1.836   3.684   9.996  2.4296  0.8115  1.4458
34960SOL     OW10009   6.708   5.424   3.637 -0.0776 -0.0042 -0.4650
34960SOL    HW110010   6.707   5.357   3.569  0.5585 -0.2600 -0.2205
34960SOL    HW210011   6.797   5.458   3.636 -0.1267  0.1425  0.0885
34961SOL     OW10012   5.732   1.583   1.131 -0.2412  0.5000 -0.2546
34961SOL    HW110013   5.781   1.527   1.071  0.1817  1.7267 -1.0626
34961SOL    HW210014   5.781   1.665   1.133 -0.4316  0.5942  1.5137
34962SOL     OW10015   0.292   0.900   2.847 -0.1647 -0.6242 -0.4264
34962SOL    HW110016   0.376   0.857   2.832  0.5493  1.2446 -2.0153
34962SOL    HW210017   0.288   0.912   2.942  2.6147  1.6051 -0.5122
34963SOL     OW10018   5.486   4.453   2.424 -0.1753  0.6288  0.4482
34963SOL    HW110019   5.487   4.362   2.395 -0.1867  1.6021 -2.7750
34963SOL    HW210020   5.417   4.457   2.490 -0.3128 -1.6162  0.4776
34964SOL     OW10021   6.050   8.510   3.709  0.5633  0.3609 -0.7044
34964SOL    HW110022   6.046   8.544   3.798 -0.4066  0.9580 -0.9655
34964SOL    HW210023   6.078   8.419   3.719  0.4569  0.4217  0.2067
34965SOL     OW10024   5.045   7.740   4.163 -0.1861  0.3568 -0.5299
34965SOL    HW110025   5.118   7.763   4.222  0.1845 -2.2787  0.1059
34965SOL    HW210026   5.087   7.723   4.079 -0.0625 -1.0779 -0.1848
34966SOL     OW10027   3.820   9.973   2.092 -0.9341  0.1768 -0.1311
34966SOL    HW110028   3.845  10.011   2.008 -2.8563  0.4257 -0.6161
34966SOL    HW210029   3.822   9.879   2.078  2.5995  0.0783  0.7072
34967SOL     OW10030   5.750   5.752   6.519 -0.0504  0.4295  0.4399
34967SOL    HW110031   5.814   5.764   6.590  1.4008 -0.3917 -0.7108
34967SOL    HW210032   5.687   5.823   6.532 -0.0320  0.0607  2.7888
34968SOL     OW10033   2.861   2.341   3.795 -0.5813  0.2621  0.4369
34968SOL    HW110034   2.767   2.361   3.791 -0.6466 -0.1042  0.0428
34968SOL    HW210035   2.877   2.317   3.886 -1.0031 -0.2892  0.3713
34969SOL     OW10036   4.746   8.442   9.605  0.0760 -0.1855 -0.0008
34969SOL    HW110037   4.710   8.425   9.519 -0.8349  1.9441 -0.0809
34969SOL    HW210038   4.674   8.483   9.654  0.7848 -0.7251  1.5308
34970SOL     OW10039   9.875   6.249   0.832  0.6506  0.1112 -0.2224
34970SOL    HW110040   9.900   6.335   0.866 -0.1231  0.9002 -1.5802
34970SOL    HW210041   9.783   6.240   0.856  0.0711  0.7161 -2.1056
34971SOL     OW10042   3.025   4.655   7.666  0.3777  0.5284 -0.5732
34971SOL    HW110043   2.949   4.676   7.612 -1.0032  0.1456  1.1523
34971SOL    HW210044   3.099   4.690   7.618 -0.7635  0.0156 -2.8173
34972SOL     OW10045   8.171   6.401   9.385  0.2017 -0.4382 -0.4564
34972SOL    HW110046   8.124   6.330   9.429  0.4537 -1.3568 -1.6434
34972SOL    HW210047   8.136   6.401   9.296 -0.2053  1.3186 -0.3199
34973SOL     OW10048   4.241   3.276  10.382 -0.2859  0.2908  0.0245
34973SOL    HW110049   4.327   3.293  10.343  0.1577  0.4222  1.0349
34973SOL    HW210050   4.258   3.273  10.476 -1.3637  0.1387  0.2192
34974SOL     OW10051   1.516   7.373   0.856  0.1568  0.0386  0.0505
34974SOL    HW110052   1.551   7.296   0.901 -1.9639 -1.7497 -1.2447
34974SOL    HW210053   1.584   7.398   0.793  0.7182 -1.0034  0.2416
34975SOL     OW10054   8.470   4.304   5.129  0.6048  0.2685  0.6015
34975SOL    HW110055   8.414   4.319   5.053  1.5107  0.1833 -0.0841
34975SOL    HW210056   8.411   4.315   5.204 -0.3996 -0.1233 -0.1182
34976SOL     OW10057   9.740   0.200   6.771 -0.4303  0.5598 -0.2258
34976SOL    HW110058   9.757   0.282   6.725  0.5000  0.0930 -0.7291
34976SOL    HW210059   9.822   0.151   6.764 -0.9574 -0.3906  0.1191
34977SOL     OW10060   3.596   8.922   0.821  0.6039  0.0167  0.4053
34977SOL    HW110061   3.688   8.948   0.814  0.5394  0.8967  2.3655
34977SOL    HW210062   3.572   8.943   0.912 -1.8090  0.7048 -0.3401
34978SOL     OW10063   2.444   6.274   9.357  0.2372  0.1826  0.0157
34978SOL    HW110064   2.436   6.179   9.363  1.3829  0.0177 -0.7657
34978SOL    HW210065   2.452   6.304   9.448 -0.1677 -0.4581  0.2654
34979SOL     OW10066   0.986   2.479   1.728 -0.1209  0.0168 -0.7207
34979SOL    HW110067   0.986   2.571   1.752  2.2829  0.2206 -1.4189
34979SOL    HW210068   1.000   2.479   1.633  3.0955 -1.1200 -0.3049
34980SOL     OW10069   2.031   3.057   7.690  0.0098  0.2977 -0.4985
34980SOL    HW110070   2.102   3.121   7.697  1.3387 -1.2718  1.0709
34980SOL    HW210071   2.020   3.043   7.596 -0.2068  2.6882 -0.8684
34981SOL     OW10072   6.862   4.037  10.297  0.2545 -0.0180  0.0687
34981SOL    HW110073   6.807   4.087  10.236 -1.5220 -0.8660  0.9481
34981SOL    HW210074   6.864   4.090  10.377 -0.0938 -0.4677  0.3753
34982SOL     OW10075   6.056   7.388   3.721 -0.1785 -0.4801  0.1789
34982SOL    HW110076   5.968   7.350   3.715  0.1785 -0.9551 -2.6010
34982SOL    HW210077   6.042   7.482   3.713 -0.7166 -0.2252  3.3591
34983SOL     OW10078   0.727   3.969   3.443  0.7546  0.7270  0.7380
34983SOL    HW110079   0.733   4.048   3.498 -0.6596  1.5694 -0.2767
34983SOL    HW210080   0.786   3.987   3.369  0.4718  0.8150  0.5330
34984SOL     OW10081   8.101   8.925   4.186 -0.4526 -0.4586  0.6259
34984SOL    HW110082   8.037   8.910   4.117  0.0831 -3.6290  0.7461
34984SOL    HW210083   8.120   8.838   4.221  1.3831  0.7802  2.8899
34985SOL     OW10084   0.756   5.952   8.711  0.1941  0.0083  0.0803
34985SOL    HW110085   0.679   5.945   8.654 -0.5916  1.6741  0.9358
34985SOL    HW210086   0.743   6.032   8.761  2.7166  0.5521 -0.0833
34986SOL     OW10087   0.700   5.069  10.662  0.2758  0.0424 -0.8540
34986SOL    HW110088   0.738   5.140  10.714  1.1782 -0.2097 -1.1721
34986SOL    HW210089   0.624   5.040  10.713  2.6358 -1.9882  1.6754
34987SOL     OW10090   8.163   0.948   9.919  0.0614 -0.3703 -0.7727
34987SOL    HW110091   8.160   1.008   9.994 -0.4504  0.0631 -1.1373
34987SOL    HW210092   8.200   0.867   9.955  0.6212  0.1111 -0.2437
34988SOL     OW10093   7.075   4.488   3.744  0.0903  0.1315 -0.5250
34988SOL    HW110094   6.993   4.440   3.749  1.1744 -1.8676 -1.3078
34988SOL    HW210095   7.121   4.450   3.669  1.3733  1.7963 -0.6285
34989SOL     OW10096   4.189   0.362   4.777 -0.0185 -0.4151  0.5346
34989SOL    HW110097   4.099   0.327   4.777 -0.3713  0.4132  2.4148
34989SOL    HW210098   4.177   0.457   4.783  0.9881 -0.2269 -0.3339
34990SOL     OW10099   0.391   9.919   4.740  0.0067  0.1441  0.1691
34990SOL    HW110100   0.401   9.966   4.822 -1.3352 -0.1367  0.5097
34990SOL    HW210101   0.433   9.975   4.675  0.2998  0.7876  0.9104
34991SOL     OW10102  10.332   2.028   3.527  0.1583  1.0829  0.3944
34991SOL    HW110103  10.350   1.955   3.586 -0.7866  0.3564 -0.2028
34991SOL    HW210104  10.373   2.103   3.569 -1.6548  0.8513  2.6943
34992SOL     OW10105   2.703   8.241   1.532 -0.2359 -0.5752  0.3604
34992SOL    HW110106   2.697   8.168   1.470  0.0986 -1.1764  1.0264
34992SOL    HW210107   2.774   8.217   1.590  0.9267  1.0300 -0.3605
34993SOL     OW10108   4.163  10.119   2.954  0.0160 -0.2583 -0.6795
34993SOL    HW110109   4.140  10.107   2.862  1.1542 -0.4536 -0.9443
34993SOL    HW210110   4.154  10.031   2.992 -0.7747 -0.1161 -0.5200
34994SOL     OW10111   1.225   6.368   9.515  0.3092 -0.2482 -0.4294
34994SOL    HW110112   1.296   6.422   9.550  1.4339 -1.5998 -0.5848
34994SOL    HW210113   1.151   6.428   9.508  0.5604  0.5087  2.5537
34995SOL     OW10114   6.686   2.499   8.530  0.1310 -0.1117 -0.0593
34995SOL    HW110115   6.603   2.530   8.566 -0.6491 -1.8224 -0.3358
34995SOL    HW210116   6.666   2.477   8.439  0.5135 -1.9647  0.2922
34996SOL     OW10117   9.963  11.083   6.818 -0.5136  0.0191 -0.2165
34996SOL    HW110118   9.916  11.000   6.808  0.3478 -0.4023 -0.9262
34996SOL    HW210119   9.935  11.117   6.902 -1.3848 -0.6764 -0.2181
34997SOL     OW10120   4.312   4.138   5.116  0.5602  0.3603  0.1646
34997SOL    HW110121   4.398   4.117   5.080  1.4258  0.3764  2.1294
34997SOL    HW210122   4.307   4.234   5.111 -0.0459  0.2650 -1.4341
34998SOL     OW10123   7.370   0.232   9.501  0.0005 -0.1599 -0.2238
34998SOL    HW110124   7.404   0.243   9.589 -0.1926 -0.5531 -0.0965
34998SOL    HW210125   7.303   0.300   9.492 -0.2366 -0.3578  0.0634
34999SOL     OW10126   1.965   7.206   1.147 -0.3436 -0.3129 -0.4719
34999SOL    HW110127   2.045   7.259   1.145 -0.7386  0.2937 -0.5677
34999SOL    HW210128   1.963   7.162   1.062 -1.1605  1.2696 -1.2880
35000SOL     OW10129   7.016  11.212  10.760  0.4852  0.5345  0.2665
35000SOL    HW110130   6.929  11.243  10.787 -0.2175 -1.9345  0.9795
35000SOL    HW210131   7.059  11.188  10.842  0.5974 -1.3185 -0.3029
35001SOL     OW10132   2.737   0.493   4.400 -0.1069  0.2405  0.0959
35001SOL    HW110133   2.804   0.499   4.332 -0.0674 -0.8362  0.0455
35001SOL    HW210134   2.697   0.580   4.400 -1.2385 -0.2277 -2.4444
35002SOL     OW10135   2.009  11.162  11.320  0.4793 -0.4873  0.1565
35002SOL    HW110136   2.071  11.208  11.378  0.8140 -1.4383  0.5553
35002SOL    HW210137   2.030  11.070  11.331  0.5097 -0.6833 -1.4540
35003SOL     OW10138   3.717   4.591  10.160 -0.1764  0.2777  0.0097
35003SOL    HW110139   3.704   4.516  10.102 -0.4538 -0.2509  0.7395
35003SOL    HW210140   3.669   4.568  10.240  1.6055  0.2130  1.1068
35004SOL     OW10141  11.051   7.203   0.342  0.1622 -0.5042  0.3966
35004SOL    HW110142  10.968   7.220   0.298  0.1702 -0.9913  0.1931
35004SOL    HW210143  11.027   7.149   0.417  0.1639  0.2392  0.9332
35005SOL     OW10144   7.913   2.057   7.452 -0.0995 -0.0188 -0.2027
35005SOL    HW110145   7.857   2.027   7.381  0.1945 -3.1370  0.8206
35005SOL    HW210146   7.856   2.058   7.529  0.6446 -0.9790  0.3772
35006SOL     OW10147   9.095   8.051   5.370  0.3933  0.4079 -0.1992
35006SOL    HW110148   9.078   8.020   5.281 -1.7411 -1.8336  0.9285
35006SOL    HW210149   9.182   8.016   5.391 -0.7714 -2.4588  0.0003
35007SOL     OW10150   0.268   7.372   6.721 -0.3008  0.1412  0.2216
35007SOL    HW110151   0.266   7.277   6.711 -4.2530  0.1179  0.5145
35007SOL    HW210152   0.286   7.405   6.633  1.4288 -0.8344  0.1808
35008SOL     OW10153   5.590   7.942   0.189 -0.3187 -0.1916  0.2032
35008SOL    HW110154   5.546   7.858   0.173 -0.8107  0.1367 -0.2019
35008SOL    HW210155   5.682   7.925   0.171 -0.4537 -0.5863 -0.1366
35009SOL     OW10156   4.006   8.318  10.844  0.2037  0.5227  0.5747
35009SOL    HW110157   4.006   8.260  10.920 -0.4786 -0.3930 -0.1076
35009SOL    HW210158   3.974   8.263  10.772  1.7900  1.0848 -0.5873
35010SOL     OW10159   3.777   8.904  11.299  0.3081  0.0222 -0.3400
35010SOL    HW110160   3.865   8.876  11.275  0.6007 -0.4737  1.2034
35010SOL    HW210161   3.731   8.822  11.318 -0.4406  0.2866 -1.0058
35011SOL     OW10162   8.955   0.950  10.201  0.8003  0.2183  0.4007
35011SOL    HW110163   8.991   1.038  10.196 -1.4534  1.1153 -0.9299
35011SOL    HW210164   8.876   0.958  10.253  1.7817 -1.4831  2.2323
35012SOL     OW10165  11.034   3.923   5.041 -0.4550  0.0133 -0.2667
35012SOL    HW110166  10.993   4.007   5.064  0.8893  0.5157  0.3977
35012SOL    HW210167  11.127   3.943   5.037 -0.1962 -1.2876 -0.9000
35013SOL     OW10168   1.875  11.267   3.741  0.1285  0.7916  0.1206
35013SOL    HW110169   1.945  11.323   3.775 -1.0669  1.1556  2.1278
35013SOL    HW210170   1.811  11.264   3.813 -0.8317 -1.4012 -0.7952
35014SOL     OW10171   0.674   4.825   7.176  0.0553 -0.0906  0.0863
35014SOL    HW110172   0.710   4.885   7.242 -1.5548  0.9868 -0.0033
35014SOL    HW210173   0.709   4.858   7.093 -0.2116  0.2785  0.1173
35015SOL     OW10174   9.687   0.052   7.773  0.0575 -0.0501  0.2174
35015SOL    HW110175   9.748   0.125   7.765  1.1100 -1.0163 -0.5522
35015SOL    HW210176   9.631   0.058   7.696 -0.6858  0.6818  0.7947
35016SOL     OW10177   9.048   7.624   7.446  0.2489  0.2794 -0.0813
35016SOL    HW110178   8.990   7.657   7.514  1.5372 -0.1562  1.2565
35016SOL    HW210179   9.063   7.699   7.388 -1.4241  0.4625 -0.3112
35017SOL     OW10180   3.867  10.252   2.795 -0.5061  0.1860 -0.0440
35017SOL    HW110181   3.923  10.188   2.753  0.7786  1.5229 -0.4171
35017SOL    HW210182   3.779  10.214   2.791 -0.1048 -0.5996 -2.1811
35018SOL     OW10183   8.814  11.052   5.474 -0.1761 -0.1392 -0.4149
35018SOL    HW110184   8.737  10.997   5.459  0.7945 -1.2405 -1.4547
35018SOL    HW210185   8.849  11.069   5.386 -0.5585  2.2921 -0.1293
35019SOL     OW10186  10.845   7.961   5.986  0.5650  0.2445 -0.8000
35019SOL    HW110187  10.939   7.946   5.995  0.4032 -0.5165 -0.3153
35019SOL    HW210188  10.814   7.973   6.076  0.0959 -0.1496 -0.9065
35020SOL     OW10189   8.526   0.715   6.558  0.1682 -0.1819 -0.4768
35020SOL    HW110190   8.620   0.729   6.544  0.5731  0.8371  2.9311
35020SOL    HW210191   8.518   0.622   6.577  0.3755 -0.4010 -1.4226
35021SOL     OW10192   0.942  10.539   4.437  0.1434 -0.4160  0.0332
35021SOL    HW110193   0.899  10.592   4.505  0.1618 -0.9597  0.4812
35021SOL    HW210194   1.035  10.543   4.459  0.2090 -0.1034 -0.3116
35022SOL     OW10195   7.340   8.736   3.212 -0.2278  0.2995 -0.5017
35022SOL    HW110196   7.275   8.804   3.196 -0.0568  0.2737 -1.3222
35022SOL    HW210197   7.424   8.777   3.191 -0.0906 -0.0365 -0.6204
35023SOL     OW10198   5.287   4.314   4.780 -0.6507 -0.0109 -0.1534
35023SOL    HW110199   5.263   4.362   4.700  1.4715 -0.1968 -0.9135
35023SOL    HW210200   5.251   4.227   4.767 -2.4534  0.6529  0.1924
35024SOL     OW10201   1.719  10.046   7.806  0.0506  0.0880 -0.0255
35024SOL    HW110202   1.638  10.069   7.853 -1.0600  0.2696 -1.9841
35024SOL    HW210203   1.763  10.129   7.791 -1.7169  0.5281 -3.0651
35025SOL     OW10204   7.119   1.879   2.495 -0.5109 -0.1257  0.2670
35025SOL    HW110205   7.202   1.831   2.490 -0.1700  0.5032 -0.1251
35025SOL    HW210206   7.097   1.898   2.404 -0.6251  0.4900  0.4238
35026SOL     OW10207   3.201   0.482   9.442 -0.0398 -0.0300 -0.3036
35026SOL    HW110208   3.140   0.554   9.455  0.6018  0.4979 -0.1957
35026SOL    HW210209   3.183   0.451   9.353  0.7944  1.3356 -0.9678
35027SOL     OW10210   0.991   6.479   9.367  0.2290  0.7008 -0.1740
35027SOL    HW110211   0.906   6.476   9.322  0.1996 -0.1565 -0.0782
35027SOL    HW210212   1.052   6.441   9.304  0.1962 -0.4523  0.4663
35028SOL     OW10213   2.075  10.327   1.906 -0.1609 -0.2762  0.3391
35028SOL    HW110214   2.034  10.247   1.875  1.4148 -1.0029  0.0958
35028SOL    HW210215   2.070  10.322   2.002 -1.7002  0.2256  0.3065
35029SOL     OW10216   1.882   7.232   5.858  0.4526 -0.3460  0.3132
35029SOL    HW110217   1.848   7.195   5.776 -1.6265  0.7128  0.6344
35029SOL    HW210218   1.888   7.158   5.917  2.0326 -1.1367 -0.8088
35030SOL     OW10219   1.770   0.040   8.066 -0.1391  0.8267  0.0508
35030SOL    HW110220   1.837   0.057   7.999  0.5074  1.7285  0.8972
35030SOL    HW210221   1.700  -0.004   8.019  1.9639 -2.1563 -0.4288
35031SOL     OW10222   9.753   8.715   8.944  0.3109  0.2107 -0.1579
35031SOL    HW110223   9.691   8.671   8.886 -1.8930  1.6231  1.0745
35031SOL    HW210224   9.738   8.808   8.929  0.9312  0.5767  1.4180
35032SOL     OW10225   3.043   6.747   9.336 -0.0325  0.0120  0.1271
35032SOL    HW110226   3.084   6.792   9.261 -0.6645 -0.1815 -0.3413
35032SOL    HW210227   2.964   6.798   9.354 -2.0830 -2.3090 -2.0077
35033SOL     OW10228   1.161   1.290  10.138  0.6343 -0.1022 -0.0951
35033SOL    HW110229   1.195   1.369  10.179  1.2386  0.1193 -1.0019
35033SOL    HW210230   1.181   1.219  10.199  1.7654  0.1837 -0.1405
35034SOL     OW10231   9.809   8.353   2.348 -0.4723 -0.1281 -0.2408
35034SOL    HW110232   9.833   8.434   2.392 -0.0869 -0.8576  0.9181
35034SOL    HW210233   9.892   8.308   2.334 -0.8508 -1.2869  1.0777
35035SOL     OW10234   7.011   1.413   6.539  0.4095 -0.4927  0.9993
35035SOL    HW110235   7.037   1.386   6.627  1.5280 -1.8281  0.2771
35035SOL    HW210236   6.966   1.337   6.503  1.6133 -0.6419 -0.2532
35036SOL     OW10237  11.269   0.022   7.423  0.2749  0.6127  0.1414
35036SOL    HW110238  11.357   0.057   7.428  0.2151  0.5458  1.9193
35036SOL    HW210239  11.212   0.094   7.452  0.0185 -0.3668  2.1299
35037SOL     OW10240   7.338  10.837  11.162 -0.1892  0.2006 -0.6785
35037SOL    HW110241   7.433  10.846  11.173 -0.3840  1.4519  0.0706
35037SOL    HW210242   7.301  10.876  11.241 -1.3182 -0.7833 -0.7144
35038SOL     OW10243  11.049   2.953   2.268 -0.0945 -0.0261  0.4820
35038SOL    HW110244  11.099   2.931   2.189  0.6306  0.1718  0.8873
35038SOL    HW210245  11.038   3.048   2.264  0.0951  0.0047  0.7128
35039SOL     OW10246   5.865   0.238   2.464  0.4049  0.4098 -0.3156
35039SOL    HW110247   5.946   0.283   2.439  1.0124  1.0623  2.6455
35039SOL    HW210248   5.838   0.281   2.545 -1.3529 -1.7457  0.2833
35040SOL     OW10249   8.565   2.308   7.861  0.1220  0.5324 -0.3985
35040SOL    HW110250   8.585   2.397   7.831 -0.8648 -0.0108 -2.7486
35040SOL    HW210251   8.650   2.266   7.871  0.5501  1.4254 -0.1924
35041SOL     OW10252   1.160   8.876   0.222 -0.1058  0.5201 -0.0038
35041SOL    HW110253   1.087   8.839   0.271  0.4727 -1.5614 -0.6459
35041SOL    HW210254   1.132   8.871   0.130  0.2804  1.0066 -0.1489
35042SOL     OW10255   9.145   8.800   2.628 -0.0009 -0.1342 -0.5482
35042SOL    HW110256   9.058   8.819   2.594 -0.0754 -2.0371 -1.4721
35042SOL    HW210257   9.205   8.828   2.558  0.0458 -0.3333 -0.5887
35043SOL     OW10258   4.766   3.865   1.432 -0.4736 -0.1023 -0.3422
35043SOL    HW110259   4.818   3.934   1.474  0.7744 -1.1605 -0.0989
35043SOL    HW210260   4.679   3.903   1.423 -0.2793  0.8512  1.4808
35044SOL     OW10261   2.715   1.592   7.043  0.5312 -0.0086  0.7188
35044SOL    HW110262   2.662   1.603   6.964 -0.9836 -1.5470  1.5101
35044SOL    HW210263   2.799   1.632   7.020 -0.3979  0.9606 -1.1261
35045SOL     OW10264   3.524   0.338   4.295  0.1129  0.0360 -0.1380
35045SOL    HW110265   3.567   0.401   4.236 -2.1146 -0.0877 -1.9708
35045SOL    HW210266   3.596   0.301   4.346  2.1744  0.1490 -2.7933
35046SOL     OW10267   7.531   0.486   0.477 -0.2935  0.5071  0.3907
35046SOL    HW110268   7.618   0.464   0.443 -0.3169  0.7931  0.1403
35046SOL    HW210269   7.537   0.579   0.499 -0.6191  0.5986  0.1049
35047SOL     OW10270   4.008   3.172   8.806 -0.5126  0.1114  0.1720
35047SOL    HW110271   3.916   3.193   8.819 -0.5175  0.6874 -0.7969
35047SOL    HW210272   4.008   3.084   8.770 -0.6423 -0.2497  1.0464
35048SOL     OW10273   3.448   0.290   5.694  0.4092  0.2111 -0.3399
35048SOL    HW110274   3.482   0.229   5.759 -1.9116  0.7387  1.4354
35048SOL    HW210275   3.358   0.261   5.678 -0.3400  2.4366 -0.3430
35049SOL     OW10276   2.321   7.210   6.529  0.4481  0.4764  0.0707
35049SOL    HW110277   2.256   7.181   6.465  0.8917  1.2295 -0.7412
35049SOL    HW210278   2.269   7.248   6.600 -0.1291 -2.1344  1.0970
35050SOL     OW10279   9.353   4.194   9.388  0.2438 -0.9902 -0.0836
35050SOL    HW110280   9.415   4.267   9.377 -2.0736  1.0210 -0.1927
35050SOL    HW210281   9.329   4.197   9.481 -0.0590 -1.4696 -0.1442
35051SOL     OW10282   8.396   3.104   9.626  0.0299  0.3306  0.3184
35051SOL    HW110283   8.428   3.193   9.637 -2.0328  0.9119  2.0210
35051SOL    HW210284   8.444   3.053   9.692  1.8366 -0.0341 -1.2254
35052SOL     OW10285   2.977   0.564   7.049  0.1003  0.3927  0.0513
35052SOL    HW110286   2.973   0.659   7.040  0.3265  0.5250  1.2173
35052SOL    HW210287   3.055   0.538   7.000 -1.5977  0.4531 -2.8072
35053SOL     OW10288   4.509   3.149   2.049 -0.0628 -0.2229  0.3176
35053SOL    HW110289   4.510   3.099   1.967 -0.2215  0.0332  0.1586
35053SOL    HW210290   4.436   3.113   2.099 -0.6829  0.3878 -0.1347
35054SOL     OW10291   4.988   2.940  10.519 -0.1224  0.7765 -0.5215
35054SOL    HW110292   5.045   2.883  10.466 -0.4778 -2.3928  2.3265
35054SOL    HW210293   4.901   2.929  10.481 -0.1692 -0.5955 -0.0762
35055SOL     OW10294   9.947   2.512   0.436 -0.0632 -0.0584 -0.2714
35055SOL    HW110295  10.011   2.443   0.419 -1.2269 -1.0234 -0.8443
35055SOL    HW210296   9.996   2.580   0.482  1.0368 -1.3842  0.5343
35056SOL     OW10297   5.377   7.752  10.015 -0.1009  0.2827 -0.4103
35056SOL    HW110298   5.358   7.672   9.966 -1.5213  0.6944 -0.5594
35056SOL    HW210299   5.431   7.805   9.956  0.3072 -0.2974 -0.5551
35057SOL     OW10300  10.714   4.805   6.052 -0.5243  0.6970 -0.2841
35057SOL    HW110301  10.726   4.890   6.096 -0.9602  0.7191 -0.1948
35057SOL    HW210302  10.684   4.747   6.122 -1.7094  0.8594 -0.6479
35058SOL     OW10303   8.485   4.427   7.917 -0.0064 -0.1848  0.3555
35058SOL    HW110304   8.521   4.396   8.000 -0.4310 -0.8369  0.3022
35058SOL    HW210305   8.410   4.481   7.943 -0.6368 -1.0555  0.3775
35059SOL     OW10306   9.494   1.739   2.041  0.1074  0.3882  0.3315
35059SOL    HW110307   9.523   1.666   2.095  0.8527 -1.7555 -2.8399
35059SOL    HW210308   9.535   1.816   2.080  0.5866 -1.0712  2.7926
35060SOL     OW10309   2.591   1.280   8.554  0.2452 -0.1047 -0.1629
35060SOL    HW110310   2.556   1.325   8.631  1.1131  0.8305 -0.3135
35060SOL    HW210311   2.534   1.307   8.483  1.1884  1.3328 -0.3870
35061SOL     OW10312   4.076   1.945   0.721  0.1086 -0.1771 -0.2838
35061SOL    HW110313   4.089   1.872   0.781  1.4949  0.2538 -0.0495
35061SOL    HW210314   3.994   1.986   0.750 -0.7089 -1.6741 -0.4636
35062SOL     OW10315   2.236   7.218   0.156  0.1515  0.2733 -0.4789
35062SOL    HW110316   2.308   7.214   0.219  0.1064  0.0030 -0.4442
35062SOL    HW210317   2.163   7.254   0.205  0.5945  1.6595 -0.8214
35063SOL     OW10318   8.538   9.481   5.944  0.6400 -0.2661 -0.2327
35063SOL    HW110319   8.473   9.499   5.877 -1.4808 -1.3104  1.4948
35063SOL    HW210320   8.561   9.567   5.979  0.2252  0.1149 -0.8884
35064SOL     OW10321   0.350   4.592   9.376  0.3147 -0.1163 -0.3461
35064SOL    HW110322   0.384   4.678   9.353 -1.2592  0.6870  0.2295
35064SOL    HW210323   0.313   4.603   9.464  0.2209 -1.4162 -0.2006
35065SOL     OW10324   6.980   9.460   3.933  0.7367 -0.5173 -0.4164
35065SOL    HW110325   6.909   9.452   3.870 -0.9756  0.3777  1.3671
35065SOL    HW210326   6.971   9.384   3.990  0.9019 -0.1450  0.1146
35066SOL     OW10327  10.308   5.558   2.866  0.1251 -0.4968  0.0533
35066SOL    HW110328  10.377   5.616   2.899 -0.1140 -0.0285 -0.2624
35066SOL    HW210329  10.279   5.599   2.785 -0.3308 -0.8440  0.0381
35067SOL     OW10330   4.455   1.377  10.175 -0.0387 -0.3190 -0.4770
35067SOL    HW110331   4.372   1.353  10.133 -1.1919  2.0408  0.3343
35067SOL    HW210332   4.473   1.465  10.143  1.4249 -0.2739  0.4486
35068SOL     OW10333   3.572   1.393   5.182  0.1437 -0.2149 -0.1112
35068SOL    HW110334   3.638   1.429   5.240 -0.0604 -0.0841  0.0425
35068SOL    HW210335   3.559   1.303   5.212 -0.1496 -0.0647  0.2102
35069SOL     OW10336   8.698   4.369  10.344  0.0504  0.3999  0.1005
35069SOL    HW110337   8.738   4.416  10.417  1.2665  0.5021 -0.6315
35069SOL    HW210338   8.769   4.318  10.306 -1.0870 -1.4672  0.4245
35070SOL     OW10339   1.832   3.138   0.129  0.0730 -0.1091  0.4919
35070SOL    HW110340   1.800   3.120   0.218  1.0582 -1.3766  0.6041
35070SOL    HW210341   1.883   3.219   0.138  0.4471 -0.4091  1.1554
35071SOL     OW10342   3.350   2.361   7.017  0.1314  0.2002  0.2769
35071SOL    HW110343   3.266   2.314   7.023 -0.4762  1.3614  1.1375
35071SOL    HW210344   3.340   2.418   6.941  1.0384 -1.3617 -1.0401
35072SOL     OW10345   0.012   1.934   5.057  0.7883 -0.2694  0.1118
35072SOL    HW110346   0.046   1.968   4.974 -0.1571  1.5644  0.4551
35072SOL    HW210347  -0.069   1.890   5.034  0.8789 -0.3665 -0.0232
35073SOL     OW10348   4.146   9.702   7.233 -0.4825 -0.4405 -0.1747
35073SOL    HW110349   4.129   9.610   7.216 -0.6630 -0.4834  0.2393
35073SOL    HW210350   4.234   9.717   7.199  0.5597 -1.3702  2.0554
35074SOL     OW10351   7.874   6.116   9.069  0.1288 -0.1263 -0.3006
35074SOL    HW110352   7.877   6.120   9.164  1.7520  2.0583 -0.4272
35074SOL    HW210353   7.948   6.169   9.039 -0.0569 -1.1623 -2.7798
35075SOL     OW10354   5.051   4.000   2.406  0.2553 -1.4402  0.3250
35075SOL    HW110355   5.105   3.940   2.354  0.9364 -1.5931  1.2081
35075SOL    HW210356   4.990   3.944   2.453  0.9413 -1.4467  1.2074
35076SOL     OW10357   1.376  10.730  10.202 -0.4344  0.2962 -0.3361
35076SOL    HW110358   1.295  10.681  10.215  0.0735 -0.6432 -0.6652
35076SOL    HW210359   1.400  10.714  10.111 -0.6421  1.7525 -0.6568
35077SOL     OW10360   9.660   2.279   8.224  0.2347  0.0079 -0.0752
35077SOL    HW110361   9.647   2.370   8.196 -2.7121 -0.3706 -0.0238
35077SOL    HW210362   9.755   2.268   8.222  0.4892  1.9280 -3.7247
35078SOL     OW10363   5.904   4.964   4.610  0.0359 -0.3983 -0.3289
35078SOL    HW110364   5.825   4.966   4.663 -0.5623  0.1523 -1.2170
35078SOL    HW210365   5.924   4.871   4.598 -0.5647 -0.5391 -0.2218
35079SOL     OW10366   8.834  10.637   7.426 -0.1554 -0.9224  0.1950
35079SOL    HW110367   8.887  10.602   7.355  0.7728  0.9690 -0.0570
35079SOL    HW210368   8.815  10.727   7.401 -1.6393 -0.8895  1.3312
35080SOL     OW10369   8.382  10.094  10.482  0.1254 -0.6970 -0.3944
35080SOL    HW110370   8.373  10.041  10.402 -0.2696 -1.9410  0.4637
35080SOL    HW210371   8.293  10.126  10.499  0.2614 -0.2037 -0.6011
35081SOL     OW10372   4.817   7.630  10.123  0.1763 -0.2644 -0.6515
35081SOL    HW110373   4.753   7.651  10.191 -0.4277 -1.6184 -0.7729
35081SOL    HW210374   4.863   7.712  10.106  0.6015 -0.0144  1.6587
35082SOL     OW10375   3.839   0.944   5.818  0.6006 -0.1576  0.0288
35082SOL    HW110376   3.909   0.880   5.807  0.4141 -0.5226  0.9640
35082SOL    HW210377   3.881   1.028   5.802  1.2252 -0.3852  0.4538
35083SOL     OW10378   1.540   3.425   4.534 -0.0700 -0.2370 -0.0446
35083SOL    HW110379   1.605   3.494   4.545  0.2213 -0.5955  0.4951
35083SOL    HW210380   1.460   3.471   4.509  0.8651  0.0526 -2.7069
35084SOL     OW10381   2.885   8.596   8.765 -1.0137  0.0448  0.1081
35084SOL    HW110382   2.910   8.517   8.813  1.0697 -0.3383 -1.5677
35084SOL    HW210383   2.873   8.662   8.834  2.8825 -0.2234  1.1766
35085SOL     OW10384   1.425   3.476   3.684  0.2951  0.0946 -0.2592
35085SOL    HW110385   1.516   3.479   3.713  0.6283 -1.2027 -1.1682
35085SOL    HW210386   1.429   3.447   3.593 -0.8141  3.0355 -1.3147
35086SOL     OW10387   2.637   6.740   4.991  0.8759 -0.0795  0.3849
35086SOL    HW110388   2.573   6.787   5.045 -0.9188  0.1587 -1.8828
35086SOL    HW210389   2.720   6.753   5.037  0.1514  3.8154  0.8303
35087SOL     OW10390   0.480   6.228   3.276  0.2566  0.1142 -0.4071
35087SOL    HW110391   0.519   6.233   3.189 -2.0436 -1.4928 -1.5921
35087SOL    HW210392   0.482   6.318   3.309  0.8851  0.7981 -2.2561
35088SOL     OW10393   7.531   7.142   3.701 -0.0652 -0.2726  0.0055
35088SOL    HW110394   7.508   7.171   3.613  0.8841  0.3227 -0.0502
35088SOL    HW210395   7.458   7.086   3.727  0.3233 -1.6377 -1.7275
35089SOL     OW10396   7.197  10.716   8.240 -0.4226 -0.0104 -0.1262
35089SOL    HW110397   7.115  10.690   8.283 -0.8407  1.0596 -0.2594
35089SOL    HW210398   7.180  10.702   8.147 -0.2777 -0.2645 -0.1140
35090SOL     OW10399   5.546  10.257   2.278  0.4516  0.6740 -0.3605
35090SOL    HW110400   5.539  10.217   2.191  1.4415  1.1560 -0.6728
35090SOL    HW210401   5.497  10.339   2.270  2.2545  1.7076 -1.0896
35091SOL     OW10402   7.843   8.227  10.688  0.2281 -0.0370  0.0662
35091SOL    HW110403   7.865   8.216  10.781  2.2304 -0.5027 -0.4293
35091SOL    HW210404   7.788   8.304  10.686 -0.3370 -0.3613  1.7187
35092SOL     OW10405   4.479   7.412   2.730  0.2294 -0.3320 -0.3178
35092SOL    HW110406   4.413   7.346   2.752  1.4893 -1.6577 -0.4232
35092SOL    HW210407   4.463   7.483   2.792 -0.9036 -0.8889  0.0516
35093SOL     OW10408  10.587   7.103   7.561  0.3042  0.5612  0.1283
35093SOL    HW110409  10.534   7.156   7.502  1.7288  0.9676 -0.7945
35093SOL    HW210410  10.561   7.013   7.541  0.0391  0.7486 -0.3923
35094SOL     OW10411   1.505  10.275  10.723  0.2209  0.3631 -0.2162
35094SOL    HW110412   1.599  10.277  10.743  0.2110 -1.7618  0.1530
35094SOL    HW210413   1.501  10.240  10.634 -0.2893 -1.0517  0.3541
35095SOL     OW10414   2.613   8.765   7.928 -0.0200  0.0638 -0.2555
35095SOL    HW110415   2.527   8.808   7.918  0.3217  0.5862 -1.0099
35095SOL    HW210416   2.675   8.837   7.931  0.5711 -0.3646 -1.5927
35096SOL     OW10417   3.951   1.132   8.844 -0.1583  0.1261  0.9849
35096SOL    HW110418   3.861   1.110   8.819  0.1879 -0.8369  0.5614
35096SOL    HW210419   3.968   1.216   8.802  0.0151 -0.9130 -1.0494
35097SOL     OW10420   2.202   1.008   6.102 -0.1125  0.6004 -0.5989
35097SOL    HW110421   2.255   1.061   6.043  1.5430  0.7578  0.9736
35097SOL    HW210422   2.256   0.998   6.181 -2.7301  1.5008  1.4105
35098SOL     OW10423  10.581   5.473   6.614  0.0274  0.5220  0.3231
35098SOL    HW110424  10.622   5.548   6.571  1.0238 -0.2282 -0.0860
35098SOL    HW210425  10.487   5.489   6.606  0.2309  2.0204  0.8011
35099SOL     OW10426   2.419   3.291   0.534  0.1578  0.2228  0.0841
35099SOL    HW110427   2.345   3.305   0.593  1.0137  1.0410  0.9726
35099SOL    HW210428   2.471   3.223   0.577  1.3136  1.5280  0.8032
35100SOL     OW10429   3.598   4.447  10.608  0.4798 -0.0929  0.2510
35100SOL    HW110430   3.596   4.415  10.518 -0.1035  2.7308 -0.7731
35100SOL    HW210431   3.514   4.421  10.645 -0.6708  1.6746 -1.0830
35101SOL     OW10432   7.178   4.113   4.965 -1.0150  0.5457 -0.2269
35101SOL    HW110433   7.217   4.092   4.880  0.5725 -3.3568  1.3353
35101SOL    HW210434   7.087   4.081   4.958 -1.1051  0.8964 -0.6843
35102SOL     OW10435   6.005   0.210   8.052  0.4308 -0.2094 -0.2416
35102SOL    HW110436   6.052   0.293   8.040 -0.9356  0.5852 -0.1446
35102SOL    HW210437   5.982   0.183   7.963  0.2348 -0.1087 -0.2218
35103SOL     OW10438  11.011   9.339   2.224  0.0122  0.0415  0.3194
35103SOL    HW110439  11.068   9.411   2.252 -0.7016  0.7301  0.0314
35103SOL    HW210440  11.065   9.261   2.233  0.7301  0.5875  0.8486
35104SOL     OW10441   6.838   8.416   0.704 -0.2524  0.2484  0.3008
35104SOL    HW110442   6.870   8.398   0.793 -0.0103 -0.9399 -0.0226
35104SOL    HW210443   6.754   8.371   0.698 -0.8426  1.3212  0.3150
35105SOL     OW10444   4.368   4.507   4.824 -0.3200  0.0969 -0.2526
35105SOL    HW110445   4.403   4.422   4.799 -1.0841 -0.3157  0.0750
35105SOL    HW210446   4.340   4.495   4.915  2.7606  1.6654  0.9770
35106SOL     OW10447   1.190   4.508   3.272 -0.1315 -0.2865  0.4633
35106SOL    HW110448   1.109   4.457   3.278 -0.4793  0.1980  0.0372
35106SOL    HW210449   1.161   4.599   3.275  0.4200 -0.1087  0.5357
35107SOL     OW10450   5.325   6.547   1.706 -0.0647  0.5525 -0.2589
35107SOL    HW110451   5.275   6.479   1.661 -1.6817  1.1587  0.5472
35107SOL    HW210452   5.368   6.502   1.779 -2.0380  0.5550  0.9510
35108SOL     OW10453   5.427   1.311   6.049  0.1066 -0.1708 -0.6636
35108SOL    HW110454   5.426   1.366   6.127 -0.3335 -1.6616  0.3926
35108SOL    HW210455   5.393   1.227   6.078  1.4115 -1.2269 -2.1127
35109SOL     OW10456   8.202   7.356  10.364 -0.1177 -0.5038 -0.1920
35109SOL    HW110457   8.211   7.395  10.277 -1.9344  0.4035  0.0096
35109SOL    HW210458   8.159   7.272  10.348  0.2274 -0.6779 -0.2267
35110SOL     OW10459   7.776  11.031   6.662  0.4495 -0.1242  0.6426
35110SOL    HW110460   7.820  11.075   6.589 -1.5741  1.3526  0.2783
35110SOL    HW210461   7.840  11.033   6.733  1.1978  1.4605 -0.0482
35111SOL     OW10462   7.954   5.683   5.109 -0.0395  0.2691 -0.7829
35111SOL    HW110463   8.010   5.665   5.184 -1.0296 -2.4109 -0.6395
35111SOL    HW210464   7.981   5.770   5.079  3.6013 -0.6037 -0.2089
35112SOL     OW10465   2.209   2.035   8.963  0.3211  0.2424  0.6073
35112SOL    HW110466   2.173   2.057   8.877 -1.1518 -2.6543  0.4325
35112SOL    HW210467   2.227   2.120   9.003 -2.1464  1.7088 -1.2135
35113SOL     OW10468   0.139   4.125   3.166 -0.0787 -0.3821  0.4030
35113SOL    HW110469   0.176   4.140   3.079  0.2901 -0.3328  0.5713
35113SOL    HW210470   0.161   4.203   3.216  0.1323 -0.6222  0.6873
35114SOL     OW10471  11.259   8.178   9.119 -0.3781  0.3996  0.3388
35114SOL    HW110472  11.335   8.215   9.074  0.2601 -1.1810  0.0855
35114SOL    HW210473  11.207   8.254   9.146  0.7143  1.4504 -0.4949
35115SOL     OW10474   6.182   7.033   7.545 -0.5187 -0.7255  1.0242
35115SOL    HW110475   6.239   7.096   7.590 -0.2075 -0.7172  0.6260
35115SOL    HW210476   6.211   6.947   7.576 -1.3413 -0.6469  2.0261
35116SOL     OW10477   5.985  10.791   5.197  0.3035 -0.3680  0.0129
35116SOL    HW110478   6.002  10.697   5.187 -1.0856 -0.5920 -0.3584
35116SOL    HW210479   5.907  10.807   5.145 -0.2423  0.7349  1.1325
35117SOL     OW10480   2.342   3.089   8.799 -0.3135  0.0327  0.2386
35117SOL    HW110481   2.279   3.017   8.807 -0.2340 -0.1749 -0.8460
35117SOL    HW210482   2.324   3.127   8.713  2.3613 -1.3383 -0.9968
35118SOL     OW10483   4.032   1.506   1.992 -0.1001 -0.0142  0.4233
35118SOL    HW110484   3.952   1.558   1.995 -0.9051 -0.8871 -3.4692
35118SOL    HW210485   4.094   1.559   1.944  0.3289 -1.0150 -0.1473
35119SOL     OW10486   9.486   5.222   3.105 -0.2441 -0.4967 -0.1772
35119SOL    HW110487   9.448   5.171   3.033  1.8179 -0.4698 -1.3303
35119SOL    HW210488   9.579   5.198   3.104  0.1882  1.0549  1.1665
35120SOL     OW10489   7.645  10.440   5.942  0.2492  0.0754 -0.1103
35120SOL    HW110490   7.658  10.489   5.861  4.0660  0.1295  0.4126
35120SOL    HW210491   7.638  10.349   5.914  0.3109  0.2263 -0.6154
35121SOL     OW10492   6.694   1.898   4.329 -0.0458  0.2572 -0.4756
35121SOL    HW110493   6.763   1.839   4.359  0.0491  0.6507  0.0913
35121SOL    HW210494   6.623   1.840   4.299  1.0364 -0.1618 -2.2850
35122SOL     OW10495   2.162   6.716   6.791  0.0775 -0.9105  0.3039
35122SOL    HW110496   2.084   6.769   6.808 -0.4715 -0.6832 -2.6595
35122SOL    HW210497   2.203   6.756   6.715  2.3711 -1.8532  0.9785
35123SOL     OW10498   1.068  10.572  10.961  0.0361 -0.2281  0.4406
35123SOL    HW110499   1.121  10.529  10.894  0.3943  2.2854 -0.9632
35123SOL    HW210500   1.108  10.546  11.044  1.6605 -0.6979 -0.4766
35124SOL     OW10501   8.788   4.913   3.431  0.1849 -0.4007  0.3198
35124SOL    HW110502   8.760   4.994   3.473  1.9043  0.2184  0.2844
35124SOL    HW210503   8.720   4.896   3.365  1.0185  2.2987 -1.3231
35125SOL     OW10504   3.765   3.183  10.769 -0.1706 -0.0942  0.3486
35125SOL    HW110505   3.717   3.168  10.688 -2.0029 -0.3401  1.4602
35125SOL    HW210506   3.795   3.096  10.796 -0.5802 -0.1683  0.5614
35126SOL     OW10507   0.468   1.790   8.207  0.8926 -0.8696 -0.1079
35126SOL    HW110508   0.473   1.790   8.302  1.1992 -2.8282 -0.1026
35126SOL    HW210509   0.472   1.882   8.182  1.8314 -0.3980  1.7252
35127SOL     OW10510   5.730   8.770   3.947  0.0990 -0.3949 -0.0453
35127SOL    HW110511   5.685   8.702   3.897 -1.2350  0.2023  0.3225
35127SOL    HW210512   5.751   8.729   4.031  0.8424 -0.8818 -0.4691
35128SOL     OW10513   8.881   8.367   7.270  0.4365  0.2097 -0.4821
35128SOL    HW110514   8.934   8.431   7.222  1.2690 -0.3265 -0.2868
35128SOL    HW210515   8.923   8.361   7.356  1.9390 -2.4738 -1.3255
35129SOL     OW10516   8.558  10.258  10.359  0.3491  0.0284  0.3043
35129SOL    HW110517   8.493  10.216  10.414 -0.9149  1.3742 -0.1304
35129SOL    HW210518   8.529  10.349  10.352  1.1077  0.1525 -1.6347
35130SOL     OW10519   9.537   6.611   9.856  0.1458  0.3675  0.2697
35130SOL    HW110520   9.542   6.524   9.896 -1.3177  0.3991  0.5428
35130SOL    HW210521   9.618   6.618   9.806 -0.0170 -1.4265 -0.3080
35131SOL     OW10522   8.428  11.201   8.269  0.7499  0.4892 -0.1295
35131SOL    HW110523   8.460  11.116   8.302  0.9551  0.1765 -1.1152
35131SOL    HW210524   8.388  11.180   8.185 -4.2570  0.4795  2.0759
35132SOL     OW10525   8.298   5.623   9.089 -0.5493  0.7983  0.5335
35132SOL    HW110526   8.330   5.713   9.092 -1.9546  1.5863 -3.8865
35132SOL    HW210527   8.373   5.571   9.060 -0.2409  0.8387  1.2591
35133SOL     OW10528   3.725   4.275   0.676 -0.5295  0.2151  0.0328
35133SOL    HW110529   3.755   4.193   0.637  2.8586  1.6259 -0.4411
35133SOL    HW210530   3.713   4.254   0.769  2.0392 -0.3934  0.2450
35134SOL     OW10531   1.962  10.416   7.270 -0.0809  0.3016 -0.5888
35134SOL    HW110532   1.973  10.352   7.200 -2.4930 -1.8898  0.9173
35134SOL    HW210533   2.001  10.374   7.347 -2.6512  0.0901  0.6600
35135SOL     OW10534  10.509   6.241   8.241 -0.1819 -0.0995 -0.1984
35135SOL    HW110535  10.559   6.305   8.291 -0.0934  0.3915 -0.9089
35135SOL    HW210536  10.418   6.257   8.266  0.0773 -1.6130  1.8011
35136SOL     OW10537   6.687   1.947  10.224  0.4013  0.1809  0.3291
35136SOL    HW110538   6.744   1.957  10.148  1.5300 -2.5533  0.7448
35136SOL    HW210539   6.742   1.969  10.299  0.5684 -1.1940  0.6327
35137SOL     OW10540  10.439   2.411   2.173 -0.0155 -0.3427 -0.3191
35137SOL    HW110541  10.457   2.475   2.241  0.2177  0.4546 -1.1190
35137SOL    HW210542  10.419   2.330   2.220 -0.7578  0.4275  0.7171
35138SOL     OW10543   5.216   6.206   0.239  0.2244 -0.2144  0.0944
35138SOL    HW110544   5.135   6.214   0.190  1.2589  0.1277 -1.6063
35138SOL    HW210545   5.207   6.268   0.311 -0.0704  1.5610 -1.4313
35139SOL     OW10546   2.159   2.989   6.226  0.8416 -0.7634 -0.8977
35139SOL    HW110547   2.116   3.032   6.300  1.8075 -1.7131  0.2226
35139SOL    HW210548   2.092   2.932   6.189  0.5904 -0.8830 -0.2675
35140SOL     OW10549  10.623  10.772   8.063  0.5152  0.0330  0.4180
35140SOL    HW110550  10.538  10.787   8.022 -0.7992  0.6866  3.2400
35140SOL    HW210551  10.634  10.846   8.123  2.9932 -0.1497  0.2447
35141SOL     OW10552   2.404   7.914   5.352  0.6379 -0.1303 -0.0739
35141SOL    HW110553   2.388   7.841   5.413 -2.1595 -0.2483 -0.8691
35141SOL    HW210554   2.344   7.898   5.279  0.1438  2.8257 -0.3858
35142SOL     OW10555   2.312   4.134   4.839 -0.8007  0.2247  0.3137
35142SOL    HW110556   2.243   4.157   4.901 -2.5266 -0.8413 -1.1476
35142SOL    HW210557   2.297   4.041   4.820 -0.8101  0.6896 -2.2254
35143SOL     OW10558   7.598   9.785   3.723  0.1206  0.2962 -0.1948
35143SOL    HW110559   7.680   9.816   3.685  0.2629 -0.6743 -0.6995
35143SOL    HW210560   7.615   9.693   3.745  0.3584  1.0544  3.0997
35144SOL     OW10561   6.853   0.908   2.867  0.1432  0.3204  0.4661
35144SOL    HW110562   6.917   0.954   2.813  1.2399 -0.6188  0.9367
35144SOL    HW210563   6.881   0.924   2.957 -2.0667  2.4511  0.8448
35145SOL     OW10564   6.529   4.258  11.242  0.0652 -0.1109  0.2508
35145SOL    HW110565   6.612   4.211  11.246 -0.2129 -0.6162  0.1239
35145SOL    HW210566   6.553   4.351  11.243  0.5919 -0.2595  0.8923
35146SOL     OW10567   1.030   3.330   0.701 -0.0990 -0.3491  0.3668
35146SOL    HW110568   1.056   3.385   0.775 -1.4346 -1.7141  1.9070
35146SOL    HW210569   0.996   3.391   0.636  2.4934  1.0227  0.2284
35147SOL     OW10570   8.556   1.416   8.348 -0.1747 -0.1056  0.0003
35147SOL    HW110571   8.516   1.503   8.340 -1.7789 -0.6925  1.4392
35147SOL    HW210572   8.650   1.434   8.357 -0.4360  1.4499 -0.2842
35148SOL     OW10573   0.403   9.063   2.886  0.0482 -0.1151 -0.1448
35148SOL    HW110574   0.483   9.115   2.886 -0.8140  1.2393 -0.4465
35148SOL    HW210575   0.432   8.975   2.861  1.9894 -0.5774  3.3403
35149SOL     OW10576   5.902   8.217   6.271  0.6403 -0.3290 -0.4088
35149SOL    HW110577   5.857   8.302   6.279  1.1663 -0.1059  0.2132
35149SOL    HW210578   5.968   8.232   6.203  0.5633 -0.3141 -0.4808
35150SOL     OW10579   4.346   9.794   5.809 -0.1277 -0.0582  0.5657
35150SOL    HW110580   4.436   9.783   5.778  0.0206  3.0335 -0.3529
35150SOL    HW210581   4.344   9.883   5.843 -2.7178 -0.2651  1.0396
35151SOL     OW10582  10.783   5.912   8.386 -0.6591  0.1262 -0.0304
35151SOL    HW110583  10.752   5.883   8.471  2.0996 -0.8715  0.7143
35151SOL    HW210584  10.806   5.831   8.340 -0.9138  0.7245 -1.2348
35152SOL     OW10585   6.402   8.976   5.855 -0.0788  0.0290 -0.3221
35152SOL    HW110586   6.382   8.902   5.797  0.8152 -0.1213 -0.4455
35152SOL    HW210587   6.498   8.983   5.853 -0.1063  0.6447  0.3660
35153SOL     OW10588   6.656   1.412   9.425  0.0348  0.2188 -0.5581
35153SOL    HW110589   6.675   1.321   9.443  1.2944  0.6192  0.1747
35153SOL    HW210590   6.620   1.446   9.507 -0.2239  0.4402 -0.7596
35154SOL     OW10591   7.943  10.887   9.934 -0.3324  0.4588  0.4292
35154SOL    HW110592   7.974  10.847   9.852 -0.0675  0.2668  0.6227
35154SOL    HW210593   7.908  10.972   9.907 -0.7768  0.1543  0.0364
35155SOL     OW10594   8.684   6.973  10.427  0.2079  0.4627 -0.0852
35155SOL    HW110595   8.762   7.018  10.460  0.8883  0.6911 -1.9487
35155SOL    HW210596   8.714   6.885  10.404  0.2835  1.0425 -2.2703
35156SOL     OW10597  10.356   9.134  10.376  0.1896 -0.5838 -0.3552
35156SOL    HW110598  10.410   9.060  10.404 -0.3624 -0.8450  0.0386
35156SOL    HW210599  10.315   9.104  10.295 -0.0695 -0.7265 -0.1722
35157SOL     OW10600  11.145  10.941   7.103  0.6020  0.2643 -0.0378
35157SOL    HW110601  11.084  11.011   7.125  1.6858  0.8507  1.1245
35157SOL    HW210602  11.232  10.979   7.116  1.1907 -1.4325  1.0802
35158SOL     OW10603   0.344   4.716   6.265  0.0412  0.4019  0.1540
35158SOL    HW110604   0.315   4.633   6.301 -1.7468  0.7782 -0.3902
35158SOL    HW210605   0.363   4.697   6.173 -1.9133  0.9300 -0.3776
35159SOL     OW10606   7.909   4.778   5.957  0.0414  0.3595  0.3117
35159SOL    HW110607   7.871   4.706   5.906 -3.6746  1.4280  1.4374
35159SOL    HW210608   7.916   4.744   6.046 -0.7788  1.0394  0.6438
35160SOL     OW10609   4.472   8.108  11.024 -0.2007 -0.0500  0.2907
35160SOL    HW110610   4.500   8.048  11.093  1.0783 -1.0356 -1.0420
35160SOL    HW210611   4.382   8.081  11.004 -0.3782 -0.1300  1.1892
35161SOL     OW10612   8.146   5.368   3.862 -0.0261 -0.2250 -0.0451
35161SOL    HW110613   8.094   5.298   3.823 -0.8231  0.0811  0.4566
35161SOL    HW210614   8.162   5.340   3.952  1.4342 -0.7244 -0.4471
35162SOL     OW10615   1.007   9.278   7.559  0.5613 -0.3915 -0.0393
35162SOL    HW110616   1.035   9.366   7.585  0.5237 -0.1756 -0.7139
35162SOL    HW210617   1.074   9.220   7.594  0.7586 -0.0662  0.1310
35163SOL     OW10618   1.669   6.050   8.031 -0.5550 -0.3754  0.8322
35163SOL    HW110619   1.696   6.075   8.120 -0.4135  0.7556  0.4758
35163SOL    HW210620   1.583   6.091   8.020 -0.7025 -0.7564  0.5464
35164SOL     OW10621   6.737   6.030   6.540 -0.5647 -0.4116 -0.2439
35164SOL    HW110622   6.815   6.046   6.487 -0.3182  2.4868  0.9300
35164SOL    HW210623   6.758   5.950   6.589  1.8770  0.5910  0.4255
35165SOL     OW10624   3.137   7.584   4.168  0.1620  0.3570 -0.6564
35165SOL    HW110625   3.110   7.516   4.230  1.0608 -1.2339 -1.9786
35165SOL    HW210626   3.191   7.643   4.220 -2.6601  1.5036  1.1225
35166SOL     OW10627   0.107   4.080   7.145 -0.4670 -0.3835  0.3974
35166SOL    HW110628   0.077   4.082   7.055 -1.6042  0.4898  0.7888
35166SOL    HW210629   0.057   4.009   7.186 -2.6680  1.5909  1.2547
35167SOL     OW10630   8.166   3.616   4.599  0.1747  0.4509 -0.2464
35167SOL    HW110631   8.082   3.624   4.645  0.3805  0.8283  0.0709
35167SOL    HW210632   8.178   3.701   4.557  0.0401  0.1396 -0.9105
35168SOL     OW10633   4.735   3.132   8.009 -0.6602 -0.6456 -0.2223
35168SOL    HW110634   4.643   3.152   7.995 -0.3163  2.6973  1.8110
35168SOL    HW210635   4.745   3.128   8.104  1.3428 -0.7972 -0.4181
35169SOL     OW10636  10.534   0.461   5.686 -0.2706  0.4336 -0.4223
35169SOL    HW110637  10.490   0.459   5.601  0.1787 -0.9254 -0.6377
35169SOL    HW210638  10.612   0.406   5.674 -0.1342  0.3373  0.8283
35170SOL     OW10639   6.913   0.017   2.635 -0.1475 -0.1347 -0.1275
35170SOL    HW110640   6.823   0.013   2.602 -0.0829 -1.3097 -0.1915
35170SOL    HW210641   6.947   0.099   2.601 -1.2068  0.3326 -0.0883
35171SOL     OW10642   8.282   3.559   7.397  0.0633 -0.0568 -0.2840
35171SOL    HW110643   8.215   3.626   7.409 -0.8664 -1.0571  0.1711
35171SOL    HW210644   8.260   3.491   7.461  0.6927 -1.0306 -1.0855
35172SOL     OW10645   3.515  10.180   8.012  0.3160  0.2639 -0.4471
35172SOL    HW110646   3.515  10.226   7.928 -1.0859  0.7687 -0.1963
35172SOL    HW210647   3.423  10.156   8.026  0.7550 -1.0498  0.2781
35173SOL     OW10648   4.558   8.016   2.161 -0.2735 -0.6027  0.5201
35173SOL    HW110649   4.503   8.088   2.190 -1.5245 -0.1246 -2.8963
35173SOL    HW210650   4.630   8.058   2.114  0.0288 -1.4760  0.1837
35174SOL     OW10651   3.274   1.506   5.406 -0.3152 -0.5323 -0.1297
35174SOL    HW110652   3.204   1.515   5.342 -1.1008  0.3528  0.8162
35174SOL    HW210653   3.292   1.596   5.435 -0.2559 -0.9371  1.1538
35175SOL     OW10654   9.037   6.212  10.296 -0.4256 -0.1373  0.2221
35175SOL    HW110655   9.033   6.200  10.201 -1.4710 -0.1409  0.2675
35175SOL    HW210656   9.117   6.166  10.322  0.5738  0.9599 -0.8186
35176SOL     OW10657   4.685   0.209   9.855 -0.1574 -0.5429 -0.0209
35176SOL    HW110658   4.708   0.142   9.790  0.0552  0.5903 -1.1408
35176SOL    HW210659   4.769   0.251   9.876 -0.3199 -0.4867  0.5240
35177SOL     OW10660  11.288   1.245   5.806  0.0460 -0.0536  0.5046
35177SOL    HW110661  11.344   1.258   5.882  0.3447 -1.1597  0.4817
35177SOL    HW210662  11.345   1.261   5.731 -0.5619  2.2549  0.5162
35178SOL     OW10663   2.657   8.854   5.400  0.1397  0.3988  0.1644
35178SOL    HW110664   2.749   8.855   5.372  0.4622 -1.4329  1.0877
35178SOL    HW210665   2.661   8.835   5.493 -1.2363 -1.2147 -0.0919
35179SOL     OW10666  10.884   6.519   0.332 -0.2181  0.2991  0.7598
35179SOL    HW110667  10.832   6.590   0.371  0.6122  0.5554  1.4240
35179SOL    HW210668  10.949   6.564   0.278 -0.5930 -0.0152  0.0452
35180SOL     OW10669   5.656   0.385   4.829 -0.0187  0.2406  0.7053
35180SOL    HW110670   5.601   0.367   4.753  2.1147  2.2323 -1.4052
35180SOL    HW210671   5.623   0.468   4.864  0.4603  0.4969  0.5544
35181SOL     OW10672   7.441   7.371   0.205 -0.0338  0.2619 -0.5689
35181SOL    HW110673   7.383   7.430   0.253 -2.1122 -0.6243 -1.9173
35181SOL    HW210674   7.472   7.309   0.270 -1.9384 -0.2518 -0.1020
35182SOL     OW10675   8.697   0.371  10.149 -0.3680  0.1882  0.4939
35182SOL    HW110676   8.743   0.443  10.191 -1.6066  1.0765  0.3322
35182SOL    HW210677   8.755   0.344  10.078 -0.1207  1.3214  0.2646
35183SOL     OW10678   8.876   8.124   0.928  0.2166 -0.1464 -0.5815
35183SOL    HW110679   8.951   8.125   0.988 -0.3589  0.9974  0.1348
35183SOL    HW210680   8.901   8.184   0.858 -0.7782  1.7101  0.6164
35184SOL     OW10681  10.723   8.432   8.878 -0.3666 -0.1104 -0.1051
35184SOL    HW110682  10.790   8.422   8.811  0.5218 -0.6317  0.8415
35184SOL    HW210683  10.722   8.525   8.898 -0.4750  0.0125 -0.6832
35185SOL     OW10684   1.197   7.503   9.363 -0.3197 -0.2546 -0.4023
35185SOL    HW110685   1.276   7.454   9.387  0.1396  0.3157 -0.7388
35185SOL    HW210686   1.145   7.507   9.444 -0.4362 -1.4296 -0.4139
35186SOL     OW10687   3.664   2.441  11.179  0.2166 -0.1680 -0.4093
35186SOL    HW110688   3.598   2.506  11.204  2.3606  1.8283  0.1960
35186SOL    HW210689   3.705   2.415  11.262  0.9359 -0.6050 -0.8934
35187SOL     OW10690   8.942   7.533  10.208 -0.2046  0.1671 -0.3506
35187SOL    HW110691   8.968   7.463  10.148 -0.1891  0.9028 -1.2167
35187SOL    HW210692   8.853   7.555  10.183 -0.5429 -0.1761  0.5290
35188SOL     OW10693   8.445   7.576   5.708 -0.0747  0.4024  0.8910
35188SOL    HW110694   8.529   7.602   5.671  0.1565  0.3931  1.3987
35188SOL    HW210695   8.464   7.558   5.800 -0.8687  1.6310  1.3223
35189SOL     OW10696   2.627   5.980   4.143 -0.5928  0.5010  0.8880
35189SOL    HW110697   2.676   6.035   4.205 -0.1639  0.8913  0.2155
35189SOL    HW210698   2.602   6.040   4.073 -0.8456  0.0102  0.5578
35190SOL     OW10699   0.264   2.090   8.401  0.4064  0.0370  0.0903
35190SOL    HW110700   0.180   2.102   8.358 -0.3324 -0.2305  1.4281
35190SOL    HW210701   0.264   1.998   8.429  0.9158  0.1721  0.5514
35191SOL     OW10702   3.700   8.054   3.294  0.0050 -0.3422 -0.1393
35191SOL    HW110703   3.681   8.075   3.386 -0.2863 -1.2163  0.0074
35191SOL    HW210704   3.706   8.139   3.251  1.8967  0.1364  1.0302
35192SOL     OW10705   3.351   6.782   5.126 -0.1005 -0.6259 -0.8293
35192SOL    HW110706   3.284   6.721   5.157  0.3722 -0.7617 -0.0630
35192SOL    HW210707   3.413   6.789   5.199 -1.1211  2.2294 -0.1714
35193SOL     OW10708   9.510   1.222   3.857 -0.4788  0.5445  0.8644
35193SOL    HW110709   9.504   1.256   3.946 -0.8118  0.8567  0.7250
35193SOL    HW210710   9.598   1.183   3.852  1.1792  4.1118  0.1032
35194SOL     OW10711   1.454  10.851   0.683 -0.0674 -0.5539  0.3501
35194SOL    HW110712   1.530  10.830   0.628  1.1126  0.8087  1.4307
35194SOL    HW210713   1.453  10.783   0.750  0.1847 -0.5850  0.3225
35195SOL     OW10714  11.014   3.925   4.356 -0.4546  0.1421 -0.2373
35195SOL    HW110715  11.061   4.001   4.390 -0.1168 -0.6065  0.9756
35195SOL    HW210716  10.928   3.930   4.396 -0.2337 -0.4446  0.3164
35196SOL     OW10717   7.306   0.858  10.688 -0.1290 -0.0542 -0.1568
35196SOL    HW110718   7.315   0.808  10.607  0.8141 -0.5598  0.2506
35196SOL    HW210719   7.243   0.809  10.740 -0.9696  0.4304 -0.6855
35197SOL     OW10720   5.449   6.396   0.767 -0.2561  0.0804 -0.4183
35197SOL    HW110721   5.529   6.407   0.819 -0.9748  0.9181  0.5416
35197SOL    HW210722   5.430   6.302   0.771  0.0239  0.0524  0.3533
35198SOL     OW10723   1.764   8.869   1.962  0.3710  0.3234  0.0975
35198SOL    HW110724   1.709   8.946   1.977  0.2764  0.0899  0.9702
35198SOL    HW210725   1.702   8.796   1.959  0.5309  0.1939  0.0138
35199SOL     OW10726   7.582   4.704  10.606  0.6164 -0.3760 -0.1777
35199SOL    HW110727   7.510   4.737  10.552 -0.2019  0.2622  1.2749
35199SOL    HW210728   7.657   4.701  10.547 -0.4194 -0.3113 -1.5132
35200SOL     OW10729   5.498   5.568   1.620  0.1873 -0.2876  0.1306
35200SOL    HW110730   5.410   5.601   1.637  0.2094 -1.0545  1.8018
35200SOL    HW210731   5.485   5.493   1.562 -0.3762 -1.1349  1.3300
35201SOL     OW10732   3.946   0.756   4.738 -0.2012  0.0909 -0.1577
35201SOL    HW110733   3.922   0.848   4.723  2.4160  0.9480  0.5861
35201SOL    HW210734   3.974   0.724   4.652 -1.1758 -0.0591 -0.4309
35202SOL     OW10735   4.452   9.579  10.381  0.3232 -0.3622  0.2205
35202SOL    HW110736   4.382   9.634  10.346  1.8486  1.4080 -0.0983
35202SOL    HW210737   4.519   9.578  10.312  0.4243 -2.4728  0.2982
35203SOL     OW10738   3.682   2.154   9.924 -0.0222  0.1000 -0.1805
35203SOL    HW110739   3.673   2.248   9.938 -1.2236 -0.3028  1.8950
35203SOL    HW210740   3.598   2.127   9.887  1.0185  0.1325 -2.6897
35204SOL     OW10741   5.185   4.533   0.547 -0.4737  0.3399 -0.5550
35204SOL    HW110742   5.237   4.469   0.595  0.0630  0.7787 -0.5538
35204SOL    HW210743   5.105   4.543   0.599  0.5668  1.6144  0.8074
35205SOL     OW10744   6.168   7.135   2.391  0.1818 -0.2601  0.0062
35205SOL    HW110745   6.169   7.089   2.475  1.3498  0.4347  0.3843
35205SOL    HW210746   6.078   7.125   2.359 -0.3877 -0.1415  1.5484
35206SOL     OW10747   1.135   1.035   4.759 -0.4271 -0.3787  0.5557
35206SOL    HW110748   1.227   1.017   4.745 -0.4815  0.0159 -0.3725
35206SOL    HW210749   1.134   1.111   4.818 -0.1626 -0.4482  0.6490
35207SOL     OW10750   6.506   5.139   1.031 -0.6582  0.1125  0.5517
35207SOL    HW110751   6.430   5.103   0.985 -0.4136  0.5689 -0.2060
35207SOL    HW210752   6.469   5.184   1.107 -1.0695 -0.5420  0.7459
35208SOL     OW10753  10.628   7.864   7.913 -0.1707  0.1035 -0.1122
35208SOL    HW110754  10.631   7.769   7.927  2.4361  0.1807  0.0929
35208SOL    HW210755  10.671   7.901   7.990  0.6038  1.3483 -1.1281
35209SOL     OW10756   4.747   7.602   0.028 -0.0403 -0.7898  0.0436
35209SOL    HW110757   4.823   7.658   0.040 -0.4535 -0.2581  0.2246
35209SOL    HW210758   4.736   7.557   0.112 -0.5941 -0.0203  0.3879
35210SOL     OW10759  10.501   5.061   3.971  0.0554  0.0559  0.0996
35210SOL    HW110760  10.433   5.019   3.918 -0.6836  2.0703 -0.6007
35210SOL    HW210761  10.582   5.046   3.922 -0.3370  0.2078 -0.6092
35211SOL     OW10762   4.796  10.713   1.078 -0.1123 -0.0079 -0.1616
35211SOL    HW110763   4.775  10.801   1.049  0.8447  0.6647  1.1629
35211SOL    HW210764   4.740  10.656   1.025 -1.3651  1.4406 -0.4116
35212SOL     OW10765  10.004   3.831   1.264  0.0884  0.2099 -0.8568
35212SOL    HW110766   9.986   3.923   1.243 -0.4551 -0.0326 -1.4478
35212SOL    HW210767   9.945   3.781   1.208  1.2850 -0.5365 -1.4816
35213SOL     OW10768   5.417   6.587   5.617  0.0001 -0.1919 -0.2880
35213SOL    HW110769   5.356   6.555   5.551 -0.6955  1.3516 -0.4174
35213SOL    HW210770   5.362   6.608   5.692  0.5465 -0.1029  0.0889
35214SOL     OW10771   7.871   4.044   0.054 -0.7509  0.1110  0.0442
35214SOL    HW110772   7.928   4.119   0.040  0.2619 -0.2939  1.7385
35214SOL    HW210773   7.812   4.072   0.124 -0.2417 -0.7139  0.8199
35215SOL     OW10774   8.979   4.905   8.205  0.1106  0.2612  0.0889
35215SOL    HW110775   9.054   4.848   8.224  0.9912  1.4988  0.4027
35215SOL    HW210776   9.017   4.980   8.159 -1.0223  0.6456 -0.2395
35216SOL     OW10777   7.117   0.359   0.079  0.1659  0.4967  0.4142
35216SOL    HW110778   7.105   0.446   0.116 -3.2496  0.6718 -0.9010
35216SOL    HW210779   7.028   0.330   0.058  1.4012 -2.5910 -0.7812
35217SOL     OW10780   3.158   4.717   4.428  0.0636 -0.3008 -0.5978
35217SOL    HW110781   3.245   4.690   4.456  0.0014 -1.5182 -1.5033
35217SOL    HW210782   3.128   4.777   4.496  0.7943 -1.4430  0.7675
35218SOL     OW10783   3.538   7.775   4.472 -0.6900 -0.0276  0.4796
35218SOL    HW110784   3.497   7.853   4.510 -0.3966 -0.2031  1.1617
35218SOL    HW210785   3.471   7.707   4.478 -0.1989 -0.4035  1.9041
35219SOL     OW10786   1.162  10.262   5.578  0.2032  0.1078 -0.2740
35219SOL    HW110787   1.215  10.183   5.589  1.8245  1.2399  0.2408
35219SOL    HW210788   1.112  10.270   5.659  1.1874  0.4411  0.2996
35220SOL     OW10789   6.020   7.973   6.312 -0.4937 -0.3535  0.9968
35220SOL    HW110790   5.966   7.895   6.302  0.0956 -0.6990  0.4799
35220SOL    HW210791   5.963   8.046   6.286 -0.0314 -0.9221 -1.7409
35221SOL     OW10792   0.682  10.618   5.676  0.1824  0.3109  0.0242
35221SOL    HW110793   0.728  10.671   5.611 -0.1665  0.4788 -0.0872
35221SOL    HW210794   0.694  10.528   5.646  0.9989  0.3006  0.3570
35222SOL     OW10795  10.878   7.300  10.538 -0.0051 -0.5632  0.5439
35222SOL    HW110796  10.802   7.312  10.595 -0.0236 -1.0806  0.6239
35222SOL    HW210797  10.900   7.207  10.545  2.5115  0.1532  2.8848
35223SOL     OW10798   2.170   4.910   1.438 -0.1873 -0.0937  0.3792
35223SOL    HW110799   2.135   4.981   1.384  0.3088  0.2288  0.4675
35223SOL    HW210800   2.095   4.877   1.487 -0.8975 -1.2599 -1.4716
35224SOL     OW10801   7.687   5.384   5.270  0.3200  0.0404  0.0825
35224SOL    HW110802   7.714   5.475   5.284 -1.3415  0.7202 -0.9963
35224SOL    HW210803   7.657   5.354   5.355 -1.5751  1.3603 -0.0960
35225SOL     OW10804   0.943   3.923   1.323  0.0348 -0.4308 -0.8015
35225SOL    HW110805   1.032   3.920   1.357 -0.1345 -0.8915 -0.3884
35225SOL    HW210806   0.952   3.948   1.231  0.6714 -1.7786 -1.1053
35226SOL     OW10807   0.242   9.570   6.793  0.3865  0.1926  0.4509
35226SOL    HW110808   0.197   9.493   6.759  0.5039  0.5553 -0.5314
35226SOL    HW210809   0.220   9.640   6.732  1.7679  0.5213  0.3061
35227SOL     OW10810   3.458   8.074   9.660  0.1028 -0.2801  0.3064
35227SOL    HW110811   3.502   8.114   9.735  1.3412  0.2294 -0.6853
35227SOL    HW210812   3.416   7.995   9.696  0.4814  0.0904  1.5792
35228SOL     OW10813   7.795   8.757   7.514  0.5072 -0.0039  0.2993
35228SOL    HW110814   7.871   8.710   7.477  1.6492  0.0837  2.4344
35228SOL    HW210815   7.720   8.705   7.486  1.5002 -1.2570 -0.1500
35229SOL     OW10816  10.432   6.869   5.724 -0.0889 -0.0017 -0.2034
35229SOL    HW110817  10.474   6.821   5.653 -0.1376  0.8650 -0.8101
35229SOL    HW210818  10.349   6.823   5.738  0.3206 -0.7202 -0.0874
35230SOL     OW10819   7.090   8.665   4.254  0.2603  0.2773 -0.1822
35230SOL    HW110820   7.100   8.754   4.222  1.0825  0.9201  1.8004
35230SOL    HW210821   7.176   8.642   4.290 -0.6069 -0.3825  1.5476
35231SOL     OW10822   8.617   8.201   6.960  0.3877 -0.6786  0.3667
35231SOL    HW110823   8.616   8.296   6.948 -0.0226 -0.7418 -0.1149
35231SOL    HW210824   8.709   8.177   6.958  0.4844 -0.3003  0.3913
35232SOL     OW10825   8.527   0.723   7.326  0.2450  0.1090 -0.0318
35232SOL    HW110826   8.616   0.687   7.330  0.1822 -0.1537 -0.9630
35232SOL    HW210827   8.540   0.817   7.324  0.4608  0.1093  1.0217
35233SOL     OW10828   9.614   9.447  10.476 -0.0176 -0.2626  0.1714
35233SOL    HW110829   9.626   9.352  10.465  0.5180 -0.0173 -1.5671
35233SOL    HW210830   9.692   9.476  10.524 -0.8355 -0.8902  1.9314
35234SOL     OW10831   6.350   2.739   8.172  0.2012  0.4042  0.3658
35234SOL    HW110832   6.317   2.746   8.262  2.2652  0.3279  1.1641
35234SOL    HW210833   6.361   2.830   8.143  1.6275  0.4504  1.0113
35235SOL     OW10834   9.245   7.669  11.146 -0.1114 -0.5070  0.2185
35235SOL    HW110835   9.255   7.610  11.221  0.4376 -2.8505 -1.6351
35235SOL    HW210836   9.151   7.677  11.135 -0.2055 -2.0807 -0.2769
35236SOL     OW10837   5.386   1.477   7.640 -0.2639  0.5962 -0.2225
35236SOL    HW110838   5.327   1.408   7.609 -0.5323  0.3961  0.7105
35236SOL    HW210839   5.397   1.535   7.565 -0.2156 -0.3410 -0.9467
35237SOL     OW10840   2.596  10.375   6.412  0.2678 -0.2263 -0.0869
35237SOL    HW110841   2.617  10.283   6.427 -0.5661 -0.5666 -1.0004
35237SOL    HW210842   2.503  10.376   6.390 -1.0550  1.3995  4.9314
35238SOL     OW10843  10.037   0.479   8.987  0.4243  0.6493 -0.1439
35238SOL    HW110844  10.014   0.447   8.900  1.0958 -1.7091  0.5313
35238SOL    HW210845  10.132   0.472   8.992  0.5063  1.9032  0.3675
35239SOL     OW10846   4.048   9.872   9.928  0.9855  0.3209 -0.3868
35239SOL    HW110847   4.025   9.797   9.873  0.0659  1.2155 -1.2519
35239SOL    HW210848   4.018   9.847  10.016  1.1467 -0.5294 -0.5699
35240SOL     OW10849   9.327   4.280   3.980 -0.1061  0.0321  0.0402
35240SOL    HW110850   9.309   4.289   4.074  2.0512 -1.7999  0.6756
35240SOL    HW210851   9.351   4.369   3.952 -0.9728  0.6319  1.1509
35241SOL     OW10852   9.318   0.330   3.944  0.6817 -0.3972  0.1537
35241SOL    HW110853   9.326   0.369   3.857  1.9331  0.4520  0.6394
35241SOL    HW210854   9.297   0.404   4.001  0.1691 -0.9029  0.6191
35242SOL     OW10855   7.002   3.149   5.309  0.2666 -0.3525 -0.5653
35242SOL    HW110856   6.917   3.150   5.263 -0.6307 -0.1340  1.0679
35242SOL    HW210857   7.032   3.058   5.300 -0.3260 -0.5309 -0.8062
35243SOL     OW10858   8.805  11.242   8.095 -0.0604 -0.7169  0.7327
35243SOL    HW110859   8.777  11.324   8.135  1.7653  0.1446  0.3050
35243SOL    HW210860   8.894  11.228   8.127  0.7709 -0.9502 -1.5490
35244SOL     OW10861   1.117   4.621  10.115 -0.2190  0.3254 -0.9031
35244SOL    HW110862   1.150   4.577  10.194 -1.0885  0.7407 -0.2919
35244SOL    HW210863   1.034   4.578  10.097 -1.3469  2.0538  0.0295
35245SOL     OW10864   9.046   2.601   4.742 -0.1132  0.7836 -0.2725
35245SOL    HW110865   8.991   2.648   4.679 -0.6578  1.6398  0.8217
35245SOL    HW210866   9.004   2.616   4.827 -0.3557 -1.7632  0.1145
35246SOL     OW10867   1.420   7.956  11.046  0.1317  0.0612  0.0097
35246SOL    HW110868   1.476   7.917  11.113 -0.7348  1.1633  1.4207
35246SOL    HW210869   1.475   8.024  11.006 -0.8278  2.6456  2.8957
35247SOL     OW10870  10.725   0.758  10.704  0.1350  0.4958 -0.3245
35247SOL    HW110871  10.775   0.821  10.652  0.3634  0.9774  0.4693
35247SOL    HW210872  10.694   0.693  10.641 -1.2577  2.1449 -1.3685
35248SOL     OW10873  10.980   5.431   8.672 -0.1825 -0.9216  0.2281
35248SOL    HW110874  11.043   5.393   8.610 -1.4105  0.7336 -2.0646
35248SOL    HW210875  10.929   5.493   8.621 -2.0363 -0.3694  2.6411
35249SOL     OW10876   0.881   5.824   6.899  0.0272  0.7505 -0.2386
35249SOL    HW110877   0.824   5.901   6.894 -1.1181 -0.1086 -0.6046
35249SOL    HW210878   0.889   5.806   6.992 -2.8989 -0.9795 -0.2323
35250SOL     OW10879   9.829   3.392  10.724 -0.5246  0.5901  0.3244
35250SOL    HW110880   9.770   3.435  10.787 -0.5678 -0.1810  0.8188
35250SOL    HW210881   9.773   3.372  10.649 -1.1427 -1.0467  1.1995
35251SOL     OW10882   9.068   3.706   1.797  0.6074  0.0444  0.1707
35251SOL    HW110883   9.038   3.745   1.715  1.0427 -0.9740 -0.4865
35251SOL    HW210884   8.988   3.674   1.840  0.4809 -0.3631 -0.3597
35252SOL     OW10885   6.051   3.320  10.697 -0.2264 -0.5144  0.2762
35252SOL    HW110886   6.041   3.250  10.761 -2.0822 -1.0951 -0.6204
35252SOL    HW210887   6.048   3.277  10.612 -0.6145  0.5530 -0.2677
35253SOL     OW10888   1.560   2.797   6.812 -0.3257  0.4429 -0.3060
35253SOL    HW110889   1.530   2.883   6.785 -1.3169  1.1426  2.7700
35253SOL    HW210890   1.482   2.753   6.846  0.7231 -0.4831  1.0215
35254SOL     OW10891   5.586   0.481   1.691 -0.3785  0.0263  0.3695
35254SOL    HW110892   5.680   0.496   1.678  0.0182 -1.0923  1.8806
35254SOL    HW210893   5.545   0.566   1.672  1.1186  1.0470  1.6228
35255SOL     OW10894   5.575   2.958   1.823  0.3713  0.2151 -0.6423
35255SOL    HW110895   5.595   3.038   1.870  1.8172  0.2131 -1.2421
35255SOL    HW210896   5.613   2.888   1.876  0.4638  0.0598 -0.9122
35256SOL     OW10897   9.729   7.852   4.073  0.5076  0.0270 -0.1573
35256SOL    HW110898   9.772   7.769   4.095  0.3228  0.3275  1.4262
35256SOL    HW210899   9.733   7.903   4.154  1.1402  1.8112 -1.2669
35257SOL     OW10900   8.268   2.369   9.454 -0.0910  0.5064 -0.2257
35257SOL    HW110901   8.293   2.460   9.440  0.2243  0.3860 -0.4566
35257SOL    HW210902   8.339   2.318   9.415 -0.5115  0.1612 -0.5515
35258SOL     OW10903   1.112   5.543  10.674  0.0109  0.2125 -0.6640
35258SOL    HW110904   1.113   5.461  10.624  1.2246  0.0245 -0.3248
35258SOL    HW210905   1.072   5.520  10.758  1.1827 -0.2414 -0.2207
35259SOL     OW10906   9.370   0.205   6.931  0.4958  0.1606 -0.4669
35259SOL    HW110907   9.335   0.180   7.016  0.2194  0.3875 -0.5134
35259SOL    HW210908   9.464   0.189   6.938  1.1936  4.3808  1.4172
35260SOL     OW10909   3.311   8.120   4.763 -0.1151  0.3982  0.2452
35260SOL    HW110910   3.310   8.207   4.724 -1.3143 -0.0339 -0.7239
35260SOL    HW210911   3.360   8.130   4.844  0.2184  1.8574 -0.1283
35261SOL     OW10912   3.264  11.108   2.757  0.0581 -0.4134 -0.5523
35261SOL    HW110913   3.275  11.020   2.721 -0.9703 -0.4518 -0.7858
35261SOL    HW210914   3.171  11.127   2.748  0.0311  0.1718  0.7266
35262SOL     OW10915   2.646   7.860   5.980  0.0232 -0.0723  0.1017
35262SOL    HW110916   2.735   7.868   6.014  1.0395 -0.4815 -2.4180
35262SOL    HW210917   2.614   7.950   5.975  0.4080  0.0999  0.6452
35263SOL     OW10918   7.518   4.017  10.404  0.4334  0.3433  0.3402
35263SOL    HW110919   7.592   3.979  10.356  0.8195  1.0969  0.3405
35263SOL    HW210920   7.543   4.108  10.418  0.1473  0.2248  1.6222
35264SOL     OW10921   2.244   4.400   2.315  0.3073 -0.3218 -0.6592
35264SOL    HW110922   2.245   4.433   2.405 -1.4074  0.5037 -0.9172
35264SOL    HW210923   2.324   4.435   2.275 -0.2554  1.5324 -0.2132
35265SOL     OW10924   1.629   8.167   6.132 -0.3381  0.6388  0.1387
35265SOL    HW110925   1.542   8.131   6.149 -0.8795  0.5132 -2.7034
35265SOL    HW210926   1.681   8.139   6.207 -2.2009 -1.1068  0.8424
35266SOL     OW10927   2.513   5.501   9.231 -0.0594  0.0790  0.1959
35266SOL    HW110928   2.569   5.497   9.308  0.4116  0.3989 -0.1291
35266SOL    HW210929   2.554   5.566   9.174 -0.6474  0.1684 -0.1327
35267SOL     OW10930   9.969   9.165   4.101  0.0374  0.1245 -0.2064
35267SOL    HW110931   9.974   9.089   4.159  2.1649  0.2245 -0.2059
35267SOL    HW210932   9.914   9.136   4.028 -0.3436 -0.9349  0.4943
35268SOL     OW10933   9.776   9.852   5.806  0.3435 -0.3507 -0.2047
35268SOL    HW110934   9.838   9.921   5.828 -0.7243  0.2286  1.0423
35268SOL    HW210935   9.694   9.897   5.787  0.0451 -1.1679 -0.9077
35269SOL     OW10936   6.241  10.966   8.516 -0.9458  0.2059  0.6121
35269SOL    HW110937   6.331  10.986   8.490 -0.6075 -0.3449  1.3570
35269SOL    HW210938   6.195  11.050   8.506  0.0681  0.9504  2.0170
35270SOL     OW10939  10.579   9.666   2.820 -0.6193 -0.4633 -0.1791
35270SOL    HW110940  10.591   9.648   2.913 -0.7478 -0.2915 -0.1286
35270SOL    HW210941  10.664   9.646   2.781 -0.3355  0.1946  0.0914
35271SOL     OW10942   2.525   5.214   3.261  0.4614  0.8430 -0.4279
35271SOL    HW110943   2.502   5.306   3.258  1.3643  1.0772 -0.3375
35271SOL    HW210944   2.594   5.208   3.327 -0.2151 -0.0392  0.2196
35272SOL     OW10945   2.726   4.365   1.717  0.4298 -0.5805  0.2257
35272SOL    HW110946   2.790   4.386   1.785  0.5896  0.1393 -0.1375
35272SOL    HW210947   2.774   4.378   1.635  0.2655 -1.5341 -0.0180
35273SOL     OW10948   8.769   9.533   6.361 -0.1848 -0.2301 -0.2223
35273SOL    HW110949   8.687   9.571   6.329 -0.6307 -1.2335 -0.2793
35273SOL    HW210950   8.759   9.439   6.349 -0.0622 -0.5864  2.2091
35274SOL     OW10951   2.183   4.973   9.097  0.0775  0.2429 -0.1026
35274SOL    HW110952   2.240   5.016   9.161 -0.0748 -0.3759  0.4542
35274SOL    HW210953   2.138   4.904   9.147  0.5815 -0.7988 -1.0606
35275SOL     OW10954   9.147   1.121   1.514 -0.1325 -0.6437  0.2002
35275SOL    HW110955   9.054   1.138   1.502 -0.0557 -0.4079 -0.0818
35275SOL    HW210956   9.151   1.032   1.549 -0.3792 -1.3079 -1.4061
35276SOL     OW10957   0.582   6.539  10.848 -0.0883 -1.3135 -0.2723
35276SOL    HW110958   0.610   6.504  10.933  2.1263 -0.0517 -0.4307
35276SOL    HW210959   0.586   6.464  10.789  1.6621 -1.4953  0.0377
35277SOL     OW10960  10.599   1.744   4.482 -0.1184 -0.3549  0.1605
35277SOL    HW110961  10.577   1.683   4.553  0.5729 -0.1603  0.5489
35277SOL    HW210962  10.614   1.827   4.527 -2.7862  0.5594 -0.5194
35278SOL     OW10963   1.105   6.679   7.823  0.0709 -0.1455  0.2153
35278SOL    HW110964   1.107   6.708   7.914 -0.5167 -0.3481  0.2951
35278SOL    HW210965   1.116   6.584   7.828 -0.0651 -0.1682  0.0812
35279SOL     OW10966   4.559   3.828   9.052  1.1178  0.4499 -0.0434
35279SOL    HW110967   4.617   3.872   9.114  2.0047  0.1705 -0.6630
35279SOL    HW210968   4.598   3.844   8.967  0.6042 -0.2465 -0.4211
35280SOL     OW10969  10.968   2.252   2.244 -0.0106 -0.0413 -0.0594
35280SOL    HW110970  10.987   2.334   2.199 -0.2295 -0.3129 -0.6560
35280SOL    HW210971  10.918   2.278   2.321 -2.6100  0.1776 -1.7388
35281SOL     OW10972   8.984  10.951   7.823 -0.1331  0.5398 -0.3155
35281SOL    HW110973   9.009  10.962   7.915  0.7942  0.8220 -0.5909
35281SOL    HW210974   9.032  10.873   7.795  0.4388  1.0893 -0.8580
35282SOL     OW10975   0.419   8.993   7.208 -0.3026 -0.4898  0.1092
35282SOL    HW110976   0.341   9.041   7.235 -1.9959 -1.9579 -1.9839
35282SOL    HW210977   0.451   8.952   7.288 -1.0129  1.0355  1.1956
35283SOL     OW10978   7.513   9.166   6.347 -0.5979  0.1035 -1.0994
35283SOL    HW110979   7.447   9.207   6.402 -1.6843 -0.5537 -1.9131
35283SOL    HW210980   7.570   9.119   6.408 -1.9138 -0.7966 -0.5729
35284SOL     OW10981   0.002   1.821   9.738  0.1830 -0.1989  0.4765
35284SOL    HW110982   0.068   1.764   9.778 -0.5035 -0.5732  1.0831
35284SOL    HW210983  -0.072   1.763   9.721 -0.2731  0.3815  0.4865
35285SOL     OW10984   7.807   4.747   0.828  0.0603 -0.0413 -0.7477
35285SOL    HW110985   7.842   4.692   0.897  0.4243  0.8467 -0.2211
35285SOL    HW210986   7.757   4.814   0.874 -0.7161 -0.1653 -1.4025
35286SOL     OW10987   8.417   3.242   4.724 -0.1129 -0.3407  0.0283
35286SOL    HW110988   8.482   3.236   4.795 -0.3276  1.1100  0.3789
35286SOL    HW210989   8.385   3.332   4.729 -1.2175 -0.6601 -0.9770
35287SOL     OW10990   7.961   0.364   2.273 -0.1124 -0.1573 -0.0575
35287SOL    HW110991   7.987   0.432   2.335  1.0229  0.6038 -1.3224
35287SOL    HW210992   7.944   0.412   2.191  0.6863 -1.3942 -0.9617
35288SOL     OW10993   4.156   8.309   1.553 -0.0158 -0.2317 -0.1986
35288SOL    HW110994   4.073   8.274   1.519  0.6483 -1.6536 -0.4084
35288SOL    HW210995   4.162   8.273   1.642  0.1026  0.3480  0.0316
35289SOL     OW10996   2.547   0.773   1.557 -0.0436 -0.4434 -0.2979
35289SOL    HW110997   2.592   0.730   1.629  0.1281 -1.9997 -1.3140
35289SOL    HW210998   2.561   0.715   1.482 -1.6696  0.2880 -1.1848
35290SOL     OW10999  10.629   5.493   2.678  0.1377  0.1233 -0.7023
35290SOL    HW111000  10.664   5.464   2.594 -2.0320  0.3022 -1.6997
35290SOL    HW211001  10.580   5.572   2.658  0.4418  0.7588  0.9232
35291SOL     OW11002  10.021  10.848   1.886  0.6377 -0.6420 -0.6982
35291SOL    HW111003  10.005  10.785   1.817  0.5222  0.0636 -1.3196
35291SOL    HW211004  10.096  10.899   1.856  1.3824 -1.1551  0.2691
35292SOL     OW11005  11.241   2.094   1.185 -0.1929 -0.7146  0.2455
35292SOL    HW111006  11.323   2.051   1.161 -0.9874 -2.0421 -0.1535
35292SOL    HW211007  11.173   2.035   1.153 -1.3346  1.2564 -1.0692
35293SOL     OW11008   4.943   5.103   5.315 -0.7464  0.0431  0.4024
35293SOL    HW111009   4.889   5.052   5.255 -1.0931  0.7739  0.0888
35293SOL    HW211010   5.013   5.138   5.259 -1.3320  1.1066  0.3363
35294SOL     OW11011   1.275   6.858   2.430  0.6331 -0.1737 -0.4537
35294SOL    HW111012   1.205   6.920   2.450  0.4895 -0.2134 -0.8232
35294SOL    HW211013   1.311   6.835   2.515 -0.9864 -1.5320 -0.1151
35295SOL     OW11014   5.728   6.101   0.395 -0.0011 -0.1554 -0.1131
35295SOL    HW111015   5.655   6.119   0.454 -0.2645  1.0111 -0.7966
35295SOL    HW211016   5.689   6.093   0.308  0.7258  0.8649 -0.5438
35296SOL     OW11017   6.324   0.063   5.157 -0.6974 -0.5629  0.2795
35296SOL    HW111018   6.285  -0.019   5.128  0.3352 -1.3780  1.1351
35296SOL    HW211019   6.363   0.041   5.242  0.8484  0.4411 -0.1562
35297SOL     OW11020   4.604   8.657   8.977  0.1432 -0.2272  0.0381
35297SOL    HW111021   4.515   8.630   8.998 -0.6007  3.6301  2.3066
35297SOL    HW211022   4.594   8.746   8.942  2.8936 -0.7490 -2.2582
35298SOL     OW11023   1.127   7.558   1.433  0.3176 -0.1079  0.0938
35298SOL    HW111024   1.191   7.505   1.385 -0.0716  0.4030 -0.9981
35298SOL    HW211025   1.130   7.643   1.390  0.3601  0.5246  1.3343
35299SOL     OW11026   2.277   2.414  10.252  0.0823  0.0635 -0.5723
35299SOL    HW111027   2.217   2.340  10.260 -0.8124  0.7208 -1.1179
35299SOL    HW211028   2.324   2.416  10.335  0.1615 -1.1610 -0.5898
35300SOL     OW11029   5.366  11.013   6.120 -0.0794  0.4579  0.2100
35300SOL    HW111030   5.366  11.096   6.071  0.5645 -1.5098 -3.2931
35300SOL    HW211031   5.276  10.983   6.116  0.1890 -0.2605 -0.8578
35301SOL     OW11032   0.306  11.295   3.556  0.3338 -0.0602 -0.2153
35301SOL    HW111033   0.227  11.268   3.603  0.4161 -1.2013 -0.7218
35301SOL    HW211034   0.288  11.385   3.529 -0.6116 -0.1604  0.0616
35302SOL     OW11035   0.255   7.964   7.846  0.3060  0.0667  0.7194
35302SOL    HW111036   0.249   7.903   7.773  0.4735 -0.7844  1.4048
35302SOL    HW211037   0.167   7.964   7.885  0.4154 -0.0488  0.9670
35303SOL     OW11038   7.225   4.530   5.497  0.4461 -0.1508 -0.2039
35303SOL    HW111039   7.240   4.624   5.491  1.1992 -0.2627 -0.1999
35303SOL    HW211040   7.310   4.491   5.476  0.2834 -0.8137  0.3476
35304SOL     OW11041   3.969   2.842   7.180 -0.9189 -0.1369  0.3868
35304SOL    HW111042   3.880   2.855   7.212 -0.7371  0.0918  0.8000
35304SOL    HW211043   4.017   2.807   7.256 -1.3641 -3.1205 -0.6396
35305SOL     OW11044   9.982   0.283   3.480  0.1449  0.8894  0.0476
35305SOL    HW111045   9.899   0.239   3.459  0.8924 -0.4101 -0.2349
35305SOL    HW211046   9.956   0.360   3.532 -0.9761 -1.8367  3.7375
35306SOL     OW11047   6.104   2.260   2.326  0.0872  0.3551  0.0042
35306SOL    HW111048   6.176   2.198   2.342  1.3449  1.5997 -0.7419
35306SOL    HW211049   6.031   2.204   2.299  0.9453 -0.8948  0.1982
35307SOL     OW11050   8.273   1.526   9.592 -0.1168  0.2493  0.0888
35307SOL    HW111051   8.281   1.560   9.681 -2.1817 -0.2686  0.5049
35307SOL    HW211052   8.229   1.596   9.544 -0.1213  0.0335 -0.2204
35308SOL     OW11053   2.164   1.961   7.070  0.2288 -0.0588  0.1306
35308SOL    HW111054   2.167   1.989   7.162  0.7393  1.2024 -0.2746
35308SOL    HW211055   2.162   1.865   7.075  0.5926 -0.0056  1.4466
35309SOL     OW11056   7.210   0.907   2.991 -0.3535 -0.2523  0.1201
35309SOL    HW111057   7.242   0.993   2.962  0.4779 -0.4248  0.5078
35309SOL    HW211058   7.133   0.927   3.044 -1.3618  0.1219 -1.4312
35310SOL     OW11059   0.393   3.005   2.742  0.2553  0.2458 -0.0037
35310SOL    HW111060   0.374   3.090   2.784 -0.1101  0.3924 -0.4631
35310SOL    HW211061   0.316   2.987   2.688  0.5842 -0.1027 -0.3598
35311SOL     OW11062   2.352   5.205   6.755  0.1024  0.1383  0.1753
35311SOL    HW111063   2.395   5.144   6.696  0.3964 -1.6968  2.2423
35311SOL    HW211064   2.259   5.201   6.730  0.5812  1.4510 -1.9374
35312SOL     OW11065   7.264   3.875   0.039 -0.4146  0.2389 -0.0351
35312SOL    HW111066   7.257   3.956  -0.012  3.3426  0.5589 -0.1831
35312SOL    HW211067   7.254   3.805  -0.025  1.0910  0.6200 -0.6903
35313SOL     OW11068   7.524  10.650   4.045  0.4987  0.0902 -0.0207
35313SOL    HW111069   7.575  10.653   3.965  0.6127 -1.8185 -0.0286
35313SOL    HW211070   7.577  10.599   4.106 -0.6337 -0.4643  0.5231
35314SOL     OW11071   4.796   7.701  10.836 -0.2260 -0.3564 -0.2268
35314SOL    HW111072   4.883   7.662  10.831 -0.0331  0.0178  0.2418
35314SOL    HW211073   4.743   7.646  10.778  0.1327 -1.0897  0.1247
35315SOL     OW11074  10.685   4.764   7.444  0.3673  0.6082 -0.1340
35315SOL    HW111075  10.688   4.766   7.348  0.6546  0.4931 -0.1254
35315SOL    HW211076  10.635   4.685   7.465 -0.3326  1.0268 -0.2035
35316SOL     OW11077   1.747   9.739   5.881  0.1727 -0.3715 -0.3499
35316SOL    HW111078   1.755   9.799   5.955 -2.0240 -2.1858  1.4289
35316SOL    HW211079   1.829   9.688   5.883  1.2458  1.3104 -0.7710
35317SOL     OW11080   1.120   5.137   4.357  0.7074  0.4037 -0.1076
35317SOL    HW111081   1.182   5.175   4.294  0.1493 -0.0063 -0.9024
35317SOL    HW211082   1.174   5.115   4.433  1.8510 -1.6051 -1.4800
35318SOL     OW11083  10.489   5.158   8.433  0.2490 -0.8510 -0.2318
35318SOL    HW111084  10.423   5.164   8.364  1.6462 -0.4642 -1.5724
35318SOL    HW211085  10.520   5.067   8.428  2.3000 -0.0881 -1.9981
35319SOL     OW11086   2.222   0.907   4.579 -0.0743  1.2366  0.0424
35319SOL    HW111087   2.311   0.879   4.598 -0.2380 -1.1754 -2.4653
35319SOL    HW211088   2.179   0.909   4.665  1.2429 -1.7380  0.8174
35320SOL     OW11089   3.170   0.157   7.279 -0.5258 -0.6005 -0.0765
35320SOL    HW111090   3.191   0.213   7.205  1.8174  0.9003  1.6277
35320SOL    HW211091   3.098   0.201   7.324 -1.1664 -0.9101 -0.7885
35321SOL     OW11092   1.226   8.610   8.573 -0.2689 -0.2140 -0.1213
35321SOL    HW111093   1.205   8.616   8.480  0.4714 -0.8358 -0.3422
35321SOL    HW211094   1.208   8.697   8.608 -2.6644 -0.5707 -0.3832
35322SOL     OW11095   7.722   2.795   6.508  0.0753 -0.2317  0.4155
35322SOL    HW111096   7.738   2.801   6.414  0.3894  0.3793  0.5059
35322SOL    HW211097   7.661   2.722   6.518 -0.4919  0.1433 -0.3229
35323SOL     OW11098   4.481   8.348   9.985  0.1632  0.0136  0.1033
35323SOL    HW111099   4.506   8.406  10.057 -1.3198  0.6722  0.0992
35323SOL    HW211100   4.426   8.282  10.026  0.9624 -0.7821 -0.0851
35324SOL     OW11101   2.595  10.531   2.178  0.3535 -0.0668  0.2443
35324SOL    HW111102   2.639  10.602   2.131 -0.5128  1.2164  1.3487
35324SOL    HW211103   2.607  10.553   2.270 -0.8801 -0.7653  0.5748
35325SOL     OW11104   1.188   6.001   5.126 -0.4910  0.3343  0.2393
35325SOL    HW111105   1.168   6.000   5.220 -2.3096 -0.3696 -0.1443
35325SOL    HW211106   1.103   6.007   5.083  0.3072  0.3029 -1.3919
35326SOL     OW11107   1.345   5.954  11.300  0.3582 -0.3183 -0.0753
35326SOL    HW111108   1.289   6.010  11.247 -0.1913 -1.3881 -0.6383
35326SOL    HW211109   1.293   5.934  11.378  0.1672 -0.8464 -0.3344
35327SOL     OW11110   8.434   3.686  11.317  0.2256 -0.0684  0.8119
35327SOL    HW111111   8.530   3.684  11.322  0.2497  0.0582  0.4217
35327SOL    HW211112   8.407   3.598  11.341  0.4588 -0.1926  0.6233
35328SOL     OW11113   3.408   5.721   4.032 -0.6128  0.2062 -0.9134
35328SOL    HW111114   3.499   5.727   4.004 -0.3555 -0.6971 -0.3114
35328SOL    HW211115   3.411   5.670   4.113 -1.4988  1.5318 -0.0345
35329SOL     OW11116   3.964   9.664   5.528 -0.4375 -0.1855 -0.2504
35329SOL    HW111117   4.027   9.629   5.592 -0.3104  2.2951  1.0696
35329SOL    HW211118   3.911   9.726   5.579 -1.0484  1.0384 -2.3297
35330SOL     OW11119  10.669   7.258   9.119  0.6998 -0.6258 -0.2245
35330SOL    HW111120  10.624   7.339   9.144  0.2694 -1.3368  1.4205
35330SOL    HW211121  10.747   7.255   9.174  0.8925 -1.1520 -0.5183
35331SOL     OW11122  10.422  11.093   1.279  0.1438  0.3131 -0.0404
35331SOL    HW111123  10.426  11.116   1.186  3.2081 -0.6824 -0.2078
35331SOL    HW211124  10.475  11.160   1.322  1.1119 -0.8633  0.6219
35332SOL     OW11125   6.428   6.162   6.186 -0.3410 -0.5627  0.0099
35332SOL    HW111126   6.512   6.117   6.196  0.3221  1.0950  2.6007
35332SOL    HW211127   6.382   6.144   6.268 -1.5066  0.5185 -0.3959
35333SOL     OW11128   5.755  11.336   2.577  0.6399 -0.4385 -0.3159
35333SOL    HW111129   5.715  11.378   2.653  2.5408 -0.5320  0.7610
35333SOL    HW211130   5.739  11.396   2.505  1.4323  1.0931  0.7662
35334SOL     OW11131   0.923  11.129   8.909  0.0796 -0.1058 -0.3026
35334SOL    HW111132   1.009  11.088   8.912 -0.2649 -0.7369  2.4650
35334SOL    HW211133   0.939  11.221   8.930  0.3608  0.3737 -2.4754
35335SOL     OW11134   6.345   0.379   0.058 -0.1957  0.3438  0.3259
35335SOL    HW111135   6.383   0.444   0.117  0.6329  0.8650 -0.7598
35335SOL    HW211136   6.267   0.421   0.023 -0.9398 -0.1350  1.3646
35336SOL     OW11137   8.345   0.559   9.347 -0.5628  0.1066  0.1228
35336SOL    HW111138   8.370   0.647   9.375  4.1662 -1.1479  0.2203
35336SOL    HW211139   8.339   0.565   9.252 -2.9767  1.0841  0.2809
35337SOL     OW11140   0.954   2.990  10.715  0.1427  0.2557 -0.0234
35337SOL    HW111141   0.895   2.915  10.724 -0.6716  0.9714  0.7410
35337SOL    HW211142   0.953   3.010  10.622  0.6993 -0.9377 -0.2969
35338SOL     OW11143   9.830   4.945   7.072  0.0604 -0.1165  0.1716
35338SOL    HW111144   9.831   4.992   7.155 -1.8227  0.8065 -0.3137
35338SOL    HW211145   9.814   5.012   7.006 -1.7069 -1.2846 -0.6213
35339SOL     OW11146   2.093   5.207   6.054  0.8317  0.1695  0.1059
35339SOL    HW111147   2.027   5.150   6.094  0.3065  0.6146 -0.1175
35339SOL    HW211148   2.158   5.146   6.019  0.5287 -0.2783  0.3066
35340SOL     OW11149   0.550   0.509   2.738 -0.3584 -0.0688  0.5828
35340SOL    HW111150   0.527   0.451   2.811 -0.5167  0.9519  1.3567
35340SOL    HW211151   0.549   0.597   2.776 -0.8386  0.5187 -0.7413
35341SOL     OW11152   2.881   6.134   7.267 -0.0733  0.4113  0.6296
35341SOL    HW111153   2.926   6.208   7.226  1.3132 -1.1631 -0.8079
35341SOL    HW211154   2.950   6.085   7.312 -1.0149  0.1431  1.8084
35342SOL     OW11155   6.093   7.478   0.297 -0.5984 -0.1039  0.0848
35342SOL    HW111156   6.188   7.494   0.295 -0.9780  2.5429  1.5734
35342SOL    HW211157   6.067   7.500   0.387 -3.2073  2.8597 -1.3129
35343SOL     OW11158  11.136   1.940   4.209  0.1729 -0.5513 -0.2512
35343SOL    HW111159  11.228   1.947   4.235  0.0412  2.6872 -0.5336
35343SOL    HW211160  11.138   1.943   4.114 -0.3753  1.7588 -0.1986
35344SOL     OW11161   0.743   4.827   7.481 -0.2226 -0.0359  0.3797
35344SOL    HW111162   0.723   4.914   7.515  0.6454 -0.0576  0.9835
35344SOL    HW211163   0.687   4.768   7.532  0.3886  0.0235  1.1434
35345SOL     OW11164   0.159   8.094   4.957 -0.7131 -0.0167  0.9445
35345SOL    HW111165   0.114   8.100   5.041 -2.3865  0.6873  0.0171
35345SOL    HW211166   0.215   8.171   4.954 -0.2027 -0.3558  1.6623
35346SOL     OW11167   0.574   6.468   4.688 -0.0875  0.3715  0.8667
35346SOL    HW111168   0.625   6.388   4.676  0.8660  0.7457  2.2081
35346SOL    HW211169   0.513   6.470   4.615 -0.5760 -1.9073  1.1879
35347SOL     OW11170   0.742   2.189  10.784  0.2033  0.3874 -0.5131
35347SOL    HW111171   0.714   2.098  10.772 -0.3663  0.5222 -0.2276
35347SOL    HW211172   0.745   2.225  10.696 -3.5092  1.2480 -0.3713
35348SOL     OW11173   4.568   2.906   7.679 -0.2605 -0.1494 -0.0438
35348SOL    HW111174   4.614   2.857   7.747  0.6238  0.8820  0.1174
35348SOL    HW211175   4.627   2.904   7.604 -0.7169 -0.2745 -0.4038
35349SOL     OW11176   2.786   9.538   0.389 -0.1250 -0.1903  0.2286
35349SOL    HW111177   2.830   9.621   0.409 -2.4299  1.1994 -0.2047
35349SOL    HW211178   2.851   9.487   0.341  2.0755  0.4785  2.4188
35350SOL     OW11179   1.711   9.268   9.122  0.6257  0.6563  0.5061
35350SOL    HW111180   1.699   9.182   9.081 -0.9347  0.5271  1.2122
35350SOL    HW211181   1.791   9.259   9.173  0.7163 -0.2432  0.2196
35351SOL     OW11182   3.892   7.145   1.406  0.3324 -0.7439 -0.4967
35351SOL    HW111183   3.970   7.161   1.354 -0.2540  3.6613 -0.2351
35351SOL    HW211184   3.819   7.165   1.348 -0.4509 -0.1296  0.6720
35352SOL     OW11185  10.810   9.500   8.773  0.0792 -0.0738 -0.0344
35352SOL    HW111186  10.844   9.427   8.825  0.1625 -0.0084  0.0035
35352SOL    HW211187  10.882   9.525   8.715 -0.6229 -1.3272 -1.4618
35353SOL     OW11188   9.029   0.929   5.916  0.3560 -0.3200 -0.3073
35353SOL    HW111189   9.098   0.976   5.869  0.9969 -0.8757  0.0703
35353SOL    HW211190   8.947   0.966   5.882  0.8493  1.0658 -0.0052
35354SOL     OW11191   5.920   4.900   0.039 -0.2692 -0.0642  0.5269
35354SOL    HW111192   5.861   4.828   0.019  0.4286 -0.3495 -0.5830
35354SOL    HW211193   5.862   4.975   0.053 -0.9921 -0.8003  1.5681
35355SOL     OW11194  10.007  10.571   9.837 -0.2359  0.4770  0.2613
35355SOL    HW111195   9.985  10.619   9.757 -1.6021 -0.4348  0.0635
35355SOL    HW211196  10.089  10.609   9.866 -2.2830  4.4103  1.2726
35356SOL     OW11197   6.316   9.826  11.151 -0.6218  0.4359 -0.4099
35356SOL    HW111198   6.257   9.753  11.166 -1.2448  0.7725 -1.1715
35356SOL    HW211199   6.384   9.816  11.217 -1.7320  0.2540  0.7210
35357SOL     OW11200   4.464   3.464   6.533 -0.3333  0.2039 -0.1269
35357SOL    HW111201   4.395   3.445   6.471 -1.4119 -0.6234  1.2948
35357SOL    HW211202   4.450   3.402   6.605  0.6154  1.4068  1.1369
35358SOL     OW11203   4.797   1.386   0.642 -0.0056  0.1117  1.0587
35358SOL    HW111204   4.797   1.297   0.677 -0.1539  0.1529  1.1661
35358SOL    HW211205   4.883   1.397   0.603 -0.1887 -0.2775  0.5447
35359SOL     OW11206   0.181   9.229   6.719 -0.1411 -0.3591 -0.1265
35359SOL    HW111207   0.246   9.231   6.649  0.4340  0.7445  0.4426
35359SOL    HW211208   0.221   9.175   6.788 -0.9736 -2.0021 -0.8789
35360SOL     OW11209   3.180   8.658   0.935  0.0538 -0.2745 -0.3755
35360SOL    HW111210   3.137   8.737   0.967  2.4194  0.0704  2.0771
35360SOL    HW211211   3.149   8.588   0.993 -0.1238 -0.7227 -0.9997
35361SOL     OW11212   4.184   5.986   6.599 -0.3510  0.1524  0.3696
35361SOL    HW111213   4.265   6.038   6.599 -1.2192  1.5335  1.1883
35361SOL    HW211214   4.214   5.895   6.605  1.1439  0.6630  0.8346
35362SOL     OW11215   0.288   1.860   3.432 -0.1812 -0.7526  0.4045
35362SOL    HW111216   0.371   1.832   3.472 -0.3186 -0.1163  1.1380
35362SOL    HW211217   0.314   1.931   3.373 -0.5515  1.4415  2.7991
35363SOL     OW11218   3.142   5.721   9.386  0.3279  0.6343 -0.6560
35363SOL    HW111219   3.144   5.697   9.479  0.2661  0.4575 -0.7019
35363SOL    HW211220   3.146   5.638   9.339 -1.2450  0.6298 -0.7995
35364SOL     OW11221   8.953   6.741  10.798  0.3771  0.3075 -0.1924
35364SOL    HW111222   8.983   6.759  10.709  1.4292 -1.9526 -0.3200
35364SOL    HW211223   8.869   6.696  10.786  1.1310 -1.1524 -0.1068
35365SOL     OW11224   1.867   0.205   5.932 -0.5513 -0.2014 -0.1580
35365SOL    HW111225   1.956   0.227   5.905 -0.4457  0.3979  0.6799
35365SOL    HW211226   1.860   0.239   6.021 -0.2962 -3.6662  1.2699
35366SOL     OW11227   5.771   1.449   5.467 -0.1656  0.1811  0.2897
35366SOL    HW111228   5.767   1.533   5.512 -1.5266 -0.4356  1.3486
35366SOL    HW211229   5.733   1.465   5.381 -2.8651  0.0759  1.4198
35367SOL     OW11230   8.839   0.496   3.490  0.0672 -0.0309 -0.6048
35367SOL    HW111231   8.760   0.448   3.514 -0.4322  0.3775 -1.4238
35367SOL    HW211232   8.823   0.586   3.518  0.8130 -0.2324  0.4996
35368SOL     OW11233   9.238   2.066   7.964 -0.3398  0.1629 -0.2307
35368SOL    HW111234   9.290   2.104   8.034  0.5395  0.6090 -1.1052
35368SOL    HW211235   9.148   2.072   7.995  0.0832 -0.1876  1.0942
35369SOL     OW11236  10.699   5.771   1.248  0.2071  0.1966 -0.3366
35369SOL    HW111237  10.637   5.702   1.271  0.3106  0.6654  1.4181
35369SOL    HW211238  10.729   5.805   1.332  1.9752  0.7609 -1.1834
35370SOL     OW11239   0.451   3.980   5.039 -0.1844 -0.2066 -0.1481
35370SOL    HW111240   0.382   3.920   5.068 -0.6506  0.1897 -0.4301
35370SOL    HW211241   0.532   3.932   5.053 -0.5461 -0.8408 -0.2246
35371SOL     OW11242   6.377  10.828   3.977 -0.5486  0.9815 -0.6926
35371SOL    HW111243   6.331  10.852   3.897 -1.5067 -0.5001 -0.6124
35371SOL    HW211244   6.325  10.866   4.048 -0.0466  1.7605 -0.7416
35372SOL     OW11245   1.298   7.252  10.946  0.8007 -0.4014 -0.2275
35372SOL    HW111246   1.258   7.295  10.870  0.2703 -0.0550  0.2348
35372SOL    HW211247   1.351   7.182  10.909 -1.2798 -1.7221 -0.8106
35373SOL     OW11248   6.787   5.977   8.874  0.5404  0.1639  0.6476
35373SOL    HW111249   6.748   6.038   8.812  0.6247  0.1187  0.5492
35373SOL    HW211250   6.718   5.912   8.890  0.9760 -0.6118 -0.4790
35374SOL     OW11251   0.457   1.720   3.144 -0.2447  0.1082 -0.0358
35374SOL    HW111252   0.518   1.779   3.189 -1.3156  0.8225  0.5195
35374SOL    HW211253   0.431   1.656   3.211  0.8136 -0.9246 -0.6033
35375SOL     OW11254   3.523   5.876   9.721  0.3004  0.2135  0.1568
35375SOL    HW111255   3.532   5.810   9.790 -0.0491  0.8194  0.7936
35375SOL    HW211256   3.589   5.942   9.744 -0.1428  0.6488  0.1811
35376SOL     OW11257   2.879   3.927   1.720  0.1809 -0.1327  0.3975
35376SOL    HW111258   2.919   3.963   1.799  0.3108  1.5722 -0.4125
35376SOL    HW211259   2.949   3.927   1.655 -0.1248 -0.7970  0.0641
35377SOL     OW11260   7.856   0.246  10.890 -0.1153  0.1061  0.1292
35377SOL    HW111261   7.777   0.197  10.869 -1.0676  2.2296 -1.4974
35377SOL    HW211262   7.915   0.182  10.929 -2.0111 -1.8733 -0.1791
35378SOL     OW11263  10.751   7.572   7.239 -0.1025 -0.2955 -0.1258
35378SOL    HW111264  10.690   7.645   7.249 -0.5455 -0.5772 -0.7422
35378SOL    HW211265  10.753   7.556   7.145  0.4570 -0.6868 -0.0489
35379SOL     OW11266   1.694  10.432   0.703  0.3486  0.3777  0.3433
35379SOL    HW111267   1.692  10.342   0.733  0.4072 -0.0910 -1.0138
35379SOL    HW211268   1.759  10.432   0.632  0.6151  1.5566  0.5732
35380SOL     OW11269   8.877   6.360   3.007 -0.0572  0.1099  0.7435
35380SOL    HW111270   8.839   6.347   2.921  1.1901  0.3549  0.1504
35380SOL    HW211271   8.819   6.313   3.067 -1.6849  1.0686 -0.0540
35381SOL     OW11272   9.431   4.518   7.458  0.2391  0.0693 -0.3242
35381SOL    HW111273   9.476   4.458   7.517  0.5845 -0.1705 -0.8207
35381SOL    HW211274   9.339   4.510   7.481  0.3917  0.1283  0.3120
35382SOL     OW11275   2.516   4.738  10.568  0.0559 -0.2595 -0.1499
35382SOL    HW111276   2.459   4.700  10.501  0.0055  0.6443 -0.6262
35382SOL    HW211277   2.480   4.705  10.651 -0.4545 -0.6215 -0.5124
35383SOL     OW11278   9.976  10.065   2.616  0.0317 -0.3290  0.2631
35383SOL    HW111279   9.894  10.065   2.665 -0.4448  0.1742 -0.5136
35383SOL    HW211280  10.018  10.148   2.638  0.7328 -0.9377  1.2887
35384SOL     OW11281   0.334   2.092   1.504  0.1933  0.6120  0.1481
35384SOL    HW111282   0.386   2.020   1.468 -1.0923  0.0253 -0.5462
35384SOL    HW211283   0.374   2.171   1.469  0.1949  0.1333 -0.9295
35385SOL     OW11284   4.422   9.161   5.021  0.0263  0.2335 -0.6222
35385SOL    HW111285   4.344   9.143   4.968  0.4635 -0.5053 -1.0331
35385SOL    HW211286   4.490   9.105   4.983 -0.1332 -1.7768  1.8996
35386SOL     OW11287  10.092   9.499   6.781 -0.5276  0.1057  0.1621
35386SOL    HW111288  10.158   9.431   6.794 -0.8556  0.0592  1.6386
35386SOL    HW211289  10.078   9.536   6.868 -2.3656  0.1858 -0.1366
35387SOL     OW11290   4.769   3.626   8.842  0.4971 -0.0211  0.6717
35387SOL    HW111291   4.775   3.717   8.816 -0.1859  0.1467  1.0761
35387SOL    HW211292   4.850   3.586   8.811  0.1074  0.3736 -0.8943
35388SOL     OW11293   8.921   2.927   2.191  0.1522 -0.3051  0.2824
35388SOL    HW111294   8.831   2.957   2.179  0.3446  0.9418  1.8111
35388SOL    HW211295   8.912   2.840   2.231 -0.3734  0.1576  1.1776
35389SOL     OW11296   1.704   6.018   6.728  0.9193 -0.1776 -0.2957
35389SOL    HW111297   1.672   5.947   6.672  0.0848  0.7702 -1.0361
35389SOL    HW211298   1.775   5.978   6.779  0.7470 -1.4248 -1.0106
35390SOL     OW11299   0.010   4.052   5.843  0.6429  0.5504 -0.5310
35390SOL    HW111300   0.023   4.054   5.938  0.0482 -0.8730 -0.4091
35390SOL    HW211301   0.032   3.963   5.818  0.8836  0.9444 -1.7588
35391SOL     OW11302   9.553  11.148   8.894  0.7728  0.0711 -0.2189
35391SOL    HW111303   9.617  11.114   8.832  0.9726 -2.8272  1.5069
35391SOL    HW211304   9.470  11.108   8.868  1.1429 -2.4615  2.2615
35392SOL     OW11305   2.417   9.260   3.208 -0.0752  0.0704  0.0276
35392SOL    HW111306   2.484   9.237   3.273 -0.0380 -2.2651 -0.7856
35392SOL    HW211307   2.334   9.249   3.254  0.0377  1.5153  0.5965
35393SOL     OW11308   1.726   2.027   8.345 -0.0983 -0.6190  0.0432
35393SOL    HW111309   1.784   2.083   8.397 -0.2009  0.7269 -1.2743
35393SOL    HW211310   1.661   1.995   8.408  0.6130 -0.1477  1.0274
35394SOL     OW11311   0.363   2.356   0.348 -0.1107  0.1287  0.1804
35394SOL    HW111312   0.443   2.358   0.402 -0.4841 -0.2794  0.7563
35394SOL    HW211313   0.302   2.412   0.396 -0.3645 -0.0353  0.0436
35395SOL     OW11314   2.176   9.179   8.643  0.3378 -0.2456 -0.4956
35395SOL    HW111315   2.227   9.119   8.589  1.7443 -1.5094  2.1847
35395SOL    HW211316   2.115   9.123   8.690 -0.4220  0.7709 -0.2484
35396SOL     OW11317  10.283   9.095   0.841 -0.4918 -0.2954 -0.1934
35396SOL    HW111318  10.310   9.047   0.763 -1.5316 -0.2067 -0.6062
35396SOL    HW211319  10.218   9.158   0.810  1.9590  2.4981  0.0477
35397SOL     OW11320   6.873   4.900   9.433 -0.5857 -0.1797 -0.0307
35397SOL    HW111321   6.943   4.851   9.390  1.8552  1.8656  1.5115
35397SOL    HW211322   6.839   4.959   9.366 -0.7448 -1.0881 -0.7474
35398SOL     OW11323   4.030   6.934  10.037  0.1637 -0.1054  0.3112
35398SOL    HW111324   3.939   6.950  10.061 -0.0602  0.0719 -0.6429
35398SOL    HW211325   4.050   6.999   9.970  0.4928 -1.1624 -0.6469
35399SOL     OW11326   4.701   6.405  10.441 -0.2549 -0.0386  0.0717
35399SOL    HW111327   4.729   6.355  10.364  0.4075 -1.5466  1.2677
35399SOL    HW211328   4.605   6.399  10.441 -0.2123 -0.7540 -0.1757
35400SOL     OW11329   2.480   7.669   4.761 -0.3194  0.2003  0.3233
35400SOL    HW111330   2.550   7.661   4.696  0.3149 -0.6897  1.1092
35400SOL    HW211331   2.477   7.584   4.804 -1.4198  0.4613  0.7738
35401SOL     OW11332   5.489   5.429   4.446  0.0342 -0.7342  0.7735
35401SOL    HW111333   5.503   5.511   4.493 -0.9906 -0.2499  0.2468
35401SOL    HW211334   5.575   5.385   4.449  1.0144  1.0508 -0.2677
35402SOL     OW11335   9.617   3.549   4.277 -0.1247 -0.5783  0.0837
35402SOL    HW111336   9.640   3.468   4.323  0.6334 -0.3430  0.1296
35402SOL    HW211337   9.610   3.523   4.185  0.2668 -0.6733  0.0768
35403SOL     OW11338   1.950   7.841   9.249  0.1470  0.1815 -0.2148
35403SOL    HW111339   1.928   7.835   9.342  1.0412  1.1375  0.0613
35403SOL    HW211340   1.873   7.879   9.208  0.3407  1.2111  0.3720
35404SOL     OW11341   5.829   0.462   7.535 -0.3871 -0.4170 -0.2540
35404SOL    HW111342   5.779   0.542   7.553  0.4792  0.1865 -0.5091
35404SOL    HW211343   5.912   0.476   7.580  0.7646 -0.0595 -2.4661
35405SOL     OW11344   0.949   0.624   2.500 -0.0481 -0.3328 -0.2653
35405SOL    HW111345   0.902   0.548   2.535 -2.7156  0.2628 -2.3687
35405SOL    HW211346   0.880   0.685   2.475  1.8671  0.9576 -2.6510
35406SOL     OW11347  10.152  10.868   7.514 -0.7145 -0.0276  0.0849
35406SOL    HW111348  10.086  10.828   7.570 -0.3441 -0.1082  0.4566
35406SOL    HW211349  10.135  10.962   7.521 -3.1012 -0.1543 -2.6028
35407SOL     OW11350   1.836   4.803  10.113 -0.0031  0.4779  0.2459
35407SOL    HW111351   1.892   4.733  10.147 -1.5959 -0.8713  0.1705
35407SOL    HW211352   1.897   4.865  10.072  1.4051 -1.0794 -0.0610
35408SOL     OW11353   0.001   4.919   0.678 -0.4212  0.2471 -0.5199
35408SOL    HW111354  -0.082   4.921   0.725 -0.5119 -0.3425 -0.6475
35408SOL    HW211355   0.001   4.998   0.625 -1.2816 -0.1736 -1.1507
35409SOL     OW11356   1.573  10.530   9.447  0.1822 -0.9965  0.3952
35409SOL    HW111357   1.612  10.576   9.373 -1.3061 -1.2004 -0.5352
35409SOL    HW211358   1.571  10.438   9.421 -0.6994 -1.0209  0.5041
35410SOL     OW11359  10.449   8.295   0.237  0.4282 -0.0550  0.1630
35410SOL    HW111360  10.471   8.341   0.156 -2.9462 -1.8212 -1.8507
35410SOL    HW211361  10.515   8.225   0.244 -0.3652 -1.0851 -2.1438
35411SOL     OW11362   2.754   9.932   3.462 -0.1644  0.0284  0.5072
35411SOL    HW111363   2.713  10.018   3.450 -0.7478 -0.0034  2.1895
35411SOL    HW211364   2.772   9.902   3.373 -2.2810  0.7801 -0.2103
35412SOL     OW11365   4.188   3.883   0.409 -0.6349 -1.0459 -0.3743
35412SOL    HW111366   4.122   3.824   0.446 -1.7176 -0.1713 -0.8825
35412SOL    HW211367   4.224   3.930   0.484  0.0462 -2.1465  0.0040
35413SOL     OW11368   3.561   5.845  10.749 -0.3186 -0.3235  0.1454
35413SOL    HW111369   3.642   5.809  10.714  0.3972  1.1404  0.2439
35413SOL    HW211370   3.506   5.862  10.672  1.2358  2.8519 -0.3554
35414SOL     OW11371   7.292   8.424   9.168  0.0145  0.2364  0.1479
35414SOL    HW111372   7.225   8.376   9.216  0.5950  0.1505  0.8702
35414SOL    HW211373   7.243   8.491   9.121 -1.1234 -2.6454 -2.9571
35415SOL     OW11374  10.985  10.595   7.459  0.0893 -0.0346 -0.0687
35415SOL    HW111375  10.919  10.573   7.524  1.8028 -2.2840  0.9884
35415SOL    HW211376  11.057  10.633   7.510  0.2162  1.0110 -1.0125
35416SOL     OW11377   9.986   4.980   9.177  0.1403 -0.3736  0.5699
35416SOL    HW111378   9.915   4.965   9.116 -0.4953  0.7775  1.0233
35416SOL    HW211379   9.970   4.918   9.249  0.2913 -0.9657  0.1004
35417SOL     OW11380  11.252   9.697   0.986  0.1005 -0.1783  0.7192
35417SOL    HW111381  11.319   9.743   0.936 -1.8375  0.8470 -1.0492
35417SOL    HW211382  11.300   9.639   1.044  2.6968  4.0209  3.0557
35418SOL     OW11383   6.569  10.586   1.901  0.2054 -0.2028 -0.3103
35418SOL    HW111384   6.623  10.653   1.859 -0.4564  1.8149  1.9586
35418SOL    HW211385   6.615  10.565   1.982 -1.9977  0.9959  1.2960
35419SOL     OW11386   6.778   4.874   8.739  0.1337 -0.0180 -0.0203
35419SOL    HW111387   6.814   4.959   8.712  1.9662 -0.8288 -0.2528
35419SOL    HW211388   6.766   4.826   8.657  1.4557 -0.8581  0.2499
35420SOL     OW11389   2.373   6.912   9.317 -0.4752 -1.0242  0.2749
35420SOL    HW111390   2.378   7.003   9.346 -0.2903 -0.6865 -0.7744
35420SOL    HW211391   2.383   6.917   9.222 -1.0139 -2.0941  0.1534
35421SOL     OW11392   1.537   2.044   1.819 -0.6656  0.3740  0.0786
35421SOL    HW111393   1.508   2.100   1.747 -0.6070  0.7618  0.3558
35421SOL    HW211394   1.632   2.051   1.818 -0.6033 -0.5164 -0.5228
35422SOL     OW11395   5.901   8.423  11.118  0.2303  0.4813  0.1089
35422SOL    HW111396   5.829   8.371  11.152 -0.5880  1.5941  0.1141
35422SOL    HW211397   5.871   8.451  11.031  1.4705 -0.6728 -0.7090
35423SOL     OW11398   7.719   6.003  11.111 -0.3921 -0.4768 -0.2042
35423SOL    HW111399   7.739   6.046  11.028 -1.5979 -0.2451 -0.3900
35423SOL    HW211400   7.669   6.068  11.160 -1.3502 -1.2897 -0.0782
35424SOL     OW11401   6.282   1.324   7.010 -0.0635  0.4753 -0.3477
35424SOL    HW111402   6.317   1.296   6.926  1.1983  1.7919 -0.2750
35424SOL    HW211403   6.338   1.397   7.037 -0.7950  0.4377  1.3661
35425SOL     OW11404   5.987   5.799   8.230 -0.2383  0.2883 -0.6265
35425SOL    HW111405   6.068   5.817   8.182 -0.4359  1.6576 -0.4790
35425SOL    HW211406   6.015   5.758   8.311  0.1435 -1.4995 -1.6360
35426SOL     OW11407   1.809   8.214   2.272 -0.2402 -0.1530  0.1074
35426SOL    HW111408   1.839   8.299   2.240  0.4262 -0.2932  0.3475
35426SOL    HW211409   1.793   8.163   2.193  0.7255 -0.2705 -0.0102
35427SOL     OW11410   8.009   8.965   9.777 -0.8690  0.1354  0.0434
35427SOL    HW111411   8.051   9.050   9.792 -0.3097  0.2991 -2.3191
35427SOL    HW211412   8.064   8.903   9.824 -0.6219  0.9243  0.8146
35428SOL     OW11413   4.805   8.833   7.717  0.1283  0.4563 -0.0414
35428SOL    HW111414   4.738   8.895   7.688 -1.7924 -1.8769 -0.7884
35428SOL    HW211415   4.755   8.757   7.747  2.4192 -0.7474  0.8026
35429SOL     OW11416   8.033   8.828   3.183  0.2444 -0.4515  0.8769
35429SOL    HW111417   8.001   8.741   3.157  2.8145 -1.1429 -0.2413
35429SOL    HW211418   8.067   8.866   3.102  2.2521  0.1628  1.9573
35430SOL     OW11419   2.797   4.847  10.938  0.1440  0.3425 -0.1202
35430SOL    HW111420   2.841   4.802  10.866  0.4050  0.5967 -0.1185
35430SOL    HW211421   2.867   4.867  11.001 -0.1859 -0.5345  0.5457
35431SOL     OW11422   0.589   7.762   2.049  1.2533  0.3313 -0.0251
35431SOL    HW111423   0.623   7.743   2.137 -1.9672 -1.4583  0.9470
35431SOL    HW211424   0.628   7.846   2.026  3.6077 -0.0239  2.3373
35432SOL     OW11425   0.564   4.906   6.427 -0.1314  0.3260  0.1603
35432SOL    HW111426   0.583   4.982   6.372  0.7949  0.4981  0.7082
35432SOL    HW211427   0.551   4.834   6.364  1.0595  0.4940 -0.2845
35433SOL     OW11428   7.280   6.452  10.959 -0.7079  0.1009 -0.1871
35433SOL    HW111429   7.202   6.494  10.996  0.5580  2.3773 -0.0023
35433SOL    HW211430   7.315   6.517  10.898  1.3316 -0.6795  0.1084
35434SOL     OW11431   1.338   0.010  10.484 -0.6188 -0.0868 -0.2468
35434SOL    HW111432   1.361   0.097  10.515 -1.9881  0.4098 -0.5803
35434SOL    HW211433   1.420  -0.039  10.487  0.3819  1.5005 -1.0439
35435SOL     OW11434   5.194   5.854   4.144  0.2052 -0.2095 -0.3878
35435SOL    HW111435   5.158   5.778   4.189 -0.6443 -0.0999 -0.8785
35435SOL    HW211436   5.279   5.868   4.185 -0.0975 -0.7700  0.4391
35436SOL     OW11437   1.854   3.577   7.520 -0.1670  0.4494  0.7581
35436SOL    HW111438   1.938   3.614   7.494 -0.7675  1.5606  0.3747
35436SOL    HW211439   1.800   3.652   7.544 -1.3548 -0.1808  0.1283
35437SOL     OW11440   3.385   4.291   1.794  0.3411 -0.0267 -0.0086
35437SOL    HW111441   3.429   4.263   1.714 -0.9122 -1.6847 -0.1467
35437SOL    HW211442   3.387   4.215   1.851  1.2092  1.1360  1.5579
35438SOL     OW11443   5.939  10.342   9.255 -0.2944  0.4143  0.4578
35438SOL    HW111444   6.006  10.275   9.272  0.6524  1.4046  0.6913
35438SOL    HW211445   5.989  10.419   9.230 -1.3728  1.1098  0.4342
35439SOL     OW11446   3.962   4.428   8.638  0.3868  0.2460 -0.2011
35439SOL    HW111447   3.983   4.361   8.573  1.4830  1.2074 -0.8735
35439SOL    HW211448   4.048   4.460   8.667 -0.1000  2.6511 -1.2780
35440SOL     OW11449   8.141   6.779   7.380 -0.1501 -0.1615  0.0227
35440SOL    HW111450   8.164   6.769   7.473 -0.3732 -0.8822  0.0020
35440SOL    HW211451   8.225   6.784   7.335 -0.0418 -0.4608  0.1925
35441SOL     OW11452   2.463   8.975   1.026  0.5011  0.7412 -0.2016
35441SOL    HW111453   2.383   9.025   1.044  0.5650  1.3654 -1.5519
35441SOL    HW211454   2.456   8.898   1.082  0.1674  2.0212  1.5781
35442SOL     OW11455   9.670  10.037   5.476 -0.1415  0.8331  0.0104
35442SOL    HW111456   9.695  10.127   5.454  1.0204  0.8447  1.2918
35442SOL    HW211457   9.606  10.047   5.547 -0.7344  0.6752 -0.5003
35443SOL     OW11458  10.196   1.738   3.616  0.0585 -0.1025  0.1236
35443SOL    HW111459  10.273   1.760   3.669  1.7966 -0.3451 -2.2161
35443SOL    HW211460  10.123   1.783   3.659  1.9147  2.1801  0.9863
35444SOL     OW11461   9.885   8.419   0.400 -0.6122  0.1063 -0.0346
35444SOL    HW111462   9.940   8.468   0.338 -0.6780  2.6110  1.8108
35444SOL    HW211463   9.796   8.435   0.369 -0.6446  1.3233  0.6679
35445SOL     OW11464   4.067  10.671  10.712 -0.5598  0.1232 -0.4937
35445SOL    HW111465   4.093  10.722  10.636 -0.2091  0.3536 -0.2223
35445SOL    HW211466   3.978  10.699  10.730 -1.0074 -0.6701 -1.4337
35446SOL     OW11467   4.049   3.150   4.035  0.0077  0.6374  0.6133
35446SOL    HW111468   3.965   3.116   4.004 -0.7632  1.4080  1.8024
35446SOL    HW211469   4.065   3.103   4.117  1.2868 -0.2919 -0.1383
35447SOL     OW11470  10.397   4.791   7.213  0.2901  0.3496 -0.3637
35447SOL    HW111471  10.347   4.725   7.262  0.7993  0.7734  0.7284
35447SOL    HW211472  10.484   4.752   7.203  0.5953  0.8552  0.2899
35448SOL     OW11473   8.210   9.728  10.042 -0.2817 -0.2004  0.4446
35448SOL    HW111474   8.292   9.712   9.995 -0.2204  0.3976  0.3534
35448SOL    HW211475   8.237   9.745  10.132 -0.1463  2.0484  0.0027
35449SOL     OW11476   5.284   1.600  10.837 -0.3837  0.1952  0.2234
35449SOL    HW111477   5.246   1.687  10.824  0.3704  0.6212  0.8513
35449SOL    HW211478   5.339   1.609  10.915 -1.5984 -1.2577  1.2856
35450SOL     OW11479   2.185  10.062   0.643  0.3708  0.2901  0.0532
35450SOL    HW111480   2.248  10.075   0.572 -0.2066  0.3056 -0.4621
35450SOL    HW211481   2.232  10.009   0.707  1.4894  1.7541  0.4729
35451SOL     OW11482   9.365   5.287   8.484  0.1460 -0.0788 -0.1418
35451SOL    HW111483   9.397   5.363   8.435  1.0050  0.0271  0.5565
35451SOL    HW211484   9.280   5.314   8.518  0.0941  0.2895 -0.5572
35452SOL     OW11485   5.799   4.574   4.165  0.1725  0.0846 -0.5489
35452SOL    HW111486   5.803   4.665   4.195 -1.7537 -0.1394  0.4609
35452SOL    HW211487   5.714   4.567   4.121  0.1026 -1.3472 -0.2043
35453SOL     OW11488  10.154   2.936   0.651  0.2859  0.1869 -0.1172
35453SOL    HW111489  10.142   2.963   0.742  1.2408  1.6279 -0.3994
35453SOL    HW211490  10.246   2.951   0.633  0.2983 -0.9608 -1.0552
35454SOL     OW11491   5.480   9.706   1.815 -0.3181 -0.1430  0.2805
35454SOL    HW111492   5.468   9.737   1.904 -1.8526 -0.5428  0.2373
35454SOL    HW211493   5.396   9.664   1.793  0.1391 -0.2956 -1.2369
35455SOL     OW11494  11.078   7.960   3.230 -0.2612  0.2475  0.1360
35455SOL    HW111495  11.037   8.027   3.283 -3.0453 -0.2094 -1.3752
35455SOL    HW211496  11.051   7.877   3.270 -1.6833 -0.0773 -1.4518
35456SOL     OW11497   1.882   6.300   7.926 -0.0177 -0.2142  0.5089
35456SOL    HW111498   1.912   6.242   7.856  3.2438  0.3605  1.3239
35456SOL    HW211499   1.839   6.242   7.989  1.7561 -1.5795  0.5256
35457SOL     OW11500   5.039   7.286  10.879 -0.1696  0.0266  0.2237
35457SOL    HW111501   4.970   7.231  10.917 -0.5204  0.5384  0.3324
35457SOL    HW211502   5.015   7.295  10.787  0.0319 -0.2251  0.1478
35458SOL     OW11503   6.050   5.559   5.525  0.2966  0.2497 -0.5171
35458SOL    HW111504   6.066   5.485   5.585  0.5718 -0.4703 -1.4674
35458SOL    HW211505   5.956   5.557   5.509 -0.0796  1.6450  1.4283
35459SOL     OW11506   8.223   3.454   7.862 -0.0562 -0.2765 -0.5726
35459SOL    HW111507   8.304   3.414   7.894  0.4084  1.5152  0.5638
35459SOL    HW211508   8.210   3.530   7.919 -1.3373  0.7443 -2.1889
35460SOL     OW11509   8.169  10.525   4.539 -0.1216  0.0935  0.0104
35460SOL    HW111510   8.255  10.498   4.571 -0.5408 -0.7451  0.4606
35460SOL    HW211511   8.123  10.443   4.521 -1.1801  0.4968  0.7653
35461SOL     OW11512   9.300   7.280   9.069 -0.3095  0.5204 -0.3327
35461SOL    HW111513   9.374   7.251   9.016  0.7983  2.0353  0.3207
35461SOL    HW211514   9.237   7.208   9.066  0.2806  0.0760 -2.6320
35462SOL     OW11515   4.368   5.358   1.902  0.6420  0.1130  0.6982
35462SOL    HW111516   4.395   5.271   1.931  0.7646  0.5486  1.9186
35462SOL    HW211517   4.333   5.344   1.814 -2.0463 -1.6467  1.9944
35463SOL     OW11518   2.079   8.120   2.303 -0.1261  0.0203 -0.3206
35463SOL    HW111519   1.985   8.136   2.312 -0.3826  0.1192 -2.8102
35463SOL    HW211520   2.104   8.168   2.224  2.0017 -0.1138  0.2275
35464SOL     OW11521   7.143  10.060  10.676 -0.1883 -0.5196  0.5353
35464SOL    HW111522   7.144   9.966  10.694 -0.6682 -0.7591 -0.6391
35464SOL    HW211523   7.236  10.084  10.668  0.0034 -0.5867  2.2692
35465SOL     OW11524   1.871   3.819   2.425 -0.4593 -0.2258  0.0939
35465SOL    HW111525   1.891   3.774   2.343  2.2599 -0.4439  0.8205
35465SOL    HW211526   1.785   3.786   2.450 -0.7169 -1.2095 -1.9466
35466SOL     OW11527  10.171   6.016   9.751 -0.5064  0.2910 -0.2104
35466SOL    HW111528  10.190   5.989   9.661  0.8813  1.0741 -0.1797
35466SOL    HW211529  10.255   6.005   9.797 -1.4082 -0.8515  1.1805
35467SOL     OW11530   6.873   9.247   1.367  0.0282 -0.0822  0.3019
35467SOL    HW111531   6.806   9.197   1.321  1.0264 -2.2785  1.1475
35467SOL    HW211532   6.830   9.276   1.447 -0.6183  0.5973 -0.2854
35468SOL     OW11533   8.605   1.856   6.125  0.0019  0.1964  0.1174
35468SOL    HW111534   8.575   1.768   6.147  1.0456 -0.3008 -0.4625
35468SOL    HW211535   8.526   1.911   6.134 -0.5034 -0.6772  1.0856
35469SOL     OW11536   7.593   6.672   9.147  0.0043 -0.2403  0.0764
35469SOL    HW111537   7.505   6.636   9.153  0.7044 -1.7324  2.5219
35469SOL    HW211538   7.613   6.699   9.237  2.0906 -0.0974 -0.4117
35470SOL     OW11539   3.007  11.093   4.486  0.1124  0.1608  0.0484
35470SOL    HW111540   3.092  11.098   4.441  0.7419 -0.7173  1.1191
35470SOL    HW211541   2.999  11.177   4.530  1.4012 -0.4983  1.6207
35471SOL     OW11542   6.335   4.752   6.849 -0.1321  0.3224 -0.5484
35471SOL    HW111543   6.341   4.734   6.942  0.4904 -1.5988 -0.9198
35471SOL    HW211544   6.270   4.689   6.817  1.1996 -0.5042 -1.7246
35472SOL     OW11545   5.599   5.075   0.861  0.3700  0.2817  0.2007
35472SOL    HW111546   5.562   5.059   0.947  2.0048  1.1183  1.1046
35472SOL    HW211547   5.641   4.993   0.836 -0.7032 -0.1703 -0.1095
35473SOL     OW11548   4.495   2.274   6.636  0.5450 -0.2104 -0.1077
35473SOL    HW111549   4.430   2.229   6.690  1.0083 -1.1293 -0.3069
35473SOL    HW211550   4.458   2.361   6.621 -0.7561 -0.8293 -0.4745
35474SOL     OW11551   2.320   0.144   9.511  0.0238 -0.5235  0.5894
35474SOL    HW111552   2.398   0.114   9.465 -0.0943 -0.9967  0.6949
35474SOL    HW211553   2.354   0.181   9.593  0.0058 -2.4779  1.5170
35475SOL     OW11554   1.689   4.778   0.065 -0.5738  0.0284  0.7663
35475SOL    HW111555   1.679   4.873   0.074 -0.9128  0.0492  0.2166
35475SOL    HW211556   1.691   4.763  -0.029 -1.0680 -0.5676  0.8464
35476SOL     OW11557   9.417   7.088   4.093  0.0029 -0.7318 -0.4777
35476SOL    HW111558   9.443   7.002   4.126  0.9702 -0.8171 -1.4399
35476SOL    HW211559   9.343   7.070   4.034  1.0347 -1.0478 -1.6816
35477SOL     OW11560   7.135   3.612   3.656  0.1461  0.0344 -0.3024
35477SOL    HW111561   7.116   3.706   3.661 -0.4159 -0.0391 -0.9213
35477SOL    HW211562   7.118   3.579   3.744 -0.5564  0.3489 -0.3189
35478SOL     OW11563   9.175  10.376   5.918 -0.2068  0.5636  0.1534
35478SOL    HW111564   9.080  10.374   5.914 -0.3353  0.6311  2.4340
35478SOL    HW211565   9.202  10.285   5.905 -0.5409  0.6242 -1.0031
35479SOL     OW11566   8.350  10.242   4.154 -0.0948 -0.5674  0.2024
35479SOL    HW111567   8.372  10.184   4.081 -0.0287  0.8662 -0.9331
35479SOL    HW211568   8.264  10.211   4.184 -0.4221 -0.7632 -0.9003
35480SOL     OW11569   3.175   6.193   0.470  0.1552  0.3723 -0.3441
35480SOL    HW111570   3.218   6.108   0.480  0.7074  0.8055  1.2458
35480SOL    HW211571   3.083   6.173   0.452  0.1630 -0.5607  0.6492
35481SOL     OW11572   6.265   2.040   2.364 -0.3505 -0.2794 -0.0562
35481SOL    HW111573   6.277   1.955   2.406  1.6637 -0.3761 -0.7870
35481SOL    HW211574   6.205   2.022   2.291 -2.1671 -0.5125  1.4610
35482SOL     OW11575  10.800   2.276   6.694  1.0448 -0.4553  0.5886
35482SOL    HW111576  10.713   2.310   6.715  1.0340  0.4015 -0.8220
35482SOL    HW211577  10.861   2.345   6.722  1.1757 -0.3437  0.0262
35483SOL     OW11578   8.009   2.919   7.871  0.5678 -0.0034 -0.1893
35483SOL    HW111579   7.920   2.894   7.847  0.5945 -0.4287  0.1585
35483SOL    HW211580   8.063   2.844   7.848  0.3701 -1.0538  2.6424
35484SOL     OW11581  11.165   8.746   9.406  0.1004  0.1238 -0.0679
35484SOL    HW111582  11.163   8.809   9.478 -1.2679  1.5706 -1.3260
35484SOL    HW211583  11.145   8.662   9.447 -0.0279  0.8212  1.3289
35485SOL     OW11584  10.180   6.434  11.086  0.1850 -0.2360  0.2642
35485SOL    HW111585  10.200   6.521  11.051  0.7173 -0.6409 -0.4535
35485SOL    HW211586  10.104   6.405  11.036  0.7314 -0.6692 -0.3229
35486SOL     OW11587   7.166   3.792   4.407  0.6488 -0.0847 -0.1192
35486SOL    HW111588   7.206   3.868   4.365  1.3321  0.6043  1.7264
35486SOL    HW211589   7.194   3.798   4.498 -0.4575 -1.7766  0.3456
35487SOL     OW11590   1.244   1.516  10.252  0.4304  0.4353 -0.2160
35487SOL    HW111591   1.335   1.514  10.283  0.5915 -0.8223 -0.7130
35487SOL    HW211592   1.197   1.565  10.319  1.2734  0.1235  0.6236
35488SOL     OW11593   5.161   9.418  10.942 -0.1901  0.6081  0.2341
35488SOL    HW111594   5.206   9.499  10.966 -0.9844  1.1217 -0.0133
35488SOL    HW211595   5.070   9.443  10.930  0.1209  0.3688 -3.2509
35489SOL     OW11596   6.519   5.858   6.475  0.1025  0.6555  0.1956
35489SOL    HW111597   6.474   5.840   6.558  0.9382 -0.2853  0.4576
35489SOL    HW211598   6.589   5.918   6.500 -0.7972  1.8709 -0.1593
35490SOL     OW11599   7.923  10.638   4.455  0.6282  0.0400 -0.0865
35490SOL    HW111600   7.944  10.581   4.529  0.7462  1.1395  0.7381
35490SOL    HW211601   8.007  10.650   4.410  0.3165 -1.6853 -1.1773
35491SOL     OW11602   5.821  10.648   9.938 -0.6842 -0.0137 -0.2115
35491SOL    HW111603   5.799  10.651  10.031  1.4768  0.7595  0.2842
35491SOL    HW211604   5.851  10.558   9.923 -0.6010 -0.0085 -0.0738
35492SOL     OW11605   9.922   1.550   0.307  0.4827  0.5393  0.0385
35492SOL    HW111606   9.899   1.626   0.359 -0.1777  1.1604 -1.1477
35492SOL    HW211607   9.984   1.501   0.361  0.2396  1.4664  1.1548
35493SOL     OW11608   3.006   0.143   8.365  1.0474  0.0710  0.2329
35493SOL    HW111609   3.055   0.134   8.284 -0.4307  0.9779 -0.7861
35493SOL    HW211610   3.057   0.205   8.418  1.5990  0.0821 -0.3101
35494SOL     OW11611  11.065   6.709  10.507  0.0490 -0.5798  0.2237
35494SOL    HW111612  11.055   6.657  10.427 -1.1399  0.0509 -0.0446
35494SOL    HW211613  11.134   6.772  10.486  1.7240 -2.2118  0.6497
35495SOL     OW11614   4.237  10.849   1.082  0.6040 -0.5150 -0.5694
35495SOL    HW111615   4.290  10.907   1.027  0.6181 -0.6027 -0.6491
35495SOL    HW211616   4.275  10.858   1.170 -0.6118  1.0900 -0.1735
35496SOL     OW11617   2.962   7.157   2.733 -0.2477  0.5237 -0.0901
35496SOL    HW111618   2.893   7.217   2.761 -0.4900 -0.4062  1.3878
35496SOL    HW211619   2.947   7.144   2.640 -1.8653  0.5908  0.1564
35497SOL     OW11620   1.082   4.524   0.848  0.4095 -0.3219 -0.2681
35497SOL    HW111621   1.094   4.473   0.928  2.4412  0.3024 -0.1518
35497SOL    HW211622   1.140   4.482   0.784 -0.1965  0.0004 -1.0453
35498SOL     OW11623   5.207  11.280   9.664 -0.3821  0.2439 -0.2553
35498SOL    HW111624   5.276  11.226   9.702 -0.8632 -0.2888 -0.1409
35498SOL    HW211625   5.128  11.255   9.711 -1.0918 -0.8425 -1.9907
35499SOL     OW11626   8.127  10.789   9.048  0.3003 -0.1645  0.0241
35499SOL    HW111627   8.079  10.861   9.007  0.4505  0.7586  1.4552
35499SOL    HW211628   8.217  10.821   9.054  0.6115 -0.9417 -0.3979
35500SOL     OW11629  10.717   6.742  10.975 -0.3421  0.4657  0.0976
35500SOL    HW111630  10.705   6.757  10.881 -0.2284 -0.3436 -0.0463
35500SOL    HW211631  10.806   6.708  10.982 -0.1490  1.0624  0.5610
35501SOL     OW11632   4.514   4.269   8.525 -0.3205  0.6476  1.1064
35501SOL    HW111633   4.591   4.239   8.478 -0.9448 -0.2553  0.6519
35501SOL    HW211634   4.536   4.358   8.553  1.1600  0.1386  1.6148
35502SOL     OW11635   9.244   4.322  10.730  0.4409 -0.4784 -0.0275
35502SOL    HW111636   9.264   4.416  10.727  2.1583 -0.8747 -2.1139
35502SOL    HW211637   9.329   4.280  10.743 -0.2958 -1.7823  0.7366
35503SOL     OW11638   8.269   8.439   8.077  0.0704 -0.8148  0.1550
35503SOL    HW111639   8.315   8.517   8.106 -0.0259  0.1975 -2.3623
35503SOL    HW211640   8.199   8.427   8.142  0.7889  0.4881  1.1917
35504SOL     OW11641   2.321   9.319   4.421  0.1339  0.1236  0.9938
35504SOL    HW111642   2.227   9.319   4.405  0.0544  2.6442  1.3180
35504SOL    HW211643   2.358   9.368   4.346  1.1220 -0.3283  1.1725
35505SOL     OW11644   5.289   3.233   1.936  0.2580 -0.2820  0.3503
35505SOL    HW111645   5.259   3.193   1.854 -1.6703  0.3893  0.7171
35505SOL    HW211646   5.211   3.275   1.973  1.9487  2.8012  0.5921
35506SOL     OW11647   2.048   4.358   0.473  0.7192  0.5361  0.1484
35506SOL    HW111648   2.092   4.410   0.540 -0.1199  0.6687  0.6134
35506SOL    HW211649   2.032   4.420   0.401  2.6347  0.1190 -0.6603
35507SOL     OW11650   0.820   9.978   7.443  0.5939 -0.3342 -0.2300
35507SOL    HW111651   0.731  10.009   7.429  0.6941  0.1935  0.2957
35507SOL    HW211652   0.875  10.051   7.412  0.8412 -0.6305 -0.4831
35508SOL     OW11653   7.869   8.608  11.202  0.0980 -0.5799 -0.4832
35508SOL    HW111654   7.787   8.582  11.160  0.1981  0.4436 -1.3265
35508SOL    HW211655   7.934   8.547  11.168 -0.0711 -0.5941 -0.7853
35509SOL     OW11656   4.143   4.311   3.243  0.5147 -0.1444 -0.0570
35509SOL    HW111657   4.101   4.383   3.197 -0.5736 -0.8293 -0.1658
35509SOL    HW211658   4.113   4.320   3.334  0.8188 -0.1382  0.0441
35510SOL     OW11659   5.828   1.362   2.223 -0.5259 -0.6433 -0.6300
35510SOL    HW111660   5.773   1.438   2.207  0.3234 -0.1585 -1.2798
35510SOL    HW211661   5.794   1.295   2.163  0.1165 -0.0763 -1.6461
35511SOL     OW11662   5.848   1.603   0.663 -0.2718  0.1453 -0.4950
35511SOL    HW111663   5.854   1.584   0.570 -1.4305  0.2694 -0.6015
35511SOL    HW211664   5.821   1.695   0.668 -0.1906  0.1472 -0.0383
35512SOL     OW11665   0.915   5.676  10.560 -0.8752 -0.4775  0.5970
35512SOL    HW111666   0.991   5.627  10.591 -1.1469 -1.7506 -0.6970
35512SOL    HW211667   0.945   5.767  10.553  1.7271 -1.5221 -3.5436
35513SOL     OW11668   8.616   6.820   3.044 -0.2084 -0.1994  0.4828
35513SOL    HW111669   8.700   6.789   3.077 -0.1010  0.3539  0.7351
35513SOL    HW211670   8.610   6.910   3.076 -1.2937 -0.5266  1.1931
35514SOL     OW11671   5.530   0.137   9.766  0.3043  0.0711 -0.5328
35514SOL    HW111672   5.509   0.203   9.832  1.6111 -1.8349  1.8820
35514SOL    HW211673   5.575   0.068   9.814 -1.2882 -2.7601 -2.8852
35515SOL     OW11674   5.240   8.376   8.796 -0.2267 -0.0762 -0.1333
35515SOL    HW111675   5.294   8.440   8.748  1.5472  0.4020  2.3677
35515SOL    HW211676   5.158   8.423   8.813  1.2479  1.7912  2.1151
35516SOL     OW11677   7.184   0.647   9.996  0.2378  0.2030  0.3086
35516SOL    HW111678   7.263   0.605  10.030  0.6662  0.2730 -0.5969
35516SOL    HW211679   7.216   0.726   9.952 -0.3228  0.1362 -0.2177
35517SOL     OW11680  11.263   4.026   8.424  0.2437 -0.7220 -0.4001
35517SOL    HW111681  11.322   4.090   8.383 -0.9734  1.1400  0.6879
35517SOL    HW211682  11.200   4.079   8.472 -2.0202 -2.7004 -1.0997
35518SOL     OW11683   9.853  10.286   1.990  0.3895  0.5099 -0.0267
35518SOL    HW111684   9.848  10.371   2.033 -0.6192  0.0574  0.7689
35518SOL    HW211685   9.779  10.285   1.929 -0.7205 -0.5323  1.3281
35519SOL     OW11686   8.672   6.598   3.975  0.4319 -0.1382 -0.1030
35519SOL    HW111687   8.579   6.580   3.966 -0.1264 -0.9180  5.1406
35519SOL    HW211688   8.715   6.515   3.950 -0.2359  0.1581 -2.3194
35520SOL     OW11689   1.377   3.616   6.750  0.1915 -0.0272  0.1848
35520SOL    HW111690   1.407   3.535   6.709 -0.8689 -0.3139 -0.0302
35520SOL    HW211691   1.293   3.593   6.791 -1.4682  1.5954 -2.1480
35521SOL     OW11692   4.371   4.349  11.123 -0.5026 -0.3667  0.7028
35521SOL    HW111693   4.292   4.402  11.117 -0.3225 -0.2903 -1.0196
35521SOL    HW211694   4.408   4.350  11.035  1.6487 -0.0444  1.5754
35522SOL     OW11695   1.084  10.841   0.183 -0.0766  0.5967 -0.2953
35522SOL    HW111696   1.029  10.768   0.152 -1.8913  1.7827  0.0565
35522SOL    HW211697   1.021  10.909   0.209  1.5718  1.9508  0.2252
35523SOL     OW11698   3.483   6.840   8.411  0.0514 -0.5489  0.8850
35523SOL    HW111699   3.453   6.751   8.426 -0.5695 -0.3419  0.8763
35523SOL    HW211700   3.490   6.848   8.316 -0.4245 -0.4164  0.8594
35524SOL     OW11701   5.186   3.532   1.839 -1.0064  0.0298 -0.2892
35524SOL    HW111702   5.213   3.446   1.807  0.1018  0.4232 -0.4346
35524SOL    HW211703   5.235   3.544   1.921 -0.2911  0.9974 -0.8451
35525SOL     OW11704  10.848   3.975   0.919  0.4957 -0.1658 -0.5142
35525SOL    HW111705  10.784   3.983   0.990 -1.3409  0.4341 -2.2202
35525SOL    HW211706  10.894   3.894   0.938 -0.7410 -0.5872  0.7601
35526SOL     OW11707   0.325   8.626   7.191 -0.2071  0.3159 -0.3695
35526SOL    HW111708   0.367   8.640   7.106  0.8276  0.5862  0.1838
35526SOL    HW211709   0.273   8.705   7.205 -0.4443  0.2371 -0.7773
35527SOL     OW11710  10.634   2.563   7.656  0.1716 -0.5692  0.5077
35527SOL    HW111711  10.597   2.501   7.719 -0.2741 -0.7697  0.0556
35527SOL    HW211712  10.566   2.630   7.647  0.2211 -0.5602  0.2147
35528SOL     OW11713   2.758   1.629   4.062  0.2886  0.3661  0.2431
35528SOL    HW111714   2.760   1.605   3.969  0.0104 -1.2870  0.6559
35528SOL    HW211715   2.731   1.721   4.062 -4.1836 -0.8161 -1.1089
35529SOL     OW11716  10.369   7.350   0.892 -0.1112 -0.8699  0.2124
35529SOL    HW111717  10.291   7.398   0.921 -0.1020  0.3861 -1.7774
35529SOL    HW211718  10.338   7.291   0.824  1.0116  1.4712 -2.4518
35530SOL     OW11719   2.210   2.398   7.892  0.1198 -0.3625 -0.9135
35530SOL    HW111720   2.290   2.370   7.848  0.5765 -1.8535  0.7867
35530SOL    HW211721   2.156   2.319   7.896 -0.4889  0.0899 -0.0577
35531SOL     OW11722   1.452   9.645   0.230 -0.4025  0.0420 -0.3127
35531SOL    HW111723   1.434   9.583   0.159  2.2959 -2.4672  1.0982
35531SOL    HW211724   1.419   9.601   0.309 -0.2693  1.3009  0.4481
35532SOL     OW11725   2.613  10.956   5.394 -0.0425  0.4339  0.7937
35532SOL    HW111726   2.583  11.046   5.403  0.9283  0.9645 -1.1080
35532SOL    HW211727   2.626  10.944   5.300  2.7243 -0.7373  1.2817
35533SOL     OW11728  10.211   8.558   3.065 -0.6022  0.0032  0.7664
35533SOL    HW111729  10.229   8.488   3.128  1.8313  1.4044  1.7184
35533SOL    HW211730  10.288   8.558   3.008 -1.6143  0.4330 -0.6163
35534SOL     OW11731   2.183   7.753   7.463 -0.5717 -0.1851  0.2461
35534SOL    HW111732   2.269   7.728   7.431 -0.6036 -1.5037  1.1588
35534SOL    HW211733   2.124   7.738   7.389 -0.3357 -1.3092  0.2758
35535SOL     OW11734   1.858   3.964   4.963  0.1979 -0.0920  0.4096
35535SOL    HW111735   1.849   4.050   5.004 -0.1661  0.0117  0.1155
35535SOL    HW211736   1.951   3.942   4.973  0.0125 -0.3104  1.7745
35536SOL     OW11737   7.325   4.775   2.111  0.6138 -0.3429 -0.3146
35536SOL    HW111738   7.405   4.762   2.161  0.7213 -2.3076 -0.9660
35536SOL    HW211739   7.283   4.689   2.110 -0.3392  0.1256 -1.9498
35537SOL     OW11740   5.687   1.007  10.427  0.5255 -0.4610 -0.5947
35537SOL    HW111741   5.764   1.050  10.465  1.4669 -2.3262 -0.3143
35537SOL    HW211742   5.647   0.961  10.501 -0.8123  0.4069 -0.7664
35538SOL     OW11743   5.944   5.732   2.548 -0.1823  0.2085 -0.3824
35538SOL    HW111744   5.853   5.737   2.517  0.4745  0.9207 -2.2947
35538SOL    HW211745   5.987   5.808   2.508  1.6211 -1.0012 -0.8067
35539SOL     OW11746   0.155   9.758   9.614  0.2466  0.4765  0.1933
35539SOL    HW111747   0.152   9.695   9.542  0.7602  0.5283  0.1298
35539SOL    HW211748   0.106   9.833   9.582 -2.7251 -0.9191  1.2604
35540SOL     OW11749   9.769   6.393   9.235  0.1322  0.1623  0.4997
35540SOL    HW111750   9.781   6.476   9.281  0.6681  0.3422  0.0306
35540SOL    HW211751   9.814   6.329   9.290  0.4289  0.3137  0.4349
35541SOL     OW11752   4.317   6.261   7.714 -0.0774 -0.4369  0.2680
35541SOL    HW111753   4.387   6.243   7.777  1.2971 -1.1064 -1.3999
35541SOL    HW211754   4.349   6.336   7.664 -0.4719 -0.8499 -0.6131
35542SOL     OW11755   1.116   5.246   7.022  0.0573  0.2538 -0.3658
35542SOL    HW111756   1.156   5.318   7.071 -2.7224  1.0457  0.8619
35542SOL    HW211757   1.023   5.267   7.023 -0.4071 -1.5658 -3.0309
35543SOL     OW11758  10.712   1.199   3.459 -0.0544  0.3435 -0.1520
35543SOL    HW111759  10.709   1.135   3.388  1.1434 -0.9869  0.9480
35543SOL    HW211760  10.624   1.198   3.497 -0.1206 -0.4571 -0.3223
35544SOL     OW11761   8.908   4.622   4.475 -0.4366  0.5043 -0.0325
35544SOL    HW111762   8.816   4.605   4.459  0.0113 -0.7910 -1.3723
35544SOL    HW211763   8.915   4.717   4.477 -2.1268  0.6041  2.1477
35545SOL     OW11764   0.463   9.014  10.106 -0.4252  0.2188 -0.3253
35545SOL    HW111765   0.483   8.939  10.162  0.5389  1.2368  0.7226
35545SOL    HW211766   0.442   8.976  10.021  0.2195 -1.2248  0.1551
35546SOL     OW11767   9.334  10.233   4.813  0.4984 -0.0082  0.1773
35546SOL    HW111768   9.265  10.178   4.775 -0.0433  0.0368  1.0819
35546SOL    HW211769   9.298  10.261   4.897  1.5483  0.1788  0.5648
35547SOL     OW11770   5.190   1.398   2.164 -0.2678 -0.1434 -0.6797
35547SOL    HW111771   5.120   1.459   2.187 -1.3548 -1.7643  0.4162
35547SOL    HW211772   5.265   1.426   2.218 -0.8726 -0.0043  0.1023
35548SOL     OW11773   7.931   3.804   2.278 -0.2903 -0.0722  0.2789
35548SOL    HW111774   7.896   3.743   2.344 -0.4927  0.0848  0.3173
35548SOL    HW211775   8.025   3.804   2.294 -0.1162 -1.4694 -0.6453
35549SOL     OW11776   5.383   3.087   0.613 -0.7135 -0.2858 -0.2463
35549SOL    HW111777   5.332   3.008   0.593  1.5858 -2.0021  0.3426
35549SOL    HW211778   5.436   3.102   0.535  0.8643 -1.0077  0.6480
35550SOL     OW11779  10.454   4.242   6.182  0.1120 -0.7622 -0.9063
35550SOL    HW111780  10.522   4.248   6.115 -0.7130 -1.7250 -1.8509
35550SOL    HW211781  10.433   4.333   6.204  2.3856 -0.4668  0.1131
35551SOL     OW11782   8.272   0.432   5.177 -0.8768  0.1415  0.0647
35551SOL    HW111783   8.328   0.400   5.107 -0.5224 -0.4587  0.6276
35551SOL    HW211784   8.187   0.445   5.134 -0.2843  1.2033 -0.8220
35552SOL     OW11785   1.317   1.738   7.185  0.3232  1.1858  1.1285
35552SOL    HW111786   1.407   1.711   7.199 -0.5001 -1.1277  2.0826
35552SOL    HW211787   1.303   1.726   7.091  0.1496 -1.2450  1.4380
35553SOL     OW11788   7.014   3.566  11.151 -0.2829  0.5325  0.1431
35553SOL    HW111789   6.973   3.565  11.064  0.3382  1.8167 -0.1713
35553SOL    HW211790   6.973   3.492  11.197 -0.5576 -0.2250 -1.2653
35554SOL     OW11791   8.753  10.958   0.708 -0.2640 -0.4725 -0.0699
35554SOL    HW111792   8.678  10.931   0.655  1.4148 -2.5559 -1.4699
35554SOL    HW211793   8.829  10.922   0.662  1.5204  0.7369  1.8545
35555SOL     OW11794   8.160   0.845   7.799 -0.3039  0.0782  0.2657
35555SOL    HW111795   8.221   0.778   7.833  1.0127  1.1783  0.1372
35555SOL    HW211796   8.217   0.917   7.772 -1.6478  0.9020 -0.4117
35556SOL     OW11797   4.476   4.506  10.266  0.2521 -0.2010 -0.0032
35556SOL    HW111798   4.421   4.542  10.336 -0.9249 -1.5755 -0.1908
35556SOL    HW211799   4.417   4.449  10.217  1.4782 -0.5005 -1.1505
35557SOL     OW11800   0.206   0.010   4.995 -0.0440  0.0401 -0.4850
35557SOL    HW111801   0.155  -0.042   4.934  0.2960  0.4631 -1.1390
35557SOL    HW211802   0.141   0.049   5.054 -0.2768 -1.3104  0.1727
35558SOL     OW11803   7.939   9.625  10.027 -0.2610 -0.1754 -0.2852
35558SOL    HW111804   7.919   9.533  10.014  1.0675 -0.5595  0.3381
35558SOL    HW211805   8.031   9.627  10.050 -0.4025  1.2678  0.2275
35559SOL     OW11806   2.007   4.360   7.347  0.1714 -0.0198 -0.5570
35559SOL    HW111807   1.951   4.287   7.372  0.3456 -0.5031 -1.5348
35559SOL    HW211808   1.990   4.371   7.253  0.0077  1.3097 -0.3715
35560SOL     OW11809   3.555   4.589   5.112 -0.5605  0.2183  0.7183
35560SOL    HW111810   3.643   4.553   5.112  0.7675  3.2045 -1.5278
35560SOL    HW211811   3.529   4.592   5.204  0.4655 -3.4111  1.1917
35561SOL     OW11812   3.568   8.881   7.884  0.6655  0.6961  0.2564
35561SOL    HW111813   3.587   8.968   7.849  0.4489  1.1164  1.1719
35561SOL    HW211814   3.599   8.821   7.816  0.0107  1.4968 -0.7649
35562SOL     OW11815   2.629   2.475   2.686  0.0006  0.1417 -0.2626
35562SOL    HW111816   2.558   2.483   2.623 -0.0241 -1.7641 -0.5011
35562SOL    HW211817   2.598   2.521   2.764 -1.2194 -0.1430 -0.5758
35563SOL     OW11818   7.254   0.370   0.926  0.5014 -0.3727  0.0556
35563SOL    HW111819   7.294   0.457   0.934  1.5106 -0.8282 -0.0283
35563SOL    HW211820   7.180   0.384   0.867  1.3848  0.1977 -0.9345
35564SOL     OW11821   1.307   1.755  10.088  0.2205  0.0325  0.3297
35564SOL    HW111822   1.279   1.682  10.143  2.6428  0.1349  1.7519
35564SOL    HW211823   1.330   1.715  10.004 -1.0624 -0.4577  0.2017
35565SOL     OW11824   0.997   9.884   7.870 -0.4874 -0.6224  0.1941
35565SOL    HW111825   0.998   9.807   7.927 -0.2462 -0.6742  0.1200
35565SOL    HW211826   1.061   9.944   7.909 -1.8915  0.2421  1.2168
35566SOL     OW11827   2.795  11.175   6.216 -0.0792 -0.2484  0.2071
35566SOL    HW111828   2.882  11.164   6.254 -1.1417 -1.3982  2.3795
35566SOL    HW211829   2.805  11.145   6.126  1.6147 -0.9765  0.6083
35567SOL     OW11830   8.247   9.259  10.157  0.0113  0.1173  0.0421
35567SOL    HW111831   8.303   9.202  10.210  2.1270  1.4601 -0.6819
35567SOL    HW211832   8.238   9.339  10.209 -1.4541 -0.1602  0.2459
35568SOL     OW11833   3.818   9.688   2.048  0.2783 -0.8133 -0.1185
35568SOL    HW111834   3.761   9.658   1.977  0.1707 -0.2349 -0.2787
35568SOL    HW211835   3.904   9.651   2.027  0.1668 -0.9339 -0.3579
35569SOL     OW11836   7.703   4.117   1.734 -0.1937  0.5910  0.0126
35569SOL    HW111837   7.646   4.061   1.681 -0.8632  1.1728  0.1126
35569SOL    HW211838   7.643   4.165   1.791  0.5334 -0.2144  1.4736
35570SOL     OW11839  11.307   1.856   7.928  0.2343 -0.4968 -0.1351
35570SOL    HW111840  11.264   1.780   7.890  0.6206 -1.1308  0.6746
35570SOL    HW211841  11.299   1.924   7.862  2.5803 -2.1151 -2.1367
35571SOL     OW11842   4.745   3.556   5.342 -0.0344 -0.2554 -0.5381
35571SOL    HW111843   4.782   3.575   5.256  0.5587  1.0526 -0.0045
35571SOL    HW211844   4.665   3.609   5.345 -0.0900 -0.3538 -0.2967
35572SOL     OW11845   8.202   8.328   7.820 -0.2911 -0.1198  0.0324
35572SOL    HW111846   8.244   8.242   7.826 -1.0678 -0.3978  1.9465
35572SOL    HW211847   8.226   8.371   7.902  1.5818  2.2052 -1.6971
35573SOL     OW11848  10.347   1.081   2.760  0.1320  0.0845  0.4941
35573SOL    HW111849  10.331   1.033   2.842  0.1736  0.5280  0.7671
35573SOL    HW211850  10.378   1.167   2.789  1.1482 -0.1081 -0.0018
35574SOL     OW11851  10.358   2.846   7.886  0.0661  0.0459  0.2171
35574SOL    HW111852  10.321   2.882   7.966 -0.1994 -0.5391  0.3602
35574SOL    HW211853  10.443   2.810   7.913 -0.2601 -0.6427  0.3596
35575SOL     OW11854   4.109   1.078   1.150  0.1681 -0.1933 -0.1346
35575SOL    HW111855   4.159   1.093   1.070 -2.2674 -0.8421 -1.8465
35575SOL    HW211856   4.066   1.161   1.167  0.2790 -0.2071  0.2173
35576SOL     OW11857   2.262   1.653   5.332  0.0273 -0.1334 -0.5793
35576SOL    HW111858   2.188   1.646   5.272 -1.0882 -1.1149  0.8569
35576SOL    HW211859   2.336   1.617   5.283 -0.8080 -0.7183 -1.4422
35577SOL     OW11860   2.830   4.505   2.147  0.0281  0.0960 -0.0404
35577SOL    HW111861   2.858   4.478   2.060  1.4710 -1.5846  0.9004
35577SOL    HW211862   2.842   4.600   2.148  1.0115  0.0001 -1.3399
35578SOL     OW11863  10.132   1.151   7.729  0.3510  0.4831 -0.4520
35578SOL    HW111864  10.209   1.126   7.679 -0.7811 -1.1051 -1.4584
35578SOL    HW211865  10.075   1.195   7.665 -0.5288 -0.3585 -0.2539
35579SOL     OW11866   4.705   3.253   4.975 -0.2718  0.0782  0.7329
35579SOL    HW111867   4.797   3.256   5.000 -0.0701 -2.8900  0.5524
35579SOL    HW211868   4.681   3.160   4.983 -2.8266  0.5684 -0.6651
35580SOL     OW11869   0.985   0.518  11.195  0.2535 -0.5491  0.4908
35580SOL    HW111870   1.007   0.485  11.283  0.7712 -0.3685  0.4349
35580SOL    HW211871   1.013   0.610  11.197  0.6850 -0.6668 -0.0064
35581SOL     OW11872  11.321   7.174   8.737  0.1311  0.3586  0.0866
35581SOL    HW111873  11.238   7.192   8.783  0.4143  0.1237  0.7041
35581SOL    HW211874  11.348   7.259   8.702 -2.6270 -0.3144 -3.9802
35582SOL     OW11875   1.505   4.245   5.674  0.3470 -0.7361 -0.0547
35582SOL    HW111876   1.578   4.187   5.697  0.7211 -0.1764  0.1772
35582SOL    HW211877   1.546   4.331   5.660 -0.3698 -0.2373  0.8791
35583SOL     OW11878   7.796   0.832   5.717 -0.1490 -0.6128 -0.2482
35583SOL    HW111879   7.713   0.869   5.746  0.4560  0.9010 -0.3721
35583SOL    HW211880   7.843   0.812   5.798 -0.2989 -0.6821 -0.1783
35584SOL     OW11881   4.873   2.772   8.606  0.2999  0.3109 -0.0114
35584SOL    HW111882   4.820   2.728   8.672  0.0392  1.3475  0.4917
35584SOL    HW211883   4.944   2.712   8.587  1.1056  0.5376  2.1605
35585SOL     OW11884   5.464   1.089   2.837 -0.2656  0.4200  0.1092
35585SOL    HW111885   5.458   1.004   2.794 -0.9376  1.2780 -1.5455
35585SOL    HW211886   5.497   1.070   2.925  0.3345 -1.4557 -0.5138
35586SOL     OW11887   6.436  10.202   4.872  0.2232 -0.5687  0.1117
35586SOL    HW111888   6.486  10.260   4.815 -0.5182 -0.6617 -0.6451
35586SOL    HW211889   6.378  10.154   4.812 -1.1655 -0.0587  1.0310
35587SOL     OW11890  10.358   9.402  10.483 -0.4943  0.3229 -0.2225
35587SOL    HW111891  10.362   9.398  10.578 -1.1327  0.8218 -0.1700
35587SOL    HW211892  10.343   9.311  10.456 -0.7389  0.2439  0.1776
35588SOL     OW11893   4.734   2.414   8.583 -0.2748  0.5450  0.1999
35588SOL    HW111894   4.802   2.397   8.649  0.5595  0.1733 -0.7539
35588SOL    HW211895   4.669   2.346   8.598  0.0447  0.2904  0.4640
35589SOL     OW11896   0.883  11.070   7.227  0.3948  0.2063  0.5337
35589SOL    HW111897   0.832  11.015   7.168 -1.0127  1.4260  0.5847
35589SOL    HW211898   0.865  11.160   7.198  0.7722  0.7474  1.9436
35590SOL     OW11899   0.222   7.778   2.720 -0.3937 -0.1667 -0.0175
35590SOL    HW111900   0.128   7.766   2.729 -0.2968 -1.1394 -0.2543
35590SOL    HW211901   0.238   7.777   2.626  0.0283 -1.4639  0.0530
35591SOL     OW11902   0.715   0.789   6.649  0.1894  0.1532 -0.5795
35591SOL    HW111903   0.737   0.849   6.578 -1.2206  2.0799  0.5746
35591SOL    HW211904   0.648   0.732   6.613  0.1368  0.5299 -1.0847
35592SOL     OW11905   9.831   4.448   6.667 -0.6093  0.7474  0.7230
35592SOL    HW111906   9.774   4.371   6.675 -1.3128  1.0279 -1.4316
35592SOL    HW211907   9.919   4.413   6.678 -0.9139 -0.4111 -0.4027
35593SOL     OW11908   5.800   0.827   6.100 -0.5046  0.0771 -0.2939
35593SOL    HW111909   5.814   0.915   6.067  1.7843  0.2396  0.9614
35593SOL    HW211910   5.879   0.779   6.074 -0.1022 -0.6115  2.0819
35594SOL     OW11911   8.186   4.876   2.851  0.2167 -0.0764 -0.4643
35594SOL    HW111912   8.257   4.921   2.897 -0.9212 -0.3159  1.5646
35594SOL    HW211913   8.224   4.852   2.767  2.0674  1.1653 -0.0135
35595SOL     OW11914  10.082  10.220   1.828 -0.1142 -0.4584 -0.3379
35595SOL    HW111915  10.100  10.132   1.795 -0.7729 -0.4564 -0.7016
35595SOL    HW211916   9.998  10.212   1.874  0.0552 -0.1225  0.0367
35596SOL     OW11917   9.831  10.808  10.294 -0.4320 -0.2107 -0.2986
35596SOL    HW111918   9.758  10.755  10.262 -1.3033 -0.3841  1.8888
35596SOL    HW211919   9.790  10.881  10.340  0.7531 -0.3534  1.0392
35597SOL     OW11920   2.161   3.069   7.222 -0.2077  0.2409  0.4755
35597SOL    HW111921   2.236   3.128   7.214 -0.0469 -0.0641 -0.2860
35597SOL    HW211922   2.195   2.993   7.269  0.0352 -0.0268 -0.1330
35598SOL     OW11923   4.979   8.094   8.813  0.2445  0.0847  0.2702
35598SOL    HW111924   4.961   8.159   8.880 -1.4278  0.3817 -0.4249
35598SOL    HW211925   4.955   8.010   8.853 -0.2407  0.2040  0.2345
35599SOL     OW11926   6.809   8.369   3.091 -0.4603 -0.0220  0.3876
35599SOL    HW111927   6.763   8.287   3.106  0.6967 -0.7745 -0.1425
35599SOL    HW211928   6.900   8.350   3.111 -0.2765  1.3072  0.8734
35600SOL     OW11929   8.563   8.897   0.763 -0.3681 -0.3640 -0.3111
35600SOL    HW111930   8.552   8.992   0.759 -0.0282 -0.3043  0.2254
35600SOL    HW211931   8.643   8.879   0.713  0.6875 -0.1705  1.2930
35601SOL     OW11932   9.711   9.062   3.357  0.7369 -0.3446  0.5751
35601SOL    HW111933   9.628   9.107   3.369  0.3474 -1.0612  0.5641
35601SOL    HW211934   9.715   8.998   3.428  1.1421 -0.5230  0.3959
35602SOL     OW11935  10.618   7.058   3.401 -0.1155  0.6312  0.2678
35602SOL    HW111936  10.552   7.109   3.448 -0.2137  1.6645 -0.9512
35602SOL    HW211937  10.698   7.070   3.452 -0.4148  1.0235  0.6498
35603SOL     OW11938   7.127   7.356   1.836  0.2536 -0.1708  0.4505
35603SOL    HW111939   7.139   7.440   1.882 -0.8824  0.8303 -1.0302
35603SOL    HW211940   7.205   7.348   1.782 -0.5857  0.9848 -0.9752
35604SOL     OW11941   4.086  10.178  10.617  0.2468  0.2184 -0.0583
35604SOL    HW111942   4.042  10.217  10.541  0.3961  1.3906  0.4352
35604SOL    HW211943   4.116  10.254  10.667  0.5066 -0.5558  0.9531
35605SOL     OW11944   4.736   0.015   9.664 -0.8009  0.0333  0.0180
35605SOL    HW111945   4.789   0.079   9.617 -1.0517  0.4050  0.2446
35605SOL    HW211946   4.662  -0.002   9.605  0.4185 -1.7417 -1.0547
35606SOL     OW11947   3.039   0.245   8.042 -0.0619 -0.0944  0.0675
35606SOL    HW111948   3.079   0.159   8.058 -0.6139 -0.5959 -1.1692
35606SOL    HW211949   2.971   0.228   7.976 -0.7706  1.1417  0.4669
35607SOL     OW11950   9.919   5.463   6.155  0.0726  0.0443 -0.0472
35607SOL    HW111951   9.982   5.431   6.220 -0.9020  1.0738  1.4525
35607SOL    HW211952   9.839   5.415   6.175 -0.5995  1.3256  0.3842
35608SOL     OW11953   6.631   8.044   4.676  0.3788 -0.0298  0.1777
35608SOL    HW111954   6.628   7.997   4.759  1.7191 -0.3095  0.0782
35608SOL    HW211955   6.697   8.112   4.688  0.4576  0.0383 -0.5975
35609SOL     OW11956  10.007   2.820   2.486 -0.3551 -0.1674 -0.6590
35609SOL    HW111957   9.981   2.750   2.427  1.7935 -2.1863  0.7418
35609SOL    HW211958   9.926   2.843   2.532 -1.1121 -1.6215 -1.2219
35610SOL     OW11959   6.186   2.867   4.410 -0.0830  0.7579  0.6163
35610SOL    HW111960   6.158   2.923   4.338 -1.7638  0.7780  1.2597
35610SOL    HW211961   6.268   2.907   4.441  1.4123 -0.0550 -2.1454
35611SOL     OW11962   7.088   2.859   2.373 -0.1621  0.1492  0.0276
35611SOL    HW111963   7.084   2.851   2.277  2.4724 -1.9274  0.0352
35611SOL    HW211964   7.071   2.771   2.405  1.1550  0.3550  1.3615
35612SOL     OW11965   0.538   7.756   1.477  0.0417  0.0477  0.3354
35612SOL    HW111966   0.513   7.799   1.395  0.5904  0.5595  0.4387
35612SOL    HW211967   0.591   7.681   1.449  1.0797  0.7985  0.2593
35613SOL     OW11968   6.631   0.283   8.858  0.3433 -0.9760  0.5084
35613SOL    HW111969   6.590   0.237   8.931 -0.2199 -0.7191  0.3577
35613SOL    HW211970   6.716   0.240   8.847  0.5770 -0.7808  1.5354
35614SOL     OW11971  10.278   8.245   5.407 -0.6610  0.5677  0.6707
35614SOL    HW111972  10.294   8.208   5.494  1.2787 -0.4440 -0.0818
35614SOL    HW211973  10.357   8.224   5.358 -2.2773 -0.0595 -1.7375
35615SOL     OW11974   6.875   8.755   0.722 -0.6277 -0.5012 -0.0782
35615SOL    HW111975   6.822   8.815   0.774 -0.2008 -0.2085  0.0165
35615SOL    HW211976   6.923   8.703   0.786  0.3896  0.2986 -0.1818
35616SOL     OW11977   7.148   7.159   1.496 -0.0133  0.7660  0.2985
35616SOL    HW111978   7.114   7.094   1.557 -1.4181  2.5388  1.4895
35616SOL    HW211979   7.121   7.129   1.410 -0.3939 -0.3576  0.8088
35617SOL     OW11980  10.297   3.795   0.263  0.0567  0.1542  0.7469
35617SOL    HW111981  10.249   3.759   0.188 -0.4461  0.6594  0.8284
35617SOL    HW211982  10.389   3.789   0.237 -0.1130  0.2944  0.1045
35618SOL     OW11983   3.124   9.726  10.011  0.3952 -0.1548 -0.3726
35618SOL    HW111984   3.127   9.802   9.953 -0.1278 -0.1604 -0.4128
35618SOL    HW211985   3.212   9.688  10.006  1.1793  1.4154  0.9676
35619SOL     OW11986   6.675   8.932   0.569  0.4700 -0.3089  0.2575
35619SOL    HW111987   6.679   8.932   0.665 -0.7857 -1.2985  0.3134
35619SOL    HW211988   6.675   8.839   0.545 -0.7241 -0.0821 -0.6351
35620SOL     OW11989   8.622   7.935  10.695 -0.3428  0.4023  0.2379
35620SOL    HW111990   8.528   7.951  10.692 -0.6196 -0.9988  0.7787
35620SOL    HW211991   8.635   7.859  10.638  0.0416 -1.1605  2.3365
35621SOL     OW11992  11.109   3.554  10.251  0.1607 -0.1557 -0.2075
35621SOL    HW111993  11.059   3.609  10.190  0.8621  0.2116 -0.4521
35621SOL    HW211994  11.042   3.510  10.303 -0.4229  0.6822 -0.2329
35622SOL     OW11995   2.630   1.208   1.055 -0.9238 -0.1869  0.1501
35622SOL    HW111996   2.686   1.132   1.069 -2.0932 -1.4973 -2.1010
35622SOL    HW211997   2.674   1.279   1.101  0.3613 -2.1397  1.9829
35623SOL     OW11998   0.379  10.653   9.456  0.3830  0.0394 -0.6373
35623SOL    HW111999   0.449  10.713   9.481 -0.0505  0.7855 -1.1844
35623SOL    HW212000   0.404  10.569   9.494  1.2549  0.4486 -0.2978
35624SOL     OW12001   4.661   0.990   5.934 -0.3155 -0.1555 -0.1232
35624SOL    HW112002   4.599   0.950   5.996 -0.5887 -0.6133 -0.6901
35624SOL    HW212003   4.632   1.081   5.927 -1.8822 -0.7380 -1.5705
35625SOL     OW12004   1.637  10.897   7.592 -0.4437  0.4195  0.4666
35625SOL    HW112005   1.717  10.888   7.644 -1.4135 -1.2002  1.7502
35625SOL    HW212006   1.598  10.979   7.620  0.3995  0.8504  0.3746
35626SOL     OW12007   8.890   1.108   0.273  0.1410 -0.0719 -0.5372
35626SOL    HW112008   8.951   1.073   0.208 -0.9726 -0.3419 -1.4509
35626SOL    HW212009   8.823   1.154   0.222 -0.9658 -0.6262  0.3894
35627SOL     OW12010   0.197  10.539   3.057 -0.1327  0.2821  0.2271
35627SOL    HW112011   0.269  10.517   3.117  0.7154  0.3183 -0.7590
35627SOL    HW212012   0.143  10.460   3.054  0.6893 -0.2683 -0.1821
35628SOL     OW12013   7.157   6.067   3.072  0.1475  0.2191 -0.9664
35628SOL    HW112014   7.157   6.093   2.980  0.6925 -0.3425 -1.1297
35628SOL    HW212015   7.240   6.021   3.084  0.1251  0.3837 -0.1675
35629SOL     OW12016   5.602   9.620  10.164  0.0373  0.4091 -0.0289
35629SOL    HW112017   5.621   9.543  10.109 -1.4678 -0.7415  1.0243
35629SOL    HW212018   5.571   9.686  10.102  2.4979  0.6185 -1.1061
35630SOL     OW12019   2.786   4.713   6.443  0.1991  0.2271  0.4509
35630SOL    HW112020   2.710   4.758   6.405 -0.1318 -1.9738 -1.6303
35630SOL    HW212021   2.751   4.629   6.473  1.2433  0.4224  2.3012
35631SOL     OW12022   0.511  11.318   9.350 -0.5086 -0.3810 -0.1110
35631SOL    HW112023   0.536  11.400   9.307  2.6629 -0.1436  2.0274
35631SOL    HW212024   0.522  11.251   9.282  0.9411  0.4302 -0.6889
35632SOL     OW12025   2.702   1.928   7.817  0.0033 -0.5565 -0.0121
35632SOL    HW112026   2.627   1.891   7.771 -0.4100 -0.7753  0.8183
35632SOL    HW212027   2.690   1.901   7.908  0.6496  0.1063  0.2790
35633SOL     OW12028   5.621   1.827   1.902  0.2272 -0.1181  0.1016
35633SOL    HW112029   5.713   1.826   1.875  0.3686  0.4201  0.5433
35633SOL    HW212030   5.572   1.824   1.821  0.6443  1.3104 -0.2209
35634SOL     OW12031   3.655   1.295   6.855  0.3530 -0.5598 -0.2618
35634SOL    HW112032   3.696   1.370   6.812 -0.6457  0.1953  0.0927
35634SOL    HW212033   3.589   1.265   6.792 -1.0285  0.4697  0.6934
35635SOL     OW12034   9.438   5.810   8.495 -0.3910 -0.4859 -0.2100
35635SOL    HW112035   9.436   5.885   8.435 -0.6464 -1.1805 -1.0777
35635SOL    HW212036   9.379   5.835   8.566 -1.1420 -0.2202 -0.9207
35636SOL     OW12037   1.048   4.681   5.625 -0.5004  0.3026  0.2299
35636SOL    HW112038   1.137   4.665   5.657  0.0559 -0.1305 -1.5159
35636SOL    HW212039   1.002   4.598   5.638 -0.0386 -0.1261 -0.8742
35637SOL     OW12040  11.166  10.542   3.251 -0.1512  0.3285 -0.2148
35637SOL    HW112041  11.102  10.601   3.291  0.0719 -0.2036  0.9539
35637SOL    HW212042  11.215  10.597   3.190 -0.3361  1.2153  0.4313
35638SOL     OW12043   8.495   8.372   5.948 -0.2999 -0.0762 -0.5512
35638SOL    HW112044   8.422   8.389   5.889 -3.1320 -1.1150  2.5343
35638SOL    HW212045   8.526   8.285   5.923 -2.0364 -0.8720  0.0098
35639SOL     OW12046   1.380   6.575   3.330 -0.5842 -0.1096 -0.1469
35639SOL    HW112047   1.458   6.567   3.274 -1.0562 -2.3785 -0.5502
35639SOL    HW212048   1.307   6.579   3.268 -0.9427 -0.3103  0.2596
35640SOL     OW12049   6.269   3.921   1.990 -0.3666  0.1630  0.0557
35640SOL    HW112050   6.278   3.867   2.068  0.3968 -0.2622 -0.3206
35640SOL    HW212051   6.207   3.874   1.935 -0.3700  0.1107  0.1049
35641SOL     OW12052   5.956   7.590   9.511 -0.0339 -0.3226  0.2993
35641SOL    HW112053   5.935   7.506   9.470  0.1138 -0.3825  0.3470
35641SOL    HW212054   5.939   7.577   9.604  0.4433 -0.4432  0.3700
35642SOL     OW12055   5.522   6.332   3.706 -0.2592  0.2434 -0.2862
35642SOL    HW112056   5.563   6.253   3.670  0.0892  1.7209 -3.3418
35642SOL    HW212057   5.432   6.330   3.674 -1.4110 -0.7692  2.7934
35643SOL     OW12058   7.187   7.608   0.699  0.5375  0.0536  0.4821
35643SOL    HW112059   7.266   7.554   0.706 -0.0586 -1.3506 -2.6624
35643SOL    HW212060   7.138   7.591   0.779  1.2421 -2.6559  0.3595
35644SOL     OW12061   0.015   8.118   5.213 -0.5397  0.4655  0.2125
35644SOL    HW112062   0.001   8.033   5.253  2.9717 -0.9063 -1.2966
35644SOL    HW212063   0.044   8.174   5.285 -0.5871 -0.2264  0.7739
35645SOL     OW12064   0.119  10.624   8.786 -0.4487 -0.0395 -0.3123
35645SOL    HW112065   0.036  10.637   8.831 -0.6328 -0.8159 -0.4171
35645SOL    HW212066   0.123  10.694   8.721 -1.1339 -0.1470 -0.4716
35646SOL     OW12067   1.897  10.293   2.787 -0.3581 -0.2290  0.3873
35646SOL    HW112068   1.893  10.283   2.882  0.2295  0.4297  0.4814
35646SOL    HW212069   1.823  10.242   2.754 -0.6181 -0.3758  1.2018
35647SOL     OW12070   7.461   5.561  11.089  0.3050  0.2830 -0.6386
35647SOL    HW112071   7.474   5.540  10.996 -0.5141  1.2977 -0.9847
35647SOL    HW212072   7.459   5.476  11.133 -2.5826 -0.3799 -1.9764
35648SOL     OW12073   2.338   7.354   4.183 -0.8369 -0.2091 -0.2429
35648SOL    HW112074   2.408   7.347   4.119  0.1271  0.5994  0.7101
35648SOL    HW212075   2.336   7.268   4.226  1.6508  0.6987  1.8267
35649SOL     OW12076  10.445   8.316   4.040 -0.3332 -0.3977 -0.1107
35649SOL    HW112077  10.524   8.370   4.049  0.4043 -1.4189 -0.3636
35649SOL    HW212078  10.390   8.342   4.114  0.5149 -0.1179  0.4342
35650SOL     OW12079   1.328   0.842   2.936 -0.1549 -0.6810  0.4020
35650SOL    HW112080   1.418   0.838   2.905  0.1052 -0.2779  1.1022
35650SOL    HW212081   1.292   0.919   2.891  0.6846  0.8516  2.2612
35651SOL     OW12082   7.127   2.507   5.037  0.0324 -0.2378 -0.7063
35651SOL    HW112083   7.079   2.586   5.059  0.4153 -0.0183 -0.6642
35651SOL    HW212084   7.077   2.467   4.966  0.5000  0.6678 -1.5505
35652SOL     OW12085  10.482   6.012   9.965  0.7686 -0.2194  0.7006
35652SOL    HW112086  10.443   5.970  10.042 -0.9492  1.8079  0.9580
35652SOL    HW212087  10.559   6.058  10.000  0.0274  0.6488  1.1933
35653SOL     OW12088   9.061   9.810   7.694  0.4852  0.5183  0.7309
35653SOL    HW112089   8.984   9.795   7.748  0.9830 -2.8981  0.5815
35653SOL    HW212090   9.124   9.744   7.723  1.8411  0.5575 -1.9964
35654SOL     OW12091   4.231   3.066   3.424 -0.1031 -0.7353 -0.4970
35654SOL    HW112092   4.231   3.160   3.405  0.4432 -0.6295  0.0019
35654SOL    HW212093   4.266   3.026   3.344  1.3810 -0.3580 -0.0609
35655SOL     OW12094   2.303   5.110   7.999  0.3576  0.3755  0.2883
35655SOL    HW112095   2.292   5.189   7.945 -0.2524 -0.4933 -0.8823
35655SOL    HW212096   2.234   5.116   8.065 -0.3008  0.3510 -0.3884
35656SOL     OW12097   4.922  10.671   3.396  0.2342 -0.4507 -0.0000
35656SOL    HW112098   4.897  10.590   3.351  0.7386 -0.5806 -0.0506
35656SOL    HW212099   4.920  10.649   3.489  0.1779 -0.4694 -0.0061
35657SOL     OW12100   8.953   8.828   6.195  0.1605 -0.3524  0.0981
35657SOL    HW112101   8.984   8.770   6.125  0.5311  2.0618 -1.7877
35657SOL    HW212102   9.030   8.841   6.251  1.4935  2.2491 -2.2392
35658SOL     OW12103   0.898   8.206  11.275 -0.5460 -0.3296 -0.7401
35658SOL    HW112104   0.937   8.283  11.234  2.1006 -0.6875  0.9868
35658SOL    HW212105   0.891   8.228  11.368 -0.2736 -1.9235 -0.3163
35659SOL     OW12106   4.497   4.006   8.606  0.5341 -0.2760  0.0740
35659SOL    HW112107   4.472   4.096   8.584 -0.8786 -0.9260 -1.1123
35659SOL    HW212108   4.438   3.981   8.676 -0.7628 -1.0924 -1.2762
35660SOL     OW12109  10.001   7.400   5.988 -0.0291  0.7371  0.1239
35660SOL    HW112110   9.919   7.399   5.939 -0.4514  1.0980  0.8129
35660SOL    HW212111  10.047   7.321   5.959 -2.0872 -1.3123  2.1749
35661SOL     OW12112   2.388   2.552   2.246 -0.1465 -0.7133 -0.3645
35661SOL    HW112113   2.453   2.574   2.180  1.2092 -3.4587 -0.0017
35661SOL    HW212114   2.339   2.478   2.210 -1.1582 -0.5474  0.5937
35662SOL     OW12115   4.380   5.271   0.667  0.0113  0.6624 -0.4778
35662SOL    HW112116   4.354   5.306   0.582  0.5334 -0.3220 -1.0632
35662SOL    HW212117   4.385   5.176   0.653  1.1110  0.5815  0.3642
35663SOL     OW12118   2.400   6.880   2.371 -0.4661 -0.3552 -0.4107
35663SOL    HW112119   2.495   6.866   2.366 -0.3674  0.2438 -0.2181
35663SOL    HW212120   2.363   6.814   2.313  0.1432  0.2695 -1.5247
35664SOL     OW12121   4.805   8.474  10.839 -0.4395 -0.3424 -0.2167
35664SOL    HW112122   4.792   8.404  10.903  2.1781 -1.1979 -0.5337
35664SOL    HW212123   4.762   8.550  10.877  0.7132 -0.9339  2.4208
35665SOL     OW12124   0.722   1.823   9.804 -0.5794 -0.6086 -0.6120
35665SOL    HW112125   0.765   1.883   9.744 -0.4834 -0.4841 -0.4183
35665SOL    HW212126   0.791   1.762   9.831 -0.3131  0.1062  0.3600
35666SOL     OW12127   9.149   5.713   3.356  0.3590  0.0726 -0.2576
35666SOL    HW112128   9.112   5.699   3.268 -1.4168 -0.9364  0.6015
35666SOL    HW212129   9.178   5.804   3.356 -1.6763  0.7604 -1.1867
35667SOL     OW12130   6.337   6.758   3.087  0.1679 -0.1506 -0.1542
35667SOL    HW112131   6.256   6.808   3.074 -0.3140 -0.6224  0.9965
35667SOL    HW212132   6.379   6.799   3.162  1.9207  1.2392 -1.8350
35668SOL     OW12133   4.437   3.029   8.960  0.0395  0.0796  0.2557
35668SOL    HW112134   4.521   2.984   8.966 -0.9949 -2.1647 -1.3948
35668SOL    HW212135   4.375   2.961   8.936 -2.0326  1.9642  0.0863
35669SOL     OW12136   2.690   5.552   7.757  0.1982 -0.4803 -0.1479
35669SOL    HW112137   2.722   5.520   7.841 -0.4366 -1.0754 -0.1235
35669SOL    HW212138   2.597   5.568   7.771 -0.2055 -1.9112 -1.1088
35670SOL     OW12139   4.355   0.221   8.682  0.0061 -0.8280  0.4467
35670SOL    HW112140   4.355   0.235   8.777 -1.2592 -2.7727  0.7768
35670SOL    HW212141   4.269   0.253   8.653  0.3823 -0.2555 -0.0437
35671SOL     OW12142   3.620   9.046   4.818  0.5494  0.5647  0.2030
35671SOL    HW112143   3.710   9.016   4.814  0.7292  1.0591  0.5492
35671SOL    HW212144   3.626   9.140   4.831  0.0171  1.1565 -3.3095
35672SOL     OW12145   0.205   6.233   5.754 -0.1109  0.3341 -0.0891
35672SOL    HW112146   0.172   6.146   5.732 -0.8441  0.6730 -0.3364
35672SOL    HW212147   0.203   6.235   5.850 -2.0467  0.8173 -0.1225
35673SOL     OW12148  10.517   5.382   5.427  0.4190  0.0548  0.3922
35673SOL    HW112149  10.459   5.365   5.352  1.5809  0.0812 -0.5245
35673SOL    HW212150  10.457   5.395   5.501 -0.8017  1.4091 -0.7975
35674SOL     OW12151  10.819   4.655   4.283 -0.1456 -0.6736 -0.6655
35674SOL    HW112152  10.872   4.619   4.353 -2.2294 -1.8326  0.3841
35674SOL    HW212153  10.854   4.615   4.203  0.0817 -2.0296  0.0869
35675SOL     OW12154   3.258   0.543   0.124  0.3149 -0.3458  0.7379
35675SOL    HW112155   3.260   0.638   0.127 -1.5056 -0.3064  1.3807
35675SOL    HW212156   3.348   0.516   0.143  1.2578  1.2521 -1.1975
35676SOL     OW12157   8.365   2.677   6.688 -0.9430  0.1017  0.2158
35676SOL    HW112158   8.400   2.592   6.661  1.3124  1.5052 -1.4971
35676SOL    HW212159   8.302   2.700   6.620  0.0290  0.7258 -0.5013
35677SOL     OW12160   4.210   9.415   9.204 -0.2771  0.3346  0.6166
35677SOL    HW112161   4.293   9.459   9.219 -0.7191  0.3769  3.1695
35677SOL    HW212162   4.194   9.364   9.284 -0.8598 -2.7276 -1.3534
35678SOL     OW12163   4.502   7.554  11.282  0.4944  0.0014  0.2406
35678SOL    HW112164   4.441   7.567  11.354 -1.5729  1.3532 -1.6651
35678SOL    HW212165   4.585   7.588  11.314 -0.7070  1.7890  1.5493
35679SOL     OW12166   9.112   7.174   3.387  0.0028 -0.1456 -0.0601
35679SOL    HW112167   9.162   7.219   3.318 -1.2246 -0.7081 -1.3437
35679SOL    HW212168   9.175   7.114   3.427  0.9330  0.7394 -0.1708
35680SOL     OW12169   9.648   7.050   7.437 -0.1063 -0.4054 -0.0012
35680SOL    HW112170   9.741   7.026   7.434 -0.2274 -1.0133  0.7998
35680SOL    HW212171   9.648   7.145   7.430  0.6403 -0.3315  0.8528
35681SOL     OW12172   8.298   6.078  11.205 -0.4586  0.0670  0.1800
35681SOL    HW112173   8.366   6.093  11.140 -2.0261 -1.1024 -1.8200
35681SOL    HW212174   8.275   5.986  11.194 -1.0786 -0.0195  2.0931
35682SOL     OW12175  10.460   0.881   8.090  0.6126 -0.1332  0.1902
35682SOL    HW112176  10.541   0.838   8.119  1.0639  0.9989  0.6422
35682SOL    HW212177  10.439   0.838   8.007  1.5834 -0.5613  0.1514
35683SOL     OW12178   5.757  10.328   4.755 -0.6860  0.2900 -0.3503
35683SOL    HW112179   5.811  10.379   4.694 -1.0609  2.2144  0.8846
35683SOL    HW212180   5.808  10.326   4.836 -2.2344  1.7959  0.7087
35684SOL     OW12181   3.073   6.872   2.376 -0.1937  0.5465  0.1450
35684SOL    HW112182   3.084   6.808   2.446  1.6096  0.2420 -0.3992
35684SOL    HW212183   3.056   6.820   2.297 -0.0224  0.8033 -0.0615
35685SOL     OW12184   0.078  10.504   2.497  0.6424 -0.0287  0.6484
35685SOL    HW112185   0.004  10.534   2.444 -0.0465 -1.1175  0.9812
35685SOL    HW212186   0.078  10.409   2.486  1.5150 -0.1042  1.2847
35686SOL     OW12187   7.970  11.089   7.431  0.5050 -0.0863 -0.0768
35686SOL    HW112188   7.907  11.029   7.391 -0.1739  0.2693  0.4568
35686SOL    HW212189   8.053  11.041   7.428  0.3314 -0.3394 -1.2842
35687SOL     OW12190   2.657   3.895  10.951 -0.4954  0.0316  0.2298
35687SOL    HW112191   2.657   3.883  11.046 -1.3159  0.4214  0.2847
35687SOL    HW212192   2.704   3.977  10.937  0.6298 -0.6034  0.2117
35688SOL     OW12193   1.370   0.924  10.181 -0.3397  0.4937  0.1826
35688SOL    HW112194   1.302   0.951  10.242 -0.5862  0.4808 -0.0889
35688SOL    HW212195   1.334   0.941  10.094 -0.1924  0.0272  0.0250
35689SOL     OW12196  10.901  11.123  10.902 -0.4109  0.5608  0.5556
35689SOL    HW112197  10.837  11.182  10.943 -2.2376 -0.2394 -1.0315
35689SOL    HW212198  10.888  11.136  10.808  0.0834 -1.3944  0.2035
35690SOL     OW12199   3.680   3.627   2.491  0.2484 -0.2679  0.1537
35690SOL    HW112200   3.769   3.662   2.498  0.1761 -0.2008  0.7533
35690SOL    HW212201   3.633   3.691   2.438  0.1326  0.5248  1.1880
35691SOL     OW12202  10.575   4.887   4.471  0.5691  0.1750  0.3047
35691SOL    HW112203  10.539   4.920   4.389 -2.6915 -1.9379  0.8090
35691SOL    HW212204  10.544   4.949   4.538  0.3484 -0.0061  0.3708
35692SOL     OW12205   7.219   9.548   2.732  0.0974 -0.1992 -0.3999
35692SOL    HW112206   7.248   9.536   2.823 -0.3939 -1.1344 -0.3657
35692SOL    HW212207   7.289   9.601   2.692  0.3621  0.1385  0.4919
35693SOL     OW12208   8.332   6.098   2.047  0.0464 -0.0760 -0.3766
35693SOL    HW112209   8.311   6.131   2.135  0.1261  0.7815 -0.6804
35693SOL    HW212210   8.260   6.038   2.027  1.1671 -2.0273  1.1889
35694SOL     OW12211   1.202   5.779   1.865  0.0622  0.8681 -0.0226
35694SOL    HW112212   1.233   5.688   1.869 -0.5702  0.4791 -2.9510
35694SOL    HW212213   1.270   5.829   1.911  0.6925 -1.0105  1.1515
35695SOL     OW12214   1.274   0.700   9.161  0.5098  0.2399 -0.1416
35695SOL    HW112215   1.248   0.793   9.157  0.5932  0.2024 -1.6392
35695SOL    HW212216   1.195   0.656   9.193 -0.1059  0.6091 -1.1095
35696SOL     OW12217   2.032   4.802   8.836  0.3238 -0.4034  0.4195
35696SOL    HW112218   2.080   4.770   8.760  0.0198  0.1350 -0.0016
35696SOL    HW212219   2.098   4.847   8.889  0.2203  0.6556 -0.3368
35697SOL     OW12220   7.809   3.621   7.388  0.8235  0.1265  0.2839
35697SOL    HW112221   7.759   3.689   7.433 -1.7203 -1.4261 -0.0523
35697SOL    HW212222   7.791   3.541   7.438  0.9359 -0.9243 -1.3167
35698SOL     OW12223  11.170   8.964   2.191 -0.9623  0.0847 -0.0999
35698SOL    HW112224  11.234   9.021   2.147 -0.5726  0.0093  0.3556
35698SOL    HW212225  11.206   8.953   2.280 -1.8879  0.4813  0.3245
35699SOL     OW12226   6.206   3.223   1.894 -0.3869 -0.0314 -0.0955
35699SOL    HW112227   6.266   3.179   1.953  3.8115  2.8743 -1.9775
35699SOL    HW212228   6.213   3.174   1.812 -3.1258 -1.5769  0.5051
35700SOL     OW12229   0.316   1.222   8.833  0.8692 -0.3515 -0.1469
35700SOL    HW112230   0.367   1.188   8.906  0.4990  0.5368  0.5354
35700SOL    HW212231   0.372   1.290   8.795  0.2137  0.6057  0.5862
35701SOL     OW12232   0.842   9.625   6.411  0.4548  0.2806 -0.2850
35701SOL    HW112233   0.790   9.625   6.330  0.2395 -1.1182 -0.1692
35701SOL    HW212234   0.896   9.546   6.404  0.9823  0.5594  0.5971
35702SOL     OW12235   3.150   9.044   0.263 -0.2384  0.3815  0.4135
35702SOL    HW112236   3.185   8.969   0.215 -3.4490 -1.0391  0.1650
35702SOL    HW212237   3.163   9.119   0.205 -2.9619 -1.1095 -2.2128
35703SOL     OW12238   0.040   8.277   7.122 -0.4781 -0.5134  0.1285
35703SOL    HW112239   0.106   8.329   7.168  0.8217 -1.6745 -0.3858
35703SOL    HW212240  -0.037   8.334   7.116  0.6369  1.0217  0.3321
35704SOL     OW12241   5.677   6.860  10.031 -0.3770  0.1706  0.3877
35704SOL    HW112242   5.764   6.867  10.072 -0.7319  0.9990  1.0135
35704SOL    HW212243   5.648   6.772  10.053  0.0633  0.0926  0.6804
35705SOL     OW12244   6.847   8.486   2.412  0.1332 -0.1517 -0.1188
35705SOL    HW112245   6.916   8.551   2.406 -0.0562  0.0943  0.3238
35705SOL    HW212246   6.779   8.528   2.465 -0.2074 -0.5161 -0.2614
35706SOL     OW12247   0.057   6.655   4.985  0.4703 -0.1782 -0.2794
35706SOL    HW112248   0.085   6.746   4.985  0.7639 -0.2416  1.5738
35706SOL    HW212249   0.065   6.627   5.076  0.1750 -1.9969 -0.7758
35707SOL     OW12250   2.945   8.407   4.721 -0.2082 -0.5425  0.2311
35707SOL    HW112251   2.973   8.371   4.637  0.0695  0.1080  0.0387
35707SOL    HW212252   3.005   8.367   4.785 -1.9067 -2.8236  0.4240
35708SOL     OW12253   0.982   4.743   5.354  0.4245 -0.2186  0.5586
35708SOL    HW112254   0.976   4.649   5.337  1.6633  0.0431 -1.3508
35708SOL    HW212255   1.019   4.749   5.443 -0.7998 -1.5173  1.1737
35709SOL     OW12256  10.607   1.005   7.652 -0.5486  0.2189  0.2964
35709SOL    HW112257  10.698   1.023   7.630 -0.3242  1.2918  2.0752
35709SOL    HW212258  10.558   1.078   7.613 -0.5938 -0.0264 -0.1140
35710SOL     OW12259   6.624  10.488   8.017  0.8190 -0.1034 -0.6063
35710SOL    HW112260   6.549  10.518   8.067  0.1260  1.5610 -2.5547
35710SOL    HW212261   6.700  10.528   8.061  0.2904  0.6810 -0.3992
35711SOL     OW12262   7.105   2.877  10.264  0.3936 -0.0547 -0.5503
35711SOL    HW112263   7.128   2.888  10.356 -0.0915  0.7722 -0.5243
35711SOL    HW212264   7.148   2.949  10.219 -0.9172  0.6446 -0.7021
35712SOL     OW12265   3.095   6.033  10.775  0.3134 -0.2360  0.0737
35712SOL    HW112266   3.091   5.941  10.748 -0.5847  0.1462 -1.1513
35712SOL    HW212267   3.168   6.070  10.726 -1.5298  0.5420 -2.2176
35713SOL     OW12268  10.122   1.406   0.517  0.7545 -0.1760  0.2059
35713SOL    HW112269  10.205   1.414   0.470  1.4591  1.3161  1.6666
35713SOL    HW212270  10.112   1.489   0.562 -1.7571 -0.1972 -0.2790
35714SOL     OW12271   5.557   4.727   8.970 -0.2814 -0.0965  0.3536
35714SOL    HW112272   5.519   4.808   8.937  0.0136 -1.3159 -3.2240
35714SOL    HW212273   5.648   4.751   8.991 -0.6537  0.8654  0.9170
35715SOL     OW12274   3.626   5.206   8.786  0.0191 -0.1322 -0.4144
35715SOL    HW112275   3.578   5.246   8.713  1.5264 -0.5738 -1.6893
35715SOL    HW212276   3.718   5.222   8.765  0.5115 -1.2912  0.8069
35716SOL     OW12277  10.200   6.973   7.160  0.2524 -0.3287 -0.2677
35716SOL    HW112278  10.229   6.931   7.079 -0.6035  2.5063 -2.1135
35716SOL    HW212279  10.107   6.990   7.147  0.2905  0.9316  0.9640
35717SOL     OW12280   7.065   3.058   1.643  0.3559  0.0622 -0.0737
35717SOL    HW112281   7.160   3.067   1.634  0.0829  0.9898 -2.4532
35717SOL    HW212282   7.039   3.010   1.564 -1.1749 -0.0632  0.4952
35718SOL     OW12283   7.556   0.657   8.282 -0.5009 -0.4481  0.0872
35718SOL    HW112284   7.577   0.666   8.189  0.7303  0.3226  0.4363
35718SOL    HW212285   7.464   0.684   8.288 -0.5417 -0.3563 -0.8800
35719SOL     OW12286  10.499   7.257   3.024 -0.2161  0.5851  0.4898
35719SOL    HW112287  10.509   7.179   3.078 -2.6647  1.5333  2.4599
35719SOL    HW212288  10.455   7.227   2.945  0.9718 -0.3856  0.1801
35720SOL     OW12289  10.281   7.284   6.537 -0.3406  0.4857 -0.4800
35720SOL    HW112290  10.212   7.316   6.479 -0.4952  1.5509  0.2785
35720SOL    HW212291  10.303   7.359   6.593  0.4635 -0.2429  0.2071
35721SOL     OW12292   8.741   3.548   3.699 -0.0556 -0.3528 -0.4348
35721SOL    HW112293   8.766   3.639   3.683 -0.4025 -0.1543  0.1348
35721SOL    HW212294   8.687   3.524   3.623 -0.4141  0.0871 -0.3197
35722SOL     OW12295  11.061   8.478  10.301 -0.2176  0.1660 -0.7590
35722SOL    HW112296  11.151   8.508  10.291 -0.4113  1.2334  0.5026
35722SOL    HW212297  11.008   8.547  10.261 -0.6312  1.1685  1.4604
35723SOL     OW12298   3.109  10.398   3.288 -0.3109 -0.0739  0.1537
35723SOL    HW112299   3.179  10.378   3.226 -1.0220  1.1873 -1.0758
35723SOL    HW212300   3.123  10.337   3.360  2.5490  0.6976  0.3121
35724SOL     OW12301   1.653  11.304   1.524  0.7200 -0.2679  0.4368
35724SOL    HW112302   1.694  11.388   1.500  1.3301 -0.3620  1.1563
35724SOL    HW212303   1.718  11.238   1.499  0.0229 -0.5648 -0.6165
35725SOL     OW12304   5.748   3.679   3.340  0.1232 -0.2462 -0.3170
35725SOL    HW112305   5.808   3.605   3.350  1.3339  0.4356 -2.1490
35725SOL    HW212306   5.786   3.730   3.269 -0.5267  2.3046  1.1220
35726SOL     OW12307   5.040   8.746   2.690  0.1264  0.5222 -0.7362
35726SOL    HW112308   5.013   8.712   2.775  1.0933  0.6287 -0.3861
35726SOL    HW212309   4.975   8.814   2.670 -0.2689  0.2956 -0.2224
35727SOL     OW12310  11.273   2.125   8.620  0.7564  0.5119  0.3740
35727SOL    HW112311  11.204   2.157   8.562  1.0894  0.5532  0.0015
35727SOL    HW212312  11.320   2.061   8.567  1.3078  0.8409  0.4710
35728SOL     OW12313  10.469   0.093  10.145  0.8023  0.0287  0.6801
35728SOL    HW112314  10.530   0.150  10.099  1.0367  1.3388  2.5488
35728SOL    HW212315  10.525   0.038  10.200  0.3757  1.2617  2.4277
35729SOL     OW12316   2.154   2.583   1.272 -0.1779 -0.1749  0.3527
35729SOL    HW112317   2.126   2.491   1.276 -1.1769  0.1100  0.1031
35729SOL    HW212318   2.214   2.586   1.197 -1.5088 -0.2842 -0.7415
35730SOL     OW12319   1.128   0.821  10.902  0.9169 -0.0307  0.0721
35730SOL    HW112320   1.106   0.734  10.867  1.9375 -1.0533  1.8897
35730SOL    HW212321   1.224   0.825  10.897  0.9673  0.4358  1.2438
35731SOL     OW12322  10.283   4.208   1.631 -0.0572  0.1982 -0.0252
35731SOL    HW112323  10.287   4.157   1.550 -0.0881  1.4990 -0.8565
35731SOL    HW212324  10.194   4.196   1.663 -0.1051 -0.1546 -0.2957
35732SOL     OW12325   3.020   5.700   8.133 -0.1322 -0.0741 -0.5503
35732SOL    HW112326   2.983   5.786   8.148  0.9605  0.1466  0.9787
35732SOL    HW212327   3.030   5.662   8.220  1.5894 -0.7973 -1.0270
35733SOL     OW12328   8.341   1.998   8.302 -0.5018  0.6019 -0.3392
35733SOL    HW112329   8.404   2.023   8.369  1.4137  1.7180 -2.4583
35733SOL    HW212330   8.335   2.075   8.245 -2.4765 -0.1278 -1.1714
35734SOL     OW12331   0.222   9.067   1.771  0.1354 -0.1509  0.5733
35734SOL    HW112332   0.203   9.028   1.685 -0.1929 -0.4686  0.7910
35734SOL    HW212333   0.286   9.135   1.752 -0.4665  0.2540 -0.0291
35735SOL     OW12334  10.341   4.933   3.789 -0.1393 -0.3172 -0.0916
35735SOL    HW112335  10.358   4.885   3.708 -1.1102  1.4713 -1.3955
35735SOL    HW212336  10.246   4.934   3.797 -0.0899  0.4408  0.4917
35736SOL     OW12337   9.405   5.143   7.655 -0.5209 -0.3583  0.4463
35736SOL    HW112338   9.459   5.215   7.688  0.1356  0.2100 -1.8307
35736SOL    HW212339   9.406   5.079   7.726 -0.8236  1.7026  2.3645
35737SOL     OW12340   2.490   7.604  10.955  0.1364 -0.3463  0.0472
35737SOL    HW112341   2.584   7.619  10.943  0.0384  1.4334  1.3839
35737SOL    HW212342   2.464   7.554  10.877  1.7803  0.8945 -1.3357
35738SOL     OW12343   8.627   9.582   9.019  0.4381 -0.7379  0.1794
35738SOL    HW112344   8.670   9.567   8.935 -0.0711 -1.3582  0.0190
35738SOL    HW212345   8.551   9.637   8.999 -0.5864 -2.1816 -0.0339
35739SOL     OW12346   2.736  10.139   6.057 -0.6578 -0.2021  0.0694
35739SOL    HW112347   2.824  10.175   6.048 -0.4467 -0.5299  0.8341
35739SOL    HW212348   2.681  10.213   6.082 -1.0276  0.4841 -2.5834
35740SOL     OW12349  11.049   2.409   5.414  0.2826 -0.7712  0.5236
35740SOL    HW112350  11.078   2.496   5.439  0.6275 -0.7667  0.0997
35740SOL    HW212351  11.055   2.357   5.495  1.1982 -0.7027  0.5066
35741SOL     OW12352   9.189  10.237   7.516  0.1597  0.6525 -0.0890
35741SOL    HW112353   9.213  10.248   7.608  0.3495  0.5611 -0.1267
35741SOL    HW212354   9.139  10.156   7.515 -0.9774  1.3501  0.1406
35742SOL     OW12355   1.647   6.971   7.964 -0.1797 -0.0917  0.2604
35742SOL    HW112356   1.556   6.960   7.937  0.0135 -0.4311 -0.2723
35742SOL    HW212357   1.673   6.885   7.997 -0.7308  0.5904  2.5630
35743SOL     OW12358   5.349  11.097   1.474 -0.8333  0.5305  0.0743
35743SOL    HW112359   5.280  11.163   1.474 -0.6166  0.7616 -1.1549
35743SOL    HW212360   5.337  11.049   1.393 -0.9449 -0.9194  0.9213
35744SOL     OW12361   0.039   3.029  10.979  0.8698 -0.4422 -0.2901
35744SOL    HW112362   0.055   3.013  11.072  2.3057  0.8505 -0.2995
35744SOL    HW212363  -0.053   3.007  10.966  0.2760  0.7709  1.7452
35745SOL     OW12364   1.048  10.931  10.616 -0.2639 -0.7482 -0.5174
35745SOL    HW112365   0.981  10.876  10.658 -1.6141  0.6950 -0.7457
35745SOL    HW212366   1.113  10.945  10.684 -0.1220 -2.2324 -0.3117
35746SOL     OW12367   2.123   8.662   4.751 -0.0939 -0.1041  0.2811
35746SOL    HW112368   2.085   8.631   4.834  0.2205  2.1413  1.2923
35746SOL    HW212369   2.085   8.604   4.685 -1.4954 -1.0063  1.8173
35747SOL     OW12370   2.910  11.105   1.336  0.5150  0.4544 -0.5284
35747SOL    HW112371   2.938  11.016   1.317 -2.5545 -1.3276  2.6599
35747SOL    HW212372   2.832  11.118   1.283  0.9082  1.2634 -0.9294
35748SOL     OW12373   6.979   7.286  10.331 -0.2141  0.3643  0.1000
35748SOL    HW112374   6.952   7.261  10.419  1.0155 -1.0160  0.1122
35748SOL    HW212375   7.045   7.354  10.344 -2.1777  2.3009  0.1331
35749SOL     OW12376   6.908   1.944   5.642 -0.0659  0.1829 -0.3360
35749SOL    HW112377   6.876   2.001   5.572  3.0818  1.9154 -0.4295
35749SOL    HW212378   7.001   1.935   5.625  0.3435 -1.1834  2.3817
35750SOL     OW12379   9.953  11.111   4.226 -0.1846 -0.0497  0.5757
35750SOL    HW112380   9.902  11.101   4.145  0.3678 -1.6937  0.4232
35750SOL    HW212381  10.020  11.176   4.203  0.3664 -0.9661 -0.5036
35751SOL     OW12382   8.678   8.801   1.253 -0.4346  0.0948  0.3533
35751SOL    HW112383   8.683   8.767   1.164 -1.8961 -0.9256  0.6380
35751SOL    HW212384   8.721   8.886   1.249  0.9957 -0.6731 -0.9480
35752SOL     OW12385   4.296   8.434   1.345 -0.1104  0.5739  0.6087
35752SOL    HW112386   4.323   8.356   1.296 -0.5270  1.8005 -1.6374
35752SOL    HW212387   4.220   8.405   1.396 -1.6427  0.0147 -1.8870
35753SOL     OW12388   7.601   9.449   3.149 -0.5376  0.3620  0.7414
35753SOL    HW112389   7.607   9.500   3.069  1.2924 -0.6389  0.2298
35753SOL    HW212390   7.649   9.500   3.214  2.5636 -1.3782 -0.1338
35754SOL     OW12391   8.564  10.093   7.265  0.2047  0.5505 -0.2324
35754SOL    HW112392   8.599  10.019   7.315  1.3608  1.1029 -0.2152
35754SOL    HW212393   8.479  10.112   7.306 -0.1910 -0.8819 -0.3574
35755SOL     OW12394   4.254   1.532   5.184 -0.2697  0.1758  0.5869
35755SOL    HW112395   4.163   1.513   5.207 -0.5081  1.8524  1.1299
35755SOL    HW212396   4.306   1.484   5.249 -0.7516 -0.8491  0.2262
35756SOL     OW12397   9.552   8.722  11.237 -0.1025  0.2034  0.3224
35756SOL    HW112398   9.588   8.640  11.203 -0.5189  0.1583 -0.0121
35756SOL    HW212399   9.584   8.727  11.327 -0.8961 -0.8209  0.6660
35757SOL     OW12400   1.965   5.069   2.728  0.5119  0.7711  0.3353
35757SOL    HW112401   2.039   5.024   2.768 -0.8082 -3.8275 -2.0558
35757SOL    HW212402   1.902   5.081   2.799  1.0332 -0.9238  1.0941
35758SOL     OW12403   2.113   2.236   3.921 -0.5561 -0.3355 -0.0375
35758SOL    HW112404   2.130   2.283   3.840  1.4142 -2.2110 -0.7705
35758SOL    HW212405   2.073   2.154   3.893 -0.1745 -0.8479  0.8825
35759SOL     OW12406  10.965   8.198   3.924  0.4370  0.1861  0.3017
35759SOL    HW112407  11.061   8.199   3.932  0.4820  1.7268 -0.1520
35759SOL    HW212408  10.935   8.245   4.002  0.0078 -1.0288  0.8715
35760SOL     OW12409   1.215   5.027   6.877  0.8843  0.8476 -0.1134
35760SOL    HW112410   1.152   4.955   6.871  1.8232  0.1908 -2.7320
35760SOL    HW212411   1.168   5.096   6.924 -1.2736 -0.1655 -0.7366
35761SOL     OW12412   7.086  11.031   7.356  0.7252 -0.2519 -0.2121
35761SOL    HW112413   7.082  11.123   7.383 -0.3857 -0.6080  0.8668
35761SOL    HW212414   7.075  10.982   7.437  0.2556 -1.3434 -0.9312
35762SOL     OW12415  11.276   6.821  10.171  0.3397 -0.1297  0.2924
35762SOL    HW112416  11.217   6.871  10.115 -1.6850 -0.9643  1.6162
35762SOL    HW212417  11.265   6.859  10.258  2.2777  0.1367  0.4507
35763SOL     OW12418   5.808   8.300   2.816 -0.0198  0.4327 -0.2935
35763SOL    HW112419   5.893   8.271   2.848 -0.2076  0.3408  0.1185
35763SOL    HW212420   5.826   8.337   2.729  0.5936  1.3472  0.2251
35764SOL     OW12421   8.115   3.089  10.196 -0.1463  0.6828  0.1615
35764SOL    HW112422   8.054   3.064  10.266 -0.5420 -2.0669 -1.1048
35764SOL    HW212423   8.157   3.007  10.171 -0.9423  1.3473 -3.6991
35765SOL     OW12424   0.258   6.631   3.095  0.6871  0.3607  0.2379
35765SOL    HW112425   0.328   6.572   3.068 -2.2081 -2.1559 -2.1748
35765SOL    HW212426   0.201   6.577   3.149 -0.8975  1.5288 -0.2462
35766SOL     OW12427   0.671   4.759   2.132 -0.5162  0.3041 -0.5379
35766SOL    HW112428   0.713   4.713   2.205 -2.0023  0.3970  0.4103
35766SOL    HW212429   0.712   4.723   2.054  0.5916 -0.3237  0.3174
35767SOL     OW12430   9.952   4.851   7.459 -0.3741 -0.1658 -0.2560
35767SOL    HW112431  10.030   4.903   7.481  0.2416 -0.7349 -1.0626
35767SOL    HW212432   9.925   4.811   7.541 -1.6795  2.5228  0.6819
35768SOL     OW12433   7.666  10.524  10.827  0.6170  0.0224  0.0434
35768SOL    HW112434   7.584  10.545  10.872  1.2306 -0.5218  1.4503
35768SOL    HW212435   7.682  10.432  10.848  1.1396 -0.1143 -0.9363
35769SOL     OW12436   6.255   3.443   9.381  0.0514 -0.3266 -0.1914
35769SOL    HW112437   6.177   3.486   9.416 -0.7844 -0.8630 -1.3597
35769SOL    HW212438   6.232   3.420   9.292  1.7665  0.0246 -0.7547
35770SOL     OW12439   3.501  11.085   1.755 -0.2600  0.3821 -0.1486
35770SOL    HW112440   3.589  11.116   1.734 -1.0741  2.8033 -0.1948
35770SOL    HW212441   3.505  10.990   1.743  2.4510  0.4001  0.3111
35771SOL     OW12442   2.011   5.604   3.537  0.1118 -0.0989  0.4629
35771SOL    HW112443   2.067   5.555   3.597  1.3825  0.5670 -0.1792
35771SOL    HW212444   2.016   5.695   3.568  1.4596  0.3956 -1.1592
35772SOL     OW12445  10.808   1.080   6.554  0.5169  0.5543  0.3512
35772SOL    HW112446  10.898   1.062   6.583  0.6157  0.0362 -0.2833
35772SOL    HW212447  10.787   1.009   6.495  0.6726  2.1429 -1.6691
35773SOL     OW12448   4.239   5.562   5.774 -0.1345 -0.1674  0.3792
35773SOL    HW112449   4.304   5.569   5.843 -0.7058  2.8283  0.7005
35773SOL    HW212450   4.155   5.567   5.819 -0.5383 -0.3585 -0.3351
35774SOL     OW12451   6.040   5.848   7.586 -0.6036 -0.5390 -0.1135
35774SOL    HW112452   6.006   5.790   7.654  0.0883 -0.9565 -0.1168
35774SOL    HW212453   5.977   5.920   7.582 -0.6402 -0.5054  0.9838
35775SOL     OW12454   1.794   1.120   1.169  0.1850 -0.0304 -0.8169
35775SOL    HW112455   1.787   1.207   1.128 -1.1054 -0.8190 -2.3632
35775SOL    HW212456   1.718   1.115   1.227  0.7044  0.1856 -0.1220
35776SOL     OW12457   2.095   7.806   6.579  0.1118  0.2323 -0.3253
35776SOL    HW112458   2.018   7.838   6.626 -1.3211 -1.2171 -1.6267
35776SOL    HW212459   2.135   7.742   6.638 -0.0900  0.4576  0.0522
35777SOL     OW12460   7.029   3.855   7.484 -0.3254 -0.2751  0.0113
35777SOL    HW112461   7.040   3.839   7.578 -0.5160 -1.0683 -0.0921
35777SOL    HW212462   7.034   3.950   7.475 -2.4048 -0.0240  1.0953
35778SOL     OW12463   2.164   7.606   6.027 -0.2729 -0.2317  0.1324
35778SOL    HW112464   2.217   7.670   6.075  0.2472 -1.8276  1.7437
35778SOL    HW212465   2.087   7.655   5.998  0.9678  1.5465 -0.2141
35779SOL     OW12466   2.869   1.754   9.761 -0.1355  0.4309  0.2239
35779SOL    HW112467   2.919   1.680   9.728  0.1018 -0.1959  1.9554
35779SOL    HW212468   2.860   1.812   9.685  2.2932  0.0810 -0.3750
35780SOL     OW12469   0.956  10.560  10.464 -0.3537 -0.4107 -0.0212
35780SOL    HW112470   0.874  10.554  10.514 -1.8409 -0.3509 -2.3653
35780SOL    HW212471   0.972  10.653  10.456 -0.3091 -0.4097  0.0839
35781SOL     OW12472   8.826   5.130   6.264 -0.4388 -0.0352  0.0496
35781SOL    HW112473   8.876   5.210   6.283 -2.0672  1.1085 -0.4067
35781SOL    HW212474   8.832   5.121   6.169 -0.4113 -0.3740  0.0836
35782SOL     OW12475   7.997   2.280  10.432 -0.0925 -0.1706 -0.0420
35782SOL    HW112476   8.038   2.338  10.368 -0.1187 -0.8335 -0.6643
35782SOL    HW212477   8.069   2.252  10.488  0.2590 -1.1115 -0.9595
35783SOL     OW12478   8.302   2.357   7.337  0.0359  0.1567  0.1614
35783SOL    HW112479   8.379   2.401   7.301  0.1625 -2.0125 -2.4384
35783SOL    HW212480   8.326   2.335   7.427  1.7062  1.2266 -0.0058
35784SOL     OW12481   6.980  11.227   8.250  0.1649  0.0584 -0.4256
35784SOL    HW112482   6.918  11.232   8.322 -1.7867  2.4545 -2.1990
35784SOL    HW212483   6.982  11.316   8.213  1.2342 -1.0501 -3.2003
35785SOL     OW12484   9.921   9.771   5.051 -0.1443  0.5176  0.0119
35785SOL    HW112485   9.901   9.682   5.081  1.8175  0.0843  0.1240
35785SOL    HW212486   9.906   9.826   5.128  2.3655 -0.2530  1.1136
35786SOL     OW12487   2.766   0.413  10.715 -0.4065 -0.1252 -0.3049
35786SOL    HW112488   2.838   0.429  10.776 -0.0111 -2.7150 -0.0238
35786SOL    HW212489   2.808   0.403  10.630 -0.6205  0.0325 -0.4294
35787SOL     OW12490   1.585  10.481   3.627 -0.0016  0.4837  0.0806
35787SOL    HW112491   1.562  10.503   3.717  1.9382  1.4250  0.3667
35787SOL    HW212492   1.616  10.563   3.589 -1.7592  0.3353 -1.7896
35788SOL     OW12493   0.634   5.949   5.851  0.1163  0.0908  0.3726
35788SOL    HW112494   0.582   5.873   5.826 -1.2849  0.8764  0.8490
35788SOL    HW212495   0.670   5.981   5.768 -1.4539  0.4663 -0.1852
35789SOL     OW12496   7.042   4.531   3.165 -0.1462  0.3183  0.4942
35789SOL    HW112497   6.969   4.474   3.138 -0.0837  0.4633  0.0246
35789SOL    HW212498   7.040   4.527   3.261 -1.0176  0.6264  0.4980
35790SOL     OW12499   5.192   6.144   9.168  0.6532  0.1255  0.0859
35790SOL    HW112500   5.100   6.146   9.193  0.6335  1.9657 -0.0603
35790SOL    HW212501   5.239   6.134   9.251  0.3933  1.4522  0.4104
35791SOL     OW12502   9.422   1.247  11.188  0.1625 -0.6279 -0.8283
35791SOL    HW112503   9.510   1.239  11.225 -0.4277 -0.7454  0.5586
35791SOL    HW212504   9.407   1.163  11.144  0.0544 -1.2692  0.4313
35792SOL     OW12505  10.668   4.712   7.168  0.2288  0.1210 -0.2263
35792SOL    HW112506  10.678   4.620   7.192  0.1242  0.6171  1.7974
35792SOL    HW212507  10.645   4.710   7.075  3.4059 -1.7476 -1.0443
35793SOL     OW12508   8.700   2.270   9.527  0.0980 -0.5387  0.7559
35793SOL    HW112509   8.787   2.261   9.565  1.3030  2.2384 -1.1324
35793SOL    HW212510   8.659   2.341   9.576 -0.6379 -1.0050  0.8264
35794SOL     OW12511   5.081   6.182   2.455 -0.1727  0.1842  0.1412
35794SOL    HW112512   5.084   6.270   2.418 -0.1949  0.5443  0.9804
35794SOL    HW212513   4.988   6.167   2.473 -0.1388  0.1077  0.2587
35795SOL     OW12514   0.445   1.071   8.084 -0.1470 -0.3250  0.1869
35795SOL    HW112515   0.532   1.042   8.110  0.7570  3.2240  1.3955
35795SOL    HW212516   0.460   1.128   8.008 -1.3575  0.5564  0.5879
35796SOL     OW12517   5.907  10.810  10.373  0.2282 -0.0255 -0.1896
35796SOL    HW112518   5.826  10.762  10.391  0.8633 -1.1684 -0.3338
35796SOL    HW212519   5.976  10.745  10.384  1.2705  1.3225  1.4865
35797SOL     OW12520   8.244  10.307   0.979  0.3722  0.1486 -0.1360
35797SOL    HW112521   8.188  10.342   1.048 -0.8293  0.5247 -1.2585
35797SOL    HW212522   8.293  10.237   1.020 -0.0328  0.6297  1.1899
35798SOL     OW12523   6.128   8.818   3.113  0.1103  0.1018 -0.2759
35798SOL    HW112524   6.070   8.751   3.149 -1.3566  0.4396 -1.9287
35798SOL    HW212525   6.142   8.879   3.185  0.8372 -1.5257  1.0176
35799SOL     OW12526   3.202   0.878   5.837  0.6930 -0.0617  0.6224
35799SOL    HW112527   3.262   0.847   5.904  1.8998 -0.5546 -0.6669
35799SOL    HW212528   3.140   0.806   5.825 -0.2838  0.4980  2.0428
35800SOL     OW12529   4.143   5.149   9.295 -0.9909  0.2984  0.4529
35800SOL    HW112530   4.100   5.065   9.280 -1.2642  0.6056 -0.4968
35800SOL    HW212531   4.125   5.201   9.216 -1.6960  1.6245  1.4614
35801SOL     OW12532   7.420   5.854  11.307 -0.0312 -0.6781 -0.2591
35801SOL    HW112533   7.417   5.946  11.331 -1.0783 -0.6153 -0.5942
35801SOL    HW212534   7.382   5.851  11.219  0.0514 -1.4115 -0.2735
35802SOL     OW12535   3.511   8.782   4.626  0.3453 -0.4108  0.0024
35802SOL    HW112536   3.534   8.843   4.696 -2.6620  0.4237  0.3423
35802SOL    HW212537   3.489   8.701   4.671 -0.4996 -0.2191 -0.0667
35803SOL     OW12538   9.767   2.687   9.817  0.5237  0.2957  0.1734
35803SOL    HW112539   9.712   2.701   9.741  1.3953 -1.6350 -0.8456
35803SOL    HW212540   9.853   2.723   9.793  0.7288 -0.0751  0.3400
35804SOL     OW12541   2.175   8.038   7.641  0.1195 -0.3771  0.4433
35804SOL    HW112542   2.121   7.965   7.612 -1.2284  0.1575  1.5720
35804SOL    HW212543   2.124   8.116   7.620  2.0415  0.3636 -1.8374
35805SOL     OW12544  10.742   2.572   8.034  0.0318 -0.2374 -0.2616
35805SOL    HW112545  10.679   2.508   8.068  0.4342 -1.1201 -1.1303
35805SOL    HW212546  10.814   2.518   8.000  0.8031  0.7184 -0.1738
35806SOL     OW12547   5.491   3.895  10.478  0.0346  0.0597 -0.3880
35806SOL    HW112548   5.436   3.836  10.530  1.1363 -1.0846 -0.5025
35806SOL    HW212549   5.555   3.930  10.541 -0.3362  0.8145 -0.4158
35807SOL     OW12550   9.949   7.261   3.818 -0.2466  0.3635  0.7061
35807SOL    HW112551  10.023   7.317   3.794 -1.1870  1.1465 -0.4143
35807SOL    HW212552   9.874   7.320   3.822 -1.2446 -0.7900 -0.4641
35808SOL     OW12553   3.774   0.982   6.101  0.4208 -0.5034 -0.2938
35808SOL    HW112554   3.816   0.961   6.018  1.4829  0.5101 -0.0257
35808SOL    HW212555   3.838   1.036   6.147  0.2490 -1.8235  1.5705
35809SOL     OW12556   0.146   1.512  11.312  0.0910  0.4676 -0.5400
35809SOL    HW112557   0.124   1.522  11.405 -0.8895 -0.0472 -0.7091
35809SOL    HW212558   0.167   1.419  11.303 -2.5065 -0.0825 -1.3726
35810SOL     OW12559   8.333   9.702  11.327  0.3491 -0.2418 -0.4138
35810SOL    HW112560   8.336   9.775  11.264  0.3709  0.3177  0.2237
35810SOL    HW212561   8.241   9.696  11.352  0.3190 -0.5517 -0.6049
35811SOL     OW12562  10.842   1.973   7.485  0.3769  0.1297 -0.0578
35811SOL    HW112563  10.882   2.005   7.566  0.0217  0.4441 -0.0071
35811SOL    HW212564  10.824   2.052   7.434 -0.7227  0.0422  0.1732
35812SOL     OW12565  11.071   6.853   1.016  0.1857 -0.2847  0.6672
35812SOL    HW112566  11.058   6.758   1.020  0.6721 -0.3165  1.8566
35812SOL    HW212567  11.036   6.885   1.100 -1.0738  0.7311 -0.2193
35813SOL     OW12568   0.297  10.045   4.983  0.4757 -0.0620 -0.1270
35813SOL    HW112569   0.305  10.140   4.977  1.2233 -0.0920  0.3103
35813SOL    HW212570   0.209  10.026   4.949 -1.2434  1.1414  3.4420
35814SOL     OW12571   1.672   1.021   4.561 -0.0181 -0.2351 -0.2741
35814SOL    HW112572   1.703   0.998   4.474 -0.5936 -0.7693 -0.3449
35814SOL    HW212573   1.651   0.937   4.602  1.2598 -0.0620  0.7680
35815SOL     OW12574   4.037   3.839   5.274  0.2905  0.3084  0.3338
35815SOL    HW112575   4.096   3.901   5.316  0.6290  0.3347 -0.1744
35815SOL    HW212576   4.090   3.797   5.206 -0.2189  0.1998 -0.0039
35816SOL     OW12577   8.757   6.992   6.553 -0.6680 -0.4307  0.2276
35816SOL    HW112578   8.801   7.063   6.505  1.3430 -1.4889  0.4490
35816SOL    HW212579   8.664   7.011   6.543 -0.2200  1.0482 -1.5461
35817SOL     OW12580  10.909   6.976   5.928 -0.1570  0.0264 -0.3084
35817SOL    HW112581  10.921   7.071   5.915  1.0577 -0.1494 -0.5201
35817SOL    HW212582  10.980   6.936   5.878  0.9847 -0.9065  1.9983
35818SOL     OW12583   0.147   0.417  10.797 -0.1531  0.1532 -0.2128
35818SOL    HW112584   0.195   0.335  10.790 -0.9587 -0.5070  1.7534
35818SOL    HW212585   0.204   0.482  10.756  0.4963 -1.3730 -1.7493
35819SOL     OW12586   5.750   3.559   7.942  0.2599  0.0543 -0.2551
35819SOL    HW112587   5.771   3.531   7.853 -2.1279 -2.0931 -0.1967
35819SOL    HW212588   5.835   3.563   7.986  1.2202 -1.7400 -1.8330
35820SOL     OW12589  10.012   9.382  10.770  0.3528  0.1312  0.3368
35820SOL    HW112590  10.105   9.364  10.782  0.3209  0.0653  0.4794
35820SOL    HW212591   9.984   9.420  10.854  0.5304  1.2842 -0.1194
35821SOL     OW12592   2.818   3.352   6.938  0.1668  0.3320  0.1543
35821SOL    HW112593   2.848   3.434   6.976  1.9341 -0.7408  1.1545
35821SOL    HW212594   2.815   3.368   6.844  3.9034  0.5316  0.0083
35822SOL     OW12595   4.143   8.044   8.409  0.2609 -0.4437 -0.6750
35822SOL    HW112596   4.216   8.001   8.365  0.1145  0.0547 -1.4272
35822SOL    HW212597   4.114   8.111   8.347  0.5383  0.7905  0.4883
35823SOL     OW12598   2.884   1.295  10.899  0.1818 -0.1944 -0.0007
35823SOL    HW112599   2.977   1.272  10.899  0.1045 -0.5221 -0.6408
35823SOL    HW212600   2.879   1.376  10.949  1.0352  0.6972 -1.3228
35824SOL     OW12601  10.019   8.928   2.206 -0.7050  0.5673  0.2910
35824SOL    HW112602  10.100   8.889   2.238 -0.1557  0.7740 -0.8215
35824SOL    HW212603   9.959   8.855   2.196 -0.3412  0.2829  0.1766
35825SOL     OW12604   1.204   2.608   9.254  0.0691 -0.3284  0.1061
35825SOL    HW112605   1.274   2.607   9.320  0.0525  0.1534  0.1308
35825SOL    HW212606   1.166   2.520   9.258  1.6729 -1.0995 -0.9728
35826SOL     OW12607  10.896   4.317  10.730  0.1066 -0.2878  0.2196
35826SOL    HW112608  10.956   4.321  10.656  0.1124 -1.2365  0.1695
35826SOL    HW212609  10.826   4.379  10.707  0.8593  0.5331  0.1126
35827SOL     OW12610   0.027   1.289   1.936 -0.1665 -0.2611 -0.0794
35827SOL    HW112611  -0.046   1.338   1.975 -1.4413  0.0370 -2.7054
35827SOL    HW212612   0.004   1.197   1.950 -0.4249 -0.1617  0.1620
35828SOL     OW12613  10.756   7.368   0.736  0.2094 -0.0364 -0.2022
35828SOL    HW112614  10.827   7.338   0.793 -0.3838 -1.1318 -0.0433
35828SOL    HW212615  10.714   7.438   0.786  0.8735  0.3033 -0.1040
35829SOL     OW12616   2.852   3.616   7.232  0.4966  0.3128  0.9520
35829SOL    HW112617   2.867   3.711   7.226 -1.6906  0.5560 -2.1340
35829SOL    HW212618   2.775   3.601   7.176  0.2073 -3.1559  2.1911
35830SOL     OW12619   2.861   7.402   8.479 -0.4615  0.5980 -0.2103
35830SOL    HW112620   2.779   7.450   8.489 -0.7697  0.3482 -1.4042
35830SOL    HW212621   2.838   7.328   8.423  0.2073 -0.4419  0.8647
35831SOL     OW12622   7.149   4.725   1.758  0.4405  0.1067  0.0931
35831SOL    HW112623   7.202   4.696   1.683  0.1003  0.3525 -0.2434
35831SOL    HW212624   7.192   4.806   1.787 -0.5775  1.0706 -1.0647
35832SOL     OW12625   9.700  10.470   8.467  0.0428  0.8067 -0.0678
35832SOL    HW112626   9.705  10.563   8.490 -1.4468  1.0144 -0.4957
35832SOL    HW212627   9.716  10.424   8.549 -0.0071  1.4594  0.3124
35833SOL     OW12628   3.680   2.662   1.329  0.0302 -0.4696  0.1646
35833SOL    HW112629   3.597   2.616   1.346 -0.7629  0.6003 -0.7142
35833SOL    HW212630   3.707   2.632   1.242 -0.6268  0.8771 -0.5289
35834SOL     OW12631  11.172   0.988   5.591 -0.2122 -0.2851  0.3309
35834SOL    HW112632  11.258   0.990   5.633 -0.0562  1.3352 -0.0321
35834SOL    HW212633  11.142   1.079   5.594 -2.2682 -0.9649  1.1517
35835SOL     OW12634  10.067   8.848   6.622 -0.0035  0.1045  0.3022
35835SOL    HW112635  10.137   8.838   6.558  1.1034 -1.9001  1.7649
35835SOL    HW212636  10.108   8.893   6.696 -0.6963  0.4124  0.5050
35836SOL     OW12637  10.860   8.820   5.657 -0.3162  0.0961  0.1870
35836SOL    HW112638  10.863   8.748   5.721 -1.0167 -0.6867 -0.6508
35836SOL    HW212639  10.809   8.785   5.584  1.0366  0.7591 -1.0976
35837SOL     OW12640   1.892   4.798   6.826  0.4221 -0.3987 -0.0340
35837SOL    HW112641   1.932   4.789   6.913  1.3081 -0.2499 -0.4235
35837SOL    HW212642   1.804   4.761   6.837  0.3913 -0.0475  1.0173
35838SOL     OW12643   9.252  10.441  10.731  0.2571 -0.0158 -0.1179
35838SOL    HW112644   9.183  10.413  10.670  0.9718  0.5110 -1.1920
35838SOL    HW212645   9.209  10.504  10.789 -0.3084 -0.1343 -0.4018
35839SOL     OW12646   3.090   4.088   7.121 -0.0515  0.1582 -0.4927
35839SOL    HW112647   3.008   4.044   7.144 -0.8267  0.0372 -3.3210
35839SOL    HW212648   3.118   4.130   7.202 -3.5006  1.1073  0.3017
35840SOL     OW12649   1.692   1.081   6.711 -0.0233 -0.4251 -0.3125
35840SOL    HW112650   1.665   1.004   6.661  0.3078  1.0967 -3.0005
35840SOL    HW212651   1.785   1.092   6.690  0.3396 -0.2449  1.3496
35841SOL     OW12652   6.905   1.999   7.259 -0.5459  0.2087  0.2927
35841SOL    HW112653   6.864   1.956   7.184 -0.4900  0.9688 -0.1760
35841SOL    HW212654   6.833   2.021   7.317 -0.4365 -2.0508  1.3571
35842SOL     OW12655   8.632   2.980   6.999  0.3072 -0.4218 -0.3297
35842SOL    HW112656   8.537   2.994   7.007 -0.0473 -3.1260  0.6236
35842SOL    HW212657   8.671   3.058   7.039 -1.5249  0.0492  0.6004
35843SOL     OW12658   9.389   6.392   1.454 -0.3039  0.3534  0.3585
35843SOL    HW112659   9.318   6.340   1.416 -0.6293 -0.1187  1.5782
35843SOL    HW212660   9.404   6.463   1.391 -0.5974 -0.5940 -0.7949
35844SOL     OW12661   4.292   5.558  10.378  0.1552 -0.2996 -0.7873
35844SOL    HW112662   4.267   5.633  10.324 -0.8654 -0.6128 -0.7414
35844SOL    HW212663   4.368   5.521  10.332  0.3091  0.4114 -1.1183
35845SOL     OW12664  10.358   4.454  10.673  0.1884  0.4482  0.5931
35845SOL    HW112665  10.334   4.512  10.601  1.5950  0.5134  0.1456
35845SOL    HW212666  10.275   4.424  10.710 -0.5570 -0.2850 -1.6265
35846SOL     OW12667   1.710   2.799   1.561 -0.4726 -0.2902 -0.2786
35846SOL    HW112668   1.748   2.777   1.647  0.5017 -0.4849 -0.7451
35846SOL    HW212669   1.668   2.719   1.532 -2.4146  0.2876  0.8202
35847SOL     OW12670   6.138   7.111   0.355  0.3502 -0.6185  0.0806
35847SOL    HW112671   6.211   7.138   0.412 -1.3802  1.9988  1.1749
35847SOL    HW212672   6.060   7.124   0.409 -1.0292 -2.2718 -1.4677
35848SOL     OW12673   1.533   8.048   7.584 -0.1239 -0.0303  0.3688
35848SOL    HW112674   1.470   8.094   7.638 -1.2123  2.0019 -2.4979
35848SOL    HW212675   1.608   8.107   7.578  0.8234 -1.1130  1.2659
35849SOL     OW12676   6.866   3.114   8.975 -0.2815  0.2056 -0.0350
35849SOL    HW112677   6.937   3.073   8.926 -1.4265 -1.6625 -0.1590
35849SOL    HW212678   6.791   3.112   8.917 -1.2008 -0.4621  1.1461
35850SOL     OW12679   8.289   9.242   3.336 -0.1043  0.5332  0.4582
35850SOL    HW112680   8.356   9.305   3.310  0.6014  0.4545  2.0110
35850SOL    HW212681   8.297   9.171   3.272 -1.5074  2.3599 -1.8411
35851SOL     OW12682   8.053   0.484   7.705 -0.0003 -0.8570  0.0888
35851SOL    HW112683   8.127   0.426   7.687  0.5468 -0.7916  2.0004
35851SOL    HW212684   7.978   0.442   7.663  0.8959 -1.5363 -0.8511
35852SOL     OW12685   9.721   5.864   6.057 -0.5979  0.1614  0.2905
35852SOL    HW112686   9.675   5.945   6.078 -1.2715 -0.1994  0.2264
35852SOL    HW212687   9.728   5.818   6.141 -1.5948 -0.4153  0.0612
35853SOL     OW12688   1.807   4.685   7.322  0.4229 -0.0961 -0.3387
35853SOL    HW112689   1.889   4.681   7.370 -0.2437 -1.2904  0.7446
35853SOL    HW212690   1.741   4.705   7.388 -0.2618  0.0962 -1.0656
35854SOL     OW12691   5.166   3.699   4.004  0.1123 -0.0543 -0.1340
35854SOL    HW112692   5.084   3.722   3.960 -0.6337  2.0937  2.2117
35854SOL    HW212693   5.142   3.624   4.060  0.0821 -0.2438 -0.3981
35855SOL     OW12694   9.082   9.765   4.693 -0.0093 -0.6546  0.7453
35855SOL    HW112695   9.172   9.796   4.704 -0.1206 -0.8580  2.2927
35855SOL    HW212696   9.056   9.798   4.607  1.4417 -0.3527  0.4054
35856SOL     OW12697   5.015   3.996   7.848  0.6712 -0.1221  0.4010
35856SOL    HW112698   5.017   4.010   7.753 -1.2143 -0.4928  0.2686
35856SOL    HW212699   5.040   4.080   7.886 -0.3966  0.5785 -0.4222
35857SOL     OW12700   6.237  10.826  10.731 -0.0215  0.2504  0.3674
35857SOL    HW112701   6.147  10.844  10.701  0.2282  0.8211 -0.0464
35857SOL    HW212702   6.280  10.787  10.655  0.0053 -0.2835  0.6520
35858SOL     OW12703   0.814   1.210   1.261  0.3774  0.3720 -0.2560
35858SOL    HW112704   0.900   1.252   1.271  0.1374  0.8560 -0.2084
35858SOL    HW212705   0.831   1.117   1.274  0.5422  0.6723  1.8303
35859SOL     OW12706   7.375   8.856   9.611  0.1697  0.6254  0.9180
35859SOL    HW112707   7.364   8.856   9.516  1.3836  0.8966  0.7812
35859SOL    HW212708   7.468   8.842   9.625 -0.3049 -1.5853  2.1028
35860SOL     OW12709   7.164   3.290   5.097 -0.2186 -0.0732 -0.6588
35860SOL    HW112710   7.183   3.209   5.048  0.6260 -0.2479 -0.0702
35860SOL    HW212711   7.095   3.265   5.158 -1.4076  0.1960 -1.8846
35861SOL     OW12712   9.811   8.635   1.220  0.1384  0.2245  0.0212
35861SOL    HW112713   9.719   8.635   1.195 -0.5112  1.4282  2.2509
35861SOL    HW212714   9.843   8.722   1.195  0.5499 -0.0275 -0.3355
35862SOL     OW12715   0.773   6.937   9.863  0.1869  0.3326  0.1912
35862SOL    HW112716   0.805   6.892   9.785  1.3374  2.0198 -0.3336
35862SOL    HW212717   0.705   6.996   9.830  1.7330  2.1656  0.2105
35863SOL     OW12718   4.868   3.993   1.137 -0.6793  0.0614 -0.0192
35863SOL    HW112719   4.958   4.023   1.153 -0.3501 -0.7793 -0.2683
35863SOL    HW212720   4.867   3.973   1.043 -1.3229  0.7049 -0.1558
35864SOL     OW12721   2.225   2.929   5.079 -0.3354 -0.2537 -0.3683
35864SOL    HW112722   2.320   2.924   5.090 -0.0006  2.9195 -1.2203
35864SOL    HW212723   2.191   2.935   5.169  0.2128 -1.9207 -0.0410
35865SOL     OW12724   3.293   5.929  10.396 -0.5963  0.0037  0.1588
35865SOL    HW112725   3.296   5.959  10.305  1.3085 -1.8889 -0.4106
35865SOL    HW212726   3.246   5.846  10.393  1.8541 -1.4433  0.4831
35866SOL     OW12727   0.539   1.372   3.287 -0.0083 -0.5180 -0.3422
35866SOL    HW112728   0.621   1.378   3.335  0.1031  0.6875 -0.6610
35866SOL    HW212729   0.507   1.283   3.304  0.4360 -0.3806  1.2748
35867SOL     OW12730   1.570   7.123   6.775 -0.2003 -0.1019 -0.4421
35867SOL    HW112731   1.550   7.155   6.863  0.0490 -0.2336 -0.3375
35867SOL    HW212732   1.493   7.072   6.751 -0.4248  0.2380 -0.4470
35868SOL     OW12733   9.369   2.650   2.942  0.6332  0.5645 -0.7185
35868SOL    HW112734   9.431   2.715   2.908 -0.8356  0.5618 -3.5920
35868SOL    HW212735   9.389   2.571   2.892  0.1793 -0.2615  0.3895
35869SOL     OW12736   3.272   4.876   0.111  0.0731 -0.0298 -0.6029
35869SOL    HW112737   3.306   4.791   0.140  0.7783  0.6826  0.7180
35869SOL    HW212738   3.306   4.887   0.022  1.1899 -0.4916 -0.2413
35870SOL     OW12739   1.992   0.145   6.454  0.1624 -0.3541  0.0404
35870SOL    HW112740   2.024   0.165   6.542  0.4952  1.0816 -0.3953
35870SOL    HW212741   1.911   0.196   6.446 -0.1917 -0.9523 -0.2741
35871SOL     OW12742   8.890   8.241   8.050  0.3586 -0.0015 -0.0589
35871SOL    HW112743   8.814   8.193   8.083  0.6578 -1.2059 -1.0756
35871SOL    HW212744   8.960   8.218   8.111  0.5190 -0.9300 -0.5861
35872SOL     OW12745   2.705   2.731   9.893  0.6737  0.2927  0.2438
35872SOL    HW112746   2.687   2.798   9.959  0.1821  0.0361  0.3653
35872SOL    HW212747   2.620   2.715   9.852  0.8259 -0.1476  0.1064
35873SOL     OW12748   6.975   5.106   5.935  0.0668 -0.0664  0.1991
35873SOL    HW112749   7.051   5.072   5.982  0.0454 -0.0583  0.2391
35873SOL    HW212750   6.957   5.191   5.976  0.4318  0.2271 -0.2324
35874SOL     OW12751   2.320   9.206   1.297 -0.3579  0.9051  0.1669
35874SOL    HW112752   2.398   9.177   1.345  0.0910  0.0737 -1.0383
35874SOL    HW212753   2.276   9.125   1.271 -0.9561  1.3571 -0.2555
35875SOL     OW12754   8.090   1.187   7.666 -0.1133  0.5439 -0.3399
35875SOL    HW112755   8.078   1.097   7.633 -0.4529  0.5668 -0.2817
35875SOL    HW212756   8.164   1.221   7.615 -0.1111  0.2987 -0.5028
35876SOL     OW12757   0.349   5.198   0.495 -0.1300  0.3427  0.6154
35876SOL    HW112758   0.355   5.172   0.587 -0.3096 -0.4980  0.3894
35876SOL    HW212759   0.329   5.292   0.499  0.7947  0.5160  1.4238
35877SOL     OW12760   3.477   9.527   3.333  0.2878 -0.3029  0.3054
35877SOL    HW112761   3.532   9.449   3.331  0.5960 -0.0827  0.1862
35877SOL    HW212762   3.491   9.569   3.248  1.2280  0.6359  0.8963
35878SOL     OW12763   7.597   4.777   3.820 -0.4235 -0.4215 -0.3867
35878SOL    HW112764   7.533   4.713   3.849  0.1507 -0.4174  0.9201
35878SOL    HW212765   7.590   4.777   3.724 -1.8727 -0.9159 -0.2874
35879SOL     OW12766  10.016  11.112   9.112  0.0100 -0.6481  0.3393
35879SOL    HW112767  10.028  11.174   9.184 -0.1203 -2.0872  1.6212
35879SOL    HW212768  10.093  11.055   9.117 -0.0939 -0.8749 -0.5584
35880SOL     OW12769   2.128   7.643   2.513 -0.1860  0.1703  0.1804
35880SOL    HW112770   2.070   7.568   2.525 -0.9211  0.2690 -2.3883
35880SOL    HW212771   2.141   7.678   2.601 -0.4199 -2.5153  1.3421
35881SOL     OW12772   1.789  10.518   6.275 -0.0561 -0.2023 -0.5108
35881SOL    HW112773   1.725  10.577   6.233  0.3040 -0.1645 -1.0053
35881SOL    HW212774   1.739  10.438   6.293  0.4783 -1.2692 -3.5421
35882SOL     OW12775   0.510   6.858   5.266  0.1977 -0.0779  0.9723
35882SOL    HW112776   0.492   6.870   5.173  0.4405 -1.4432  0.7470
35882SOL    HW212777   0.565   6.933   5.290 -0.0344  0.3809  0.0696
35883SOL     OW12778   9.287   4.746  10.900  0.2812 -0.3528 -0.3292
35883SOL    HW112779   9.308   4.835  10.873 -1.5799 -0.0748 -0.9613
35883SOL    HW212780   9.309   4.743  10.993  0.2166  0.8212 -0.2707
35884SOL     OW12781   1.322   0.782   1.064  0.0884 -0.0200  0.3724
35884SOL    HW112782   1.345   0.701   1.110 -0.1365 -0.3683 -0.1274
35884SOL    HW212783   1.297   0.754   0.976 -0.2794  0.5632  0.2867
35885SOL     OW12784   7.071   7.201   6.080 -0.1107  0.0238  0.0069
35885SOL    HW112785   7.138   7.207   6.148  0.2563  0.4846 -0.3934
35885SOL    HW212786   7.002   7.259   6.111  1.0878  2.1167 -1.1776
35886SOL     OW12787   3.845   5.080  11.006 -0.8276 -0.1224  0.0450
35886SOL    HW112788   3.752   5.060  10.989 -0.3143 -0.9161 -2.0237
35886SOL    HW212789   3.852   5.174  10.991 -1.3158 -0.0529  0.2343
35887SOL     OW12790  11.257   7.337   5.166 -0.3305  0.0283  0.1595
35887SOL    HW112791  11.248   7.363   5.258  0.4300 -1.4204  0.6483
35887SOL    HW212792  11.225   7.413   5.117  0.9508  1.5129  1.5795
35888SOL     OW12793   2.074   4.198   4.996 -0.0483  0.9418 -0.0955
35888SOL    HW112794   2.089   4.139   5.069  0.4026  0.1183 -0.8431
35888SOL    HW212795   2.022   4.269   5.033 -1.5559 -0.4691  0.5700
35889SOL     OW12796   5.677   2.678   5.745 -0.2877 -0.0557  0.1800
35889SOL    HW112797   5.613   2.633   5.690  1.4291 -2.2742 -0.0801
35889SOL    HW212798   5.650   2.656   5.835 -1.3733  1.1631  0.1748
35890SOL     OW12799   3.200   2.814   7.567 -0.4569  0.6029  0.1544
35890SOL    HW112800   3.291   2.825   7.538  0.2952 -1.2715  1.6874
35890SOL    HW212801   3.183   2.892   7.620  0.8080  0.2074  1.1790
35891SOL     OW12802   5.043   6.489   1.012  0.1865 -0.4595  0.5004
35891SOL    HW112803   5.010   6.417   1.066  1.1667 -0.2288  1.4374
35891SOL    HW212804   5.102   6.537   1.070 -1.6495  2.0385  0.3764
35892SOL     OW12805   9.548   0.952   9.777  0.0162  0.0688 -0.2308
35892SOL    HW112806   9.577   0.921   9.691 -0.0197 -0.3307 -0.1001
35892SOL    HW212807   9.618   1.009   9.807 -0.2316  0.6645 -0.7771
35893SOL     OW12808  10.546  10.237   1.821 -0.4095  0.1132  0.6312
35893SOL    HW112809  10.520  10.153   1.785 -0.5318  0.8363 -1.0063
35893SOL    HW212810  10.476  10.259   1.884  0.3109 -1.6009  2.0740
35894SOL     OW12811   6.953   7.622   9.653 -0.1329 -0.2525  1.1934
35894SOL    HW112812   6.911   7.623   9.739  1.5209  0.1873  2.0261
35894SOL    HW212813   7.044   7.596   9.671  0.0709 -0.7815 -0.4995
35895SOL     OW12814   0.287   8.328   6.681 -0.6480  0.2647  0.7997
35895SOL    HW112815   0.339   8.389   6.629  0.8047 -2.3981 -1.0111
35895SOL    HW212816   0.343   8.306   6.755  0.5407 -1.9432 -0.7001
35896SOL     OW12817   3.152   3.284   2.286  0.4037  0.2919  0.0121
35896SOL    HW112818   3.084   3.352   2.285 -0.2119 -0.3250 -0.3453
35896SOL    HW212819   3.106   3.204   2.261  1.1381 -0.2497  0.3917
35897SOL     OW12820   2.267   3.247   5.844  0.4306  0.0651  0.0740
35897SOL    HW112821   2.197   3.297   5.801  0.5867 -0.5766 -0.9350
35897SOL    HW212822   2.312   3.202   5.773  0.7670 -0.9282  0.8993
35898SOL     OW12823   3.186  10.779   8.233 -0.4852 -0.1702  0.1572
35898SOL    HW112824   3.109  10.768   8.287 -1.2792  1.4602 -0.5962
35898SOL    HW212825   3.215  10.869   8.250  1.6487 -0.9865  0.9521
35899SOL     OW12826   2.524   4.221   5.101 -0.4259 -0.0395 -0.5032
35899SOL    HW112827   2.587   4.250   5.036 -1.2981 -0.8281 -1.7312
35899SOL    HW212828   2.571   4.155   5.152  0.1404  0.3111 -0.5668
35900SOL     OW12829   5.433   5.924  11.212 -0.3455 -0.2329  0.4848
35900SOL    HW112830   5.397   5.969  11.289 -1.2546 -2.2447  1.2728
35900SOL    HW212831   5.376   5.848  11.200  1.4930 -1.5085 -0.4406
35901SOL     OW12832   1.762   9.339   5.564  0.3593  0.0113 -0.8613
35901SOL    HW112833   1.734   9.297   5.482 -0.5089  1.3063 -1.2608
35901SOL    HW212834   1.856   9.349   5.555  0.3009 -0.0777 -1.6023
35902SOL     OW12835  10.523   3.015   1.947  0.1302  0.2616 -0.5251
35902SOL    HW112836  10.451   3.058   1.900  1.4806  1.7567 -1.2650
35902SOL    HW212837  10.543   3.074   2.019  0.1448 -0.5101  0.1038
35903SOL     OW12838   6.257   6.333   9.464 -0.3933  0.1801  0.0786
35903SOL    HW112839   6.284   6.404   9.522  0.4943 -1.1611  1.3347
35903SOL    HW212840   6.174   6.303   9.501 -0.1619 -0.2379  0.2544
35904SOL     OW12841   8.067   5.082   6.437  0.3834 -0.1005  0.2693
35904SOL    HW112842   8.037   5.144   6.504 -0.1432 -0.6809  0.5790
35904SOL    HW212843   8.145   5.043   6.474  0.0859 -0.4299  0.5562
35905SOL     OW12844   1.226   6.546   3.098  0.1671  0.1754  0.3163
35905SOL    HW112845   1.225   6.531   3.003  0.4662  1.1364  0.1535
35905SOL    HW212846   1.138   6.578   3.118  0.0737 -0.1218  0.3749
35906SOL     OW12847   1.439   9.492   8.275  0.3257  0.0290 -0.4293
35906SOL    HW112848   1.386   9.485   8.355  0.5894  0.6946 -0.1913
35906SOL    HW212849   1.440   9.404   8.239 -1.4385  0.1119 -0.7401
35907SOL     OW12850   9.049   7.279   5.506  0.2443 -0.2111  0.0199
35907SOL    HW112851   9.102   7.214   5.461 -1.2395 -0.5722 -1.2406
35907SOL    HW212852   8.986   7.227   5.557  0.3785  0.2208  0.6344
35908SOL     OW12853   0.122  10.054   1.259 -0.1265  0.1925  0.1454
35908SOL    HW112854   0.107  10.082   1.349 -2.6756  0.2555 -0.2558
35908SOL    HW212855   0.043  10.080   1.213  1.6300  1.2440 -2.3926
35909SOL     OW12856   9.408   9.980   2.762 -0.6653  0.4123  0.2793
35909SOL    HW112857   9.463  10.055   2.740  1.2859 -1.2790 -0.8803
35909SOL    HW212858   9.354   9.966   2.684 -2.9315  2.1640  1.4732
35910SOL     OW12859   6.403   8.320   9.205 -0.0204 -0.3025  0.0713
35910SOL    HW112860   6.339   8.256   9.174 -0.5269  0.4408 -0.4203
35910SOL    HW212861   6.432   8.285   9.290 -0.7962 -0.8260  0.1221
35911SOL     OW12862   8.760   4.135   8.044 -0.0936 -0.0795 -0.4256
35911SOL    HW112863   8.706   4.137   7.964  1.1212 -0.1354 -1.2567
35911SOL    HW212864   8.838   4.085   8.019  0.3488  0.0018  0.7702
35912SOL     OW12865   0.723   4.469   5.186  0.2777 -0.1139 -0.1945
35912SOL    HW112866   0.640   4.516   5.174  0.5293  0.3781 -0.0185
35912SOL    HW212867   0.745   4.482   5.278  0.3515 -0.5741 -0.1473
35913SOL     OW12868   6.154  10.566   0.597  0.2522 -0.0182 -0.2023
35913SOL    HW112869   6.069  10.564   0.552  0.3771 -0.1114 -0.4342
35913SOL    HW212870   6.208  10.622   0.541  0.0342  0.9017  0.4895
35914SOL     OW12871   2.466   4.674   2.952 -0.0264  0.5049 -0.5671
35914SOL    HW112872   2.400   4.724   3.000 -0.3928 -1.1212  0.6706
35914SOL    HW212873   2.550   4.712   2.979 -0.2971  0.4756  0.3129
35915SOL     OW12874   6.512   6.522   2.074 -0.0478 -0.2744 -0.2202
35915SOL    HW112875   6.549   6.465   2.006  0.4128 -0.6994  0.3801
35915SOL    HW212876   6.497   6.605   2.029  0.5664 -0.4470 -0.7700
35916SOL     OW12877   0.996   9.921   1.753  0.1486  0.9309  0.1581
35916SOL    HW112878   0.936   9.855   1.787 -0.0453  0.3210 -1.3364
35916SOL    HW212879   0.956   9.951   1.671  1.1990  1.4819 -0.1662
35917SOL     OW12880  10.196   1.392   2.647 -0.6199  0.4068 -0.1593
35917SOL    HW112881  10.143   1.471   2.658  0.7296  0.9913  2.7262
35917SOL    HW212882  10.281   1.424   2.618  0.0933  0.0901  1.5401
35918SOL     OW12883   5.665  10.569  10.908  0.0353  0.4188  0.1070
35918SOL    HW112884   5.585  10.550  10.858  0.6933  0.2279 -0.8970
35918SOL    HW212885   5.676  10.493  10.966  1.3883 -1.2824 -2.2538
35919SOL     OW12886   5.037  10.296   5.517 -0.1403  0.2692  0.1167
35919SOL    HW112887   5.008  10.318   5.429  0.6715  1.7760  0.2150
35919SOL    HW212888   5.072  10.207   5.509  2.9176  1.5602 -1.8123
35920SOL     OW12889   8.139   5.761   3.040 -0.5599 -0.0200 -0.1036
35920SOL    HW112890   8.077   5.826   3.006 -1.5058 -0.6393  0.4250
35920SOL    HW212891   8.086   5.683   3.055  0.0978 -0.1792  1.4924
35921SOL     OW12892   1.675  10.915  11.292  0.5014 -0.2565  0.6347
35921SOL    HW112893   1.675  10.832  11.338 -1.2245 -0.2491  0.7036
35921SOL    HW212894   1.745  10.966  11.333  3.9520 -2.8894 -1.7758
35922SOL     OW12895   9.218   6.947   3.926 -0.1735 -0.1214  0.3055
35922SOL    HW112896   9.247   6.920   3.839  0.6847  0.3018  0.4595
35922SOL    HW212897   9.130   6.983   3.911 -1.0215 -2.2842  0.0020
35923SOL     OW12898   0.347   0.635   3.769  0.4124  0.4052  0.0495
35923SOL    HW112899   0.407   0.701   3.735  0.3159  0.3362 -0.2590
35923SOL    HW212900   0.387   0.551   3.746  0.6755  0.3581  0.6944
35924SOL     OW12901  11.047   5.981   5.670  0.1504  0.2403  0.2684
35924SOL    HW112902  11.055   5.964   5.576 -0.0243 -0.4157  0.3653
35924SOL    HW212903  11.036   6.076   5.677 -0.3393  0.2378 -0.4119
35925SOL     OW12904   7.939   4.777   5.392  0.2063  0.4437  0.3116
35925SOL    HW112905   7.993   4.797   5.316 -1.1280 -1.1180 -1.0601
35925SOL    HW212906   7.899   4.861   5.416  1.2928  1.1060 -0.1663
35926SOL     OW12907   3.208   1.402   9.083 -0.4090 -0.1274  0.1166
35926SOL    HW112908   3.188   1.381   8.992 -0.2153 -0.6682  0.1999
35926SOL    HW212909   3.198   1.320   9.130  2.3085 -0.4985  0.1192
35927SOL     OW12910   7.105   2.854   7.689 -0.2923 -0.4953  0.3230
35927SOL    HW112911   7.056   2.810   7.759 -2.5876 -0.3391 -1.1620
35927SOL    HW212912   7.087   2.802   7.611  1.7276 -0.2725 -0.3100
35928SOL     OW12913   6.349   3.088   1.305 -0.0135  0.5005 -0.1128
35928SOL    HW112914   6.441   3.100   1.326  0.0800  0.5066 -0.5379
35928SOL    HW212915   6.331   3.154   1.238  0.0385 -0.4894 -1.1090
35929SOL     OW12916   3.414   7.341   1.421  0.2271  0.0192  0.2538
35929SOL    HW112917   3.487   7.295   1.463  1.0062  0.0020 -1.1060
35929SOL    HW212918   3.393   7.288   1.344 -2.4424 -0.9807  1.5891
35930SOL     OW12919   0.732   3.559   3.823  0.0578  0.0946  0.3011
35930SOL    HW112920   0.784   3.556   3.903 -0.5399  0.7302  0.7281
35930SOL    HW212921   0.771   3.630   3.772  0.6838 -0.5724 -0.1431
35931SOL     OW12922   3.641   3.167  10.515  0.0823  0.1427  0.6934
35931SOL    HW112923   3.691   3.154  10.435  0.2781  0.3908  0.7734
35931SOL    HW212924   3.620   3.079  10.545 -0.9337  0.0678 -0.2234
35932SOL     OW12925   8.983  11.290   3.786  0.5480 -0.7857  0.1292
35932SOL    HW112926   9.053  11.252   3.839  3.0521  2.2983 -0.7792
35932SOL    HW212927   8.961  11.373   3.829 -2.5151 -1.6402  0.3273
35933SOL     OW12928   4.170   8.321   2.064  0.1470  0.5369 -0.1915
35933SOL    HW112929   4.230   8.292   2.133 -0.7243  0.4509  0.5301
35933SOL    HW212930   4.093   8.353   2.111 -0.9132 -0.5667 -1.1579
35934SOL     OW12931  11.073   1.639   8.639  0.2381  0.1979  0.0615
35934SOL    HW112932  11.034   1.633   8.726  1.8952  1.3456  0.8968
35934SOL    HW212933  11.162   1.606   8.649  1.0846  2.1567 -0.7413
35935SOL     OW12934   3.904   2.275   8.400  0.2674 -0.0607 -0.2408
35935SOL    HW112935   3.838   2.344   8.402  0.4456  0.1093 -0.1781
35935SOL    HW212936   3.862   2.200   8.442 -0.3683 -0.3828 -1.4278
35936SOL     OW12937   0.786   6.189   8.846 -0.4351 -0.3971  0.6702
35936SOL    HW112938   0.693   6.192   8.870 -0.4945 -1.8530  0.6775
35936SOL    HW212939   0.829   6.245   8.910 -1.1240 -0.9695  1.6602
35937SOL     OW12940   9.942   4.337   4.026  0.2671  0.2419  0.0551
35937SOL    HW112941   9.984   4.401   4.083  1.4384  0.0827 -0.5918
35937SOL    HW212942   9.860   4.315   4.069 -0.6562  2.9574 -0.2204
35938SOL     OW12943   7.400   7.409   2.317  0.4678 -0.0771 -0.0594
35938SOL    HW112944   7.319   7.461   2.321  1.1474  1.0636 -1.0140
35938SOL    HW212945   7.442   7.436   2.236  2.1655 -0.1548  0.7863
35939SOL     OW12946   6.618   6.202   2.825 -0.3127  0.2225 -0.4546
35939SOL    HW112947   6.677   6.191   2.900 -3.0282  1.4677  1.9594
35939SOL    HW212948   6.613   6.115   2.786  1.8862 -0.2489  0.2251
35940SOL     OW12949   8.316  10.792  10.881  0.5001 -0.0210  0.6414
35940SOL    HW112950   8.275  10.714  10.846 -0.5451  0.1970  1.3393
35940SOL    HW212951   8.404  10.764  10.907  0.3171 -0.8274  0.3996
35941SOL     OW12952   9.469   6.981   6.801  0.1676  0.2512  0.2268
35941SOL    HW112953   9.378   6.969   6.772 -0.5054  0.0122  2.3277
35941SOL    HW212954   9.520   6.926   6.743 -0.9359  0.9550 -1.4704
35942SOL     OW12955   2.570   8.119   2.507  0.2204  0.4726 -0.1870
35942SOL    HW112956   2.490   8.121   2.560  0.5958  2.3195  0.3719
35942SOL    HW212957   2.579   8.209   2.476  2.1238  0.2961 -0.1768
35943SOL     OW12958   9.458   8.595   7.091  0.6284 -0.1994 -0.1310
35943SOL    HW112959   9.381   8.574   7.037  0.5726  0.1358 -0.1874
35943SOL    HW212960   9.430   8.671   7.143  0.7947 -0.3151  0.1243
35944SOL     OW12961   1.177  10.526  10.251  0.4140  0.6658 -1.1638
35944SOL    HW112962   1.118  10.562  10.317  0.3206  0.3571 -1.0773
35944SOL    HW212963   1.221  10.453  10.295  1.9410  1.8089 -0.7822
35945SOL     OW12964   3.603   0.244   8.041  0.5503 -0.4631 -0.6106
35945SOL    HW112965   3.543   0.315   8.018 -0.1801 -0.9897 -0.3331
35945SOL    HW212966   3.601   0.186   7.965  2.6681  0.7955 -1.6959
35946SOL     OW12967   1.554   8.827   0.483  0.7312  0.0844  0.1058
35946SOL    HW112968   1.533   8.917   0.509  1.7125 -0.0841  1.5039
35946SOL    HW212969   1.643   8.832   0.448  0.3855 -0.1593 -0.8237
35947SOL     OW12970   1.396   1.196   7.778 -0.4003 -0.0615  0.4220
35947SOL    HW112971   1.357   1.276   7.744  1.4132  0.7195  0.0987
35947SOL    HW212972   1.447   1.161   7.704 -3.1668 -2.8789 -0.2442
35948SOL     OW12973   0.698   7.626   6.738  0.4150  0.5459  0.1174
35948SOL    HW112974   0.768   7.565   6.761  1.0671  0.1401 -2.7818
35948SOL    HW212975   0.730   7.673   6.662 -1.1874  2.6578  0.6874
35949SOL     OW12976   9.910   0.475   1.438 -0.3154  0.3863 -0.2012
35949SOL    HW112977   9.886   0.556   1.481 -0.3302  0.3052 -0.0572
35949SOL    HW212978  10.005   0.479   1.428 -0.3024  0.3647 -0.0814
35950SOL     OW12979   3.578   8.829   0.194  0.4074  0.2236 -0.0027
35950SOL    HW112980   3.641   8.795   0.257  0.0012  1.5058  1.1269
35950SOL    HW212981   3.602   8.921   0.183 -0.1539  0.2635 -0.9535
35951SOL     OW12982  10.479   9.673   0.858  0.2268 -0.3473  0.5099
35951SOL    HW112983  10.569   9.661   0.889  0.5922 -1.5611 -0.9558
35951SOL    HW212984  10.487   9.719   0.775 -0.3333 -2.5141 -0.7835
35952SOL     OW12985   8.959   5.171   9.660  0.2505  0.1244 -0.8571
35952SOL    HW112986   8.972   5.076   9.660  0.4267  0.0925 -3.7026
35952SOL    HW212987   8.874   5.184   9.701 -0.2374 -1.3387 -1.3682
35953SOL     OW12988   8.845   3.623   0.518  0.2286 -0.1500 -0.3198
35953SOL    HW112989   8.812   3.698   0.469 -2.5577 -1.0042  0.1530
35953SOL    HW212990   8.931   3.651   0.550 -0.0620  2.2293 -1.4932
35954SOL     OW12991   2.115   4.039   6.072  0.1963  0.4519  0.4536
35954SOL    HW112992   2.098   4.023   5.980  1.0003 -1.0740  0.5476
35954SOL    HW212993   2.030   4.029   6.115 -0.0200  0.2573 -0.0203
35955SOL     OW12994   6.125  10.149   3.916  0.4050  0.0850  0.0713
35955SOL    HW112995   6.119  10.244   3.928 -1.9356 -0.1932  1.3174
35955SOL    HW212996   6.134  10.115   4.005  0.1475 -0.9402 -0.2942
35956SOL     OW12997   8.296   7.282   8.579  0.8754  0.2228  0.0067
35956SOL    HW112998   8.342   7.294   8.496  1.1318  0.7438  0.2195
35956SOL    HW212999   8.293   7.187   8.592  1.0630  0.1505 -0.4668
35957SOL     OW13000   2.405   3.201   5.140 -0.2168  0.2472 -0.5308
35957SOL    HW113001   2.452   3.132   5.186  0.2269  1.2764  0.5842
35957SOL    HW213002   2.473   3.249   5.092 -0.2096  1.2710  0.4800
35958SOL     OW13003   1.463   9.232   3.722  0.0266 -0.3957 -0.6410
35958SOL    HW113004   1.401   9.266   3.787 -0.6782 -1.8018 -0.5770
35958SOL    HW213005   1.530   9.300   3.716  0.1916 -0.3162  1.6764
35959SOL     OW13006   8.384   5.243   3.757  0.8205 -0.0397 -0.0608
35959SOL    HW113007   8.326   5.317   3.771 -0.6056 -1.0389 -0.5683
35959SOL    HW213008   8.450   5.250   3.826  0.7817  1.7484 -0.1778
35960SOL     OW13009  10.176   5.488  10.337 -0.1457 -0.5574  0.5677
35960SOL    HW113010  10.247   5.427  10.361  0.6540  0.1174 -0.0289
35960SOL    HW213011  10.097   5.449  10.374  1.0460  0.5211  4.4602
35961SOL     OW13012  10.125   5.858   9.319  0.5746 -0.5101  0.0095
35961SOL    HW113013  10.075   5.921   9.266 -1.2278 -1.3521  0.6416
35961SOL    HW213014  10.159   5.910   9.392  2.7938  0.5888 -1.7441
35962SOL     OW13015   5.204   0.345   5.355 -0.1532 -0.1790  0.3863
35962SOL    HW113016   5.161   0.261   5.371 -1.7701  0.3598 -1.0057
35962SOL    HW213017   5.214   0.384   5.442 -2.5514 -0.2954  0.7476
35963SOL     OW13018   2.497   3.306   1.973  0.3387  0.2034 -0.1173
35963SOL    HW113019   2.520   3.285   1.882  1.2015  1.0518 -0.0994
35963SOL    HW213020   2.496   3.402   1.976 -0.0071  0.1779  0.6914
35964SOL     OW13021   9.358   2.337  10.421  0.0244  0.7023 -0.7509
35964SOL    HW113022   9.314   2.368  10.342 -0.9160  1.6737  0.1320
35964SOL    HW213023   9.308   2.376  10.493 -0.6939 -2.2009  0.4077
35965SOL     OW13024   4.235   3.045   7.794 -0.0332  0.6035  0.0645
35965SOL    HW113025   4.308   3.094   7.756  0.3432 -1.0851 -1.4505
35965SOL    HW213026   4.179   3.023   7.720 -0.4303 -0.8595  0.7718
35966SOL     OW13027   4.275  10.881   4.298 -0.5331 -0.1923 -0.5841
35966SOL    HW113028   4.326  10.917   4.371 -1.7441 -1.4450  0.9349
35966SOL    HW213029   4.310  10.793   4.285 -0.4145 -0.0232 -1.4417
35967SOL     OW13030   1.630   6.007   0.804  0.2693 -0.3246  0.2107
35967SOL    HW113031   1.552   5.952   0.795 -0.8007  1.2694 -0.6591
35967SOL    HW213032   1.658   6.024   0.714  0.4502  0.7040  0.4495
35968SOL     OW13033   5.709   6.149   1.515  0.5866  0.7305 -0.5891
35968SOL    HW113034   5.651   6.143   1.592  0.6833  1.1359 -0.4874
35968SOL    HW213035   5.672   6.086   1.453 -0.2072  1.2791 -0.6825
35969SOL     OW13036  10.717  10.165   1.113 -0.1880  0.2585 -0.0191
35969SOL    HW113037  10.683  10.199   1.030 -0.4197 -1.5673 -0.6880
35969SOL    HW213038  10.641  10.126   1.155  0.2210 -0.0659  0.4159
35970SOL     OW13039   0.053   5.665   8.991  0.0728 -0.4723  0.5135
35970SOL    HW113040   0.027   5.693   9.078  1.2833  2.3659  0.0270
35970SOL    HW213041  -0.028   5.669   8.939 -0.1340  0.4148  0.8971
35971SOL     OW13042   6.646   2.856   8.296 -0.8472  0.6318  0.6167
35971SOL    HW113043   6.594   2.926   8.337 -1.1372  0.4123  0.6269
35971SOL    HW213044   6.666   2.890   8.209 -0.6397  0.8986  0.7670
35972SOL     OW13045   7.188  10.824   3.087 -0.4477  0.3113 -0.1402
35972SOL    HW113046   7.163  10.853   3.175 -2.4203 -1.0344 -0.2126
35972SOL    HW213047   7.283  10.817   3.090 -0.5342 -0.3760  2.1106
35973SOL     OW13048   8.239   7.762   9.721  0.0062  0.1172  0.3771
35973SOL    HW113049   8.313   7.779   9.663 -0.3352 -1.3820 -0.5229
35973SOL    HW213050   8.268   7.792   9.807  1.4970 -0.0658 -0.0538
35974SOL     OW13051   3.234  10.622   2.671  0.1569 -0.0417 -0.0749
35974SOL    HW113052   3.194  10.543   2.706  0.5895  0.0569  0.6356
35974SOL    HW213053   3.192  10.694   2.719  2.2986 -0.0025  1.8180
35975SOL     OW13054   3.660   1.296   2.524  0.0031 -0.7857  0.1348
35975SOL    HW113055   3.576   1.283   2.568 -0.4851  0.9831 -0.2423
35975SOL    HW213056   3.642   1.278   2.431  0.4526 -2.0568  0.2768
35976SOL     OW13057   0.006  11.073  10.152 -0.1605 -0.1501  0.5860
35976SOL    HW113058  -0.088  11.059  10.136 -0.2198 -0.7912  1.4496
35976SOL    HW213059   0.024  11.024  10.232  0.3784  2.0483  1.8288
35977SOL     OW13060   0.718   3.387   2.890  0.2880 -0.1500  0.1271
35977SOL    HW113061   0.806   3.363   2.862 -0.2038 -0.4044 -1.2515
35977SOL    HW213062   0.726   3.407   2.983  1.7112 -0.5943  0.0983
35978SOL     OW13063  10.766   0.408   4.871 -0.2882  0.1742 -0.1492
35978SOL    HW113064  10.785   0.500   4.855  1.0236  0.1176  1.0504
35978SOL    HW213065  10.738   0.374   4.786  3.1466  0.7121 -1.5612
35979SOL     OW13066   9.263   8.735   5.647 -0.4751  0.2598  0.2835
35979SOL    HW113067   9.281   8.815   5.697  1.1458  0.3801 -0.4555
35979SOL    HW213068   9.344   8.718   5.600 -1.0923 -1.3692 -0.2135
35980SOL     OW13069  10.031   6.956  10.085 -0.0177  0.4184 -0.1375
35980SOL    HW113070  10.062   7.041  10.055  0.3894  0.4260  0.2922
35980SOL    HW213071   9.936   6.961  10.080 -0.0163  1.1007  0.4269
35981SOL     OW13072   6.711   0.300   5.652  0.4036 -0.1261  0.2433
35981SOL    HW113073   6.758   0.310   5.735 -0.9033  1.9066  0.7921
35981SOL    HW213074   6.715   0.388   5.613 -1.1458 -0.4562 -0.6696
35982SOL     OW13075   0.126   4.319   7.809 -0.1091 -0.6662 -0.0383
35982SOL    HW113076   0.079   4.235   7.811 -0.9105 -0.3093 -2.1272
35982SOL    HW213077   0.201   4.303   7.752  1.7917 -0.9298  2.4304
35983SOL     OW13078   5.364   8.351   5.250 -0.3588 -0.1649 -0.0495
35983SOL    HW113079   5.422   8.327   5.178  0.3244  0.7466  0.1955
35983SOL    HW213080   5.284   8.380   5.208 -0.0650  0.0916 -0.4394
35984SOL     OW13081   5.294  10.417   4.317  0.2364 -0.4857  0.7103
35984SOL    HW113082   5.216  10.406   4.264  1.2828 -0.7532 -0.8151
35984SOL    HW213083   5.366  10.417   4.254  1.2370  2.8863  1.7606
35985SOL     OW13084   4.663   6.366   4.556 -0.0083  0.8791  0.1793
35985SOL    HW113085   4.700   6.441   4.602 -0.9984  2.0329 -0.8636
35985SOL    HW213086   4.587   6.340   4.609  1.1800 -0.3101  1.3155
35986SOL     OW13087  10.001   6.617   4.421  0.0761  0.5660  0.1381
35986SOL    HW113088  10.081   6.564   4.421 -1.5756 -2.0484 -1.2797
35986SOL    HW213089  10.023   6.694   4.369  2.5360  1.3514  2.2179
35987SOL     OW13090   7.740   9.500   0.246  0.0883 -0.2513  0.0703
35987SOL    HW113091   7.687   9.454   0.180 -0.9667 -0.3645  0.9858
35987SOL    HW213092   7.818   9.528   0.198  0.4843 -2.4783 -0.6649
35988SOL     OW13093   5.608   1.886   6.936  0.5154 -0.2890 -0.0652
35988SOL    HW113094   5.607   1.970   6.890 -0.5765  0.2680  0.9286
35988SOL    HW213095   5.522   1.882   6.979  0.2509 -2.2625 -0.7052
35989SOL     OW13096   6.942   5.584   0.022  0.3092  0.0581  0.1285
35989SOL    HW113097   6.903   5.604   0.106  1.4343 -1.8756  1.1623
35989SOL    HW213098   6.883   5.622  -0.043 -1.7652 -0.3726  1.7240
35990SOL     OW13099   6.248  10.237   5.080  0.2539 -0.9950 -0.4678
35990SOL    HW113100   6.210  10.150   5.070  1.0794 -1.3986 -0.1288
35990SOL    HW213101   6.317  10.240   5.013 -0.2291 -0.3410 -0.9444
35991SOL     OW13102   3.745   7.956   8.954  0.1335 -0.2911  0.0456
35991SOL    HW113103   3.784   8.043   8.955  1.7227 -0.9941  1.1523
35991SOL    HW213104   3.765   7.919   9.040 -1.5783 -1.3064  0.0442
35992SOL     OW13105   9.291   6.509   3.242  0.9693 -0.2318  0.1570
35992SOL    HW113106   9.228   6.439   3.226  0.3527 -0.4136  3.1532
35992SOL    HW213107   9.251   6.587   3.203 -1.6639 -0.1335  2.8735
35993SOL     OW13108  11.167   4.925   2.395 -0.0933 -0.1367 -0.2746
35993SOL    HW113109  11.135   5.006   2.434 -3.0497 -0.9774 -0.8068
35993SOL    HW213110  11.124   4.921   2.309  1.5362 -1.3100 -1.0640
35994SOL     OW13111   2.301   2.663   7.917 -0.9340 -0.4865  0.4189
35994SOL    HW113112   2.214   2.702   7.905 -0.9091 -0.4901  0.2128
35994SOL    HW213113   2.286   2.569   7.905 -0.6405 -0.3477 -1.1707
35995SOL     OW13114   8.278  11.088   8.096  0.0463 -0.0869  0.5118
35995SOL    HW113115   8.194  11.087   8.141  0.3209 -0.2897  1.0194
35995SOL    HW213116   8.309  10.998   8.101  0.5642  0.1096  0.8209
35996SOL     OW13117   6.943   1.248   5.465  0.0193 -0.0537 -0.0242
35996SOL    HW113118   6.911   1.336   5.448  0.9466  0.3259  0.1186
35996SOL    HW213119   6.882   1.211   5.529 -0.7219  0.2620 -0.5560
35997SOL     OW13120   3.097   5.780  10.701 -0.1338 -1.0116  0.0942
35997SOL    HW113121   3.152   5.749  10.629 -0.1171 -2.2824  0.6374
35997SOL    HW213122   3.141   5.747  10.780 -1.4498 -1.7111  0.5534
35998SOL     OW13123   1.882   9.731   7.938 -0.1503  0.1493  0.3194
35998SOL    HW113124   1.949   9.766   7.997 -0.6099  1.3749  0.1427
35998SOL    HW213125   1.799   9.752   7.982 -0.4262 -1.0821  0.3913
35999SOL     OW13126   1.343   8.265  10.368  0.1638 -0.0028  0.7791
35999SOL    HW113127   1.427   8.223  10.349  0.6591  1.1515  0.3291
35999SOL    HW213128   1.330   8.326  10.295  0.6555  2.3732  2.6231
36000SOL     OW13129   4.965   8.777   3.520 -0.0384  0.2974  0.3011
36000SOL    HW113130   4.898   8.810   3.580 -0.5899 -0.4000  0.0846
36000SOL    HW213131   5.048   8.793   3.565 -0.4071  0.3862  0.9604
36001SOL     OW13132   4.050   1.148   2.948  0.1368  0.2545  0.0469
36001SOL    HW113133   4.023   1.059   2.970  0.3703  0.1615 -0.0316
36001SOL    HW213134   4.097   1.138   2.865 -3.0117  0.9618 -1.9054
36002SOL     OW13135   3.358   7.029   4.366  0.2105 -0.0407  0.3913
36002SOL    HW113136   3.345   7.099   4.301 -1.9463  1.5358  2.4189
36002SOL    HW213137   3.398   7.074   4.441  0.5745 -1.3864  1.0116
36003SOL     OW13138   2.952   6.234   6.042  0.2824  0.5018  0.2517
36003SOL    HW113139   2.904   6.202   5.966 -2.3980  2.1387  1.1769
36003SOL    HW213140   3.021   6.290   6.006 -0.3592  0.4851 -1.0098
36004SOL     OW13141  11.206  11.229   0.515  0.0827 -0.5232 -0.3944
36004SOL    HW113142  11.226  11.261   0.603  2.2165 -2.7657 -0.0101
36004SOL    HW213143  11.247  11.292   0.456  0.4637 -0.1597  0.2534
36005SOL     OW13144   4.168   5.621   1.462  0.1813 -0.1474  0.3709
36005SOL    HW113145   4.140   5.533   1.437  0.9364 -0.3968  0.3884
36005SOL    HW213146   4.172   5.618   1.558  1.5613 -0.5198  0.3106
36006SOL     OW13147  10.687   9.270  10.775 -0.0741  0.3025 -0.3682
36006SOL    HW113148  10.751   9.329  10.734  0.1849  0.0590 -0.3070
36006SOL    HW213149  10.738   9.219  10.837 -0.3815  0.3074 -0.1147
36007SOL     OW13150   1.278   9.675   7.469  0.8320  0.0169 -0.0044
36007SOL    HW113151   1.290   9.718   7.385  0.4422  0.2629  0.0650
36007SOL    HW213152   1.318   9.734   7.533 -0.0674  0.4732  0.1381
36008SOL     OW13153   7.191   4.740   6.637 -0.5022  0.0865  0.4111
36008SOL    HW113154   7.120   4.798   6.665 -0.0822  0.4769  0.6600
36008SOL    HW213155   7.148   4.655   6.624 -1.1796  0.5418 -0.3411
36009SOL     OW13156   4.373   6.576   9.838  0.5624 -0.1659 -0.3176
36009SOL    HW113157   4.315   6.635   9.886  0.8565 -0.1065 -0.0328
36009SOL    HW213158   4.321   6.496   9.825  0.1332  0.1817 -0.7770
36010SOL     OW13159   3.433   3.504   8.535  0.4176  0.3037  0.2725
36010SOL    HW113160   3.412   3.470   8.448 -2.4986 -0.1113  1.1090
36010SOL    HW213161   3.476   3.431   8.579  2.2516  0.6302 -0.8933
36011SOL     OW13162   8.740   0.669   4.705  0.3419  0.0344  0.1758
36011SOL    HW113163   8.750   0.601   4.772  2.7776 -0.0896 -0.2640
36011SOL    HW213164   8.797   0.640   4.633 -1.1635  0.8710 -1.3962
36012SOL     OW13165   4.428   5.889   1.377 -0.4392 -0.3979 -0.5819
36012SOL    HW113166   4.390   5.941   1.449 -1.0173 -0.0693 -1.1185
36012SOL    HW213167   4.446   5.954   1.309 -1.6955 -0.9688 -1.4845
36013SOL     OW13168  10.670   0.857   7.890  0.3186  0.3781 -0.4977
36013SOL    HW113169  10.648   0.905   7.810  1.1483 -0.5350 -1.2894
36013SOL    HW213170  10.627   0.772   7.880 -1.5958  1.1215  1.1421
36014SOL     OW13171   3.609   7.308   4.309  0.1770  0.0800 -0.7854
36014SOL    HW113172   3.702   7.329   4.321  0.0036  0.2676  0.3000
36014SOL    HW213173   3.588   7.252   4.383 -0.6523  0.2845 -0.8705
36015SOL     OW13174   5.416   2.245   9.165 -0.1924  0.1564  0.4089
36015SOL    HW113175   5.505   2.214   9.180 -0.0382  0.9108  1.0570
36015SOL    HW213176   5.368   2.221   9.244 -0.4987  0.0035  0.1778
36016SOL     OW13177   4.244   1.175   3.588  0.1203 -0.0245  0.6767
36016SOL    HW113178   4.227   1.160   3.681  0.5258 -3.2517  0.2594
36016SOL    HW213179   4.331   1.215   3.585 -0.5603  1.6036  1.7432
36017SOL     OW13180   0.498   0.324  10.470  1.0305 -0.0631 -0.1642
36017SOL    HW113181   0.435   0.358  10.534  0.3438 -0.6678 -0.5015
36017SOL    HW213182   0.561   0.274  10.522  0.0948 -1.1177 -0.0005
36018SOL     OW13183   3.295   9.303   9.038  0.1363 -0.0607  0.1031
36018SOL    HW113184   3.373   9.249   9.047 -0.7288 -1.3503  0.0064
36018SOL    HW213185   3.223   9.240   9.029 -0.8002  1.1127 -0.7467
36019SOL     OW13186   8.344   2.566   0.268 -0.4481 -0.1842  0.1651
36019SOL    HW113187   8.334   2.524   0.183  0.1946  1.1352 -0.5738
36019SOL    HW213188   8.433   2.544   0.296 -0.2960  0.2513  0.0194
36020SOL     OW13189   9.817   3.967   4.034  0.4256 -0.2082 -0.6881
36020SOL    HW113190   9.760   3.894   4.007 -0.2329  0.5852 -1.4814
36020SOL    HW213191   9.824   3.957   4.129 -0.0518 -1.0305 -0.7272
36021SOL     OW13192   2.407   8.726   8.853  0.5167 -0.0305 -0.3423
36021SOL    HW113193   2.399   8.819   8.836 -1.3646 -0.0312  0.4082
36021SOL    HW213194   2.471   8.720   8.924  0.4712  0.7224 -0.2349
36022SOL     OW13195   4.704   2.513   0.699 -0.1806 -0.2208 -0.8250
36022SOL    HW113196   4.639   2.578   0.725 -0.3145 -0.1013 -1.4490
36022SOL    HW213197   4.767   2.513   0.771 -1.0930 -0.6546 -0.0110
36023SOL     OW13198   9.026  11.034   4.195 -0.1076 -0.1432 -0.0015
36023SOL    HW113199   8.962  11.092   4.235 -1.2919  0.6711 -2.9087
36023SOL    HW213200   9.106  11.087   4.191  0.2682 -0.5354  2.0128
36024SOL     OW13201   5.695   9.908  11.060 -0.1775  0.0432  0.5300
36024SOL    HW113202   5.677   9.815  11.042  0.1474 -0.0968  0.9373
36024SOL    HW213203   5.731   9.909  11.148 -1.2068  0.6752  0.9473
36025SOL     OW13204  10.894   4.066  10.897 -0.3166  0.3992  0.2512
36025SOL    HW113205  10.913   4.150  10.857 -0.3272 -0.3988 -1.4466
36025SOL    HW213206  10.889   4.004  10.824 -0.3570 -1.0703  1.4635
36026SOL     OW13207   6.401   2.951   0.650  0.1509  0.6644 -0.8350
36026SOL    HW113208   6.440   2.964   0.563 -0.4304  0.5993 -1.1145
36026SOL    HW213209   6.390   2.856   0.658 -0.1173  0.6933 -0.8408
36027SOL     OW13210  10.572   5.266   4.443 -0.5764 -0.1844 -0.2904
36027SOL    HW113211  10.595   5.234   4.356  0.5211 -1.7600  0.5419
36027SOL    HW213212  10.493   5.319   4.429 -0.3918 -0.3777 -2.2349
36028SOL     OW13213   5.155   1.405   4.064 -0.0733  0.6026 -0.4533
36028SOL    HW113214   5.236   1.436   4.023 -0.2062  0.7086 -0.6318
36028SOL    HW213215   5.185   1.362   4.145  0.4098 -1.5870 -1.7498
36029SOL     OW13216  10.772   8.409   4.590 -0.2022 -0.0187 -0.5197
36029SOL    HW113217  10.709   8.391   4.659  0.9529 -1.3934  0.1916
36029SOL    HW213218  10.718   8.416   4.510 -1.1820 -2.0003 -0.0685
36030SOL     OW13219   2.704   1.261   3.654 -0.0641  0.5466  0.3457
36030SOL    HW113220   2.740   1.288   3.739  0.9338  1.7208 -0.4273
36030SOL    HW213221   2.623   1.311   3.646 -1.1071 -0.9337  1.3993
36031SOL     OW13222   1.618   5.367   1.806 -0.5281  0.1831 -0.0119
36031SOL    HW113223   1.543   5.345   1.861  0.6244 -0.0036  1.5118
36031SOL    HW213224   1.655   5.282   1.781  1.1904  0.2733  2.0815
36032SOL     OW13225   2.928   3.690   5.162  0.1623 -0.2004 -0.1063
36032SOL    HW113226   2.957   3.671   5.073 -0.5212 -0.0287 -0.3709
36032SOL    HW213227   3.005   3.726   5.206  0.3048  0.3789 -0.8321
36033SOL     OW13228   4.116   0.961   7.530  0.4288 -0.4864 -0.2446
36033SOL    HW113229   4.203   0.963   7.568  0.6048 -0.7659 -0.6293
36033SOL    HW213230   4.078   1.046   7.551  1.0106 -0.1423 -0.5752
36034SOL     OW13231   9.121  11.242   2.766  0.9489  0.5527 -0.3655
36034SOL    HW113232   9.080  11.325   2.742 -0.0913  0.4755  1.0744
36034SOL    HW213233   9.076  11.177   2.711  0.8740  0.7763 -0.5735
36035SOL     OW13234   8.699   4.858   8.135  0.1397 -0.2801 -0.2731
36035SOL    HW113235   8.786   4.894   8.145 -0.1221  0.1965  0.3052
36035SOL    HW213236   8.699   4.778   8.188  0.3722 -0.5403 -0.6624
36036SOL     OW13237   4.854   5.898   4.296 -0.2471  0.3680 -0.2116
36036SOL    HW113238   4.918   5.943   4.350  0.4079  1.4847 -1.8802
36036SOL    HW213239   4.847   5.811   4.335 -0.7989  1.5503  2.4568
36037SOL     OW13240  10.957   7.715   4.004 -0.0716  0.1637 -0.1632
36037SOL    HW113241  10.872   7.754   3.984 -0.8474 -0.1120  2.4152
36037SOL    HW213242  10.989   7.765   4.079  1.6488 -0.3465 -0.5331
36038SOL     OW13243   8.686  11.081   1.835 -0.2738  0.4955  0.6753
36038SOL    HW113244   8.762  11.040   1.875 -0.7968 -0.4744  0.7028
36038SOL    HW213245   8.691  11.055   1.743 -1.0068 -0.2674  0.8407
36039SOL     OW13246   1.550   2.695   9.589  0.1587  0.1644  0.0202
36039SOL    HW113247   1.499   2.774   9.571 -0.3874  0.1235  1.3448
36039SOL    HW213248   1.568   2.699   9.683 -1.0321 -1.9708  0.3689
36040SOL     OW13249   7.483   3.595   9.776  0.8217 -0.6602  0.6419
36040SOL    HW113250   7.408   3.573   9.831  1.2275 -1.5240  0.8486
36040SOL    HW213251   7.494   3.520   9.717  1.1759 -0.2975  0.2370
36041SOL     OW13252   0.467   0.189   1.553 -0.3090  0.0551  0.2791
36041SOL    HW113253   0.526   0.218   1.483 -0.4713  0.1274  0.1717
36041SOL    HW213254   0.441   0.100   1.529 -1.4308  0.5720 -0.4524
36042SOL     OW13255   2.106   9.707   0.727 -0.3189 -0.1393  0.2511
36042SOL    HW113256   2.063   9.784   0.763  1.0084  0.7795 -0.0867
36042SOL    HW213257   2.051   9.681   0.653 -2.4998 -1.4292  2.2832
36043SOL     OW13258   0.848   1.177   4.452  0.0276 -0.1782 -0.0286
36043SOL    HW113259   0.795   1.182   4.372  0.5787 -0.3822 -0.4133
36043SOL    HW213260   0.788   1.198   4.523 -0.7210 -1.0297 -0.4041
36044SOL     OW13261   2.873   3.247   0.589 -0.2917  0.1983 -0.1166
36044SOL    HW113262   2.831   3.163   0.571 -2.0775  1.1655 -0.6318
36044SOL    HW213263   2.832   3.277   0.670  0.8557  0.2350  0.4502
36045SOL     OW13264   3.998   5.588   5.873  0.2296  0.0722 -0.4475
36045SOL    HW113265   3.963   5.677   5.868  1.0036  0.3741 -0.5342
36045SOL    HW213266   3.938   5.535   5.821 -0.4048  0.4937 -0.1429
36046SOL     OW13267   6.979   4.596  10.875  0.1216  0.1758  0.3699
36046SOL    HW113268   7.073   4.588  10.888 -0.0174 -1.2348  0.6211
36046SOL    HW213269   6.966   4.589  10.781  0.4355  2.4955  0.1191
36047SOL     OW13270   8.456   9.907   0.424 -0.1271  0.1452  1.0727
36047SOL    HW113271   8.424   9.966   0.355  1.3719  1.1525  1.2228
36047SOL    HW213272   8.406   9.933   0.501  1.2389  1.9467  1.3859
36048SOL     OW13273   4.855   8.076   0.184 -0.0552 -0.2331  0.2188
36048SOL    HW113274   4.828   8.105   0.271  0.7228 -1.4822  0.8936
36048SOL    HW213275   4.938   8.121   0.168  0.1342 -0.5140  0.4062
36049SOL     OW13276   1.662  11.105   3.234 -0.1454 -0.3257 -0.8119
36049SOL    HW113277   1.755  11.085   3.231 -0.1170 -0.3376  0.0469
36049SOL    HW213278   1.649  11.171   3.165  0.2086 -1.4547 -1.9784
36050SOL     OW13279   2.421   7.040   8.315  0.4269  0.1303  0.1192
36050SOL    HW113280   2.488   7.075   8.257  0.7072 -1.5096 -0.5561
36050SOL    HW213281   2.383   6.967   8.267  0.0040 -0.6425  1.6065
36051SOL     OW13282   2.355   9.604   8.315  0.0866  0.1792  0.0475
36051SOL    HW113283   2.306   9.525   8.290 -1.7290  1.5510 -0.8327
36051SOL    HW213284   2.297   9.648   8.377  1.5290  0.3439  1.3114
36052SOL     OW13285   7.804   3.861   6.315  0.2308  0.5031  0.2593
36052SOL    HW113286   7.755   3.895   6.241  2.8236 -1.5320 -2.4861
36052SOL    HW213287   7.892   3.900   6.306  1.5067 -2.2351  0.4021
36053SOL     OW13288   2.788   6.833   5.429  0.2699 -0.4045 -0.7759
36053SOL    HW113289   2.881   6.846   5.413  0.2623 -0.3603 -0.7827
36053SOL    HW213290   2.784   6.753   5.482  0.2608 -0.8241 -1.4041
36054SOL     OW13291   4.787   4.577   2.852 -0.3690  0.5396 -0.0867
36054SOL    HW113292   4.857   4.512   2.862 -1.1014 -0.4944 -1.3596
36054SOL    HW213293   4.789   4.628   2.932  0.8568 -0.4514  0.5321
36055SOL     OW13294   4.141   4.780   5.599  0.1289 -0.5786 -0.4256
36055SOL    HW113295   4.084   4.728   5.656  1.1656 -0.3818  0.8270
36055SOL    HW213296   4.223   4.731   5.597  0.1401 -0.5239 -1.6953
36056SOL     OW13297   8.170   8.525   3.974  0.0628  0.1901 -0.4466
36056SOL    HW113298   8.190   8.441   3.934  1.4397  0.2585  0.0885
36056SOL    HW213299   8.176   8.588   3.902  0.8197  0.0809 -0.4750
36057SOL     OW13300   7.456   3.107  10.444 -0.2963  0.0011  0.7276
36057SOL    HW113301   7.496   3.193  10.428 -0.6318  0.0803  0.3051
36057SOL    HW213302   7.529   3.052  10.472  0.4080 -0.2368 -1.4694
36058SOL     OW13303   5.567   9.214  10.146  0.5056 -0.2539 -0.5181
36058SOL    HW113304   5.604   9.132  10.112  0.5180 -0.7441  0.6499
36058SOL    HW213305   5.638   9.277  10.136  1.2693 -0.9102  0.5957
36059SOL     OW13306   3.716   7.768   3.025  0.2728  0.2416  0.3992
36059SOL    HW113307   3.643   7.796   3.081  0.6121  1.4072  0.2626
36059SOL    HW213308   3.719   7.833   2.955  1.2674  0.0322  0.2440
36060SOL     OW13309   9.043   8.510   9.547 -0.0892 -0.3018  0.4598
36060SOL    HW113310   9.029   8.418   9.567 -0.7394  0.0074  1.4318
36060SOL    HW213311   9.016   8.520   9.456 -1.1466 -0.8220  0.7175
36061SOL     OW13312  10.484   4.434   8.647 -0.2814  0.0372 -0.4564
36061SOL    HW113313  10.437   4.358   8.612 -2.8602  0.6043  1.6232
36061SOL    HW213314  10.529   4.401   8.724  0.2010  0.2091 -0.6619
36062SOL     OW13315   0.313   3.070   4.482 -0.1619 -0.2877 -0.0314
36062SOL    HW113316   0.304   3.163   4.462  1.2258 -0.2994 -0.7455
36062SOL    HW213317   0.328   3.068   4.577  0.8290  0.3002 -0.1654
36063SOL     OW13318   9.637   9.006   2.319 -0.1961  0.1423 -0.3197
36063SOL    HW113319   9.649   8.937   2.384  0.6655  1.4975  1.0155
36063SOL    HW213320   9.548   9.038   2.335 -0.6838 -0.8065 -1.1001
36064SOL     OW13321   1.027   9.013   1.440  0.5787 -0.0137 -0.2672
36064SOL    HW113322   1.069   9.008   1.526 -1.6933  0.3947  0.8939
36064SOL    HW213323   1.098   9.037   1.380  1.7964  1.6088  1.7855
36065SOL     OW13324   6.260   0.947   7.379 -0.1589 -0.5141 -0.0531
36065SOL    HW113325   6.352   0.940   7.355  0.1113 -0.6554  1.0134
36065SOL    HW213326   6.241   1.041   7.374  0.6549 -0.2173  1.9134
36066SOL     OW13327   4.877   6.628  11.076 -0.6183  0.4890 -0.3937
36066SOL    HW113328   4.923   6.549  11.104  1.5167  1.4289 -1.1807
36066SOL    HW213329   4.799   6.595  11.031  1.3803 -1.2827 -2.7163
36067SOL     OW13330  10.480   7.286  10.241  0.1731 -0.4702 -1.0010
36067SOL    HW113331  10.574   7.299  10.241  0.3041 -1.3543 -0.5853
36067SOL    HW213332  10.449   7.328  10.321  0.3191 -0.8875 -0.7257
36068SOL     OW13333   3.509   7.930   1.824  0.3149  0.3502 -0.1131
36068SOL    HW113334   3.550   7.906   1.741  1.2072  2.1509 -0.2164
36068SOL    HW213335   3.564   8.000   1.858 -0.5214  0.1934  1.6081
36069SOL     OW13336  10.551   2.358   7.822 -0.2913 -0.0979 -0.0143
36069SOL    HW113337  10.485   2.294   7.796 -0.5187  0.0422  0.2085
36069SOL    HW213338  10.536   2.370   7.916 -0.2022  0.2275 -0.0432
36070SOL     OW13339   6.550   8.059   8.084 -0.4460  0.3982 -0.1058
36070SOL    HW113340   6.520   8.146   8.059 -0.9062  0.3931  0.3971
36070SOL    HW213341   6.635   8.049   8.043  0.0538  1.4733  0.6439
36071SOL     OW13342   5.823   1.706   7.406  0.2029  0.1339  0.6088
36071SOL    HW113343   5.739   1.676   7.370  0.5518 -0.0374 -0.0667
36071SOL    HW213344   5.883   1.703   7.332  0.6838  0.7525  0.9747
36072SOL     OW13345   8.994   8.672   3.486 -0.1519  0.2053  0.1177
36072SOL    HW113346   8.995   8.588   3.531 -1.2027 -0.0548 -0.3296
36072SOL    HW213347   9.063   8.723   3.529  1.6149 -1.4374 -0.7117
36073SOL     OW13348   0.737   6.742  10.064  0.1887  0.4628  0.1407
36073SOL    HW113349   0.714   6.660  10.020 -0.0753  1.0993 -0.9242
36073SOL    HW213350   0.719   6.810   9.999  1.1963  1.3008  0.7297
36074SOL     OW13351   6.296  10.740   0.880  0.4040 -0.1604 -0.1576
36074SOL    HW113352   6.279  10.691   0.960  0.5986  1.5197  0.9213
36074SOL    HW213353   6.210  10.767   0.849  0.3478 -0.5988 -0.3921
36075SOL     OW13354   5.632   1.636   4.396 -0.3468  0.0254  0.1809
36075SOL    HW113355   5.611   1.623   4.304 -3.8549 -2.9024  1.2650
36075SOL    HW213356   5.653   1.548   4.429  3.0253  1.3146  1.7581
36076SOL     OW13357   9.922   2.153   9.168  0.1419 -0.1187 -0.0916
36076SOL    HW113358   9.851   2.202   9.209 -0.2171  0.0225 -0.8809
36076SOL    HW213359   9.997   2.212   9.173  0.0324  0.0075  0.1063
36077SOL     OW13360   2.169   5.105   8.651 -0.4951  0.1655  0.3162
36077SOL    HW113361   2.125   5.139   8.729 -0.7813  0.2688  0.1131
36077SOL    HW213362   2.101   5.106   8.583 -0.3617 -0.3172  0.1710
36078SOL     OW13363   7.323   9.137  10.637  0.1218 -0.1106  0.0681
36078SOL    HW113364   7.250   9.182  10.682  0.1210  0.5239 -0.5636
36078SOL    HW213365   7.308   9.154  10.544  0.5933 -0.7277 -0.1264
36079SOL     OW13366  10.505   8.136   5.307  0.0017 -0.2478  0.2955
36079SOL    HW113367  10.599   8.120   5.315 -0.1661 -1.2066  0.4482
36079SOL    HW213368  10.466   8.049   5.317 -0.9807  0.3406  1.6994
36080SOL     OW13369  10.726   5.853   6.008 -0.0772  0.1409  0.1115
36080SOL    HW113370  10.782   5.868   5.932 -0.0069  1.1274  0.3517
36080SOL    HW213371  10.638   5.849   5.972  0.0569 -0.5153 -0.1562
36081SOL     OW13372   1.962   7.965   0.395 -0.5116 -0.6702  0.4153
36081SOL    HW113373   1.951   7.873   0.420 -0.8560 -1.3009 -1.9426
36081SOL    HW213374   2.008   7.962   0.311 -0.5589  1.3056  0.2942
36082SOL     OW13375   5.380   8.380   3.345  0.2863 -0.1615 -0.2385
36082SOL    HW113376   5.301   8.420   3.381 -0.2626  0.3468 -1.9478
36082SOL    HW213377   5.383   8.411   3.254 -0.0958 -3.8311 -1.6124
36083SOL     OW13378  10.619   9.792   1.927 -0.5597  0.7288 -0.1275
36083SOL    HW113379  10.658   9.786   2.014 -0.7908  0.4050 -0.0415
36083SOL    HW213380  10.536   9.744   1.935  0.8394 -2.0386 -1.3469
36084SOL     OW13381   8.015   1.773   9.120 -0.4336 -0.3574  0.0716
36084SOL    HW113382   8.012   1.868   9.108 -1.7777 -0.4101 -0.0970
36084SOL    HW213383   8.080   1.743   9.056  0.0153  0.4521  0.1419
36085SOL     OW13384   3.558   7.435   9.132 -0.2938  0.1738 -0.7779
36085SOL    HW113385   3.484   7.398   9.180  0.0958  0.6387  0.1958
36085SOL    HW213386   3.621   7.362   9.126  0.8114  0.8441  1.8418
36086SOL     OW13387   8.833   5.438   8.396 -0.0151  0.0123  0.2888
36086SOL    HW113388   8.830   5.343   8.389 -0.4386  0.0804 -0.4710
36086SOL    HW213389   8.743   5.466   8.386  0.4475  0.6833 -2.4353
36087SOL     OW13390   9.938   3.261   2.464  0.1283  0.3002  0.2595
36087SOL    HW113391   9.921   3.343   2.511  0.5653 -0.5907  2.0079
36087SOL    HW213392  10.034   3.257   2.457  0.1432 -0.3882  0.8045
36088SOL     OW13393   6.228  10.058   2.890  0.2978 -0.1239 -0.9011
36088SOL    HW113394   6.180  10.009   2.823 -1.6555  1.3179 -0.6083
36088SOL    HW213395   6.226  10.149   2.860  1.2526  0.2221  0.0462
36089SOL     OW13396   4.344  11.061   3.659 -0.5988  0.0850 -0.2646
36089SOL    HW113397   4.338  11.139   3.603 -0.3888 -1.0685 -1.9171
36089SOL    HW213398   4.400  11.089   3.732  1.1304  0.8970 -1.8582
36090SOL     OW13399   5.286   4.058   4.402 -0.0848 -0.2376 -1.0591
36090SOL    HW113400   5.272   4.030   4.312  0.0628  1.6610 -1.6777
36090SOL    HW213401   5.324   4.145   4.395  0.7899 -0.4434  0.8260
36091SOL     OW13402   2.690   2.334   8.719 -0.2038 -0.5173 -0.7369
36091SOL    HW113403   2.641   2.262   8.759 -0.8086  0.5779  0.5472
36091SOL    HW213404   2.782   2.308   8.728 -0.4543 -1.5983 -1.2245
36092SOL     OW13405  10.230   8.409   4.525  0.5860  0.3213 -0.6707
36092SOL    HW113406  10.200   8.365   4.445 -0.1657  0.1427 -0.3000
36092SOL    HW213407  10.151   8.450   4.561  1.1128  1.2542 -0.5512
36093SOL     OW13408   8.479   1.013   4.230 -0.0124  0.0220  0.2762
36093SOL    HW113409   8.439   1.037   4.146  1.7524  0.9030 -0.3365
36093SOL    HW213410   8.526   1.091   4.257  0.4166 -0.6572  1.5039
36094SOL     OW13411   7.913   0.843   1.802  0.7860 -0.0141  0.4646
36094SOL    HW113412   7.914   0.760   1.756 -1.4054  0.0795  0.2353
36094SOL    HW213413   7.965   0.827   1.881  2.4067 -0.8861 -0.7396
36095SOL     OW13414   8.690   9.964   8.488 -0.1234  0.0796 -0.4747
36095SOL    HW113415   8.640   9.886   8.463  0.3845 -1.3825  2.7556
36095SOL    HW213416   8.627  10.017   8.538  0.8780 -0.7616  1.7645
36096SOL     OW13417   1.464   4.382   6.061 -0.7153  0.1670 -0.2329
36096SOL    HW113418   1.404   4.383   6.136 -0.6837 -0.6724 -0.1888
36096SOL    HW213419   1.451   4.297   6.021 -1.9893  1.2785 -2.2380
36097SOL     OW13420   5.246   6.072  10.595 -0.8413 -0.0797 -0.0685
36097SOL    HW113421   5.159   6.070  10.555 -0.6778 -3.7238 -0.4592
36097SOL    HW213422   5.230   6.069  10.689 -1.1683 -1.9945 -0.1701
36098SOL     OW13423   8.943   5.296   2.177  0.2035 -1.0318  0.0055
36098SOL    HW113424   8.911   5.227   2.118 -0.9379 -0.2878 -0.2636
36098SOL    HW213425   8.905   5.274   2.262 -1.0795 -0.1109 -0.3279
36099SOL     OW13426   9.030   4.079   9.931 -0.8089  0.1977  0.0187
36099SOL    HW113427   8.952   4.030   9.906 -0.7741  0.1718 -0.0397
36099SOL    HW213428   9.100   4.014   9.932 -0.9128  0.0916  0.7145
36100SOL     OW13429  10.114   5.003   0.725 -0.5039 -0.7352  0.0700
36100SOL    HW113430  10.202   4.981   0.757 -0.2930  0.9997  0.7307
36100SOL    HW213431  10.055   4.958   0.785 -0.1013 -4.1090 -1.9404
36101SOL     OW13432   5.744   9.435   3.332 -0.6196 -0.4657  0.3389
36101SOL    HW113433   5.802   9.487   3.276 -1.6150 -1.8721 -2.0886
36101SOL    HW213434   5.660   9.482   3.331 -0.5250 -0.2736  1.0136
36102SOL     OW13435   5.456   0.597   2.675  0.0362  0.2080 -0.2828
36102SOL    HW113436   5.511   0.558   2.608 -1.4150  0.3937 -1.6220
36102SOL    HW213437   5.367   0.587   2.641 -0.6605  0.9225  1.2999
36103SOL     OW13438   9.341   6.149  10.605 -0.1903 -0.1855  0.1633
36103SOL    HW113439   9.427   6.148  10.645 -0.7321 -1.1073  1.3326
36103SOL    HW213440   9.332   6.237  10.568  0.7642  0.3017  1.0878
36104SOL     OW13441  10.052   0.426  10.447  0.1183 -0.3149 -0.6850
36104SOL    HW113442  10.042   0.518  10.423 -1.2623 -0.5679 -1.0994
36104SOL    HW213443   9.973   0.384  10.414 -0.4642 -1.1940  1.7549
36105SOL     OW13444   3.164  11.211   5.483  0.5265 -0.0958 -0.6197
36105SOL    HW113445   3.131  11.127   5.452  1.0355 -0.2520 -0.7560
36105SOL    HW213446   3.148  11.210   5.578 -0.3109  0.0471 -0.7592
36106SOL     OW13447   7.943   2.970   3.885 -0.5551  0.0781  0.4630
36106SOL    HW113448   7.880   3.009   3.945 -1.1420 -1.1678  0.6772
36106SOL    HW213449   7.903   2.887   3.859 -0.4099  0.6867 -1.8111
36107SOL     OW13450  10.681   7.554   8.907  0.0278 -0.2768 -0.0585
36107SOL    HW113451  10.756   7.503   8.874  1.1004  0.3593  1.3473
36107SOL    HW213452  10.611   7.489   8.917  0.7062 -1.0801 -0.4035
36108SOL     OW13453  10.038   2.187   1.159 -0.0526  0.3333 -0.2476
36108SOL    HW113454   9.997   2.267   1.193  0.2138  0.6463 -0.6525
36108SOL    HW213455   9.977   2.155   1.093 -0.5267 -0.2258  0.4591
36109SOL     OW13456   9.912  10.985  11.126 -0.4085  0.1979 -0.1339
36109SOL    HW113457   9.830  11.028  11.101 -1.0239 -1.0958 -0.4393
36109SOL    HW213458   9.891  10.937  11.206  0.3338  0.6758  0.3514
36110SOL     OW13459   0.036   1.512   0.798  0.7696 -0.4251  0.4164
36110SOL    HW113460  -0.038   1.534   0.855 -0.2451 -0.1739 -0.9706
36110SOL    HW213461   0.062   1.596   0.760  1.9165 -0.4809  1.0700
36111SOL     OW13462   9.087   6.332   4.144 -0.0144  0.1119  0.6976
36111SOL    HW113463   9.087   6.326   4.048  2.7234  1.3612  0.5819
36111SOL    HW213464   9.143   6.260   4.173  1.0572  1.1643  1.2416
36112SOL     OW13465   6.465  10.032   2.749 -0.0658  0.0071 -0.3766
36112SOL    HW113466   6.390  10.038   2.808  0.2948 -0.0778  0.0962
36112SOL    HW213467   6.525   9.971   2.793  0.5563  0.5660 -0.4377
36113SOL     OW13468   2.013   3.402   0.452  0.0064 -0.0494 -0.2360
36113SOL    HW113469   1.951   3.330   0.459 -1.3903  0.9730 -1.6911
36113SOL    HW213470   2.009   3.446   0.537 -1.1718 -0.0593 -0.2811
36114SOL     OW13471   8.067   1.759   7.333  0.4748  0.8759 -0.2027
36114SOL    HW113472   8.111   1.681   7.365 -0.3242  0.5066 -0.0066
36114SOL    HW213473   8.063   1.747   7.238 -1.7332 -0.4195  0.0367
36115SOL     OW13474  11.053  10.987   1.734 -0.2402  0.3700  0.5303
36115SOL    HW113475  11.123  10.926   1.756  0.6809  1.2047 -0.0580
36115SOL    HW213476  11.019  11.017   1.819 -0.0727 -0.2374  0.8154
36116SOL     OW13477   7.144   5.988   6.313 -0.0528  0.4490 -0.0877
36116SOL    HW113478   7.161   5.941   6.231 -1.0643  1.7685 -1.0810
36116SOL    HW213479   7.226   6.035   6.331 -0.1569  0.9590 -0.8990
36117SOL     OW13480   9.459   7.427   6.593  0.1926  0.2291 -0.1314
36117SOL    HW113481   9.442   7.442   6.500  0.1240 -2.1074 -0.5265
36117SOL    HW213482   9.538   7.478   6.611  0.4871  0.3162 -1.6004
36118SOL     OW13483   5.137   0.857  10.804 -0.3745  0.0040  0.6013
36118SOL    HW113484   5.103   0.929  10.859 -1.6068 -0.2720  0.2187
36118SOL    HW213485   5.189   0.901  10.737 -1.8356  0.6236 -0.1487
36119SOL     OW13486   7.136   0.723   5.460  0.2954 -0.3328 -0.1080
36119SOL    HW113487   7.220   0.699   5.419  0.5124  1.4821 -0.7375
36119SOL    HW213488   7.080   0.749   5.387 -0.7849 -1.3885  0.3310
36120SOL     OW13489   8.992   6.129   3.821 -0.1118  1.0141 -0.2839
36120SOL    HW113490   9.025   6.126   3.732  1.3784  0.3458  0.2640
36120SOL    HW213491   9.025   6.212   3.856  1.1712  0.2629  0.3219
36121SOL     OW13492   4.535   3.497   6.250  0.2815  0.3392  0.0089
36121SOL    HW113493   4.608   3.476   6.309  0.8242  2.0050 -0.0215
36121SOL    HW213494   4.467   3.530   6.308 -0.7588 -1.8989  0.1140
36122SOL     OW13495  10.972   0.793   5.686  0.1956 -0.0522  0.2863
36122SOL    HW113496  10.898   0.821   5.632  0.4780  0.0406 -0.0541
36122SOL    HW213497  11.044   0.849   5.658  0.4727 -0.3553  0.4045
36123SOL     OW13498   2.849   9.286   3.380  0.1799  0.1387 -0.4163
36123SOL    HW113499   2.869   9.377   3.360  0.0708  0.4622  0.8708
36123SOL    HW213500   2.895   9.270   3.463 -0.8478 -0.5801  0.0202
36124SOL     OW13501   1.885   3.807   8.675 -0.3202 -0.0578 -0.0670
36124SOL    HW113502   1.869   3.735   8.614  2.4340 -0.6095 -0.2193
36124SOL    HW213503   1.963   3.781   8.724  0.4299  2.5805  0.2584
36125SOL     OW13504   6.675   5.410   5.873  0.4253 -0.7631 -0.8115
36125SOL    HW113505   6.616   5.436   5.944 -0.2140 -1.2640 -1.1510
36125SOL    HW213506   6.617   5.377   5.805  0.6835  3.5672 -3.3295
36126SOL     OW13507   8.161   4.368   0.398 -0.1960 -0.6722 -0.1364
36126SOL    HW113508   8.186   4.460   0.409  0.3030 -0.6060 -1.7053
36126SOL    HW213509   8.068   4.371   0.375  0.0788 -0.4855 -1.2409
36127SOL     OW13510   7.894   2.511   3.122 -0.4299 -0.6167 -0.3812
36127SOL    HW113511   7.963   2.483   3.062  0.8347 -0.0342  0.7718
36127SOL    HW213512   7.910   2.604   3.136 -1.7746 -0.3472 -0.4984
36128SOL     OW13513   2.342   9.492   0.111  0.3846  0.0376  0.0066
36128SOL    HW113514   2.319   9.414   0.161 -3.1630 -0.1301 -1.7203
36128SOL    HW213515   2.388   9.459   0.034  0.8875 -0.1810  0.4033
36129SOL     OW13516   5.623   7.810   8.166 -0.1932  0.0677 -0.2327
36129SOL    HW113517   5.588   7.731   8.124  0.3914 -0.4983  0.3250
36129SOL    HW213518   5.613   7.794   8.260  1.3630 -0.0314 -0.0593
36130SOL     OW13519   1.931   5.726  10.096 -0.5367  0.1131  0.0844
36130SOL    HW113520   1.923   5.716  10.001  1.1468  0.4333 -0.1058
36130SOL    HW213521   1.891   5.647  10.132 -1.8468  0.3330 -0.8586
36131SOL     OW13522   2.654   9.371   3.075  0.4122 -0.1156  0.0662
36131SOL    HW113523   2.621   9.460   3.066  0.7178 -0.1377 -1.6231
36131SOL    HW213524   2.579   9.320   3.104 -0.2660  0.3546 -0.8398
36132SOL     OW13525   1.756   5.057   5.608 -0.4000 -0.0851  0.1338
36132SOL    HW113526   1.825   5.098   5.660  0.7100 -0.8996 -0.6516
36132SOL    HW213527   1.801   4.988   5.559 -1.5805  0.0925 -1.2414
36133SOL     OW13528   0.952  10.514   2.322 -0.0542  0.3288 -0.0232
36133SOL    HW113529   0.952  10.597   2.369 -0.0905  1.7022 -2.3688
36133SOL    HW213530   1.034  10.471   2.348  0.0408  1.1476  1.0685
36134SOL     OW13531   0.287   9.192   5.628 -0.6274 -0.1828 -0.0665
36134SOL    HW113532   0.351   9.121   5.644 -0.3942 -0.1534 -0.8480
36134SOL    HW213533   0.313   9.261   5.690  0.4650  0.0581 -0.7715
36135SOL     OW13534   0.586   8.556   9.288  0.5316 -0.2306  0.3823
36135SOL    HW113535   0.631   8.483   9.245 -1.4913 -1.1225 -0.2959
36135SOL    HW213536   0.558   8.612   9.215  1.1097  0.6626  0.8384
36136SOL     OW13537   5.073  10.356   3.159  0.1439 -0.1451  0.3452
36136SOL    HW113538   5.101  10.448   3.156  0.0478 -0.1819 -2.0399
36136SOL    HW213539   4.978  10.361   3.169  0.1259  0.0143  0.0956
36137SOL     OW13540   1.075   8.876  10.495  0.2590 -0.0334  0.4770
36137SOL    HW113541   1.123   8.905  10.418  0.8668  0.4459  1.0277
36137SOL    HW213542   1.099   8.938  10.563 -0.0062 -0.6516  1.1460
36138SOL     OW13543   4.425   6.322   8.585  0.2763  0.2814  0.1996
36138SOL    HW113544   4.436   6.266   8.508  0.6093  1.1210 -0.3665
36138SOL    HW213545   4.351   6.283   8.632 -0.5814  0.3502 -1.0682
36139SOL     OW13546   5.172   7.218   1.485 -0.3018  0.4559  0.0352
36139SOL    HW113547   5.213   7.132   1.473 -1.6975  0.0755 -2.2806
36139SOL    HW213548   5.133   7.214   1.572  0.8394 -0.7515  0.5092
36140SOL     OW13549   3.395   1.475   7.567  0.6023  0.6641  0.0312
36140SOL    HW113550   3.346   1.460   7.649 -1.5693 -0.0966 -1.3464
36140SOL    HW213551   3.385   1.568   7.550  2.1514  1.0834  1.2692
36141SOL     OW13552   1.813  10.525   1.028  0.0608  0.0233  1.0566
36141SOL    HW113553   1.848  10.440   1.001  0.9408  0.3992  0.9907
36141SOL    HW213554   1.741  10.503   1.088  1.4475 -0.7771  2.4810
36142SOL     OW13555   0.336   6.998   0.978 -0.3516  0.6736 -0.6448
36142SOL    HW113556   0.255   7.032   0.941 -1.2493 -0.2011  0.4802
36142SOL    HW213557   0.402   7.063   0.955 -0.8791  0.1818 -3.7303
36143SOL     OW13558   8.172   7.143   5.354 -0.0245 -0.3226 -0.3700
36143SOL    HW113559   8.139   7.071   5.300  0.0589  0.3253 -1.2932
36143SOL    HW213560   8.093   7.190   5.380  0.0608  0.5459 -1.6182
36144SOL     OW13561  10.440   2.573   9.775 -0.0043 -0.5244 -0.0703
36144SOL    HW113562  10.424   2.661   9.811  1.4546 -0.3402  0.1347
36144SOL    HW213563  10.356   2.528   9.786 -0.2853  0.2994  1.3758
36145SOL     OW13564   0.680   1.382   0.135  0.0517  0.8141  0.3637
36145SOL    HW113565   0.725   1.456   0.095  0.6574  0.0741 -0.3299
36145SOL    HW213566   0.594   1.381   0.093  1.0079 -0.5097 -1.5936
36146SOL     OW13567   3.449   7.968   5.190  0.6453  0.5240  0.0043
36146SOL    HW113568   3.384   7.995   5.255  0.1606  1.3620 -0.8190
36146SOL    HW213569   3.458   8.043   5.132  2.2782  0.3823  0.0347
36147SOL     OW13570   7.724   7.509   5.720 -0.0632  0.1271  0.3451
36147SOL    HW113571   7.770   7.572   5.776 -1.9375  1.4924  0.3936
36147SOL    HW213572   7.789   7.485   5.653  1.4861  0.1370  1.8149
36148SOL     OW13573   6.922  10.770   9.941  0.6798  0.0685  0.1716
36148SOL    HW113574   6.895  10.856   9.909 -1.1500 -0.2870  0.6932
36148SOL    HW213575   6.945  10.785  10.033  1.1815  0.1561  0.0338
36149SOL     OW13576   7.920   4.501   9.106 -0.2227 -0.2380 -0.3513
36149SOL    HW113577   7.938   4.413   9.139  0.5974  0.0974  0.1051
36149SOL    HW213578   7.892   4.551   9.182 -0.7052 -0.0980 -0.6144
36150SOL     OW13579   8.889   0.206   6.489  0.1902  0.0763 -0.0772
36150SOL    HW113580   8.838   0.212   6.570  0.4980 -1.7826  0.2782
36150SOL    HW213581   8.940   0.287   6.487 -0.7360  0.7017  0.9534
36151SOL     OW13582  11.016   3.321   9.333 -0.2186 -0.5872 -0.0658
36151SOL    HW113583  11.100   3.338   9.377  0.4685  1.0583 -1.8948
36151SOL    HW213584  11.027   3.236   9.292  1.1095  0.2064 -1.4309
36152SOL     OW13585   4.043   2.517   4.203 -0.4780  0.1038  0.0628
36152SOL    HW113586   4.091   2.487   4.126  1.7042  2.1945  0.5656
36152SOL    HW213587   4.108   2.520   4.272 -1.8291  0.8661  1.3269
36153SOL     OW13588   5.096   4.587   8.715 -0.1218 -0.6116 -0.0293
36153SOL    HW113589   5.011   4.627   8.727 -0.9781 -2.2006 -0.6204
36153SOL    HW213590   5.130   4.573   8.803 -0.0374  0.8856  0.1899
36154SOL     OW13591   8.521   2.820  10.143  0.5246 -0.3236 -0.4274
36154SOL    HW113592   8.524   2.863  10.228 -0.8338 -1.1919  0.0785
36154SOL    HW213593   8.595   2.857  10.094 -0.4248  2.3206  0.0857
36155SOL     OW13594   0.511   1.439   7.118 -0.2039  0.3753 -0.3185
36155SOL    HW113595   0.474   1.420   7.205 -1.2226  0.3303 -0.7564
36155SOL    HW213596   0.483   1.365   7.064 -0.0721  0.7006 -0.8320
36156SOL     OW13597   5.563   9.454   5.759 -0.0542  0.0340 -0.2983
36156SOL    HW113598   5.637   9.433   5.701  1.3942  0.4274  1.3653
36156SOL    HW213599   5.544   9.372   5.805  0.7272  0.4611  0.7957
36157SOL     OW13600   3.622   1.483   1.773  0.4527  0.2823 -0.3895
36157SOL    HW113601   3.557   1.553   1.781 -0.3472 -0.1213 -2.8307
36157SOL    HW213602   3.593   1.416   1.835 -0.2173  1.0188  0.1043
36158SOL     OW13603   9.954   9.321   6.612  0.3215  0.3659  0.4558
36158SOL    HW113604   9.917   9.373   6.541 -0.6609 -0.1092  0.5956
36158SOL    HW213605  10.009   9.381   6.661 -0.1154  1.0538  0.1071
36159SOL     OW13606   6.427   1.639   4.904  0.0690  0.5759 -0.1426
36159SOL    HW113607   6.466   1.678   4.826  1.7481 -0.1994  0.3016
36159SOL    HW213608   6.374   1.566   4.870  0.1180  0.7538 -0.6124
36160SOL     OW13609   2.988   8.208   9.528  0.2888  0.9369 -0.3134
36160SOL    HW113610   3.044   8.197   9.452  0.1169  0.5658 -0.3874
36160SOL    HW213611   2.899   8.199   9.494  0.2266  0.3390 -0.0013
36161SOL     OW13612   1.719   6.517   2.516  0.5718  0.0236 -0.1950
36161SOL    HW113613   1.732   6.520   2.611 -1.2392  2.3892  0.0352
36161SOL    HW213614   1.787   6.576   2.481 -0.8391  1.7806 -0.0606
36162SOL     OW13615   9.699  10.085   2.556  0.3216  0.4086  0.2701
36162SOL    HW113616   9.606  10.106   2.549  0.0734 -0.8911 -0.3604
36162SOL    HW213617   9.740  10.168   2.584 -0.8517  1.2972 -0.5943
36163SOL     OW13618   1.567   8.677   1.903  0.0627 -0.0070  0.1373
36163SOL    HW113619   1.513   8.681   1.824  1.5642 -0.2798 -0.9237
36163SOL    HW213620   1.566   8.585   1.928  1.6283 -0.3606 -1.0313
36164SOL     OW13621   4.824   2.090  11.083  0.6362  0.1087 -0.1677
36164SOL    HW113622   4.737   2.072  11.119  1.8951 -0.0252  2.9823
36164SOL    HW213623   4.820   2.181  11.055  0.1676  0.8409  2.1665
36165SOL     OW13624   1.845   9.959   6.139 -0.0724 -0.5709 -0.0534
36165SOL    HW113625   1.816   9.898   6.207  0.5728 -0.1944  0.5744
36165SOL    HW213626   1.888  10.029   6.188  1.0660 -0.6658 -0.8971
36166SOL     OW13627   2.562   9.517   5.094  0.1525  0.6563 -0.0454
36166SOL    HW113628   2.481   9.508   5.043  0.1549 -2.4405  0.4214
36166SOL    HW213629   2.632   9.516   5.029 -0.0359  0.7647 -0.2517
36167SOL     OW13630   1.617   7.445   6.620 -0.0636  0.2801  0.0941
36167SOL    HW113631   1.682   7.397   6.570  0.5487 -1.0950  2.1686
36167SOL    HW213632   1.667   7.511   6.668 -0.3951  0.2237  0.5174
36168SOL     OW13633   2.833   5.633   6.050  0.2033  0.6062  0.4634
36168SOL    HW113634   2.852   5.570   6.119  1.3016  0.3461 -0.0563
36168SOL    HW213635   2.756   5.681   6.081 -0.3417 -0.6585  1.0703
36169SOL     OW13636   2.825   9.836  10.730 -0.2618 -0.3586  0.1796
36169SOL    HW113637   2.745   9.786  10.715 -1.5527  1.5979  0.3284
36169SOL    HW213638   2.806   9.923  10.694  0.9978  0.7860  2.1989
36170SOL     OW13639   8.142   1.388   2.510  0.0139  0.0319 -0.3621
36170SOL    HW113640   8.049   1.412   2.511 -0.8688 -3.0986 -0.5867
36170SOL    HW213641   8.153   1.330   2.586  1.6444 -0.0613 -0.6476
36171SOL     OW13642   4.049  11.272  10.690 -0.5597 -0.1488  0.3084
36171SOL    HW113643   4.036  11.366  10.681  1.3247  0.1739  0.7094
36171SOL    HW213644   4.067  11.259  10.783 -0.3582 -0.8544  0.1752
36172SOL     OW13645   9.838   4.313   8.705  0.7586  0.3673  0.0259
36172SOL    HW113646   9.833   4.380   8.773  0.0833  1.2540 -0.8809
36172SOL    HW213647   9.928   4.319   8.672  0.7049  0.8540 -0.0512
36173SOL     OW13648   2.164   1.521   5.872  0.5100  0.1716 -0.0128
36173SOL    HW113649   2.072   1.497   5.856  0.5137  0.7819 -1.0155
36173SOL    HW213650   2.196   1.454   5.932 -0.3944 -0.4576 -0.2190
36174SOL     OW13651   8.336   3.957   7.444 -0.5767  0.0759  0.4215
36174SOL    HW113652   8.334   3.971   7.349  0.6815  0.2803  0.4163
36174SOL    HW213653   8.389   3.877   7.455 -0.1538  0.4351  0.9881
36175SOL     OW13654   0.839   8.895  10.688  1.2699  0.1356  0.2426
36175SOL    HW113655   0.904   8.883  10.757 -0.0793 -0.3904  1.4629
36175SOL    HW213656   0.830   8.809  10.647  0.0596 -0.2542  1.2777
36176SOL     OW13657   0.799   1.411   9.481 -0.0115 -0.3573 -0.1035
36176SOL    HW113658   0.841   1.345   9.427 -1.1348 -0.5341 -0.7712
36176SOL    HW213659   0.723   1.439   9.431  0.1145  1.0237  0.4329
36177SOL     OW13660  11.001  10.532   4.382 -0.1240 -0.1624  0.0019
36177SOL    HW113661  10.918  10.515   4.427 -0.4531  0.5359 -0.3251
36177SOL    HW213662  11.068  10.502   4.443 -0.6382 -1.6866 -0.1481
36178SOL     OW13663   4.703   5.127   4.076 -0.1193 -0.2117  0.0148
36178SOL    HW113664   4.659   5.081   4.148  1.0796 -0.3613  0.6636
36178SOL    HW213665   4.676   5.218   4.085  0.7438 -0.0701  1.2102
36179SOL     OW13666   9.100  10.707   7.728 -0.9660  0.4160 -0.2533
36179SOL    HW113667   9.135  10.637   7.784 -2.3193 -0.9660 -1.0808
36179SOL    HW213668   9.156  10.705   7.650 -0.8224  0.4463 -0.1505
36180SOL     OW13669   8.437   8.698   1.672 -0.3028 -0.1923  0.2589
36180SOL    HW113670   8.373   8.759   1.636 -0.3790 -1.2342 -1.4094
36180SOL    HW213671   8.522   8.738   1.653 -0.3906  0.1010  0.4810
36181SOL     OW13672   8.836   7.644   3.765  0.7804  0.6585  0.0272
36181SOL    HW113673   8.922   7.620   3.731 -0.4906 -0.8276 -2.2912
36181SOL    HW213674   8.854   7.703   3.838  3.6996  2.8116 -2.3325
36182SOL     OW13675   5.462   3.737   5.239  0.2269  0.5872 -0.0258
36182SOL    HW113676   5.457   3.656   5.188 -0.8302 -0.0761  1.0912
36182SOL    HW213677   5.534   3.722   5.301  0.8425  0.9974 -0.6286
36183SOL     OW13678   2.874   2.388   4.828 -0.1888  0.0775  0.4067
36183SOL    HW113679   2.867   2.474   4.787  0.9678  0.6703  1.4334
36183SOL    HW213680   2.958   2.354   4.799 -0.1670 -0.2515  0.8513
36184SOL     OW13681   7.147   9.628   4.740 -0.0128  0.3128  0.1077
36184SOL    HW113682   7.201   9.627   4.661 -0.1876  0.0729 -0.0098
36184SOL    HW213683   7.171   9.548   4.786  1.6964  1.5140  1.3945
36185SOL     OW13684   1.798  11.107   7.432  0.3841  0.6115 -0.0662
36185SOL    HW113685   1.864  11.147   7.375  0.4627  0.7060  0.0918
36185SOL    HW213686   1.789  11.169   7.505 -0.3741  0.9399 -0.4337
36186SOL     OW13687   9.301   3.047   8.044  0.5357 -0.2273 -0.3499
36186SOL    HW113688   9.324   2.999   7.964  0.6908 -0.6628 -0.0484
36186SOL    HW213689   9.383   3.051   8.093  0.1641 -1.0681  0.3555
36187SOL     OW13690   6.831   9.432   8.306 -0.4208 -0.7103  0.1537
36187SOL    HW113691   6.864   9.372   8.240 -1.2690 -0.2357 -0.7254
36187SOL    HW213692   6.805   9.510   8.256 -0.0100  0.0961  1.1851
36188SOL     OW13693   9.627   9.547   0.567  0.2393  0.2545  0.1155
36188SOL    HW113694   9.650   9.604   0.640 -0.1216  0.5888 -0.0315
36188SOL    HW213695   9.615   9.606   0.493  1.5269 -0.1701 -0.4435
36189SOL     OW13696   4.967   1.783   5.586 -0.4886  0.0224 -0.2197
36189SOL    HW113697   4.929   1.866   5.556 -1.1198 -0.0285  0.4062
36189SOL    HW213698   5.052   1.778   5.543 -1.2669  0.0559 -1.7859
36190SOL     OW13699   1.713   0.298   5.182 -0.0442  0.0707  0.3191
36190SOL    HW113700   1.631   0.344   5.168 -1.5344 -1.9582  2.0937
36190SOL    HW213701   1.761   0.353   5.244  0.8306  2.2436 -2.1898
36191SOL     OW13702   6.025   6.133   3.831  0.0816 -0.1789 -0.4891
36191SOL    HW113703   5.955   6.198   3.841 -0.2578 -0.3691 -1.5788
36191SOL    HW213704   6.030   6.117   3.737  0.4607 -1.4077 -0.2691
36192SOL     OW13705   6.761   9.480   3.768  0.0853  0.1349 -0.1028
36192SOL    HW113706   6.786   9.559   3.720 -0.0852  0.3624  0.1768
36192SOL    HW213707   6.665   9.487   3.776  0.1725  0.3982  0.7832
36193SOL     OW13708   6.575   3.203   2.087 -0.2182  0.1284 -0.2677
36193SOL    HW113709   6.518   3.155   2.027  0.3348  1.1413 -1.6298
36193SOL    HW213710   6.653   3.147   2.096 -0.0983  0.2039 -0.8648
36194SOL     OW13711   4.027   0.621   2.221  0.4975  0.0224  0.8427
36194SOL    HW113712   4.119   0.598   2.209  0.3341 -0.6665  0.8557
36194SOL    HW213713   3.979   0.548   2.182 -0.0433  0.5511  0.5109
36195SOL     OW13714   5.709   5.787   5.647  0.0103 -0.7081 -0.0137
36195SOL    HW113715   5.726   5.752   5.560 -0.3918 -0.2246 -0.2908
36195SOL    HW213716   5.796   5.798   5.686  0.1240 -2.6255  0.3373
36196SOL     OW13717   9.325  10.693   7.553 -0.8181 -0.6483  0.1039
36196SOL    HW113718   9.371  10.640   7.489 -0.7290  0.6436 -0.9124
36196SOL    HW213719   9.390  10.709   7.622 -0.3075 -0.3554 -0.4442
36197SOL     OW13720   9.544   8.707   1.372  0.6534 -0.2546 -0.0231
36197SOL    HW113721   9.498   8.714   1.289  1.0593 -0.4924 -0.2677
36197SOL    HW213722   9.476   8.681   1.435  0.0207  1.4708  0.0390
36198SOL     OW13723   6.303   8.884   0.605  0.1828 -0.1883  0.1160
36198SOL    HW113724   6.309   8.801   0.653 -1.3207  0.0113  0.6678
36198SOL    HW213725   6.276   8.947   0.672 -0.1909  0.4426 -0.6366
36199SOL     OW13726   6.319   5.763   2.880 -0.2140 -0.1917 -1.0049
36199SOL    HW113727   6.398   5.717   2.852  0.1021 -2.1068  2.6378
36199SOL    HW213728   6.248   5.719   2.834  0.6707  0.4735 -3.0693
36200SOL     OW13729   1.564   2.786   7.723  0.2079  0.4681  0.3677
36200SOL    HW113730   1.582   2.862   7.668  1.2059 -1.1746 -1.6953
36200SOL    HW213731   1.649   2.764   7.762  0.5223 -1.0703 -1.0957
36201SOL     OW13732  11.267   2.644   2.933  0.4744 -0.5513  0.1788
36201SOL    HW113733  11.193   2.680   2.883  1.5842 -1.2585 -2.0560
36201SOL    HW213734  11.329   2.716   2.938  0.6899 -0.7080 -0.1706
36202SOL     OW13735   5.166   6.316   1.636  0.0803 -0.1316 -0.6193
36202SOL    HW113736   5.150   6.244   1.575 -2.2121 -0.8637  0.7736
36202SOL    HW213737   5.099   6.306   1.703 -0.6274  3.6444 -0.6572
36203SOL     OW13738   9.677   2.982   8.279 -0.5532 -0.6901 -0.1242
36203SOL    HW113739   9.638   2.976   8.192 -0.9576  0.3615 -0.0264
36203SOL    HW213740   9.753   3.038   8.267 -0.0234 -1.3820  0.0061
36204SOL     OW13741   2.238   2.581  10.861 -0.6160 -0.3056 -0.3486
36204SOL    HW113742   2.151   2.599  10.895 -1.0177 -2.5255 -0.1105
36204SOL    HW213743   2.295   2.588  10.938 -0.6109  0.8185 -0.4430
36205SOL     OW13744   9.421   3.746   7.128 -0.0119 -0.0875 -0.1195
36205SOL    HW113745   9.375   3.671   7.167 -0.5211 -0.0742 -0.6856
36205SOL    HW213746   9.445   3.800   7.203 -0.1400 -0.5367  0.2524
36206SOL     OW13747   2.457   6.479   3.786 -0.1182  0.6674  0.0555
36206SOL    HW113748   2.462   6.429   3.867 -1.7140  1.0804  0.4192
36206SOL    HW213749   2.364   6.482   3.765  0.0994  2.2188 -0.7450
36207SOL     OW13750   4.102   8.552  10.946  0.0906  0.1004  0.3680
36207SOL    HW113751   4.078   8.470  10.902  1.4471 -0.2921  0.3533
36207SOL    HW213752   4.092   8.619  10.878  2.3689 -0.5313 -0.6434
36208SOL     OW13753  10.334   1.591   1.384 -0.4304  0.1392 -0.1783
36208SOL    HW113754  10.338   1.673   1.334  1.9513  0.9123  1.2247
36208SOL    HW213755  10.376   1.611   1.468 -1.7158 -1.9498  1.0225
36209SOL     OW13756   5.503   0.638   1.238  0.0786  0.0508 -0.0463
36209SOL    HW113757   5.427   0.605   1.287  0.4173  1.6318  1.5652
36209SOL    HW213758   5.490   0.605   1.149 -0.9584 -2.2062  0.8959
36210SOL     OW13759   6.759   1.902   8.637 -0.1143 -0.1277  0.0260
36210SOL    HW113760   6.749   1.939   8.549 -1.2906 -0.9232 -0.1821
36210SOL    HW213761   6.704   1.824   8.637  1.0460 -0.9706  0.9912
36211SOL     OW13762   3.019  10.583   7.831  0.3357 -0.4054 -0.6540
36211SOL    HW113763   2.951  10.644   7.858  0.6826  0.5068 -1.8467
36211SOL    HW213764   2.984  10.540   7.753 -0.4664 -2.7128  0.9016
36212SOL     OW13765   3.020   1.138   8.374  0.0077  0.3715 -0.0061
36212SOL    HW113766   3.057   1.198   8.439  0.1051  0.3348 -0.0258
36212SOL    HW213767   2.938   1.179   8.348  0.1055  0.5310 -0.0690
36213SOL     OW13768   7.305   2.243   2.914 -0.2928 -0.2738  0.7888
36213SOL    HW113769   7.384   2.190   2.926  0.3717  0.5948  0.2503
36213SOL    HW213770   7.238   2.180   2.886  0.4144 -0.8853  0.4609
36214SOL     OW13771   6.581   1.212   4.118  0.4292 -0.0491 -0.1923
36214SOL    HW113772   6.621   1.273   4.057  1.5741  0.9800  1.5157
36214SOL    HW213773   6.631   1.131   4.106  1.1202  0.3586 -0.1479
36215SOL     OW13774   9.731   7.665   6.850  0.3437 -0.7303  0.5350
36215SOL    HW113775   9.636   7.670   6.861  0.3744  2.0500 -0.1228
36215SOL    HW213776   9.743   7.628   6.763 -0.1895  0.8811 -0.2419
36216SOL     OW13777   6.392   4.808   8.308 -0.0025 -0.5992  0.8316
36216SOL    HW113778   6.365   4.870   8.240 -1.4948 -0.2486  1.7171
36216SOL    HW213779   6.416   4.729   8.260 -0.6130 -0.2118 -0.1405
36217SOL     OW13780   0.313  10.137   9.907  0.1633 -0.0379  0.1019
36217SOL    HW113781   0.261  10.173   9.834 -0.0219  1.5698  1.0057
36217SOL    HW213782   0.337  10.049   9.878 -2.3077 -0.4798 -0.7177
36218SOL     OW13783   9.155   5.442   5.739 -0.0786  0.3983 -0.3226
36218SOL    HW113784   9.218   5.389   5.690 -0.0369 -0.2912  0.4651
36218SOL    HW213785   9.118   5.502   5.674  1.3347  0.7671 -0.8066
36219SOL     OW13786   9.417   6.929   4.790 -0.6673  0.3682 -0.5384
36219SOL    HW113787   9.323   6.928   4.776 -0.7967  1.2686  0.1842
36219SOL    HW213788   9.447   7.011   4.750 -0.0631 -0.3288 -1.5248
36220SOL     OW13789   1.631   1.473   6.992  0.0865  0.4121  0.6407
36220SOL    HW113790   1.623   1.386   7.032 -0.5651  0.4466  0.5921
36220SOL    HW213791   1.593   1.462   6.905  0.4580  0.6234  0.4543
36221SOL     OW13792   5.127   1.057   4.039  0.4346  0.1218  0.2433
36221SOL    HW113793   5.080   1.067   3.956 -0.3542  0.2469  0.7007
36221SOL    HW213794   5.162   1.144   4.058 -1.4744  0.6852  1.2765
36222SOL     OW13795   6.754   0.359   6.122  0.4575  0.7021  0.1918
36222SOL    HW113796   6.728   0.432   6.177  1.1978 -0.0814  1.5948
36222SOL    HW213797   6.836   0.327   6.159 -1.1493 -2.4729  1.2177
36223SOL     OW13798   7.788   6.438   7.011  0.1336  0.3480  0.1568
36223SOL    HW113799   7.835   6.480   7.083  1.6727 -0.4612 -0.3692
36223SOL    HW213800   7.839   6.360   6.991  0.0499  0.8674 -2.2226
36224SOL     OW13801   0.614   5.552   0.571 -0.1918  0.0435  0.0224
36224SOL    HW113802   0.538   5.493   0.572 -0.6055  0.5521 -0.9185
36224SOL    HW213803   0.655   5.538   0.486  0.7158 -0.1455  0.4840
36225SOL     OW13804   3.659   9.817   1.819  0.2149 -0.1469 -0.2490
36225SOL    HW113805   3.637   9.894   1.872 -1.0645 -0.5307 -0.2132
36225SOL    HW213806   3.701   9.853   1.740  0.6619  0.5109  0.2867
36226SOL     OW13807   0.676   9.498   6.591  0.5720 -0.3875 -0.0779
36226SOL    HW113808   0.705   9.549   6.516 -3.7154  0.2107 -1.4540
36226SOL    HW213809   0.707   9.548   6.667  2.0615  0.7763 -1.4098
36227SOL     OW13810   1.249   1.853   2.459 -0.3275  0.1902  0.8484
36227SOL    HW113811   1.224   1.844   2.367 -0.9215 -0.1822  1.0449
36227SOL    HW213812   1.264   1.764   2.489 -1.1538  0.2299  1.3905
36228SOL     OW13813  11.314   5.911   9.611  0.1003 -0.4757 -0.1164
36228SOL    HW113814  11.348   5.825   9.586  0.5533 -0.1968 -0.4697
36228SOL    HW213815  11.385   5.971   9.592  0.3899 -0.2146  1.6812
36229SOL     OW13816   0.821   1.956   9.607  0.0697 -0.7161 -0.0642
36229SOL    HW113817   0.787   2.045   9.594  0.2362 -0.7507 -0.8030
36229SOL    HW213818   0.858   1.932   9.521  1.8783 -0.7226  0.6967
36230SOL     OW13819   5.086   5.091  10.594 -0.3495 -0.1500  0.2443
36230SOL    HW113820   5.101   5.169  10.541  1.2996  0.9074  2.1724
36230SOL    HW213821   5.002   5.057  10.563 -1.2794  2.5649 -0.4232
36231SOL     OW13822   9.107  10.397   3.012  0.0527  0.2847  0.4246
36231SOL    HW113823   9.152  10.417   3.094  1.0555  0.4423 -0.1654
36231SOL    HW213824   9.153  10.322   2.976  0.6816  1.2610 -0.8328
36232SOL     OW13825   6.581  10.762   9.962 -0.0286  0.3570 -0.5246
36232SOL    HW113826   6.625  10.702   9.902  1.2680  0.9483 -0.1784
36232SOL    HW213827   6.488  10.748   9.945  0.3125  0.4942 -2.6596
36233SOL     OW13828   8.349   6.780   1.269  0.5747 -0.9565 -0.0616
36233SOL    HW113829   8.260   6.813   1.286  0.3335 -0.9399 -1.3423
36233SOL    HW213830   8.360   6.710   1.333 -0.1316 -0.5575  0.5143
36234SOL     OW13831   3.153   1.265  10.970  0.6218 -0.2819 -0.3924
36234SOL    HW113832   3.212   1.338  10.989  1.3962 -1.3224  1.3621
36234SOL    HW213833   3.128   1.232  11.056 -1.6401 -0.5782 -1.1536
36235SOL     OW13834  10.982   8.440   4.754  0.4188  0.2137  0.2452
36235SOL    HW113835  11.013   8.531   4.752 -0.1072  0.4837  2.4922
36235SOL    HW213836  10.902   8.441   4.702  0.6745  0.9539 -0.1417
36236SOL     OW13837  10.597   1.140   9.321  0.3592 -0.1378  0.3949
36236SOL    HW113838  10.541   1.151   9.398 -0.0765 -0.4154  0.1247
36236SOL    HW213839  10.677   1.186   9.342  0.3617 -0.4798  1.1473
36237SOL     OW13840   1.518   5.622  10.491  0.5623  0.5520  0.1988
36237SOL    HW113841   1.544   5.541  10.536  2.8576  0.8360 -0.5622
36237SOL    HW213842   1.567   5.691  10.535  1.3183  1.0831 -1.4413
36238SOL     OW13843   7.762   8.324   6.488 -0.1407 -0.0835  0.4574
36238SOL    HW113844   7.749   8.262   6.559 -2.4616  0.7540  0.8073
36238SOL    HW213845   7.784   8.407   6.532  0.3626 -0.0327  0.1128
36239SOL     OW13846   7.893   1.651   7.609 -0.1174 -0.1904  0.0266
36239SOL    HW113847   7.900   1.710   7.684  0.0618 -0.6821  0.3935
36239SOL    HW213848   7.820   1.686   7.557 -1.2795 -0.7868  1.2407
36240SOL     OW13849   0.526   8.929   0.997  0.3014  0.3025  0.1569
36240SOL    HW113850   0.445   8.921   0.947 -0.2802  0.6911  1.0325
36240SOL    HW213851   0.560   8.839   1.002 -0.5024  0.0195  0.5132
36241SOL     OW13852   6.715  10.977   5.959  0.1232 -0.1643 -0.4327
36241SOL    HW113853   6.790  11.025   5.925 -0.2902  0.5534 -0.3499
36241SOL    HW213854   6.640  11.012   5.910 -0.5295  1.1126  1.4153
36242SOL     OW13855   9.359   1.820   2.320 -0.4455  0.0819  0.4664
36242SOL    HW113856   9.303   1.746   2.297 -0.8187  0.8933 -1.3394
36242SOL    HW213857   9.445   1.798   2.284 -0.5275  0.4647  0.0333
36243SOL     OW13858   5.198  10.257   9.913  0.3855 -0.3865 -0.2451
36243SOL    HW113859   5.166  10.170   9.938 -1.2339  0.2992  0.1718
36243SOL    HW213860   5.171  10.314   9.986 -0.1188  0.7712 -1.3117
36244SOL     OW13861  11.065   5.037   0.281  0.3265  0.5124 -0.1011
36244SOL    HW113862  11.099   4.968   0.224 -0.5516  0.7858 -0.9716
36244SOL    HW213863  11.140   5.095   0.295  1.0307 -0.5138  0.5091
36245SOL     OW13864   8.266   4.054   6.336 -0.5350  0.1159 -0.1888
36245SOL    HW113865   8.305   4.134   6.300  2.1816  0.6492  3.5957
36245SOL    HW213866   8.259   4.072   6.430 -3.5874 -2.6660  0.1957
36246SOL     OW13867   5.643   8.696   6.784  0.1748  0.0886 -0.0030
36246SOL    HW113868   5.561   8.745   6.782  0.4286  0.5444  0.5834
36246SOL    HW213869   5.708   8.759   6.816  0.5359 -0.5849  0.5975
36247SOL     OW13870  11.273   0.455   5.149  0.1991 -0.5799 -0.0081
36247SOL    HW113871  11.197   0.485   5.099  1.4010  1.5043 -0.6697
36247SOL    HW213872  11.239   0.435   5.236 -1.2081 -0.1951 -0.4611
36248SOL     OW13873   3.221   9.445   9.846  0.2153  0.1050  0.0096
36248SOL    HW113874   3.281   9.482   9.911  1.1505  0.0249 -0.7852
36248SOL    HW213875   3.191   9.363   9.886  0.2633  0.3804  0.6228
36249SOL     OW13876   7.516  10.713   8.468 -0.6393  0.6000  0.7636
36249SOL    HW113877   7.511  10.618   8.460 -1.5721  0.7924 -1.4035
36249SOL    HW213878   7.605  10.731   8.496 -0.5314 -0.9213  1.4343
36250SOL     OW13879   3.675   7.509   3.075  0.2101 -0.6652 -0.3546
36250SOL    HW113880   3.707   7.599   3.064  0.8466 -1.0085 -1.3676
36250SOL    HW213881   3.584   7.511   3.045  0.8019 -0.7714 -2.1819
36251SOL     OW13882   1.525  10.225  10.213 -0.2298 -0.3309 -0.1551
36251SOL    HW113883   1.482  10.289  10.156 -0.6640 -0.0199  0.5233
36251SOL    HW213884   1.565  10.162  10.152  1.2033  1.2243 -0.8449
36252SOL     OW13885   8.496   9.200   6.351  0.4142 -0.3156  0.0712
36252SOL    HW113886   8.421   9.141   6.341 -0.0078  0.1948  0.2611
36252SOL    HW213887   8.490   9.261   6.278  0.0745  0.3575  0.6599
36253SOL     OW13888   6.319   8.395   2.567  0.4000  0.4299  0.0337
36253SOL    HW113889   6.369   8.448   2.628  1.4768 -0.5198 -0.0128
36253SOL    HW213890   6.344   8.428   2.480  0.6389  0.2300  0.0255
36254SOL     OW13891   6.524   8.186   1.913  0.7680 -0.0984 -0.3534
36254SOL    HW113892   6.467   8.226   1.848  0.9427  1.0728  0.2201
36254SOL    HW213893   6.524   8.246   1.987  1.9474 -0.5769  0.0505
36255SOL     OW13894   8.571   7.703   6.912 -0.2244 -0.8478  0.0074
36255SOL    HW113895   8.648   7.695   6.969 -0.4445 -1.4867  0.2216
36255SOL    HW213896   8.582   7.788   6.869  0.4255 -0.7800  0.2944
36256SOL     OW13897   0.342  10.724   6.073 -0.4979  0.0989 -0.3007
36256SOL    HW113898   0.363  10.790   6.139  0.0900 -1.0884  0.7265
36256SOL    HW213899   0.387  10.754   5.994 -0.3484  0.9943  0.1224
36257SOL     OW13900  10.334   9.088   1.530  0.5299  0.5471  0.0556
36257SOL    HW113901  10.373   9.171   1.556 -1.3136  1.2559  0.6308
36257SOL    HW213902  10.305   9.102   1.439  2.7325 -0.3974 -0.8240
36258SOL     OW13903   1.386   7.276   1.636 -0.1568 -0.3117 -0.6279
36258SOL    HW113904   1.382   7.186   1.667 -2.1547  0.4304  1.3917
36258SOL    HW213905   1.388   7.329   1.715  1.5022  1.4237 -1.7983
36259SOL     OW13906   2.205   3.148   3.478  0.5264 -0.4234 -0.5397
36259SOL    HW113907   2.159   3.211   3.533 -0.8276 -1.6586 -0.2221
36259SOL    HW213908   2.297   3.159   3.500  0.1212  0.0595  0.9542
36260SOL     OW13909   4.308   2.866   0.741  0.0944  0.3778 -0.0630
36260SOL    HW113910   4.300   2.938   0.679 -0.9944 -0.2773 -0.6972
36260SOL    HW213911   4.262   2.896   0.819  3.1768  2.0231  1.2297
36261SOL     OW13912   8.856   8.066  10.650  0.2493 -0.2162 -0.5463
36261SOL    HW113913   8.910   8.116  10.711  1.4048  0.8697 -2.3957
36261SOL    HW213914   8.774   8.051  10.697  0.4236  2.1847  0.6258
36262SOL     OW13915   8.265   2.193   8.128 -0.1721 -0.2753 -0.4142
36262SOL    HW113916   8.186   2.241   8.103 -0.2496 -0.9673 -1.5503
36262SOL    HW213917   8.255   2.107   8.087  0.9007 -0.5610 -0.0973
36263SOL     OW13918   1.616   9.557   5.492  0.5807 -0.0982  0.1763
36263SOL    HW113919   1.610   9.608   5.573  1.1264 -1.3521  1.0183
36263SOL    HW213920   1.658   9.476   5.518  0.0496 -0.8387 -1.2313
36264SOL     OW13921   5.473   7.796   2.407  0.7330 -0.0759  0.4283
36264SOL    HW113922   5.542   7.814   2.470  0.7697  0.2875  0.2873
36264SOL    HW213923   5.428   7.880   2.397  0.8834 -0.0743 -0.2157
36265SOL     OW13924   3.906   0.970   2.472  0.0526  0.3825  0.4807
36265SOL    HW113925   3.867   0.960   2.385  0.1093 -0.3126  0.5401
36265SOL    HW213926   3.926   1.064   2.478 -0.6853  0.5722  0.0549
36266SOL     OW13927   9.250   8.804   5.180 -0.1548 -0.0767  0.2097
36266SOL    HW113928   9.309   8.794   5.255  1.5511 -0.0789 -1.1058
36266SOL    HW213929   9.252   8.897   5.160  0.5891 -0.2968 -0.7760
36267SOL     OW13930   2.010   7.256   2.138 -0.4475  0.0574 -0.4700
36267SOL    HW113931   1.997   7.348   2.159 -0.0855 -0.4467  2.0275
36267SOL    HW213932   2.098   7.236   2.170 -0.4817 -1.1401 -1.0785
36268SOL     OW13933   5.703   8.826   1.706 -0.1666 -0.1458 -0.5099
36268SOL    HW113934   5.682   8.754   1.766  0.2277  0.3897  0.2802
36268SOL    HW213935   5.788   8.858   1.737  0.9892 -1.1342 -2.5506
36269SOL     OW13936   7.835   5.640   4.056  0.2565 -0.3806  0.0265
36269SOL    HW113937   7.873   5.558   4.086 -0.3672 -0.0104  1.8910
36269SOL    HW213938   7.886   5.708   4.102 -2.0658  0.1354  1.9507
36270SOL     OW13939   7.150   9.325   1.375 -0.1559  0.0158  0.0983
36270SOL    HW113940   7.073   9.324   1.431  0.9334  3.8660  1.8519
36270SOL    HW213941   7.219   9.284   1.428  0.2542  1.3298  0.5900
36271SOL     OW13942  10.353   3.578   2.685 -0.3881  0.1773 -0.2969
36271SOL    HW113943  10.326   3.545   2.771 -1.2705 -1.1068 -1.0598
36271SOL    HW213944  10.272   3.613   2.647 -0.3328 -0.7034 -1.2416
36272SOL     OW13945   6.565   6.391   9.117 -0.2717 -0.3735 -0.4033
36272SOL    HW113946   6.516   6.328   9.171  0.6870 -0.0829  0.8244
36272SOL    HW213947   6.655   6.359   9.119 -0.0207  0.3086 -0.8645
36273SOL     OW13948   5.554   1.052   3.088 -0.0245 -0.0316 -0.2638
36273SOL    HW113949   5.596   0.983   3.139 -0.2560  0.0020 -0.0275
36273SOL    HW213950   5.545   1.125   3.149 -0.6539 -0.1250 -0.2429
36274SOL     OW13951   5.512   8.176   3.797  0.1211 -0.2823 -0.2792
36274SOL    HW113952   5.568   8.098   3.793 -0.3827 -0.5972 -1.2306
36274SOL    HW213953   5.544   8.224   3.874  0.4305 -1.4314  0.3285
36275SOL     OW13954   0.091   5.873   2.624  0.0480 -0.6455 -0.5435
36275SOL    HW113955   0.011   5.877   2.677  1.0403  1.1636  0.8602
36275SOL    HW213956   0.138   5.796   2.657  0.2299 -0.0489  0.6239
36276SOL     OW13957   4.258   4.520   3.040  0.6377  0.1455 -0.0401
36276SOL    HW113958   4.307   4.471   3.107 -0.1956  1.0282  1.2327
36276SOL    HW213959   4.221   4.594   3.087 -1.0805  0.0493 -1.2218
36277SOL     OW13960   0.415   4.116   9.884 -0.1165 -0.4808 -0.0603
36277SOL    HW113961   0.334   4.145   9.842  0.3572  0.5885 -0.2303
36277SOL    HW213962   0.449   4.194   9.928  0.4034 -1.1235  0.6983
36278SOL     OW13963  10.930   2.223   1.063 -0.4414  0.1075 -0.0891
36278SOL    HW113964  11.011   2.172   1.068  0.7575  2.0752  1.1948
36278SOL    HW213965  10.897   2.206   0.975  1.1562 -1.0525 -0.4965
36279SOL     OW13966   8.849  10.550  10.459 -0.0271 -0.1944  0.5471
36279SOL    HW113967   8.820  10.458  10.453 -0.0333 -0.0814 -1.5877
36279SOL    HW213968   8.768  10.600  10.471 -0.3092 -0.2392 -1.1149
36280SOL     OW13969   6.853   6.080   7.542  0.0799 -0.3720  0.3723
36280SOL    HW113970   6.889   6.010   7.486 -0.2502 -1.7182  1.8091
36280SOL    HW213971   6.853   6.043   7.630  2.0371  2.2703  1.5538
36281SOL     OW13972   5.241  10.779   2.083  0.0167  0.1642  0.0577
36281SOL    HW113973   5.209  10.868   2.094 -0.1968  0.1486 -0.4381
36281SOL    HW213974   5.335  10.785   2.104 -0.2055  0.2946  1.0507
36282SOL     OW13975   5.214  11.203   8.866 -0.5207 -0.3302  0.2092
36282SOL    HW113976   5.126  11.218   8.832 -0.7826 -1.1187  0.5333
36282SOL    HW213977   5.201  11.183   8.959 -0.1626 -2.2254 -0.1273
36283SOL     OW13978   0.376   5.803   9.392  0.0658 -0.2056 -0.0651
36283SOL    HW113979   0.438   5.813   9.320  1.5641  1.6498  1.4293
36283SOL    HW213980   0.410   5.730   9.444  0.8040  0.5542  0.5353
36284SOL     OW13981  11.052   4.734   6.004 -0.1215 -0.1416  0.5771
36284SOL    HW113982  11.002   4.726   5.923  0.5814 -3.7320  0.3988
36284SOL    HW213983  10.987   4.723   6.074 -0.2780 -0.0946  0.4387
36285SOL     OW13984   8.901   7.274   0.366 -0.0972 -0.0609 -0.5009
36285SOL    HW113985   8.844   7.246   0.294 -0.6091  0.1685 -0.1904
36285SOL    HW213986   8.870   7.362   0.389 -1.2608 -0.8974  1.3084
36286SOL     OW13987   5.416  10.078   8.152 -0.7632  1.3762  0.0453
36286SOL    HW113988   5.496  10.089   8.100  0.3950 -0.2388  1.4022
36286SOL    HW213989   5.422  10.146   8.219 -0.5144  1.2540  0.1485
36287SOL     OW13990  10.204   3.454   8.727 -0.2625  0.6390  0.1084
36287SOL    HW113991  10.256   3.378   8.702 -0.9529  0.1284  0.1951
36287SOL    HW213992  10.125   3.416   8.766 -0.0424  1.4003  1.3361
36288SOL     OW13993   3.949   3.482   8.150 -0.5685 -0.1586  0.2413
36288SOL    HW113994   3.917   3.505   8.238  0.2608 -1.9536  1.0379
36288SOL    HW213995   3.937   3.562   8.099 -1.8271  0.6704  1.7786
36289SOL     OW13996   5.934   9.316   4.189 -0.6955  0.3619 -0.1933
36289SOL    HW113997   5.890   9.267   4.258  1.0456 -1.6121 -0.4197
36289SOL    HW213998   5.960   9.249   4.125  0.5533  1.7418 -1.1642
36290SOL     OW13999   1.455  10.874   7.930  0.2897  0.5009  0.2371
36290SOL    HW114000   1.471  10.795   7.880  0.7171  0.9485 -0.3342
36290SOL    HW214001   1.532  10.929   7.915 -0.9423  1.9184 -1.1091
36291SOL     OW14002   6.428  10.037   9.228  0.7968 -0.0335  0.0509
36291SOL    HW114003   6.495   9.971   9.245 -0.2247 -0.7845  1.2661
36291SOL    HW214004   6.451  10.111   9.284  0.3851 -0.4574  0.7907
36292SOL     OW14005   6.005   7.770   9.852 -0.1179 -0.4391 -0.5471
36292SOL    HW114006   5.964   7.769   9.939  2.0185 -0.4955  0.5030
36292SOL    HW214007   6.016   7.678   9.830  0.9302 -0.4450 -0.0628
36293SOL     OW14008   8.714   7.796   1.646  0.4644 -0.0003 -0.3901
36293SOL    HW114009   8.802   7.797   1.683 -0.4000 -0.5412  1.7414
36293SOL    HW214010   8.688   7.888   1.643  1.2833  0.2036 -1.5136
36294SOL     OW14011   1.760   0.332   6.507 -0.7911 -0.4311 -0.8867
36294SOL    HW114012   1.756   0.325   6.602 -1.2492  0.8811 -0.7912
36294SOL    HW214013   1.818   0.407   6.491  1.7239 -2.4921 -1.7263
36295SOL     OW14014  11.211   3.203   0.776  0.3703  0.6544  0.4317
36295SOL    HW114015  11.296   3.162   0.756 -0.5324 -1.4321  0.7455
36295SOL    HW214016  11.173   3.223   0.691 -0.3597 -1.7132  0.1513
36296SOL     OW14017   1.231   8.028   8.562  0.0006 -0.3330 -0.3550
36296SOL    HW114018   1.250   8.121   8.556 -0.7995 -0.0716  0.8853
36296SOL    HW214019   1.309   7.985   8.526  0.4427  0.8015 -0.7782
36297SOL     OW14020   1.741   6.716   8.687  0.6090  0.5663  0.1844
36297SOL    HW114021   1.710   6.737   8.774 -0.1148  1.9375 -0.3856
36297SOL    HW214022   1.825   6.763   8.679  2.0844 -1.8327  1.1407
36298SOL     OW14023   0.229  10.341   5.694 -0.1283  0.2896  0.2917
36298SOL    HW114024   0.284  10.394   5.636 -0.6598 -0.7037 -1.1620
36298SOL    HW214025   0.187  10.404   5.752  1.0055  1.2405  0.0815
36299SOL     OW14026   5.807   0.164   0.308  0.1687 -0.0902 -0.3613
36299SOL    HW114027   5.746   0.126   0.244 -0.1541  2.7583 -1.7953
36299SOL    HW214028   5.753   0.219   0.364  1.1635  1.1276 -0.5787
36300SOL     OW14029  10.938   4.313   5.598 -0.1140  0.2217  0.0312
36300SOL    HW114030  10.892   4.237   5.633 -0.1920  0.5624  0.6684
36300SOL    HW214031  10.869   4.369   5.563 -0.1992  0.8316  1.1771
36301SOL     OW14032   5.502   6.255   7.069 -0.0858  0.5313  0.0624
36301SOL    HW114033   5.533   6.299   7.148  0.4292  1.4084 -0.6218
36301SOL    HW214034   5.480   6.326   7.008 -0.0018 -0.1429 -0.7673
36302SOL     OW14035   4.134   8.715   1.818 -0.4853 -0.2312 -0.3406
36302SOL    HW114036   4.201   8.780   1.839  0.4656 -1.2376 -0.1940
36302SOL    HW214037   4.092   8.749   1.739  0.4753  0.2151 -0.6714
36303SOL     OW14038   8.316  10.326   2.501  0.3520 -0.2000 -0.3230
36303SOL    HW114039   8.361  10.265   2.442  0.2578 -0.1294 -0.4696
36303SOL    HW214040   8.231  10.340   2.460  1.0810  1.5495 -1.3195
36304SOL     OW14041   8.868   7.134  10.540 -0.8240 -0.3274  0.2575
36304SOL    HW114042   8.875   7.227  10.520 -1.0694  0.0291  1.7242
36304SOL    HW214043   8.846   7.132  10.633 -1.3969 -1.8399  0.0961
36305SOL     OW14044   4.364   1.880   4.748  0.0496  0.2149  0.2721
36305SOL    HW114045   4.445   1.920   4.716 -0.0490 -0.4513 -0.8404
36305SOL    HW214046   4.394   1.802   4.796  0.0070 -0.9821 -1.5787
36306SOL     OW14047  10.457   1.026   1.629  0.4065  0.2625 -0.6722
36306SOL    HW114048  10.380   0.982   1.664  0.0045  1.0184 -0.5992
36306SOL    HW214049  10.530   0.967   1.647 -0.2659 -0.8081 -1.4182
36307SOL     OW14050   5.591   9.083   1.617 -0.1564 -0.1712 -0.3770
36307SOL    HW114051   5.564   9.107   1.706  0.1531 -0.3771 -0.2286
36307SOL    HW214052   5.638   9.001   1.628 -1.2961 -0.9078 -0.8872
36308SOL     OW14053   7.972   2.576   7.775  0.3128  0.0832 -0.8078
36308SOL    HW114054   8.055   2.622   7.786  0.0609  0.1165  1.0489
36308SOL    HW214055   7.980   2.532   7.691  2.8043 -1.1618  0.0414
36309SOL     OW14056   5.511   6.172   2.197  0.2963 -0.0342  0.7624
36309SOL    HW114057   5.468   6.150   2.280  1.3900 -2.4302  0.7176
36309SOL    HW214058   5.441   6.166   2.132 -0.4408  1.3007  1.4049
36310SOL     OW14059   0.199   4.913   1.334  0.1825 -0.0203 -0.6983
36310SOL    HW114060   0.159   4.915   1.421  0.8646 -0.5550 -0.3713
36310SOL    HW214061   0.126   4.892   1.275 -0.1156 -0.5009 -0.1616
36311SOL     OW14062   7.171   1.988   5.998 -0.1602  0.5811  0.0433
36311SOL    HW114063   7.091   1.946   6.027  1.0205 -1.2540  0.6727
36311SOL    HW214064   7.206   1.930   5.930  1.7341  0.2719  1.2586
36312SOL     OW14065   8.038   3.638   1.329  0.4179 -0.4647 -0.6585
36312SOL    HW114066   8.064   3.551   1.360 -0.0710 -0.5429 -0.4620
36312SOL    HW214067   8.011   3.685   1.408 -0.5958 -0.5812 -0.9246
36313SOL     OW14068   1.876   2.480   5.227 -0.1355  0.3085  0.0744
36313SOL    HW114069   1.955   2.496   5.177 -0.3596  0.1751 -0.3215
36313SOL    HW214070   1.887   2.391   5.262 -1.0498 -0.5711 -1.7555
36314SOL     OW14071   7.634   2.179   0.943 -0.0705  0.4321 -0.0759
36314SOL    HW114072   7.709   2.239   0.944  0.3336 -0.0650 -0.6302
36314SOL    HW214073   7.567   2.225   0.994  0.8585  0.5429  1.0521
36315SOL     OW14074   6.088   3.062   5.891  0.1028 -0.4901  0.0056
36315SOL    HW114075   6.009   3.015   5.916 -1.3600  1.8931  0.0656
36315SOL    HW214076   6.153   3.039   5.957 -0.7084 -2.0343  0.2698
36316SOL     OW14077   5.759   8.921   2.154  0.2894  0.2709 -0.1872
36316SOL    HW114078   5.750   8.831   2.186 -0.9697  0.1395 -0.9088
36316SOL    HW214079   5.683   8.967   2.189  0.2988  0.7627 -0.8160
36317SOL     OW14080   3.540  11.067   3.585 -0.1655  0.0062  0.0535
36317SOL    HW114081   3.455  11.084   3.545 -0.4867 -0.5537  0.4914
36317SOL    HW214082   3.524  11.072   3.679 -0.1275 -1.9973  0.1889
36318SOL     OW14083   5.998   1.064   8.185  0.0698 -0.0800 -0.0450
36318SOL    HW114084   6.082   1.091   8.222  0.6467 -0.8627 -0.7428
36318SOL    HW214085   5.932   1.107   8.239  0.9290  1.1786  0.0234
36319SOL     OW14086  11.251   6.810   9.050  0.1635  0.2125 -0.4058
36319SOL    HW114087  11.214   6.722   9.044 -0.2350  0.4187 -1.0883
36319SOL    HW214088  11.196   6.863   8.992 -0.5597  1.2342  1.1885
36320SOL     OW14089   1.543   7.302   6.067 -0.1692  0.1809  0.5123
36320SOL    HW114090   1.474   7.367   6.081 -0.4126 -0.3160  1.6082
36320SOL    HW214091   1.498   7.218   6.069  0.3376 -0.0972  0.3308
36321SOL     OW14092   1.580  10.000   0.081 -0.2713 -0.2765 -0.0475
36321SOL    HW114093   1.607  10.021   0.170 -1.0854  1.0308 -0.1090
36321SOL    HW214094   1.569   9.904   0.081  1.2683 -0.4630  0.8100
36322SOL     OW14095   2.475   8.750   9.485 -0.0751  0.1576 -0.9770
36322SOL    HW114096   2.453   8.780   9.397  0.9733  1.7808 -0.7210
36322SOL    HW214097   2.512   8.828   9.528  0.0316 -0.7827  0.6753
36323SOL     OW14098   7.821   5.270   3.975  0.1321 -0.2012 -0.1298
36323SOL    HW114099   7.853   5.358   3.997 -0.7023 -0.3273  1.6233
36323SOL    HW214100   7.864   5.250   3.892  4.1910 -0.1509  1.8478
36324SOL     OW14101   0.798   3.946   7.782  0.9956  0.0014  0.1217
36324SOL    HW114102   0.834   4.010   7.721  0.8346 -1.1630 -1.2428
36324SOL    HW214103   0.787   3.867   7.729 -2.7015  0.0555  0.6793
36325SOL     OW14104   6.089   8.872   3.548  0.3247 -1.0491 -0.6294
36325SOL    HW114105   6.097   8.785   3.509  0.0905  0.3876 -3.9912
36325SOL    HW214106   6.016   8.913   3.502  2.1293  1.8977 -0.9780
36326SOL     OW14107   1.376   0.830   3.498  0.1828 -0.2411 -0.0946
36326SOL    HW114108   1.433   0.755   3.515  1.2128  0.5345 -0.0303
36326SOL    HW214109   1.382   0.844   3.404 -0.0170 -0.2492 -0.1086
36327SOL     OW14110   4.328   8.635  11.110 -0.0507 -0.0349 -0.0443
36327SOL    HW114111   4.407   8.591  11.078 -0.0841 -0.3747  0.3399
36327SOL    HW214112   4.256   8.576  11.089 -0.1533  0.0735  0.0002
36328SOL     OW14113   0.365   0.481   2.551  0.2799  0.0103  0.1704
36328SOL    HW114114   0.412   0.468   2.468 -0.3951 -0.1999 -0.1761
36328SOL    HW214115   0.434   0.508   2.612  0.6880  0.7713 -0.6065
36329SOL     OW14116   8.973   7.760   1.258  0.3705 -0.1273 -0.0790
36329SOL    HW114117   8.886   7.780   1.294  0.5248 -1.0763  0.8487
36329SOL    HW214118   9.027   7.834   1.284 -0.6805  1.6387 -2.6765
36330SOL     OW14119   6.467   7.517   8.541 -0.0740 -0.0978 -0.4004
36330SOL    HW114120   6.500   7.530   8.452  0.6363 -1.4011 -0.3459
36330SOL    HW214121   6.495   7.595   8.588  3.1987 -1.2219 -0.3135
36331SOL     OW14122   4.033   2.410   2.424 -0.7779 -0.2378  0.1176
36331SOL    HW114123   3.980   2.334   2.400 -1.0306 -0.5445  1.6239
36331SOL    HW214124   4.110   2.373   2.467 -1.1517  0.3860  1.3360
36332SOL     OW14125   4.151   0.820   0.818 -0.1420  0.0513  0.5103
36332SOL    HW114126   4.226   0.874   0.842  1.0579 -1.1970 -0.2862
36332SOL    HW214127   4.083   0.882   0.792  1.4698  1.1802 -1.1604
36333SOL     OW14128   2.227   0.969   7.069  0.7962 -0.3057  0.2415
36333SOL    HW114129   2.290   1.039   7.054 -0.5294  1.4839  2.6161
36333SOL    HW214130   2.257   0.926   7.149  0.8029 -1.5062 -0.4083
36334SOL     OW14131   1.015   5.319   8.389 -0.0443 -0.7548 -0.3040
36334SOL    HW114132   0.921   5.334   8.400 -0.2197 -1.2634 -1.0491
36334SOL    HW214133   1.054   5.406   8.400 -0.5013 -0.7136  1.0126
36335SOL     OW14134   6.235   9.500   2.194  0.6300  0.3172 -0.5318
36335SOL    HW114135   6.278   9.532   2.274  2.4628 -0.7562 -1.0621
36335SOL    HW214136   6.285   9.540   2.123  0.5797 -0.7257 -1.1601
36336SOL     OW14137   9.946   9.053  10.129 -0.2128  0.3602  0.3129
36336SOL    HW114138   9.864   9.102  10.122 -0.5584 -0.3268 -0.4746
36336SOL    HW214139  10.014   9.117  10.108 -0.5645  0.8334  0.5903
36337SOL     OW14140   6.295   8.080   4.268  0.2482  0.1376  0.0127
36337SOL    HW114141   6.367   8.032   4.307 -0.4046  0.6005  1.8494
36337SOL    HW214142   6.333   8.164   4.241  0.8486 -0.4460 -0.9431
36338SOL     OW14143   4.728   2.448   9.610  0.1271 -0.0114  0.1351
36338SOL    HW114144   4.787   2.472   9.681  2.2192  1.6719 -2.0566
36338SOL    HW214145   4.764   2.367   9.575  2.0725  1.7416 -2.0948
36339SOL     OW14146   1.801   3.803  10.871 -0.5923  0.2323 -0.0682
36339SOL    HW114147   1.739   3.863  10.829 -0.0479  0.3960 -0.6333
36339SOL    HW214148   1.828   3.744  10.801 -0.0327  0.2177  0.1632
36340SOL     OW14149   0.626   5.566   6.141  0.3933  0.0236 -0.1205
36340SOL    HW114150   0.605   5.539   6.052 -0.0684  3.8061 -1.2709
36340SOL    HW214151   0.541   5.580   6.183  0.6110 -1.4905  0.8686
36341SOL     OW14152   5.391   1.414   4.294 -0.5484  0.0116 -0.5657
36341SOL    HW114153   5.444   1.356   4.239 -1.2542 -0.5130 -0.7086
36341SOL    HW214154   5.434   1.412   4.380 -1.1962 -1.6381 -0.2487
36342SOL     OW14155  11.196   3.555   3.237  0.2549 -0.5744  0.6946
36342SOL    HW114156  11.259   3.483   3.246  0.6419 -0.4152 -0.5568
36342SOL    HW214157  11.130   3.521   3.176  0.2296 -0.0159  0.4102
36343SOL     OW14158  10.870   8.846   7.355 -0.0173 -0.4460 -0.3400
36343SOL    HW114159  10.857   8.933   7.318  0.6612  0.2123  0.9556
36343SOL    HW214160  10.964   8.830   7.346  0.4736  0.4880  2.7471
36344SOL     OW14161   1.555   1.956   7.902 -0.2206 -0.3170 -0.2435
36344SOL    HW114162   1.460   1.967   7.892  0.0325  0.3321 -1.9817
36344SOL    HW214163   1.568   1.862   7.912 -1.1557 -0.3036  1.3366
36345SOL     OW14164   0.023   5.229   7.208  0.3303  0.2169 -0.2228
36345SOL    HW114165   0.043   5.249   7.116  0.4009  1.1438 -0.0084
36345SOL    HW214166   0.057   5.140   7.220 -1.1520 -0.5643 -1.5480
36346SOL     OW14167   5.534   2.152   6.261 -0.4386 -0.0808 -0.5451
36346SOL    HW114168   5.493   2.119   6.341 -0.7659  1.6023 -0.0201
36346SOL    HW214169   5.460   2.174   6.204 -0.2095 -2.3150 -1.7683
36347SOL     OW14170  11.123   1.481   9.418 -0.5039 -0.5274 -0.1943
36347SOL    HW114171  11.216   1.457   9.415 -1.0881 -2.7819 -1.4322
36347SOL    HW214172  11.096   1.484   9.326 -1.9878 -1.2784  0.2012
36348SOL     OW14173   2.142   9.011   9.745 -0.0305 -0.1327  0.5233
36348SOL    HW114174   2.088   8.938   9.775  0.0059 -0.2071  0.4124
36348SOL    HW214175   2.182   8.980   9.663 -0.8087  0.3751 -0.0636
36349SOL     OW14176   8.477   6.279   8.923  0.6029  0.0503 -0.0831
36349SOL    HW114177   8.469   6.203   8.865 -1.2670  1.1233 -1.2805
36349SOL    HW214178   8.436   6.350   8.875 -1.5193  0.8540  2.7766
36350SOL     OW14179   7.888   2.125   0.291  0.4070  0.2247  0.0501
36350SOL    HW114180   7.815   2.183   0.312  0.7074  1.3091 -1.8295
36350SOL    HW214181   7.906   2.141   0.198  2.3939 -0.7513  0.2408
36351SOL     OW14182  10.231   0.717   2.597  0.7296 -0.2797  0.2724
36351SOL    HW114183  10.210   0.714   2.504 -0.0111  1.2898  0.3806
36351SOL    HW214184  10.147   0.708   2.641  0.8763  0.7499  0.7708
36352SOL     OW14185   2.099   8.681   9.470 -0.5547  0.2052  0.2008
36352SOL    HW114186   2.113   8.755   9.411 -1.3445  0.8399  0.7993
36352SOL    HW214187   2.160   8.614   9.439  1.7933  1.8966  1.0050
36353SOL     OW14188   6.831  10.421  11.218  0.4902 -0.3813  0.4154
36353SOL    HW114189   6.793  10.500  11.179  0.1116 -1.2500 -1.0324
36353SOL    HW214190   6.767  10.393  11.283 -0.0314 -0.2690 -0.0475
36354SOL     OW14191   3.726   6.076   6.537  0.1856  0.0698 -0.3408
36354SOL    HW114192   3.818   6.087   6.512  1.5176  0.3241  4.0778
36354SOL    HW214193   3.730   6.016   6.612 -3.3402 -0.5332 -0.5863
36355SOL     OW14194  10.992   6.621  10.023 -0.0613 -0.3082  0.4036
36355SOL    HW114195  11.010   6.681   9.951 -1.7331 -0.8150 -0.4442
36355SOL    HW214196  10.909   6.579  10.001  0.0401 -1.4264  1.9901
36356SOL     OW14197  10.805   9.521  10.019 -0.1351 -0.1278 -0.1145
36356SOL    HW114198  10.793   9.616  10.013  0.6370 -0.1305 -2.3271
36356SOL    HW214199  10.900   9.509  10.019 -0.1751 -0.7874  3.0169
36357SOL     OW14200   3.126  11.319   1.532  0.1465  0.0364 -0.2774
36357SOL    HW114201   3.037  11.300   1.562  0.4634  1.2241  1.5160
36357SOL    HW214202   3.120  11.317   1.436 -1.4207 -1.5718 -0.1689
36358SOL     OW14203   1.153   4.980   7.190  0.2898 -0.0813 -0.1967
36358SOL    HW114204   1.169   5.060   7.140  0.5069 -0.9765 -1.6009
36358SOL    HW214205   1.069   4.996   7.233  1.0531  1.4832  0.7695
36359SOL     OW14206   3.684   3.555   9.012 -0.3320 -0.6316  0.1596
36359SOL    HW114207   3.596   3.566   8.976 -0.4837 -1.1443  0.3612
36359SOL    HW214208   3.674   3.486   9.078  0.1767 -0.5375  0.3363
36360SOL     OW14209   7.474   8.219   2.329 -0.2333 -0.3353  0.3064
36360SOL    HW114210   7.417   8.293   2.350 -0.9968 -1.2679  1.5836
36360SOL    HW214211   7.525   8.248   2.253 -1.9757  0.7265 -0.4648
36361SOL     OW14212   0.573   5.021   5.735  0.0085  0.1215  0.1825
36361SOL    HW114213   0.553   5.079   5.808  0.3214 -1.3100  1.4062
36361SOL    HW214214   0.566   5.078   5.658 -0.4275  1.6117  1.2912
36362SOL     OW14215   9.585   1.448   7.854  0.4813 -0.1377 -0.2015
36362SOL    HW114216   9.512   1.414   7.802  0.5814 -0.3863 -0.1813
36362SOL    HW214217   9.598   1.382   7.923  1.0285 -0.3313 -0.4872
36363SOL     OW14218   9.512   9.331  11.001  0.0546 -0.4445  0.3735
36363SOL    HW114219   9.588   9.386  10.979 -0.5488 -0.4042 -1.6592
36363SOL    HW214220   9.522   9.253  10.947 -0.8601 -0.8682  0.8053
36364SOL     OW14221   2.260   7.550   6.497 -0.5415 -0.3766 -0.2646
36364SOL    HW114222   2.318   7.498   6.442 -0.3797  0.3155 -0.7587
36364SOL    HW214223   2.210   7.486   6.546  0.2451 -0.9873 -0.2509
36365SOL     OW14224   3.150   0.848   1.366  0.2254  0.3928 -0.6700
36365SOL    HW114225   3.211   0.829   1.437 -0.8966 -2.6430 -0.4292
36365SOL    HW214226   3.205   0.853   1.287  0.8373 -2.4269 -0.4749
36366SOL     OW14227  10.235   3.052   9.237  0.0717 -0.2387  0.2784
36366SOL    HW114228  10.311   3.023   9.288 -1.4909 -1.1560  2.1675
36366SOL    HW214229  10.240   3.148   9.240  2.0254 -0.2671 -1.0094
36367SOL     OW14230   3.973  10.082   8.487 -0.1976  0.4810 -0.4274
36367SOL    HW114231   4.052  10.119   8.527  0.1321 -0.1061 -0.5211
36367SOL    HW214232   3.901  10.132   8.524  0.0228 -0.6393  1.5872
36368SOL     OW14233  10.017  10.233   7.149 -0.3922  0.3333 -0.5387
36368SOL    HW114234  10.051  10.310   7.193 -0.2184 -0.6900  1.1708
36368SOL    HW214235  10.056  10.235   7.062 -0.1851  2.0189 -0.4184
36369SOL     OW14236   0.715   6.837   1.385  0.0889  0.2239 -0.0376
36369SOL    HW114237   0.794   6.810   1.432  0.8550 -1.4759 -2.2376
36369SOL    HW214238   0.643   6.798   1.435  0.7209  0.4970  1.1091
36370SOL     OW14239  10.562   6.062   9.696  0.2711 -0.7436 -0.5269
36370SOL    HW114240  10.515   5.980   9.679  0.0075 -0.4519 -1.2216
36370SOL    HW214241  10.548   6.078   9.789 -0.1334 -1.2048 -0.5027
36371SOL     OW14242   2.799   2.958  11.129  0.5248  0.1287  0.0198
36371SOL    HW114243   2.847   3.010  11.194  0.2157  0.8636 -0.3327
36371SOL    HW214244   2.799   3.012  11.050 -1.2074  0.3097  0.1198
36372SOL     OW14245   4.463   1.131   1.564  0.3930 -0.5012 -0.0365
36372SOL    HW114246   4.518   1.083   1.626 -0.1633  1.3727  2.0155
36372SOL    HW214247   4.469   1.082   1.483  1.7470 -2.6490  1.3075
36373SOL     OW14248   3.743   4.124   8.310  0.2719  0.1111 -0.5862
36373SOL    HW114249   3.813   4.060   8.322 -1.4801 -1.6225  0.8062
36373SOL    HW214250   3.781   4.207   8.337  1.3928 -1.0451  1.5286
36374SOL     OW14251   6.150  10.683   5.665  0.5775  0.2007  0.0112
36374SOL    HW114252   6.082  10.622   5.692 -0.2385  1.5346  1.0295
36374SOL    HW214253   6.111  10.732   5.593  0.8124  0.2867 -0.0583
36375SOL     OW14254   0.340   1.523   5.449  0.6697  0.5089 -0.2363
36375SOL    HW114255   0.392   1.573   5.512 -0.1246  1.8966 -0.6531
36375SOL    HW214256   0.402   1.497   5.382  1.8578 -2.3148  1.8270
36376SOL     OW14257   4.620   7.203   5.042 -0.1207 -0.2807 -0.2655
36376SOL    HW114258   4.639   7.209   4.949  2.2516  0.8437  0.2531
36376SOL    HW214259   4.567   7.281   5.061  1.9865  1.1537 -0.1156
36377SOL     OW14260   4.252   6.924   9.798 -0.4752 -0.0041 -0.5588
36377SOL    HW114261   4.320   6.955   9.858 -0.1444  0.9778 -1.4274
36377SOL    HW214262   4.215   6.847   9.842 -1.5119  1.7726  1.7503
36378SOL     OW14263   6.372   9.935   3.782 -0.6168  0.0890  0.1469
36378SOL    HW114264   6.414   9.867   3.835  1.5276  0.3815 -1.0944
36378SOL    HW214265   6.399  10.017   3.822  0.7478  0.3020 -1.1797
36379SOL     OW14266   0.762   3.699   1.306  0.0860  0.5436  0.2678
36379SOL    HW114267   0.817   3.777   1.295  1.9278 -0.3874  2.4420
36379SOL    HW214268   0.822   3.625   1.290 -0.7769 -0.4663  1.5857
36380SOL     OW14269   4.614   1.020   0.650 -0.1334 -0.6023  0.0797
36380SOL    HW114270   4.547   1.043   0.586 -0.2823  0.6273  0.6736
36380SOL    HW214271   4.697   1.039   0.607 -0.2055 -0.7169 -0.1093
36381SOL     OW14272   2.627   3.107   8.842 -0.6985 -0.0171 -0.6917
36381SOL    HW114273   2.647   3.175   8.778 -0.4096 -1.1874 -1.8554
36381SOL    HW214274   2.536   3.123   8.866 -0.6818  0.6799 -1.0810
36382SOL     OW14275   9.609   4.322  10.125 -0.1370  0.2929  0.3634
36382SOL    HW114276   9.662   4.253  10.165 -1.3862 -0.3367  0.9493
36382SOL    HW214277   9.640   4.403  10.166  0.9932  0.0416  0.0321
36383SOL     OW14278  10.952   7.560   6.866 -0.0117  0.0529 -0.1531
36383SOL    HW114279  10.950   7.480   6.813  0.3891  0.0822 -0.2183
36383SOL    HW214280  10.962   7.631   6.802 -0.5338  0.1709 -0.1068
36384SOL     OW14281   9.494   2.902   6.330  0.4034 -0.6757  0.2279
36384SOL    HW114282   9.533   2.830   6.380 -0.1739 -1.2035 -0.0676
36384SOL    HW214283   9.552   2.912   6.254  1.2013  0.0358  0.9202
36385SOL     OW14284   7.139  10.154   2.195  0.5815  0.0460  0.2044
36385SOL    HW114285   7.149  10.107   2.113  1.4650  0.5030  0.0463
36385SOL    HW214286   7.071  10.105   2.243 -3.0986  2.2023 -2.5404
36386SOL     OW14287   4.851   4.346   8.718 -0.3009  0.2020 -0.1333
36386SOL    HW114288   4.849   4.441   8.721 -1.4010  0.1804  0.5273
36386SOL    HW214289   4.921   4.324   8.657  0.2631  1.4245  0.0677
36387SOL     OW14290   4.466   7.832   3.444 -0.5873 -0.0506  0.1501
36387SOL    HW114291   4.386   7.809   3.490 -0.1849  1.1982  1.5176
36387SOL    HW214292   4.536   7.802   3.502 -0.0762  1.8678  0.5592
36388SOL     OW14293  10.163   7.243  10.452  0.1790  0.1325  0.1192
36388SOL    HW114294  10.158   7.160  10.404  0.2407  0.4099 -0.3708
36388SOL    HW214295  10.174   7.217  10.543  0.3044 -0.3978 -0.0446
36389SOL     OW14296  10.545   9.832   0.646  0.0858 -0.8061  0.2066
36389SOL    HW114297  10.602   9.907   0.664 -0.9091  0.1461 -0.5594
36389SOL    HW214298  10.557   9.814   0.553 -1.5516 -0.0129 -0.1695
36390SOL     OW14299   5.022   8.759   0.823  0.2699  0.4683 -0.3301
36390SOL    HW114300   5.084   8.701   0.779  0.7572  0.2169  0.6743
36390SOL    HW214301   5.042   8.749   0.916 -0.9844  0.7247 -0.0242
36391SOL     OW14302   4.477   3.286   9.217  0.0170  0.2078 -0.4319
36391SOL    HW114303   4.559   3.314   9.258 -0.7803 -0.6271  1.7987
36391SOL    HW214304   4.465   3.347   9.144  2.6262  0.3099 -0.8237
36392SOL     OW14305   5.651   6.854  10.998 -0.2845 -0.0801  0.5468
36392SOL    HW114306   5.567   6.836  10.955 -0.3384 -0.7636  0.9377
36392SOL    HW214307   5.706   6.778  10.976  0.2817  0.4364  0.1634
36393SOL     OW14308   5.951   3.039   4.033  0.1707  0.5302  0.4607
36393SOL    HW114309   5.966   2.984   3.956 -1.3762  1.3215 -0.4287
36393SOL    HW214310   5.912   3.119   3.998 -2.4155  0.1004  2.2608
36394SOL     OW14311   7.724   7.655   2.375  1.1977 -0.1827 -0.0291
36394SOL    HW114312   7.750   7.747   2.376  1.4232 -0.2470 -0.1313
36394SOL    HW214313   7.767   7.617   2.451  1.2807 -0.2548 -0.1128
36395SOL     OW14314   0.531   0.752   7.824  0.1346 -0.1028 -0.2888
36395SOL    HW114315   0.560   0.681   7.883  0.5090 -1.7404 -2.3833
36395SOL    HW214316   0.601   0.817   7.829  0.4653 -0.5224  0.5944
36396SOL     OW14317   3.990   4.073   7.052 -0.2511  0.4209  0.3708
36396SOL    HW114318   4.033   4.028   7.125 -1.6022 -1.4192  0.0776
36396SOL    HW214319   4.012   4.165   7.064  1.1441 -0.1033  1.9992
36397SOL     OW14320   8.176   6.421  11.094 -0.2521  0.2920 -0.0877
36397SOL    HW114321   8.206   6.336  11.061 -1.4874 -0.1991  0.0578
36397SOL    HW214322   8.209   6.484  11.029  0.5871 -0.2926 -0.2495
36398SOL     OW14323   5.453   2.907   7.424  0.0191 -0.1306  0.5241
36398SOL    HW114324   5.424   2.819   7.400  0.4480 -0.6547  1.8799
36398SOL    HW214325   5.480   2.947   7.341 -0.4764 -1.1648 -0.1448
36399SOL     OW14326   8.566   9.444   3.705  0.6712 -0.4270  0.2538
36399SOL    HW114327   8.661   9.427   3.712  0.6910 -0.7817 -0.8417
36399SOL    HW214328   8.526   9.365   3.742  0.7982 -0.5829  0.0625
36400SOL     OW14329   4.013   8.991   7.942 -0.0639 -0.2330  0.6090
36400SOL    HW114330   3.971   8.916   7.984  0.1267 -0.4981  0.3314
36400SOL    HW214331   3.954   9.013   7.870 -0.1175 -0.1190  0.6873
36401SOL     OW14332   3.256   6.688   8.156 -0.0403 -0.3919  0.0649
36401SOL    HW114333   3.302   6.661   8.236 -0.0798 -0.8239 -0.0535
36401SOL    HW214334   3.283   6.624   8.091  1.1077  0.8030 -0.6492
36402SOL     OW14335   7.078   5.222   6.292 -0.2555  0.0829  0.0771
36402SOL    HW114336   7.032   5.267   6.222 -1.4082  1.3681  1.6100
36402SOL    HW214337   7.017   5.226   6.366  0.4745 -2.2252  0.8194
36403SOL     OW14338  11.144   9.883   9.899 -0.1149  0.6666 -0.0872
36403SOL    HW114339  11.153   9.962   9.846  0.7285  2.7175  3.0304
36403SOL    HW214340  11.231   9.842   9.897  0.0704  1.0540  0.2249
36404SOL     OW14341   1.025   9.218   5.270 -0.0419 -0.3670  0.1741
36404SOL    HW114342   0.948   9.275   5.273 -0.1210 -0.4178 -0.7739
36404SOL    HW214343   1.099   9.278   5.269 -0.1710 -0.1432 -3.7286
36405SOL     OW14344  10.912   7.042  10.647 -0.2225 -0.3236  0.2150
36405SOL    HW114345  10.845   7.054  10.715 -0.6277 -0.7948 -0.0978
36405SOL    HW214346  10.935   6.950  10.652  0.5332 -0.1211  0.4376
36406SOL     OW14347   8.120   0.061  10.606 -0.1126 -0.6842  0.6367
36406SOL    HW114348   8.043   0.024  10.650  0.6390 -2.1463  0.7807
36406SOL    HW214349   8.191   0.048  10.669  0.9540 -2.6944 -0.9194
36407SOL     OW14350   6.012  10.108   8.630 -0.8905 -0.0160  0.4194
36407SOL    HW114351   6.033  10.050   8.557  0.1339  0.5274  0.2737
36407SOL    HW214352   5.984  10.190   8.588 -0.8341  0.1104  0.6264
36408SOL     OW14353   6.947   1.312   1.984 -0.5758  0.3012  0.1793
36408SOL    HW114354   7.024   1.359   1.952 -0.0301 -1.1489 -0.6842
36408SOL    HW214355   6.965   1.293   2.076  0.0054  0.1566  0.0334
36409SOL     OW14356   6.585   0.105   6.460 -0.3481  0.1506  0.0272
36409SOL    HW114357   6.670   0.125   6.422 -0.8108  2.0735 -0.0243
36409SOL    HW214358   6.563   0.019   6.424  1.3159 -0.1284 -0.3764
36410SOL     OW14359   4.851  11.106   3.147 -0.3695 -0.6060  0.0016
36410SOL    HW114360   4.820  11.096   3.057 -0.0559  3.7244 -0.6986
36410SOL    HW214361   4.946  11.101   3.140 -0.3560 -0.4914  0.1067
36411SOL     OW14362   8.414   1.428   3.820 -0.2094  0.6341  0.1065
36411SOL    HW114363   8.433   1.457   3.731 -1.1467  1.6303  0.2242
36411SOL    HW214364   8.499   1.404   3.856  0.6807  3.6134  0.1258
36412SOL     OW14365   0.123   4.931   0.390  0.2092 -0.3172 -0.0280
36412SOL    HW114366   0.142   4.974   0.306 -2.1120  1.4085  0.2663
36412SOL    HW214367   0.125   5.002   0.454  0.1590 -1.3074  1.0892
36413SOL     OW14368   9.238   9.923  11.066 -0.3225  0.2351 -0.7789
36413SOL    HW114369   9.274   9.882  11.144 -0.1954 -0.0817 -1.0021
36413SOL    HW214370   9.266  10.014  11.072  0.8999 -0.1080 -1.1814
36414SOL     OW14371   2.627   4.359   0.688  0.0858  0.6314 -0.3356
36414SOL    HW114372   2.673   4.442   0.679  1.1536 -0.0688 -1.5971
36414SOL    HW214373   2.674   4.299   0.630 -0.9933 -0.7173  0.1409
36415SOL     OW14374   9.273  11.084   1.330 -0.4447  0.0033 -0.5526
36415SOL    HW114375   9.268  11.167   1.283 -0.0615  0.9145  0.9730
36415SOL    HW214376   9.363  11.081   1.363 -0.5582 -0.8648 -0.3091
36416SOL     OW14377   9.336   8.103   3.614 -0.9218 -0.4591  0.7037
36416SOL    HW114378   9.424   8.131   3.587 -1.3254 -1.0814 -1.3210
36416SOL    HW214379   9.352   8.023   3.665 -0.2933 -0.4774  0.4872
36417SOL     OW14380   1.031   1.385   2.790  0.0430 -0.2212 -0.5214
36417SOL    HW114381   0.948   1.431   2.801 -0.0535 -0.8195  1.4758
36417SOL    HW214382   1.034   1.363   2.697 -0.8451  2.0174 -1.1151
36418SOL     OW14383   0.750   4.322   8.961 -0.2058 -0.2665  0.3061
36418SOL    HW114384   0.673   4.288   9.007  1.8211 -1.9389  2.6340
36418SOL    HW214385   0.761   4.263   8.886 -1.7220  0.5786 -0.6050
36419SOL     OW14386   3.670   3.164   0.562  0.1958  0.0044  0.0375
36419SOL    HW114387   3.628   3.208   0.636 -1.2643 -3.1983  1.2275
36419SOL    HW214388   3.601   3.161   0.495  0.8453  1.0509 -0.6827
36420SOL     OW14389   8.723   5.540   4.101 -0.3666 -0.6987 -0.1668
36420SOL    HW114390   8.780   5.616   4.092  0.5679 -1.2052  1.1938
36420SOL    HW214391   8.762   5.474   4.044 -2.0354  0.2885 -2.5212
36421SOL     OW14392   1.462   9.847  10.431 -0.5199 -0.2200  0.0230
36421SOL    HW114393   1.429   9.824  10.344  0.2342 -1.1452 -0.0252
36421SOL    HW214394   1.512   9.770  10.458 -0.5584  0.1627  1.1757
36422SOL     OW14395   1.728   7.631   2.618  0.4373  0.2583 -0.0200
36422SOL    HW114396   1.731   7.697   2.549 -0.9408  1.1839  0.7681
36422SOL    HW214397   1.749   7.679   2.698  0.5585 -0.4871  0.3970
36423SOL     OW14398  10.669   3.567   1.007  0.1665 -0.2813 -0.4999
36423SOL    HW114399  10.593   3.621   1.028  0.5754  0.6746 -1.4661
36423SOL    HW214400  10.633   3.479   0.994 -0.5497 -0.1671  0.6913
36424SOL     OW14401  10.639   5.402   9.560  0.5378 -0.4140  0.3450
36424SOL    HW114402  10.597   5.393   9.474  0.2521  0.1735  0.4205
36424SOL    HW214403  10.637   5.496   9.577  0.7140 -0.5204  0.9403
36425SOL     OW14404   8.470   9.397   2.876 -0.2234  0.6665  0.2127
36425SOL    HW114405   8.528   9.473   2.883  0.7189  0.1710 -1.9077
36425SOL    HW214406   8.529   9.322   2.868 -1.1488 -0.0772  0.2111
36426SOL     OW14407   9.562   5.734   0.111 -0.3226 -0.0543 -0.3708
36426SOL    HW114408   9.551   5.746   0.206  1.1069 -0.1802 -0.1825
36426SOL    HW214409   9.474   5.747   0.076 -0.7106  0.8889  0.8840
36427SOL     OW14410   4.255  11.121   0.684 -0.0132  0.1314  0.5578
36427SOL    HW114411   4.264  11.026   0.687 -0.4159  0.1334  2.0247
36427SOL    HW214412   4.345  11.154   0.692 -0.0978 -0.0866  2.5878
36428SOL     OW14413   0.093   0.887   9.088  0.8510 -0.4533 -0.1721
36428SOL    HW114414   0.117   0.794   9.079  0.8385 -0.3561 -1.3793
36428SOL    HW214415   0.053   0.909   9.004 -1.5113 -0.0267  1.0385
36429SOL     OW14416   0.910   4.602   7.073  0.7211  0.6398 -0.4457
36429SOL    HW114417   0.936   4.681   7.026  0.7878  0.7549 -0.2152
36429SOL    HW214418   0.937   4.618   7.163 -2.1169  1.6875  0.2789
36430SOL     OW14419   3.528   2.022   0.403  0.5470 -0.0727  0.2965
36430SOL    HW114420   3.476   2.064   0.335  0.6943 -0.0294  0.2112
36430SOL    HW214421   3.485   2.047   0.485 -0.0168 -0.6687  0.1849
36431SOL     OW14422   9.361   9.807   8.970  0.8101  0.1587  0.0450
36431SOL    HW114423   9.365   9.858   9.051  0.4617 -0.3040  0.3550
36431SOL    HW214424   9.415   9.856   8.908  0.3564  0.9818  0.2973
36432SOL     OW14425   7.355   1.645   1.290 -0.4343 -0.6036  0.2056
36432SOL    HW114426   7.353   1.550   1.289  4.7846 -0.8705  0.5048
36432SOL    HW214427   7.407   1.669   1.212 -1.6577  1.9934  0.1325
36433SOL     OW14428   9.510   5.379   4.427  0.0502  0.3267  0.0513
36433SOL    HW114429   9.428   5.332   4.413  0.3750 -0.6796  1.4602
36433SOL    HW214430   9.558   5.325   4.489  1.0093  1.8382  0.6460
36434SOL     OW14431   8.770   3.470  10.462 -0.6333 -0.2609  0.0548
36434SOL    HW114432   8.847   3.521  10.486 -0.9725 -0.4268  1.5266
36434SOL    HW214433   8.794   3.380  10.483 -1.4666 -0.2318  1.1700
36435SOL     OW14434  10.098   9.876  10.284  0.7502  0.9042  0.7070
36435SOL    HW114435  10.114   9.803  10.343  1.4811 -1.2838 -2.1171
36435SOL    HW214436  10.171   9.873  10.222  0.1540  3.3232 -0.1786
36436SOL     OW14437   4.879   7.368   1.701 -0.2716  0.1789 -0.3063
36436SOL    HW114438   4.819   7.310   1.750 -0.6173  1.5003  0.8586
36436SOL    HW214439   4.964   7.326   1.710 -0.2551  0.6282  1.8218
36437SOL     OW14440   4.902  11.274   7.810 -0.0005 -0.5359  0.5233
36437SOL    HW114441   4.959  11.326   7.753 -0.5638 -1.5274 -0.9712
36437SOL    HW214442   4.962  11.214   7.854  0.1610 -1.6426 -1.1219
36438SOL     OW14443  10.688   1.056   1.111  0.1188 -0.1241 -0.9460
36438SOL    HW114444  10.713   1.129   1.168  0.7733 -0.4684 -0.7921
36438SOL    HW214445  10.593   1.062   1.105  0.3305  2.0234 -2.6247
36439SOL     OW14446   4.047   2.331   0.862 -0.5734  0.1545 -0.3049
36439SOL    HW114447   4.074   2.307   0.773  1.0651  0.1638  0.1660
36439SOL    HW214448   3.998   2.412   0.851  0.1956  0.5138 -1.1350
36440SOL     OW14449   0.696   1.838  11.189 -0.1385  0.1095 -0.2266
36440SOL    HW114450   0.645   1.837  11.270 -1.3320  0.7561 -0.9541
36440SOL    HW214451   0.642   1.889  11.128  0.3512 -1.0893 -1.6784
36441SOL     OW14452   7.324   8.606   4.748  0.5177 -0.7947 -0.0277
36441SOL    HW114453   7.229   8.594   4.761  0.4079 -0.9223 -0.9090
36441SOL    HW214454   7.332   8.696   4.716  0.5823 -1.1902 -1.1157
36442SOL     OW14455   4.980  10.351   5.266  0.5775  0.0639 -0.2694
36442SOL    HW114456   4.939  10.284   5.211  1.8415 -0.1465 -0.9757
36442SOL    HW214457   4.948  10.434   5.231  0.1627 -0.1174 -0.3251
36443SOL     OW14458   4.426   4.822   1.122 -0.1807  0.6162  0.1635
36443SOL    HW114459   4.453   4.910   1.147  0.2562  0.8860 -1.2544
36443SOL    HW214460   4.493   4.793   1.060 -0.8134 -0.3638 -0.0668
36444SOL     OW14461   9.058   0.857   0.555 -0.7915  0.1103  0.1628
36444SOL    HW114462   9.137   0.864   0.501 -1.8210  2.5105 -1.1292
36444SOL    HW214463   9.088   0.869   0.645  0.5743 -1.1368 -0.1051
36445SOL     OW14464   5.013   0.699   2.085  0.7135 -0.0919  0.1435
36445SOL    HW114465   5.107   0.694   2.102  0.8257  0.0472 -0.4368
36445SOL    HW214466   4.978   0.618   2.120  0.9251  0.2509  1.1743
36446SOL     OW14467   4.491   5.413   5.033  0.2389 -0.0362 -0.3356
36446SOL    HW114468   4.550   5.367   4.974  0.0073 -0.7554 -0.0219
36446SOL    HW214469   4.425   5.347   5.057  0.1996  0.3076  0.5334
36447SOL     OW14470   4.397   4.138   1.680 -0.0168  0.0577  0.1619
36447SOL    HW114471   4.433   4.153   1.767  0.3612 -2.9010  0.5720
36447SOL    HW214472   4.302   4.136   1.693 -0.1177  2.5312 -0.0192
36448SOL     OW14473   6.622   2.244   2.797  0.3599  0.6951 -0.9642
36448SOL    HW114474   6.570   2.266   2.874  0.0053 -0.9324 -0.7218
36448SOL    HW214475   6.707   2.218   2.833  0.3410  0.3666 -1.1624
36449SOL     OW14476   0.685   0.204   0.774 -0.0045 -0.5582 -0.0879
36449SOL    HW114477   0.686   0.160   0.689 -0.3194  1.7570 -1.3521
36449SOL    HW214478   0.705   0.296   0.753  1.5069 -0.2423  2.5337
36450SOL     OW14479   3.588   9.696   5.400 -0.0627  0.1259 -0.4707
36450SOL    HW114480   3.559   9.637   5.470 -0.3566  1.8491  0.9046
36450SOL    HW214481   3.533   9.773   5.409  0.7812  0.9077 -1.7899
36451SOL     OW14482   0.359   5.323  10.791 -0.1632  0.3225 -0.4632
36451SOL    HW114483   0.406   5.348  10.711 -0.8208  1.6172 -0.4538
36451SOL    HW214484   0.408   5.366  10.861  0.3019 -0.6606 -0.1793
36452SOL     OW14485  10.903   3.711  10.708  0.0199  0.2379 -0.1586
36452SOL    HW114486  10.921   3.632  10.759  0.8841  0.2271 -0.4792
36452SOL    HW214487  10.983   3.727  10.659 -0.3919  0.9264 -0.6190
36453SOL     OW14488   9.251   7.479   2.470 -0.0706  0.3876 -0.1639
36453SOL    HW114489   9.198   7.459   2.547 -2.0584 -0.1337 -1.6153
36453SOL    HW214490   9.339   7.491   2.504 -0.8911  0.0703  2.1743
36454SOL     OW14491   3.291   6.484   4.363 -0.2106 -0.4346  0.2707
36454SOL    HW114492   3.320   6.575   4.368 -0.2579 -0.4241  0.3440
36454SOL    HW214493   3.247   6.478   4.278  0.7473 -0.6655 -0.2182
36455SOL     OW14494   1.774   2.266   6.451  0.0988 -0.6115  0.4126
36455SOL    HW114495   1.799   2.176   6.432 -0.7479 -0.7624  0.0013
36455SOL    HW214496   1.679   2.263   6.461 -0.0243  0.3903 -0.4443
36456SOL     OW14497  10.668   1.355   7.126  0.3172  0.6199  0.3049
36456SOL    HW114498  10.690   1.267   7.156 -0.9150  0.6742  1.4350
36456SOL    HW214499  10.573   1.353   7.114  0.3740  1.5783 -0.4042
36457SOL     OW14500  10.191   3.375  11.263  0.4929  0.2102 -0.1499
36457SOL    HW114501  10.206   3.394  11.355 -0.0637  0.8141 -0.1866
36457SOL    HW214502  10.104   3.335  11.260  1.9535 -3.2069  0.0467
36458SOL     OW14503   5.418   3.567   3.410  0.3491  0.4960  0.0415
36458SOL    HW114504   5.511   3.557   3.390  0.2935  1.9902 -1.0027
36458SOL    HW214505   5.374   3.552   3.326 -0.3723 -0.2808  0.5470
36459SOL     OW14506   3.068   6.178   4.964  0.2409 -0.4542  0.1081
36459SOL    HW114507   3.148   6.129   4.983 -0.7413 -1.7279  1.1096
36459SOL    HW214508   3.056   6.170   4.870  0.3162 -1.8342  0.2056
36460SOL     OW14509   2.168   7.674   3.651 -0.6325  0.2653  0.3337
36460SOL    HW114510   2.111   7.750   3.647 -1.2065 -0.1264  0.9476
36460SOL    HW214511   2.162   7.644   3.742 -2.0954 -1.8048 -0.4080
36461SOL     OW14512   1.580   0.621   3.791 -0.5585 -0.0529  0.3273
36461SOL    HW114513   1.536   0.703   3.812  0.7114  0.8812 -0.5946
36461SOL    HW214514   1.515   0.570   3.742 -0.8233  1.0680 -0.5044
36462SOL     OW14515   7.392   4.017   7.759  0.4572  0.1223 -0.2486
36462SOL    HW114516   7.418   4.086   7.820  0.4201 -0.0840 -0.0010
36462SOL    HW214517   7.325   4.058   7.704  1.5700  0.7723 -1.1337
36463SOL     OW14518   1.761   4.321   1.807  0.7240  0.1079 -0.2430
36463SOL    HW114519   1.842   4.363   1.834  0.5383  0.6067 -0.4616
36463SOL    HW214520   1.785   4.229   1.795  1.2568  0.2571 -0.3256
36464SOL     OW14521   0.358   8.148   3.136 -0.4330  0.2968  0.1420
36464SOL    HW114522   0.285   8.199   3.171 -1.6575 -1.2699 -0.0563
36464SOL    HW214523   0.317   8.074   3.091  1.2788 -1.3113  1.1151
36465SOL     OW14524  10.091   8.375   3.912  0.1199 -0.0978 -0.1446
36465SOL    HW114525  10.064   8.288   3.941  0.4172  0.2119  1.0803
36465SOL    HW214526  10.182   8.364   3.885  0.4693  0.0453  0.9618
36466SOL     OW14527   2.209   3.263   4.288 -0.2692 -0.8050 -0.2591
36466SOL    HW114528   2.190   3.308   4.370 -0.9680 -1.1325 -0.2406
36466SOL    HW214529   2.297   3.227   4.300 -1.0200 -2.2475  0.9733
36467SOL     OW14530   6.091   4.607   1.469  0.5278 -0.2264  0.2512
36467SOL    HW114531   6.016   4.566   1.513 -1.0493 -0.4096 -2.5575
36467SOL    HW214532   6.166   4.552   1.496 -0.6251 -1.2607  1.4514
36468SOL     OW14533   1.579   9.885   3.355  0.0239  0.4023 -0.1037
36468SOL    HW114534   1.586   9.798   3.314  2.1756  0.9858 -1.0751
36468SOL    HW214535   1.506   9.877   3.416  0.0463 -2.0350 -0.3399
36469SOL     OW14536   2.483   6.173   1.694  0.4314 -0.3778  0.5212
36469SOL    HW114537   2.453   6.101   1.749 -1.0842 -0.1976 -0.0260
36469SOL    HW214538   2.409   6.234   1.693  0.9335  0.2244 -0.6650
36470SOL     OW14539  10.468   1.826   3.678  0.2799  0.1986  0.1356
36470SOL    HW114540  10.528   1.821   3.604  0.4632  0.9257  0.2278
36470SOL    HW214541  10.510   1.887   3.739  0.8417 -1.4694  1.4916
36471SOL     OW14542   0.699   5.030   2.106  0.5831 -0.7512 -0.2161
36471SOL    HW114543   0.771   5.064   2.158  0.1574 -1.4398  0.8286
36471SOL    HW214544   0.680   4.944   2.143 -1.9999  0.1720  0.7365
36472SOL     OW14545   9.929   2.388   4.739  0.4322  0.1988  0.0672
36472SOL    HW114546   9.924   2.480   4.710  1.8521  0.3047  0.1357
36472SOL    HW214547   9.838   2.358   4.736 -0.3136  2.1180  1.7398
36473SOL     OW14548  10.942   9.037   6.004 -0.7618  0.3963  0.1110
36473SOL    HW114549  10.960   9.042   6.098 -0.1995 -0.9035  0.0738
36473SOL    HW214550  10.847   9.042   5.998 -0.8601 -0.4418  0.8213
36474SOL     OW14551   7.230   1.125   8.326  0.3506  0.2988 -0.3358
36474SOL    HW114552   7.299   1.109   8.262 -0.8745 -1.6848 -1.2030
36474SOL    HW214553   7.156   1.159   8.275 -1.2304 -2.9260 -0.2914
36475SOL     OW14554   8.803   3.347   6.447  0.0463  0.4513 -0.0713
36475SOL    HW114555   8.735   3.353   6.514  0.1751 -0.1744  0.1232
36475SOL    HW214556   8.755   3.334   6.366 -0.0228 -2.2609  0.3577
36476SOL     OW14557   9.496   7.793   6.476  0.5017  0.9740 -0.9494
36476SOL    HW114558   9.581   7.821   6.508  0.1345  2.6535 -1.3941
36476SOL    HW214559   9.440   7.788   6.554  0.2604  2.6565 -1.0015
36477SOL     OW14560   0.566   7.985   6.556 -0.6779  0.5199 -0.3673
36477SOL    HW114561   0.517   7.912   6.593  0.7187 -0.0394  0.4451
36477SOL    HW214562   0.501   8.039   6.512 -2.2371  0.5347  1.8697
36478SOL     OW14563   8.396   1.300   5.706 -0.3761  0.3778  0.2915
36478SOL    HW114564   8.301   1.310   5.713 -0.4582 -0.2178  0.1086
36478SOL    HW214565   8.408   1.209   5.678  0.2266  0.6194 -0.2367
36479SOL     OW14566   9.180   8.797   3.659 -0.3409 -0.2323  0.0907
36479SOL    HW114567   9.214   8.708   3.670  0.1474  0.1409  1.8129
36479SOL    HW214568   9.104   8.801   3.716  0.3959  0.8392  1.0225
36480SOL     OW14569   5.311   8.339  10.148  0.4589 -0.1268 -0.1262
36480SOL    HW114570   5.352   8.358  10.233 -0.0384  2.4890 -0.4149
36480SOL    HW214571   5.385   8.319  10.090  0.9454 -0.0753  0.4653
36481SOL     OW14572   2.880   5.762   4.839  0.3649  0.0636  0.3738
36481SOL    HW114573   2.837   5.768   4.924 -1.4157 -0.2091 -0.5062
36481SOL    HW214574   2.913   5.672   4.835 -0.1664 -0.1327  0.4628
36482SOL     OW14575   1.284   5.916   4.741  0.3351  0.7838 -0.0440
36482SOL    HW114576   1.329   5.931   4.824 -0.4188 -0.1364  0.5500
36482SOL    HW214577   1.324   5.836   4.706 -1.4116 -0.5632  0.9347
36483SOL     OW14578   8.556   3.303   9.220 -0.4248  0.0876  0.3102
36483SOL    HW114579   8.596   3.341   9.142 -1.9791  0.0587 -0.5283
36483SOL    HW214580   8.512   3.376   9.264 -1.7240 -0.3332 -0.2418
36484SOL     OW14581   5.359   4.473   0.775  0.5893 -0.0316  0.2742
36484SOL    HW114582   5.350   4.547   0.835  3.5597  0.5060  0.1429
36484SOL    HW214583   5.294   4.410   0.805 -2.7717  3.0226 -0.2769
36485SOL     OW14584   8.138   2.028   6.991  0.3412  0.0208  0.0001
36485SOL    HW114585   8.065   1.977   7.026  0.5919 -0.4839 -0.2039
36485SOL    HW214586   8.135   2.111   7.040 -1.3157  0.6272 -1.0803
36486SOL     OW14587   4.410   0.023   8.319 -0.2785 -0.2934 -0.3920
36486SOL    HW114588   4.472  -0.021   8.260  1.1404  0.6454  0.3771
36486SOL    HW214589   4.328  -0.025   8.307  0.9371 -2.4713 -0.4051
36487SOL     OW14590   7.356   9.286   4.152 -0.0646  0.3637  0.3752
36487SOL    HW114591   7.321   9.350   4.090  0.3320 -0.2723 -0.5178
36487SOL    HW214592   7.451   9.295   4.146 -0.0249  0.9944  1.6414
36488SOL     OW14593   2.984   5.528   2.749 -0.2599 -0.1742 -0.3298
36488SOL    HW114594   3.001   5.434   2.741  0.3890 -0.0997  0.1076
36488SOL    HW214595   2.901   5.533   2.796  0.1716 -0.5281  0.4829
36489SOL     OW14596   1.205   7.215   7.533 -0.3880 -0.5159 -0.2243
36489SOL    HW114597   1.280   7.164   7.502  0.3063  0.0863  0.4437
36489SOL    HW214598   1.189   7.279   7.463 -1.1585 -1.5352 -0.9899
36490SOL     OW14599   0.358   7.895   0.433 -0.2101 -0.5076 -0.6103
36490SOL    HW114600   0.314   7.974   0.402  0.7674  0.3686  0.2000
36490SOL    HW214601   0.339   7.892   0.526  1.6708  0.0747 -0.1660
36491SOL     OW14602   8.822   7.833   6.121 -0.1522 -0.3029 -0.2439
36491SOL    HW114603   8.903   7.812   6.167 -1.1087  0.1853  1.7252
36491SOL    HW214604   8.825   7.928   6.110  0.1851 -0.4398 -1.4584
36492SOL     OW14605   9.442   7.882   7.030 -0.1441  0.0414  0.2969
36492SOL    HW114606   9.439   7.804   6.975  1.6221  0.1769 -0.0165
36492SOL    HW214607   9.519   7.870   7.086 -0.2611  1.2341  0.7364
36493SOL     OW14608   6.020   8.318   5.975  0.3923  0.0215 -0.0854
36493SOL    HW114609   6.031   8.406   6.013  0.5639  1.0180 -2.3465
36493SOL    HW214610   6.071   8.261   6.032  2.1440  1.7531  0.1351
36494SOL     OW14611   6.818   5.924   7.776  0.8311 -0.0651  0.5866
36494SOL    HW114612   6.877   5.851   7.795  1.8652  1.1479  2.1702
36494SOL    HW214613   6.808   5.969   7.860 -0.3426  1.2119 -0.2161
36495SOL     OW14614   1.551   2.358   1.001 -0.4734  0.4313  0.0174
36495SOL    HW114615   1.592   2.353   0.915 -1.6449 -1.0748 -0.4847
36495SOL    HW214616   1.457   2.359   0.983 -0.7505 -0.5567  1.2949
36496SOL     OW14617  10.184   4.053   7.748  0.2539 -0.0913 -0.3741
36496SOL    HW114618  10.159   4.009   7.667 -2.1075  1.1877 -0.3734
36496SOL    HW214619  10.104   4.055   7.800  1.2043  1.0507  1.0874
36497SOL     OW14620   3.496   2.039   4.727 -0.5256 -0.6777 -0.4213
36497SOL    HW114621   3.585   2.060   4.699  0.3949 -2.0604  1.3644
36497SOL    HW214622   3.440   2.096   4.674  1.4923  1.2402 -0.5659
36498SOL     OW14623   7.091   9.783   8.391 -0.0020  0.4219  0.1289
36498SOL    HW114624   7.050   9.825   8.315 -0.7306 -2.0900 -0.9512
36498SOL    HW214625   7.017   9.752   8.443  0.4826 -1.1473 -0.0807
36499SOL     OW14626  10.657  11.049   0.353 -0.2279 -0.0695 -0.3594
36499SOL    HW114627  10.597  10.996   0.301 -0.0850  0.3433 -0.9549
36499SOL    HW214628  10.690  11.115   0.292  0.8435 -0.2962 -0.0447
36500SOL     OW14629  10.778  10.308   8.552 -0.7913 -0.3798  0.5949
36500SOL    HW114630  10.802  10.233   8.606  2.7482  1.1000  1.2114
36500SOL    HW214631  10.736  10.369   8.613 -2.3894 -1.2309  0.3748
36501SOL     OW14632   0.113   1.190   0.947 -0.0679 -0.4763 -0.1612
36501SOL    HW114633   0.092   1.283   0.947 -0.9947 -0.6814 -0.4827
36501SOL    HW214634   0.208   1.187   0.940 -0.1000  0.4381 -1.0876
36502SOL     OW14635   5.091   5.011   5.956 -0.4571 -0.1285  0.4363
36502SOL    HW114636   5.108   5.080   5.892  0.9394 -1.2355 -0.4158
36502SOL    HW214637   5.065   4.935   5.903 -0.3774 -0.7327  1.2466
36503SOL     OW14638   0.326   0.635   4.819 -0.1562  0.0947  0.3628
36503SOL    HW114639   0.332   0.728   4.837 -0.4978  0.1582  0.1435
36503SOL    HW214640   0.416   0.609   4.796 -0.5294  0.8920 -2.1157
36504SOL     OW14641   4.326   5.760   3.466 -0.4609  0.3683 -0.0352
36504SOL    HW114642   4.288   5.682   3.426 -0.4747  0.4931 -0.2674
36504SOL    HW214643   4.293   5.832   3.413  0.0454  0.4825 -0.1977
36505SOL     OW14644   5.569  10.796   1.138 -0.0933  0.1473  0.3765
36505SOL    HW114645   5.521  10.757   1.211 -0.1788  1.1714  0.8836
36505SOL    HW214646   5.616  10.870   1.177 -0.0818  0.6582 -0.5851
36506SOL     OW14647   7.074   5.261   3.265 -0.2877  0.7808  0.3179
36506SOL    HW114648   7.012   5.190   3.247  0.2981  0.4496 -0.4284
36506SOL    HW214649   7.128   5.228   3.337  0.1875  0.3444 -0.2399
36507SOL     OW14650   2.490   8.290   3.447 -0.6131  0.0406  0.3111
36507SOL    HW114651   2.431   8.344   3.500 -2.9217 -0.6310 -1.4452
36507SOL    HW214652   2.495   8.206   3.493 -2.9020 -0.6653 -0.6435
36508SOL     OW14653   8.016   2.754   1.748  0.0397  0.8015  0.6462
36508SOL    HW114654   8.064   2.822   1.701  0.0785  1.7686  2.0528
36508SOL    HW214655   8.005   2.684   1.684  2.4481  0.9752 -0.0030
36509SOL     OW14656   4.125   9.246   9.001 -0.6085 -0.6410 -0.2821
36509SOL    HW114657   4.165   9.310   9.059 -1.5240  0.2692 -0.6550
36509SOL    HW214658   4.199   9.195   8.967 -0.1392 -1.8486  2.4408
36510SOL     OW14659   2.156   4.745   1.753  0.6655 -0.5860  0.0310
36510SOL    HW114660   2.225   4.761   1.688 -0.0085 -0.2991 -0.6266
36510SOL    HW214661   2.075   4.750   1.703  0.1460 -0.5698  0.8673
36511SOL     OW14662   9.505   3.512   1.406 -0.6966  0.0836  0.1007
36511SOL    HW114663   9.579   3.572   1.392  0.0813 -1.0744 -0.8199
36511SOL    HW214664   9.436   3.568   1.443  0.0363  1.5353 -0.6667
36512SOL     OW14665   4.442   7.376   4.685  0.0579  0.3168  0.3529
36512SOL    HW114666   4.348   7.380   4.701  0.0112 -1.6356  0.6782
36512SOL    HW214667   4.453   7.304   4.623  1.3789  0.3063  0.5801
36513SOL     OW14668   6.673   3.506   1.683 -0.2041  0.1428  0.1444
36513SOL    HW114669   6.705   3.562   1.612 -0.9755 -1.1397 -1.2444
36513SOL    HW214670   6.737   3.435   1.688 -0.1230  0.2637  0.7615
36514SOL     OW14671   6.550   2.182   4.761 -0.1047  0.3862 -0.3438
36514SOL    HW114672   6.593   2.112   4.712  0.1021  0.4351 -0.2360
36514SOL    HW214673   6.459   2.179   4.734 -0.4230 -0.9507  0.8422
36515SOL     OW14674   8.477   2.820   7.704  0.1625 -0.4788  0.0234
36515SOL    HW114675   8.539   2.890   7.724  1.2038 -1.0811 -1.0126
36515SOL    HW214676   8.427   2.853   7.629  0.4103 -0.6949 -0.2373
36516SOL     OW14677   9.698   3.287   4.375  0.2477  0.2062  0.4487
36516SOL    HW114678   9.673   3.220   4.312 -1.8877  0.6128  0.8208
36516SOL    HW214679   9.639   3.274   4.449  1.0574  1.3006  1.3139
36517SOL     OW14680   2.279   6.666   2.215 -0.2529  0.1025  0.1078
36517SOL    HW114681   2.222   6.595   2.245  0.0506  0.5637  1.8224
36517SOL    HW214682   2.337   6.625   2.151 -0.4331 -1.0830  0.6924
36518SOL     OW14683   5.528   9.020   8.593  0.2874 -0.1394  0.0172
36518SOL    HW114684   5.503   8.965   8.667 -1.1043 -0.3014 -0.5693
36518SOL    HW214685   5.473   9.098   8.601 -0.5607 -0.5797 -1.3883
36519SOL     OW14686   7.082   8.371  10.586 -0.0030 -0.0939 -0.2668
36519SOL    HW114687   7.029   8.409  10.656  0.7520 -0.3171  0.4263
36519SOL    HW214688   7.128   8.299  10.627  1.1973  0.3802 -0.7652
36520SOL     OW14689   3.464   5.203   2.026 -0.2447 -0.0321 -0.2923
36520SOL    HW114690   3.403   5.231   2.094 -0.6571  0.6586 -0.9455
36520SOL    HW214691   3.411   5.152   1.965  0.0685 -0.4249 -0.2367
36521SOL     OW14692   5.690   4.488  11.120  0.2648  0.0493  0.2625
36521SOL    HW114693   5.643   4.564  11.154 -1.1439 -0.6055 -0.1711
36521SOL    HW214694   5.707   4.434  11.198 -0.2541  0.0091  0.3560
36522SOL     OW14695   4.373   0.822   5.610 -0.3200  0.2331  0.6095
36522SOL    HW114696   4.419   0.773   5.542  1.5597 -1.8886  3.2767
36522SOL    HW214697   4.384   0.914   5.587  0.9993 -0.4266 -1.4569
36523SOL     OW14698   7.529   8.364   6.798  0.1161  0.4564 -0.4509
36523SOL    HW114699   7.515   8.290   6.739  1.1218 -0.9222  0.9901
36523SOL    HW214700   7.612   8.402   6.769 -0.3889  0.9976 -1.1780
36524SOL     OW14701   2.785   1.069   6.493  0.1331 -0.3196 -0.3681
36524SOL    HW114702   2.723   1.081   6.565 -0.6547  0.5634 -1.1944
36524SOL    HW214703   2.737   1.095   6.415  0.2314 -3.3932 -1.5359
36525SOL     OW14704  11.069   9.242  11.132 -0.5074 -0.0003  0.0633
36525SOL    HW114705  11.120   9.181  11.078 -0.0402  1.1688 -0.8436
36525SOL    HW214706  11.126   9.319  11.142 -0.7681 -0.0240  1.8701
36526SOL     OW14707   7.438   6.111   5.599 -0.2931  0.4215 -0.5108
36526SOL    HW114708   7.442   6.036   5.658 -0.6655 -1.0429 -2.2854
36526SOL    HW214709   7.353   6.150   5.615 -0.0174  0.5989  0.5667
36527SOL     OW14710   9.237  10.580  10.359 -0.0774  0.4501 -0.0215
36527SOL    HW114711   9.181  10.620  10.426  0.3076 -0.9863  1.1943
36527SOL    HW214712   9.326  10.599  10.388  0.1030  1.7340 -1.3369
36528SOL     OW14713   1.700   6.991  10.566  0.3466 -0.2886 -0.1480
36528SOL    HW114714   1.716   6.985  10.472 -1.1496  0.1997 -0.4523
36528SOL    HW214715   1.728   7.079  10.590 -0.4372  0.0326 -0.3886
36529SOL     OW14716  10.805   2.469   3.659  0.1940  0.0529  0.4590
36529SOL    HW114717  10.723   2.517   3.667  0.6036  0.7247  0.7378
36529SOL    HW214718  10.872   2.533   3.683  0.8654 -0.2125 -0.6865
36530SOL     OW14719   3.998   2.878   3.456 -0.1054  0.1534 -0.1318
36530SOL    HW114720   4.072   2.921   3.413 -0.0068  1.3095  1.1892
36530SOL    HW214721   3.926   2.940   3.447 -0.9541 -0.9758 -1.4284
36531SOL     OW14722   2.982   5.633   3.312 -0.1824 -0.5669  0.1107
36531SOL    HW114723   2.892   5.607   3.293 -0.3649  0.0873  0.0665
36531SOL    HW214724   2.991   5.623   3.406 -0.2104 -0.9241  0.0747
36532SOL     OW14725   7.582   0.363   3.636 -0.0834 -0.8632  0.1489
36532SOL    HW114726   7.624   0.357   3.722 -1.3752  0.9570  0.9552
36532SOL    HW214727   7.493   0.332   3.651 -0.2803 -0.6380 -0.5626
36533SOL     OW14728   1.036   6.097   1.736 -0.0400  0.2860  0.2843
36533SOL    HW114729   0.958   6.087   1.681  0.1591 -1.4893  0.3072
36533SOL    HW214730   1.100   6.138   1.679  0.2022 -1.6425 -0.8763
36534SOL     OW14731   1.143   5.911   2.851  0.6718 -0.1784 -0.0548
36534SOL    HW114732   1.160   5.954   2.935 -0.0111 -1.0755  0.5449
36534SOL    HW214733   1.126   5.983   2.790 -0.8003  0.3929  1.0153
36535SOL     OW14734   9.356   1.532  10.275 -0.6984 -0.3090 -0.2876
36535SOL    HW114735   9.270   1.494  10.296 -1.1478  0.2615 -1.0608
36535SOL    HW214736   9.414   1.499  10.344 -1.5691 -0.5788  0.3326
36536SOL     OW14737  11.190   0.308   0.779 -1.2250 -0.4526  0.0666
36536SOL    HW114738  11.272   0.270   0.810 -1.6851 -0.3960  1.4158
36536SOL    HW214739  11.215   0.369   0.710 -0.0513  0.1070  0.9654
36537SOL     OW14740   4.248   5.063   5.931  0.2054 -0.2565  0.0144
36537SOL    HW114741   4.307   5.018   5.992  0.2937 -0.3946 -0.1731
36537SOL    HW214742   4.181   4.998   5.909 -1.1693  0.5372  1.8011
36538SOL     OW14743   1.494   9.587  10.952 -0.1678 -0.0663 -0.5055
36538SOL    HW114744   1.436   9.555  10.883 -0.3170 -1.4842  0.2533
36538SOL    HW214745   1.563   9.520  10.959  0.1992  0.3791  0.2734
36539SOL     OW14746   2.715   3.145   6.255  0.0398  0.3264 -0.4746
36539SOL    HW114747   2.711   3.066   6.202 -1.1220  0.0139  0.0479
36539SOL    HW214748   2.791   3.193   6.223 -0.8368  0.3009 -2.6268
36540SOL     OW14749  10.360   0.407  10.568 -0.2373 -0.0867  0.8635
36540SOL    HW114750  10.442   0.420  10.521  1.0702 -0.0102  3.0718
36540SOL    HW214751  10.321   0.330  10.527  1.0903 -0.2888 -0.0549
36541SOL     OW14752   3.100  10.331   7.111 -0.7011  0.4869  0.1257
36541SOL    HW114753   3.157  10.376   7.173 -0.8402  1.0430 -0.1410
36541SOL    HW214754   3.023  10.306   7.161 -1.2021  1.7077 -0.0082
36542SOL     OW14755   8.897   9.022   6.718  0.1625  0.0629  0.0068
36542SOL    HW114756   8.896   8.929   6.739 -1.6465  0.3303  1.1933
36542SOL    HW214757   8.909   9.026   6.623 -1.1895 -1.4103 -0.2288
36543SOL     OW14758   2.129   7.445   2.820 -0.3967  0.0119 -0.2260
36543SOL    HW114759   2.195   7.513   2.835  0.0500 -0.5853  0.5633
36543SOL    HW214760   2.178   7.369   2.790 -0.8079 -0.2003 -0.3671
36544SOL     OW14761   4.211   9.554   1.397  0.2379  0.1307 -0.2646
36544SOL    HW114762   4.234   9.470   1.358 -0.3174 -0.7714  1.3556
36544SOL    HW214763   4.292   9.584   1.438  0.0612 -0.2673  0.3692
36545SOL     OW14764   4.589   3.445   0.039 -0.3192  0.2237 -0.9497
36545SOL    HW114765   4.567   3.481  -0.047 -1.8855  1.1912 -0.1813
36545SOL    HW214766   4.505   3.443   0.086  0.4266 -0.7475  0.3847
36546SOL     OW14767   9.408   8.502   2.143 -0.1545  0.2854 -0.2802
36546SOL    HW114768   9.334   8.473   2.196  0.6611  0.5498  1.0308
36546SOL    HW214769   9.399   8.597   2.139  0.1924  0.3320  0.0111
36547SOL     OW14770   1.515   3.172   9.607  0.6739 -0.6619  0.5909
36547SOL    HW114771   1.452   3.244   9.599  1.8865  0.4496  0.7919
36547SOL    HW214772   1.552   3.163   9.519  0.1792 -1.3687  0.4537
36548SOL     OW14773   7.403   9.134   1.236  0.4372  0.3634  0.4819
36548SOL    HW114774   7.412   9.205   1.173  0.7663  1.5001  1.7865
36548SOL    HW214775   7.418   9.054   1.185 -0.6879  1.1716 -1.1429
36549SOL     OW14776   3.848   4.648   9.864 -0.1236  0.0131 -0.4900
36549SOL    HW114777   3.789   4.642   9.939 -1.6942  0.5533 -1.6582
36549SOL    HW214778   3.887   4.735   9.871 -0.1215 -0.0106 -0.1987
36550SOL     OW14779  10.322   0.997   9.010 -0.1665 -0.1185 -0.4413
36550SOL    HW114780  10.305   0.973   9.101 -1.7428  1.6492 -0.2264
36550SOL    HW214781  10.245   0.966   8.962 -2.4593  4.5470 -0.0923
36551SOL     OW14782   2.084   5.037  10.573  0.0107  0.0617 -0.2872
36551SOL    HW114783   2.038   5.064  10.652  1.4854  0.5410  0.4299
36551SOL    HW214784   2.080   5.114  10.516  0.7636  0.4485  0.1704
36552SOL     OW14785   8.521   0.784   4.344  0.3849  0.2027  0.8425
36552SOL    HW114786   8.520   0.863   4.290 -0.5988  1.4461  2.6181
36552SOL    HW214787   8.598   0.736   4.316 -0.0250  0.8836 -1.5614
36553SOL     OW14788   3.424   5.062   5.211  0.4119 -0.5415 -0.2823
36553SOL    HW114789   3.455   5.083   5.123 -0.2397 -0.8071 -0.5759
36553SOL    HW214790   3.415   5.147   5.254 -1.7166 -0.2043 -1.3070
36554SOL     OW14791   5.003  11.141   0.434 -0.7852 -0.1124  0.0379
36554SOL    HW114792   4.999  11.066   0.495 -2.6050  0.5327  0.7448
36554SOL    HW214793   4.952  11.112   0.358  0.8220 -0.6141 -0.8666
36555SOL     OW14794  10.354  10.687   5.868  0.3403  0.6609  0.1419
36555SOL    HW114795  10.370  10.593   5.867  0.2880  0.6518  0.2350
36555SOL    HW214796  10.314  10.704   5.953  0.2730  0.7550  0.0920
36556SOL     OW14797  10.535   4.285   1.534 -0.0846  1.0368 -0.1012
36556SOL    HW114798  10.446   4.259   1.557 -0.3356  2.3779  0.4807
36556SOL    HW214799  10.582   4.285   1.617  0.7926 -0.8601 -0.5670
36557SOL     OW14800   1.273   2.185   3.736  0.1918  0.4347 -0.3992
36557SOL    HW114801   1.231   2.103   3.761  0.0386  0.6827  0.1778
36557SOL    HW214802   1.208   2.252   3.756  0.2187  0.6740 -1.1181
36558SOL     OW14803   7.439   1.306   0.692  0.2021  0.3205  0.0427
36558SOL    HW114804   7.379   1.363   0.741 -0.7589  1.2966 -2.2022
36558SOL    HW214805   7.471   1.361   0.620  2.7888 -0.6180  0.4443
36559SOL     OW14806   4.369   5.206   7.995 -0.0073 -0.0106 -0.8137
36559SOL    HW114807   4.352   5.164   8.079  0.4943  3.0431  0.8999
36559SOL    HW214808   4.283   5.214   7.954 -0.5472  0.3421  0.3636
36560SOL     OW14809   6.870   1.997  10.524 -0.1402 -0.2545  0.2100
36560SOL    HW114810   6.813   2.071  10.506 -1.1214 -1.5035 -1.9704
36560SOL    HW214811   6.954   2.021  10.483  0.1630  0.4703  1.2178
36561SOL     OW14812   2.984   6.162   3.999  0.1100 -0.3036  0.2579
36561SOL    HW114813   3.061   6.202   3.959  0.0090  0.6740  1.0236
36561SOL    HW214814   2.954   6.227   4.063 -1.1027 -0.8450  0.2543
36562SOL     OW14815   6.394   0.786   5.129 -0.1600  0.3752  0.3206
36562SOL    HW114816   6.412   0.725   5.200 -0.2529 -0.8746 -0.7057
36562SOL    HW214817   6.327   0.844   5.163 -0.7025 -0.6445  1.0218
36563SOL     OW14818   4.965   5.620   8.458  0.2764 -0.4356  0.6212
36563SOL    HW114819   4.994   5.627   8.367  0.7544  0.7070  0.8600
36563SOL    HW214820   4.968   5.709   8.491 -3.6538 -0.2182  0.6422
36564SOL     OW14821   2.664  10.239   9.136  1.2556  0.0472 -0.0951
36564SOL    HW114822   2.748  10.250   9.090  1.3253  0.1536  0.0560
36564SOL    HW214823   2.618  10.172   9.085  1.1063  0.5547 -0.6396
36565SOL     OW14824   1.695   5.064   8.465  0.2461  0.9359  0.2217
36565SOL    HW114825   1.673   5.089   8.375 -0.1454 -1.8142 -0.4911
36565SOL    HW214826   1.614   5.075   8.513 -0.1178  0.3362 -0.2444
36566SOL     OW14827   1.381   4.491   7.410  0.0609 -0.3317 -0.1007
36566SOL    HW114828   1.444   4.549   7.367  0.9099 -1.4032 -0.3406
36566SOL    HW214829   1.400   4.405   7.373  0.5658 -1.2228  2.1293
36567SOL     OW14830   7.277   1.834   5.794  0.2923 -0.4206 -0.1291
36567SOL    HW114831   7.371   1.818   5.783  0.4544  0.4740 -0.0892
36567SOL    HW214832   7.241   1.823   5.706  0.5023 -0.3182 -0.2288
36568SOL     OW14833   9.447   0.457   0.860 -0.4757  0.3172  0.1929
36568SOL    HW114834   9.505   0.385   0.886 -0.3015 -0.4922 -2.3447
36568SOL    HW214835   9.492   0.500   0.788 -1.0216  2.4278  1.0866
36569SOL     OW14836   3.708   0.459   8.781 -0.3354  0.4895 -0.9919
36569SOL    HW114837   3.796   0.485   8.808 -0.3797 -0.1331 -0.2247
36569SOL    HW214838   3.660   0.541   8.772  0.0952  0.7851 -0.6028
36570SOL     OW14839   2.466   1.053   2.106 -0.5657  0.0816 -0.3582
36570SOL    HW114840   2.461   1.056   2.010 -0.9712  1.0944 -0.3112
36570SOL    HW214841   2.560   1.058   2.125 -0.4898 -0.0211 -0.6956
36571SOL     OW14842   3.217   2.749   5.253 -0.9037 -0.1629  0.3398
36571SOL    HW114843   3.288   2.797   5.211 -1.2023 -0.2779 -0.3023
36571SOL    HW214844   3.161   2.720   5.180 -1.8712  0.3505  0.8703
36572SOL     OW14845   1.136   2.292  10.926 -0.4202  0.8015 -0.5607
36572SOL    HW114846   1.043   2.309  10.915 -0.5898  0.2667 -0.0198
36572SOL    HW214847   1.152   2.308  11.019  0.2477  1.8981 -0.8598
36573SOL     OW14848   5.948   4.970  10.865  0.0290 -0.0235 -0.1135
36573SOL    HW114849   5.890   4.996  10.794 -0.8544  0.1887  0.6774
36573SOL    HW214850   5.959   4.876  10.854 -0.0693  0.0180 -0.5535
36574SOL     OW14851   2.627  10.534   1.019  0.2707  0.0715  0.4976
36574SOL    HW114852   2.553  10.537   1.080  0.9928  2.1888  1.3483
36574SOL    HW214853   2.638  10.442   0.999 -1.0533 -0.5172  2.2922
36575SOL     OW14854   9.439   6.063   4.980 -0.5236 -0.0081 -0.8476
36575SOL    HW114855   9.530   6.037   4.994 -0.1587  1.9032  0.6095
36575SOL    HW214856   9.441   6.116   4.900 -0.3949 -0.1121 -0.9137
36576SOL     OW14857   5.327   6.333   0.037 -0.4695 -0.2866 -0.2019
36576SOL    HW114858   5.292   6.292   0.116  1.0736  1.1247  1.2774
36576SOL    HW214859   5.271   6.410   0.023  0.3158  0.4181  0.5263
36577SOL     OW14860   9.987   7.794   3.326 -0.7089 -0.1983 -0.2076
36577SOL    HW114861  10.072   7.825   3.358 -1.4681 -0.0925  1.8019
36577SOL    HW214862   9.929   7.869   3.341 -1.0591 -0.0983 -2.0376
36578SOL     OW14863   2.068   3.776   0.601 -0.6132  0.2892 -0.9525
36578SOL    HW114864   2.051   3.866   0.628 -3.5761 -0.1408 -1.2300
36578SOL    HW214865   2.080   3.727   0.682 -1.1685  0.5426 -0.7188
36579SOL     OW14866   2.060   0.690   9.587  0.3714  0.0282  0.1759
36579SOL    HW114867   1.970   0.719   9.599 -0.5882 -2.5800 -0.2236
36579SOL    HW214868   2.113   0.753   9.636 -1.7161  1.1780  1.0257
36580SOL     OW14869   9.533   6.449   7.825 -0.2329  0.0312 -0.0483
36580SOL    HW114870   9.522   6.384   7.755  1.4795  0.3068 -0.5989
36580SOL    HW214871   9.446   6.486   7.837 -0.2381  1.1490 -3.1859
36581SOL     OW14872   8.585  10.565   5.932 -0.0372 -0.0257  0.3907
36581SOL    HW114873   8.587  10.491   5.872 -0.9428  0.2048  0.0707
36581SOL    HW214874   8.542  10.531   6.010 -0.2232  0.0993  0.3415
36582SOL     OW14875   2.123  10.805   7.050 -0.2743 -0.4132  0.0917
36582SOL    HW114876   2.203  10.852   7.025  0.2794 -0.6813  1.3390
36582SOL    HW214877   2.071  10.871   7.095  0.4375 -0.9219  1.7085
36583SOL     OW14878  11.039   0.132   9.404 -0.1603 -0.3124  0.4115
36583SOL    HW114879  11.114   0.102   9.456 -0.4816  1.0659  1.7046
36583SOL    HW214880  10.973   0.156   9.469 -0.5249  1.5566 -0.6295
36584SOL     OW14881   3.366   7.870  11.130  0.2924 -0.0338  0.5570
36584SOL    HW114882   3.369   7.965  11.117  0.1917 -0.2055 -0.7993
36584SOL    HW214883   3.273   7.851  11.143 -0.1185 -0.3076 -2.3088
36585SOL     OW14884   2.408   7.534   9.726 -0.0336 -0.2017  0.0850
36585SOL    HW114885   2.324   7.563   9.690  0.1834 -1.7530 -1.7570
36585SOL    HW214886   2.418   7.444   9.694  0.3048 -1.6075  3.8441
36586SOL     OW14887   0.547   4.470   5.702  0.1922 -0.2258  0.0688
36586SOL    HW114888   0.570   4.555   5.739  1.1450 -0.1672 -0.6523
36586SOL    HW214889   0.631   4.428   5.682 -0.2537 -1.6021  0.9987
36587SOL     OW14890   8.052   4.260  11.019 -0.1376 -0.2225  0.5625
36587SOL    HW114891   8.131   4.311  11.037 -0.7441  0.7899  0.3950
36587SOL    HW214892   7.996   4.320  10.969 -0.4890 -1.3531 -0.4113
36588SOL     OW14893   5.983  10.119   3.135  0.5734 -0.2143 -0.1060
36588SOL    HW114894   5.996  10.214   3.132 -0.4798 -0.0578  0.2998
36588SOL    HW214895   6.012  10.094   3.223 -1.5352  0.1020  0.7120
36589SOL     OW14896   6.455   6.443   3.793 -0.2029  0.3004  0.0360
36589SOL    HW114897   6.507   6.447   3.713  0.6705 -0.4033  0.5518
36589SOL    HW214898   6.442   6.349   3.809  0.6134  0.3892  1.3180
36590SOL     OW14899   7.309   5.859   6.076 -0.1890  0.0360 -0.0018
36590SOL    HW114900   7.254   5.786   6.046 -0.5984 -0.3500  1.5942
36590SOL    HW214901   7.340   5.901   5.996 -0.9606 -1.1443 -0.9384
36591SOL     OW14902   4.522   6.146  10.046 -0.9570  0.1580 -0.1587
36591SOL    HW114903   4.493   6.068  10.093 -1.4275  0.2675 -0.2681
36591SOL    HW214904   4.442   6.188  10.016 -0.9230  2.4173  2.6478
36592SOL     OW14905   3.851  11.287   1.925 -0.5527  0.2527 -0.0949
36592SOL    HW114906   3.855  11.199   1.962 -0.9950  0.1986 -0.1705
36592SOL    HW214907   3.805  11.276   1.841  1.2040  0.2418 -1.0821
36593SOL     OW14908  11.061   8.154   0.834  0.1082 -0.8933 -0.4735
36593SOL    HW114909  11.008   8.228   0.862  0.1138 -0.7802 -0.7620
36593SOL    HW214910  11.023   8.079   0.880  0.8393 -0.5329  0.7111
36594SOL     OW14911   8.424   1.245   1.471 -0.0869  0.0662 -0.4555
36594SOL    HW114912   8.330   1.261   1.474 -0.3887 -1.5130 -1.1899
36594SOL    HW214913   8.462   1.315   1.524 -1.7937 -0.2691  1.2578
36595SOL     OW14914   0.321  10.424   2.711 -0.1293 -0.3887  0.2536
36595SOL    HW114915   0.286  10.510   2.733  1.5350  0.2348  0.5064
36595SOL    HW214916   0.284  10.404   2.625 -0.7504  0.4328  0.3239
36596SOL     OW14917   3.577   6.364   2.994  0.2203 -0.3447 -0.0572
36596SOL    HW114918   3.507   6.428   2.999  0.3895 -0.2239  1.0112
36596SOL    HW214919   3.559   6.304   3.067 -0.3819 -1.9646 -1.5115
36597SOL     OW14920   0.310   0.234   0.710 -0.7151 -0.6528  0.0341
36597SOL    HW114921   0.363   0.158   0.685  1.0954  1.4012 -2.5671
36597SOL    HW214922   0.367   0.285   0.767 -0.9504  0.0952 -0.3983
36598SOL     OW14923  10.611   3.118   1.233 -0.3193  0.1409  0.0412
36598SOL    HW114924  10.566   3.201   1.217 -2.2457 -0.8122  0.4460
36598SOL    HW214925  10.559   3.075   1.301  0.9470 -1.1823  0.1934
36599SOL     OW14926   4.669   7.190   0.144  0.1913  0.2906 -0.2355
36599SOL    HW114927   4.719   7.150   0.215 -1.8470  1.2310  1.8203
36599SOL    HW214928   4.624   7.117   0.102  0.7906 -0.1942 -0.0321
36600SOL     OW14929   8.580   9.822   0.060 -0.1725 -0.9545  0.1497
36600SOL    HW114930   8.498   9.777   0.040 -0.4040 -0.1041 -0.8641
36600SOL    HW214931   8.616   9.844  -0.026 -0.3190  1.2367  0.6295
36601SOL     OW14932   2.518   8.187   3.940  0.3186  0.1231  0.7680
36601SOL    HW114933   2.483   8.276   3.932  0.2430  0.0588  0.3628
36601SOL    HW214934   2.442   8.131   3.929  0.4749 -0.0068  0.3683
36602SOL     OW14935   3.290   2.826   1.837  0.2024 -0.1511  0.0102
36602SOL    HW114936   3.246   2.741   1.828  0.1642 -0.1584  0.2659
36602SOL    HW214937   3.322   2.846   1.749 -0.2690 -0.1668 -0.1627
36603SOL     OW14938   9.679   0.005   3.718  0.4119  0.2079 -0.0350
36603SOL    HW114939   9.624   0.064   3.770 -1.5040 -1.1362 -0.4636
36603SOL    HW214940   9.675  -0.079   3.765 -0.6722 -0.8054 -1.8665
36604SOL     OW14941   6.922   2.586   8.624  0.1903 -0.1748 -0.0447
36604SOL    HW114942   6.831   2.572   8.598  0.3095  0.9667 -1.0867
36604SOL    HW214943   6.923   2.562   8.717 -1.1765 -0.2193 -0.0196
36605SOL     OW14944   8.545   2.784   3.929 -0.3563 -0.1976  0.4672
36605SOL    HW114945   8.486   2.746   3.994 -0.2224  1.3770  1.5386
36605SOL    HW214946   8.539   2.878   3.943 -0.2446  0.1612 -1.7530
36606SOL     OW14947   1.847   2.236   3.593  0.0206 -0.0893 -0.1618
36606SOL    HW114948   1.923   2.218   3.536  0.2044 -2.8641  0.9066
36606SOL    HW214949   1.820   2.325   3.568  4.0431  1.2815 -0.0976
36607SOL     OW14950   4.854   6.775   3.368  0.6653  0.0598  0.2506
36607SOL    HW114951   4.806   6.776   3.285 -1.0941 -1.4850  1.2238
36607SOL    HW214952   4.942   6.746   3.343  0.6411  1.2190 -1.2939
36608SOL     OW14953   6.258   4.184  10.127  0.4853  0.1075  0.1749
36608SOL    HW114954   6.298   4.134  10.198  0.4560  0.9524  0.7893
36608SOL    HW214955   6.230   4.117  10.065 -1.2432 -0.7707  1.8481
36609SOL     OW14956   2.064   1.909   2.337 -0.1383 -0.2256 -0.2131
36609SOL    HW114957   1.997   1.957   2.289 -0.6428 -0.7072 -0.0021
36609SOL    HW214958   2.135   1.971   2.348 -0.0938 -0.0460 -1.4074
36610SOL     OW14959   2.848  10.015   8.702  0.0085 -0.3416 -0.2740
36610SOL    HW114960   2.891  10.090   8.661 -0.0746  0.0620  0.3703
36610SOL    HW214961   2.911   9.943   8.692 -0.7987 -0.7421 -2.8004
36611SOL     OW14962   9.990   1.498   6.904  0.1198 -0.0417  0.2430
36611SOL    HW114963   9.972   1.462   6.991  3.8690 -0.5901  0.9005
36611SOL    HW214964  10.035   1.427   6.858 -0.8471  0.6397 -1.7965
36612SOL     OW14965  10.414   8.965   2.886 -0.1043  0.1345 -0.3883
36612SOL    HW114966  10.441   8.874   2.890  2.0072  0.6375 -2.3620
36612SOL    HW214967  10.425   8.990   2.795 -0.2310  2.5015  0.2075
36613SOL     OW14968   7.094   8.053   8.552  0.3036  0.8414  0.2352
36613SOL    HW114969   7.152   8.005   8.611 -0.4165 -0.5186 -0.1492
36613SOL    HW214970   7.148   8.072   8.475  0.8413  1.4191  0.7491
36614SOL     OW14971   2.515  10.716  10.810  0.1356  0.3255  0.2814
36614SOL    HW114972   2.463  10.772  10.751  1.0302 -0.4337 -1.2570
36614SOL    HW214973   2.451  10.678  10.869 -1.2037 -1.0534 -1.9613
36615SOL     OW14974   2.109   3.886   6.742  0.3740 -0.5753 -0.2721
36615SOL    HW114975   2.102   3.791   6.732  1.3094 -0.3715 -3.3489
36615SOL    HW214976   2.034   3.921   6.694  0.5529  0.2826  0.0633
36616SOL     OW14977   2.786   4.675  11.189 -0.5835  0.3443 -0.1426
36616SOL    HW114978   2.852   4.643  11.250  0.2927  1.7671 -0.3240
36616SOL    HW214979   2.828   4.671  11.103 -1.8025 -1.6227 -0.6956
36617SOL     OW14980   3.032   2.985   4.192  0.0154 -0.1849  0.1993
36617SOL    HW114981   3.082   3.058   4.156  0.3657 -0.4332  0.1723
36617SOL    HW214982   3.070   2.907   4.149 -1.0265 -0.2978 -0.5375
36618SOL     OW14983   6.201   1.330  10.215  0.1172 -0.0447  0.6786
36618SOL    HW114984   6.295   1.339  10.201  0.1350  0.5170  1.1297
36618SOL    HW214985   6.168   1.420  10.217 -0.4251 -0.2339  0.5668
36619SOL     OW14986   4.638   2.256  10.402  0.4974  0.1022 -0.1312
36619SOL    HW114987   4.633   2.282  10.310 -0.0736  0.6312  0.0464
36619SOL    HW214988   4.558   2.291  10.441  1.2591  0.8239  0.8100
36620SOL     OW14989   6.715  10.291   5.430 -0.3201 -0.0933  0.4379
36620SOL    HW114990   6.760  10.258   5.508 -0.1299 -1.1964 -0.1344
36620SOL    HW214991   6.769  10.364   5.401 -0.2464  0.1560  1.1861
36621SOL     OW14992   7.567   3.959   7.560  0.8758 -0.4015  0.4167
36621SOL    HW114993   7.538   3.890   7.501 -1.2306  1.9068 -1.3324
36621SOL    HW214994   7.501   3.962   7.629 -0.9840  2.1906 -1.4214
36622SOL     OW14995   0.623   3.498  10.493  0.1136  0.0415  0.5161
36622SOL    HW114996   0.583   3.480  10.578 -0.4762  2.2780  0.7624
36622SOL    HW214997   0.550   3.503  10.432  0.3663  0.1631  0.2184
36623SOL     OW14998   7.361   8.905   5.105 -0.3056 -0.1627  0.5615
36623SOL    HW114999   7.402   8.823   5.132  2.4011  0.4856 -1.3406
36623SOL    HW215000   7.297   8.924   5.173  0.9382 -2.4433  2.4291
36624SOL     OW15001   7.385  10.499   8.189 -0.2569  0.3917  0.0231
36624SOL    HW115002   7.471  10.502   8.149 -0.6122  0.2482 -0.7532
36624SOL    HW215003   7.364  10.591   8.207  0.5020  0.3536  1.1863
36625SOL     OW15004  10.739   0.627   1.244  0.3639 -0.4214 -0.2424
36625SOL    HW115005  10.811   0.660   1.190 -0.3516 -1.2888 -1.7358
36625SOL    HW215006  10.757   0.533   1.253  1.0443 -0.1202  1.9317
36626SOL     OW15007   6.841   2.948   9.994  0.1159  0.3440  0.2164
36626SOL    HW115008   6.829   3.028   9.942 -0.5482  0.3354  0.3606
36626SOL    HW215009   6.797   2.880   9.944  1.9322 -0.2329 -0.6500
36627SOL     OW15010   4.566   2.928   6.937 -0.1671  0.3169  0.5627
36627SOL    HW115011   4.574   2.982   6.859 -0.7760 -1.1228 -0.5185
36627SOL    HW215012   4.576   2.838   6.905 -0.9888 -0.3195  2.0551
36628SOL     OW15013   4.192   0.218   0.279  0.0413 -0.5992  0.2423
36628SOL    HW115014   4.128   0.161   0.234  0.2740 -0.8782  0.2628
36628SOL    HW215015   4.250   0.157   0.325 -1.3502 -0.2731  2.5126
36629SOL     OW15016   3.308   6.100  10.614  0.0265 -0.3736 -0.0431
36629SOL    HW115017   3.301   6.037  10.542  0.6057  0.4419 -0.8051
36629SOL    HW215018   3.291   6.185  10.574 -0.3991  0.0096  0.9269
36630SOL     OW15019   9.505   6.700   8.550  0.5910  0.3153  0.1813
36630SOL    HW115020   9.419   6.661   8.568  1.0210 -0.3802  0.8186
36630SOL    HW215021   9.488   6.773   8.492 -0.3518 -0.2934 -0.3141
36631SOL     OW15022   2.684   2.094   4.647  0.0693  0.3345 -0.0616
36631SOL    HW115023   2.597   2.130   4.630 -0.9270 -1.3306  1.3274
36631SOL    HW215024   2.701   2.115   4.739  0.0507 -1.5171  0.3747
36632SOL     OW15025   0.697   0.602   4.024  0.2053  0.6370 -0.1850
36632SOL    HW115026   0.739   0.575   4.105 -1.7669 -0.7157  0.4198
36632SOL    HW215027   0.604   0.603   4.044 -0.2265  1.6234 -2.0616
36633SOL     OW15028   6.373   6.825  10.013  0.2810 -0.0608 -0.2307
36633SOL    HW115029   6.363   6.733  10.038 -0.6100  0.6585  2.1630
36633SOL    HW215030   6.442   6.858  10.070 -0.8922  1.2947  0.4335
36634SOL     OW15031   0.859   4.668   0.908 -0.3306 -0.2484 -0.1745
36634SOL    HW115032   0.933   4.606   0.905  0.4201  0.6711 -0.6492
36634SOL    HW215033   0.829   4.663   0.999  0.6365 -0.2614  0.1552
36635SOL     OW15034  10.085   3.157   7.947  0.0309  0.0649  0.7350
36635SOL    HW115035  10.179   3.174   7.949  0.1464 -0.6016  1.2733
36635SOL    HW215036  10.046   3.229   7.997  0.1807  0.7715 -0.1542
36636SOL     OW15037   8.241   2.287  10.103  0.2778  0.3070  0.0687
36636SOL    HW115038   8.212   2.352  10.167 -0.0328 -0.2332  0.4735
36636SOL    HW215039   8.203   2.317  10.020 -1.7980 -0.6253  0.6631
36637SOL     OW15040   3.116   9.795  10.467 -0.3671 -0.0136  0.1342
36637SOL    HW115041   3.044   9.742  10.500 -1.2481  1.3518  0.3972
36637SOL    HW215042   3.103   9.797  10.372 -0.0062 -0.7238  0.0619
36638SOL     OW15043   3.570   8.136   8.290 -0.0208 -0.2088 -0.0872
36638SOL    HW115044   3.605   8.213   8.245 -0.1663  0.9132  1.6899
36638SOL    HW215045   3.642   8.073   8.290  0.4973  0.3777 -0.4827
36639SOL     OW15046   9.998   3.004   0.345  0.2983 -0.2891  0.2894
36639SOL    HW115047  10.038   3.006   0.432  0.6270 -0.3494  0.1412
36639SOL    HW215048  10.072   3.011   0.285  0.0861 -0.4157  0.0132
36640SOL     OW15049   1.923   0.791   6.212 -0.2026 -0.0617  0.0736
36640SOL    HW115050   1.927   0.841   6.131 -2.4132 -0.3935 -0.2803
36640SOL    HW215051   1.913   0.856   6.281  0.3426  0.1551 -0.0545
36641SOL     OW15052   1.853   4.268   1.311  0.5916 -0.1464  0.2748
36641SOL    HW115053   1.791   4.225   1.370 -0.6102  2.1485  0.7335
36641SOL    HW215054   1.800   4.331   1.262  2.3767  1.1170 -0.0659
36642SOL     OW15055   4.871   5.768   6.264  0.2106 -0.3886  0.0964
36642SOL    HW115056   4.788   5.728   6.290  0.7195 -1.8842 -0.5838
36642SOL    HW215057   4.918   5.780   6.347 -0.3754 -0.2134  0.4089
36643SOL     OW15058   7.330  10.357  11.075  0.2523 -0.6134 -0.1187
36643SOL    HW115059   7.392  10.425  11.048 -0.3086 -0.5215 -1.1758
36643SOL    HW215060   7.372  10.316  11.151  1.7438 -0.7333 -0.9951
36644SOL     OW15061   9.006   4.038  10.844  0.0849 -0.4708 -0.7082
36644SOL    HW115062   9.086   3.989  10.824 -0.5009 -1.8104  0.1141
36644SOL    HW215063   8.957   4.039  10.762 -0.1819 -1.8336 -0.5785
36645SOL     OW15064   5.046   6.440   4.035  0.3551  0.2227 -0.0135
36645SOL    HW115065   4.979   6.504   4.058 -1.1952 -0.3312 -2.8698
36645SOL    HW215066   5.053   6.385   4.113 -0.3455  2.0735  1.4176
36646SOL     OW15067   2.425  10.678   3.338 -0.1205 -0.9275  0.1131
36646SOL    HW115068   2.366  10.724   3.278 -0.0790 -0.6380  0.2961
36646SOL    HW215069   2.367  10.638   3.403 -0.0967 -0.3546  0.4946
36647SOL     OW15070   8.670   7.799   8.082  0.4431 -0.9651  0.1001
36647SOL    HW115071   8.652   7.883   8.040  2.4882 -0.4337  0.2306
36647SOL    HW215072   8.618   7.801   8.162 -1.4073 -0.8683 -1.0713
36648SOL     OW15073   4.998   3.887   0.443 -0.1759 -0.1998  0.3405
36648SOL    HW115074   5.040   3.828   0.506 -0.8781 -1.8748 -0.7268
36648SOL    HW215075   4.909   3.854   0.436  0.0553 -0.3733 -1.9569
36649SOL     OW15076   0.228   0.489   4.227 -0.3767 -0.4200 -0.0384
36649SOL    HW115077   0.249   0.564   4.283  1.4593 -0.1459 -1.0530
36649SOL    HW215078   0.236   0.413   4.285  4.6589 -0.4619 -0.5092
36650SOL     OW15079   6.919   3.191   9.269  0.3948  0.0939 -0.3844
36650SOL    HW115080   6.924   3.148   9.184  0.9069 -0.7901  0.0909
36650SOL    HW215081   6.872   3.273   9.251 -0.3097 -0.5073 -1.3376
36651SOL     OW15082   4.931  10.339   4.362 -0.0078 -0.0430  0.4215
36651SOL    HW115083   4.976  10.323   4.279  1.0793 -1.9523  1.3361
36651SOL    HW215084   4.839  10.326   4.343  0.2946 -1.1177 -0.3683
36652SOL     OW15085   4.085   2.909   5.892  0.2418  0.5031  0.0071
36652SOL    HW115086   4.039   2.992   5.881  1.5432  1.5034  1.7858
36652SOL    HW215087   4.098   2.902   5.987  2.1689 -0.5890 -0.3192
36653SOL     OW15088  10.031   7.886   8.905  0.4260 -0.0429 -0.2597
36653SOL    HW115089  10.030   7.903   8.811 -1.5369 -0.8831 -0.4200
36653SOL    HW215090  10.070   7.800   8.914  0.7655  0.1068 -0.2929
36654SOL     OW15091   1.404   8.421   7.646  0.3635 -0.4718  0.1374
36654SOL    HW115092   1.412   8.426   7.551 -0.7937 -2.3133 -0.0664
36654SOL    HW215093   1.492   8.441   7.678  1.5231 -2.7748 -1.4353
36655SOL     OW15094   4.500  10.397   0.957 -0.3194  0.0970 -0.0527
36655SOL    HW115095   4.570  10.409   1.021  0.5554  1.0174 -1.1471
36655SOL    HW215096   4.422  10.380   1.009  0.3697  0.8435  1.2524
36656SOL     OW15097  10.875   2.523   7.808 -0.5871 -0.0290 -0.4010
36656SOL    HW115098  10.810   2.581   7.768 -0.9971  0.2506  0.6506
36656SOL    HW215099  10.948   2.580   7.831 -1.4352  0.2894  1.6220
36657SOL     OW15100   6.820   5.699   4.679 -0.3329  0.0979 -0.3222
36657SOL    HW115101   6.751   5.724   4.618 -0.2390 -0.5080 -0.6733
36657SOL    HW215102   6.898   5.746   4.647 -0.4841  0.4543 -0.1672
36658SOL     OW15103   1.724  11.323   9.897  0.1739  0.7681  0.1634
36658SOL    HW115104   1.691  11.368   9.975  1.7712  0.6742  0.9062
36658SOL    HW215105   1.818  11.314   9.912  0.4716  0.5795 -1.6994
36659SOL     OW15106   7.750   6.477   6.204 -0.5467 -0.5604 -0.9854
36659SOL    HW115107   7.690   6.507   6.272  0.2887 -1.1180 -0.0032
36659SOL    HW215108   7.704   6.405   6.161 -1.0314 -0.2738 -0.9449
36660SOL     OW15109   9.799   9.902   6.870  0.6015  0.4307 -0.8531
36660SOL    HW115110   9.870   9.912   6.933 -0.7179  1.4476  0.5282
36660SOL    HW215111   9.841   9.868   6.791  2.7177  1.7414 -0.3197
36661SOL     OW15112   7.134   0.820   2.111  0.0592 -0.1741 -0.3367
36661SOL    HW115113   7.149   0.790   2.200  1.4810  0.9312 -0.1802
36661SOL    HW215114   7.159   0.746   2.056  2.0571  0.1601  0.0896
36662SOL     OW15115  10.564   4.904   5.068  0.8683 -0.1916 -0.2567
36662SOL    HW115116  10.540   4.993   5.093  0.3748 -0.1917 -0.7178
36662SOL    HW215117  10.656   4.910   5.044  1.2591 -0.1122  1.1713
36663SOL     OW15118   1.003   2.178   9.779 -0.6814  0.5722  0.1702
36663SOL    HW115119   0.985   2.089   9.807 -0.1946  0.6460  0.7409
36663SOL    HW215120   0.934   2.231   9.820 -2.3344  0.1816 -2.0305
36664SOL     OW15121   8.744   5.306   3.517  0.1461  0.2137  0.1252
36664SOL    HW115122   8.806   5.348   3.458 -0.2756 -0.2490 -0.6547
36664SOL    HW215123   8.691   5.378   3.551  1.3221  0.6561  1.0735
36665SOL     OW15124   8.072   7.858   5.701 -0.7310 -0.1890  0.1583
36665SOL    HW115125   8.095   7.772   5.665 -2.5205 -1.1380  1.1905
36665SOL    HW215126   8.084   7.919   5.628  2.9451 -0.8989  0.0723
36666SOL     OW15127   3.937   3.246   0.457 -0.4897  0.2499 -0.1242
36666SOL    HW115128   3.990   3.168   0.475  0.1521  0.7028 -0.0518
36666SOL    HW215129   3.852   3.227   0.497  0.0518  0.0917  0.9576
36667SOL     OW15130  10.288   4.048   2.963 -0.1285  0.3225 -0.2861
36667SOL    HW115131  10.219   4.016   3.021 -0.9653 -0.0134 -1.4478
36667SOL    HW215132  10.327   3.969   2.926  0.8440  0.5142  0.3205
36668SOL     OW15133   9.009   4.829   7.193 -0.2469  0.6668 -0.0418
36668SOL    HW115134   8.972   4.861   7.110 -0.4373 -2.7175 -1.3425
36668SOL    HW215135   9.103   4.825   7.177 -0.4023 -1.1483 -0.5211
36669SOL     OW15136   9.447   1.833   8.918  0.8028 -0.6187 -0.3450
36669SOL    HW115137   9.426   1.756   8.971  1.5203 -1.4320 -1.2261
36669SOL    HW215138   9.369   1.888   8.924  0.7024 -0.8867  1.2091
36670SOL     OW15139   2.299   9.885   2.511  0.1891  0.0260 -0.3701
36670SOL    HW115140   2.295   9.803   2.560  3.1270  0.9345  1.5213
36670SOL    HW215141   2.210   9.918   2.512  0.0871  0.0496  4.5752
36671SOL     OW15142   9.354   6.734   0.269  0.2076  0.2805  0.0999
36671SOL    HW115143   9.331   6.806   0.210 -0.1487  0.3342  0.3061
36671SOL    HW215144   9.419   6.772   0.328 -1.2363  0.9205  1.2958
36672SOL     OW15145   1.237   9.262   5.060 -0.1583 -0.2993 -0.3352
36672SOL    HW115146   1.176   9.233   4.993 -0.6114  0.2299 -0.1471
36672SOL    HW215147   1.281   9.182   5.088 -0.3194 -0.5902 -0.9045
36673SOL     OW15148   5.875   5.407   0.719 -0.1833 -0.4178  0.0300
36673SOL    HW115149   5.900   5.361   0.799  0.6173 -1.9428 -1.0520
36673SOL    HW215150   5.828   5.342   0.667  0.8415 -0.0055 -1.4799
36674SOL     OW15151   1.974  10.244   0.250 -0.4666  0.2049  0.9105
36674SOL    HW115152   2.031  10.266   0.324  0.7143  0.9424 -0.1989
36674SOL    HW215153   1.897  10.300   0.262  0.6448  1.8853  0.4509
36675SOL     OW15154   6.837   5.536   7.688 -0.0247  0.0947  1.1074
36675SOL    HW115155   6.798   5.572   7.609  1.0843  0.3890  0.6905
36675SOL    HW215156   6.912   5.485   7.658 -0.2555 -0.7213  1.8779
36676SOL     OW15157   5.132   6.052   0.868  0.3079  0.0366  0.0578
36676SOL    HW115158   5.064   6.012   0.921 -0.3541 -2.7306 -2.7378
36676SOL    HW215159   5.088   6.126   0.826 -0.8624 -1.3626 -1.2468
36677SOL     OW15160  10.076   9.155   1.881  0.0006  0.1287  0.6565
36677SOL    HW115161  10.160   9.109   1.882 -0.0679 -0.0503 -0.4143
36677SOL    HW215162  10.055   9.169   1.973  2.1760  1.9398  0.9142
36678SOL     OW15163  10.316   9.490   4.632 -0.0547 -1.0578  0.5244
36678SOL    HW115164  10.411   9.494   4.643 -0.1938 -0.1153  1.4294
36678SOL    HW215165  10.303   9.491   4.537  0.7445  1.4618  0.4087
36679SOL     OW15166   1.873   3.255   0.851 -0.1639 -0.0291 -0.3024
36679SOL    HW115167   1.783   3.280   0.829  0.2130  1.2991 -0.4305
36679SOL    HW215168   1.903   3.325   0.910  0.1546 -1.4459  1.2394
36680SOL     OW15169   9.794   8.006   2.857  0.0627  0.3241 -0.0137
36680SOL    HW115170   9.732   8.045   2.919 -1.8113 -0.7696 -1.1643
36680SOL    HW215171   9.772   8.045   2.773  0.7487 -0.2948 -0.4866
36681SOL     OW15172   8.955   0.473   3.759 -0.2130  0.0846  0.2376
36681SOL    HW115173   9.012   0.477   3.682 -0.6453 -2.0910 -0.2324
36681SOL    HW215174   8.886   0.537   3.741  0.1532  0.1955 -0.7915
36682SOL     OW15175   0.054   4.185   0.392  0.2151 -0.3054 -0.1601
36682SOL    HW115176   0.128   4.220   0.442 -0.0705 -1.8298  1.4001
36682SOL    HW215177   0.093   4.147   0.314  0.9521 -0.0390  0.0761
36683SOL     OW15178   4.863   7.036   1.814  0.0479  0.3943 -0.3585
36683SOL    HW115179   4.782   7.078   1.787 -1.4768 -2.2375 -0.0421
36683SOL    HW215180   4.851   6.943   1.792  2.1736 -0.3680  1.4812
36684SOL     OW15181   9.397   4.365   5.852 -0.3420 -0.2264  0.5494
36684SOL    HW115182   9.351   4.449   5.837 -1.3430 -0.5940  1.5055
36684SOL    HW215183   9.478   4.390   5.897 -1.1135  0.1483  1.7575
36685SOL     OW15184  11.271   8.304   6.722  0.1819 -0.0996 -0.6907
36685SOL    HW115185  11.208   8.365   6.683  0.5753 -0.9489 -2.7133
36685SOL    HW215186  11.357   8.340   6.700  0.4161 -0.2307 -0.0035
36686SOL     OW15187   9.376   8.423  10.584 -0.0743 -0.5463 -0.2637
36686SOL    HW115188   9.300   8.482  10.588  0.0562 -0.4374  0.8170
36686SOL    HW215189   9.367   8.378  10.500 -0.3636  0.7711 -0.9452
36687SOL     OW15190  10.402   4.448   0.738  0.6520 -0.2724 -0.3210
36687SOL    HW115191  10.481   4.409   0.775  0.0239 -1.1577  0.0907
36687SOL    HW215192  10.433   4.494   0.660  1.7505  0.3526  0.4610
36688SOL     OW15193   0.261   3.525   4.650  0.2059  0.1296  0.5830
36688SOL    HW115194   0.192   3.573   4.696  0.8195 -0.0769  1.7411
36688SOL    HW215195   0.276   3.447   4.703  0.5942 -0.3508 -0.2239
36689SOL     OW15196  11.020   1.859   0.366  0.3459  0.2508  0.1377
36689SOL    HW115197  10.937   1.847   0.320  0.0042 -1.3694  1.1390
36689SOL    HW215198  11.005   1.822   0.453  1.3125  2.3113  1.1980
36690SOL     OW15199   9.197   6.570   7.280 -0.9008 -0.2427 -0.0587
36690SOL    HW115200   9.156   6.504   7.335  0.6493 -0.8641  0.3828
36690SOL    HW215201   9.282   6.587   7.322  0.1842 -0.5123 -2.0651
36691SOL     OW15202   8.830   1.690   1.852 -0.3141  0.6881  0.1804
36691SOL    HW115203   8.844   1.715   1.760 -0.8114  0.9574  0.1741
36691SOL    HW215204   8.766   1.619   1.848 -1.1921  1.4679  0.3890
36692SOL     OW15205  10.444  10.484   6.839 -0.7080 -0.2331  0.0684
36692SOL    HW115206  10.508  10.538   6.794  2.4118 -3.7835  0.0113
36692SOL    HW215207  10.377  10.465   6.772 -0.7531  1.7845 -0.4684
36693SOL     OW15208   8.383  10.005   5.240  0.3968  0.5482  0.0467
36693SOL    HW115209   8.463  10.049   5.210  0.4099 -0.3631 -1.3094
36693SOL    HW215210   8.409   9.914   5.253 -0.8537 -0.1989 -2.3631
36694SOL     OW15211   1.605   1.225   9.629 -0.2498  0.3841 -0.5236
36694SOL    HW115212   1.589   1.318   9.610 -0.2040  0.4172 -0.4080
36694SOL    HW215213   1.560   1.211   9.713 -0.0262  0.3705 -0.4048
36695SOL     OW15214   5.501   3.890   6.224  0.5578  0.1719 -0.9041
36695SOL    HW115215   5.568   3.825   6.242 -0.4495 -1.0668 -1.5250
36695SOL    HW215216   5.449   3.893   6.305  0.4277 -0.0161 -0.9806
36696SOL     OW15217   3.828   8.809  10.827  0.4095  0.3249  0.0280
36696SOL    HW115218   3.767   8.755  10.877 -0.4498 -0.2536 -1.6130
36696SOL    HW215219   3.851   8.755  10.751  2.6565  0.6854  0.4228
36697SOL     OW15220   9.101   3.054   2.019  0.1281  0.3362 -0.2630
36697SOL    HW115221   9.046   3.115   1.970 -0.1348 -1.5523 -2.4028
36697SOL    HW215222   9.041   2.988   2.052  0.6661  0.1080  0.2785
36698SOL     OW15223   4.655   4.571   3.532 -0.4732 -0.3252 -0.5322
36698SOL    HW115224   4.570   4.534   3.559 -0.8439  1.4527  0.8556
36698SOL    HW215225   4.691   4.609   3.612  0.4122  1.2897 -1.6698
36699SOL     OW15226   9.300  10.005   7.825 -0.0624 -0.1522 -0.6040
36699SOL    HW115227   9.299   9.959   7.909 -0.9199 -0.3368 -0.7100
36699SOL    HW215228   9.254   9.947   7.765 -2.9505  1.6748 -0.2851
36700SOL     OW15229  11.105   6.638   8.256  0.3830  0.3231 -0.1194
36700SOL    HW115230  11.056   6.567   8.297  3.2080 -1.0514  1.0120
36700SOL    HW215231  11.094   6.712   8.315 -1.4091  0.4429 -0.5780
36701SOL     OW15232   8.707  11.158   1.412  0.4056  0.0918 -0.1377
36701SOL    HW115233   8.615  11.144   1.433  0.1383  1.1652 -0.5605
36701SOL    HW215234   8.748  11.072   1.422 -0.7462 -0.4993 -0.4590
36702SOL     OW15235   9.296  10.237   1.749 -0.5224  0.8603  0.0759
36702SOL    HW115236   9.326  10.186   1.674  2.1360  1.5770  0.6252
36702SOL    HW215237   9.307  10.328   1.722  0.4928  1.1244  1.3653
36703SOL     OW15238  10.830   4.361   6.608  0.8383  0.2807 -0.0450
36703SOL    HW115239  10.788   4.284   6.646  1.1683  0.1685  0.0905
36703SOL    HW215240  10.773   4.386   6.536  1.3695 -0.7944 -0.8392
36704SOL     OW15241   3.489   2.488  10.214  0.2066 -0.0515  0.0933
36704SOL    HW115242   3.426   2.508  10.283  0.3546  0.7249 -0.0010
36704SOL    HW215243   3.547   2.564  10.210  2.3213 -1.5525  1.4789
36705SOL     OW15244   5.903   4.444   2.855  0.2841 -0.1858  0.1450
36705SOL    HW115245   5.825   4.392   2.876 -0.8275  1.4725  0.2360
36705SOL    HW215246   5.961   4.432   2.930  0.7857 -2.6145 -0.5724
36706SOL     OW15247   0.858   3.383   0.469 -0.3315  0.3047 -0.3695
36706SOL    HW115248   0.779   3.382   0.524 -0.1562  0.3555 -0.1156
36706SOL    HW215249   0.828   3.418   0.385 -0.5169  0.6087 -0.1774
36707SOL     OW15250   4.733   3.590   6.435 -0.7434 -0.0538  0.1616
36707SOL    HW115251   4.787   3.545   6.370 -0.6014 -0.1547  0.3473
36707SOL    HW215252   4.734   3.531   6.511  1.0887  1.1801  1.1295
36708SOL     OW15253   6.476  10.659   8.202  0.2476 -0.6603  0.2182
36708SOL    HW115254   6.411  10.728   8.210  2.1703  1.2848 -0.4002
36708SOL    HW215255   6.477  10.617   8.287  0.3393  1.2845  1.2002
36709SOL     OW15256   6.396   9.123   1.021 -0.0532  0.5635 -0.1418
36709SOL    HW115257   6.455   9.191   1.052  0.5099 -0.0790  0.1892
36709SOL    HW215258   6.388   9.062   1.095 -1.1190  0.6446 -0.1815
36710SOL     OW15259   6.983   7.399   9.429  0.5666  0.4994 -0.3376
36710SOL    HW115260   6.960   7.348   9.506  0.4861 -0.0828 -0.7491
36710SOL    HW215261   6.908   7.457   9.416 -0.4668 -1.0248 -1.3531
36711SOL     OW15262   1.798   2.132   4.894  0.5346  0.4255  0.1740
36711SOL    HW115263   1.714   2.176   4.880 -0.0921 -0.8128 -0.0239
36711SOL    HW215264   1.858   2.174   4.832  0.0727  1.3478  0.3491
36712SOL     OW15265   3.107   1.448   8.791  0.3360  0.3491 -0.5562
36712SOL    HW115266   3.029   1.453   8.737 -0.0410  0.3312 -0.0164
36712SOL    HW215267   3.128   1.355   8.795 -0.9071  0.1137  1.1185
36713SOL     OW15268   9.217   2.942   4.829  0.1677 -0.6345 -0.2194
36713SOL    HW115269   9.310   2.920   4.830  0.1720 -0.6892 -1.2662
36713SOL    HW215270   9.188   2.920   4.740 -0.3587  1.3613 -0.5666
36714SOL     OW15271   4.989   1.313   8.832  0.1252  0.2252 -0.1899
36714SOL    HW115272   4.894   1.313   8.819 -0.0587 -0.5674  1.1233
36714SOL    HW215273   5.003   1.258   8.908  1.9282 -2.3273 -2.2781
36715SOL     OW15274   8.071  11.090  10.993  0.4415  0.1767 -0.1665
36715SOL    HW115275   8.083  11.122  10.904  0.6025  1.5059  0.3190
36715SOL    HW215276   7.976  11.091  11.006  0.4936  1.5176  0.2100
36716SOL     OW15277   5.842   0.644   6.355  0.2256 -0.1241  0.4655
36716SOL    HW115278   5.883   0.729   6.369  1.3023 -0.5962  0.2591
36716SOL    HW215279   5.748   0.661   6.361  0.4888  0.7249  2.3762
36717SOL     OW15280  10.639   9.404   6.346 -0.4647 -0.2287  0.3812
36717SOL    HW115281  10.578   9.477   6.338 -0.4967 -0.4286 -1.4370
36717SOL    HW215282  10.634   9.359   6.261  1.8761 -0.4779  0.3421
36718SOL     OW15283  11.320   1.668   6.570 -0.2268  0.1403  0.0368
36718SOL    HW115284  11.287   1.752   6.604  0.0876 -0.0149  0.7256
36718SOL    HW215285  11.257   1.645   6.502 -0.3609  0.9009 -0.1099
36719SOL     OW15286  10.463   0.358   4.448 -0.2019 -0.4581 -0.0303
36719SOL    HW115287  10.528   0.335   4.514  0.1171 -0.7524 -0.4473
36719SOL    HW215288  10.382   0.319   4.479  0.3051 -2.0564 -0.6714
36720SOL     OW15289   4.780   8.959   3.231 -0.1671 -0.5402  0.1217
36720SOL    HW115290   4.796   8.866   3.248 -1.3151 -0.4155  2.0259
36720SOL    HW215291   4.769   8.998   3.318 -0.2401  1.2811 -0.6786
36721SOL     OW15292   6.750   5.764   9.708  0.2830 -0.5398 -0.2988
36721SOL    HW115293   6.694   5.744   9.783 -0.0822  2.6566  0.3828
36721SOL    HW215294   6.809   5.833   9.741  3.3673 -2.4659 -1.5472
36722SOL     OW15295   9.279   1.507   2.988  0.4563 -0.0448 -0.4224
36722SOL    HW115296   9.230   1.579   3.028  0.1052 -1.0557  1.0032
36722SOL    HW215297   9.302   1.539   2.900 -0.4148  1.4727 -0.1083
36723SOL     OW15298   7.482   5.051   3.137  0.0625 -0.1735 -0.2978
36723SOL    HW115299   7.508   5.140   3.163 -0.5998 -0.2748  0.7107
36723SOL    HW215300   7.406   5.032   3.191  1.6811 -2.3349  1.3039
36724SOL     OW15301   3.117   7.637   1.857 -0.7064  0.2552  0.3877
36724SOL    HW115302   3.089   7.720   1.817  0.7836  0.2009 -0.8020
36724SOL    HW215303   3.074   7.570   1.804  0.0117  0.2234 -0.1666
36725SOL     OW15304  11.022  10.056   4.455 -0.5032 -0.0669  0.1156
36725SOL    HW115305  10.967  10.087   4.527 -0.2688 -0.4690  0.4675
36725SOL    HW215306  11.006  10.119   4.384  0.2168  1.0307  0.9234
36726SOL     OW15307   9.330   2.414   2.128  0.9211  0.1500 -0.0125
36726SOL    HW115308   9.347   2.508   2.137  0.0277  0.1508  1.9357
36726SOL    HW215309   9.361   2.393   2.040  1.2111  2.2475 -0.4536
36727SOL     OW15310   8.169   4.423   1.926 -0.3293  0.0038  0.3466
36727SOL    HW115311   8.138   4.359   1.861  1.5178  0.1711 -0.7527
36727SOL    HW215312   8.175   4.373   2.007 -1.2198 -0.6075  0.0538
36728SOL     OW15313   0.839   3.915   3.829  0.2982 -0.4249  0.0104
36728SOL    HW115314   0.925   3.934   3.867  0.0821 -0.0599  0.3109
36728SOL    HW215315   0.817   3.828   3.862  0.5464 -0.5131 -0.0569
36729SOL     OW15316   5.532   0.827   5.733  0.8035  0.3751  0.1184
36729SOL    HW115317   5.472   0.794   5.666  0.4284 -1.1439  1.1578
36729SOL    HW215318   5.475   0.863   5.801  1.1847  2.1544 -0.4746
36730SOL     OW15319   6.750   6.942   3.074  0.1559 -0.1089  0.0786
36730SOL    HW115320   6.720   6.877   3.137  0.5248 -0.1271  0.2391
36730SOL    HW215321   6.719   7.026   3.110 -2.5105 -0.4050 -1.4172
36731SOL     OW15322   0.647   0.866  10.055  0.2639 -0.0396  0.1861
36731SOL    HW115323   0.615   0.880   9.966 -0.0992  1.0689  0.4856
36731SOL    HW215324   0.741   0.856  10.046 -0.0429 -2.4934 -0.6165
36732SOL     OW15325   6.115   7.453   4.797 -0.1607  0.7206 -0.8857
36732SOL    HW115326   6.083   7.367   4.769  0.3990  0.6411 -1.2989
36732SOL    HW215327   6.138   7.498   4.716  2.2572  0.1758 -0.5496
36733SOL     OW15328   3.285  11.196   4.485  0.3020  0.1769 -0.0359
36733SOL    HW115329   3.357  11.185   4.547  1.5299 -0.2117 -1.5008
36733SOL    HW215330   3.293  11.285   4.453  1.1190 -0.3690 -1.3936
36734SOL     OW15331   4.950   5.224   3.847  0.4393 -0.4325  0.0212
36734SOL    HW115332   5.011   5.274   3.903 -0.9091  0.5524  0.6520
36734SOL    HW215333   4.941   5.140   3.891  1.2616 -0.5372 -0.0102
36735SOL     OW15334   4.430   4.200   1.923  0.5580  0.2352 -0.0422
36735SOL    HW115335   4.475   4.147   1.988  0.3377  1.3755  1.0762
36735SOL    HW215336   4.342   4.212   1.959  0.1929  0.2413 -0.9230
36736SOL     OW15337   2.446   5.215   4.617 -0.2438 -0.1290 -0.3112
36736SOL    HW115338   2.493   5.135   4.592  1.1541 -0.1336  2.2193
36736SOL    HW215339   2.493   5.286   4.574  0.0766 -0.4251 -0.4486
36737SOL     OW15340   3.575   7.543   3.619  0.3460 -0.4959 -0.5760
36737SOL    HW115341   3.633   7.506   3.552 -0.6920  0.1463 -1.8667
36737SOL    HW215342   3.620   7.527   3.702  1.0953 -2.4070 -1.3132
36738SOL     OW15343   9.513   3.371   3.094  0.2776  0.5164 -0.4548
36738SOL    HW115344   9.442   3.427   3.063  0.6776  0.7261 -1.0017
36738SOL    HW215345   9.470   3.304   3.146 -0.1924  1.4612  0.3878
36739SOL     OW15346   6.519   9.350   5.192  0.4356 -0.4026  0.2855
36739SOL    HW115347   6.434   9.308   5.204  0.1041  0.1929  0.0801
36739SOL    HW215348   6.570   9.287   5.142 -0.0504 -0.5715 -0.0049
36740SOL     OW15349   6.631  10.749   3.855  0.4536  0.6361 -0.6124
36740SOL    HW115350   6.537  10.761   3.869  0.4472  1.0326 -0.9612
36740SOL    HW215351   6.664  10.838   3.841  1.0892  0.6270  0.7581
36741SOL     OW15352   5.768   1.763   1.466 -0.3153  0.3248 -0.3871
36741SOL    HW115353   5.840   1.703   1.448  0.4692  1.5378 -1.4218
36741SOL    HW215354   5.785   1.839   1.410 -2.2356  0.7722 -0.4177
36742SOL     OW15355   6.558   5.689  10.960 -0.2506 -0.3369  0.5230
36742SOL    HW115356   6.475   5.654  10.930 -0.8070  1.0246  0.4227
36742SOL    HW215357   6.598   5.618  11.011 -1.5059 -0.9648  0.6393
36743SOL     OW15358   4.014   8.990   3.154 -0.1150  0.0547 -0.2881
36743SOL    HW115359   3.923   8.974   3.131  0.1015  1.1207 -1.9489
36743SOL    HW215360   4.030   8.933   3.229 -2.6944  1.2927  1.2551
36744SOL     OW15361   2.815   3.997  10.488  0.4308  0.4682  0.2934
36744SOL    HW115362   2.855   3.919  10.449  2.0561  1.0731  0.6847
36744SOL    HW215363   2.826   3.985  10.583  0.3075  0.9677  0.3722
36745SOL     OW15364  10.405   3.389   5.044 -0.0280  0.0836 -0.3144
36745SOL    HW115365  10.469   3.381   4.973  0.7128 -1.2452  0.4637
36745SOL    HW215366  10.326   3.346   5.011  0.1219  0.0102 -0.5716
36746SOL     OW15367   0.333   6.146   7.952 -0.5492  0.5402  0.7420
36746SOL    HW115368   0.362   6.237   7.945 -1.2823  0.7546  0.4344
36746SOL    HW215369   0.268   6.148   8.023 -0.6369  0.2753  0.6686
36747SOL     OW15370   0.712  11.132   3.944  0.1089  0.1224 -0.1341
36747SOL    HW115371   0.755  11.189   3.880  1.6036 -2.3690 -1.3807
36747SOL    HW215372   0.619  11.143   3.926  0.4125  1.3072 -1.0728
36748SOL     OW15373   9.091   8.611   5.093 -0.2916 -0.2498 -0.3569
36748SOL    HW115374   9.142   8.682   5.132 -0.4184 -0.0685 -0.5231
36748SOL    HW215375   9.109   8.535   5.149 -0.2784 -0.0500 -0.0879
36749SOL     OW15376   9.043   3.373  11.085  0.6744 -0.3986 -0.0951
36749SOL    HW115377   9.136   3.378  11.066  1.0216  0.7077  1.6960
36749SOL    HW215378   9.027   3.281  11.107  1.5248 -0.4305  0.3945
36750SOL     OW15379   9.730   1.679   6.196  0.5317  0.1917  0.0663
36750SOL    HW115380   9.734   1.686   6.291 -1.2417 -0.2549  0.1938
36750SOL    HW215381   9.710   1.587   6.179 -0.4154  0.5284 -0.6888
36751SOL     OW15382   7.556   2.451   4.349 -0.3116  0.1932  0.4904
36751SOL    HW115383   7.648   2.474   4.339 -0.6824  1.4290 -0.1760
36751SOL    HW215384   7.509   2.529   4.320 -1.5675 -0.4368  0.8185
36752SOL     OW15385   5.707  10.665   8.724 -0.0584  0.1311 -0.5643
36752SOL    HW115386   5.731  10.678   8.632  0.4770 -1.0266 -0.6047
36752SOL    HW215387   5.791  10.667   8.771 -0.3672  1.1367 -0.0482
36753SOL     OW15388   0.789   5.614   7.793 -0.8678 -0.2028 -0.6851
36753SOL    HW115389   0.696   5.594   7.786 -1.3214  1.8330 -0.6709
36753SOL    HW215390   0.797   5.705   7.766  0.9117  0.1109  0.7325
36754SOL     OW15391  11.130  10.397   8.333 -0.2863  0.3320 -0.1177
36754SOL    HW115392  11.091  10.319   8.372  1.1909 -0.2114  0.3051
36754SOL    HW215393  11.217  10.369   8.304  0.0521  1.6793 -0.4515
36755SOL     OW15394  10.034   6.621   7.149  0.2874 -0.3442 -0.0989
36755SOL    HW115395  10.068   6.690   7.092 -1.2257  0.2672 -0.2994
36755SOL    HW215396   9.971   6.574   7.094  1.6098 -2.1528 -0.0842
36756SOL     OW15397   9.194   0.289   7.409  0.0844 -0.2077  0.5286
36756SOL    HW115398   9.143   0.246   7.477 -1.7011  0.6848 -0.2104
36756SOL    HW215399   9.206   0.222   7.341 -0.1222 -0.4144  0.6990
36757SOL     OW15400   7.461   7.137   6.221 -0.1016  0.6135 -0.0302
36757SOL    HW115401   7.383   7.110   6.269  0.5020  0.3844  0.8403
36757SOL    HW215402   7.488   7.219   6.262  1.8938 -0.8846  1.7771
36758SOL     OW15403   3.167  11.166  11.323  0.4611  0.2099 -0.3646
36758SOL    HW115404   3.229  11.106  11.282  0.3501 -0.2688  0.1580
36758SOL    HW215405   3.161  11.136  11.414 -0.8062  0.0250 -0.4945
36759SOL     OW15406   2.015   0.492   3.668  0.2358 -0.6342 -0.0615
36759SOL    HW115407   2.110   0.504   3.667  0.5196 -2.7054 -0.7488
36759SOL    HW215408   1.991   0.507   3.760  0.9076  1.9361 -0.2659
36760SOL     OW15409   7.170  10.791   9.221  0.2040 -0.0179  0.1069
36760SOL    HW115410   7.126  10.733   9.283  0.2019  1.7952  1.8389
36760SOL    HW215411   7.259  10.755   9.214 -0.3971 -1.4446 -0.4683
36761SOL     OW15412  10.608   5.770   8.184 -0.0735  0.5032  0.0165
36761SOL    HW115413  10.561   5.791   8.265  0.3478  1.9864 -0.1168
36761SOL    HW215414  10.563   5.820   8.117 -1.0413 -1.4747 -0.8706
36762SOL     OW15415   1.331   6.426   0.883  0.3133 -0.1368 -0.3781
36762SOL    HW115416   1.263   6.360   0.874  1.1562 -1.0913  0.1618
36762SOL    HW215417   1.413   6.378   0.869  0.9137  0.8723 -0.3875
36763SOL     OW15418   0.766  10.564   4.984  0.5082 -0.3577 -0.1301
36763SOL    HW115419   0.694  10.623   5.005  0.4084 -0.7580  0.6552
36763SOL    HW215420   0.843  10.621   4.981  0.7263 -0.4460  2.5423
36764SOL     OW15421   1.349   9.887   0.329 -0.0912 -0.1364  0.5951
36764SOL    HW115422   1.422   9.930   0.285 -1.0602 -0.5652 -1.5056
36764SOL    HW215423   1.357   9.795   0.303 -2.5124  0.1446 -1.3730
36765SOL     OW15424   7.604   9.562   1.506  0.7150 -0.0654 -0.1172
36765SOL    HW115425   7.694   9.588   1.528  0.6631  0.3625 -0.4043
36765SOL    HW215426   7.607   9.546   1.412  1.4278 -3.8524  0.4692
36766SOL     OW15427   5.197   3.089   4.107  0.0293 -0.9427  0.0063
36766SOL    HW115428   5.163   3.048   4.027  0.4557 -2.0438  0.3901
36766SOL    HW215429   5.292   3.078   4.102  0.0295 -1.4096  0.8682
36767SOL     OW15430   8.385   0.025   3.410 -0.7436 -0.3364 -0.0069
36767SOL    HW115431   8.343   0.017   3.496 -0.9485 -0.2922 -0.1034
36767SOL    HW215432   8.346  -0.045   3.358 -3.6975  2.1899 -1.3346
36768SOL     OW15433   8.815   3.134   0.925 -0.7910 -0.2638  0.3081
36768SOL    HW115434   8.732   3.182   0.921 -0.7085 -0.1166  0.3248
36768SOL    HW215435   8.791   3.042   0.918 -0.9481 -0.2153  0.2223
36769SOL     OW15436  10.941   4.733   6.896  0.3625  0.2235  0.0486
36769SOL    HW115437  10.986   4.788   6.832  0.2427 -0.3786 -0.5608
36769SOL    HW215438  11.010   4.678   6.933  0.5327  0.9777  0.8690
36770SOL     OW15439   0.887   3.407   8.428 -0.0872 -0.7487  0.5758
36770SOL    HW115440   0.851   3.414   8.340  1.4088 -1.1434 -0.0718
36770SOL    HW215441   0.887   3.497   8.461  0.6767 -0.3986 -0.3596
36771SOL     OW15442   9.756   5.042   6.624  0.0535  0.7670  0.3034
36771SOL    HW115443   9.790   4.953   6.610 -2.0599  0.0820 -0.8050
36771SOL    HW215444   9.796   5.071   6.705 -0.1561 -1.6968  1.3389
36772SOL     OW15445   4.497   4.909   4.022 -0.0402  0.7459  0.0938
36772SOL    HW115446   4.409   4.872   4.021  0.4283 -0.4160  1.0028
36772SOL    HW215447   4.499   4.965   4.100  0.7292 -1.0137  1.3675
36773SOL     OW15448   9.806   8.409   2.695  0.0552  0.0494  0.4169
36773SOL    HW115449   9.836   8.332   2.646 -0.7315  1.2073 -1.9403
36773SOL    HW215450   9.878   8.428   2.755  1.8626 -0.3020 -1.5729
36774SOL     OW15451   6.666   1.380   7.052  0.4427  0.7256  0.0627
36774SOL    HW115452   6.744   1.371   6.997  0.4417 -0.7290  0.2738
36774SOL    HW215453   6.593   1.382   6.990  0.5145  0.1023 -0.0451
36775SOL     OW15454  10.386   9.100   9.151  0.1855 -0.4052 -0.4631
36775SOL    HW115455  10.442   9.121   9.076  1.2389 -0.2535  0.3561
36775SOL    HW215456  10.448   9.082   9.222 -0.8293  1.4280  0.9046
36776SOL     OW15457  11.191   6.324   3.218 -0.8659 -0.0028 -0.1235
36776SOL    HW115458  11.222   6.244   3.174  0.0958  1.5286 -2.2778
36776SOL    HW215459  11.124   6.293   3.278  0.1223 -2.5633 -0.2674
36777SOL     OW15460   1.042   5.098   9.513 -0.1896  0.2584  0.7343
36777SOL    HW115461   1.100   5.045   9.459 -0.9114  1.0676 -0.8773
36777SOL    HW215462   1.090   5.180   9.527 -0.0489  0.0937  1.2659
36778SOL     OW15463   0.813   6.227   6.096 -0.6131 -0.5608  0.6040
36778SOL    HW115464   0.845   6.278   6.170 -1.7208 -0.2534  0.8826
36778SOL    HW215465   0.770   6.151   6.136 -3.0386  0.6455  0.3927
36779SOL     OW15466   2.163   0.569  10.565  0.2797 -0.4381 -0.0190
36779SOL    HW115467   2.182   0.520  10.645  0.6753 -0.9311 -0.4221
36779SOL    HW215468   2.104   0.513  10.515 -1.5116  0.6682  0.7858
36780SOL     OW15469   9.631   9.081   4.115  0.8158 -0.5490  0.6231
36780SOL    HW115470   9.613   8.987   4.123 -0.0451 -0.6467 -1.9766
36780SOL    HW215471   9.672   9.090   4.029 -0.0417  1.5828  0.4091
36781SOL     OW15472  10.002  10.798   1.621  0.0087 -0.0818  0.1731
36781SOL    HW115473  10.097  10.797   1.629  0.1163  1.9483 -0.5335
36781SOL    HW215474   9.984  10.758   1.536  0.1495 -1.5121  0.8050
36782SOL     OW15475   1.701   6.485  10.883 -0.1226  0.4077 -0.2925
36782SOL    HW115476   1.620   6.504  10.836 -0.1192 -0.0100 -0.4743
36782SOL    HW215477   1.769   6.493  10.816  0.0196  1.0448 -0.0761
36783SOL     OW15478   9.316   9.260   0.782 -0.3456  0.2104  0.4844
36783SOL    HW115479   9.366   9.220   0.854  0.2989  1.2876  0.6461
36783SOL    HW215480   9.357   9.345   0.769  0.1096 -0.3242 -1.7673
36784SOL     OW15481   2.467  10.557   6.902  0.3488 -0.2365  0.2536
36784SOL    HW115482   2.520  10.498   6.850 -2.3543 -0.4963 -2.3433
36784SOL    HW215483   2.476  10.525   6.992  3.0202 -1.3839 -0.3796
36785SOL     OW15484   5.472   4.418   4.955 -0.2650 -0.3256 -0.6108
36785SOL    HW115485   5.418   4.389   4.882  0.8607 -0.6646 -1.3201
36785SOL    HW215486   5.560   4.385   4.935  0.9883  3.2101 -1.2610
36786SOL     OW15487   3.784   4.849   3.237 -0.3554 -0.3819 -0.0520
36786SOL    HW115488   3.734   4.870   3.316  0.3833 -0.6819  0.5047
36786SOL    HW215489   3.832   4.769   3.260 -0.1804 -0.4978 -0.8242
36787SOL     OW15490  11.054   5.535  10.011  0.1121  0.1375 -0.0013
36787SOL    HW115491  11.128   5.582  10.049  0.7551 -0.6384 -0.2809
36787SOL    HW215492  11.041   5.459  10.069  0.0968 -0.2007 -0.4421
36788SOL     OW15493   0.683   6.471   6.564  0.1842  0.6388 -0.5372
36788SOL    HW115494   0.646   6.499   6.480  0.8571 -0.1934 -1.1275
36788SOL    HW215495   0.732   6.547   6.595  2.2382  0.0970 -2.2617
36789SOL     OW15496   9.847   9.642   3.360 -0.6960  0.2053 -0.3217
36789SOL    HW115497   9.836   9.547   3.368 -2.6891  0.4579  0.1489
36789SOL    HW215498   9.871   9.656   3.269 -0.3216 -0.7518 -0.3749
36790SOL     OW15499   3.510   9.423   8.833 -0.1338  0.2608 -0.1697
36790SOL    HW115500   3.477   9.344   8.876  0.1915  0.0950 -0.2248
36790SOL    HW215501   3.486   9.495   8.892  1.2541 -0.0659  0.8303
36791SOL     OW15502   9.605  10.656   1.898  0.5579  0.0416 -0.1968
36791SOL    HW115503   9.652  10.576   1.920  1.3615  0.6747  0.4027
36791SOL    HW215504   9.632  10.720   1.964  0.2083  0.9147 -0.8765
36792SOL     OW15505   2.949   5.456   1.368 -0.1667 -0.0361  0.1373
36792SOL    HW115506   2.995   5.396   1.309 -0.9734 -0.5975  0.0738
36792SOL    HW215507   2.920   5.401   1.441  0.1913  0.5198  0.7040
36793SOL     OW15508   2.204   7.325  11.243  0.0148  0.4569  0.0920
36793SOL    HW115509   2.227   7.308  11.334  0.2227  0.4321  0.0343
36793SOL    HW215510   2.271   7.280  11.193  0.0907  0.7556 -0.0716
36794SOL     OW15511   8.365   2.404   6.365  0.0427 -0.4293 -0.3190
36794SOL    HW115512   8.280   2.438   6.336 -0.6836 -1.3991  0.6493
36794SOL    HW215513   8.344   2.321   6.408  1.5949 -1.1361 -0.9147
36795SOL     OW15514   9.927   0.930   5.288 -0.4898  0.1453 -0.2218
36795SOL    HW115515   9.994   0.900   5.349 -0.4199 -1.0322 -0.8752
36795SOL    HW215516   9.974   0.954   5.209 -0.7851 -0.1149 -0.4760
36796SOL     OW15517  10.751   9.447  10.297 -0.5205  0.0172 -0.0939
36796SOL    HW115518  10.780   9.358  10.317 -1.5244 -0.3124 -0.0959
36796SOL    HW215519  10.744   9.449  10.201 -0.5583  0.0732 -0.0899
36797SOL     OW15520   6.212  11.049   2.751  0.4475 -0.0529 -0.0051
36797SOL    HW115521   6.161  11.085   2.678  0.3642 -0.2762 -0.0592
36797SOL    HW215522   6.198  10.954   2.745  0.3916 -0.0678  0.3374
36798SOL     OW15523   5.633   1.010   9.617  0.3201  0.2983  0.4367
36798SOL    HW115524   5.644   0.958   9.538  1.5529  0.1097  0.7220
36798SOL    HW215525   5.668   0.955   9.687  2.9755  2.0535  0.5457
36799SOL     OW15526   7.830   0.304   4.129  0.4759  0.0838  0.2277
36799SOL    HW115527   7.745   0.322   4.170 -0.1760 -0.0397 -1.0365
36799SOL    HW215528   7.877   0.252   4.193 -1.1974 -1.6042  0.1223
36800SOL     OW15529  10.035  10.620   5.852  0.1852 -0.0905 -0.3534
36800SOL    HW115530  10.085  10.586   5.926 -1.2078 -1.7471 -0.1462
36800SOL    HW215531  10.004  10.541   5.806 -0.8687  0.9169 -1.3902
36801SOL     OW15532   3.332  10.641   8.683 -0.2772  0.1344  0.1379
36801SOL    HW115533   3.325  10.718   8.626 -1.0861  0.3202  0.4761
36801SOL    HW215534   3.420  10.647   8.720 -1.2015  2.2880  2.1001
36802SOL     OW15535   2.023   1.940   1.338 -0.0682 -0.5897 -0.0254
36802SOL    HW115536   1.970   1.985   1.404  1.0850 -1.3233  1.4238
36802SOL    HW215537   2.113   1.959   1.362  0.3677 -0.4460 -1.7031
36803SOL     OW15538   4.589   0.061  10.821  0.2689 -0.2505  0.1197
36803SOL    HW115539   4.540   0.059  10.739  1.1903 -1.4266 -0.4178
36803SOL    HW215540   4.581  -0.028  10.856  1.9213 -0.4341  0.0703
36804SOL     OW15541   0.373   1.564   2.041 -0.1555 -0.2894  0.1648
36804SOL    HW115542   0.375   1.659   2.033  1.2348 -0.0671  2.6253
36804SOL    HW215543   0.304   1.547   2.106  0.5447 -0.8596  0.7687
36805SOL     OW15544   0.395  10.444   5.511  0.0723 -0.3361 -0.0825
36805SOL    HW115545   0.361  10.517   5.563  0.3506 -0.0368 -0.3188
36805SOL    HW215546   0.483  10.429   5.546 -0.0257 -0.6327  0.0398
36806SOL     OW15547   8.702   0.501   6.843 -0.4186 -0.0765  0.2454
36806SOL    HW115548   8.733   0.539   6.761  2.2864 -0.1064  1.2022
36806SOL    HW215549   8.621   0.547   6.862 -1.4481 -0.5594 -2.7878
36807SOL     OW15550   0.206   2.049   2.091 -0.1223  0.1436  0.4067
36807SOL    HW115551   0.225   2.138   2.119  1.4938 -0.4107  1.1736
36807SOL    HW215552   0.130   2.057   2.033 -0.4611  1.9114  1.0666
36808SOL     OW15553   6.465  10.687   2.489  0.0762 -0.5043  0.0114
36808SOL    HW115554   6.467  10.630   2.412 -1.1816  0.9033 -1.0995
36808SOL    HW215555   6.504  10.769   2.459 -1.2035  0.3361  0.6206
36809SOL     OW15556   5.194   1.548   1.638 -0.1905 -0.4662  0.2902
36809SOL    HW115557   5.231   1.576   1.554 -0.0534  1.4005  0.9535
36809SOL    HW215558   5.140   1.472   1.616  0.1247 -0.2124 -1.4405
36810SOL     OW15559   7.722   2.509   9.362  0.3598  0.0887  0.2006
36810SOL    HW115560   7.776   2.530   9.438  0.0935  1.6055 -0.0186
36810SOL    HW215561   7.658   2.445   9.394  0.3101  0.6514  1.2237
36811SOL     OW15562   9.995   0.940   2.834  0.5596  0.2636 -0.3898
36811SOL    HW115563  10.048   1.018   2.846 -0.0177  0.6594 -0.3632
36811SOL    HW215564   9.936   0.939   2.909 -0.7564  0.8830 -1.3857
36812SOL     OW15565   3.277   5.940   4.179  0.4610  0.5764 -0.1023
36812SOL    HW115566   3.238   5.903   4.258 -1.7144  1.6116 -0.6414
36812SOL    HW215567   3.313   5.864   4.133  1.9394 -0.0087  1.9455
36813SOL     OW15568   4.545   7.421  10.142 -0.0746  0.1844 -0.6973
36813SOL    HW115569   4.586   7.475  10.210 -0.4191 -1.7455  1.0872
36813SOL    HW215570   4.466   7.469  10.118 -0.3929  0.4883  0.8998
36814SOL     OW15571  10.419  10.763   7.472 -0.3988  0.2152 -0.4217
36814SOL    HW115572  10.327  10.783   7.456  0.2264  2.3225 -1.6503
36814SOL    HW215573  10.462  10.781   7.388  1.1976 -0.3489  0.2555
36815SOL     OW15574   6.597   3.627   3.594  0.3784 -0.1383 -0.2461
36815SOL    HW115575   6.590   3.547   3.542  1.0218  0.4708 -1.2830
36815SOL    HW215576   6.508   3.642   3.626  0.2666 -1.3204  0.0543
36816SOL     OW15577   1.124   0.844   9.587  0.2851  0.2115  0.8026
36816SOL    HW115578   1.211   0.811   9.566  0.3863  0.1146  1.3514
36816SOL    HW215579   1.121   0.931   9.547  0.9323  0.5417  1.4591
36817SOL     OW15580   8.409   5.198   8.771 -0.0009  0.0040  0.5885
36817SOL    HW115581   8.501   5.186   8.745  0.3356  2.3044  0.5861
36817SOL    HW215582   8.377   5.266   8.712 -2.3423 -2.2283 -0.7749
36818SOL     OW15583   6.663  11.064   2.144 -0.3213 -0.2139  0.3538
36818SOL    HW115584   6.736  11.003   2.132  0.1066  0.0227  1.6113
36818SOL    HW215585   6.702  11.150   2.129 -0.1127 -0.0217  1.9190
36819SOL     OW15586   9.165  11.246  10.734  0.7980 -0.0661 -0.5202
36819SOL    HW115587   9.110  11.207  10.666 -0.0092  1.9104 -1.0427
36819SOL    HW215588   9.182  11.336  10.703  2.7265 -0.0171  0.5520
36820SOL     OW15589   0.074   0.592   8.708 -0.1062 -1.2444  0.6305
36820SOL    HW115590   0.122   0.673   8.728 -0.2969 -0.6734 -1.1475
36820SOL    HW215591   0.109   0.529   8.771  1.8147 -0.4113  0.4687
36821SOL     OW15592   8.320   6.162   6.065  0.5359 -0.1718  0.0288
36821SOL    HW115593   8.341   6.186   6.156  0.1903  0.7268 -0.1176
36821SOL    HW215594   8.394   6.108   6.037  0.1264 -1.3655  1.1892
36822SOL     OW15595  10.663   4.345   4.353 -0.4053 -0.2467 -0.2214
36822SOL    HW115596  10.663   4.361   4.447 -0.6700 -1.8134  0.0535
36822SOL    HW215597  10.620   4.422   4.316  0.3678  0.7307  0.8625
36823SOL     OW15598   6.006   8.613   4.357 -0.5336  0.1572 -0.4059
36823SOL    HW115599   6.042   8.526   4.377 -0.5812  0.0069 -0.9420
36823SOL    HW215600   6.074   8.655   4.305 -1.6656 -0.6473 -2.6048
36824SOL     OW15601   3.097   5.060   8.771 -0.2166 -0.3929 -0.2043
36824SOL    HW115602   3.150   4.995   8.724 -0.1529  0.2790 -1.0701
36824SOL    HW215603   3.041   5.007   8.829  2.9719 -1.0417  2.4588
36825SOL     OW15604   8.158   4.214   6.832  0.4514 -0.4247  0.1056
36825SOL    HW115605   8.073   4.179   6.807  1.5329 -2.2570 -1.1305
36825SOL    HW215606   8.138   4.284   6.895 -1.8679 -1.9474  1.1206
36826SOL     OW15607   5.556   3.418   4.428 -0.2970 -0.1767 -0.5546
36826SOL    HW115608   5.494   3.429   4.357 -1.6707  2.0251  0.9285
36826SOL    HW215609   5.635   3.384   4.386 -1.5962 -0.4367 -2.8556
36827SOL     OW15610  10.704   4.981   2.052  0.5617 -0.1989  0.5655
36827SOL    HW115611  10.714   4.887   2.034  0.0719  0.0734 -1.1615
36827SOL    HW215612  10.674   5.018   1.969 -3.0141  0.8768  2.2397
36828SOL     OW15613   2.124  10.370   4.683 -0.2699 -0.3418  0.4419
36828SOL    HW115614   2.160  10.458   4.683  0.1734 -0.5208 -0.1614
36828SOL    HW215615   2.085  10.360   4.596  1.9397 -1.6461 -0.4298
36829SOL     OW15616   6.139   9.314   4.729 -0.1184 -0.7355  0.1626
36829SOL    HW115617   6.145   9.359   4.813  0.4080  1.3915 -0.9752
36829SOL    HW215618   6.198   9.363   4.672 -1.0836 -1.6502 -1.6555
36830SOL     OW15619   7.240   0.509   6.601 -0.4972 -0.2324  0.2037
36830SOL    HW115620   7.259   0.419   6.575 -0.8270 -0.3496  0.3707
36830SOL    HW215621   7.208   0.551   6.521 -0.3152 -0.2541  0.1184
36831SOL     OW15622   7.264   7.788   1.466 -0.1054  0.3665  0.4803
36831SOL    HW115623   7.347   7.820   1.429  0.7572 -0.5404  1.5672
36831SOL    HW215624   7.291   7.727   1.535 -1.6916  0.0125  0.8093
36832SOL     OW15625   9.005   6.510   4.680 -0.0132  0.7682 -0.6588
36832SOL    HW115626   9.013   6.492   4.773  3.5437 -1.1362 -1.2411
36832SOL    HW215627   8.921   6.471   4.655 -0.3743  0.1295  1.4832
36833SOL     OW15628   9.465   7.792   4.013  0.2493  0.0701 -0.3667
36833SOL    HW115629   9.497   7.710   3.976  0.0150 -1.9209  3.5278
36833SOL    HW215630   9.542   7.832   4.053 -0.0009  0.7945 -0.6052
36834SOL     OW15631   7.433   7.952   5.955  0.1115 -0.0191 -0.1318
36834SOL    HW115632   7.414   7.987   5.868 -0.9297  1.2991  0.5910
36834SOL    HW215633   7.351   7.911   5.982 -0.1124  1.0973  0.9123
36835SOL     OW15634   7.820   6.737   8.792 -0.2058  0.0341  0.6958
36835SOL    HW115635   7.764   6.668   8.828  0.4171 -0.1938  1.2584
36835SOL    HW215636   7.794   6.816   8.838 -0.3630  0.0141  0.6404
36836SOL     OW15637   2.636   0.247   5.031 -0.1254 -0.0264  0.4703
36836SOL    HW115638   2.646   0.244   5.126 -1.8760  1.6591  0.7357
36836SOL    HW215639   2.719   0.214   4.997  0.4760 -0.7448  2.5760
36837SOL     OW15640   9.609  10.589   4.735 -0.0490  0.0449  0.0953
36837SOL    HW115641   9.621  10.522   4.801 -1.0237  0.5853  0.8340
36837SOL    HW215642   9.595  10.540   4.653  1.8910 -0.6061  0.1382
36838SOL     OW15643   1.388   2.661  10.921  0.6520  0.0267 -0.0991
36838SOL    HW115644   1.446   2.736  10.903 -0.1809  0.1980 -2.3117
36838SOL    HW215645   1.306   2.700  10.950  0.3840 -0.0452 -0.7531
36839SOL     OW15646   9.673   3.118   9.482  0.7673  0.2373  0.4546
36839SOL    HW115647   9.723   3.145   9.405  0.4794  0.7194  0.4304
36839SOL    HW215648   9.615   3.192   9.499 -1.4008 -1.1142 -0.7552
36840SOL     OW15649   9.306   5.808   0.226 -0.8049 -0.9146  0.0896
36840SOL    HW115650   9.252   5.730   0.239 -2.3650  0.4539  2.1527
36840SOL    HW215651   9.346   5.825   0.312 -0.5734  0.6071 -0.2913
36841SOL     OW15652   5.804   0.638   1.620 -0.3366  0.6540  0.0022
36841SOL    HW115653   5.755   0.714   1.655 -0.8982 -0.0919  0.8820
36841SOL    HW215654   5.888   0.641   1.666 -1.0651 -0.3105  1.4532
36842SOL     OW15655   7.310   6.945   6.701 -0.1831  0.2685  0.3752
36842SOL    HW115656   7.398   6.926   6.732  0.1213  0.2811 -0.4570
36842SOL    HW215657   7.254   6.934   6.778  0.5477  0.3115  0.9181
36843SOL     OW15658   0.842   8.704   0.393  0.3111  0.0986  0.2653
36843SOL    HW115659   0.755   8.695   0.353  0.5963 -0.6685 -0.1936
36843SOL    HW215660   0.827   8.690   0.486 -0.2485  1.1799  0.3413
36844SOL     OW15661   9.334  10.656   1.913  0.6517  0.0073  0.4761
36844SOL    HW115662   9.326  10.749   1.931  0.4373  0.5368 -2.1731
36844SOL    HW215663   9.427  10.637   1.930  1.0826  1.0777 -0.6307
36845SOL     OW15664   3.526   2.762  10.330 -0.0979  0.3445  0.3317
36845SOL    HW115665   3.515   2.850  10.294  2.1645  0.8699  0.7967
36845SOL    HW215666   3.619   2.743  10.317 -0.2961 -1.4752  1.3831
36846SOL     OW15667   9.752   7.410   3.490 -0.1159 -0.4042  0.2759
36846SOL    HW115668   9.759   7.328   3.539 -1.7715  0.6370  2.2946
36846SOL    HW215669   9.661   7.436   3.498  0.4910  1.9238  0.0733
36847SOL     OW15670   7.176   2.205   3.295  0.0476 -0.4632 -0.5263
36847SOL    HW115671   7.157   2.129   3.351  0.1848 -0.0059  0.1446
36847SOL    HW215672   7.272   2.207   3.290  0.0210 -0.8442 -1.2549
36848SOL     OW15673   9.241   3.855   1.506 -0.0808  0.3462 -0.5816
36848SOL    HW115674   9.315   3.906   1.472  0.5533  1.2216  1.9402
36848SOL    HW215675   9.227   3.786   1.441  0.7582  2.1724 -2.7596
36849SOL     OW15676   5.942   0.937   8.809 -0.0286  0.5893  0.3670
36849SOL    HW115677   5.945   0.865   8.746 -0.9776  1.2268 -0.4094
36849SOL    HW215678   5.957   1.016   8.757  2.7218  0.8642  1.4338
36850SOL     OW15679   1.142   4.280   0.366  0.0071  0.0261  0.2181
36850SOL    HW115680   1.064   4.290   0.312 -0.1515  1.1497  0.6497
36850SOL    HW215681   1.209   4.332   0.322 -0.0571  0.7513  0.9599
36851SOL     OW15682   9.582   6.578   4.265 -0.0204 -0.2833 -0.4009
36851SOL    HW115683   9.638   6.519   4.215  0.2672 -0.0605 -0.3457
36851SOL    HW215684   9.641   6.648   4.292  0.3494 -1.5461  2.1902
36852SOL     OW15685   1.799   5.583   9.914 -0.2262 -0.0938  0.0861
36852SOL    HW115686   1.853   5.512   9.879  2.3612  1.6572  0.3687
36852SOL    HW215687   1.742   5.607   9.841  1.8046  0.3283 -1.4007
36853SOL     OW15688   1.014   3.931   1.867  0.2118  0.2648  0.7130
36853SOL    HW115689   0.957   3.956   1.794  1.5813  0.6027 -0.2746
36853SOL    HW215690   1.063   3.855   1.834  0.1533 -0.1738  1.6311
36854SOL     OW15691   2.796   1.580   3.799 -0.2484  0.1298 -0.7346
36854SOL    HW115692   2.855   1.570   3.724 -0.7347  0.2449 -1.1383
36854SOL    HW215693   2.716   1.618   3.762 -0.3676  0.5132 -0.0995
36855SOL     OW15694   7.486   6.224   9.350  0.3991  0.0319  0.7602
36855SOL    HW115695   7.445   6.203   9.434  0.6472  0.7258  1.0579
36855SOL    HW215696   7.538   6.302   9.367 -0.2233  0.6752 -0.2598
36856SOL     OW15697   8.161   0.006   4.524  0.1497 -0.3070 -0.6518
36856SOL    HW115698   8.200  -0.081   4.531 -0.0656 -0.3048  0.8033
36856SOL    HW215699   8.221   0.064   4.572 -1.6386 -0.3282  1.7172
36857SOL     OW15700   1.523   9.842   2.952  0.4276  0.6103  0.0694
36857SOL    HW115701   1.599   9.797   2.915 -0.4437  1.5844 -3.0633
36857SOL    HW215702   1.463   9.771   2.975  1.7075 -0.0950  1.3362
36858SOL     OW15703   1.955   2.500   7.889  0.1838  0.1519  0.1267
36858SOL    HW115704   2.049   2.487   7.877  0.7738  2.4917  1.7822
36858SOL    HW215705   1.931   2.564   7.822 -0.4059 -1.0011 -0.7798
36859SOL     OW15706   3.997   6.512   2.200  0.1709 -0.0374  0.2812
36859SOL    HW115707   4.073   6.538   2.148 -0.2154 -1.4816 -1.0353
36859SOL    HW215708   4.025   6.432   2.246  0.1580  0.6373  1.4833
36860SOL     OW15709   2.003   7.118   0.875 -0.5081 -0.0998 -0.3188
36860SOL    HW115710   2.045   7.148   0.794 -2.2712  0.6410 -0.9692
36860SOL    HW215711   2.041   7.031   0.890  2.1143  1.0137 -0.2500
36861SOL     OW15712   9.942   3.013   7.133 -0.3893 -0.5806  0.3303
36861SOL    HW115713   9.849   3.027   7.120 -0.6004 -2.0148  0.2950
36861SOL    HW215714   9.964   3.067   7.209 -1.2659 -0.3754  0.4379
36862SOL     OW15715  11.255   3.521   0.653 -0.2320  0.0940  0.3173
36862SOL    HW115716  11.298   3.454   0.601  1.4168  1.1174  0.3066
36862SOL    HW215717  11.197   3.566   0.592  0.0510 -0.1311 -0.1187
36863SOL     OW15718   4.873   9.996   4.376  0.0656 -0.0002 -0.1856
36863SOL    HW115719   4.838  10.070   4.325  0.6449  0.4033  0.0030
36863SOL    HW215720   4.966  10.015   4.385 -0.0192 -0.1114  0.9551
36864SOL     OW15721   8.483  10.013   4.941 -0.2166  0.1038  0.4227
36864SOL    HW115722   8.542   9.986   5.012 -0.1591  0.2514  0.4315
36864SOL    HW215723   8.541  10.053   4.876 -0.2006 -0.5007  0.0613
36865SOL     OW15724  10.916   7.680   5.867 -0.6391 -0.5825  0.2965
36865SOL    HW115725  10.911   7.607   5.930 -2.2200  0.3115  1.2353
36865SOL    HW215726  10.911   7.758   5.922  0.1227  0.2308 -0.7929
36866SOL     OW15727   5.931   6.513   3.480 -0.1697  0.1003  0.0725
36866SOL    HW115728   5.919   6.420   3.464  2.4968 -0.2182 -0.4019
36866SOL    HW215729   5.975   6.545   3.401  2.5709  0.9067  1.8372
36867SOL     OW15730   0.744   9.346   3.858 -0.1097  0.4322 -0.1646
36867SOL    HW115731   0.826   9.364   3.905  0.0622 -1.0217  0.1076
36867SOL    HW215732   0.682   9.320   3.926 -0.1198 -0.7837 -0.6284
36868SOL     OW15733   8.607   1.062   5.378  0.2609 -0.3029  0.2221
36868SOL    HW115734   8.633   1.114   5.302  0.1456 -0.9189 -0.2394
36868SOL    HW215735   8.629   0.972   5.354 -0.2228 -0.5556  0.7281
36869SOL     OW15736   0.812   3.984  10.507 -0.6792  0.1555 -0.3171
36869SOL    HW115737   0.736   4.014  10.457 -1.1010 -1.9866 -1.0148
36869SOL    HW215738   0.776   3.922  10.571  0.1901  0.9057  0.9176
36870SOL     OW15739   3.882   7.457   1.096 -0.2434 -0.1937 -0.5790
36870SOL    HW115740   3.937   7.471   1.019  1.3007  1.2160  0.7515
36870SOL    HW215741   3.827   7.536   1.100  1.3069  0.8400  1.0620
36871SOL     OW15742   1.011   0.890   4.987  0.0136  0.2766 -0.0717
36871SOL    HW115743   1.059   0.905   4.906 -0.4497 -0.5509 -0.5011
36871SOL    HW215744   1.075   0.907   5.056  0.9069 -0.7481 -0.6362
36872SOL     OW15745   4.388   8.298   2.948 -0.5876 -0.6489  0.6217
36872SOL    HW115746   4.293   8.308   2.936 -0.7089 -1.8071  0.5383
36872SOL    HW215747   4.400   8.205   2.970  0.2966 -0.0075  2.9758
36873SOL     OW15748   7.416   3.910   8.167  0.0037 -0.2757 -0.6884
36873SOL    HW115749   7.380   3.856   8.237  0.1065  0.4656 -0.0567
36873SOL    HW215750   7.478   3.852   8.122  0.4369 -0.5582  0.2459
36874SOL     OW15751   4.766   2.199   8.217 -0.6741  0.6007 -0.0069
36874SOL    HW115752   4.708   2.257   8.268  0.9938  3.6845 -1.4437
36874SOL    HW215753   4.844   2.189   8.272 -0.1271  1.4113 -0.6342
36875SOL     OW15754  10.084   4.213   4.767 -0.2887  0.4632 -0.0844
36875SOL    HW115755  10.106   4.205   4.860 -0.6528 -0.7483 -0.0945
36875SOL    HW215756  10.163   4.187   4.720  0.0457  1.5237 -0.1201
36876SOL     OW15757   8.341   9.563   7.495  0.4456  0.1670  0.2540
36876SOL    HW115758   8.364   9.655   7.479  1.1797 -0.2694 -1.2852
36876SOL    HW215759   8.258   9.552   7.449  0.0587  0.2082  0.9359
36877SOL     OW15760   3.367   9.354   1.020 -0.1685  0.2218  0.2111
36877SOL    HW115761   3.423   9.343   0.943  1.3259 -0.2706  1.3489
36877SOL    HW215762   3.279   9.359   0.985  0.5200  0.2410 -1.5583
36878SOL     OW15763   1.132   1.626   2.013 -0.9170 -0.4478  0.1790
36878SOL    HW115764   1.098   1.673   2.089  2.2044 -0.6566  1.7737
36878SOL    HW215765   1.209   1.675   1.987  1.2594 -3.5103  0.6312
36879SOL     OW15766   1.998   2.358   6.356  0.0659 -0.1659 -0.0988
36879SOL    HW115767   2.060   2.367   6.428  0.0920 -1.0253 -0.0043
36879SOL    HW215768   1.917   2.328   6.397  0.0993 -0.7195 -0.4300
36880SOL     OW15769   2.886   9.579   9.955  0.7028 -0.2172  0.0496
36880SOL    HW115770   2.847   9.644   9.896 -2.1083 -1.1704  0.8343
36880SOL    HW215771   2.962   9.624   9.992 -0.1101  1.9628 -0.8379
36881SOL     OW15772   7.923   8.003   2.965 -0.2785 -0.1434  0.0524
36881SOL    HW115773   7.960   7.917   2.946 -0.0539 -0.0887  0.2534
36881SOL    HW215774   7.845   8.008   2.909  0.0806 -0.2079 -0.4619
36882SOL     OW15775  10.668   5.181  10.135 -0.1553 -0.0143 -0.2353
36882SOL    HW115776  10.642   5.207  10.047 -0.1221  3.7579  0.7561
36882SOL    HW215777  10.621   5.100  10.152 -0.9745 -0.2394 -3.3058
36883SOL     OW15778  10.258   8.852   2.613 -0.3856 -0.2376 -0.0706
36883SOL    HW115779  10.319   8.922   2.592 -0.4708 -0.5673 -1.4333
36883SOL    HW215780  10.314   8.777   2.635 -0.2936  0.3305  1.6885
36884SOL     OW15781   7.263   3.494   4.029  0.2014 -0.4944 -0.0540
36884SOL    HW115782   7.180   3.472   4.070 -0.4399 -1.8898 -2.0085
36884SOL    HW215783   7.242   3.565   3.968  0.6260 -0.2281  0.1052
36885SOL     OW15784   2.652   3.588   7.063 -0.0871  0.2838  0.5159
36885SOL    HW115785   2.606   3.518   7.017  3.0237 -1.2931 -0.3376
36885SOL    HW215786   2.625   3.668   7.018 -0.2259 -0.8336 -1.4242
36886SOL     OW15787   0.914  10.023   7.033 -0.1295  0.5829  0.4425
36886SOL    HW115788   1.006   9.999   7.042 -0.5921 -0.5298  2.3186
36886SOL    HW215789   0.885   9.978   6.953  0.5407 -0.3630  0.7235
36887SOL     OW15790   1.762   8.080   1.422 -0.1338  0.5529  0.0169
36887SOL    HW115791   1.829   8.030   1.376 -0.3955 -0.6636  0.9454
36887SOL    HW215792   1.679   8.051   1.385 -0.3486 -0.4676  1.2591
36888SOL     OW15793   8.872   8.886   1.892 -0.2328 -0.2406 -0.6418
36888SOL    HW115794   8.913   8.805   1.861  1.9480 -0.5675  2.8141
36888SOL    HW215795   8.943   8.950   1.892 -0.9431  0.5719  0.5707
36889SOL     OW15796   6.108   3.657   3.134  0.4075 -0.0993  0.1667
36889SOL    HW115797   6.111   3.588   3.068  0.3688  0.0168  0.0429
36889SOL    HW215798   6.167   3.628   3.203  0.2309 -0.3560  0.2105
36890SOL     OW15799   2.329   8.575   1.651 -0.2733  0.3212  0.3702
36890SOL    HW115800   2.408   8.521   1.642 -0.8172 -0.1540 -1.9463
36890SOL    HW215801   2.275   8.528   1.714 -0.0567 -1.0607 -0.4473
36891SOL     OW15802   0.310   0.335   9.305 -0.0850  0.3468 -0.4374
36891SOL    HW115803   0.272   0.335   9.393 -1.7903 -0.1904 -1.1441
36891SOL    HW215804   0.242   0.295   9.250  0.9969  0.5900 -1.9794
36892SOL     OW15805   1.385   8.560   4.391 -0.2927 -0.4996  0.7308
36892SOL    HW115806   1.312   8.503   4.366 -1.1653 -0.2785  2.7315
36892SOL    HW215807   1.445   8.503   4.439  0.5971 -0.5357 -0.3796
36893SOL     OW15808   6.329   4.840   2.726 -0.9949  0.8358  0.8731
36893SOL    HW115809   6.408   4.796   2.758 -1.8260 -0.3972  1.2722
36893SOL    HW215810   6.282   4.772   2.678 -1.6260  1.6774  0.2878
36894SOL     OW15811   7.751   1.116  10.968 -0.6643 -0.4657  0.3747
36894SOL    HW115812   7.780   1.169  10.893  0.9045 -0.1717  1.1630
36894SOL    HW215813   7.659   1.099  10.951 -0.2937 -0.5270 -1.7082
36895SOL     OW15814   7.470   9.799   1.216 -0.0488 -0.4220 -0.2584
36895SOL    HW115815   7.383   9.770   1.187 -0.0470  0.9495 -1.7162
36895SOL    HW215816   7.531   9.741   1.170 -0.1403 -0.0935 -0.8027
36896SOL     OW15817   0.818  10.716   0.294  0.0079  0.0497  0.2403
36896SOL    HW115818   0.809  10.642   0.234 -0.1579  0.0430  0.2731
36896SOL    HW215819   0.887  10.690   0.354 -0.0221 -0.0608  0.2260
36897SOL     OW15820   9.604   1.610   8.124  0.8636  0.4038 -0.2636
36897SOL    HW115821   9.639   1.572   8.043  2.7637 -1.4094  1.3255
36897SOL    HW215822   9.517   1.572   8.133  0.7397  0.4278 -1.3499
36898SOL     OW15823   9.406   0.545   3.045 -0.1289  0.5899  0.1337
36898SOL    HW115824   9.414   0.521   3.137 -0.5747  0.1542  0.0624
36898SOL    HW215825   9.316   0.524   3.023 -0.3647  1.8124 -0.0884
36899SOL     OW15826   6.579   6.123   9.199 -0.0383  0.4915  0.3917
36899SOL    HW115827   6.651   6.170   9.156 -0.7630  2.0066  0.7886
36899SOL    HW215828   6.572   6.164   9.285 -1.5512  0.5549  0.2559
36900SOL     OW15829   7.251  11.330   1.768 -0.2995 -0.0370 -0.4415
36900SOL    HW115830   7.212  11.260   1.716 -0.4661 -0.0419 -0.3119
36900SOL    HW215831   7.274  11.398   1.704 -1.8350  0.5754 -0.3595
36901SOL     OW15832   3.881   0.985   8.609 -0.2093 -0.0408 -0.3041
36901SOL    HW115833   3.974   0.993   8.631 -0.4351 -0.0471  0.6719
36901SOL    HW215834   3.850   1.075   8.599 -0.3725  0.0087  0.5726
36902SOL     OW15835   6.572   2.505   1.863  0.2804  0.6734  0.1490
36902SOL    HW115836   6.476   2.510   1.862  0.1498 -1.0764  1.3202
36902SOL    HW215837   6.597   2.548   1.945  0.6544  3.0590 -1.1885
36903SOL     OW15838   9.971  10.302   8.787  0.2468 -0.1818  0.3629
36903SOL    HW115839  10.050  10.352   8.811  1.1276 -1.9304  1.2134
36903SOL    HW215840   9.903  10.369   8.775  1.1498  1.1603  2.3949
36904SOL     OW15841   1.002   8.224   5.781 -0.2193 -0.3709  0.3149
36904SOL    HW115842   1.043   8.252   5.699  0.4349 -1.0869  0.3886
36904SOL    HW215843   1.050   8.144   5.806 -0.5140 -0.2468  1.3094
36905SOL     OW15844   2.159   6.685   7.321  0.6198  0.2123  0.0492
36905SOL    HW115845   2.179   6.686   7.227  1.0948  2.8071  0.1525
36905SOL    HW215846   2.064   6.690   7.326  0.6031  0.2347 -0.2874
36906SOL     OW15847   0.556  11.263   7.043 -0.0651 -0.2084  0.6115
36906SOL    HW115848   0.645  11.296   7.046 -0.3103  0.4616  0.7627
36906SOL    HW215849   0.535  11.256   6.950  0.6885 -1.8848  0.5593
36907SOL     OW15850   8.486   3.443   6.249 -0.0853  0.2429  0.8459
36907SOL    HW115851   8.483   3.531   6.213 -1.5698  0.4181  1.3624
36907SOL    HW215852   8.396   3.411   6.241  0.4881 -1.3190  0.4275
36908SOL     OW15853  10.391   0.959   0.838  0.1350  0.2441 -0.4178
36908SOL    HW115854  10.376   1.013   0.916  0.0763  0.7339 -0.7642
36908SOL    HW215855  10.410   1.023   0.769 -0.3992 -0.1616 -0.9327
36909SOL     OW15856   6.797   7.202   7.403  0.0009 -0.4475  0.4181
36909SOL    HW115857   6.728   7.137   7.385  0.1881 -1.3164  2.7243
36909SOL    HW215858   6.871   7.174   7.349 -0.4175 -1.3004  0.2742
36910SOL     OW15859   9.146   3.064   3.421 -0.7069  0.5149  0.0942
36910SOL    HW115860   9.167   3.119   3.497  0.6249 -0.5041  0.4946
36910SOL    HW215861   9.157   3.122   3.346 -0.7488  1.1891  0.6024
36911SOL     OW15862   1.628   5.755   2.492 -0.4741 -0.2224 -0.0460
36911SOL    HW115863   1.603   5.725   2.405  0.8306 -1.1515 -0.1106
36911SOL    HW215864   1.648   5.848   2.480  2.6651 -1.0101 -1.4020
36912SOL     OW15865  10.257   7.039   6.634 -0.3602  0.0867  0.8599
36912SOL    HW115866  10.273   7.128   6.600 -0.6574 -0.7530 -1.6005
36912SOL    HW215867  10.339   7.014   6.675  0.2466  0.9192  0.1815
36913SOL     OW15868   1.340   1.111   5.718 -0.1157  0.6910  0.1540
36913SOL    HW115869   1.355   1.046   5.787  0.2802  0.5481 -0.0628
36913SOL    HW215870   1.421   1.110   5.667 -1.1491 -0.6531 -1.5292
36914SOL     OW15871   1.848   7.164   5.261 -0.2487  0.0066  0.3115
36914SOL    HW115872   1.768   7.137   5.216  0.5500 -0.6269 -0.7230
36914SOL    HW215873   1.847   7.260   5.255 -1.1598  0.0303  0.7127
36915SOL     OW15874   0.267  11.089   1.342  0.2106 -0.4550 -0.1803
36915SOL    HW115875   0.182  11.052   1.368  0.5921 -0.6707  0.7665
36915SOL    HW215876   0.255  11.112   1.250 -0.8902 -0.4576 -0.0486
36916SOL     OW15877   4.307  10.740  10.233  0.9430  0.6070 -0.1399
36916SOL    HW115878   4.268  10.805  10.174 -1.7756  1.2146  2.2117
36916SOL    HW215879   4.262  10.658  10.211 -0.1188  0.8470  1.0899
36917SOL     OW15880   3.755   2.777   0.808  0.0647  0.4692  0.1765
36917SOL    HW115881   3.663   2.799   0.793 -0.6407 -1.2902  1.6809
36917SOL    HW215882   3.767   2.786   0.903  0.2882 -3.2133  0.5946
36918SOL     OW15883   9.726   5.420   9.635 -0.0713  0.3124 -0.0095
36918SOL    HW115884   9.732   5.509   9.670  0.3647  0.4969 -0.5583
36918SOL    HW215885   9.720   5.364   9.713  1.5504  0.6749  0.3946
36919SOL     OW15886   3.261   5.095   9.314  0.3281 -0.3140  0.8299
36919SOL    HW115887   3.222   5.102   9.227  0.0095 -1.1747  0.9011
36919SOL    HW215888   3.285   5.185   9.336  2.1377 -0.3341 -0.9154
36920SOL     OW15889   7.269   0.696  10.982 -0.6329 -0.3685 -0.7325
36920SOL    HW115890   7.263   0.612  11.027 -1.5069 -0.0444 -0.2161
36920SOL    HW215891   7.178   0.718  10.961 -0.5873  1.2538  0.6727
36921SOL     OW15892   2.229   9.664   6.089  0.0457  0.1670 -0.1063
36921SOL    HW115893   2.259   9.739   6.140 -1.4892  2.3756 -2.3803
36921SOL    HW215894   2.303   9.643   6.032 -0.0378  0.8985 -0.4907
36922SOL     OW15895   5.846   7.945   1.031  0.3527  0.2343  0.0250
36922SOL    HW115896   5.783   7.921   0.962  1.3221  0.2496 -0.8710
36922SOL    HW215897   5.912   7.998   0.986  1.4898 -0.5147  0.7879
36923SOL     OW15898   5.374   0.880   4.777  0.2936  0.0279 -0.3473
36923SOL    HW115899   5.377   0.792   4.740  0.1174 -0.4953  0.8557
36923SOL    HW215900   5.309   0.926   4.724  0.5869 -0.4802 -1.1528
36924SOL     OW15901   1.591  10.942  10.817 -0.6415  0.1218 -0.2602
36924SOL    HW115902   1.630  10.930  10.730 -0.6103 -1.6412 -0.0277
36924SOL    HW215903   1.630  11.022  10.851  1.2399 -0.5159 -0.8594
36925SOL     OW15904   0.760   4.350   7.057 -0.3524  0.0664 -0.1560
36925SOL    HW115905   0.767   4.335   7.151 -1.5731  2.1515  0.3049
36925SOL    HW215906   0.821   4.422   7.040 -0.7465  0.2498 -0.8082
36926SOL     OW15907   7.150   3.181   6.680  0.6925  0.3372 -0.0721
36926SOL    HW115908   7.199   3.132   6.747  0.2613 -0.3897 -0.2790
36926SOL    HW215909   7.094   3.240   6.729  1.0240  0.4357  0.1903
36927SOL     OW15910   4.489   7.627   3.243 -0.0973 -0.1417 -0.0484
36927SOL    HW115911   4.572   7.667   3.215 -0.1293  0.2708  0.4413
36927SOL    HW215912   4.474   7.662   3.331 -0.5591 -0.5738  0.0457
36928SOL     OW15913   7.948  10.455  10.968 -0.2165  0.1125 -0.0851
36928SOL    HW115914   7.990  10.402  10.901 -0.4219  1.4190 -1.2578
36928SOL    HW215915   7.889  10.393  11.013  0.1551 -0.8363 -0.8818
36929SOL     OW15916   2.247   3.478   5.993 -0.2726 -0.9983  0.5550
36929SOL    HW115917   2.301   3.468   6.072 -2.5576 -1.5406  2.0863
36929SOL    HW215918   2.230   3.388   5.964 -0.3143 -0.8249  0.0377
36930SOL     OW15919   1.561   1.122   2.909 -0.0982 -0.1118 -0.2092
36930SOL    HW115920   1.640   1.085   2.869  0.4626 -0.4767  1.2009
36930SOL    HW215921   1.563   1.215   2.886  1.0844  0.0066  0.3544
36931SOL     OW15922   1.898   6.684   7.367  0.3888 -0.0341 -0.4827
36931SOL    HW115923   1.848   6.761   7.396  0.3518  0.6196 -2.2462
36931SOL    HW215924   1.868   6.613   7.424 -0.3507  1.0244  0.4565
36932SOL     OW15925   5.096   4.386   9.206  0.1690 -0.4778 -0.2276
36932SOL    HW115926   5.133   4.317   9.260  1.1643  0.8441  0.8207
36932SOL    HW215927   5.002   4.386   9.226  0.1777 -1.4641 -0.1887
36933SOL     OW15928   3.925   8.766   0.647 -0.2145 -0.3834  0.2084
36933SOL    HW115929   4.015   8.764   0.617 -0.7662 -1.5752 -1.4184
36933SOL    HW215930   3.886   8.842   0.603 -0.7392 -1.5113 -1.3101
36934SOL     OW15931   4.319   4.937   3.444  0.3403  0.2796 -0.0212
36934SOL    HW115932   4.363   4.944   3.360 -0.0180  2.3544 -0.0692
36934SOL    HW215933   4.235   4.980   3.431  0.7582  1.6846  1.6842
36935SOL     OW15934   4.265   3.707   9.548  0.1823  0.4040 -0.4414
36935SOL    HW115935   4.299   3.671   9.630 -0.7340  0.3181 -0.0941
36935SOL    HW215936   4.247   3.630   9.494 -1.5109  0.3173  0.1972
36936SOL     OW15937   8.287   3.986   5.026 -0.6872  0.5022  0.0543
36936SOL    HW115938   8.365   3.965   5.078 -0.8279  0.1063  0.1059
36936SOL    HW215939   8.223   4.015   5.091 -0.4405  1.2471 -0.0339
36937SOL     OW15940   1.346   0.110   2.146 -0.2292  0.0378  0.1321
36937SOL    HW115941   1.399   0.182   2.179  0.8562 -0.4982 -0.4286
36937SOL    HW215942   1.372   0.101   2.054 -2.1986  0.5882 -0.5203
36938SOL     OW15943   5.148   6.801   0.836  0.7893 -0.1392 -0.0769
36938SOL    HW115944   5.066   6.832   0.799  0.6576 -1.6292 -1.0766
36938SOL    HW215945   5.171   6.867   0.902 -0.7269  0.7594 -0.4203
36939SOL     OW15946   6.958   4.423   7.146  0.1668 -0.5404  0.1125
36939SOL    HW115947   6.898   4.496   7.160  0.6371 -0.1629  0.1614
36939SOL    HW215948   6.984   4.396   7.234  0.0248 -0.7468  0.0931
36940SOL     OW15949   3.877   2.063   9.765 -0.0042 -0.4843  0.2621
36940SOL    HW115950   3.804   2.103   9.812  0.8562  0.4307  0.8602
36940SOL    HW215951   3.909   2.133   9.707  0.6245 -0.7447  0.2891
36941SOL     OW15952   8.465   1.645   8.332 -0.0637  0.6809  0.1151
36941SOL    HW115953   8.521   1.708   8.287 -0.7016  0.2976 -1.2314
36941SOL    HW215954   8.378   1.685   8.331 -0.5798 -0.4164 -1.1874
36942SOL     OW15955  10.623  11.146   6.606 -0.0942  0.1745 -0.3929
36942SOL    HW115956  10.607  11.224   6.659 -0.7818 -0.4080  0.2703
36942SOL    HW215957  10.682  11.092   6.659  0.9278  0.5383 -1.1412
36943SOL     OW15958   0.018   1.923  10.035 -0.3008  0.2681  0.1740
36943SOL    HW115959   0.089   1.986  10.022 -0.0005 -0.3309 -1.1619
36943SOL    HW215960  -0.028   1.920   9.951 -1.3494 -0.0425  0.7428
36944SOL     OW15961   6.844   4.879   4.187 -0.0386  0.0583 -0.7101
36944SOL    HW115962   6.853   4.857   4.279  0.5462 -1.2809 -1.0730
36944SOL    HW215963   6.750   4.885   4.172 -0.1218  2.4159  0.4358
36945SOL     OW15964   5.168   2.395   3.266 -0.4655 -0.4722 -0.0422
36945SOL    HW115965   5.192   2.449   3.191 -0.9608  0.3972  0.4172
36945SOL    HW215966   5.251   2.365   3.302 -0.1247  1.2857  0.6477
36946SOL     OW15967  10.005   8.259  10.667  0.0074 -0.5888  0.1848
36946SOL    HW115968   9.957   8.251  10.750  2.2011  1.1616  1.7001
36946SOL    HW215969  10.032   8.351  10.664  0.0614 -0.6727 -2.4361
36947SOL     OW15970   3.060   0.080   6.164  0.0157 -0.1981  0.3129
36947SOL    HW115971   3.044   0.152   6.225  0.6475 -0.9731  1.4061
36947SOL    HW215972   3.029   0.002   6.210  1.3432 -0.9062  0.0153
36948SOL     OW15973   0.267   7.051  10.676 -0.0494 -0.2889 -0.1724
36948SOL    HW115974   0.346   7.080  10.629 -0.5018  0.5761 -0.4211
36948SOL    HW215975   0.225   6.990  10.616 -0.3143  0.3581 -0.6544
36949SOL     OW15976   5.653   1.382   8.104 -0.6594 -0.3788  0.0218
36949SOL    HW115977   5.677   1.364   8.195 -0.8430  1.1345  0.3764
36949SOL    HW215978   5.572   1.332   8.091 -0.7482 -0.4371  0.7495
36950SOL     OW15979   9.939   6.932  10.769  0.2089  0.1686 -0.5339
36950SOL    HW115980   9.846   6.940  10.749 -0.2315 -0.8553  1.0237
36950SOL    HW215981   9.966   6.851  10.725 -0.2922 -1.0011  1.2513
36951SOL     OW15982   9.165   0.202   4.920  0.4450  0.2402  0.0160
36951SOL    HW115983   9.177   0.192   4.826 -1.0644 -0.0471 -0.1666
36951SOL    HW215984   9.126   0.119   4.948 -0.0115  0.6854  0.7238
36952SOL     OW15985   2.897   2.392   1.140 -0.3568  0.0201 -0.7695
36952SOL    HW115986   2.836   2.330   1.180 -0.3620  0.6380  0.1904
36952SOL    HW215987   2.843   2.468   1.116  0.2858  1.2647  1.6008
36953SOL     OW15988   4.182   0.831   8.004 -0.1674  0.0440  0.0488
36953SOL    HW115989   4.255   0.891   7.989  0.3903 -0.2634  1.3958
36953SOL    HW215990   4.213   0.775   8.076 -2.8087  1.6901  2.5543
36954SOL     OW15991   6.701   5.496   6.604  0.3672 -0.1676 -0.1454
36954SOL    HW115992   6.650   5.474   6.526 -1.2505 -0.2863  0.9314
36954SOL    HW215993   6.663   5.442   6.674  0.8202  1.0372  1.0587
36955SOL     OW15994   8.180   1.013   8.887  0.4192 -0.3589  0.4264
36955SOL    HW115995   8.103   1.022   8.830  0.6638 -0.1775  0.1222
36955SOL    HW215996   8.158   0.940   8.945 -0.5392  0.5462  1.2357
36956SOL     OW15997  11.038   3.758   1.770  0.2239 -0.6617 -0.3833
36956SOL    HW115998  11.013   3.778   1.680 -1.5152  0.2038  0.2724
36956SOL    HW215999  11.007   3.668   1.784 -0.1330 -0.5447 -0.4219
36957SOL     OW16000   7.043   7.207   9.163  0.4522 -0.0890 -0.5720
36957SOL    HW116001   7.092   7.283   9.133 -0.2859  0.5711 -0.0973
36957SOL    HW216002   6.988   7.239   9.235 -2.5189 -0.2246 -2.6677
36958SOL     OW16003  10.928   0.624   6.649 -0.5312  0.1939  0.3635
36958SOL    HW116004  10.873   0.584   6.717 -0.4629 -0.7012 -0.1039
36958SOL    HW216005  10.905   0.577   6.569  0.9521 -0.2130  0.1753
36959SOL     OW16006   1.773   5.008   1.138 -0.0041  0.4065  0.3477
36959SOL    HW116007   1.782   5.091   1.091  0.1401 -1.5287 -3.2334
36959SOL    HW216008   1.844   4.954   1.104 -0.6553 -1.5064  1.9700
36960SOL     OW16009   6.739   5.519   9.056 -0.3847  0.0864 -0.1742
36960SOL    HW116010   6.654   5.476   9.054 -0.4253  0.1993 -1.2760
36960SOL    HW216011   6.801   5.447   9.070 -0.5122 -0.2555 -1.2891
36961SOL     OW16012   6.799   8.782   2.589  0.0860 -0.4745  0.2620
36961SOL    HW116013   6.750   8.814   2.664  0.5992 -2.2316  1.4063
36961SOL    HW216014   6.874   8.735   2.628  0.5001 -1.2009 -1.3432
36962SOL     OW16015   4.467  11.024   5.154 -0.6550 -0.6192 -0.1531
36962SOL    HW116016   4.460  10.973   5.234 -0.9179 -1.2616 -0.5763
36962SOL    HW216017   4.539  11.086   5.170  0.9477 -2.3838 -0.3056
36963SOL     OW16018   8.551   3.042   6.470  0.5130 -0.0855 -0.5326
36963SOL    HW116019   8.639   3.020   6.440  0.0060 -1.9565 -0.7074
36963SOL    HW216020   8.493   3.007   6.402 -0.3891  0.8699 -0.2682
36964SOL     OW16021  10.477   9.267   9.890 -0.1247  0.3372 -0.2860
36964SOL    HW116022  10.556   9.224   9.924  0.3149  0.7028 -0.8321
36964SOL    HW216023  10.422   9.195   9.860  1.0713  0.1862 -2.2105
36965SOL     OW16024  10.956  10.814   3.749  0.4133 -0.3378 -0.4103
36965SOL    HW116025  10.890  10.865   3.704  0.8013 -0.7957 -1.5273
36965SOL    HW216026  10.927  10.811   3.840  0.0896  1.3514 -0.4480
36966SOL     OW16027   9.343   8.689   0.642 -1.0202 -0.2561 -0.0809
36966SOL    HW116028   9.307   8.752   0.704 -0.9596 -0.5930  0.3036
36966SOL    HW216029   9.329   8.604   0.684 -0.2959 -0.4317 -0.1895
36967SOL     OW16030   2.565   9.232   4.516  0.0344  0.0636 -0.4472
36967SOL    HW116031   2.536   9.145   4.541  0.9552 -0.3654 -0.8601
36967SOL    HW216032   2.485   9.278   4.492 -0.4486 -0.6836 -0.2878
36968SOL     OW16033  10.778   3.604   6.237  0.6898 -0.2672  1.1237
36968SOL    HW116034  10.810   3.639   6.154  1.5096  0.0297  1.5530
36968SOL    HW216035  10.761   3.512   6.220 -0.5065  0.1006  0.2512
36969SOL     OW16036   0.026   8.367   4.393 -0.9584  0.1664 -0.1946
36969SOL    HW116037   0.068   8.443   4.354  0.5783  0.1456  1.4032
36969SOL    HW216038  -0.067   8.390   4.396 -0.3904  2.4082  1.1894
36970SOL     OW16039   4.731   4.932   1.001 -0.3328  0.8821  0.5775
36970SOL    HW116040   4.780   4.977   0.932 -0.0056  0.7357  0.7110
36970SOL    HW216041   4.763   4.842   0.998 -0.9492  0.6711  0.3461
36971SOL     OW16042   4.254   2.617  10.440  0.4147 -0.0066 -0.0175
36971SOL    HW116043   4.187   2.632  10.506  0.2906 -2.5078  0.4931
36971SOL    HW216044   4.206   2.611  10.358  0.1039 -0.9020  0.2245
36972SOL     OW16045   8.593   2.131   2.811 -0.0047 -0.1979  0.1867
36972SOL    HW116046   8.539   2.109   2.735 -2.2714  0.1234  1.6628
36972SOL    HW216047   8.622   2.047   2.845 -1.4194 -0.5110  0.6635
36973SOL     OW16048  10.264   9.993   5.504  0.1931 -0.0570  0.0409
36973SOL    HW116049  10.293  10.060   5.441  0.0640 -1.6300 -1.7362
36973SOL    HW216050  10.173  10.016   5.522  0.2795  0.5176 -0.2203
36974SOL     OW16051   7.417   7.920   0.899 -0.2704 -0.1854  0.4740
36974SOL    HW116052   7.448   7.882   0.817 -0.3284 -0.6207  0.6555
36974SOL    HW216053   7.335   7.965   0.875  0.5479  1.0809 -0.0323
36975SOL     OW16054   5.581   4.760   4.507  1.0480 -0.1994 -0.5269
36975SOL    HW116055   5.636   4.797   4.438  1.0151 -0.2208 -0.5643
36975SOL    HW216056   5.562   4.833   4.566  1.1042 -0.1892 -0.5214
36976SOL     OW16057   4.992   5.021   7.254 -0.3863 -0.4395  0.0159
36976SOL    HW116058   4.899   5.026   7.277 -0.1240 -1.5551  1.3584
36976SOL    HW216059   5.016   5.111   7.230 -1.4759  0.1079  0.9519
36977SOL     OW16060   3.673   0.298   3.325 -0.2819 -0.4667  0.2991
36977SOL    HW116061   3.615   0.366   3.360  1.6788  0.6019  1.5359
36977SOL    HW216062   3.707   0.254   3.403  1.3420 -0.4117 -0.3643
36978SOL     OW16063   3.361   7.467   8.756 -0.5513  0.2302  0.9564
36978SOL    HW116064   3.281   7.482   8.805  0.0189  0.5732  1.8010
36978SOL    HW216065   3.333   7.455   8.666 -1.6123 -0.3949  1.3701
36979SOL     OW16066   5.372   6.440   5.012 -0.5404 -0.2775  0.0703
36979SOL    HW116067   5.351   6.490   4.933  0.5094  0.8875  0.5219
36979SOL    HW216068   5.302   6.462   5.074  1.4753  2.9563  1.2873
36980SOL     OW16069   8.205   7.604  10.893 -0.0926  0.4369  0.7291
36980SOL    HW116070   8.260   7.637  10.822  0.7204 -0.5538  0.8864
36980SOL    HW216071   8.193   7.511  10.873 -0.2039  0.2460  1.6523
36981SOL     OW16072  10.021  10.507   1.817 -1.0148  0.2273  0.7258
36981SOL    HW116073   9.928  10.499   1.796 -0.9361 -1.0228  0.8311
36981SOL    HW216074  10.058  10.422   1.795  0.1431  0.7781  0.5202
36982SOL     OW16075   1.138  10.813   3.205 -0.7989 -0.2015  0.2890
36982SOL    HW116076   1.228  10.787   3.222  0.2976  1.1493 -3.0278
36982SOL    HW216077   1.118  10.878   3.272  0.8178 -0.2763  0.8456
36983SOL     OW16078   4.309   3.161   0.741 -0.3825  0.3244 -0.1977
36983SOL    HW116079   4.315   3.217   0.819  1.7585  0.6164 -0.5183
36983SOL    HW216080   4.299   3.222   0.668 -0.1497  0.1922 -0.3434
36984SOL     OW16081   8.976   7.910  11.232  0.2405 -0.3255 -0.6339
36984SOL    HW116082   8.902   7.966  11.207  0.9701  0.3685 -1.2445
36984SOL    HW216083   8.993   7.857  11.155  2.1459  1.4414 -1.4655
36985SOL     OW16084   4.986   4.402   6.407 -1.2620 -0.1071 -0.3509
36985SOL    HW116085   4.986   4.497   6.396  1.3811  0.1526  1.4084
36985SOL    HW216086   4.902   4.383   6.449 -0.9651  1.7222  1.1569
36986SOL     OW16087   3.855   0.456   4.585 -0.0793 -0.2434  0.0317
36986SOL    HW116088   3.854   0.386   4.519  0.3186 -1.2318  1.0590
36986SOL    HW216089   3.929   0.511   4.560  0.5475 -1.0480  0.0905
36987SOL     OW16090   0.494   7.632   7.444 -0.3568  0.2138 -0.1797
36987SOL    HW116091   0.481   7.548   7.488 -2.4502 -0.0018 -1.1850
36987SOL    HW216092   0.478   7.613   7.352 -0.7033  1.7079 -0.4302
36988SOL     OW16093   4.650   3.380   1.920 -0.7075 -0.6068 -0.0877
36988SOL    HW116094   4.618   3.305   1.970 -1.3146  0.1761  0.7071
36988SOL    HW216095   4.670   3.446   1.986  2.7502 -1.1291 -0.5386
36989SOL     OW16096   5.410   7.888   0.407 -0.2615 -0.0229 -0.0389
36989SOL    HW116097   5.448   7.921   0.325  1.4321 -0.7889  0.4238
36989SOL    HW216098   5.326   7.934   0.414  0.1019  0.9302 -1.6071
36990SOL     OW16099   7.486   8.943   4.458 -0.0538  0.5809 -0.0108
36990SOL    HW116100   7.557   8.883   4.482 -0.3820  0.1235 -0.1860
36990SOL    HW216101   7.458   8.914   4.371 -0.0224  1.1665 -0.2245
36991SOL     OW16102  10.238   2.948   5.814  0.6084  0.4981 -0.2245
36991SOL    HW116103  10.199   3.026   5.853 -2.1116  0.5922 -3.0548
36991SOL    HW216104  10.165   2.899   5.778  2.5583 -2.0485 -0.8759
36992SOL     OW16105   7.943   0.738   7.964 -0.2403 -0.4715 -0.2541
36992SOL    HW116106   8.008   0.731   7.894 -1.6633  0.5950 -1.7000
36992SOL    HW216107   7.944   0.831   7.988 -0.6546 -0.6090  0.2918
36993SOL     OW16108   4.828   4.502   5.960 -0.0380 -0.1486  0.0275
36993SOL    HW116109   4.872   4.515   5.876 -0.8367  1.3139 -0.1740
36993SOL    HW216110   4.775   4.423   5.947 -1.2765  0.8801 -1.3278
36994SOL     OW16111   2.468   1.183  10.084 -0.1871  0.1348  0.1410
36994SOL    HW116112   2.424   1.266  10.067 -2.2816 -0.6812  1.4810
36994SOL    HW216113   2.547   1.187  10.030 -0.3837  2.8754 -0.0126
36995SOL     OW16114   8.211   6.997   7.099 -0.5173 -0.0311  0.6112
36995SOL    HW116115   8.148   7.057   7.140 -0.6698 -0.2565  0.7133
36995SOL    HW216116   8.241   6.942   7.172  0.5054  0.6819  0.7476
36996SOL     OW16117   1.777   0.227   7.224 -0.4088  0.7227 -0.1605
36996SOL    HW116118   1.711   0.189   7.165 -1.3947  0.7791  0.8880
36996SOL    HW216119   1.836   0.275   7.166 -0.7850 -0.0570 -1.2112
36997SOL     OW16120   1.072   9.237   0.068  0.0718  0.0488  0.0279
36997SOL    HW116121   1.077   9.321   0.113 -2.1458 -0.3127  1.0184
36997SOL    HW216122   1.042   9.176   0.135  3.2607 -1.9272 -0.2325
36998SOL     OW16123   9.259   3.355   4.511  0.5813  0.3472 -0.0964
36998SOL    HW116124   9.319   3.334   4.582  1.7519 -0.5624 -1.3482
36998SOL    HW216125   9.275   3.448   4.492  0.9238  0.3445  0.1847
36999SOL     OW16126   2.074  11.314   7.668 -0.1578  0.1611  0.5682
36999SOL    HW116127   2.111  11.266   7.593 -1.8650 -0.9662  0.4260
36999SOL    HW216128   2.146  11.368   7.699  1.0124 -0.4608 -0.9856
37000SOL     OW16129   3.655  10.409   2.539 -0.0150 -0.1888 -0.3934
37000SOL    HW116130   3.625  10.449   2.457  1.1226 -1.1819 -1.3106
37000SOL    HW216131   3.750  10.401   2.528  0.3336  0.9665  1.6086
37001SOL     OW16132   0.721   1.731   6.683 -0.3360  0.0282  0.1508
37001SOL    HW116133   0.714   1.720   6.588 -1.0871  0.7342  0.1210
37001SOL    HW216134   0.657   1.799   6.704  0.5011  0.5524  1.0373
37002SOL     OW16135   2.759   4.636   2.512 -0.4286  0.2118 -0.1190
37002SOL    HW116136   2.780   4.663   2.422 -2.2520 -1.1029 -0.9725
37002SOL    HW216137   2.810   4.556   2.525 -1.2872 -0.3982 -0.5057
37003SOL     OW16138   2.209   5.084   0.538 -0.7211  0.2768  0.3267
37003SOL    HW116139   2.269   5.157   0.554 -1.2966  0.2575  2.6218
37003SOL    HW216140   2.267   5.009   0.523 -0.1569  0.4517  1.5946
37004SOL     OW16141  10.111   2.528  10.485  0.3413 -0.2417 -0.3288
37004SOL    HW116142  10.069   2.607  10.520 -1.1842 -2.1527  2.3193
37004SOL    HW216143  10.041   2.482  10.440  1.3243  0.0879 -2.2203
37005SOL     OW16144   0.684   3.133   1.942 -0.1231  0.1102  0.3330
37005SOL    HW116145   0.779   3.144   1.935 -0.0187 -0.8717  0.0160
37005SOL    HW216146   0.656   3.201   2.003  0.8778  0.0176  0.9153
37006SOL     OW16147   2.680   6.791  10.440  0.0902 -0.2015  0.3769
37006SOL    HW116148   2.695   6.785  10.534 -0.5140  0.3729  0.5115
37006SOL    HW216149   2.588   6.768  10.428 -0.1298  0.8216  0.0500
37007SOL     OW16150  10.981   1.176   3.183 -0.3327 -0.4757  0.2532
37007SOL    HW116151  10.986   1.153   3.090  1.7368 -2.7239  0.8573
37007SOL    HW216152  10.919   1.113   3.221 -0.1059 -0.4738  0.6345
37008SOL     OW16153  10.451   7.225  10.721  0.1329  0.2744  0.4707
37008SOL    HW116154  10.466   7.290  10.652  0.4793  0.5991  0.8550
37008SOL    HW216155  10.534   7.221  10.769 -0.1401  0.1118  0.9277
37009SOL     OW16156   5.463   0.031   0.869  0.2867  0.2409  0.1409
37009SOL    HW116157   5.476   0.096   0.800  1.1554  1.2157  1.1982
37009SOL    HW216158   5.399   0.070   0.928 -1.2464 -1.0367 -0.6513
37010SOL     OW16159  10.122   3.205   3.871 -0.2796 -0.1523 -0.1290
37010SOL    HW116160  10.140   3.175   3.960 -1.2231  2.1514  0.8896
37010SOL    HW216161  10.027   3.218   3.869 -0.4257 -1.3041 -1.8613
37011SOL     OW16162  10.287   6.855   9.957 -0.1504 -0.3643 -0.0771
37011SOL    HW116163  10.254   6.941   9.931  1.7339  0.4361  0.1479
37011SOL    HW216164  10.213   6.814  10.002 -0.9249  1.2942  0.2072
37012SOL     OW16165   0.192   8.933   2.202  0.1084 -0.2142 -0.2828
37012SOL    HW116166   0.207   8.846   2.165  1.6744 -0.3032  0.5286
37012SOL    HW216167   0.272   8.982   2.183 -0.0010  0.4561  0.9195
37013SOL     OW16168   4.964   5.156   0.076  0.4904 -0.2221  0.3403
37013SOL    HW116169   4.909   5.233   0.064 -0.0818 -0.6799  0.0475
37013SOL    HW216170   5.054   5.190   0.071  0.2774  0.9281  3.3110
37014SOL     OW16171   8.898   4.975   1.478 -0.7841 -0.1834 -0.8486
37014SOL    HW116172   8.876   5.007   1.565  0.5006  0.0509 -0.6036
37014SOL    HW216173   8.813   4.956   1.437 -1.3689 -0.7480  0.6111
37015SOL     OW16174   0.237   7.686   9.353 -0.0822  0.1202 -0.6871
37015SOL    HW116175   0.315   7.631   9.347 -1.4854 -2.1790  0.9858
37015SOL    HW216176   0.174   7.645   9.293 -0.1982  1.6269 -1.6100
37016SOL     OW16177  10.985   8.241   9.627 -0.2389 -0.0863  0.3366
37016SOL    HW116178  11.028   8.225   9.712 -1.2553 -0.0223  0.8740
37016SOL    HW216179  10.921   8.310   9.646 -0.1569  0.2411 -0.5885
37017SOL     OW16180   9.053  10.657   1.119 -0.0638 -0.2389  0.6661
37017SOL    HW116181   9.000  10.720   1.070  3.2997 -0.0881 -3.0430
37017SOL    HW216182   9.117  10.711   1.165  0.8648 -0.7071 -0.0461
37018SOL     OW16183   9.048   6.665   1.387  0.2862  0.5224  0.0888
37018SOL    HW116184   9.101   6.609   1.330 -1.0556  0.6996 -1.3819
37018SOL    HW216185   9.110   6.728   1.424  1.4798 -0.7362  0.2325
37019SOL     OW16186   1.107   7.858   9.567 -0.1912  0.2892  0.7850
37019SOL    HW116187   1.095   7.891   9.478  0.1807  1.6727  1.2245
37019SOL    HW216188   1.018   7.848   9.601 -0.3524 -1.0128 -0.0064
37020SOL     OW16189  10.836   0.481   2.292 -0.3464  0.2803  0.3564
37020SOL    HW116190  10.832   0.394   2.252 -1.5982  0.0540  0.9537
37020SOL    HW216191  10.807   0.467   2.382  2.0206  0.8654  1.2508
37021SOL     OW16192   1.779  10.233   6.393 -0.1955 -0.4107  0.4006
37021SOL    HW116193   1.686  10.241   6.417  0.1039  1.5305  1.0402
37021SOL    HW216194   1.814  10.168   6.453 -0.7249  0.2387  1.4312
37022SOL     OW16195  11.292   8.749   0.120  0.3343  0.4471  0.0790
37022SOL    HW116196  11.318   8.692   0.048  1.2887  0.8289  0.1128
37022SOL    HW216197  11.296   8.837   0.083  0.6443  0.6283  0.5404
37023SOL     OW16198   4.266   2.939   9.860 -0.5669  0.2015 -0.3273
37023SOL    HW116199   4.189   2.993   9.877 -1.4362 -1.3710  0.9444
37023SOL    HW216200   4.235   2.869   9.802 -0.2361 -0.7080  0.5694
37024SOL     OW16201   2.587   1.578   3.481 -0.0818  0.0755 -0.8936
37024SOL    HW116202   2.546   1.529   3.553  1.3409 -1.1219 -0.8673
37024SOL    HW216203   2.624   1.511   3.424  0.8181  1.0845 -1.5263
37025SOL     OW16204   7.685   6.949   8.657  0.2736  0.0860  0.0430
37025SOL    HW116205   7.599   6.940   8.700  0.8264  0.0833  1.1760
37025SOL    HW216206   7.734   6.873   8.689  0.8555  0.3566 -0.2239
37026SOL     OW16207   4.457   2.302   7.522 -0.4261 -0.1347  0.4404
37026SOL    HW116208   4.539   2.254   7.525 -0.6715 -0.5288  0.9609
37026SOL    HW216209   4.389   2.235   7.523 -0.7609  0.2004  0.6276
37027SOL     OW16210  11.240   5.741   5.720  0.4670 -0.3867  0.0419
37027SOL    HW116211  11.150   5.763   5.693 -0.1681 -1.2796  1.3671
37027SOL    HW216212  11.231   5.660   5.769  1.7980  0.3300  1.5072
37028SOL     OW16213   8.933   5.975   1.997 -0.1087 -0.5178 -0.1067
37028SOL    HW116214   8.998   5.915   1.960 -1.0018 -1.9698  0.5917
37028SOL    HW216215   8.849   5.929   1.987 -0.6816  0.1389  1.4069
37029SOL     OW16216   0.485   5.195   2.170  0.4617  0.2153 -0.3255
37029SOL    HW116217   0.570   5.152   2.173 -0.8403 -2.3974  1.2612
37029SOL    HW216218   0.458   5.189   2.078  1.8201  0.7981 -0.7756
37030SOL     OW16219   9.012   1.423   9.826  0.0857 -0.0514  0.3363
37030SOL    HW116220   9.015   1.493   9.760  0.8529  0.6352  1.0937
37030SOL    HW216221   9.013   1.342   9.775  0.0029  0.4795 -0.5189
37031SOL     OW16222   8.253   4.825   4.580  0.3510 -0.0850  0.2742
37031SOL    HW116223   8.262   4.833   4.485 -0.7843  0.7029  0.2324
37031SOL    HW216224   8.244   4.915   4.612 -1.4428 -0.4580  0.8979
37032SOL     OW16225   8.974   1.988   5.110 -0.0110 -0.2335 -0.4100
37032SOL    HW116226   9.032   1.972   5.185 -0.6318 -0.0787  0.1047
37032SOL    HW216227   8.923   1.908   5.102 -0.0341 -0.2002 -0.5930
37033SOL     OW16228  10.932   4.869   0.945 -0.1226 -0.2388  0.0215
37033SOL    HW116229  10.967   4.789   0.986 -2.4172 -2.2402 -1.7799
37033SOL    HW216230  11.008   4.908   0.901  1.2505 -0.8210  1.7699
37034SOL     OW16231   7.794   8.067  10.266  0.4044 -0.0277  0.3642
37034SOL    HW116232   7.720   8.086  10.208 -0.7177 -1.1682  1.3799
37034SOL    HW216233   7.860   8.029  10.208  0.3146  1.2738 -0.6038
37035SOL     OW16234   0.477   3.316   8.226  0.0714  0.2729 -0.7708
37035SOL    HW116235   0.516   3.236   8.260  0.2791 -0.3769 -2.4494
37035SOL    HW216236   0.460   3.370   8.303 -2.1424 -2.2929  0.6436
37036SOL     OW16237   3.454  11.137   4.125  0.0684 -0.0358 -0.0750
37036SOL    HW116238   3.497  11.074   4.182  1.1500  0.8888  0.1485
37036SOL    HW216239   3.520  11.205   4.110 -0.9555  0.8550 -0.6080
37037SOL     OW16240   4.249   5.638   9.829 -0.4450  0.3448  0.1714
37037SOL    HW116241   4.275   5.691   9.754 -1.2139 -0.6600 -0.8140
37037SOL    HW216242   4.187   5.693   9.877 -1.2358  0.3628 -0.8457
37038SOL     OW16243   0.506   2.630   4.270  0.4077 -0.0437 -0.1890
37038SOL    HW116244   0.456   2.553   4.244 -0.4359 -0.1891  1.8283
37038SOL    HW216245   0.445   2.703   4.263  0.1651 -0.0837  1.3479
37039SOL     OW16246   2.844   5.536   4.560  0.2463  0.0634 -0.1509
37039SOL    HW116247   2.902   5.576   4.496  1.1725 -1.5779 -0.3555
37039SOL    HW216248   2.804   5.610   4.606  0.5319  1.2336 -1.7477
37040SOL     OW16249   5.915   3.127   3.385  0.0494  0.2100  0.2575
37040SOL    HW116250   5.984   3.190   3.410 -0.5998  0.3288  1.8431
37040SOL    HW216251   5.946   3.044   3.420  0.5397 -0.2131 -1.1701
37041SOL     OW16252   5.340   4.153   5.517  0.5542  0.0066  0.4216
37041SOL    HW116253   5.365   4.196   5.599  0.7179 -0.9883  0.9037
37041SOL    HW216254   5.424   4.130   5.476  0.4650 -1.3667  0.9842
37042SOL     OW16255   4.552   0.123   5.521  0.2030  0.3966  0.2129
37042SOL    HW116256   4.462   0.093   5.505 -0.3758  2.5008 -0.5643
37042SOL    HW216257   4.606   0.047   5.500 -1.1765  0.2038 -2.8762
37043SOL     OW16258   4.278   7.965   9.171  0.2642  0.1069  0.2560
37043SOL    HW116259   4.295   7.993   9.261 -0.7997  0.0366  0.4810
37043SOL    HW216260   4.358   7.987   9.124  1.4436 -1.2534  1.5383
37044SOL     OW16261  10.741   9.136   8.219 -0.1395 -0.0834 -0.0101
37044SOL    HW116262  10.734   9.131   8.123 -0.2804 -0.5481  0.0258
37044SOL    HW216263  10.830   9.169   8.234 -0.8247  1.9654 -0.3446
37045SOL     OW16264   0.756   4.952   6.654  0.2610 -0.5078 -0.5600
37045SOL    HW116265   0.705   4.889   6.603  2.7853 -1.4814 -1.9521
37045SOL    HW216266   0.746   5.034   6.606 -1.7774 -0.1351  0.4209
37046SOL     OW16267  10.762   8.143   3.161  0.1645  0.6614 -0.3277
37046SOL    HW116268  10.699   8.194   3.212 -0.2074  1.0697 -1.1794
37046SOL    HW216269  10.841   8.196   3.160  0.1035  0.7501 -0.3653
37047SOL     OW16270   5.372  10.522   9.265  0.0475 -0.0248  0.0683
37047SOL    HW116271   5.410  10.607   9.284  2.9295 -1.0170 -0.9869
37047SOL    HW216272   5.277  10.536   9.270  0.4867  2.8764  1.2892
37048SOL     OW16273   7.123   3.808   6.531 -0.1740  0.2875  0.1071
37048SOL    HW116274   7.063   3.837   6.463  1.8475  0.6925 -1.5412
37048SOL    HW216275   7.099   3.717   6.549 -0.0679 -0.1399 -1.8744
37049SOL     OW16276   1.502   2.482   2.952 -0.0197 -0.2342  0.0730
37049SOL    HW116277   1.526   2.437   2.871 -1.7904  0.4366 -0.8348
37049SOL    HW216278   1.542   2.568   2.944  1.2908 -0.7600  0.7219
37050SOL     OW16279   5.446   9.395   2.717  0.2864 -0.0860 -0.0339
37050SOL    HW116280   5.393   9.316   2.727 -1.0845  0.7382 -0.7277
37050SOL    HW216281   5.491   9.404   2.801 -0.8497 -0.6606  0.6525
37051SOL     OW16282   5.552   0.086   4.950 -0.6671 -0.1896 -0.3476
37051SOL    HW116283   5.516  -0.003   4.943 -0.0765 -0.4376 -0.2971
37051SOL    HW216284   5.567   0.113   4.860 -0.0285 -0.4862 -0.3349
37052SOL     OW16285   2.961   0.215   2.224 -0.0176 -0.0085  0.1945
37052SOL    HW116286   2.920   0.297   2.196 -0.3122 -0.3599 -0.4120
37052SOL    HW216287   2.976   0.167   2.143  1.3870  0.0154  0.4377
37053SOL     OW16288  10.230   0.623   7.234  0.0364 -0.1570  0.2856
37053SOL    HW116289  10.250   0.609   7.326  0.0839 -1.7577  0.0637
37053SOL    HW216290  10.304   0.674   7.200  1.3586 -1.8458  0.5528
37054SOL     OW16291   5.923  11.220   4.444  0.0738  0.2719  0.2699
37054SOL    HW116292   6.015  11.239   4.464 -0.3252 -0.2640  2.7535
37054SOL    HW216293   5.917  11.125   4.446 -0.1713  0.2326 -1.7053
37055SOL     OW16294   1.983   3.620   6.717  0.0328 -0.3732 -0.9117
37055SOL    HW116295   1.915   3.673   6.757  0.9025 -0.1633  0.3266
37055SOL    HW216296   1.947   3.531   6.718 -0.5193 -0.1533 -0.9442
37056SOL     OW16297   4.434   3.587   3.509 -0.2116  0.4618  0.0553
37056SOL    HW116298   4.343   3.613   3.492 -0.2081  0.1198 -0.4908
37056SOL    HW216299   4.480   3.608   3.428  0.3449  1.3016  0.5838
37057SOL     OW16300   8.051   9.692   7.605 -0.2228 -0.2674 -0.0925
37057SOL    HW116301   8.028   9.764   7.546 -2.0923 -0.1158  0.7909
37057SOL    HW216302   8.078   9.735   7.686  0.6425 -0.5122 -0.2531
37058SOL     OW16303   2.126   8.102   9.202 -0.0264 -0.5779 -0.0944
37058SOL    HW116304   2.071   8.027   9.182  0.8990 -1.2708 -0.0684
37058SOL    HW216305   2.174   8.076   9.280  0.3120  0.0297 -0.1016
37059SOL     OW16306  10.397  10.166  10.802  0.1800 -0.0420 -0.3104
37059SOL    HW116307  10.361  10.178  10.715  1.0706 -0.4061 -0.7380
37059SOL    HW216308  10.462  10.096  10.792  0.0670 -0.3055  0.7030
37060SOL     OW16309   9.730   5.088   9.667 -0.1196 -0.2626  0.1184
37060SOL    HW116310   9.642   5.123   9.680  0.0378  0.7030 -1.3486
37060SOL    HW216311   9.742   5.089   9.573  2.2309  1.5181  0.4033
37061SOL     OW16312   3.433   1.389   3.111 -0.5258 -0.1944  0.0975
37061SOL    HW116313   3.462   1.395   3.202 -1.2041  1.7603  0.2263
37061SOL    HW216314   3.338   1.396   3.116 -0.5866 -0.4167 -0.7281
37062SOL     OW16315   0.409   5.685   4.660  0.1955 -0.4643 -0.1159
37062SOL    HW116316   0.391   5.602   4.616 -0.4323  0.0723 -0.9070
37062SOL    HW216317   0.378   5.751   4.598  1.5724  0.3906  0.0854
37063SOL     OW16318   8.922   2.203   2.109  0.1400  0.4857  0.6776
37063SOL    HW116319   8.955   2.268   2.047  1.9608  0.4354  1.5692
37063SOL    HW216320   8.842   2.243   2.145 -0.3345  0.9716 -0.8760
37064SOL     OW16321   2.544   3.417  10.304  0.1099  0.3125 -0.5412
37064SOL    HW116322   2.494   3.362  10.365  0.9600  0.3476  0.1968
37064SOL    HW216323   2.550   3.364  10.225  2.3533 -1.4249  0.7140
37065SOL     OW16324   1.174   8.149   5.070 -0.5380  0.1519  0.2416
37065SOL    HW116325   1.102   8.171   5.130 -1.5198  2.0083 -1.5779
37065SOL    HW216326   1.153   8.060   5.041 -1.6236  0.3440  0.3974
37066SOL     OW16327   4.232   4.027   5.352  0.5944 -0.0216 -0.5934
37066SOL    HW116328   4.312   4.002   5.398  0.1496  0.1705  0.2955
37066SOL    HW216329   4.262   4.056   5.266  1.4731  0.0004 -0.2849
37067SOL     OW16330  10.699   8.609   9.238  0.1634 -0.2335  0.3260
37067SOL    HW116331  10.695   8.681   9.300 -2.3832  0.5645 -0.7081
37067SOL    HW216332  10.610   8.576   9.233  0.7214 -1.5622 -1.4249
37068SOL     OW16333   2.406   3.972   5.722 -0.0595  0.2075 -0.1076
37068SOL    HW116334   2.327   3.957   5.670  0.0619 -0.3391 -0.1295
37068SOL    HW216335   2.474   3.923   5.677  0.7439  2.2648 -1.2364
37069SOL     OW16336   8.936   7.925   8.174  0.3222  0.2597  0.3456
37069SOL    HW116337   8.881   7.864   8.125 -0.3437  0.8894  0.3111
37069SOL    HW216338   8.968   7.874   8.248  0.3299 -0.3369 -0.0636
37070SOL     OW16339   9.265  10.070   5.233 -0.0545 -0.1384 -0.0044
37070SOL    HW116340   9.283  10.158   5.200  1.6968 -0.5027 -0.0576
37070SOL    HW216341   9.241  10.019   5.155  0.2069 -0.0304 -0.1534
37071SOL     OW16342   5.813   9.168   2.043 -0.0105 -0.3279 -0.3418
37071SOL    HW116343   5.739   9.128   1.998 -1.9043  2.6008  0.1000
37071SOL    HW216344   5.809   9.132   2.132 -0.9642 -0.0672 -0.2830
37072SOL     OW16345   6.102   0.562   4.716 -0.7387 -0.5837 -0.0992
37072SOL    HW116346   6.044   0.617   4.768 -0.8792 -0.2104 -0.6546
37072SOL    HW216347   6.046   0.527   4.646 -0.4466 -0.7376 -0.2578
37073SOL     OW16348   6.041   1.210   8.680  0.2545  0.2815 -0.4531
37073SOL    HW116349   6.089   1.244   8.605 -2.0836  1.2714 -1.5384
37073SOL    HW216350   5.951   1.241   8.668  0.0981  1.6369  3.4321
37074SOL     OW16351   6.711   0.658  11.106 -0.3112  0.2046 -0.0956
37074SOL    HW116352   6.767   0.611  11.168 -0.4519 -2.1571 -1.7173
37074SOL    HW216353   6.624   0.655  11.146 -0.1756 -0.2851  0.1733
37075SOL     OW16354   7.721   6.494   5.430  0.5900 -0.1068 -0.7738
37075SOL    HW116355   7.723   6.559   5.360 -0.9126 -0.0927 -0.8022
37075SOL    HW216356   7.788   6.524   5.492  2.1535 -0.2763 -2.3271
37076SOL     OW16357   4.032   1.860   5.528 -0.1440 -0.0179  0.1644
37076SOL    HW116358   3.984   1.829   5.604 -0.7695  2.1698  0.6951
37076SOL    HW216359   4.122   1.830   5.542 -0.1488  0.8032  2.0205
37077SOL     OW16360   6.369   0.631   5.357  0.1139  0.0671  0.4478
37077SOL    HW116361   6.300   0.577   5.320  1.4652 -0.7556 -0.9186
37077SOL    HW216362   6.339   0.651   5.446 -1.2564 -1.3524  0.3159
37078SOL     OW16363   5.000  10.931  11.077 -0.2459 -0.2259  0.6618
37078SOL    HW116364   4.991  10.894  11.165 -1.0978 -2.4893 -0.3211
37078SOL    HW216365   5.086  10.974  11.077  0.3505 -1.3759  2.1850
37079SOL     OW16366   3.029   8.576   1.890 -0.3979 -0.4721 -0.2791
37079SOL    HW116367   2.993   8.518   1.957 -0.8709 -0.4934 -0.5512
37079SOL    HW216368   2.996   8.663   1.912  1.6053 -0.0087  1.0642
37080SOL     OW16369   0.551   3.996   6.404 -0.2735 -0.4236 -0.1248
37080SOL    HW116370   0.506   3.914   6.423  0.9073 -0.8616  0.8562
37080SOL    HW216371   0.613   3.974   6.335 -0.2456 -0.2599 -0.1511
37081SOL     OW16372   1.382   3.178  10.785 -0.0636  0.0750 -0.0745
37081SOL    HW116373   1.452   3.149  10.843  0.5627  1.4253 -0.1308
37081SOL    HW216374   1.352   3.260  10.823 -0.6440  0.2281 -0.8502
37082SOL     OW16375   4.427   2.348   0.506 -0.9062  0.4918  0.1578
37082SOL    HW116376   4.404   2.440   0.523  0.8367  1.1913 -1.0702
37082SOL    HW216377   4.473   2.320   0.585 -2.8830  0.1434  1.2147
37083SOL     OW16378   0.871   4.356   1.929 -0.3268 -0.3726 -0.2666
37083SOL    HW116379   0.790   4.359   1.980  0.0022 -0.0063  0.2335
37083SOL    HW216380   0.893   4.263   1.925 -0.3046 -0.3942  0.3345
37084SOL     OW16381   8.905   4.233   7.494 -0.5121 -0.1332  0.2274
37084SOL    HW116382   8.988   4.191   7.517 -0.3408 -0.0924 -0.3185
37084SOL    HW216383   8.863   4.172   7.433  0.0472  0.8064 -1.0985
37085SOL     OW16384   3.969   3.967   3.189 -0.3061  0.1130 -0.2006
37085SOL    HW116385   4.057   3.999   3.171  0.9201 -1.8001  1.9948
37085SOL    HW216386   3.933   4.031   3.250  0.3785 -0.1611  0.5138
37086SOL     OW16387   1.961   8.683   7.086 -0.2087  0.9199  0.1988
37086SOL    HW116388   1.949   8.776   7.101 -1.6046  0.7896 -0.0295
37086SOL    HW216389   1.874   8.645   7.101  0.4127 -0.3810  0.6044
37087SOL     OW16390   4.552   2.782   8.249 -0.3727  0.3451  0.4141
37087SOL    HW116391   4.466   2.747   8.273 -0.7391  1.0954  0.2004
37087SOL    HW216392   4.613   2.734   8.305 -1.0105  0.4340  1.1920
37088SOL     OW16393   7.894   4.642   8.871  0.0269 -0.2243  0.1780
37088SOL    HW116394   7.930   4.595   8.945  0.6817  0.0742  0.0552
37088SOL    HW216395   7.865   4.726   8.908  1.8223  0.5790 -0.1797
37089SOL     OW16396   7.877   3.644   9.469  0.0860 -0.1683 -0.3667
37089SOL    HW116397   7.817   3.569   9.468 -2.2602  1.5849 -3.2308
37089SOL    HW216398   7.849   3.696   9.544 -2.7550  1.0917 -2.1834
37090SOL     OW16399   7.774   7.813   5.611  0.2763  0.2651 -0.0405
37090SOL    HW116400   7.866   7.805   5.636  0.4928 -0.8968 -1.1194
37090SOL    HW216401   7.726   7.812   5.694  1.1062 -1.2956  0.4420
37091SOL     OW16402   2.212   3.499   1.924  0.0519  0.5384  0.2595
37091SOL    HW116403   2.164   3.456   1.853  0.1627 -0.8112  0.9883
37091SOL    HW216404   2.301   3.508   1.890 -0.4612  2.1442 -0.7097
37092SOL     OW16405   7.776   6.858  10.970 -0.1843  0.3184 -0.3847
37092SOL    HW116406   7.830   6.816  10.903 -0.2475 -0.1327 -0.1567
37092SOL    HW216407   7.838   6.906  11.025 -0.1305  0.6697 -0.7529
37093SOL     OW16408  10.622   7.683   1.208  0.4857  0.1417  0.2550
37093SOL    HW116409  10.550   7.636   1.166  1.6548 -1.2412 -0.2534
37093SOL    HW216410  10.607   7.671   1.302  0.6488 -1.0798  0.1365
37094SOL     OW16411   3.901   0.992   9.113  0.1546 -0.0185  0.4827
37094SOL    HW116412   3.974   1.052   9.128  0.5079 -0.6205  1.1858
37094SOL    HW216413   3.919   0.917   9.169 -1.0090 -0.1803  0.6573
37095SOL     OW16414   9.169   5.949   4.993  0.6815 -0.0256  0.4508
37095SOL    HW116415   9.129   5.958   4.906  2.3695  1.1735 -0.2318
37095SOL    HW216416   9.250   5.999   4.987  0.1246  1.3087  3.1766
37096SOL     OW16417  11.225   8.671   7.048  0.3828  0.2383  0.3634
37096SOL    HW116418  11.172   8.591   7.051 -0.2577  0.5697 -1.2356
37096SOL    HW216419  11.233   8.699   7.139 -0.0243 -1.2279  0.8652
37097SOL     OW16420   8.639   0.430   5.342  0.1994 -0.3894  0.1871
37097SOL    HW116421   8.721   0.479   5.347 -0.3168  0.4377  0.6625
37097SOL    HW216422   8.571   0.496   5.354 -0.5455 -1.0373 -0.4153
37098SOL     OW16423   8.499   9.801   8.851  0.3540  0.3117 -0.2086
37098SOL    HW116424   8.458   9.841   8.775  0.9819  0.5004 -0.4553
37098SOL    HW216425   8.584   9.845   8.858  2.0859 -2.5688 -1.8759
37099SOL     OW16426   8.544   2.322   8.584 -0.6934  0.3893 -0.3599
37099SOL    HW116427   8.610   2.366   8.638 -1.0690 -1.0362  1.3012
37099SOL    HW216428   8.523   2.386   8.515  0.7303  1.7416  0.4235
37100SOL     OW16429  10.757  10.574   0.004 -0.5656  0.0837 -0.2635
37100SOL    HW116430  10.841  10.533   0.026 -0.8426 -0.2544  0.1737
37100SOL    HW216431  10.707  10.570   0.085 -0.5780  1.3487 -0.2035
37101SOL     OW16432   9.762   9.210  10.433  0.3180 -0.0629 -0.3207
37101SOL    HW116433   9.834   9.157  10.467  2.3982  2.4717 -0.6192
37101SOL    HW216434   9.750   9.179  10.343  0.1098 -1.3926  0.1498
37102SOL     OW16435   8.319   4.242   5.754  0.3630  0.1891  0.4590
37102SOL    HW116436   8.346   4.155   5.724 -1.6404  0.2482 -1.6446
37102SOL    HW216437   8.382   4.302   5.715 -0.7530  0.0300 -1.6813
37103SOL     OW16438  11.140   4.283   9.326 -0.2054 -0.1599 -0.2844
37103SOL    HW116439  11.083   4.358   9.313  0.1867 -0.1882 -2.4371
37103SOL    HW216440  11.173   4.292   9.415 -1.4900  1.2825  0.0572
37104SOL     OW16441   8.880   3.139   2.823 -0.2239  0.6184 -0.8332
37104SOL    HW116442   8.845   3.084   2.893 -0.5852 -1.9251 -2.9009
37104SOL    HW216443   8.806   3.194   2.797  0.0740  1.9617  1.1247
37105SOL     OW16444   1.210   7.642   4.502  0.0205  0.5145  0.2172
37105SOL    HW116445   1.160   7.704   4.450 -0.5901  0.6943  1.0086
37105SOL    HW216446   1.208   7.561   4.451 -0.1621  0.8218 -0.2642
37106SOL     OW16447   1.203   0.422   8.748  0.6161 -0.1680 -0.2316
37106SOL    HW116448   1.253   0.479   8.807  1.1102 -0.3170 -0.5050
37106SOL    HW216449   1.133   0.387   8.802  1.0041 -0.2177  0.2404
37107SOL     OW16450   7.189  10.955   4.241 -0.4509  0.4211  0.2179
37107SOL    HW116451   7.208  10.895   4.313 -0.6384 -1.6125 -1.3633
37107SOL    HW216452   7.203  10.902   4.162  0.7775  2.8951 -1.2616
37108SOL     OW16453   1.511   9.126   0.550 -0.2186 -0.2712 -0.3566
37108SOL    HW116454   1.474   9.153   0.466  0.3557  1.0750 -0.1904
37108SOL    HW216455   1.604   9.150   0.544 -0.1958 -0.0718  0.6948
37109SOL     OW16456   9.744   6.877   8.613  0.3825  0.3709 -0.2389
37109SOL    HW116457   9.696   6.802   8.579  2.5823 -1.1900  0.0246
37109SOL    HW216458   9.822   6.882   8.559  0.5627  2.1272  0.1400
37110SOL     OW16459  10.369   6.042   3.399 -0.3564  0.2189  0.1157
37110SOL    HW116460  10.295   6.098   3.422 -1.4923 -1.0800 -0.3322
37110SOL    HW216461  10.414   6.025   3.482 -0.5206  1.0474  0.3783
37111SOL     OW16462   6.907   4.585   9.508 -0.3588  0.6983  0.0925
37111SOL    HW116463   6.880   4.510   9.561 -0.2959  0.1888 -0.5786
37111SOL    HW216464   6.826   4.615   9.466  0.1773 -1.3280 -2.5482
37112SOL     OW16465   0.431  10.989   8.549 -0.5539  0.0466 -0.0875
37112SOL    HW116466   0.359  11.019   8.494  0.1613  0.9199 -0.5662
37112SOL    HW216467   0.414  11.028   8.635  0.8402  2.6333 -0.9272
37113SOL     OW16468   0.033   3.311   1.774  0.7755 -0.0527  0.0984
37113SOL    HW116469   0.054   3.377   1.841 -0.4332  0.8745 -0.4331
37113SOL    HW216470  -0.062   3.313   1.767  0.7904 -1.2345 -0.5665
37114SOL     OW16471   1.408   2.191   6.792  0.3612 -0.2720 -0.6555
37114SOL    HW116472   1.457   2.126   6.843  1.2278  0.6472 -0.3102
37114SOL    HW216473   1.367   2.246   6.858 -0.7461 -0.7253 -0.9472
37115SOL     OW16474   9.785   1.584   8.638  0.3419  0.4138  0.5330
37115SOL    HW116475   9.829   1.537   8.567 -1.1413 -0.0602 -0.0898
37115SOL    HW216476   9.855   1.603   8.701  1.5900  0.4455 -0.8378
37116SOL     OW16477   3.080   8.369   5.787 -0.0272  0.0803 -0.4794
37116SOL    HW116478   3.008   8.340   5.731  1.3984  0.7544 -2.7525
37116SOL    HW216479   3.146   8.300   5.779  0.4355  0.4733 -0.1108
37117SOL     OW16480   1.712   1.383  10.485 -0.4986 -0.7416  0.5007
37117SOL    HW116481   1.798   1.425  10.488 -0.6510 -0.2738 -1.4592
37117SOL    HW216482   1.726   1.298  10.527  0.5437 -0.0255  1.6171
37118SOL     OW16483   9.097   6.358   5.455  0.2285  0.3471 -0.4761
37118SOL    HW116484   9.163   6.312   5.508 -0.5040 -0.4107 -0.2060
37118SOL    HW216485   9.015   6.315   5.477 -0.3273  1.1338 -0.9916
37119SOL     OW16486   2.747   6.438  10.412 -0.0655  0.3293 -0.1632
37119SOL    HW116487   2.679   6.396  10.464 -0.5561  0.3890 -0.7457
37119SOL    HW216488   2.806   6.478  10.476 -0.8546  0.7039  0.3312
37120SOL     OW16489   3.778   7.422   9.513  0.4670 -0.3862 -0.0070
37120SOL    HW116490   3.815   7.351   9.566 -1.8116 -0.1427  1.9952
37120SOL    HW216491   3.702   7.382   9.470 -0.0581  0.4547  0.1148
37121SOL     OW16492  10.497   8.357   1.585  0.1796  0.5807 -0.0197
37121SOL    HW116493  10.411   8.384   1.553  0.3234 -0.2908 -1.1529
37121SOL    HW216494  10.523   8.284   1.529  1.6831  0.8541  0.2803
37122SOL     OW16495   1.140   0.925   0.464  0.5220  0.0060 -0.7928
37122SOL    HW116496   1.222   0.883   0.491 -0.9306 -3.0483 -0.8627
37122SOL    HW216497   1.122   0.990   0.532  1.3678 -1.5426  0.9556
37123SOL     OW16498   5.426   9.956   1.034 -0.0718 -0.1972  0.3597
37123SOL    HW116499   5.455   9.914   1.115  1.7755  1.8125  0.7768
37123SOL    HW216500   5.486   9.925   0.967 -0.9197 -0.9852 -0.0570
37124SOL     OW16501   9.113   1.416  10.345 -0.2703 -0.8240 -0.0399
37124SOL    HW116502   9.057   1.367  10.405  1.2477 -0.6973  1.4983
37124SOL    HW216503   9.092   1.508  10.362  0.2524 -0.7834  0.3958
37125SOL     OW16504   2.903   8.731   1.531  0.3449 -0.4456 -0.2374
37125SOL    HW116505   2.862   8.721   1.617  0.3439 -0.3502 -0.2268
37125SOL    HW216506   2.843   8.786   1.481 -0.4723 -1.8710 -0.8527
37126SOL     OW16507   6.384   4.007   8.936 -0.0907  0.4857 -0.3893
37126SOL    HW116508   6.296   4.011   8.972  0.4525  1.7529  0.8354
37126SOL    HW216509   6.424   4.091   8.958  1.6188 -0.2819 -0.4184
37127SOL     OW16510   1.795   7.777   2.840 -0.3178 -0.2849 -0.5309
37127SOL    HW116511   1.781   7.860   2.887 -1.0891 -2.1107  2.5965
37127SOL    HW216512   1.890   7.774   2.825 -0.2149  0.9158 -0.2192
37128SOL     OW16513   7.862   2.654   7.265 -0.1573  0.2078  0.0992
37128SOL    HW116514   7.851   2.565   7.233  1.2498 -0.1599  0.6164
37128SOL    HW216515   7.946   2.683   7.231  0.4962  0.4877  1.8672
37129SOL     OW16516   0.120   2.997   3.287 -0.2644 -0.3453 -0.0242
37129SOL    HW116517   0.171   2.992   3.207 -2.0752  1.0276 -1.3102
37129SOL    HW216518   0.079   2.911   3.295 -2.3156  0.3654 -2.1682
37130SOL     OW16519   5.820   4.171   3.804 -0.2192 -0.0202  0.5805
37130SOL    HW116520   5.791   4.113   3.734  1.2965  2.9445 -2.6688
37130SOL    HW216521   5.911   4.145   3.821  0.0195  0.4806  0.0891
37131SOL     OW16522   3.830   4.597   4.854  0.2461  0.2239 -0.2676
37131SOL    HW116523   3.748   4.548   4.850 -1.9255  3.7983 -0.9913
37131SOL    HW216524   3.885   4.556   4.788 -1.2441 -1.6890 -0.3608
37132SOL     OW16525   1.966   1.111   2.560  0.0176 -0.3746  0.3859
37132SOL    HW116526   1.945   1.159   2.480 -0.4237  0.6219  1.0820
37132SOL    HW216527   2.014   1.034   2.530  0.8165  0.5453 -0.7420
37133SOL     OW16528   0.155   9.422  10.744 -0.3724 -0.0879  0.5162
37133SOL    HW116529   0.096   9.350  10.720  0.7787 -1.1490  0.8676
37133SOL    HW216530   0.231   9.410  10.688 -0.1997  0.8969  0.5378
37134SOL     OW16531   2.016   6.703   8.800  0.1075  0.3635  0.3603
37134SOL    HW116532   2.110   6.703   8.814  0.0372 -1.3013  0.9530
37134SOL    HW216533   2.006   6.703   8.704  0.6969  0.5516  0.2996
37135SOL     OW16534   5.946  11.187  10.354 -0.5444  0.3255 -1.1138
37135SOL    HW116535   5.861  11.196  10.396 -0.0860  0.4623 -0.1810
37135SOL    HW216536   6.008  11.222  10.418  0.5590 -2.8160 -0.3646
37136SOL     OW16537   9.883   2.192   5.633 -0.1271 -0.6690 -0.4526
37136SOL    HW116538   9.897   2.271   5.685 -2.9591 -1.0943  1.0636
37136SOL    HW216539   9.898   2.220   5.543 -0.4956  1.4592  0.1159
37137SOL     OW16540   4.967  10.147   7.971 -0.1628 -0.5835 -0.1356
37137SOL    HW116541   4.962  10.104   8.056 -0.3557  1.8260  1.1163
37137SOL    HW216542   4.889  10.116   7.924 -0.2243 -1.6805  0.6776
37138SOL     OW16543   1.045   4.983   7.578 -0.9607  0.4433  0.6754
37138SOL    HW116544   1.070   4.915   7.516 -0.8114  1.8226 -0.8106
37138SOL    HW216545   1.126   5.007   7.623 -0.2783  2.1377 -1.3539
37139SOL     OW16546   5.531   1.955   7.823 -0.0961  0.0897 -0.1632
37139SOL    HW116547   5.506   1.865   7.844  0.3167  0.2686  1.1070
37139SOL    HW216548   5.627   1.956   7.828 -0.0246  0.3121 -1.3674
37140SOL     OW16549   9.864   9.922   0.217  0.0939  0.1788  0.2012
37140SOL    HW116550   9.951   9.944   0.248  0.6439  0.3876 -1.4166
37140SOL    HW216551   9.866   9.827   0.203  0.0300  0.1677  0.2690
37141SOL     OW16552   4.905   3.969   5.172 -0.8571 -0.5563 -0.2821
37141SOL    HW116553   4.962   3.999   5.101  1.8632  1.5123  2.6199
37141SOL    HW216554   4.918   3.874   5.174  1.5661 -0.2626 -0.4783
37142SOL     OW16555   7.932  10.043   4.414 -0.3184  0.2845  0.4170
37142SOL    HW116556   7.995   9.984   4.374 -0.0160  1.3825 -0.7806
37142SOL    HW216557   7.947  10.035   4.508  2.2478  1.2057  0.1168
37143SOL     OW16558   8.611   5.640   2.324 -0.4680  0.3005 -0.1516
37143SOL    HW116559   8.693   5.636   2.275 -1.0229  2.1902 -1.2554
37143SOL    HW216560   8.544   5.658   2.259 -1.4335  1.2675  1.0731
37144SOL     OW16561  10.373  10.914   8.302 -0.3451  0.2072 -0.4894
37144SOL    HW116562  10.383  10.827   8.340  0.5787  0.7967  0.6426
37144SOL    HW216563  10.453  10.960   8.325 -0.6672  1.2530 -1.3849
37145SOL     OW16564   4.010   9.565   1.915 -0.5497  0.5062  0.3447
37145SOL    HW116565   4.065   9.624   1.863 -2.2697  1.4399 -0.4708
37145SOL    HW216566   3.986   9.496   1.853 -0.4442  0.2009  0.6470
37146SOL     OW16567   1.573   4.785  10.653 -0.3975  0.4410 -0.1725
37146SOL    HW116568   1.595   4.873  10.682  1.0934 -0.2128  0.7318
37146SOL    HW216569   1.602   4.728  10.724  0.0450 -0.9028 -1.4024
37147SOL     OW16570   7.579  10.521  10.371 -0.3432 -0.3783  0.0012
37147SOL    HW116571   7.497  10.533  10.418 -1.2212 -1.1106 -1.3108
37147SOL    HW216572   7.571  10.435  10.331  0.7445 -0.1211 -0.7850
37148SOL     OW16573   6.709   8.671   8.027 -0.0520 -0.1981  0.1473
37148SOL    HW116574   6.755   8.598   7.985  0.2949 -0.6474  1.3101
37148SOL    HW216575   6.768   8.701   8.095 -0.6525  0.4890  0.3660
37149SOL     OW16576   0.378   6.047   3.984  0.4304  0.2156 -0.8913
37149SOL    HW116577   0.349   5.966   3.941 -0.3369 -0.4635  0.8568
37149SOL    HW216578   0.330   6.117   3.939 -3.7126 -0.8499  1.6191
37150SOL     OW16579   8.465   6.021  10.231  0.3316  0.7624 -0.2010
37150SOL    HW116580   8.420   5.979  10.158 -1.6179  1.6884  0.4217
37150SOL    HW216581   8.460   5.957  10.303  0.8532  0.4831 -0.4137
37151SOL     OW16582   8.058   4.160   4.769 -0.6304 -0.5753 -0.1228
37151SOL    HW116583   7.969   4.130   4.752 -2.2910  4.0402 -0.4148
37151SOL    HW216584   8.049   4.223   4.840  2.0800  1.3661 -1.3945
37152SOL     OW16585   3.152   1.407   7.248 -0.0481  0.0570  0.1103
37152SOL    HW116586   3.159   1.476   7.314 -1.6570 -0.4444  0.8356
37152SOL    HW216587   3.109   1.449   7.173  1.0176  0.4104 -0.3087
37153SOL     OW16588   2.726   6.013   8.615 -0.3160 -0.4720 -0.1204
37153SOL    HW116589   2.706   6.105   8.633  3.2660  0.1273  1.2040
37153SOL    HW216590   2.790   6.016   8.544  0.0960 -1.9216  0.1684
37154SOL     OW16591   1.981   5.093  10.314 -0.4367 -0.2324 -0.3328
37154SOL    HW116592   1.924   5.160  10.278  0.9130 -0.5872 -3.2770
37154SOL    HW216593   1.921   5.024  10.343 -1.7015  1.2157  0.5555
37155SOL     OW16594   4.529   3.249   1.344 -0.3124 -0.0486 -0.3243
37155SOL    HW116595   4.440   3.219   1.327 -0.1238 -1.2908  0.7658
37155SOL    HW216596   4.551   3.210   1.429  1.7315 -0.7894 -1.1812
37156SOL     OW16597   2.181   8.052   3.467  0.1449 -0.5875  0.6896
37156SOL    HW116598   2.169   8.143   3.497 -1.1068 -0.3899 -0.3830
37156SOL    HW216599   2.179   8.000   3.547 -0.5890  0.1940  1.1862
37157SOL     OW16600   7.368   5.972   9.272  0.3862  0.1751 -0.1028
37157SOL    HW116601   7.332   5.993   9.186  1.4144 -0.8247 -0.7869
37157SOL    HW216602   7.414   6.052   9.299  0.5809  0.2781 -0.7456
37158SOL     OW16603  10.101   6.592   2.449 -0.3251  0.0479  0.1106
37158SOL    HW116604  10.007   6.576   2.447 -0.5089  1.0832  0.2299
37158SOL    HW216605  10.137   6.515   2.493 -1.0956 -0.4195 -0.0633
37159SOL     OW16606   3.473   1.131   4.761 -0.5729 -0.1338  0.5328
37159SOL    HW116607   3.458   1.195   4.692 -0.8882  0.5518  1.2346
37159SOL    HW216608   3.491   1.183   4.839  1.4614 -0.9011  0.6119
37160SOL     OW16609   6.719   6.740  10.614  0.0035  0.2584 -0.4168
37160SOL    HW116610   6.726   6.764  10.706  0.1103  0.3028 -0.4365
37160SOL    HW216611   6.804   6.702  10.592 -1.0326 -2.6621  0.3220
37161SOL     OW16612  10.162  10.205   1.187 -0.3831 -0.2340 -0.4499
37161SOL    HW116613  10.243  10.172   1.148 -0.5969 -1.0661 -0.1922
37161SOL    HW216614  10.095  10.140   1.165 -0.5997 -0.5047  0.9116
37162SOL     OW16615   0.342   4.365   0.783 -0.7041 -0.0373 -0.1997
37162SOL    HW116616   0.366   4.406   0.866 -1.8477 -0.6625  0.4586
37162SOL    HW216617   0.393   4.285   0.779  0.2824  0.6044 -0.6977
37163SOL     OW16618   8.184   8.624   6.995  0.1845 -0.1641  0.0745
37163SOL    HW116619   8.249   8.556   7.008  1.3397  1.0402  0.6418
37163SOL    HW216620   8.127   8.618   7.071  2.0830  1.4751  1.6837
37164SOL     OW16621   5.068   8.868   9.458 -0.1762  0.9272 -0.2667
37164SOL    HW116622   5.071   8.894   9.366  0.6133  1.7986  0.0002
37164SOL    HW216623   5.131   8.797   9.466 -1.2718 -0.1089 -0.6894
37165SOL     OW16624   5.892   5.738   4.368 -0.5338 -0.4317 -0.2186
37165SOL    HW116625   5.974   5.691   4.351  0.9298  2.0533 -0.3822
37165SOL    HW216626   5.897   5.815   4.311 -1.9269  0.9334  1.4692
37166SOL     OW16627   4.779   2.867   7.482 -0.0058 -0.1058 -0.4920
37166SOL    HW116628   4.787   2.773   7.497  0.9000 -0.0523 -0.6261
37166SOL    HW216629   4.699   2.876   7.430  0.6223 -0.9141 -1.6103
37167SOL     OW16630   5.729   8.863   9.814  0.2503  0.6118  0.1781
37167SOL    HW116631   5.814   8.848   9.772 -0.2696  0.8113 -0.9678
37167SOL    HW216632   5.666   8.827   9.751 -0.3505 -2.3354  2.3585
37168SOL     OW16633   9.038   4.110   0.531  0.7470  0.0222 -0.1872
37168SOL    HW116634   8.995   4.193   0.555  1.2740  0.9271 -2.2891
37168SOL    HW216635   8.968   4.045   0.536 -0.1790  0.9624 -0.6263
37169SOL     OW16636  10.879   9.424   4.833  0.7849  0.4401  0.0882
37169SOL    HW116637  10.946   9.404   4.899  0.1585  0.5119  0.7463
37169SOL    HW216638  10.801   9.378   4.863  0.6029  0.1518 -0.8161
37170SOL     OW16639   0.816   6.449   3.441  0.2753  0.0563  0.3995
37170SOL    HW116640   0.860   6.525   3.479  1.3767 -0.8984  1.0372
37170SOL    HW216641   0.886   6.387   3.422 -0.7312 -1.2543  0.8882
37171SOL     OW16642   9.485   7.790  11.057  0.3623  0.0010 -0.0141
37171SOL    HW116643   9.405   7.741  11.077  0.5336 -0.1999  0.1804
37171SOL    HW216644   9.456   7.861  10.999  0.1528 -0.4622 -0.4763
37172SOL     OW16645   5.819   8.186   0.214 -0.1167 -0.0867 -0.3601
37172SOL    HW116646   5.887   8.221   0.272 -1.6850 -1.8513  2.6792
37172SOL    HW216647   5.849   8.098   0.194  0.1064  0.3034 -1.7817
37173SOL     OW16648   8.669  10.903   8.145  0.2427  0.1776  0.1847
37173SOL    HW116649   8.710  10.987   8.166  1.7576 -0.6068  0.4786
37173SOL    HW216650   8.686  10.892   8.052  1.4780 -0.5350  0.4769
37174SOL     OW16651   6.306   6.732   7.194 -0.7018  0.0088  0.3432
37174SOL    HW116652   6.343   6.761   7.277  1.6780 -2.5080  0.2407
37174SOL    HW216653   6.309   6.810   7.138  2.4167  0.5068  1.0827
37175SOL     OW16654  10.601   6.900   7.829 -0.3669 -0.2775  0.3221
37175SOL    HW116655  10.668   6.965   7.850  2.1131 -1.5142 -3.2337
37175SOL    HW216656  10.570   6.925   7.742 -1.6759 -2.0240  0.2521
37176SOL     OW16657   7.354   0.674   7.271  0.1290  0.0255  0.2259
37176SOL    HW116658   7.336   0.759   7.230  0.1606  0.5402  1.2562
37176SOL    HW216659   7.449   0.675   7.286  0.0650 -0.0100  0.6298
37177SOL     OW16660   6.124   4.045   8.898  0.3884  0.7679 -0.5836
37177SOL    HW116661   6.032   4.035   8.920  0.5169 -1.4565 -0.9942
37177SOL    HW216662   6.128   4.129   8.851 -1.4233  0.8266 -0.6608
37178SOL     OW16663   8.186  10.404   6.362  0.4596  0.3584  0.2870
37178SOL    HW116664   8.249  10.474   6.380  0.7343  0.1506  0.1428
37178SOL    HW216665   8.140  10.433   6.283  1.2800 -0.0930 -0.3722
37179SOL     OW16666   3.721   5.723   4.377 -0.0030 -0.1545  0.8818
37179SOL    HW116667   3.690   5.798   4.428  2.4064 -0.0085  2.2066
37179SOL    HW216668   3.690   5.647   4.425 -2.6483 -0.0612 -0.5849
37180SOL     OW16669  10.608  10.339   9.770 -0.3607 -0.1515  0.1257
37180SOL    HW116670  10.553  10.394   9.826  0.6045 -0.7297  1.6629
37180SOL    HW216671  10.545  10.295   9.713 -1.5058 -0.6860  1.7429
37181SOL     OW16672   7.732   8.079   7.308 -0.5921  0.1938 -0.1539
37181SOL    HW116673   7.805   8.023   7.332 -0.1653  1.0884  0.6685
37181SOL    HW216674   7.657   8.041   7.353 -0.4443 -0.1334 -0.1809
37182SOL     OW16675   4.163   5.426   3.604  0.3318 -0.2345  0.3321
37182SOL    HW116676   4.070   5.427   3.627  0.6057  0.2960  1.4553
37182SOL    HW216677   4.205   5.479   3.672  2.0033 -3.9271  2.3105
37183SOL     OW16678   5.693   7.045   2.975  0.4499 -0.2010  0.0909
37183SOL    HW116679   5.605   7.012   2.958 -0.7350  2.3168  1.1494
37183SOL    HW216680   5.717   7.092   2.895 -0.0267  0.8696  0.5641
37184SOL     OW16681   6.686   5.171   8.815 -0.3141 -0.2489 -0.2856
37184SOL    HW116682   6.677   5.266   8.819 -1.0354 -0.3495  0.5339
37184SOL    HW216683   6.777   5.156   8.788 -0.3027  0.6700 -0.7555
37185SOL     OW16684   3.277   8.143  10.816 -0.5375 -0.3746  0.8939
37185SOL    HW116685   3.214   8.142  10.888  0.0356 -1.8134  1.3905
37185SOL    HW216686   3.312   8.233  10.817 -2.5453  0.4360  0.6142
37186SOL     OW16687   0.977   2.154   2.827 -0.1552  0.4325  0.3812
37186SOL    HW116688   1.024   2.212   2.886  1.0486  0.3823 -0.5029
37186SOL    HW216689   1.037   2.142   2.752 -1.8661  0.9415 -1.0994
37187SOL     OW16690   3.556  11.235  10.501 -0.2323  0.1224 -0.1210
37187SOL    HW116691   3.598  11.157  10.466 -0.8039  0.1038 -0.7744
37187SOL    HW216692   3.569  11.229  10.595 -1.5505 -1.5094 -0.0246
37188SOL     OW16693   3.938   2.816   6.665 -0.6156  0.4388  0.1384
37188SOL    HW116694   3.916   2.908   6.682  0.1891  0.4429  1.2436
37188SOL    HW216695   3.909   2.770   6.744  3.4654  0.4853  1.8075
37189SOL     OW16696  11.029   9.743   0.624  0.0207 -0.7969 -0.0520
37189SOL    HW116697  10.997   9.730   0.714 -1.1381 -0.9050 -0.4706
37189SOL    HW216698  11.120   9.714   0.627 -0.7408 -3.2158  0.4920
37190SOL     OW16699   9.022   9.519   2.603 -0.0294 -0.2232 -0.1641
37190SOL    HW116700   9.034   9.562   2.688 -0.9913  1.0207 -0.6384
37190SOL    HW216701   9.038   9.426   2.621 -0.5834 -0.0327  1.4623
37191SOL     OW16702   9.017   5.681   8.961 -0.4019  0.3957  0.0801
37191SOL    HW116703   9.020   5.601   8.908  0.1891  1.1585 -1.0771
37191SOL    HW216704   9.109   5.700   8.980 -0.5127  1.0197  0.0048
37192SOL     OW16705   3.686   8.590  10.963  0.3374  0.6627 -0.3519
37192SOL    HW116706   3.756   8.586  11.028  0.1298  1.0379 -0.1041
37192SOL    HW216707   3.608   8.617  11.012  0.1856  0.9707 -0.7537
37193SOL     OW16708   8.782  10.746   3.610 -0.2816  0.3294  0.0189
37193SOL    HW116709   8.717  10.748   3.680  0.0136  1.2942  0.2599
37193SOL    HW216710   8.800  10.838   3.590  3.5663  0.1654  2.2991
37194SOL     OW16711   9.929   3.184  10.971  0.2951  0.4353  0.4681
37194SOL    HW116712   9.949   3.265  10.924  0.8184 -0.1274 -0.2925
37194SOL    HW216713  10.004   3.171  11.030  1.0364 -0.3922 -0.6400
37195SOL     OW16714   6.990  11.217   9.606  0.4673  0.5777  0.3297
37195SOL    HW116715   7.008  11.123   9.601 -1.8135  0.0642  1.0147
37195SOL    HW216716   7.003  11.239   9.698  1.2441  0.9908  0.1225
37196SOL     OW16717   0.176   5.580  10.473  0.3491 -0.2324 -0.4861
37196SOL    HW116718   0.194   5.653  10.531  1.1288 -0.3115 -0.6220
37196SOL    HW216719   0.114   5.615  10.408 -1.3133 -0.4210  0.9554
37197SOL     OW16720   6.505   0.602   3.546 -0.3526 -0.4824 -0.2734
37197SOL    HW116721   6.597   0.592   3.519 -0.6909  1.9260 -2.5765
37197SOL    HW216722   6.455   0.565   3.473 -1.2257 -2.4204  1.2878
37198SOL     OW16723   3.237   6.059   1.060 -0.4004 -0.6150 -0.0919
37198SOL    HW116724   3.197   6.093   0.980 -1.2106  2.4746  1.5587
37198SOL    HW216725   3.311   6.118   1.076 -1.4788  0.0644  2.5393
37199SOL     OW16726  10.848   0.433   3.255  0.2058 -0.6355 -0.1555
37199SOL    HW116727  10.916   0.475   3.202 -2.9003  3.3463 -1.2602
37199SOL    HW216728  10.858   0.471   3.342 -0.3018 -0.3537 -0.2145
37200SOL     OW16729  10.354  11.313  10.456  0.4760 -0.0111  0.1130
37200SOL    HW116730  10.322  11.403  10.453 -1.4759 -0.6838  0.0545
37200SOL    HW216731  10.310  11.274  10.532 -0.1330 -1.4341 -0.9406
37201SOL     OW16732   0.012   2.119   5.489  0.0814 -0.1819  0.3071
37201SOL    HW116733   0.093   2.070   5.477  0.5982 -0.2366  3.4583
37201SOL    HW216734   0.038   2.195   5.542 -1.8284  0.1051  0.8592
37202SOL     OW16735   0.536   2.180   4.303  0.1835 -0.4289  0.1082
37202SOL    HW116736   0.571   2.237   4.371 -0.7144  1.8839 -1.2903
37202SOL    HW216737   0.599   2.187   4.231 -1.6010  1.5629 -1.3553
37203SOL     OW16738   6.583   7.643   1.401 -0.1723  0.2470 -0.4804
37203SOL    HW116739   6.659   7.592   1.425 -0.3972 -0.3701 -1.0571
37203SOL    HW216740   6.513   7.612   1.458 -0.5539 -0.7932 -1.4874
37204SOL     OW16741   3.327   3.300   0.498 -0.1332 -0.2289 -0.2614
37204SOL    HW116742   3.307   3.206   0.496 -0.7235 -0.1198  0.1841
37204SOL    HW216743   3.243   3.342   0.516  0.3548  0.3042  0.8300
37205SOL     OW16744   1.221  10.192   8.153  0.3967 -0.5332  0.4980
37205SOL    HW116745   1.217  10.283   8.183  1.9550 -0.3361  0.1370
37205SOL    HW216746   1.129  10.167   8.139 -0.0871  0.7116  1.3871
37206SOL     OW16747  10.143  10.343   9.475 -0.3129  0.5304  0.5999
37206SOL    HW116748  10.093  10.289   9.413  0.2743  0.4267  0.2104
37206SOL    HW216749  10.181  10.413   9.421  3.2123 -1.5854  0.1223
37207SOL     OW16750  10.315   3.867   8.736  0.0390  0.2572 -0.2748
37207SOL    HW116751  10.259   3.862   8.814  0.1634 -0.2368 -0.2142
37207SOL    HW216752  10.261   3.831   8.666  0.0290  0.4407 -0.3632
37208SOL     OW16753   5.636   2.749  10.355 -0.0624 -0.6137  0.5284
37208SOL    HW116754   5.550   2.793  10.354  0.3345  0.1761  1.0369
37208SOL    HW216755   5.687   2.795  10.288  1.1295  1.2825  2.6722
37209SOL     OW16756   2.085   3.526   9.811 -0.0806 -0.0603 -0.1773
37209SOL    HW116757   1.994   3.514   9.837 -0.3921  0.7544 -0.8550
37209SOL    HW216758   2.098   3.464   9.740 -0.4547  0.6311 -0.8591
37210SOL     OW16759   8.062   3.066   0.095 -0.0535 -0.5367 -0.3226
37210SOL    HW116760   8.083   3.103   0.009  1.0607 -2.2186 -0.8125
37210SOL    HW216761   8.141   3.077   0.147 -0.8867  0.9108  0.6644
37211SOL     OW16762   8.188   7.610   4.401  0.2614  0.7634 -0.2709
37211SOL    HW116763   8.141   7.528   4.390  2.3429 -0.5690  0.4094
37211SOL    HW216764   8.142   7.654   4.473 -0.3429 -0.1995 -0.0559
37212SOL     OW16765   1.051   8.329   7.648  1.2973  0.3667  0.7226
37212SOL    HW116766   1.086   8.378   7.723  2.2246  1.6845 -0.5582
37212SOL    HW216767   1.127   8.307   7.595  0.5192  0.5377 -0.4936
37213SOL     OW16768   2.260   8.507   2.913 -0.3644 -0.4369 -0.3845
37213SOL    HW116769   2.330   8.443   2.922  0.7921  0.8487  0.0470
37213SOL    HW216770   2.182   8.463   2.947  0.3953 -1.6225 -0.1622
37214SOL     OW16771   8.746   1.543   3.925 -0.0592  0.2953 -0.2460
37214SOL    HW116772   8.665   1.517   3.969 -0.0084 -3.1631 -1.9579
37214SOL    HW216773   8.803   1.574   3.995 -0.6329 -3.2317  1.9161
37215SOL     OW16774   0.946   0.269   7.916  0.0342  0.0483 -0.4321
37215SOL    HW116775   0.949   0.340   7.851  0.7686 -0.9159 -1.4579
37215SOL    HW216776   1.038   0.253   7.938 -0.0230 -1.6908 -1.4244
37216SOL     OW16777   1.621   7.607   8.160  0.2003  0.1930  0.4970
37216SOL    HW116778   1.710   7.633   8.136 -0.0996 -0.1424 -0.9874
37216SOL    HW216779   1.626   7.513   8.172 -0.5323 -0.2244 -2.2387
37217SOL     OW16780   0.617   2.973   3.500  0.0640 -0.4986 -0.1756
37217SOL    HW116781   0.712   2.970   3.493 -0.0028 -1.2565 -0.8604
37217SOL    HW216782   0.595   3.065   3.488  0.6441 -0.4544 -0.9202
37218SOL     OW16783   7.561  11.099   9.986 -0.4801 -0.0452  0.0735
37218SOL    HW116784   7.531  11.008   9.979 -0.5030 -0.0261 -0.0925
37218SOL    HW216785   7.480  11.150   9.994 -0.5576  0.1081 -1.4871
37219SOL     OW16786   9.460  10.298   5.598 -0.0999 -0.2809 -0.2771
37219SOL    HW116787   9.414  10.378   5.570  0.7808  0.4878  0.4560
37219SOL    HW216788   9.437  10.234   5.531 -2.4784  0.0049  0.2054
37220SOL     OW16789   7.134   2.482  10.533 -0.4477  0.0238 -0.3444
37220SOL    HW116790   7.131   2.390  10.559 -1.4309  0.3368  0.6912
37220SOL    HW216791   7.208   2.488  10.473  2.6233 -0.5111  3.2209
37221SOL     OW16792  10.131   8.027   3.721 -0.1123 -0.3857 -0.5026
37221SOL    HW116793  10.194   8.016   3.792  1.3065  0.6387 -1.5638
37221SOL    HW216794  10.165   7.974   3.649 -1.5247 -1.3962 -0.4586
37222SOL     OW16795   1.755  10.753   6.546 -0.1384  0.0266  0.0069
37222SOL    HW116796   1.685  10.694   6.519  1.2680 -1.7444  0.1681
37222SOL    HW216797   1.834  10.715   6.508  0.7853  1.8722  0.0303
37223SOL     OW16798  10.713   1.365   9.068 -0.4673  0.0070 -0.6125
37223SOL    HW116799  10.658   1.290   9.042 -2.1447  0.7985  0.5551
37223SOL    HW216800  10.650   1.433   9.091  1.0485  1.6308 -1.1982
37224SOL     OW16801   3.202   8.254   8.963 -0.4142 -0.2956 -0.1558
37224SOL    HW116802   3.252   8.193   8.907  0.8575 -0.5132  1.2022
37224SOL    HW216803   3.256   8.333   8.966 -0.3538 -0.3848  0.9888
37225SOL     OW16804   7.495   8.841   0.095 -0.4554 -0.0279 -0.3845
37225SOL    HW116805   7.565   8.822   0.156 -1.8229 -2.5411  0.4880
37225SOL    HW216806   7.440   8.763   0.096 -2.0840  1.0097 -2.6726
37226SOL     OW16807   9.283   9.555   9.008 -0.6314 -0.1066 -0.2370
37226SOL    HW116808   9.278   9.651   9.008 -1.7784 -0.1518 -1.0753
37226SOL    HW216809   9.321   9.533   8.923  0.2400 -0.3694  0.2187
37227SOL     OW16810   2.296   8.983   9.522  0.5417  0.0815  0.4379
37227SOL    HW116811   2.281   8.936   9.441 -1.6562 -1.6694  1.8023
37227SOL    HW216812   2.391   8.986   9.531  0.7667 -1.3156 -1.2619
37228SOL     OW16813   8.283  10.014   7.295  0.0176  0.1626  0.0563
37228SOL    HW116814   8.271   9.975   7.208  0.4343  0.0086  0.0658
37228SOL    HW216815   8.204  10.066   7.309 -0.6918 -0.9108  0.1560
37229SOL     OW16816   7.690   4.397   5.522  0.3644 -0.1441  0.7141
37229SOL    HW116817   7.678   4.491   5.531 -1.0494 -0.3884  1.6026
37229SOL    HW216818   7.733   4.369   5.602 -0.5662 -0.4551  1.1178
37230SOL     OW16819   7.168  10.434   9.560  0.1382  0.2442  0.3995
37230SOL    HW116820   7.149  10.347   9.594  0.4023 -0.7472 -1.8580
37230SOL    HW216821   7.107  10.492   9.605 -0.7613 -1.2742  1.1662
37231SOL     OW16822   7.781  10.080   5.825  0.8961 -0.1345  0.5382
37231SOL    HW116823   7.702  10.119   5.862  0.3740 -2.0451  1.4682
37231SOL    HW216824   7.762  10.072   5.731 -0.5855 -1.8372  0.9500
37232SOL     OW16825   9.364   9.040   0.186 -0.2191 -0.4364  0.3968
37232SOL    HW116826   9.430   9.051   0.254 -0.1397 -1.2992  0.4715
37232SOL    HW216827   9.331   9.128   0.168  0.8427 -0.0270  0.4698
37233SOL     OW16828   4.884   5.380   3.450 -0.1205  0.3029 -0.6003
37233SOL    HW116829   4.920   5.343   3.370  0.0366 -0.6119 -0.1072
37233SOL    HW216830   4.789   5.380   3.435  0.0237  2.3283 -1.7281
37234SOL     OW16831   7.807   2.486   0.076 -0.5036 -0.5546 -0.2228
37234SOL    HW116832   7.901   2.498   0.064 -0.1831  0.0750  2.4889
37234SOL    HW216833   7.766   2.556   0.025  0.5624 -0.0085 -0.3276
37235SOL     OW16834   1.693   0.356   6.811 -0.2588  0.0729 -0.0124
37235SOL    HW116835   1.598   0.344   6.803 -0.1988 -1.0793  0.8790
37235SOL    HW216836   1.722   0.282   6.864  1.2321  0.0721 -0.8084
37236SOL     OW16837   7.004   8.174   5.619  0.1709  0.4250 -0.0402
37236SOL    HW116838   6.916   8.199   5.590  0.2848  1.5209  0.5056
37236SOL    HW216839   7.056   8.254   5.607  0.2516  0.8982  2.9905
37237SOL     OW16840   1.393   1.964   5.863  0.2870  0.4887 -0.3204
37237SOL    HW116841   1.341   1.999   5.790  0.5008  1.6441  0.0725
37237SOL    HW216842   1.484   1.972   5.833  0.2724 -1.3291 -0.9170
37238SOL     OW16843   0.044   9.678   4.845  0.5089  0.0411 -0.4016
37238SOL    HW116844   0.051   9.595   4.799  0.6779 -1.0987  1.6239
37238SOL    HW216845  -0.050   9.691   4.857  0.5279 -0.5112  0.3999
37239SOL     OW16846   5.545  11.070   9.506 -0.2889  0.5221 -0.3140
37239SOL    HW116847   5.621  11.018   9.479 -1.4956 -0.8007 -1.2780
37239SOL    HW216848   5.530  11.045   9.597 -0.4499 -0.3310 -0.5701
37240SOL     OW16849   8.815   6.989   0.791 -0.2304  0.0280  0.3439
37240SOL    HW116850   8.785   7.022   0.876 -0.6993  2.7157 -0.8258
37240SOL    HW216851   8.744   6.935   0.759  0.1898 -1.4945  1.9137
37241SOL     OW16852   5.203   6.594   8.327 -1.0812 -0.6028 -0.3141
37241SOL    HW116853   5.205   6.539   8.406  1.4031 -1.1074 -0.6718
37241SOL    HW216854   5.214   6.533   8.255  1.5839  0.2891 -0.7300
37242SOL     OW16855   4.269   5.570   5.123  0.1963 -0.0098  0.9981
37242SOL    HW116856   4.312   5.534   5.045  0.1973  1.5196  0.2729
37242SOL    HW216857   4.310   5.525   5.196  2.2270  0.5606  0.2489
37243SOL     OW16858  10.328   3.110   4.114  0.6374 -0.2986 -0.6225
37243SOL    HW116859  10.233   3.106   4.124  0.6629 -0.1389 -0.3078
37243SOL    HW216860  10.361   3.045   4.175  0.6802 -1.3023 -1.6968
37244SOL     OW16861  10.631   5.342   8.967  0.4773 -0.4837 -0.0050
37244SOL    HW116862  10.663   5.358   8.879 -0.8540  2.9150  0.0601
37244SOL    HW216863  10.538   5.320   8.955  1.1033 -3.5771  0.3312
37245SOL     OW16864  10.277  11.071   8.718  0.6772  0.0425  0.0582
37245SOL    HW116865  10.281  11.142   8.782 -0.8854 -0.8292  1.1243
37245SOL    HW216866  10.308  11.112   8.637 -1.2755  2.2771  0.3798
37246SOL     OW16867  10.552   0.811  10.253 -0.7116 -0.2359 -0.0210
37246SOL    HW116868  10.646   0.790  10.254 -0.5709  0.2266 -1.6087
37246SOL    HW216869  10.545   0.892  10.303 -0.0351  0.5344 -1.1497
37247SOL     OW16870   7.867   6.746   6.264  0.3938  0.3244  0.1956
37247SOL    HW116871   7.772   6.758   6.267  0.1195 -1.2879 -1.0239
37247SOL    HW216872   7.880   6.655   6.293  1.5390  0.4556  0.1068
37248SOL     OW16873   3.044   0.873   8.316 -0.3808 -0.4632 -0.5356
37248SOL    HW116874   3.031   0.966   8.332  0.3611 -0.7698  2.0677
37248SOL    HW216875   3.104   0.869   8.242  0.3840  1.1411 -0.0097
37249SOL     OW16876   3.395   0.650   9.251  0.3315 -0.4272  0.0926
37249SOL    HW116877   3.311   0.659   9.295 -0.9388  0.4194 -2.3991
37249SOL    HW216878   3.411   0.556   9.248 -0.0357 -0.5421  1.4533
37250SOL     OW16879   3.558   2.617   3.597 -0.0873  0.1756  0.6460
37250SOL    HW116880   3.608   2.654   3.524 -1.2112 -0.5771 -0.5264
37250SOL    HW216881   3.475   2.664   3.597  0.6759  1.5672  2.7254
37251SOL     OW16882   9.156   6.788   4.671 -0.8030 -0.0527  0.3050
37251SOL    HW116883   9.092   6.844   4.715  0.0915  0.5205  0.9009
37251SOL    HW216884   9.113   6.703   4.665 -0.6980 -0.3758  3.0385
37252SOL     OW16885   1.545   0.562   2.077 -0.0370  0.1582  0.0007
37252SOL    HW116886   1.636   0.533   2.070  0.2297  0.9802  0.0487
37252SOL    HW216887   1.532   0.618   2.001 -0.0816  1.1750  0.7495
37253SOL     OW16888   3.535   2.493   8.765 -0.3656 -0.1465  0.0987
37253SOL    HW116889   3.535   2.408   8.809 -3.1320 -0.4259 -0.3906
37253SOL    HW216890   3.529   2.557   8.835  0.1505 -0.4067  0.3827
37254SOL     OW16891   7.630   0.201   7.789 -0.1352  0.6189 -0.1692
37254SOL    HW116892   7.587   0.147   7.723  0.4173 -1.0138  0.7679
37254SOL    HW216893   7.642   0.142   7.864  0.6252  2.0061  0.8231
37255SOL     OW16894   1.716   3.506   3.411 -0.0412  0.3164 -0.8649
37255SOL    HW116895   1.752   3.418   3.412 -0.1669  0.2101  2.9167
37255SOL    HW216896   1.792   3.563   3.399  0.4790 -0.1865 -0.0035
37256SOL     OW16897   7.152   4.342   4.465  0.4069  0.1692  0.0491
37256SOL    HW116898   7.182   4.337   4.556  0.4724 -0.8028 -0.0176
37256SOL    HW216899   7.064   4.378   4.470  0.0627 -0.7329  0.5759
37257SOL     OW16900   0.467   0.765   1.487 -0.0049 -0.2718 -0.2719
37257SOL    HW116901   0.520   0.825   1.540 -3.9411  1.9240  1.4562
37257SOL    HW216902   0.530   0.713   1.438  3.6896  1.7486  2.1176
37258SOL     OW16903   8.532   2.238   8.865 -0.0308 -0.3689  0.1606
37258SOL    HW116904   8.512   2.244   8.771  0.3366  0.2694  0.1206
37258SOL    HW216905   8.474   2.303   8.905  0.5586  0.0960  0.2611
37259SOL     OW16906   7.592  10.626   8.769 -0.0560  0.3585 -0.6702
37259SOL    HW116907   7.614  10.579   8.850  0.3186  1.2833 -0.2244
37259SOL    HW216908   7.498  10.614   8.759  0.3422 -2.2519 -1.7026
37260SOL     OW16909   0.236   2.292   8.597  0.2621  0.0497  0.0955
37260SOL    HW116910   0.252   2.212   8.547  1.9504  0.5432 -0.1818
37260SOL    HW216911   0.186   2.348   8.537 -0.7163 -0.6895  0.2058
37261SOL     OW16912   7.948   0.529   0.391 -0.1787 -0.1598 -0.2202
37261SOL    HW116913   7.895   0.606   0.370  0.0144 -0.1565 -0.7054
37261SOL    HW216914   7.883   0.459   0.405 -0.3902  0.2922  1.1145
37262SOL     OW16915   6.642   1.235  10.005  0.5907 -0.0169 -0.5322
37262SOL    HW116916   6.662   1.188   9.924  1.0731  0.3802 -0.6494
37262SOL    HW216917   6.707   1.204  10.068  1.9792  1.7156 -1.0777
37263SOL     OW16918   6.774   2.273  10.214 -0.0751  0.0397 -0.5882
37263SOL    HW116919   6.857   2.270  10.167  1.0970  1.8310  1.3044
37263SOL    HW216920   6.736   2.358  10.192 -1.3801 -0.7288 -1.3710
37264SOL     OW16921   4.606   3.635   4.679 -0.4552 -0.0168  0.2687
37264SOL    HW116922   4.626   3.721   4.643 -0.1191  0.4266  1.5013
37264SOL    HW216923   4.643   3.573   4.616 -1.5674  0.7179 -1.1274
37265SOL     OW16924  10.309   1.905   9.852  0.2624  0.6810  0.1424
37265SOL    HW116925  10.363   1.959   9.793  2.0341 -0.1054  0.9900
37265SOL    HW216926  10.321   1.816   9.819 -2.1527  0.6990 -0.8739
37266SOL     OW16927   7.846   3.418   4.769  0.0035  0.7642  0.8066
37266SOL    HW116928   7.882   3.331   4.753 -1.2726  0.4464 -0.4790
37266SOL    HW216929   7.893   3.450   4.846  2.1154 -0.1239 -0.0733
37267SOL     OW16930   2.653   0.532   0.274 -0.5496  0.1078  0.2201
37267SOL    HW116931   2.645   0.453   0.220 -0.1276  1.1052 -1.3311
37267SOL    HW216932   2.747   0.549   0.277 -0.6749  0.7830  0.2299
37268SOL     OW16933   8.192   0.993  10.183 -0.2358 -0.1421 -0.2208
37268SOL    HW116934   8.262   1.050  10.216 -1.0900  0.6019  0.3095
37268SOL    HW216935   8.232   0.906  10.181  0.4480  0.1371  0.8675
37269SOL     OW16936   5.070   9.941   0.217 -0.4085  0.7699 -0.1756
37269SOL    HW116937   5.114  10.014   0.262  0.3606 -1.2344  2.4447
37269SOL    HW216938   4.986   9.934   0.261 -1.9017  2.1960 -2.7024
37270SOL     OW16939  10.517   8.941   2.117  0.0682  0.0794  0.0378
37270SOL    HW116940  10.596   8.995   2.119  0.8620 -1.0123 -0.9457
37270SOL    HW216941  10.449   8.997   2.154  0.8867  1.7296 -0.8645
37271SOL     OW16942   0.181  11.331   9.617  0.7310  0.1416  0.0503
37271SOL    HW116943   0.263  11.380   9.614  1.1638 -0.5868 -0.4052
37271SOL    HW216944   0.207  11.245   9.652 -0.2966  0.7802  2.4522
37272SOL     OW16945   2.531   1.717   0.403  0.5034 -0.2902  0.2312
37272SOL    HW116946   2.536   1.628   0.367 -0.3656  0.1147 -0.9146
37272SOL    HW216947   2.438   1.729   0.423  0.8358 -0.1807  1.8253
37273SOL     OW16948   5.963   2.981   9.900  0.1614  0.0934  0.2009
37273SOL    HW116949   6.018   2.917   9.855 -1.1422 -1.3348  0.5851
37273SOL    HW216950   6.020   3.020   9.965  1.0783 -0.4093 -0.2856
37274SOL     OW16951   6.026   0.014   5.040 -0.4052  0.6078 -0.1985
37274SOL    HW116952   5.954   0.011   4.978  1.3738  3.4241 -2.5080
37274SOL    HW216953   6.062  -0.075   5.039 -2.3176 -0.1788 -0.8394
37275SOL     OW16954   8.653   8.087   0.731 -0.1894  0.1871  0.1538
37275SOL    HW116955   8.680   8.113   0.643  1.0341 -2.0369 -0.1701
37275SOL    HW216956   8.728   8.108   0.786 -0.6586  0.8484  0.5590
37276SOL     OW16957   9.042   2.073   9.344  0.1612  0.6289 -0.9864
37276SOL    HW116958   9.120   2.054   9.293  0.2623  0.5913 -0.8171
37276SOL    HW216959   8.990   2.130   9.287 -0.1457 -0.1469 -1.4972
37277SOL     OW16960   7.327   9.396   7.969 -0.1663 -0.0055  0.4943
37277SOL    HW116961   7.315   9.340   8.046 -2.5871 -0.1484  0.0656
37277SOL    HW216962   7.258   9.462   7.977 -0.0756  0.3135 -1.2580
37278SOL     OW16963   0.340   9.634   3.808 -0.4901  0.1201  0.2426
37278SOL    HW116964   0.251   9.626   3.772 -0.3496 -2.1215  0.3305
37278SOL    HW216965   0.394   9.583   3.748  0.6836  1.1349  0.4291
37279SOL     OW16966   1.658   9.080   2.345  0.2398  1.0439  0.2076
37279SOL    HW116967   1.585   9.133   2.376 -0.1850 -0.0084  1.0510
37279SOL    HW216968   1.734   9.112   2.393  0.1701  1.5404 -0.0110
37280SOL     OW16969   7.650   8.296   4.919 -0.2235  0.1051 -0.1523
37280SOL    HW116970   7.645   8.388   4.893 -2.3468  0.4466  1.3317
37280SOL    HW216971   7.679   8.298   5.010  0.1560 -0.7053 -0.2523
37281SOL     OW16972   9.621   6.186  10.376 -0.5763  0.2366  0.0804
37281SOL    HW116973   9.558   6.254  10.355  0.0999  2.2827  4.0867
37281SOL    HW216974   9.706   6.228  10.366 -0.0477 -0.9246 -0.3488
37282SOL     OW16975   1.472  10.930  10.421  0.6264  0.2960 -0.1872
37282SOL    HW116976   1.440  10.887  10.341  1.6056 -0.6664 -0.0693
37282SOL    HW216977   1.432  10.880  10.492  0.2336  0.7838 -0.0600
37283SOL     OW16978   2.465   0.690  11.169  0.3790 -0.0988 -0.3829
37283SOL    HW116979   2.457   0.595  11.179 -0.0337 -0.1056 -0.7583
37283SOL    HW216980   2.383   0.725  11.203  0.5453  0.1258 -0.2092
37284SOL     OW16981  10.097   5.512  10.655 -0.8267 -0.1443  0.0476
37284SOL    HW116982  10.094   5.606  10.670 -1.9942 -0.2027  0.2378
37284SOL    HW216983  10.080   5.472  10.740  2.1916 -0.5642  0.4858
37285SOL     OW16984   1.292   4.337   0.956  0.0221  0.0744  0.0325
37285SOL    HW116985   1.366   4.302   0.905  0.4180  0.7878  0.1069
37285SOL    HW216986   1.219   4.278   0.935  0.7460 -0.9719  0.3868
37286SOL     OW16987   3.378   6.126   6.840 -0.3496 -0.5025 -0.3624
37286SOL    HW116988   3.308   6.146   6.902 -0.0097 -1.1819  0.2529
37286SOL    HW216989   3.346   6.160   6.756 -0.9113  0.2182  0.1345
37287SOL     OW16990   8.351   4.080   4.275  0.4126  0.0284 -0.1556
37287SOL    HW116991   8.440   4.092   4.241  0.2405  0.2931 -0.5083
37287SOL    HW216992   8.362   4.078   4.370  0.5862  1.9163 -0.1169
37288SOL     OW16993   2.789   9.259   6.125 -0.3713  0.0404 -0.0433
37288SOL    HW116994   2.883   9.239   6.128  0.0480  1.4763 -2.1601
37288SOL    HW216995   2.749   9.180   6.090  0.0494 -0.6263  0.9829
37289SOL     OW16996   1.688   3.487   4.992 -0.5047 -0.5342 -0.6519
37289SOL    HW116997   1.759   3.545   5.018  0.2537 -1.7817  0.0563
37289SOL    HW216998   1.722   3.437   4.918 -0.5965 -1.2265 -0.2303
37290SOL     OW16999   3.411   7.534   4.403  0.4018 -0.0710  0.9222
37290SOL    HW117000   3.478   7.465   4.399  0.1970 -0.1563 -2.1079
37290SOL    HW217001   3.337   7.492   4.446  0.6327 -1.4737  0.0119
37291SOL     OW17002   3.788   6.332   5.724  0.1091  0.6589 -0.6966
37291SOL    HW117003   3.880   6.337   5.698  0.6854 -1.9662  0.5557
37291SOL    HW217004   3.745   6.290   5.649  0.6128 -1.2109  0.0124
37292SOL     OW17005   9.081   4.812   0.058 -0.3227 -0.5013  0.6390
37292SOL    HW117006   9.034   4.831  -0.023 -0.5086  3.9013  1.6574
37292SOL    HW217007   9.017   4.829   0.127  1.4712  1.4919  1.8798
37293SOL     OW17008  10.874  11.226   9.701 -0.2711  0.3402  0.2054
37293SOL    HW117009  10.831  11.267   9.626  1.7521  1.1354 -0.5804
37293SOL    HW217010  10.938  11.292   9.730  0.3990 -0.7879  1.3173
37294SOL     OW17011   5.421   0.634  10.909  0.7418 -0.4606  0.6904
37294SOL    HW117012   5.330   0.663  10.907  1.1617  0.8081 -2.2186
37294SOL    HW217013   5.430   0.576  10.834  2.4901 -0.0977  0.5938
37295SOL     OW17014  11.012   0.141   1.192 -0.0853  0.9151  0.0735
37295SOL    HW117015  11.055   0.064   1.228  0.2272 -0.2545 -2.7024
37295SOL    HW217016  10.926   0.111   1.165 -0.0392  1.5889 -0.8537
37296SOL     OW17017   5.619   5.314   0.020 -0.4010  0.0729 -0.3783
37296SOL    HW117018   5.524   5.326   0.024 -0.1767  1.4529  0.8517
37296SOL    HW217019   5.655   5.393   0.059  1.2317 -1.1131  0.5711
37297SOL     OW17020   5.758  10.839   3.170  0.1600 -0.0541 -0.1832
37297SOL    HW117021   5.758  10.929   3.138 -0.8737 -0.0472 -0.1732
37297SOL    HW217022   5.694  10.794   3.115  0.2415 -0.6461  0.1986
37298SOL     OW17023  10.633   4.025   9.454  0.2069  0.0039 -0.1834
37298SOL    HW117024  10.715   4.018   9.406  1.2261  1.5759  1.2686
37298SOL    HW217025  10.597   3.936   9.455  2.2825 -0.8432 -0.1199
37299SOL     OW17026   0.280   6.602   7.801 -0.2425 -0.5741  0.1217
37299SOL    HW117027   0.338   6.617   7.875 -1.1596 -1.6185  1.0622
37299SOL    HW217028   0.263   6.508   7.802 -0.9275 -0.4740 -0.9157
37300SOL     OW17029  11.034  10.722   8.059 -0.0371 -0.0676  0.1581
37300SOL    HW117030  11.121  10.718   8.099 -0.7103  1.9079  1.9530
37300SOL    HW217031  10.996  10.635   8.075  0.9457 -0.3656  0.9504
37301SOL     OW17032   9.998   1.917  11.245  0.1162  0.3385 -0.3924
37301SOL    HW117033   9.958   1.993  11.288 -0.5000 -0.1152 -0.1501
37301SOL    HW217034   9.967   1.842  11.296  0.7779 -0.0716 -0.5853
37302SOL     OW17035   1.609  10.006   1.463  0.2780  0.2814  0.4530
37302SOL    HW117036   1.593   9.925   1.415  0.5629  0.3186  0.2945
37302SOL    HW217037   1.524  10.051   1.463  0.8733  1.5004 -2.2850
37303SOL     OW17038   9.875   3.793   2.944 -0.5501  0.5364  0.3922
37303SOL    HW117039   9.816   3.856   2.985 -0.2982  2.2184 -1.7375
37303SOL    HW217040   9.946   3.846   2.908  0.6520 -1.1603  0.1987
37304SOL     OW17041   3.651   3.572   7.192 -0.3041 -0.1138 -0.3917
37304SOL    HW117042   3.727   3.578   7.135  1.0383 -1.5841  1.1744
37304SOL    HW217043   3.579   3.548   7.135  0.7011 -0.0979 -1.6779
37305SOL     OW17044  10.233   2.369   4.214 -0.9889 -0.5785 -0.3591
37305SOL    HW117045  10.232   2.388   4.307 -3.5635  1.3809 -0.7262
37305SOL    HW217046  10.196   2.281   4.207 -1.5523 -0.4119  0.4209
37306SOL     OW17047   1.400   4.340   2.814  0.5733  0.5333  0.0893
37306SOL    HW117048   1.306   4.343   2.798  0.8467  1.8466 -1.3804
37306SOL    HW217049   1.408   4.354   2.909 -0.7119  0.0654  0.2820
37307SOL     OW17050   9.568   7.312   7.601 -0.0468  0.5205  0.4268
37307SOL    HW117051   9.582   7.282   7.691 -1.2929  0.1256  0.5085
37307SOL    HW217052   9.479   7.347   7.602 -0.4597 -0.4569 -0.9052
37308SOL     OW17053   2.892   5.633   2.132 -0.6305 -0.1879 -0.0355
37308SOL    HW117054   2.862   5.704   2.075  0.0525 -1.5419 -2.1571
37308SOL    HW217055   2.819   5.570   2.132 -0.6956 -0.1127  0.7212
37309SOL     OW17056   5.926   0.710   8.596 -0.3054  0.4557 -0.2575
37309SOL    HW117057   5.925   0.730   8.502  0.7149  0.6161 -0.2377
37309SOL    HW217058   5.834   0.700   8.619 -0.5089 -0.8383 -1.5522
37310SOL     OW17059   5.086   2.690   4.789 -0.6349 -0.1475 -0.0743
37310SOL    HW117060   5.010   2.737   4.755  0.5175  1.7068 -0.1806
37310SOL    HW217061   5.131   2.658   4.711 -0.0726  0.7594 -0.1282
37311SOL     OW17062   8.016   3.162   1.996  0.3265 -0.4570  0.1092
37311SOL    HW117063   7.992   3.253   2.015 -0.4737 -1.0106  1.7927
37311SOL    HW217064   8.056   3.166   1.909  0.6703  1.5624  0.3392
37312SOL     OW17065   0.379  10.146   1.259 -0.1573 -0.5103  0.4371
37312SOL    HW117066   0.365  10.173   1.350  0.1580 -2.9875  1.2555
37312SOL    HW217067   0.292  10.146   1.220 -0.2676  0.7714  0.6735
37313SOL     OW17068   0.099   8.629   4.302 -0.3442 -0.4257 -0.2206
37313SOL    HW117069   0.165   8.684   4.343  1.2834 -2.0135 -0.6398
37313SOL    HW217070   0.038   8.691   4.262  2.1589  1.1001 -1.8265
37314SOL     OW17071   8.276  10.510   5.610 -0.0708 -0.4682  0.1198
37314SOL    HW117072   8.244  10.562   5.683 -0.3109  0.0122 -0.3268
37314SOL    HW217073   8.198  10.483   5.563  0.0250 -1.6176  0.6033
37315SOL     OW17074   5.669  11.335   9.555 -0.1737  0.3392  0.0622
37315SOL    HW117075   5.614  11.400   9.599  0.9202  0.7706  0.8100
37315SOL    HW217076   5.662  11.257   9.609  3.2436  1.6307  2.5788
37316SOL     OW17077   7.622   4.114   2.231  0.5477  0.2749  0.3769
37316SOL    HW117078   7.664   4.185   2.279 -0.2583 -0.0035  1.5031
37316SOL    HW217079   7.693   4.072   2.183  1.0710  1.6677 -0.0853
37317SOL     OW17080   7.154   1.749   9.575 -0.3252 -0.1985 -0.0929
37317SOL    HW117081   7.202   1.812   9.628 -0.4729  1.3519 -1.7727
37317SOL    HW217082   7.206   1.739   9.495 -1.4895 -0.4388 -0.8405
37318SOL     OW17083   5.096   1.910   1.755  0.3841 -0.8114  0.0266
37318SOL    HW117084   5.039   1.926   1.830 -0.2821 -0.4986 -0.5411
37318SOL    HW217085   5.184   1.922   1.789  0.0524  0.1078  0.5756
37319SOL     OW17086   6.150   5.586   0.045 -0.2694 -0.3192  0.1068
37319SOL    HW117087   6.217   5.627  -0.009 -1.7439  1.5785 -0.3390
37319SOL    HW217088   6.197   5.553   0.122  1.1128  1.4553  0.0605
37320SOL     OW17089   7.273   2.074   9.158 -0.0741  0.3204 -0.0426
37320SOL    HW117090   7.235   2.070   9.071 -0.1310 -0.8544  0.0319
37320SOL    HW217091   7.354   2.124   9.147  0.8009 -1.2970 -1.0978
37321SOL     OW17092  11.069   4.261   8.979  0.6372  0.2971 -0.2680
37321SOL    HW117093  11.123   4.196   8.933  2.4901  1.4493  0.2247
37321SOL    HW217094  10.986   4.216   8.995  1.5823 -1.6516 -0.6828
37322SOL     OW17095   7.186   8.647   0.153  0.4886  0.2267 -0.2155
37322SOL    HW117096   7.143   8.703   0.088 -1.5415 -0.5734  0.3717
37322SOL    HW217097   7.260   8.608   0.106 -0.9110 -0.3188 -2.0670
37323SOL     OW17098   1.557   7.461   3.667 -0.4373  0.4993 -0.0844
37323SOL    HW117099   1.618   7.413   3.611 -1.2375 -1.3622  0.5962
37323SOL    HW217100   1.573   7.427   3.755 -3.1814 -0.8571 -0.0391
37324SOL     OW17101   0.873   4.805   5.824  0.3019 -0.2737 -0.0029
37324SOL    HW117102   0.839   4.716   5.831 -0.4428  0.1086  1.4432
37324SOL    HW217103   0.946   4.798   5.763  1.2381 -2.1644  1.3006
37325SOL     OW17104   0.377   8.056   7.468  0.3771 -0.0033 -0.0212
37325SOL    HW117105   0.457   8.107   7.460  0.3226 -0.0614 -0.9914
37325SOL    HW217106   0.350   8.040   7.378 -0.2090 -0.8001  0.2965
37326SOL     OW17107   9.893   6.801   6.506 -0.0011  0.6253 -0.0952
37326SOL    HW117108   9.866   6.715   6.475  2.9137 -0.2579 -0.3761
37326SOL    HW217109   9.964   6.782   6.567  0.2131  2.8054  0.3457
37327SOL     OW17110   3.714  11.108   5.197  0.3631 -0.2486 -0.3354
37327SOL    HW117111   3.703  11.052   5.119 -0.8959 -0.8375  0.2429
37327SOL    HW217112   3.661  11.065   5.264  0.0354  1.2095  0.3505
37328SOL     OW17113   4.206  10.132   2.059 -0.3292 -0.2978 -0.2238
37328SOL    HW117114   4.226  10.205   2.001 -0.9080  0.6289  0.7237
37328SOL    HW217115   4.150  10.074   2.006 -0.6838  0.4323 -0.6624
37329SOL     OW17116   9.419  10.551   7.360  0.2272 -0.0749 -0.2009
37329SOL    HW117117   9.344  10.553   7.301 -0.0150 -0.0334  0.1093
37329SOL    HW217118   9.492  10.522   7.304  0.5681  2.4903 -1.1294
37330SOL     OW17119   8.705   6.210   7.055 -0.6385 -0.2510  0.2475
37330SOL    HW117120   8.704   6.162   7.138 -0.1392 -0.8969 -0.1147
37330SOL    HW217121   8.670   6.147   6.991 -0.7116  0.1365 -0.0934
37331SOL     OW17122  10.700   6.865   0.526  0.7153  0.0271  0.1245
37331SOL    HW117123  10.604   6.867   0.532  0.6923  0.1975 -0.3072
37331SOL    HW217124  10.725   6.789   0.579  0.3794  0.3311  0.7298
37332SOL     OW17125   6.823   2.389   3.956  0.0286  0.0688  0.0795
37332SOL    HW117126   6.810   2.478   3.923  2.6426  0.5497  0.2325
37332SOL    HW217127   6.826   2.335   3.877 -0.9861  0.1885 -0.0457
37333SOL     OW17128   8.412   6.127   7.328 -0.1915  0.4188 -0.1133
37333SOL    HW117129   8.420   6.089   7.416  1.9916 -0.6740 -0.7264
37333SOL    HW217130   8.365   6.061   7.278  1.0293 -0.2189 -0.4440
37334SOL     OW17131   3.838   3.433   6.786  0.2778  0.1373 -0.5976
37334SOL    HW117132   3.889   3.442   6.866 -1.6234 -0.0007  0.6509
37334SOL    HW217133   3.801   3.344   6.791 -4.4536  2.0515  1.2149
37335SOL     OW17134   8.089   0.950   2.427  0.1903 -0.2877  0.2761
37335SOL    HW117135   8.175   0.963   2.388 -0.3024 -1.6140 -1.3297
37335SOL    HW217136   8.106   0.909   2.512  1.1496 -0.2784  0.0840
37336SOL     OW17137   9.690   9.106   7.829  0.4609 -0.0795  0.0234
37336SOL    HW117138   9.775   9.129   7.792  0.4269 -0.7353 -0.4678
37336SOL    HW217139   9.671   9.176   7.891  0.4435  1.1259 -1.3168
37337SOL     OW17140   5.806   3.347   4.894  0.1232 -0.0360  0.1846
37337SOL    HW117141   5.882   3.376   4.944 -0.5134  1.0674  0.5308
37337SOL    HW217142   5.732   3.394   4.932 -0.6554 -0.6618 -0.5213
37338SOL     OW17143   5.866   4.667  10.475  0.5809  0.1692 -0.0256
37338SOL    HW117144   5.937   4.729  10.491 -0.4127  1.8276 -1.8031
37338SOL    HW217145   5.860   4.660  10.380 -1.3498 -0.2662  0.1018
37339SOL     OW17146  11.248  11.116   7.578  0.3708 -0.3416  0.1875
37339SOL    HW117147  11.275  11.200   7.541 -1.6145  0.1769 -0.1149
37339SOL    HW217148  11.242  11.058   7.502  1.8587 -0.8026  0.4101
37340SOL     OW17149   0.106   6.090  11.013  0.5663  0.3253  0.9529
37340SOL    HW117150   0.162   6.026  10.967  1.5666  1.7684  0.1119
37340SOL    HW217151   0.032   6.038  11.044  0.0274 -0.8080 -1.9828
37341SOL     OW17152  10.671   9.947   0.383 -0.1528 -0.3248  0.2303
37341SOL    HW117153  10.678   9.877   0.318  0.9563  0.7030 -0.7777
37341SOL    HW217154  10.759   9.956   0.419 -0.3436  0.3702  0.5416
37342SOL     OW17155   1.898   6.029   0.943 -0.1723  0.1324 -0.2440
37342SOL    HW117156   1.814   6.013   0.900  0.4364 -2.0073 -0.7257
37342SOL    HW217157   1.929   6.112   0.906 -0.9949 -0.2405 -1.8204
37343SOL     OW17158   7.855   2.135   5.911 -0.3639 -0.9126 -0.0814
37343SOL    HW117159   7.826   2.180   5.990  0.3845 -1.4485  0.5065
37343SOL    HW217160   7.941   2.173   5.892 -0.4552 -0.9237 -0.5270
37344SOL     OW17161   5.187   8.747  10.667 -0.2630 -0.4417  0.0845
37344SOL    HW117162   5.192   8.793  10.583 -0.5690  0.9000  0.7892
37344SOL    HW217163   5.101   8.704  10.666 -0.8521  0.7098  0.2768
37345SOL     OW17164   1.276   0.503   1.953  0.2115  0.0886 -0.5021
37345SOL    HW117165   1.190   0.469   1.932  0.2147 -2.2250  2.7564
37345SOL    HW217166   1.336   0.430   1.937  1.1669  0.7409 -0.0090
37346SOL     OW17167  10.748   4.294   2.369 -0.4524  0.0073 -0.1496
37346SOL    HW117168  10.789   4.354   2.431 -0.5738 -1.5931  1.5422
37346SOL    HW217169  10.762   4.207   2.408 -1.8794 -0.8890 -1.5979
37347SOL     OW17170   4.161   4.742   3.192 -0.5628  0.6265  0.1719
37347SOL    HW117171   4.085   4.684   3.200 -0.0198 -0.1185 -0.0033
37347SOL    HW217172   4.197   4.745   3.281 -0.9124  1.1494  0.3001
37348SOL     OW17173   2.345   4.981  10.555 -0.0144 -0.4593  0.4943
37348SOL    HW117174   2.364   4.889  10.572 -1.5463 -0.6155  1.4265
37348SOL    HW217175   2.267   5.000  10.607  1.1380  1.7768  1.4763
37349SOL     OW17176   9.076   0.008   1.525 -0.8912  0.3187  0.0595
37349SOL    HW117177   9.061   0.035   1.615  0.6805 -0.1192  0.4567
37349SOL    HW217178   9.099  -0.085   1.531 -1.1339  0.1982 -0.8248
37350SOL     OW17179   3.932  11.091   9.078  0.0481 -0.3275  0.2901
37350SOL    HW117180   3.904  11.181   9.065  0.2032 -0.3428 -0.1436
37350SOL    HW217181   3.989  11.094   9.155 -0.1829 -0.1040  0.4522
37351SOL     OW17182   8.255   5.745   4.031 -0.3737 -0.3483  0.1168
37351SOL    HW117183   8.217   5.771   4.115 -2.3616 -1.7174 -0.3042
37351SOL    HW217184   8.344   5.716   4.053 -0.1641  1.2225  1.4228
37352SOL     OW17185   7.131   3.261  10.785  0.2867 -0.2367 -0.3277
37352SOL    HW117186   7.194   3.296  10.722  1.5674 -0.1641  0.9648
37352SOL    HW217187   7.181   3.197  10.836 -0.3116  0.7315  1.5502
37353SOL     OW17188   5.469   4.575   5.212  0.0557  0.1708  0.6831
37353SOL    HW117189   5.488   4.550   5.121 -0.2167 -1.2732  1.0123
37353SOL    HW217190   5.492   4.498   5.263 -2.5753 -0.0776  1.5422
37354SOL     OW17191  11.242   2.445   4.021  0.1454  0.1298 -0.3826
37354SOL    HW117192  11.215   2.531   4.053 -0.6370 -0.6606  1.1308
37354SOL    HW217193  11.178   2.424   3.953  0.1411  0.6008 -0.5270
37355SOL     OW17194   7.860   8.805   5.171 -0.0559  0.3567  0.5831
37355SOL    HW117195   7.890   8.862   5.241  0.0432 -0.0971  0.9138
37355SOL    HW217196   7.765   8.802   5.181 -0.0153  0.0534  0.8856
37356SOL     OW17197   3.034   4.438   9.872  0.0657 -0.3476  0.3376
37356SOL    HW117198   2.995   4.508   9.820  0.5525 -0.9634 -0.8610
37356SOL    HW217199   2.960   4.397   9.917 -0.3336  0.3072  0.2902
37357SOL     OW17200   0.954   0.543  10.439 -0.0048 -0.1219 -0.1106
37357SOL    HW117201   0.978   0.486  10.366 -1.3282  0.3468 -0.9148
37357SOL    HW217202   0.911   0.485  10.502 -1.7467  0.0418 -1.1215
37358SOL     OW17203   5.142   4.099  10.739  0.1925 -0.1812  0.1091
37358SOL    HW117204   5.073   4.033  10.751 -0.0944 -0.1036 -1.0883
37358SOL    HW217205   5.121   4.167  10.803 -1.5098  0.3726 -1.0071
37359SOL     OW17206   0.177   0.699   2.548 -0.3823 -0.0298 -0.1194
37359SOL    HW117207   0.237   0.772   2.565 -0.8490  0.6314 -1.2267
37359SOL    HW217208   0.231   0.621   2.553  0.3076  0.4573  0.1650
37360SOL     OW17209   2.202   1.120   2.153  0.1110 -0.0820  0.5440
37360SOL    HW117210   2.292   1.144   2.133 -0.0145  0.9251  1.1557
37360SOL    HW217211   2.186   1.159   2.239 -0.0611 -2.4523  1.6282
37361SOL     OW17212   4.466   6.960   9.991  0.2054  0.0728  0.0518
37361SOL    HW117213   4.541   6.901   9.996 -0.5099 -0.9145 -0.7272
37361SOL    HW217214   4.503   7.048  10.004  1.5440 -0.3618 -0.7817
37362SOL     OW17215   2.653   4.633   8.169  0.1705 -0.0463  0.6065
37362SOL    HW117216   2.616   4.719   8.189  0.6690  0.1321  0.7711
37362SOL    HW217217   2.622   4.613   8.081  0.3826  0.4862  0.4082
37363SOL     OW17218  10.653   7.558   3.974 -0.3506 -0.0185  0.4112
37363SOL    HW117219  10.653   7.600   4.060 -1.5249  0.6697  0.0902
37363SOL    HW217220  10.672   7.629   3.912 -0.6548 -0.2769  0.0151
37364SOL     OW17221   3.564   1.389   5.778  0.6738 -0.1485  0.3140
37364SOL    HW117222   3.572   1.392   5.683 -2.0406  1.2116  0.0628
37364SOL    HW217223   3.480   1.432   5.796  0.1977 -2.1628  3.1936
37365SOL     OW17224   9.869  11.109   2.497 -0.1639 -0.1021 -0.1230
37365SOL    HW117225   9.961  11.101   2.521  0.0025  0.0389 -0.7167
37365SOL    HW217226   9.855  11.203   2.485 -0.1159 -0.2179 -1.0946
37366SOL     OW17227   7.158   2.757   8.575  0.3043 -0.1862 -0.1178
37366SOL    HW117228   7.219   2.749   8.649 -0.2136  0.4735  0.3865
37366SOL    HW217229   7.090   2.693   8.594 -0.0033  0.2181  0.1525
37367SOL     OW17230   1.170   9.833  10.073 -0.6226  0.2422  0.1263
37367SOL    HW117231   1.118   9.776  10.017  0.3393  0.5565 -1.1099
37367SOL    HW217232   1.162   9.920  10.032  0.2832  0.4229  0.3327
37368SOL     OW17233  10.169   6.622   7.936  0.0786  0.0468 -0.0055
37368SOL    HW117234  10.172   6.714   7.963 -3.1573 -0.0029  0.7772
37368SOL    HW217235  10.099   6.619   7.871 -1.2146 -2.1454  1.4016
37369SOL     OW17236   3.065   6.021   1.264 -0.1932  0.3441  0.2545
37369SOL    HW117237   3.125   6.038   1.191 -3.7067  1.1350 -2.5724
37369SOL    HW217238   3.065   6.102   1.315  1.1244  0.3085  0.3436
37370SOL     OW17239   0.803   8.089   4.894  0.0402  0.4077  0.3304
37370SOL    HW117240   0.718   8.079   4.851 -0.7480 -0.9923  2.1520
37370SOL    HW217241   0.787   8.153   4.963  0.2899 -0.3241  1.0783
37371SOL     OW17242   5.122   5.401   5.583  0.0981  0.1379  0.1806
37371SOL    HW117243   5.124   5.377   5.490  0.7362 -1.3599  0.5604
37371SOL    HW217244   5.202   5.452   5.596  1.0529 -1.3502  0.3203
37372SOL     OW17245   9.384   2.951   0.206  0.2108 -0.0973  0.0845
37372SOL    HW117246   9.462   2.923   0.157 -1.2418  0.5028 -2.6817
37372SOL    HW217247   9.378   2.888   0.278  3.6447  0.2785  0.8184
37373SOL     OW17248   3.097  10.279   8.976  0.0914  0.2374  0.4802
37373SOL    HW117249   3.093  10.345   8.907  0.5176 -0.3977 -0.1706
37373SOL    HW217250   3.157  10.212   8.941 -2.1626 -1.6588  0.0804
37374SOL     OW17251   4.672   6.565   2.247 -0.0206 -0.1690  0.2855
37374SOL    HW117252   4.705   6.570   2.337  0.8784 -0.3917 -0.0209
37374SOL    HW217253   4.616   6.641   2.237  0.9172  0.5773  0.6334
37375SOL     OW17254   5.122   7.749   6.644 -0.0110  0.4314 -0.5398
37375SOL    HW117255   5.136   7.836   6.607 -0.0264  0.4120 -0.5908
37375SOL    HW217256   5.147   7.757   6.736 -0.3020  0.5640 -0.4732
37376SOL     OW17257   9.080   8.393  10.353  0.0379  0.3072  0.2629
37376SOL    HW117258   9.048   8.480  10.330 -1.3141 -0.3537 -0.4056
37376SOL    HW217259   9.018   8.360  10.417  1.9249  0.7969  2.3991
37377SOL     OW17260   7.855   6.968   1.912  0.1427  0.3661 -0.2133
37377SOL    HW117261   7.780   6.918   1.945  0.2485  0.2465 -0.1549
37377SOL    HW217262   7.821   7.057   1.901  0.2181  0.5087  0.6304
37378SOL     OW17263   6.053   8.778   9.160  0.3828  0.2864 -0.5518
37378SOL    HW117264   6.141   8.772   9.122  1.3484 -1.4347  1.8863
37378SOL    HW217265   6.029   8.870   9.149  2.1306  0.6076 -2.0015
37379SOL     OW17266  11.003   3.919   1.533  0.1055 -0.2452  0.7780
37379SOL    HW117267  10.939   3.865   1.485  1.6600 -0.4688 -1.1207
37379SOL    HW217268  10.958   4.001   1.550 -0.7872 -0.5077 -0.2875
37380SOL     OW17269  10.933   3.052   5.876 -0.6846 -0.1991  0.2315
37380SOL    HW117270  10.966   2.965   5.896  0.4879 -0.3970 -2.4477
37380SOL    HW217271  10.857   3.037   5.819 -0.4955  0.5398 -0.2195
37381SOL     OW17272   3.028   6.352   7.177  0.7148  0.3813  0.4659
37381SOL    HW117273   3.003   6.398   7.257  1.4846 -1.8049  2.0123
37381SOL    HW217274   3.002   6.411   7.106  0.6164  2.6338  2.3359
37382SOL     OW17275   0.768   9.687   9.616 -0.0251 -0.4727 -0.5804
37382SOL    HW117276   0.847   9.724   9.576 -1.0722  0.4099 -1.8663
37382SOL    HW217277   0.801   9.616   9.672  1.7348  0.3742 -0.5036
37383SOL     OW17278  11.097   6.693   3.968 -0.0270  0.7377  0.7210
37383SOL    HW117279  11.168   6.658   4.021 -0.6693  0.6954  1.5770
37383SOL    HW217280  11.018   6.655   4.006 -0.3838 -0.7545 -1.4357
37384SOL     OW17281   0.978   2.148   8.347  0.0986 -0.5226  0.1258
37384SOL    HW117282   1.036   2.121   8.418 -0.4847 -0.7601  0.5152
37384SOL    HW217283   0.978   2.243   8.351 -1.9099 -0.5648  2.0702
37385SOL     OW17284   1.682   3.397   3.744 -0.4205 -0.0307  0.1800
37385SOL    HW117285   1.670   3.341   3.820 -0.6035  0.8521  0.8143
37385SOL    HW217286   1.706   3.337   3.673 -1.4246 -0.9871  0.6427
37386SOL     OW17287   7.604   9.474   0.496 -0.0942  0.4402 -0.3632
37386SOL    HW117288   7.583   9.381   0.487 -0.3436  0.4489  0.1116
37386SOL    HW217289   7.654   9.495   0.417 -1.1767  0.2223 -1.1117
37387SOL     OW17290  11.328   4.544  10.368  0.0534 -0.1405  0.1205
37387SOL    HW117291  11.243   4.532  10.325  0.7118 -2.5850 -0.5892
37387SOL    HW217292  11.323   4.493  10.448  0.0796  1.5597  1.2389
37388SOL     OW17293   6.046   5.725   3.095 -0.4492  0.4075  0.2899
37388SOL    HW117294   5.965   5.755   3.052  0.2060  1.3754 -0.3022
37388SOL    HW217295   6.111   5.792   3.071  0.1936  0.3606  1.8794
37389SOL     OW17296   1.236   3.833   9.522 -0.2081 -0.7348 -0.0804
37389SOL    HW117297   1.329   3.812   9.527 -0.2105 -1.1246 -1.2635
37389SOL    HW217298   1.211   3.807   9.433 -0.8966  1.6142 -0.6043
37390SOL     OW17299   8.532   1.116   2.656 -0.5609  0.3859  0.3029
37390SOL    HW117300   8.594   1.185   2.683 -1.0574  0.2404  1.8668
37390SOL    HW217301   8.558   1.039   2.707 -2.6569  0.6073  1.7563
37391SOL     OW17302   1.843   6.250   7.013  0.2647  0.1546  0.1253
37391SOL    HW117303   1.907   6.196   6.967 -1.2029 -0.5819 -1.0800
37391SOL    HW217304   1.880   6.338   7.011  1.4355 -0.3350 -0.1747
37392SOL     OW17305   3.861   8.210   2.616  0.2802  0.7162  0.4008
37392SOL    HW117306   3.912   8.267   2.673  0.0223  1.2358  0.1085
37392SOL    HW217307   3.806   8.269   2.565 -1.3974  0.0957  1.4763
37393SOL     OW17308   0.801   2.478   1.368  0.4185  0.2576 -0.2059
37393SOL    HW117309   0.842   2.554   1.410  0.7479  0.4178 -0.8087
37393SOL    HW217310   0.729   2.515   1.317 -0.6655 -0.0527  1.0715
37394SOL     OW17311   4.732   1.274   8.774 -0.2133  0.0998  0.0699
37394SOL    HW117312   4.715   1.211   8.704 -0.7095  0.6611 -0.3201
37394SOL    HW217313   4.652   1.274   8.826  0.4112 -0.8429  1.0686
37395SOL     OW17314   8.926   8.194   0.090 -0.0854 -0.0977  0.4040
37395SOL    HW117315   8.994   8.129   0.107  0.0502 -0.0035  0.2164
37395SOL    HW217316   8.971   8.278   0.101 -0.0862 -0.0362 -0.0600
37396SOL     OW17317   8.128   6.786   0.046 -0.0127 -0.1149  0.3134
37396SOL    HW117318   8.198   6.837   0.005 -0.1692  1.5248  2.0174
37396SOL    HW217319   8.158   6.696   0.043  0.0272 -0.0605 -3.3127
37397SOL     OW17320   7.859   2.920   8.596  0.2327 -0.0243  0.4269
37397SOL    HW117321   7.816   2.852   8.648  0.2826 -0.3007  0.1101
37397SOL    HW217322   7.805   2.927   8.517 -0.3211  0.9757  0.8800
37398SOL     OW17323   8.481   4.828   0.573  0.0976  0.2217  0.2736
37398SOL    HW117324   8.451   4.739   0.552 -0.4702  0.4203  0.2223
37398SOL    HW217325   8.415   4.885   0.534  0.0993  0.6493  0.8881
37399SOL     OW17326   7.374  10.899   8.306 -0.0323  0.1085  0.3713
37399SOL    HW117327   7.300  10.845   8.279  0.4583 -0.1806 -0.3969
37399SOL    HW217328   7.418  10.848   8.374 -0.9899  0.6288  1.3891
37400SOL     OW17329   7.815  10.538   4.203  0.1562  0.2625  0.0746
37400SOL    HW117330   7.900  10.494   4.205 -0.0190 -0.0642  0.5517
37400SOL    HW217331   7.816  10.595   4.280  0.8732  2.0293 -1.2286
37401SOL     OW17332   3.195   4.219   9.880  0.2725 -0.1925 -0.0751
37401SOL    HW117333   3.131   4.290   9.885  0.3849 -0.0751 -0.2824
37401SOL    HW217334   3.150   4.144   9.917  0.9020  0.5085  2.1708
37402SOL     OW17335   9.504   3.549   8.458 -0.2580  0.1039  0.1749
37402SOL    HW117336   9.446   3.473   8.463 -2.1992  1.5421  0.0528
37402SOL    HW217337   9.557   3.544   8.538 -2.0673 -0.0688  1.4168
37403SOL     OW17338   4.750   5.648   3.717 -0.5171 -0.8948  0.2721
37403SOL    HW117339   4.734   5.554   3.726 -1.0023 -1.0028 -1.5266
37403SOL    HW217340   4.690   5.688   3.780 -2.4876 -1.6713 -1.0502
37404SOL     OW17341  11.112   4.260   4.710 -0.1094  0.1267 -0.0472
37404SOL    HW117342  11.122   4.324   4.781 -1.3258 -0.7170  0.9126
37404SOL    HW217343  11.026   4.222   4.725  0.1897 -1.0182 -1.2057
37405SOL     OW17344   8.483   4.858   2.351 -0.4131  0.2906 -0.1582
37405SOL    HW117345   8.560   4.862   2.295  0.1966 -0.3399  0.6359
37405SOL    HW217346   8.500   4.923   2.420  0.6434 -1.7683  1.5580
37406SOL     OW17347   0.909   1.553   3.764  0.0429 -0.1140  0.0836
37406SOL    HW117348   0.933   1.506   3.684 -0.9264 -2.4922  1.1422
37406SOL    HW217349   0.881   1.484   3.825 -1.6110  1.8584  1.6265
37407SOL     OW17350   3.875   6.769   0.854 -0.0050 -0.0840 -0.5259
37407SOL    HW117351   3.969   6.754   0.855 -0.2129 -1.4373  0.2218
37407SOL    HW217352   3.844   6.735   0.938 -0.9989  1.4787 -0.2200
37408SOL     OW17353   5.080   7.527   0.573 -0.2559 -0.0847  0.0986
37408SOL    HW117354   5.038   7.474   0.505 -0.7068  0.0082  0.3032
37408SOL    HW217355   5.163   7.483   0.590  0.3119  0.4428 -1.2266
37409SOL     OW17356   0.551   2.046  10.431  0.0092  0.5516  0.3606
37409SOL    HW117357   0.509   1.982  10.488  0.4827 -1.1205 -1.1049
37409SOL    HW217358   0.564   1.999  10.348  1.8163  2.0452 -0.2364
37410SOL     OW17359   2.156   7.677   8.280  0.0573 -0.0543 -0.3000
37410SOL    HW117360   2.109   7.616   8.335  1.1792 -0.6493  0.0209
37410SOL    HW217361   2.114   7.670   8.194 -0.9610  0.0538  0.1823
37411SOL     OW17362   0.728   6.597   3.105  0.1782 -0.7327 -0.9352
37411SOL    HW117363   0.693   6.594   3.016  0.2612 -0.3359 -0.9840
37411SOL    HW217364   0.666   6.547   3.157 -0.8153  0.5287 -0.8979
37412SOL     OW17365   3.985   6.253   8.819  0.0156 -1.0201  0.4324
37412SOL    HW117366   3.965   6.326   8.877  0.1883  0.1965 -1.0198
37412SOL    HW217367   3.970   6.287   8.731  0.4810 -2.6144 -0.2871
37413SOL     OW17368   0.673   3.550   8.299 -0.4869 -0.8463  0.2554
37413SOL    HW117369   0.656   3.540   8.206  1.7250 -0.2298 -0.2652
37413SOL    HW217370   0.623   3.628   8.325 -0.7653 -0.7652 -0.5334
37414SOL     OW17371   6.592   3.206   8.175 -0.2315 -0.0512 -0.4345
37414SOL    HW117372   6.556   3.293   8.156  1.8648  0.9489  0.0164
37414SOL    HW217373   6.670   3.223   8.227 -0.3000 -2.2700  0.4688
37415SOL     OW17374   0.642   6.510   6.291  0.6129 -0.2335  0.0417
37415SOL    HW117375   0.594   6.453   6.230 -0.3054 -0.3477  0.8588
37415SOL    HW217376   0.733   6.484   6.282  0.3670 -0.8645 -0.6339
37416SOL     OW17377   8.505   2.585   8.862  0.4079 -0.0221 -0.5287
37416SOL    HW117378   8.424   2.539   8.839  0.7256  0.2570 -2.2893
37416SOL    HW217379   8.562   2.573   8.786  3.0856 -2.5505  1.7824
37417SOL     OW17380   8.682   7.579  10.128 -0.0810  0.1001 -0.3084
37417SOL    HW117381   8.610   7.519  10.144 -0.3230  0.5940  0.5025
37417SOL    HW217382   8.689   7.584  10.032  0.0728 -1.3505 -0.3728
37418SOL     OW17383   6.089   7.134   1.748  0.2126  0.0191  0.3751
37418SOL    HW117384   6.111   7.117   1.657 -1.4763  1.6010 -0.3434
37418SOL    HW217385   6.035   7.060   1.774 -0.7997  0.4508 -0.4656
37419SOL     OW17386  11.127   5.143   5.214  0.2589  0.1163 -0.1436
37419SOL    HW117387  11.032   5.140   5.228  0.3324 -2.9798  0.0264
37419SOL    HW217388  11.138   5.110   5.124  1.2397 -0.6021  0.2374
37420SOL     OW17389   0.911   1.351   5.668  0.4784 -0.5727 -0.2052
37420SOL    HW117390   0.956   1.294   5.730  2.1477  2.5713  1.6546
37420SOL    HW217391   0.982   1.399   5.623 -0.8378  2.5673  0.8930
37421SOL     OW17392   2.086   8.914   1.944 -0.2411  0.4974 -0.6886
37421SOL    HW117393   2.012   8.936   1.999 -0.2584  0.1659 -0.5774
37421SOL    HW217394   2.062   8.830   1.904  0.9463 -0.6612  0.9531
37422SOL     OW17395   6.830   9.901   3.075  0.1738 -0.3873 -0.4482
37422SOL    HW117396   6.863   9.833   3.016  1.5273  0.4773 -0.6989
37422SOL    HW217397   6.822   9.857   3.160  2.1886 -0.5481 -0.3287
37423SOL     OW17398   7.533   5.845   1.041  0.0991  0.0499  0.5105
37423SOL    HW117399   7.461   5.903   1.065 -0.5533 -0.6659  0.3035
37423SOL    HW217400   7.559   5.873   0.953  0.7887  0.9998  1.0036
37424SOL     OW17401   2.500   3.353   0.989  0.0755  0.0028 -0.0204
37424SOL    HW117402   2.516   3.415   1.060  0.5450  0.7194 -0.7475
37424SOL    HW217403   2.510   3.267   1.030 -1.2012  0.3859  1.1287
37425SOL     OW17404   8.659   1.582   2.078  0.9888 -0.3092 -0.0193
37425SOL    HW117405   8.575   1.624   2.058  1.0709  1.2591  2.7355
37425SOL    HW217406   8.675   1.525   2.003 -1.0345  1.6791 -2.0541
37426SOL     OW17407   4.779   5.442   5.718  0.2415  0.5316 -0.1210
37426SOL    HW117408   4.810   5.529   5.745 -0.0898  0.3958  0.7041
37426SOL    HW217409   4.858   5.397   5.688  0.2252  1.5373 -1.7030
37427SOL     OW17410   7.465   8.570   7.448  0.1465 -0.2561 -0.2388
37427SOL    HW117411   7.509   8.505   7.393 -0.8026 -0.5618 -0.6654
37427SOL    HW217412   7.483   8.542   7.537  1.7547  0.2778 -0.3834
37428SOL     OW17413   9.032   1.157   6.369  0.2166  0.4633 -0.0506
37428SOL    HW117414   8.949   1.135   6.412 -0.1365 -0.3813 -1.1560
37428SOL    HW217415   9.025   1.251   6.351  0.7465  1.0455  2.5347
37429SOL     OW17416   0.230   9.398  11.069  0.8468  0.0083  0.6288
37429SOL    HW117417   0.182   9.449  11.004  1.4211 -0.9320 -0.5421
37429SOL    HW217418   0.161   9.365  11.128  0.3760  1.2443  0.7793
37430SOL     OW17419  10.189   1.330  10.087 -0.2936 -0.1445 -0.1345
37430SOL    HW117420  10.237   1.390  10.031 -2.0109 -1.0969 -2.7080
37430SOL    HW217421  10.256   1.291  10.144  1.4885  0.8366 -1.5116
37431SOL     OW17422   8.172   1.630   7.615  0.3669  0.6039 -0.3888
37431SOL    HW117423   8.078   1.643   7.602 -0.1882 -0.9871  1.8570
37431SOL    HW217424   8.200   1.580   7.538 -0.9522 -0.3844 -0.2463
37432SOL     OW17425   9.404   7.874   1.864 -0.5137  0.2090  0.4728
37432SOL    HW117426   9.410   7.927   1.944 -2.1501  0.2177  0.6048
37432SOL    HW217427   9.373   7.789   1.895  1.1647 -0.5459  0.1342
37433SOL     OW17428   0.592   5.580  10.024 -0.2957 -0.6600 -0.8510
37433SOL    HW117429   0.601   5.544  10.112 -0.4124  0.1285 -0.5175
37433SOL    HW217430   0.609   5.505   9.966 -0.4053 -1.2237 -0.1645
37434SOL     OW17431   0.153  11.276   2.664  0.6930  0.0766 -0.0532
37434SOL    HW117432   0.143  11.371   2.677  1.0518  0.3042 -1.3665
37434SOL    HW217433   0.063  11.244   2.656  0.5950  0.4699 -0.6074
37435SOL     OW17434   7.879   7.465   7.586 -0.1772 -0.5690 -0.4827
37435SOL    HW117435   7.830   7.525   7.641  1.2603 -0.4584  0.6954
37435SOL    HW217436   7.925   7.408   7.647  0.8167 -0.9617 -1.5821
37436SOL     OW17437   3.768   2.215   2.530 -0.1477  0.4690  0.4356
37436SOL    HW117438   3.768   2.130   2.574  2.6249  0.9677  1.5016
37436SOL    HW217439   3.821   2.271   2.587  0.0938  2.2584 -1.5016
37437SOL     OW17440   3.575   1.170   3.926  0.0791  0.3654 -0.3392
37437SOL    HW117441   3.496   1.147   3.975  0.9218  0.3560  1.0276
37437SOL    HW217442   3.555   1.143   3.836 -1.7372  1.0211 -0.1540
37438SOL     OW17443  10.106   1.786   3.019  0.0317 -0.2055 -0.3250
37438SOL    HW117444  10.066   1.870   2.998  0.2184  0.1699  0.8130
37438SOL    HW217445  10.047   1.721   2.981 -1.0710  0.3863  0.3753
37439SOL     OW17446   1.718   7.088   9.194  0.1458  0.1377  0.0945
37439SOL    HW117447   1.654   7.021   9.169  0.7347  0.0811 -1.3029
37439SOL    HW217448   1.684   7.169   9.154  0.3099  0.3532  0.3883
37440SOL     OW17449  10.081   3.648   5.996 -0.0941  0.4484 -0.2989
37440SOL    HW117450  10.024   3.721   6.019 -0.0249  0.1947  0.6757
37440SOL    HW217451  10.038   3.608   5.920 -1.1463  0.3621  0.3235
37441SOL     OW17452   2.128   3.899   9.750 -0.0660  0.2539 -0.2444
37441SOL    HW117453   2.044   3.905   9.703 -0.2837  1.1854  0.2364
37441SOL    HW217454   2.122   3.818   9.800 -0.2681 -0.2007 -1.0011
37442SOL     OW17455   4.139  11.333   7.036 -0.1179  0.0376  0.4578
37442SOL    HW117456   4.188  11.415   7.050 -0.3819 -0.0965  2.2743
37442SOL    HW217457   4.058  11.344   7.085 -0.6311 -0.9089 -0.1546
37443SOL     OW17458   1.645   2.382   0.022 -0.2804 -0.1043 -0.6310
37443SOL    HW117459   1.574   2.446   0.028  0.5470  0.9082 -1.3265
37443SOL    HW217460   1.673   2.385  -0.069  2.8515  1.9800  0.2937
37444SOL     OW17461   9.272  11.148   0.103  0.4415 -0.0691  0.8513
37444SOL    HW117462   9.327  11.110   0.171  0.7392 -0.0769  0.6072
37444SOL    HW217463   9.328  11.212   0.060  0.5317 -0.6804  0.0504
37445SOL     OW17464   6.948   4.887   7.945  0.6771  0.1175  0.1542
37445SOL    HW117465   6.952   4.982   7.935 -0.8397  0.2825  1.0126
37445SOL    HW217466   6.981   4.872   8.034 -0.3435 -0.0298  0.5174
37446SOL     OW17467   3.038   7.640   9.126 -0.2135 -0.3868 -0.0081
37446SOL    HW117468   3.051   7.614   9.217 -1.0527 -0.5743  0.0590
37446SOL    HW217469   3.069   7.731   9.122 -0.7963 -0.1523  0.6208
37447SOL     OW17470   5.949   9.092   5.052  0.8119  1.0680  0.0878
37447SOL    HW117471   5.997   9.087   5.135  0.1256 -2.0614  0.3666
37447SOL    HW217472   6.017   9.088   4.985  1.0969 -2.3194  0.4888
37448SOL     OW17473   3.841  10.520  11.149 -0.5994  0.0090 -0.6861
37448SOL    HW117474   3.749  10.510  11.175  0.0300  0.9026  2.0108
37448SOL    HW217475   3.843  10.599  11.095 -1.1886  0.8532  0.5052
37449SOL     OW17476   5.605  10.513  10.177 -0.3199  0.1669  0.3024
37449SOL    HW117477   5.635  10.426  10.152 -1.5114 -0.7173  1.8489
37449SOL    HW217478   5.535  10.533  10.117  0.3805  0.3296 -0.4656
37450SOL     OW17479   6.847   9.377   5.781  0.1408 -0.4160  0.0245
37450SOL    HW117480   6.826   9.285   5.761 -1.2542  0.0554 -0.7501
37450SOL    HW217481   6.940   9.376   5.803 -0.1742 -2.2495  1.4017
37451SOL     OW17482   4.277   5.575   0.217 -0.0790  0.4013 -0.0685
37451SOL    HW117483   4.270   5.614   0.130  0.4503 -0.3085 -0.4350
37451SOL    HW217484   4.240   5.641   0.276 -1.1158  0.5738 -0.9081
37452SOL     OW17485   5.457   1.724  11.012 -0.3756  0.4037  0.0237
37452SOL    HW117486   5.464   1.723  11.108  0.2067  1.7910  0.0079
37452SOL    HW217487   5.456   1.817  10.989 -4.4467  0.1804 -1.0808
37453SOL     OW17488   2.874   4.681   1.895 -0.2290  0.0157 -0.6941
37453SOL    HW117489   2.907   4.596   1.864  0.4527  0.6734 -1.8106
37453SOL    HW217490   2.950   4.739   1.893  0.1952 -0.2427  3.6497
37454SOL     OW17491   6.493   7.116   6.524 -0.4745  0.1728  0.0162
37454SOL    HW117492   6.495   7.203   6.484  2.3495  0.7460  1.2183
37454SOL    HW217493   6.524   7.057   6.455 -0.0425  0.5001 -0.0764
37455SOL     OW17494  10.174   5.534   8.921  0.1327  0.1836 -0.6997
37455SOL    HW117495  10.142   5.458   8.874  1.4583  0.7785 -2.6320
37455SOL    HW217496  10.111   5.603   8.901 -0.1719  0.0151 -0.3075
37456SOL     OW17497   5.302   7.999  10.997 -0.6227 -0.3871  0.5120
37456SOL    HW117498   5.307   7.903  11.005 -0.6328 -0.3566  0.9077
37456SOL    HW217499   5.383   8.030  11.038  0.6156 -0.3355 -1.8647
37457SOL     OW17500   8.825   7.541   3.332 -0.3147 -0.2215 -1.0228
37457SOL    HW117501   8.860   7.514   3.247  1.8341 -1.4267  0.1601
37457SOL    HW217502   8.881   7.495   3.396  0.0420  2.9687  1.0649
37458SOL     OW17503   4.155   9.680   1.084  0.5837 -0.0781  0.3926
37458SOL    HW117504   4.096   9.754   1.097  0.8819  0.2278  0.0244
37458SOL    HW217505   4.180   9.653   1.173 -1.0743 -0.9948  0.5866
37459SOL     OW17506   5.375   4.284   1.744  0.5394  0.6215  0.0089
37459SOL    HW117507   5.323   4.362   1.764  3.4955  2.4115  1.1840
37459SOL    HW217508   5.425   4.308   1.666  1.3761 -0.1016  0.3075
37460SOL     OW17509   9.821   6.408   2.127  0.2587 -0.2285 -0.0392
37460SOL    HW117510   9.746   6.467   2.125 -0.0936 -0.6603  0.2574
37460SOL    HW217511   9.791   6.330   2.081  0.4382 -0.4965  0.2945
37461SOL     OW17512   6.076  10.821   3.959 -0.2441 -0.4628  0.0959
37461SOL    HW117513   6.025  10.797   3.882 -2.4415 -0.8062  1.5939
37461SOL    HW217514   6.057  10.914   3.973  2.5918  0.4078 -1.5347
37462SOL     OW17515   1.724   0.687   4.117 -0.5134 -0.9065 -0.0574
37462SOL    HW117516   1.747   0.763   4.063  1.5468 -0.3473  1.5261
37462SOL    HW217517   1.636   0.663   4.088 -0.2989  0.6712 -2.1768
37463SOL     OW17518   6.864   7.816   9.448 -0.0221  0.1124  0.3114
37463SOL    HW117519   6.898   7.744   9.501  1.8600  1.0846  0.4853
37463SOL    HW217520   6.806   7.774   9.385  0.5682 -1.4928  0.7971
37464SOL     OW17521   4.968   2.651   3.249 -0.0314  0.1624  0.6118
37464SOL    HW117522   5.033   2.720   3.232  0.0549  0.6596  2.8633
37464SOL    HW217523   4.884   2.692   3.225  0.3490 -0.1828 -1.4507
37465SOL     OW17524   6.986   4.833   9.209 -0.2551 -0.0884 -0.6257
37465SOL    HW117525   6.925   4.843   9.135 -0.5415  0.3298 -0.3363
37465SOL    HW217526   7.035   4.753   9.189  1.2166  1.2098 -2.3787
37466SOL     OW17527   0.178   4.140   0.154 -0.1551  0.5101  0.4355
37466SOL    HW117528   0.232   4.216   0.133 -0.0399  0.2912 -0.0644
37466SOL    HW217529   0.117   4.133   0.080  1.6251 -1.5307 -0.9025
37467SOL     OW17530   1.243   0.379   1.003 -0.3612 -0.3756 -0.0622
37467SOL    HW117531   1.162   0.363   0.954 -0.6124 -0.1546  0.2779
37467SOL    HW217532   1.273   0.292   1.030 -1.0687 -0.3776  0.7420
37468SOL     OW17533  11.033   2.000   2.528  0.0963  0.2881 -0.3134
37468SOL    HW117534  11.017   2.084   2.570  1.5693 -0.8751  2.6985
37468SOL    HW217535  11.128   1.993   2.523 -0.0269 -0.3019 -2.4996
37469SOL     OW17536   8.638   1.378  10.054  0.5009  0.5088  0.3736
37469SOL    HW117537   8.652   1.314   9.985  0.5194  0.2477  0.6185
37469SOL    HW217538   8.726   1.395  10.089  0.4599  0.4399  0.5109
37470SOL     OW17539  10.146   2.295   7.659  0.1727  0.6622 -0.2256
37470SOL    HW117540  10.090   2.318   7.585 -2.3559 -0.9859  1.0854
37470SOL    HW217541  10.200   2.222   7.628  1.6277  2.2552 -1.4986
37471SOL     OW17542   2.089  10.911   2.226 -0.6147 -0.1422 -0.2731
37471SOL    HW117543   2.128  10.852   2.161  0.7716  0.4240  0.0226
37471SOL    HW217544   2.076  10.994   2.179 -0.8337 -0.1271 -0.1878
37472SOL     OW17545   5.154   4.899   7.448  0.0845 -0.0560  0.0671
37472SOL    HW117546   5.100   4.943   7.383 -0.1253 -0.1082  0.2020
37472SOL    HW217547   5.091   4.847   7.499  0.2324  0.0736  0.3799
37473SOL     OW17548   2.055   8.685  10.543 -0.3351 -0.3952  0.8672
37473SOL    HW117549   2.053   8.709  10.636  1.5610 -0.0925  0.8507
37473SOL    HW217550   2.141   8.713  10.513 -0.1951 -2.2039 -0.5258
37474SOL     OW17551   6.888   0.099   0.480  0.0240 -0.3690 -0.1832
37474SOL    HW117552   6.819   0.117   0.416 -0.8454  1.7921  1.2960
37474SOL    HW217553   6.873   0.008   0.506 -1.3092 -0.4023 -1.0377
37475SOL     OW17554   9.750   3.073   6.416  0.4789  0.2725  0.6508
37475SOL    HW117555   9.699   3.030   6.347  1.0152 -0.3860  0.6687
37475SOL    HW217556   9.778   3.156   6.377  0.3092  0.1554  0.2770
37476SOL     OW17557  10.010   3.165   5.153  0.3654 -0.2939  0.5066
37476SOL    HW117558   9.916   3.178   5.141  0.2933  2.2534  3.2107
37476SOL    HW217559  10.050   3.199   5.073 -0.9682 -0.9382 -0.4477
37477SOL     OW17560   3.848  11.086   9.905 -0.5032 -0.2862 -0.4211
37477SOL    HW117561   3.868  11.047   9.990 -1.8999  1.0301  0.5442
37477SOL    HW217562   3.756  11.064   9.890  0.2221 -2.1688 -2.5428
37478SOL     OW17563  10.132   4.554   6.949 -0.3007 -0.3637 -0.0926
37478SOL    HW117564  10.195   4.490   6.982  3.3687  1.8484 -2.4624
37478SOL    HW217565  10.098   4.515   6.869  0.5012 -0.1643 -0.5315
37479SOL     OW17566   6.738   9.949   8.107  0.0344  0.0624 -0.1243
37479SOL    HW117567   6.760   9.987   8.022 -1.9159  0.4405 -0.4845
37479SOL    HW217568   6.647   9.921   8.098  0.8194 -3.0136  0.7405
37480SOL     OW17569   3.120   4.123   9.057 -0.6820 -0.2793  0.4759
37480SOL    HW117570   3.207   4.083   9.066  0.4356  1.8645 -0.5161
37480SOL    HW217571   3.080   4.113   9.144  0.3554 -1.6971  0.8154
37481SOL     OW17572   7.851   6.046   1.393  0.2739 -0.4648  0.1300
37481SOL    HW117573   7.860   6.079   1.483  0.4751  0.2707 -0.1556
37481SOL    HW217574   7.880   5.955   1.398  0.8804 -0.2443  0.6895
37482SOL     OW17575  10.667   6.318   1.836  0.1307  0.2912 -0.0221
37482SOL    HW117576  10.657   6.413   1.827  0.9318  0.3217 -0.6147
37482SOL    HW217577  10.594   6.291   1.891  0.3800  1.3685  0.8384
37483SOL     OW17578   3.776   0.076   0.395  0.3886 -0.4086 -0.0054
37483SOL    HW117579   3.818   0.141   0.452  0.4404 -0.1828 -0.3018
37483SOL    HW217580   3.693   0.057   0.437  0.3728 -0.1487  0.0806
37484SOL     OW17581  11.048   2.308   9.230 -0.4205 -0.3483 -0.0736
37484SOL    HW117582  10.971   2.317   9.286 -0.5766  2.1287 -0.6456
37484SOL    HW217583  11.115   2.271   9.288 -1.4689 -0.6882  0.9344
37485SOL     OW17584   3.548   2.562   5.247  0.1667 -0.2047  0.2466
37485SOL    HW117585   3.554   2.583   5.340 -0.7765 -2.7427  0.9177
37485SOL    HW217586   3.588   2.476   5.239 -0.9960 -0.6173 -1.4592
37486SOL     OW17587   9.167   1.439   0.948 -0.0357 -0.2402  0.3273
37486SOL    HW117588   9.127   1.395   0.873  0.4794 -0.6068  0.2634
37486SOL    HW217589   9.260   1.445   0.925 -0.0267  0.4589  0.5440
37487SOL     OW17590  10.115   7.072   9.777 -0.1399  0.3162 -0.0406
37487SOL    HW117591  10.020   7.069   9.774 -0.1333 -0.0929  0.1044
37487SOL    HW217592  10.143   6.992   9.732  0.1452  0.6847 -0.5317
37488SOL     OW17593   3.582   5.436   5.356 -0.5766  0.4376 -0.2513
37488SOL    HW117594   3.618   5.488   5.428 -1.0579  0.2025  0.1640
37488SOL    HW217595   3.644   5.363   5.346 -2.1863 -1.3657  2.1335
37489SOL     OW17596  10.804   0.666   2.877 -0.0552 -0.6927 -0.5358
37489SOL    HW117597  10.868   0.736   2.867 -0.7723 -0.0855 -0.9363
37489SOL    HW217598  10.776   0.646   2.788  0.6458 -1.9648 -0.4789
37490SOL     OW17599   8.348   1.671   0.934 -0.1254  0.8831 -1.3135
37490SOL    HW117600   8.264   1.708   0.964  0.3957  0.9285  0.1502
37490SOL    HW217601   8.412   1.741   0.951  0.5988 -0.0591 -0.0889
37491SOL     OW17602   5.593   4.659   3.211 -0.0289 -0.4741 -0.2319
37491SOL    HW117603   5.596   4.742   3.258  2.7783 -0.4594 -0.3261
37491SOL    HW217604   5.572   4.594   3.278  0.7869 -0.0535  0.4396
37492SOL     OW17605   3.545   2.723   8.140  0.3501  0.0705  0.5097
37492SOL    HW117606   3.593   2.641   8.148  0.7786  0.2650 -0.0639
37492SOL    HW217607   3.464   2.708   8.189  0.3647 -0.7364  0.2907
37493SOL     OW17608   0.078   8.803   9.271  0.1627  0.5531  0.1455
37493SOL    HW117609   0.127   8.838   9.346 -0.1730 -1.7154  1.4933
37493SOL    HW217610  -0.011   8.791   9.305 -0.1162  0.0013 -0.7713
37494SOL     OW17611   2.869   2.791   3.748  0.0662  0.2624  0.3458
37494SOL    HW117612   2.781   2.753   3.743 -0.6656  1.9350  0.1461
37494SOL    HW217613   2.879   2.818   3.839  1.2020 -1.7902  0.8634
37495SOL     OW17614   9.112   5.056  10.471 -0.3911  0.3791  0.2538
37495SOL    HW117615   9.089   5.072  10.380  0.0084  0.7472  0.2164
37495SOL    HW217616   9.029   5.036  10.515 -0.8697  2.3892  0.2782
37496SOL     OW17617   9.872   2.487  10.947 -0.2725  0.0134 -0.4291
37496SOL    HW117618   9.952   2.507  10.995 -0.4071  1.0358 -0.6095
37496SOL    HW217619   9.875   2.546  10.871 -1.9426  1.2069  0.3924
37497SOL     OW17620   1.208   4.593   5.098  0.4112 -0.4094  0.3342
37497SOL    HW117621   1.249   4.560   5.018  0.8914  1.9178 -0.4039
37497SOL    HW217622   1.119   4.558   5.096  0.1711  0.3062 -1.6245
37498SOL     OW17623   3.020   3.189   3.550  0.3732 -0.2844 -0.0820
37498SOL    HW117624   3.016   3.221   3.460  1.8390 -0.5560 -0.2524
37498SOL    HW217625   2.983   3.261   3.602 -1.2371 -0.4620 -0.9670
37499SOL     OW17626   7.439   9.897   6.992  0.1311  0.6891 -0.1913
37499SOL    HW117627   7.466   9.949   6.917  1.2297  0.6249  0.1506
37499SOL    HW217628   7.350   9.927   7.012  0.3197  1.6031 -0.7158
37500SOL     OW17629   8.838   6.600   9.837 -0.5931 -0.4850 -0.0185
37500SOL    HW117630   8.914   6.621   9.782 -0.6161 -2.5946 -0.8953
37500SOL    HW217631   8.764   6.599   9.777 -1.0810  0.0164  0.5643
37501SOL     OW17632   6.575   4.825   6.751  0.1669 -0.5083 -0.2239
37501SOL    HW117633   6.489   4.793   6.777  0.1702 -0.6764 -0.4239
37501SOL    HW217634   6.636   4.756   6.778  0.4064  0.2586  1.2688
37502SOL     OW17635   6.159   8.720   2.270 -0.3437  0.0881 -0.1078
37502SOL    HW117636   6.191   8.753   2.353 -2.1605  0.6375  0.3827
37502SOL    HW217637   6.201   8.775   2.204 -0.3273  0.8374  0.5277
37503SOL     OW17638   9.458   4.632   1.256 -0.4378  0.2716  0.0225
37503SOL    HW117639   9.405   4.706   1.225 -1.6162 -1.4031 -2.0756
37503SOL    HW217640   9.548   4.660   1.243 -0.8740  1.1533 -1.2044
37504SOL     OW17641  11.137   3.713  10.492 -0.6814 -0.2161 -0.1694
37504SOL    HW117642  11.106   3.654  10.423  3.1474 -0.1737 -2.0378
37504SOL    HW217643  11.207   3.664  10.536 -1.4148  0.7170  2.1270
37505SOL     OW17644   7.947   7.409   5.541 -0.6018  0.0279  0.0439
37505SOL    HW117645   7.959   7.487   5.486  0.9166 -1.3268 -1.6356
37505SOL    HW217646   8.029   7.403   5.592 -1.5808  0.6979  1.7255
37506SOL     OW17647   7.864   6.084   8.285  0.0131 -0.4958 -0.4059
37506SOL    HW117648   7.843   6.160   8.339  0.7238 -1.3852  1.1671
37506SOL    HW217649   7.824   6.010   8.331  0.6148 -1.2604 -1.0942
37507SOL     OW17650   7.317  10.981  10.521  0.1081  0.5876 -0.7029
37507SOL    HW117651   7.339  10.973  10.428 -2.9109  1.4160 -1.5502
37507SOL    HW217652   7.223  10.966  10.525  0.5427 -1.9616  2.5946
37508SOL     OW17653   0.388   5.211  11.280  0.4138 -0.1255 -0.3951
37508SOL    HW117654   0.432   5.128  11.263 -0.0410 -0.3668 -0.3834
37508SOL    HW217655   0.360   5.206  11.371  0.4760  0.0845 -0.3630
37509SOL     OW17656   3.017   1.251   5.371 -0.3784 -0.2469 -0.0508
37509SOL    HW117657   3.027   1.266   5.277 -0.8854 -0.5289 -0.1510
37509SOL    HW217658   3.020   1.156   5.381  0.2050 -0.1932  0.2794
37510SOL     OW17659   0.211   7.945   2.937 -0.5218 -0.4988 -0.7048
37510SOL    HW117660   0.165   7.882   2.992  0.8693 -1.5427 -0.7017
37510SOL    HW217661   0.223   7.899   2.853 -1.3769  0.5495 -1.4071
37511SOL     OW17662  11.182   9.140   3.309 -0.2778 -0.2683  0.3757
37511SOL    HW117663  11.255   9.168   3.364 -1.1925  0.7151  1.1080
37511SOL    HW217664  11.200   9.177   3.223 -1.3764  2.4976  1.2757
37512SOL     OW17665   4.255   7.059   2.796 -0.3075 -0.2235 -0.4828
37512SOL    HW117666   4.265   7.154   2.791 -1.1983 -0.1639 -1.4305
37512SOL    HW217667   4.180   7.040   2.738 -0.1537 -1.4896 -0.2797
37513SOL     OW17668   1.874  10.915   7.716  0.0280 -0.2159 -0.2513
37513SOL    HW117669   1.963  10.879   7.718 -0.4027 -1.3940 -1.8457
37513SOL    HW217670   1.883  10.997   7.666  0.0357 -0.8899 -1.3740
37514SOL     OW17671  10.237   6.800   6.124  0.2080  0.2038 -0.2735
37514SOL    HW117672  10.237   6.860   6.199  0.8706 -0.6491  0.4169
37514SOL    HW217673  10.271   6.718   6.159  0.1968 -0.3037 -1.4345
37515SOL     OW17674   9.726  10.566   3.552 -0.1482 -0.3538  0.5951
37515SOL    HW117675   9.737  10.509   3.476  1.8475 -0.0280  0.6108
37515SOL    HW217676   9.717  10.654   3.515  2.7296  0.0552  0.7612
37516SOL     OW17677   3.891   5.092   6.054  0.0258  0.0199 -0.5737
37516SOL    HW117678   3.862   5.103   5.964  0.7169 -1.0620 -0.9451
37516SOL    HW217679   3.873   5.176   6.096  0.7461  0.9113 -2.0088
37517SOL     OW17680   9.120   0.559   2.793 -0.1594 -0.1842  0.5779
37517SOL    HW117681   9.078   0.629   2.745  0.5787  2.2715  3.3536
37517SOL    HW217682   9.049   0.513   2.837 -0.5044 -0.0879  0.1142
37518SOL     OW17683  10.720   7.168   9.414 -0.1444  0.6669  0.4771
37518SOL    HW117684  10.789   7.210   9.363  1.0632  1.2792  2.5415
37518SOL    HW217685  10.744   7.183   9.505 -2.8850  0.6770  1.2689
37519SOL     OW17686   1.038   3.736   5.455 -0.5297  0.4321  0.1710
37519SOL    HW117687   1.111   3.740   5.393  0.4344  1.7778  1.3558
37519SOL    HW217688   1.080   3.739   5.541 -1.9884  1.4557  0.8654
37520SOL     OW17689   4.540  10.267   5.314 -0.0726  0.0488  0.4543
37520SOL    HW117690   4.502  10.282   5.227  0.0773  0.2293  0.4191
37520SOL    HW217691   4.625  10.228   5.297  0.3946  1.0280  0.4844
37521SOL     OW17692   8.023   7.367   3.939 -0.4815 -0.1664 -0.1026
37521SOL    HW117693   8.031   7.445   3.995 -2.1583 -0.4068  0.5022
37521SOL    HW217694   8.099   7.371   3.882 -0.7664  2.1794 -0.3711
37522SOL     OW17695   3.597  11.129   5.865  0.9266 -0.3494 -0.0693
37522SOL    HW117696   3.631  11.207   5.821  0.5793  0.0806  0.4188
37522SOL    HW217697   3.571  11.070   5.793 -2.3257  1.5162 -0.5145
37523SOL     OW17698  10.124   4.446   2.431  0.1098 -0.4300 -0.6148
37523SOL    HW117699  10.179   4.429   2.354 -0.8275 -0.5236 -1.2811
37523SOL    HW217700  10.168   4.400   2.503  1.9349  1.1110 -0.7115
37524SOL     OW17701   2.515   1.398   6.126 -0.0314  0.0059  0.1374
37524SOL    HW117702   2.604   1.367   6.108  0.8661  2.6272 -0.1313
37524SOL    HW217703   2.527   1.489   6.153 -2.6778  0.4380 -0.0992
37525SOL     OW17704   8.929   2.064  10.230 -0.5339  0.4813  0.5433
37525SOL    HW117705   8.862   2.104  10.286 -1.8552 -0.0598 -0.6338
37525SOL    HW217706   8.883   2.043  10.149  0.8989 -0.5443 -0.0161
37526SOL     OW17707   7.294   1.756  11.202  0.2501  0.0225  0.2213
37526SOL    HW117708   7.284   1.767  11.297 -0.4061 -1.4897  0.3273
37526SOL    HW217709   7.372   1.701  11.193  0.2743  0.1141 -0.1300
37527SOL     OW17710   7.111   4.871   0.420  0.3055  0.1813  0.7900
37527SOL    HW117711   7.042   4.925   0.458 -0.9265  0.7601 -2.1435
37527SOL    HW217712   7.177   4.934   0.390  1.5627 -0.2981  2.5064
37528SOL     OW17713   3.012   1.982   3.297 -0.3322 -0.4453 -0.0704
37528SOL    HW117714   3.048   2.070   3.290 -0.9164 -0.3784 -2.5682
37528SOL    HW217715   3.065   1.940   3.364  1.6714  0.9627 -0.7244
37529SOL     OW17716   3.664   7.954   1.584 -0.3335  0.1958 -0.1210
37529SOL    HW117717   3.603   7.995   1.523 -2.5651 -2.1141  0.4866
37529SOL    HW217718   3.678   8.020   1.652 -1.9791  0.8482 -0.3879
37530SOL     OW17719   9.478   0.206   6.180  0.0797  0.5862 -0.4364
37530SOL    HW117720   9.542   0.150   6.135  0.0907 -0.5354  0.9433
37530SOL    HW217721   9.399   0.200   6.126  0.5347  0.4379 -1.0987
37531SOL     OW17722   1.416   0.277   4.879  0.3135 -0.5299  0.2713
37531SOL    HW117723   1.342   0.323   4.920 -0.5947  0.4822 -2.3987
37531SOL    HW217724   1.375   0.211   4.823  1.4451 -0.6118 -0.4772
37532SOL     OW17725   4.301   9.621   3.529  0.3023  0.0436 -0.4176
37532SOL    HW117726   4.323   9.635   3.437 -2.3497 -2.5461 -1.4938
37532SOL    HW217727   4.228   9.681   3.545 -1.2023 -1.6494 -0.8577
37533SOL     OW17728   1.076  11.294   3.899 -0.0179  0.2448  0.7357
37533SOL    HW117729   1.162  11.261   3.872  0.3583  2.6595 -1.1779
37533SOL    HW217730   1.089  11.327   3.987  0.9566  0.3648  0.5495
37534SOL     OW17731   6.148  11.299  10.825 -0.4509 -0.3968  0.3423
37534SOL    HW117732   6.239  11.303  10.855 -0.3094 -0.9784  0.0094
37534SOL    HW217733   6.106  11.376  10.863 -0.0310 -0.5933  1.2130
37535SOL     OW17734   8.021   3.516   6.563  0.1118 -0.7487  0.5541
37535SOL    HW117735   7.995   3.478   6.647  0.8387  0.4864  1.3589
37535SOL    HW217736   8.014   3.610   6.576 -0.8310 -0.5614 -1.1414
37536SOL     OW17737  10.558   7.772   6.978  0.0609  0.0469  0.0488
37536SOL    HW117738  10.573   7.861   7.009 -1.2886  0.6541 -0.9896
37536SOL    HW217739  10.482   7.741   7.028  1.1077 -0.8760  1.0868
37537SOL     OW17740   0.262   4.405  10.250 -0.2349 -0.4191 -0.0319
37537SOL    HW117741   0.341   4.444  10.212  0.0613 -0.2104  0.8025
37537SOL    HW217742   0.289   4.373  10.336 -1.2163  0.2299  0.5248
37538SOL     OW17743   2.118  10.360   1.249  0.1191 -0.0222  0.1328
37538SOL    HW117744   2.154  10.281   1.289 -2.2181 -0.6156  1.2102
37538SOL    HW217745   2.073  10.404   1.321 -0.8596  0.9027 -1.0171
37539SOL     OW17746   8.363   7.369   8.816  0.0322 -0.9779 -0.4701
37539SOL    HW117747   8.360   7.339   8.726  0.7129 -1.6232 -0.2797
37539SOL    HW217748   8.312   7.450   8.816 -1.5894 -1.9788 -1.0372
37540SOL     OW17749   5.921   4.953   8.371 -0.7391 -0.1544 -0.0342
37540SOL    HW117750   5.850   4.977   8.430 -1.2038  3.1085 -1.8111
37540SOL    HW217751   5.992   5.015   8.391 -0.5500  0.3663 -2.1787
37541SOL     OW17752   3.508   3.330  11.309  0.8119  0.2346  0.1280
37541SOL    HW117753   3.490   3.347  11.402 -2.1208  2.1977 -0.7081
37541SOL    HW217754   3.471   3.243  11.293 -0.8023  0.8746  0.2984
37542SOL     OW17755  11.323   1.481   6.815 -0.0580 -0.2244 -0.1162
37542SOL    HW117756  11.280   1.542   6.875  1.9560 -0.0210  1.1496
37542SOL    HW217757  11.373   1.537   6.756  1.6042 -0.6107  0.8941
37543SOL     OW17758   9.230   9.890   5.739  0.0125 -0.1287  0.0716
37543SOL    HW117759   9.242   9.924   5.651 -2.3495 -2.0097 -1.0500
37543SOL    HW217760   9.220   9.795   5.727 -1.1339 -0.3231  2.2567
37544SOL     OW17761   8.278   2.518  10.948 -0.3932 -0.3923  0.2922
37544SOL    HW117762   8.320   2.568  10.878 -0.2461  0.1744  0.7869
37544SOL    HW217763   8.332   2.440  10.958 -0.5853 -0.6175 -0.4329
37545SOL     OW17764   9.286   6.244   5.653  0.4144 -0.3558 -0.1911
37545SOL    HW117765   9.357   6.288   5.699 -0.1727  0.2641  0.1164
37545SOL    HW217766   9.326   6.164   5.618  1.2786  0.0283 -0.0800
37546SOL     OW17767   8.210   9.509   1.604 -0.4594  0.2039 -0.1430
37546SOL    HW117768   8.261   9.583   1.635 -0.5470  0.2307 -0.0608
37546SOL    HW217769   8.243   9.434   1.653 -1.2182  0.4004  0.6740
37547SOL     OW17770   7.885   4.744   0.180  0.2292  0.3995 -0.8673
37547SOL    HW117771   7.841   4.757   0.096 -2.1269 -0.3665  0.2176
37547SOL    HW217772   7.836   4.798   0.242  0.2004 -1.2402  0.5665
37548SOL     OW17773   5.251   5.481   9.747 -0.3226  0.3876  0.3797
37548SOL    HW117774   5.229   5.569   9.715  1.7889  1.4084  1.6416
37548SOL    HW217775   5.317   5.496   9.814  2.2424 -2.3466 -1.4301
37549SOL     OW17776   1.317  10.242   2.978  0.3336  0.7603 -0.5773
37549SOL    HW117777   1.222  10.253   2.985  0.4998  1.8740  0.0694
37549SOL    HW217778   1.339  10.173   3.040  0.1051  1.3996  0.2211
37550SOL     OW17779   1.489   0.218   2.793 -0.2487  0.0529  0.0329
37550SOL    HW117780   1.480   0.160   2.717 -1.7948 -0.4540  0.5821
37550SOL    HW217781   1.544   0.170   2.853 -0.6468 -0.4046  0.0396
37551SOL     OW17782   8.028   2.538   4.515 -0.4937  0.4141 -0.3267
37551SOL    HW117783   8.117   2.531   4.480 -0.9153 -0.9836 -1.1682
37551SOL    HW217784   8.024   2.471   4.583 -0.3818  1.6305  0.9096
37552SOL     OW17785   4.333   2.472   9.336 -0.1551 -0.2123 -0.2009
37552SOL    HW117786   4.281   2.498   9.412  1.1814  0.1876  0.5967
37552SOL    HW217787   4.317   2.540   9.271  0.0637  0.3690  0.3551
37553SOL     OW17788   6.892  11.189   0.627  0.0698  0.3359 -0.2378
37553SOL    HW117789   6.898  11.099   0.593  0.0718  0.4394 -0.5127
37553SOL    HW217790   6.871  11.178   0.720  0.3801  0.0454 -0.2020
37554SOL     OW17791   3.745  10.524   0.594 -0.3071  0.0198  0.0327
37554SOL    HW117792   3.757  10.619   0.600  0.3254 -0.1009  0.7639
37554SOL    HW217793   3.818  10.487   0.644 -1.7383 -0.8129  1.5547
37555SOL     OW17794   3.452   4.610  11.206  0.1068  0.3593 -0.2803
37555SOL    HW117795   3.515   4.645  11.269  0.2722  1.2393 -0.9367
37555SOL    HW217796   3.504   4.557  11.146 -0.1305 -0.9765  0.6548
37556SOL     OW17797  10.566   9.575   8.282 -0.3086  0.1448 -0.0221
37556SOL    HW117798  10.598   9.630   8.210 -0.1632 -1.9468 -1.5988
37556SOL    HW217799  10.641   9.520   8.305 -1.0067 -0.7016  0.2472
37557SOL     OW17800   6.450   2.719   7.079  0.3789 -0.1465  0.5582
37557SOL    HW117801   6.472   2.699   6.988 -2.1767 -0.5945  0.0022
37557SOL    HW217802   6.511   2.666   7.130  1.5073 -0.2697 -0.8681
37558SOL     OW17803   6.634   7.533   3.188 -0.1037  0.5038  0.5507
37558SOL    HW117804   6.568   7.594   3.222  0.4347  1.0769  0.5534
37558SOL    HW217805   6.650   7.472   3.261 -1.9952 -0.7809 -0.0491
37559SOL     OW17806   4.918   6.727   9.778 -0.5287  0.2028 -0.0328
37559SOL    HW117807   4.929   6.820   9.799  0.3556  0.5287 -1.8601
37559SOL    HW217808   4.904   6.685   9.863 -0.3692  1.9260  0.8682
37560SOL     OW17809   6.605   7.813   4.086  0.3567 -0.3493 -0.5927
37560SOL    HW117810   6.685   7.851   4.124  0.1706 -1.2638  0.7466
37560SOL    HW217811   6.570   7.882   4.030  0.0288  1.4957  1.7931
37561SOL     OW17812  10.108   5.915   4.782 -0.3389 -0.1012  0.3732
37561SOL    HW117813  10.117   6.008   4.764 -0.0007 -0.0578  0.7589
37561SOL    HW217814  10.017   5.905   4.812  0.4324  0.5748  3.0545
37562SOL     OW17815   6.762   8.051  10.800 -0.2501  0.2221  0.1863
37562SOL    HW117816   6.696   8.043  10.869  0.2950  0.9712  0.7906
37562SOL    HW217817   6.824   8.116  10.833  0.3291  0.1487 -0.7543
37563SOL     OW17818   7.211   8.586  10.449  0.8510  0.3777 -0.1983
37563SOL    HW117819   7.270   8.524  10.405 -0.4566 -0.9056 -0.2036
37563SOL    HW217820   7.161   8.532  10.510 -0.7679  1.3117 -0.6614
37564SOL     OW17821   1.987   2.343   7.652  0.6779  0.0873 -0.0611
37564SOL    HW117822   1.920   2.381   7.709  0.3664 -0.8954  0.2503
37564SOL    HW217823   1.945   2.265   7.615  1.4755 -0.2568 -0.2567
37565SOL     OW17824   4.996   9.637   8.751  0.2677 -0.0806 -0.0694
37565SOL    HW117825   5.062   9.664   8.687 -2.0228  2.6572 -1.3892
37565SOL    HW217826   4.947   9.717   8.770 -2.0949 -1.8469  1.5798
37566SOL     OW17827   0.989  11.266   1.821 -0.1293  0.1133 -0.3551
37566SOL    HW117828   0.938  11.244   1.899  0.4606 -0.4326 -0.1258
37566SOL    HW217829   0.953  11.210   1.753  0.9125 -1.0770  0.0689
37567SOL     OW17830   7.237   0.175   2.277  0.6018  0.1648  0.3988
37567SOL    HW117831   7.226   0.166   2.182 -1.7443 -0.3901  0.6869
37567SOL    HW217832   7.279   0.260   2.288  1.0602  0.1575 -1.1508
37568SOL     OW17833   3.202   9.004  10.865 -0.1501 -0.7334 -0.0328
37568SOL    HW117834   3.219   8.929  10.922  0.1054 -0.0761  0.7584
37568SOL    HW217835   3.277   9.062  10.877 -0.1553 -0.5210 -0.9385
37569SOL     OW17836   6.628  10.584  11.076  0.5819 -0.1188  0.4971
37569SOL    HW117837   6.606  10.517  11.011 -1.8919  1.1834 -0.0643
37569SOL    HW217838   6.680  10.648  11.028  0.4952 -0.1908  0.3092
37570SOL     OW17839  10.045  10.393   1.373 -0.2277 -0.6621  0.7253
37570SOL    HW117840  10.121  10.419   1.424  1.0392 -1.5417 -0.6537
37570SOL    HW217841  10.076  10.319   1.320 -2.2489 -1.4981  0.6868
37571SOL     OW17842   1.101   9.979   0.426  0.2845  0.5953 -0.1817
37571SOL    HW117843   1.080  10.053   0.369  0.5483 -0.2644 -1.4383
37571SOL    HW217844   1.191   9.956   0.402  0.2095 -0.1078  0.1978
37572SOL     OW17845   3.208   3.048   1.364 -0.0188  0.0201  0.4834
37572SOL    HW117846   3.255   3.091   1.435 -0.1347  1.8964 -0.5632
37572SOL    HW217847   3.144   2.991   1.408  2.0734 -1.3104  1.9011
37573SOL     OW17848   5.736   6.265   3.443  0.1460  0.1086  0.0753
37573SOL    HW117849   5.702   6.223   3.364 -2.4928  0.9137  0.7410
37573SOL    HW217850   5.744   6.194   3.507  2.0368 -0.4955 -0.8108
37574SOL     OW17851   6.226   6.269  10.100 -0.0768 -0.3330  0.3715
37574SOL    HW117852   6.204   6.326  10.026  0.8172  0.1163  0.4403
37574SOL    HW217853   6.184   6.185  10.080  2.0839 -0.9535 -1.8248
37575SOL     OW17854   6.476   5.521   9.271 -0.2171 -0.0787 -0.2869
37575SOL    HW117855   6.517   5.578   9.336  1.1021  0.0777 -1.2225
37575SOL    HW217856   6.404   5.479   9.317 -0.2770  1.2212  0.8304
37576SOL     OW17857  11.131   6.722   4.674 -0.0065 -0.3947  0.0142
37576SOL    HW117858  11.177   6.766   4.603  0.7728 -1.6106 -0.2395
37576SOL    HW217859  11.156   6.771   4.753  0.9205 -0.4251 -0.2559
37577SOL     OW17860  11.176  10.079   3.115  0.5134 -0.0432  0.3617
37577SOL    HW117861  11.140  10.028   3.188  1.3188 -2.8026 -1.0661
37577SOL    HW217862  11.270  10.061   3.117  0.6286  0.3167 -0.9863
37578SOL     OW17863   8.360   8.741   0.894 -0.4701 -0.4322 -0.0680
37578SOL    HW117864   8.423   8.800   0.852 -0.9721  0.1384 -0.0312
37578SOL    HW217865   8.292   8.728   0.828 -0.8124 -0.2464  0.2419
37579SOL     OW17866   2.819   0.924  10.214 -0.2945  0.1182 -0.1226
37579SOL    HW117867   2.799   0.965  10.299 -0.9904 -1.3945  0.4749
37579SOL    HW217868   2.734   0.891  10.184  0.6972 -3.5502  0.8827
37580SOL     OW17869   9.712   3.101   3.832 -0.1809  0.2782  0.3791
37580SOL    HW117870   9.633   3.066   3.873 -1.0574  0.7810 -0.8638
37580SOL    HW217871   9.721   3.189   3.866 -0.8457  0.6544 -0.4107
37581SOL     OW17872   2.686   8.414   1.822 -0.2912  0.1414 -0.2186
37581SOL    HW117873   2.685   8.335   1.875 -2.3568 -0.7715 -1.5191
37581SOL    HW217874   2.623   8.473   1.865 -2.4735 -0.8507 -1.8968
37582SOL     OW17875   1.672   8.304   8.785 -0.1111  0.0586 -0.1331
37582SOL    HW117876   1.658   8.316   8.879 -2.3345  0.4386 -0.4929
37582SOL    HW217877   1.751   8.250   8.780  0.1564  0.2077  1.9489
37583SOL     OW17878   9.152   7.644   4.024  0.0914  0.2577 -0.5423
37583SOL    HW117879   9.157   7.565   4.078 -0.7446 -1.0732 -2.3755
37583SOL    HW217880   9.128   7.612   3.937  1.9271  2.3313 -1.8478
37584SOL     OW17881   5.779   9.586   2.511  0.0459  0.1444  1.0318
37584SOL    HW117882   5.727   9.506   2.506  0.2170  0.1002 -0.3996
37584SOL    HW217883   5.740   9.643   2.444  2.5722 -0.3202 -0.8879
37585SOL     OW17884  10.363   9.088   2.277  0.4461 -0.1172 -0.3396
37585SOL    HW117885  10.424   9.100   2.350 -0.6340  0.6420  0.4707
37585SOL    HW217886  10.378   9.163   2.220 -1.8859  1.8335  1.4816
37586SOL     OW17887  11.085   3.474   3.832 -0.3001 -0.2226  0.2123
37586SOL    HW117888  11.084   3.496   3.739  1.2013 -1.6236 -0.1529
37586SOL    HW217889  11.145   3.538   3.871 -0.1441 -0.2713  0.0532
37587SOL     OW17890   4.682   9.605   1.841  0.0863 -0.0713 -0.7713
37587SOL    HW117891   4.626   9.546   1.790 -1.0142 -0.6406  1.0718
37587SOL    HW217892   4.638   9.690   1.836 -1.5561 -0.7489  1.5600
37588SOL     OW17893   0.038   4.692  10.885  0.0295  0.2530  0.9186
37588SOL    HW117894   0.001   4.607  10.862 -0.9085  0.7122  0.7340
37588SOL    HW217895  -0.028   4.734  10.941  0.2569  1.0780  0.5764
37589SOL     OW17896   7.211   6.846   0.346  0.3802  0.4739 -0.1943
37589SOL    HW117897   7.130   6.896   0.347  1.4154  2.2015 -0.8896
37589SOL    HW217898   7.194   6.776   0.282 -0.6625  0.6391 -0.1114
37590SOL     OW17899  10.432   1.416   4.935  0.4428 -0.8859  0.7807
37590SOL    HW117900  10.379   1.496   4.936  0.4009 -0.8941  0.0808
37590SOL    HW217901  10.520   1.446   4.956  0.2901 -0.7639  1.2420
37591SOL     OW17902   3.697   5.804   2.029  0.3103  0.2829  0.0738
37591SOL    HW117903   3.702   5.711   2.049 -0.0307  0.4523  0.9536
37591SOL    HW217904   3.746   5.813   1.947  1.8705 -0.3755  0.9167
37592SOL     OW17905   0.271   6.729   8.596  0.5007  0.0330 -0.0387
37592SOL    HW117906   0.294   6.637   8.613 -0.0320 -0.3847 -1.4483
37592SOL    HW217907   0.195   6.745   8.652  2.1327  0.4180  2.1423
37593SOL     OW17908   1.159   5.512   8.083  0.7230  0.1180  0.0138
37593SOL    HW117909   1.071   5.491   8.114  0.5439 -0.5967 -0.9552
37593SOL    HW217910   1.145   5.557   8.000  1.2404  0.8494  0.3192
37594SOL     OW17911   6.713   4.105   7.842 -0.3918  0.0745 -0.2271
37594SOL    HW117912   6.688   4.078   7.753  0.1216 -1.3179  0.0437
37594SOL    HW217913   6.711   4.201   7.839  3.1781  0.1809 -2.8167
37595SOL     OW17914   9.750   1.887   5.003 -0.3276  0.0686 -0.5363
37595SOL    HW117915   9.747   1.882   5.098 -1.1626 -1.8077 -0.6459
37595SOL    HW217916   9.729   1.978   4.983 -0.0782  0.4879  1.0693
37596SOL     OW17917  11.050   9.397   6.661  0.1982  0.0927 -0.2950
37596SOL    HW117918  11.121   9.417   6.599 -0.2071 -0.3442 -0.9088
37596SOL    HW217919  11.093   9.388   6.745  0.8945 -0.3067 -0.6890
37597SOL     OW17920   1.326   1.133   5.165 -0.2010 -0.2590 -0.2500
37597SOL    HW117921   1.324   1.141   5.069 -0.5905  2.4612 -0.0321
37597SOL    HW217922   1.280   1.051   5.182 -1.5084 -0.0059 -2.3193
37598SOL     OW17923   6.815   7.608   6.876  0.0963 -0.2167  0.3141
37598SOL    HW117924   6.819   7.701   6.899  1.3554 -0.1550 -0.1052
37598SOL    HW217925   6.818   7.562   6.960  3.3543  0.0341  0.3855
37599SOL     OW17926  10.514   7.467   8.127  0.4731 -0.6943  0.0368
37599SOL    HW117927  10.598   7.429   8.150  0.2270 -1.6328 -0.5843
37599SOL    HW217928  10.481   7.412   8.056  0.7417  1.4764 -1.8509
37600SOL     OW17929   4.161   0.411   1.837 -0.4898 -0.4445  0.2414
37600SOL    HW117930   4.144   0.504   1.851 -0.9681 -0.3435 -0.9361
37600SOL    HW217931   4.146   0.370   1.922 -0.2664  0.5551  0.7637
37601SOL     OW17932   7.054   3.638   8.219  0.0151 -0.1130 -0.1717
37601SOL    HW117933   7.072   3.615   8.128 -0.2151 -0.1435 -0.2097
37601SOL    HW217934   7.126   3.598   8.269  1.0580  1.2976 -0.5066
37602SOL     OW17935   6.654   6.507   9.969 -0.6872  0.5603 -0.2594
37602SOL    HW117936   6.745   6.511   9.939 -0.8233 -0.7588 -0.8501
37602SOL    HW217937   6.642   6.416   9.996 -1.5393  0.9710  0.7692
37603SOL     OW17938   0.272   0.098   7.950 -0.3917  0.1949 -0.3258
37603SOL    HW117939   0.336   0.169   7.956  0.1648 -0.4244  1.4256
37603SOL    HW217940   0.188   0.140   7.967 -0.3126  0.7745 -1.3168
37604SOL     OW17941   7.954   2.844   6.634 -0.5052 -0.1224  0.2436
37604SOL    HW117942   7.928   2.898   6.709 -0.5013  0.2886 -0.0469
37604SOL    HW217943   7.872   2.805   6.603 -0.6128  0.2792  0.0191
37605SOL     OW17944   5.925   2.975   3.127 -0.5020 -0.4180  0.1014
37605SOL    HW117945   5.956   2.887   3.146 -0.6462 -0.8574 -1.5985
37605SOL    HW217946   5.990   3.032   3.167 -0.5642 -1.2842  1.4638
37606SOL     OW17947  10.630   9.915   2.179  0.2325 -0.7150  0.0174
37606SOL    HW117948  10.540   9.936   2.205  0.5371 -1.2261  1.5544
37606SOL    HW217949  10.651   9.979   2.112 -0.2177  1.3840  1.8142
37607SOL     OW17950  10.043   5.022  10.043 -0.7699 -0.0010  1.1056
37607SOL    HW117951  10.094   5.103  10.045 -1.8939  0.7828 -0.9144
37607SOL    HW217952   9.971   5.041   9.982 -2.1778 -1.8429  2.1624
37608SOL     OW17953  11.323   0.637   6.212 -0.1237  0.5148  0.7032
37608SOL    HW117954  11.377   0.659   6.288 -0.4487  2.0951  0.4878
37608SOL    HW217955  11.383   0.644   6.138 -0.2070  0.5846  0.6431
37609SOL     OW17956   1.864   3.135   9.466  0.0101 -0.2024  0.2019
37609SOL    HW117957   1.917   3.101   9.394 -0.2919 -2.4058  0.9740
37609SOL    HW217958   1.797   3.068   9.479 -1.0364  1.0423  1.3356
37610SOL     OW17959  11.198   7.496   5.400 -0.2977  0.0336 -0.2616
37610SOL    HW117960  11.234   7.584   5.393 -1.9638  0.7330 -0.4259
37610SOL    HW217961  11.108   7.504   5.366 -0.7268 -1.5635  0.4248
37611SOL     OW17962   5.058   7.319   9.153 -0.8760  0.4977  0.0242
37611SOL    HW117963   5.021   7.310   9.065 -3.4262  0.9163  1.0094
37611SOL    HW217964   5.076   7.229   9.181 -0.6107  0.3311 -0.6758
37612SOL     OW17965   7.625   9.250   6.673  0.0226  0.2709 -0.7158
37612SOL    HW117966   7.606   9.338   6.641  1.3368  0.9427  0.3222
37612SOL    HW217967   7.712   9.231   6.639  0.2400 -0.1515  0.0781
37613SOL     OW17968   7.720   8.950   3.602  0.2196  0.3782 -0.4344
37613SOL    HW117969   7.738   8.982   3.513 -0.3451  2.3327  0.1336
37613SOL    HW217970   7.787   8.883   3.617  2.9690  2.9064 -0.8055
37614SOL     OW17971   6.877   4.315   3.730 -0.3312 -0.0808  0.2312
37614SOL    HW117972   6.838   4.301   3.644 -0.0068 -1.1879  0.2515
37614SOL    HW217973   6.811   4.285   3.793  0.5230 -1.9851  0.2635
37615SOL     OW17974   5.159   5.148   2.060 -0.3421 -0.0979 -1.3590
37615SOL    HW117975   5.105   5.119   2.133  1.5542  0.7621  0.4205
37615SOL    HW217976   5.152   5.243   2.060 -0.1853 -0.0765 -2.2005
37616SOL     OW17977  10.404   4.526   4.458  0.0942 -0.1922  0.7459
37616SOL    HW117978  10.467   4.535   4.529  1.2383  1.5156 -0.4224
37616SOL    HW217979  10.453   4.551   4.380 -1.0716 -2.2477 -0.6912
37617SOL     OW17980   7.616   7.526  11.133  0.2713  0.1157  0.4151
37617SOL    HW117981   7.540   7.571  11.169  0.1112  0.3142 -0.1540
37617SOL    HW217982   7.672   7.508  11.208  0.4298  1.4276  0.6223
37618SOL     OW17983   3.812  10.028   9.349 -0.4550 -0.0130  0.2964
37618SOL    HW117984   3.724   9.993   9.366 -0.2152 -1.2850 -0.9414
37618SOL    HW217985   3.796  10.111   9.303 -1.0172 -0.1139  0.2989
37619SOL     OW17986   2.167   3.319   4.544 -0.1592  0.3706 -0.3443
37619SOL    HW117987   2.191   3.345   4.632 -1.4712  1.7455 -0.3784
37619SOL    HW217988   2.074   3.299   4.549 -0.1975  0.2620 -1.3760
37620SOL     OW17989   7.896   5.236   0.137 -0.2799 -0.1950 -0.7295
37620SOL    HW117990   7.861   5.303   0.196  1.3498  0.2716 -0.2416
37620SOL    HW217991   7.880   5.270   0.049 -0.0748  0.5237 -0.4923
37621SOL     OW17992   6.690   5.708  11.282 -0.4025  0.3776  0.3666
37621SOL    HW117993   6.640   5.789  11.272 -1.4354 -0.2434  0.3608
37621SOL    HW217994   6.623   5.639  11.283  0.4978 -0.5171 -0.1687
37622SOL     OW17995   7.403   6.348   5.931 -0.1547 -0.8991  0.2795
37622SOL    HW117996   7.371   6.432   5.964 -0.4268 -1.4649  1.4986
37622SOL    HW217997   7.400   6.356   5.836  2.1474  1.3524  0.3405
37623SOL     OW17998   1.977  11.158   4.506 -0.0417 -0.0549  0.1363
37623SOL    HW117999   1.964  11.097   4.434  1.8149 -0.4604  0.1177
37623SOL    HW218000   1.890  11.167   4.545 -1.0516  0.0892 -2.0572
37624SOL     OW18001   8.219   6.212   3.352  0.5265  0.2291 -0.3493
37624SOL    HW118002   8.210   6.117   3.356  1.6685  0.1155 -0.3478
37624SOL    HW218003   8.166   6.244   3.426  0.5232 -0.4213 -0.0701
37625SOL     OW18004   1.108   4.346   2.398  0.1723  0.3835 -0.7659
37625SOL    HW118005   1.102   4.256   2.365 -1.7114  0.6710 -1.2277
37625SOL    HW218006   1.100   4.401   2.320  1.3625  0.9828 -0.4924
37626SOL     OW18007  11.059   6.162   0.651  0.3108  0.0310 -0.4011
37626SOL    HW118008  11.119   6.233   0.674  1.8136 -1.0379 -0.9614
37626SOL    HW218009  11.039   6.120   0.735 -0.2900  0.8739 -0.1149
37627SOL     OW18010   2.205   6.400   4.180  0.2314  0.2797 -0.0988
37627SOL    HW118011   2.147   6.471   4.208 -0.6261 -0.2642 -0.4554
37627SOL    HW218012   2.183   6.387   4.088 -1.5301 -2.2354  0.6274
37628SOL     OW18013   3.173   8.847   6.797  0.2531 -0.2919  0.9123
37628SOL    HW118014   3.232   8.778   6.827  0.6476  0.1713  1.2005
37628SOL    HW218015   3.175   8.839   6.701 -0.9576 -1.7256  0.9935
37629SOL     OW18016   3.374   2.170   3.847 -0.0200 -0.3943  0.1446
37629SOL    HW118017   3.340   2.146   3.761 -1.9547  1.5517  0.3228
37629SOL    HW218018   3.341   2.102   3.906 -3.1765  1.0830  0.1951
37630SOL     OW18019  10.710   8.206   7.721 -0.4077  0.0509 -0.1132
37630SOL    HW118020  10.727   8.277   7.658 -0.7800  0.6035  0.4069
37630SOL    HW218021  10.705   8.127   7.667 -1.5848  0.6415 -0.9053
37631SOL     OW18022   6.081   2.593   3.481 -0.6002 -0.1611  1.0579
37631SOL    HW118023   6.050   2.519   3.533 -0.9354  0.3114  1.5367
37631SOL    HW218024   6.177   2.587   3.485 -0.5944 -1.9319 -0.8619
37632SOL     OW18025  10.221   0.384   5.984  0.7667  0.0687 -0.5730
37632SOL    HW118026  10.177   0.431   6.054  1.3112 -0.8231  0.3794
37632SOL    HW218027  10.196   0.293   5.996  1.4043 -0.1898 -1.1289
37633SOL     OW18028   0.872   5.074   3.677  0.1496  0.3121 -0.0725
37633SOL    HW118029   0.870   5.169   3.666  0.3023  0.4321  0.9247
37633SOL    HW218030   0.936   5.059   3.747 -0.7583 -0.4484  0.6029
37634SOL     OW18031   4.041   3.108   9.909 -0.6198 -0.0100 -0.8201
37634SOL    HW118032   4.034   3.166   9.832  0.4580  0.9338 -0.2169
37634SOL    HW218033   4.071   3.165   9.979 -0.5635 -1.1010  0.0512
37635SOL     OW18034   5.727   3.310   6.726  0.1253 -0.3558  0.5397
37635SOL    HW118035   5.819   3.337   6.732 -0.1515  0.5721  0.6801
37635SOL    HW218036   5.698   3.305   6.817 -0.0810 -0.2367  0.4801
37636SOL     OW18037   5.442   5.331   4.196  0.5337  0.1802  0.0482
37636SOL    HW118038   5.457   5.362   4.285  1.4301 -0.8806  0.2788
37636SOL    HW218039   5.360   5.281   4.202  1.3493 -1.1346  0.6177
37637SOL     OW18040   8.269   0.119   2.756  0.0273  0.1387  0.0239
37637SOL    HW118041   8.303   0.144   2.842 -0.4288 -0.2545  0.3207
37637SOL    HW218042   8.230   0.199   2.721 -0.3425  0.1455  0.4504
37638SOL     OW18043   9.740   1.413   4.141  0.3025 -0.3737 -0.1396
37638SOL    HW118044   9.815   1.355   4.136 -0.5768 -1.4760 -0.8731
37638SOL    HW218045   9.762   1.486   4.082  1.3453 -0.0101  0.6811
37639SOL     OW18046   9.841   8.643  10.883 -0.3202  0.1297  0.5418
37639SOL    HW118047   9.834   8.607  10.971  1.7854 -1.3263  0.1295
37639SOL    HW218048   9.859   8.736  10.897  2.6801 -0.5717  1.7300
37640SOL     OW18049   0.859   1.747   9.123 -0.1353 -0.4910  0.6047
37640SOL    HW118050   0.811   1.665   9.114 -1.2028  0.3581 -1.7558
37640SOL    HW218051   0.889   1.767   9.034  2.3177  0.3822  1.5697
37641SOL     OW18052   6.661   5.599   3.367 -0.2741 -0.1537 -0.1537
37641SOL    HW118053   6.675   5.558   3.453 -1.3550 -0.2658 -0.0168
37641SOL    HW218054   6.738   5.654   3.354  0.4885 -1.0753  0.3365
37642SOL     OW18055   3.726   4.723   1.622 -0.4612 -0.0891 -0.5464
37642SOL    HW118056   3.813   4.749   1.650 -0.2674 -0.4121 -0.8396
37642SOL    HW218057   3.696   4.661   1.689 -0.3636 -0.1665 -0.5737
37643SOL     OW18058  10.256   7.281   7.687 -0.1401 -1.0325  0.6413
37643SOL    HW118059  10.226   7.372   7.683 -0.1034 -1.0595 -0.4133
37643SOL    HW218060  10.278   7.259   7.597 -1.6256 -2.6027  0.6466
37644SOL     OW18061   6.854   1.498   5.345 -0.3008 -0.2821 -0.0525
37644SOL    HW118062   6.762   1.484   5.321 -0.5637 -2.2198  2.0122
37644SOL    HW218063   6.850   1.558   5.420  0.0073 -1.6049  1.0413
37645SOL     OW18064   8.029   2.871   4.350  0.2911  0.2375 -0.1180
37645SOL    HW118065   8.066   2.932   4.286 -0.4477 -0.8917 -1.6563
37645SOL    HW218066   8.105   2.834   4.394  0.9598 -0.7372 -2.0136
37646SOL     OW18067   0.130   0.907   6.684 -0.6946 -0.2349  0.0346
37646SOL    HW118068   0.144   1.002   6.684 -0.6155 -0.2432  1.1884
37646SOL    HW218069   0.105   0.886   6.774 -0.5874 -1.3322 -0.1838
37647SOL     OW18070   2.852  10.356  10.763 -0.7166 -0.1849  0.5803
37647SOL    HW118071   2.887  10.384  10.679 -0.2464 -1.0209  0.4931
37647SOL    HW218072   2.882  10.422  10.825  0.1225 -0.3284  0.3275
37648SOL     OW18073   2.784   4.198   2.374  0.1122 -0.7607  0.5122
37648SOL    HW118074   2.786   4.105   2.398 -2.6736 -1.3679 -1.3498
37648SOL    HW218075   2.836   4.203   2.294  0.8206 -0.5883  0.9809
37649SOL     OW18076   7.023   3.256   1.139 -0.3288  0.3910  0.5308
37649SOL    HW118077   7.061   3.294   1.060  2.1996 -0.3587  1.3320
37649SOL    HW218078   7.060   3.307   1.210  0.8853 -1.7230  1.4592
37650SOL     OW18079   0.597   2.023  11.008  0.1052  0.0166  0.6149
37650SOL    HW118080   0.539   2.046  11.081 -0.8930 -1.8273  0.4268
37650SOL    HW218081   0.664   2.091  11.009 -0.2313  0.3566  2.8679
37651SOL     OW18082   3.105   5.318   0.291  0.0840 -0.0340 -0.4767
37651SOL    HW118083   3.176   5.321   0.355 -0.2633  1.3382 -0.1286
37651SOL    HW218084   3.123   5.392   0.232 -2.4864  2.0291  1.2141
37652SOL     OW18085   7.349   3.815   5.473 -0.3620  0.6605 -0.7394
37652SOL    HW118086   7.383   3.829   5.385 -0.1631  1.9762 -0.4615
37652SOL    HW218087   7.341   3.903   5.511 -1.5244  0.1992  0.1495
37653SOL     OW18088  10.278  10.165   0.044 -0.0544  0.4074  0.1031
37653SOL    HW118089  10.234  10.154  -0.040 -0.9001 -0.2398  0.6278
37653SOL    HW218090  10.221  10.222   0.094  1.5535  2.6795 -0.5593
37654SOL     OW18091  10.987   2.889   9.006  0.3584 -0.1939  0.2308
37654SOL    HW118092  10.942   2.834   8.942  0.6837 -0.4947  0.2627
37654SOL    HW218093  11.080   2.883   8.982  0.8138 -2.4894  2.3440
37655SOL     OW18094   8.725  10.699   8.330  0.6230  0.3742 -0.2952
37655SOL    HW118095   8.696  10.617   8.291 -1.6372  1.3609 -0.7818
37655SOL    HW218096   8.710  10.764   8.261  2.3682  1.2253  0.0908
37656SOL     OW18097   5.509   3.449   8.139  0.5200 -0.4102 -0.0294
37656SOL    HW118098   5.601   3.423   8.130  0.0289 -2.3989  0.4287
37656SOL    HW218099   5.504   3.494   8.223  1.3500  1.0507 -0.7399
37657SOL     OW18100   8.850   1.269   7.264  0.2406 -0.4210 -0.3370
37657SOL    HW118101   8.817   1.247   7.177 -1.0922  1.2660 -0.2841
37657SOL    HW218102   8.807   1.206   7.322 -2.2966  1.1849 -0.3823
37658SOL     OW18103   8.450   2.284   2.378  0.5278  0.3223 -0.4066
37658SOL    HW118104   8.441   2.236   2.295 -1.0159  0.6112 -0.4164
37658SOL    HW218105   8.428   2.219   2.445  0.3056  0.4980 -0.3112
37659SOL     OW18106   4.078   6.380   1.529 -0.3817  0.7106  0.1212
37659SOL    HW118107   4.140   6.392   1.601 -0.9457 -1.2171  0.9817
37659SOL    HW218108   4.016   6.315   1.562 -1.1365  0.4134 -1.8134
37660SOL     OW18109   7.072   2.817  10.800  0.0973  0.1193  0.1729
37660SOL    HW118110   7.007   2.760  10.759  0.7528 -1.0524  0.7470
37660SOL    HW218111   7.113   2.762  10.867  0.9940  1.1536  0.4817
37661SOL     OW18112   1.601   1.908   8.571  0.3280  0.0029 -0.2044
37661SOL    HW118113   1.509   1.883   8.574  0.5723 -0.8292  0.3284
37661SOL    HW218114   1.618   1.949   8.656  0.6481 -0.5350 -0.0099
37662SOL     OW18115   8.212   6.671   4.471 -0.0740 -0.0034  0.6495
37662SOL    HW118116   8.302   6.647   4.496  1.0240  0.7240 -2.3825
37662SOL    HW218117   8.202   6.760   4.505  0.2702 -0.1489  1.1580
37663SOL     OW18118   1.751   0.195   1.210  0.2121  0.3187 -0.4595
37663SOL    HW118119   1.840   0.163   1.192 -0.1272  0.1235 -1.8956
37663SOL    HW218120   1.698   0.116   1.214 -0.7381  0.6358 -4.6463
37664SOL     OW18121   6.136   5.589   3.467 -0.3709  0.2126  0.0019
37664SOL    HW118122   6.083   5.668   3.474  0.8833  1.2629 -1.9891
37664SOL    HW218123   6.226   5.620   3.465  0.1344 -1.2287 -0.9518
37665SOL     OW18124   8.976   0.722   2.623  0.5831  0.3299 -0.0640
37665SOL    HW118125   8.971   0.784   2.550 -1.2180  0.4496  0.1388
37665SOL    HW218126   8.996   0.638   2.582 -1.6565  0.1478 -0.8900
37666SOL     OW18127   2.891   1.902   3.855  0.6400  0.0218 -0.2364
37666SOL    HW118128   2.827   1.856   3.801  0.2686  1.5060 -1.0839
37666SOL    HW218129   2.848   1.913   3.940  0.4025 -0.4072 -0.3017
37667SOL     OW18130   8.426   7.202   8.115 -0.1050 -0.6031  0.3051
37667SOL    HW118131   8.355   7.139   8.128 -0.8926  0.7835  3.0524
37667SOL    HW218132   8.385   7.276   8.071  0.2702 -0.9204 -0.6006
37668SOL     OW18133   7.677   6.642   7.480 -0.1254 -0.3798 -0.2864
37668SOL    HW118134   7.604   6.598   7.436 -0.1098 -0.7695  0.0642
37668SOL    HW218135   7.636   6.716   7.526 -0.0922  0.2075 -1.2022
37669SOL     OW18136   5.671   0.549  10.709  0.6913  0.3647 -0.3304
37669SOL    HW118137   5.690   0.455  10.714  1.9653  0.6306  0.0775
37669SOL    HW218138   5.577   0.554  10.698  0.6021 -0.9681 -0.2606
37670SOL     OW18139   6.511   0.121   9.022  0.0510  0.2195 -0.0871
37670SOL    HW118140   6.437   0.072   8.985 -0.4490  1.1990 -0.3997
37670SOL    HW218141   6.481   0.148   9.109  0.5183 -0.4646  0.2876
37671SOL     OW18142   0.659   4.291   2.088 -0.1451 -0.2840  0.1825
37671SOL    HW118143   0.670   4.299   2.183  1.9600  0.4070 -0.0966
37671SOL    HW218144   0.662   4.197   2.071 -1.6990 -0.4814  0.9119
37672SOL     OW18145   1.345   3.270   2.370 -0.0459 -0.3354  0.2293
37672SOL    HW118146   1.250   3.261   2.383 -0.2467  0.3942 -0.7266
37672SOL    HW218147   1.379   3.183   2.388 -1.1104 -1.0783 -1.2378
37673SOL     OW18148   7.902   1.398   1.116  0.2425  0.2700 -0.9510
37673SOL    HW118149   7.988   1.421   1.151 -0.2904 -0.2389  0.7439
37673SOL    HW218150   7.850   1.478   1.126  0.3984  0.4570 -1.6095
37674SOL     OW18151   1.864   8.561   9.572  0.0335  0.2117  0.4971
37674SOL    HW118152   1.859   8.471   9.540  0.8336  0.6713 -0.9935
37674SOL    HW218153   1.943   8.596   9.531 -0.5837  1.7665  0.6127
37675SOL     OW18154   5.325   1.406   5.820  0.2817 -0.2358 -0.6318
37675SOL    HW118155   5.413   1.420   5.786  1.2585  2.5716  2.7495
37675SOL    HW218156   5.337   1.347   5.894 -1.0260 -1.5727 -1.4432
37676SOL     OW18157   0.673   2.035   2.234 -0.4333  0.6507 -0.2377
37676SOL    HW118158   0.673   2.123   2.272  2.7181 -0.1505  1.8860
37676SOL    HW218159   0.749   2.035   2.175 -0.2172 -0.6985  0.0320
37677SOL     OW18160   4.193   5.423   7.334 -0.0819  0.2961 -0.4405
37677SOL    HW118161   4.165   5.333   7.319 -1.5922  0.9027 -1.3119
37677SOL    HW218162   4.272   5.415   7.388 -1.2295 -1.4608  1.0083
37678SOL     OW18163   0.334   9.890   9.804 -0.0078  0.0825 -0.9615
37678SOL    HW118164   0.287   9.862   9.725  1.3710  0.0311 -1.7828
37678SOL    HW218165   0.421   9.851   9.795 -0.8550 -2.7161  2.2122
37679SOL     OW18166   6.416   1.501   3.870  0.6023 -0.0624  0.4209
37679SOL    HW118167   6.395   1.508   3.777  2.5410 -1.4819 -0.1574
37679SOL    HW218168   6.336   1.469   3.910 -0.7160  1.9533 -0.5131
37680SOL     OW18169   1.372   0.432   4.331  0.3624  0.0071 -0.3268
37680SOL    HW118170   1.452   0.473   4.364  0.5978  0.0625 -0.9517
37680SOL    HW218171   1.396   0.341   4.316 -0.3875 -0.5679  1.8321
37681SOL     OW18172   8.643   1.408   7.572  0.4322 -0.4563 -0.4296
37681SOL    HW118173   8.604   1.383   7.488 -1.8227 -2.4199  1.1373
37681SOL    HW218174   8.579   1.468   7.610  1.9291  1.2315 -0.5168
37682SOL     OW18175  10.296   1.670   5.838 -0.2169 -0.5029 -0.3526
37682SOL    HW118176  10.372   1.639   5.789 -0.3315 -2.2377  0.5232
37682SOL    HW218177  10.222   1.625   5.797 -0.2570 -2.4119  1.7193
37683SOL     OW18178   9.963   1.814   7.086 -0.6478 -0.4878 -0.3262
37683SOL    HW118179   9.930   1.867   7.159  1.1090  1.1474 -0.6882
37683SOL    HW218180  10.053   1.794   7.110 -0.9266 -2.3204 -0.7645
37684SOL     OW18181   1.822  10.257   5.242  0.6443  0.2778  0.0786
37684SOL    HW118182   1.825  10.186   5.306 -0.4455  0.8635  0.7803
37684SOL    HW218183   1.814  10.212   5.158  0.3179 -0.4495  0.4896
37685SOL     OW18184   0.972   6.687   6.225  0.0231  0.2772  0.1278
37685SOL    HW118185   0.950   6.735   6.305 -2.3744  0.1506 -0.3947
37685SOL    HW218186   1.048   6.634   6.249 -2.0589 -1.5300  3.0622
37686SOL     OW18187  10.773   1.754   8.321  0.0111  0.7364  0.1671
37686SOL    HW118188  10.812   1.672   8.349 -1.7196  0.5050  2.0067
37686SOL    HW218189  10.681   1.734   8.305 -0.2220  2.0842 -0.2994
37687SOL     OW18190   8.811   5.973   4.892  0.1945 -0.4836 -0.0075
37687SOL    HW118191   8.772   6.059   4.876  0.4895  0.1414  2.3777
37687SOL    HW218192   8.893   5.975   4.842 -0.2797  0.2412 -0.7723
37688SOL     OW18193   1.958   9.447   9.737  0.0816  0.4766 -0.0773
37688SOL    HW118194   1.979   9.540   9.737  1.2635  0.2185 -0.6627
37688SOL    HW218195   1.977   9.417   9.648  2.4057 -0.8896  0.8127
37689SOL     OW18196   0.561   2.050   6.111  0.4183 -0.3874 -0.0247
37689SOL    HW118197   0.620   2.065   6.185  0.0432 -0.2850  0.2556
37689SOL    HW218198   0.582   2.120   6.049  1.1556 -0.8331 -0.2836
37690SOL     OW18199   6.930   7.033  10.301  0.0325  0.0717 -0.1879
37690SOL    HW118200   6.972   6.993  10.225 -0.7326  0.1591 -0.6619
37690SOL    HW218201   6.929   7.126  10.281 -0.3228  0.0762 -0.1482
37691SOL     OW18202   3.359   4.507   5.323 -0.5093 -0.1850 -0.1329
37691SOL    HW118203   3.374   4.508   5.418 -0.0709 -1.9832 -0.1515
37691SOL    HW218204   3.291   4.572   5.308  0.9491  1.6718  1.1498
37692SOL     OW18205   9.633   5.517   7.944  0.1038  0.7395 -0.1127
37692SOL    HW118206   9.721   5.488   7.967  0.4152  1.5282 -0.3311
37692SOL    HW218207   9.608   5.577   8.014 -1.2804 -1.4618  1.3698
37693SOL     OW18208   7.756   8.956   6.849  0.5521  0.2402  0.0463
37693SOL    HW118209   7.813   8.984   6.778 -0.7571  1.1154 -0.6843
37693SOL    HW218210   7.805   8.976   6.929  1.8829 -0.4272 -0.5967
37694SOL     OW18211   9.898   3.649  10.525 -0.0010  0.2067  0.1636
37694SOL    HW118212   9.852   3.654  10.608  1.4204 -0.5601  1.0264
37694SOL    HW218213   9.985   3.685  10.543  1.3441 -2.7284 -0.1874
37695SOL     OW18214   9.183  10.058   9.699 -0.5497 -0.1403 -0.0868
37695SOL    HW118215   9.105  10.033   9.748 -0.2755  0.8671  0.9006
37695SOL    HW218216   9.150  10.111   9.626 -0.7559  0.8091  0.6845
37696SOL     OW18217  10.576   3.855   0.262  0.1953  0.3914  0.1401
37696SOL    HW118218  10.626   3.927   0.299 -1.3409  0.8161  1.4673
37696SOL    HW218219  10.639   3.807   0.208  1.9472  1.0517  1.5469
37697SOL     OW18220   1.095   8.311   6.814  0.3574  0.0685 -0.7707
37697SOL    HW118221   1.003   8.284   6.812  0.1531  0.6837  0.1095
37697SOL    HW218222   1.119   8.308   6.907  1.4065 -0.6892 -1.0588
37698SOL     OW18223   4.834   7.434   3.934 -0.1624  0.0409 -0.0056
37698SOL    HW118224   4.814   7.349   3.972 -2.0855  0.2764 -0.4502
37698SOL    HW218225   4.792   7.497   3.992 -0.7498  0.5525 -0.9728
37699SOL     OW18226   7.595   0.840   4.810  0.5993 -0.0824  0.1548
37699SOL    HW118227   7.545   0.873   4.884  0.8569 -1.5396  0.9821
37699SOL    HW218228   7.634   0.759   4.841  1.7119 -0.0740 -1.1832
37700SOL     OW18229   2.040   2.365   2.216  0.4173  0.4002  0.1734
37700SOL    HW118230   2.036   2.390   2.308 -2.1866 -0.5575  0.3635
37700SOL    HW218231   1.979   2.425   2.172 -0.8691 -1.2802 -0.3926
37701SOL     OW18232   1.912   6.997   2.244 -0.5691 -0.7108 -0.1305
37701SOL    HW118233   1.820   7.017   2.260 -0.7602 -1.3794 -0.3811
37701SOL    HW218234   1.959   7.078   2.266 -1.2243 -0.3408 -0.1005
37702SOL     OW18235   4.480   4.093  11.208  0.1042 -0.1077  0.1836
37702SOL    HW118236   4.534   4.095  11.129  1.6426 -0.2270  1.2054
37702SOL    HW218237   4.434   4.177  11.208  0.4103  0.0620 -0.6343
37703SOL     OW18238   7.351   7.889   6.551 -0.8996  0.2230 -0.7154
37703SOL    HW118239   7.287   7.876   6.481 -0.1842  0.5280 -1.4326
37703SOL    HW218240   7.400   7.807   6.554 -0.8854  0.2357 -0.6139
37704SOL     OW18241   5.515   0.234   1.195  0.4162  0.0524 -0.3770
37704SOL    HW118242   5.530   0.253   1.288 -1.4648 -0.7004  0.1052
37704SOL    HW218243   5.508   0.319   1.153 -0.4688  0.4156  0.4852
37705SOL     OW18244   5.692   6.693  10.735 -0.3802 -0.3546  0.4219
37705SOL    HW118245   5.751   6.625  10.704  1.3666  0.0148  2.8049
37705SOL    HW218246   5.728   6.775  10.700 -1.0907 -0.4036 -0.4337
37706SOL     OW18247  10.398   6.841   9.234 -0.1249  0.0568  0.0220
37706SOL    HW118248  10.426   6.907   9.297 -1.2158  0.1936  0.3692
37706SOL    HW218249  10.371   6.766   9.287  1.0729 -0.6721 -0.3666
37707SOL     OW18250   6.775   2.788   0.986 -0.2786  0.3816  0.0105
37707SOL    HW118251   6.705   2.831   0.937  0.8695  1.5366 -0.6668
37707SOL    HW218252   6.850   2.848   0.977  0.1425  0.2838  2.6033
37708SOL     OW18253   1.583   9.755   5.673 -0.4316  0.2517  0.2663
37708SOL    HW118254   1.640   9.727   5.744  0.7937  0.1608 -0.7299
37708SOL    HW218255   1.572   9.850   5.687  0.5588  0.4001  0.0508
37709SOL     OW18256   8.689   5.616   1.701  0.3048 -0.5152 -0.4083
37709SOL    HW118257   8.667   5.530   1.665  3.6018 -1.7984  0.5015
37709SOL    HW218258   8.712   5.599   1.792 -1.2676  1.7111  0.4436
37710SOL     OW18259   4.997   0.493   0.666 -0.6526  0.1935  0.1139
37710SOL    HW118260   5.054   0.556   0.623 -0.0623 -0.2915  0.1878
37710SOL    HW218261   5.038   0.477   0.751  0.1102 -1.5828 -0.5865
37711SOL     OW18262   2.283   9.559   7.587 -0.0710  0.6101  0.0727
37711SOL    HW118263   2.369   9.555   7.546 -0.0937  0.6166  0.0246
37711SOL    HW218264   2.261   9.467   7.605 -1.4118  0.3077 -2.7458
37712SOL     OW18265   4.210   4.956   7.506  0.4858  0.9505 -0.2558
37712SOL    HW118266   4.223   4.870   7.466 -0.0321  1.1691 -0.9147
37712SOL    HW218267   4.290   4.973   7.555  0.1898 -0.3446  0.6955
37713SOL     OW18268   9.863   7.112   4.032  0.0524  0.6171  0.2537
37713SOL    HW118269   9.879   7.131   3.939 -1.8449  1.4231  0.0684
37713SOL    HW218270   9.937   7.151   4.078  0.8220  0.5247 -0.8875
37714SOL     OW18271  10.673   5.436   5.682 -0.1625  0.0519  0.4068
37714SOL    HW118272  10.692   5.390   5.601 -1.3537 -0.5550  0.4615
37714SOL    HW218273  10.752   5.427   5.734  0.2775 -0.3406 -0.3273
37715SOL     OW18274   1.044  10.884  10.082 -0.0427 -0.2064 -0.1769
37715SOL    HW118275   1.058  10.923   9.996 -1.8612  1.6688  0.3502
37715SOL    HW218276   1.029  10.791  10.064 -0.0138  0.1040 -1.8465
37716SOL     OW18277  10.896   4.582   8.447  0.7350 -0.3128 -0.1134
37716SOL    HW118278  10.891   4.547   8.358 -0.5529 -0.3179 -0.0506
37716SOL    HW218279  10.805   4.602   8.470  1.1971  0.8444  0.7421
37717SOL     OW18280   7.391   2.930   6.405 -0.1979 -0.3569  0.0693
37717SOL    HW118281   7.344   2.961   6.482  0.0523  0.6439 -0.1645
37717SOL    HW218282   7.452   3.001   6.385  2.0398 -1.9680  0.8922
37718SOL     OW18283   2.876  10.101  10.181 -0.3190  0.1083  0.2571
37718SOL    HW118284   2.793  10.120  10.137  0.4138 -0.4385 -1.4285
37718SOL    HW218285   2.912  10.187  10.205 -1.7830  0.3047  1.8293
37719SOL     OW18286   6.661   3.445   7.751 -0.6737  0.0262 -0.0118
37719SOL    HW118287   6.654   3.382   7.823  0.7988 -0.5532 -0.3622
37719SOL    HW218288   6.624   3.400   7.676  2.0808 -1.1678 -0.7068
37720SOL     OW18289   3.114  11.009   3.810  0.0563  0.0927  0.5076
37720SOL    HW118290   3.089  11.092   3.851  1.0215  0.4740  0.3341
37720SOL    HW218291   3.200  10.989   3.845  1.0009  0.5368 -1.4793
37721SOL     OW18292   9.531   7.358   9.443  0.0931  0.6705  0.5713
37721SOL    HW118293   9.551   7.322   9.529 -0.1770  0.5707  0.5945
37721SOL    HW218294   9.457   7.306   9.412  1.6526 -0.8410 -0.7183
37722SOL     OW18295   8.332   4.516   5.440 -0.1147 -0.6372 -0.2326
37722SOL    HW118296   8.381   4.574   5.382  0.5183 -1.7021 -0.7721
37722SOL    HW218297   8.302   4.445   5.383 -2.0846 -0.1288  0.1364
37723SOL     OW18298   8.801  10.419   0.386 -0.2569 -1.1877 -0.7176
37723SOL    HW118299   8.841  10.499   0.421  1.2300 -0.0009 -4.8025
37723SOL    HW218300   8.712  10.420   0.420  0.0150  1.7670  0.0618
37724SOL     OW18301   0.818  11.244   1.032  0.1765 -0.4308  0.9106
37724SOL    HW118302   0.808  11.149   1.018  2.0109 -0.5360  0.2812
37724SOL    HW218303   0.881  11.272   0.966 -2.5913  1.8101 -0.9203
37725SOL     OW18304   3.015   3.887   6.317 -0.1185 -0.6535  0.4186
37725SOL    HW118305   2.970   3.862   6.398 -1.9896 -0.1421 -0.4542
37725SOL    HW218306   2.966   3.844   6.248 -0.0582  0.9853 -0.6566
37726SOL     OW18307   4.794   2.787   7.091  0.5524  0.5572  0.0335
37726SOL    HW118308   4.741   2.866   7.090  1.1128  0.9551  1.2451
37726SOL    HW218309   4.798   2.761   7.183 -0.3095 -1.3565 -0.4436
37727SOL     OW18310   7.590   5.917   1.607  0.2224  0.7245  0.0844
37727SOL    HW118311   7.560   5.851   1.669  1.3931  1.5114  1.5223
37727SOL    HW218312   7.510   5.960   1.577 -0.4456 -0.4802  0.1037
37728SOL     OW18313   1.125   3.441   9.786  0.3816 -0.3017 -0.3952
37728SOL    HW118314   1.083   3.508   9.840  2.2958 -0.3920  1.2439
37728SOL    HW218315   1.052   3.397   9.742 -1.1574  0.3716  1.4185
37729SOL     OW18316   1.239   8.491   2.601 -0.0085  0.0119 -0.4805
37729SOL    HW118317   1.261   8.572   2.556 -1.5759  1.5611  1.4569
37729SOL    HW218318   1.278   8.422   2.547  2.5017  2.1120 -1.4377
37730SOL     OW18319   7.509   2.070  10.458 -0.1614  0.2070 -0.8105
37730SOL    HW118320   7.500   1.975  10.470  0.3840  0.1742 -0.6339
37730SOL    HW218321   7.603   2.086  10.469  0.1007  0.4387 -3.1407
37731SOL     OW18322   9.641   2.671   1.340  0.3867  0.3688 -0.2831
37731SOL    HW118323   9.594   2.676   1.257 -0.8701 -2.9462  0.1297
37731SOL    HW218324   9.598   2.599   1.387  3.1627  0.0522  1.9027
37732SOL     OW18325   3.256   7.373   4.569  0.2011  0.0990  0.0728
37732SOL    HW118326   3.208   7.292   4.586  2.4245 -1.1165  0.7724
37732SOL    HW218327   3.282   7.405   4.655 -2.3759  2.7243 -0.0202
37733SOL     OW18328   9.007   7.674   6.297 -0.2004 -0.2157  0.7515
37733SOL    HW118329   9.028   7.654   6.206 -0.8625  1.9635  0.0834
37733SOL    HW218330   9.071   7.625   6.348  0.4754 -1.0891 -0.8934
37734SOL     OW18331  10.554  10.213   3.776  0.1437 -0.1323  0.5346
37734SOL    HW118332  10.584  10.153   3.708  0.5067  1.4987 -0.7711
37734SOL    HW218333  10.589  10.176   3.857  1.0931 -1.2102 -0.3462
37735SOL     OW18334   1.395   8.051   9.037  0.3062 -0.8614 -0.0763
37735SOL    HW118335   1.441   8.098   9.107  0.0485 -0.1461 -0.3791
37735SOL    HW218336   1.343   8.119   8.994  0.0295 -1.4091 -0.6023
37736SOL     OW18337   0.227   4.495   7.987  0.2594  0.0308  0.5186
37736SOL    HW118338   0.193   4.426   7.931  0.1283  1.2688 -0.9524
37736SOL    HW218339   0.177   4.487   8.068 -0.7055 -0.7409 -0.1405
37737SOL     OW18340  11.043   7.949   9.584  0.4039  0.0701 -0.0266
37737SOL    HW118341  11.131   7.979   9.608  1.4016 -1.2151 -1.8966
37737SOL    HW218342  10.984   8.004   9.636  2.3113  0.4327  1.8363
37738SOL     OW18343   5.097   2.239  11.130 -0.1423 -0.4650  0.5601
37738SOL    HW118344   5.129   2.301  11.195  0.3941 -1.2679  1.0708
37738SOL    HW218345   5.028   2.191  11.176 -0.9117  0.1028  0.0041
37739SOL     OW18346   4.389   1.357   5.650 -0.3449  0.5166 -0.2232
37739SOL    HW118347   4.355   1.270   5.668 -0.6613  0.7198  0.1498
37739SOL    HW218348   4.397   1.399   5.735 -2.1409  1.5938 -0.5661
37740SOL     OW18349   0.783   7.653   7.397 -0.2135  0.2325  0.4876
37740SOL    HW118350   0.712   7.616   7.451  1.3052 -0.2222  2.2119
37740SOL    HW218351   0.758   7.744   7.384 -2.2794 -0.5007 -0.8826
37741SOL     OW18352   1.186   3.002   4.392  0.3572 -0.0791  0.0441
37741SOL    HW118353   1.146   3.053   4.322  1.8286  0.1517 -0.6455
37741SOL    HW218354   1.232   3.066   4.446 -0.2357 -0.3314  0.8684
37742SOL     OW18355   3.019   1.257   1.940  0.3718  0.1205 -0.3465
37742SOL    HW118356   3.062   1.234   1.858 -0.9502  1.6512 -1.5080
37742SOL    HW218357   3.018   1.353   1.941  0.8030  0.1220  1.6996
37743SOL     OW18358   9.691   0.852   9.549 -0.3423 -0.7414 -0.1827
37743SOL    HW118359   9.744   0.786   9.594 -1.1753 -1.3861 -0.1376
37743SOL    HW218360   9.730   0.858   9.461  1.1015  0.3076  0.4982
37744SOL     OW18361   8.203   5.083   8.213  0.4962  0.9228 -0.2775
37744SOL    HW118362   8.150   5.144   8.265 -1.5936 -0.5379 -0.6517
37744SOL    HW218363   8.231   5.016   8.275  0.9823  1.0986 -0.3072
37745SOL     OW18364   3.686   8.099   9.439  0.1238  0.5819 -0.3778
37745SOL    HW118365   3.599   8.120   9.405 -0.5170  0.8683  1.4115
37745SOL    HW218366   3.746   8.135   9.374 -1.0696  1.5602 -0.9604
37746SOL     OW18367   6.214   4.360  11.155  0.3043  0.1772  0.1008
37746SOL    HW118368   6.267   4.364  11.075 -1.4529 -0.3469 -1.1173
37746SOL    HW218369   6.200   4.451  11.180  2.4638  0.3167  0.9274
37747SOL     OW18370   8.366   9.186   8.883  0.3493  0.2594 -0.0337
37747SOL    HW118371   8.419   9.137   8.946  0.9765 -1.4354 -1.8576
37747SOL    HW218372   8.421   9.260   8.858  1.5830 -1.0635 -1.3240
37748SOL     OW18373   1.958   5.028   4.243  0.4993 -0.5428 -0.0237
37748SOL    HW118374   1.930   5.035   4.152 -0.0129 -2.4451 -0.0275
37748SOL    HW218375   1.920   5.104   4.286  1.1343  0.6237 -1.4916
37749SOL     OW18376   1.230  10.821   8.346 -0.0103 -0.4211 -0.0073
37749SOL    HW118377   1.238  10.911   8.312  0.1706 -0.4532 -0.0538
37749SOL    HW218378   1.320  10.797   8.368  0.1711 -1.1556 -1.4589
37750SOL     OW18379   8.413   7.296   0.627  0.3591 -0.0548  0.1697
37750SOL    HW118380   8.368   7.214   0.649 -1.1299 -0.0083 -2.5377
37750SOL    HW218381   8.506   7.273   0.630  0.0245 -1.3082  1.4905
37751SOL     OW18382   1.043   9.967   0.883 -0.7768  0.2450  0.3404
37751SOL    HW118383   0.951   9.948   0.905 -0.9969  0.1044 -0.6726
37751SOL    HW218384   1.065   9.903   0.816  0.6570 -0.9292  1.8785
37752SOL     OW18385   3.388   4.247   5.261 -0.2169  0.2003 -0.1230
37752SOL    HW118386   3.350   4.230   5.347 -0.8048 -0.8323 -0.5725
37752SOL    HW218387   3.390   4.342   5.253  0.8662  0.3286  1.4750
37753SOL     OW18388   2.473   5.108   6.525  0.3131  0.1111  0.5119
37753SOL    HW118389   2.524   5.053   6.465 -0.5839  1.1952 -1.3242
37753SOL    HW218390   2.520   5.192   6.526 -1.6990  1.3454 -1.7307
37754SOL     OW18391  10.681   0.130   5.735 -0.3599 -0.2274 -0.6533
37754SOL    HW118392  10.740   0.178   5.677 -0.9888  0.3408 -0.8210
37754SOL    HW218393  10.660   0.192   5.804 -0.3582 -0.6029 -0.3140
37755SOL     OW18394   0.631   1.514   2.488  0.3314  0.3746  0.3338
37755SOL    HW118395   0.634   1.547   2.398 -0.0112  0.9045  0.5132
37755SOL    HW218396   0.539   1.490   2.501  0.7120 -1.4143 -0.0534
37756SOL     OW18397   9.411   2.666   7.682  0.5137  0.0736  0.3915
37756SOL    HW118398   9.379   2.624   7.603  0.0944 -0.7212  0.9743
37756SOL    HW218399   9.506   2.664   7.674  0.4594  0.6394 -0.4161
37757SOL     OW18400  10.650   1.038   3.933  0.7503 -0.5925 -0.3017
37757SOL    HW118401  10.603   0.960   3.962  1.5843 -1.0590 -0.1988
37757SOL    HW218402  10.739   1.027   3.967  1.0919  0.0051 -0.9915
37758SOL     OW18403   0.286   6.839   1.791  0.1342  0.0511 -0.7405
37758SOL    HW118404   0.337   6.915   1.820  0.7378 -0.3429 -0.7385
37758SOL    HW218405   0.233   6.871   1.719  1.5008  0.1269 -1.7310
37759SOL     OW18406  11.050   7.634   5.632 -0.1093  0.5895 -0.6433
37759SOL    HW118407  11.122   7.571   5.640 -0.0322  0.5819 -1.3595
37759SOL    HW218408  11.008   7.634   5.718  0.7705  0.6161 -0.2113
37760SOL     OW18409   9.145   7.639   6.070 -0.1374 -0.3181  0.6745
37760SOL    HW118410   9.202   7.649   6.146  0.5627  0.7159  0.0328
37760SOL    HW218411   9.205   7.642   5.995 -0.9166 -0.4275  0.0435
37761SOL     OW18412   5.335   3.612   4.548 -0.3138 -0.6126 -0.1183
37761SOL    HW118413   5.292   3.678   4.601 -1.7777 -1.8162  0.2406
37761SOL    HW218414   5.353   3.540   4.608  0.7873 -0.7679 -0.6136
37762SOL     OW18415   8.748   6.027  10.826 -0.3442  0.4006 -0.3458
37762SOL    HW118416   8.826   6.023  10.771  0.1089 -0.5817  0.3607
37762SOL    HW218417   8.771   5.979  10.905 -1.4888  0.5576  0.1008
37763SOL     OW18418   1.578   9.105   0.899 -0.0606 -0.0855 -0.0150
37763SOL    HW118419   1.619   9.165   0.961  0.2707  0.2041 -0.5039
37763SOL    HW218420   1.652   9.068   0.850 -0.3517  0.1182 -0.6148
37764SOL     OW18421   0.517   6.187  10.825  0.0224 -0.4562 -0.1162
37764SOL    HW118422   0.486   6.146  10.745 -1.4573 -0.2394  0.3280
37764SOL    HW218423   0.611   6.170  10.826  0.2325  0.3900 -2.3697
37765SOL     OW18424   4.190   8.742   0.588  0.4040 -0.1753  0.3918
37765SOL    HW118425   4.203   8.696   0.505 -1.2921 -0.2370  0.1438
37765SOL    HW218426   4.207   8.675   0.655  0.2948 -0.5202  0.0755
37766SOL     OW18427   1.739   3.736   7.909 -0.3689 -0.1883 -0.2930
37766SOL    HW118428   1.781   3.656   7.876  0.7662  0.2271  0.0985
37766SOL    HW218429   1.697   3.709   7.991 -1.1205 -0.6769 -0.8366
37767SOL     OW18430  10.112   5.050   5.832  0.5064 -0.2448 -0.5934
37767SOL    HW118431  10.203   5.030   5.809  1.1638  1.7173  0.2023
37767SOL    HW218432  10.119   5.119   5.897 -1.5240 -1.3393  0.8124
37768SOL     OW18433   4.939   9.571   9.000  0.1448 -0.6884 -0.2653
37768SOL    HW118434   4.944   9.476   8.991 -2.3341 -0.6547 -2.3131
37768SOL    HW218435   4.962   9.605   8.914 -0.7141  0.5110 -0.0351
37769SOL     OW18436  11.212   8.119   8.687  0.4332 -0.4667 -0.2598
37769SOL    HW118437  11.210   8.201   8.734  1.4611 -0.1169 -0.8152
37769SOL    HW218438  11.127   8.078   8.707  0.0727  0.5396  0.3179
37770SOL     OW18439   7.910   6.422  11.187  0.1263  0.1007  0.0133
37770SOL    HW118440   7.912   6.400  11.280 -1.8777 -0.0601  0.0480
37770SOL    HW218441   8.001   6.419  11.159  0.8532  1.1193  2.1961
37771SOL     OW18442   3.096   7.039   1.328  0.1792 -0.0920  0.2586
37771SOL    HW118443   3.030   6.985   1.372  0.4980 -0.4620  0.2820
37771SOL    HW218444   3.178   7.017   1.372  0.4514 -0.2388 -0.3325
37772SOL     OW18445   7.736   3.054  10.905  0.0147  0.3099  0.1619
37772SOL    HW118446   7.693   3.087  10.826 -0.5726 -0.8353  0.0047
37772SOL    HW218447   7.691   3.100  10.976 -3.9110 -3.3761  0.2375
37773SOL     OW18448   6.410   6.846   1.620 -0.3737  0.1944  0.0142
37773SOL    HW118449   6.493   6.843   1.668 -0.2174 -2.4651 -0.3441
37773SOL    HW218450   6.409   6.932   1.579  1.9505  0.4803  0.4962
37774SOL     OW18451   8.440   5.074   6.185  0.0072 -0.2731  0.0628
37774SOL    HW118452   8.374   5.140   6.203  0.8092  0.6054 -0.2063
37774SOL    HW218453   8.428   5.052   6.093 -1.6313 -2.0471  0.6526
37775SOL     OW18454   6.103   3.336   7.074 -0.4521  0.1229  0.2500
37775SOL    HW118455   6.172   3.280   7.110 -1.0665 -1.2316 -0.6472
37775SOL    HW218456   6.145   3.421   7.061  0.8927 -0.5311  0.2478
37776SOL     OW18457   0.025   9.351   0.789 -0.0333 -0.5251  0.1405
37776SOL    HW118458  -0.065   9.321   0.800 -0.6351  0.7581 -1.1401
37776SOL    HW218459   0.030   9.381   0.698  1.0361  1.5311  0.8524
37777SOL     OW18460  10.686  11.064   8.131  0.3050  0.7247  0.3038
37777SOL    HW118461  10.727  11.124   8.069  0.7858 -0.4903 -0.5792
37777SOL    HW218462  10.592  11.076   8.118  0.3980  1.2126  0.0703
37778SOL     OW18463   0.010   2.026  10.771  0.7675  0.5244 -0.4776
37778SOL    HW118464   0.002   2.045  10.678  0.4297 -4.1632 -1.5216
37778SOL    HW218465   0.105   2.029  10.788  0.7856  2.0239 -0.8028
37779SOL     OW18466  10.841   3.168   0.429  0.2854  0.1426 -0.2575
37779SOL    HW118467  10.872   3.093   0.480 -0.3911  0.4938  0.6985
37779SOL    HW218468  10.773   3.132   0.373 -2.0423  0.5109  2.2206
37780SOL     OW18469   7.577   8.910   5.766  0.1528 -0.0850  0.1050
37780SOL    HW118470   7.543   8.875   5.848  0.2496  1.1330  0.6828
37780SOL    HW218471   7.514   8.881   5.700  0.3216 -1.4468  0.5443
37781SOL     OW18472   0.097   6.462   3.258  0.3119 -0.6750 -0.1859
37781SOL    HW118473   0.134   6.378   3.232  0.1483 -0.7216 -0.2666
37781SOL    HW218474   0.007   6.460   3.227  0.8365  0.2695 -1.8208
37782SOL     OW18475   3.065   1.523   1.235  0.2668  0.3624  0.5295
37782SOL    HW118476   3.070   1.588   1.165  0.9664 -0.2901 -0.0417
37782SOL    HW218477   3.155   1.494   1.248 -0.0369 -0.5022  0.7622
37783SOL     OW18478   7.623   7.057   4.951 -0.7280  0.7032 -0.3402
37783SOL    HW118479   7.580   7.100   5.025 -0.1388  3.1897 -1.3991
37783SOL    HW218480   7.554   7.006   4.910 -1.5639  0.9906  0.6745
37784SOL     OW18481   2.576   4.681   4.917  0.8625 -0.6251 -0.5035
37784SOL    HW118482   2.592   4.633   4.836 -1.3643 -0.5471 -1.0154
37784SOL    HW218483   2.641   4.752   4.916  0.7207 -0.5049 -2.3139
37785SOL     OW18484   9.357   8.511   5.832 -0.1494  0.7848 -0.3996
37785SOL    HW118485   9.305   8.476   5.904  2.5060  0.2036  1.2782
37785SOL    HW218486   9.304   8.583   5.798 -1.9522  0.3556  1.3954
37786SOL     OW18487   4.469   8.717   0.033  0.1471 -0.0324  0.1193
37786SOL    HW118488   4.445   8.688  -0.055  0.6821 -0.1130 -0.0012
37786SOL    HW218489   4.389   8.707   0.084  0.2070 -1.3069 -0.0238
37787SOL     OW18490   4.761   3.284   8.917 -0.2242 -0.3659 -0.0927
37787SOL    HW118491   4.818   3.248   8.849  1.2304  0.3471  0.7334
37787SOL    HW218492   4.818   3.342   8.968 -1.8627  0.9520  0.2827
37788SOL     OW18493   1.457   6.284   3.601 -0.2937  0.3989 -0.1430
37788SOL    HW118494   1.450   6.272   3.695 -1.3137  1.0697 -0.1310
37788SOL    HW218495   1.428   6.200   3.564  0.9518 -0.1702  0.1543
37789SOL     OW18496   1.334   0.486   6.176  0.4203 -0.8659 -0.1301
37789SOL    HW118497   1.271   0.517   6.111 -1.7154  0.9533  2.6748
37789SOL    HW218498   1.329   0.550   6.247  2.9679 -2.5467  1.6739
37790SOL     OW18499   9.583  11.139   2.840  0.3673  0.2442 -0.1813
37790SOL    HW118500   9.662  11.186   2.814  0.2975  0.6852  0.3935
37790SOL    HW218501   9.552  11.185   2.918 -0.7937  0.4360 -0.7478
37791SOL     OW18502   1.606  10.882   5.851 -0.1818 -0.4328  0.6911
37791SOL    HW118503   1.657  10.893   5.770  1.0706  1.5509  1.6965
37791SOL    HW218504   1.666  10.909   5.920 -1.9056 -0.1393  2.0965
37792SOL     OW18505   2.976   2.504   3.021 -0.5138 -0.1948 -0.2426
37792SOL    HW118506   2.893   2.459   3.037  0.5012 -2.8335 -2.1081
37792SOL    HW218507   3.043   2.439   3.040  1.0183  0.7051 -2.3874
37793SOL     OW18508   5.425   2.458   4.937  0.0882  0.0571 -0.4615
37793SOL    HW118509   5.441   2.541   4.892 -0.2864 -0.1152 -0.9109
37793SOL    HW218510   5.333   2.438   4.920 -0.6224  0.9615  1.9940
37794SOL     OW18511   4.165   9.191  10.898  0.1399  0.3695 -0.3988
37794SOL    HW118512   4.258   9.214  10.910 -0.0846 -0.3581  3.2539
37794SOL    HW218513   4.129   9.265  10.849  2.3663  1.2466 -0.8155
37795SOL     OW18514   0.270   0.597   1.025 -0.3133 -0.6142 -0.7719
37795SOL    HW118515   0.216   0.577   1.102 -0.7532 -0.1977 -0.9724
37795SOL    HW218516   0.343   0.648   1.060 -1.0083  0.3981 -0.7512
37796SOL     OW18517   7.587   2.641  10.089 -0.0998  0.6103  0.1863
37796SOL    HW118518   7.556   2.561  10.045  2.0769 -0.2326  0.1151
37796SOL    HW218519   7.510   2.697  10.093 -0.9785 -0.3213 -2.4081
37797SOL     OW18520   3.074   9.922   0.837  0.0609 -0.0127 -0.0001
37797SOL    HW118521   2.984   9.954   0.838  0.0190 -0.0440 -1.5143
37797SOL    HW218522   3.067   9.827   0.848 -0.0620  0.0223  0.2199
37798SOL     OW18523  10.155   1.619   4.392 -0.4776  0.4095  0.0344
37798SOL    HW118524  10.214   1.589   4.322 -1.8950  1.8017 -1.7960
37798SOL    HW218525  10.182   1.569   4.469  1.1498 -1.1293 -1.4926
37799SOL     OW18526  10.969   5.534   6.050 -0.1477  0.4914  0.4019
37799SOL    HW118527  10.917   5.466   6.007  0.5847  0.3231 -0.2375
37799SOL    HW218528  11.008   5.583   5.977  0.3342  0.8082  0.8744
37800SOL     OW18529  10.502   9.555  10.311 -0.0193 -0.0668  0.2030
37800SOL    HW118530  10.590   9.520  10.304  0.6496  1.4356  0.8414
37800SOL    HW218531  10.457   9.498  10.373  0.8281 -0.2148  0.6794
37801SOL     OW18532   2.088  10.564  10.000  0.4343 -0.0183 -0.8070
37801SOL    HW118533   1.998  10.594  10.013  0.5167 -0.7419  1.6372
37801SOL    HW218534   2.136  10.643   9.975 -0.2889  0.9903  0.8770
37802SOL     OW18535   8.509   1.335   7.338  0.0333  0.3109 -0.3514
37802SOL    HW118536   8.552   1.251   7.352  0.1243  0.2017 -1.2410
37802SOL    HW218537   8.505   1.345   7.243 -0.5788  1.0053 -0.2653
37803SOL     OW18538   3.042   5.811   3.107  0.0704 -0.0046  0.0021
37803SOL    HW118539   3.025   5.881   3.171 -2.0291 -0.9123  0.4674
37803SOL    HW218540   3.039   5.730   3.158  2.1242 -0.5063 -0.6042
37804SOL     OW18541   5.871   5.245   5.307  0.4402 -0.0700 -0.2303
37804SOL    HW118542   5.866   5.328   5.355  0.5223  0.5481 -1.2643
37804SOL    HW218543   5.907   5.270   5.221 -0.6025 -1.0051 -0.9460
37805SOL     OW18544   0.993   6.854   4.330  0.1371  0.4888 -0.1974
37805SOL    HW118545   0.994   6.853   4.234 -0.6776 -1.8893 -0.2212
37805SOL    HW218546   0.908   6.891   4.353  0.0674  0.4700 -0.4198
37806SOL     OW18547   2.956   0.608   8.081  0.3617  0.1650 -0.7427
37806SOL    HW118548   2.948   0.703   8.077  2.7251  0.3743 -1.2043
37806SOL    HW218549   2.949   0.578   7.991 -0.4987 -0.1275 -0.5885
37807SOL     OW18550   5.815   4.639   5.361  0.5517 -0.7231 -0.6317
37807SOL    HW118551   5.744   4.702   5.379  2.5132  1.2641  0.4454
37807SOL    HW218552   5.827   4.593   5.444  1.6067  0.1212 -0.2972
37808SOL     OW18553   7.853  10.733   0.467 -0.2105 -0.1880  0.6181
37808SOL    HW118554   7.774  10.691   0.503 -1.1754 -0.1334 -1.3744
37808SOL    HW218555   7.925  10.694   0.516 -1.4297 -0.5940  2.1515
37809SOL     OW18556   0.088   3.785   8.516 -0.4837 -0.7378  0.1528
37809SOL    HW118557   0.033   3.837   8.457  0.1639 -0.2672 -0.0411
37809SOL    HW218558   0.075   3.695   8.487  0.7464 -0.4037 -1.4786
37810SOL     OW18559   1.710   3.595   8.818  0.0465 -0.6921 -0.0619
37810SOL    HW118560   1.712   3.548   8.902 -0.0743 -1.3621 -0.4330
37810SOL    HW218561   1.628   3.643   8.819  0.7609  0.5570  0.8825
37811SOL     OW18562   6.655   2.101   1.304  1.1024  0.1479 -0.6076
37811SOL    HW118563   6.692   2.021   1.267  1.1391  0.3663 -1.0468
37811SOL    HW218564   6.584   2.125   1.244 -0.1914 -0.6241  0.5787
37812SOL     OW18565   7.422   7.822   7.542  0.7901  0.3392  0.2054
37812SOL    HW118566   7.353   7.862   7.490 -0.0126 -2.2219 -0.7806
37812SOL    HW218567   7.501   7.869   7.517  0.0723  0.5067 -1.8056
37813SOL     OW18568   2.301   0.969   1.288 -0.0647 -0.6402  0.0931
37813SOL    HW118569   2.281   0.961   1.382  1.1854  0.2656  0.4376
37813SOL    HW218570   2.216   0.984   1.247 -0.6566 -1.2859  1.0490
37814SOL     OW18571   1.963   8.045   6.702  0.0307 -0.0132 -0.0183
37814SOL    HW118572   2.027   8.035   6.773  1.5057  0.6439 -1.2175
37814SOL    HW218573   2.003   8.108   6.642 -0.8403 -1.1024 -1.8119
37815SOL     OW18574   4.541   9.933   3.304  0.0169 -0.4068 -0.1725
37815SOL    HW118575   4.606   9.983   3.255 -0.6495  0.5232 -0.1226
37815SOL    HW218576   4.461   9.986   3.298 -0.6777 -1.4326 -0.0593
37816SOL     OW18577  10.137   2.085   8.325  0.1135 -0.5595  0.0517
37816SOL    HW118578  10.049   2.051   8.343 -0.4723  1.0941  0.3468
37816SOL    HW218579  10.160   2.133   8.404  1.3366 -1.0841  0.0134
37817SOL     OW18580   2.389   5.359  11.196 -1.0596 -0.5116 -0.3215
37817SOL    HW118581   2.432   5.325  11.275 -1.6279 -0.7053 -0.0966
37817SOL    HW218582   2.415   5.451  11.192 -1.7976 -0.2612  0.6025
37818SOL     OW18583  10.525   0.634   5.019 -0.2690  0.1567  0.0987
37818SOL    HW118584  10.570   0.550   5.028 -1.3466 -0.4139  0.1470
37818SOL    HW218585  10.432   0.613   5.019 -0.5292  1.2041 -1.3506
37819SOL     OW18586   5.426   6.983   3.742 -0.0559 -0.4070  0.0397
37819SOL    HW118587   5.420   6.942   3.656  1.3180 -1.3140  0.3609
37819SOL    HW218588   5.520   6.992   3.759 -0.2903 -0.7684  1.6865
37820SOL     OW18589   4.604   5.750   8.867 -0.2323  0.0928 -0.7493
37820SOL    HW118590   4.570   5.838   8.884 -1.0985 -0.1865 -1.0110
37820SOL    HW218591   4.541   5.691   8.908  0.5220 -0.4019 -0.2832
37821SOL     OW18592   6.794   6.743   0.431 -0.3538 -0.0797  0.4764
37821SOL    HW118593   6.757   6.685   0.365  1.3200  0.8312 -1.3254
37821SOL    HW218594   6.881   6.706   0.450 -0.3196  0.3761  1.2231
37822SOL     OW18595   6.282   8.954   2.193 -0.7109  0.1474  0.0343
37822SOL    HW118596   6.310   9.043   2.212  1.0064 -0.2938 -0.3490
37822SOL    HW218597   6.363   8.905   2.181 -1.6513 -1.1844 -1.1213
37823SOL     OW18598   3.752   2.838  10.076  0.6884 -0.7261 -0.1807
37823SOL    HW118599   3.694   2.906  10.110  1.4852 -0.8333  1.4702
37823SOL    HW218600   3.820   2.885  10.029  1.7770 -0.2862  1.7796
37824SOL     OW18601   1.618   7.205   2.144  0.3533 -0.1378  0.2318
37824SOL    HW118602   1.656   7.233   2.061  0.9123  0.6519  0.7407
37824SOL    HW218603   1.643   7.114   2.154 -0.6473 -0.5506 -0.9900
37825SOL     OW18604   2.877   3.862   6.564  0.5991 -0.1566  0.6407
37825SOL    HW118605   2.822   3.808   6.621  1.7737 -1.8299  0.2273
37825SOL    HW218606   2.838   3.950   6.569 -0.2065 -0.6037  2.8296
37826SOL     OW18607   3.531   5.080   6.839  0.2157  0.2095  0.0304
37826SOL    HW118608   3.600   5.093   6.904  0.9830  0.4658 -0.8209
37826SOL    HW218609   3.465   5.146   6.861  0.8312  0.8200  0.0860
37827SOL     OW18610   9.729   7.834   3.081  0.1463  0.4285 -0.6689
37827SOL    HW118611   9.670   7.903   3.110  0.9033  0.1275  1.6983
37827SOL    HW218612   9.745   7.852   2.988 -1.1989  2.2779 -0.5517
37828SOL     OW18613   6.291   3.970   7.733 -0.0814 -0.1786 -0.0931
37828SOL    HW118614   6.369   3.953   7.787  1.0354  3.2880 -0.4845
37828SOL    HW218615   6.320   3.959   7.643 -0.8994 -1.9371 -0.1702
37829SOL     OW18616   4.563   0.249   6.414 -0.0245 -0.4510  0.4464
37829SOL    HW118617   4.579   0.330   6.366 -0.0349 -0.6323  0.1377
37829SOL    HW218618   4.504   0.199   6.358 -0.8272 -0.2387  1.0878
37830SOL     OW18619   7.389   0.859   4.392  0.0026  0.0212  0.4432
37830SOL    HW118620   7.475   0.836   4.356 -0.5906 -1.7238  0.0747
37830SOL    HW218621   7.393   0.830   4.483  0.0097  0.5080  0.5995
37831SOL     OW18622   8.492   2.849   2.191  0.2948 -0.8770 -0.0157
37831SOL    HW118623   8.435   2.821   2.264  1.1698 -3.2542 -0.2053
37831SOL    HW218624   8.450   2.813   2.113 -0.2927  1.1271 -0.6498
37832SOL     OW18625   9.769   1.293   5.808  0.5225  0.0982 -0.2963
37832SOL    HW118626   9.740   1.227   5.746  2.1025 -0.3450 -0.5838
37832SOL    HW218627   9.790   1.244   5.888  1.0720  0.3161 -0.3007
37833SOL     OW18628   5.782   0.769   2.882  0.2638  0.2530  0.3776
37833SOL    HW118629   5.723   0.811   2.819 -1.7984 -1.7117  0.9337
37833SOL    HW218630   5.832   0.707   2.829  0.6993  0.7792  0.1701
37834SOL     OW18631   0.511   2.857   5.246  0.5432 -0.0178 -0.3770
37834SOL    HW118632   0.502   2.893   5.334  0.3252 -0.6920 -0.1128
37834SOL    HW218633   0.423   2.828   5.223  1.1562 -2.8011  0.5077
37835SOL     OW18634   2.387   7.296   3.867 -0.3267 -0.2539 -0.0461
37835SOL    HW118635   2.433   7.214   3.850  2.0320  1.4147 -2.0353
37835SOL    HW218636   2.297   7.279   3.839  0.3431 -1.8973 -1.2967
37836SOL     OW18637   9.532   4.953   6.959 -0.1373 -0.0473 -0.0503
37836SOL    HW118638   9.524   5.004   7.039 -0.6076 -1.1775  0.6459
37836SOL    HW218639   9.569   4.869   6.988  0.5371 -0.1327 -1.1442
37837SOL     OW18640   3.997   4.987  10.807  0.7643 -0.6054  0.0068
37837SOL    HW118641   3.952   5.014  10.887 -1.0089 -1.8067 -0.5343
37837SOL    HW218642   4.054   5.060  10.785 -0.0490  0.4755  1.4058
37838SOL     OW18643   0.462   5.841   7.161  0.1945  0.3293 -0.0835
37838SOL    HW118644   0.500   5.810   7.243 -1.6261 -0.4695  0.4821
37838SOL    HW218645   0.399   5.908   7.187 -0.2230  0.2439 -0.8475
37839SOL     OW18646   7.163  10.249   8.557 -0.5237 -0.0690  0.6221
37839SOL    HW118647   7.124  10.161   8.556 -0.6446 -0.0189  0.8233
37839SOL    HW218648   7.242  10.239   8.609  0.3209 -0.4187 -0.7148
37840SOL     OW18649  11.035   1.994  10.168  0.1369  0.1099  0.6027
37840SOL    HW118650  11.028   1.942  10.249 -0.7734 -2.4090 -1.0476
37840SOL    HW218651  10.948   2.030  10.155 -0.8444 -2.7859 -1.3442
37841SOL     OW18652   9.081   3.073  10.819 -0.4153 -0.2807  0.2362
37841SOL    HW118653   9.051   3.112  10.901 -1.0896  0.0201 -0.1493
37841SOL    HW218654   9.153   3.129  10.790 -0.7523  0.1210  0.1756
37842SOL     OW18655   5.630  10.092   8.006 -0.1374  0.5868  0.2576
37842SOL    HW118656   5.725  10.090   8.020 -0.0699 -1.0433 -0.2319
37842SOL    HW218657   5.619  10.060   7.916 -1.1682  0.5568  0.3898
37843SOL     OW18658   8.109   3.029   8.645  0.1210  0.0459  0.7246
37843SOL    HW118659   8.147   2.959   8.698 -1.6485 -1.9578 -0.5778
37843SOL    HW218660   8.026   2.993   8.614 -0.1058  2.1672 -1.2149
37844SOL     OW18661   5.958   1.570   1.368 -0.2095  0.2050  0.6937
37844SOL    HW118662   6.053   1.575   1.375  0.0814 -0.9937 -1.7182
37844SOL    HW218663   5.941   1.479   1.345 -1.7485  0.9096 -1.1016
37845SOL     OW18664   6.925   6.295   9.823  0.1232 -0.0639 -0.0889
37845SOL    HW118665   6.904   6.258   9.909  0.0144 -0.9422 -0.4848
37845SOL    HW218666   6.988   6.364   9.841 -0.3119  0.1156  0.7541
37846SOL     OW18667   3.383   0.747   6.005  0.1704  0.5978 -0.4739
37846SOL    HW118668   3.461   0.771   5.955  0.7683 -1.7053 -0.7035
37846SOL    HW218669   3.407   0.666   6.049 -2.0135 -0.0124 -0.3411
37847SOL     OW18670   4.414   0.162   0.697 -0.4854  0.2833 -0.0079
37847SOL    HW118671   4.415   0.070   0.672 -0.5767  0.3617 -0.3045
37847SOL    HW218672   4.502   0.194   0.677 -0.4310  0.2444  0.1639
37848SOL     OW18673   3.900   7.226  10.285 -0.3059 -0.1256  0.1214
37848SOL    HW118674   3.898   7.150  10.344 -1.4331  0.0822  0.3753
37848SOL    HW218675   3.828   7.210  10.224  1.5314 -0.8737 -1.8976
37849SOL     OW18676   4.516  11.157   3.039  0.1106  0.0026 -0.1230
37849SOL    HW118677   4.514  11.090   3.107 -0.8275  1.0283  0.8704
37849SOL    HW218678   4.474  11.115   2.964  2.1427 -1.5202 -0.4644
37850SOL     OW18679   9.327   3.755   5.483 -0.1036  0.2973 -0.2962
37850SOL    HW118680   9.380   3.814   5.537  1.7592 -0.0369 -1.7136
37850SOL    HW218681   9.272   3.813   5.430 -0.9669  0.6464  0.9415
37851SOL     OW18682   0.048   9.904  11.038 -0.6794 -0.8003  0.4520
37851SOL    HW118683  -0.035   9.925  11.080 -0.1984 -1.0041  1.5280
37851SOL    HW218684   0.084   9.989  11.012 -1.0870 -0.6888  0.2569
37852SOL     OW18685  11.299   9.223  10.588  0.1416  0.8837 -0.8636
37852SOL    HW118686  11.249   9.149  10.622  1.9116  0.0519  0.0083
37852SOL    HW218687  11.236   9.273  10.536 -1.1572 -1.0753 -1.2383
37853SOL     OW18688   6.814   3.480   0.540 -0.0700  0.3144  0.0935
37853SOL    HW118689   6.824   3.391   0.507 -1.3873  0.4068 -0.6260
37853SOL    HW218690   6.900   3.521   0.530 -0.5400  0.5069 -3.8034
37854SOL     OW18691   2.933   2.129  10.094  0.2886  0.0237 -0.0583
37854SOL    HW118692   2.901   2.174  10.016  1.0721  2.0162  0.7253
37854SOL    HW218693   3.027   2.148  10.095  0.6853 -1.9037  0.1257
37855SOL     OW18694  10.813   3.410   7.063  0.0572  0.1270 -0.7709
37855SOL    HW118695  10.846   3.467   7.132 -1.9364  0.4476 -0.0621
37855SOL    HW218696  10.886   3.402   7.001  1.4255  0.8498  0.7277
37856SOL     OW18697   2.976   6.837   5.735 -0.0195  0.7912 -0.2821
37856SOL    HW118698   3.040   6.897   5.697 -0.2296  2.2575  1.5872
37856SOL    HW218699   2.892   6.880   5.723 -0.3473  0.1408 -0.3099
37857SOL     OW18700   1.920   7.984  10.796  0.5288 -0.0400  0.3283
37857SOL    HW118701   1.916   7.964  10.889 -1.4283 -0.5303  0.1658
37857SOL    HW218702   1.846   7.936  10.758 -0.4269  2.3922 -1.0292
37858SOL     OW18703   2.432   2.199   3.413  0.2280 -0.4915  0.0534
37858SOL    HW118704   2.517   2.162   3.435 -0.9435 -1.7728  2.5812
37858SOL    HW218705   2.390   2.132   3.360  0.4389 -0.2455 -0.4244
37859SOL     OW18706   5.308  10.251   9.317 -0.2285 -0.2598  0.5543
37859SOL    HW118707   5.378  10.197   9.281  1.3445  0.3604  2.6075
37859SOL    HW218708   5.348  10.338   9.327 -1.6086  0.3688  0.7305
37860SOL     OW18709   9.617   8.799   6.882 -0.1696 -0.3212 -0.3334
37860SOL    HW118710   9.683   8.790   6.813  1.0647  0.7377  0.6869
37860SOL    HW218711   9.597   8.709   6.908  1.4474 -0.6420 -0.1268
37861SOL     OW18712   0.431   5.619  10.359  0.4388 -0.2863  0.1161
37861SOL    HW118713   0.479   5.543  10.327  0.8145  0.4954 -1.2404
37861SOL    HW218714   0.342   5.587  10.375  0.7432 -1.1350  0.1326
37862SOL     OW18715   6.843   3.255   8.272  0.1560 -0.0552 -0.2600
37862SOL    HW118716   6.833   3.334   8.325 -0.1034 -0.6039  0.5224
37862SOL    HW218717   6.921   3.212   8.308 -0.2824 -0.6584 -0.0185
37863SOL     OW18718   6.194   0.452   0.865 -0.3716 -0.7936  0.1620
37863SOL    HW118719   6.191   0.356   0.868 -0.0466 -0.8572 -1.1031
37863SOL    HW218720   6.267   0.476   0.922  1.0663 -1.4397 -1.3753
37864SOL     OW18721   8.058   5.892   1.148 -0.2290 -0.6594  0.1014
37864SOL    HW118722   8.041   5.984   1.169  3.1279 -0.0543  0.4573
37864SOL    HW218723   8.015   5.878   1.064  0.7763  1.7478 -0.8306
37865SOL     OW18724   5.022   8.794  11.138  0.4447 -0.0155 -0.5872
37865SOL    HW118725   4.938   8.750  11.148  0.5904 -0.4114 -1.0810
37865SOL    HW218726   5.063   8.751  11.063  1.1741  0.0359 -0.2289
37866SOL     OW18727   5.697   2.942   0.986  0.4530  0.0249  0.0400
37866SOL    HW118728   5.639   3.005   0.942 -2.3559 -2.3874  0.1684
37866SOL    HW218729   5.676   2.951   1.079  2.1055  0.9056  0.3335
37867SOL     OW18730   8.654   4.397   4.118  0.2059 -0.3545 -0.1227
37867SOL    HW118731   8.607   4.314   4.112  0.5516 -0.5702  0.1743
37867SOL    HW218732   8.738   4.375   4.158 -0.1610  0.3222  1.0349
37868SOL     OW18733   8.259   5.634  10.461  0.0044 -0.2205 -0.2508
37868SOL    HW118734   8.287   5.629  10.552 -1.5427 -0.4537  0.2174
37868SOL    HW218735   8.269   5.545  10.428 -2.1626 -0.7656  0.5166
37869SOL     OW18736   0.273   2.037  10.839  0.0581 -0.6272  0.6952
37869SOL    HW118737   0.338   2.012  10.904  0.3799  1.3636  1.1815
37869SOL    HW218738   0.308   2.007  10.756  0.2073 -2.1446  1.2959
37870SOL     OW18739   6.597   3.489   0.803  0.1318  0.1096 -0.3805
37870SOL    HW118740   6.677   3.437   0.796  0.1960  0.1118  0.3271
37870SOL    HW218741   6.620   3.560   0.863  0.0282  0.9308 -1.2922
37871SOL     OW18742   9.779   1.188   9.092  0.5027 -0.2336 -0.0585
37871SOL    HW118743   9.863   1.162   9.130 -0.3896 -2.2891  0.5837
37871SOL    HW218744   9.801   1.219   9.004  1.7497 -2.6430 -0.6656
37872SOL     OW18745   2.186   4.977   2.819 -0.0661  0.3443 -0.0534
37872SOL    HW118746   2.197   4.949   2.910  0.2886 -1.6020 -0.6687
37872SOL    HW218747   2.260   4.939   2.773 -1.0943 -0.0092 -1.4565
37873SOL     OW18748   1.643   9.878   6.659 -0.4154  0.2466 -0.2885
37873SOL    HW118749   1.608   9.793   6.687 -0.7344  0.2906 -0.5531
37873SOL    HW218750   1.676   9.918   6.739 -1.2531  0.3365  0.0212
37874SOL     OW18751   2.271   5.312   9.430 -0.1837 -0.0289  0.0548
37874SOL    HW118752   2.344   5.273   9.382  0.2143  0.4577  0.2579
37874SOL    HW218753   2.230   5.371   9.367  0.4908  0.7970  0.3888
37875SOL     OW18754   0.817   7.000   5.654 -0.3584  0.1201  0.1811
37875SOL    HW118755   0.859   6.925   5.694 -1.2316 -1.0512 -1.0610
37875SOL    HW218756   0.832   6.989   5.560 -1.6086  0.7946 -0.1101
37876SOL     OW18757   7.566   0.968   3.520  0.1865 -0.0822  0.3938
37876SOL    HW118758   7.492   0.916   3.487  2.0218 -2.6424  0.2241
37876SOL    HW218759   7.614   0.994   3.441  0.3565  0.2779  0.6123
37877SOL     OW18760  10.098   2.105   5.898  0.4842  0.0304  0.6692
37877SOL    HW118761  10.084   2.151   5.981 -1.9168 -0.3568  0.5275
37877SOL    HW218762  10.193   2.107   5.885  0.6491  2.7295  1.9070
37878SOL     OW18763   7.721  10.936   6.217 -0.5661  0.6041 -0.0133
37878SOL    HW118764   7.712  11.004   6.150  1.0786  0.7122 -0.1446
37878SOL    HW218765   7.752  10.982   6.295  1.7577 -0.1468 -0.4644
37879SOL     OW18766   5.919   3.690   9.080 -0.2983  0.4115 -0.1429
37879SOL    HW118767   5.985   3.670   9.147  0.8078 -1.0992 -1.6463
37879SOL    HW218768   5.849   3.627   9.096  0.5775 -0.8445 -1.2577
37880SOL     OW18769   8.369   8.305   4.894 -0.3985  0.6115 -0.1985
37880SOL    HW118770   8.281   8.269   4.902 -0.2668  0.1479 -0.7804
37880SOL    HW218771   8.399   8.277   4.807  0.7865 -0.2865  0.4739
37881SOL     OW18772   6.477   9.735   3.914 -0.3353  0.1927  0.0009
37881SOL    HW118773   6.455   9.647   3.883 -0.3835  0.8010 -1.7297
37881SOL    HW218774   6.563   9.725   3.955 -0.0796 -0.5378 -0.7059
37882SOL     OW18775   7.425   1.844   7.340  0.2606 -0.2432 -0.0759
37882SOL    HW118776   7.463   1.756   7.334  2.4395  0.7185 -0.5292
37882SOL    HW218777   7.417   1.874   7.250  0.0597  0.2688  0.1083
37883SOL     OW18778   1.639   4.750   4.996  0.1833  0.1279  0.3611
37883SOL    HW118779   1.720   4.763   5.046 -0.2073  0.2265  0.9634
37883SOL    HW218780   1.581   4.703   5.056 -0.5507  0.8998  0.2601
37884SOL     OW18781   3.518   9.161   1.969  0.0173 -0.2382 -0.4808
37884SOL    HW118782   3.471   9.238   2.002 -2.1288 -1.1086 -1.4052
37884SOL    HW218783   3.502   9.094   2.035  0.9490 -0.2057 -0.2267
37885SOL     OW18784   3.661   3.417   3.884  0.3771  0.6873  0.5271
37885SOL    HW118785   3.621   3.418   3.797  0.8179  1.5145  0.3316
37885SOL    HW218786   3.638   3.502   3.922 -1.0009 -0.2142  1.7720
37886SOL     OW18787   1.114   9.876   2.320 -0.3613 -0.1859 -0.3394
37886SOL    HW118788   1.208   9.866   2.305  0.0972 -0.4930  2.4259
37886SOL    HW218789   1.094   9.965   2.290  1.1563  0.5035  0.6366
37887SOL     OW18790  10.856   3.825   9.902  0.1827 -0.0340  0.2058
37887SOL    HW118791  10.924   3.855   9.841  0.0483 -0.9659 -0.4140
37887SOL    HW218792  10.790   3.783   9.846 -0.8013  0.6615  0.8265
37888SOL     OW18793   1.543   2.121  11.294  0.4044 -0.2498  0.3201
37888SOL    HW118794   1.590   2.204  11.298  0.8465 -0.4903  0.1765
37888SOL    HW218795   1.590   2.064  11.356 -0.3598 -0.1586  1.0020
37889SOL     OW18796   0.369   1.052   0.067 -0.6471 -0.0068 -0.2658
37889SOL    HW118797   0.440   1.011   0.017  0.0245  0.2898  0.4244
37889SOL    HW218798   0.411   1.079   0.149 -1.7158 -0.4465  0.4335
37890SOL     OW18799   5.995  10.928   5.844  0.1898  0.0200  0.7801
37890SOL    HW118800   5.986  10.995   5.776  1.7052 -0.2770  0.2690
37890SOL    HW218801   6.074  10.953   5.892  1.1226 -1.7399  0.1933
37891SOL     OW18802   7.118   0.126   2.028 -0.0364 -0.4022  0.2580
37891SOL    HW118803   7.156   0.088   1.949  0.4969 -0.7019  0.6548
37891SOL    HW218804   7.059   0.194   1.996  0.8718  0.1030 -0.3696
37892SOL     OW18805   2.392   6.898   1.425 -0.0908 -0.7713  0.1238
37892SOL    HW118806   2.412   6.941   1.508 -2.1165  1.5951 -0.5617
37892SOL    HW218807   2.468   6.917   1.369  0.1659 -0.2864  0.6333
37893SOL     OW18808   6.923   5.757   6.276 -0.5297 -0.3831 -0.0027
37893SOL    HW118809   6.967   5.766   6.360  0.7768 -1.7192 -0.5219
37893SOL    HW218810   6.959   5.827   6.222 -0.6671 -0.1114  0.2599
37894SOL     OW18811   6.708   5.740   1.725  0.1665 -0.1397 -0.6277
37894SOL    HW118812   6.666   5.658   1.699 -1.0290 -0.3968  1.9942
37894SOL    HW218813   6.645   5.808   1.699  0.0651 -0.2337 -0.6312
37895SOL     OW18814   1.229   4.197   8.902  0.5094 -0.2065  0.4580
37895SOL    HW118815   1.226   4.102   8.911 -0.1711 -0.3865 -1.3566
37895SOL    HW218816   1.252   4.229   8.989  0.0825 -1.9933  1.2482
37896SOL     OW18817   4.630   0.971   1.763 -0.5357  0.2594  0.2132
37896SOL    HW118818   4.705   1.013   1.806 -0.5228  1.5332 -1.0248
37896SOL    HW218819   4.657   0.881   1.749  0.4264  0.4881  0.6020
37897SOL     OW18820   0.230   7.738   5.183  0.3829 -0.0938 -0.6855
37897SOL    HW118821   0.137   7.732   5.201  0.2294  1.1905 -0.9984
37897SOL    HW218822   0.269   7.770   5.265  0.6363 -1.1602 -0.3738
37898SOL     OW18823  10.423   7.790   4.271  0.1504 -0.3205  0.1887
37898SOL    HW118824  10.451   7.768   4.360 -1.2395 -0.6327  0.5706
37898SOL    HW218825  10.378   7.711   4.240  1.6305 -0.6327 -1.2400
37899SOL     OW18826   1.544   4.878   7.146 -0.6999  0.4723 -0.3885
37899SOL    HW118827   1.570   4.969   7.157 -1.2704  0.8328 -2.0245
37899SOL    HW218828   1.531   4.846   7.236  1.9795  1.2588  0.3275
37900SOL     OW18829   1.326   3.426   4.943  0.0195  0.5028 -0.2340
37900SOL    HW118830   1.348   3.345   4.988 -2.4900 -0.3589 -0.4952
37900SOL    HW218831   1.347   3.495   5.006 -1.4450 -0.5722  1.4711
37901SOL     OW18832   9.242   7.565   0.048  0.0559  0.7217  0.3752
37901SOL    HW118833   9.249   7.648   0.095  0.9062  0.9162 -0.0943
37901SOL    HW218834   9.296   7.504   0.098 -1.4145  0.1507  1.3347
37902SOL     OW18835   4.198   6.044   0.241  0.1501  0.0150 -0.3545
37902SOL    HW118836   4.224   5.953   0.255 -0.6264 -0.3478 -1.2130
37902SOL    HW218837   4.106   6.039   0.215 -0.5837  1.2093  1.8202
37903SOL     OW18838   4.469  11.007   4.443  0.2511 -0.7130  0.5924
37903SOL    HW118839   4.526  11.077   4.411 -0.5107 -0.0032  0.7821
37903SOL    HW218840   4.529  10.943   4.481  0.8643  0.4281  1.5631
37904SOL     OW18841   5.666   1.444   0.148  0.3139 -0.3090  0.1220
37904SOL    HW118842   5.693   1.474   0.061 -1.9993 -1.8811 -1.1877
37904SOL    HW218843   5.598   1.379   0.131  0.2940 -1.1469  3.1052
37905SOL     OW18844   2.593  10.513   9.136 -0.0385 -0.1500  0.0645
37905SOL    HW118845   2.533  10.544   9.069 -0.4159  0.5004  0.6968
37905SOL    HW218846   2.637  10.438   9.096  0.8623  1.1725 -1.4465
37906SOL     OW18847   7.454  11.315   5.091 -0.3977 -0.4447  0.0800
37906SOL    HW118848   7.484  11.361   5.012  0.7926 -0.6415  0.4077
37906SOL    HW218849   7.359  11.320   5.087 -0.3555 -0.6676 -1.4986
37907SOL     OW18850  10.933   9.725   6.893  0.1188  0.2145  0.1583
37907SOL    HW118851  10.983   9.733   6.974 -0.4471 -1.9910  0.7610
37907SOL    HW218852  10.999   9.725   6.824  0.7480  0.1825  0.7552
37908SOL     OW18853  10.559   0.728   4.732  0.1056  0.6840 -0.7828
37908SOL    HW118854  10.605   0.671   4.794 -1.9586  0.1563  0.3168
37908SOL    HW218855  10.607   0.719   4.650  1.0698 -0.9969 -0.0555
37909SOL     OW18856   0.531   1.994  10.155 -0.6976 -0.1290  0.3809
37909SOL    HW118857   0.441   1.962  10.154 -0.9794  0.6717 -0.0039
37909SOL    HW218858   0.535   2.059  10.084  0.8873 -2.0968 -1.4143
37910SOL     OW18859   1.339   6.252   8.467 -0.1664 -0.2776  0.0253
37910SOL    HW118860   1.244   6.251   8.478 -0.3301 -0.1996 -1.3046
37910SOL    HW218861   1.372   6.295   8.547 -1.1889 -0.8735  0.7857
37911SOL     OW18862   7.750   9.204  11.333 -0.4172 -0.2383  0.6753
37911SOL    HW118863   7.680   9.152  11.295 -1.2418  0.4232  1.2601
37911SOL    HW218864   7.708   9.288  11.354  0.8752  0.6557 -0.2465
37912SOL     OW18865   6.794   4.463   2.599  0.5217  0.0765  0.0630
37912SOL    HW118866   6.794   4.490   2.507 -0.0175 -1.4626 -0.3932
37912SOL    HW218867   6.781   4.545   2.647  0.7788  0.8910 -1.2280
37913SOL     OW18868   0.833   0.142   3.389 -0.0399 -0.2333  0.0807
37913SOL    HW118869   0.752   0.163   3.341 -0.3846  2.0203  1.5744
37913SOL    HW218870   0.903   0.171   3.330 -0.3901  0.2337 -0.1143
37914SOL     OW18871   4.610   3.137   1.567 -0.2691  0.0269 -0.0076
37914SOL    HW118872   4.521   3.165   1.590 -0.2865 -1.2130  1.5254
37914SOL    HW218873   4.668   3.197   1.614 -0.3013  0.0007  0.0664
37915SOL     OW18874   8.764   8.243  10.066 -0.1414  0.1639  0.0323
37915SOL    HW118875   8.793   8.205  10.149 -0.2662  1.1117  0.5220
37915SOL    HW218876   8.768   8.171  10.004  2.3136  0.0163  0.3089
37916SOL     OW18877   2.040   4.779   9.268  0.0012 -0.0890  0.3555
37916SOL    HW118878   2.038   4.827   9.350  0.8480  0.8890 -0.1837
37916SOL    HW218879   1.950   4.783   9.236  0.2111  1.8676 -0.0773
37917SOL     OW18880   1.360   6.267   0.548  0.8579  0.5234  0.0412
37917SOL    HW118881   1.319   6.320   0.480  2.0145  2.3095  0.7122
37917SOL    HW218882   1.288   6.243   0.607  0.4126  1.8646  0.0626
37918SOL     OW18883   8.278   8.045   9.368 -0.3666  0.5518  0.4214
37918SOL    HW118884   8.267   8.109   9.299  1.5259  2.3325  1.6958
37918SOL    HW218885   8.368   8.013   9.356 -0.2280  0.4509  1.6595
37919SOL     OW18886   2.839   6.181   0.981 -0.7463 -0.0453 -0.2051
37919SOL    HW118887   2.849   6.271   1.013  0.5249 -0.8998  1.8599
37919SOL    HW218888   2.925   6.161   0.942 -0.0852 -1.3254  1.8638
37920SOL     OW18889   6.433   8.103   2.762  0.4285  0.0678  0.2489
37920SOL    HW118890   6.499   8.155   2.809 -0.9013  1.0454  1.0515
37920SOL    HW218891   6.349   8.139   2.791 -0.4569 -0.9816 -0.9857
37921SOL     OW18892   9.324   1.326   9.637  0.8001  0.4075 -0.8517
37921SOL    HW118893   9.297   1.239   9.665  0.1320  0.6270 -0.8037
37921SOL    HW218894   9.250   1.358   9.585 -0.4010  2.2636  1.9062
37922SOL     OW18895   2.563  10.044   0.680  0.0326 -0.1003  0.4892
37922SOL    HW118896   2.588  10.037   0.587  1.1521  0.7768  0.7117
37922SOL    HW218897   2.505   9.969   0.695  0.1106 -0.4411 -0.8343
37923SOL     OW18898   4.291   5.862   7.409  0.7583  0.3083 -0.1636
37923SOL    HW118899   4.253   5.775   7.416  2.0967 -0.3475 -0.7466
37923SOL    HW218900   4.355   5.866   7.481 -1.3538  1.9106  1.6685
37924SOL     OW18901   2.303   9.844   7.613  0.2269  0.4094  0.4265
37924SOL    HW118902   2.230   9.887   7.568  0.1399 -0.4610 -0.2683
37924SOL    HW218903   2.271   9.756   7.632  0.5017  0.5628  1.6117
37925SOL     OW18904   7.317   3.941   0.797  0.6383 -0.1284  0.3657
37925SOL    HW118905   7.273   4.000   0.736  1.9361  1.4131  0.8985
37925SOL    HW218906   7.273   3.956   0.881 -0.2472 -1.2723  0.1225
37926SOL     OW18907  10.228   9.419   6.401  0.0138  0.6769  0.1339
37926SOL    HW118908  10.217   9.345   6.342  1.7866 -0.9661  1.8085
37926SOL    HW218909  10.299   9.470   6.361 -0.3186  0.7769 -0.3323
37927SOL     OW18910  11.130   1.868   8.474  0.4239 -0.2678 -0.2484
37927SOL    HW118911  11.082   1.805   8.527  1.5914 -0.5815  0.4507
37927SOL    HW218912  11.222   1.853   8.495  0.7626  1.2217 -0.5546
37928SOL     OW18913   2.320   0.093   5.137 -0.0758  0.5428  0.1468
37928SOL    HW118914   2.237   0.045   5.148 -1.1181  2.1773 -0.4228
37928SOL    HW218915   2.293   0.183   5.121  1.8098  0.9444 -0.8444
37929SOL     OW18916   9.305   3.411   4.100  0.0621 -0.4637  0.3141
37929SOL    HW118917   9.313   3.373   4.187  0.0536  2.4491  1.6126
37929SOL    HW218918   9.392   3.400   4.061  0.2515 -1.1642  0.9272
37930SOL     OW18919  10.370   4.264   7.723  0.0933  0.3237  0.5063
37930SOL    HW118920  10.418   4.197   7.673  1.2916  0.9707  0.7529
37930SOL    HW218921  10.284   4.226   7.739 -0.2088 -0.0308 -1.8047
37931SOL     OW18922   4.808   7.479   3.639  0.1216 -0.2097 -0.0672
37931SOL    HW118923   4.736   7.426   3.605 -0.6474  1.7383 -1.6171
37931SOL    HW218924   4.818   7.451   3.730 -1.1034 -2.0762 -0.4759
37932SOL     OW18925   6.471   3.677   1.767  0.7678  0.3936  0.0897
37932SOL    HW118926   6.551   3.631   1.744 -0.4716 -3.1228  2.4110
37932SOL    HW218927   6.401   3.615   1.747 -1.1968  2.3626  0.6106
37933SOL     OW18928   3.847   3.595   4.409 -0.4417  0.0360 -0.5845
37933SOL    HW118929   3.918   3.566   4.351 -1.3054 -0.8509 -1.2171
37933SOL    HW218930   3.783   3.523   4.406 -0.6335  0.0979  1.2455
37934SOL     OW18931   5.686   3.830   6.014  0.3485 -0.7701  0.2212
37934SOL    HW118932   5.755   3.871   6.066  0.8807 -1.2820 -0.0742
37934SOL    HW218933   5.634   3.782   6.078 -0.2529  0.3221  0.5617
37935SOL     OW18934   4.154   8.864   2.748 -0.2342  0.0559  0.4895
37935SOL    HW118935   4.190   8.860   2.837 -0.7605  0.9412  0.7443
37935SOL    HW218936   4.102   8.784   2.739 -0.2587  0.0138  1.0140
37936SOL     OW18937   7.492  11.058   8.139 -0.5464 -0.0510 -0.2282
37936SOL    HW118938   7.446  11.002   8.201 -1.8598  1.6369  0.3748
37936SOL    HW218939   7.580  11.068   8.177 -0.0368 -2.3394 -0.7794
37937SOL     OW18940   4.475   4.933   4.763  0.1736  0.2279 -0.3326
37937SOL    HW118941   4.462   4.858   4.821 -0.1383  0.2088 -0.4272
37937SOL    HW218942   4.564   4.963   4.782  0.3043 -0.1766 -0.3090
37938SOL     OW18943   2.165   2.676   9.415  0.2120 -0.1423 -0.3622
37938SOL    HW118944   2.206   2.681   9.329 -0.4836 -2.4323 -0.8463
37938SOL    HW218945   2.178   2.763   9.452  3.5916 -0.1741 -1.3558
37939SOL     OW18946   8.723   0.852   8.845  0.5055  0.3723 -0.5477
37939SOL    HW118947   8.653   0.787   8.845  2.1444 -1.4366 -0.5671
37939SOL    HW218948   8.694   0.919   8.783 -1.0104 -0.5572 -0.8675
37940SOL     OW18949   5.009   8.522   8.795  0.5565  0.5042 -0.0944
37940SOL    HW118950   4.932   8.467   8.811  1.6568 -0.8801  0.6502
37940SOL    HW218951   5.022   8.518   8.701  0.6468 -0.6137 -0.0514
37941SOL     OW18952  10.014   4.166   1.758 -0.3059  0.3606 -0.1829
37941SOL    HW118953   9.992   4.133   1.845  0.6090 -2.4644 -0.9599
37941SOL    HW218954   9.980   4.256   1.756  2.2016  1.5345  4.1011
37942SOL     OW18955   5.767   5.498   2.664 -0.7256  0.0766  0.8454
37942SOL    HW118956   5.684   5.525   2.624 -1.6384 -0.6767  2.2176
37942SOL    HW218957   5.829   5.497   2.591 -2.0438  0.1094 -0.2943
37943SOL     OW18958   0.998   6.574  10.886  0.2028  0.0344  0.0310
37943SOL    HW118959   0.963   6.486  10.901 -1.2711  0.7292  0.7736
37943SOL    HW218960   0.922   6.626  10.859  1.0801  1.0601 -0.5077
37944SOL     OW18961   9.678   1.036   7.200 -0.0682  0.0076  0.7871
37944SOL    HW118962   9.671   1.114   7.145 -0.4880  0.2344  1.1679
37944SOL    HW218963   9.762   1.047   7.245  0.4938 -0.3939 -0.1353
37945SOL     OW18964   1.745   7.411   9.599  0.7628  0.3636 -0.1590
37945SOL    HW118965   1.761   7.465   9.522 -0.9905  1.9618  0.5664
37945SOL    HW218966   1.724   7.325   9.564  1.3879  0.7130 -1.4100
37946SOL     OW18967   9.161   3.634   8.254  0.1063 -0.1091  0.5254
37946SOL    HW118968   9.209   3.714   8.276 -1.4725  0.3184  2.5763
37946SOL    HW218969   9.224   3.563   8.271  0.6222  0.5397  1.3675
37947SOL     OW18970   8.448   6.285   5.051 -0.0561  0.2015  0.1258
37947SOL    HW118971   8.498   6.203   5.049 -1.0318 -0.3960 -2.3856
37947SOL    HW218972   8.502   6.347   5.001 -1.1288 -0.0689 -1.4219
37948SOL     OW18973   0.510   5.399   3.878  0.2212  0.3462  0.3105
37948SOL    HW118974   0.505   5.346   3.798  0.6103 -0.9158  1.1028
37948SOL    HW218975   0.601   5.393   3.905  0.3694  1.8170  0.1648
37949SOL     OW18976   1.692   5.483   3.920 -0.0344 -0.8611  0.0812
37949SOL    HW118977   1.656   5.567   3.889 -0.3761 -0.2659  1.9930
37949SOL    HW218978   1.722   5.439   3.841 -3.2838 -0.5634 -1.3808
37950SOL     OW18979   8.294   2.758   2.023  0.6532 -0.0242 -0.0697
37950SOL    HW118980   8.319   2.747   1.931  1.8778 -0.1293  0.2724
37950SOL    HW218981   8.214   2.811   2.019  0.0745 -0.9589 -1.2398
37951SOL     OW18982   8.730   3.247   4.380  0.2010 -0.1765  0.1260
37951SOL    HW118983   8.750   3.201   4.462 -0.5356 -0.3083  0.2352
37951SOL    HW218984   8.673   3.186   4.332  1.7653 -0.6931 -1.1009
37952SOL     OW18985   1.386   4.878   8.295  0.1928  0.3183 -0.6234
37952SOL    HW118986   1.401   4.784   8.292  0.2759  0.3259 -0.4505
37952SOL    HW218987   1.331   4.896   8.219  2.9197  0.6415 -2.5655
37953SOL     OW18988   3.058  11.298   2.562  1.1005 -0.7117 -0.1677
37953SOL    HW118989   3.024  11.295   2.472 -1.0081  1.2766  0.5073
37953SOL    HW218990   2.991  11.254   2.614  1.0139  0.4858  0.7616
37954SOL     OW18991   3.999   6.368   5.574 -0.0261  0.4066  0.4010
37954SOL    HW118992   4.029   6.282   5.545 -1.3133  0.6266 -1.6294
37954SOL    HW218993   4.078   6.412   5.607  1.1398 -0.5014 -1.1470
37955SOL     OW18994   8.848  10.748   5.246 -0.3289  0.0883  0.1569
37955SOL    HW118995   8.834  10.660   5.212 -0.6470  0.9858 -2.0820
37955SOL    HW218996   8.763  10.773   5.282 -0.2760 -0.4358  0.6727
37956SOL     OW18997   8.855   9.227   0.413  0.1472 -0.0734 -0.2140
37956SOL    HW118998   8.889   9.272   0.336 -1.8758  0.7869 -0.6342
37956SOL    HW218999   8.787   9.285   0.447  0.3539 -0.8766  1.6816
37957SOL     OW19000   5.462   4.446   4.132 -0.0866  0.0055  0.5657
37957SOL    HW119001   5.390   4.421   4.074  0.3414  0.3429 -0.1355
37957SOL    HW219002   5.532   4.385   4.110 -0.6154 -1.2391  2.2530
37958SOL     OW19003  10.141   5.176   1.050  0.4132  1.0461 -0.2246
37958SOL    HW119004  10.068   5.153   1.107 -1.3479  2.4218 -1.8398
37958SOL    HW219005  10.181   5.092   1.027 -0.8225  0.2462  0.4917
37959SOL     OW19006   2.055   0.251   0.328  0.0058  0.0547  0.9338
37959SOL    HW119007   2.122   0.253   0.396 -0.2847  0.1343  1.2211
37959SOL    HW219008   2.086   0.312   0.261  0.6094 -0.5222  0.6946
37960SOL     OW19009   5.011   2.896  10.163  0.1063 -0.1524 -0.6260
37960SOL    HW119010   5.065   2.827  10.126  0.1706 -0.3786 -0.1123
37960SOL    HW219011   4.921   2.866  10.151  0.2013 -1.7794  2.3769
37961SOL     OW19012   8.936   0.661  10.167  0.5188 -0.0866  0.1555
37961SOL    HW119013   8.950   0.755  10.180  0.4368  0.0532 -0.7155
37961SOL    HW219014   8.974   0.620  10.245  2.2374  0.5458 -0.3231
37962SOL     OW19015   5.478   5.131   6.792  0.1075  0.5315 -0.3522
37962SOL    HW119016   5.405   5.182   6.829 -0.3608  0.2223 -0.8392
37962SOL    HW219017   5.501   5.176   6.711  1.4930  1.5181  0.5748
37963SOL     OW19018   7.627   1.057   5.252 -0.1407  0.2496  0.3090
37963SOL    HW119019   7.658   1.053   5.162  1.0524  0.2795  0.7109
37963SOL    HW219020   7.542   1.013   5.250  0.4765 -0.9357 -0.5835
37964SOL     OW19021  11.260   2.874   8.949 -0.3102  0.4174  0.3058
37964SOL    HW119022  11.289   2.810   8.883 -0.8146  0.5874 -0.0896
37964SOL    HW219023  11.323   2.945   8.944  0.5400 -0.2739  1.0928
37965SOL     OW19024   7.566   1.375   7.820  0.0040 -0.4429 -0.1100
37965SOL    HW119025   7.611   1.303   7.775  0.8114  0.1570 -0.2790
37965SOL    HW219026   7.605   1.378   7.907 -0.7219 -0.8332  0.2379
37966SOL     OW19027   5.510   6.858   2.486 -0.0653 -0.4374 -0.0740
37966SOL    HW119028   5.460   6.922   2.436  0.0623  0.9494  1.5276
37966SOL    HW219029   5.472   6.773   2.461 -2.4939  0.4878  0.2659
37967SOL     OW19030   3.924   4.384   0.444  0.9090  0.3331  0.0785
37967SOL    HW119031   3.871   4.403   0.521 -0.2485 -2.5642  0.0582
37967SOL    HW219032   3.896   4.450   0.379 -1.2614  0.0777  0.7187
37968SOL     OW19033   0.443   8.912   2.429 -0.1849 -0.0756 -0.4255
37968SOL    HW119034   0.467   8.996   2.469 -1.5210  0.1860 -0.1477
37968SOL    HW219035   0.473   8.920   2.338 -0.0113  0.5770 -0.3191
37969SOL     OW19036   3.500   7.949   9.135 -0.0555 -0.1794 -0.3733
37969SOL    HW119037   3.559   8.024   9.147  0.0785 -0.4534  0.7059
37969SOL    HW219038   3.542   7.897   9.067  0.7367 -0.1549  0.0920
37970SOL     OW19039  10.489   9.604  10.813  0.6024 -0.2415 -0.3601
37970SOL    HW119040  10.540   9.633  10.888 -0.5956  0.7160  0.1094
37970SOL    HW219041  10.552   9.601  10.741  0.8893  3.2268 -0.3329
37971SOL     OW19042   7.435   6.954   3.054  0.1573  0.1665 -0.2681
37971SOL    HW119043   7.472   6.916   2.974 -1.5112  0.3728 -1.1874
37971SOL    HW219044   7.382   6.883   3.091 -1.8220  1.0936 -1.2218
37972SOL     OW19045   4.207   2.253  10.597 -0.0595 -0.2110  0.0236
37972SOL    HW119046   4.242   2.245  10.686 -2.2628 -0.2650  0.9125
37972SOL    HW219047   4.177   2.165  10.575 -0.4978  0.0325 -0.3576
37973SOL     OW19048  10.336   5.387   5.644 -0.3046  0.3356 -0.2958
37973SOL    HW119049  10.335   5.462   5.704 -0.5227  0.8191 -0.8953
37973SOL    HW219050  10.273   5.410   5.575  1.3024  0.6268 -1.7117
37974SOL     OW19051   2.694   6.920   6.016  0.1798  0.6548  0.6181
37974SOL    HW119052   2.689   6.855   5.945 -0.5522  1.9036 -0.5063
37974SOL    HW219053   2.775   6.900   6.061  0.5053 -0.3679 -0.3940
37975SOL     OW19054   4.558   9.799   9.424  0.1359 -0.3178  0.4037
37975SOL    HW119055   4.519   9.880   9.389  1.2118  1.1763  2.5558
37975SOL    HW219056   4.642   9.827   9.460  0.5452 -2.4360  1.1227
37976SOL     OW19057   3.882   3.329   1.282 -0.0262  0.5057 -0.6968
37976SOL    HW119058   3.921   3.397   1.227  0.8824 -1.5564 -2.6731
37976SOL    HW219059   3.917   3.247   1.248  0.4907 -0.8806  2.9243
37977SOL     OW19060   8.807   5.698   6.785 -0.2753  0.0829 -0.3265
37977SOL    HW119061   8.882   5.705   6.844  0.9749  1.5198 -2.0420
37977SOL    HW219062   8.827   5.621   6.731 -0.1363  0.3456 -0.6485
37978SOL     OW19063   5.143   9.420  10.673 -0.6080  0.1786  0.5712
37978SOL    HW119064   5.134   9.329  10.644 -2.9040 -0.0743  1.9404
37978SOL    HW219065   5.188   9.413  10.757  1.9002  0.5646 -0.7024
37979SOL     OW19066   9.835   0.956   5.664 -0.0096 -0.1303  0.1548
37979SOL    HW119067   9.751   0.909   5.665  0.9661 -1.8744  0.7779
37979SOL    HW219068   9.841   0.993   5.752  0.0634 -0.3440  0.2402
37980SOL     OW19069   0.472   5.206   9.589  0.9118 -0.0423  0.2883
37980SOL    HW119070   0.394   5.187   9.641  1.2415  2.1740  1.6597
37980SOL    HW219071   0.535   5.139   9.615 -0.0003 -0.8856  0.3504
37981SOL     OW19072   5.707   3.268   5.277 -0.3973 -0.0434  0.1625
37981SOL    HW119073   5.621   3.288   5.238 -1.8164 -0.1183  3.1302
37981SOL    HW219074   5.696   3.180   5.313  0.5003  0.4623  1.6898
37982SOL     OW19075   2.528   3.022   8.549 -0.0772  0.3862 -0.3052
37982SOL    HW119076   2.568   2.997   8.633 -0.8332  1.1469  0.2906
37982SOL    HW219077   2.449   3.068   8.574 -2.3135 -2.6354 -1.4852
37983SOL     OW19078   1.139   5.599   4.140 -0.1729  0.5897 -0.8764
37983SOL    HW119079   1.232   5.619   4.149  0.3410 -0.4877 -3.3703
37983SOL    HW219080   1.103   5.673   4.091 -0.4612  0.5897 -0.6662
37984SOL     OW19081   5.934   0.747   4.010  0.0945 -0.2722 -0.0454
37984SOL    HW119082   5.955   0.653   4.014  2.5565  0.2812  0.4459
37984SOL    HW219083   5.896   0.767   4.095  0.2700 -0.6523  0.1229
37985SOL     OW19084   1.909   0.843   6.908  0.2964 -0.8277  0.1588
37985SOL    HW119085   1.956   0.843   6.825  0.2843  0.6486  0.1396
37985SOL    HW219086   1.880   0.753   6.920 -0.2362 -0.9146 -1.7470
37986SOL     OW19087   8.926   7.229   0.691  0.3829 -0.5483  0.0082
37986SOL    HW119088   8.961   7.223   0.602 -0.7238  0.5477 -0.5308
37986SOL    HW219089   8.913   7.139   0.719 -2.3549 -0.9135 -2.2305
37987SOL     OW19090   6.086   1.648   8.926  0.2650 -0.6879 -0.4562
37987SOL    HW119091   6.138   1.577   8.963  1.8647  0.2917 -0.7434
37987SOL    HW219092   6.140   1.726   8.939 -1.0207  0.3221 -1.0250
37988SOL     OW19093   3.553  10.136   8.401  0.0427  1.0244 -0.2389
37988SOL    HW119094   3.556  10.211   8.342 -2.9706  0.7057 -0.9065
37988SOL    HW219095   3.528  10.063   8.345  0.8349 -0.0458  0.7944
37989SOL     OW19096   5.998   8.277   4.147  0.1813  0.6187 -0.4228
37989SOL    HW119097   6.072   8.244   4.095 -0.0269 -2.0787  0.9410
37989SOL    HW219098   5.941   8.319   4.083  3.0239  3.0771 -1.4693
37990SOL     OW19099   2.164   5.836  10.161  0.0472 -0.1814  0.1674
37990SOL    HW119100   2.223   5.768  10.192  1.4300  1.0938  0.4030
37990SOL    HW219101   2.078   5.794  10.158  1.0488 -2.2437 -0.7545
37991SOL     OW19102   0.930   5.800   1.813 -0.2025 -0.3338 -0.0456
37991SOL    HW119103   1.025   5.788   1.824 -0.1308  0.0401 -0.2350
37991SOL    HW219104   0.917   5.894   1.822 -0.4605 -0.3029 -0.7263
37992SOL     OW19105   1.285   6.856   3.886  0.0125 -0.2104 -0.1402
37992SOL    HW119106   1.237   6.808   3.818  2.8927 -1.4209 -1.4058
37992SOL    HW219107   1.373   6.865   3.851  0.5274  2.7241  1.7581
37993SOL     OW19108   6.529  11.027   4.248 -0.2309  0.7058 -0.8770
37993SOL    HW119109   6.598  10.994   4.190 -0.3884  0.2218 -0.7953
37993SOL    HW219110   6.561  11.112   4.279  0.1863  0.6245 -1.0838
37994SOL     OW19111   2.846   4.192   0.258 -0.0453 -0.0792 -0.5268
37994SOL    HW119112   2.762   4.225   0.225  0.8839  0.0850 -2.8689
37994SOL    HW219113   2.828   4.101   0.283 -0.9345 -0.0358 -0.9984
37995SOL     OW19114   7.318   0.510   6.884  0.0484  0.3582  0.0694
37995SOL    HW119115   7.280   0.507   6.796  3.3887 -3.0133 -1.4120
37995SOL    HW219116   7.303   0.422   6.919  1.3180  0.7700  1.7152
37996SOL     OW19117   7.461   9.940   7.935 -0.1018 -0.5132  0.5837
37996SOL    HW119118   7.444  10.013   7.994  0.5077 -0.4599  0.7018
37996SOL    HW219119   7.456   9.862   7.990  1.0465 -0.4202  0.8351
37997SOL     OW19120   2.306   9.279   4.709  0.5215 -0.3732  0.2965
37997SOL    HW119121   2.351   9.354   4.668 -0.7416  0.4280  0.3477
37997SOL    HW219122   2.312   9.209   4.645  0.6529  0.1501 -0.2684
37998SOL     OW19123   4.736   4.251   1.311 -0.1838  0.0315 -0.0423
37998SOL    HW119124   4.725   4.304   1.390  2.4160  2.1030 -1.0191
37998SOL    HW219125   4.797   4.182   1.337 -1.2062 -0.7045  0.4088
37999SOL     OW19126   8.664   2.029   0.020 -0.1922  0.0972 -0.1797
37999SOL    HW119127   8.685   1.991   0.106 -1.4229  1.8139  0.9139
37999SOL    HW219128   8.586   2.082   0.036  0.1279  1.2064 -2.1702
38000SOL     OW19129   8.927   9.638   4.462 -0.4932 -0.6815 -0.3193
38000SOL    HW119130   8.838   9.614   4.488 -0.5536 -0.2983 -0.1585
38000SOL    HW219131   8.922   9.733   4.446  0.1438 -0.4508  0.7850
38001SOL     OW19132   3.705   5.184   3.651 -0.2570  1.0410  0.4213
38001SOL    HW119133   3.650   5.208   3.577  1.2675 -0.4634 -1.2656
38001SOL    HW219134   3.659   5.110   3.693 -0.7161  1.3652  0.4889
38002SOL     OW19135   9.450   4.889   3.904 -0.1485  0.4159 -0.5494
38002SOL    HW119136   9.462   4.875   3.810  1.3939  0.3550 -0.3583
38002SOL    HW219137   9.400   4.812   3.933  0.0723  0.0346 -1.1679
38003SOL     OW19138   8.244   0.487   6.340  0.8252  0.3856  0.3851
38003SOL    HW119139   8.215   0.405   6.299 -0.0992  0.2772  1.2369
38003SOL    HW219140   8.309   0.460   6.405 -0.4298  0.1752  1.5845
38004SOL     OW19141   1.792   2.684   6.971 -0.0479  0.0448  0.5162
38004SOL    HW119142   1.724   2.747   6.947 -0.1752 -0.6189 -0.8901
38004SOL    HW219143   1.743   2.604   6.992  0.2032  0.0067  0.9545
38005SOL     OW19144   3.082   3.605  10.967  0.7740  0.5824  0.0403
38005SOL    HW119145   3.071   3.691  11.008 -1.0020 -0.2216  1.3034
38005SOL    HW219146   3.135   3.556  11.029 -0.9202 -0.2464  0.8874
38006SOL     OW19147   6.608   7.296   3.365 -0.1808  0.0942  0.2211
38006SOL    HW119148   6.656   7.214   3.353  1.3367  0.7133  1.8748
38006SOL    HW219149   6.647   7.336   3.442  0.0224  3.0298 -1.3150
38007SOL     OW19150   9.920   9.995   2.887 -0.2032  0.3575 -0.2383
38007SOL    HW119151   9.959   9.911   2.865 -1.5908 -0.8616  1.6981
38007SOL    HW219152   9.988  10.040   2.937  0.2965  0.0973 -0.6734
38008SOL     OW19153   0.080   2.040  10.495 -0.4560  0.6661 -0.2082
38008SOL    HW119154   0.040   1.987  10.426 -2.8857 -0.7659  2.1885
38008SOL    HW219155   0.094   2.126  10.454 -1.2351 -0.3253 -2.6420
38009SOL     OW19156   0.319   7.344   5.399 -0.6462  0.2495  0.2448
38009SOL    HW119157   0.254   7.275   5.391 -0.4098 -0.1504  1.8132
38009SOL    HW219158   0.319   7.368   5.491  2.9846 -1.2702  0.7120
38010SOL     OW19159   8.899   6.631   9.267 -0.4240  0.2202  0.4914
38010SOL    HW119160   8.987   6.657   9.293 -0.4345  0.1784  0.5680
38010SOL    HW219161   8.909   6.542   9.232 -0.2290  0.6865 -0.6723
38011SOL     OW19162   9.056   5.014   9.411 -0.0249  0.1182  0.4830
38011SOL    HW119163   9.140   4.969   9.407  0.0137  0.0784  1.5256
38011SOL    HW219164   9.042   5.030   9.505 -1.4198 -0.3289  0.3681
38012SOL     OW19165   8.868   8.899   3.563 -0.5012 -0.5579  0.6818
38012SOL    HW119166   8.912   8.822   3.528  0.8428 -0.9378  3.0702
38012SOL    HW219167   8.888   8.897   3.657 -1.2881  2.1504  0.9468
38013SOL     OW19168  10.085   5.909   1.867 -0.1922 -1.0333 -0.1347
38013SOL    HW119169  10.153   5.875   1.925  0.6690  1.4699  0.3937
38013SOL    HW219170  10.004   5.899   1.916  0.2255 -1.0687  0.5513
38014SOL     OW19171   6.274   5.880   7.806  0.0444 -0.2708 -0.7004
38014SOL    HW119172   6.225   5.962   7.803 -1.8621 -1.3356  0.0582
38014SOL    HW219173   6.315   5.872   7.720 -1.5792  0.3997 -1.5511
38015SOL     OW19174   0.368   0.279   7.287  0.2863 -0.2798 -0.5369
38015SOL    HW119175   0.286   0.319   7.315 -0.1033 -0.3612 -1.5246
38015SOL    HW219176   0.389   0.323   7.204  1.2483 -0.2521 -0.2892
38016SOL     OW19177   3.414  10.533   0.267  0.2986  0.4238 -0.7944
38016SOL    HW119178   3.394  10.548   0.360  0.9624 -0.6901 -0.4546
38016SOL    HW219179   3.330  10.539   0.223  0.0927  1.8127 -0.2346
38017SOL     OW19180   6.248  10.502   3.008 -0.5841  0.2820 -0.9178
38017SOL    HW119181   6.321  10.441   2.995 -0.2418  0.7223 -1.1087
38017SOL    HW219182   6.253  10.561   2.933  0.2980  1.7321  0.2475
38018SOL     OW19183   8.115   4.854   8.062 -0.3761 -0.3765  0.5222
38018SOL    HW119184   8.137   4.777   8.114 -1.9017  0.1370  2.0103
38018SOL    HW219185   8.161   4.926   8.105  0.3397 -0.3295 -0.3272
38019SOL     OW19186   6.560   2.727   6.282 -0.1373 -0.4953 -0.0224
38019SOL    HW119187   6.511   2.648   6.261 -2.1704  1.0739 -1.3002
38019SOL    HW219188   6.523   2.757   6.365  0.6350 -0.8647  0.4635
38020SOL     OW19189   8.778   1.698   6.480  0.5081 -0.4655  0.3054
38020SOL    HW119190   8.694   1.685   6.524  0.1817 -1.3163 -0.5605
38020SOL    HW219191   8.832   1.624   6.509  1.7259  1.2430  2.6082
38021SOL     OW19192   5.810   9.732   5.278 -0.0456 -0.1730 -0.4860
38021SOL    HW119193   5.873   9.803   5.264 -1.3238  1.5251  1.9907
38021SOL    HW219194   5.759   9.729   5.197 -0.6976  2.5283 -0.2392
38022SOL     OW19195  11.132   3.893   4.079 -0.1356  0.0655  0.5220
38022SOL    HW119196  11.059   3.866   4.023 -0.2187  1.3905 -0.0408
38022SOL    HW219197  11.095   3.894   4.168 -0.6455  0.1857  0.3112
38023SOL     OW19198   3.664   4.265   6.539 -0.5799  0.0036  0.1115
38023SOL    HW119199   3.683   4.340   6.483  1.0943  0.8174  1.7435
38023SOL    HW219200   3.630   4.303   6.620 -0.4087 -1.0361  0.6825
38024SOL     OW19201   9.087   7.324   7.168  0.0328 -0.2868  0.1817
38024SOL    HW119202   9.156   7.384   7.197 -0.6691 -0.0590  1.3849
38024SOL    HW219203   9.046   7.368   7.094  0.8542 -0.2029 -0.2312
38025SOL     OW19204   9.738   5.874   2.691 -0.3628 -0.2434 -0.2969
38025SOL    HW119205   9.667   5.917   2.643 -1.2357 -1.9895 -0.6360
38025SOL    HW219206   9.697   5.848   2.774 -0.0459 -1.0320 -0.3885
38026SOL     OW19207   3.498   4.841   8.262 -0.1306  0.3885 -0.3541
38026SOL    HW119208   3.481   4.877   8.349  3.3098  1.8449 -0.2093
38026SOL    HW219209   3.593   4.839   8.256 -0.3256  0.1438 -4.0253
38027SOL     OW19210   2.083   2.184   5.722 -0.0575 -0.6354 -0.0239
38027SOL    HW119211   2.104   2.099   5.761  1.2754  0.2108  1.1932
38027SOL    HW219212   2.144   2.193   5.649  0.0036 -0.6157  0.0287
38028SOL     OW19213   9.451   4.754   4.908 -0.2644 -0.4543 -0.7561
38028SOL    HW119214   9.401   4.813   4.965 -0.5918 -1.3674 -0.0836
38028SOL    HW219215   9.386   4.691   4.875  0.2444 -1.0135 -0.7066
38029SOL     OW19216   0.327   1.191   1.241 -0.6005  0.4348 -0.2151
38029SOL    HW119217   0.329   1.262   1.305  0.5182 -1.7541  2.3228
38029SOL    HW219218   0.235   1.165   1.236 -0.3992 -1.0213  2.5168
38030SOL     OW19219   6.818   7.520   8.724 -0.5101 -0.6100 -0.3909
38030SOL    HW119220   6.858   7.497   8.640 -0.7814  0.4726 -0.8319
38030SOL    HW219221   6.873   7.591   8.758 -0.4171 -1.0324  0.3382
38031SOL     OW19222   3.749   0.450   2.525 -0.0902 -0.1153  0.2288
38031SOL    HW119223   3.663   0.413   2.542 -0.7745  0.3737 -2.0705
38031SOL    HW219224   3.785   0.397   2.454  0.4520  1.2563 -0.5547
38032SOL     OW19225   2.293   6.872   9.878  0.0485 -0.0699  0.1263
38032SOL    HW119226   2.359   6.845   9.942 -1.0900  1.5173  2.0286
38032SOL    HW219227   2.333   6.946   9.832  1.5122 -2.2183 -2.2027
38033SOL     OW19228   9.098   6.677   7.613 -0.2309  0.4136 -0.3606
38033SOL    HW119229   9.144   6.745   7.662 -0.3048 -0.5076  1.0277
38033SOL    HW219230   9.046   6.631   7.679 -1.3327 -0.0454 -1.5269
38034SOL     OW19231   2.751   2.948   5.554  0.0805  0.1774  0.2523
38034SOL    HW119232   2.720   3.026   5.508 -0.9193 -0.1887  0.2890
38034SOL    HW219233   2.827   2.978   5.604  2.4771  0.1355 -3.2090
38035SOL     OW19234   7.251   6.836   5.365 -0.3359 -0.5587  0.0661
38035SOL    HW119235   7.252   6.794   5.451 -0.6562  2.7886  1.7903
38035SOL    HW219236   7.171   6.802   5.324 -1.6137 -0.2027  2.1531
38036SOL     OW19237   6.641   7.878   4.916 -0.2337  0.4502  0.0690
38036SOL    HW119238   6.572   7.813   4.930  0.3699 -0.0104  0.9578
38036SOL    HW219239   6.673   7.897   5.004  0.6125  0.8451 -0.3228
38037SOL     OW19240   0.255  11.221   5.359 -0.5516  0.5808  0.0435
38037SOL    HW119241   0.185  11.287   5.364 -0.0404  1.2138 -1.0452
38037SOL    HW219242   0.209  11.138   5.347 -1.3106  0.4592  3.2921
38038SOL     OW19243   3.707   2.900   6.863 -0.4280 -0.3839 -0.1482
38038SOL    HW119244   3.718   2.828   6.925  0.7073 -0.3501 -0.2997
38038SOL    HW219245   3.677   2.857   6.782  1.5331 -0.8600 -0.6442
38039SOL     OW19246   4.841   2.019   5.573 -0.2964  0.2723 -0.2811
38039SOL    HW119247   4.871   2.109   5.589 -0.3410  0.1549  0.4769
38039SOL    HW219248   4.753   2.017   5.610 -0.7639  0.2513 -1.3649
38040SOL     OW19249   3.424   0.821   7.369 -0.7066  0.9161 -0.5650
38040SOL    HW119250   3.375   0.791   7.292 -1.1001 -2.7842  1.0047
38040SOL    HW219251   3.488   0.751   7.386 -1.2294  1.1689  2.9542
38041SOL     OW19252   3.986   1.105   7.272 -0.1019  0.4652  0.1931
38041SOL    HW119253   3.949   1.132   7.188  1.0401  0.7385 -0.2259
38041SOL    HW219254   4.072   1.146   7.276  0.5935 -0.9867  0.6988
38042SOL     OW19255   8.561   5.542   2.860 -0.1417 -0.7602  0.1959
38042SOL    HW119256   8.556   5.475   2.929 -1.3024 -0.1461  0.7319
38042SOL    HW219257   8.503   5.611   2.891  0.9042  0.4182 -0.4461
38043SOL     OW19258  10.706   7.366   1.427  0.2046 -0.2018  0.2016
38043SOL    HW119259  10.793   7.407   1.425 -0.7322  1.8429  1.2133
38043SOL    HW219260  10.717   7.291   1.486  1.0933  0.4566  0.8822
38044SOL     OW19261   4.835   0.551   9.304  0.1779  0.5372 -0.0528
38044SOL    HW119262   4.870   0.537   9.391  0.0101 -2.2597 -0.4037
38044SOL    HW219263   4.744   0.577   9.319 -0.0811 -0.7092  0.5887
38045SOL     OW19264   4.322   5.123   1.174 -0.2372 -0.1504 -0.0490
38045SOL    HW119265   4.355   5.202   1.218 -0.8563 -0.0797  0.2930
38045SOL    HW219266   4.386   5.105   1.105  0.1248  0.4117  0.1406
38046SOL     OW19267   6.937   6.751   6.276 -0.1286 -0.2595 -0.8323
38046SOL    HW119268   6.937   6.660   6.245 -1.4032 -0.7984  0.6957
38046SOL    HW219269   6.858   6.789   6.238 -1.3523 -0.7394  1.2246
38047SOL     OW19270   9.153   6.064   4.287 -0.5075 -0.3764  0.5633
38047SOL    HW119271   9.233   6.039   4.241 -1.3944 -1.5016 -0.4033
38047SOL    HW219272   9.100   5.984   4.288 -2.5251  0.8953 -0.6931
38048SOL     OW19273   4.558   6.197   7.848 -0.0644 -0.3216 -0.4815
38048SOL    HW119274   4.606   6.178   7.767 -0.2844  0.5060 -0.8192
38048SOL    HW219275   4.579   6.289   7.866  0.5483 -0.7025  0.7928
38049SOL     OW19276   9.986   0.614   2.145  0.2236  0.3171 -0.5456
38049SOL    HW119277  10.015   0.646   2.231  1.7869 -0.7031 -0.6726
38049SOL    HW219278   9.928   0.541   2.166 -2.3494  2.3755 -0.2888
38050SOL     OW19279   6.000   3.974   2.259  0.5086 -0.5964 -0.0548
38050SOL    HW119280   6.022   4.042   2.323  1.1174 -0.8599  0.0253
38050SOL    HW219281   5.986   3.896   2.312 -1.1206 -0.3226 -0.0716
38051SOL     OW19282   6.728   5.254  10.759 -0.3827 -0.1835 -0.1184
38051SOL    HW119283   6.673   5.240  10.682 -0.7512  0.6559 -0.0160
38051SOL    HW219284   6.704   5.341  10.790  1.5177  0.4837 -0.4678
38052SOL     OW19285  10.617   9.714  11.026  0.0203 -0.3527 -0.0655
38052SOL    HW119286  10.622   9.675  11.113 -0.3299  0.9349  0.5391
38052SOL    HW219287  10.563   9.792  11.038  0.5927  0.2412 -1.2942
38053SOL     OW19288   2.313   2.972   2.864 -0.0149 -0.2149  0.4831
38053SOL    HW119289   2.227   2.933   2.881 -0.0481  0.1671  1.2155
38053SOL    HW219290   2.311   2.995   2.771 -1.5806  1.9008  1.0081
38054SOL     OW19291   3.931  11.156   6.053  0.2667 -0.0562 -0.2553
38054SOL    HW119292   3.874  11.117   6.119 -0.5770  1.9328  0.2469
38054SOL    HW219293   4.002  11.196   6.103  0.6347 -0.1804 -0.6782
38055SOL     OW19294   7.579   6.145   7.825 -0.4972  0.7409  0.4550
38055SOL    HW119295   7.641   6.108   7.888 -0.3087  0.1640 -0.0603
38055SOL    HW219296   7.543   6.068   7.779 -0.0743  1.2032 -0.6600
38056SOL     OW19297   2.077   5.910   6.536  0.0499  0.0545  0.3872
38056SOL    HW119298   2.161   5.904   6.491 -0.1335  0.0667  0.0338
38056SOL    HW219299   2.031   5.980   6.489 -0.6583 -0.8261 -0.2594
38057SOL     OW19300   1.577   6.629   2.925 -0.1484  0.3193 -0.2052
38057SOL    HW119301   1.508   6.654   2.864  1.0164 -1.1763 -2.1645
38057SOL    HW219302   1.655   6.618   2.871  1.2675  0.3953  1.7535
38058SOL     OW19303   1.507   5.512   4.881  0.1968  0.4301 -0.2039
38058SOL    HW119304   1.580   5.569   4.903  0.5399  0.5203 -1.5223
38058SOL    HW219305   1.526   5.429   4.925  1.6037  0.1292 -1.3411
38059SOL     OW19306   5.588   3.916   2.331  0.2335  0.1624 -0.4907
38059SOL    HW119307   5.632   3.831   2.338  0.7619  0.3896 -1.0132
38059SOL    HW219308   5.603   3.944   2.240  1.9206  1.8233  0.2697
38060SOL     OW19309   1.188   3.551   7.880  0.0871  0.1784 -0.2094
38060SOL    HW119310   1.238   3.472   7.862  1.0163  1.0373 -1.4807
38060SOL    HW219311   1.148   3.535   7.966  1.4721 -1.0574  0.2345
38061SOL     OW19312   3.522   0.091   8.764 -0.2273  0.0184  0.4350
38061SOL    HW119313   3.506  -0.003   8.751  0.0275 -0.2215  1.6966
38061SOL    HW219314   3.479   0.134   8.691 -0.1795 -1.1101 -0.2631
38062SOL     OW19315   5.524   9.869   5.353 -0.2224 -0.6695 -0.6073
38062SOL    HW119316   5.539   9.851   5.260  0.2396 -1.0693 -0.4558
38062SOL    HW219317   5.428   9.875   5.361 -0.2623 -0.6188 -1.1078
38063SOL     OW19318   5.576   0.811   1.475 -0.2990 -0.7808 -0.3001
38063SOL    HW119319   5.536   0.812   1.561 -1.3183  0.1117 -0.7735
38063SOL    HW219320   5.546   0.728   1.436  1.9224 -2.2409  0.9880
38064SOL     OW19321   9.446   5.192  11.316 -0.2568 -0.2090  0.4482
38064SOL    HW119322   9.394   5.170  11.393  0.5151  0.2287  1.0989
38064SOL    HW219323   9.444   5.288  11.313  0.8608 -0.1796  0.7169
38065SOL     OW19324   4.734   3.194   4.095 -0.3419  0.0558  0.0081
38065SOL    HW119325   4.729   3.269   4.036 -0.5243 -1.6741 -2.2441
38065SOL    HW219326   4.804   3.216   4.156 -1.1857  2.5409  0.1307
38066SOL     OW19327   4.008  10.829   2.083 -0.0346  0.3586 -0.0921
38066SOL    HW119328   4.087  10.780   2.106  0.4215  0.2603 -1.8096
38066SOL    HW219329   3.953  10.823   2.161  1.1061 -0.6755  0.6565
38067SOL     OW19330   9.321   3.964   6.987 -0.1473 -0.2146 -0.3316
38067SOL    HW119331   9.284   3.877   6.970 -0.7274 -0.3540  1.5464
38067SOL    HW219332   9.357   3.958   7.075  0.7150  1.1550 -0.5879
38068SOL     OW19333   6.935   8.689   3.674 -0.4547 -0.2612  0.0601
38068SOL    HW119334   6.939   8.650   3.587 -1.5580 -1.0856  0.3640
38068SOL    HW219335   6.899   8.776   3.659 -1.9477 -0.8907 -0.1886
38069SOL     OW19336   6.220  11.046   1.221 -0.5152  0.3585 -0.1544
38069SOL    HW119337   6.159  10.998   1.165  0.3151  0.9493 -1.6031
38069SOL    HW219338   6.246  11.122   1.168 -0.0096  1.1325  1.1865
38070SOL     OW19339   8.659   2.464   0.077 -0.2052 -0.1470  0.0481
38070SOL    HW119340   8.621   2.455   0.165 -1.0747 -0.9248 -0.3989
38070SOL    HW219341   8.716   2.541   0.084 -2.5148  1.5858  0.5390
38071SOL     OW19342   5.340   7.917   9.552 -0.5650 -0.5485  0.4097
38071SOL    HW119343   5.381   7.996   9.586  0.0964 -0.9120  0.4737
38071SOL    HW219344   5.398   7.888   9.481 -0.2699 -1.5150  1.0366
38072SOL     OW19345   7.515   3.371  10.376 -0.2109 -0.1412 -0.3236
38072SOL    HW119346   7.489   3.427  10.303  0.3733 -0.8809 -1.1126
38072SOL    HW219347   7.610   3.379  10.379 -0.2245 -0.2233  0.2615
38073SOL     OW19348   2.738   5.912   3.530  0.3921 -0.1841 -0.0165
38073SOL    HW119349   2.682   5.971   3.580  0.4418 -0.8548  0.8381
38073SOL    HW219350   2.823   5.917   3.573  0.6587 -0.1261 -0.5458
38074SOL     OW19351   7.785   7.533   8.259 -0.2948  0.1098  0.0402
38074SOL    HW119352   7.746   7.509   8.175  0.2227  1.5450 -0.6140
38074SOL    HW219353   7.800   7.449   8.303 -2.2847 -0.5536 -0.5092
38075SOL     OW19354   7.686  10.208   3.082 -0.1168 -0.1160  0.1107
38075SOL    HW119355   7.696  10.127   3.032 -2.1048  0.3771 -1.1563
38075SOL    HW219356   7.726  10.275   3.027 -1.8622  0.3431 -0.6550
38076SOL     OW19357   0.410   5.944   9.725 -0.0231 -0.2795  0.7835
38076SOL    HW119358   0.483   5.996   9.691  0.2679 -1.0426  0.2442
38076SOL    HW219359   0.423   5.857   9.688 -1.5877 -0.2469  0.1358
38077SOL     OW19360   8.014   9.195   4.512 -0.1137  0.3637  0.0681
38077SOL    HW119361   8.036   9.192   4.606 -2.3082  0.3030  0.6036
38077SOL    HW219362   8.099   9.202   4.468  0.8498  2.5507  2.1648
38078SOL     OW19363   0.201  10.704   3.521 -0.4593 -0.7657 -0.3122
38078SOL    HW119364   0.170  10.762   3.592 -0.8463 -0.5527 -0.6540
38078SOL    HW219365   0.139  10.631   3.521 -0.8879 -0.4064 -0.9081
38079SOL     OW19366   7.205   8.402   5.655  0.0740 -0.4064 -0.2966
38079SOL    HW119367   7.280   8.461   5.653 -0.2979  0.0559 -1.0759
38079SOL    HW219368   7.130   8.459   5.673 -0.1627 -0.7813 -0.0767
38080SOL     OW19369   2.297   8.192   1.105  0.5707 -0.1847 -0.0916
38080SOL    HW119370   2.254   8.274   1.081  1.4852  0.1624 -0.5802
38080SOL    HW219371   2.322   8.153   1.021  2.5672  0.3613  0.2252
38081SOL     OW19372   1.421   0.297  11.155 -0.0765  0.1482 -0.0765
38081SOL    HW119373   1.359   0.232  11.186  0.0092 -0.4112 -1.0433
38081SOL    HW219374   1.470   0.253  11.085  0.1925  1.1457 -0.5422
38082SOL     OW19375   5.190   9.040   0.471 -0.2391  0.5580 -0.4234
38082SOL    HW119376   5.283   9.024   0.461 -0.2821 -0.0717  0.1762
38082SOL    HW219377   5.166   9.091   0.394  0.3468 -0.3325 -1.2007
38083SOL     OW19378   8.279   9.610   8.929  0.2793  0.1582 -0.0161
38083SOL    HW119379   8.363   9.639   8.891  0.5957  0.1195  0.6521
38083SOL    HW219380   8.217   9.618   8.857  0.2533  2.9536  0.2558
38084SOL     OW19381   6.450   1.963   3.892 -0.1472 -0.3407 -0.1857
38084SOL    HW119382   6.436   2.052   3.924  1.7032 -0.3309  0.6658
38084SOL    HW219383   6.377   1.913   3.926 -2.1770  1.1803 -2.1189
38085SOL     OW19384   8.856   9.936   8.023 -0.0671 -0.4255 -0.4837
38085SOL    HW119385   8.767   9.903   8.024  0.3084 -1.4292  1.1385
38085SOL    HW219386   8.857   9.999   7.951 -1.6902 -1.4459 -1.4387
38086SOL     OW19387   7.696   7.982   0.943  0.3096  0.3859 -0.5501
38086SOL    HW119388   7.760   7.911   0.951 -1.2198 -1.0925 -1.0777
38086SOL    HW219389   7.611   7.938   0.944 -0.6234  2.0136 -2.8096
38087SOL     OW19390  10.426   3.662   7.609  0.0278 -0.0307 -0.0459
38087SOL    HW119391  10.471   3.667   7.524  0.7077  0.1818  0.3228
38087SOL    HW219392  10.348   3.611   7.591  0.5280 -0.5985 -0.6511
38088SOL     OW19393   0.751   2.245  11.146  0.3067 -0.0014  0.5552
38088SOL    HW119394   0.771   2.187  11.220  0.7434 -0.3911  0.1339
38088SOL    HW219395   0.715   2.324  11.187  3.5069  1.0913  1.3943
38089SOL     OW19396   2.752   6.439   9.480 -0.3621  0.4616  0.1884
38089SOL    HW119397   2.834   6.474   9.513  0.6055 -0.5686 -1.0605
38089SOL    HW219398   2.734   6.492   9.402 -0.2124 -0.1421 -0.2603
38090SOL     OW19399   5.638   9.173   9.230  0.5619 -0.8660 -0.6102
38090SOL    HW119400   5.654   9.251   9.284 -0.2701 -0.8207 -0.4226
38090SOL    HW219401   5.583   9.205   9.158 -2.2469 -1.8596  1.0626
38091SOL     OW19402   1.887   0.867   7.655  0.0205 -0.1930  0.6196
38091SOL    HW119403   1.893   0.916   7.572 -0.0688 -2.2570 -0.6384
38091SOL    HW219404   1.805   0.818   7.647  0.1353 -0.5808  1.8504
38092SOL     OW19405   8.473   7.670   2.893  0.4581  0.8555 -0.4519
38092SOL    HW119406   8.501   7.761   2.881 -1.2754  1.8377  2.3737
38092SOL    HW219407   8.381   7.670   2.865  0.2790  0.1434  0.1139
38093SOL     OW19408   7.505   4.476   5.848 -0.0875  0.1186  0.3200
38093SOL    HW119409   7.478   4.479   5.939  1.7692 -3.2173  1.0702
38093SOL    HW219410   7.429   4.443   5.801 -0.3277 -0.3042  1.0042
38094SOL     OW19411   0.032  10.880   0.135  0.2074 -0.1528  0.0105
38094SOL    HW119412  -0.057  10.916   0.136  0.3464  0.3043  3.0564
38094SOL    HW219413   0.089  10.956   0.126  0.3224 -0.2889 -0.4048
38095SOL     OW19414   9.855   0.642  10.747  0.3399 -0.1830 -0.2028
38095SOL    HW119415   9.928   0.693  10.711  0.9047  0.4935  1.8379
38095SOL    HW219416   9.878   0.551  10.728  0.9972  0.1175 -0.8726
38096SOL     OW19417   0.831  10.731   4.598 -0.6194 -0.2674  0.1440
38096SOL    HW119418   0.874  10.727   4.683 -0.7025 -0.4948  0.1758
38096SOL    HW219419   0.826  10.824   4.578 -2.1159 -0.1082  1.1511
38097SOL     OW19420   3.930  10.442   2.595 -0.0897 -0.5983  0.2705
38097SOL    HW119421   3.970  10.524   2.624  0.2933 -1.4219  2.1888
38097SOL    HW219422   3.928  10.388   2.674 -3.1314 -1.3296 -0.2467
38098SOL     OW19423   3.509  10.394   0.539 -0.0068  0.0558  0.0699
38098SOL    HW119424   3.444  10.446   0.587  0.3749 -1.8600  2.7518
38098SOL    HW219425   3.593  10.426   0.571  0.3163  0.3046 -1.0094
38099SOL     OW19426   3.603  11.011   9.344 -0.0563 -0.3835  0.4233
38099SOL    HW119427   3.567  10.992   9.257 -0.6630 -1.0940  0.8237
38099SOL    HW219428   3.527  11.006   9.402  0.5314 -0.9841  1.1484
38100SOL     OW19429   3.063   9.894   9.418 -0.2161  0.9793  0.3493
38100SOL    HW119430   3.147   9.884   9.374 -1.1940  1.0393 -1.5714
38100SOL    HW219431   3.055   9.988   9.434  0.9185  0.7885  2.3024
38101SOL     OW19432   4.957   4.196   6.095 -0.0943 -0.3922 -0.2692
38101SOL    HW119433   4.962   4.103   6.118  0.8532 -0.0964  0.7239
38101SOL    HW219434   5.030   4.237   6.142  1.2131  0.3954 -2.8798
38102SOL     OW19435   2.115   6.320   2.587  0.5623  0.8937  0.3396
38102SOL    HW119436   2.034   6.270   2.588  1.3635 -0.4347 -0.0486
38102SOL    HW219437   2.137   6.332   2.680  0.5073  0.2826  0.4334
38103SOL     OW19438   1.436   5.707   6.250  0.0200 -0.0958 -0.4353
38103SOL    HW119439   1.501   5.664   6.195  0.4353 -0.4772  0.3422
38103SOL    HW219440   1.453   5.801   6.238  1.6658 -0.2048  0.8622
38104SOL     OW19441   7.509   5.772   1.805  0.0911 -0.6310 -0.2063
38104SOL    HW119442   7.417   5.770   1.834  0.6627 -0.7126  1.6921
38104SOL    HW219443   7.534   5.680   1.801  0.0447 -0.6129 -0.8731
38105SOL     OW19444   2.805   0.299   6.900 -0.2626 -0.0749  0.4689
38105SOL    HW119445   2.802   0.331   6.809 -1.9221  2.7095  1.4563
38105SOL    HW219446   2.764   0.212   6.895 -2.9946  1.2278 -1.0169
38106SOL     OW19447   7.906   9.242   6.021  0.3161  0.2404  0.4270
38106SOL    HW119448   7.827   9.291   5.995  0.2584 -1.0796 -2.0749
38106SOL    HW219449   7.898   9.159   5.974  3.0453 -0.0433  0.4378
38107SOL     OW19450   9.470   8.175  10.675  0.5426 -0.4212  0.3747
38107SOL    HW119451   9.493   8.176  10.583  0.8380  0.4695  0.4511
38107SOL    HW219452   9.447   8.266  10.695 -1.1143 -0.9031  0.7746
38108SOL     OW19453  10.868   6.092   7.005 -0.1414  0.2293  0.2314
38108SOL    HW119454  10.917   6.172   7.025 -1.3568  1.6099 -2.0579
38108SOL    HW219455  10.833   6.107   6.917 -1.2987 -2.3949  0.1962
38109SOL     OW19456   4.761   9.355   0.900  0.1763 -0.4262  0.5070
38109SOL    HW119457   4.809   9.411   0.839 -0.7423 -0.3397 -0.1326
38109SOL    HW219458   4.680   9.332   0.854 -0.8960  0.2996  1.9964
38110SOL     OW19459   3.175   6.821   1.091 -0.0898 -0.1887  0.3381
38110SOL    HW119460   3.196   6.861   1.175  0.1753  3.0301 -1.1924
38110SOL    HW219461   3.223   6.873   1.026 -0.6351 -2.3038 -1.8760
38111SOL     OW19462  10.998   9.152   9.914 -0.7755 -0.3390  0.3432
38111SOL    HW119463  10.996   9.078   9.975  1.5800 -0.3078  0.5379
38111SOL    HW219464  11.009   9.229   9.971 -1.2991 -0.0417  0.0403
38112SOL     OW19465   7.079   5.486   8.409 -0.0681 -0.1580 -0.4221
38112SOL    HW119466   7.042   5.531   8.485  2.4014  1.5502 -0.2001
38112SOL    HW219467   7.128   5.413   8.446  0.1166 -0.0567 -0.4702
38113SOL     OW19468  11.043   1.319   0.841  0.0009  0.3825  0.2297
38113SOL    HW119469  11.018   1.300   0.931  2.1503 -0.9835  0.5692
38113SOL    HW219470  10.965   1.360   0.803 -0.9196  1.0128  2.6968
38114SOL     OW19471   4.944   7.064  10.410  0.0392 -0.0158  0.2401
38114SOL    HW119472   4.993   6.990  10.447 -0.4747 -0.8620 -0.7414
38114SOL    HW219473   4.942   7.129  10.480  3.2114  0.3702  0.0547
38115SOL     OW19474   2.498   0.617   5.716 -0.3578  0.5292  0.5207
38115SOL    HW119475   2.476   0.665   5.796  0.9899  1.8758  0.1057
38115SOL    HW219476   2.593   0.609   5.717 -0.1973  1.6222 -1.4965
38116SOL     OW19477   3.360   8.693   6.908 -0.1343  0.1964 -0.2490
38116SOL    HW119478   3.397   8.661   6.826 -0.6745 -0.4195 -0.2574
38116SOL    HW219479   3.299   8.625   6.935 -0.5807  0.7794  0.2361
38117SOL     OW19480   4.448   2.696   8.584  0.2537  0.1327  0.1144
38117SOL    HW119481   4.468   2.788   8.570  0.9286 -0.2785 -1.7597
38117SOL    HW219482   4.523   2.649   8.549 -0.5206 -1.1630  0.1561
38118SOL     OW19483   4.732   5.977  10.655  0.1890 -0.2899  1.2943
38118SOL    HW119484   4.716   6.007  10.744  0.2460  1.0055  0.8888
38118SOL    HW219485   4.750   5.884  10.663 -0.5167 -0.3218  2.5530
38119SOL     OW19486   6.655   3.629   5.282  1.0634  0.0065  0.0879
38119SOL    HW119487   6.568   3.620   5.244 -0.3521  0.7375  3.0340
38119SOL    HW219488   6.691   3.708   5.243  0.7276 -0.7232 -1.7211
38120SOL     OW19489   5.255   2.573   3.045  0.6414 -0.7902  0.4430
38120SOL    HW119490   5.260   2.663   3.079 -0.3675 -0.4200 -0.3726
38120SOL    HW219491   5.345   2.542   3.047  0.8786 -0.0469  1.5222
38121SOL     OW19492  10.948  10.413   0.114 -0.7090 -0.4615 -0.7363
38121SOL    HW119493  10.926  10.353   0.185 -0.0815  0.2413  0.0601
38121SOL    HW219494  10.948  10.358   0.036  2.5484 -2.1126  0.3354
38122SOL     OW19495   8.316   0.030   3.689 -0.1801  0.1865  0.5913
38122SOL    HW119496   8.362   0.084   3.753  0.7116 -1.1286  1.0739
38122SOL    HW219497   8.311  -0.057   3.729 -1.2991 -0.1917 -0.3153
38123SOL     OW19498   0.280   9.904   9.295 -0.2896 -0.0848  0.3712
38123SOL    HW119499   0.363   9.902   9.246  0.2656  2.2340  1.1818
38123SOL    HW219500   0.282   9.823   9.347  0.3583 -1.2304 -1.3916
38124SOL     OW19501   3.720   2.967   7.534  0.1520  0.2519  0.3119
38124SOL    HW119502   3.776   2.923   7.470 -0.4064 -1.0590  0.7073
38124SOL    HW219503   3.746   2.928   7.618 -0.1689  0.8787  0.7054
38125SOL     OW19504   6.322  10.912   6.954  0.1101  0.6076 -0.6524
38125SOL    HW119505   6.311  10.891   6.861 -0.0029 -1.3374 -0.2140
38125SOL    HW219506   6.417  10.910   6.968  0.0582 -0.5827 -0.4099
38126SOL     OW19507   5.834  10.835   2.668  0.1781 -0.6161 -0.6327
38126SOL    HW119508   5.896  10.865   2.601 -0.1243  2.3467  0.3753
38126SOL    HW219509   5.886  10.779   2.725  0.9985 -1.2450 -1.9710
38127SOL     OW19510   9.893   6.323   4.908 -0.1229 -0.0627 -0.5890
38127SOL    HW119511   9.819   6.269   4.881  0.5050 -0.4605 -1.5275
38127SOL    HW219512   9.959   6.310   4.840  0.7637  0.3954  0.1704
38128SOL     OW19513   1.093   1.193   5.804 -0.1984  0.3597  0.0798
38128SOL    HW119514   1.171   1.139   5.790 -0.8495 -0.4266 -0.5492
38128SOL    HW219515   1.123   1.264   5.860  1.3852  0.9981 -1.5242
38129SOL     OW19516   4.202   5.262   5.624  0.0451 -0.2002 -0.2526
38129SOL    HW119517   4.193   5.223   5.711  0.3380 -1.5074 -0.7921
38129SOL    HW219518   4.183   5.355   5.637 -2.0442 -0.7452  0.8154
38130SOL     OW19519   4.372   2.858   5.922 -0.0414  0.1536 -0.1749
38130SOL    HW119520   4.369   2.768   5.889  1.5936  0.2964 -0.7453
38130SOL    HW219521   4.285   2.893   5.903 -0.1712 -0.7904 -1.4070
38131SOL     OW19522   2.085  10.284   5.568 -0.0225  0.2439  0.1231
38131SOL    HW119523   2.058  10.315   5.655  0.3761  0.9834 -0.0151
38131SOL    HW219524   2.066  10.190   5.570 -1.6111  0.5441  0.4049
38132SOL     OW19525   3.694   4.148   7.381 -0.3709  0.6368 -0.1650
38132SOL    HW119526   3.777   4.110   7.409  0.1981  0.6320 -1.7830
38132SOL    HW219527   3.627   4.090   7.418  0.4633 -1.7831 -2.2916
38133SOL     OW19528   6.474   4.461   7.781 -0.4886 -0.5376  0.2122
38133SOL    HW119529   6.449   4.542   7.825  1.1892 -0.9802  2.0657
38133SOL    HW219530   6.391   4.417   7.763 -1.2721  0.2375  1.8507
38134SOL     OW19531  10.719   2.715   4.607 -0.2488 -0.1904  0.1376
38134SOL    HW119532  10.708   2.702   4.702 -0.4753  1.9486  0.4297
38134SOL    HW219533  10.787   2.652   4.582 -0.9182 -1.5015  1.5170
38135SOL     OW19534   3.533   5.804   3.520 -0.4875  0.9662  0.0372
38135SOL    HW119535   3.481   5.725   3.525 -1.4300  1.4165 -2.3260
38135SOL    HW219536   3.482   5.870   3.567 -1.3552  1.0346 -0.9977
38136SOL     OW19537   9.773   3.793   3.645  0.8515  0.5837  0.6627
38136SOL    HW119538   9.855   3.843   3.649  3.1960 -2.5944 -3.7468
38136SOL    HW219539   9.706   3.859   3.625  2.4525  3.0363  3.0168
38137SOL     OW19540  11.114   1.309   2.196  0.1095 -0.4236 -0.3944
38137SOL    HW119541  11.173   1.384   2.198  0.1478 -0.4537 -0.4064
38137SOL    HW219542  11.089   1.301   2.103  0.0092 -0.3493 -0.3743
38138SOL     OW19543   8.952   8.049   7.486  0.3971 -0.1191 -0.3378
38138SOL    HW119544   9.014   7.976   7.483  1.7668  1.0330 -0.4302
38138SOL    HW219545   8.877   8.019   7.434  0.6950 -1.6817  0.1258
38139SOL     OW19546   8.208   8.636   0.698 -0.2418  0.2371 -0.1129
38139SOL    HW119547   8.146   8.601   0.763 -0.0207 -1.2287 -0.6610
38139SOL    HW219548   8.160   8.706   0.654 -0.9895  0.1139  0.5060
38140SOL     OW19549   2.739   5.439   3.901  0.2442  0.1981  0.2320
38140SOL    HW119550   2.736   5.535   3.902  0.7622  0.2394 -1.0434
38140SOL    HW219551   2.829   5.418   3.873  0.1060 -0.6594  0.4143
38141SOL     OW19552   7.994   9.390   0.913  0.0693 -0.0915  0.1119
38141SOL    HW119553   8.064   9.451   0.890 -1.3136  1.2663 -0.5008
38141SOL    HW219554   7.975   9.344   0.831  0.1901 -0.4346  0.2725
38142SOL     OW19555   2.495  11.011   8.044 -0.3751  0.3814 -0.6024
38142SOL    HW119556   2.418  10.969   8.004 -0.9308  1.8225 -1.0841
38142SOL    HW219557   2.467  11.030   8.134  0.7598 -2.5589  0.4466
38143SOL     OW19558   5.608   6.842   1.652  0.1802 -0.2785 -0.4409
38143SOL    HW119559   5.607   6.849   1.557 -1.0695 -1.5930 -0.5324
38143SOL    HW219560   5.676   6.777   1.670  0.1643 -0.2958 -0.4430
38144SOL     OW19561   4.461   4.002   7.663  0.1072  0.2564 -0.4060
38144SOL    HW119562   4.419   3.993   7.578 -0.4034  1.5026 -0.3003
38144SOL    HW219563   4.473   3.912   7.694 -0.1717 -0.1858 -1.5581
38145SOL     OW19564   7.358   5.914   3.637 -0.1173 -0.3035  0.7571
38145SOL    HW119565   7.384   5.983   3.575 -1.1628  0.1648  0.8224
38145SOL    HW219566   7.431   5.909   3.699  0.9397 -0.7626 -0.4870
38146SOL     OW19567   2.563   8.523   0.932 -0.1896  0.3405  0.1029
38146SOL    HW119568   2.473   8.543   0.909 -0.8984 -1.5844  1.0709
38146SOL    HW219569   2.569   8.543   1.026  0.6240  1.2398 -0.1369
38147SOL     OW19570  11.189   0.617   3.160 -0.3701 -0.6767  0.1640
38147SOL    HW119571  11.283   0.622   3.177 -0.5800  0.4666  1.1175
38147SOL    HW219572  11.155   0.561   3.229 -0.6277  0.4513  0.9822
38148SOL     OW19573   4.879   0.255   7.846  0.2858  0.0613 -0.0607
38148SOL    HW119574   4.865   0.193   7.775  0.1450  1.0765 -0.9327
38148SOL    HW219575   4.945   0.316   7.812 -0.5792  1.1975  0.2518
38149SOL     OW19576   7.361   2.643   9.089 -0.4623 -0.9473 -0.4247
38149SOL    HW119577   7.417   2.712   9.125 -0.5911 -0.7477 -0.6111
38149SOL    HW219578   7.277   2.655   9.134 -1.0306  0.1166 -1.7389
38150SOL     OW19579   0.089   7.545   8.142  0.2416  0.0401 -0.3595
38150SOL    HW119580   0.133   7.481   8.086  0.1721 -0.5764  0.2902
38150SOL    HW219581   0.148   7.556   8.217  0.0435  0.4136 -0.2567
38151SOL     OW19582   3.549   6.268   6.060  0.6371 -0.4458  0.1293
38151SOL    HW119583   3.492   6.194   6.079 -0.1547 -0.2585 -1.4889
38151SOL    HW219584   3.635   6.229   6.047 -0.3431 -1.4743 -3.7563
38152SOL     OW19585   3.322   2.624   6.074  0.2003  0.8364 -0.1201
38152SOL    HW119586   3.245   2.579   6.038 -0.0805  1.5144 -0.3717
38152SOL    HW219587   3.345   2.689   6.008  2.1112 -0.5748 -0.8879
38153SOL     OW19588   1.193   7.062   4.682 -0.1591 -0.1904  0.4588
38153SOL    HW119589   1.200   7.002   4.756 -1.4946 -0.3042  0.4965
38153SOL    HW219590   1.198   7.006   4.604 -0.6560 -0.2763  0.4870
38154SOL     OW19591   6.860   6.476   6.190  0.1982  0.4395 -0.0922
38154SOL    HW119592   6.772   6.484   6.225  0.2601 -1.7067  0.6213
38154SOL    HW219593   6.853   6.507   6.100 -1.0573  1.1483  0.2357
38155SOL     OW19594   8.045  10.418  11.250 -0.0942 -0.3970  0.2292
38155SOL    HW119595   8.070  10.426  11.158  0.2214  0.1053  0.3570
38155SOL    HW219596   8.012  10.505  11.274  2.2594  0.2516  1.3001
38156SOL     OW19597   7.549   0.262   0.646  0.7914  0.4303  0.0586
38156SOL    HW119598   7.524   0.322   0.575  0.3984  0.6525  0.3846
38156SOL    HW219599   7.610   0.312   0.700 -1.0221  1.2281  1.4256
38157SOL     OW19600   1.967  10.014   5.638  0.1412 -0.2069  0.2561
38157SOL    HW119601   1.952  10.037   5.729  1.4330 -0.5675  0.5811
38157SOL    HW219602   1.975   9.918   5.638  1.2929 -0.1246 -0.0362
38158SOL     OW19603   3.055   6.264   9.515 -0.8657  0.6367  0.4273
38158SOL    HW119604   2.981   6.220   9.472 -0.0118  0.3588 -0.7854
38158SOL    HW219605   3.079   6.334   9.455  0.0451  0.5437  0.6801
38159SOL     OW19606   0.877   1.433   7.364 -0.2856 -0.2342 -0.0879
38159SOL    HW119607   0.904   1.344   7.341  1.9463  0.7276 -1.3263
38159SOL    HW219608   0.942   1.490   7.322 -0.4104  1.8990  2.4318
38160SOL     OW19609   2.415   0.681   8.215 -0.5338 -0.1066 -0.0475
38160SOL    HW119610   2.364   0.692   8.134 -1.0842 -1.7939  0.0510
38160SOL    HW219611   2.502   0.655   8.185 -0.6936 -0.5780 -0.0986
38161SOL     OW19612   6.566   9.500   4.172 -0.4281 -0.4199 -0.4058
38161SOL    HW119613   6.480   9.514   4.212 -0.0490 -1.3393  0.7370
38161SOL    HW219614   6.619   9.574   4.202 -0.6139 -0.2303 -0.5457
38162SOL     OW19615   1.084   4.358   6.645 -0.2802 -0.6236  0.1307
38162SOL    HW119616   1.169   4.327   6.678 -0.3346  0.3343  1.2298
38162SOL    HW219617   1.033   4.278   6.631 -0.2600 -1.1061  2.4595
38163SOL     OW19618   1.155   2.773  10.995 -0.1579  0.7524 -0.1822
38163SOL    HW119619   1.151   2.862  10.959  0.1972  1.0660  0.5246
38163SOL    HW219620   1.067   2.739  10.985  0.4256  0.0025 -3.3489
38164SOL     OW19621   9.333   4.298  10.143  0.3498  0.6054 -0.4017
38164SOL    HW119622   9.322   4.301  10.238 -0.6752 -1.1102 -0.4450
38164SOL    HW219623   9.426   4.279  10.131  0.5257  1.0071  0.2473
38165SOL     OW19624   7.346  10.809   7.617  0.2833  0.4224  0.4644
38165SOL    HW119625   7.338  10.896   7.578  0.2470 -0.0566 -0.6360
38165SOL    HW219626   7.437  10.784   7.602 -0.1658 -0.4862 -0.9233
38166SOL     OW19627   1.642   2.119   9.109 -0.6764  0.5560 -0.0572
38166SOL    HW119628   1.692   2.199   9.123 -0.6093  0.4903  0.0691
38166SOL    HW219629   1.616   2.090   9.196  3.0054 -1.9848  0.3226
38167SOL     OW19630   4.475   1.812   3.112  0.3410  0.0141 -0.5341
38167SOL    HW119631   4.446   1.756   3.184  1.3371 -1.1817 -1.0433
38167SOL    HW219632   4.448   1.900   3.138 -2.1702 -0.8097 -0.1983
38168SOL     OW19633   4.422   7.661   0.215  0.1032  0.2151 -0.2417
38168SOL    HW119634   4.507   7.620   0.230  0.6001  1.7000  1.2039
38168SOL    HW219635   4.365   7.623   0.282  0.1101  0.5607 -0.0363
38169SOL     OW19636   2.654   1.368  11.052  0.2195 -0.5510 -0.2385
38169SOL    HW119637   2.580   1.329  11.097 -1.3148  0.9699 -1.3828
38169SOL    HW219638   2.690   1.297  10.998 -0.1430 -1.3979  0.6360
38170SOL     OW19639   2.240   2.239   5.234 -0.0376  0.5247 -0.1808
38170SOL    HW119640   2.214   2.165   5.288 -1.4471  2.1587  1.4639
38170SOL    HW219641   2.322   2.270   5.272  1.1956 -0.8991 -1.6186
38171SOL     OW19642   1.878   7.018   3.592  0.1174 -0.6927  0.1645
38171SOL    HW119643   1.787   7.044   3.577  0.4330  0.9044  0.9404
38171SOL    HW219644   1.872   6.950   3.659 -0.3756  0.8816  1.7662
38172SOL     OW19645   2.384   5.867  11.169 -0.8091  0.4810  0.3160
38172SOL    HW119646   2.459   5.900  11.118 -1.8154  1.2335 -0.7080
38172SOL    HW219647   2.333   5.945  11.189 -1.3089 -0.0299  1.0421
38173SOL     OW19648   1.643   5.635   7.842 -0.6286  0.2092  0.8232
38173SOL    HW119649   1.716   5.672   7.892 -0.3295  0.6689  0.0628
38173SOL    HW219650   1.565   5.673   7.883 -0.4088  0.2838  1.1810
38174SOL     OW19651   1.133   9.691   8.057 -0.5623 -0.6186  0.5629
38174SOL    HW119652   1.222   9.721   8.078 -0.5213 -1.2384  1.2813
38174SOL    HW219653   1.142   9.596   8.046 -0.9059 -0.5202 -0.5815
38175SOL     OW19654   2.137   3.698   0.315 -0.6192 -0.6832 -0.2467
38175SOL    HW119655   2.062   3.639   0.320 -1.5145  0.5693  1.6510
38175SOL    HW219656   2.135   3.747   0.397  1.6231  0.1721 -0.6511
38176SOL     OW19657   5.182   4.814   3.424 -0.5067 -0.3187  0.3050
38176SOL    HW119658   5.133   4.847   3.349  0.7028  1.2832  0.2052
38176SOL    HW219659   5.207   4.892   3.474 -1.7487 -1.3723  2.7003
38177SOL     OW19660   8.312   8.961   5.882  0.1050  0.4265 -0.4448
38177SOL    HW119661   8.333   8.883   5.933 -1.9723 -0.4156 -0.8625
38177SOL    HW219662   8.298   9.029   5.947 -1.0069 -0.2738  0.0602
38178SOL     OW19663   9.063   6.119   5.838  0.7070  0.1117 -0.4600
38178SOL    HW119664   9.097   6.131   5.927 -1.1020  2.0446 -0.0175
38178SOL    HW219665   9.142   6.112   5.784  1.8335 -1.1827  1.2843
38179SOL     OW19666  10.601   4.798  10.002 -0.1634  0.1364  0.4230
38179SOL    HW119667  10.581   4.738   9.930  1.2526  1.4838 -1.1249
38179SOL    HW219668  10.678   4.760  10.045 -1.2425 -0.8781  1.5199
38180SOL     OW19669   5.567   8.891   1.334 -0.3730 -0.4883  0.2274
38180SOL    HW119670   5.530   8.807   1.360 -0.2216 -0.9952 -1.1547
38180SOL    HW219671   5.660   8.874   1.320 -0.2568  0.0087  0.3770
38181SOL     OW19672   0.124   9.993   6.829  0.2075 -0.4881  0.1502
38181SOL    HW119673   0.064   9.948   6.889 -2.7904  4.3604  1.0431
38181SOL    HW219674   0.207   9.997   6.877 -1.1056  0.0532  2.4736
38182SOL     OW19675  11.197   2.710   4.867  0.4048 -0.0012 -0.0168
38182SOL    HW119676  11.172   2.635   4.920 -0.7690  0.4603  0.0998
38182SOL    HW219677  11.212   2.780   4.931 -0.6598  0.4567 -0.2436
38183SOL     OW19678   1.629   7.904   2.247  0.1755 -0.3201  0.0836
38183SOL    HW119679   1.663   7.951   2.171 -0.9562  1.4968  0.6704
38183SOL    HW219680   1.699   7.908   2.311 -0.2749  1.5176  0.4998
38184SOL     OW19681   4.291   0.568   6.122  0.0158  0.0623  0.3825
38184SOL    HW119682   4.371   0.555   6.071  1.6390  2.0872  2.3441
38184SOL    HW219683   4.320   0.577   6.212 -2.5304 -0.1126  1.2803
38185SOL     OW19684   9.231   3.267   3.633 -0.0466  0.9436 -0.1513
38185SOL    HW119685   9.307   3.238   3.582 -0.9400 -0.4290 -0.7415
38185SOL    HW219686   9.242   3.225   3.718 -0.4065  0.2845 -0.4191
38186SOL     OW19687   0.131   1.729   5.242 -0.1552  0.1859  0.2767
38186SOL    HW119688   0.220   1.747   5.273 -0.8855  1.3403  1.8101
38186SOL    HW219689   0.112   1.799   5.180 -0.7314  1.1712  1.5349
38187SOL     OW19690   9.812   9.134   3.631 -0.2223  0.6490  0.2465
38187SOL    HW119691   9.902   9.115   3.657 -0.7692 -0.7379  1.1696
38187SOL    HW219692   9.816   9.145   3.536  0.2705 -3.4739 -0.2830
38188SOL     OW19693   7.457   9.023   6.135  0.4442  0.0562  0.6689
38188SOL    HW119694   7.492   9.077   6.206 -0.6644 -0.6008  1.7390
38188SOL    HW219695   7.442   8.938   6.176  1.8432 -0.9667 -0.9170
38189SOL     OW19696   4.195   4.058   3.929 -0.2690  0.2339 -0.2807
38189SOL    HW119697   4.184   4.007   4.010  0.8496  0.9590  0.3483
38189SOL    HW219698   4.120   4.117   3.928  1.0294  1.9704  1.5646
38190SOL     OW19699   4.321  10.470   8.841  0.4012  0.6218  0.3875
38190SOL    HW119700   4.357  10.476   8.753  0.4790 -1.1676  0.2812
38190SOL    HW219701   4.394  10.436   8.894 -0.2152 -0.1249  0.7613
38191SOL     OW19702   9.950   5.261   5.704  0.3834 -0.3010  0.7399
38191SOL    HW119703  10.011   5.234   5.772  2.6088  0.0499 -1.0865
38191SOL    HW219704   9.980   5.217   5.625 -1.3953  0.3221 -0.3174
38192SOL     OW19705   4.898   1.005   6.862  0.2595  0.6235 -0.3861
38192SOL    HW119706   4.836   0.991   6.790 -0.9957 -1.2622  0.9966
38192SOL    HW219707   4.850   1.058   6.925  0.5540  0.3834  0.0430
38193SOL     OW19708   5.666   1.992   3.582 -0.2536  0.2309  0.5187
38193SOL    HW119709   5.611   2.032   3.649  0.4029  0.0827  1.1431
38193SOL    HW219710   5.674   1.901   3.609  0.7976  0.3905  0.7534
38194SOL     OW19711  10.822   0.316   6.761  0.0362  0.2361 -0.0073
38194SOL    HW119712  10.843   0.284   6.849  0.3520  1.1962  0.2668
38194SOL    HW219713  10.776   0.399   6.775  1.2454  1.0487 -0.7768
38195SOL     OW19714   7.919   7.137   6.684 -0.4568 -0.2891 -0.1483
38195SOL    HW119715   7.916   7.221   6.731 -0.0689  0.2092 -1.0123
38195SOL    HW219716   7.965   7.078   6.744  1.1604  0.6822 -0.4036
38196SOL     OW19717   0.123   1.229   6.002 -0.4753  0.4817  0.5823
38196SOL    HW119718   0.141   1.193   6.089  1.4495  1.7464  0.7543
38196SOL    HW219719   0.207   1.222   5.956 -0.7821  2.2157 -0.2843
38197SOL     OW19720   2.772   3.699   9.633 -0.2911  0.0022  1.0948
38197SOL    HW119721   2.683   3.698   9.596 -0.3079  0.2266  1.1284
38197SOL    HW219722   2.826   3.661   9.564  0.0771  2.7195 -0.2148
38198SOL     OW19723   2.234   3.525   2.216  0.4154 -0.5284 -0.1394
38198SOL    HW119724   2.178   3.600   2.235 -2.9589 -2.4187 -2.0183
38198SOL    HW219725   2.248   3.529   2.121  1.3382 -1.4704 -0.0530
38199SOL     OW19726   9.998   6.213   5.509 -0.0279 -0.5259 -0.3821
38199SOL    HW119727  10.070   6.267   5.543 -0.5644 -0.2892  0.3841
38199SOL    HW219728   9.975   6.156   5.582 -1.7281  0.5376 -0.0676
38200SOL     OW19729   7.748   8.371   5.170 -0.0809 -0.1847  0.1911
38200SOL    HW119730   7.804   8.419   5.110 -1.0196  1.2094  0.3909
38200SOL    HW219731   7.807   8.315   5.220  1.0600  0.8878  0.0599
38201SOL     OW19732   4.778  10.572   5.577 -0.6178  0.1455  0.4026
38201SOL    HW119733   4.728  10.525   5.510 -1.9252  0.6873  0.9880
38201SOL    HW219734   4.806  10.503   5.638 -0.9827 -0.1087  0.2873
38202SOL     OW19735   4.153   9.123   8.502 -0.5159 -0.2647 -0.7446
38202SOL    HW119736   4.116   9.055   8.558 -1.4730  0.3712 -0.6087
38202SOL    HW219737   4.094   9.126   8.426  0.9854 -1.4036 -2.0044
38203SOL     OW19738   8.109   0.876   3.340 -0.4010  0.4252  0.3261
38203SOL    HW119739   8.031   0.821   3.340 -0.2178  0.0765 -2.5130
38203SOL    HW219740   8.117   0.906   3.249  2.4496  0.8916  0.6888
38204SOL     OW19741   9.781   7.863   6.511 -0.0336 -0.3278 -0.3481
38204SOL    HW119742   9.849   7.923   6.482 -0.8539  1.2296  0.8756
38204SOL    HW219743   9.823   7.777   6.512  1.5379  0.4212 -0.8176
38205SOL     OW19744   7.366   6.846   1.340 -0.2764  0.0397 -0.0883
38205SOL    HW119745   7.433   6.871   1.277 -1.1529  0.0560 -1.0200
38205SOL    HW219746   7.284   6.875   1.301 -0.8576 -0.1757  0.9438
38206SOL     OW19747   3.518   5.572   2.327  0.0057  0.0657 -0.6681
38206SOL    HW119748   3.587   5.580   2.393 -1.0220 -1.4658  0.6694
38206SOL    HW219749   3.488   5.481   2.336 -2.8649  0.9709 -0.4731
38207SOL     OW19750   1.927   5.023   9.967  0.2262  0.0502  0.5755
38207SOL    HW119751   2.012   5.024   9.922  0.3491 -0.0993  0.8080
38207SOL    HW219752   1.873   5.083   9.915  0.7841  0.9630  1.0366
38208SOL     OW19753   2.059   4.649   2.178  0.2935 -0.1305 -0.3700
38208SOL    HW119754   2.071   4.650   2.273 -0.3685 -0.5202 -0.2811
38208SOL    HW219755   2.147   4.634   2.143  0.9418  2.3108  0.0976
38209SOL     OW19756   8.998   0.417   9.669 -0.4006  0.5621  0.6104
38209SOL    HW119757   9.025   0.437   9.758 -0.7675 -0.7959  1.0447
38209SOL    HW219758   9.049   0.340   9.645 -1.9698 -0.4903  0.5220
38210SOL     OW19759  10.148   0.392   3.718 -0.4599  0.0127  0.3923
38210SOL    HW119760  10.169   0.328   3.651  2.5242  1.1737  0.1407
38210SOL    HW219761  10.074   0.440   3.683 -0.8706 -1.3790 -0.7023
38211SOL     OW19762   5.498   1.038   4.393 -0.6707  0.0337 -0.0421
38211SOL    HW119763   5.553   1.115   4.381 -0.8962  0.2833  0.4784
38211SOL    HW219764   5.551   0.979   4.446 -1.0252  0.4157  0.7511
38212SOL     OW19765  10.859   4.477   2.542 -0.6530 -0.2516  0.1245
38212SOL    HW119766  10.900   4.440   2.620 -0.1252  1.9181  0.9266
38212SOL    HW219767  10.913   4.552   2.520 -2.2867  0.6900 -0.7890
38213SOL     OW19768   6.774   1.519   8.125  0.0966  0.2006 -0.4976
38213SOL    HW119769   6.791   1.430   8.093 -1.2120 -0.5247  0.7524
38213SOL    HW219770   6.699   1.550   8.073  0.1909  0.3530 -0.5435
38214SOL     OW19771  10.494   8.141   0.553 -0.0640  0.1879  0.3175
38214SOL    HW119772  10.585   8.113   0.553 -0.6626 -1.8893 -1.3433
38214SOL    HW219773  10.444   8.061   0.575 -1.4313  1.5739  2.5339
38215SOL     OW19774  10.801   9.578   0.177  0.4730 -0.3831 -0.2439
38215SOL    HW119775  10.895   9.593   0.189  0.5608 -0.5178 -0.7689
38215SOL    HW219776  10.763   9.666   0.175  0.4201 -0.3621  1.2830
38216SOL     OW19777  11.003   8.157   6.226 -0.6390  0.1444  0.4385
38216SOL    HW119778  11.073   8.137   6.164 -0.1710 -1.9955  1.5938
38216SOL    HW219779  10.924   8.162   6.172 -0.2849 -2.0354 -0.3383
38217SOL     OW19780  10.763   3.860   8.139 -0.0972  0.3553 -0.9351
38217SOL    HW119781  10.796   3.807   8.067  1.1799  1.0821 -0.8955
38217SOL    HW219782  10.776   3.807   8.217  1.3316  0.7816 -0.8746
38218SOL     OW19783  10.826   2.199   7.325 -0.6359  0.7749 -0.5927
38218SOL    HW119784  10.843   2.221   7.233 -1.1480  0.0021 -0.8742
38218SOL    HW219785  10.779   2.275   7.359 -1.3075  0.6554 -1.2373
38219SOL     OW19786   5.681   3.112   2.326 -0.2325  0.1821  0.4789
38219SOL    HW119787   5.737   3.174   2.372 -1.4435  1.4522  0.2407
38219SOL    HW219788   5.675   3.146   2.237 -0.7273 -0.4009  0.2869
38220SOL     OW19789   4.164  10.593   4.087  0.1020 -0.2281  0.1949
38220SOL    HW119790   4.180  10.680   4.049 -1.4539  0.2144  0.5292
38220SOL    HW219791   4.143  10.610   4.178 -0.7962 -0.9100  0.1223
38221SOL     OW19792   8.788   5.379   3.831  0.1456  0.2537 -0.0443
38221SOL    HW119793   8.742   5.419   3.757 -2.1038  1.6787  2.0508
38221SOL    HW219794   8.875   5.358   3.797 -1.5208 -1.0819 -3.6778
38222SOL     OW19795   2.674   7.774   3.575 -0.0583  0.2642 -0.0733
38222SOL    HW119796   2.717   7.706   3.628  1.2624 -0.1750 -1.6813
38222SOL    HW219797   2.603   7.806   3.631 -1.1897 -2.9551  0.4497
38223SOL     OW19798   6.725   2.805   7.064  0.0417  0.3114  0.1578
38223SOL    HW119799   6.800   2.846   7.107  0.5989 -0.4872 -0.0465
38223SOL    HW219800   6.689   2.746   7.130  0.5634 -0.4968 -0.2635
38224SOL     OW19801   2.272   0.226   2.801 -0.1141  0.5466 -0.1519
38224SOL    HW119802   2.251   0.134   2.814  2.0264  0.1618  0.7843
38224SOL    HW219803   2.288   0.234   2.707 -2.5292  0.4844 -0.6082
38225SOL     OW19804  10.351   2.464   1.262  0.3494 -0.1710  0.2760
38225SOL    HW119805  10.430   2.481   1.313  0.0088  0.4801  0.5921
38225SOL    HW219806  10.285   2.439   1.326  0.3692 -0.9926 -0.0159
38226SOL     OW19807  10.766  10.253   5.497 -0.2063  0.0626 -0.0534
38226SOL    HW119808  10.859  10.270   5.483 -0.3450  1.5724  0.6728
38226SOL    HW219809  10.724  10.284   5.417 -0.1871  0.4585  0.0879
38227SOL     OW19810   7.512   7.918   1.537 -0.0905 -0.2161 -0.2483
38227SOL    HW119811   7.586   7.937   1.595  1.6154 -3.3235 -1.2706
38227SOL    HW219812   7.464   7.849   1.583  0.4823 -1.7040 -1.8398
38228SOL     OW19813   3.812  10.760   5.179 -0.0545 -0.0365  0.3466
38228SOL    HW119814   3.817  10.688   5.242 -0.5159 -0.2616  0.1328
38228SOL    HW219815   3.724  10.796   5.191 -0.0376  0.1079  0.0411
38229SOL     OW19816   9.206  10.429   6.672  0.0845  0.0195  0.1076
38229SOL    HW119817   9.181  10.341   6.644  1.4796 -0.8845  1.6055
38229SOL    HW219818   9.297  10.438   6.644  0.4805  0.3267  1.4593
38230SOL     OW19819   4.195   5.536   7.067  0.6283  0.6378 -0.4674
38230SOL    HW119820   4.182   5.496   7.153  1.1054  0.0974 -0.6419
38230SOL    HW219821   4.120   5.594   7.056  0.2078  0.1931  0.0156
38231SOL     OW19822  11.070   6.843   6.668 -0.2090  0.4232  0.0721
38231SOL    HW119823  10.992   6.819   6.617 -0.4332 -1.4451  1.2613
38231SOL    HW219824  11.134   6.775   6.647  0.3685  0.7431  0.7750
38232SOL     OW19825  11.119   9.799   3.399 -0.5106 -0.0012 -0.2693
38232SOL    HW119826  11.048   9.833   3.346 -1.1693 -0.5315  0.2707
38232SOL    HW219827  11.083   9.721   3.441 -0.4929  1.2519  2.1465
38233SOL     OW19828   7.589   3.914  10.659  1.1172  0.1475 -0.6580
38233SOL    HW119829   7.515   3.941  10.605  0.5966 -0.1795 -0.1225
38233SOL    HW219830   7.575   3.958  10.743 -0.1872 -2.3239  0.5013
38234SOL     OW19831  10.198   2.675   9.549  0.0865  0.4017 -0.2474
38234SOL    HW119832  10.109   2.691   9.520 -0.2144  1.3918  1.1408
38234SOL    HW219833  10.188   2.621   9.628  0.6129  1.8061  0.8073
38235SOL     OW19834   6.196   9.976   0.347 -0.5508 -0.0158  0.5781
38235SOL    HW119835   6.166  10.048   0.292 -1.6187 -0.2706  0.8047
38235SOL    HW219836   6.267   9.935   0.298 -1.6800 -0.4204 -0.7572
38236SOL     OW19837  10.218   2.992   2.463 -0.3383  0.0572 -0.1054
38236SOL    HW119838  10.196   3.034   2.546 -1.5022  1.4400 -1.0785
38236SOL    HW219839  10.144   2.935   2.444  0.2451 -0.7948  0.1354
38237SOL     OW19840  10.012   8.189   5.775 -0.0119 -0.2135 -0.3506
38237SOL    HW119841   9.984   8.276   5.747 -0.4389 -0.7137 -1.5380
38237SOL    HW219842   9.936   8.153   5.821 -0.2945 -0.4482 -0.9957
38238SOL     OW19843   7.429   4.803   5.656 -0.0667 -0.2301 -0.1345
38238SOL    HW119844   7.499   4.770   5.599 -0.4606 -1.9425  0.3410
38238SOL    HW219845   7.358   4.827   5.596 -0.1447 -1.1706 -0.4158
38239SOL     OW19846   1.890  11.165   1.404  0.2408 -0.5419 -0.5345
38239SOL    HW119847   1.947  11.240   1.422  0.1432 -0.2730 -1.3419
38239SOL    HW219848   1.912  11.101   1.473  0.5374  0.1031 -0.0283
38240SOL     OW19849   4.805   0.210   8.357  0.0829  0.2355 -0.3863
38240SOL    HW119850   4.716   0.242   8.346 -0.9918 -2.0582  1.2443
38240SOL    HW219851   4.846   0.274   8.416 -0.9673  0.4864  0.0948
38241SOL     OW19852   2.663   0.470   9.842 -0.1020 -0.3732 -0.4357
38241SOL    HW119853   2.660   0.383   9.803 -2.6219 -0.4209 -0.2120
38241SOL    HW219854   2.627   0.528   9.775 -1.5302 -0.0075  0.6233
38242SOL     OW19855   4.397   3.446   2.908  0.0553 -0.8480 -0.4759
38242SOL    HW119856   4.431   3.528   2.871  0.8196 -0.9816 -0.0804
38242SOL    HW219857   4.419   3.451   3.001 -1.8737 -0.5071 -0.0308
38243SOL     OW19858   7.288   2.915   4.081 -0.2867 -0.3977  0.1265
38243SOL    HW119859   7.281   2.922   3.985  3.0341  0.3209 -0.1155
38243SOL    HW219860   7.263   3.002   4.113 -0.2150 -0.2772 -0.1457
38244SOL     OW19861   0.818   0.848   9.594 -0.8592 -0.0103  0.1088
38244SOL    HW119862   0.779   0.766   9.566 -0.5634 -0.0614 -0.1601
38244SOL    HW219863   0.905   0.848   9.554 -1.4719  1.1874 -1.2529
38245SOL     OW19864  10.666  10.745   9.698 -0.0739 -0.0505  0.3013
38245SOL    HW119865  10.611  10.686   9.647 -1.6434  1.0095  0.7018
38245SOL    HW219866  10.718  10.792   9.633  0.3353 -1.0340 -0.0872
38246SOL     OW19867   6.867   7.818   0.329 -0.3172  0.1001 -0.2499
38246SOL    HW119868   6.872   7.801   0.235  1.3637 -1.7442  0.1179
38246SOL    HW219869   6.927   7.891   0.343 -0.2596  0.1172 -0.5756
38247SOL     OW19870   8.754   4.427   7.371 -0.1785 -0.0184 -0.6475
38247SOL    HW119871   8.699   4.359   7.330  0.5863 -0.1607 -1.4568
38247SOL    HW219872   8.814   4.378   7.427 -3.2506  0.3579  3.1816
38248SOL     OW19873   6.110   5.450   1.471 -0.2782 -0.0908  0.4197
38248SOL    HW119874   6.032   5.403   1.501  0.4381  0.0232  2.5186
38248SOL    HW219875   6.183   5.390   1.486  0.4896  1.2013  1.9761
38249SOL     OW19876   0.573   2.472   9.180  0.1991 -0.4816 -0.0388
38249SOL    HW119877   0.498   2.439   9.129  0.8631 -1.5312 -0.3437
38249SOL    HW219878   0.639   2.403   9.173  0.9198  0.1108  0.8606
38250SOL     OW19879   1.850   8.680  11.023  0.3421  0.0543  0.2541
38250SOL    HW119880   1.844   8.585  11.025 -1.3858  0.1221 -0.9083
38250SOL    HW219881   1.775   8.708  10.970  0.8284  2.0561  0.5795
38251SOL     OW19882   9.838   0.250   7.702 -0.1848  0.3149 -0.0637
38251SOL    HW119883   9.859   0.285   7.788 -0.4855  1.1061 -0.3029
38251SOL    HW219884   9.917   0.266   7.650 -0.4413  0.9584 -0.2647
38252SOL     OW19885   2.702   5.197   3.465  0.3343 -0.1245  0.2018
38252SOL    HW119886   2.794   5.176   3.448  0.0186 -1.2109 -0.2008
38252SOL    HW219887   2.690   5.177   3.558  0.1961 -1.1567 -0.0325
38253SOL     OW19888   3.202   1.694   2.254 -0.4307  0.0412  0.6050
38253SOL    HW119889   3.134   1.760   2.244 -0.3668 -0.0299 -0.3037
38253SOL    HW219890   3.159   1.622   2.301 -1.1351 -0.2383 -0.4559
38254SOL     OW19891   0.125   5.533   2.937 -0.0597 -0.4985 -0.0064
38254SOL    HW119892   0.196   5.548   3.000  0.0901  1.6421 -0.6591
38254SOL    HW219893   0.163   5.556   2.852 -0.0733 -3.9203 -1.0082
38255SOL     OW19894   8.430   6.134   7.723 -0.1071 -0.2223 -0.2972
38255SOL    HW119895   8.521   6.137   7.751 -1.0764  2.6666  2.9807
38255SOL    HW219896   8.420   6.209   7.665 -0.7223  0.4046  0.5984
38256SOL     OW19897   5.645   5.710   7.607 -0.6010 -0.5044 -0.2679
38256SOL    HW119898   5.656   5.802   7.631 -1.2579 -0.2737 -0.8485
38256SOL    HW219899   5.578   5.678   7.667 -0.5426 -0.5516 -0.2270
38257SOL     OW19900   1.404   4.585   4.865 -0.4083  0.0846  0.2043
38257SOL    HW119901   1.453   4.667   4.853  0.7569 -0.2813  2.1630
38257SOL    HW219902   1.466   4.516   4.841 -0.8658 -0.2813  0.0726
38258SOL     OW19903   4.218   0.345   7.444 -0.1432 -0.3198 -0.1117
38258SOL    HW119904   4.195   0.380   7.358  0.6402 -0.6911 -0.4667
38258SOL    HW219905   4.310   0.369   7.457 -1.0383  2.3857  1.9071
38259SOL     OW19906   3.491   8.377   3.459 -0.2778  0.2014  0.1386
38259SOL    HW119907   3.448   8.389   3.374 -0.0258 -0.3800 -0.0746
38259SOL    HW219908   3.533   8.291   3.453 -0.4525  0.0532  0.9377
38260SOL     OW19909   2.235  10.931   7.434  0.3202 -0.8620  0.9364
38260SOL    HW119910   2.308  10.913   7.375 -1.2022 -0.1237 -1.2301
38260SOL    HW219911   2.206  11.020   7.411 -0.7470 -0.8416  2.2949
38261SOL     OW19912  10.261   8.305   5.820 -0.0203 -0.4339  0.1056
38261SOL    HW119913  10.209   8.270   5.747 -1.4539  1.3993  0.2196
38261SOL    HW219914  10.236   8.252   5.895  0.7221 -1.6802 -0.5045
38262SOL     OW19915   8.787   5.758   8.177  0.3714  0.4709 -0.1810
38262SOL    HW119916   8.718   5.821   8.200 -0.8880 -0.9793  0.0280
38262SOL    HW219917   8.754   5.713   8.100  1.8946  1.0016 -1.1830
38263SOL     OW19918   1.765   0.564   6.199 -0.1749  0.1981  0.4437
38263SOL    HW119919   1.782   0.656   6.217  0.4583  0.6160 -2.0102
38263SOL    HW219920   1.847   0.520   6.221 -0.6691  0.1344  2.1649
38264SOL     OW19921   2.034   4.044   0.587 -0.0829 -0.1894 -0.2282
38264SOL    HW119922   1.979   4.075   0.659 -1.2394 -0.1139 -1.1373
38264SOL    HW219923   2.064   4.123   0.543  0.2471 -0.2515 -0.1218
38265SOL     OW19924   1.482   4.511  11.311  0.0951 -0.6875 -0.3720
38265SOL    HW119925   1.516   4.588  11.355  0.2684  0.2058 -2.0452
38265SOL    HW219926   1.546   4.442  11.331  0.5847 -0.0964  0.1149
38266SOL     OW19927   5.126   9.048   4.762 -0.1524  0.0781 -0.3697
38266SOL    HW119928   5.174   9.034   4.844 -0.1371 -2.1138 -0.7200
38266SOL    HW219929   5.192   9.081   4.701  0.1578  0.3447  0.1108
38267SOL     OW19930   6.272   1.841   8.928  0.1504 -0.2334 -0.6250
38267SOL    HW119931   6.233   1.895   8.860 -0.5835 -1.7771 -1.4602
38267SOL    HW219932   6.275   1.898   9.005 -1.4331  0.7095 -1.2254
38268SOL     OW19933   5.639   5.782   7.904  0.3637 -0.2059  0.1857
38268SOL    HW119934   5.624   5.689   7.886 -0.6752  0.1106 -0.6284
38268SOL    HW219935   5.663   5.785   7.997  0.9464 -1.3373  0.0883
38269SOL     OW19936   3.322   4.539   0.120 -0.1316  0.2216 -0.3352
38269SOL    HW119937   3.317   4.443   0.125  1.0912  0.1766  0.0879
38269SOL    HW219938   3.349   4.557   0.031 -0.7200  0.1882 -0.5216
38270SOL     OW19939   8.703   5.602   7.749  0.2704 -0.4999  0.3676
38270SOL    HW119940   8.664   5.674   7.799  0.9378  0.9201 -1.1210
38270SOL    HW219941   8.776   5.572   7.803  0.8290  0.8599  0.3903
38271SOL     OW19942   2.953   7.606  11.219 -0.0514 -0.5276  0.6542
38271SOL    HW119943   2.963   7.537  11.153 -0.8061  1.3905 -1.5697
38271SOL    HW219944   2.986   7.568  11.300 -0.9156 -3.6265 -0.4069
38272SOL     OW19945   5.186   9.083   5.658 -0.2709 -0.1636  0.0353
38272SOL    HW119946   5.186   8.993   5.690 -0.4067 -0.2271 -0.1358
38272SOL    HW219947   5.109   9.123   5.699 -0.5832 -0.3140 -0.3926
38273SOL     OW19948   7.476   4.947   9.809 -0.1688 -0.4959 -0.1824
38273SOL    HW119949   7.537   5.015   9.780 -0.1885  0.3740  1.7443
38273SOL    HW219950   7.447   4.976   9.895 -2.1214 -1.7033 -0.4066
38274SOL     OW19951   8.646   2.672   7.073 -0.5051  0.2608 -0.7275
38274SOL    HW119952   8.564   2.655   7.027 -0.2329 -0.0316 -1.1057
38274SOL    HW219953   8.646   2.767   7.087 -1.6898  0.0791  0.7547
38275SOL     OW19954   3.820   2.600  11.029 -0.1955  0.5135 -0.2330
38275SOL    HW119955   3.788   2.540  11.096  0.3188 -1.1907 -1.4694
38275SOL    HW219956   3.782   2.568  10.947  0.7481  1.3848 -1.0306
38276SOL     OW19957   4.151   7.501   3.783 -0.4997 -0.5235  0.0886
38276SOL    HW119958   4.119   7.420   3.824  1.1025  0.2401  2.9912
38276SOL    HW219959   4.245   7.486   3.772 -0.5603  0.1305 -1.3540
38277SOL     OW19960   9.810   6.989   1.152 -0.0082 -0.0094  0.4595
38277SOL    HW119961   9.813   6.941   1.069 -0.7380  0.3335  0.2342
38277SOL    HW219962   9.902   6.997   1.178  0.1985 -0.4477 -0.1247
38278SOL     OW19963   9.999   8.785   1.819  0.4336  0.4502 -0.0529
38278SOL    HW119964   9.913   8.752   1.845  0.4410 -0.2331 -0.8812
38278SOL    HW219965   9.986   8.879   1.809 -0.3735  0.2642 -0.7888
38279SOL     OW19966   2.426   6.116   3.316  0.2320 -0.2502  0.5345
38279SOL    HW119967   2.433   6.107   3.221  1.8479 -2.1351  0.7774
38279SOL    HW219968   2.413   6.209   3.331  2.3714  0.4254 -1.4335
38280SOL     OW19969   2.797   7.855  10.338 -0.8499 -0.1940  0.1068
38280SOL    HW119970   2.823   7.767  10.308  0.7433  0.0380  0.7488
38280SOL    HW219971   2.705   7.863  10.312 -1.0361 -2.0821  0.1044
38281SOL     OW19972   2.454   0.248   6.935  0.3002  0.3276  0.4890
38281SOL    HW119973   2.547   0.263   6.953 -0.2104  1.6215  2.1623
38281SOL    HW219974   2.450   0.156   6.907  2.2820  0.7255 -1.2317
38282SOL     OW19975   3.538   2.198   3.428 -0.1524  0.0246 -0.5602
38282SOL    HW119976   3.542   2.290   3.455  1.1243  0.2599 -1.4978
38282SOL    HW219977   3.621   2.160   3.459 -0.3347 -0.6214 -0.8523
38283SOL     OW19978   2.390   0.506   0.306 -0.0079  0.1719  0.4979
38283SOL    HW119979   2.484   0.493   0.295 -0.2657 -0.0707 -1.8104
38283SOL    HW219980   2.356   0.418   0.324 -0.1437 -0.3114 -1.8994
38284SOL     OW19981   7.676   4.034   6.701 -0.1431  0.1710 -0.5167
38284SOL    HW119982   7.671   3.959   6.760  2.4434  0.8817  0.6588
38284SOL    HW219983   7.667   3.996   6.613  0.1298 -1.3783  0.1111
38285SOL     OW19984   1.650  10.686   0.153 -0.0511  0.6899  0.4441
38285SOL    HW119985   1.614  10.768   0.185 -1.1747  0.3633  0.0547
38285SOL    HW219986   1.580  10.622   0.167  0.3172  0.0773 -0.4751
38286SOL     OW19987   8.802  10.688   7.690  0.6203 -0.2383  0.3774
38286SOL    HW119988   8.807  10.688   7.595 -0.7532 -1.0736  0.2780
38286SOL    HW219989   8.892  10.696   7.720  1.3361 -2.5777 -1.0077
38287SOL     OW19990   4.818   4.398   4.803  0.7466  0.2616 -0.5169
38287SOL    HW119991   4.891   4.351   4.762  1.1597  0.9658 -0.5951
38287SOL    HW219992   4.831   4.490   4.778  1.4765  0.8418  1.8497
38288SOL     OW19993   9.568   2.793   2.384  0.2759  0.3497  0.2846
38288SOL    HW119994   9.573   2.709   2.430 -1.0739  0.7012  1.0865
38288SOL    HW219995   9.581   2.770   2.292  2.4138 -0.4272  0.7364
38289SOL     OW19996   7.660   0.753   4.364  0.5792  0.1615  0.2249
38289SOL    HW119997   7.710   0.820   4.320 -1.9984  0.6670 -2.0796
38289SOL    HW219998   7.710   0.672   4.351  0.2666  0.4484 -2.9670
38290SOL     OW19999   2.834   7.559   8.935 -0.7421 -0.2859 -0.4228
38290SOL    HW120000   2.824   7.613   8.857 -0.5859  0.4078  0.0391
38290SOL    HW220001   2.927   7.564   8.956 -0.9002  0.0479  0.1879
38291SOL     OW20002   2.561   3.516   3.600  0.4527  0.2708  0.9464
38291SOL    HW120003   2.653   3.491   3.611  0.2546 -0.2628  1.3944
38291SOL    HW220004   2.553   3.598   3.649  0.9992  1.0174 -0.1778
38292SOL     OW20005   8.235   4.790   2.589 -0.4412  0.0815 -0.0640
38292SOL    HW120006   8.158   4.744   2.556 -1.6665  1.0997  1.2873
38292SOL    HW220007   8.290   4.803   2.512 -0.8975 -2.0013 -0.7800
38293SOL     OW20008   2.872   0.476   0.969  0.4262 -0.1696  0.5329
38293SOL    HW120009   2.800   0.536   0.988  1.2908  0.8035  0.7218
38293SOL    HW220010   2.828   0.394   0.946 -0.7041 -0.3149  3.0792
38294SOL     OW20011  10.434   7.893   4.711 -0.5465 -0.3539 -0.1178
38294SOL    HW120012  10.387   7.962   4.758 -0.4544 -0.6394  0.3975
38294SOL    HW220013  10.422   7.915   4.619 -1.4822 -0.2849  0.0127
38295SOL     OW20014   1.717   4.565   4.709  0.0872 -0.4627 -0.2296
38295SOL    HW120015   1.744   4.545   4.798  1.3485 -0.9579 -0.7153
38295SOL    HW220016   1.748   4.655   4.694  0.9671 -0.8186 -0.5828
38296SOL     OW20017   9.987   1.269   4.103  0.3414 -0.5918 -0.4295
38296SOL    HW120018   9.992   1.333   4.031  0.3511  0.8479  0.8160
38296SOL    HW220019  10.078   1.253   4.127  0.2926 -0.0240  0.1511
38297SOL     OW20020   8.731   8.120   9.791  0.2733  0.1535 -0.4663
38297SOL    HW120021   8.781   8.085   9.717  1.2953  0.1392  0.2290
38297SOL    HW220022   8.697   8.204   9.759  1.0289  0.3305 -0.8260
38298SOL     OW20023   8.119  10.311   4.993 -0.1727 -0.1241 -0.2018
38298SOL    HW120024   8.206  10.333   4.961  1.0592 -0.2577  2.8634
38298SOL    HW220025   8.105  10.370   5.067 -2.0884 -1.1052  0.2555
38299SOL     OW20026   3.712   0.224  11.172 -0.7676 -0.1187 -0.2518
38299SOL    HW120027   3.657   0.255  11.100 -1.2694  0.1278  0.2392
38299SOL    HW220028   3.801   0.247  11.146 -0.8849 -0.5747 -1.0800
38300SOL     OW20029   1.047   2.996   1.044 -0.2077 -0.0062  0.1950
38300SOL    HW120030   1.037   3.088   1.071 -0.1280 -0.2286  0.9912
38300SOL    HW220031   0.990   2.948   1.104  0.7734 -0.6218  0.6350
38301SOL     OW20032  10.473   3.938   5.331  0.1919 -0.5177 -0.0966
38301SOL    HW120033  10.380   3.939   5.308  0.1482  0.7455  0.1253
38301SOL    HW220034  10.475   3.911   5.423 -0.0341  0.6477  0.2519
38302SOL     OW20035  10.282   1.581   1.947 -0.2200 -0.0284 -0.4695
38302SOL    HW120036  10.276   1.627   2.031 -1.0250  0.5273 -0.8293
38302SOL    HW220037  10.374   1.589   1.922  0.0665 -0.3590  0.4460
38303SOL     OW20038   6.028   1.892   4.945 -0.0422 -0.2181 -0.2067
38303SOL    HW120039   5.966   1.819   4.948  0.2270 -0.4094  1.1525
38303SOL    HW220040   5.987   1.960   4.998  1.9545 -1.2028  2.6953
38304SOL     OW20041  10.028   7.712   6.562 -0.3607  0.1274 -0.1087
38304SOL    HW120042  10.022   7.679   6.651 -3.2117  0.1162 -0.2790
38304SOL    HW220043  10.003   7.638   6.507  4.5690 -0.9163 -1.1944
38305SOL     OW20044   8.069   3.715   7.388  0.5160  0.0907 -0.1308
38305SOL    HW120045   8.074   3.801   7.430 -0.7189  1.0253 -1.8001
38305SOL    HW220046   7.975   3.694   7.389  0.6423 -0.5441 -1.0624
38306SOL     OW20047   7.649   9.917   5.237 -0.3485 -0.0842 -0.0269
38306SOL    HW120048   7.696   9.846   5.281 -0.0422 -1.0208 -1.8287
38306SOL    HW220049   7.576   9.937   5.296 -0.1769 -1.5850  0.7238
38307SOL     OW20050   2.297   3.291   6.240 -0.3864  0.5038 -0.3641
38307SOL    HW120051   2.268   3.296   6.331  2.4062 -1.1287  0.6833
38307SOL    HW220052   2.274   3.202   6.213  0.6122  0.3094 -0.5908
38308SOL     OW20053   4.981   6.603   7.970  0.1342 -0.0038  0.3435
38308SOL    HW120054   4.956   6.668   7.904  3.3706  0.2680 -0.7313
38308SOL    HW220055   4.984   6.652   8.052 -1.0053  0.3485  0.1806
38309SOL     OW20056   1.835   1.552   9.904  0.2253  0.0842 -0.1862
38309SOL    HW120057   1.817   1.545   9.811 -1.8425  1.1759  0.0889
38309SOL    HW220058   1.751   1.578   9.943  1.5605  1.7691  1.6976
38310SOL     OW20059   7.886   3.374   2.688  0.4321  0.3834  0.0796
38310SOL    HW120060   7.816   3.323   2.648  0.1206  2.7196 -2.5132
38310SOL    HW220061   7.846   3.411   2.767 -0.2947 -0.7598  0.2644
38311SOL     OW20062  10.240   5.291   1.478 -0.1214  0.3186  0.5341
38311SOL    HW120063  10.208   5.252   1.560 -0.3338  0.9249  0.7391
38311SOL    HW220064  10.294   5.222   1.439  0.6485  0.3121  1.5772
38312SOL     OW20065   6.105   0.671   8.141  0.9698  0.4418 -0.6760
38312SOL    HW120066   6.121   0.759   8.107 -2.0397  0.9143 -0.9893
38312SOL    HW220067   6.100   0.682   8.236  0.6070  0.6007 -0.7147
38313SOL     OW20068   6.845   2.446   6.446  0.3163 -0.1502 -0.0466
38313SOL    HW120069   6.846   2.538   6.474  0.0334  0.0665 -0.7422
38313SOL    HW220070   6.925   2.437   6.393 -1.2621  0.5393 -2.6389
38314SOL     OW20071   7.821  10.269   4.329  0.4088 -0.4569  0.2226
38314SOL    HW120072   7.845  10.178   4.345  3.1059 -0.0826 -1.4281
38314SOL    HW220073   7.799  10.272   4.236 -0.0106  0.5144  0.3507
38315SOL     OW20074  10.461   7.813   6.092  0.3645 -0.0147 -0.3229
38315SOL    HW120075  10.476   7.856   6.176  2.7328  0.3885 -0.9107
38315SOL    HW220076  10.481   7.880   6.027 -1.2451 -0.3922 -1.2378
38316SOL     OW20077   9.689   1.818   5.977  0.4648  0.7940  0.7515
38316SOL    HW120078   9.701   1.761   6.054  3.9839 -0.0883 -0.3714
38316SOL    HW220079   9.750   1.890   5.992  0.3624  1.1784 -0.6869
38317SOL     OW20080   4.040   5.504   1.189 -0.1538 -0.4664  0.1978
38317SOL    HW120081   4.005   5.567   1.126 -1.4102 -0.0702  1.2475
38317SOL    HW220082   3.963   5.457   1.221  0.3910 -0.3189  1.7804
38318SOL     OW20083   4.211   1.164  11.009 -0.1165 -0.3924 -0.0755
38318SOL    HW120084   4.210   1.239  11.070 -0.0943 -0.0306 -0.5189
38318SOL    HW220085   4.130   1.117  11.029 -0.6043  0.2784 -0.4417
38319SOL     OW20086   1.993   0.872   0.202 -0.4262  0.2264 -1.0356
38319SOL    HW120087   1.925   0.936   0.223 -0.8215 -0.4566 -0.1924
38319SOL    HW220088   1.949   0.808   0.146 -0.3527  0.0284 -0.8664
38320SOL     OW20089   9.561   7.159   2.209  0.0048  0.1152  0.7978
38320SOL    HW120090   9.509   7.233   2.178 -0.2912 -0.5516 -0.3260
38320SOL    HW220091   9.567   7.100   2.134  2.0231 -0.0159  1.0384
38321SOL     OW20092   2.494   7.437   8.968 -0.3520  0.2674 -0.2070
38321SOL    HW120093   2.508   7.528   8.995 -1.0404 -0.6008  3.3601
38321SOL    HW220094   2.411   7.413   9.008 -0.4819 -1.7629 -1.6472
38322SOL     OW20095   7.950  10.443  10.197 -0.1747  0.5209 -0.0115
38322SOL    HW120096   7.886  10.380  10.230 -0.1315 -0.6793 -2.1490
38322SOL    HW220097   7.903  10.494  10.132  0.0929  1.9943  0.9325
38323SOL     OW20098   9.893   3.235   2.161 -0.5836  0.2956 -0.1858
38323SOL    HW120099   9.845   3.317   2.163 -1.7142 -0.3675  0.5566
38323SOL    HW220100   9.920   3.220   2.252  1.0288  0.6608 -0.5966
38324SOL     OW20101   9.151   2.652   7.992  0.4373  0.7311 -0.2012
38324SOL    HW120102   9.237   2.612   8.005 -0.5223 -1.3066 -0.0257
38324SOL    HW220103   9.108   2.597   7.926 -1.2978  0.8639  0.7955
38325SOL     OW20104   4.523   6.413   9.255  0.1563 -0.1645 -0.4586
38325SOL    HW120105   4.438   6.369   9.246  0.1251 -0.1139 -0.4122
38325SOL    HW220106   4.586   6.342   9.263 -0.3327 -0.2211  3.7776
38326SOL     OW20107   2.034   3.290   7.160 -0.0266  0.5655  0.6384
38326SOL    HW120108   1.975   3.313   7.231 -0.5350  0.1640  0.3471
38326SOL    HW220109   2.056   3.198   7.176  1.7452  1.1287  1.6195
38327SOL     OW20110   4.185   4.435   5.452 -0.8760  0.1329 -0.5613
38327SOL    HW120111   4.140   4.421   5.368 -0.4613  0.1156 -0.7788
38327SOL    HW220112   4.132   4.386   5.515 -0.9051 -0.2682 -0.8956
38328SOL     OW20113   5.566   1.262   2.663 -0.5513  0.2809 -0.6770
38328SOL    HW120114   5.523   1.228   2.741 -1.6737  1.6711 -0.6561
38328SOL    HW220115   5.644   1.306   2.696 -0.6464  0.2413 -0.3975
38329SOL     OW20116   4.942   1.444   3.403 -0.0545 -0.8175  0.3304
38329SOL    HW120117   4.869   1.468   3.461  0.8138  2.4653  0.1571
38329SOL    HW220118   4.900   1.419   3.321 -1.0979 -0.7569  0.8373
38330SOL     OW20119   3.604   4.269   0.195 -0.1982  0.1220  0.1460
38330SOL    HW120120   3.689   4.312   0.184 -0.2981 -0.0218 -1.1802
38330SOL    HW220121   3.597   4.257   0.290  1.3951 -0.1431  0.2576
38331SOL     OW20122   9.948   4.461   5.135 -0.0639 -0.5569 -0.6848
38331SOL    HW120123   9.898   4.436   5.056 -0.2724 -2.7375  0.1103
38331SOL    HW220124  10.023   4.510   5.101 -1.6229  0.9690 -2.0407
38332SOL     OW20125   9.893   1.994   8.355  0.3459 -0.2263 -0.1848
38332SOL    HW120126   9.841   2.058   8.404  0.2893 -0.2139 -0.2603
38332SOL    HW220127   9.832   1.958   8.290  0.8555  0.9377 -1.3217
38333SOL     OW20128   9.303  11.093   8.812  0.2335  0.0041 -0.7140
38333SOL    HW120129   9.242  11.156   8.850 -0.0863 -0.8433  0.1893
38333SOL    HW220130   9.266  11.072   8.726  0.1867  0.8120 -0.8981
38334SOL     OW20131  10.513   4.944   0.292 -0.1703  0.1048 -0.0124
38334SOL    HW120132  10.600   4.906   0.302  0.1967  1.0274  0.3563
38334SOL    HW220133  10.501   4.997   0.371 -1.1609 -0.2008  0.0478
38335SOL     OW20134   1.374  11.110   1.610  0.4678 -0.5611  0.5455
38335SOL    HW120135   1.447  11.057   1.576  0.5037 -0.9567  1.2333
38335SOL    HW220136   1.296  11.070   1.573  0.5364 -0.7094  0.5623
38336SOL     OW20137   0.009   4.565   0.999  0.3839  0.4418 -0.1854
38336SOL    HW120138   0.091   4.554   0.952  1.0725  3.0580  0.3223
38336SOL    HW220139  -0.053   4.594   0.933 -0.0838 -1.2236 -0.5055
38337SOL     OW20140   5.848   5.095  11.087 -0.1530  0.4167  0.0274
38337SOL    HW120141   5.911   5.164  11.107  1.4090 -0.9467  0.0271
38337SOL    HW220142   5.871   5.067  10.998  0.2974 -1.1694  0.6240
38338SOL     OW20143   1.286   1.607   2.498 -0.0777  0.0202 -0.1599
38338SOL    HW120144   1.311   1.515   2.508 -1.8315 -0.6530 -1.5691
38338SOL    HW220145   1.191   1.607   2.511 -0.1021  1.6287 -0.2333
38339SOL     OW20146   9.855   8.972   6.533  0.0139 -0.1169 -0.1720
38339SOL    HW120147   9.875   9.056   6.573  0.2076 -1.1431  2.0067
38339SOL    HW220148   9.926   8.914   6.564 -1.9751 -1.8873  1.2291
38340SOL     OW20149   9.515   0.004   9.086  0.0696 -0.5858 -0.2296
38340SOL    HW120150   9.541   0.093   9.061  0.8952 -0.9700 -0.7326
38340SOL    HW220151   9.519  -0.046   9.005 -2.3970 -0.6220 -0.3526
38341SOL     OW20152   1.253   6.473   5.942  0.3083 -0.1760  0.9230
38341SOL    HW120153   1.185   6.530   5.978 -0.0784  0.4018 -0.7122
38341SOL    HW220154   1.268   6.408   6.011 -1.2225  0.2537  1.6850
38342SOL     OW20155   6.676   0.833   0.051 -0.3084  0.4014  0.0751
38342SOL    HW120156   6.693   0.921   0.018  0.8036  0.0727 -0.2669
38342SOL    HW220157   6.600   0.803   0.001 -0.2220  0.8840 -0.3527
38343SOL     OW20158   2.591   9.281   0.083 -0.2853 -0.5053  0.7712
38343SOL    HW120159   2.628   9.364   0.113 -2.0210  0.3631  0.5617
38343SOL    HW220160   2.553   9.241   0.161 -0.3007 -0.6601  0.6859
38344SOL     OW20161   0.421   2.402   7.950 -0.4827  0.1205  0.5589
38344SOL    HW120162   0.514   2.415   7.933 -0.6180  0.6935  0.2395
38344SOL    HW220163   0.398   2.324   7.899 -0.4590  0.7242 -0.3962
38345SOL     OW20164   7.191   8.158   0.252  0.2951 -0.7528 -0.0145
38345SOL    HW120165   7.198   8.108   0.334 -0.6564 -0.0051  0.5341
38345SOL    HW220166   7.104   8.139   0.219  1.3086 -2.4668 -1.8138
38346SOL     OW20167   3.917   9.178   4.722  0.3502 -0.2259  0.1976
38346SOL    HW120168   3.909   9.109   4.788 -3.5871 -1.3190 -1.2720
38346SOL    HW220169   3.912   9.259   4.771  0.4241 -1.0039  1.5103
38347SOL     OW20170   4.578   0.133   7.495 -0.3124 -0.7704  0.5111
38347SOL    HW120171   4.532   0.212   7.521  0.0357 -0.0893 -0.9149
38347SOL    HW220172   4.670   0.158   7.492 -0.1931 -1.2362  0.0850
38348SOL     OW20173   8.111   7.955   8.793  0.1799 -0.1444 -0.2008
38348SOL    HW120174   8.093   7.992   8.707  2.4429 -1.0999 -1.1449
38348SOL    HW220175   8.182   8.009   8.829  0.5948 -0.9419  0.2125
38349SOL     OW20176   5.844   0.347   5.070  0.2669 -0.1967 -0.1674
38349SOL    HW120177   5.885   0.432   5.054 -1.0071  0.5075  0.3161
38349SOL    HW220178   5.800   0.326   4.988 -1.3943  0.7144  0.4795
38350SOL     OW20179   4.302   6.554   4.412 -0.2800  0.0707 -0.2842
38350SOL    HW120180   4.391   6.535   4.382 -0.3137  0.5412 -0.6813
38350SOL    HW220181   4.307   6.547   4.507  0.3501  0.8452 -0.2605
38351SOL     OW20182   5.008   5.467   8.967  0.4502  0.4080 -0.1310
38351SOL    HW120183   4.939   5.497   8.908  0.4728  0.1538 -0.2891
38351SOL    HW220184   5.089   5.486   8.920  0.4681  0.2098 -0.1811
38352SOL     OW20185   8.106   5.226  10.656 -0.6570  0.3092  0.9085
38352SOL    HW120186   8.175   5.168  10.624 -0.8082  0.9378 -0.5852
38352SOL    HW220187   8.037   5.166  10.686 -1.7987 -0.3296 -2.7615
38353SOL     OW20188   6.030   6.715   2.404  0.1277 -0.3479  0.3652
38353SOL    HW120189   6.116   6.672   2.406 -1.1798 -3.1290 -0.8178
38353SOL    HW220190   6.014   6.738   2.496  1.2665 -1.6223  0.9151
38354SOL     OW20191   2.436   4.784   9.153 -0.3099  0.2995  0.1884
38354SOL    HW120192   2.399   4.771   9.065  1.6637 -2.0250 -0.3657
38354SOL    HW220193   2.381   4.731   9.210 -0.5607  0.4630  0.1032
38355SOL     OW20194   9.490  11.235   7.904 -0.4288  0.5944  0.6166
38355SOL    HW120195   9.524  11.319   7.873  0.2636 -0.1291 -0.6051
38355SOL    HW220196   9.524  11.171   7.842 -0.7241 -0.6296  1.7065
38356SOL     OW20197  10.688   2.707   4.196  0.0629  0.8543 -1.2607
38356SOL    HW120198  10.747   2.633   4.211 -0.1793  0.9047  0.0151
38356SOL    HW220199  10.747   2.781   4.181  0.3415  0.8198 -0.4064
38357SOL     OW20200   3.616   4.793   4.254  0.0619  0.8478  0.1201
38357SOL    HW120201   3.618   4.888   4.240 -1.7041  0.6391 -1.7611
38357SOL    HW220202   3.568   4.781   4.336 -0.8704  1.5289 -0.3179
38358SOL     OW20203   8.960   9.981   8.392  0.3034  0.1066 -0.8689
38358SOL    HW120204   8.881   9.996   8.443  0.9206 -0.4551  0.2827
38358SOL    HW220205   8.936   9.913   8.329  0.7155 -2.3839  1.5642
38359SOL     OW20206   7.920   0.717  10.468 -0.7530 -0.2714 -0.1982
38359SOL    HW120207   7.913   0.697  10.561  0.9779  0.3982  0.1069
38359SOL    HW220208   7.924   0.632  10.425  2.4758 -0.6455  0.7165
38360SOL     OW20209   6.397   3.683   0.455 -0.3321  0.1373  0.5972
38360SOL    HW120210   6.349   3.760   0.486  2.4586  2.5417 -0.8147
38360SOL    HW220211   6.474   3.679   0.511  1.1584  0.3077 -1.4156
38361SOL     OW20212   4.304   1.268   0.092  0.0499 -0.1119  0.5838
38361SOL    HW120213   4.272   1.313   0.170 -1.0131 -0.0362  0.1269
38361SOL    HW220214   4.224   1.242   0.046  0.6482 -1.8862  0.5159
38362SOL     OW20215   9.084   1.415   1.508  0.8795  0.8030 -0.6924
38362SOL    HW120216   9.092   1.322   1.487 -0.4057  0.3213  0.8585
38362SOL    HW220217   9.064   1.417   1.602 -2.7623  2.4805 -1.4118
38363SOL     OW20218   3.945   4.131   7.826  0.6369  0.4994 -0.5388
38363SOL    HW120219   3.857   4.129   7.865 -0.1268 -0.9913 -2.2333
38363SOL    HW220220   3.945   4.210   7.773 -0.1709 -0.1363 -1.5251
38364SOL     OW20221   6.589   6.139   7.577 -0.4133  0.1062 -0.0012
38364SOL    HW120222   6.534   6.153   7.500 -0.1726  1.6611  0.1026
38364SOL    HW220223   6.678   6.128   7.543 -0.6917 -2.0090 -0.1371
38365SOL     OW20224   2.526   8.116   9.566  0.1679 -0.0621 -0.4748
38365SOL    HW120225   2.529   8.021   9.580  0.6869 -0.0045 -0.1722
38365SOL    HW220226   2.452   8.146   9.620  0.0620 -0.2798 -0.4988
38366SOL     OW20227  11.288   6.936   8.295  0.2372 -0.0892 -0.8122
38366SOL    HW120228  11.323   6.983   8.219  0.0668  1.5340  0.1064
38366SOL    HW220229  11.363   6.890   8.331  1.1049  2.0476  0.1652
38367SOL     OW20230   1.191   1.898   8.738 -0.1415 -0.1566  0.0141
38367SOL    HW120231   1.123   1.899   8.671 -0.4362  0.6647  0.3110
38367SOL    HW220232   1.231   1.985   8.731  1.3946 -0.8944 -0.6794
38368SOL     OW20233   5.867   7.398   9.145  0.5729 -0.0467  0.4123
38368SOL    HW120234   5.779   7.392   9.108  2.3190 -2.7810 -3.6074
38368SOL    HW220235   5.886   7.492   9.146 -0.6633  0.2936 -3.0677
38369SOL     OW20236  11.127   0.387   2.266 -0.2972  0.9899 -0.0246
38369SOL    HW120237  11.190   0.372   2.196 -0.1168  0.0314  0.3406
38369SOL    HW220238  11.047   0.344   2.237 -0.8720  2.4080 -0.5943
38370SOL     OW20239   0.148   6.340  11.221 -0.2193 -0.3520  0.0940
38370SOL    HW120240   0.118   6.399  11.291  1.0036  1.0620 -0.5348
38370SOL    HW220241   0.131   6.252  11.254  1.2726  0.2487  2.6362
38371SOL     OW20242   7.754   0.348   3.874  0.5337  0.3816 -0.4845
38371SOL    HW120243   7.720   0.269   3.917 -0.0657 -0.6495 -2.7369
38371SOL    HW220244   7.765   0.411   3.945  0.9082 -1.6791  1.3730
38372SOL     OW20245   8.840  10.235   0.951  0.2915 -0.2401 -0.5433
38372SOL    HW120246   8.760  10.183   0.963 -0.5634  1.1062 -0.2910
38372SOL    HW220247   8.893  10.215   1.028 -0.0751 -0.6677 -0.3996
38373SOL     OW20248  11.092  11.179   0.931  0.0285  0.2444 -0.3377
38373SOL    HW120249  11.058  11.105   0.881 -0.8205  0.6331 -0.3570
38373SOL    HW220250  11.165  11.212   0.880  0.8187 -0.9785 -0.0045
38374SOL     OW20251   0.136   3.339   5.338 -0.8994 -0.3279 -0.1653
38374SOL    HW120252   0.214   3.296   5.371 -0.5867  0.3713  0.0063
38374SOL    HW220253   0.095   3.379   5.415  0.0513  1.6504 -0.6552
38375SOL     OW20254   9.307   1.812   7.958 -0.1056 -0.2186 -0.2408
38375SOL    HW120255   9.278   1.902   7.943  0.0897  0.2976  2.2512
38375SOL    HW220256   9.282   1.765   7.878 -3.4432  1.2796 -0.1518
38376SOL     OW20257   3.379   8.626  11.004 -0.0195 -0.2161  0.4619
38376SOL    HW120258   3.291   8.661  11.013  0.2220  0.5132  0.0215
38376SOL    HW220259   3.436   8.703  11.003  0.4261 -0.5417 -1.5423
38377SOL     OW20260   1.249   1.676   4.453  0.8397  0.4398  0.0965
38377SOL    HW120261   1.317   1.731   4.415  1.1948 -0.2747 -0.3035
38377SOL    HW220262   1.279   1.587   4.439 -0.0501  0.1219  0.1515
38378SOL     OW20263   7.644   5.346   4.512 -0.1318  0.3695  0.3484
38378SOL    HW120264   7.645   5.252   4.497  0.4576  0.4944 -0.4224
38378SOL    HW220265   7.566   5.361   4.565 -0.5553 -0.4778 -0.0292
38379SOL     OW20266   1.347   9.737   7.186 -0.1546  0.0968  0.0318
38379SOL    HW120267   1.347   9.650   7.147 -1.6963 -0.2909  0.8513
38379SOL    HW220268   1.428   9.740   7.238 -0.5657 -1.2033  0.7672
38380SOL     OW20269   9.420   5.227   5.083 -0.1095  0.2136 -0.1056
38380SOL    HW120270   9.444   5.320   5.075 -0.0117  0.3962  1.9948
38380SOL    HW220271   9.343   5.217   5.027  0.4719  1.3310 -1.1294
38381SOL     OW20272  10.702  11.068   6.200 -0.0543 -0.0160 -0.3904
38381SOL    HW120273  10.662  11.015   6.270 -2.5525  2.7844  0.4147
38381SOL    HW220274  10.796  11.064   6.218 -0.4219 -1.7677  1.3585
38382SOL     OW20275   9.492  10.509   5.255  0.1435 -0.4312 -0.0062
38382SOL    HW120276   9.527  10.584   5.206  0.6799 -1.2920 -0.9576
38382SOL    HW220277   9.444  10.459   5.189 -0.5684 -0.6978  0.7219
38383SOL     OW20278   3.642   0.913   7.084 -0.4114 -0.6845 -0.2440
38383SOL    HW120279   3.633   0.858   7.006  0.2651  1.0569 -1.5887
38383SOL    HW220280   3.597   0.865   7.153  0.2392 -2.9646 -1.3566
38384SOL     OW20281  10.304   0.418   9.074 -0.4025 -0.2395 -0.4888
38384SOL    HW120282  10.352   0.352   9.126  0.1595 -0.3771 -1.1755
38384SOL    HW220283  10.359   0.433   8.997 -0.6325  0.8880 -0.4423
38385SOL     OW20284   6.439   0.732  10.158 -0.2154  0.4297  0.2010
38385SOL    HW120285   6.378   0.692  10.220 -1.0250  1.1203 -0.1356
38385SOL    HW220286   6.416   0.693  10.073 -1.4050  2.0151 -0.2300
38386SOL     OW20287   3.552   3.653   4.678  0.2845  0.6254 -0.4181
38386SOL    HW120288   3.565   3.560   4.660  0.3148  0.4067  0.7248
38386SOL    HW220289   3.466   3.658   4.721  0.2922  1.1225 -0.4525
38387SOL     OW20290   3.360   3.239   5.697  0.1244 -0.0171 -0.0371
38387SOL    HW120291   3.443   3.193   5.709 -0.1024 -0.3164  0.4025
38387SOL    HW220292   3.299   3.194   5.756 -0.0216  1.0430  0.6296
38388SOL     OW20293   4.853  10.379   1.529  0.3631  0.1833 -0.0850
38388SOL    HW120294   4.891  10.385   1.441  0.1457 -0.0660 -0.1974
38388SOL    HW220295   4.926  10.396   1.588  0.2669  1.5020 -0.3358
38389SOL     OW20296   4.414   3.524   0.336  0.5254 -0.7530  0.3178
38389SOL    HW120297   4.501   3.515   0.376  1.5609  0.7636 -1.4666
38389SOL    HW220298   4.404   3.619   0.324 -1.4743 -0.9075  0.6753
38390SOL     OW20299   2.678   2.962  10.093 -0.0137 -0.0770  0.3306
38390SOL    HW120300   2.755   2.941  10.145  0.2896  1.5028  0.5582
38390SOL    HW220301   2.680   3.058  10.085 -0.6467 -0.1921 -1.6609
38391SOL     OW20302  10.316   8.729   3.758 -0.5344  0.4364 -0.0468
38391SOL    HW120303  10.245   8.757   3.700 -1.5527 -0.1725  0.8740
38391SOL    HW220304  10.273   8.714   3.842  0.9194  1.3003  0.8667
38392SOL     OW20305   9.639   0.052   6.033  0.3323 -0.1506  0.3467
38392SOL    HW120306   9.589   0.013   5.960  0.0424  0.9529 -0.0512
38392SOL    HW220307   9.685  -0.022   6.072 -0.0321 -0.8662 -0.5492
38393SOL     OW20308   6.892   5.131   7.110  0.7880 -0.0317 -0.0906
38393SOL    HW120309   6.818   5.118   7.169  0.2687  0.1780 -0.7054
38393SOL    HW220310   6.913   5.043   7.078  0.3733 -0.0033 -0.4438
38394SOL     OW20311   6.484   3.508  10.067 -0.3788  0.8181  0.5237
38394SOL    HW120312   6.451   3.463   9.990  1.9016 -0.6077  0.3382
38394SOL    HW220313   6.468   3.447  10.139  0.3618  0.8168  0.6868
38395SOL     OW20314   6.806   1.371   0.998  0.6168 -0.0390 -0.3023
38395SOL    HW120315   6.801   1.459   0.959 -1.4315  0.2785  0.5731
38395SOL    HW220316   6.897   1.361   1.024  0.6284  2.3863  0.7742
38396SOL     OW20317   3.545   0.543   5.699 -0.7428 -0.0326 -0.5486
38396SOL    HW120318   3.512   0.453   5.695 -1.2079  0.0918  0.4743
38396SOL    HW220319   3.484   0.593   5.645  0.4523 -0.5890 -2.5038
38397SOL     OW20320   4.207   2.678   7.071  0.0990 -0.4299  0.4870
38397SOL    HW120321   4.285   2.709   7.118  1.1992  0.0444 -1.5791
38397SOL    HW220322   4.138   2.738   7.097  1.9107  3.1693 -2.5232
38398SOL     OW20323   3.636   8.663   9.683 -0.2117 -0.3743 -0.1795
38398SOL    HW120324   3.606   8.633   9.597  1.2836 -1.0946 -0.4716
38398SOL    HW220325   3.647   8.758   9.672 -3.0515  0.0385  0.1671
38399SOL     OW20326   9.653  11.233   6.969 -0.5615  0.2157  0.2596
38399SOL    HW120327   9.735  11.207   7.010 -0.3862 -0.3899 -0.4710
38399SOL    HW220328   9.642  11.325   6.994  0.7792  0.5512 -0.3693
38400SOL     OW20329   6.573   5.658   8.595  0.5582  0.9604  0.3123
38400SOL    HW120330   6.540   5.740   8.630  0.5911  0.8693  0.5567
38400SOL    HW220331   6.590   5.604   8.672  1.5838  1.1226  0.2088
38401SOL     OW20332  11.253   3.392   2.782  0.1149  0.8893 -0.2007
38401SOL    HW120333  11.159   3.373   2.786  0.5770 -1.4114  0.8794
38401SOL    HW220334  11.265   3.468   2.839 -0.7452 -0.4243  1.7953
38402SOL     OW20335   6.763   3.578   6.109  0.1801 -0.0813  0.2061
38402SOL    HW120336   6.668   3.585   6.121 -0.1071 -1.2972 -1.2897
38402SOL    HW220337   6.790   3.666   6.084 -0.3189  0.6444  2.1121
38403SOL     OW20338   9.477   7.993   3.087 -0.0868 -0.5966 -0.3757
38403SOL    HW120339   9.460   7.929   3.018 -0.5602 -1.1105  0.2129
38403SOL    HW220340   9.395   8.042   3.094 -0.8811 -2.1297  1.4722
38404SOL     OW20341   4.048   2.829  10.890  0.2484  0.1622 -0.0930
38404SOL    HW120342   4.105   2.853  10.963 -0.9522 -0.1560  0.9575
38404SOL    HW220343   4.069   2.738  10.872  0.4551  0.2060 -0.0849
38405SOL     OW20344   9.950   0.050   6.739 -0.1180  0.1251 -0.7135
38405SOL    HW120345   9.992  -0.036   6.739  1.5098  0.8879 -1.8746
38405SOL    HW220346  10.013   0.108   6.782  0.4017  1.4134 -3.0779
38406SOL     OW20347   2.914  10.528   1.832 -0.1392 -0.0666  0.3706
38406SOL    HW120348   2.967  10.515   1.753 -0.9948 -0.9317 -0.0750
38406SOL    HW220349   2.877  10.615   1.821 -0.1777 -0.1435 -0.1428
38407SOL     OW20350   3.503   1.696   4.966  0.0541 -0.0271 -0.1784
38407SOL    HW120351   3.451   1.777   4.967 -1.0785 -0.7213 -1.6288
38407SOL    HW220352   3.438   1.627   4.980  0.6033 -0.8869 -1.8038
38408SOL     OW20353   3.674   9.298   2.759 -0.0375  1.0951 -0.1296
38408SOL    HW120354   3.751   9.269   2.709  0.7132  2.9890 -0.1159
38408SOL    HW220355   3.708   9.320   2.845 -0.8046  0.7925  0.2538
38409SOL     OW20356  10.962   7.924   6.400 -0.0100  0.2340 -0.0524
38409SOL    HW120357  10.878   7.907   6.357 -0.6601  0.8171  0.9709
38409SOL    HW220358  11.003   7.990   6.344  0.3479 -0.9891 -1.2677
38410SOL     OW20359   8.370   3.500   2.558  0.1216  0.7293 -0.3148
38410SOL    HW120360   8.448   3.473   2.508 -0.5927 -0.4224 -0.8241
38410SOL    HW220361   8.314   3.423   2.558 -0.2895  1.0025  1.5267
38411SOL     OW20362   2.917   8.439   2.095 -0.4308 -0.4315 -0.3759
38411SOL    HW120363   2.826   8.412   2.110 -0.5765  0.2682  0.0127
38411SOL    HW220364   2.956   8.440   2.183 -0.2401 -0.0386 -0.4659
38412SOL     OW20365   2.148   5.751   3.129 -0.3927  0.3599  0.1599
38412SOL    HW120366   2.161   5.673   3.074 -1.1166 -1.4855  2.4829
38412SOL    HW220367   2.233   5.794   3.130 -0.0554 -0.2248 -1.4253
38413SOL     OW20368  10.946   0.874   2.209 -0.9899  0.2442  0.1617
38413SOL    HW120369  11.011   0.943   2.201 -0.8149 -0.0323 -0.8050
38413SOL    HW220370  10.992   0.803   2.254 -0.9590  0.4718  0.4962
38414SOL     OW20371   4.037   3.543   1.138  0.2813  0.1597 -0.1870
38414SOL    HW120372   4.053   3.512   1.049  0.6606  0.8176 -0.3520
38414SOL    HW220373   3.980   3.619   1.127  0.9188  0.6808  0.0766
38415SOL     OW20374  11.189   2.304   1.542 -0.5622  0.0453  0.0011
38415SOL    HW120375  11.268   2.249   1.544  0.7449  1.8559 -0.3303
38415SOL    HW220376  11.187   2.346   1.628 -0.1473  1.3605 -0.6135
38416SOL     OW20377   1.635   5.176   4.212 -0.3029 -0.5654 -0.1022
38416SOL    HW120378   1.699   5.199   4.280 -1.8247  0.1000  1.1321
38416SOL    HW220379   1.608   5.259   4.175 -2.5601 -0.5869  1.3703
38417SOL     OW20380  11.206   7.488   2.718 -0.5028 -1.0359  0.0287
38417SOL    HW120381  11.267   7.497   2.791  0.3527  0.8386 -0.8878
38417SOL    HW220382  11.257   7.511   2.640 -2.7327  2.1348 -0.5991
38418SOL     OW20383   0.157   7.717   6.579  0.5691 -0.3011  0.8505
38418SOL    HW120384   0.121   7.796   6.539  1.4068 -1.0398 -1.4353
38418SOL    HW220385   0.251   7.735   6.590  0.6886 -0.8274  0.7145
38419SOL     OW20386   7.393   8.751  10.275  0.6039 -0.2755 -0.0221
38419SOL    HW120387   7.353   8.760  10.361  2.5172 -3.2133  1.2398
38419SOL    HW220388   7.480   8.787  10.284  0.3639  0.6203 -1.1138
38420SOL     OW20389  10.341   7.648   7.095  0.4244 -0.4406 -0.0088
38420SOL    HW120390  10.281   7.576   7.076  1.2603 -0.9590 -0.7357
38420SOL    HW220391  10.309   7.685   7.177 -2.1380  0.6417 -1.4660
38421SOL     OW20392   6.346   2.678  11.082  0.8854 -0.2633  0.4957
38421SOL    HW120393   6.301   2.594  11.079  0.0315  0.1573  1.1638
38421SOL    HW220394   6.326   2.719  10.998  2.5532 -1.3446 -0.4519
38422SOL     OW20395   1.449   8.575   9.665  0.5526  0.1830  0.1631
38422SOL    HW120396   1.360   8.603   9.639 -0.0780 -3.0363 -1.4019
38422SOL    HW220397   1.507   8.635   9.617 -0.7515  1.2115 -0.1709
38423SOL     OW20398   5.022   1.893   2.609  0.2248 -0.1757  0.1883
38423SOL    HW120399   4.976   1.977   2.613  0.9746  0.2613 -0.2856
38423SOL    HW220400   5.070   1.887   2.691  1.0309  0.3588 -0.2409
38424SOL     OW20401   2.213  10.544   2.327 -0.4166  0.0971 -0.4327
38424SOL    HW120402   2.135  10.521   2.378 -0.5774 -0.3086 -0.8496
38424SOL    HW220403   2.284  10.546   2.390 -0.8432  0.9334  0.0399
38425SOL     OW20404   2.570   6.532   3.549 -0.2174 -0.2563 -0.1898
38425SOL    HW120405   2.551   6.471   3.620 -1.5600 -0.2358 -0.5285
38425SOL    HW220406   2.592   6.614   3.593 -2.8810  0.2839  0.1781
38426SOL     OW20407   8.169  10.254   1.823 -0.3592  0.4085  0.7378
38426SOL    HW120408   8.137  10.164   1.827 -1.2342  0.7547  1.7694
38426SOL    HW220409   8.191  10.275   1.914  2.7924  0.2008  0.0897
38427SOL     OW20410   3.727   6.528   5.460 -0.0375  0.0691  0.0199
38427SOL    HW120411   3.796   6.465   5.480 -1.3956 -1.3196  0.4685
38427SOL    HW220412   3.660   6.511   5.526 -0.8320  1.3386 -0.4469
38428SOL     OW20413   4.933   1.354   8.359 -0.0070 -0.1033 -0.5364
38428SOL    HW120414   4.856   1.368   8.413  2.2302  2.8327  2.1445
38428SOL    HW220415   4.991   1.301   8.413  1.1991  0.5776 -1.1369
38429SOL     OW20416   6.042   7.659  10.574  0.2350 -0.3809 -0.4833
38429SOL    HW120417   5.983   7.620  10.638  1.5328 -0.2690  0.8084
38429SOL    HW220418   5.991   7.664  10.494 -1.4015 -0.5728  0.5319
38430SOL     OW20419   0.836   5.124   8.908  0.8318 -0.3236  0.2970
38430SOL    HW120420   0.781   5.048   8.928  0.8407 -0.8778 -1.6447
38430SOL    HW220421   0.781   5.181   8.856  2.1234 -0.9793 -1.8517
38431SOL     OW20422   1.110   5.176   5.254 -0.1447  0.1790  0.4745
38431SOL    HW120423   1.191   5.203   5.210  1.6148 -1.9396  2.3034
38431SOL    HW220424   1.079   5.101   5.203  0.6720 -0.8614  1.4856
38432SOL     OW20425   5.863   4.298   0.351 -0.2055 -0.3829  0.3058
38432SOL    HW120426   5.916   4.219   0.357  0.6615  0.2461  1.1086
38432SOL    HW220427   5.786   4.280   0.405  0.0173 -0.6631  0.5284
38433SOL     OW20428   8.054   2.501   5.037  0.4866 -0.4598 -0.5773
38433SOL    HW120429   8.018   2.558   4.969 -1.6470  0.5432  1.3247
38433SOL    HW220430   8.012   2.530   5.118  3.0776 -1.5075  1.2398
38434SOL     OW20431   2.514   7.964   9.056 -0.4497  0.3951 -0.2614
38434SOL    HW120432   2.511   8.036   9.119  1.1924 -0.7647  1.1721
38434SOL    HW220433   2.589   7.983   9.000  1.3990 -1.3117  1.5464
38435SOL     OW20434   5.070   1.180   3.430  0.1955 -0.1722  0.5411
38435SOL    HW120435   5.108   1.241   3.367 -1.0874  0.4643  0.3769
38435SOL    HW220436   5.022   1.235   3.492  0.6875 -0.8593  1.5651
38436SOL     OW20437   2.491   1.064  10.703  0.0233 -0.1661  0.3165
38436SOL    HW120438   2.434   1.053  10.627  1.2869 -1.5973 -0.4494
38436SOL    HW220439   2.522   0.976  10.722 -0.1308  0.1993  2.3982
38437SOL     OW20440   7.440   9.997   5.430  0.4272 -0.1979  0.2505
38437SOL    HW120441   7.372   9.960   5.373  1.7260 -2.4113  0.1038
38437SOL    HW220442   7.404   9.988   5.518 -0.7570  1.4885 -0.0120
38438SOL     OW20443   6.928   3.390  10.908  0.3535 -0.6371  0.3146
38438SOL    HW120444   6.864   3.335  10.954 -0.8330 -0.3236 -0.9367
38438SOL    HW220445   6.991   3.329  10.871  1.0876 -0.9209  2.0000
38439SOL     OW20446   5.398   4.172   8.007 -0.1023 -0.2848 -0.5407
38439SOL    HW120447   5.461   4.174   7.934  0.6072 -0.5622  0.0651
38439SOL    HW220448   5.354   4.257   8.002  1.6800  0.6971  0.2244
38440SOL     OW20449   6.685   7.861   3.522  0.5431 -0.5598  0.8976
38440SOL    HW120450   6.640   7.800   3.463 -0.0076  0.1028  0.6157
38440SOL    HW220451   6.774   7.828   3.528  0.5777 -0.7016 -0.2369
38441SOL     OW20452   4.654   4.000   5.679  0.2039 -0.9094 -0.0470
38441SOL    HW120453   4.663   3.962   5.766 -2.0927 -1.0146  0.1589
38441SOL    HW220454   4.700   4.084   5.685 -1.4253 -0.0972  1.8205
38442SOL     OW20455   1.462   3.153   5.155 -0.1273 -0.5255  0.7852
38442SOL    HW120456   1.423   3.073   5.191 -0.9816 -0.7115 -0.5097
38442SOL    HW220457   1.555   3.132   5.145 -0.3317 -1.3350  0.5393
38443SOL     OW20458   0.206   7.875   6.289 -0.1940  0.5503 -0.3081
38443SOL    HW120459   0.203   7.865   6.194 -0.0935  1.5344 -0.4232
38443SOL    HW220460   0.137   7.938   6.309 -0.0332  0.5589  0.2372
38444SOL     OW20461   1.640   7.064   3.767 -0.4771  0.4136 -0.0256
38444SOL    HW120462   1.689   7.031   3.842 -2.4437  2.1804  2.0803
38444SOL    HW220463   1.590   6.989   3.736 -0.4939 -0.0386  1.1004
38445SOL     OW20464  10.180   7.773   2.049 -0.0243 -1.1997 -1.0096
38445SOL    HW120465  10.220   7.799   2.132 -0.2141  0.6164 -1.4668
38445SOL    HW220466  10.099   7.824   2.044  0.3158 -0.7646 -2.5993
38446SOL     OW20467   1.563   6.212   8.917  0.7491  0.3771 -0.5075
38446SOL    HW120468   1.628   6.281   8.906  0.9659 -0.1671 -2.7240
38446SOL    HW220469   1.588   6.145   8.854  0.3979 -1.6509  1.4376
38447SOL     OW20470   2.098   7.958   3.992  0.4003 -0.0901  0.0483
38447SOL    HW120471   2.019   7.920   3.952  0.8555  0.4682 -1.4307
38447SOL    HW220472   2.093   7.933   4.084  0.0834 -2.7685 -0.6438
38448SOL     OW20473   7.590   7.232  11.085  0.1680 -0.1079 -0.4434
38448SOL    HW120474   7.619   7.323  11.079 -0.3785  0.0939  0.0078
38448SOL    HW220475   7.499   7.237  11.113  0.3369 -0.8111  0.2448
38449SOL     OW20476   3.130   9.858  10.791 -0.5425 -0.2160 -1.0318
38449SOL    HW120477   3.132   9.921  10.863 -1.2960  0.6590 -1.7614
38449SOL    HW220478   3.037   9.839  10.779 -0.3236 -1.4215 -0.8633
38450SOL     OW20479  11.186   7.714   8.138  0.1108  0.0381 -0.1341
38450SOL    HW120480  11.238   7.636   8.117  0.3641  0.4146 -0.9390
38450SOL    HW220481  11.226   7.784   8.086 -1.4809  0.2306 -1.1458
38451SOL     OW20482   0.018  10.957   4.822 -0.4101  0.2980  0.8536
38451SOL    HW120483   0.059  10.897   4.885  0.1468  1.3788  1.5260
38451SOL    HW220484  -0.076  10.946   4.835 -0.3968 -2.1673 -0.6608
38452SOL     OW20485   8.779   8.522   5.771 -0.4451 -0.1123 -0.1634
38452SOL    HW120486   8.736   8.604   5.797  1.6092  1.0575 -0.3443
38452SOL    HW220487   8.816   8.488   5.853 -0.2079 -0.1945 -0.3044
38453SOL     OW20488  11.093   9.368  10.420  0.6719 -0.0002 -0.1502
38453SOL    HW120489  11.122   9.420  10.344  0.9031 -0.3467 -0.2980
38453SOL    HW220490  11.039   9.299  10.382 -2.1611  1.8624  0.2759
38454SOL     OW20491   1.217   1.309   9.543 -0.2434  0.1508  0.3696
38454SOL    HW120492   1.233   1.303   9.637 -1.3154  2.0800  0.7019
38454SOL    HW220493   1.144   1.249   9.527 -0.5562  0.3797  0.9158
38455SOL     OW20494   4.304   5.829   5.068  0.7182 -0.1860  0.0622
38455SOL    HW120495   4.374   5.830   5.134  0.1263 -1.1116  0.7295
38455SOL    HW220496   4.264   5.742   5.078 -0.3440  0.2382 -0.4963
38456SOL     OW20497   0.399   0.596   9.285  0.4438 -0.2901  0.4248
38456SOL    HW120498   0.465   0.634   9.343 -0.2057  1.2520  0.1661
38456SOL    HW220499   0.377   0.512   9.326 -1.2717  1.5051  3.4033
38457SOL     OW20500   3.933  10.851   2.871  0.2648 -0.7289  0.4361
38457SOL    HW120501   3.859  10.794   2.893  0.2099 -1.2523 -1.0271
38457SOL    HW220502   3.963  10.819   2.786 -0.7780  2.3834 -1.2157
38458SOL     OW20503   2.855   1.146   3.009 -0.4112  0.5748 -0.1818
38458SOL    HW120504   2.916   1.192   3.065  0.3535  0.6956 -1.1085
38458SOL    HW220505   2.836   1.064   3.056  1.7633 -0.2323 -0.6788
38459SOL     OW20506   0.820  11.003   4.593 -0.0544 -0.2529 -0.5720
38459SOL    HW120507   0.907  11.025   4.626 -0.3567 -0.2192  0.2170
38459SOL    HW220508   0.760  11.051   4.651 -0.5761  0.2397 -1.5092
38460SOL     OW20509   2.682   2.209   5.615  0.7708  0.0581 -0.3114
38460SOL    HW120510   2.624   2.162   5.675 -1.6720  0.4931 -2.2267
38460SOL    HW220511   2.654   2.301   5.621  1.0551  0.2343 -1.4674
38461SOL     OW20512  10.309   8.499   8.686  0.0182 -0.0343 -0.2968
38461SOL    HW120513  10.282   8.558   8.615  0.1346 -0.0716 -0.3730
38461SOL    HW220514  10.378   8.445   8.647 -0.2896 -0.4151 -0.3104
38462SOL     OW20515   8.145   0.149   1.864 -0.0633 -0.1810 -0.4023
38462SOL    HW120516   8.052   0.159   1.881 -0.4423 -2.6875 -0.9148
38462SOL    HW220517   8.150   0.110   1.777  1.4688 -0.2251 -0.3187
38463SOL     OW20518   9.743  10.392   5.737  0.1277  0.4769 -0.0876
38463SOL    HW120519   9.666  10.337   5.724  0.7097  0.1302 -2.3432
38463SOL    HW220520   9.712  10.481   5.721 -0.5381  0.7286  2.3706
38464SOL     OW20521   8.653   1.337  10.335  0.6460  0.2888 -0.3376
38464SOL    HW120522   8.583   1.363  10.395  0.0545  0.5047 -1.1117
38464SOL    HW220523   8.607   1.297  10.261  1.3198  0.7389 -1.0057
38465SOL     OW20524   4.491   7.997  10.642  0.5128  0.2067  0.3585
38465SOL    HW120525   4.460   7.925  10.587  1.3497  1.3106 -1.6301
38465SOL    HW220526   4.447   8.075  10.607  0.7396  0.8765  1.5334
38466SOL     OW20527   7.953   6.720  10.790  0.1054  0.5065 -0.3171
38466SOL    HW120528   8.007   6.642  10.804  0.2340  0.9337  1.7886
38466SOL    HW220529   8.008   6.793  10.819 -1.5525  0.9325  1.9677
38467SOL     OW20530   2.051   7.222   4.493  0.2926  0.2027  0.3225
38467SOL    HW120531   1.987   7.161   4.529  1.1332  0.0609  1.5883
38467SOL    HW220532   1.998   7.287   4.447 -0.7872  0.1867  1.5122
38468SOL     OW20533   7.244   9.995   0.758  0.3211  0.2130 -0.7493
38468SOL    HW120534   7.284  10.044   0.830  0.5237  0.1749 -0.8358
38468SOL    HW220535   7.313   9.987   0.693 -0.6284  2.5214 -2.0997
38469SOL     OW20536   0.574   3.561   2.385 -0.2300  0.0513  0.5093
38469SOL    HW120537   0.499   3.507   2.361  0.7840 -0.8744 -0.6171
38469SOL    HW220538   0.565   3.640   2.331 -0.7397  0.2466  0.8669
38470SOL     OW20539   2.022   2.700   2.638  0.5430  0.5841  0.2926
38470SOL    HW120540   2.000   2.659   2.555  0.1830 -0.1178  0.7237
38470SOL    HW220541   2.097   2.755   2.619 -0.5736  1.7252 -0.8465
38471SOL     OW20542   4.178   9.358   4.030  0.8930  0.0670  0.1075
38471SOL    HW120543   4.243   9.294   4.001 -0.3291 -0.7473 -0.8917
38471SOL    HW220544   4.119   9.308   4.086 -0.7331  0.0428 -1.6045
38472SOL     OW20545   5.800   6.683   1.734 -1.1398  0.1193 -0.3413
38472SOL    HW120546   5.843   6.765   1.757 -0.3379  0.7216 -3.7056
38472SOL    HW220547   5.755   6.656   1.814  3.6560  0.5716  2.7287
38473SOL     OW20548   7.055   9.291   4.552  0.0001  0.2586 -0.0757
38473SOL    HW120549   7.033   9.265   4.641 -0.9047 -0.6591 -0.5542
38473SOL    HW220550   7.147   9.269   4.542  0.4987  1.7592  1.1177
38474SOL     OW20551   3.533  10.854   7.439  0.0947  0.2915  0.3171
38474SOL    HW120552   3.484  10.916   7.492 -0.3989 -0.6337  0.9499
38474SOL    HW220553   3.571  10.793   7.502 -0.9231 -1.1296 -0.4149
38475SOL     OW20554   9.361   8.769   2.090 -0.2887  0.3728  0.2554
38475SOL    HW120555   9.429   8.793   2.027  0.2619 -0.5745  0.4794
38475SOL    HW220556   9.366   8.838   2.157  1.2143 -0.2903  0.8442
38476SOL     OW20557   1.353   9.054   7.210  0.0533 -0.4300  0.2502
38476SOL    HW120558   1.351   9.014   7.123  1.3827  0.1286 -0.0473
38476SOL    HW220559   1.318   9.142   7.198  0.1926 -0.3690  0.2958
38477SOL     OW20560   7.186  10.579  11.218  0.1483  0.3767 -0.1421
38477SOL    HW120561   7.250  10.647  11.196  0.6088 -0.2343 -0.6933
38477SOL    HW220562   7.239  10.504  11.244 -0.3599  1.1075  3.2607
38478SOL     OW20563   8.545   1.615   9.355  0.5289 -0.3545  0.0936
38478SOL    HW120564   8.610   1.578   9.415  0.2909  0.6735  0.9977
38478SOL    HW220565   8.556   1.710   9.364 -1.4039 -0.1765  0.5955
38479SOL     OW20566   5.874   4.800   8.141 -0.0246 -0.0111  0.3492
38479SOL    HW120567   5.909   4.872   8.192  0.3518  0.6984 -0.9106
38479SOL    HW220568   5.904   4.721   8.187 -0.0549  0.6218  1.4596
38480SOL     OW20569   2.791   9.463   8.634  0.1909  0.2885  0.2815
38480SOL    HW120570   2.881   9.450   8.603  0.3125  0.3209  0.6259
38480SOL    HW220571   2.760   9.540   8.585  0.5659  0.6665  0.6302
38481SOL     OW20572   6.160   1.054   6.373  0.2568 -0.2357  0.3139
38481SOL    HW120573   6.236   1.113   6.376 -0.0027  0.1253 -0.0101
38481SOL    HW220574   6.107   1.089   6.301 -1.8635  1.5484  2.6769
38482SOL     OW20575   1.429   4.473   3.415  0.3038 -0.1338  0.0041
38482SOL    HW120576   1.363   4.482   3.346 -0.4825  0.6037  0.8331
38482SOL    HW220577   1.425   4.381   3.440  0.2333 -0.2951 -0.5761
38483SOL     OW20578   5.328   3.136   8.887 -0.1202  0.3777 -0.1800
38483SOL    HW120579   5.248   3.085   8.873 -0.0618  0.5045 -0.9964
38483SOL    HW220580   5.329   3.199   8.816  0.9307  0.0889 -0.4306
38484SOL     OW20581  11.157   9.442   7.201  0.3945 -0.5243  0.0424
38484SOL    HW120582  11.070   9.471   7.229 -0.4071 -1.9620 -0.9276
38484SOL    HW220583  11.187   9.511   7.142 -0.8390 -0.8565 -1.0027
38485SOL     OW20584   5.619   9.011   3.659  0.1608  0.7369  0.0268
38485SOL    HW120585   5.556   8.939   3.668  0.6119 -0.0362 -2.5453
38485SOL    HW220586   5.662   9.017   3.745 -1.8342 -0.1969  1.1216
38486SOL     OW20587  10.356   4.940   9.724 -0.2742 -0.5377 -0.0723
38486SOL    HW120588  10.324   4.862   9.678 -0.9012 -0.5450  0.3679
38486SOL    HW220589  10.339   4.922   9.816  0.6103 -0.3506  0.1295
38487SOL     OW20590   1.356   3.379   2.100  0.5795 -0.4460 -0.2694
38487SOL    HW120591   1.402   3.297   2.081  0.1643 -0.5450 -0.8444
38487SOL    HW220592   1.316   3.364   2.186  2.4516  0.0061  0.7217
38488SOL     OW20593   7.283   3.549   8.600  0.0938  0.1722  0.2102
38488SOL    HW120594   7.213   3.498   8.558 -0.3448  1.2349 -0.3578
38488SOL    HW220595   7.358   3.490   8.601 -0.5924 -0.7223  0.1518
38489SOL     OW20596   4.796   0.040   8.615  0.2037  0.1086  0.5562
38489SOL    HW120597   4.815   0.062   8.523  0.0030 -2.2414 -0.0880
38489SOL    HW220598   4.701   0.046   8.622  0.2800  1.1149  0.8565
38490SOL     OW20599   9.501   6.357   9.967  0.6476  0.6213  0.5903
38490SOL    HW120600   9.508   6.279   9.913  0.7468  1.4729 -0.6326
38490SOL    HW220601   9.458   6.327  10.047 -0.4162 -0.4402 -0.3666
38491SOL     OW20602   7.347   6.034   2.366 -0.3639  0.0555  0.2328
38491SOL    HW120603   7.426   6.083   2.391 -0.1243 -0.6948  0.9343
38491SOL    HW220604   7.380   5.961   2.314 -0.3284 -1.8958  2.8979
38492SOL     OW20605   5.785   4.782   9.902  0.5846  0.5540  0.3497
38492SOL    HW120606   5.765   4.829   9.821  1.8062  0.5521  0.0369
38492SOL    HW220607   5.702   4.779   9.949 -0.0325  0.9649 -0.6930
38493SOL     OW20608   1.933   3.055   8.352 -0.3388 -0.4408 -0.0692
38493SOL    HW120609   2.014   3.105   8.353 -0.6535  0.0519  0.8460
38493SOL    HW220610   1.960   2.965   8.374 -0.3703  0.2310  2.8665
38494SOL     OW20611   3.676   8.637   8.692  0.2608  0.0348 -0.0965
38494SOL    HW120612   3.738   8.701   8.729 -0.0942  1.0470 -1.2311
38494SOL    HW220613   3.591   8.664   8.726  0.1442  0.0011 -0.3626
38495SOL     OW20614   4.646   4.480  10.547  0.0157 -0.2106 -0.2995
38495SOL    HW120615   4.609   4.430  10.475  0.5118 -0.7779 -0.1579
38495SOL    HW220616   4.699   4.547  10.505 -0.9915  0.4816 -0.4999
38496SOL     OW20617   6.060   3.865   1.709  0.4718 -0.4973 -0.7114
38496SOL    HW120618   6.018   3.846   1.793 -1.4776 -0.0389 -1.5700
38496SOL    HW220619   6.075   3.959   1.710  0.6526 -0.5241 -0.8027
38497SOL     OW20620   7.355  10.073   3.567 -0.0664  0.3080  0.0231
38497SOL    HW120621   7.441  10.034   3.557 -1.4369 -3.1605  1.0167
38497SOL    HW220622   7.369  10.148   3.626  2.1528 -0.5299  0.6031
38498SOL     OW20623   0.670   2.453   1.713 -0.4095 -0.2023 -0.1942
38498SOL    HW120624   0.751   2.410   1.685  0.1061  0.1965  0.6942
38498SOL    HW220625   0.683   2.471   1.806 -0.9574  1.1328 -0.3678
38499SOL     OW20626  10.496  10.868   3.801  0.3675 -0.4897  0.6118
38499SOL    HW120627  10.550  10.922   3.744  0.0392  0.6020  1.3146
38499SOL    HW220628  10.541  10.784   3.804  0.7765 -0.3202 -0.6630
38500SOL     OW20629   8.629   1.949  11.051 -0.1403 -0.3162  0.0289
38500SOL    HW120630   8.684   1.988  11.119  2.0529  2.0987 -3.0026
38500SOL    HW220631   8.546   1.998  11.056 -0.7432 -1.5419  2.2719
38501SOL     OW20632   8.083   5.420   8.066  0.0635  0.1785  0.1230
38501SOL    HW120633   8.014   5.353   8.061 -0.6771  0.8929  0.7131
38501SOL    HW220634   8.106   5.424   8.159 -1.0688  1.9226  0.3390
38502SOL     OW20635   7.979   9.285   6.721 -0.4609  0.5949 -0.3701
38502SOL    HW120636   7.981   9.190   6.716 -3.4301  0.4029  0.9994
38502SOL    HW220637   8.026   9.306   6.802  0.0376  0.2897 -0.5791
38503SOL     OW20638   6.373   6.790   5.150  0.5242 -0.3808 -0.2757
38503SOL    HW120639   6.434   6.859   5.125 -0.2420  0.2747 -0.3612
38503SOL    HW220640   6.354   6.743   5.069  0.4022 -0.1627 -0.3753
38504SOL     OW20641  10.932   1.106   1.679  0.4198  0.1135 -0.0891
38504SOL    HW120642  10.902   1.193   1.652 -0.2706 -0.4500 -1.1788
38504SOL    HW220643  10.858   1.069   1.727  0.4951 -0.1026 -0.1384
38505SOL     OW20644  11.029   5.777   1.386 -0.3492  0.5579 -0.3222
38505SOL    HW120645  10.942   5.795   1.421  0.0916 -0.6442  1.5368
38505SOL    HW220646  11.023   5.794   1.293 -2.4850  0.8077 -0.1503
38506SOL     OW20647   1.157   7.749   4.810 -0.0754  0.7223 -0.1715
38506SOL    HW120648   1.211   7.828   4.802  0.7362  0.1056 -0.8538
38506SOL    HW220649   1.083   7.765   4.752  0.3031  0.7969 -0.6311
38507SOL     OW20650  10.994  11.194   6.991  0.3514 -0.0740  0.1805
38507SOL    HW120651  11.032  11.209   7.077 -2.1472  3.2903  0.8088
38507SOL    HW220652  11.040  11.254   6.933  0.6664 -0.9053 -0.4399
38508SOL     OW20653   4.124   5.632   1.758 -0.1960  0.1382 -0.1952
38508SOL    HW120654   4.175   5.565   1.804 -0.9301 -0.4807 -0.2723
38508SOL    HW220655   4.037   5.628   1.799  0.0097  1.6587  0.4096
38509SOL     OW20656   3.905   1.385   7.183  0.6144 -0.4180  0.5196
38509SOL    HW120657   3.818   1.395   7.145  0.3109 -1.2071  1.0012
38509SOL    HW220658   3.940   1.474   7.186 -0.3072 -0.0548  0.6443
38510SOL     OW20659   9.859   5.391   1.787 -0.2571 -0.3060  0.1515
38510SOL    HW120660   9.775   5.392   1.741 -0.0125  0.5997 -0.3002
38510SOL    HW220661   9.911   5.459   1.742  0.9292 -1.2880  0.0246
38511SOL     OW20662   4.500   1.449   7.101 -0.2898 -0.1161  0.1546
38511SOL    HW120663   4.564   1.469   7.169 -0.1461 -1.4963  0.4301
38511SOL    HW220664   4.431   1.515   7.113  0.0811  0.0974  1.1628
38512SOL     OW20665   8.447   4.372   4.403  0.2117 -0.6326 -0.5839
38512SOL    HW120666   8.469   4.279   4.399  1.0357 -0.4050 -1.5442
38512SOL    HW220667   8.380   4.384   4.336 -1.4906 -0.9487  1.0240
38513SOL     OW20668   2.744   6.608  10.987 -0.1074 -0.2956  0.4557
38513SOL    HW120669   2.815   6.602  11.051  0.0552  1.1075  0.4424
38513SOL    HW220670   2.724   6.702  10.984 -0.6105 -0.4403 -1.0054
38514SOL     OW20671  11.036   7.225   9.588 -0.4236 -0.1580 -0.0372
38514SOL    HW120672  11.079   7.292   9.641  0.6222  0.2404 -1.3514
38514SOL    HW220673  10.943   7.242   9.599 -0.1748  1.9861 -0.9003
38515SOL     OW20674  10.428   1.701   0.599 -0.0448 -0.3539 -0.0245
38515SOL    HW120675  10.420   1.791   0.630  0.3991 -0.8867  1.6924
38515SOL    HW220676  10.522   1.684   0.598  0.0385 -0.0088 -2.7644
38516SOL     OW20677   9.477   8.056   2.593 -0.0254  0.0315  0.3212
38516SOL    HW120678   9.426   8.029   2.517  0.5696 -1.0604  0.3018
38516SOL    HW220679   9.419   8.041   2.667 -0.1351 -0.1369  0.2009
38517SOL     OW20680   8.971   5.664   8.496  0.2190  0.1356 -0.4534
38517SOL    HW120681   8.908   5.599   8.466 -1.4248  1.5825 -0.2044
38517SOL    HW220682   8.989   5.718   8.419  1.7996 -0.7518 -0.7343
38518SOL     OW20683  11.058   2.621   3.159 -0.3906  0.4210 -0.0781
38518SOL    HW120684  11.005   2.541   3.155 -0.3442  0.3045  1.3526
38518SOL    HW220685  11.103   2.625   3.075 -1.1182 -0.5605 -0.5170
38519SOL     OW20686   8.275   7.624   3.657  0.0515  0.4660  0.5169
38519SOL    HW120687   8.298   7.571   3.580  1.1515  2.9383 -0.8944
38519SOL    HW220688   8.180   7.631   3.653 -0.2820 -2.4717  1.4936
38520SOL     OW20689   2.431   9.774   4.087 -0.0919  0.5791 -0.1554
38520SOL    HW120690   2.431   9.828   4.008  0.5079 -0.3298 -0.7745
38520SOL    HW220691   2.522   9.773   4.116 -0.4603  1.7272  1.1210
38521SOL     OW20692   7.987  10.167   3.993  0.1171 -1.3443 -0.3869
38521SOL    HW120693   7.903  10.208   4.014 -1.0512 -3.5469 -0.6361
38521SOL    HW220694   8.023  10.142   4.078  0.5838 -0.2996 -0.2725
38522SOL     OW20695   4.774   1.654   2.910  0.2756 -0.3521 -0.2489
38522SOL    HW120696   4.865   1.679   2.927 -0.1089 -0.1241  1.6486
38522SOL    HW220697   4.775   1.618   2.822  2.4787 -1.5449  0.2115
38523SOL     OW20698   9.471   6.030   6.254 -0.2828  0.4323  0.1083
38523SOL    HW120699   9.378   6.009   6.259 -0.3291  0.5304 -0.3564
38523SOL    HW220700   9.480   6.079   6.173  0.2553  0.0008 -0.0950
38524SOL     OW20701   4.569   8.478   0.236 -0.5761  0.2876 -0.3929
38524SOL    HW120702   4.524   8.455   0.155 -1.7093  0.1026  0.2794
38524SOL    HW220703   4.658   8.444   0.224 -1.0127 -0.6213 -1.1579
38525SOL     OW20704   1.372   2.342   7.029  0.3712 -0.2254 -0.0155
38525SOL    HW120705   1.386   2.405   7.099 -1.5846  0.3761 -0.1461
38525SOL    HW220706   1.297   2.290   7.058  1.0670 -1.5846 -0.5609
38526SOL     OW20707   8.908   1.395   6.179  0.0118  0.0915 -0.1334
38526SOL    HW120708   8.968   1.354   6.116 -0.4469  1.1672 -1.2963
38526SOL    HW220709   8.922   1.489   6.167 -0.5380  0.3129  0.9352
38527SOL     OW20710   3.242   1.398   4.591 -0.0188  0.7098  0.7909
38527SOL    HW120711   3.317   1.403   4.532  0.3633  0.2035  1.2395
38527SOL    HW220712   3.181   1.464   4.557 -0.2683 -0.3443 -0.8408
38528SOL     OW20713   6.083   7.414   4.283  0.3020  0.0073 -0.5226
38528SOL    HW120714   6.132   7.377   4.209  1.7839  1.1098 -0.1206
38528SOL    HW220715   6.008   7.356   4.294  0.3708 -0.4911 -2.5388
38529SOL     OW20716   7.969   3.878   4.995 -0.0515  0.4642 -0.2016
38529SOL    HW120717   7.991   3.806   5.055 -3.1807 -0.0334  0.4220
38529SOL    HW220718   7.949   3.835   4.912  0.8962  0.8771 -0.6539
38530SOL     OW20719   1.230  10.169   0.971  0.1731  0.2390  0.1005
38530SOL    HW120720   1.164  10.234   0.993  0.1119  0.0966  0.3340
38530SOL    HW220721   1.180  10.091   0.947  0.2635 -0.0515  0.8341
38531SOL     OW20722   6.143   7.545   5.050 -0.3671 -0.7280  0.2267
38531SOL    HW120723   6.116   7.509   4.965  0.3344  2.0629 -1.2474
38531SOL    HW220724   6.215   7.488   5.078 -0.9496 -1.9982 -0.7597
38532SOL     OW20725   6.067   6.480   2.713 -0.3369  0.2026 -0.0102
38532SOL    HW120726   6.062   6.575   2.703  1.2822  0.2203 -0.7111
38532SOL    HW220727   5.976   6.452   2.723 -0.7314  1.9605  1.4745
38533SOL     OW20728   0.087   5.779   6.815 -0.7366 -0.0679  0.1916
38533SOL    HW120729   0.036   5.741   6.887  2.4921 -0.7296  2.2268
38533SOL    HW220730   0.097   5.707   6.753  1.2618 -1.2121  1.7810
38534SOL     OW20731   6.882   5.512   3.198 -0.2206  0.1868 -0.0923
38534SOL    HW120732   6.802   5.551   3.163 -1.9487 -2.5389  0.7172
38534SOL    HW220733   6.867   5.507   3.292  0.3590 -1.4997 -0.0784
38535SOL     OW20734   4.580   1.587   4.549  0.2769 -0.4810  0.4490
38535SOL    HW120735   4.601   1.495   4.534 -1.7053 -0.9231  0.2339
38535SOL    HW220736   4.623   1.633   4.477  2.1956 -1.0926  1.1619
38536SOL     OW20737   0.798   0.880   3.216 -0.6165  0.0416  0.1254
38536SOL    HW120738   0.740   0.936   3.164 -1.3445 -0.1500  0.7315
38536SOL    HW220739   0.772   0.896   3.306 -0.6665 -1.1134  0.3148
38537SOL     OW20740  10.911  10.559   8.241  0.3713 -0.3619 -0.1917
38537SOL    HW120741  10.976  10.504   8.284  0.7571  1.6729  1.9047
38537SOL    HW220742  10.892  10.628   8.304 -0.8639  1.3419 -2.3444
38538SOL     OW20743   3.753   2.093   6.800  0.2514  0.1049  0.4399
38538SOL    HW120744   3.759   1.998   6.799 -0.4689  0.0345  1.9304
38538SOL    HW220745   3.659   2.111   6.789  0.2131  0.5972  1.5214
38539SOL     OW20746  10.283  10.930   3.585 -0.1694  0.1079  0.5797
38539SOL    HW120747  10.338  10.934   3.664  0.2671 -2.3741  0.4456
38539SOL    HW220748  10.212  10.991   3.603  0.1145 -0.1393  2.7807
38540SOL     OW20749   7.965   4.016   1.042  0.0430  0.2130  0.0176
38540SOL    HW120750   7.903   3.999   1.113  0.3366 -1.8380 -0.2040
38540SOL    HW220751   8.032   4.072   1.081 -1.2038  1.2933  0.6297
38541SOL     OW20752   8.989   0.508   1.221  0.6254  0.2447  0.0776
38541SOL    HW120753   8.955   0.473   1.138 -0.1358 -0.3298  0.6207
38541SOL    HW220754   9.015   0.597   1.200 -3.2050  1.4484  0.1024
38542SOL     OW20755   2.258   1.692   0.380 -0.2381 -0.3765 -0.6689
38542SOL    HW120756   2.213   1.644   0.450  0.3504  0.4372  0.2837
38542SOL    HW220757   2.197   1.762   0.356 -0.0598 -0.1037 -0.3312
38543SOL     OW20758   3.779   5.168   3.293 -0.0518 -0.1617 -0.2710
38543SOL    HW120759   3.751   5.118   3.217  0.2257 -0.6013 -0.0882
38543SOL    HW220760   3.705   5.163   3.354  0.1286 -0.6930 -0.0905
38544SOL     OW20761   2.709   7.278   2.786  0.0777  1.0168 -0.3294
38544SOL    HW120762   2.644   7.348   2.792 -3.4378 -2.3101  2.6501
38544SOL    HW220763   2.673   7.218   2.720 -0.0005 -0.9185  1.4365
38545SOL     OW20764  10.245   8.518   8.405 -0.0994  0.0658  0.1348
38545SOL    HW120765  10.271   8.433   8.369  1.4363  0.4953  0.2342
38545SOL    HW220766  10.223   8.570   8.327 -0.2144 -0.1328  0.0316
38546SOL     OW20767  10.182   9.689   1.826  0.2863  0.2675 -0.2659
38546SOL    HW120768  10.111   9.714   1.884 -0.8796 -0.4614 -1.3568
38546SOL    HW220769  10.260   9.689   1.881 -0.7370 -0.0210  1.1913
38547SOL     OW20770   9.875   7.488   5.594  0.5747 -0.0286 -0.2177
38547SOL    HW120771   9.846   7.413   5.543 -0.4870 -0.8828  1.6185
38547SOL    HW220772   9.971   7.485   5.588  0.6478 -2.7442  1.5379
38548SOL     OW20773   1.441   7.046  10.854 -0.2045 -0.1289 -0.3030
38548SOL    HW120774   1.400   6.968  10.891  0.1813 -0.3075 -0.2535
38548SOL    HW220775   1.502   7.013  10.788 -0.5946  0.1676 -0.8166
38549SOL     OW20776  10.723   7.559   6.988 -0.1065  0.3452  0.1435
38549SOL    HW120777  10.802   7.554   6.934  0.3797 -0.9581  0.9662
38549SOL    HW220778  10.681   7.641   6.961  0.6130  0.1757 -1.5452
38550SOL     OW20779   7.233   7.343   0.963 -0.6423  0.0289  0.2825
38550SOL    HW120780   7.263   7.365   1.052  0.0796  0.8493 -0.1557
38550SOL    HW220781   7.267   7.414   0.908 -1.2512 -0.3738 -0.6217
38551SOL     OW20782   2.792   6.502   1.134 -0.4699 -0.2356 -0.6413
38551SOL    HW120783   2.741   6.564   1.082 -0.6684 -1.0944 -1.4879
38551SOL    HW220784   2.727   6.448   1.179 -0.3122 -0.6976 -0.9599
38552SOL     OW20785   1.544   8.824   7.160 -0.6003 -0.2738  0.3806
38552SOL    HW120786   1.469   8.771   7.184  0.2993 -1.6210  0.2872
38552SOL    HW220787   1.578   8.783   7.080  1.1521 -0.6430  1.2751
38553SOL     OW20788   0.670   2.983   8.817  0.0360  0.3374  0.1588
38553SOL    HW120789   0.628   2.903   8.787 -0.1468  0.5855 -0.2436
38553SOL    HW220790   0.706   3.024   8.738  0.3019  0.5519  0.3877
38554SOL     OW20791   2.591   5.727   8.422  0.1441  0.3362  0.4103
38554SOL    HW120792   2.620   5.808   8.379 -0.2792  0.1732 -0.1874
38554SOL    HW220793   2.529   5.757   8.489  2.5136  0.7889  2.4863
38555SOL     OW20794   5.020   8.401   2.638 -0.2383  0.3531 -0.3765
38555SOL    HW120795   5.049   8.460   2.708 -0.3121 -0.3013  0.2067
38555SOL    HW220796   5.100   8.382   2.588  0.4397 -1.8052  1.4908
38556SOL     OW20797   3.386   7.826   6.653  0.2682 -0.0448 -0.3812
38556SOL    HW120798   3.412   7.805   6.743 -2.7999  2.5638  1.2039
38556SOL    HW220799   3.419   7.915   6.639  2.4227 -1.1246 -2.6020
38557SOL     OW20800   0.084   3.207   6.813 -0.1757  1.0621 -0.7799
38557SOL    HW120801   0.134   3.217   6.732  1.1180 -0.2377 -0.1538
38557SOL    HW220802  -0.007   3.215   6.785  0.1157 -1.8929 -2.7996
38558SOL     OW20803   9.393   3.704   0.190  0.3710 -0.1994 -0.4845
38558SOL    HW120804   9.330   3.670   0.255 -1.5092  0.2688 -2.0186
38558SOL    HW220805   9.398   3.635   0.124  2.0713 -0.5534 -0.0123
38559SOL     OW20806   2.640   8.647   8.622 -0.7365  0.5554  0.0004
38559SOL    HW120807   2.735   8.642   8.632 -0.5075  0.4856 -2.0671
38559SOL    HW220808   2.606   8.611   8.704  1.0089  0.3767  0.6731
38560SOL     OW20809   0.353   2.364   3.297 -0.4932  0.1652  0.4247
38560SOL    HW120810   0.422   2.425   3.274  0.1838 -0.5974  0.4096
38560SOL    HW220811   0.272   2.415   3.291 -0.1708  0.4448 -1.9180
38561SOL     OW20812  10.860   1.267   0.108  0.6730 -0.3151  0.4739
38561SOL    HW120813  10.829   1.192   0.057  2.7871 -1.9769  1.5774
38561SOL    HW220814  10.932   1.304   0.056 -0.7603  1.3692 -0.3701
38562SOL     OW20815   8.007  10.037   6.325  0.1676 -0.1544 -0.4153
38562SOL    HW120816   7.939  10.074   6.381 -0.8404  0.3766 -1.9571
38562SOL    HW220817   8.073  10.004   6.386 -2.1320 -2.0096  1.1365
38563SOL     OW20818   3.312   3.706   7.306  0.0114 -0.6193  0.3460
38563SOL    HW120819   3.258   3.645   7.255 -0.3105 -1.2203  1.3960
38563SOL    HW220820   3.283   3.792   7.278  3.3860 -0.8127 -4.3304
38564SOL     OW20821   7.810   4.275   1.970  0.1908  0.0806 -0.6060
38564SOL    HW120822   7.823   4.245   2.060 -0.2080  1.2051 -0.1611
38564SOL    HW220823   7.899   4.282   1.934  0.4329  0.9002  0.1363
38565SOL     OW20824   7.114   1.733   5.286 -0.2530 -0.0203 -0.3792
38565SOL    HW120825   7.114   1.659   5.226  0.1405  0.1533 -0.5982
38565SOL    HW220826   7.034   1.781   5.265 -1.2778 -1.1945  0.7879
38566SOL     OW20827   8.444   1.727   7.931  0.4133 -0.2778  0.3004
38566SOL    HW120828   8.349   1.723   7.941  0.3965 -2.1530 -0.4956
38566SOL    HW220829   8.469   1.808   7.975 -1.5537  0.2508  0.4900
38567SOL     OW20830   3.478   2.812   0.439 -0.0222 -0.8485  0.4124
38567SOL    HW120831   3.403   2.752   0.436  0.1578 -1.1749  1.8866
38567SOL    HW220832   3.549   2.759   0.476  0.8539 -0.4512 -0.6688
38568SOL     OW20833   8.560  10.708   1.841  0.1905  0.1560 -0.3575
38568SOL    HW120834   8.497  10.647   1.804  0.7101 -1.3944  1.2185
38568SOL    HW220835   8.642  10.688   1.795  0.2818 -0.1132 -0.0781
38569SOL     OW20836  11.305   6.683  10.709  0.1950  0.0827 -0.1036
38569SOL    HW120837  11.336   6.632  10.784  0.0694  0.1819  0.0161
38569SOL    HW220838  11.218   6.713  10.734  0.1668  0.1464 -0.2760
38570SOL     OW20839   8.496   0.904   2.275  0.6189 -0.3930 -0.3214
38570SOL    HW120840   8.466   0.873   2.189  0.1301 -2.9539  0.7264
38570SOL    HW220841   8.431   0.871   2.337  2.0344 -0.2708  1.2654
38571SOL     OW20842   3.324   0.928   6.223 -0.0353 -0.3667 -0.2041
38571SOL    HW120843   3.358   0.868   6.157 -1.6342 -0.4313 -0.9923
38571SOL    HW220844   3.402   0.962   6.267  1.0110 -0.7679 -1.7149
38572SOL     OW20845  10.951   1.056   1.338 -0.0641 -0.1414 -1.0393
38572SOL    HW120846  10.996   1.025   1.259  0.7616  0.0920 -0.6569
38572SOL    HW220847  11.015   1.046   1.408 -1.1292 -1.2772 -0.2100
38573SOL     OW20848   2.728   4.172   2.069 -0.1995  0.1282  0.9067
38573SOL    HW120849   2.639   4.181   2.033  0.4672 -1.1356 -1.1233
38573SOL    HW220850   2.760   4.262   2.075  0.1827  0.3418 -3.1205
38574SOL     OW20851   5.242   9.682   0.898  0.0245  0.0945 -0.0061
38574SOL    HW120852   5.232   9.621   0.825  0.2783 -0.1304  0.1466
38574SOL    HW220853   5.307   9.745   0.867  0.1531 -0.0166  0.0365
38575SOL     OW20854   7.285   9.076   5.521 -0.6216  0.5171  0.1104
38575SOL    HW120855   7.200   9.102   5.486 -0.4073  0.3178 -0.5643
38575SOL    HW220856   7.285   9.109   5.611 -1.5882  0.1261  0.2585
38576SOL     OW20857   4.820   6.632   4.546  0.3191 -0.3049 -0.1570
38576SOL    HW120858   4.798   6.706   4.603 -0.3297  0.1020 -0.9301
38576SOL    HW220859   4.894   6.664   4.494  2.3793 -1.4519  2.0010
38577SOL     OW20860   6.362   0.323  10.217 -0.3707 -0.4649  0.2991
38577SOL    HW120861   6.296   0.353  10.279  1.1570  1.4747  1.0334
38577SOL    HW220862   6.327   0.347  10.131 -2.1325 -2.4824  0.3937
38578SOL     OW20863   2.595   3.226   5.553 -0.0571  0.1981  0.2262
38578SOL    HW120864   2.520   3.282   5.535 -0.3798  0.0517  1.0906
38578SOL    HW220865   2.653   3.239   5.478 -1.4137 -0.5119 -0.9672
38579SOL     OW20866   5.406   0.696   5.524 -0.0440 -0.0671 -0.5386
38579SOL    HW120867   5.365   0.655   5.447 -0.4087 -0.1822 -0.2870
38579SOL    HW220868   5.466   0.630   5.557 -0.1504 -0.1540 -0.5169
38580SOL     OW20869  10.237   0.980   8.575  0.1959  0.4090  0.5074
38580SOL    HW120870  10.172   0.912   8.591  0.5166 -0.2679 -0.9626
38580SOL    HW220871  10.186   1.060   8.564 -0.3070  0.1074  0.6144
38581SOL     OW20872   9.330   8.516   8.998  0.1474  0.2070 -0.9763
38581SOL    HW120873   9.284   8.499   8.917  1.0033 -0.3355 -1.3565
38581SOL    HW220874   9.294   8.452   9.060 -1.0872  1.1675 -0.7014
38582SOL     OW20875   6.902   1.189   3.885 -0.0342  0.6280  0.5136
38582SOL    HW120876   6.830   1.208   3.824 -0.7078  2.2369  1.7869
38582SOL    HW220877   6.980   1.224   3.842 -0.1458 -0.2678 -0.4423
38583SOL     OW20878   8.405   0.491   7.161  0.4602 -0.3437  0.1643
38583SOL    HW120879   8.443   0.569   7.201  0.0803 -0.3888  0.6168
38583SOL    HW220880   8.367   0.522   7.079  3.3942 -0.6845 -1.3984
38584SOL     OW20881   3.787   4.908   9.029 -0.4492  0.1461 -0.1733
38584SOL    HW120882   3.804   4.817   9.005 -0.6000 -0.5413  2.2752
38584SOL    HW220883   3.697   4.908   9.060  0.4845  0.5121  2.6604
38585SOL     OW20884   3.373   0.534  10.799 -0.2288 -0.0624  0.1850
38585SOL    HW120885   3.382   0.455  10.852 -0.7424 -0.4529 -0.2988
38585SOL    HW220886   3.463   0.560  10.778 -0.0269  0.0318  1.1405
38586SOL     OW20887   5.566   3.039   7.198  0.1581  0.6891 -0.0752
38586SOL    HW120888   5.662   3.042   7.203  0.0649  1.3939  1.8646
38586SOL    HW220889   5.546   3.074   7.111  1.7196 -1.3697 -1.3024
38587SOL     OW20890   3.285   3.160  10.786  0.0551  1.1039 -0.0086
38587SOL    HW120891   3.363   3.123  10.826  0.0854  1.6346  0.4284
38587SOL    HW220892   3.213   3.106  10.821  0.1988  0.7888 -0.1992
38588SOL     OW20893   4.752   9.224   9.193 -0.0338 -0.0542  0.3495
38588SOL    HW120894   4.833   9.216   9.243  0.4696 -1.7979 -0.7088
38588SOL    HW220895   4.780   9.247   9.105 -0.7362 -0.0467  0.1262
38589SOL     OW20896   2.283   1.038   0.622 -0.1197 -0.0184  0.0699
38589SOL    HW120897   2.340   0.984   0.567 -0.2273 -0.1424  0.0805
38589SOL    HW220898   2.200   1.041   0.575  0.2627  1.1756 -0.5509
38590SOL     OW20899   1.744   5.627   1.492  0.7246 -0.2688  0.7010
38590SOL    HW120900   1.771   5.712   1.456  0.7606 -0.2818  0.6959
38590SOL    HW220901   1.825   5.590   1.527  0.7529 -0.4074  0.4896
38591SOL     OW20902   5.067   4.125   0.314  0.3852 -0.1796 -0.0642
38591SOL    HW120903   5.123   4.122   0.237  0.8671  0.2381  0.2653
38591SOL    HW220904   5.046   4.033   0.332  2.5135 -0.5086  0.9239
38592SOL     OW20905   0.201   5.672   8.109 -0.1288 -0.0259  0.2270
38592SOL    HW120906   0.165   5.590   8.076 -0.1433  0.6833 -1.5574
38592SOL    HW220907   0.230   5.719   8.031  0.3437  1.4505  1.2673
38593SOL     OW20908   6.736   5.318   1.354  0.3851 -0.3331  0.5280
38593SOL    HW120909   6.798   5.346   1.287  0.9117  0.2748  1.2468
38593SOL    HW220910   6.762   5.228   1.374 -0.0719 -0.6719 -0.4105
38594SOL     OW20911   3.947   4.571   4.010  0.0521 -0.1973 -0.1435
38594SOL    HW120912   3.997   4.535   3.937 -0.9077  0.0116 -0.9114
38594SOL    HW220913   3.903   4.649   3.974 -0.7145 -0.2990  0.5441
38595SOL     OW20914   6.131   6.487   7.242 -0.0188 -0.1615  0.3910
38595SOL    HW120915   6.166   6.461   7.327 -1.4365 -0.5009  0.8888
38595SOL    HW220916   6.194   6.550   7.208  0.9274 -0.5605  1.3741
38596SOL     OW20917   4.836   8.901   1.735 -0.3469  0.3478  0.0483
38596SOL    HW120918   4.795   8.976   1.779 -1.5783  0.2314 -0.8875
38596SOL    HW220919   4.791   8.825   1.770 -0.4359  0.1700 -0.4559
38597SOL     OW20920   2.632   5.948   9.191 -0.2988 -0.3534 -0.3612
38597SOL    HW120921   2.654   6.037   9.164  0.2529  0.1242  1.5350
38597SOL    HW220922   2.685   5.934   9.270 -2.3410 -1.4066  0.8462
38598SOL     OW20923   2.142   5.871   4.148 -0.6463  0.0089  0.0476
38598SOL    HW120924   2.209   5.920   4.196 -1.6253  0.7184  0.7213
38598SOL    HW220925   2.131   5.791   4.199 -0.5922  0.0794  0.1730
38599SOL     OW20926   8.353   1.208   2.906  0.5364 -0.4758  0.3677
38599SOL    HW120927   8.416   1.230   2.837 -0.1605 -1.3828 -0.5709
38599SOL    HW220928   8.372   1.117   2.929 -1.4399 -1.2934 -1.0602
38600SOL     OW20929   0.295   4.973   7.938 -0.2646 -0.1019 -0.5081
38600SOL    HW120930   0.243   4.893   7.944 -1.8115  0.8431 -0.9251
38600SOL    HW220931   0.230   5.044   7.936  1.1325  1.2841  1.7090
38601SOL     OW20932   6.548   4.682   3.145  0.3738  0.5174 -0.3123
38601SOL    HW120933   6.626   4.738   3.148  2.0015 -1.6797  0.1745
38601SOL    HW220934   6.504   4.697   3.229  0.4199  1.5583 -0.4714
38602SOL     OW20935   0.512   3.361  10.715 -0.4621  0.3096  0.8950
38602SOL    HW120936   0.462   3.389  10.792 -0.5359 -0.7130  1.2228
38602SOL    HW220937   0.479   3.273  10.696  0.8424 -0.1543  0.7796
38603SOL     OW20938   5.919   4.767   2.683  0.9493 -0.1798  0.3907
38603SOL    HW120939   5.933   4.827   2.756  0.9779 -0.4437  0.6033
38603SOL    HW220940   5.832   4.730   2.699  0.7532  0.1195  0.0338
38604SOL     OW20941  10.190   1.200   1.816 -0.5429  1.5343 -0.0990
38604SOL    HW120942  10.195   1.274   1.756  2.2312  1.5673  0.1209
38604SOL    HW220943  10.200   1.239   1.903  1.1177  0.9035  0.0062
38605SOL     OW20944   0.760   3.910   8.058  0.6328  0.3687 -0.4587
38605SOL    HW120945   0.676   3.864   8.055  0.2771  0.7118  2.3510
38605SOL    HW220946   0.792   3.908   7.968 -1.0646 -2.2152 -1.0629
38606SOL     OW20947  10.316   4.543   3.352 -0.2920 -0.4628 -0.3959
38606SOL    HW120948  10.366   4.488   3.413 -0.9800 -1.5195 -0.7620
38606SOL    HW220949  10.383   4.597   3.310  0.1106  0.8207  1.8069
38607SOL     OW20950   6.314   1.812   2.471 -0.0626 -0.0963  0.0744
38607SOL    HW120951   6.290   1.719   2.469 -2.0022  0.3718  0.4291
38607SOL    HW220952   6.407   1.813   2.447  0.1412 -2.1698  0.6374
38608SOL     OW20953   9.581   2.150   1.097 -0.2686  0.8926 -0.5978
38608SOL    HW120954   9.663   2.105   1.078 -0.8349 -0.1390 -0.6863
38608SOL    HW220955   9.560   2.125   1.187 -0.8778  0.5012 -0.8392
38609SOL     OW20956   4.024   6.084   6.802 -0.6192  0.1643 -0.1642
38609SOL    HW120957   4.079   6.037   6.740 -0.1982 -0.8924  0.9845
38609SOL    HW220958   4.022   6.174   6.770  1.5489  0.1526 -0.3843
38610SOL     OW20959   6.622  10.946   0.757 -0.7216 -0.0169  0.1554
38610SOL    HW120960   6.570  10.923   0.834 -1.8891  1.8895 -0.0332
38610SOL    HW220961   6.701  10.987   0.792 -0.7742 -0.1000  0.3679
38611SOL     OW20962   9.083   5.409   6.867 -0.1041  0.0193 -0.2327
38611SOL    HW120963   9.170   5.431   6.832  0.0163  0.5311  0.3697
38611SOL    HW220964   9.046   5.494   6.891  0.6057 -0.4686  2.7343
38612SOL     OW20965   2.906   1.840   1.220  0.1345  0.3517  0.3369
38612SOL    HW120966   2.970   1.884   1.276  1.7957 -1.1767 -0.3205
38612SOL    HW220967   2.959   1.793   1.156 -1.6766 -0.4688 -0.5840
38613SOL     OW20968   3.191   3.656  10.298  0.4406  0.5906 -0.0045
38613SOL    HW120969   3.192   3.653  10.202 -0.6696 -0.3688  0.0129
38613SOL    HW220970   3.146   3.576  10.324  1.8808  0.1951  1.3599
38614SOL     OW20971   2.199   6.741   8.388 -0.1789 -0.4351 -0.6857
38614SOL    HW120972   2.208   6.781   8.301 -0.1402  3.7363  1.1299
38614SOL    HW220973   2.284   6.701   8.405  0.9279  1.5803 -1.2667
38615SOL     OW20974   1.801  11.312   3.465 -0.3783  0.0975 -0.0085
38615SOL    HW120975   1.760  11.388   3.504  2.4630  1.1437  1.0935
38615SOL    HW220976   1.851  11.272   3.536  0.6977 -0.9403 -1.3068
38616SOL     OW20977   3.988   9.407   4.873  0.1920 -0.3912 -0.1727
38616SOL    HW120978   3.985   9.328   4.926  1.4728 -1.6288 -1.8874
38616SOL    HW220979   4.021   9.475   4.932  0.7726 -1.5345  0.8253
38617SOL     OW20980   1.563  11.181   8.367 -0.2321 -0.2649  0.0802
38617SOL    HW120981   1.511  11.109   8.330  0.1077 -1.1457  1.2805
38617SOL    HW220982   1.614  11.140   8.437  0.7777  0.9392  0.0674
38618SOL     OW20983  10.919   8.555   1.216 -0.2042 -0.2000  0.1229
38618SOL    HW120984  10.847   8.619   1.219 -0.2269 -0.2664  0.9457
38618SOL    HW220985  10.980   8.591   1.151 -1.3522 -0.5308 -1.1647
38619SOL     OW20986   8.938   7.823   2.968 -0.3687 -0.2628 -0.0710
38619SOL    HW120987   8.949   7.911   2.931 -0.4792 -0.4428 -0.5347
38619SOL    HW220988   8.862   7.831   3.025 -1.4272 -0.4793 -1.4386
38620SOL     OW20989  11.213   4.486   2.961  0.2463 -0.4417 -0.2330
38620SOL    HW120990  11.294   4.444   2.932  0.8806 -1.2950  2.6878
38620SOL    HW220991  11.174   4.424   3.022 -0.6240  1.6346  1.3859
38621SOL     OW20992   9.270   0.267   5.972 -0.1510  0.3412  0.2668
38621SOL    HW120993   9.261   0.337   5.907 -1.8030 -0.3350 -0.2558
38621SOL    HW220994   9.197   0.208   5.954 -0.6036  0.1221  2.7327
38622SOL     OW20995  10.338   6.102   4.409  0.1001 -0.3718 -0.2720
38622SOL    HW120996  10.359   6.012   4.434  0.0514  0.1164  1.6272
38622SOL    HW220997  10.298   6.140   4.487  3.8725  2.5364  0.4223
38623SOL     OW20998   9.381  10.316  10.235  0.1957 -0.3091  0.7306
38623SOL    HW120999   9.300  10.303  10.284 -0.6497 -0.2685 -0.6264
38623SOL    HW221000   9.377  10.407  10.206  0.5647 -0.4075  0.3702
38624SOL     OW21001   8.207   9.178   4.330  0.5827  0.5425 -0.3982
38624SOL    HW121002   8.184   9.241   4.262 -1.3809 -0.9050 -1.1289
38624SOL    HW221003   8.158   9.099   4.307  1.1123 -0.4825  1.8395
38625SOL     OW21004   7.400   7.461   3.539  0.8314  0.5377 -0.4353
38625SOL    HW121005   7.460   7.495   3.605 -1.4650  1.1976  1.4025
38625SOL    HW221006   7.337   7.409   3.589 -1.7506  2.1383 -1.8890
38626SOL     OW21007   5.641   3.457   0.589  0.3986 -0.9119 -0.5161
38626SOL    HW121008   5.568   3.455   0.528 -0.3810 -1.2391  0.4027
38626SOL    HW221009   5.612   3.514   0.660  0.7466 -1.6048  0.1992
38627SOL     OW21010   5.201   0.765   7.900  0.6006 -0.1533 -0.1162
38627SOL    HW121011   5.179   0.674   7.882 -1.3426 -0.0719  1.7115
38627SOL    HW221012   5.142   0.815   7.843 -1.0652 -0.0156  1.6580
38628SOL     OW21013  11.024   4.058   3.211 -0.3519 -0.2860  0.0850
38628SOL    HW121014  11.055   3.973   3.240 -1.6943 -0.2747  1.6538
38628SOL    HW221015  10.946   4.039   3.158 -1.0984 -0.0172  1.0643
38629SOL     OW21016   2.710   6.753   9.892  0.4200 -0.2822  0.4907
38629SOL    HW121017   2.665   6.690   9.835 -0.6438 -0.9667  2.0610
38629SOL    HW221018   2.795   6.712   9.911  0.6816 -0.1607 -0.3762
38630SOL     OW21019   4.481   2.342  11.108 -0.2365  1.1577 -0.2029
38630SOL    HW121020   4.428   2.414  11.074 -0.7606 -0.0833 -2.1204
38630SOL    HW221021   4.424   2.265  11.101 -0.1134  0.6944  2.9150
38631SOL     OW21022   1.437   8.877   5.889  0.0306 -0.2502 -0.1386
38631SOL    HW121023   1.405   8.934   5.959 -0.2777 -0.3175 -0.2213
38631SOL    HW221024   1.374   8.805   5.887  0.5491 -0.7113  0.1228
38632SOL     OW21025   7.591   1.778   6.822 -0.4203  0.6584  1.0751
38632SOL    HW121026   7.530   1.848   6.800  0.0943  0.5371 -0.7772
38632SOL    HW221027   7.660   1.783   6.755 -0.1272 -1.3035  1.1916
38633SOL     OW21028   4.533   5.426   0.091  0.1746 -0.4184 -0.0874
38633SOL    HW121029   4.575   5.455   0.172  0.6854  0.7444 -0.7605
38633SOL    HW221030   4.440   5.441   0.106  0.1744 -1.0759  0.6245
38634SOL     OW21031   9.441   5.219   6.096  0.2700 -0.5603 -0.3104
38634SOL    HW121032   9.374   5.155   6.119 -0.0413 -0.2152 -0.2424
38634SOL    HW221033   9.486   5.237   6.179  0.2014 -0.5122 -0.2839
38635SOL     OW21034   1.782   5.513   3.323  0.4187 -0.1296 -0.2641
38635SOL    HW121035   1.840   5.566   3.378  1.0948 -1.2255  0.0808
38635SOL    HW221036   1.783   5.426   3.363  3.5808 -1.8917 -3.8795
38636SOL     OW21037   3.015   4.917   0.138  0.2534 -0.2072 -0.0650
38636SOL    HW121038   2.964   4.836   0.131  0.2478 -0.1620 -0.5374
38636SOL    HW221039   3.103   4.893   0.111  0.4681 -0.2657  0.6839
38637SOL     OW21040   3.540   1.645   7.128 -0.5265  0.0718  0.0967
38637SOL    HW121041   3.592   1.696   7.190  0.9961  1.3877 -2.1446
38637SOL    HW221042   3.580   1.558   7.129 -0.0082  0.3103  0.3906
38638SOL     OW21043   2.728   4.700   2.813 -0.0924  0.4219  0.2287
38638SOL    HW121044   2.791   4.709   2.742  1.7235  0.4518  1.7972
38638SOL    HW221045   2.746   4.773   2.871 -0.8691 -0.1793  1.2530
38639SOL     OW21046   2.861   8.931   3.761 -0.1610 -0.4879 -0.3104
38639SOL    HW121047   2.920   8.947   3.688  0.2341 -0.3872  0.0255
38639SOL    HW221048   2.815   8.850   3.738  0.4269 -0.8074 -0.3740
38640SOL     OW21049  10.640   7.316   5.244  0.1380 -0.2495 -1.0700
38640SOL    HW121050  10.683   7.231   5.236 -1.0308 -0.8834 -0.7998
38640SOL    HW221051  10.600   7.330   5.158 -0.5452 -0.4636 -0.7882
38641SOL     OW21052   6.781   4.845   3.350 -0.4990  0.2357  0.3953
38641SOL    HW121053   6.790   4.760   3.392 -0.7082 -0.4183 -0.8883
38641SOL    HW221054   6.727   4.896   3.412  0.2853 -0.2835  1.5301
38642SOL     OW21055   6.570   7.168   8.889 -0.1022 -0.0163 -0.4352
38642SOL    HW121056   6.531   7.090   8.928 -0.1883 -0.0928 -0.6804
38642SOL    HW221057   6.650   7.182   8.939 -0.5295  0.2439  0.1865
38643SOL     OW21058   1.884   9.034   4.070 -0.0275 -0.0304  0.0191
38643SOL    HW121059   1.901   8.941   4.083 -1.0883 -0.3636 -0.9085
38643SOL    HW221060   1.854   9.041   3.979  2.1547  1.5295 -0.6276
38644SOL     OW21061   0.944   0.734   7.282 -0.1035  0.1406  0.5974
38644SOL    HW121062   0.911   0.652   7.318  0.4804 -0.1485  0.4786
38644SOL    HW221063   1.015   0.760   7.341 -0.4301  0.6739  0.7572
38645SOL     OW21064  10.038   6.170   5.864  0.1525 -0.5461 -0.0741
38645SOL    HW121065  10.012   6.117   5.789 -0.8025 -1.5241  0.9321
38645SOL    HW221066   9.957   6.207   5.898  0.7311  0.9956 -0.3309
38646SOL     OW21067   4.230  11.085   2.616 -0.3536  0.7486  0.3126
38646SOL    HW121068   4.199  11.172   2.643  2.0511  2.1380 -1.1716
38646SOL    HW221069   4.219  11.083   2.521 -1.6710 -1.1422  0.4752
38647SOL     OW21070   7.329   1.775   3.738 -0.4682 -0.1711  0.0318
38647SOL    HW121071   7.296   1.749   3.652 -0.6329  0.5553 -0.1325
38647SOL    HW221072   7.424   1.768   3.730 -0.5278 -0.9771  0.0777
38648SOL     OW21073   6.756  10.421   1.564 -0.2483 -0.0973  0.0426
38648SOL    HW121074   6.693  10.361   1.604  0.8498 -1.3145 -0.0234
38648SOL    HW221075   6.795  10.468   1.638 -1.7159  1.2031  0.0437
38649SOL     OW21076   8.648   8.621   4.402  0.5352  0.0502 -0.3349
38649SOL    HW121077   8.586   8.681   4.361  1.5987  0.9016 -0.7170
38649SOL    HW221078   8.725   8.674   4.419  0.7654 -0.7342  1.1538
38650SOL     OW21079   5.744   2.742  10.036 -0.7426  0.4844  0.0674
38650SOL    HW121080   5.832   2.781  10.041 -1.0766  0.9560  2.9899
38650SOL    HW221081   5.708   2.777   9.955  1.0307  1.9042 -0.1645
38651SOL     OW21082   8.331   2.059   6.047  0.3767  0.2955  0.6145
38651SOL    HW121083   8.283   2.082   6.127  0.7964  2.7227  0.2030
38651SOL    HW221084   8.408   2.116   6.048  1.3264 -0.9284 -0.6234
38652SOL     OW21085   9.355   7.436   5.347 -0.5411 -0.1082 -0.8120
38652SOL    HW121086   9.308   7.512   5.382 -0.6464 -0.2984 -0.5328
38652SOL    HW221087   9.288   7.368   5.341  0.0306 -0.8669  1.1150
38653SOL     OW21088   7.503   4.286   6.765 -0.2501  0.3643 -0.2160
38653SOL    HW121089   7.587   4.249   6.737  0.9552  2.3315  0.6613
38653SOL    HW221090   7.501   4.373   6.726 -0.9791  1.0812  1.3485
38654SOL     OW21091   1.450   5.060   4.038 -0.6971  0.3907 -0.1805
38654SOL    HW121092   1.526   5.090   4.087 -1.1489 -0.6936  1.2466
38654SOL    HW221093   1.380   5.119   4.064 -0.3940  1.2460 -1.3150
38655SOL     OW21094   6.768   5.288   1.644 -0.2825 -0.0253  0.0118
38655SOL    HW121095   6.860   5.294   1.620 -0.8881  0.8546 -2.2020
38655SOL    HW221096   6.727   5.361   1.599 -1.8917  0.2846  1.9088
38656SOL     OW21097   1.544  10.771   9.136 -0.1605 -0.3356  0.0513
38656SOL    HW121098   1.493  10.695   9.106  0.5244 -1.4109  1.6105
38656SOL    HW221099   1.592  10.740   9.212  0.3670  1.5877  0.5272
38657SOL     OW21100   5.082   6.463   2.389 -0.1441 -0.6437 -0.5866
38657SOL    HW121101   5.024   6.534   2.360 -1.6500 -2.1564 -1.3747
38657SOL    HW221102   5.101   6.484   2.481  0.4914  1.4630 -1.1800
38658SOL     OW21103  10.355   1.626   6.090  0.0447  0.0164 -0.4438
38658SOL    HW121104  10.325   1.670   6.010  3.2305  1.0628 -1.1209
38658SOL    HW221105  10.434   1.579   6.063  0.5796 -0.4639  1.8782
38659SOL     OW21106   6.433   9.675   4.340  0.1638  0.1993  0.1392
38659SOL    HW121107   6.369   9.701   4.274  1.0385 -0.6295 -1.0679
38659SOL    HW221108   6.464   9.758   4.377 -1.0730  0.6345  0.2349
38660SOL     OW21109   7.415   2.273  10.582  0.0161  0.1399  0.3600
38660SOL    HW121110   7.428   2.193  10.531 -0.5545 -0.3786  1.0177
38660SOL    HW221111   7.326   2.266  10.616 -0.1044  1.1450  0.2780
38661SOL     OW21112   5.413   4.624  11.132 -0.2291  0.1125 -0.7574
38661SOL    HW121113   5.382   4.536  11.154  1.0006 -0.6298 -1.8937
38661SOL    HW221114   5.347   4.658  11.071 -0.4361 -0.2276 -0.7236
38662SOL     OW21115   5.111  10.719  10.225  0.3427 -0.0125 -0.0908
38662SOL    HW121116   5.152  10.756  10.303  0.8550 -0.1200 -0.3053
38662SOL    HW221117   5.096  10.793  10.167 -1.2743  0.2560  0.6615
38663SOL     OW21118   2.538  10.487   7.182  0.0595 -0.2710  0.1256
38663SOL    HW121119   2.576  10.573   7.165 -0.2399 -0.2185 -0.2709
38663SOL    HW221120   2.557  10.471   7.275 -1.7434  1.1614  0.7874
38664SOL     OW21121  10.151   6.079   9.012 -0.0511  0.1094  0.7897
38664SOL    HW121122  10.068   6.035   9.031 -0.5121  1.1708  1.2540
38664SOL    HW221123  10.125   6.162   8.970  0.8949 -1.8048 -3.9179
38665SOL     OW21124   5.423   7.509   4.945 -0.2181  0.4910  0.5920
38665SOL    HW121125   5.384   7.464   4.870  0.4519  0.7653  0.0732
38665SOL    HW221126   5.445   7.439   5.007  3.0305 -0.1845 -1.2148
38666SOL     OW21127  10.611   7.130   6.410  0.3768  0.2364 -0.4347
38666SOL    HW121128  10.661   7.203   6.376 -1.0126  0.9232 -1.0624
38666SOL    HW221129  10.675   7.075   6.456  1.1830  2.6810  1.4925
38667SOL     OW21130  10.660   9.703   3.927  0.0284 -0.0724  0.0281
38667SOL    HW121131  10.642   9.740   3.840  2.0082  2.0282  0.4528
38667SOL    HW221132  10.695   9.615   3.909  0.6160  0.4186 -1.3334
38668SOL     OW21133  10.934   5.829   0.603 -0.3915  0.8502 -0.1747
38668SOL    HW121134  10.920   5.735   0.587  3.4923  0.2198 -0.3198
38668SOL    HW221135  10.989   5.858   0.531 -0.7158  3.0357  0.4154
38669SOL     OW21136   0.787   4.417  11.193  0.5507  0.0144  0.3361
38669SOL    HW121137   0.853   4.485  11.207  1.1742 -0.8522  1.7151
38669SOL    HW221138   0.829   4.336  11.222 -0.3165 -0.9208 -0.9525
38670SOL     OW21139   1.939  10.578   7.871 -0.6768 -0.0465 -0.2126
38670SOL    HW121140   1.896  10.498   7.900  1.4053 -1.2018 -0.1495
38670SOL    HW221141   1.943  10.633   7.949 -0.6874 -0.5534  0.1458
38671SOL     OW21142   5.138   6.990   2.406 -0.2154 -0.0870  0.7600
38671SOL    HW121143   5.122   6.917   2.346 -0.9067 -0.2383  1.1237
38671SOL    HW221144   5.233   6.998   2.408 -0.2226  1.6187 -2.3794
38672SOL     OW21145  10.634   1.409   1.489  0.0667 -0.3416 -0.2408
38672SOL    HW121146  10.600   1.499   1.498  1.4300  0.1619  0.0449
38672SOL    HW221147  10.576   1.356   1.544 -0.5608  0.4183 -0.1553
38673SOL     OW21148   0.455   9.116  11.126  0.4087  0.2939  0.2519
38673SOL    HW121149   0.471   9.177  11.055  0.8344 -0.6875 -0.5113
38673SOL    HW221150   0.520   9.138  11.193  1.1463  0.0961 -0.3949
38674SOL     OW21151   0.396   5.568   0.812  0.2709  0.4183  0.0885
38674SOL    HW121152   0.488   5.584   0.790  0.3861  0.8632  0.8747
38674SOL    HW221153   0.353   5.555   0.728  0.6501  2.3763 -0.4313
38675SOL     OW21154   1.950   8.865   7.672 -0.0360 -0.2524  0.4209
38675SOL    HW121155   2.027   8.812   7.690 -1.2552 -2.2367 -0.0090
38675SOL    HW221156   1.983   8.938   7.619  1.6349 -0.7302  0.7816
38676SOL     OW21157   2.685  10.704   7.201  0.1430 -0.2226 -0.3331
38676SOL    HW121158   2.740  10.768   7.245  0.1212  1.4598 -2.6112
38676SOL    HW221159   2.745  10.655   7.145 -0.2839 -0.1037 -0.9035
38677SOL     OW21160   8.510   3.185   9.995  0.0924  0.3358  0.2071
38677SOL    HW121161   8.498   3.273   9.959  0.7779 -0.1224 -1.1847
38677SOL    HW221162   8.422   3.157  10.020 -0.1296  1.4174  0.6681
38678SOL     OW21163  10.944   3.765   7.213  0.3597 -0.1065  0.1106
38678SOL    HW121164  10.880   3.701   7.242 -0.5931  0.6144 -0.3653
38678SOL    HW221165  11.028   3.732   7.244 -0.2011 -1.2572  0.4001
38679SOL     OW21166   9.563   9.792   1.472 -0.2703 -0.2276  0.3881
38679SOL    HW121167   9.518   9.722   1.520 -0.9101 -0.6287 -0.7826
38679SOL    HW221168   9.652   9.759   1.460 -0.7320 -1.1065 -0.6879
38680SOL     OW21169   8.883   0.074   4.792 -0.1621 -0.0293  0.0308
38680SOL    HW121170   8.967   0.031   4.775  0.4594  0.5806  1.4487
38680SOL    HW221171   8.878   0.079   4.888 -1.9206 -0.2591 -0.0406
38681SOL     OW21172   3.553   6.204   5.122 -0.3715  0.3005  0.7210
38681SOL    HW121173   3.574   6.110   5.119 -2.1431 -0.1222  0.5877
38681SOL    HW221174   3.491   6.216   5.051  0.5764  1.7924  0.1365
38682SOL     OW21175   2.207   5.793   9.057  0.0902  0.4514  0.5661
38682SOL    HW121176   2.126   5.789   9.007  1.4655  0.4231 -1.7010
38682SOL    HW221177   2.214   5.884   9.085  0.1824  0.8808 -0.8154
38683SOL     OW21178  10.705   4.636   0.649 -0.3112  0.4854  0.1746
38683SOL    HW121179  10.674   4.619   0.738  2.8651 -1.9937  0.8948
38683SOL    HW221180  10.784   4.688   0.660  0.9044 -1.0364 -1.0652
38684SOL     OW21181   3.129   0.820   2.029 -0.2405 -0.4153 -0.8474
38684SOL    HW121182   3.162   0.735   2.057 -0.3505 -0.0448  0.4510
38684SOL    HW221183   3.131   0.874   2.109  0.3314  0.9523 -1.7588
38685SOL     OW21184  10.754   7.218   1.201  0.2242  0.0974  0.0273
38685SOL    HW121185  10.763   7.283   1.271 -3.1952 -2.5255  3.1032
38685SOL    HW221186  10.664   7.230   1.169  0.1904 -1.8023 -0.6575
38686SOL     OW21187   2.800   9.324   7.140 -0.2260 -0.2653  0.1234
38686SOL    HW121188   2.756   9.313   7.224 -0.0853  1.4617  0.4442
38686SOL    HW221189   2.877   9.269   7.145  0.3983  0.7241  1.5941
38687SOL     OW21190   6.766  11.027   8.355 -0.2404  0.0408 -0.1143
38687SOL    HW121191   6.805  10.982   8.280  0.7872 -0.0253  0.4640
38687SOL    HW221192   6.703  10.965   8.390 -0.6189  0.0140 -0.8241
38688SOL     OW21193   4.133   3.495  11.134 -0.3179  0.1396 -0.0532
38688SOL    HW121194   4.087   3.569  11.094 -0.2181  0.3973  0.3117
38688SOL    HW221195   4.140   3.517  11.226  1.7045  0.7171 -0.3297
38689SOL     OW21196   5.292   0.133  10.107 -0.1234 -0.2534  0.5203
38689SOL    HW121197   5.332   0.129  10.194  1.0521  1.2717  0.0676
38689SOL    HW221198   5.359   0.174  10.052 -1.3961  0.0678 -0.8018
38690SOL     OW21199   4.801   0.085   6.496 -0.2894  0.3191  0.6419
38690SOL    HW121200   4.764  -0.002   6.479  0.6881 -0.2627  1.4329
38690SOL    HW221201   4.732   0.132   6.542  0.1684 -0.9676  2.6846
38691SOL     OW21202   8.752  10.625  10.046  0.0269 -0.1165 -0.2743
38691SOL    HW121203   8.757  10.681   9.969  3.1167 -1.5622 -1.2070
38691SOL    HW221204   8.724  10.540  10.012  1.4335 -0.7717  0.1646
38692SOL     OW21205   3.007   0.443   6.294  0.7941 -0.3063 -0.2920
38692SOL    HW121206   3.083   0.385   6.284  1.7408  1.1060 -1.6141
38692SOL    HW221207   3.045   0.531   6.298 -0.7888  0.4439 -1.2415
38693SOL     OW21208   8.051  11.298   6.341 -0.0196  0.1944  0.3470
38693SOL    HW121209   8.089  11.270   6.258  1.3848  1.0411  0.6853
38693SOL    HW221210   8.084  11.234   6.405 -3.8738 -2.5478 -0.2246
38694SOL     OW21211   3.817   3.318   0.968  0.1496  0.5219  0.3965
38694SOL    HW121212   3.894   3.373   0.949  0.3773 -0.2911 -1.1667
38694SOL    HW221213   3.853   3.241   1.011 -0.0944  1.2907  1.9925
38695SOL     OW21214   8.591   5.293   2.018  0.3927 -0.4062 -0.2481
38695SOL    HW121215   8.543   5.280   2.100  0.5029 -0.9030 -0.2578
38695SOL    HW221216   8.659   5.226   2.020  1.1332  0.3400 -0.1988
38696SOL     OW21217   8.215   5.415   8.325 -0.0975  0.7057  0.2951
38696SOL    HW121218   8.286   5.353   8.340 -0.9628  0.1710  2.3535
38696SOL    HW221219   8.256   5.501   8.332  0.8465  0.4119 -1.2673
38697SOL     OW21220   1.659   4.472   5.589 -0.3560 -0.7801  0.5234
38697SOL    HW121221   1.638   4.546   5.645 -2.2563 -0.8469 -0.0757
38697SOL    HW221222   1.739   4.499   5.542 -0.2922  0.3388  1.2680
38698SOL     OW21223   7.957   9.467   7.100 -0.3667 -0.0410  0.1508
38698SOL    HW121224   7.900   9.491   7.028 -0.7639 -1.6636 -0.0958
38698SOL    HW221225   7.917   9.388   7.138  3.3431 -3.2119 -2.0854
38699SOL     OW21226   8.860  10.606  11.056  0.4041  0.0311  0.2473
38699SOL    HW121227   8.850  10.696  11.023  2.1573  0.0368 -0.3442
38699SOL    HW221228   8.892  10.617  11.145 -0.7294 -0.0092  0.6673
38700SOL     OW21229   1.962   9.131   6.266 -0.4270  0.1267  0.2256
38700SOL    HW121230   1.900   9.059   6.253  0.1606 -0.2327 -0.6029
38700SOL    HW221231   1.929   9.177   6.344 -4.0141  2.2852 -2.3977
38701SOL     OW21232   1.917  10.607   0.057  0.0038  0.3177 -0.1264
38701SOL    HW121233   1.836  10.557   0.055 -1.4038  2.5691 -1.7040
38701SOL    HW221234   1.937  10.625  -0.035  1.5269  0.9638  0.3168
38702SOL     OW21235   5.366   5.288   7.089  0.2750 -0.0408  0.2695
38702SOL    HW121236   5.314   5.255   7.016 -0.6140  0.6997  0.5595
38702SOL    HW221237   5.419   5.358   7.051 -1.6720  1.7498  0.7109
38703SOL     OW21238   3.429   7.193   8.822 -0.0802 -0.6347 -0.0317
38703SOL    HW121239   3.383   7.276   8.831 -0.3812 -0.7926 -0.1009
38703SOL    HW221240   3.482   7.203   8.744  0.6108 -0.1681  0.4944
38704SOL     OW21241   6.375   4.081   9.595 -0.7597 -0.1549 -0.4616
38704SOL    HW121242   6.374   3.990   9.566 -0.3736  0.3021 -1.9100
38704SOL    HW221243   6.370   4.132   9.515 -0.8941  1.1047  0.3442
38705SOL     OW21244   9.857   2.742   2.909 -0.3975  0.1377  0.1795
38705SOL    HW121245   9.939   2.792   2.903  0.0315 -0.7105 -1.2618
38705SOL    HW221246   9.788   2.805   2.889 -0.0667  0.7716  1.0268
38706SOL     OW21247   7.097   4.167   8.421  0.2966  0.7964 -0.8493
38706SOL    HW121248   7.053   4.210   8.347  1.1876  1.3882 -1.0521
38706SOL    HW221249   7.047   4.087   8.436  1.1710 -0.2372 -3.2703
38707SOL     OW21250   4.883   0.955   5.779 -0.5047  0.0358  0.3493
38707SOL    HW121251   4.809   0.965   5.840 -0.5969  0.7075  0.1322
38707SOL    HW221252   4.895   1.043   5.741  0.0168 -0.2112 -0.0645
38708SOL     OW21253   0.348   8.636  11.243 -0.0512 -0.5498  0.2650
38708SOL    HW121254   0.337   8.651  11.149 -0.0057  0.9876  0.4802
38708SOL    HW221255   0.394   8.553  11.249  0.1294 -0.5646 -1.0837
38709SOL     OW21256   3.783   6.535   3.438  0.2693  0.5298 -0.3083
38709SOL    HW121257   3.830   6.572   3.363  0.9808 -3.1873 -1.8302
38709SOL    HW221258   3.698   6.510   3.402  0.7825 -1.6930 -0.0407
38710SOL     OW21259   8.841   6.413   9.067 -0.1100 -0.5240 -0.1659
38710SOL    HW121260   8.807   6.374   8.986 -1.0293 -1.4199  0.6418
38710SOL    HW221261   8.807   6.358   9.137  0.7387  0.2038  0.8430
38711SOL     OW21262   0.485   3.438   5.321  0.0417 -0.5969  0.8402
38711SOL    HW121263   0.572   3.422   5.357  0.1018 -0.9532  0.5460
38711SOL    HW221264   0.426   3.384   5.373 -0.2106  0.7300  1.9766
38712SOL     OW21265   1.640   5.435   0.783  0.7657  0.3288 -0.6512
38712SOL    HW121266   1.699   5.404   0.715 -0.7194 -0.4079 -1.6379
38712SOL    HW221267   1.582   5.360   0.800 -0.1618  1.1770 -0.0138
38713SOL     OW21268   2.170   9.529   6.991  0.0984 -0.3183  0.0577
38713SOL    HW121269   2.161   9.622   7.011  0.6826 -0.4334  0.8996
38713SOL    HW221270   2.238   9.526   6.924  0.0272 -0.1365 -0.0248
38714SOL     OW21271   1.558   7.967   6.818 -0.4303  0.2041  0.4730
38714SOL    HW121272   1.476   7.932   6.851 -0.5202 -2.5952 -2.4012
38714SOL    HW221273   1.626   7.919   6.867 -0.5403 -0.0990  0.3309
38715SOL     OW21274   5.288   4.146   6.460 -0.1115 -0.1548  0.0255
38715SOL    HW121275   5.337   4.201   6.521 -1.1782 -1.0947  1.7937
38715SOL    HW221276   5.237   4.207   6.407 -0.9027  0.6204  1.6401
38716SOL     OW21277  10.355   4.860  10.421  0.2241 -0.0784 -0.1100
38716SOL    HW121278  10.409   4.921  10.370 -0.9570  1.5245  0.4996
38716SOL    HW221279  10.417   4.793  10.451  1.5202  0.6852 -0.9982
38717SOL     OW21280   6.625   9.864   0.367 -0.1914  0.5660 -0.2337
38717SOL    HW121281   6.704   9.918   0.360 -0.9362  1.6267 -0.5181
38717SOL    HW221282   6.633   9.821   0.452  0.2963  1.3136  0.1037
38718SOL     OW21283   8.333   3.720   0.886 -0.2121  0.1226 -0.3032
38718SOL    HW121284   8.341   3.809   0.854  0.3899 -0.1050 -0.7894
38718SOL    HW221285   8.302   3.729   0.976 -0.5290  0.8040 -0.4788
38719SOL     OW21286   9.746   2.917   2.143  0.4681  0.1359  0.0423
38719SOL    HW121287   9.661   2.961   2.148 -0.0055 -0.7499 -0.2035
38719SOL    HW221288   9.789   2.955   2.066  0.1282  0.2918 -0.0694
38720SOL     OW21289   1.921   7.913   9.661  0.5513 -0.1660 -0.3367
38720SOL    HW121290   1.914   7.828   9.619 -0.9244 -0.8623  1.2386
38720SOL    HW221291   1.913   7.895   9.754 -1.6274  1.8527 -0.0689
38721SOL     OW21292   0.168   2.029   4.013 -0.3238 -0.1538 -0.4533
38721SOL    HW121293   0.255   2.067   4.017  0.0522 -0.9427 -1.0127
38721SOL    HW221294   0.151   1.996   4.101  0.4328 -1.0585 -0.6390
38722SOL     OW21295   0.450   6.805   8.172  0.1056  0.0277  0.0467
38722SOL    HW121296   0.502   6.864   8.118 -0.2357  1.0876  0.8535
38722SOL    HW221297   0.498   6.722   8.171  0.4799  0.2542 -1.2614
38723SOL     OW21298   5.313  10.019   9.488 -1.3731  0.3441 -0.5162
38723SOL    HW121299   5.303   9.947   9.552 -0.0846  0.6308  0.0095
38723SOL    HW221300   5.343   9.976   9.408  0.1694  0.3780  0.0278
38724SOL     OW21301   0.532   8.389   3.514  0.0482  0.2662  0.0565
38724SOL    HW121302   0.532   8.421   3.423 -0.3845 -0.2908 -0.1470
38724SOL    HW221303   0.448   8.420   3.550  0.6242  1.2660  0.5527
38725SOL     OW21304   2.050   2.229   4.768  0.5644  0.1855 -0.1953
38725SOL    HW121305   2.034   2.308   4.716 -0.3352  0.7131  0.8792
38725SOL    HW221306   2.111   2.178   4.714 -0.9821  0.3387 -2.1696
38726SOL     OW21307   9.492   5.681   4.983  0.2170  0.0527 -0.2387
38726SOL    HW121308   9.430   5.624   4.939  1.0937  0.1189 -1.6258
38726SOL    HW221309   9.517   5.745   4.916  1.0564  0.5897  0.5659
38727SOL     OW21310   4.500   1.423  10.668  0.0829  0.1119 -0.0080
38727SOL    HW121311   4.562   1.486  10.706 -0.5579  1.5709 -1.3742
38727SOL    HW221312   4.472   1.463  10.586 -0.5138 -1.8578 -0.7793
38728SOL     OW21313   0.164   2.624   1.919 -0.2114 -0.6860 -0.4262
38728SOL    HW121314   0.096   2.577   1.870  0.2451 -1.2243 -0.5486
38728SOL    HW221315   0.237   2.562   1.924 -0.6521 -1.0469  1.9020
38729SOL     OW21316   3.411   9.690   8.174  0.5394 -0.8638 -0.3971
38729SOL    HW121317   3.323   9.690   8.137  1.5949 -1.8783 -3.0373
38729SOL    HW221318   3.430   9.597   8.191  1.3140 -0.7098 -0.3805
38730SOL     OW21319   0.098   7.235   8.151  0.3853  0.0756  0.0648
38730SOL    HW121320   0.088   7.223   8.245 -0.7946  0.5910  0.0233
38730SOL    HW221321   0.018   7.197   8.113  1.0531 -0.5282 -0.7643
38731SOL     OW21322  10.624  10.575   3.762 -0.1235  0.3444  0.0188
38731SOL    HW121323  10.604  10.563   3.855  3.5579 -0.6844  0.7631
38731SOL    HW221324  10.708  10.621   3.761 -1.0903  2.2039 -2.8528
38732SOL     OW21325   0.269   3.332   4.444 -0.4794  0.3792  0.1997
38732SOL    HW121326   0.268   3.411   4.499  1.4003  1.2514 -0.9608
38732SOL    HW221327   0.241   3.363   4.358 -0.8942 -0.4685  0.0297
38733SOL     OW21328   1.109   6.568   4.043  0.3670 -0.3204 -0.1311
38733SOL    HW121329   1.154   6.532   4.119 -0.1439 -1.1166 -0.1992
38733SOL    HW221330   1.139   6.514   3.970 -1.7116 -1.7491  0.0230
38734SOL     OW21331   7.707   3.970  10.215 -0.3137 -0.0243  0.3821
38734SOL    HW121332   7.794   3.985  10.252 -0.6072 -0.4925  1.3000
38734SOL    HW221333   7.713   4.000  10.125  1.2858 -1.6352 -0.0632
38735SOL     OW21334   9.564   3.238   1.355 -0.5153 -0.3386 -0.2375
38735SOL    HW121335   9.573   3.333   1.353 -2.4168 -0.1349 -1.0833
38735SOL    HW221336   9.580   3.213   1.446  2.6920  0.4511 -0.5143
38736SOL     OW21337   7.057   5.535   8.900 -0.0906  0.2666  0.3045
38736SOL    HW121338   7.142   5.552   8.941  0.1041  0.6078 -0.2382
38736SOL    HW221339   6.996   5.592   8.946  0.4436  2.0255 -1.0908
38737SOL     OW21340   5.257   7.565   6.481 -0.6294  0.2854  0.4403
38737SOL    HW121341   5.248   7.479   6.522 -1.3830  0.9571  1.7325
38737SOL    HW221342   5.239   7.627   6.552 -1.7347  1.4813 -0.8512
38738SOL     OW21343   9.802   9.128   5.961  0.3026 -0.2515  0.2805
38738SOL    HW121344   9.773   9.079   5.885  1.0226 -0.0029 -0.1580
38738SOL    HW221345   9.881   9.082   5.991 -1.2888 -1.7762  2.3190
38739SOL     OW21346   2.717   1.764   9.974  0.0670 -0.2494 -0.3332
38739SOL    HW121347   2.780   1.721  10.031 -1.9238 -1.8157  0.7855
38739SOL    HW221348   2.760   1.767   9.888  2.2006  0.0458  0.7207
38740SOL     OW21349   3.654   4.848   4.762 -0.4687  0.5159  0.2743
38740SOL    HW121350   3.652   4.863   4.857 -1.4116  1.5960  0.0992
38740SOL    HW221351   3.745   4.827   4.743 -0.7755 -2.6153  1.8492
38741SOL     OW21352   0.233   0.851   5.040  0.0889  0.3674 -0.4727
38741SOL    HW121353   0.140   0.866   5.025 -0.2165  1.4889  2.0854
38741SOL    HW221354   0.240   0.838   5.135  1.9824 -4.2445 -1.0969
38742SOL     OW21355   8.150   5.299  11.069 -0.3677 -0.1830 -0.4662
38742SOL    HW121356   8.072   5.318  11.017 -0.5931 -0.3556 -0.1906
38742SOL    HW221357   8.133   5.213  11.107 -0.3089  0.0561  0.1034
38743SOL     OW21358   6.999   6.351   3.041 -0.5794 -0.2652 -0.1030
38743SOL    HW121359   7.008   6.289   2.969  0.0233 -0.3412  0.0282
38743SOL    HW221360   6.909   6.343   3.070 -1.4552  1.2901 -2.2292
38744SOL     OW21361   3.401   9.109  10.316 -0.2237 -0.4075 -0.2216
38744SOL    HW121362   3.372   9.167  10.245 -0.2543 -0.7156 -0.4633
38744SOL    HW221363   3.426   9.028  10.272 -2.8626 -1.5948  0.3718
38745SOL     OW21364   2.633   0.175   3.525 -0.0998 -0.7486  0.9247
38745SOL    HW121365   2.545   0.212   3.512 -0.1077 -0.8289  0.7494
38745SOL    HW221366   2.668   0.223   3.600  0.2786  0.3086  0.0680
38746SOL     OW21367   7.622   9.233   7.650  0.0322 -0.2285 -0.5922
38746SOL    HW121368   7.593   9.309   7.598 -2.9658 -1.2569 -0.5335
38746SOL    HW221369   7.679   9.184   7.590  1.1200  1.4595 -0.9942
38747SOL     OW21370   6.396   0.181   1.440  0.2232  0.0306  0.3069
38747SOL    HW121371   6.403   0.093   1.402  1.3229  0.2746 -0.0725
38747SOL    HW221372   6.482   0.220   1.425 -0.4537  1.3904 -0.0646
38748SOL     OW21373   7.678   5.724   7.202 -0.2339  0.1133  0.0908
38748SOL    HW121374   7.613   5.791   7.182 -0.9148 -0.2252  1.1350
38748SOL    HW221375   7.712   5.696   7.117 -2.4541 -0.7143 -0.5444
38749SOL     OW21376   9.914   2.352   6.840  0.5130  0.0397 -0.2990
38749SOL    HW121377   9.928   2.391   6.927  2.5962  0.5106 -0.8108
38749SOL    HW221378   9.893   2.426   6.783 -1.2124 -0.3143 -0.1437
38750SOL     OW21379  11.254   3.872   0.142  0.1504 -0.3089  0.2058
38750SOL    HW121380  11.242   3.787   0.100 -1.1228 -0.7776  1.4489
38750SOL    HW221381  11.341   3.867   0.182  0.7141 -0.4388 -1.0166
38751SOL     OW21382   3.230   2.464   4.536 -0.4938  0.3195 -0.0238
38751SOL    HW121383   3.217   2.558   4.550 -2.2216  0.1692 -0.4881
38751SOL    HW221384   3.180   2.444   4.457  1.7367 -0.5733 -1.2557
38752SOL     OW21385   6.299   4.168   1.836  0.2995 -0.1269  0.6754
38752SOL    HW121386   6.237   4.178   1.764 -0.7443  1.4203  1.7402
38752SOL    HW221387   6.276   4.085   1.878  1.9547 -1.8528 -1.7066
38753SOL     OW21388  10.521   5.803   6.688 -0.0165 -0.6240  0.0244
38753SOL    HW121389  10.486   5.796   6.600  0.3092  0.4660 -0.1959
38753SOL    HW221390  10.616   5.800   6.677  0.0827  1.5018  0.1371
38754SOL     OW21391   1.819   6.424   4.808 -0.2911  0.3769  0.1497
38754SOL    HW121392   1.893   6.364   4.804  0.4735  1.3017  0.2933
38754SOL    HW221393   1.750   6.381   4.757  1.0809  0.5154 -1.8821
38755SOL     OW21394   4.647   8.080   2.589  0.4168  0.2265  0.1746
38755SOL    HW121395   4.681   8.017   2.525 -2.1054 -0.6304 -0.3945
38755SOL    HW221396   4.656   8.035   2.673 -1.5372 -1.0285 -0.2479
38756SOL     OW21397   8.180   1.714   8.604  0.2809  0.0963  0.4776
38756SOL    HW121398   8.134   1.794   8.578  0.5674 -0.6374 -2.5110
38756SOL    HW221399   8.120   1.643   8.580  0.9906 -0.6815  0.9653
38757SOL     OW21400   6.812   4.738   3.086 -0.2570  0.0601  0.3674
38757SOL    HW121401   6.890   4.772   3.041  0.1691 -0.3296  0.7964
38757SOL    HW221402   6.805   4.792   3.165 -0.4127  0.0865  0.3347
38758SOL     OW21403   7.266   5.774   1.894 -0.8930  0.1913  0.2582
38758SOL    HW121404   7.191   5.812   1.940  0.1474  2.1837  0.3386
38758SOL    HW221405   7.246   5.786   1.801  0.6285  3.4071  0.2916
38759SOL     OW21406   4.552   6.335   5.069  0.7474  0.6280 -0.2107
38759SOL    HW121407   4.635   6.288   5.081  0.9401  0.6111 -1.5920
38759SOL    HW221408   4.571   6.424   5.100  1.3117  0.6582 -0.6471
38760SOL     OW21409   3.983   3.121   7.313 -0.1201 -0.6967 -0.0942
38760SOL    HW121410   3.908   3.143   7.257  0.0369  0.7690  0.2660
38760SOL    HW221411   4.060   3.140   7.259  0.0382  0.9610  0.6831
38761SOL     OW21412   9.701   7.665   7.792 -0.4960 -0.4652  0.4786
38761SOL    HW121413   9.705   7.585   7.844  0.1347  0.1359  1.3761
38761SOL    HW221414   9.748   7.730   7.844  2.0657 -0.3976 -1.8205
38762SOL     OW21415   6.438   8.649   3.559  0.5075  0.4286 -0.1658
38762SOL    HW121416   6.439   8.600   3.641  0.8966 -0.5099 -0.7227
38762SOL    HW221417   6.404   8.587   3.494  0.9749  0.9071 -0.8740
38763SOL     OW21418   9.223   9.764   7.307  0.2571 -0.5883 -0.2891
38763SOL    HW121419   9.185   9.823   7.242 -2.2880 -1.6701  0.1735
38763SOL    HW221420   9.213   9.677   7.269 -0.4156 -1.1454  1.1272
38764SOL     OW21421   4.538  10.282  11.319 -0.4115 -0.0217 -0.0083
38764SOL    HW121422   4.545  10.223  11.394 -0.3862 -0.0985 -0.0697
38764SOL    HW221423   4.446  10.307  11.316 -0.3294  0.3219  0.3065
38765SOL     OW21424   0.486   7.106   7.503 -0.8514 -0.6885  0.1546
38765SOL    HW121425   0.394   7.085   7.519 -0.1595 -2.8387  1.4463
38765SOL    HW221426   0.525   7.025   7.470  0.5670  0.2406 -0.5350
38766SOL     OW21427   7.890   9.301   9.167 -0.3114 -0.6458  0.1146
38766SOL    HW121428   7.949   9.262   9.102 -0.1123  0.8819 -0.6474
38766SOL    HW221429   7.934   9.288   9.251  0.7346 -0.2479 -0.3573
38767SOL     OW21430   9.355   3.523   5.977 -0.1789 -0.7991 -0.0932
38767SOL    HW121431   9.290   3.534   6.046  0.4747  1.1864  0.2454
38767SOL    HW221432   9.316   3.566   5.900  1.6856  2.5878  0.7599
38768SOL     OW21433   4.981   0.960   8.185 -0.2866  0.5429 -0.4296
38768SOL    HW121434   4.991   0.954   8.090 -1.8023  0.0634 -0.5701
38768SOL    HW221435   4.954   0.873   8.212 -1.7360  1.1734  0.1985
38769SOL     OW21436   0.294   8.650  10.974  0.2394  0.9142  0.2986
38769SOL    HW121437   0.281   8.619  10.884  1.9983  2.0479 -0.3858
38769SOL    HW221438   0.351   8.727  10.964 -0.6963  1.8924  2.2717
38770SOL     OW21439   8.185   8.161   2.263  0.8305  0.0701 -0.0003
38770SOL    HW121440   8.229   8.157   2.179  1.0577  1.0419  0.0654
38770SOL    HW221441   8.114   8.224   2.251 -2.3394 -3.4777 -0.9034
38771SOL     OW21442   1.919   7.123   0.499 -0.3950  0.0325 -0.2347
38771SOL    HW121443   1.853   7.125   0.430 -2.2232  1.0314  1.4910
38771SOL    HW221444   1.932   7.029   0.517 -2.2534 -0.1576  0.2310
38772SOL     OW21445   8.638  10.096   3.914 -0.2231 -0.2483 -0.4631
38772SOL    HW121446   8.544  10.075   3.914 -0.6418  1.5220  0.0059
38772SOL    HW221447   8.650  10.152   3.837  0.0371  1.2153  0.6276
38773SOL     OW21448   0.185   3.029   2.131  0.2728  0.0724 -0.2926
38773SOL    HW121449   0.268   2.982   2.136  0.6208  0.5258 -1.4657
38773SOL    HW221450   0.188   3.073   2.046 -2.2963 -2.0179 -1.5527
38774SOL     OW21451   1.901   3.910   1.354 -0.1335  0.4272  0.6137
38774SOL    HW121452   1.931   3.902   1.263  3.3801 -2.3026  1.8822
38774SOL    HW221453   1.817   3.863   1.355 -0.2639  0.5777 -1.2351
38775SOL     OW21454   7.662   9.462  10.298 -0.0568 -0.3954 -0.4716
38775SOL    HW121455   7.746   9.449  10.342 -1.0999 -1.8221  1.2096
38775SOL    HW221456   7.633   9.373  10.276 -0.9875  0.0995 -1.2718
38776SOL     OW21457   8.062   5.875   8.918  0.3360 -0.3470  0.2948
38776SOL    HW121458   7.972   5.887   8.948  0.4639 -0.2984  0.6639
38776SOL    HW221459   8.116   5.893   8.996  0.5687 -2.4093  0.6307
38777SOL     OW21460   6.012   8.383   4.818  0.2431 -0.8613  0.3553
38777SOL    HW121461   5.944   8.446   4.791  0.2274 -0.4093  1.4006
38777SOL    HW221462   6.088   8.406   4.766 -0.3582 -1.2693 -0.7196
38778SOL     OW21463   8.360   2.161   1.510 -0.0047 -0.6130  0.0863
38778SOL    HW121464   8.362   2.136   1.418 -2.3468  0.1856 -0.2050
38778SOL    HW221465   8.452   2.161   1.537  0.7051 -0.7894 -2.2609
38779SOL     OW21466  10.065  11.294   6.441 -0.6178 -0.5194 -0.4292
38779SOL    HW121467  10.106  11.351   6.377  0.1340  0.2805  0.7304
38779SOL    HW221468  10.137  11.266   6.498 -1.4006 -0.4502  0.6235
38780SOL     OW21469   9.938   4.960   8.211  0.6685 -0.6097  0.5868
38780SOL    HW121470   9.882   4.960   8.288  2.1674  1.4438  1.7266
38780SOL    HW221471   9.977   4.873   8.210  0.3568 -0.7721  1.9564
38781SOL     OW21472   1.636   5.931   2.743  0.0645 -0.4791 -0.5283
38781SOL    HW121473   1.578   5.988   2.794  0.9533  1.8555 -2.0151
38781SOL    HW221474   1.593   5.846   2.744 -1.5298  0.2968  1.4433
38782SOL     OW21475   5.100  10.542   9.275  0.2495 -0.0644  0.0799
38782SOL    HW121476   5.044  10.560   9.350 -0.4145  0.6180 -0.5661
38782SOL    HW221477   5.041  10.504   9.210  0.5471  0.6282 -0.5976
38783SOL     OW21478   4.442   5.365   9.558  0.4380  0.5022  0.6139
38783SOL    HW121479   4.432   5.365   9.463 -0.6292 -1.2567  0.7150
38783SOL    HW221480   4.473   5.454   9.578 -0.7687  1.3791 -1.2229
38784SOL     OW21481   3.347   0.470   7.563  0.1611 -0.8756  0.2292
38784SOL    HW121482   3.424   0.485   7.509 -0.4699  2.4530  0.2019
38784SOL    HW221483   3.273   0.473   7.502 -0.7271  4.6882  1.3336
38785SOL     OW21484   9.048   6.264   0.938  0.6784  0.3026 -0.2211
38785SOL    HW121485   9.074   6.252   0.846 -0.2086  0.6761 -0.5204
38785SOL    HW221486   8.965   6.312   0.934 -0.7347 -2.0028  0.7083
38786SOL     OW21487   9.394   8.779   9.089 -0.4214  0.6229 -0.4758
38786SOL    HW121488   9.415   8.693   9.052  1.3331  0.4128  0.9071
38786SOL    HW221489   9.325   8.762   9.153  0.3939  0.1262  0.2810
38787SOL     OW21490   2.054   1.537   1.189 -0.1279  0.3488  0.1714
38787SOL    HW121491   2.006   1.531   1.107  0.1170 -0.7559  0.0939
38787SOL    HW221492   2.101   1.454   1.195  1.1461  1.0757  0.6303
38788SOL     OW21493   0.462   6.075   4.564 -0.1210 -0.2848  0.0900
38788SOL    HW121494   0.397   6.033   4.509  0.0576  0.8332 -0.9902
38788SOL    HW221495   0.546   6.058   4.520 -0.0321  1.0315 -0.2635
38789SOL     OW21496   3.543   5.174  10.824 -0.3032  0.1719 -0.1608
38789SOL    HW121497   3.573   5.084  10.831 -1.8350 -0.3516 -0.2603
38789SOL    HW221498   3.572   5.216  10.905 -1.2172 -0.8858  0.7178
38790SOL     OW21499   1.077   2.048   5.948  0.0885 -0.0936  0.4134
38790SOL    HW121500   1.025   2.129   5.944 -1.1521 -0.8068  1.6015
38790SOL    HW221501   1.052   1.999   5.870  2.3739  1.5428 -1.4107
38791SOL     OW21502   8.576   8.176   9.128 -0.0290  0.6882 -0.1452
38791SOL    HW121503   8.482   8.172   9.108 -0.6526  2.4774  2.2174
38791SOL    HW221504   8.609   8.088   9.107 -2.5851 -0.5291  0.7744
38792SOL     OW21505   7.908  11.166   3.104  0.0014  0.1942 -0.4456
38792SOL    HW121506   7.879  11.172   3.195  1.5277 -1.4545  0.1728
38792SOL    HW221507   7.866  11.087   3.070 -1.6765  1.5406 -1.6324
38793SOL     OW21508  10.805   5.071   5.780  0.2194  0.2021  0.0623
38793SOL    HW121509  10.805   4.989   5.829  1.1936  0.1587  0.0056
38793SOL    HW221510  10.796   5.044   5.689 -0.6092  0.2225  0.1411
38794SOL     OW21511   8.278   3.368   8.972 -0.5029  0.0561  0.0165
38794SOL    HW121512   8.333   3.367   9.050 -0.6907 -2.4187  0.1399
38794SOL    HW221513   8.199   3.414   9.000  1.2299  3.1939 -0.0303
38795SOL     OW21514   6.364   7.150   3.418  0.0467 -0.0101 -0.0271
38795SOL    HW121515   6.345   7.197   3.499 -1.3725  1.0017 -0.9019
38795SOL    HW221516   6.444   7.190   3.385  0.6291 -0.4280  0.8748
38796SOL     OW21517   2.141   6.481   2.031 -0.2383  0.1620  0.1331
38796SOL    HW121518   2.187   6.553   1.989  0.3370 -1.7497 -2.6634
38796SOL    HW221519   2.050   6.490   2.003 -0.8452  1.6578  2.4635
38797SOL     OW21520   5.796   4.323   2.106  0.0640 -0.1682  0.2876
38797SOL    HW121521   5.720   4.377   2.085 -0.6590  0.0819  3.3039
38797SOL    HW221522   5.759   4.236   2.124  0.3940  0.0407  2.1035
38798SOL     OW21523   9.141   8.954   7.256  0.1594 -0.0671  0.3106
38798SOL    HW121524   9.151   8.963   7.161  0.0973 -1.0413  0.2062
38798SOL    HW221525   9.054   8.989   7.275 -0.2220 -0.7676 -0.1248
38799SOL     OW21526   4.682   4.988   7.132 -0.0015  0.0494 -0.2500
38799SOL    HW121527   4.667   4.987   7.038  1.0184  0.1948 -0.4189
38799SOL    HW221528   4.645   4.905   7.163 -0.7065  0.1826 -0.7058
38800SOL     OW21529  10.237   1.994   2.111 -0.3227  0.3067  0.3680
38800SOL    HW121530  10.164   2.033   2.159  0.9596  1.9706  1.0199
38800SOL    HW221531  10.229   2.030   2.023 -0.0653  0.8261  0.5510
38801SOL     OW21532   9.879  10.826   9.943  0.4975  0.4256 -0.4461
38801SOL    HW121533   9.973  10.825   9.956  0.5428  2.5116 -0.4110
38801SOL    HW221534   9.855  10.918   9.950 -1.1083  0.2960 -3.3938
38802SOL     OW21535   5.288   5.677  11.183 -0.2302  0.0339 -0.0785
38802SOL    HW121536   5.270   5.630  11.102 -0.9623 -0.0975  0.1590
38802SOL    HW221537   5.311   5.607  11.246  0.2561  0.1284 -0.1454
38803SOL     OW21538   6.791   9.414   0.067  0.2142  0.5485  0.7219
38803SOL    HW121539   6.760   9.492   0.112  0.8801 -0.3022  2.6887
38803SOL    HW221540   6.855   9.375   0.127  1.1473 -0.5879 -0.9720
38804SOL     OW21541   9.007   3.650   4.497 -0.0254 -0.5969  0.3725
38804SOL    HW121542   9.039   3.576   4.446  1.1255 -0.0877  0.3323
38804SOL    HW221543   9.072   3.720   4.481 -1.2194  0.4941  0.2061
38805SOL     OW21544   7.498   2.733   2.638 -0.1767 -0.1797 -0.5708
38805SOL    HW121545   7.449   2.809   2.607 -0.4908 -0.4644 -0.7760
38805SOL    HW221546   7.577   2.731   2.584  0.3230  0.5877  0.1133
38806SOL     OW21547   8.647   5.230  11.028  0.1529  0.5324 -0.0370
38806SOL    HW121548   8.600   5.194  11.103  0.3792  0.3843  0.0322
38806SOL    HW221549   8.721   5.172  11.015  0.9688  1.4318  0.5804
38807SOL     OW21550   6.723   2.599   3.113 -0.2167  0.3407  0.2949
38807SOL    HW121551   6.642   2.645   3.091 -0.9317 -0.9311  0.2569
38807SOL    HW221552   6.792   2.665   3.099 -1.2933  1.6873  1.1404
38808SOL     OW21553   1.351   8.027   0.983  0.9451 -0.2349  0.7726
38808SOL    HW121554   1.381   8.097   0.926 -0.2562  0.0346  0.4531
38808SOL    HW221555   1.382   7.946   0.941 -0.3895 -0.0693 -0.5702
38809SOL     OW21556  11.078  11.036   9.415  0.1648 -0.2348 -0.2118
38809SOL    HW121557  11.158  11.079   9.444  1.1404 -1.7795 -0.5257
38809SOL    HW221558  11.054  11.081   9.334  0.7348  0.2203 -0.1280
38810SOL     OW21559   1.340   5.799   9.218  0.2113 -0.6070  0.4440
38810SOL    HW121560   1.306   5.816   9.130 -1.5949 -0.0071  1.2235
38810SOL    HW221561   1.351   5.704   9.222  0.3817 -0.6281 -0.4560
38811SOL     OW21562   8.165  11.036   0.671 -0.4231  0.0189 -0.0614
38811SOL    HW121563   8.247  10.995   0.699  1.0191  1.4720 -2.0271
38811SOL    HW221564   8.109  10.962   0.645  0.9578 -0.8969 -0.4823
38812SOL     OW21565   6.023   9.701   4.298  0.3675  0.0735  0.3931
38812SOL    HW121566   6.028   9.659   4.212 -2.6318  0.2128  0.1068
38812SOL    HW221567   6.110   9.740   4.311  1.0606 -0.4942 -2.2850
38813SOL     OW21568   6.203   0.856   9.622 -0.4793  0.0056  0.3221
38813SOL    HW121569   6.290   0.859   9.583 -0.5681 -2.5640 -0.1197
38813SOL    HW221570   6.149   0.812   9.557 -1.8387  0.4614  1.1201
38814SOL     OW21571   4.710   7.317   0.494  0.2315 -0.1257 -0.4346
38814SOL    HW121572   4.706   7.373   0.572  0.8940 -1.5744  0.6729
38814SOL    HW221573   4.624   7.326   0.453 -0.4401 -0.0327  0.9631
38815SOL     OW21574   0.569   9.631   5.523 -0.9062 -0.4054 -0.2549
38815SOL    HW121575   0.611   9.688   5.459 -1.8784  0.9656  0.2881
38815SOL    HW221576   0.639   9.577   5.558  0.0870  0.6579 -0.5900
38816SOL     OW21577   5.623   3.566   4.033  0.3914 -0.1734  0.0820
38816SOL    HW121578   5.540   3.558   4.079  0.0365 -0.0888 -0.5376
38816SOL    HW221579   5.641   3.478   4.001 -0.2859  0.1401 -1.1936
38817SOL     OW21580   1.115   4.973   5.743 -0.5693  0.3086 -0.2697
38817SOL    HW121581   1.182   4.908   5.763 -0.6262  0.4208  0.2957
38817SOL    HW221582   1.145   5.014   5.662 -0.0495  0.2300 -0.1215
38818SOL     OW21583   1.237   7.860   3.946  0.4308 -0.2853 -0.3733
38818SOL    HW121584   1.259   7.767   3.949  1.7951  0.0463  0.1897
38818SOL    HW221585   1.320   7.905   3.962 -0.5772  0.9991  1.4019
38819SOL     OW21586  10.177   7.559   1.296 -0.5773 -0.3460 -0.5026
38819SOL    HW121587  10.238   7.538   1.367  0.2464 -1.1346 -1.4299
38819SOL    HW221588  10.106   7.495   1.306 -0.8991  0.0942  0.1176
38820SOL     OW21589   0.828   3.411   8.837 -0.0632  0.2429  0.9430
38820SOL    HW121590   0.830   3.335   8.894 -0.1759 -1.1791 -0.9039
38820SOL    HW221591   0.902   3.399   8.777 -0.8926  0.8918 -0.2383
38821SOL     OW21592   8.148  10.573   8.539  0.1517  0.6552 -0.4302
38821SOL    HW121593   8.095  10.591   8.617  0.1865  0.3642 -0.3383
38821SOL    HW221594   8.239  10.579   8.570  0.1600 -0.0844 -0.3067
38822SOL     OW21595   9.407   2.157   4.700  0.6708 -0.1097  0.2667
38822SOL    HW121596   9.388   2.071   4.738 -0.0227  0.2711  0.7998
38822SOL    HW221597   9.353   2.218   4.750  1.3542  0.6759  0.0657
38823SOL     OW21598  10.598   5.996   5.691 -0.0248 -0.5926  0.0868
38823SOL    HW121599  10.646   6.012   5.610 -0.6686  2.2805  0.2296
38823SOL    HW221600  10.665   5.973   5.755  0.6195 -1.5549 -0.9214
38824SOL     OW21601   2.500   4.636   5.542 -0.1141 -0.3527 -0.4313
38824SOL    HW121602   2.590   4.661   5.522  0.2748 -2.1395 -1.0896
38824SOL    HW221603   2.450   4.717   5.535  1.1324  0.3204 -2.0425
38825SOL     OW21604   2.394   8.543  10.114  0.5378  0.7810  0.1638
38825SOL    HW121605   2.376   8.462  10.067 -0.0314  0.6992  0.5198
38825SOL    HW221606   2.482   8.568  10.086  0.7143  0.0388  0.0624
38826SOL     OW21607   3.359   6.309   0.989 -0.2088  0.5265 -0.0174
38826SOL    HW121608   3.320   6.315   0.902  0.4582  0.7294 -0.3034
38826SOL    HW221609   3.321   6.382   1.038 -0.2847  0.6480 -0.2569
38827SOL     OW21610  11.287   0.899   9.741  0.2733 -0.5333  0.4006
38827SOL    HW121611  11.219   0.837   9.715 -1.1557  1.4584 -0.7666
38827SOL    HW221612  11.337   0.916   9.661 -0.7594  1.4958  0.1443
38828SOL     OW21613   2.750  10.854   3.563  0.2351  0.4172 -0.4084
38828SOL    HW121614   2.718  10.841   3.473  2.6690 -1.7190 -1.0136
38828SOL    HW221615   2.741  10.768   3.604 -0.9978  1.4242  1.4704
38829SOL     OW21616   0.342   4.327  10.569 -0.2031  0.6046  0.3071
38829SOL    HW121617   0.417   4.382  10.547  0.1201  0.3541  0.7738
38829SOL    HW221618   0.341   4.326  10.665  0.3631 -0.9736  0.3092
38830SOL     OW21619   4.337   1.308   1.242  0.3280  0.2083  0.0415
38830SOL    HW121620   4.407   1.373   1.234  0.9563 -0.1819  1.9927
38830SOL    HW221621   4.383   1.228   1.268 -0.7847 -0.2326  0.6442
38831SOL     OW21622   2.556   8.559   5.718 -0.1905  0.6121  0.7250
38831SOL    HW121623   2.524   8.538   5.805 -0.6131 -0.7620  0.2448
38831SOL    HW221624   2.487   8.529   5.659  0.8003  0.0668 -0.1691
38832SOL     OW21625   1.492   2.767   4.361 -0.1178  0.2167  0.1613
38832SOL    HW121626   1.485   2.831   4.431 -1.3085  0.3520 -0.0739
38832SOL    HW221627   1.522   2.687   4.404 -0.5908  0.3716  0.7824
38833SOL     OW21628   8.700  10.185   4.357 -0.5827  0.3149 -0.0958
38833SOL    HW121629   8.625  10.234   4.324  0.3302  2.5203  1.0186
38833SOL    HW221630   8.677  10.093   4.341 -2.6257  1.0391 -1.5888
38834SOL     OW21631  11.089   3.460   7.581 -0.0962 -0.0653  0.3912
38834SOL    HW121632  11.158   3.421   7.527 -0.7438  1.3943 -1.5842
38834SOL    HW221633  11.118   3.446   7.671  3.2694  1.2712 -0.3840
38835SOL     OW21634   2.907  10.978   8.970 -0.3145  0.1323 -0.1388
38835SOL    HW121635   2.884  10.944   9.057 -1.4774 -1.7072 -1.1473
38835SOL    HW221636   2.863  11.063   8.966 -1.1397 -0.2479  0.6641
38836SOL     OW21637   8.855   3.940  10.307  0.3511 -0.3772 -0.1001
38836SOL    HW121638   8.888   3.856  10.276 -1.6649 -1.3613  0.3336
38836SOL    HW221639   8.804   3.974  10.233  0.3869  0.0446  0.0636
38837SOL     OW21640   2.979   2.152   5.288  0.5905 -0.2446 -0.2033
38837SOL    HW121641   3.058   2.108   5.321  1.3197  1.4662  0.3901
38837SOL    HW221642   2.908   2.119   5.343  1.2667  0.0137  0.8321
38838SOL     OW21643   6.641   9.875   3.642 -0.4439 -0.2680 -0.1038
38838SOL    HW121644   6.619   9.903   3.553 -2.0233  0.4773  0.4976
38838SOL    HW221645   6.557   9.849   3.680  0.3145 -1.1925  0.9661
38839SOL     OW21646   1.908   2.161  11.320  0.8781 -0.3572 -0.4756
38839SOL    HW121647   1.875   2.149  11.231  3.7645 -1.4082 -1.4630
38839SOL    HW221648   1.928   2.072  11.350 -0.4003 -0.0458  1.3914
38840SOL     OW21649  10.117   1.254  10.432  0.2702  0.0641 -0.0997
38840SOL    HW121650  10.070   1.283  10.354  2.5379 -1.0911 -1.9604
38840SOL    HW221651  10.190   1.315  10.440 -0.3441  0.6184  1.5980
38841SOL     OW21652  10.584   9.158   8.433  0.3267 -0.1749 -0.0566
38841SOL    HW121653  10.613   9.073   8.468  0.5086 -0.8321 -1.7290
38841SOL    HW221654  10.648   9.179   8.366  0.0449  1.0989  0.0696
38842SOL     OW21655   2.248   4.426   4.307 -0.5278 -0.3042  0.1514
38842SOL    HW121656   2.281   4.500   4.255 -0.2943 -0.5893 -0.1075
38842SOL    HW221657   2.257   4.350   4.249  1.5301 -0.9558  1.2941
38843SOL     OW21658   1.206   5.074   5.511 -0.2604  0.4742  0.9335
38843SOL    HW121659   1.159   5.125   5.444 -0.1023  0.3888  0.7597
38843SOL    HW221660   1.248   5.003   5.462  1.1490  1.3087  0.8889
38844SOL     OW21661   1.020   6.091   6.746 -0.3367  0.3475 -0.1087
38844SOL    HW121662   0.934   6.058   6.772  0.2934 -1.7011 -0.4841
38844SOL    HW221663   1.013   6.109   6.653 -0.1923 -0.4656 -0.2846
38845SOL     OW21664  11.015   5.246   0.882  0.4736  0.0092  0.0084
38845SOL    HW121665  10.946   5.184   0.907  0.3499  0.2508  0.2592
38845SOL    HW221666  10.979   5.332   0.901  1.1306  0.1030  0.8589
38846SOL     OW21667   4.421   9.857   8.159 -0.2006  0.0262 -0.0021
38846SOL    HW121668   4.423   9.856   8.255  0.4495  1.4112  0.0036
38846SOL    HW221669   4.341   9.904   8.137  0.0922  0.4554 -0.1421
38847SOL     OW21670   3.409   4.615   0.549  0.0228 -0.2004 -0.2346
38847SOL    HW121671   3.344   4.565   0.599  0.2774  1.6926  2.0650
38847SOL    HW221672   3.493   4.571   0.568  0.0689  0.2948  0.6893
38848SOL     OW21673   4.938   1.630   3.796 -0.0571  0.5686 -0.1162
38848SOL    HW121674   4.951   1.537   3.814  0.7477  0.6081 -0.4699
38848SOL    HW221675   4.843   1.641   3.794 -0.1636  0.1823  2.0745
38849SOL     OW21676   0.307   8.169   4.202  0.0835 -0.1182 -0.0406
38849SOL    HW121677   0.370   8.149   4.271 -0.4915  0.4384  0.6480
38849SOL    HW221678   0.280   8.084   4.168 -1.5376 -0.4797  2.1199
38850SOL     OW21679   4.197   1.293   7.269 -0.5669 -0.0295 -0.0009
38850SOL    HW121680   4.270   1.245   7.230 -0.2608  1.7130 -1.6716
38850SOL    HW221681   4.145   1.322   7.194  0.0097  3.3976  0.8293
38851SOL     OW21682   4.382   7.077   4.923  0.0789 -0.2266  0.2561
38851SOL    HW121683   4.383   7.017   4.848  0.4390 -3.5877  2.8223
38851SOL    HW221684   4.474   7.098   4.938 -0.0213  0.7449 -0.4299
38852SOL     OW21685   6.043   3.592   0.110  0.5869  0.3410  0.0081
38852SOL    HW121686   6.012   3.502   0.110  0.5963  0.3176 -1.2529
38852SOL    HW221687   6.045   3.618   0.202  0.6485 -0.9588  0.3738
38853SOL     OW21688   0.385   6.829   9.812  0.6011  0.0134 -0.2499
38853SOL    HW121689   0.463   6.848   9.865  1.1186 -0.0807 -0.9660
38853SOL    HW221690   0.340   6.913   9.806  0.5006  0.0127  0.3844
38854SOL     OW21691   1.863   5.783   4.670 -0.4920 -0.0826 -0.0378
38854SOL    HW121692   1.801   5.855   4.667  0.3246  0.6555  0.4610
38854SOL    HW221693   1.929   5.811   4.734 -0.2759 -1.3560  0.3098
38855SOL     OW21694   8.794   7.765  10.851 -0.2323  0.5764  0.4803
38855SOL    HW121695   8.736   7.841  10.847  2.2914  2.6346  1.5331
38855SOL    HW221696   8.787   7.724  10.764 -0.7825  2.6435 -0.4673
38856SOL     OW21697   1.567   1.905   3.954 -0.0862 -0.3775  0.3634
38856SOL    HW121698   1.540   1.952   4.033 -1.6359  1.7948 -1.3856
38856SOL    HW221699   1.570   1.972   3.885  0.1014 -2.3962 -1.6766
38857SOL     OW21700   9.151   1.412   3.524 -0.2026 -0.7060 -0.1823
38857SOL    HW121701   9.098   1.443   3.597  1.4456  0.9058  0.3781
38857SOL    HW221702   9.188   1.330   3.555 -1.4566 -1.2718 -0.1554
38858SOL     OW21703   2.904   2.971   5.930  0.3253  0.2571 -0.1932
38858SOL    HW121704   2.975   2.942   5.873  0.5747  1.4966 -0.5195
38858SOL    HW221705   2.856   3.035   5.879 -0.5728  0.0081  0.3173
38859SOL     OW21706  10.563   1.200   4.526  0.2000  0.1011 -0.7619
38859SOL    HW121707  10.508   1.279   4.520  0.2101  0.2483  0.9108
38859SOL    HW221708  10.576   1.187   4.620 -1.6857 -3.2135 -0.8963
38860SOL     OW21709   4.610   0.205   1.298 -0.3278 -0.1262  0.0407
38860SOL    HW121710   4.661   0.282   1.271 -0.8165  0.1278 -0.1651
38860SOL    HW221711   4.598   0.217   1.392  2.9656 -1.9461  0.7683
38861SOL     OW21712   9.032   5.298   8.566 -0.3202 -0.0034  0.1790
38861SOL    HW121713   8.986   5.341   8.494  0.6598 -0.4975 -0.7535
38861SOL    HW221714   9.049   5.209   8.534  1.1190  0.1133  0.5679
38862SOL     OW21715   0.132   2.951   0.200 -0.3915  0.5052 -0.2578
38862SOL    HW121716   0.199   3.013   0.228 -0.2355  0.2999 -0.1667
38862SOL    HW221717   0.051   2.981   0.241 -0.3007  0.5994 -0.1482
38863SOL     OW21718   7.395   0.650  10.414  0.3981  0.3638 -0.4108
38863SOL    HW121719   7.436   0.737  10.407  2.7245 -0.8110 -1.9901
38863SOL    HW221720   7.426   0.603  10.337  0.8883 -2.5869  1.5313
38864SOL     OW21721   6.780   6.666   8.659  0.3040  0.0880 -0.0584
38864SOL    HW121722   6.788   6.608   8.583  0.8720  2.2145 -1.6607
38864SOL    HW221723   6.781   6.607   8.734 -0.2386 -2.0589 -1.6922
38865SOL     OW21724  11.070   1.929   0.772 -0.0039  0.2642 -0.2347
38865SOL    HW121725  11.105   1.840   0.779  2.2173  1.2751  2.2473
38865SOL    HW221726  11.128   1.973   0.711 -0.5828  0.2670 -0.7855
38866SOL     OW21727  11.066   0.661   1.641 -0.1787 -0.1973  0.2780
38866SOL    HW121728  10.974   0.671   1.619  0.5544  1.9678 -2.1748
38866SOL    HW221729  11.109   0.641   1.557  1.5878 -0.9289  1.3300
38867SOL     OW21730   2.318   2.134   4.365 -0.4824 -0.5067  0.1206
38867SOL    HW121731   2.344   2.193   4.295  1.6140 -1.7276 -0.1663
38867SOL    HW221732   2.227   2.111   4.345 -0.6293  0.9275 -0.9108
38868SOL     OW21733   0.118  10.395   1.542  0.2605 -0.2613 -0.4648
38868SOL    HW121734   0.037  10.370   1.587  0.2709 -1.7316 -1.2513
38868SOL    HW221735   0.089  10.456   1.474 -0.3519 -1.6560 -1.4795
38869SOL     OW21736   5.340   1.178   9.957  0.7055 -0.2859  0.3132
38869SOL    HW121737   5.425   1.133   9.962 -0.0356 -1.6371  1.3399
38869SOL    HW221738   5.354   1.250   9.896  1.8704 -2.0806 -1.5915
38870SOL     OW21739   3.124   5.754   8.428  0.2778 -0.4122  0.2891
38870SOL    HW121740   3.216   5.766   8.451  0.3187  1.3462 -0.7177
38870SOL    HW221741   3.094   5.841   8.401 -2.2786 -0.5039  2.6485
38871SOL     OW21742   9.817   9.178   5.626 -0.5508  0.4083  0.2319
38871SOL    HW121743   9.829   9.086   5.651 -0.6989  0.9536  2.3631
38871SOL    HW221744   9.729   9.181   5.588 -0.4889 -0.3601  0.0181
38872SOL     OW21745   2.880   6.144  10.119 -0.1046  0.3600  0.2218
38872SOL    HW121746   2.867   6.235  10.146  0.7517  0.4704  0.2516
38872SOL    HW221747   2.872   6.146  10.024  0.2516  0.5172  0.1974
38873SOL     OW21748   5.889   2.081   9.335  0.0419  0.1142  0.0530
38873SOL    HW121749   5.927   2.027   9.266 -1.2104 -0.4859 -0.1807
38873SOL    HW221750   5.906   2.033   9.416  0.3966  0.1967  0.0281
38874SOL     OW21751   1.389   4.111   3.325  0.3632  0.1271 -0.2189
38874SOL    HW121752   1.347   4.120   3.239 -3.1078  0.5533  1.4523
38874SOL    HW221753   1.431   4.024   3.321 -2.8754 -1.4736 -1.0846
38875SOL     OW21754   2.013  10.289   3.822  0.1493 -0.2990 -0.3907
38875SOL    HW121755   1.941  10.348   3.802 -0.3455 -0.2030  1.6079
38875SOL    HW221756   1.994  10.255   3.909  1.7353 -1.4481 -0.4580
38876SOL     OW21757   0.030   9.377   7.369  0.4816 -0.8845  0.2041
38876SOL    HW121758  -0.037   9.408   7.307  0.6786  1.3967  1.0995
38876SOL    HW221759   0.105   9.434   7.355  1.7876 -2.5441  0.1868
38877SOL     OW21760   2.015   5.260   0.438 -0.5151  0.3544 -0.1356
38877SOL    HW121761   2.057   5.333   0.484 -0.6308  0.1530  0.2850
38877SOL    HW221762   2.062   5.183   0.468 -0.9842  0.1589  0.0994
38878SOL     OW21763   1.227   3.961   9.758  0.5174 -0.2847 -0.4366
38878SOL    HW121764   1.310   4.004   9.736 -0.3987  1.3504 -0.7128
38878SOL    HW221765   1.209   3.905   9.682  0.7480  0.2797 -0.9152
38879SOL     OW21766   6.946   8.599   9.725  0.5108  0.4664 -0.5049
38879SOL    HW121767   7.038   8.614   9.748  0.7383 -1.3241 -0.2095
38879SOL    HW221768   6.935   8.504   9.730 -1.4522  0.6935 -0.2157
38880SOL     OW21769   2.589   4.694   4.173 -0.2398 -0.1270  0.1570
38880SOL    HW121770   2.604   4.775   4.222  3.4113 -2.5887  3.4080
38880SOL    HW221771   2.627   4.711   4.087 -0.1249  1.8325  0.5654
38881SOL     OW21772   0.412   0.654   4.073 -0.1603 -0.2008 -0.1865
38881SOL    HW121773   0.357   0.684   4.000 -0.5672  0.8025  0.5198
38881SOL    HW221774   0.367   0.577   4.107  0.2732 -0.9627 -1.2669
38882SOL     OW21775   5.171  10.832   3.208 -0.2675 -0.5078 -0.2115
38882SOL    HW121776   5.240  10.878   3.256 -0.1563 -2.0728  1.1774
38882SOL    HW221777   5.090  10.862   3.249 -0.3821  0.8789 -1.4448
38883SOL     OW21778  10.053  10.660   6.299  0.1031 -0.4302 -0.6720
38883SOL    HW121779  10.038  10.752   6.319 -0.0598 -0.4433 -0.7258
38883SOL    HW221780   9.996  10.613   6.360  1.4769 -0.5491  0.5129
38884SOL     OW21781   3.221   9.025  11.217 -0.1796  0.0628 -0.5891
38884SOL    HW121782   3.294   9.065  11.264  0.0758  0.0740 -0.9934
38884SOL    HW221783   3.199   9.089  11.149  0.3220 -0.5396 -1.3332
38885SOL     OW21784   8.896   1.746   3.221 -0.4360  0.1813 -0.2307
38885SOL    HW121785   8.970   1.735   3.161 -0.4107  1.8032 -0.5406
38885SOL    HW221786   8.877   1.840   3.217 -0.3237  0.3380  2.4514
38886SOL     OW21787   0.877   1.650   1.155  0.5231  0.3159  0.3275
38886SOL    HW121788   0.797   1.702   1.156  0.1227 -0.2517 -1.2494
38886SOL    HW221789   0.867   1.589   1.228 -0.2002  0.6319  0.4956
38887SOL     OW21790  10.012   6.369  11.303  0.6003  0.0745  0.6376
38887SOL    HW121791   9.982   6.449  11.347  0.1490  0.0427  0.3860
38887SOL    HW221792  10.056   6.399  11.224 -1.2737 -0.0111 -0.4633
38888SOL     OW21793   5.342   0.819  10.215  0.0236 -0.0529  0.4427
38888SOL    HW121794   5.268   0.832  10.156 -0.9148  0.6554  1.7584
38888SOL    HW221795   5.333   0.887  10.281  0.9367 -0.9749  1.5415
38889SOL     OW21796   1.973   9.769   3.556  0.0548 -0.3306  0.5175
38889SOL    HW121797   2.066   9.787   3.541  0.3161 -1.0760  1.2319
38889SOL    HW221798   1.971   9.717   3.636 -1.0307  0.2262  0.8597
38890SOL     OW21799   7.509   5.405  10.859 -0.3734  0.0413 -0.1007
38890SOL    HW121800   7.594   5.367  10.838  0.2626  0.8328  0.9800
38890SOL    HW221801   7.451   5.330  10.872  1.2947 -0.7175  3.8340
38891SOL     OW21802  11.055   1.316   1.939 -0.2861 -0.3668 -0.1010
38891SOL    HW121803  10.982   1.256   1.919 -0.7349  0.2027 -0.1749
38891SOL    HW221804  11.052   1.381   1.869 -0.5430  0.4243  0.6453
38892SOL     OW21805   4.513   3.920   3.211  0.4976 -0.0843  0.3628
38892SOL    HW121806   4.441   3.945   3.270 -0.8280  0.6233 -1.4948
38892SOL    HW221807   4.537   3.832   3.239 -1.7627 -0.7233  0.4196
38893SOL     OW21808   5.488   4.956   8.250 -0.4218 -0.0272  0.1775
38893SOL    HW121809   5.541   4.899   8.194  0.3881  1.1130 -0.2250
38893SOL    HW221810   5.551   5.017   8.288 -1.0327 -0.4091  1.8947
38894SOL     OW21811   5.602  10.990   0.947 -0.2222 -0.9731  0.5499
38894SOL    HW121812   5.536  11.045   0.904  0.6763  0.1908  0.6244
38894SOL    HW221813   5.552  10.920   0.988 -1.4905  0.2201  1.1003
38895SOL     OW21814   6.338   9.882   7.735 -0.0787  0.2091  0.0953
38895SOL    HW121815   6.359   9.803   7.786 -2.7274  0.1125  1.0930
38895SOL    HW221816   6.414   9.939   7.746 -0.0459 -0.3667  3.0669
38896SOL     OW21817   7.125  11.082   5.761  0.6108 -0.5011  0.5102
38896SOL    HW121818   7.087  11.076   5.849  2.4628 -0.2205  1.3757
38896SOL    HW221819   7.100  11.000   5.718 -3.0945  0.7859  0.1096
38897SOL     OW21820   9.595   9.382   2.081  0.5145 -0.3308 -0.2527
38897SOL    HW121821   9.669   9.442   2.066  0.3316 -0.1601 -0.4788
38897SOL    HW221822   9.634   9.306   2.124  0.8380 -0.2898 -0.4758
38898SOL     OW21823   2.401   2.789   7.680 -0.3121 -0.1138 -0.0207
38898SOL    HW121824   2.394   2.735   7.602 -0.8257  0.7280 -0.5702
38898SOL    HW221825   2.372   2.733   7.752 -1.4503 -0.3557 -0.6746
38899SOL     OW21826   8.203   2.571   2.208 -0.5659  0.0313 -0.0799
38899SOL    HW121827   8.230   2.600   2.121 -0.0526 -0.5117 -0.1060
38899SOL    HW221828   8.221   2.646   2.265 -1.5873  0.6524 -0.5576
38900SOL     OW21829   1.274   1.938   9.614  0.9772  0.1332 -0.1880
38900SOL    HW121830   1.365   1.954   9.638  0.7846 -2.0090  2.1897
38900SOL    HW221831   1.227   1.940   9.697 -0.6936 -1.6034 -1.0697
38901SOL     OW21832  11.067   3.923   6.958 -0.0921 -0.3956 -0.6794
38901SOL    HW121833  11.111   3.838   6.968 -0.0389 -0.3038 -0.0987
38901SOL    HW221834  11.071   3.962   7.045  0.4188  0.4687 -1.0845
38902SOL     OW21835   2.385   7.724   0.087 -0.3302 -0.2635  0.2187
38902SOL    HW121836   2.403   7.670   0.011  0.3891 -0.0257  0.2178
38902SOL    HW221837   2.447   7.797   0.080 -0.5091 -0.0498  0.8361
38903SOL     OW21838  10.508   3.674   7.865 -1.1800  0.0157 -0.4933
38903SOL    HW121839  10.583   3.618   7.881  0.3973  2.0638 -0.5231
38903SOL    HW221840  10.487   3.660   7.772  0.0145  0.4472 -0.8338
38904SOL     OW21841   0.438   2.295   0.109  0.6112 -0.1803 -0.1012
38904SOL    HW121842   0.378   2.310   0.182  0.2209  1.0949 -0.6649
38904SOL    HW221843   0.508   2.359   0.122  1.2564 -0.8813 -0.0902
38905SOL     OW21844  10.108   2.294   0.369 -0.0772 -0.1092  0.5671
38905SOL    HW121845  10.073   2.206   0.360 -0.3114 -0.0476  0.8904
38905SOL    HW221846  10.128   2.321   0.279 -3.5412  0.9735  0.0799
38906SOL     OW21847   2.388   4.118  10.840  0.5881 -0.5162  0.0294
38906SOL    HW121848   2.319   4.058  10.869 -0.0566  0.5345  0.7085
38906SOL    HW221849   2.341   4.195  10.807  1.4123 -0.1641 -0.3311
38907SOL     OW21850   9.928   6.548   5.695  0.0671  0.4502  0.4257
38907SOL    HW121851   9.856   6.540   5.632  1.6977 -0.3527 -1.3967
38907SOL    HW221852   9.916   6.635   5.734 -2.0615  0.2052  0.3989
38908SOL     OW21853   0.470   7.398   7.159  0.2494  0.3475  0.7357
38908SOL    HW121854   0.380   7.423   7.181 -0.0033 -0.6219  0.8328
38908SOL    HW221855   0.494   7.457   7.088 -1.6099 -1.4876 -1.4982
38909SOL     OW21856   1.368   4.287  11.098  0.8970  0.3429  0.4355
38909SOL    HW121857   1.336   4.294  11.188 -0.5149 -0.5416  0.0112
38909SOL    HW221858   1.461   4.269  11.107  0.3332 -2.1313  1.7813
38910SOL     OW21859   2.244   3.991  10.383  0.4705 -0.2709 -0.5693
38910SOL    HW121860   2.223   4.063  10.442 -0.0331 -0.8131 -0.0840
38910SOL    HW221861   2.219   4.022  10.297  2.2866  0.9858 -0.6888
38911SOL     OW21862  11.295   5.286   1.852 -0.2756  0.5371 -0.9722
38911SOL    HW121863  11.354   5.236   1.794  1.1162 -0.7153  1.4350
38911SOL    HW221864  11.229   5.222   1.879 -0.2090  0.7712 -0.2432
38912SOL     OW21865   9.604   0.553   3.269  0.5181 -0.0091 -0.0518
38912SOL    HW121866   9.674   0.492   3.247 -0.0454 -1.3443  1.7391
38912SOL    HW221867   9.531   0.497   3.296 -0.2704  1.4263  0.8613
38913SOL     OW21868   3.220   8.286   6.013 -0.1376 -0.4610  0.8436
38913SOL    HW121869   3.150   8.320   5.959  0.3667  0.4286  0.7270
38913SOL    HW221870   3.296   8.280   5.955 -0.2821 -2.0871  0.7908
38914SOL     OW21871   5.716   8.601   0.954 -0.0269  0.4781 -0.0624
38914SOL    HW121872   5.665   8.571   1.029 -1.0295 -0.1339 -0.9737
38914SOL    HW221873   5.805   8.613   0.988 -0.1507 -1.1972  0.8850
38915SOL     OW21874   3.426   9.485   7.845 -0.5614  0.4222  0.3477
38915SOL    HW121875   3.334   9.463   7.832 -0.0363 -0.2169 -2.5114
38915SOL    HW221876   3.429   9.580   7.836 -1.2869  0.7472  2.9768
38916SOL     OW21877   9.999   9.296   5.816  0.0876 -0.4775  1.0472
38916SOL    HW121878  10.021   9.229   5.881 -0.6136  0.2882  2.0753
38916SOL    HW221879   9.915   9.268   5.780  1.4703 -2.0379 -1.0676
38917SOL     OW21880   3.785  10.946   3.517 -0.5263 -0.2962 -0.2177
38917SOL    HW121881   3.727  11.021   3.535 -0.8669 -0.1724 -1.7394
38917SOL    HW221882   3.741  10.898   3.447 -0.2145 -1.8354  0.6351
38918SOL     OW21883   9.708   5.785   8.363  0.3108  0.3058  0.2378
38918SOL    HW121884   9.654   5.760   8.288  0.3950 -3.4117  1.3230
38918SOL    HW221885   9.723   5.879   8.351 -2.1311  0.4026 -2.7905
38919SOL     OW21886   5.017   8.284  11.099 -0.3776 -0.1571 -0.1110
38919SOL    HW121887   4.996   8.355  11.159 -0.2034 -0.0863 -0.1341
38919SOL    HW221888   5.097   8.246  11.134  0.2497  0.4885 -0.8392
38920SOL     OW21889  10.310   9.561   5.514 -0.4178  0.0814  0.3122
38920SOL    HW121890  10.248   9.520   5.454 -0.0879 -0.3243  0.2514
38920SOL    HW221891  10.287   9.527   5.600 -0.7189  0.4601  0.3842
38921SOL     OW21892  10.285  11.231   3.717  0.3244 -0.5038  0.3030
38921SOL    HW121893  10.208  11.198   3.670  0.1199 -1.1534  1.0830
38921SOL    HW221894  10.335  11.279   3.650 -0.6321 -0.2821 -0.2641
38922SOL     OW21895  10.357  10.927   4.510  0.0371  0.8222 -0.0773
38922SOL    HW121896  10.303  11.003   4.529  1.5003  1.8289  0.1469
38922SOL    HW221897  10.366  10.927   4.414  3.8253  3.6485  0.2031
38923SOL     OW21898   4.042   5.715   5.206  0.7634 -0.1132 -0.2198
38923SOL    HW121899   4.114   5.654   5.190  1.0044  0.7138 -2.3946
38923SOL    HW221900   4.084   5.793   5.242  1.1083  0.7124 -2.3325
38924SOL     OW21901   9.672   8.500  11.129 -0.2170 -0.1091 -0.4030
38924SOL    HW121902   9.622   8.434  11.081  2.0845  0.1140 -3.2332
38924SOL    HW221903   9.714   8.451  11.200  0.4621 -1.4955 -1.7183
38925SOL     OW21904   8.771   0.590   7.709 -0.2028 -0.0537 -0.1969
38925SOL    HW121905   8.719   0.547   7.641  0.5393 -0.3996 -0.5454
38925SOL    HW221906   8.832   0.522   7.739 -1.6526 -0.4243  2.0081
38926SOL     OW21907   4.747   9.670   3.537 -0.0804 -0.1611 -0.3106
38926SOL    HW121908   4.678   9.607   3.556 -0.7888  0.0753 -2.0623
38926SOL    HW221909   4.717   9.751   3.578 -0.5409 -0.2144 -0.5451
38927SOL     OW21910   8.668   7.488   5.298  0.3832  0.4687 -0.2233
38927SOL    HW121911   8.649   7.395   5.290  1.2332  0.3287 -0.6960
38927SOL    HW221912   8.712   7.511   5.216 -0.1909  1.3811 -0.2843
38928SOL     OW21913   1.237   3.461   5.464 -0.6131 -0.4838  0.7397
38928SOL    HW121914   1.178   3.493   5.396 -0.5549 -1.1481  0.3734
38928SOL    HW221915   1.312   3.425   5.416  0.5810  1.2491  1.2124
38929SOL     OW21916   3.969   4.424   6.568  0.4750 -0.2788 -0.3306
38929SOL    HW121917   3.911   4.390   6.637  0.1581  0.5077 -0.2127
38929SOL    HW221918   4.028   4.484   6.614  0.8198 -0.4106 -0.6019
38930SOL     OW21919  10.126   4.532   9.047  0.3091 -0.1785  0.6315
38930SOL    HW121920  10.136   4.506   9.138  0.8792  0.3868  0.7319
38930SOL    HW221921  10.032   4.546   9.036 -0.2253 -3.6781  0.1782
38931SOL     OW21922   8.297   8.015   7.335 -0.8041  0.0066  0.2205
38931SOL    HW121923   8.336   8.069   7.404 -1.8055 -0.9090  1.5416
38931SOL    HW221924   8.360   7.943   7.323 -0.6471  0.1423  0.2195
38932SOL     OW21925   0.800   0.774  10.411 -0.9020  0.0234 -0.0604
38932SOL    HW121926   0.872   0.715  10.432 -0.0624  1.3725  0.9809
38932SOL    HW221927   0.759   0.735  10.334  1.7296 -0.1269 -1.4577
38933SOL     OW21928   7.827   0.716   0.745  0.1927  0.8468 -0.9170
38933SOL    HW121929   7.816   0.794   0.691 -3.7267 -0.3119 -1.9519
38933SOL    HW221930   7.781   0.736   0.826  0.0529  0.0103 -0.7813
38934SOL     OW21931   3.197   4.376   9.613 -0.1111  0.1870  0.6579
38934SOL    HW121932   3.193   4.288   9.652 -1.5950 -0.1188 -0.1646
38934SOL    HW221933   3.149   4.431   9.674 -1.5714 -0.1048 -0.2067
38935SOL     OW21934   4.371   9.526   0.573  0.1186  0.2952  0.1862
38935SOL    HW121935   4.350   9.433   0.579  0.0259  0.2852 -0.3412
38935SOL    HW221936   4.378   9.544   0.479  0.7137  0.6882  0.2984
38936SOL     OW21937   4.138   2.484   1.453 -0.5081  0.7644 -0.7510
38936SOL    HW121938   4.124   2.507   1.361  1.4765 -0.0756 -1.2815
38936SOL    HW221939   4.230   2.459   1.458 -0.9400 -0.5400  1.1847
38937SOL     OW21940   5.565   9.708   4.231 -0.2574 -0.3003  0.1633
38937SOL    HW121941   5.592   9.664   4.151  1.7557 -0.0584  0.6748
38937SOL    HW221942   5.643   9.757   4.259 -1.0144 -0.1205  2.0672
38938SOL     OW21943  11.157   5.471   2.697 -0.2667 -0.4313 -0.1661
38938SOL    HW121944  11.076   5.519   2.715 -0.4023 -0.8936  0.4778
38938SOL    HW221945  11.194   5.455   2.784  0.9715  0.5610 -0.5035
38939SOL     OW21946   5.261   3.369   9.816 -0.1379 -0.0321 -0.4592
38939SOL    HW121947   5.205   3.443   9.791 -0.0621  0.0262 -0.4588
38939SOL    HW221948   5.350   3.401   9.800 -0.1901 -1.0209 -2.8635
38940SOL     OW21949   9.672   6.405   3.459  0.2626  0.3855  0.8454
38940SOL    HW121950   9.622   6.348   3.517  0.5144  0.6742  1.3437
38940SOL    HW221951   9.623   6.404   3.376 -1.4688  2.0059  1.8288
38941SOL     OW21952   7.948   0.153   5.809 -0.0322  0.1441  0.4696
38941SOL    HW121953   8.036   0.137   5.844  0.3622 -0.0714 -0.6096
38941SOL    HW221954   7.952   0.242   5.776 -0.6438  0.6288  1.6739
38942SOL     OW21955   8.714   0.641   9.563  0.1133 -0.4049 -0.3367
38942SOL    HW121956   8.781   0.621   9.497 -0.8642 -1.2702 -1.0724
38942SOL    HW221957   8.722   0.736   9.577 -0.4569  0.0116 -2.5776
38943SOL     OW21958   8.352   8.969   7.981  0.3446 -0.3835 -0.5407
38943SOL    HW121959   8.384   8.919   7.906  0.4626  0.4219 -1.0308
38943SOL    HW221960   8.266   8.931   8.000  0.7924 -1.3166 -0.3936
38944SOL     OW21961  11.319   7.288  10.458 -0.0129  0.0021  0.6936
38944SOL    HW121962  11.283   7.354  10.398  0.1810  0.0095  0.5850
38944SOL    HW221963  11.374   7.233  10.402 -1.7976 -1.4972  0.3790
38945SOL     OW21964  10.138   3.108   5.419  0.5921 -0.2905  0.2359
38945SOL    HW121965  10.103   3.022   5.441  1.1866 -0.4638  0.5016
38945SOL    HW221966  10.094   3.131   5.337  0.7549 -1.0332 -0.0624
38946SOL     OW21967   1.869   9.760   1.870  0.6405 -0.2467 -0.0972
38946SOL    HW121968   1.904   9.690   1.814  1.3831  0.2882 -0.3061
38946SOL    HW221969   1.946   9.806   1.902  0.1162  1.5610 -1.3302
38947SOL     OW21970   6.800   7.428   1.486 -0.4644  0.0538 -0.1193
38947SOL    HW121971   6.748   7.422   1.567 -0.6989 -1.2717 -0.3656
38947SOL    HW221972   6.861   7.355   1.491 -0.9046 -0.4168 -1.4489
38948SOL     OW21973   4.597   6.069   5.884 -0.3330 -0.2995 -0.0272
38948SOL    HW121974   4.666   6.128   5.915  0.4846 -1.1659 -0.1997
38948SOL    HW221975   4.546   6.122   5.823 -0.6938  0.7811  1.1707
38949SOL     OW21976   4.497   6.803   1.656  0.2745 -0.1024 -0.0274
38949SOL    HW121977   4.582   6.765   1.632  0.9432  2.0859 -1.1882
38949SOL    HW221978   4.507   6.825   1.749  0.2419 -1.7118  0.3836
38950SOL     OW21979   5.268   4.329   7.730 -0.3459  0.2778 -0.1031
38950SOL    HW121980   5.191   4.319   7.787 -0.0141 -0.5143  0.2050
38950SOL    HW221981   5.337   4.361   7.788  0.4255 -1.9897  0.2889
38951SOL     OW21982   2.177   6.769   0.121  0.1697 -0.8213 -0.2839
38951SOL    HW121983   2.135   6.695   0.166 -0.0791 -0.1637  0.5882
38951SOL    HW221984   2.198   6.830   0.192  0.3690 -0.0591 -1.0053
38952SOL     OW21985   0.787  10.783   2.254 -0.0047  0.2257  0.2822
38952SOL    HW121986   0.728  10.709   2.243  1.3939 -0.6610 -1.5369
38952SOL    HW221987   0.794  10.822   2.166  1.7647  0.5507  0.5426
38953SOL     OW21988   5.512   6.381  10.854  0.0030 -0.0460  0.2656
38953SOL    HW121989   5.511   6.289  10.879  1.2831 -0.4627 -1.1547
38953SOL    HW221990   5.580   6.420  10.909  0.1533 -0.1494  0.1505
38954SOL     OW21991   0.979   3.685   4.287 -0.6956  0.9041  0.6218
38954SOL    HW121992   0.914   3.755   4.284 -2.4051 -0.3141  4.6578
38954SOL    HW221993   0.962   3.641   4.371  2.1998 -2.5023 -0.4497
38955SOL     OW21994   6.307   9.646   1.800  0.0755  0.2496 -0.4768
38955SOL    HW121995   6.232   9.616   1.749 -1.0290  1.2995  0.5250
38955SOL    HW221996   6.365   9.686   1.736 -0.9166  0.8044 -1.0356
38956SOL     OW21997   6.183   0.303   3.368  0.0362 -0.1782 -0.1774
38956SOL    HW121998   6.259   0.266   3.413  0.0303  0.9125  0.7608
38956SOL    HW221999   6.113   0.240   3.382  0.1270 -0.0078  1.0589
38957SOL     OW22000   9.068  10.849   9.926  0.6153 -0.3258  0.4264
38957SOL    HW122001   9.122  10.791   9.873 -1.3923 -2.3583  0.5666
38957SOL    HW222002   9.068  10.810  10.013  2.2185  1.8888  1.4630
38958SOL     OW22003   1.958   1.161   0.186 -0.4159  0.2819 -0.2159
38958SOL    HW122004   2.027   1.227   0.187 -1.1473  1.0436  1.0033
38958SOL    HW222005   1.884   1.204   0.228 -1.1064 -1.1032 -0.0048
38959SOL     OW22006   0.636  10.175   6.736  0.1269  0.2299  0.1567
38959SOL    HW122007   0.673  10.252   6.780 -0.7150  0.7964 -0.1306
38959SOL    HW222008   0.712  10.119   6.719  0.4601 -0.0911  2.4964
38960SOL     OW22009   2.627   6.691   0.350 -0.2885 -0.0651 -0.1281
38960SOL    HW122010   2.582   6.616   0.388 -0.5525  0.6108  0.9192
38960SOL    HW222011   2.609   6.685   0.256  0.2381 -1.6637 -0.1382
38961SOL     OW22012   0.178   8.340   3.229  0.5943 -0.1889  0.0648
38961SOL    HW122013   0.109   8.307   3.172  0.1269  0.6818  0.1255
38961SOL    HW222014   0.187   8.432   3.205  1.9401 -0.3654 -0.1511
38962SOL     OW22015   7.351   9.673   3.197  0.2212  0.0466  0.4358
38962SOL    HW122016   7.345   9.625   3.279 -1.2720 -1.1561 -0.3578
38962SOL    HW222017   7.281   9.738   3.202  0.0900 -0.0680  0.0813
38963SOL     OW22018   3.997   0.123   2.514  0.8042  0.2260 -0.0008
38963SOL    HW122019   3.954   0.173   2.444 -0.2598  0.0070  0.4870
38963SOL    HW222020   3.930   0.062   2.544  1.4486 -0.0779  0.8251
38964SOL     OW22021   0.079  10.340  10.860  0.7962 -0.2554 -0.2788
38964SOL    HW122022   0.093  10.264  10.804  2.4023  0.5224 -0.9508
38964SOL    HW222023   0.160  10.390  10.854  0.6675  0.2976  2.0492
38965SOL     OW22024   2.594   8.724  10.063  0.1048 -0.0251  0.1370
38965SOL    HW122025   2.666   8.735  10.124 -0.9956 -2.4406  1.9477
38965SOL    HW222026   2.541   8.803  10.073  0.6802  0.2247  1.2338
38966SOL     OW22027   8.514   4.517   0.839  0.1016  0.1137 -0.3881
38966SOL    HW122028   8.456   4.551   0.771 -0.0618 -2.5762 -1.6548
38966SOL    HW222029   8.457   4.466   0.896  0.7186 -0.0641  0.0744
38967SOL     OW22030   7.705   6.391  10.987 -0.0777  0.4267 -0.0701
38967SOL    HW122031   7.771   6.351  10.931  0.1786 -0.6253  0.9729
38967SOL    HW222032   7.752   6.412  11.068 -0.8768  0.2024  0.4590
38968SOL     OW22033   6.460   2.859   3.735 -0.1744 -0.0113  0.4120
38968SOL    HW122034   6.507   2.783   3.700  0.8717  1.3852 -1.3030
38968SOL    HW222035   6.385   2.822   3.781  0.7349 -2.1216  0.2428
38969SOL     OW22036   1.890  10.574   2.045  0.0304  0.0519 -0.3677
38969SOL    HW122037   1.963  10.523   2.009  0.8271  1.3044 -0.5628
38969SOL    HW222038   1.816  10.555   1.988  0.8059  0.5696 -1.5693
38970SOL     OW22039  10.075   0.377   7.609  0.0284  0.0662 -0.1650
38970SOL    HW122040  10.127   0.299   7.589 -0.0103 -0.2843  1.0678
38970SOL    HW222041  10.110   0.408   7.693 -0.1657  1.1944 -0.4925
38971SOL     OW22042   5.718   9.740   7.496 -0.2427  0.3664 -0.4137
38971SOL    HW122043   5.676   9.738   7.582 -0.5388  1.7240 -0.5284
38971SOL    HW222044   5.811   9.754   7.515 -0.5428  2.3826 -0.3836
38972SOL     OW22045   0.842   4.221   7.697 -0.4078  0.1834  0.1634
38972SOL    HW122046   0.873   4.183   7.615 -1.2730  1.5979 -0.8424
38972SOL    HW222047   0.920   4.262   7.735 -0.6626  2.4534 -1.6358
38973SOL     OW22048   7.757   9.138   3.055  0.1135 -0.1187 -0.2308
38973SOL    HW122049   7.829   9.111   3.113 -1.9103 -1.6577  1.6595
38973SOL    HW222050   7.691   9.175   3.114 -0.8942  0.7669 -1.8719
38974SOL     OW22051   6.881   1.081   5.222 -0.2679 -0.2913  0.4755
38974SOL    HW122052   6.961   1.081   5.275 -1.4093 -1.9391  2.2712
38974SOL    HW222053   6.842   1.167   5.236  0.9546  0.3725 -0.0948
38975SOL     OW22054   5.449   6.467   3.020 -0.4111  0.7647 -0.4288
38975SOL    HW122055   5.527   6.520   3.003 -1.5788  2.4656 -0.6655
38975SOL    HW222056   5.376   6.522   2.990 -1.6429 -1.1158 -0.9624
38976SOL     OW22057   3.684  10.932   9.630  0.0886  0.1375 -0.0379
38976SOL    HW122058   3.754  10.912   9.568 -1.2744 -1.4564 -1.0790
38976SOL    HW222059   3.604  10.926   9.579 -0.9252  0.5441  1.4826
38977SOL     OW22060   1.032  11.275  10.111  0.4541 -0.4864  0.1172
38977SOL    HW122061   1.088  11.332  10.059 -0.0090 -0.1533 -0.0269
38977SOL    HW222062   1.070  11.278  10.199 -0.1307  0.8460  0.3431
38978SOL     OW22063   5.305   3.144   5.871  0.1140  0.2259  0.0743
38978SOL    HW122064   5.301   3.212   5.804  0.5514 -0.5822 -0.7863
38978SOL    HW222065   5.397   3.139   5.895  0.2052 -0.6250 -0.4508
38979SOL     OW22066   2.337  10.488   5.204 -0.7878  0.6820 -0.2581
38979SOL    HW122067   2.248  10.453   5.201 -0.6129  0.3272 -1.7737
38979SOL    HW222068   2.353  10.519   5.115  1.3286 -1.0518 -0.5113
38980SOL     OW22069   8.389   9.405  11.316 -0.0109 -0.1442  0.2764
38980SOL    HW122070   8.484   9.413  11.315  0.0168 -0.4596  0.2736
38980SOL    HW222071   8.357   9.495  11.304  0.2849 -0.1448 -0.5908
38981SOL     OW22072   3.930  10.714   1.464 -1.0560 -0.4436 -0.1018
38981SOL    HW122073   4.015  10.757   1.470 -0.9473 -0.8326  1.3413
38981SOL    HW222074   3.950  10.621   1.456 -1.3368 -0.4557 -0.7108
38982SOL     OW22075   0.408   2.571   0.865  0.2547 -0.5112 -0.7444
38982SOL    HW122076   0.337   2.536   0.811 -0.4551 -1.7017  0.9337
38982SOL    HW222077   0.441   2.646   0.815 -2.4928  0.3610 -1.3373
38983SOL     OW22078   5.775   5.438   7.885  0.0978 -0.2551 -0.6709
38983SOL    HW122079   5.697   5.476   7.844  1.1385  0.5872 -1.9066
38983SOL    HW222080   5.788   5.491   7.964  0.3012  0.6239 -1.2745
38984SOL     OW22081   3.979  10.315  11.033  0.1991 -0.2852 -0.1229
38984SOL    HW122082   4.024  10.359  10.961 -1.6790 -0.5334 -1.5038
38984SOL    HW222083   3.940  10.386  11.085  1.0920 -0.1278  0.3323
38985SOL     OW22084   9.258   0.715   8.470 -0.4228  0.1937 -0.0709
38985SOL    HW122085   9.284   0.635   8.424  0.4925 -0.5520  1.6935
38985SOL    HW222086   9.210   0.765   8.405  1.5233 -0.4662 -2.0730
38986SOL     OW22087   5.960   9.043   5.910 -0.7993  0.0063  0.3586
38986SOL    HW122088   6.029   9.074   5.969  0.9101  0.2299 -1.6969
38986SOL    HW222089   5.964   9.102   5.835 -0.4282 -2.5016 -1.6626
38987SOL     OW22090   0.553  10.920   3.062 -0.5478  0.3294  0.2744
38987SOL    HW122091   0.576  10.843   3.114 -1.9279  0.4383  1.0832
38987SOL    HW222092   0.623  10.983   3.082  0.7941 -0.8169 -0.6884
38988SOL     OW22093   1.755   5.682   1.018  0.0340 -0.1515  0.2261
38988SOL    HW122094   1.791   5.699   0.931 -2.1919  0.3807 -0.6177
38988SOL    HW222095   1.777   5.591   1.035 -1.6568 -1.0042 -1.9616
38989SOL     OW22096   1.332   1.824   8.491 -0.2178 -0.0121 -0.8126
38989SOL    HW122097   1.265   1.760   8.514  0.1334  0.0035  0.2867
38989SOL    HW222098   1.289   1.909   8.504 -0.6178 -0.0238 -2.0661
38990SOL     OW22099   7.777   7.121   4.100 -0.2473  0.0418  0.1436
38990SOL    HW122100   7.870   7.132   4.079 -0.2795  0.1830  0.0778
38990SOL    HW222101   7.775   7.048   4.162 -0.0607  0.2664  0.4157
38991SOL     OW22102  10.133  11.275   4.099 -0.0166  0.3666  0.2168
38991SOL    HW122103  10.148  11.316   4.013  1.7581  2.1116  1.3296
38991SOL    HW222104  10.214  11.229   4.118 -0.7291 -0.7490  0.5793
38992SOL     OW22105   5.783   2.497   1.242 -0.0962 -0.1724  0.4973
38992SOL    HW122106   5.740   2.443   1.308 -0.1874 -1.7796 -0.8292
38992SOL    HW222107   5.719   2.503   1.171  0.6725  0.0321 -0.1883
38993SOL     OW22108   8.649   2.235   1.531 -0.0372  0.3013 -0.1669
38993SOL    HW122109   8.637   2.177   1.607  1.8713  0.5959  0.3770
38993SOL    HW222110   8.664   2.175   1.458  0.7289  0.0643  0.1749
38994SOL     OW22111   8.387   9.315   5.557  0.5749  0.0983 -0.1320
38994SOL    HW122112   8.352   9.379   5.619  1.1079 -0.9380  1.2716
38994SOL    HW222113   8.476   9.298   5.588  0.5338 -1.1039 -0.6553
38995SOL     OW22114   2.793   8.502   5.587  0.3001  0.8365 -0.1366
38995SOL    HW122115   2.709   8.540   5.614 -0.1391 -0.2602  0.0441
38995SOL    HW222116   2.770   8.421   5.542  1.2334  0.8515 -0.6429
38996SOL     OW22117  10.300   8.541   6.708  0.6884  0.2299 -0.2328
38996SOL    HW122118  10.225   8.576   6.660  1.6300  2.3914 -0.1741
38996SOL    HW222119  10.318   8.606   6.776  2.1362 -0.6392  0.2432
38997SOL     OW22120  11.249   1.981   7.303  0.6480  0.1305  0.5886
38997SOL    HW122121  11.280   2.042   7.236 -0.2015  1.2172  1.1776
38997SOL    HW222122  11.185   2.031   7.354 -2.3002 -2.1005 -0.7342
38998SOL     OW22123   4.266   8.595   0.825  0.2018 -0.6316 -0.3056
38998SOL    HW122124   4.239   8.505   0.843 -0.1318  0.2168  4.0253
38998SOL    HW222125   4.361   8.594   0.839  0.3048 -0.4703 -1.0004
38999SOL     OW22126   3.207   8.652   9.286  0.3297  0.1904 -0.3674
38999SOL    HW122127   3.178   8.666   9.196  0.1100 -0.6636 -0.4288
38999SOL    HW222128   3.276   8.585   9.280 -0.3972 -0.6219  0.2072
39000SOL     OW22129   4.678   1.584  10.844  0.1877  0.4414  0.0222
39000SOL    HW122130   4.620   1.624  10.908  1.3279  0.7315  0.8956
39000SOL    HW222131   4.749   1.648  10.832  1.1307 -0.5518  0.1502
39001SOL     OW22132   9.820   3.515   6.491  0.1327  0.2319  0.2725
39001SOL    HW122133   9.731   3.495   6.461 -0.2007  1.8183  0.1820
39001SOL    HW222134   9.809   3.547   6.581  0.7274 -0.5931  0.6439
39002SOL     OW22135   1.310   0.910   7.802 -0.6412 -0.4132 -0.2387
39002SOL    HW122136   1.374   0.877   7.738  0.1593 -0.3968  0.5551
39002SOL    HW222137   1.327   1.004   7.807 -0.5762 -0.4475  0.1553
39003SOL     OW22138  10.585   6.609   2.332  0.2058  0.0989 -0.3196
39003SOL    HW122139  10.644   6.614   2.256 -0.1724  0.8624 -0.5622
39003SOL    HW222140  10.602   6.689   2.381  0.3676 -0.3429  0.3555
39004SOL     OW22141  10.088   7.132   4.931 -0.2906 -0.1646  0.2958
39004SOL    HW122142  10.013   7.074   4.941 -0.7573  0.4285  0.2800
39004SOL    HW222143  10.049   7.219   4.921  0.4006  0.1454  0.3086
39005SOL     OW22144   5.759   2.501   8.866  0.3706 -0.0460  0.5403
39005SOL    HW122145   5.684   2.527   8.919  1.0764  2.8776  0.1979
39005SOL    HW222146   5.760   2.563   8.793  1.1958 -2.1145 -1.2564
39006SOL     OW22147   4.796   5.823   0.722 -0.5862 -0.2916  0.1102
39006SOL    HW122148   4.878   5.862   0.695  0.5654 -1.5962  1.6007
39006SOL    HW222149   4.778   5.860   0.808 -0.7400 -1.1772  0.4702
39007SOL     OW22150   9.573   0.507   5.445  0.3467 -0.0599 -0.4783
39007SOL    HW122151   9.592   0.473   5.533 -2.3300 -0.2739  0.0741
39007SOL    HW222152   9.499   0.566   5.458 -0.8093 -0.9550 -2.7402
39008SOL     OW22153   6.653   6.901   7.876  0.4671  0.1257  0.1780
39008SOL    HW122154   6.731   6.910   7.931  1.4086 -2.2869 -0.6710
39008SOL    HW222155   6.581   6.888   7.937  1.2144 -0.6201  0.9173
39009SOL     OW22156   3.126  10.681   0.202  0.3910  0.4657  0.1233
39009SOL    HW122157   3.154  10.770   0.183 -0.6601  0.5540 -1.0230
39009SOL    HW222158   3.069  10.689   0.278  2.0834  0.4812  1.4340
39010SOL     OW22159   2.246   1.283   4.558  0.2621  0.1536 -0.7639
39010SOL    HW122160   2.216   1.340   4.630  1.7498  0.9907 -0.7952
39010SOL    HW222161   2.179   1.215   4.553  0.7214 -0.5829  2.2043
39011SOL     OW22162  10.958   0.030   2.038 -0.3520  0.3855 -0.1982
39011SOL    HW122163  10.933  -0.011   1.955 -0.7073  0.6715 -0.2319
39011SOL    HW222164  11.052   0.015   2.044 -0.3714  0.1195 -0.5200
39012SOL     OW22165   9.532   3.697   9.685  0.3673 -0.2372  0.2792
39012SOL    HW122166   9.483   3.660   9.612  0.8462 -1.4004  0.5286
39012SOL    HW222167   9.556   3.785   9.656  0.5872 -0.6976 -0.9813
39013SOL     OW22168   1.840   0.345   2.902 -0.0345  0.3605  0.4916
39013SOL    HW122169   1.790   0.311   2.828  0.6439  2.4504 -0.9843
39013SOL    HW222170   1.782   0.410   2.942  0.3735  0.6799  0.5644
39014SOL     OW22171   4.598   1.968  10.637 -0.0404 -0.6250  0.4274
39014SOL    HW122172   4.611   2.056  10.673  0.1351 -0.8669  0.9670
39014SOL    HW222173   4.513   1.971  10.595 -0.8068 -0.6845  1.9355
39015SOL     OW22174   6.502   6.254   1.547 -0.5236  0.9932 -0.3242
39015SOL    HW122175   6.509   6.271   1.641  0.4284 -1.0152 -0.0091
39015SOL    HW222176   6.444   6.178   1.541  0.0288  0.6434 -1.3005
39016SOL     OW22177   3.248   4.298  10.436  0.2202 -0.1971 -0.5476
39016SOL    HW122178   3.179   4.259  10.382 -0.3529 -0.2990  0.2499
39016SOL    HW222179   3.273   4.377  10.388  0.6221 -0.9529 -1.6115
39017SOL     OW22180   4.432   4.695  10.960  0.5409  0.3340 -0.5191
39017SOL    HW122181   4.407   4.769  10.905 -1.2350  0.7638  0.8193
39017SOL    HW222182   4.436   4.620  10.900  0.6959  1.1761 -1.5804
39018SOL     OW22183  10.025   4.007   0.166 -0.1310 -0.2639  0.3262
39018SOL    HW122184  10.073   3.930   0.136  0.5879  0.4619 -0.4335
39018SOL    HW222185  10.083   4.048   0.230 -0.9138 -0.8586  1.4294
39019SOL     OW22186   4.636  10.810   1.467  0.4431  0.0384  0.0178
39019SOL    HW122187   4.688  10.803   1.546  2.7169  1.3282 -1.2960
39019SOL    HW222188   4.668  10.890   1.424 -1.5763  0.0443 -1.5940
39020SOL     OW22189   6.116   9.624  11.167 -0.5088  0.1392  0.0835
39020SOL    HW122190   6.095   9.621  11.261 -0.3119 -0.2516  0.1139
39020SOL    HW222191   6.122   9.532  11.141  0.0434  0.2500 -0.1801
39021SOL     OW22192   6.738   9.227   2.604 -0.3396 -0.3116  0.6700
39021SOL    HW122193   6.684   9.175   2.664 -0.7412 -1.2267 -0.4439
39021SOL    HW222194   6.680   9.242   2.528  1.2262 -2.0428 -0.9188
39022SOL     OW22195   6.889   9.286   5.030  0.1646 -0.0617 -0.7364
39022SOL    HW122196   6.804   9.244   5.041  0.4064 -0.1561  0.8445
39022SOL    HW222197   6.948   9.235   5.085  0.6757  1.6933  0.3948
39023SOL     OW22198   7.956   8.181   8.963 -0.4225  0.4294 -0.0580
39023SOL    HW122199   7.940   8.186   9.058  0.2681 -3.4237  0.3017
39023SOL    HW222200   7.871   8.158   8.926 -0.4099  0.7253 -0.2742
39024SOL     OW22201   6.472   0.606   1.286  0.0282  0.2809 -0.0672
39024SOL    HW122202   6.504   0.543   1.350  0.9936  1.1828  0.3497
39024SOL    HW222203   6.378   0.615   1.306 -0.0077 -0.6364  0.1880
39025SOL     OW22204   5.894   4.342   8.427 -0.2292 -0.1634 -0.0613
39025SOL    HW122205   5.833   4.290   8.480  0.2278  0.3578  0.9834
39025SOL    HW222206   5.907   4.422   8.477 -1.9146  1.5281 -2.2745
39026SOL     OW22207  10.844   9.085   5.681 -0.4022  0.0060  0.0374
39026SOL    HW122208  10.935   9.115   5.676 -0.0362 -1.0421  0.2039
39026SOL    HW222209  10.849   8.993   5.656 -1.4031 -0.0841  0.1859
39027SOL     OW22210   4.975   7.815   3.394  0.5660 -0.0629 -0.1346
39027SOL    HW122211   4.968   7.897   3.344 -0.6897  0.0538  0.2318
39027SOL    HW222212   4.951   7.839   3.483  0.5486 -0.7643  0.0500
39028SOL     OW22213   8.650   2.366   4.896 -0.0740 -0.2842  0.2391
39028SOL    HW122214   8.669   2.277   4.924 -0.7692 -0.2416  0.8557
39028SOL    HW222215   8.635   2.415   4.977 -0.8609  0.1197 -0.1345
39029SOL     OW22216   9.671   2.957   0.459 -0.0055  0.1791  0.1774
39029SOL    HW122217   9.656   2.876   0.507 -0.3334 -1.0343 -1.9006
39029SOL    HW222218   9.700   2.928   0.372 -1.1217  2.2625 -0.9300
39030SOL     OW22219   4.006   5.110   8.051  0.3239 -0.3850 -0.9027
39030SOL    HW122220   4.021   5.170   7.978  0.5137  0.5952 -0.0717
39030SOL    HW222221   3.925   5.064   8.027 -1.4265  2.2097 -0.2866
39031SOL     OW22222  10.702   0.104   7.150  0.1083  0.0892 -0.3478
39031SOL    HW122223  10.673   0.021   7.113  1.7379 -0.9563  0.7065
39031SOL    HW222224  10.711   0.087   7.244  0.1114  1.5585 -0.0642
39032SOL     OW22225  10.821   1.591   7.747 -0.6538 -0.0780  0.4585
39032SOL    HW122226  10.908   1.553   7.733  0.0263  1.4263  0.4628
39032SOL    HW222227  10.814   1.602   7.842  0.0533  1.8030  0.3173
39033SOL     OW22228   2.017   2.175   0.768  0.8901  0.6633 -0.3356
39033SOL    HW122229   1.999   2.126   0.687 -0.9147  1.5752 -0.5166
39033SOL    HW222230   1.957   2.138   0.832  0.8659  1.3338  0.0324
39034SOL     OW22231   1.279   4.545   9.407 -0.4392 -0.7950 -0.0474
39034SOL    HW122232   1.206   4.574   9.461 -0.2764 -3.1524  1.5082
39034SOL    HW222233   1.356   4.582   9.450 -0.5522  0.3968 -0.8155
39035SOL     OW22234   3.261  10.953   8.989 -0.1413  0.3122 -0.0986
39035SOL    HW122235   3.211  11.009   8.931 -0.7834 -0.8457 -0.6744
39035SOL    HW222236   3.209  10.947   9.069  0.1656  0.9305  0.1492
39036SOL     OW22237   9.632   4.035   5.938 -0.1006  0.1554 -0.8752
39036SOL    HW122238   9.540   4.057   5.927  0.3633  2.9302  0.4031
39036SOL    HW222239   9.675   4.074   5.861  0.0785 -0.6280 -1.1718
39037SOL     OW22240  11.066   0.858  10.753 -0.2912  0.2679  0.7435
39037SOL    HW122241  11.059   0.853  10.848 -1.1779  0.6237  0.7013
39037SOL    HW222242  11.047   0.949  10.733 -0.9326  0.0063  0.1578
39038SOL     OW22243   8.928   7.694   5.840  0.0958  0.2081 -0.3827
39038SOL    HW122244   8.964   7.615   5.799  0.1813 -0.5241  1.0836
39038SOL    HW222245   8.975   7.702   5.923 -0.9248  0.9874  0.1322
39039SOL     OW22246  10.487  10.227   5.976  0.1424 -0.3281  0.0951
39039SOL    HW122247  10.539  10.234   6.056 -0.3877  0.6731  0.3630
39039SOL    HW222248  10.552  10.230   5.906  0.4868  0.4506  0.4415
39040SOL     OW22249   6.633   3.883   0.251 -0.3962 -0.0694  0.1124
39040SOL    HW122250   6.552   3.884   0.199 -0.8811  1.6213  0.8635
39040SOL    HW222251   6.635   3.796   0.291 -2.0626 -0.0016  0.3825
39041SOL     OW22252   8.292   0.631   7.936 -0.3476  0.1986 -0.6962
39041SOL    HW122253   8.252   0.570   7.998 -0.9668  1.2241 -0.0651
39041SOL    HW222254   8.375   0.656   7.978 -0.8264  0.9919 -0.2021
39042SOL     OW22255   0.051   3.585   9.249  0.3830 -0.7078 -0.1437
39042SOL    HW122256  -0.006   3.596   9.173 -0.1204 -0.2142  0.2932
39042SOL    HW222257   0.116   3.655   9.240 -1.9387  1.8492  1.8539
39043SOL     OW22258  10.198   1.278   0.151  0.7696 -0.0006 -0.9256
39043SOL    HW122259  10.197   1.221   0.228 -1.7752  1.2152  0.0194
39043SOL    HW222260  10.290   1.288   0.130  1.3796 -2.5345  0.3238
39044SOL     OW22261   1.730   9.149   6.065  0.2729  0.1378 -0.0334
39044SOL    HW122262   1.722   9.224   6.006  1.7570  0.6798  0.4205
39044SOL    HW222263   1.795   9.177   6.130  0.3643 -1.3097  0.5096
39045SOL     OW22264   0.088   3.620   7.635  0.7676  0.3372 -0.5115
39045SOL    HW122265   0.155   3.562   7.598 -0.6991 -1.6035 -0.2480
39045SOL    HW222266   0.043   3.565   7.699 -2.2962  1.0029 -2.0132
39046SOL     OW22267   1.689   0.792   8.297  0.7455 -0.0918  0.0074
39046SOL    HW122268   1.730   0.729   8.238 -0.4865  0.0432 -1.0222
39046SOL    HW222269   1.674   0.869   8.242 -0.5684 -0.0266  0.4407
39047SOL     OW22270   8.397   6.841   7.235 -0.7181  0.8422 -0.4184
39047SOL    HW122271   8.442   6.906   7.289  0.5768 -0.3203 -0.0618
39047SOL    HW222272   8.457   6.822   7.163 -0.6253 -0.6944  0.0322
39048SOL     OW22273   6.698   6.088   2.210  0.3859 -0.4788 -0.0676
39048SOL    HW122274   6.610   6.054   2.197  0.3382 -0.9776  1.4880
39048SOL    HW222275   6.754   6.030   2.158 -0.1235 -0.5821 -0.5009
39049SOL     OW22276   5.823   5.359  10.823  0.3061 -0.2951  0.1494
39049SOL    HW122277   5.759   5.308  10.873 -0.8472  1.3272  0.3887
39049SOL    HW222278   5.829   5.315  10.738 -0.5032 -0.9429  0.4271
39050SOL     OW22279   2.529   3.197   7.674 -0.5227  0.2977 -0.4099
39050SOL    HW122280   2.621   3.177   7.693 -1.0187 -0.6762  1.0111
39050SOL    HW222281   2.533   3.254   7.597  1.3409  1.3795  0.4389
39051SOL     OW22282   2.240   6.979   0.730  0.0989 -0.1612 -0.7540
39051SOL    HW122283   2.314   7.018   0.776 -0.3870 -1.1370  0.8646
39051SOL    HW222284   2.243   7.019   0.643  2.0038  0.4599 -0.4321
39052SOL     OW22285   7.150   0.455   2.668  0.5823 -0.0215  0.0666
39052SOL    HW122286   7.152   0.441   2.763  1.4710  0.9453  0.2042
39052SOL    HW222287   7.086   0.525   2.656  1.0191  0.3716  0.0269
39053SOL     OW22288   4.516  10.455   3.357  0.2347 -0.3613  0.4097
39053SOL    HW122289   4.467  10.519   3.306 -1.4275 -2.8978 -1.2779
39053SOL    HW222290   4.601  10.451   3.315 -0.4209 -0.8995 -0.9001
39054SOL     OW22291  10.799   5.809   2.897  0.3386 -0.2755  0.1791
39054SOL    HW122292  10.782   5.887   2.844  0.2871 -0.0345  0.5517
39054SOL    HW222293  10.860   5.757   2.844  2.7955  1.4454  1.2180
39055SOL     OW22294  11.243   2.334   7.690  0.2565  0.1055  0.5541
39055SOL    HW122295  11.157   2.359   7.655 -0.6826 -2.2770  1.0998
39055SOL    HW222296  11.280   2.275   7.625  0.9327  0.0951  0.9470
39056SOL     OW22297   3.318   3.068   3.549 -0.2919 -0.2013  0.6399
39056SOL    HW122298   3.364   3.143   3.587 -1.7932  0.7389  0.6451
39056SOL    HW222299   3.237   3.105   3.515 -1.0395 -1.8403  0.6308
39057SOL     OW22300   6.560   9.726  11.280 -0.5768 -0.2647 -0.2236
39057SOL    HW122301   6.622   9.727  11.207 -1.1708 -0.6007 -0.7397
39057SOL    HW222302   6.586   9.799  11.335 -0.5261  0.4033 -1.1185
39058SOL     OW22303   5.568   8.506   4.206  0.4652  0.1797  0.0626
39058SOL    HW122304   5.522   8.450   4.268  1.5527  0.0627  0.7791
39058SOL    HW222305   5.555   8.595   4.238  0.7553  0.1439  0.2837
39059SOL     OW22306   4.276   6.526   5.595 -0.5165 -0.4990  0.0980
39059SOL    HW122307   4.329   6.526   5.515 -0.5364  1.1014  0.0684
39059SOL    HW222308   4.322   6.586   5.654 -1.5768 -0.1365  0.5641
39060SOL     OW22309   7.344   3.081   3.403 -0.1182  0.4530 -0.7672
39060SOL    HW122310   7.402   3.147   3.363 -0.3834  0.4922 -1.0925
39060SOL    HW222311   7.257   3.119   3.395  0.0592  1.5195  1.9693
39061SOL     OW22312   9.515   5.650   3.321 -0.1022 -0.1923 -0.0380
39061SOL    HW122313   9.587   5.667   3.382 -0.1049 -1.2651  0.2651
39061SOL    HW222314   9.468   5.576   3.359 -0.8087 -0.1128 -0.7355
39062SOL     OW22315   9.815  10.232   3.969  0.1278 -0.1509  0.1228
39062SOL    HW122316   9.871  10.274   3.904 -1.0813  2.1722  0.5419
39062SOL    HW222317   9.739  10.203   3.920 -0.8007  1.6334  0.4774
39063SOL     OW22318   8.862   3.076   3.814  0.1772  0.2174 -0.5419
39063SOL    HW122319   8.882   2.992   3.773 -0.0209 -0.6062  0.9760
39063SOL    HW222320   8.790   3.112   3.763  0.7964 -0.1667 -1.6849
39064SOL     OW22321   2.746   6.980   5.650  0.0111  0.4490 -0.3594
39064SOL    HW122322   2.653   6.972   5.673  0.5201  0.0913  1.7173
39064SOL    HW222323   2.752   6.940   5.563 -1.7400  0.2594 -0.4265
39065SOL     OW22324   9.383   9.389   1.892  0.6099  0.5635  1.0961
39065SOL    HW122325   9.424   9.434   1.817  0.3345  1.1508  1.3020
39065SOL    HW222326   9.452   9.386   1.958  1.9477 -2.8055 -0.2944
39066SOL     OW22327   7.735   4.686   2.545  0.0789  0.2360  0.3140
39066SOL    HW122328   7.640   4.696   2.537  0.0956  1.1138  1.0053
39066SOL    HW222329   7.747   4.634   2.625  0.1673 -0.2265 -0.0007
39067SOL     OW22330   3.266   5.955   3.372  0.3294  0.2845  0.7699
39067SOL    HW122331   3.295   6.037   3.332  1.9438  0.2504  1.8354
39067SOL    HW222332   3.240   5.980   3.461  0.2859 -0.2650  0.9119
39068SOL     OW22333   4.413   9.689   7.110 -0.0660  0.3322  0.5242
39068SOL    HW122334   4.472   9.763   7.098 -0.4807  0.7382  0.8939
39068SOL    HW222335   4.424   9.665   7.202  1.6116 -1.4293 -0.1309
39069SOL     OW22336   9.847  10.636  10.692  0.2756 -0.0169  0.2865
39069SOL    HW122337   9.873  10.618  10.602  0.5597 -1.0967  0.5810
39069SOL    HW222338   9.858  10.553  10.738  0.3191  0.5671  1.3632
39070SOL     OW22339   3.968   2.766   2.719  0.6730  0.6200 -0.0285
39070SOL    HW122340   4.049   2.800   2.755  0.0370  1.6835  0.4145
39070SOL    HW222341   3.899   2.812   2.766 -0.1804  0.6258 -1.2434
39071SOL     OW22342   5.279   3.928   9.439  0.5223  0.1933 -0.1957
39071SOL    HW122343   5.337   3.882   9.377 -0.2900 -1.3096  0.1291
39071SOL    HW222344   5.306   3.895   9.525  0.1123  0.5408  0.0660
39072SOL     OW22345   5.608   3.667   8.572  0.3713  0.0983  0.6848
39072SOL    HW122346   5.667   3.610   8.621  0.3077 -1.8896 -1.4774
39072SOL    HW222347   5.622   3.644   8.480 -0.9141  2.3725 -0.1421
39073SOL     OW22348   9.891   1.872   6.837  0.2696  1.1080  0.0096
39073SOL    HW122349   9.925   1.867   6.927 -0.9887 -0.9717  0.3956
39073SOL    HW222350   9.915   1.960   6.808  0.2355  2.0268  2.5739
39074SOL     OW22351   0.116   9.052   0.553  0.7410 -0.0052 -0.3691
39074SOL    HW122352   0.116   8.957   0.541  3.6794 -0.2285  1.1609
39074SOL    HW222353   0.123   9.087   0.464  1.7794 -1.2709 -0.8022
39075SOL     OW22354   0.097   5.550   3.431 -0.2576 -0.2611  0.5630
39075SOL    HW122355   0.069   5.602   3.356  0.1301  0.2560  0.7720
39075SOL    HW222356   0.016   5.519   3.471 -0.5655  1.6338  1.4565
39076SOL     OW22357   3.156   4.384   4.070 -0.5650  0.1935 -0.0443
39076SOL    HW122358   3.245   4.401   4.099 -1.6215  3.3376  1.6283
39076SOL    HW222359   3.147   4.289   4.075  2.4916 -0.1301  0.3029
39077SOL     OW22360   9.692   3.618   7.425 -0.2001 -0.0905  0.4927
39077SOL    HW122361   9.745   3.606   7.346  0.6635  1.9063  0.7254
39077SOL    HW222362   9.716   3.544   7.481  0.5911 -0.4952 -0.3587
39078SOL     OW22363   2.869   0.056  10.879 -0.0695 -0.3153 -0.1441
39078SOL    HW122364   2.903   0.048  10.968 -1.0510 -0.1044  0.2484
39078SOL    HW222365   2.911  -0.015  10.831  0.2132 -0.6268  0.5606
39079SOL     OW22366   4.339   5.217   4.126  0.1805  0.2750 -0.2518
39079SOL    HW122367   4.326   5.189   4.216  0.9112 -0.9250 -0.5042
39079SOL    HW222368   4.251   5.236   4.093 -0.3398 -1.6043 -0.0161
39080SOL     OW22369   0.112   3.836   9.225 -0.6071 -0.2311 -0.3826
39080SOL    HW122370   0.045   3.871   9.167 -0.8729  0.0446  0.0883
39080SOL    HW222371   0.159   3.914   9.257  2.0114 -0.5485 -3.1647
39081SOL     OW22372   8.875   6.205   4.228  0.2372 -0.2764 -0.0722
39081SOL    HW122373   8.951   6.260   4.208  0.6108  0.0555  2.1218
39081SOL    HW222374   8.907   6.144   4.294 -1.2589 -0.4944  0.4665
39082SOL     OW22375   8.908   0.978   2.155  0.2855 -0.0415 -0.2940
39082SOL    HW122376   8.929   1.062   2.196 -0.1052  0.2587 -0.7023
39082SOL    HW222377   8.992   0.946   2.121  0.2828  0.6190 -0.9384
39083SOL     OW22378   0.945   1.504   7.867  0.8895  0.2027 -0.1362
39083SOL    HW122379   0.981   1.514   7.779  0.2701 -1.1225 -0.5579
39083SOL    HW222380   1.022   1.490   7.923  1.2664  0.7993 -0.4997
39084SOL     OW22381   9.842   2.320   4.285  0.2641  0.0800  0.9795
39084SOL    HW122382   9.869   2.289   4.198 -0.8774 -0.4613  0.8001
39084SOL    HW222383   9.918   2.366   4.319  1.6521 -2.0795  0.8312
39085SOL     OW22384   6.364   2.720   0.366  0.1477  0.4966 -0.1059
39085SOL    HW122385   6.319   2.686   0.444  0.2373 -0.0421 -0.2876
39085SOL    HW222386   6.317   2.681   0.293  1.6088 -0.9624 -0.2878
39086SOL     OW22387   0.012   0.193   4.788  0.0374 -0.5717 -0.0273
39086SOL    HW122388  -0.037   0.145   4.855 -1.2616  0.4445 -0.2483
39086SOL    HW222389   0.063   0.258   4.838 -1.1095  0.3416 -0.0334
39087SOL     OW22390  11.146  10.816   3.349  0.3376 -1.5067 -0.0434
39087SOL    HW122391  11.140  10.876   3.275  1.5488 -1.3996 -0.0614
39087SOL    HW222392  11.173  10.871   3.423  0.1526 -1.7915  0.2374
39088SOL     OW22393   6.437   4.230   9.073  0.2494 -0.2910  0.1442
39088SOL    HW122394   6.466   4.191   9.155 -0.1599  1.5811  1.2094
39088SOL    HW222395   6.350   4.265   9.093  0.0082 -0.1134 -1.1761
39089SOL     OW22396   8.968   4.243   0.835 -0.0498  0.4602 -0.0199
39089SOL    HW122397   8.986   4.284   0.751  2.6206  1.7626  1.1245
39089SOL    HW222398   8.999   4.306   0.900 -1.6291 -0.7162  1.9589
39090SOL     OW22399  10.468   7.688   6.397 -0.5952  0.7666  0.0480
39090SOL    HW122400  10.436   7.671   6.308  0.9206  1.3577 -0.6155
39090SOL    HW222401  10.485   7.601   6.434 -2.4729  0.4545  0.2514
39091SOL     OW22402   0.128   6.050   6.770  0.0440 -0.6557 -0.3857
39091SOL    HW122403   0.213   6.025   6.735  0.2530 -1.1521  0.4668
39091SOL    HW222404   0.101   5.976   6.824  0.2389  0.5487  1.3964
39092SOL     OW22405   3.666  10.607   4.029  0.1333  0.4951 -0.1937
39092SOL    HW122406   3.751  10.568   4.009 -0.2522 -0.8732  0.7434
39092SOL    HW222407   3.605  10.533   4.032 -0.5430  1.0797  1.9752
39093SOL     OW22408   6.614   5.089   0.010  0.3775  0.3932 -0.3733
39093SOL    HW122409   6.596   5.145   0.085  1.8796  1.3855 -0.7386
39093SOL    HW222410   6.528   5.072  -0.029 -0.6873 -1.9513  2.8204
39094SOL     OW22411   4.809   9.644   0.065 -0.8993 -0.3497  0.0101
39094SOL    HW122412   4.735   9.595   0.029 -1.0112 -0.0419 -0.1833
39094SOL    HW222413   4.774   9.683   0.146 -1.3989  1.0155 -0.8426
39095SOL     OW22414   3.771   2.635  10.225  0.3284 -0.4291  0.7493
39095SOL    HW122415   3.776   2.704  10.159  0.0377 -2.5641 -1.5631
39095SOL    HW222416   3.861   2.604  10.234  0.1685 -0.9990  0.4129
39096SOL     OW22417   4.376   4.564   7.529  0.0005 -0.6709  0.2163
39096SOL    HW122418   4.432   4.565   7.607 -0.5382 -0.0695  0.5964
39096SOL    HW222419   4.287   4.562   7.564 -0.2468 -0.2444 -0.3885
39097SOL     OW22420  10.220  10.025   6.585  0.0993  0.1896 -0.2001
39097SOL    HW122421  10.277   9.952   6.610  0.8447  0.4279 -1.2023
39097SOL    HW222422  10.132   9.992   6.601  0.5315  0.3235  2.7754
39098SOL     OW22423   4.141   0.557   9.330 -0.1539  0.0960  0.1129
39098SOL    HW122424   4.198   0.506   9.388  0.2470  0.4671  0.0499
39098SOL    HW222425   4.162   0.528   9.242  1.5847  1.8461 -0.0806
39099SOL     OW22426   3.541   3.185   6.294  0.0299 -0.6249  0.1870
39099SOL    HW122427   3.504   3.121   6.233 -2.3412  0.4598  0.4468
39099SOL    HW222428   3.493   3.266   6.276  0.0687  0.0070  2.7339
39100SOL     OW22429   0.312   1.649   7.001  0.4770  0.0509  0.0359
39100SOL    HW122430   0.314   1.665   6.906  0.7199  0.6837  0.1397
39100SOL    HW222431   0.230   1.604   7.016  1.1229 -1.3833 -0.6786
39101SOL     OW22432   3.902   8.092   0.819  0.5194 -0.2598 -0.1369
39101SOL    HW122433   3.943   8.158   0.763 -0.1770  1.4464  1.3098
39101SOL    HW222434   3.959   8.088   0.896 -0.1973 -0.3385  0.3907
39102SOL     OW22435   9.047  10.638   6.177  0.4802  0.0180  0.1643
39102SOL    HW122436   8.977  10.582   6.143 -0.4359  1.3604 -0.2371
39102SOL    HW222437   9.078  10.687   6.101  0.9755  0.3567  0.5824
39103SOL     OW22438   1.281   5.079   2.785 -0.3880  0.0355  0.5384
39103SOL    HW122439   1.288   5.128   2.867  1.5425  1.4103 -0.4061
39103SOL    HW222440   1.203   5.114   2.742  0.0529  1.1320  0.6277
39104SOL     OW22441   5.129   3.169   3.025  0.0797  0.2528  0.3636
39104SOL    HW122442   5.059   3.220   2.983  0.4185  0.7629  0.4212
39104SOL    HW222443   5.167   3.118   2.954  0.9907  1.4972 -0.0645
39105SOL     OW22444   3.044   2.177   7.004 -0.3833 -0.4563  0.2803
39105SOL    HW122445   3.115   2.123   6.971 -0.0141  0.1324  0.1125
39105SOL    HW222446   3.008   2.221   6.926 -1.9043 -1.8907  0.1392
39106SOL     OW22447   2.080   8.389   8.850 -0.0799 -0.5467  0.0938
39106SOL    HW122448   2.051   8.395   8.941  0.1262 -2.8707  0.3573
39106SOL    HW222449   2.167   8.348   8.856 -0.0686 -0.7163 -1.1341
39107SOL     OW22450   7.849   0.972   3.637 -0.5539 -0.0538  0.7006
39107SOL    HW122451   7.864   1.064   3.612  1.3197 -0.7531 -0.8904
39107SOL    HW222452   7.758   0.970   3.666 -1.3179  1.8662 -1.3850
39108SOL     OW22453   7.993   3.773   8.542  0.2551 -0.1734  0.3616
39108SOL    HW122454   8.004   3.868   8.537  1.5580 -0.2471  1.3275
39108SOL    HW222455   7.971   3.757   8.634 -0.0906 -0.7938  0.1732
39109SOL     OW22456   0.489   5.255   9.087  0.2828 -0.2227 -0.2107
39109SOL    HW122457   0.515   5.210   9.167 -1.3561 -0.3440  0.2612
39109SOL    HW222458   0.404   5.219   9.065 -0.4428  1.6559 -0.5937
39110SOL     OW22459   4.136   8.580   4.199  0.0261  0.3396 -0.1317
39110SOL    HW122460   4.148   8.660   4.251  1.5291  0.1244 -0.1232
39110SOL    HW222461   4.146   8.609   4.108 -0.7859  0.3946 -0.2059
39111SOL     OW22462   5.922   7.213   1.097  0.4588  0.2413 -0.3608
39111SOL    HW122463   5.900   7.221   1.189  1.2001  0.1875 -0.1756
39111SOL    HW222464   5.941   7.303   1.069 -0.3468  0.3353 -0.6086
39112SOL     OW22465   6.236  11.235   3.279 -0.4516 -0.3212  0.0835
39112SOL    HW122466   6.206  11.152   3.243 -0.8454 -0.0349 -0.2486
39112SOL    HW222467   6.244  11.293   3.204 -0.0132 -0.1079  0.2935
39113SOL     OW22468   7.320   5.603   0.003  0.5108 -0.2304 -0.0391
39113SOL    HW122469   7.344   5.563  -0.080  0.2922  1.1253 -0.7614
39113SOL    HW222470   7.347   5.694  -0.005  1.7953 -0.4089  1.9209
39114SOL     OW22471   9.582   6.189   2.817 -0.5988 -0.1737 -0.3027
39114SOL    HW122472   9.610   6.234   2.738  1.0364 -1.2868 -0.3888
39114SOL    HW222473   9.526   6.118   2.786 -1.4801  0.5274 -0.3201
39115SOL     OW22474   0.441   8.654   0.375 -0.3652  0.2585  0.3656
39115SOL    HW122475   0.503   8.661   0.302 -0.7656  1.7499  0.1371
39115SOL    HW222476   0.355   8.660   0.333 -0.5920  1.4402  0.9690
39116SOL     OW22477   7.793   6.339   9.856 -0.1815  0.0368 -0.5852
39116SOL    HW122478   7.814   6.414   9.911 -0.6838  1.0141 -1.7116
39116SOL    HW222479   7.749   6.278   9.916  1.4199  0.0348  0.6442
39117SOL     OW22480   3.118   4.783   8.413 -0.6820 -0.1500  0.5501
39117SOL    HW122481   3.035   4.772   8.367 -0.6071 -1.4696  0.7065
39117SOL    HW222482   3.129   4.701   8.462 -0.0013  0.6035  1.6805
39118SOL     OW22483  10.995   9.020   2.733 -0.1099 -0.2959  0.3547
39118SOL    HW122484  11.031   8.933   2.714  0.9527  0.0905  0.5677
39118SOL    HW222485  10.913   9.002   2.779 -1.2173 -1.2085 -1.8938
39119SOL     OW22486   6.171   9.324  10.284 -0.3016 -0.5932 -0.3201
39119SOL    HW122487   6.121   9.274  10.348 -0.0305 -1.1365 -0.5302
39119SOL    HW222488   6.253   9.345  10.328 -0.5873  0.0231 -0.0876
39120SOL     OW22489   3.105   7.473   2.294  0.2384 -0.3838 -0.2870
39120SOL    HW122490   3.111   7.553   2.346 -0.3943 -0.0285 -0.7522
39120SOL    HW222491   3.155   7.408   2.343 -1.1806 -0.3192  1.2809
39121SOL     OW22492  10.762  10.794   3.352  0.3123 -0.5102 -0.3515
39121SOL    HW122493  10.679  10.748   3.360  0.2339 -0.5785 -1.4565
39121SOL    HW222494  10.738  10.887   3.357  0.2436 -0.5456 -0.0345
39122SOL     OW22495   6.754   8.223   7.868  0.1929 -0.2133  0.4479
39122SOL    HW122496   6.673   8.274   7.880 -0.3765 -1.4956  2.2650
39122SOL    HW222497   6.807   8.276   7.809 -1.3698  1.3653  0.4180
39123SOL     OW22498  10.373  11.073   2.088  0.4305 -0.0276 -0.4784
39123SOL    HW122499  10.367  11.066   2.183 -0.6962  0.9139 -0.4565
39123SOL    HW222500  10.341  11.161   2.069 -0.3940 -0.6009 -1.8135
39124SOL     OW22501   6.197   2.823   1.218 -0.3053  0.8514  0.0775
39124SOL    HW122502   6.241   2.904   1.242 -2.1558  1.8801  0.1167
39124SOL    HW222503   6.203   2.820   1.122 -0.6863  1.2968  0.0395
39125SOL     OW22504   7.959   2.154   2.718  0.6876 -0.2826 -0.1750
39125SOL    HW122505   7.892   2.168   2.651  0.5849  1.2305  0.2234
39125SOL    HW222506   8.010   2.235   2.718  0.7054 -0.2784  1.5499
39126SOL     OW22507   8.993   6.105   3.324  0.2224 -0.1417 -0.0518
39126SOL    HW122508   9.075   6.058   3.342  0.5326  0.7724  0.9228
39126SOL    HW222509   8.973   6.084   3.232  2.4030  0.9558 -0.7896
39127SOL     OW22510   3.932  10.705   6.317  0.5772  0.4876  0.6176
39127SOL    HW122511   3.943  10.691   6.412 -1.2356 -1.1590  0.6064
39127SOL    HW222512   3.853  10.758   6.310 -1.1213 -2.0877 -0.1113
39128SOL     OW22513   1.601   0.392   5.533  0.3171  0.5646 -0.0524
39128SOL    HW122514   1.674   0.378   5.593  0.3672 -0.7872 -0.4033
39128SOL    HW222515   1.563   0.305   5.521 -0.8400  1.1180 -0.5262
39129SOL     OW22516   0.089   3.547   8.272 -0.0719  0.6831 -0.1889
39129SOL    HW122517   0.110   3.605   8.199 -1.5476  0.3643 -0.8896
39129SOL    HW222518   0.072   3.462   8.231 -0.2887  0.3472  0.5890
39130SOL     OW22519  10.071   2.577  11.104  0.4020 -0.3076  0.3038
39130SOL    HW122520  10.024   2.642  11.156 -1.1430 -2.2554  1.3920
39130SOL    HW222521  10.150   2.558  11.154  0.8302  0.6500  0.0140
39131SOL     OW22522   2.246   7.802   5.160 -0.6732  0.3441  0.5913
39131SOL    HW122523   2.173   7.856   5.191 -1.6542 -0.4356 -0.2885
39131SOL    HW222524   2.219   7.774   5.072  1.6684  1.8443 -0.6605
39132SOL     OW22525   0.924   2.491   5.737  0.2194 -0.8262  0.8328
39132SOL    HW122526   0.863   2.552   5.778 -0.2252 -0.6642 -0.0638
39132SOL    HW222527   1.006   2.540   5.729  0.0989 -0.6203  0.8677
39133SOL     OW22528   4.192   8.574   6.451  0.5432 -0.4198 -0.4481
39133SOL    HW122529   4.269   8.562   6.395  0.8653  1.6112 -0.4681
39133SOL    HW222530   4.184   8.669   6.461 -2.4935 -0.5699 -1.1791
39134SOL     OW22531   2.120   1.630   8.575 -0.3090 -0.3701  0.7556
39134SOL    HW122532   2.076   1.666   8.652 -0.4769 -1.4977  1.1926
39134SOL    HW222533   2.092   1.686   8.503 -2.0284 -0.7321  1.1189
39135SOL     OW22534   5.955   4.798   3.758 -0.3792  0.2256 -0.4690
39135SOL    HW122535   6.013   4.770   3.829 -1.3098  2.0723  1.0728
39135SOL    HW222536   5.907   4.719   3.732 -1.8685  0.0193  2.7045
39136SOL     OW22537   7.942   1.862   4.228 -0.0965  0.0243 -0.2838
39136SOL    HW122538   7.864   1.906   4.196  0.6860  1.7808  0.1928
39136SOL    HW222539   7.995   1.847   4.149 -1.3441 -2.1576 -0.7718
39137SOL     OW22540  11.151   1.252   0.596 -0.1808 -0.0007  0.4417
39137SOL    HW122541  11.150   1.282   0.686 -1.6640 -1.4008  0.9193
39137SOL    HW222542  11.082   1.302   0.552  1.2259  1.4302 -0.2027
39138SOL     OW22543   4.352   8.710   3.401  0.5792 -0.2176 -0.2956
39138SOL    HW122544   4.433   8.659   3.401  0.8337  0.1434  1.2280
39138SOL    HW222545   4.381   8.799   3.423 -0.1922 -0.0138 -0.1033
39139SOL     OW22546   4.221   4.340   0.193 -0.0990  0.1601 -0.1236
39139SOL    HW122547   4.229   4.397   0.270  0.8649 -0.3596  0.1594
39139SOL    HW222548   4.173   4.264   0.225 -2.8135  1.4938 -0.8769
39140SOL     OW22549   1.038   9.243  11.128  0.4541 -0.2915 -0.4900
39140SOL    HW122550   1.045   9.233  11.223 -0.2229  0.0396 -0.4006
39140SOL    HW222551   1.020   9.337  11.116 -0.3742 -0.4976 -0.8898
39141SOL     OW22552   5.645   1.805   5.103  0.3992  0.2217  0.4784
39141SOL    HW122553   5.625   1.898   5.109  1.3773  0.4915 -0.4200
39141SOL    HW222554   5.727   1.801   5.054  0.8505 -1.0550  1.3224
39142SOL     OW22555   9.576   5.679  10.220 -0.2851  0.0829  0.0109
39142SOL    HW122556   9.572   5.658  10.127 -1.5315 -1.4743  0.3991
39142SOL    HW222557   9.583   5.775  10.223  1.2451  0.0322 -1.7044
39143SOL     OW22558   9.419   8.099   8.641 -0.4741 -0.0332  0.3202
39143SOL    HW122559   9.465   8.099   8.725  0.9022  4.9384 -0.2483
39143SOL    HW222560   9.484   8.070   8.578 -0.4210 -0.3009  0.4978
39144SOL     OW22561   9.052   6.384   2.009  0.4178 -0.6887 -0.0912
39144SOL    HW122562   9.061   6.476   2.032 -2.2680 -0.3783 -0.1032
39144SOL    HW222563   9.105   6.374   1.930  2.1833  0.4023  0.9375
39145SOL     OW22564   8.821   6.748   7.022  0.0786 -0.1771 -0.3729
39145SOL    HW122565   8.799   6.796   6.943 -0.5836  1.8767  1.0107
39145SOL    HW222566   8.917   6.739   7.020 -0.0777 -1.5918 -2.1878
39146SOL     OW22567   4.639   7.836   1.236  0.2144 -0.1360 -0.0508
39146SOL    HW122568   4.686   7.754   1.248 -2.7841 -1.6283  2.5044
39146SOL    HW222569   4.678   7.896   1.300  0.5134 -0.5071  0.1126
39147SOL     OW22570  11.094  10.929   0.126  0.6937  0.1786  0.0340
39147SOL    HW122571  11.064  10.975   0.204 -0.1488  1.4437 -1.0379
39147SOL    HW222572  11.084  10.836   0.148 -1.3440  0.5462  0.7208
39148SOL     OW22573   7.681   6.882   5.298  0.4572  0.3905  0.6081
39148SOL    HW122574   7.756   6.915   5.346  0.3865  0.0795  0.9377
39148SOL    HW222575   7.709   6.796   5.266  0.3111  0.3544  0.5739
39149SOL     OW22576   5.508   3.684   4.877 -0.2549 -0.7244  0.1482
39149SOL    HW122577   5.547   3.674   4.790 -0.4444 -1.1010  0.1067
39149SOL    HW222578   5.494   3.594   4.907  0.7241 -0.6107  0.9793
39150SOL     OW22579   3.382   7.364   4.133  0.3337 -0.4120 -0.2913
39150SOL    HW122580   3.358   7.441   4.184  0.2758  1.4991 -3.0987
39150SOL    HW222581   3.469   7.339   4.165 -1.1614 -1.4586  3.1575
39151SOL     OW22582   7.381   8.709  10.876 -0.0325 -0.5914  0.2178
39151SOL    HW122583   7.297   8.736  10.914 -0.5969 -1.2304 -0.5236
39151SOL    HW222584   7.410   8.785  10.826 -0.5410 -0.6137 -0.1191
39152SOL     OW22585   8.450  10.882   9.642 -0.6773 -0.2430 -0.0688
39152SOL    HW122586   8.416  10.873   9.731  1.7752 -0.8693  0.8553
39152SOL    HW222587   8.384  10.840   9.587 -1.7490 -0.7604  1.5580
39153SOL     OW22588   2.734   4.289   3.088 -0.6515  0.2391 -0.3393
39153SOL    HW122589   2.655   4.266   3.137 -0.5825 -1.1020 -0.8449
39153SOL    HW222590   2.796   4.218   3.106  0.9855  2.0143  1.2352
39154SOL     OW22591   0.664   6.810   4.158 -0.4606 -0.2562  0.1804
39154SOL    HW122592   0.752   6.784   4.129 -0.5695 -1.5090  0.9432
39154SOL    HW222593   0.669   6.807   4.254 -1.4038 -0.5364  0.2203
39155SOL     OW22594   1.955   0.460   7.999 -0.5852 -0.1264 -0.3988
39155SOL    HW122595   2.029   0.401   8.015 -1.1326 -0.5874  0.4849
39155SOL    HW222596   1.911   0.423   7.922 -0.5646 -0.5065 -0.2270
39156SOL     OW22597   7.193   1.557   2.208  0.1775 -0.4524  0.6533
39156SOL    HW122598   7.107   1.586   2.238 -0.0563 -0.6275  0.1455
39156SOL    HW222599   7.189   1.461   2.213  0.1543 -0.4795  0.1055
39157SOL     OW22600   6.225  11.312   3.728 -0.5286  0.2613 -0.4452
39157SOL    HW122601   6.151  11.274   3.680 -0.9314 -1.4469  1.4817
39157SOL    HW222602   6.187  11.386   3.776 -0.5791  0.5719 -0.9576
39158SOL     OW22603   0.956   9.443   4.890 -0.5965  0.0953  0.1268
39158SOL    HW122604   0.980   9.376   4.826  0.9043  0.3271  0.4258
39158SOL    HW222605   1.035   9.455   4.943 -1.9100 -0.3148  2.2234
39159SOL     OW22606   7.305  10.208   0.042  0.4946 -0.0327 -0.0671
39159SOL    HW122607   7.335  10.143  -0.021 -0.4214 -0.2451 -0.2911
39159SOL    HW222608   7.221  10.239   0.006 -0.6073 -0.9830  1.6100
39160SOL     OW22609   6.538   2.762   3.017  0.0125  0.3088 -0.3310
39160SOL    HW122610   6.577   2.803   2.939  2.2122 -3.0567 -1.1005
39160SOL    HW222611   6.458   2.721   2.985  0.7571 -0.8103 -0.7840
39161SOL     OW22612  10.117   3.667   2.578  0.0056  0.4754 -0.1518
39161SOL    HW122613  10.049   3.700   2.637 -1.9147 -2.4175 -0.6464
39161SOL    HW222614  10.083   3.685   2.490  0.0192 -0.7038 -0.3983
39162SOL     OW22615   0.769   8.535   5.081  0.8415 -0.4519  0.1336
39162SOL    HW122616   0.718   8.593   5.025  1.6872  0.8536  0.6820
39162SOL    HW222617   0.732   8.448   5.066 -0.5606  0.2495 -0.5763
39163SOL     OW22618   8.120   5.924   5.050  0.1213 -0.3142  0.5878
39163SOL    HW122619   8.175   5.923   4.972  0.1153 -1.6543  0.5818
39163SOL    HW222620   8.181   5.924   5.123  0.1267  0.1542  0.5846
39164SOL     OW22621   1.137   1.049   3.335 -0.0024  0.1803  0.0572
39164SOL    HW122622   1.153   0.958   3.310 -0.7332  0.1321 -0.2691
39164SOL    HW222623   1.170   1.100   3.262 -1.6719  0.0621 -0.8106
39165SOL     OW22624   8.121   5.546   8.857  0.0475  0.0377  0.1729
39165SOL    HW122625   8.150   5.484   8.924 -1.1472  0.6251  1.2723
39165SOL    HW222626   8.138   5.633   8.895 -0.1330  0.3746 -0.5046
39166SOL     OW22627   1.942   1.368  10.834  0.2946  0.5866  0.0053
39166SOL    HW122628   1.851   1.352  10.809  0.3959  1.0705 -0.6923
39166SOL    HW222629   1.989   1.370  10.750  0.9992  0.0217  0.3788
39167SOL     OW22630   4.601   4.281   0.786 -0.2806  0.4892 -0.2210
39167SOL    HW122631   4.619   4.321   0.872  2.9463 -0.7103 -0.2519
39167SOL    HW222632   4.585   4.189   0.806 -0.4939  0.3951 -0.8219
39168SOL     OW22633   5.729   5.578   6.277  0.5949  0.2880 -0.3106
39168SOL    HW122634   5.745   5.616   6.363 -2.2070  0.2762  0.2571
39168SOL    HW222635   5.749   5.485   6.287 -0.0214  0.2296  0.4428
39169SOL     OW22636   3.880   5.982   0.662  0.1605 -0.0863  0.3889
39169SOL    HW122637   3.832   6.021   0.735 -0.7827 -0.4522 -0.0373
39169SOL    HW222638   3.864   6.041   0.589 -0.3648 -0.6880  0.0203
39170SOL     OW22639   9.963   2.949   8.069 -0.1065 -0.2888 -0.2340
39170SOL    HW122640   9.968   3.016   8.000 -1.1638 -0.8757 -0.8902
39170SOL    HW222641   9.943   2.998   8.149  1.5221  0.4474 -0.2479
39171SOL     OW22642  10.793   3.203   2.590  0.3878  0.0851 -0.1369
39171SOL    HW122643  10.740   3.267   2.636 -0.7866 -1.3670  0.5782
39171SOL    HW222644  10.810   3.242   2.504 -3.6951 -0.3284 -1.2184
39172SOL     OW22645   2.161   9.495   3.953 -0.5522  0.2592 -0.0130
39172SOL    HW122646   2.126   9.453   4.032  1.4428  0.4987  1.0285
39172SOL    HW222647   2.248   9.457   3.942 -0.4906  0.8350 -1.6396
39173SOL     OW22648   6.832   9.925   1.512 -0.5045  0.5619 -0.8854
39173SOL    HW122649   6.895   9.873   1.461 -0.8814  0.3195 -1.1056
39173SOL    HW222650   6.853  10.016   1.490 -0.7197  0.4572 -1.5485
39174SOL     OW22651   2.266   4.695   0.363 -0.6063 -0.3218 -0.0221
39174SOL    HW122652   2.270   4.777   0.315  1.9244 -1.2510 -1.4754
39174SOL    HW222653   2.295   4.716   0.451 -1.0171  0.5372 -0.0897
39175SOL     OW22654   6.159   3.580   9.725 -0.0210  0.0822  0.0276
39175SOL    HW122655   6.181   3.501   9.775  1.6784 -0.3308 -1.3122
39175SOL    HW222656   6.139   3.646   9.791 -2.9415 -1.8614  1.1634
39176SOL     OW22657   9.661   9.760   6.564  0.6442 -0.2907 -0.4861
39176SOL    HW122658   9.725   9.720   6.623  0.0205  1.8825  1.6948
39176SOL    HW222659   9.579   9.715   6.583  0.2409  1.0354  1.0012
39177SOL     OW22660   6.523  10.068   0.664 -0.5945  0.3522  0.3739
39177SOL    HW122661   6.591  10.057   0.597 -1.2093 -1.0463 -0.0300
39177SOL    HW222662   6.462  10.131   0.625 -0.0692  0.8381  0.3228
39178SOL     OW22663   9.911   9.086  10.645 -0.1008 -0.8154 -0.1916
39178SOL    HW122664   9.931   9.007  10.695  0.2903 -1.0456 -0.7063
39178SOL    HW222665   9.996   9.125  10.625 -0.3148  0.1276  0.6728
39179SOL     OW22666   7.971   7.238   4.769 -0.3159  0.0113 -0.1185
39179SOL    HW122667   7.951   7.270   4.857 -0.4395 -0.3991  0.0045
39179SOL    HW222668   7.907   7.281   4.713 -2.5967 -2.4402  0.4758
39180SOL     OW22669   3.852   7.503   9.024 -0.2927  0.3843 -0.0224
39180SOL    HW122670   3.862   7.411   9.047 -2.0977 -0.1994 -1.4018
39180SOL    HW222671   3.771   7.530   9.068  1.3640  1.9641  2.1853
39181SOL     OW22672   4.628   0.845  10.169 -0.6214 -0.5524 -0.3585
39181SOL    HW122673   4.549   0.878  10.127  0.1424  0.4756 -0.9984
39181SOL    HW222674   4.598   0.811  10.254 -1.5729  0.8442 -0.1310
39182SOL     OW22675   0.592   6.953   3.490  0.1887 -0.6240 -0.1243
39182SOL    HW122676   0.647   6.968   3.413  1.2555  0.6713  0.8665
39182SOL    HW222677   0.559   6.864   3.479  0.1430 -0.3710 -2.1816
39183SOL     OW22678   2.798  10.740   7.913  0.2925  0.2174  0.1888
39183SOL    HW122679   2.734  10.675   7.884  1.1163 -1.2380  1.5452
39183SOL    HW222680   2.773  10.759   8.004  1.0790  0.5152  0.3449
39184SOL     OW22681   3.249   0.830   8.128  1.0171  0.2013  0.6002
39184SOL    HW122682   3.324   0.777   8.099  0.2156 -0.5272 -0.1561
39184SOL    HW222683   3.246   0.904   8.067 -1.6645 -2.1733 -2.3389
39185SOL     OW22684   2.179   8.218   4.846 -0.0798 -0.5140  0.7373
39185SOL    HW122685   2.252   8.254   4.796 -0.0957 -2.3663 -0.6510
39185SOL    HW222686   2.201   8.237   4.937  0.7962  1.3458  0.1619
39186SOL     OW22687   3.229   7.774   7.760  0.1097  0.1052 -0.0604
39186SOL    HW122688   3.156   7.782   7.699 -0.5520  0.2386  0.7380
39186SOL    HW222689   3.289   7.713   7.717 -0.1738  0.4806 -1.0043
39187SOL     OW22690   1.796   1.743   4.003 -0.3936  0.7195  0.3584
39187SOL    HW122691   1.710   1.785   4.005 -0.6374  0.2072  0.9889
39187SOL    HW222692   1.801   1.696   4.086 -0.1021 -0.4370 -0.2937
39188SOL     OW22693   6.179   3.425   3.959 -0.6401 -0.4828 -0.2061
39188SOL    HW122694   6.232   3.489   4.005 -0.3505 -0.8097 -0.0798
39188SOL    HW222695   6.122   3.477   3.902  0.7278 -0.1588 -1.3285
39189SOL     OW22696   6.203   1.813   6.873 -0.1285 -0.1830 -0.3277
39189SOL    HW122697   6.222   1.723   6.845 -1.1185 -0.6218  0.3679
39189SOL    HW222698   6.276   1.836   6.931 -0.8500 -1.2524  1.0342
39190SOL     OW22699   0.293   6.916  10.910 -0.3503 -0.1076 -0.1491
39190SOL    HW122700   0.278   6.983  10.842  2.7491  0.0706 -0.7072
39190SOL    HW222701   0.209   6.909  10.955 -1.7305  1.6577 -2.3338
39191SOL     OW22702   3.139   5.464  10.086  0.4961 -0.1263 -0.1252
39191SOL    HW122703   3.103   5.513  10.160  1.9277  1.7385 -0.6269
39191SOL    HW222704   3.111   5.374  10.101  0.8009  0.2053  2.7148
39192SOL     OW22705  10.275   9.450   3.337 -0.3143 -0.1623 -0.3801
39192SOL    HW122706  10.213   9.401   3.283  1.0383 -0.3860 -1.7649
39192SOL    HW222707  10.310   9.386   3.398  0.0237 -0.4788 -0.9095
39193SOL     OW22708  10.837   5.918   3.686  0.1332 -0.2131 -0.3337
39193SOL    HW122709  10.780   5.862   3.739  1.3502 -0.0553  1.2035
39193SOL    HW222710  10.821   5.891   3.596 -2.4855 -0.0457  0.0379
39194SOL     OW22711   1.670   0.363  10.278  0.2735 -0.0545  0.4889
39194SOL    HW122712   1.763   0.387  10.286  0.0589  0.8603  0.2876
39194SOL    HW222713   1.669   0.298  10.207  0.6383  0.6973 -0.2258
39195SOL     OW22714   8.657   5.871  10.606  0.4249 -0.8734  0.2484
39195SOL    HW122715   8.701   5.786  10.610  0.4475 -0.8465  0.5861
39195SOL    HW222716   8.677   5.912  10.690  1.5521  0.0362 -0.4471
39196SOL     OW22717   0.611   1.541   7.444 -0.7444  0.2488 -0.3161
39196SOL    HW122718   0.568   1.597   7.380 -0.4125 -0.5470 -1.2485
39196SOL    HW222719   0.660   1.478   7.392 -0.8293 -0.6903  0.7214
39197SOL     OW22720   5.990   3.348   1.991 -0.3567  0.3843 -0.5071
39197SOL    HW122721   6.048   3.279   1.960  1.9212  2.0448 -0.1227
39197SOL    HW222722   6.030   3.379   2.072 -1.4639  1.9761 -0.5339
39198SOL     OW22723  10.363   8.141   2.581 -0.4024 -0.1253 -0.1064
39198SOL    HW122724  10.400   8.053   2.589  0.9208  0.1254 -2.8808
39198SOL    HW222725  10.304   8.135   2.506 -0.1797  1.3758 -0.4213
39199SOL     OW22726   8.547   0.574   1.531 -0.1045 -0.0147  0.6052
39199SOL    HW122727   8.597   0.564   1.612  1.6964  1.7922 -0.2347
39199SOL    HW222728   8.517   0.665   1.532  1.7495  0.6688 -1.7230
39200SOL     OW22729   1.938   9.431   2.804  0.4609 -0.3964  0.0706
39200SOL    HW122730   1.904   9.486   2.734 -0.3743  0.0684  0.8259
39200SOL    HW222731   1.997   9.488   2.853 -1.1214  0.1381  1.4097
39201SOL     OW22732   4.493   6.420   0.482 -0.4270 -0.0703  0.0661
39201SOL    HW122733   4.565   6.426   0.420 -0.7333  1.3171 -0.1496
39201SOL    HW222734   4.457   6.332   0.468  1.3115 -0.8641  0.3023
39202SOL     OW22735   2.986   5.739   2.606 -1.2616 -0.3472  0.6601
39202SOL    HW122736   2.967   5.793   2.683 -0.1310 -0.3587  0.9556
39202SOL    HW222737   2.971   5.649   2.635  2.4274 -0.6429  1.9318
39203SOL     OW22738   6.979   1.734   4.101 -0.0158 -0.1283  0.4969
39203SOL    HW122739   7.053   1.753   4.159 -0.0689 -0.6609  0.7410
39203SOL    HW222740   6.977   1.638   4.096 -0.4863 -0.1021  0.2308
39204SOL     OW22741   3.679  10.222  10.189  0.3270  0.0927  0.7842
39204SOL    HW122742   3.609  10.250  10.249  0.4055  1.8791  0.0815
39204SOL    HW222743   3.719  10.304  10.159  1.0069 -0.8154 -0.8729
39205SOL     OW22744   7.583   1.413   0.442  0.2650  0.0084 -0.2530
39205SOL    HW122745   7.588   1.506   0.465  1.3798 -0.2039  0.3519
39205SOL    HW222746   7.613   1.409   0.351 -0.7085  0.3629 -0.5969
39206SOL     OW22747  10.669   0.171   7.697 -0.1431 -0.2292  0.2839
39206SOL    HW122748  10.761   0.197   7.705 -0.1234  0.1515 -0.9785
39206SOL    HW222749  10.620   0.253   7.702 -0.2914 -0.2497 -0.7249
39207SOL     OW22750   2.040   4.587   0.293  0.0501 -0.2711  0.1132
39207SOL    HW122751   2.128   4.621   0.311 -0.1383  0.3021 -0.0541
39207SOL    HW222752   1.982   4.638   0.348 -0.5004  1.3678 -1.9460
39208SOL     OW22753  10.251   1.535  10.770  0.3201 -0.4692  0.7117
39208SOL    HW122754  10.208   1.621  10.764  1.6919  0.2399  0.8787
39208SOL    HW222755  10.181   1.472  10.751 -0.6032  0.7039  0.1437
39209SOL     OW22756   4.179   0.091   9.168  0.4752 -1.4158 -0.2700
39209SOL    HW122757   4.234   0.041   9.108  0.3960 -0.4613 -1.1493
39209SOL    HW222758   4.189   0.182   9.139 -0.2738 -1.0534  0.5972
39210SOL     OW22759   6.450   3.989  11.082 -0.0654  0.3923  0.0170
39210SOL    HW122760   6.486   3.922  11.024  0.8939 -0.0082  1.0546
39210SOL    HW222761   6.485   4.071  11.047  0.5782  0.1434  0.0642
39211SOL     OW22762   9.934   1.369   6.033 -0.3982 -0.0046  0.4420
39211SOL    HW122763   9.945   1.416   5.950  0.3339  0.1071  0.5980
39211SOL    HW222764  10.010   1.395   6.085 -1.1151  0.3139  1.3348
39212SOL     OW22765   1.151   8.177   8.940 -0.2301 -0.5755  0.1547
39212SOL    HW122766   1.068   8.219   8.960 -0.3321 -1.2712  1.2416
39212SOL    HW222767   1.196   8.239   8.883 -1.5036 -0.2135 -0.4736
39213SOL     OW22768   4.668   5.548   0.306 -0.1751  0.4497 -0.2867
39213SOL    HW122769   4.701   5.534   0.395 -1.9690  0.3183  0.3806
39213SOL    HW222770   4.610   5.624   0.313  0.0807  0.7637 -1.4542
39214SOL     OW22771   3.320   7.206   9.923 -0.2904 -0.0567 -0.6404
39214SOL    HW122772   3.377   7.145   9.877 -0.8096 -1.1329  0.1446
39214SOL    HW222773   3.263   7.242   9.855  0.9851  0.6698 -1.3476
39215SOL     OW22774   2.372   9.699   8.637  0.4561  0.3319  0.4909
39215SOL    HW122775   2.375   9.604   8.650  0.9814  0.1445 -0.8848
39215SOL    HW222776   2.449   9.733   8.682  0.4643  0.0648  0.6780
39216SOL     OW22777  11.010   0.588   9.615 -0.2241  0.0674 -0.6898
39216SOL    HW122778  11.034   0.591   9.708 -0.9784  0.7692 -0.5104
39216SOL    HW222779  10.992   0.495   9.598  1.9108 -0.3838 -0.6634
39217SOL     OW22780   8.739  10.434   3.680 -0.3102  0.0447 -0.2099
39217SOL    HW122781   8.692  10.486   3.745  1.0925  2.1525 -0.8299
39217SOL    HW222782   8.696  10.349   3.682 -2.3144  1.0396  1.2366
39218SOL     OW22783   3.274   1.699   7.174  0.2394  0.4892  0.0312
39218SOL    HW122784   3.360   1.659   7.159  0.2689  0.1881  0.9827
39218SOL    HW222785   3.292   1.793   7.179  0.5779  0.3932  0.6652
39219SOL     OW22786   3.692   4.118   4.147 -0.2279 -0.0882 -0.1656
39219SOL    HW122787   3.765   4.087   4.201 -1.1089  0.8731  1.6352
39219SOL    HW222788   3.717   4.208   4.124 -0.8980  0.2952  0.5850
39220SOL     OW22789   8.813   1.997   3.251 -0.1289  0.1521 -0.0102
39220SOL    HW122790   8.817   2.056   3.176 -0.3610 -0.6973 -0.6974
39220SOL    HW222791   8.876   2.033   3.313  1.1576  0.0144 -1.2209
39221SOL     OW22792   0.844  10.673   8.601 -0.1096 -0.1896 -0.3901
39221SOL    HW122793   0.863  10.586   8.566 -0.2805  0.3334 -1.8187
39221SOL    HW222794   0.754  10.691   8.574 -0.7066 -0.3144  1.4632
39222SOL     OW22795   2.796   6.502   9.044 -0.0404  0.0004 -0.7180
39222SOL    HW122796   2.877   6.547   9.018  1.4288 -1.4282  1.2926
39222SOL    HW222797   2.760   6.556   9.114 -0.0633 -0.1294 -0.6282
39223SOL     OW22798  10.505   6.307   6.096 -0.2844 -0.3373 -0.4163
39223SOL    HW122799  10.511   6.257   6.178 -0.5562  0.0686 -0.1445
39223SOL    HW222800  10.563   6.262   6.036  2.1853  1.0029  0.8696
39224SOL     OW22801  10.628  10.237   7.214  0.2134  0.3556 -0.4485
39224SOL    HW122802  10.615  10.281   7.129  0.2345  0.0440 -0.6153
39224SOL    HW222803  10.542  10.242   7.256 -0.7800 -2.5964 -1.9723
39225SOL     OW22804   7.830   2.584  10.588  0.1969 -0.4512  0.0315
39225SOL    HW122805   7.914   2.581  10.542 -0.5577  0.2589 -1.4172
39225SOL    HW222806   7.783   2.507  10.557  1.1677 -2.2086  2.6316
39226SOL     OW22807   3.526   0.520  10.072 -0.8064 -0.3005 -0.0161
39226SOL    HW122808   3.602   0.464  10.087 -0.7634 -0.4051 -0.6000
39226SOL    HW222809   3.455   0.459  10.053 -0.0868 -0.1347 -3.7547
39227SOL     OW22810   7.834   3.965   9.832 -0.0202 -0.3100 -0.1545
39227SOL    HW122811   7.808   4.052   9.804 -0.1739  0.0137  0.9550
39227SOL    HW222812   7.908   3.980   9.890 -0.2267 -0.8958  0.2624
39228SOL     OW22813   1.978   1.091   5.113  0.3059 -1.2114 -1.0155
39228SOL    HW122814   2.049   1.062   5.169 -0.8447 -0.7959  0.7089
39228SOL    HW222815   1.964   1.183   5.138 -1.7272 -1.6764 -0.3380
39229SOL     OW22816   0.827   4.038   5.217  0.4651  0.2714  0.1893
39229SOL    HW122817   0.910   4.075   5.185  0.1111  0.5757 -0.3960
39229SOL    HW222818   0.825   4.061   5.310  0.2872  1.6837 -0.1476
39230SOL     OW22819   9.610   5.054   4.180  0.7260  0.4886 -0.2444
39230SOL    HW122820   9.585   4.967   4.212  2.2197  0.1503  0.0159
39230SOL    HW222821   9.533   5.084   4.130 -0.2825 -0.4404  0.7142
39231SOL     OW22822   8.907   6.202   0.542 -0.2915 -0.5166  0.0481
39231SOL    HW122823   8.977   6.262   0.566 -2.4510  1.5639  1.3147
39231SOL    HW222824   8.926   6.122   0.591  0.8798  0.2270  0.8192
39232SOL     OW22825   5.878   3.943   6.167 -0.0598 -0.0354 -0.3896
39232SOL    HW122826   5.964   3.983   6.176  1.8063 -3.6288 -1.5475
39232SOL    HW222827   5.844   3.940   6.257  1.1571  1.1114  0.1223
39233SOL     OW22828   6.705   7.173   2.776 -0.0817  0.1282  0.5024
39233SOL    HW122829   6.727   7.233   2.848  2.2455 -1.2268  0.9475
39233SOL    HW222830   6.612   7.156   2.788  0.1997  0.1697  3.0260
39234SOL     OW22831   5.867   1.078   6.173  0.6681  0.4487 -0.0851
39234SOL    HW122832   5.850   1.156   6.226  1.3423 -0.5382  1.6247
39234SOL    HW222833   5.809   1.011   6.210 -0.7901  0.4359 -2.3223
39235SOL     OW22834   2.150  10.929   7.693  0.2945 -0.0087 -0.2844
39235SOL    HW122835   2.221  10.909   7.753  0.5004 -0.6769 -0.7378
39235SOL    HW222836   2.190  10.927   7.606 -0.1559  0.1812 -0.5016
39236SOL     OW22837  10.917   6.144   0.000  0.2252  0.1702 -0.1357
39236SOL    HW122838  10.824   6.124  -0.008  0.5229 -0.9747 -0.7724
39236SOL    HW222839  10.926   6.181   0.088 -0.6672 -0.6280  0.3020
39237SOL     OW22840  10.907   3.114   8.232 -0.6297  0.0820 -0.4466
39237SOL    HW122841  10.819   3.140   8.260 -1.4863 -1.3685 -1.7235
39237SOL    HW222842  10.899   3.098   8.138  1.3084  1.1672 -0.8430
39238SOL     OW22843   7.434   0.532   9.102  0.3810  0.5408 -0.2464
39238SOL    HW122844   7.517   0.574   9.125  0.0961  0.6472  0.6254
39238SOL    HW222845   7.458   0.445   9.070  0.7966  0.3886  0.4732
39239SOL     OW22846   1.274   0.233   7.852 -0.1117  0.2183  0.1914
39239SOL    HW122847   1.268   0.137   7.857 -1.9787  0.3085  0.0021
39239SOL    HW222848   1.229   0.256   7.772  1.4988  1.1962 -0.4682
39240SOL     OW22849   8.063   6.936   6.208 -0.4085  0.1210  0.6938
39240SOL    HW122850   8.074   6.949   6.114  1.6702 -1.1185  0.7313
39240SOL    HW222851   7.988   6.877   6.216 -1.0369  0.7962 -0.1396
39241SOL     OW22852   3.355   4.367   6.283 -0.7706 -0.0723  0.5503
39241SOL    HW122853   3.290   4.307   6.319 -0.0219 -0.3824  1.4176
39241SOL    HW222854   3.370   4.431   6.352  0.2699 -0.3474  0.5934
39242SOL     OW22855   2.322   1.078  11.336  0.4342 -0.2919 -0.1614
39242SOL    HW122856   2.292   1.019  11.406 -0.2102 -1.6391 -1.5564
39242SOL    HW222857   2.293   1.037  11.255 -1.0481  2.5365 -1.1361
39243SOL     OW22858   8.300   2.813   1.750  0.4642 -0.2729  0.1826
39243SOL    HW122859   8.317   2.736   1.696 -2.7187 -0.8216 -0.1114
39243SOL    HW222860   8.323   2.887   1.693 -3.2791 -0.8231 -2.2326
39244SOL     OW22861  10.870   6.474   5.626 -0.6085  0.2628  0.2008
39244SOL    HW122862  10.899   6.554   5.670  3.2444 -0.1115 -1.4053
39244SOL    HW222863  10.815   6.505   5.553  1.9495  1.6221 -1.2228
39245SOL     OW22864   8.934   7.673   0.108  0.2733 -0.1238 -0.1752
39245SOL    HW122865   8.959   7.724   0.031  0.6288 -0.4033 -0.2460
39245SOL    HW222866   8.935   7.582   0.078  0.7746 -0.2646  0.2486
39246SOL     OW22867   8.540   0.739   0.266 -0.1451 -0.0346  0.1233
39246SOL    HW122868   8.513   0.830   0.249 -3.6632 -0.9782  0.3385
39246SOL    HW222869   8.577   0.709   0.182  1.0751  1.5737  0.0584
39247SOL     OW22870   1.356   9.378  11.110 -0.5841  0.0946 -0.8130
39247SOL    HW122871   1.308   9.300  11.080 -0.9903 -0.6020  1.5299
39247SOL    HW222872   1.435   9.380  11.056 -0.3898 -2.1712 -0.6560
39248SOL     OW22873   3.082   3.220   2.855 -0.1691 -0.1542 -0.6414
39248SOL    HW122874   3.037   3.295   2.894  0.4868 -0.5575  0.9293
39248SOL    HW222875   3.037   3.206   2.771 -0.7126  1.5790 -0.6657
39249SOL     OW22876  10.808   8.873   9.453  0.4490 -0.2684 -0.6282
39249SOL    HW122877  10.880   8.912   9.501 -0.8016  0.6766  0.5149
39249SOL    HW222878  10.777   8.803   9.510 -0.7930  0.6056 -0.2193
39250SOL     OW22879   1.764   2.849   9.733  0.3673 -0.0392 -0.3851
39250SOL    HW122880   1.725   2.931   9.702  1.2455  0.1250 -1.0670
39250SOL    HW222881   1.764   2.856   9.828  0.0936  0.5862 -0.4305
39251SOL     OW22882   0.164   2.309  11.137 -0.1112  0.3661  0.1174
39251SOL    HW122883   0.091   2.255  11.165  0.7963 -1.2547 -0.5494
39251SOL    HW222884   0.126   2.369  11.073 -1.3231  1.1902  1.5791
39252SOL     OW22885   4.180   1.300   6.628 -0.1533 -0.2908  0.5416
39252SOL    HW122886   4.212   1.210   6.630  1.3536  0.2155 -0.2330
39252SOL    HW222887   4.225   1.340   6.554 -1.8558  0.7205  0.0029
39253SOL     OW22888   6.702   4.566   5.956  0.3485  0.0640  0.3912
39253SOL    HW122889   6.666   4.653   5.939 -1.4687 -0.7806 -0.3364
39253SOL    HW222890   6.692   4.554   6.050 -0.3329  0.2596  0.3477
39254SOL     OW22891   6.441  10.211   3.313  0.1596  0.0835 -0.4791
39254SOL    HW122892   6.377  10.191   3.381  0.7555  1.5010  0.5195
39254SOL    HW222893   6.523  10.224   3.360  0.7359  0.3994 -1.5430
39255SOL     OW22894   2.443   1.432   5.206  0.8139 -0.3936 -0.8184
39255SOL    HW122895   2.367   1.405   5.154 -0.0004 -0.6250  0.4687
39255SOL    HW222896   2.466   1.355   5.259  0.7198  0.2798  0.2263
39256SOL     OW22897   7.965  10.953   4.420  0.3187 -0.0606 -0.9696
39256SOL    HW122898   7.961  11.031   4.364  1.2542 -0.8374 -2.1487
39256SOL    HW222899   8.027  10.895   4.376  0.0726 -1.2405  0.2004
39257SOL     OW22900   7.206   3.437  10.290 -0.4842  0.4108 -0.1344
39257SOL    HW122901   7.154   3.477  10.359  0.3995 -0.2367  0.9388
39257SOL    HW222902   7.151   3.441  10.212 -1.3947  1.3880  0.5485
39258SOL     OW22903  11.226   3.898   7.229 -0.4555  0.1768 -0.8529
39258SOL    HW122904  11.152   3.954   7.248  0.2403  0.6189  0.6931
39258SOL    HW222905  11.214   3.822   7.287  0.7885  0.7101  0.1302
39259SOL     OW22906   4.375   9.354   0.971 -0.2508 -0.3037 -0.4159
39259SOL    HW122907   4.284   9.375   0.949 -0.0341 -0.4223 -1.4074
39259SOL    HW222908   4.368   9.292   1.044 -0.9727 -0.5222 -0.6689
39260SOL     OW22909   7.042   5.677   3.770 -0.0877  0.2010  0.4906
39260SOL    HW122910   7.013   5.721   3.850 -0.8561  0.1633  0.2395
39260SOL    HW222911   7.061   5.587   3.798 -0.9942  0.0097  0.5084
39261SOL     OW22912   2.976   1.369   0.929  0.7820  0.6297 -0.3268
39261SOL    HW122913   2.994   1.314   0.853  1.0530  3.2541 -2.2056
39261SOL    HW222914   3.023   1.325   1.001 -1.8597 -3.4752 -0.9477
39262SOL     OW22915   9.944   1.567   8.980  0.3851 -0.2937 -0.3650
39262SOL    HW122916   9.980   1.522   8.904  0.9279  0.8182 -0.7607
39262SOL    HW222917  10.003   1.640   8.996 -0.7269  0.5256  0.0359
39263SOL     OW22918   6.995   7.156   2.737 -0.4231  0.2767 -0.0939
39263SOL    HW122919   7.049   7.192   2.807 -0.6258 -1.9249  1.2332
39263SOL    HW222920   6.908   7.148   2.774 -1.0181  0.9996 -1.2781
39264SOL     OW22921  10.243   9.748   3.794 -0.5318 -0.0690 -0.0310
39264SOL    HW122922  10.292   9.666   3.793  2.4310  1.6577 -0.9327
39264SOL    HW222923  10.153   9.722   3.773  0.3834 -3.0588 -0.4645
39265SOL     OW22924   7.090   7.052   8.199  0.1034  0.4096 -0.5035
39265SOL    HW122925   7.110   7.135   8.242 -1.4783  0.8618 -0.6136
39265SOL    HW222926   7.118   6.985   8.261 -1.5886  1.0561  0.9827
39266SOL     OW22927   3.233   2.641   6.748  0.2074  0.1998  0.3927
39266SOL    HW122928   3.152   2.665   6.791 -1.1510 -2.6731 -0.4239
39266SOL    HW222929   3.218   2.661   6.655  0.4582 -0.2537  0.2506
39267SOL     OW22930   8.067   2.909   3.488 -0.7000  0.2204  0.4112
39267SOL    HW122931   7.972   2.922   3.495 -1.0856 -2.9247  2.3839
39267SOL    HW222932   8.103   2.951   3.566 -0.8798 -1.5977  1.4986
39268SOL     OW22933   9.006   3.233   1.305  0.1273  0.0590  0.1583
39268SOL    HW122934   8.987   3.180   1.382  2.2567  0.6678  1.1512
39268SOL    HW222935   9.091   3.273   1.324  0.0135  1.3541 -1.8996
39269SOL     OW22936   9.803   2.761   1.824 -0.0386  0.3504 -0.2555
39269SOL    HW122937   9.747   2.754   1.746 -0.5669 -1.4495  0.2708
39269SOL    HW222938   9.799   2.854   1.848 -1.2480  0.5965 -1.3570
39270SOL     OW22939   5.738   4.193   5.904 -0.2657  0.1628  0.1839
39270SOL    HW122940   5.669   4.171   5.967  1.0785 -1.0172  1.2745
39270SOL    HW222941   5.758   4.110   5.861  1.0093  0.3407  0.4199
39271SOL     OW22942   9.348   0.476   8.352  0.1760 -0.4294 -0.0748
39271SOL    HW122943   9.318   0.385   8.351  0.1157 -0.4175  0.6037
39271SOL    HW222944   9.438   0.471   8.385  1.1410 -0.5240 -2.6127
39272SOL     OW22945   6.100   9.970   3.682  0.1835  0.0070  0.2750
39272SOL    HW122946   6.097   9.875   3.698  3.2581 -0.4510 -1.3560
39272SOL    HW222947   6.133  10.007   3.764 -1.1135 -0.2890  0.9503
39273SOL     OW22948   6.090   3.168   1.015  0.6215 -0.3590 -0.5578
39273SOL    HW122949   6.105   3.133   0.927  0.8861  0.8946 -1.0216
39273SOL    HW222950   6.176   3.198   1.044  0.5210 -0.7011  0.0919
39274SOL     OW22951   4.434   6.375  10.355  0.4225  0.3161  0.1546
39274SOL    HW122952   4.390   6.432  10.418  2.2821  0.8083  1.0259
39274SOL    HW222953   4.436   6.427  10.274 -1.7991 -0.2480 -0.3196
39275SOL     OW22954   4.193   7.222   1.371 -0.6651 -0.6628  0.0008
39275SOL    HW122955   4.226   7.181   1.451  1.8291 -0.4912 -0.8949
39275SOL    HW222956   4.252   7.191   1.302 -2.1691 -0.0162 -1.6085
39276SOL     OW22957   7.500   4.257   4.174  1.0544 -0.3997 -0.5535
39276SOL    HW122958   7.531   4.173   4.141 -1.0482 -0.9409 -1.2227
39276SOL    HW222959   7.534   4.262   4.263 -0.5825 -2.9166  0.2473
39277SOL     OW22960   7.538   6.885   7.508 -0.3972 -1.3295 -0.2148
39277SOL    HW122961   7.478   6.943   7.461 -0.4969 -0.3601  1.0602
39277SOL    HW222962   7.600   6.945   7.551 -0.2827 -2.1737  0.8176
39278SOL     OW22963   4.376   4.391   7.929  0.1472  0.1344  0.3142
39278SOL    HW122964   4.301   4.451   7.925  0.5558  0.7267  1.6131
39278SOL    HW222965   4.366   4.345   8.012  0.5584 -0.6804 -0.0771
39279SOL     OW22966   6.396   6.404   8.015 -0.3088 -0.2645  0.1287
39279SOL    HW122967   6.478   6.453   8.019  0.0590 -0.9306  0.7924
39279SOL    HW222968   6.399   6.359   7.930 -1.2388  1.8640 -1.0806
39280SOL     OW22969   1.762   9.387   4.828 -0.1954  0.5530  0.1451
39280SOL    HW122970   1.742   9.474   4.795 -0.4313  1.0777  1.6661
39280SOL    HW222971   1.845   9.364   4.785  0.0137  1.6330 -0.0432
39281SOL     OW22972   2.005   2.740  10.499 -0.0364  0.5206  0.3280
39281SOL    HW122973   1.928   2.768  10.449 -0.1407  3.2276  1.9034
39281SOL    HW222974   2.079   2.761  10.443 -0.3030  0.7614  0.0650
39282SOL     OW22975   1.105   5.545   9.773 -0.1361  0.2051 -0.1190
39282SOL    HW122976   1.189   5.590   9.778 -0.7031  1.2339  0.3486
39282SOL    HW222977   1.040   5.616   9.766 -0.8882 -0.6021 -1.5705
39283SOL     OW22978   0.484   9.193  10.851  0.3881 -0.1156  0.0277
39283SOL    HW122979   0.447   9.183  10.763  0.6849 -1.1420  0.0075
39283SOL    HW222980   0.540   9.116  10.862 -2.1868 -1.7573  2.3966
39284SOL     OW22981   9.305   8.391   0.710 -0.1529  0.0765 -0.1919
39284SOL    HW122982   9.370   8.338   0.664  0.2709 -1.7688  2.4294
39284SOL    HW222983   9.225   8.338   0.709 -0.8781  1.1500 -1.0056
39285SOL     OW22984   0.113   0.092  10.263 -0.4116 -0.3038  0.5450
39285SOL    HW122985   0.094   0.150  10.336  2.3735 -2.8865  3.5388
39285SOL    HW222986   0.207   0.074  10.271  0.1332 -0.1601 -4.1279
39286SOL     OW22987   2.791   0.179   2.466  0.5224  0.4663  0.1883
39286SOL    HW122988   2.872   0.195   2.417 -0.4093  1.0584 -1.1786
39286SOL    HW222989   2.776   0.260   2.514  0.0109  0.8671 -0.6346
39287SOL     OW22990  11.193   9.313   1.079  0.2973 -0.6860 -0.0379
39287SOL    HW122991  11.135   9.279   1.011  2.2600  0.0497 -2.1910
39287SOL    HW222992  11.273   9.261   1.071  1.1048  0.3975  0.6811
39288SOL     OW22993   4.190   4.691   6.345 -0.3519  0.3095  0.3764
39288SOL    HW122994   4.254   4.745   6.392  0.1593  0.1972 -0.1869
39288SOL    HW222995   4.109   4.742   6.348 -0.1713  0.5738  0.8589
39289SOL     OW22996   0.452   9.712   8.588 -0.1747 -0.5905 -0.3525
39289SOL    HW122997   0.504   9.672   8.518 -1.3487 -0.0632 -1.5354
39289SOL    HW222998   0.493   9.797   8.603  0.3873 -0.9106 -0.0275
39290SOL     OW22999   0.628   2.425   0.844  0.1294  0.0920  0.2510
39290SOL    HW123000   0.630   2.383   0.930 -1.4304  0.5115  0.4983
39290SOL    HW223001   0.560   2.491   0.851  1.3429  1.4712 -0.7026
39291SOL     OW23002  10.174   4.586  10.477  0.5092 -0.4733  0.6119
39291SOL    HW123003  10.114   4.661  10.477  0.8827 -0.1710  1.2290
39291SOL    HW223004  10.234   4.603  10.404 -1.6653 -2.0150 -1.6182
39292SOL     OW23005   9.909   3.618   8.489  0.2056 -0.1337  0.9172
39292SOL    HW123006   9.844   3.661   8.543 -0.5617 -0.7891  0.5250
39292SOL    HW223007   9.875   3.628   8.399  0.7453 -0.3048  0.6933
39293SOL     OW23008   4.935   3.858   3.555 -0.3345 -0.1060  0.3453
39293SOL    HW123009   4.951   3.795   3.626 -0.5689  0.7686  1.1805
39293SOL    HW223010   5.023   3.885   3.528 -0.1660 -2.1738 -1.2863
39294SOL     OW23011   0.255   0.962  11.155  0.0969 -0.3974 -0.4937
39294SOL    HW123012   0.309   0.997  11.226 -1.2836  0.3320  0.2271
39294SOL    HW223013   0.227   1.039  11.106 -0.1718 -0.7790 -0.9460
39295SOL     OW23014   2.345   4.398  10.664  0.0297 -0.1683 -0.0500
39295SOL    HW123015   2.314   4.472  10.611  0.3653  0.2317  0.3194
39295SOL    HW223016   2.408   4.435  10.725  2.6471 -1.2754 -1.9978
39296SOL     OW23017   6.193   3.221   3.161  0.1017 -0.0537  0.0734
39296SOL    HW123018   6.222   3.205   3.251  1.6856 -0.7900 -0.5558
39296SOL    HW223019   6.162   3.311   3.161  0.5035  0.0901  1.2550
39297SOL     OW23020   7.389  10.582   5.599 -0.3303  0.0259  0.6366
39297SOL    HW123021   7.340  10.579   5.681  0.7815 -0.5474  1.2937
39297SOL    HW223022   7.430  10.496   5.592 -1.4036 -0.3569 -1.1479
39298SOL     OW23023   8.342   3.687  11.052 -0.0828 -0.2765  0.5854
39298SOL    HW123024   8.256   3.645  11.056  0.3162 -1.3961 -1.7595
39298SOL    HW223025   8.371   3.689  11.143 -1.9309 -1.2677  1.2382
39299SOL     OW23026   6.811   5.926   3.782  0.0642 -0.5610  0.1562
39299SOL    HW123027   6.872   5.916   3.708  1.2336  0.5441  0.9519
39299SOL    HW223028   6.735   5.971   3.745  1.9689  2.9245  0.2483
39300SOL     OW23029   5.817   8.119   9.784  0.2020  0.0290 -0.3148
39300SOL    HW123030   5.779   8.198   9.822 -0.0199 -0.1659 -0.1273
39300SOL    HW223031   5.902   8.111   9.826 -0.1612 -0.3448  0.3645
39301SOL     OW23032   1.797   1.810   8.132 -0.2263 -0.6309  0.0724
39301SOL    HW123033   1.862   1.852   8.076  0.7739 -0.2637  1.4900
39301SOL    HW223034   1.797   1.861   8.212  0.4887 -2.8504  1.5463
39302SOL     OW23035   1.886   4.367   4.116 -0.4843  0.3969 -0.5484
39302SOL    HW123036   1.903   4.410   4.032 -1.0796 -0.6301 -1.2029
39302SOL    HW223037   1.950   4.297   4.120 -1.3539 -0.4206 -0.7858
39303SOL     OW23038   0.500   0.230   7.927  0.1218  0.3908 -0.4223
39303SOL    HW123039   0.560   0.293   7.967 -1.3960  1.0350  0.8696
39303SOL    HW223040   0.545   0.203   7.847  2.1571  0.8288  0.5260
39304SOL     OW23041   3.394   7.161   5.277  0.0891 -0.0952 -0.0605
39304SOL    HW123042   3.307   7.176   5.315  0.4765  1.2543  0.3306
39304SOL    HW223043   3.422   7.078   5.315 -1.3860 -0.9896 -0.8754
39305SOL     OW23044   4.186   0.688   1.886 -0.2649  0.2605  0.1158
39305SOL    HW123045   4.214   0.730   1.805 -1.6123  2.0257  0.5378
39305SOL    HW223046   4.254   0.712   1.950 -0.0853  0.2923 -0.0854
39306SOL     OW23047   7.534   1.002   7.086  0.1674  0.3391  0.6841
39306SOL    HW123048   7.595   0.937   7.051 -0.1770  0.3836  0.0019
39306SOL    HW223049   7.455   0.992   7.033 -0.2611  0.5842  1.2840
39307SOL     OW23050   4.083   1.181  11.305 -0.0155 -0.2814 -0.2068
39307SOL    HW123051   4.066   1.107  11.247  1.6085 -0.4779 -0.4655
39307SOL    HW223052   4.089   1.257  11.247  0.7414 -0.3398 -0.2105
39308SOL     OW23053   0.817  10.432   3.817  0.1255  0.1668  0.3091
39308SOL    HW123054   0.874  10.507   3.836 -1.2226  1.1219  0.6825
39308SOL    HW223055   0.731  10.459   3.850 -0.8687 -0.6755 -1.5157
39309SOL     OW23056   1.308   0.292   5.937 -0.0116  0.0040  0.1907
39309SOL    HW123057   1.243   0.226   5.911 -0.0599 -1.0901  2.9094
39309SOL    HW223058   1.379   0.241   5.976  0.1223  1.5355  1.9819
39310SOL     OW23059   0.228   7.638   8.346  0.0634 -0.3301 -0.1434
39310SOL    HW123060   0.253   7.717   8.394  0.8037 -0.4186 -0.3735
39310SOL    HW223061   0.229   7.568   8.411 -1.3251 -0.0206  0.2152
39311SOL     OW23062   6.957  11.086   1.074 -0.3719  0.4930  0.3333
39311SOL    HW123063   7.044  11.111   1.107 -1.0897  3.4747  0.0684
39311SOL    HW223064   6.976  11.038   0.993  1.0893 -0.3569  1.1496
39312SOL     OW23065   0.394   7.125   1.898  0.2860  0.1762  0.2520
39312SOL    HW123066   0.484   7.095   1.884  0.0478  0.0499 -1.1205
39312SOL    HW223067   0.380   7.189   1.829 -1.3329 -1.2909 -0.8249
39313SOL     OW23068   5.278   0.508   1.347 -0.6717 -0.4206  0.0818
39313SOL    HW123069   5.254   0.511   1.440  0.0702  1.6381  0.2253
39313SOL    HW223070   5.212   0.563   1.304  0.8229  1.2141 -0.1730
39314SOL     OW23071   6.782  11.219   9.981  0.3566 -0.6153 -0.4378
39314SOL    HW123072   6.705  11.224  10.038  0.2621 -3.8401 -0.1792
39314SOL    HW223073   6.856  11.239  10.039  0.0787 -1.8189  0.3458
39315SOL     OW23074   5.173   0.252   1.798  0.2960 -0.3332  0.0609
39315SOL    HW123075   5.212   0.174   1.757  0.0313  0.2235 -1.2633
39315SOL    HW223076   5.188   0.239   1.891 -0.3718 -2.3276 -0.0714
39316SOL     OW23077   6.429   0.211   7.272 -0.0642 -0.0494 -0.1700
39316SOL    HW123078   6.337   0.236   7.273 -0.7679 -2.5925  1.3045
39316SOL    HW223079   6.452   0.211   7.179 -2.6138 -3.0930 -0.8635
39317SOL     OW23080   0.323   0.910   6.094  0.1905  0.5280 -0.3759
39317SOL    HW123081   0.404   0.961   6.084  0.2776  0.6537  0.9289
39317SOL    HW223082   0.265   0.967   6.145  0.1173 -0.4947  0.6939
39318SOL     OW23083   3.818   5.066   0.144  0.7370  0.4089  0.1274
39318SOL    HW123084   3.850   4.975   0.141 -0.5737 -0.0718  0.4364
39318SOL    HW223085   3.773   5.073   0.228 -0.0326  1.0545 -0.3298
39319SOL     OW23086   0.739   6.293   0.881  0.4354  0.4150 -0.4461
39319SOL    HW123087   0.748   6.271   0.788 -1.7163 -0.9193 -0.3938
39319SOL    HW223088   0.666   6.355   0.884  0.1505  0.0467  0.4046
39320SOL     OW23089   4.573   3.801   6.442 -0.1935  0.1546  0.1357
39320SOL    HW123090   4.566   3.783   6.536  2.2712  1.3777  0.6098
39320SOL    HW223091   4.617   3.724   6.406  1.3245  0.8430  0.4729
39321SOL     OW23092   2.372   7.034   1.989 -0.1781  0.4115  0.0419
39321SOL    HW123093   2.297   6.992   2.032 -0.8394 -0.4111 -1.8506
39321SOL    HW223094   2.333   7.104   1.936  0.5840  1.2166  0.5472
39322SOL     OW23095   1.443   1.382   9.086  0.0345  0.0632  0.2068
39322SOL    HW123096   1.494   1.372   9.005 -0.5774  0.6615 -0.2633
39322SOL    HW223097   1.481   1.319   9.147  1.7781  0.9803  0.0845
39323SOL     OW23098   9.755   9.775   4.330  0.6952  0.4344 -0.5199
39323SOL    HW123099   9.747   9.719   4.253  1.1922  3.7582 -3.1034
39323SOL    HW223100   9.664   9.800   4.351  0.7351  1.4767 -1.5584
39324SOL     OW23101   8.455  10.353   9.337  0.4394  0.0920 -0.5271
39324SOL    HW123102   8.532  10.375   9.286  0.0888 -0.2370 -1.1984
39324SOL    HW223103   8.381  10.366   9.278  0.2266 -3.1649 -1.0921
39325SOL     OW23104   9.217   9.443   7.415 -0.7783 -0.1170 -0.1336
39325SOL    HW123105   9.219   9.476   7.325  1.5352 -1.0337 -0.4623
39325SOL    HW223106   9.125   9.446   7.440 -1.6055 -0.9807 -2.9454
39326SOL     OW23107   6.118   4.637   4.780  0.2333  0.5580  0.0872
39326SOL    HW123108   6.111   4.687   4.862  0.2861 -0.6365  0.8250
39326SOL    HW223109   6.212   4.631   4.764  0.1748  1.9929 -0.8035
39327SOL     OW23110   8.539   4.426   9.592  0.4010 -0.0253  0.5382
39327SOL    HW123111   8.443   4.426   9.591  0.3753 -1.7310  0.9431
39327SOL    HW223112   8.565   4.410   9.501  0.3371  1.6909  0.1997
39328SOL     OW23113  10.068  10.276   3.234 -0.0907  0.1853  0.3171
39328SOL    HW123114  10.159  10.293   3.210 -0.1223  0.5826  0.4623
39328SOL    HW223115  10.036  10.214   3.169  0.0708  0.6064 -0.1647
39329SOL     OW23116   2.915   4.628   4.321 -0.3501  0.3861 -0.1545
39329SOL    HW123117   2.834   4.648   4.367 -0.7741  1.1773 -1.2119
39329SOL    HW223118   2.984   4.670   4.372 -0.8295  1.3930 -0.3250
39330SOL     OW23119   0.842  10.704   7.898 -0.2631  0.0033  0.1788
39330SOL    HW123120   0.936  10.707   7.915 -0.5686  1.3500  1.6317
39330SOL    HW223121   0.817  10.794   7.878 -1.6870  0.0889  2.1888
39331SOL     OW23122   6.454   0.188   7.798  0.2949 -0.7275 -0.7488
39331SOL    HW123123   6.450   0.181   7.894  0.5320 -1.3318 -0.7783
39331SOL    HW223124   6.363   0.198   7.772  0.3912  1.5116 -0.3260
39332SOL     OW23125   6.067   9.984   2.684  0.1914  0.5918  0.8045
39332SOL    HW123126   6.034   9.907   2.638  1.1523 -0.2043  1.4381
39332SOL    HW223127   6.031  10.058   2.634 -2.0031 -0.2351  1.1170
39333SOL     OW23128  11.171   7.207   9.188  0.3746 -0.0465 -0.0549
39333SOL    HW123129  11.222   7.264   9.245  0.9788 -0.1452 -0.5024
39333SOL    HW223130  11.171   7.122   9.232  2.8452 -0.7499 -1.3808
39334SOL     OW23131   4.590   2.981   6.373 -0.2182 -0.6418 -0.4105
39334SOL    HW123132   4.552   2.964   6.287  0.1096 -0.0387 -0.6771
39334SOL    HW223133   4.662   3.041   6.356  0.5239 -1.3579  0.1603
39335SOL     OW23134  10.081   2.372   5.441 -0.1311 -0.2150 -0.1946
39335SOL    HW123135  10.052   2.299   5.385 -0.1206  0.3905 -0.9953
39335SOL    HW223136  10.127   2.329   5.513 -3.5007 -1.2655  1.4711
39336SOL     OW23137   7.387   8.688   0.634  0.1135 -0.0209 -0.1368
39336SOL    HW123138   7.358   8.778   0.649  0.2522 -0.0635  0.4037
39336SOL    HW223139   7.394   8.680   0.539  1.8836  1.1160 -0.1280
39337SOL     OW23140   0.585   9.562   1.071 -0.2192 -0.1402 -0.3412
39337SOL    HW123141   0.501   9.519   1.090 -0.3026 -0.1052 -0.6257
39337SOL    HW223142   0.561   9.642   1.025 -0.0348 -0.0610 -0.2987
39338SOL     OW23143   2.660   5.757   6.254 -0.1749  0.5934  0.5351
39338SOL    HW123144   2.634   5.769   6.345 -0.4128  0.3842  0.4968
39338SOL    HW223145   2.600   5.812   6.203  0.3402  1.1710  0.5469
39339SOL     OW23146   9.823   2.902   0.762 -0.1682 -0.4155 -0.2740
39339SOL    HW123147   9.910   2.892   0.800 -0.5086 -0.8518  0.3978
39339SOL    HW223148   9.830   2.979   0.706  0.1395  0.6786  1.2544
39340SOL     OW23149   2.726  10.391   7.974 -0.5549  0.2041  0.1011
39340SOL    HW123150   2.770  10.429   8.051 -1.4363 -0.5448  0.9984
39340SOL    HW223151   2.794  10.341   7.930  0.0423  0.9033  0.2138
39341SOL     OW23152   0.990   4.851   6.335  0.6929 -0.1479  0.1597
39341SOL    HW123153   0.921   4.843   6.270 -1.1148  1.6229  1.7831
39341SOL    HW223154   1.070   4.823   6.290 -0.4600  1.2307 -2.8696
39342SOL     OW23155   9.958   4.131   3.854 -0.3097  0.2803 -0.1630
39342SOL    HW123156   9.989   4.203   3.909 -2.4488  1.7508 -0.8350
39342SOL    HW223157   9.905   4.077   3.914  0.8241 -0.4639  0.1987
39343SOL     OW23158   7.054   6.935   7.628  0.0341  1.0882 -0.1832
39343SOL    HW123159   7.065   6.866   7.563  1.0015  0.0287  1.0724
39343SOL    HW223160   7.111   6.909   7.700 -0.3792  2.6735  0.7377
39344SOL     OW23161   4.863   8.540   3.474  0.1354 -0.4970 -0.0371
39344SOL    HW123162   4.816   8.570   3.396 -0.7158 -2.9567 -0.5400
39344SOL    HW223163   4.903   8.618   3.510 -1.4272  1.0830 -1.6194
39345SOL     OW23164  10.970   9.746  10.785 -0.0056 -0.5754 -0.0118
39345SOL    HW123165  11.023   9.690  10.729 -1.9594 -1.3332 -1.1485
39345SOL    HW223166  10.966   9.700  10.869  1.8458 -0.0690  0.3763
39346SOL     OW23167   7.624   6.997   8.153 -0.6933  0.7486  0.1970
39346SOL    HW123168   7.635   6.910   8.115 -0.2154  0.5932  0.6741
39346SOL    HW223169   7.616   7.056   8.078  0.2561  0.4475 -0.1433
39347SOL     OW23170   6.046   3.623   8.610 -0.1089 -0.3021  0.4475
39347SOL    HW123171   6.096   3.556   8.657 -1.3004 -0.5969  1.3074
39347SOL    HW223172   6.066   3.704   8.657  2.2060  0.1645 -1.2627
39348SOL     OW23173   3.571  11.246   6.118 -0.0818 -0.3176  0.0728
39348SOL    HW123174   3.495  11.190   6.133  0.5911 -0.8753  1.4952
39348SOL    HW223175   3.582  11.247   6.023 -2.1980  0.2313 -0.1850
39349SOL     OW23176  11.258   9.813   7.774  0.2197  0.6415 -0.2392
39349SOL    HW123177  11.231   9.858   7.694 -0.2934  1.5281  0.4211
39349SOL    HW223178  11.353   9.825   7.776  0.1282  1.3963 -0.2537
39350SOL     OW23179  10.439   0.690  11.048  0.7288  0.3136 -0.0402
39350SOL    HW123180  10.381   0.754  11.090 -0.5429 -1.2984  0.7380
39350SOL    HW223181  10.482   0.645  11.120  1.8247  0.4699 -0.5902
39351SOL     OW23182   2.969   3.589   4.903  0.3720 -0.1612 -0.4650
39351SOL    HW123183   2.971   3.501   4.939 -0.3157 -0.1841 -0.4814
39351SOL    HW223184   2.951   3.578   4.810  2.1573 -0.1002 -0.8380
39352SOL     OW23185   2.006   5.875   3.626 -0.0424  0.7259 -0.1781
39352SOL    HW123186   1.938   5.942   3.619 -0.0034  1.0134  1.8557
39352SOL    HW223187   2.007   5.852   3.719 -0.9191 -3.0532 -1.0510
39353SOL     OW23188   0.941   4.240   6.862 -0.1307 -0.4546 -0.4853
39353SOL    HW123189   0.928   4.194   6.779 -0.9166 -0.7568 -0.2059
39353SOL    HW223190   0.868   4.302   6.866 -0.1453 -0.5038  0.0171
39354SOL     OW23191   1.379   0.500   3.651  0.1192  0.4151 -0.5026
39354SOL    HW123192   1.328   0.431   3.694 -1.2691  1.8744  0.2530
39354SOL    HW223193   1.424   0.456   3.580 -0.4697 -1.3427  0.1894
39355SOL     OW23194  10.066   5.494   4.649 -0.4312 -0.2269 -0.5780
39355SOL    HW123195  10.119   5.571   4.669  1.5171 -1.1463 -2.0203
39355SOL    HW223196   9.994   5.527   4.597 -1.0653  0.9779  1.0176
39356SOL     OW23197   7.351   9.808   3.651 -0.2239 -0.1062  0.0839
39356SOL    HW123198   7.443   9.804   3.679 -0.3092  0.4654  0.4627
39356SOL    HW223199   7.345   9.888   3.600 -0.6902  0.2880  0.7406
39357SOL     OW23200   7.884   8.781   6.253 -0.2716 -0.3427  0.0375
39357SOL    HW123201   7.903   8.688   6.260 -1.4086 -0.4766  1.5844
39357SOL    HW223202   7.943   8.813   6.184  1.4304 -1.8367  0.7603
39358SOL     OW23203   5.342   1.841   1.939  0.0493 -0.8529  0.2475
39358SOL    HW123204   5.320   1.758   1.897  1.0406 -0.2279 -1.5579
39358SOL    HW223205   5.427   1.826   1.980 -1.0500 -1.5505  2.3464
39359SOL     OW23206   6.805   9.196   6.751 -0.1989 -0.7149 -0.2554
39359SOL    HW123207   6.820   9.183   6.845 -1.6724 -1.1601 -0.0655
39359SOL    HW223208   6.867   9.136   6.709  0.5913 -0.3897  0.4189
39360SOL     OW23209   4.844   9.882  10.376  0.0412 -0.3393 -0.6820
39360SOL    HW123210   4.784   9.924  10.314 -0.1748  0.7605  0.2495
39360SOL    HW223211   4.793   9.875  10.457  0.6117 -0.9524 -0.3738
39361SOL     OW23212   7.475   6.231  10.991 -0.0686  0.6304 -0.1683
39361SOL    HW123213   7.553   6.272  11.028 -0.3594 -1.0484  2.4476
39361SOL    HW223214   7.402   6.269  11.039 -0.6922  0.4325 -0.9397
39362SOL     OW23215   4.489   4.026   5.485 -0.2262  0.1617  0.1625
39362SOL    HW123216   4.542   3.992   5.558  0.9204  0.8420 -0.3453
39362SOL    HW223217   4.517   4.117   5.476 -1.3495  0.4646 -0.2443
39363SOL     OW23218   4.983   5.508   7.624 -0.2991 -0.0094 -0.8402
39363SOL    HW123219   5.055   5.528   7.564  0.1975 -1.4804 -0.7517
39363SOL    HW223220   4.914   5.570   7.601  0.8246  1.1109 -1.2334
39364SOL     OW23221   9.285   6.510  10.883 -0.0385 -0.2269 -0.5994
39364SOL    HW123222   9.205   6.459  10.900  0.3748 -2.0935 -3.9107
39364SOL    HW223223   9.356   6.448  10.898  0.7286  0.9508  0.6487
39365SOL     OW23224   9.105   6.721   7.067  0.8165  0.3921 -0.2471
39365SOL    HW123225   9.145   6.686   6.987 -1.5799 -0.3671 -1.1622
39365SOL    HW223226   9.149   6.675   7.138 -0.2602 -2.4048 -1.3294
39366SOL     OW23227   1.112   3.011   8.150  0.6722  0.1752  0.3773
39366SOL    HW123228   1.032   2.970   8.183 -0.1446  0.4852 -1.1672
39366SOL    HW223229   1.081   3.084   8.096  1.9896  0.0938 -0.5119
39367SOL     OW23230   6.204  10.958   3.471  0.7916 -0.0742 -0.0494
39367SOL    HW123231   6.297  10.979   3.459  1.0986 -0.6318  1.2642
39367SOL    HW223232   6.191  10.878   3.419  1.3298 -0.6485  0.6864
39368SOL     OW23233   4.664   2.511   9.166 -0.2807  0.2312  0.1066
39368SOL    HW123234   4.658   2.474   9.078 -0.1887  0.6789 -0.0859
39368SOL    HW223235   4.632   2.441   9.223 -1.3228  0.3049 -0.3719
39369SOL     OW23236   7.415   7.180   1.397  0.5106  0.4575  0.0040
39369SOL    HW123237   7.469   7.151   1.470 -0.9214 -1.1644  0.4507
39369SOL    HW223238   7.329   7.197   1.436 -0.2584 -0.3966 -1.2600
39370SOL     OW23239   2.373   7.884   3.948 -0.5587  0.0262 -0.1859
39370SOL    HW123240   2.298   7.933   3.981  0.7013  0.1580  2.6581
39370SOL    HW223241   2.353   7.793   3.967 -0.9251 -0.1381 -1.3571
39371SOL     OW23242  10.840   8.633   3.488  0.1880  0.3708  0.0600
39371SOL    HW123243  10.751   8.603   3.468  0.4600  0.2514 -1.0316
39371SOL    HW223244  10.896   8.575   3.436  0.8394  1.1883 -0.1438
39372SOL     OW23245   2.496   1.813   2.882  0.0713 -0.4918  0.3358
39372SOL    HW123246   2.485   1.811   2.978 -0.4984  0.3435  0.2955
39372SOL    HW223247   2.584   1.850   2.869  0.2672 -0.8849  0.5434
39373SOL     OW23248   7.765   7.303   3.292 -0.3274 -0.1010 -0.0087
39373SOL    HW123249   7.798   7.235   3.350  0.1070 -0.1971 -0.3560
39373SOL    HW223250   7.762   7.382   3.346 -1.6725 -0.5881  0.6300
39374SOL     OW23251   2.727   1.793  10.383  0.2749  0.2715  0.6345
39374SOL    HW123252   2.822   1.782  10.390  0.3217  0.5138  0.3814
39374SOL    HW223253   2.715   1.867  10.324 -0.1021 -1.6712 -1.7812
39375SOL     OW23254   1.131   5.314   3.372 -0.0764 -0.0051  0.3138
39375SOL    HW123255   1.149   5.274   3.457  0.5713 -1.0726 -0.3175
39375SOL    HW223256   1.138   5.242   3.309  1.3606  1.1386 -0.8741
39376SOL     OW23257   4.509   3.449  10.410 -0.0777 -0.1378 -0.2587
39376SOL    HW123258   4.541   3.526  10.457  1.5479 -1.0066  0.1156
39376SOL    HW223259   4.582   3.388  10.412 -1.6987 -2.1324  0.4369
39377SOL     OW23260   9.782  11.188   6.508 -0.2340 -0.0323 -0.1653
39377SOL    HW123261   9.827  11.254   6.560 -2.2047 -0.0083  1.6009
39377SOL    HW223262   9.844  11.163   6.440  1.3248  2.0580  0.4706
39378SOL     OW23263   4.307   0.681   9.933 -0.2922  0.2475 -0.2242
39378SOL    HW123264   4.281   0.710  10.021  0.2735  0.5105 -0.1399
39378SOL    HW223265   4.290   0.757   9.878 -1.1719 -0.1016 -0.4427
39379SOL     OW23266   0.209   1.291   7.894  0.6822 -0.3664  0.1390
39379SOL    HW123267   0.201   1.223   7.828  0.3091 -1.3932  1.2215
39379SOL    HW223268   0.214   1.373   7.845  1.1051 -1.1726 -1.1721
39380SOL     OW23269   4.360   6.144   4.126 -0.5505 -0.0219 -0.2130
39380SOL    HW123270   4.398   6.224   4.163  3.2619 -1.6166 -0.4815
39380SOL    HW223271   4.292   6.119   4.189 -0.2506  2.1955  1.0438
39381SOL     OW23272  11.046   3.311   5.304  0.4422 -0.0476 -0.1194
39381SOL    HW123273  10.978   3.245   5.316 -0.0415  0.8457  2.1807
39381SOL    HW223274  11.025   3.379   5.367  2.2290  1.2661 -0.9125
39382SOL     OW23275   1.084   9.892   8.265 -0.1035  0.2648  0.5029
39382SOL    HW123276   0.995   9.922   8.246 -1.2593 -2.0767  2.0882
39382SOL    HW223277   1.115   9.856   8.182 -0.8433  0.5222  0.1044
39383SOL     OW23278   3.666   7.517   8.329  0.5544  0.7864  0.5816
39383SOL    HW123279   3.753   7.484   8.351  0.1151 -2.7074 -2.3226
39383SOL    HW223280   3.682   7.606   8.296  2.8975  0.5913  1.0834
39384SOL     OW23281   0.014   0.409   7.704  0.0500 -0.0209  0.2944
39384SOL    HW123282  -0.023   0.457   7.778 -1.6117 -1.1295  0.2093
39384SOL    HW223283  -0.060   0.359   7.668  0.6461  0.9886 -2.5294
39385SOL     OW23284   8.076   1.442   6.904  0.1496 -0.1796  0.5543
39385SOL    HW123285   8.108   1.418   6.816 -0.3910  0.4054  0.1942
39385SOL    HW223286   8.000   1.386   6.917 -2.0382  2.3583 -0.9205
39386SOL     OW23287   5.324  11.130   5.091 -0.3462  0.6708  0.3305
39386SOL    HW123288   5.349  11.133   4.999 -1.7284 -2.2100 -0.2117
39386SOL    HW223289   5.265  11.205   5.103 -0.2062  1.0309 -1.1493
39387SOL     OW23290   2.722   2.554   0.081 -0.8308 -0.3848 -0.7992
39387SOL    HW123291   2.797   2.576   0.026 -1.1330 -0.4856 -1.2559
39387SOL    HW223292   2.653   2.615   0.053 -0.4930  0.6412  0.5809
39388SOL     OW23293   3.242   5.288   8.668 -0.0335 -0.1348  0.2835
39388SOL    HW123294   3.179   5.300   8.597  1.2849  1.4587 -0.6434
39388SOL    HW223295   3.206   5.215   8.720 -2.7934  0.9593 -0.0201
39389SOL     OW23296   8.516   7.133   2.771  0.0486 -0.4711  0.9481
39389SOL    HW123297   8.507   7.040   2.752  0.7003 -0.3344 -0.1279
39389SOL    HW223298   8.610   7.145   2.789  0.1754  0.1540 -0.0534
39390SOL     OW23299   4.614   8.149   9.837  0.1794  0.8460  0.2910
39390SOL    HW123300   4.565   8.169   9.757 -0.9293 -0.9783  0.4811
39390SOL    HW223301   4.577   8.208   9.903 -1.0109  0.2729  0.1623
39391SOL     OW23302   9.460   2.178   7.856 -0.1920  0.3301 -0.3438
39391SOL    HW123303   9.389   2.119   7.884  1.1239 -1.5210 -0.8208
39391SOL    HW223304   9.470   2.160   7.762  0.5906  0.9162 -0.3748
39392SOL     OW23305   2.151   7.594   8.005 -0.1371  0.1175  0.2500
39392SOL    HW123306   2.086   7.534   7.968 -0.2997  0.3889  0.0918
39392SOL    HW223307   2.195   7.631   7.929 -0.1914  0.3684  0.3401
39393SOL     OW23308   6.897   0.719  10.071 -0.3281  0.2506  0.5477
39393SOL    HW123309   6.862   0.713   9.982 -0.2762  1.9219  0.4094
39393SOL    HW223310   6.985   0.755  10.059 -0.6510  1.3123  1.3423
39394SOL     OW23311   8.984  10.136   0.670  0.5396  0.0711 -0.6290
39394SOL    HW123312   8.995  10.133   0.575 -0.0659 -1.5247 -0.6609
39394SOL    HW223313   8.892  10.116   0.684  0.4370  1.1385  0.2634
39395SOL     OW23314  11.081   0.463   0.981 -0.0268  0.4706  0.0918
39395SOL    HW123315  10.986   0.469   0.971 -0.2311  1.4423  2.2093
39395SOL    HW223316  11.111   0.416   0.904 -2.0555  1.5297 -1.3927
39396SOL     OW23317   9.562   6.403   3.219 -0.2188 -0.8709 -0.1251
39396SOL    HW123318   9.472   6.434   3.208 -0.3032 -0.5605  1.4113
39396SOL    HW223319   9.563   6.318   3.173 -0.6154  0.2492 -2.2657
39397SOL     OW23320   8.314   3.753   6.885  0.4539 -0.2610  0.4196
39397SOL    HW123321   8.254   3.682   6.905  1.4867 -1.0701  0.6611
39397SOL    HW223322   8.355   3.775   6.968  1.6715 -0.8060 -0.0243
39398SOL     OW23323   6.073   4.835   9.184 -0.3701  0.0476 -0.1287
39398SOL    HW123324   6.064   4.742   9.202  2.2219  0.3497  3.1880
39398SOL    HW223325   6.009   4.878   9.241  1.7891  0.4889  2.0890
39399SOL     OW23326   5.063   1.217   6.216 -0.4714  0.7989 -0.4289
39399SOL    HW123327   5.081   1.292   6.160  0.5324  0.3673 -0.6965
39399SOL    HW223328   5.036   1.255   6.299 -0.3308  1.4539 -0.6784
39400SOL     OW23329   3.784   2.712   4.548  0.3877  0.6888 -0.4963
39400SOL    HW123330   3.813   2.665   4.470  0.2805  2.2977 -1.5078
39400SOL    HW223331   3.757   2.642   4.608 -1.2390 -0.4911 -2.5523
39401SOL     OW23332   7.007   9.452   9.552  0.0246  0.2729  0.2019
39401SOL    HW123333   6.983   9.452   9.644 -0.7267  0.6904  0.0053
39401SOL    HW223334   6.955   9.381   9.513 -0.5463  0.8684 -0.1293
39402SOL     OW23335  11.020   1.280   5.548 -0.4600  0.4669  0.5293
39402SOL    HW123336  10.963   1.350   5.579 -0.5737  0.3480  0.5880
39402SOL    HW223337  10.960   1.214   5.514 -0.3266  0.7248 -0.2275
39403SOL     OW23338   6.725   0.888   6.566  0.2340 -0.0011 -0.1040
39403SOL    HW123339   6.705   0.850   6.652  0.2678  1.1168  0.4000
39403SOL    HW223340   6.678   0.832   6.504  1.2624 -1.5963  0.5374
39404SOL     OW23341   8.046   8.866   6.474  0.6609  0.2855 -0.4627
39404SOL    HW123342   7.987   8.836   6.406  2.0569  2.7938 -2.8779
39404SOL    HW223343   8.111   8.796   6.482 -1.3561 -1.4928  0.6674
39405SOL     OW23344   9.593  10.037   1.593 -0.0984 -0.0609  0.2517
39405SOL    HW123345   9.592   9.953   1.547 -0.2358 -0.5989  1.2411
39405SOL    HW223346   9.578  10.015   1.685  0.9898  0.9388  0.6798
39406SOL     OW23347  10.749   1.389  10.096  0.2686 -0.0763 -0.1723
39406SOL    HW123348  10.701   1.340  10.029  2.1359 -1.2852 -0.6741
39406SOL    HW223349  10.835   1.407  10.057  0.7433  0.7990  1.2127
39407SOL     OW23350   5.952   6.610  10.002 -0.6088  0.1662  0.1424
39407SOL    HW123351   5.885   6.592  10.068 -0.6812  0.7393  0.2283
39407SOL    HW223352   5.986   6.696  10.025  0.9742 -0.6033  0.7754
39408SOL     OW23353   1.802   2.828   7.855 -0.0407  0.4463 -0.0066
39408SOL    HW123354   1.784   2.890   7.784 -1.4657  0.1025  0.0319
39408SOL    HW223355   1.756   2.864   7.931 -1.7401 -1.1551 -0.2382
39409SOL     OW23356  10.423   1.678   0.959  0.1932  0.0719 -0.1122
39409SOL    HW123357  10.425   1.759   1.009  0.7724  0.4561 -0.7584
39409SOL    HW223358  10.458   1.701   0.873  3.0627 -1.4544  0.5626
39410SOL     OW23359  10.869  10.385   9.686  0.4795  0.4756  0.2918
39410SOL    HW123360  10.775  10.380   9.704  0.7279  0.1850  1.5981
39410SOL    HW223361  10.910  10.387   9.773  1.7178 -0.0660 -0.2627
39411SOL     OW23362   8.555   7.519   9.523  0.3269  0.3422  0.5733
39411SOL    HW123363   8.496   7.534   9.449  1.0914 -0.9106 -0.3028
39411SOL    HW223364   8.505   7.461   9.581  0.3094  0.0673  0.2904
39412SOL     OW23365   1.140   4.885  10.150  0.1164  0.2237  0.3505
39412SOL    HW123366   1.058   4.909  10.106  0.3961  0.6088  0.0255
39412SOL    HW223367   1.157   4.795  10.123  1.6693  1.3148 -2.5196
39413SOL     OW23368   7.094   7.831   7.712 -0.3897  0.1005  0.0896
39413SOL    HW123369   7.098   7.924   7.736 -0.1422  0.1909 -0.3031
39413SOL    HW223370   7.064   7.831   7.621  4.7604  0.0464 -1.7505
39414SOL     OW23371   9.109   2.294   2.660 -0.1339 -0.3987 -0.3029
39414SOL    HW123372   9.135   2.215   2.612 -0.4489  1.4699 -3.6167
39414SOL    HW223373   9.027   2.321   2.620  0.2481  1.9336  0.4409
39415SOL     OW23374   5.869  10.387   9.882 -0.6571 -0.2637 -0.1685
39415SOL    HW123375   5.879  10.368   9.788 -0.7433  0.3670 -0.3091
39415SOL    HW223376   5.949  10.353   9.922 -1.5119 -2.3625 -0.1802
39416SOL     OW23377   7.536   4.497   4.028  0.3931  0.0240 -0.4334
39416SOL    HW123378   7.480   4.470   3.955 -2.1121  0.7676  1.1642
39416SOL    HW223379   7.548   4.417   4.079 -1.3452  0.3855  0.5826
39417SOL     OW23380   5.575   1.618   4.129 -0.4964 -0.1879 -0.2843
39417SOL    HW123381   5.517   1.588   4.059 -1.3529  1.4837 -0.3120
39417SOL    HW223382   5.641   1.672   4.084 -0.5525  0.1894  0.0849
39418SOL     OW23383   2.393   6.393   1.926 -0.7300 -0.0227  0.4126
39418SOL    HW123384   2.339   6.340   1.985 -3.4020  0.5254 -1.4729
39418SOL    HW223385   2.333   6.460   1.893  0.8245 -0.0473 -2.5848
39419SOL     OW23386   6.527   7.062   2.044 -0.0392  0.2832  0.1288
39419SOL    HW123387   6.586   7.110   2.103  0.2211 -0.2753  0.3175
39419SOL    HW223388   6.440   7.074   2.083 -0.1269  1.5280 -0.4228
39420SOL     OW23389   2.131   2.207   7.332  0.1181  0.4251 -0.6067
39420SOL    HW123390   2.037   2.211   7.310 -0.2148  0.2715  0.7399
39420SOL    HW223391   2.144   2.118   7.364  0.1260  1.2766  1.8019
39421SOL     OW23392   1.613   1.743  10.810  0.0105 -0.5440 -0.0485
39421SOL    HW123393   1.673   1.814  10.832 -0.1869 -0.8464  1.4798
39421SOL    HW223394   1.551   1.783  10.748  1.4225 -0.0794 -1.1861
39422SOL     OW23395   1.736  10.602  10.586  0.0354 -0.4827  0.2448
39422SOL    HW123396   1.776  10.515  10.580 -1.5064 -1.1772 -0.3746
39422SOL    HW223397   1.687  10.600  10.668  0.6683  0.1003  0.6392
39423SOL     OW23398   7.172   3.115   7.665  0.1977  0.0812 -0.2173
39423SOL    HW123399   7.134   3.031   7.695  0.4374  0.0463 -0.0124
39423SOL    HW223400   7.130   3.130   7.580  1.0804 -0.8704 -0.8354
39424SOL     OW23401   3.992   5.892   3.878 -0.0599  0.7506  0.5892
39424SOL    HW123402   3.948   5.851   3.953  1.7915 -0.1568  1.2128
39424SOL    HW223403   4.080   5.911   3.910  1.1581 -0.7905 -1.7349
39425SOL     OW23404   1.440   8.865   8.343  0.0543  0.9429  0.1958
39425SOL    HW123405   1.351   8.853   8.378  0.0033  0.5953 -0.0530
39425SOL    HW223406   1.472   8.944   8.388 -0.0293  0.5405  0.9800
39426SOL     OW23407   5.431  11.078   7.826 -0.2546 -0.1882 -0.2064
39426SOL    HW123408   5.478  11.095   7.908  0.2753 -0.4155 -0.4623
39426SOL    HW223409   5.450  10.987   7.806 -1.5566 -0.5602  0.1702
39427SOL     OW23410   8.213   9.137   0.853  0.2932 -0.2009  0.2948
39427SOL    HW123411   8.283   9.117   0.915  0.1868 -0.0473  0.4666
39427SOL    HW223412   8.181   9.223   0.880  0.1559 -0.1937  0.1079
39428SOL     OW23413   7.430  11.159   4.109 -0.3824 -0.4281  0.6029
39428SOL    HW123414   7.459  11.069   4.090 -1.5385 -0.4470 -1.1322
39428SOL    HW223415   7.512  11.209   4.116  0.1892 -1.0173 -1.5241
39429SOL     OW23416   3.013   4.098   3.763 -0.1151  0.0914 -0.7384
39429SOL    HW123417   3.033   4.191   3.773  0.5462 -0.0798 -0.4001
39429SOL    HW223418   2.990   4.069   3.852 -1.4027  0.1746 -1.0398
39430SOL     OW23419   0.695  10.442   1.101  0.1192 -0.5266 -0.6812
39430SOL    HW123420   0.714  10.534   1.086  1.4684 -0.8944 -1.2632
39430SOL    HW223421   0.707  10.429   1.195 -1.7965  0.2748 -0.3041
39431SOL     OW23422   6.078   6.790   9.445  0.1907 -0.0184  0.4876
39431SOL    HW123423   6.071   6.778   9.350 -0.2555  0.8278  0.3986
39431SOL    HW223424   6.049   6.881   9.459  1.8552  0.4171  1.2472
39432SOL     OW23425   3.289   1.077   8.330  0.0106  0.3336  0.7307
39432SOL    HW123426   3.202   1.039   8.323  0.2847 -0.3543  0.9903
39432SOL    HW223427   3.314   1.098   8.240  0.5257 -1.6452  0.3837
39433SOL     OW23428   7.859   1.071   6.587  0.4986  0.0169  0.4386
39433SOL    HW123429   7.847   1.055   6.494  0.6559 -2.0863  0.7546
39433SOL    HW223430   7.954   1.064   6.601  0.5523  1.0680  0.6344
39434SOL     OW23431   4.507   3.152   7.664  0.0956 -0.3350 -0.2549
39434SOL    HW123432   4.563   3.079   7.690  2.2296  1.2557 -0.2516
39434SOL    HW223433   4.563   3.207   7.609 -1.4647  1.3017 -0.2486
39435SOL     OW23434   0.322   6.451  10.229  0.1716  0.4428  0.1451
39435SOL    HW123435   0.395   6.512  10.236  0.0782  0.6224 -0.4208
39435SOL    HW223436   0.306   6.444  10.135 -1.1556  1.1462  0.2983
39436SOL     OW23437   9.321   1.718   5.583 -0.5586  0.1451 -0.4728
39436SOL    HW123438   9.326   1.795   5.640  2.4733 -1.0550  0.9504
39436SOL    HW223439   9.293   1.647   5.640 -2.5896 -0.0376 -1.6330
39437SOL     OW23440   1.897   8.154   8.826 -0.2090 -0.0932  0.4019
39437SOL    HW123441   1.870   8.191   8.910  0.4825  1.3830 -0.0008
39437SOL    HW223442   1.984   8.192   8.811 -0.1158 -0.7486 -0.7322
39438SOL     OW23443   2.029   4.596   2.471  0.3205 -0.5683 -0.1350
39438SOL    HW123444   1.945   4.554   2.490 -0.1533  1.1388  1.8302
39438SOL    HW223445   2.091   4.552   2.529  0.2146  0.0660  0.4668
39439SOL     OW23446   2.045  10.770   1.373 -0.1342  0.0019 -0.1979
39439SOL    HW123447   1.974  10.826   1.343 -0.9277 -1.6922 -1.6122
39439SOL    HW223448   2.119  10.793   1.316 -0.7232 -0.9894 -1.3929
39440SOL     OW23449   1.351   9.424   1.300 -0.1824  0.1514  0.0887
39440SOL    HW123450   1.261   9.446   1.325 -0.2557 -0.8212  0.6860
39440SOL    HW223451   1.342   9.368   1.222 -0.1507 -1.0289  0.9259
39441SOL     OW23452   8.981  10.382   4.956  0.4282  0.2996  0.4291
39441SOL    HW123453   9.076  10.394   4.957  0.6388 -1.0504 -1.0474
39441SOL    HW223454   8.968  10.295   4.919 -1.5352  2.4412 -4.3652
39442SOL     OW23455   4.744   7.473   2.985  0.5131 -0.0716  0.2150
39442SOL    HW123456   4.793   7.391   2.979  1.0581  0.3327 -1.1135
39442SOL    HW223457   4.653   7.447   2.995  0.6129 -0.8428 -0.8581
39443SOL     OW23458   2.937   8.852   4.023  0.3526 -0.0816  0.1759
39443SOL    HW123459   2.900   8.904   3.952 -0.9971 -1.4038 -0.1312
39443SOL    HW223460   2.876   8.864   4.096  1.0919  0.3196  0.7344
39444SOL     OW23461   8.758   9.711   3.544  0.4011  0.4182  0.1165
39444SOL    HW123462   8.827   9.778   3.550  0.6755  0.3021 -1.3638
39444SOL    HW223463   8.711   9.733   3.463 -0.7962  0.0179  0.6937
39445SOL     OW23464   0.538   0.630   3.483 -0.0472 -0.4566 -0.0995
39445SOL    HW123465   0.626   0.666   3.475 -0.2716  0.3762  1.0970
39445SOL    HW223466   0.551   0.535   3.480  0.8259 -0.3332 -0.4547
39446SOL     OW23467   1.377   1.854  10.729  0.5774  0.4649 -0.2890
39446SOL    HW123468   1.352   1.872  10.820  0.3013 -0.6405 -0.1416
39446SOL    HW223469   1.346   1.930  10.680  0.5449  0.9730  0.5089
39447SOL     OW23470   3.700   5.180   9.618 -0.4483 -0.2418  0.5152
39447SOL    HW123471   3.693   5.145   9.529 -2.0524  0.5216  0.3129
39447SOL    HW223472   3.728   5.271   9.606 -0.1551 -0.2958  0.8069
39448SOL     OW23473   4.316   5.504   2.905  0.3891  0.2170 -0.5329
39448SOL    HW123474   4.275   5.520   2.990  1.0560 -0.9183  0.0205
39448SOL    HW223475   4.336   5.410   2.906  0.4001  0.1937 -1.9459
39449SOL     OW23476   2.225   4.786   3.073  0.4415 -0.2782 -0.2550
39449SOL    HW123477   2.130   4.774   3.080  0.7221 -2.5700 -0.0868
39449SOL    HW223478   2.257   4.777   3.162  0.9704 -1.0719 -0.5195
39450SOL     OW23479   0.422   4.551   4.321 -0.3669 -0.1370  0.0222
39450SOL    HW123480   0.413   4.577   4.229  0.2721  0.6652  0.1837
39450SOL    HW223481   0.464   4.626   4.363  1.1249 -1.2508  0.5703
39451SOL     OW23482   3.547   8.716   1.936  0.1601  0.2426 -0.9744
39451SOL    HW123483   3.456   8.743   1.922 -0.0143  0.3511  0.3194
39451SOL    HW223484   3.549   8.687   2.027  1.5751  0.8284 -0.8162
39452SOL     OW23485   6.673   5.362   4.313 -0.4312 -0.0526 -0.1066
39452SOL    HW123486   6.744   5.299   4.305  0.0248  0.5843 -1.2356
39452SOL    HW223487   6.683   5.419   4.237 -1.9026  0.2926 -0.0635
39453SOL     OW23488  10.585   4.465   2.239  0.2523 -0.5145  0.5194
39453SOL    HW123489  10.521   4.397   2.257  0.5622 -0.4244  2.0871
39453SOL    HW223490  10.662   4.440   2.291  0.0268  1.5116  1.8711
39454SOL     OW23491   2.801   7.185   8.326 -0.4159 -0.1760  0.0783
39454SOL    HW123492   2.813   7.097   8.361 -1.0598 -0.1868  0.2801
39454SOL    HW223493   2.717   7.181   8.280 -0.5115  0.3654  0.2021
39455SOL     OW23494   9.864   5.831   9.580 -0.0996  0.6277 -0.2236
39455SOL    HW123495   9.886   5.770   9.509  0.7228  0.2078  0.3860
39455SOL    HW223496   9.792   5.883   9.545 -1.3743 -1.2345 -0.4761
39456SOL     OW23497   7.426   6.670   5.585 -0.2125  0.3115  0.0496
39456SOL    HW123498   7.417   6.667   5.680 -4.1387  2.3882 -0.1518
39456SOL    HW223499   7.496   6.734   5.570  0.2462  0.1655  1.5362
39457SOL     OW23500   0.981   3.108   4.247  0.2711  0.0166  0.5442
39457SOL    HW123501   0.965   3.202   4.258 -1.6299 -0.2500  0.1337
39457SOL    HW223502   0.898   3.066   4.267  1.1714 -1.6240  0.9847
39458SOL     OW23503   9.110   5.528   9.513  0.3965 -0.4313 -0.1142
39458SOL    HW123504   9.102   5.589   9.587  1.0895  2.7362 -2.5128
39458SOL    HW223505   9.026   5.533   9.468  1.1689  0.4840 -1.5268
39459SOL     OW23506   6.548   9.330   0.217  0.4982 -0.1565  0.0717
39459SOL    HW123507   6.468   9.373   0.245  1.4244  2.3165 -0.9256
39459SOL    HW223508   6.564   9.364   0.129  1.2368 -2.6301 -0.7761
39460SOL     OW23509   3.002   2.321  10.521  0.3254  0.7490  0.9176
39460SOL    HW123510   2.998   2.305  10.615  2.2362  1.3790  1.1143
39460SOL    HW223511   2.954   2.403  10.508  1.7281  1.6829  1.5985
39461SOL     OW23512   6.966  10.127   2.482  0.4234  0.3453 -0.0163
39461SOL    HW123513   6.907  10.112   2.408  0.1695  2.9807 -0.3907
39461SOL    HW223514   6.916  10.096   2.558 -0.2182 -0.2906 -0.6889
39462SOL     OW23515   5.253   6.196   3.998 -0.2347 -0.4215 -0.8005
39462SOL    HW123516   5.220   6.243   4.075  1.4439 -1.3374  0.5073
39462SOL    HW223517   5.207   6.112   3.999 -2.0591  0.5333 -2.2372
39463SOL     OW23518   9.096   4.191   9.299  0.3039  0.1141 -0.1604
39463SOL    HW123519   9.087   4.155   9.210 -1.1074 -2.5653  0.9947
39463SOL    HW223520   9.190   4.206   9.309  0.4796  0.5112 -2.1303
39464SOL     OW23521   5.386   1.660  11.276  0.5411  0.2814 -0.5983
39464SOL    HW123522   5.291   1.665  11.266  0.4190 -0.4625  0.1142
39464SOL    HW223523   5.401   1.578  11.322  1.4953  0.6537 -0.2262
39465SOL     OW23524  10.327   7.675   7.956 -0.1813  0.2407 -0.0552
39465SOL    HW123525  10.317   7.661   8.050 -1.6168  0.4981 -0.1582
39465SOL    HW223526  10.323   7.770   7.945 -0.8515  0.1690 -0.4590
39466SOL     OW23527   9.408   7.019   7.130  0.1627 -0.4645 -0.0467
39466SOL    HW123528   9.389   7.030   7.037 -1.5567  1.0775  0.4492
39466SOL    HW223529   9.437   7.105   7.160  1.4656 -1.1424  0.6902
39467SOL     OW23530   0.347  10.534   8.929  0.5944 -0.2453 -0.5189
39467SOL    HW123531   0.422  10.544   8.870  2.4902  2.8132  2.2255
39467SOL    HW223532   0.271  10.551   8.873  2.2033  0.8495 -2.4999
39468SOL     OW23533   2.379   5.381   7.573 -0.3380  0.4551 -0.1651
39468SOL    HW123534   2.429   5.300   7.563 -0.1740  0.3476  1.4842
39468SOL    HW223535   2.304   5.357   7.627 -1.0473  1.0947 -0.8552
39469SOL     OW23536   1.207   7.317   4.782 -0.5284  0.0265  0.4026
39469SOL    HW123537   1.189   7.223   4.785  1.6162 -0.3953  0.2888
39469SOL    HW223538   1.124   7.355   4.753 -1.5908 -1.7671  0.9805
39470SOL     OW23539   4.975  10.072   0.445  0.1500 -0.3829 -0.2612
39470SOL    HW123540   4.920  10.135   0.399  2.4673  0.6880 -1.6469
39470SOL    HW223541   5.050  10.123   0.476  0.5704 -1.8710  1.2553
39471SOL     OW23542   6.619   9.057   5.551 -0.7585 -0.2664 -0.0479
39471SOL    HW123543   6.624   8.974   5.599 -1.1183 -0.3608 -0.1657
39471SOL    HW223544   6.583   9.119   5.614  0.0809 -0.0529  0.2248
39472SOL     OW23545   0.092  10.050   1.524 -0.7421  0.1178  0.1002
39472SOL    HW123546   0.085  10.118   1.591  0.4316 -0.9490  1.3336
39472SOL    HW223547   0.100   9.968   1.574  1.2803 -0.5737 -1.3164
39473SOL     OW23548   8.243   1.923  10.429 -0.0042  0.2248 -0.0248
39473SOL    HW123549   8.308   1.982  10.389  1.7193 -2.4498 -1.2827
39473SOL    HW223550   8.221   1.965  10.512  0.7630  2.9102 -1.0995
39474SOL     OW23551   9.126  10.939   8.051 -0.2534 -0.1093  0.1454
39474SOL    HW123552   9.202  10.996   8.068 -1.5613  2.4947 -2.3751
39474SOL    HW223553   9.164  10.854   8.030  1.8348  0.3315  1.9002
39475SOL     OW23554   1.346   4.206   0.527 -0.1461  0.5592 -0.8358
39475SOL    HW123555   1.405   4.164   0.464 -0.5775 -0.9227 -0.2800
39475SOL    HW223556   1.265   4.221   0.478 -0.7905 -1.4115 -0.4225
39476SOL     OW23557   3.783   2.904  10.885 -0.3375  0.0007  0.4510
39476SOL    HW123558   3.758   2.829  10.832  1.8351 -0.3427 -0.1399
39476SOL    HW223559   3.871   2.883  10.917 -0.3869  1.5414  1.6866
39477SOL     OW23560   9.564   9.962   8.870  0.7390 -0.4533 -0.4644
39477SOL    HW123561   9.618   9.908   8.811 -0.5949  0.3283 -2.4653
39477SOL    HW223562   9.592  10.052   8.851  1.1923 -0.2606  1.0498
39478SOL     OW23563   3.349   0.113   3.341 -0.0483  0.2643  0.2968
39478SOL    HW123564   3.431   0.144   3.378 -0.4696  0.8213  0.7597
39478SOL    HW223565   3.364   0.019   3.325  0.3028  0.1362  1.3859
39479SOL     OW23566   7.371   5.203   4.332 -0.0018 -0.4743 -0.0159
39479SOL    HW123567   7.432   5.268   4.296  0.1900 -0.6209  0.0453
39479SOL    HW223568   7.384   5.126   4.278  0.8554 -0.9526  0.8558
39480SOL     OW23569  10.090  10.394   5.459  0.5298  0.5919  0.1365
39480SOL    HW123570  10.139  10.475   5.477 -0.6147  1.2546  0.3427
39480SOL    HW223571   9.998  10.421   5.462  0.1712 -0.3748 -1.4720
39481SOL     OW23572   3.567   1.195   0.979 -0.1663  0.2229 -0.4456
39481SOL    HW123573   3.609   1.198   1.065 -1.0449 -0.8474  0.0301
39481SOL    HW223574   3.610   1.264   0.929 -0.3108  1.4883  1.1518
39482SOL     OW23575   6.007   6.341   2.251  0.4608  0.7008  0.1245
39482SOL    HW123576   6.061   6.262   2.260  2.7361  2.3137  1.1268
39482SOL    HW223577   5.938   6.330   2.316  2.2749  0.7034  2.1039
39483SOL     OW23578   9.384  10.161   2.522  0.0281 -0.0178  0.4025
39483SOL    HW123579   9.347  10.099   2.460  1.4934  0.6052 -1.1457
39483SOL    HW223580   9.440  10.218   2.469  2.5713 -0.4466  2.4840
39484SOL     OW23581   7.129   6.934   6.914 -0.0092  0.3452  0.5046
39484SOL    HW123582   7.071   6.950   6.839  0.7277  0.7395  0.0070
39484SOL    HW223583   7.100   6.850   6.950 -0.7428  0.4344  0.1299
39485SOL     OW23584   9.697   1.076  10.149  0.0500 -0.0781  0.1688
39485SOL    HW123585   9.754   1.016  10.197 -0.0284  0.3712  0.8360
39485SOL    HW223586   9.688   1.151  10.207 -0.3524  0.3158 -0.3984
39486SOL     OW23587   9.447   7.484   4.150 -0.2837  0.4262  0.0675
39486SOL    HW123588   9.462   7.390   4.159  1.1583  0.4339 -1.7443
39486SOL    HW223589   9.468   7.521   4.235  0.6127 -0.7425  0.3666
39487SOL     OW23590  10.877   0.199   4.444 -0.1086  0.0093 -0.1643
39487SOL    HW123591  10.951   0.146   4.474 -1.3037 -1.4022  0.3696
39487SOL    HW223592  10.912   0.250   4.371  1.7027  0.2590  0.8473
39488SOL     OW23593   7.215   4.661  10.147 -0.1261 -0.3510  0.1389
39488SOL    HW123594   7.175   4.626  10.227 -0.1725 -0.1428  0.2053
39488SOL    HW223595   7.141   4.693  10.096  0.1730  2.6976  1.5210
39489SOL     OW23596   2.680   5.722   4.313 -0.3919  0.0442  0.2487
39489SOL    HW123597   2.703   5.737   4.405 -2.3282 -0.3114  0.8044
39489SOL    HW223598   2.689   5.809   4.273  0.3021  0.2368  0.7932
39490SOL     OW23599   4.612  11.060   1.319 -0.0177 -0.9728 -0.2777
39490SOL    HW123600   4.585  11.124   1.254 -1.4848 -0.8422  0.4358
39490SOL    HW223601   4.544  11.063   1.386  0.5497 -2.3595  0.3948
39491SOL     OW23602   8.594   6.851   0.670  0.0109 -0.1370  0.3023
39491SOL    HW123603   8.565   6.780   0.613  1.0472 -0.1190 -0.2592
39491SOL    HW223604   8.518   6.871   0.725 -0.8456 -0.4693 -0.7601
39492SOL     OW23605   3.782   4.160   0.372 -0.3334  0.2116 -0.7033
39492SOL    HW123606   3.830   4.238   0.400 -1.8871  1.0343 -0.2200
39492SOL    HW223607   3.848   4.104   0.331  0.4540  2.7233 -3.0513
39493SOL     OW23608   0.495  11.108   2.403  0.4891  0.3079 -0.0414
39493SOL    HW123609   0.503  11.199   2.432  1.3827  1.0194 -2.3648
39493SOL    HW223610   0.430  11.112   2.332 -1.1216 -1.2495  1.3078
39494SOL     OW23611   7.341   9.395   6.944 -0.5042 -0.1380  0.1093
39494SOL    HW123612   7.268   9.340   6.914 -0.5131 -0.8008  1.3101
39494SOL    HW223613   7.311   9.484   6.930 -1.0325 -0.4279 -0.6180
39495SOL     OW23614   4.658   5.904   7.387 -0.4596  0.1109 -0.2646
39495SOL    HW123615   4.652   5.825   7.333 -0.1826 -0.6836  0.8514
39495SOL    HW223616   4.588   5.894   7.452 -0.0944  0.5531  0.1957
39496SOL     OW23617   8.938   4.568   1.623 -0.3901  0.2032 -0.8117
39496SOL    HW123618   9.030   4.591   1.612  0.2052 -1.2363  0.9410
39496SOL    HW223619   8.938   4.493   1.683 -2.7259  0.4690 -0.4050
39497SOL     OW23620   8.318   9.906   1.233 -0.5251 -0.1857 -0.6226
39497SOL    HW123621   8.311   9.817   1.267  1.8125  0.0006  0.4720
39497SOL    HW223622   8.237   9.949   1.258 -1.9799 -2.1960 -1.7629
39498SOL     OW23623   9.568   1.438   8.733  0.0894  0.4131  0.3556
39498SOL    HW123624   9.632   1.477   8.673 -0.1077  0.4712  0.1823
39498SOL    HW223625   9.497   1.407   8.676  0.3894 -0.4871  0.4634
39499SOL     OW23626   8.849   0.005   7.444 -0.6377 -0.5190  0.0778
39499SOL    HW123627   8.897   0.001   7.361  1.5106  0.7796  1.2094
39499SOL    HW223628   8.861  -0.083   7.482 -0.3743 -0.6513 -0.3050
39500SOL     OW23629   6.396   3.771   8.649  0.3901  0.1299  0.0182
39500SOL    HW123630   6.405   3.679   8.623 -0.7095 -0.5198  1.8507
39500SOL    HW223631   6.428   3.820   8.573  1.4151 -1.7621 -0.8163
39501SOL     OW23632   0.937  10.943   9.271 -0.0044  0.2337 -0.5682
39501SOL    HW123633   1.006  11.009   9.268  0.5275 -0.2969 -0.0926
39501SOL    HW223634   0.860  10.991   9.303  0.4988  0.5263  0.2286
39502SOL     OW23635   7.841   3.740   5.308  0.0748 -0.4000 -0.1099
39502SOL    HW123636   7.835   3.836   5.301  1.0815 -0.2935  0.3867
39502SOL    HW223637   7.758   3.708   5.271  0.4491  0.5913 -1.8822
39503SOL     OW23638   9.197   4.948   6.834 -0.5244 -0.1975 -0.4865
39503SOL    HW123639   9.156   4.985   6.756  0.3796  2.4869  0.2432
39503SOL    HW223640   9.278   4.908   6.802  0.0474  1.2513 -0.8833
39504SOL     OW23641   5.459   1.717   5.289 -0.5035  0.4413 -0.1907
39504SOL    HW123642   5.433   1.806   5.268  1.9043  0.6562 -2.4262
39504SOL    HW223643   5.545   1.706   5.249 -0.0988 -2.4073  1.3134
39505SOL     OW23644   1.033   1.619  10.871 -0.0913  0.0253  0.2599
39505SOL    HW123645   0.980   1.691  10.908 -0.1539 -0.7305  1.6801
39505SOL    HW223646   1.123   1.642  10.893  0.1595  1.1282 -1.8426
39506SOL     OW23647   2.724   5.269   0.940 -1.0110 -0.3463  0.0260
39506SOL    HW123648   2.661   5.285   0.870 -0.1634  0.1012 -0.6575
39506SOL    HW223649   2.743   5.356   0.976 -0.1551 -0.3670 -0.3489
39507SOL     OW23650   9.381   4.967   7.859  0.3404  0.0297 -0.0483
39507SOL    HW123651   9.332   4.886   7.874  0.8056  0.1016  2.0287
39507SOL    HW223652   9.345   5.029   7.922  1.4549  0.7969 -0.1469
39508SOL     OW23653   7.228   4.385   9.356 -0.4328  0.1858  0.2508
39508SOL    HW123654   7.307   4.389   9.302  0.7631 -3.0794  1.6194
39508SOL    HW223655   7.256   4.417   9.441 -1.8323  3.4954 -0.4718
39509SOL     OW23656   7.450   1.861   3.408 -0.5458 -0.0318  0.2606
39509SOL    HW123657   7.459   1.955   3.391 -1.8411  0.0145 -0.2179
39509SOL    HW223658   7.533   1.823   3.379  0.5804  1.1432  1.8158
39510SOL     OW23659  10.308   4.975  11.124  0.7506  0.0543 -0.3886
39510SOL    HW123660  10.351   4.969  11.209  0.6306 -0.3389 -0.3531
39510SOL    HW223661  10.260   4.892  11.116  0.8431  0.0476 -0.8834
39511SOL     OW23662   8.226   6.164  10.883 -0.8770 -0.2232  0.0185
39511SOL    HW123663   8.238   6.079  10.842  0.5216 -0.4966  0.9434
39511SOL    HW223664   8.239   6.227  10.813  2.2629 -0.6513  0.1441
39512SOL     OW23665   9.507   6.822   2.370  0.1739 -0.2568 -0.4449
39512SOL    HW123666   9.435   6.793   2.314  0.3060  2.1098 -1.9083
39512SOL    HW223667   9.468   6.887   2.428  0.8035 -0.0618 -0.2314
39513SOL     OW23668  10.473  10.888   5.726  0.3570  0.3020 -0.3575
39513SOL    HW123669  10.413  10.830   5.773 -0.4936  0.9861 -0.5767
39513SOL    HW223670  10.443  10.885   5.635  1.0181  0.2012 -0.5701
39514SOL     OW23671   5.577   3.227   5.968  0.7686  0.1380 -0.4115
39514SOL    HW123672   5.635   3.183   6.030  0.6002  2.0180  1.1262
39514SOL    HW223673   5.586   3.320   5.989 -1.5645  0.5832 -1.2355
39515SOL     OW23674  10.731   1.498   8.803  0.6493 -0.7074 -0.2455
39515SOL    HW123675  10.771   1.437   8.742  0.3465 -2.4240  1.2442
39515SOL    HW223676  10.746   1.460   8.889  0.7149  1.4680  0.7509
39516SOL     OW23677   7.530   8.141  10.052  0.2164 -0.3177  0.2047
39516SOL    HW123678   7.481   8.170   9.976 -1.9305 -0.3004  1.5430
39516SOL    HW223679   7.518   8.211  10.116  0.2313 -1.2911  1.2878
39517SOL     OW23680   6.630   7.331   1.155  0.9604 -0.1241  0.0963
39517SOL    HW123681   6.667   7.246   1.181  1.0596  0.1718  0.9513
39517SOL    HW223682   6.707   7.387   1.139  0.9285 -0.6984 -2.2600
39518SOL     OW23683   6.293   1.981  11.045 -0.1232  0.4626  0.4368
39518SOL    HW123684   6.282   2.017  11.133  0.2199 -0.3032  0.7949
39518SOL    HW223685   6.310   1.888  11.059 -0.5334  0.2438 -0.4607
39519SOL     OW23686   5.588   1.511   1.945 -0.0911  0.0956 -0.0329
39519SOL    HW123687   5.653   1.555   1.891 -0.5743  1.8347  0.7620
39519SOL    HW223688   5.504   1.534   1.905 -0.3335 -0.4027  0.1801
39520SOL     OW23689   9.675   8.543   0.673 -0.1063  0.6688 -0.3983
39520SOL    HW123690   9.629   8.542   0.589 -0.4693  1.1635 -0.2110
39520SOL    HW223691   9.695   8.636   0.687  2.4637  0.2816 -1.2962
39521SOL     OW23692   5.499   5.305   4.811 -0.4450  0.0635 -0.3344
39521SOL    HW123693   5.468   5.362   4.882 -2.2765 -0.1706 -0.9141
39521SOL    HW223694   5.587   5.337   4.791  0.1896  0.0001  2.1694
39522SOL     OW23695   2.305   4.480   6.711 -0.4115 -0.6355  0.3066
39522SOL    HW123696   2.262   4.395   6.726  0.1150 -1.0340 -0.4105
39522SOL    HW223697   2.272   4.509   6.627 -1.1328  0.2197  0.8752
39523SOL     OW23698   1.897   4.077  11.120 -0.1240 -0.0557  0.1383
39523SOL    HW123699   1.970   4.054  11.063  0.1941 -1.2840  1.0164
39523SOL    HW223700   1.886   4.001  11.177 -1.3078  0.6042  0.8155
39524SOL     OW23701   3.062   1.092   6.139  0.4992 -0.2293 -0.1002
39524SOL    HW123702   3.026   1.009   6.109  0.5649 -1.4871  3.0846
39524SOL    HW223703   3.156   1.077   6.146  0.8832  1.0238 -2.1723
39525SOL     OW23704   5.218   2.701   6.264 -0.3144  0.1709  0.0690
39525SOL    HW123705   5.221   2.727   6.172  1.1317 -0.6155 -0.1095
39525SOL    HW223706   5.259   2.773   6.312 -0.1594  0.1224  0.0061
39526SOL     OW23707  10.587   1.982   3.883  0.7110 -0.1428  0.6191
39526SOL    HW123708  10.560   2.032   3.960  1.1492  0.2268  0.5326
39526SOL    HW223709  10.675   2.013   3.863  0.3388  0.2567 -0.4476
39527SOL     OW23710  10.260   6.644   4.802  0.1467  0.0215  0.1664
39527SOL    HW123711  10.281   6.626   4.894 -0.6973 -0.3422  0.2963
39527SOL    HW223712  10.332   6.605   4.753  1.2084  1.2437  0.7279
39528SOL     OW23713  11.122  10.130  10.982  0.0426  0.2498  0.1501
39528SOL    HW123714  11.161  10.142  10.895 -1.2890  1.3418 -0.3213
39528SOL    HW223715  11.052  10.067  10.967  0.0238  0.1922  0.4927
39529SOL     OW23716   3.994  10.982   0.485  0.1212  0.2567 -0.1275
39529SOL    HW123717   3.985  11.077   0.489 -0.4878  0.2771 -1.7207
39529SOL    HW223718   4.065  10.967   0.423  1.6104 -0.2987  1.6643
39530SOL     OW23719   5.071   9.179   1.598 -0.0622 -0.3537  0.0345
39530SOL    HW123720   5.039   9.241   1.532  0.1544 -0.6635 -0.3624
39530SOL    HW223721   5.141   9.131   1.553 -0.7713 -1.4461  0.0951
39531SOL     OW23722   8.547   2.464   7.254 -0.4571 -0.0902  0.9195
39531SOL    HW123723   8.604   2.458   7.331  1.3948 -0.5580 -0.4639
39531SOL    HW223724   8.589   2.529   7.199 -0.6445 -1.2907 -0.6562
39532SOL     OW23725   2.145   2.328   4.162  0.1299  0.1487 -0.4654
39532SOL    HW123726   2.152   2.250   4.216 -1.1829  0.5609  0.3098
39532SOL    HW223727   2.109   2.297   4.079 -0.8945 -0.0026  0.0258
39533SOL     OW23728   1.044   2.608  10.114 -0.4777 -0.5603  0.1832
39533SOL    HW123729   0.980   2.563  10.169 -0.4001  0.4377  1.1032
39533SOL    HW223730   1.129   2.576  10.144 -0.3646  1.0717  1.6445
39534SOL     OW23731   2.004   1.331   8.750  0.4190  0.7040  0.1848
39534SOL    HW123732   1.961   1.416   8.740 -1.5611 -0.1896  0.8142
39534SOL    HW223733   2.054   1.319   8.670 -0.4252  1.8489 -0.5244
39535SOL     OW23734   1.969  10.391   8.093 -0.1514 -0.3730  0.4473
39535SOL    HW123735   1.955  10.344   8.011 -1.5272  0.2517  0.3271
39535SOL    HW223736   1.990  10.322   8.156  1.0432 -0.8440 -0.4357
39536SOL     OW23737   5.403   6.001   7.026  0.1785 -0.0331  0.0880
39536SOL    HW123738   5.446   6.082   7.055 -0.6504  0.6066 -0.4740
39536SOL    HW223739   5.313   6.026   7.009  0.1493 -0.8764 -1.0248
39537SOL     OW23740   1.520   1.325   6.489  0.0814  0.1462 -0.1513
39537SOL    HW123741   1.609   1.296   6.508  0.1575  0.1521 -0.4976
39537SOL    HW223742   1.488   1.263   6.424  0.0415  0.5033 -0.4692
39538SOL     OW23743   8.888   2.914   5.315  0.0288  0.1496 -0.3959
39538SOL    HW123744   8.870   2.952   5.228  0.6494  0.7635 -0.2627
39538SOL    HW223745   8.815   2.855   5.331 -0.1307  0.0915 -1.3126
39539SOL     OW23746   3.794   2.157   9.113 -0.3570  0.6456  0.0055
39539SOL    HW123747   3.848   2.089   9.074  1.6387  1.8636  0.5784
39539SOL    HW223748   3.812   2.235   9.060 -0.6256  1.3556  0.9479
39540SOL     OW23749  10.278   5.025   5.345  0.6805  0.8607  0.0712
39540SOL    HW123750  10.310   4.939   5.320 -0.2364  0.2370  1.0007
39540SOL    HW223751  10.204   5.043   5.287  0.9398  1.0630 -0.1943
39541SOL     OW23752   3.628   4.443   1.330 -0.3905  0.7616  0.0842
39541SOL    HW123753   3.589   4.416   1.247  0.3434 -0.1868  0.0289
39541SOL    HW223754   3.626   4.538   1.329 -1.4043  0.7324 -0.5314
39542SOL     OW23755   5.356   9.833   0.275  0.3319 -0.2008  0.6726
39542SOL    HW123756   5.273   9.874   0.248  0.5200  1.3715  2.3167
39542SOL    HW223757   5.423   9.895   0.247  0.7081  0.0640  2.0840
39543SOL     OW23758   5.561  10.123   5.012  0.6625 -0.1415 -0.4166
39543SOL    HW123759   5.567  10.117   4.917 -0.7216  0.2366 -0.5312
39543SOL    HW223760   5.614  10.049   5.044  1.9109  0.2886 -1.4506
39544SOL     OW23761   4.892  10.289   1.246 -1.1459 -0.2397 -0.0149
39544SOL    HW123762   4.939  10.308   1.165 -0.4370 -0.7137  0.2756
39544SOL    HW223763   4.917  10.199   1.268 -0.6777  0.1634  1.1583
39545SOL     OW23764   1.693  10.452   7.354  0.0063 -0.0430  0.0142
39545SOL    HW123765   1.712  10.546   7.364 -2.2678  0.7514 -2.4815
39545SOL    HW223766   1.770  10.417   7.310  1.5774  0.2848  2.3899
39546SOL     OW23767   0.047   7.193   0.266  0.1336 -0.6571  0.1100
39546SOL    HW123768   0.043   7.278   0.223  1.0916 -0.5520  0.2218
39546SOL    HW223769  -0.034   7.188   0.317  0.6609  0.7103  1.0937
39547SOL     OW23770   1.661  10.751   5.031 -0.2713  0.1023  0.7852
39547SOL    HW123771   1.703  10.727   5.113 -0.5619 -0.5064  0.7579
39547SOL    HW223772   1.654  10.669   4.982 -1.0440  0.2839  0.5812
39548SOL     OW23773   9.478  10.763   9.078  0.3126 -0.2448  0.5160
39548SOL    HW123774   9.553  10.815   9.104 -1.0940  2.3674 -0.4549
39548SOL    HW223775   9.418  10.768   9.153  0.4696 -1.1080  0.7099
39549SOL     OW23776   4.249   1.429   2.163  0.3360 -0.3262  0.3577
39549SOL    HW123777   4.214   1.470   2.084 -0.3701  0.3041  0.9972
39549SOL    HW223778   4.191   1.355   2.179 -1.0008  1.0085  1.6980
39550SOL     OW23779   9.585   8.278   6.859 -0.2784 -0.3397 -0.2769
39550SOL    HW123780   9.516   8.223   6.896  0.4384 -0.7176  0.5166
39550SOL    HW223781   9.541   8.361   6.840 -0.7209 -0.1948  1.2813
39551SOL     OW23782   3.744   8.023   4.463  0.2166 -0.2510 -0.2374
39551SOL    HW123783   3.804   7.949   4.474  0.0782 -0.6270 -1.7895
39551SOL    HW223784   3.752   8.046   4.370 -0.9407  0.6408 -0.1283
39552SOL     OW23785   1.820  10.505   3.865 -0.6275  0.3403  0.0628
39552SOL    HW123786   1.864  10.548   3.939  0.8457 -2.2052  0.7414
39552SOL    HW223787   1.731  10.541   3.866  0.2151  2.4989  1.2614
39553SOL     OW23788   9.133   0.193   0.550 -0.8654  0.3043  0.0340
39553SOL    HW123789   9.116   0.211   0.642  2.8112 -0.5326  0.9897
39553SOL    HW223790   9.209   0.248   0.528 -0.1498 -1.3203 -1.7758
39554SOL     OW23791   8.940   0.142   9.005 -0.2778 -0.3556 -0.1516
39554SOL    HW123792   8.882   0.171   8.936  0.3596  0.2959 -0.4241
39554SOL    HW223793   9.023   0.185   8.987  0.6805 -2.2780 -0.5024
39555SOL     OW23794   5.576   1.590   1.378 -0.4334  1.0104 -0.6141
39555SOL    HW123795   5.595   1.555   1.291  1.6165 -1.0558  0.6038
39555SOL    HW223796   5.645   1.655   1.394  0.6078 -0.2783  0.3396
39556SOL     OW23797   9.547   6.461   7.382 -0.4426  0.3759  0.4256
39556SOL    HW123798   9.557   6.556   7.393 -0.5460  0.3964  0.3433
39556SOL    HW223799   9.455   6.445   7.405 -1.2726  0.7193 -2.4562
39557SOL     OW23800   3.494   1.192   2.302 -0.0158 -0.3092  0.3607
39557SOL    HW123801   3.473   1.148   2.385 -0.4493  1.0351  0.9688
39557SOL    HW223802   3.502   1.120   2.239 -2.4816 -1.1706  0.9622
39558SOL     OW23803  10.787   6.770   2.654 -0.2113 -0.1643  0.1717
39558SOL    HW123804  10.735   6.816   2.588  0.5728  0.8183  0.2303
39558SOL    HW223805  10.862   6.735   2.605 -0.7910 -1.3533  0.1339
39559SOL     OW23806   6.795   7.080   4.458  0.1801  0.4627  0.0973
39559SOL    HW123807   6.763   7.125   4.380  0.2789  0.0555 -0.1772
39559SOL    HW223808   6.716   7.053   4.505  0.0632 -2.1957 -1.5132
39560SOL     OW23809   6.693   1.062   9.274  0.0643 -0.0790 -0.4792
39560SOL    HW123810   6.764   1.077   9.212  0.4978  1.9849  0.4868
39560SOL    HW223811   6.624   1.123   9.247  0.3127  0.9372  1.1245
39561SOL     OW23812  11.167   5.707   8.858 -0.4003  0.3788 -0.0173
39561SOL    HW123813  11.091   5.689   8.914  0.4649 -2.5483  0.3334
39561SOL    HW223814  11.137   5.682   8.770 -0.2225  0.3526 -0.0704
39562SOL     OW23815   9.219   1.960   0.343 -0.1847  0.0526 -0.1922
39562SOL    HW123816   9.234   1.938   0.435 -0.1866  2.0042  0.2831
39562SOL    HW223817   9.160   2.035   0.345 -2.5703 -1.7003 -1.8734
39563SOL     OW23818   0.883   9.619  10.438  0.4847  0.3984 -0.0955
39563SOL    HW123819   0.895   9.526  10.417 -0.3858  0.2264  0.1346
39563SOL    HW223820   0.925   9.666  10.366 -2.1509 -0.1920 -2.0817
39564SOL     OW23821   4.949   4.447   1.006  0.1645 -0.2598 -0.1647
39564SOL    HW123822   4.948   4.435   0.911  0.8088 -0.6989 -0.1209
39564SOL    HW223823   5.036   4.416   1.033  1.4956  3.3830  0.0984
39565SOL     OW23824   7.421   2.663  11.146  0.1398 -0.7730 -0.1634
39565SOL    HW123825   7.441   2.740  11.093 -0.3126 -0.1119  0.6100
39565SOL    HW223826   7.504   2.641  11.188 -0.2395  0.7168  1.4263
39566SOL     OW23827  10.335   5.397   4.416 -0.4876 -0.4415  0.3900
39566SOL    HW123828  10.309   5.454   4.343  0.6327 -0.1495  0.2152
39566SOL    HW223829  10.302   5.442   4.494  0.5667  0.5540  0.2715
39567SOL     OW23830   6.770  11.027   1.265  0.4418  0.1942  0.3998
39567SOL    HW123831   6.686  11.064   1.236  0.4164 -0.9546 -1.0616
39567SOL    HW223832   6.835  11.072   1.211  0.6708  0.3233  0.7869
39568SOL     OW23833   9.748   3.619  10.058 -0.0758 -0.0633 -0.3749
39568SOL    HW123834   9.820   3.594  10.000 -0.6332 -0.9264 -0.7068
39568SOL    HW223835   9.761   3.567  10.137  1.0594  1.5978  0.5631
39569SOL     OW23836   7.110   8.907   6.166 -0.9705  0.2215 -0.1105
39569SOL    HW123837   7.148   8.897   6.254 -1.9235  0.1536  0.3061
39569SOL    HW223838   7.086   8.818   6.141  0.9895 -0.0318 -1.2428
39570SOL     OW23839   7.340   4.057   2.795  0.6724 -0.3896 -0.4750
39570SOL    HW123840   7.307   4.144   2.818 -0.0216 -0.3614 -1.5413
39570SOL    HW223841   7.386   4.070   2.713  1.6033 -0.8142 -0.0249
39571SOL     OW23842   2.415   0.932   2.349 -0.2255  0.4005 -0.0054
39571SOL    HW123843   2.358   0.862   2.318 -1.6854  1.4964  0.1378
39571SOL    HW223844   2.429   0.988   2.272 -0.7870  1.0920  0.3908
39572SOL     OW23845   8.648   5.678   5.660  0.1741 -0.1943  0.2572
39572SOL    HW123846   8.708   5.604   5.672 -0.9279 -0.8471  1.8348
39572SOL    HW223847   8.702   5.756   5.677  0.9734 -0.6917  0.0292
39573SOL     OW23848   7.828   6.747   4.310  0.8407  0.5386  0.3228
39573SOL    HW123849   7.921   6.739   4.291  0.7248  0.0732 -0.0425
39573SOL    HW223850   7.816   6.840   4.332  1.1762  0.8311 -0.7280
39574SOL     OW23851   7.577   7.899   3.024 -0.6991 -0.0258  0.2362
39574SOL    HW123852   7.579   7.993   3.006  1.8416  0.2935  1.9831
39574SOL    HW223853   7.641   7.861   2.964 -0.4018 -0.4196  0.8045
39575SOL     OW23854   7.649   3.688  10.929  0.1163  0.2440 -0.3628
39575SOL    HW123855   7.591   3.683  10.853  1.2171  1.1200 -1.2750
39575SOL    HW223856   7.629   3.773  10.969 -1.8683 -1.0582  1.4994
39576SOL     OW23857   2.072   7.314   0.338  0.0497  0.2713  0.0709
39576SOL    HW123858   2.028   7.391   0.303  1.4658  0.4515 -1.3513
39576SOL    HW223859   2.001   7.252   0.355 -0.9103  1.1701 -0.5776
39577SOL     OW23860   0.421   4.552   3.678  0.8799 -0.0406  0.1413
39577SOL    HW123861   0.432   4.646   3.687 -0.5726  0.1240  0.2147
39577SOL    HW223862   0.508   4.516   3.696  1.5990  1.3228 -0.5863
39578SOL     OW23863   8.255   5.980   8.312 -0.6382  0.7434 -0.9014
39578SOL    HW123864   8.217   6.062   8.281 -3.2165  0.3920  1.1403
39578SOL    HW223865   8.219   5.914   8.252 -0.4682  0.8330 -1.1011
39579SOL     OW23866   0.881   8.824   8.981 -0.0206  0.0826 -0.4533
39579SOL    HW123867   0.883   8.731   9.000 -0.7576 -0.3087 -2.2064
39579SOL    HW223868   0.863   8.830   8.887  1.6127  1.9636 -0.6920
39580SOL     OW23869   6.644   3.702   0.589 -0.4916  0.3631  0.5309
39580SOL    HW123870   6.681   3.615   0.572 -1.5543  0.0047 -0.0214
39580SOL    HW223871   6.636   3.707   0.684 -2.7999 -1.1678  0.4536
39581SOL     OW23872  10.986   1.389   9.023  0.6877  0.3891 -0.2598
39581SOL    HW123873  10.893   1.366   9.032  1.2910 -1.5128  1.4479
39581SOL    HW223874  10.985   1.475   8.982 -1.8358  0.3137 -0.4565
39582SOL     OW23875   9.110   4.137   1.819  0.0330 -0.4354  0.1744
39582SOL    HW123876   9.054   4.106   1.749  1.6869 -0.4380 -1.1769
39582SOL    HW223877   9.068   4.218   1.849 -0.8750 -0.6312 -0.5440
39583SOL     OW23878   9.399   4.944  10.397 -0.4795  0.2590  0.3678
39583SOL    HW123879   9.375   4.919  10.308 -1.3157  1.2749  0.3054
39583SOL    HW223880   9.473   5.004  10.386 -1.2983  1.2586  0.3005
39584SOL     OW23881   6.065   5.945   1.484  0.1017  0.0525 -0.3603
39584SOL    HW123882   5.986   5.893   1.470  0.3812 -1.4457  3.0631
39584SOL    HW223883   6.033   6.028   1.519 -0.0097 -0.6546  1.2869
39585SOL     OW23884  10.097   1.307  10.753 -0.0432 -0.3686  0.4731
39585SOL    HW123885  10.001   1.309  10.754 -0.0236  0.5462  0.7714
39585SOL    HW223886  10.118   1.214  10.761 -0.9142 -0.7912 -1.5881
39586SOL     OW23887   7.298   7.167   9.937  0.2514 -0.0517 -0.3137
39586SOL    HW123888   7.245   7.146   9.861  0.5896 -4.2519  0.4923
39586SOL    HW223889   7.240   7.216   9.995 -0.8935  0.5358 -1.9282
39587SOL     OW23890   9.209   8.108   2.101  0.4567  0.1457  0.0629
39587SOL    HW123891   9.291   8.059   2.099 -0.6676 -1.7632 -0.1403
39587SOL    HW223892   9.227   8.187   2.050  2.1306 -0.3169 -0.0866
39588SOL     OW23893   7.509  11.119   3.562  0.4197  0.1095 -0.2971
39588SOL    HW123894   7.491  11.029   3.537 -3.1041  0.2949  1.1958
39588SOL    HW223895   7.552  11.112   3.647  1.6892 -0.1701 -0.9451
39589SOL     OW23896   5.020   0.525  10.405  0.0723 -0.1509  0.1817
39589SOL    HW123897   5.050   0.609  10.439  0.0365  0.2447 -0.7587
39589SOL    HW223898   4.931   0.541  10.375  0.2886 -0.3591 -0.5923
39590SOL     OW23899   1.307  10.995   0.089 -0.0670  0.1967 -0.4882
39590SOL    HW123900   1.236  10.932   0.101 -0.1624  0.1898 -1.0873
39590SOL    HW223901   1.305  11.017  -0.004  0.2361  0.7647 -0.3665
39591SOL     OW23902   6.452   7.063   4.639  0.4119 -0.7684 -0.8596
39591SOL    HW123903   6.434   7.133   4.577 -0.5784  0.7184  1.0718
39591SOL    HW223904   6.542   7.077   4.667  0.7852 -1.3090 -1.7826
39592SOL     OW23905   3.450   9.422   8.174 -0.0573 -0.5156  0.0514
39592SOL    HW123906   3.385   9.358   8.144  0.5815 -0.1721 -2.1566
39592SOL    HW223907   3.493   9.379   8.248 -1.4185 -1.5633  0.2676
39593SOL     OW23908  10.907   4.253   3.937 -0.4379 -0.0225 -0.0145
39593SOL    HW123909  10.897   4.186   3.870 -0.2097 -0.4496  0.3781
39593SOL    HW223910  10.988   4.230   3.982  1.3240  2.2667 -1.8699
39594SOL     OW23911   4.115   4.970   1.499 -0.0645 -0.1310 -0.0771
39594SOL    HW123912   4.159   4.951   1.582  0.3045 -0.0929 -0.2661
39594SOL    HW223913   4.087   4.885   1.467  1.3910 -0.3439 -0.8116
39595SOL     OW23914   7.706   6.405   4.933 -0.2466 -0.1330 -0.2739
39595SOL    HW123915   7.756   6.407   4.851 -1.6970  1.5485 -1.1536
39595SOL    HW223916   7.617   6.429   4.907 -0.9084 -0.4059  1.6856
39596SOL     OW23917   4.771   3.007   1.376  0.1804 -0.0531  0.0301
39596SOL    HW123918   4.726   2.923   1.386  0.2819 -0.4015 -2.2305
39596SOL    HW223919   4.720   3.068   1.429 -1.5798 -0.9525 -0.5974
39597SOL     OW23920   3.421   2.211   2.113 -0.1532 -0.2712  0.3705
39597SOL    HW123921   3.430   2.122   2.147 -1.1810 -1.2571 -1.7985
39597SOL    HW223922   3.333   2.237   2.139 -0.4117 -0.4812 -0.2818
39598SOL     OW23923  10.033   4.060   2.015 -0.2387 -0.2729  0.0830
39598SOL    HW123924  10.114   4.010   2.025  0.0023 -0.3483 -1.8977
39598SOL    HW223925   9.966   4.004   2.053  0.7860  0.3214  2.8350
39599SOL     OW23926   9.886   9.670   6.726  0.0864  0.1440  0.4592
39599SOL    HW123927   9.845   9.633   6.805 -1.5747 -1.2667 -1.0181
39599SOL    HW223928   9.953   9.605   6.702 -0.8367 -0.4780 -0.4675
39600SOL     OW23929   1.714   2.183   4.156 -0.0967  0.7477  0.4834
39600SOL    HW123930   1.739   2.264   4.201 -2.0893  2.2036 -0.9731
39600SOL    HW223931   1.770   2.116   4.196  0.7918  2.6230  2.5092
39601SOL     OW23932   8.985   0.726   1.840 -0.1731  0.5176  0.3933
39601SOL    HW123933   8.919   0.663   1.812 -0.9956  1.3596  0.3955
39601SOL    HW223934   9.067   0.692   1.805 -0.3237 -1.4888  1.9388
39602SOL     OW23935   8.501   7.121   9.663 -0.0104 -0.3626 -0.2998
39602SOL    HW123936   8.525   7.094   9.752 -1.4208  1.3981  0.6705
39602SOL    HW223937   8.569   7.086   9.607  2.4062  0.8103  1.8148
39603SOL     OW23938   2.631   7.392   7.217 -0.0254 -0.0438  0.4841
39603SOL    HW123939   2.545   7.428   7.235 -0.5166  0.7531 -3.1005
39603SOL    HW223940   2.618   7.334   7.141  2.2424 -1.3790  1.0476
39604SOL     OW23941  10.744   8.947   1.755 -0.2450 -0.4150 -0.6884
39604SOL    HW123942  10.664   8.992   1.780 -0.5241 -0.5321 -1.3563
39604SOL    HW223943  10.797   9.013   1.710  0.6050  0.0109  0.9239
39605SOL     OW23944   4.847   5.975   9.520 -0.0536  0.2474 -0.3366
39605SOL    HW123945   4.805   5.920   9.454 -2.6245  2.2665 -0.4857
39605SOL    HW223946   4.920   6.016   9.473  0.9669 -1.8358 -0.6242
39606SOL     OW23947   9.434   4.129   3.809  0.3911 -0.1988  0.3917
39606SOL    HW123948   9.505   4.193   3.806 -0.0881  0.3901  1.1911
39606SOL    HW223949   9.371   4.167   3.871 -0.3733 -0.9588  0.0826
39607SOL     OW23950   5.193   6.849   0.531  0.4351 -0.1675 -0.1780
39607SOL    HW123951   5.168   6.787   0.463  0.9104  1.0573 -1.5072
39607SOL    HW223952   5.216   6.795   0.606  0.3018 -1.5631 -1.1291
39608SOL     OW23953   1.822   8.907   2.582 -0.5555 -0.1301  0.1091
39608SOL    HW123954   1.849   8.984   2.532 -0.9711 -0.3393 -0.4484
39608SOL    HW223955   1.744   8.935   2.630  0.0184  0.1586  0.8738
39609SOL     OW23956   0.079   8.523   8.074  0.0740  0.1321 -0.1146
39609SOL    HW123957   0.149   8.506   8.011  0.2998  1.8897 -0.3493
39609SOL    HW223958   0.071   8.618   8.077 -2.0911 -0.0268  0.1534
39610SOL     OW23959   3.218   3.852   7.813 -0.3987 -0.9518 -0.5957
39610SOL    HW123960   3.286   3.848   7.746 -0.4291 -2.0366 -0.5702
39610SOL    HW223961   3.137   3.831   7.767 -1.1360  2.8507 -1.1547
39611SOL     OW23962   9.658   9.428   6.320 -0.0208  0.4073 -0.5099
39611SOL    HW123963   9.749   9.417   6.292  0.1865 -0.3735  0.4670
39611SOL    HW223964   9.607   9.408   6.242  0.6359  0.7564 -1.0401
39612SOL     OW23965   1.537   2.052   4.551  0.2400 -0.0827 -0.4109
39612SOL    HW123966   1.616   2.025   4.600  0.6689  0.1460 -0.9701
39612SOL    HW223967   1.571   2.107   4.481 -0.6041  1.6823  0.5437
39613SOL     OW23968   0.913  10.612   6.759  0.2033 -0.5347  0.1556
39613SOL    HW123969   0.998  10.604   6.803  0.8505 -0.2829 -1.0315
39613SOL    HW223970   0.888  10.704   6.772  1.3343  0.0579 -1.6696
39614SOL     OW23971   8.477   4.132   1.027 -0.0543  0.3754  0.3532
39614SOL    HW123972   8.435   4.129   0.941  1.3556  2.5259 -0.4812
39614SOL    HW223973   8.526   4.215   1.026 -1.5207  1.3602  3.9535
39615SOL     OW23974  10.698   9.598   3.076  0.0288  0.6531  0.2178
39615SOL    HW123975  10.778   9.547   3.059 -1.2979 -0.8628 -1.7520
39615SOL    HW223976  10.634   9.533   3.105 -0.8167  1.6752  0.6801
39616SOL     OW23977  10.422   1.497   4.334 -1.0072  0.6388 -0.4657
39616SOL    HW123978  10.512   1.486   4.302 -0.2768  0.1350  1.6992
39616SOL    HW223979  10.431   1.504   4.429 -3.1839  1.5317 -0.2993
39617SOL     OW23980   7.229   2.432  10.228 -0.2552  0.1051 -0.5230
39617SOL    HW123981   7.294   2.478  10.281 -0.5529 -0.3842  0.2787
39617SOL    HW223982   7.153   2.491  10.227  0.0048  0.4323 -1.0028
39618SOL     OW23983   7.682   9.267   8.823  0.0206 -0.2483  0.0856
39618SOL    HW123984   7.675   9.304   8.911 -1.2232 -0.9185  0.2671
39618SOL    HW223985   7.765   9.219   8.824  1.7196  2.5188 -0.1650
39619SOL     OW23986   6.793   9.738   4.623 -0.0091 -0.5295  0.0229
39619SOL    HW123987   6.714   9.724   4.676 -0.0837 -0.2650 -0.0200
39619SOL    HW223988   6.802   9.657   4.573  0.8939 -1.3710  1.5247
39620SOL     OW23989   0.852   7.316   4.255  0.1767 -0.0248 -0.0690
39620SOL    HW123990   0.868   7.241   4.312  1.5239 -0.2413 -0.7005
39620SOL    HW223991   0.891   7.390   4.301 -0.9536  0.2534  0.4490
39621SOL     OW23992   9.660   5.803   2.258  0.3568  0.1157  0.3596
39621SOL    HW123993   9.599   5.845   2.197  1.0686  0.6973  0.0351
39621SOL    HW223994   9.713   5.746   2.202 -0.4480 -1.0497  0.7628
39622SOL     OW23995   1.493   7.122   2.519  0.1964  0.2713 -0.2663
39622SOL    HW123996   1.406   7.119   2.480 -0.3201  0.9790  0.8007
39622SOL    HW223997   1.515   7.215   2.522  0.3106  0.2168  0.9284
39623SOL     OW23998   8.785   2.776   3.440  0.5211 -0.4776  0.1413
39623SOL    HW123999   8.840   2.814   3.509 -1.2903  1.9724  0.3339
39623SOL    HW224000   8.776   2.847   3.375 -3.5613 -0.2039  0.8379
39624SOL     OW24001   6.247   1.122   0.629 -0.4293  0.3349 -0.2021
39624SOL    HW124002   6.310   1.102   0.699  0.0149  0.9259 -0.4227
39624SOL    HW224003   6.193   1.044   0.623 -0.7156  0.4156  1.0550
39625SOL     OW24004   9.074   9.523   7.961 -0.1324  0.4661  0.1221
39625SOL    HW124005   8.991   9.569   7.969 -1.3761 -2.1464  2.9384
39625SOL    HW224006   9.060   9.458   7.892  0.4811  1.7560 -1.2669
39626SOL     OW24007   4.873   6.603   9.519 -0.1589  0.0887 -0.3122
39626SOL    HW124008   4.900   6.678   9.466 -0.5070 -0.3542 -1.1205
39626SOL    HW224009   4.852   6.641   9.604  0.9938  0.7245 -0.2925
39627SOL     OW24010  10.721   6.911   1.230  0.0336 -0.0053 -0.2695
39627SOL    HW124011  10.743   7.001   1.206 -0.1262 -0.1377 -0.9299
39627SOL    HW224012  10.631   6.915   1.260  0.2640  0.1780  0.4007
39628SOL     OW24013   7.715   1.670   7.066 -0.1230  0.1424 -0.3043
39628SOL    HW124014   7.692   1.702   6.979 -2.3378 -0.6436 -0.0518
39628SOL    HW224015   7.689   1.577   7.065 -0.8062  0.2877  1.3793
39629SOL     OW24016  10.774   5.088   8.981 -0.8969 -0.8877 -0.1855
39629SOL    HW124017  10.730   5.173   8.982  0.3301 -0.2340 -0.6178
39629SOL    HW224018  10.705   5.026   8.960 -1.3776  0.2821 -2.1951
39630SOL     OW24019   4.856   4.094   1.543 -0.2603 -0.0425  0.2263
39630SOL    HW124020   4.950   4.083   1.557  0.1816  1.5422 -1.3471
39630SOL    HW224021   4.834   4.173   1.593 -0.6605 -0.1383  0.1967
39631SOL     OW24022   9.278   2.069   9.534 -0.1977  0.1252  0.1688
39631SOL    HW124023   9.315   2.139   9.479  0.5690 -0.2590  0.2011
39631SOL    HW224024   9.198   2.044   9.488  0.1381  0.2112 -0.4775
39632SOL     OW24025   7.501  10.543   4.558 -0.3508 -0.7327 -0.2315
39632SOL    HW124026   7.499  10.630   4.597 -0.7606  0.7332 -3.3503
39632SOL    HW224027   7.563  10.494   4.612  0.5603  1.7435  1.0633
39633SOL     OW24028   1.849   5.328   1.341  1.0663 -0.3877  0.0195
39633SOL    HW124029   1.857   5.377   1.259 -0.4377  0.6098  0.4296
39633SOL    HW224030   1.757   5.302   1.343  0.6849  1.0294  2.1637
39634SOL     OW24031   1.801   0.453   1.548 -0.1663  0.2943  0.3305
39634SOL    HW124032   1.821   0.541   1.580  1.2810  0.3375 -0.6585
39634SOL    HW224033   1.719   0.430   1.591 -0.5342  2.1135  0.6203
39635SOL     OW24034   7.703   6.579   6.472  0.9452 -0.9242 -0.3997
39635SOL    HW124035   7.748   6.530   6.541  0.7523  0.9570  1.0962
39635SOL    HW224036   7.619   6.603   6.510  1.0841  0.6754 -1.0622
39636SOL     OW24037   0.377   1.427   2.622  0.1327 -0.2058 -0.5767
39636SOL    HW124038   0.409   1.415   2.712  0.3494 -0.0197 -0.6283
39636SOL    HW224039   0.283   1.440   2.632  0.2981  0.7743 -0.3001
39637SOL     OW24040   5.344   1.269   9.099 -0.0674  0.9104 -0.0990
39637SOL    HW124041   5.250   1.275   9.084 -0.2144  2.0394  1.2285
39637SOL    HW224042   5.357   1.304   9.187  1.6642  1.3316 -0.5049
39638SOL     OW24043   6.044   8.250   2.470 -0.5043 -0.6050 -0.0134
39638SOL    HW124044   6.100   8.320   2.503 -0.6936 -0.1913 -0.5668
39638SOL    HW224045   6.062   8.246   2.377 -1.9941  0.1113 -0.3562
39639SOL     OW24046   6.607   0.761  10.850  0.5010 -0.5652 -0.8815
39639SOL    HW124047   6.642   0.710  10.923  1.6674 -0.8634 -1.6437
39639SOL    HW224048   6.645   0.720  10.772  0.1306  0.4466 -1.5972
39640SOL     OW24049   2.119   8.974  10.462 -0.0247 -0.6090 -0.0478
39640SOL    HW124050   2.147   9.045  10.405 -0.5757  1.3893  2.1104
39640SOL    HW224051   2.146   8.894  10.416 -0.6910  0.9086 -3.2056
39641SOL     OW24052   3.014   3.316  10.919 -0.5351 -0.3830 -0.5158
39641SOL    HW124053   3.095   3.361  10.940 -1.1640  0.3166  0.4916
39641SOL    HW224054   2.967   3.377  10.861  0.4099 -1.5387 -2.5357
39642SOL     OW24055   6.340   4.693   7.831  0.5372  0.3543 -0.6293
39642SOL    HW124056   6.405   4.739   7.884  0.1529 -0.5897  0.6948
39642SOL    HW224057   6.331   4.747   7.752 -0.9999  3.3850  1.4859
39643SOL     OW24058   3.285   3.277   5.426 -0.1312 -0.1902  0.4245
39643SOL    HW124059   3.348   3.321   5.368 -1.6407  0.6598 -0.6166
39643SOL    HW224060   3.326   3.280   5.513  1.4693 -0.0821 -0.3138
39644SOL     OW24061   0.511  11.208   6.781  0.5164 -0.0960 -0.1203
39644SOL    HW124062   0.597  11.193   6.741 -0.7393 -2.0793 -2.2014
39644SOL    HW224063   0.453  11.228   6.706 -0.8135  1.3549  1.2572
39645SOL     OW24064   3.655   4.862   2.110  0.1865  0.4613  0.3288
39645SOL    HW124065   3.720   4.792   2.115 -0.9462 -0.5208  1.7099
39645SOL    HW224066   3.572   4.819   2.128 -0.5043  2.2219  1.4805
39646SOL     OW24067   5.431   6.129  10.067 -0.0560 -0.3951  0.0926
39646SOL    HW124068   5.439   6.070  10.142 -3.1303 -0.5669  0.3581
39646SOL    HW224069   5.432   6.071   9.991  0.3545 -0.4673  0.1519
39647SOL     OW24070   5.116   2.546   8.957 -0.1983 -0.3298 -0.1021
39647SOL    HW124071   5.143   2.494   9.033  0.4182 -1.0996 -0.8397
39647SOL    HW224072   5.193   2.600   8.937  0.5680 -1.9909 -1.7563
39648SOL     OW24073   1.034   3.578   1.200 -0.2252  0.6119  0.0196
39648SOL    HW124074   1.115   3.590   1.150 -0.5344 -0.0841 -0.6532
39648SOL    HW224075   1.061   3.589   1.291  0.8075 -0.5467 -0.1255
39649SOL     OW24076   8.675   8.444   6.918 -0.7550  0.2482  0.0011
39649SOL    HW124077   8.676   8.450   6.822 -1.0369 -1.8175 -0.1474
39649SOL    HW224078   8.747   8.501   6.945  2.6510 -2.9655 -1.7289
39650SOL     OW24079   7.955  10.396   2.011 -0.1343  0.0717 -0.6142
39650SOL    HW124080   8.049  10.388   2.024 -0.1707 -0.3868 -0.6122
39650SOL    HW224081   7.946  10.443   1.928  0.0968  0.9412 -0.1486
39651SOL     OW24082   3.800   0.561   3.485 -0.2416  0.2404 -0.1662
39651SOL    HW124083   3.715   0.540   3.447 -0.5359 -0.5614  0.8874
39651SOL    HW224084   3.801   0.656   3.494 -0.5889  0.3380 -1.1842
39652SOL     OW24085   3.157   7.946   3.025 -0.4906  0.3688 -0.5214
39652SOL    HW124086   3.165   7.991   3.109  1.8541 -0.1208 -0.4598
39652SOL    HW224087   3.063   7.943   3.009 -0.9310  1.1942  1.6844
39653SOL     OW24088   2.241   1.504   3.327  0.0832 -0.1244  0.0137
39653SOL    HW124089   2.289   1.425   3.303  0.1600  0.3882 -1.5379
39653SOL    HW224090   2.166   1.506   3.268  0.3969  1.2793 -0.3423
39654SOL     OW24091   6.593   5.506   8.809  0.3651  0.1747 -0.7954
39654SOL    HW124092   6.543   5.485   8.888  0.2581 -4.0525 -1.8876
39654SOL    HW224093   6.682   5.478   8.829  1.3544  3.2091 -0.6465
39655SOL     OW24094  10.236   0.687   1.723 -0.6870  0.2657 -0.4589
39655SOL    HW124095  10.206   0.778   1.716 -0.2485  0.7276  3.1034
39655SOL    HW224096  10.173   0.644   1.780  0.9165 -0.8113  0.5565
39656SOL     OW24097   5.275   1.588   4.996  0.0470  0.7601 -1.0721
39656SOL    HW124098   5.183   1.561   4.986  0.7105 -2.2026  0.0965
39656SOL    HW224099   5.283   1.612   5.089  0.8483 -0.8097 -0.7128
39657SOL     OW24100   6.868   8.819   3.069  0.1671 -0.4713 -0.3965
39657SOL    HW124101   6.848   8.823   3.163  1.2457  1.0767 -0.2190
39657SOL    HW224102   6.870   8.910   3.041 -0.0968 -0.9228 -1.9285
39658SOL     OW24103   5.857   6.656  11.200 -0.1613  0.2114 -0.1427
39658SOL    HW124104   5.935   6.711  11.193 -1.1905  1.6131 -0.8766
39658SOL    HW224105   5.819   6.680  11.285  1.3868 -2.1147  1.2801
39659SOL     OW24106   2.250  11.160   0.191  0.4795 -0.0791  0.1064
39659SOL    HW124107   2.305  11.087   0.219 -0.4713 -0.8031  0.1159
39659SOL    HW224108   2.251  11.155   0.095  0.8729  0.2514  0.0890
39660SOL     OW24109   2.714   6.453   5.169 -0.2274 -0.4572  0.1419
39660SOL    HW124110   2.681   6.425   5.083 -2.1474  0.5138  0.5301
39660SOL    HW224111   2.752   6.539   5.153 -0.4069 -0.3628  0.2200
39661SOL     OW24112   5.184   6.663   4.001  0.0750 -0.0123  0.1309
39661SOL    HW124113   5.129   6.700   3.932  0.2358  0.4021  0.2228
39661SOL    HW224114   5.144   6.579   4.021 -0.6616  0.3864  0.3603
39662SOL     OW24115   4.277  10.745   6.847 -0.2409 -0.7247  0.1653
39662SOL    HW124116   4.321  10.778   6.925 -0.2946  2.2276 -0.9846
39662SOL    HW224117   4.184  10.746   6.870 -0.1815 -0.9359  0.4239
39663SOL     OW24118   3.410   7.992   0.765  0.2348  0.1685 -0.1548
39663SOL    HW124119   3.346   8.058   0.790 -0.6156 -0.1702 -1.3349
39663SOL    HW224120   3.495   8.032   0.782 -0.2830  0.5305  1.6737
39664SOL     OW24121   5.951   3.004   5.062 -0.1069 -0.2647 -0.2836
39664SOL    HW124122   5.957   3.038   4.973  1.7346 -0.5272 -0.2960
39664SOL    HW224123   5.882   2.938   5.058  0.6620 -1.0259 -1.8025
39665SOL     OW24124   9.889   9.998   4.862 -0.0898  0.8442 -0.1506
39665SOL    HW124125   9.912   9.916   4.906 -1.0075 -0.5705 -2.2548
39665SOL    HW224126   9.903   9.980   4.769 -2.3574  2.3911 -0.8273
39666SOL     OW24127   7.231   7.850   0.057  0.3145 -0.2265  0.6749
39666SOL    HW124128   7.317   7.881   0.028 -0.3836  1.2548  0.1688
39666SOL    HW224129   7.251   7.783   0.123  1.8701 -1.2408 -0.7746
39667SOL     OW24130   4.990   2.717   0.372  0.4462  0.2211 -0.0936
39667SOL    HW124131   4.967   2.806   0.400  0.8041  0.3411 -0.1821
39667SOL    HW224132   4.924   2.661   0.412  0.8265  0.4174  0.8020
39668SOL     OW24133   4.166   9.981   4.834 -0.0502  0.3026  0.1212
39668SOL    HW124134   4.246  10.012   4.878 -0.0270 -0.0953  0.3567
39668SOL    HW224135   4.137   9.907   4.887 -1.4507  1.4144  0.9684
39669SOL     OW24136  10.228  10.319   4.065 -0.1133  0.3848 -0.3146
39669SOL    HW124137  10.200  10.242   4.016 -0.0302  1.0768 -1.4656
39669SOL    HW224138  10.311  10.292   4.106 -0.7372 -0.5519  0.3554
39670SOL     OW24139   8.171   8.627  10.257  0.3710  0.0038 -0.4110
39670SOL    HW124140   8.217   8.673  10.326  0.7017  0.5370 -0.9860
39670SOL    HW224141   8.238   8.607  10.191 -0.1715  0.6165 -1.1618
39671SOL     OW24142   8.514   3.331   5.943 -0.4715 -0.0803  0.4914
39671SOL    HW124143   8.468   3.251   5.968 -0.8050  0.1707  0.6822
39671SOL    HW224144   8.471   3.400   5.993  0.1537  0.1466  0.7300
39672SOL     OW24145   2.129   9.650   4.968  0.1982 -0.0140  0.1114
39672SOL    HW124146   2.178   9.683   4.892 -0.6213 -1.3434 -1.0149
39672SOL    HW224147   2.153   9.709   5.039  0.9529  1.2913 -1.1945
39673SOL     OW24148   2.478   8.336   2.918 -0.1346  0.2556  0.3140
39673SOL    HW124149   2.539   8.314   2.848 -1.5257  0.4153 -0.9489
39673SOL    HW224150   2.423   8.258   2.928 -1.6419  1.1934 -0.5710
39674SOL     OW24151   7.959  10.165   1.169  0.2652  0.2649  0.0132
39674SOL    HW124152   7.864  10.172   1.158  0.1067  0.9163  1.7106
39674SOL    HW224153   7.990  10.256   1.172  0.8531  0.0588  0.2470
39675SOL     OW24154   0.762   1.214   6.863  0.4101 -0.2211  0.3117
39675SOL    HW124155   0.710   1.138   6.839  0.2873 -0.7949  2.3099
39675SOL    HW224156   0.839   1.209   6.806  0.4396 -1.8892  0.4679
39676SOL     OW24157   3.073   9.227   1.187 -0.2612  0.3594  0.1021
39676SOL    HW124158   2.981   9.201   1.186 -0.4586  1.0137  0.7053
39676SOL    HW224159   3.090   9.258   1.098 -0.6322  0.2602 -0.0029
39677SOL     OW24160   4.140   0.715  10.447  0.0603 -0.1518  0.1236
39677SOL    HW124161   4.133   0.650  10.517 -0.4436  0.2096  0.4149
39677SOL    HW224162   4.083   0.787  10.475  0.8982  0.5845 -0.0104
39678SOL     OW24163   1.773   2.387   4.695 -0.0261 -0.2358 -0.0220
39678SOL    HW124164   1.706   2.384   4.763  0.0388 -1.2156  0.0040
39678SOL    HW224165   1.837   2.451   4.727 -1.0364  0.8515 -0.1453
39679SOL     OW24166   8.739   9.667   5.130 -0.5376  0.6602  0.2483
39679SOL    HW124167   8.817   9.613   5.121 -1.3581 -0.2699 -1.5620
39679SOL    HW224168   8.689   9.625   5.200  0.0108  0.5707  0.5929
39680SOL     OW24169   4.355   1.747   3.788 -0.3150  0.6199  0.5462
39680SOL    HW124170   4.433   1.785   3.748 -1.1435  2.3482  0.5447
39680SOL    HW224171   4.284   1.767   3.728 -1.0081  0.3136  1.2457
39681SOL     OW24172   7.343   4.377   7.455  0.0414  0.9665 -0.1949
39681SOL    HW124173   7.431   4.342   7.471 -0.7026 -1.1347 -0.4489
39681SOL    HW224174   7.331   4.368   7.361 -1.2563 -0.9100  0.1037
39682SOL     OW24175   0.352   6.048   0.180  0.4602  0.8177 -0.5754
39682SOL    HW124176   0.429   6.064   0.125 -0.6851 -0.4250 -2.5551
39682SOL    HW224177   0.379   5.975   0.236  1.0547  1.0257 -0.5792
39683SOL     OW24178   3.448   9.009   4.175  0.0590  0.1628 -0.9560
39683SOL    HW124179   3.380   9.060   4.218 -1.3512 -1.2075 -1.5113
39683SOL    HW224180   3.516   8.999   4.242 -0.7835  0.5812 -0.0157
39684SOL     OW24181   2.539   2.088   8.771  0.3657 -0.0627  0.2911
39684SOL    HW124182   2.538   2.103   8.866 -0.1395  1.2156  0.0956
39684SOL    HW224183   2.500   2.001   8.760 -0.0891  0.0171  1.2186
39685SOL     OW24184   1.729   6.075   7.215 -0.4722 -0.5952  0.0715
39685SOL    HW124185   1.655   6.120   7.255  1.9468  0.0608  4.0534
39685SOL    HW224186   1.775   6.143   7.165  0.5761  0.3942  2.2961
39686SOL     OW24187   1.520  11.243   7.212  0.7774  0.2820  0.3720
39686SOL    HW124188   1.517  11.186   7.135 -1.3750  1.8395 -0.7383
39686SOL    HW224189   1.604  11.290   7.204 -0.1239  1.5766 -1.8999
39687SOL     OW24190   9.690   1.041   3.492 -0.3849 -0.1453 -0.8835
39687SOL    HW124191   9.601   1.071   3.477 -0.0978  0.5223 -1.2939
39687SOL    HW224192   9.692   0.952   3.455 -1.5976 -1.2204  1.5178
39688SOL     OW24193   7.862   1.666   1.142 -0.2406  0.3181  0.3732
39688SOL    HW124194   7.916   1.719   1.202  0.5929  0.4583 -0.4913
39688SOL    HW224195   7.824   1.729   1.082  0.0331  0.0368 -0.0974
39689SOL     OW24196   1.333   4.684  11.165 -0.1905  0.1012 -0.6202
39689SOL    HW124197   1.373   4.615  11.217 -0.6411 -0.9519 -1.6566
39689SOL    HW224198   1.404   4.746  11.148  0.3304 -0.3581 -0.1174
39690SOL     OW24199   3.106  10.698   4.976  0.0757  0.1913  0.7197
39690SOL    HW124200   3.109  10.602   4.968  0.0017  0.2090  0.4798
39690SOL    HW224201   3.031  10.724   4.924 -0.1137  0.3520  1.0738
39691SOL     OW24202   3.666   8.212   7.900 -0.3153  0.1594  0.0630
39691SOL    HW124203   3.587   8.161   7.917 -0.0105 -0.3720 -0.0828
39691SOL    HW224204   3.702   8.174   7.820  1.1267 -0.9048  1.1926
39692SOL     OW24205  11.229   5.878   1.574 -0.6076 -0.3119  0.3771
39692SOL    HW124206  11.311   5.829   1.573 -0.8729 -0.7827  1.2370
39692SOL    HW224207  11.171   5.827   1.517 -0.6252 -0.5413  0.6000
39693SOL     OW24208   0.694   6.823   6.081 -0.3329  0.2239  0.4312
39693SOL    HW124209   0.700   6.760   6.010  0.7219 -0.1350  0.8198
39693SOL    HW224210   0.635   6.783   6.145 -0.6042  0.1659  0.1423
39694SOL     OW24211   2.789   7.267   5.229 -0.1753 -0.4204  0.8066
39694SOL    HW124212   2.746   7.232   5.151  0.3888 -0.6873  0.6069
39694SOL    HW224213   2.824   7.352   5.201  1.7781 -1.4038  0.1656
39695SOL     OW24214   3.700   4.810   3.791 -0.0048  0.3843  0.5622
39695SOL    HW124215   3.629   4.875   3.783 -1.7965 -1.4873  0.7571
39695SOL    HW224216   3.757   4.828   3.716 -2.7892 -0.5135 -1.8638
39696SOL     OW24217   5.033   6.415   2.694 -0.0499  0.0909 -0.4378
39696SOL    HW124218   5.039   6.468   2.773 -1.6106  0.5985 -0.6349
39696SOL    HW224219   5.121   6.379   2.682  0.3784  0.5623  1.1320
39697SOL     OW24220  10.649   6.618   0.041 -0.2058  0.2531  0.1273
39697SOL    HW124221  10.616   6.591  -0.045 -1.2097 -0.5545  0.7669
39697SOL    HW224222  10.733   6.660   0.021  1.3824 -3.1633 -0.9565
39698SOL     OW24223   8.710   1.202   2.389  0.1136  0.3996 -0.0456
39698SOL    HW124224   8.658   1.271   2.428 -0.8946 -1.4151  1.9250
39698SOL    HW224225   8.735   1.146   2.462  1.0918 -1.2101 -1.5567
39699SOL     OW24226   0.895   8.643   8.442 -0.1953  0.8102 -0.5132
39699SOL    HW124227   0.922   8.708   8.377  0.9726  0.5864 -0.2631
39699SOL    HW224228   0.936   8.562   8.413  0.2490  0.6839  0.4350
39700SOL     OW24229   1.784  11.032   9.289 -0.0055 -0.2756 -0.1203
39700SOL    HW124230   1.784  10.997   9.201 -0.6647 -0.1852 -0.1591
39700SOL    HW224231   1.865  11.083   9.295  0.2542 -0.6473 -0.5232
39701SOL     OW24232   7.453   5.909   4.218 -0.1976  0.6189 -0.4469
39701SOL    HW124233   7.371   5.941   4.180  0.8576  0.4780 -2.9706
39701SOL    HW224234   7.427   5.847   4.286 -2.1814  1.6167 -0.2857
39702SOL     OW24235   1.564   1.608   1.178 -0.2719 -0.6383 -0.2195
39702SOL    HW124236   1.637   1.645   1.128  0.0449 -1.6097 -0.4935
39702SOL    HW224237   1.601   1.588   1.264 -0.5127 -0.0500  0.0176
39703SOL     OW24238   8.995   7.735   4.984  0.4032  0.3185  0.0108
39703SOL    HW124239   9.085   7.760   4.964 -0.2706  1.6488 -1.4469
39703SOL    HW224240   8.970   7.676   4.914 -0.1956  0.7515 -0.1395
39704SOL     OW24241   1.671   9.607   2.359 -0.3355 -0.2830  0.5688
39704SOL    HW124242   1.590   9.647   2.327  0.5796  0.9095 -0.3100
39704SOL    HW224243   1.736   9.627   2.292  0.5574 -1.7791  0.9550
39705SOL     OW24244   7.226   4.878   7.633 -0.5798  0.2931  0.8254
39705SOL    HW124245   7.289   4.815   7.668 -1.6423 -1.0533  0.3572
39705SOL    HW224246   7.147   4.864   7.685 -1.5436 -0.3603 -0.7759
39706SOL     OW24247   2.612   3.100   9.628  0.1456  0.8209  0.0648
39706SOL    HW124248   2.548   3.130   9.692  0.8250  0.2904  1.0188
39706SOL    HW224249   2.690   3.080   9.680  0.5448 -0.0996 -0.8634
39707SOL     OW24250   3.259   7.595   5.903 -0.2864 -0.5283  0.4048
39707SOL    HW124251   3.326   7.549   5.954  0.2906 -0.1838 -0.0460
39707SOL    HW224252   3.217   7.525   5.852 -0.1945 -0.7287  0.5998
39708SOL     OW24253   5.378   7.180   1.261 -0.5456 -0.3623  0.6845
39708SOL    HW124254   5.284   7.186   1.280 -1.5440  2.7090 -4.2351
39708SOL    HW224255   5.418   7.238   1.326 -2.5695  1.7561  0.1238
39709SOL     OW24256   7.351   6.410  10.177 -0.4061 -0.1590  1.0216
39709SOL    HW124257   7.446   6.420  10.164 -0.5505  1.3857  1.0613
39709SOL    HW224258   7.316   6.498  10.165 -1.7693 -0.6063  1.6554
39710SOL     OW24259   4.317   1.795   1.936  0.0377  0.1215 -0.2849
39710SOL    HW124260   4.288   1.723   1.880 -1.0220 -0.3135  0.8022
39710SOL    HW224261   4.238   1.825   1.979  1.1677 -1.2815  2.9876
39711SOL     OW24262   8.617   8.875   8.470 -0.0992  0.0184 -0.1489
39711SOL    HW124263   8.572   8.944   8.519  0.9429  0.7624 -0.2271
39711SOL    HW224264   8.551   8.842   8.409 -0.9085  0.2354  0.5962
39712SOL     OW24265   1.528   4.287   7.697  0.1616 -0.5534  0.2063
39712SOL    HW124266   1.469   4.286   7.622 -0.2778  0.7345  0.5168
39712SOL    HW224267   1.504   4.210   7.748 -2.0320  0.5600  0.9182
39713SOL     OW24268   7.585   7.120   5.245  0.1793 -0.4502 -0.3010
39713SOL    HW124269   7.651   7.157   5.305  2.1771  0.3820 -2.9059
39713SOL    HW224270   7.594   7.025   5.257  1.7894 -0.3499 -0.5126
39714SOL     OW24271   0.879   5.339   6.853  0.9137 -0.4581  0.1593
39714SOL    HW124272   0.942   5.310   6.787  1.1530  1.0422 -0.2880
39714SOL    HW224273   0.835   5.414   6.813 -0.1067 -0.5578  1.0584
39715SOL     OW24274   1.957   3.476  11.013 -0.4993  0.5215 -0.3216
39715SOL    HW124275   2.041   3.521  11.004 -0.9942  1.8358  1.4154
39715SOL    HW224276   1.931   3.455  10.923  1.7349 -0.0018 -0.8725
39716SOL     OW24277   6.925   3.158   0.079  0.0493 -0.1557  0.0338
39716SOL    HW124278   6.851   3.105   0.109 -0.2019  0.6191  0.8071
39716SOL    HW224279   6.980   3.097   0.030 -1.7417 -0.4752 -1.6665
39717SOL     OW24280   3.968   0.270   5.723 -0.2191  0.3274 -0.4047
39717SOL    HW124281   4.025   0.298   5.652 -1.2571  0.6733 -1.1094
39717SOL    HW224282   3.891   0.234   5.680 -0.4775 -0.2667  0.5362
39718SOL     OW24283   9.208   2.173  10.658  0.7279 -0.1603  0.0126
39718SOL    HW124284   9.125   2.215  10.679  0.4442 -0.9002  0.3910
39718SOL    HW224285   9.274   2.238  10.680  0.4721 -1.0235  3.6682
39719SOL     OW24286  10.427   7.717   3.618 -0.3748 -0.4095  0.1684
39719SOL    HW124287  10.429   7.813   3.625 -0.6406 -0.4312  0.5473
39719SOL    HW224288  10.407   7.687   3.706  0.0717 -0.8321  0.1282
39720SOL     OW24289   4.840   4.108   5.402 -0.2449 -0.3913 -0.4256
39720SOL    HW124290   4.916   4.108   5.461  0.7351 -0.5873 -1.6603
39720SOL    HW224291   4.869   4.057   5.326 -1.3300  0.2450 -1.2782
39721SOL     OW24292  11.299  10.593  10.567  0.1986 -0.1409 -0.6271
39721SOL    HW124293  11.224  10.642  10.532 -0.4982 -1.4466 -1.0074
39721SOL    HW224294  11.311  10.628  10.655 -1.0340 -0.0890 -0.4701
39722SOL     OW24295   3.409   8.524  10.650  0.3635  0.1894 -0.2347
39722SOL    HW124296   3.411   8.522  10.554 -1.0752  0.8350 -0.2738
39722SOL    HW224297   3.451   8.607  10.673 -0.4586  0.6291 -0.3334
39723SOL     OW24298   8.943   6.272   8.142  0.2093 -0.7547 -0.1314
39723SOL    HW124299   8.983   6.319   8.215  1.3377 -1.8779 -0.0290
39723SOL    HW224300   8.942   6.336   8.070  2.2290 -0.7467 -0.1578
39724SOL     OW24301   3.538   5.075   8.003 -0.1910 -0.1202 -0.5473
39724SOL    HW124302   3.500   5.094   8.089 -0.2087 -0.8724 -0.3845
39724SOL    HW224303   3.485   5.003   7.969  1.5561 -1.6953  0.0043
39725SOL     OW24304   5.892   0.827  10.311  0.6769 -0.4765  0.1782
39725SOL    HW124305   5.808   0.868  10.332 -0.1993 -1.6220 -0.9929
39725SOL    HW224306   5.879   0.735  10.332  1.3343 -0.8165 -0.8514
39726SOL     OW24307   5.583   3.704   0.729 -0.2207 -0.2631  0.9604
39726SOL    HW124308   5.563   3.749   0.647 -3.4278 -2.2468  0.5319
39726SOL    HW224309   5.583   3.773   0.795 -3.3367  0.6952  0.0700
39727SOL     OW24310   0.907   7.432   1.310  0.0135  0.3849  0.2418
39727SOL    HW124311   0.939   7.345   1.285  0.7104  0.8106 -0.3714
39727SOL    HW224312   0.984   7.477   1.344 -0.1748  1.0314 -0.1826
39728SOL     OW24313   0.589   7.109   5.966  0.0148 -0.1925  0.6458
39728SOL    HW124314   0.590   7.013   5.967  0.0692 -0.1922  0.6788
39728SOL    HW224315   0.612   7.134   6.055  0.7667 -0.1471  0.4456
39729SOL     OW24316   2.040   2.284   1.912  0.2384  0.3011 -0.5742
39729SOL    HW124317   2.067   2.352   1.850 -1.8093  0.5777 -1.2155
39729SOL    HW224318   1.988   2.331   1.977  1.1720 -0.2272  0.5687
39730SOL     OW24319   0.195   8.545   7.488 -0.1472 -0.3106  0.1125
39730SOL    HW124320   0.272   8.576   7.536  0.0129 -1.6559  0.7351
39730SOL    HW224321   0.191   8.451   7.507 -3.0176  0.0750  1.6283
39731SOL     OW24322   5.733   0.175   3.243 -0.3383  0.1541 -0.0122
39731SOL    HW124323   5.724   0.270   3.247  1.7856  0.4132 -0.7042
39731SOL    HW224324   5.813   0.157   3.292 -1.1707 -1.3747  0.8222
39732SOL     OW24325   2.751   3.107   9.390 -0.1407 -0.4536 -0.1555
39732SOL    HW124326   2.688   3.122   9.460 -1.8261 -2.1310 -1.2858
39732SOL    HW224327   2.817   3.049   9.429 -0.1550 -0.0143  0.5297
39733SOL     OW24328   7.465   8.754   6.195  0.6040  0.3321 -0.3786
39733SOL    HW124329   7.544   8.755   6.249 -0.5072  1.2948  1.2578
39733SOL    HW224330   7.403   8.701   6.244  0.2911 -0.6010 -1.7601
39734SOL     OW24331   0.821   8.324   9.202  0.1549  0.1364 -0.2070
39734SOL    HW124332   0.763   8.250   9.182  0.3689  0.3054 -1.4480
39734SOL    HW224333   0.871   8.294   9.278 -0.7328 -0.4622  0.1593
39735SOL     OW24334   0.563   9.426   1.944  0.3372 -0.1197  0.0910
39735SOL    HW124335   0.558   9.377   1.862  0.5124  1.4299 -0.8676
39735SOL    HW224336   0.523   9.511   1.924  0.5638  0.3504  1.5554
39736SOL     OW24337  10.637   3.072   4.686  0.0566  0.0535 -0.1128
39736SOL    HW124338  10.556   3.025   4.708  1.1779 -1.8564  0.0213
39736SOL    HW224339  10.685   3.079   4.768 -0.6499  2.6036  0.1320
39737SOL     OW24340  11.006   8.755   2.638  0.2075  0.1688  0.4673
39737SOL    HW124341  11.094   8.733   2.667 -0.4204 -3.7607 -0.3499
39737SOL    HW224342  10.989   8.696   2.565 -2.7967  1.4324  0.0707
39738SOL     OW24343  10.979  10.259   4.258 -0.0791 -0.2959 -0.0206
39738SOL    HW124344  10.895  10.234   4.218  0.7252 -0.2216 -1.8288
39738SOL    HW224345  10.960  10.341   4.303 -1.1401 -0.6408  0.1792
39739SOL     OW24346   2.540   7.256   2.154  0.6235 -0.5523 -0.0185
39739SOL    HW124347   2.519   7.348   2.135  1.2234 -0.2922  0.5576
39739SOL    HW224348   2.478   7.206   2.101 -0.4847  0.1911  0.5352
39740SOL     OW24349   8.024  11.164   0.869  0.2536  0.0803  0.0397
39740SOL    HW124350   8.069  11.129   0.792  1.3048 -0.5097  0.9035
39740SOL    HW224351   8.086  11.226   0.907 -0.2076  0.2717  0.4951
39741SOL     OW24352   8.091   3.958   7.510  0.7984  0.3098  0.2981
39741SOL    HW124353   8.048   4.007   7.440  0.7403 -1.5592 -0.9905
39741SOL    HW224354   8.184   3.971   7.496  0.7933 -0.3088 -0.3020
39742SOL     OW24355   3.168   1.437   0.448  0.7074 -0.0221 -0.1335
39742SOL    HW124356   3.131   1.499   0.384  0.1532 -0.2159  0.0010
39742SOL    HW224357   3.104   1.433   0.518  1.8542  1.0955  1.0158
39743SOL     OW24358  10.478  10.394  10.356 -0.2271 -0.1445 -0.8656
39743SOL    HW124359  10.568  10.392  10.322  0.0334 -1.5177 -0.1412
39743SOL    HW224360  10.432  10.455  10.298  1.5128  1.7023 -0.3579
39744SOL     OW24361   2.163   3.648  10.972  0.1475 -0.2726 -0.2535
39744SOL    HW124362   2.129   3.732  10.943 -1.6488  0.1295  2.8174
39744SOL    HW224363   2.250   3.668  11.007 -0.6730  0.5277  1.3979
39745SOL     OW24364   4.347   3.458   9.676 -0.0458  0.1439 -0.9301
39745SOL    HW124365   4.399   3.407   9.614 -0.3466 -1.6278  0.2097
39745SOL    HW224366   4.410   3.494   9.738  0.1048  0.5768 -1.3361
39746SOL     OW24367   7.858   7.027   4.367  0.3982 -0.2829 -0.0065
39746SOL    HW124368   7.944   7.052   4.334 -0.0153  2.7257  1.0659
39746SOL    HW224369   7.867   7.028   4.463 -0.6280 -0.6526  0.1046
39747SOL     OW24370  10.675   8.659   1.179  0.2820  0.1573 -0.6760
39747SOL    HW124371  10.624   8.578   1.180  0.3765  0.0975 -0.7365
39747SOL    HW224372  10.701   8.670   1.087  1.6823 -0.6290 -0.3864
39748SOL     OW24373   6.721   4.920   4.908 -0.0126  0.2869  0.3571
39748SOL    HW124374   6.721   4.941   5.001  0.0297  2.1588 -0.0305
39748SOL    HW224375   6.656   4.979   4.870  2.4968  2.1516 -1.2809
39749SOL     OW24376   2.067   6.183   9.722  0.1193 -0.4134 -0.0031
39749SOL    HW124377   2.083   6.273   9.693 -2.1755  0.1487  0.4139
39749SOL    HW224378   2.108   6.179   9.809 -0.1334  0.3506  0.1537
39750SOL     OW24379  11.248   5.112   3.840  0.1769  0.5524  0.1194
39750SOL    HW124380  11.180   5.077   3.782  0.3951  0.9576 -0.3860
39750SOL    HW224381  11.205   5.120   3.925 -0.5210  1.1545 -0.2843
39751SOL     OW24382   6.408   3.724   4.832  0.0998 -0.2427 -0.2571
39751SOL    HW124383   6.355   3.648   4.809  2.4706 -2.3858  1.1233
39751SOL    HW224384   6.357   3.770   4.898 -2.1896  0.4491 -2.4369
39752SOL     OW24385   5.968   2.016   7.061 -0.1718  0.2030  0.0595
39752SOL    HW124386   6.032   2.077   7.024  1.4909 -1.3301  0.3691
39752SOL    HW224387   5.997   2.003   7.151 -0.8471 -0.6401  0.1642
39753SOL     OW24388   4.313  10.232   9.292  0.4014  0.4214  0.2144
39753SOL    HW124389   4.389  10.249   9.237  1.6779 -0.8602  1.5524
39753SOL    HW224390   4.329  10.283   9.372  0.8084 -1.3238  1.2838
39754SOL     OW24391  11.088   2.959   0.844  0.1289 -0.0844  0.3133
39754SOL    HW124392  11.115   3.035   0.792  1.5483 -1.5548 -1.1735
39754SOL    HW224393  11.084   2.887   0.780 -0.3736 -1.4324  1.8331
39755SOL     OW24394   6.235   2.037   2.687 -0.2331 -0.3544  0.2412
39755SOL    HW124395   6.323   2.024   2.723 -0.6773 -1.2089  1.0564
39755SOL    HW224396   6.248   2.042   2.593  0.5540 -1.6721  0.2694
39756SOL     OW24397   0.486  11.200   4.988  0.7279 -0.0538 -0.0197
39756SOL    HW124398   0.436  11.272   5.025  1.2384 -0.1638  0.8859
39756SOL    HW224399   0.436  11.121   5.012  0.8074 -0.0925  0.0164
39757SOL     OW24400   2.471   8.172   1.680 -0.3429  0.3370 -0.1464
39757SOL    HW124401   2.520   8.214   1.609  1.4410 -1.8108 -0.2596
39757SOL    HW224402   2.533   8.171   1.753 -0.6162 -1.3601  0.0767
39758SOL     OW24403   0.668   0.710   9.394 -0.6602  0.2025 -0.2651
39758SOL    HW124404   0.657   0.653   9.469 -1.1811 -1.2667 -1.4367
39758SOL    HW224405   0.736   0.668   9.341 -1.5855  0.2344 -1.5177
39759SOL     OW24406   0.542  10.505   7.365  0.9125 -0.0016 -0.2339
39759SOL    HW124407   0.618  10.552   7.398  1.3470 -0.8054 -0.0679
39759SOL    HW224408   0.578  10.421   7.334  0.1214 -0.3150 -0.3104
39760SOL     OW24409   3.853   8.583   1.434 -0.1308 -0.1735  0.2563
39760SOL    HW124410   3.796   8.638   1.380  0.7587  0.2097 -0.2988
39760SOL    HW224411   3.799   8.507   1.455 -0.2963 -0.5964 -1.6589
39761SOL     OW24412   1.809   5.247   3.402 -0.4641  0.0526 -0.0828
39761SOL    HW124413   1.851   5.213   3.323 -0.2395  0.9375 -0.3515
39761SOL    HW224414   1.786   5.169   3.453 -1.8672 -0.6048 -1.6628
39762SOL     OW24415   9.728   7.537   7.543  0.0761  0.1414  0.2450
39762SOL    HW124416   9.714   7.585   7.625 -1.1409  1.7180 -0.8479
39762SOL    HW224417   9.688   7.452   7.557  2.1576 -0.5663  2.1853
39763SOL     OW24418  10.540   8.606   4.851 -0.3341 -0.0836 -0.1274
39763SOL    HW124419  10.553   8.691   4.809 -0.1399 -0.3969 -0.7065
39763SOL    HW224420  10.546   8.624   4.945 -0.7220  0.6151 -0.2372
39764SOL     OW24421   8.406   0.011   5.741 -0.2305  0.0820  0.1911
39764SOL    HW124422   8.426  -0.083   5.745 -1.5872 -0.2260  0.0383
39764SOL    HW224423   8.342   0.024   5.811  0.1625  0.9479  0.3867
39765SOL     OW24424   5.528   5.561   4.941 -0.0201 -0.0284  0.0610
39765SOL    HW124425   5.508   5.653   4.958 -0.4181 -0.3325  1.3193
39765SOL    HW224426   5.584   5.535   5.014 -0.0049 -0.8213 -0.2292
39766SOL     OW24427   5.529   0.839   9.306  0.1152  0.5655  0.0608
39766SOL    HW124428   5.454   0.828   9.249 -0.2001  1.4115  0.3087
39766SOL    HW224429   5.496   0.818   9.394  0.4524 -0.1653  0.0152
39767SOL     OW24430   4.653   0.971   5.421 -0.1383  0.1329  0.3760
39767SOL    HW124431   4.740   0.940   5.395 -0.5407 -1.7374  1.1684
39767SOL    HW224432   4.594   0.899   5.397 -1.4112  1.1992  0.2503
39768SOL     OW24433   3.538   0.094   9.874  0.6458  0.2879 -0.3987
39768SOL    HW124434   3.454   0.052   9.893  1.2515 -0.4563  0.6654
39768SOL    HW224435   3.561   0.062   9.787  0.3560 -0.3868 -0.2359
39769SOL     OW24436   9.162  10.173   7.092  0.2185 -0.0085 -0.4579
39769SOL    HW124437   9.238  10.170   7.034 -0.8047 -0.9410 -1.7512
39769SOL    HW224438   9.094  10.217   7.042 -0.5304 -0.3917  0.2050
39770SOL     OW24439   1.340   2.240   1.392 -0.4270 -0.5420 -0.2684
39770SOL    HW124440   1.304   2.323   1.361 -2.2293 -1.5279 -0.8690
39770SOL    HW224441   1.297   2.174   1.338  2.6135 -1.7549 -1.3327
39771SOL     OW24442   5.439   2.531  10.223 -0.3085 -0.5674 -0.0968
39771SOL    HW124443   5.398   2.593  10.163 -0.1660 -0.8249 -0.4615
39771SOL    HW224444   5.533   2.540  10.207 -0.1133  1.0825  1.7795
39772SOL     OW24445   8.990   2.166   5.409  0.1348 -0.3539  0.1554
39772SOL    HW124446   9.057   2.211   5.459  0.5283  0.4563 -1.0916
39772SOL    HW224447   9.036   2.093   5.367 -0.2899 -1.3215  1.3292
39773SOL     OW24448   7.066   2.600   1.618 -0.5233  0.2532 -0.2947
39773SOL    HW124449   7.001   2.542   1.579  0.1849 -0.0748 -1.0077
39773SOL    HW224450   7.130   2.615   1.548 -0.3487  1.3578  0.0864
39774SOL     OW24451   8.546   1.679   7.380  0.0453 -0.0944 -0.2460
39774SOL    HW124452   8.494   1.611   7.338  0.9064 -0.3503 -0.8958
39774SOL    HW224453   8.626   1.685   7.328 -0.3606  1.9769 -0.6916
39775SOL     OW24454  10.657   9.783   4.179 -0.3293  0.2967 -0.5879
39775SOL    HW124455  10.661   9.741   4.093 -2.4746  0.5055 -0.8151
39775SOL    HW224456  10.656   9.710   4.241 -1.3339  0.0532 -0.8731
39776SOL     OW24457   4.977   4.357   2.901 -0.0137 -0.2576 -0.3908
39776SOL    HW124458   5.012   4.276   2.862  2.3599  0.9389 -0.8148
39776SOL    HW224459   5.016   4.360   2.989 -0.4642  0.1851 -0.2073
39777SOL     OW24460   0.769   8.274   2.264 -0.1079  0.0628 -0.1475
39777SOL    HW124461   0.742   8.241   2.179 -2.7108  0.0683  0.6125
39777SOL    HW224462   0.822   8.351   2.245  1.6083 -1.5075 -1.7980
39778SOL     OW24463   8.590   2.169   0.747 -0.2234  0.6717  0.1736
39778SOL    HW124464   8.521   2.218   0.792 -0.1955 -0.8814  1.9594
39778SOL    HW224465   8.562   2.078   0.751  0.8277  0.2742 -1.1255
39779SOL     OW24466   6.838  10.951   6.827  0.3872 -0.3214 -0.3855
39779SOL    HW124467   6.922  10.918   6.860  0.3659  0.6867  0.7167
39779SOL    HW224468   6.776  10.936   6.898 -0.9010 -3.0337 -1.9856
39780SOL     OW24469   3.278   6.135   7.785 -0.1847 -0.0945  0.3539
39780SOL    HW124470   3.265   6.228   7.767 -1.3313  0.0123  1.7225
39780SOL    HW224471   3.373   6.124   7.786 -0.0460  0.7894 -1.0878
39781SOL     OW24472   3.659   8.119   3.553 -0.1066  0.0473 -0.3459
39781SOL    HW124473   3.661   8.042   3.610  0.7208 -1.1285 -1.9091
39781SOL    HW224474   3.750   8.132   3.527 -0.2265  1.6297 -0.0159
39782SOL     OW24475   3.416  11.147   5.412  0.1592 -0.0176 -0.3681
39782SOL    HW124476   3.321  11.151   5.418  0.2773  1.0255  1.1878
39782SOL    HW224477   3.441  11.227   5.366  0.3812  0.6037  0.8062
39783SOL     OW24478   5.600   5.092   5.065 -0.0420  0.2408  0.7926
39783SOL    HW124479   5.637   5.069   5.150 -2.4110 -0.4602  1.6924
39783SOL    HW224480   5.563   5.010   5.032 -0.9184  0.9240  0.0363
39784SOL     OW24481   7.206   4.998   6.029  0.7114  0.0123  0.0220
39784SOL    HW124482   7.175   4.981   6.118  1.7132 -0.8042  0.2129
39784SOL    HW224483   7.296   4.965   6.027  1.4600  1.9942 -0.6541
39785SOL     OW24484   3.872  11.103   4.052  0.2514  1.1229 -0.0196
39785SOL    HW124485   3.819  11.135   3.979  0.7392  1.3143 -0.2938
39785SOL    HW224486   3.857  11.008   4.052  0.3835  1.0990 -0.4819
39786SOL     OW24487  11.284   1.166   8.133 -0.0117 -0.3164 -0.0234
39786SOL    HW124488  11.374   1.154   8.104 -0.5346 -0.7849 -1.4861
39786SOL    HW224489  11.285   1.249   8.181  0.9233  0.3514 -1.1964
39787SOL     OW24490   3.726   8.892   2.425 -0.3446  0.6444 -0.2480
39787SOL    HW124491   3.670   8.969   2.425 -2.4421 -0.8142 -1.8008
39787SOL    HW224492   3.688   8.834   2.491 -0.0147  0.1068 -0.5194
39788SOL     OW24493  10.493   8.038   7.082  0.3064  0.9119  0.5502
39788SOL    HW124494  10.449   8.120   7.058 -0.4962 -0.0389 -1.3260
39788SOL    HW224495  10.488   8.035   7.177  0.2847  3.0121  0.6384
39789SOL     OW24496   8.797   7.934   9.532  0.1849 -0.7298 -0.1105
39789SOL    HW124497   8.852   8.002   9.493  0.8565 -0.6452  0.9677
39789SOL    HW224498   8.765   7.883   9.457  2.3362 -1.2583 -0.7015
39790SOL     OW24499   3.296   3.500   1.230  0.0815 -0.2612 -0.2462
39790SOL    HW124500   3.387   3.495   1.202  0.8375  1.2676  1.8105
39790SOL    HW224501   3.255   3.561   1.168  0.9218  0.5250 -0.0329
39791SOL     OW24502   9.508   6.720   7.446 -0.1735  0.1949  0.3379
39791SOL    HW124503   9.440   6.787   7.461  0.6435  0.9666  0.6664
39791SOL    HW224504   9.587   6.757   7.486  0.8746  0.0757 -1.5627
39792SOL     OW24505   6.430   1.366   8.428  0.0753  0.2294 -0.0312
39792SOL    HW124506   6.343   1.370   8.467 -1.5912 -2.4466 -3.2173
39792SOL    HW224507   6.486   1.330   8.497 -1.2800  2.0339  2.0638
39793SOL     OW24508   0.448   7.247   5.638  0.3010 -0.4434 -0.4183
39793SOL    HW124509   0.528   7.299   5.629  0.2684 -0.6275 -1.9541
39793SOL    HW224510   0.474   7.158   5.615  0.5531 -1.3144  3.0598
39794SOL     OW24511   8.207   3.318   8.303 -0.3058 -0.0554  0.2805
39794SOL    HW124512   8.153   3.397   8.310  0.5101  0.4103  1.4121
39794SOL    HW224513   8.145   3.246   8.313 -1.0014  0.4383 -0.3720
39795SOL     OW24514  11.221   1.901   6.654 -0.0730  0.2300 -0.2164
39795SOL    HW124515  11.175   1.953   6.719  0.3396  0.3829 -0.0467
39795SOL    HW224516  11.204   1.946   6.571 -0.1405  0.3477 -0.1387
39796SOL     OW24517   9.744   4.360   2.740  0.4404 -0.1800 -0.2967
39796SOL    HW124518   9.730   4.356   2.835 -0.7765  0.1304 -0.4474
39796SOL    HW224519   9.802   4.434   2.727  1.3862 -0.8152  0.2866
39797SOL     OW24520   0.019   2.456   9.849  0.4138 -0.5723  0.4149
39797SOL    HW124521   0.038   2.517   9.778  1.8797 -2.0795 -0.5324
39797SOL    HW224522  -0.053   2.402   9.816  0.2465 -0.4606  0.5913
39798SOL     OW24523   7.156   2.298   2.173  0.1763  0.0025 -0.4883
39798SOL    HW124524   7.094   2.268   2.106 -1.0281  0.2491  0.5097
39798SOL    HW224525   7.112   2.280   2.256  1.1259  0.8945  0.2154
39799SOL     OW24526   6.778   5.472   9.981  0.2207 -0.6834 -0.5165
39799SOL    HW124527   6.702   5.442  10.030 -0.5324  0.5705 -0.8820
39799SOL    HW224528   6.830   5.521  10.044 -0.2746  0.1267 -0.7247
39800SOL     OW24529   5.735   8.667   3.506  0.1993  0.3125 -0.2293
39800SOL    HW124530   5.751   8.657   3.600 -0.3413  1.9215  0.0478
39800SOL    HW224531   5.769   8.754   3.485  0.1858  0.0210 -1.5018
39801SOL     OW24532   5.303   4.509   1.381 -0.2375  0.3913 -0.2253
39801SOL    HW124533   5.254   4.591   1.369 -1.0888 -0.5710 -3.8975
39801SOL    HW224534   5.372   4.513   1.315  0.4095 -1.3442  0.3350
39802SOL     OW24535   7.593  10.650   2.219  0.7104  0.2383  0.2317
39802SOL    HW124536   7.641  10.732   2.203  1.8797 -0.0112  2.2481
39802SOL    HW224537   7.646  10.582   2.177 -0.7231  0.5582 -2.2344
39803SOL     OW24538   6.066   3.504   7.713 -0.9288 -0.3635  0.7339
39803SOL    HW124539   6.003   3.492   7.642 -0.5662 -1.1599  0.5387
39803SOL    HW224540   6.138   3.552   7.673 -0.2412 -1.7346  0.2609
39804SOL     OW24541   1.526   0.042   1.940  0.4390  0.0984  0.9007
39804SOL    HW124542   1.571  -0.041   1.951  0.8013  0.2080  0.2265
39804SOL    HW224543   1.487   0.037   1.853 -4.0283 -1.5409  2.8485
39805SOL     OW24544   0.509   5.148  10.453 -0.1678 -0.4493  0.3019
39805SOL    HW124545   0.421   5.114  10.471 -0.1814  0.0487  1.2212
39805SOL    HW224546   0.552   5.146  10.538  0.7466 -0.7862 -0.1664
39806SOL     OW24547   7.899   3.552   0.853 -0.6032 -0.3493  0.5554
39806SOL    HW124548   7.857   3.493   0.915  0.1024 -0.3251  1.0719
39806SOL    HW224549   7.951   3.495   0.796 -1.5798 -0.4075 -0.2806
39807SOL     OW24550   8.044   0.802   3.676  0.4706  0.6609  0.2245
39807SOL    HW124551   7.981   0.862   3.635  0.1082 -0.1292 -0.4179
39807SOL    HW224552   7.998   0.718   3.678  1.1973  0.2642  0.5430
39808SOL     OW24553   7.851   2.524   4.320 -0.0332  0.4432 -0.0192
39808SOL    HW124554   7.816   2.613   4.314  0.8477  0.8446  0.7562
39808SOL    HW224555   7.907   2.525   4.397  0.0885 -0.7546 -0.0809
39809SOL     OW24556  10.076   4.894   2.821 -0.0226 -0.2423  0.3115
39809SOL    HW124557  10.078   4.928   2.732 -0.9638 -0.5353  0.1753
39809SOL    HW224558  10.042   4.966   2.874  0.5406 -0.0668  0.4440
39810SOL     OW24559  10.101   1.130   0.359 -0.0888 -0.4734  0.3792
39810SOL    HW124560  10.026   1.109   0.304 -1.0795  1.2935  1.0106
39810SOL    HW224561  10.066   1.130   0.448  0.7282  0.0322  0.7050
39811SOL     OW24562   1.911   5.823   2.125  0.0058  0.6313  0.5489
39811SOL    HW124563   1.949   5.744   2.165 -1.0328 -0.6014 -0.8228
39811SOL    HW224564   1.890   5.796   2.035 -2.6905  1.7018  0.8002
39812SOL     OW24565  10.322  10.539   9.354  0.5355 -0.4724 -0.2787
39812SOL    HW124566  10.361  10.456   9.326  1.1331  0.0607 -1.0379
39812SOL    HW224567  10.294  10.581   9.273  0.5554  0.2240  0.0691
39813SOL     OW24568   4.192   9.925   1.620 -0.2423  0.1081  0.0112
39813SOL    HW124569   4.202  10.020   1.619 -0.9219  0.2336  2.0095
39813SOL    HW224570   4.139   9.906   1.542 -2.6882  1.7265  1.1896
39814SOL     OW24571   4.742   0.573   4.565 -0.3407 -0.8962  0.0237
39814SOL    HW124572   4.667   0.626   4.536 -0.6013 -1.6401 -0.6895
39814SOL    HW224573   4.742   0.583   4.660 -0.9534 -0.3683 -0.0178
39815SOL     OW24574   2.100   7.630   6.803 -0.3241  0.1749  0.7255
39815SOL    HW124575   2.195   7.622   6.808 -0.2668 -0.1258 -0.5093
39815SOL    HW224576   2.080   7.714   6.844  0.5609  0.5934  0.3069
39816SOL     OW24577   2.317   0.173   1.224  0.0876 -0.4612 -0.4157
39816SOL    HW124578   2.247   0.202   1.166  1.4359  2.6485 -0.6035
39816SOL    HW224579   2.378   0.247   1.227  2.9812 -2.7662  0.3731
39817SOL     OW24580   5.469   8.983   9.573  0.0287 -0.5132 -0.5221
39817SOL    HW124581   5.531   8.916   9.603 -1.3598 -1.9821 -0.8959
39817SOL    HW224582   5.396   8.977   9.634 -0.1241  0.6473 -0.5913
39818SOL     OW24583   2.296   5.679   9.353 -0.6615  1.3373 -0.1975
39818SOL    HW124584   2.344   5.662   9.271 -1.6361  0.6028 -0.6356
39818SOL    HW224585   2.233   5.748   9.330  0.4236  2.5645  0.4699
39819SOL     OW24586   9.301  11.085   3.491 -0.4189 -0.3225  0.2994
39819SOL    HW124587   9.211  11.079   3.521  0.0595 -0.0078  1.8104
39819SOL    HW224588   9.302  11.158   3.429 -0.9795  0.3669  1.0969
39820SOL     OW24589   9.143   2.874   4.554 -0.4833  0.2989  0.4007
39820SOL    HW124590   9.187   2.842   4.475  0.1355  1.4156  0.2803
39820SOL    HW224591   9.072   2.929   4.521 -0.7280  0.1163  0.6168
39821SOL     OW24592  11.197  10.823   0.627  0.1500  0.5543  0.1427
39821SOL    HW124593  11.279  10.854   0.665 -0.9291  0.5574  2.5868
39821SOL    HW224594  11.202  10.728   0.634  0.7110  0.4459 -1.4345
39822SOL     OW24595  11.110   6.988   3.702  0.0336  0.0327 -0.4693
39822SOL    HW124596  11.079   6.979   3.612  0.1322  1.9556 -0.7052
39822SOL    HW224597  11.156   6.905   3.719 -1.2132 -0.9386 -1.6790
39823SOL     OW24598  10.459  10.269   9.556 -0.0018 -0.0118  0.1935
39823SOL    HW124599  10.527  10.287   9.492 -1.1368 -1.0847 -1.3616
39823SOL    HW224600  10.386  10.326   9.531 -1.5448 -2.5747 -1.3484
39824SOL     OW24601   4.740  10.902   0.279  0.5246  0.2495 -0.1600
39824SOL    HW124602   4.650  10.873   0.290 -0.3959  2.5533 -1.3325
39824SOL    HW224603   4.793  10.826   0.303 -1.6987 -0.9409  1.1201
39825SOL     OW24604   7.744   6.217   5.825 -0.0133  0.1005 -0.1052
39825SOL    HW124605   7.689   6.281   5.779  1.6718  1.2396 -0.5739
39825SOL    HW224606   7.695   6.198   5.906 -0.5425  1.9895  0.0516
39826SOL     OW24607   4.063   9.793   7.508  0.6730 -0.2192  0.0042
39826SOL    HW124608   3.978   9.752   7.527  0.0083  0.8494 -0.5611
39826SOL    HW224609   4.089   9.755   7.424  0.6457 -0.3937  0.0744
39827SOL     OW24610   2.807   6.889   0.345  0.0867 -0.1573  0.0633
39827SOL    HW124611   2.748   6.816   0.364  1.1065 -1.0769 -0.2435
39827SOL    HW224612   2.752   6.953   0.300 -0.9397 -0.5024  0.8050
39828SOL     OW24613   6.665   6.151   0.466 -0.2392  0.1121 -0.5342
39828SOL    HW124614   6.667   6.218   0.397  0.3100 -0.5486 -1.1714
39828SOL    HW224615   6.579   6.160   0.506 -0.7132  0.2515 -1.5711
39829SOL     OW24616   7.497  10.286  10.254  0.2472  0.1116  0.5622
39829SOL    HW124617   7.440  10.213  10.282  0.1315  1.0272  2.8484
39829SOL    HW224618   7.505  10.275  10.159 -2.0544 -1.2559  0.4812
39830SOL     OW24619   7.832   9.549   9.119 -0.3262 -0.3154  0.2131
39830SOL    HW124620   7.737   9.544   9.103 -0.8198 -0.6532  3.0626
39830SOL    HW224621   7.855   9.464   9.156  0.4537  0.8872  2.5932
39831SOL     OW24622   1.469   6.600   7.112  0.0012  0.1103 -0.3642
39831SOL    HW124623   1.398   6.663   7.097 -0.0190  0.2300  0.2221
39831SOL    HW224624   1.453   6.530   7.049 -0.4069  0.3299 -0.5073
39832SOL     OW24625   6.008   2.783   3.874 -0.0735  0.2846  0.2779
39832SOL    HW124626   5.930   2.735   3.846 -0.4633  0.9955  0.1557
39832SOL    HW224627   6.015   2.856   3.813  2.1674 -1.2117 -1.3564
39833SOL     OW24628   8.989   6.880   9.824  0.1430  0.2221 -0.1704
39833SOL    HW124629   9.049   6.830   9.769  1.6594  1.8375 -0.0390
39833SOL    HW224630   8.939   6.933   9.763 -1.0046 -0.9495 -0.2607
39834SOL     OW24631   5.878   9.572   0.038 -0.6642 -0.3398 -0.5410
39834SOL    HW124632   5.898   9.513   0.111 -2.7772  0.4490  0.7097
39834SOL    HW224633   5.900   9.659   0.071 -1.6315  0.0192 -0.8294
39835SOL     OW24634   1.685   6.461   8.880  0.8789 -0.0341  0.1064
39835SOL    HW124635   1.698   6.458   8.975 -0.6314 -0.5081  0.3147
39835SOL    HW224636   1.671   6.553   8.860  0.9017  0.0293  0.3884
39836SOL     OW24637   7.312   0.861   5.899 -0.0454 -0.9725 -0.4636
39836SOL    HW124638   7.313   0.827   5.989  0.5117  0.6760  0.1747
39836SOL    HW224639   7.318   0.784   5.844 -0.9773 -2.0539  0.9122
39837SOL     OW24640   5.801  10.650   3.378  0.1206 -0.5856 -0.8528
39837SOL    HW124641   5.713  10.625   3.352  0.8440 -0.5339 -3.6008
39837SOL    HW224642   5.817  10.733   3.332  0.5809  0.8874  1.8885
39838SOL     OW24643   7.789   4.107   4.837 -0.8333 -0.5175  0.1074
39838SOL    HW124644   7.745   4.104   4.922  0.7341 -1.6750  0.9038
39838SOL    HW224645   7.823   4.018   4.824  0.3592  0.0730 -0.9555
39839SOL     OW24646   9.446   7.206   4.377 -0.2388 -0.2240  0.4705
39839SOL    HW124647   9.540   7.213   4.367 -0.2869 -1.2687 -0.6607
39839SOL    HW224648   9.413   7.183   4.291 -1.2712 -2.4943  1.4191
39840SOL     OW24649   9.600   9.291   5.307  0.1450 -0.4672  0.0709
39840SOL    HW124650   9.585   9.242   5.389  0.5628 -0.0975  0.3683
39840SOL    HW224651   9.692   9.277   5.287 -0.1419 -1.2077 -0.7695
39841SOL     OW24652   3.100   5.695   5.939  0.0381 -0.0312  0.1243
39841SOL    HW124653   3.009   5.668   5.953  0.0684 -0.0937  0.2049
39841SOL    HW224654   3.095   5.789   5.922 -0.0617 -0.0738 -0.0882
39842SOL     OW24655   1.035   6.497   6.555  0.0669  0.0044  0.2231
39842SOL    HW124656   1.096   6.494   6.629 -0.3660  1.1256  0.6244
39842SOL    HW224657   1.092   6.504   6.478  0.4835 -0.3071  0.4994
39843SOL     OW24658   2.458   6.501   9.221 -0.7349  0.0876 -0.3474
39843SOL    HW124659   2.455   6.416   9.265  0.2784 -0.2862 -0.9819
39843SOL    HW224660   2.383   6.501   9.162 -0.9321 -0.2219 -0.0984
39844SOL     OW24661   3.993   0.555  11.054 -0.4291  0.1547  0.7008
39844SOL    HW124662   4.076   0.522  11.018  0.8756  3.1186  0.9038
39844SOL    HW224663   3.981   0.506  11.136  1.2064 -0.1376  0.7721
39845SOL     OW24664   3.430   1.080   1.420 -0.1316  0.0081  0.0818
39845SOL    HW124665   3.397   1.001   1.461 -1.2743  0.4448  0.0413
39845SOL    HW224666   3.412   1.068   1.327 -2.3615  1.2403  0.3148
39846SOL     OW24667   1.357   6.930   5.301 -0.3265 -0.4212  0.2923
39846SOL    HW124668   1.402   6.868   5.243 -0.7629 -1.7487  1.3478
39846SOL    HW224669   1.404   7.012   5.288 -1.5555 -0.2108 -3.2807
39847SOL     OW24670   3.061   0.354   0.068 -0.3850  0.2308 -0.5004
39847SOL    HW124671   3.151   0.384   0.080 -0.4338  0.3135 -0.3377
39847SOL    HW224672   3.007   0.426   0.100 -0.5339  0.7854 -1.9761
39848SOL     OW24673   8.075   9.780  10.656  0.0344 -0.3632  0.1494
39848SOL    HW124674   8.074   9.873  10.634 -2.3099 -0.0850  1.2373
39848SOL    HW224675   8.011   9.771  10.727  1.8574 -2.4426  1.6193
39849SOL     OW24676   0.451   1.234   5.156 -0.0503 -0.0652 -0.1635
39849SOL    HW124677   0.443   1.241   5.251  0.3740  0.7534 -0.1819
39849SOL    HW224678   0.414   1.316   5.123 -1.6939 -1.0397 -0.7943
39850SOL     OW24679   3.115   8.957   1.957  0.0346 -0.4178 -0.4223
39850SOL    HW124680   3.200   8.916   1.940 -0.1830 -1.3271  0.5941
39850SOL    HW224681   3.129   9.010   2.036 -0.3098 -0.4657 -0.3281
39851SOL     OW24682   1.944   6.572   0.571 -0.2261 -0.0650  0.0258
39851SOL    HW124683   1.875   6.505   0.575 -0.7972  0.5092 -0.1162
39851SOL    HW224684   1.997   6.557   0.648 -1.2179  0.2411  0.7791
39852SOL     OW24685   6.127   0.538   8.740 -0.2919  0.3844  0.0385
39852SOL    HW124686   6.055   0.581   8.694  0.1547  0.4687 -0.5954
39852SOL    HW224687   6.172   0.487   8.672 -1.6374 -2.2023  1.0393
39853SOL     OW24688   7.307   0.938   4.117  0.1502  0.2587 -0.0015
39853SOL    HW124689   7.323   0.907   4.207 -0.4095 -0.6808 -0.2165
39853SOL    HW224690   7.393   0.970   4.088  0.0634  1.7589  1.3082
39854SOL     OW24691   7.900   8.317   7.364  0.4741  0.1354  0.3823
39854SOL    HW124692   7.834   8.250   7.349  2.5736 -2.2039  1.1918
39854SOL    HW224693   7.852   8.390   7.403 -1.8285 -0.9550 -0.3223
39855SOL     OW24694   1.412   1.231   8.052 -0.2270 -0.6059 -0.7050
39855SOL    HW124695   1.437   1.199   7.966 -0.0500  0.0892 -0.9155
39855SOL    HW224696   1.444   1.321   8.055  1.5494 -1.2340  0.8240
39856SOL     OW24697   7.087   3.769   9.306  0.0493  0.1195  0.0073
39856SOL    HW124698   7.004   3.722   9.314 -0.7753  1.0474 -2.7634
39856SOL    HW224699   7.150   3.701   9.281 -0.7023  0.0813 -1.8299
39857SOL     OW24700   5.703   5.649   6.936  0.2304 -0.4646  0.2204
39857SOL    HW124701   5.798   5.639   6.937  0.2206 -0.5469  1.1975
39857SOL    HW224702   5.687   5.725   6.992 -0.2473 -0.1808 -0.3051
39858SOL     OW24703   7.690   8.200   7.072 -0.2448  0.6499  0.3518
39858SOL    HW124704   7.773   8.205   7.025 -0.4621  1.3677  0.0376
39858SOL    HW224705   7.710   8.152   7.152  0.2921  0.0928 -0.1141
39859SOL     OW24706   4.191   0.904   1.339 -0.6490 -0.0207 -0.2580
39859SOL    HW124707   4.183   0.971   1.271 -1.6632 -0.2946 -0.4057
39859SOL    HW224708   4.151   0.943   1.417 -1.6725 -0.6395 -0.4721
39860SOL     OW24709   7.515   9.633   4.156 -0.2359 -0.4480 -0.0786
39860SOL    HW124710   7.520   9.714   4.105  0.8150  0.3199  1.2049
39860SOL    HW224711   7.454   9.578   4.108 -0.2999  0.7782 -1.4380
39861SOL     OW24712   7.149   5.510   0.662 -0.2683  0.1638 -0.3996
39861SOL    HW124713   7.211   5.441   0.639 -2.7981 -2.3849  0.1245
39861SOL    HW224714   7.193   5.559   0.731  2.0787 -0.1402 -1.6371
39862SOL     OW24715   3.716   2.879   7.265  0.0415  1.0655  0.0612
39862SOL    HW124716   3.681   2.962   7.296 -0.4012  0.3042  1.7211
39862SOL    HW224717   3.639   2.830   7.235  0.1150  0.7266  0.4151
39863SOL     OW24718   0.198   4.071   2.890 -0.2613  0.0451 -0.7191
39863SOL    HW124719   0.249   4.117   2.824  0.8215 -0.5115 -0.2836
39863SOL    HW224720   0.111   4.060   2.850  0.1311  0.4687 -1.7030
39864SOL     OW24721  11.298   8.110  10.432 -0.1576  0.1824 -0.0759
39864SOL    HW124722  11.391   8.128  10.446 -0.2670  0.0092  0.9016
39864SOL    HW224723  11.270   8.065  10.512 -0.8033 -0.8103 -0.8487
39865SOL     OW24724   4.653  10.772   9.559 -0.3791  0.4693  0.4019
39865SOL    HW124725   4.736  10.729   9.542  0.3392  1.7385  0.6635
39865SOL    HW224726   4.637  10.758   9.652 -0.2223  0.6344  0.4533
39866SOL     OW24727   4.294  10.884   7.189 -0.4562  0.0421 -0.0140
39866SOL    HW124728   4.223  10.821   7.175  0.8309 -0.6454 -4.2442
39866SOL    HW224729   4.249  10.966   7.212 -2.3549 -1.3964  1.5594
39867SOL     OW24730   7.618  11.058   3.055  0.8937 -0.1243 -0.2775
39867SOL    HW124731   7.600  10.967   3.033  0.2651  0.4320 -2.1867
39867SOL    HW224732   7.567  11.108   2.991  0.7809  1.5616  1.1066
39868SOL     OW24733   7.213  11.137   8.828 -0.3266 -0.2984  0.2998
39868SOL    HW124734   7.273  11.199   8.786  0.5761 -0.8797  0.7123
39868SOL    HW224735   7.127  11.179   8.823 -0.1705 -0.1843 -1.7935
39869SOL     OW24736   1.128   0.721   4.009 -0.2539 -0.1209  0.2786
39869SOL    HW124737   1.049   0.745   4.058  0.0280  1.1188  0.1495
39869SOL    HW224738   1.153   0.636   4.044 -0.0986  0.6997  2.2486
39870SOL     OW24739   6.566   8.770   2.829  0.4204 -0.7741 -0.2908
39870SOL    HW124740   6.590   8.738   2.916  2.4188 -0.1778 -0.5951
39870SOL    HW224741   6.485   8.724   2.807  0.5511 -1.8101  1.3858
39871SOL     OW24742   7.260   7.133   4.688 -0.6695  0.1177 -0.0763
39871SOL    HW124743   7.175   7.089   4.676 -0.2903 -0.7088  0.2451
39871SOL    HW224744   7.297   7.093   4.766  0.4845 -0.2468 -0.8032
39872SOL     OW24745   8.087   5.606   7.259  0.1517  0.1913  0.2601
39872SOL    HW124746   8.166   5.556   7.235  1.2310  1.7676  0.4295
39872SOL    HW224747   8.064   5.573   7.346  0.0908 -0.9091 -0.1622
39873SOL     OW24748   7.483   2.253  10.201  0.5160  0.1713 -0.3602
39873SOL    HW124749   7.549   2.191  10.232 -0.5460 -0.9186 -0.2128
39873SOL    HW224750   7.399   2.212  10.225 -0.2407  0.8197 -1.8322
39874SOL     OW24751   5.959   3.284   9.429  0.7967  0.3335 -0.1554
39874SOL    HW124752   6.038   3.283   9.482 -0.9685  1.0259  2.5583
39874SOL    HW224753   5.911   3.362   9.456 -1.5089 -0.8353 -0.6872
39875SOL     OW24754   0.618   2.836   4.890 -0.1108 -0.0659 -0.7418
39875SOL    HW124755   0.678   2.877   4.828  0.8617  1.1809  0.9490
39875SOL    HW224756   0.655   2.749   4.904 -0.1657 -0.2418 -1.6748
39876SOL     OW24757   5.797   5.740   3.576 -0.5010  0.1382 -0.4845
39876SOL    HW124758   5.764   5.802   3.640  0.9725  0.8849 -0.4198
39876SOL    HW224759   5.772   5.777   3.491  0.9276  1.1587 -0.4685
39877SOL     OW24760  10.306   5.301  11.066  0.0382 -0.0805  0.1362
39877SOL    HW124761  10.328   5.282  10.975 -1.1103 -2.4124  0.3138
39877SOL    HW224762  10.355   5.237  11.117  2.0988  2.3631  1.3265
39878SOL     OW24763   2.312  10.168   8.899 -0.4711 -0.3150  0.4083
39878SOL    HW124764   2.233  10.215   8.874  0.2894  0.2919 -0.9233
39878SOL    HW224765   2.347  10.135   8.816  0.6102 -0.6738  1.0006
39879SOL     OW24766   4.140   5.488  10.711  0.8088  0.3647  0.0733
39879SOL    HW124767   4.226   5.519  10.739  0.1515  0.4791  2.0765
39879SOL    HW224768   4.121   5.414  10.770 -0.4864  0.3970 -0.2750
39880SOL     OW24769   1.768   1.880   8.934  0.1495 -0.1101  0.3094
39880SOL    HW124770   1.781   1.856   9.025 -3.4185 -0.9989  0.6745
39880SOL    HW224771   1.674   1.869   8.920  0.6937 -0.4913 -3.6166
39881SOL     OW24772   7.894  10.158   9.214 -0.1542 -0.1909 -0.5469
39881SOL    HW124773   7.966  10.116   9.262 -0.3617 -1.9379 -1.7177
39881SOL    HW224774   7.825  10.169   9.280  0.6223  0.1022  0.2274
39882SOL     OW24775   0.339   7.599   2.987 -0.7276 -0.6247 -0.3087
39882SOL    HW124776   0.342   7.648   3.069  1.9002 -0.7998 -0.2566
39882SOL    HW224777   0.378   7.514   3.008 -0.0917 -0.7017 -1.7079
39883SOL     OW24778   1.979   8.182  10.090  0.1507  0.1018  0.0716
39883SOL    HW124779   1.913   8.244  10.121 -0.2795 -0.4537  0.2767
39883SOL    HW224780   1.964   8.104  10.142 -0.3036 -0.7052 -1.2494
39884SOL     OW24781   7.467   3.370   9.623 -0.1999  0.4468 -0.0546
39884SOL    HW124782   7.535   3.348   9.560 -0.1782  0.5893 -0.0814
39884SOL    HW224783   7.442   3.287   9.663  0.3841  0.4578  0.3510
39885SOL     OW24784   6.443   7.246   5.641 -0.3534 -0.2175  0.7206
39885SOL    HW124785   6.373   7.244   5.576 -0.2828  0.1819  0.6370
39885SOL    HW224786   6.497   7.169   5.620  0.3832  0.6151 -0.4641
39886SOL     OW24787   1.323   6.441   0.333  0.0175  0.0408 -0.3366
39886SOL    HW124788   1.414   6.470   0.321  0.3449 -1.0133 -0.4276
39886SOL    HW224789   1.270   6.519   0.314  0.9325  0.8534  0.3905
39887SOL     OW24790   5.576   4.800  10.179 -0.2436  0.2440  0.3380
39887SOL    HW124791   5.490   4.826  10.146  0.5370  1.9513 -0.4330
39887SOL    HW224792   5.578   4.831  10.270 -0.2679  0.6815  0.1939
39888SOL     OW24793   6.565   2.764   5.198  0.4844  0.2257  0.7157
39888SOL    HW124794   6.565   2.758   5.102  0.4374 -0.0032  0.7292
39888SOL    HW224795   6.484   2.722   5.225 -0.4393  2.0153  0.7689
39889SOL     OW24796   5.091   8.959   5.326 -0.3334 -0.1480 -0.4193
39889SOL    HW124797   5.185   8.968   5.344 -0.0063 -0.5407 -1.8051
39889SOL    HW224798   5.056   8.916   5.403  0.7649 -0.6745 -0.1949
39890SOL     OW24799   7.971   7.792   9.665 -0.4183 -0.2532  0.0798
39890SOL    HW124800   7.898   7.816   9.722 -1.6492 -0.4501 -1.3792
39890SOL    HW224801   8.047   7.786   9.723 -1.2747  1.3549  1.3747
39891SOL     OW24802  10.034   9.560   5.900  0.1284 -0.1693  0.3516
39891SOL    HW124803  10.108   9.602   5.856 -0.4832 -0.7654 -1.2562
39891SOL    HW224804  10.017   9.480   5.849 -0.9774 -0.5541  1.2978
39892SOL     OW24805   1.435   7.694   6.746 -0.5705 -0.1007  0.2722
39892SOL    HW124806   1.431   7.702   6.841 -0.8217  2.6604  0.0718
39892SOL    HW224807   1.513   7.641   6.729 -0.6478 -0.7919  1.9938
39893SOL     OW24808   0.255   0.353   3.325  0.0359 -0.3277 -0.5877
39893SOL    HW124809   0.342   0.393   3.325  1.5623 -3.5233 -0.4002
39893SOL    HW224810   0.245   0.315   3.412 -2.8689  2.6139  0.4620
39894SOL     OW24811   3.876   0.389   5.201  0.7440 -0.0801 -0.3648
39894SOL    HW124812   3.848   0.397   5.110 -0.9005  1.2467  0.2233
39894SOL    HW224813   3.960   0.434   5.204  0.3215  0.7698 -1.0254
39895SOL     OW24814   8.313   7.560   1.876  0.4202 -0.5908  0.3263
39895SOL    HW124815   8.356   7.620   1.815 -1.9949  0.3500 -0.4897
39895SOL    HW224816   8.292   7.483   1.824 -1.0686 -0.0477  0.1161
39896SOL     OW24817   2.673   8.390   9.884  0.1081  0.2050 -0.7453
39896SOL    HW124818   2.753   8.442   9.877  0.6624 -0.4639  0.4963
39896SOL    HW224819   2.602   8.455   9.883  0.7335  0.8953 -0.5062
39897SOL     OW24820   2.954   2.834   4.930  0.2714 -0.4193 -0.3570
39897SOL    HW124821   3.036   2.791   4.957  1.1721  0.4318 -1.6705
39897SOL    HW224822   2.896   2.762   4.906  0.5139 -1.0458  0.8703
39898SOL     OW24823   4.388   5.246  11.093  0.0925  0.6019  0.1737
39898SOL    HW124824   4.338   5.188  11.151  0.1444 -0.1987 -0.5776
39898SOL    HW224825   4.470   5.200  11.077 -0.0706  0.6409 -0.8316
39899SOL     OW24826   7.166   6.919   5.642  0.3239 -0.3103  0.0935
39899SOL    HW124827   7.144   6.940   5.733 -2.1469  0.9863 -0.7441
39899SOL    HW224828   7.228   6.987   5.615 -1.0220  0.9256  0.0274
39900SOL     OW24829  11.294   2.505  10.204 -0.0748  0.1251 -0.1714
39900SOL    HW124830  11.276   2.472  10.116  1.3171  0.3268 -0.5434
39900SOL    HW224831  11.209   2.538  10.235 -1.0383 -1.9144 -0.5863
39901SOL     OW24832   9.799   8.974   9.161 -0.3615  0.9350 -0.0149
39901SOL    HW124833   9.774   8.973   9.068 -0.1088  1.7710 -0.1007
39901SOL    HW224834   9.882   9.021   9.162  1.0449 -1.4821  0.3164
39902SOL     OW24835   3.313   3.572   2.667  0.2006  0.2146  0.4001
39902SOL    HW124836   3.260   3.501   2.632  1.2684 -1.2317  1.6354
39902SOL    HW224837   3.260   3.609   2.738  0.5116 -0.7308  1.1336
39903SOL     OW24838   6.922   5.096   5.469 -0.0134 -0.2463 -0.9169
39903SOL    HW124839   6.837   5.141   5.470  1.2685  2.2652 -0.6212
39903SOL    HW224840   6.973   5.141   5.402  1.3583 -1.2182 -0.5642
39904SOL     OW24841  11.282   1.658   3.881 -0.0553 -0.0738 -0.3012
39904SOL    HW124842  11.242   1.602   3.947  1.3885 -1.7725 -0.8362
39904SOL    HW224843  11.220   1.658   3.808 -0.8957  0.4992  0.4049
39905SOL     OW24844  11.271   1.033   7.261  0.8618  0.4247  0.6157
39905SOL    HW124845  11.313   0.965   7.314  1.4284  0.6495  0.4577
39905SOL    HW224846  11.322   1.035   7.180  1.2767  1.4948  0.8873
39906SOL     OW24847   6.076   2.750   3.220 -0.4732 -0.0011  0.0952
39906SOL    HW124848   6.170   2.731   3.222 -0.2477  0.7927 -1.5890
39906SOL    HW224849   6.034   2.665   3.207 -0.0197 -0.4186  1.3382
39907SOL     OW24850   8.092   5.044   5.402 -0.5871 -0.0725 -0.6202
39907SOL    HW124851   8.032   5.000   5.462 -1.0837  1.9176  0.3945
39907SOL    HW224852   8.179   5.010   5.426 -0.7167  1.1015  1.6214
39908SOL     OW24853   7.844   2.269   0.589  0.4325  0.2045  0.0562
39908SOL    HW124854   7.796   2.189   0.605 -0.2499  0.0752 -2.5249
39908SOL    HW224855   7.869   2.300   0.677 -1.2310 -1.5972  1.1914
39909SOL     OW24856   1.814   9.397   3.839 -0.6494  0.2576  0.3931
39909SOL    HW124857   1.882   9.442   3.788 -0.0150 -1.6583 -0.4704
39909SOL    HW224858   1.744   9.380   3.775 -1.5987  1.4394  1.0865
39910SOL     OW24859  10.442   1.513  11.185 -0.1701 -0.1222 -0.2323
39910SOL    HW124860  10.367   1.501  11.243 -1.6360 -0.1973 -2.1281
39910SOL    HW224861  10.484   1.593  11.217 -2.2627  1.0960 -0.4644
39911SOL     OW24862   3.804  11.316   2.947 -0.4984  0.1614 -0.0948
39911SOL    HW124863   3.712  11.339   2.965 -0.9354 -0.8338 -0.9475
39911SOL    HW224864   3.821  11.240   3.004 -0.3088  0.1396 -0.1825
39912SOL     OW24865   7.575   6.071   2.019 -0.3390 -0.1989  0.0543
39912SOL    HW124866   7.506   6.014   2.053 -0.2629 -0.7531 -0.7358
39912SOL    HW224867   7.651   6.014   2.008 -0.4107 -0.0642 -1.2201
39913SOL     OW24868   9.287   5.664   3.636  0.2498  0.2847 -0.1235
39913SOL    HW124869   9.259   5.575   3.658  0.2578  0.5582  1.0417
39913SOL    HW224870   9.231   5.690   3.563  0.4762 -0.7982 -0.6906
39914SOL     OW24871   6.723   7.337   9.568 -0.0430  0.6717  0.0181
39914SOL    HW124872   6.638   7.337   9.525 -0.4633  0.2922  0.8395
39914SOL    HW224873   6.715   7.402   9.638 -0.4136 -0.9688  1.5381
39915SOL     OW24874   6.127   1.076   0.916 -0.1170  0.0274 -0.5778
39915SOL    HW124875   6.033   1.093   0.902 -0.2885 -1.1999 -0.9119
39915SOL    HW224876   6.143   0.991   0.877  0.7286 -0.6544  1.1633
39916SOL     OW24877   2.344   2.550   7.158  0.0650 -0.5306 -0.0178
39916SOL    HW124878   2.331   2.536   7.064 -1.9351 -0.7314  0.2663
39916SOL    HW224879   2.335   2.464   7.197  2.3718 -0.6864  0.2339
39917SOL     OW24880   5.675   7.528   0.691  0.4566 -0.1386  0.2881
39917SOL    HW124881   5.693   7.603   0.635  1.2860 -1.1933 -0.8735
39917SOL    HW224882   5.597   7.553   0.740  0.4479  1.2860 -0.4382
39918SOL     OW24883   1.753   6.058   4.717 -0.3373 -0.1936  0.3591
39918SOL    HW124884   1.675   6.114   4.714 -1.5485 -1.8564  0.2723
39918SOL    HW224885   1.759   6.029   4.808 -0.7720 -1.3776  0.0184
39919SOL     OW24886   2.099  10.815   0.663  0.0747 -0.1301 -0.2544
39919SOL    HW124887   2.045  10.841   0.737 -1.2000 -1.0502 -0.8469
39919SOL    HW224888   2.051  10.847   0.586  2.4437  2.7558 -0.6321
39920SOL     OW24889   9.170   1.413   6.880  0.7439 -0.3540  0.1443
39920SOL    HW124890   9.090   1.362   6.894  1.0835 -0.7685  0.5891
39920SOL    HW224891   9.238   1.364   6.927  1.0565  0.5605  0.6523
39921SOL     OW24892   1.937   4.200   9.747  0.2052 -0.7672  0.2314
39921SOL    HW124893   1.880   4.179   9.673  1.5142 -1.9483 -0.4654
39921SOL    HW224894   1.912   4.137   9.815 -1.6702  0.9478  1.1721
39922SOL     OW24895   7.809   5.106   7.526 -0.1427 -0.3781  0.3321
39922SOL    HW124896   7.781   5.070   7.442 -1.2932  1.7574 -0.2474
39922SOL    HW224897   7.737   5.163   7.553  0.8018  0.0141  2.1053
39923SOL     OW24898   4.161   6.579   2.626  0.1093 -0.2252 -0.5949
39923SOL    HW124899   4.109   6.506   2.660  0.3299 -0.3532 -0.5290
39923SOL    HW224900   4.230   6.591   2.692  1.1009 -1.0902 -1.4669
39924SOL     OW24901   2.621  11.111   6.868 -0.3372  0.1571 -0.1234
39924SOL    HW124902   2.650  11.124   6.959 -0.1886  0.5497 -0.2237
39924SOL    HW224903   2.662  11.030   6.840 -0.4760 -0.0263  0.2005
39925SOL     OW24904  10.903  11.166   8.319 -0.3014 -0.1018 -0.1140
39925SOL    HW124905  10.935  11.237   8.263  0.4990 -0.8132 -0.5753
39925SOL    HW224906  10.832  11.126   8.269 -0.4822  0.1147 -0.0329
39926SOL     OW24907   4.131   1.658   2.981 -0.0372 -0.4189  0.2714
39926SOL    HW124908   4.165   1.588   3.037  0.1050 -0.3261  0.3018
39926SOL    HW224909   4.146   1.625   2.892 -3.1996 -1.9921  0.2675
39927SOL     OW24910   4.638   2.651   9.428  0.2916  0.1474  0.3399
39927SOL    HW124911   4.635   2.606   9.344  0.8565 -1.0486  0.9300
39927SOL    HW224912   4.653   2.580   9.492  0.0028  1.0448  1.4179
39928SOL     OW24913   4.459   8.943   0.648 -0.1387  0.6567 -0.6337
39928SOL    HW124914   4.535   8.996   0.625  0.0785 -0.2676 -2.0804
39928SOL    HW224915   4.405   8.943   0.569 -0.9243  0.0806 -0.0979
39929SOL     OW24916   3.302  11.121   6.167  0.2684  0.0109 -0.1770
39929SOL    HW124917   3.299  11.217   6.174 -0.8281 -0.0944  0.9919
39929SOL    HW224918   3.293  11.104   6.073  1.7190  1.0851 -0.5358
39930SOL     OW24919   9.255   2.962   3.868  0.6706  0.0141  0.4652
39930SOL    HW124920   9.176   2.912   3.886  0.6109 -0.2590 -0.5426
39930SOL    HW224921   9.230   3.053   3.883  0.1522 -0.0670  0.1141
39931SOL     OW24922   7.818   1.977   6.269 -0.0544 -0.5527  0.0708
39931SOL    HW124923   7.834   2.020   6.353 -5.0551  0.3918  0.6910
39931SOL    HW224924   7.797   1.887   6.291  2.7306 -1.4166 -0.5969
39932SOL     OW24925   5.852   5.656   1.793 -0.7522 -0.4285  0.5285
39932SOL    HW124926   5.853   5.728   1.729  0.1739 -0.1873  0.8146
39932SOL    HW224927   5.763   5.659   1.830 -0.5967  0.8271  0.8343
39933SOL     OW24928   1.487   6.166   5.902  0.2444  0.1718 -0.3403
39933SOL    HW124929   1.518   6.133   5.818 -0.7871 -1.5492 -0.0720
39933SOL    HW224930   1.398   6.197   5.884  0.5199  1.0606 -0.1777
39934SOL     OW24931  10.010   4.101   6.265  0.0128  0.2833  0.6009
39934SOL    HW124932  10.070   4.128   6.195 -0.6190  0.4297  0.1023
39934SOL    HW224933   9.961   4.181   6.286  0.8438  0.4655  1.8695
39935SOL     OW24934   7.182   2.532   0.416 -0.2394  0.4627  0.7576
39935SOL    HW124935   7.140   2.618   0.414 -0.1475  0.5105  0.8353
39935SOL    HW224936   7.232   2.533   0.498 -0.2637  0.3232  0.7732
39936SOL     OW24937  10.751   5.427   7.469  0.0903 -0.0258 -0.2718
39936SOL    HW124938  10.756   5.479   7.390 -1.1083 -3.0151 -2.4333
39936SOL    HW224939  10.822   5.364   7.462 -0.3846 -0.7018  0.7248
39937SOL     OW24940   2.978  10.783   3.920  0.2542  0.0222 -0.4200
39937SOL    HW124941   3.052  10.756   3.866  2.0698  3.0592  0.4120
39937SOL    HW224942   2.968  10.877   3.901 -3.2721 -0.2792 -0.3563
39938SOL     OW24943   2.459   3.951   6.657  0.4781 -0.0229  0.1447
39938SOL    HW124944   2.399   3.917   6.723  0.4784 -0.2908  0.0099
39938SOL    HW224945   2.471   4.043   6.680 -0.7969  0.2927 -0.4367
39939SOL     OW24946   4.109   5.337   4.338 -0.3018  0.8089  0.6757
39939SOL    HW124947   4.055   5.338   4.259  0.0375  1.8639  0.4504
39939SOL    HW224948   4.091   5.421   4.381 -1.1120 -0.0895  2.1578
39940SOL     OW24949   9.957   5.352  10.477 -0.0891  0.3538  0.3620
39940SOL    HW124950  10.000   5.398  10.549 -1.3062  1.2132  0.5512
39940SOL    HW224951   9.894   5.416  10.442 -0.9357 -0.7546 -0.1577
39941SOL     OW24952   5.621  10.297   9.857  0.2138 -0.1964 -0.3190
39941SOL    HW124953   5.710  10.330   9.872 -1.4690  4.4550  0.3847
39941SOL    HW224954   5.587  10.281   9.945 -0.4747  0.5390 -0.4469
39942SOL     OW24955  11.296   8.881   8.138 -0.1392 -0.5982 -0.4774
39942SOL    HW124956  11.246   8.926   8.207 -0.2154 -1.7709  0.2365
39942SOL    HW224957  11.236   8.880   8.063  0.6395  2.3854 -1.2109
39943SOL     OW24958   2.004   5.196   1.639  0.5241 -0.5610 -0.5356
39943SOL    HW124959   1.928   5.183   1.583 -0.4041 -1.9798  0.9793
39943SOL    HW224960   1.982   5.151   1.721  3.3472 -1.7865 -0.3701
39944SOL     OW24961   6.812   7.619   2.377  0.2658 -0.3133 -0.5178
39944SOL    HW124962   6.841   7.671   2.452  0.3638  2.1305 -2.1804
39944SOL    HW224963   6.748   7.558   2.412 -1.9954  2.8487  1.0631
39945SOL     OW24964   6.402   6.322  10.301 -0.2809  0.3888  0.9830
39945SOL    HW124965   6.360   6.382  10.362 -1.1874  1.6712 -0.8427
39945SOL    HW224966   6.337   6.309  10.231  0.5233 -1.4423  0.5402
39946SOL     OW24967   6.961   2.670   1.856  0.1469 -0.1130 -0.0497
39946SOL    HW124968   7.009   2.652   1.775  1.1756  0.1049  0.5039
39946SOL    HW224969   6.880   2.619   1.848  0.2143 -0.0394 -1.2362
39947SOL     OW24970   7.953  10.355   9.004 -0.0472 -0.2679  0.1930
39947SOL    HW124971   7.940  10.289   9.072  0.8838 -1.1540 -0.4764
39947SOL    HW224972   7.994  10.429   9.049  0.9962 -1.0296  0.5136
39948SOL     OW24973   7.723   4.835  10.810 -0.1360  0.8748 -0.2325
39948SOL    HW124974   7.650   4.814  10.752  0.7603  0.1492 -1.1058
39948SOL    HW224975   7.723   4.765  10.876 -1.1845  1.7254  0.6987
39949SOL     OW24976   4.653   2.811   2.521 -0.2464 -0.5117 -0.0344
39949SOL    HW124977   4.686   2.735   2.474  0.3626 -1.1050  1.3080
39949SOL    HW224978   4.577   2.840   2.471  0.6483 -0.8381 -1.6216
39950SOL     OW24979   7.488   1.155   4.635 -0.4334 -0.0550  0.0697
39950SOL    HW124980   7.550   1.104   4.583 -1.0070  1.0135 -1.7180
39950SOL    HW224981   7.542   1.217   4.683 -0.0253  0.2964 -0.8266
39951SOL     OW24982  10.478   3.151  11.014  0.0556  0.0165 -0.0463
39951SOL    HW124983  10.409   3.087  10.997 -0.9520  1.6755 -2.5353
39951SOL    HW224984  10.555   3.116  10.970  0.1076 -0.5630  0.5035
39952SOL     OW24985   9.337   8.651   7.482  0.1785 -0.4525  0.1759
39952SOL    HW124986   9.378   8.714   7.422  0.7777  0.0234  1.0824
39952SOL    HW224987   9.396   8.648   7.557 -1.1322 -0.2380  1.2229
39953SOL     OW24988   8.169   6.377   4.975  0.3328 -0.3925 -0.1483
39953SOL    HW124989   8.094   6.319   4.967  1.0250 -1.1914 -1.0163
39953SOL    HW224990   8.239   6.321   5.011  0.8193  0.0667 -0.3700
39954SOL     OW24991   9.613   2.685   6.441 -0.3073 -0.3370 -0.2194
39954SOL    HW124992   9.658   2.623   6.498 -0.0848  1.2230  1.3308
39954SOL    HW224993   9.667   2.687   6.361 -0.3348 -2.1186 -0.3048
39955SOL     OW24994   2.783   4.879   7.352 -0.3156 -0.2263  0.1903
39955SOL    HW124995   2.874   4.907   7.348 -0.7476  1.1251 -0.3630
39955SOL    HW224996   2.753   4.907   7.439 -1.0273  1.9326 -0.7347
39956SOL     OW24997   7.690   1.982   4.114 -0.5439  0.3562 -0.1079
39956SOL    HW124998   7.615   1.994   4.056  0.6611  0.9362 -1.5791
39956SOL    HW224999   7.653   1.983   4.202 -2.5037 -1.3313 -0.8675
39957SOL     OW25000   0.799   3.035   6.233 -0.5790  0.0742 -0.0841
39957SOL    HW125001   0.787   3.130   6.236  1.1125  0.3066 -0.4967
39957SOL    HW225002   0.826   3.017   6.143 -1.7002 -0.9014 -0.2312
39958SOL     OW25003   7.580   9.609   2.094  0.2066  0.3520  0.0498
39958SOL    HW125004   7.532   9.682   2.134 -0.9928  0.4126 -1.4552
39958SOL    HW225005   7.672   9.632   2.104 -0.1708  2.6615 -1.4498
39959SOL     OW25006   9.314  10.183  10.809  0.2634 -0.4595 -0.3839
39959SOL    HW125007   9.351  10.189  10.897  2.8435  0.8349 -1.4925
39959SOL    HW225008   9.287  10.272  10.788  1.6634 -0.3269 -1.7034
39960SOL     OW25009   3.685   0.581   4.124  0.4193  0.3336 -0.6405
39960SOL    HW125010   3.636   0.642   4.070  2.0989  2.9268  0.6752
39960SOL    HW225011   3.774   0.585   4.090  0.6430 -1.0360 -0.2341
39961SOL     OW25012   7.189   8.971   3.177  0.5056 -0.4769 -0.1758
39961SOL    HW125013   7.254   9.020   3.126 -0.3752 -0.0932 -0.9545
39961SOL    HW225014   7.113   8.965   3.119 -0.3737 -0.3827  0.9409
39962SOL     OW25015   6.024   1.130   0.224 -0.3620 -0.2062 -0.6057
39962SOL    HW125016   6.071   1.060   0.178 -0.6235  0.2689 -1.5959
39962SOL    HW225017   6.093   1.188   0.255 -0.1714 -0.6546 -0.1705
39963SOL     OW25018   6.450   6.958   9.801 -0.1918 -0.3938  0.1847
39963SOL    HW125019   6.403   6.925   9.878  0.6200  0.9919  1.2931
39963SOL    HW225020   6.389   7.020   9.761 -0.2704 -0.4375  0.2358
39964SOL     OW25021   1.540   0.995   9.159  0.4064  0.0696 -0.5715
39964SOL    HW125022   1.479   1.011   9.087 -0.0790 -0.5470 -0.2981
39964SOL    HW225023   1.529   0.903   9.181  2.1194 -0.2848 -1.1379
39965SOL     OW25024   2.158   6.258   5.005  0.5811  0.3940 -0.1456
39965SOL    HW125025   2.241   6.299   5.029 -0.3447  0.9694  2.1850
39965SOL    HW225026   2.174   6.164   5.012  1.2327  0.4900 -0.3681
39966SOL     OW25027   7.308   5.382   6.343  0.5709  0.1928  0.0668
39966SOL    HW125028   7.234   5.321   6.343  1.1811 -0.5766 -1.0049
39966SOL    HW225029   7.285   5.447   6.409 -1.2421  0.1860 -0.5124
39967SOL     OW25030   2.197   3.922   2.567 -0.1480  0.3790 -0.0064
39967SOL    HW125031   2.132   3.856   2.592  0.2964  0.5772  1.7252
39967SOL    HW225032   2.281   3.882   2.588  0.2977  0.2579 -1.9327
39968SOL     OW25033   6.256   4.508   8.733  0.1015 -0.0134 -0.9928
39968SOL    HW125034   6.272   4.566   8.659  1.1166  0.1626 -0.6472
39968SOL    HW225035   6.183   4.454   8.706  0.4157  0.1000 -2.0940
39969SOL     OW25036   6.283   5.067   9.789  0.4533  0.1437 -0.1387
39969SOL    HW125037   6.266   5.038   9.699  1.1810 -0.4070 -0.1049
39969SOL    HW225038   6.230   5.009   9.843 -1.3390  1.5914 -0.2943
39970SOL     OW25039   3.974   6.382   2.693 -0.0479 -0.1330 -0.5974
39970SOL    HW125040   3.914   6.415   2.760  0.3909 -1.0737  0.2663
39970SOL    HW225041   4.030   6.320   2.739  1.9789  1.1361 -1.2470
39971SOL     OW25042   5.828  10.772  10.898  0.2195  0.2643 -0.3385
39971SOL    HW125043   5.754  10.712  10.885  0.0249  0.2072  1.0275
39971SOL    HW225044   5.902  10.727  10.858 -0.0643 -0.6097  0.1030
39972SOL     OW25045   5.015   9.260   9.347 -0.6008  0.6396  0.5794
39972SOL    HW125046   5.032   9.349   9.378 -0.7296  0.8433  0.0771
39972SOL    HW225047   4.982   9.213   9.424 -0.7017  1.0737  0.8003
39973SOL     OW25048   0.982   4.428   5.067 -0.3848 -0.1183 -0.2756
39973SOL    HW125049   0.906   4.451   5.120 -0.2858  2.6749 -1.2952
39973SOL    HW225050   0.948   4.423   4.978  0.4644  0.3164 -0.6232
39974SOL     OW25051   9.734   3.701  10.749 -0.9868  0.8273  0.3812
39974SOL    HW125052   9.711   3.629  10.808  0.5597 -0.2069 -0.2088
39974SOL    HW225053   9.734   3.779  10.804  0.8727 -0.1783  1.8871
39975SOL     OW25054  11.327   1.901   1.460  0.1161 -0.7350  0.1545
39975SOL    HW125055  11.252   1.841   1.454  0.8732 -1.5977 -0.8720
39975SOL    HW225056  11.354   1.914   1.369  0.4509  0.5444  0.4420
39976SOL     OW25057   1.663  10.708   0.548  0.2356 -0.4757 -0.0295
39976SOL    HW125058   1.606  10.641   0.587 -0.9673 -0.7288 -2.1572
39976SOL    HW225059   1.740  10.660   0.520 -0.6742 -1.0105 -1.6530
39977SOL     OW25060   1.070   9.554   1.069  0.4260  0.2041 -0.2912
39977SOL    HW125061   1.043   9.646   1.067 -0.2404 -0.0019 -1.3767
39977SOL    HW225062   1.000   9.508   1.023 -0.3579 -1.1429  2.1815
39978SOL     OW25063   4.418   4.854   6.072 -0.4289  0.8371  0.0607
39978SOL    HW125064   4.362   4.819   6.141 -0.3558  0.9221  0.1637
39978SOL    HW225065   4.413   4.789   6.001 -1.2562  1.2210 -0.2294
39979SOL     OW25066   8.972   4.753   1.071  0.4452 -0.4257  0.3154
39979SOL    HW125067   8.986   4.699   1.149 -0.0122 -0.7471  0.1778
39979SOL    HW225068   8.966   4.842   1.104  1.4045 -0.4321  0.5268
39980SOL     OW25069   5.324   6.043   0.519 -0.3521 -0.0438 -0.0614
39980SOL    HW125070   5.231   6.025   0.535 -0.2675 -0.1150  0.3652
39980SOL    HW225071   5.348   5.982   0.450 -0.3615 -0.7601  0.5586
39981SOL     OW25072   9.474   3.088   8.431 -0.1424 -0.2583 -0.4664
39981SOL    HW125073   9.512   3.064   8.347 -0.4626 -0.1787 -0.6351
39981SOL    HW225074   9.546   3.077   8.494 -0.3546 -1.9624 -0.4908
39982SOL     OW25075   8.440   7.143  10.480  0.0341  0.1996 -0.4647
39982SOL    HW125076   8.468   7.229  10.509  1.4523  0.2025 -1.7816
39982SOL    HW225077   8.522   7.096  10.460 -0.7456 -1.1494 -0.5958
39983SOL     OW25078   6.980   6.267   5.800  0.7460  0.0162 -0.2480
39983SOL    HW125079   6.918   6.213   5.749  0.4743 -1.8570  1.9664
39983SOL    HW225080   6.926   6.335   5.840  0.2990 -0.8769  0.6837
39984SOL     OW25081   6.594   3.424   3.215  0.1180  0.5490  0.1712
39984SOL    HW125082   6.630   3.373   3.142 -0.9731  1.8000 -1.2765
39984SOL    HW225083   6.653   3.498   3.223  0.0100  0.6230  0.2859
39985SOL     OW25084   3.071   8.225   4.001 -0.1259  0.3292  0.3709
39985SOL    HW125085   3.135   8.154   4.006  0.2869  0.7290  0.7336
39985SOL    HW225086   3.060   8.240   3.907 -2.0012 -1.8191  0.1988
39986SOL     OW25087  10.120   1.487   3.997  0.6455  0.9100  0.3183
39986SOL    HW125088  10.155   1.465   3.910  0.2933  0.6959  0.2322
39986SOL    HW225089  10.178   1.556   4.029  0.9240  0.8183  0.0136
39987SOL     OW25090   1.537   0.637  10.729  0.1415  0.5595  0.4545
39987SOL    HW125091   1.565   0.700  10.662  1.0081  0.8720  1.1094
39987SOL    HW225092   1.444   0.655  10.740  0.2927  1.4514  0.3420
39988SOL     OW25093   0.979   9.752   5.433 -0.4945  0.4808  0.3836
39988SOL    HW125094   1.050   9.787   5.379 -1.4560  0.8441 -0.6683
39988SOL    HW225095   1.006   9.662   5.453 -0.0910  0.3647 -0.6394
39989SOL     OW25096  10.274  11.279   5.242  0.3357  0.0383  0.3544
39989SOL    HW125097  10.284  11.224   5.320  0.0954  1.7145  1.6157
39989SOL    HW225098  10.185  11.315   5.250  0.9020  1.5183  0.2043
39990SOL     OW25099  11.182   5.384   9.151 -0.3941 -0.2568  0.6365
39990SOL    HW125100  11.091   5.390   9.119 -0.1622 -0.3661 -0.0711
39990SOL    HW225101  11.207   5.474   9.169 -1.0987 -0.3566  2.1478
39991SOL     OW25102   6.241   7.212  10.104 -0.1963 -0.0983 -0.4077
39991SOL    HW125103   6.333   7.239  10.107  0.1788 -1.3964  0.5397
39991SOL    HW225104   6.204   7.260  10.030  1.4483 -0.1895 -1.3158
39992SOL     OW25105   6.521  11.123   1.158 -0.0563 -0.0866 -0.0157
39992SOL    HW125106   6.502  11.042   1.111 -0.5975 -1.2106  2.0732
39992SOL    HW225107   6.503  11.192   1.095  0.2006 -1.5813 -1.7581
39993SOL     OW25108   0.069   9.641  11.007 -0.4815  0.4623  0.3239
39993SOL    HW125109   0.059   9.727  11.046 -4.3273  0.2010  0.1018
39993SOL    HW225110   0.053   9.655  10.913 -0.2831 -0.3398  0.1654
39994SOL     OW25111   0.955   0.851   8.069 -0.0024 -0.6865  0.5138
39994SOL    HW125112   0.985   0.852   7.978 -1.6022 -1.2941 -0.0418
39994SOL    HW225113   1.029   0.816   8.119  1.3407  0.8455 -0.3750
39995SOL     OW25114   5.747   7.443   4.627  0.7160 -0.0818  0.3743
39995SOL    HW125115   5.800   7.498   4.569  0.1836  0.5894  0.5152
39995SOL    HW225116   5.769   7.474   4.715  1.5258 -1.1003  0.5339
39996SOL     OW25117  10.665   8.571   3.803 -0.6164  0.7228  0.3823
39996SOL    HW125118  10.575   8.543   3.792 -0.0778 -0.0010 -2.5000
39996SOL    HW225119  10.718   8.498   3.770  1.0012  1.5428  1.0614
39997SOL     OW25120   7.029   1.656   3.699 -0.3628  0.1786  0.1699
39997SOL    HW125121   7.106   1.711   3.684  0.2698 -0.8450 -0.3895
39997SOL    HW225122   6.959   1.700   3.651  0.0384  0.7282  0.0815
39998SOL     OW25123   9.685   1.824   3.851  0.3638 -0.6602  0.0034
39998SOL    HW125124   9.694   1.795   3.761 -1.0684 -1.7049  0.1818
39998SOL    HW225125   9.771   1.808   3.890  0.2761 -2.5343 -0.5283
39999SOL     OW25126   3.025   3.368   8.657  0.1468  0.1835  0.0579
39999SOL    HW125127   3.036   3.274   8.643 -0.1746 -0.1147  1.6888
39999SOL    HW225128   2.934   3.385   8.633  0.4723  0.2672 -1.1500
40000SOL     OW25129   0.060   5.196   4.121  0.0731  0.1275  0.1483
40000SOL    HW125130   0.012   5.249   4.186 -1.7828 -0.1324 -0.9584
40000SOL    HW225131   0.067   5.254   4.045 -0.0333 -0.4624 -0.3076
40001SOL     OW25132   9.456  10.929   2.563  0.7772  0.1349  0.3225
40001SOL    HW125133   9.549  10.904   2.566  0.6934 -0.2665 -0.2562
40001SOL    HW225134   9.451  10.995   2.494  0.7498  0.6704  0.8369
40002SOL     OW25135  10.178   9.204   1.300  0.6188  0.8515  0.3063
40002SOL    HW125136  10.125   9.124   1.296 -0.3699  1.4054  1.9005
40002SOL    HW225137  10.151   9.255   1.224  0.3686  0.2046 -0.0391
40003SOL     OW25138   7.620   4.955   8.076  0.2836 -0.6763  0.2497
40003SOL    HW125139   7.555   4.960   8.146  1.7835  1.0502  1.5524
40003SOL    HW225140   7.702   4.936   8.120  1.1639 -0.1301 -1.1033
40004SOL     OW25141   7.209   1.834   9.281 -0.9093  0.4318 -0.4115
40004SOL    HW125142   7.203   1.777   9.204 -0.0013  0.9149 -0.8510
40004SOL    HW225143   7.254   1.913   9.249  1.2438 -0.1673  1.0523
40005SOL     OW25144   4.125  10.766   8.968  0.1969  0.3288 -0.3891
40005SOL    HW125145   4.096  10.675   8.960  2.4663 -0.4381 -0.3448
40005SOL    HW225146   4.127  10.782   9.062  0.0825  0.3170 -0.3846
40006SOL     OW25147   8.806   7.433   5.825  0.5137 -0.2615 -0.6512
40006SOL    HW125148   8.814   7.344   5.790  1.1381 -0.1256 -0.8631
40006SOL    HW225149   8.840   7.489   5.755 -0.0614  0.1610 -0.5940
40007SOL     OW25150   8.239   2.744   2.981  0.0368 -0.1283  0.0436
40007SOL    HW125151   8.159   2.794   2.995  0.4915  0.8823 -0.8758
40007SOL    HW225152   8.264   2.763   2.891  0.3677 -1.8194 -0.2507
40008SOL     OW25153   6.924   6.642   9.870 -0.1458  0.4021  0.2615
40008SOL    HW125154   7.015   6.665   9.891 -0.1304  0.5818 -0.0012
40008SOL    HW225155   6.871   6.704   9.920 -0.1142  0.6874 -0.0593
40009SOL     OW25156   1.116   3.921   6.743  0.3955 -0.2617 -0.2778
40009SOL    HW125157   1.133   3.923   6.837  0.2056 -1.4912 -0.2118
40009SOL    HW225158   1.202   3.936   6.704  0.3733  0.8518  0.0874
40010SOL     OW25159   5.311   8.553   9.186  0.4315 -0.0602 -0.1413
40010SOL    HW125160   5.242   8.583   9.127 -0.5627 -0.0016  1.0485
40010SOL    HW225161   5.385   8.612   9.168 -0.0591  0.3341 -0.8924
40011SOL     OW25162   1.707   0.959  10.778  0.4552 -0.3821 -0.1070
40011SOL    HW125163   1.685   0.960  10.871 -0.8930 -2.7304 -0.3758
40011SOL    HW225164   1.795   0.922  10.774  1.5902  2.1626  0.3991
40012SOL     OW25165   4.515  10.553   0.450  0.8407 -0.7838  0.2741
40012SOL    HW125166   4.507  10.598   0.366  0.9879  0.8655  1.1241
40012SOL    HW225167   4.431  10.568   0.493  0.8143 -1.5144  0.4964
40013SOL     OW25168   1.549   2.524   9.373  0.1128  0.2672  0.2873
40013SOL    HW125169   1.621   2.586   9.365  1.6394 -1.5083  0.0054
40013SOL    HW225170   1.509   2.544   9.457  0.4422  1.7835  0.0889
40014SOL     OW25171   9.642   7.557   1.089  0.1720 -0.2427  0.2222
40014SOL    HW125172   9.687   7.543   1.173  0.1258 -1.5955  0.0356
40014SOL    HW225173   9.699   7.617   1.041  1.8226 -1.9743 -0.0213
40015SOL     OW25174  10.478   2.759   6.992 -0.0694  0.4856  0.7086
40015SOL    HW125175  10.432   2.682   6.956  1.0472 -0.1875  0.7091
40015SOL    HW225176  10.411   2.804   7.043 -0.7067 -0.5707  0.8323
40016SOL     OW25177   0.106   3.719   4.144  0.1494 -0.0512  0.8347
40016SOL    HW125178   0.111   3.787   4.211  0.1246 -0.6038  1.4045
40016SOL    HW225179   0.172   3.743   4.080 -0.1809  0.7629  0.7975
40017SOL     OW25180   9.195   1.837   4.344  0.4176 -0.3484  0.6345
40017SOL    HW125181   9.195   1.790   4.261 -1.1002 -0.5389  0.7261
40017SOL    HW225182   9.159   1.924   4.323  3.9483  1.1143  0.3092
40018SOL     OW25183   0.793  11.198  11.071  0.0045  0.3448 -0.3418
40018SOL    HW125184   0.800  11.148  11.152 -0.4958 -0.7302 -0.9591
40018SOL    HW225185   0.861  11.162  11.014 -1.5232 -0.8752 -1.4330
40019SOL     OW25186   7.664   1.556   9.376 -0.1156  0.0434  0.3751
40019SOL    HW125187   7.725   1.572   9.449 -0.3980  1.5452  0.2963
40019SOL    HW225188   7.578   1.554   9.417 -0.1673 -0.3627  0.2484
40020SOL     OW25189   0.649   7.018   1.864 -0.0413  0.1903  0.0970
40020SOL    HW125190   0.715   7.029   1.933  1.2056  1.4067 -1.2432
40020SOL    HW225191   0.696   6.973   1.794 -1.5146 -1.7355  0.3435
40021SOL     OW25192   4.487  11.187   2.154 -0.5196 -0.1096 -0.2773
40021SOL    HW125193   4.494  11.145   2.239  0.6393  0.5154 -0.0540
40021SOL    HW225194   4.410  11.243   2.161 -0.5515 -0.2250  0.2877
40022SOL     OW25195   4.602   1.513   7.901  0.4151 -0.4259  0.6042
40022SOL    HW125196   4.603   1.586   7.963 -0.3903  1.1111 -1.1427
40022SOL    HW225197   4.509   1.495   7.885  0.6097 -1.3823  0.4860
40023SOL     OW25198   3.757   2.573   2.073 -0.5071 -0.1279 -0.1855
40023SOL    HW125199   3.735   2.540   2.160 -0.4406 -0.6854 -0.3779
40023SOL    HW225200   3.774   2.666   2.087 -1.6821  0.0408  0.1821
40024SOL     OW25201   6.635   7.692   0.235 -0.0983  0.2311  0.2452
40024SOL    HW125202   6.680   7.742   0.303 -0.4278  1.8223 -0.6899
40024SOL    HW225203   6.547   7.728   0.233 -0.5708 -0.8994  0.0637
40025SOL     OW25204   4.260   7.269   4.228 -0.1869  0.4792  0.6444
40025SOL    HW125205   4.241   7.347   4.280  0.6344 -0.4339  2.3661
40025SOL    HW225206   4.264   7.198   4.292  0.8277 -0.6836 -0.6683
40026SOL     OW25207   5.016   6.745   4.399  0.9686 -0.2285  0.0923
40026SOL    HW125208   4.966   6.775   4.324  1.5598 -0.2870 -0.3291
40026SOL    HW225209   5.061   6.823   4.432  2.3375 -0.6020 -0.8743
40027SOL     OW25210   5.710   2.905   6.276  0.4731 -0.1951 -0.0750
40027SOL    HW125211   5.633   2.896   6.220  0.7392  1.2490 -0.7145
40027SOL    HW225212   5.689   2.854   6.354 -1.8278  1.4608  0.4544
40028SOL     OW25213   6.654   5.763   8.978  0.1977  0.3535  0.0478
40028SOL    HW125214   6.711   5.687   8.966 -1.1694 -0.7639  0.4429
40028SOL    HW225215   6.633   5.763   9.071 -1.4860 -0.0229 -0.3147
40029SOL     OW25216   8.497  10.103  10.724 -0.0530  0.2387 -0.7465
40029SOL    HW125217   8.513  10.010  10.742 -2.8683 -0.3943 -1.1353
40029SOL    HW225218   8.454  10.103  10.639 -1.7930  1.7003  0.1017
40030SOL     OW25219   7.914   9.332   9.960 -0.1725 -0.1071  0.4285
40030SOL    HW125220   7.854   9.284   9.903 -0.4279  1.0799 -0.3039
40030SOL    HW225221   7.997   9.285   9.953 -0.2520 -0.0866 -0.7811
40031SOL     OW25222   3.509  10.088   3.769  0.1189 -0.4214 -0.0231
40031SOL    HW125223   3.589  10.119   3.727 -0.3569 -1.3993 -1.7019
40031SOL    HW225224   3.534  10.005   3.809  0.1570 -0.3173  0.1667
40032SOL     OW25225   4.989   7.316   1.147 -0.3403  0.3471  0.5098
40032SOL    HW125226   5.015   7.250   1.082 -1.1750 -0.3018  0.8251
40032SOL    HW225227   4.974   7.396   1.096 -1.1305 -0.1979 -0.1191
40033SOL     OW25228   8.218  11.301   7.037 -0.1042 -0.0781  0.3631
40033SOL    HW125229   8.291  11.254   7.076  0.1308  1.2900  1.5940
40033SOL    HW225230   8.153  11.307   7.107 -1.0520 -0.5128 -0.4564
40034SOL     OW25231   7.556   3.610   1.308  0.4492  0.5301 -0.3416
40034SOL    HW125232   7.526   3.571   1.226 -0.4679  1.2917 -0.3762
40034SOL    HW225233   7.630   3.556   1.335 -2.3340 -2.8798  0.9449
40035SOL     OW25234  10.306   8.517   8.953  0.3359  0.1127  0.1259
40035SOL    HW125235  10.215   8.544   8.960  0.7262  1.1070  1.7487
40035SOL    HW225236  10.329   8.531   8.861 -0.7576  1.1715  0.0078
40036SOL     OW25237   1.500   2.583   8.839  0.3683 -0.0160  0.3830
40036SOL    HW125238   1.462   2.616   8.921  2.3429 -0.8776  1.6622
40036SOL    HW225239   1.455   2.499   8.824  0.7383 -0.3550  1.1421
40037SOL     OW25240   2.143   6.432   9.666 -0.3123  0.2206 -0.0010
40037SOL    HW125241   2.128   6.527   9.663 -1.3820  0.0194 -1.2301
40037SOL    HW225242   2.233   6.421   9.638 -0.7826  0.7325 -1.7599
40038SOL     OW25243   8.500   3.541   8.413 -0.5470 -0.5163 -0.2920
40038SOL    HW125244   8.477   3.463   8.363  0.0909  0.6598 -2.5005
40038SOL    HW225245   8.550   3.595   8.351  0.8042  0.7124  1.8201
40039SOL     OW25246   5.178   0.464   5.614 -0.0973 -0.0874 -0.6168
40039SOL    HW125247   5.173   0.387   5.670 -1.5548  0.9902  0.7890
40039SOL    HW225248   5.231   0.526   5.663 -0.2454  0.3812 -1.0430
40040SOL     OW25249   4.792   4.461   5.537 -0.3977  0.1830  0.3262
40040SOL    HW125250   4.837   4.468   5.454 -0.9422  0.0924  0.0185
40040SOL    HW225251   4.752   4.547   5.550 -1.4594 -0.2283 -0.1773
40041SOL     OW25252  10.809   7.705   8.538 -0.5836  0.2457 -0.1090
40041SOL    HW125253  10.892   7.670   8.506  0.3568  1.3914  1.0455
40041SOL    HW225254  10.765   7.737   8.459  0.5738  0.6787 -0.5947
40042SOL     OW25255   2.328   3.897   4.139 -0.7478  0.0944  0.3174
40042SOL    HW125256   2.412   3.929   4.104 -0.4616 -1.5263 -0.4904
40042SOL    HW225257   2.289   3.847   4.067 -1.4312 -0.9464  1.4012
40043SOL     OW25258   4.328   2.774   7.749 -0.0916  0.1363  0.1221
40043SOL    HW125259   4.281   2.845   7.792 -0.9081 -0.9404  1.0754
40043SOL    HW225260   4.404   2.815   7.709 -0.1636  1.4220  1.2780
40044SOL     OW25261   6.210   3.642   9.009 -0.4324  0.0789 -0.9153
40044SOL    HW125262   6.241   3.611   8.925  0.6884  2.7063 -1.5160
40044SOL    HW225263   6.137   3.700   8.988 -1.1693 -0.4817  0.0367
40045SOL     OW25264  10.848   8.447   6.307  0.0383 -0.5717 -0.6992
40045SOL    HW125265  10.924   8.503   6.325 -0.1399 -0.7018  0.5414
40045SOL    HW225266  10.870   8.401   6.226  2.3122 -2.3533  0.8590
40046SOL     OW25267   9.765   8.050   5.492 -0.2783  0.3310 -0.0917
40046SOL    HW125268   9.843   8.017   5.536 -1.3071 -1.3035  0.5868
40046SOL    HW225269   9.761   8.001   5.410 -0.6608  0.2941 -0.0541
40047SOL     OW25270   0.398   7.651   1.822 -0.3734  0.1502 -0.6973
40047SOL    HW125271   0.362   7.735   1.794 -0.6519 -0.3754 -1.9532
40047SOL    HW225272   0.380   7.592   1.749  0.1359 -0.9137  0.0303
40048SOL     OW25273   9.898   2.232   8.688 -0.1813 -0.1205  0.0382
40048SOL    HW125274   9.837   2.223   8.615  0.3205  0.8159 -0.5053
40048SOL    HW225275   9.864   2.172   8.755  0.4231 -2.4575 -1.6573
40049SOL     OW25276   1.956   0.130   0.824 -0.5020 -0.3289 -0.4456
40049SOL    HW125277   1.929   0.202   0.768 -2.3040 -0.5127  0.1691
40049SOL    HW225278   1.878   0.076   0.834  0.9199 -2.6266 -1.2551
40050SOL     OW25279   0.121   5.717   9.435  0.1840  0.9677  0.1244
40050SOL    HW125280   0.211   5.748   9.425  0.5717  0.2440  1.2531
40050SOL    HW225281   0.127   5.622   9.420  0.3246  0.2606  4.1717
40051SOL     OW25282   5.451   3.210   6.312  0.0003  0.3065 -0.7038
40051SOL    HW125283   5.409   3.255   6.239 -1.7205 -0.0838  0.0267
40051SOL    HW225284   5.438   3.269   6.387 -1.8259 -1.1250  0.1514
40052SOL     OW25285   8.861   4.206   8.292 -0.3383  0.0150 -0.2992
40052SOL    HW125286   8.897   4.290   8.263  0.1003  0.3514  1.1835
40052SOL    HW225287   8.842   4.158   8.211 -0.7257  1.5954 -1.1523
40053SOL     OW25288   6.367   7.469   2.288  0.1285  0.1754  0.1443
40053SOL    HW125289   6.411   7.526   2.225 -0.2280  1.4249  1.0158
40053SOL    HW225290   6.288   7.516   2.313 -0.1844 -0.7070  0.8618
40054SOL     OW25291   9.807   2.718   8.131  0.0215 -0.4930 -0.3568
40054SOL    HW125292   9.850   2.667   8.063 -1.0672 -0.8858 -0.7746
40054SOL    HW225293   9.861   2.796   8.141  1.3285 -1.4149 -0.1906
40055SOL     OW25294   8.120   6.690   9.212  0.0845  0.3941  0.5809
40055SOL    HW125295   8.165   6.732   9.139 -1.5686  0.1765 -0.5763
40055SOL    HW225296   8.107   6.599   9.184  0.9230 -0.1324  1.8309
40056SOL     OW25297   6.803   0.789   5.057 -0.1286 -0.5218  0.4911
40056SOL    HW125298   6.849   0.705   5.050  0.0688 -0.5882  2.5042
40056SOL    HW225299   6.854   0.848   5.000 -0.3499 -1.7749 -1.0327
40057SOL     OW25300   2.337   8.590   5.512  0.1866  0.5240 -0.2778
40057SOL    HW125301   2.294   8.661   5.464 -2.5369 -0.5619  0.4825
40057SOL    HW225302   2.269   8.524   5.523  1.5093 -0.4302  2.6949
40058SOL     OW25303  10.800   0.947  10.526 -0.2959 -0.5059  0.1079
40058SOL    HW125304  10.758   0.930  10.441 -1.1469  2.0000 -0.0221
40058SOL    HW225305  10.893   0.935  10.509 -0.5700 -1.5460 -0.7835
40059SOL     OW25306   7.696   1.501   4.219 -0.6053 -0.0571  0.0867
40059SOL    HW125307   7.745   1.494   4.137 -1.4474 -0.1773 -0.4122
40059SOL    HW225308   7.745   1.566   4.270  0.8434 -1.1910  0.1678
40060SOL     OW25309   1.079  10.177   7.619  0.9472  0.0778 -0.1896
40060SOL    HW125310   1.110  10.258   7.660 -1.7856  0.9934  0.1522
40060SOL    HW225311   1.027  10.206   7.544  0.7217 -1.4050 -0.6277
40061SOL     OW25312   3.655   3.527   0.949  0.2052 -0.1670 -0.3067
40061SOL    HW125313   3.604   3.529   1.030 -0.1606 -0.0302 -0.5375
40061SOL    HW225314   3.711   3.450   0.957  1.2187  0.6525  0.7117
40062SOL     OW25315   1.018   1.417   4.093  0.1775 -0.2555 -0.0906
40062SOL    HW125316   1.035   1.511   4.102  0.3978 -0.5072  2.3733
40062SOL    HW225317   1.065   1.392   4.013  0.7381  1.5623 -0.3574
40063SOL     OW25318   3.121   1.972   8.154  0.3925  0.1937  0.5033
40063SOL    HW125319   3.041   2.010   8.120 -0.0254  0.1592  1.4100
40063SOL    HW225320   3.095   1.933   8.238  2.0673  3.2451  2.5471
40064SOL     OW25321  10.179   7.781  10.888 -0.1086 -0.2546  0.5915
40064SOL    HW125322  10.096   7.733  10.878 -0.8304  1.0113  0.4206
40064SOL    HW225323  10.175   7.850  10.821 -0.0384  1.3827  2.2368
40065SOL     OW25324  10.511   1.983   7.442 -0.5936 -0.2020  0.1645
40065SOL    HW125325  10.589   1.959   7.491 -0.9897  2.0531  1.9944
40065SOL    HW225326  10.543   2.006   7.355  0.4340 -1.7517  0.1162
40066SOL     OW25327   1.505   8.999   1.239 -0.3534 -0.2889  0.2287
40066SOL    HW125328   1.510   8.943   1.317 -0.7255  0.5248  0.8484
40066SOL    HW225329   1.596   9.016   1.216 -0.2285  0.6609  1.3747
40067SOL     OW25330   9.173  10.408   3.309  0.0261 -0.5569 -0.0103
40067SOL    HW125331   9.097  10.421   3.366  1.3886  0.5739  1.5881
40067SOL    HW225332   9.224  10.339   3.351 -0.1360 -1.3655 -1.1158
40068SOL     OW25333  10.712   4.499  10.686 -1.1279 -0.0995  0.8038
40068SOL    HW125334  10.641   4.512  10.622 -1.2267 -1.8012  0.5620
40068SOL    HW225335  10.668   4.466  10.764 -0.5735 -1.4742  0.5474
40069SOL     OW25336   8.901   8.850   8.289  0.3048 -0.1942  0.0027
40069SOL    HW125337   8.840   8.799   8.237  0.5697 -0.3353 -0.1738
40069SOL    HW225338   8.893   8.815   8.378 -2.7821  2.4473  0.8461
40070SOL     OW25339   9.443   5.337   4.038 -0.2059  0.2216 -0.0254
40070SOL    HW125340   9.437   5.241   4.037  0.1555  0.1760  1.1785
40070SOL    HW225341   9.510   5.356   4.104  1.9146  1.1989 -2.3348
40071SOL     OW25342   0.904   5.542   3.547  0.2716  0.3458  0.0910
40071SOL    HW125343   0.919   5.532   3.453 -0.5837 -0.0355 -0.0079
40071SOL    HW225344   0.981   5.590   3.578  0.8582 -0.0719 -0.6929
40072SOL     OW25345   0.924   4.377   6.167 -0.2171  0.2483 -0.0087
40072SOL    HW125346   0.856   4.314   6.145 -0.5898  0.5552  0.2600
40072SOL    HW225347   0.921   4.384   6.262  0.3411  0.0938  0.0194
40073SOL     OW25348   7.403   9.680   0.600  0.1181  0.3563  0.0612
40073SOL    HW125349   7.379   9.648   0.686  0.6357  0.1068  0.1140
40073SOL    HW225350   7.407   9.601   0.545  2.5100  0.1828  0.4545
40074SOL     OW25351   6.573   1.619   4.050  0.7029  0.3967 -0.3013
40074SOL    HW125352   6.660   1.603   4.014  0.6205  0.6320 -0.6095
40074SOL    HW225353   6.513   1.581   3.986  0.6540 -2.1779  1.2130
40075SOL     OW25354   6.915   0.111   9.042 -0.8243 -0.3224  0.3290
40075SOL    HW125355   6.859   0.169   9.094  1.7739  2.6166 -0.0146
40075SOL    HW225356   6.975   0.072   9.106  0.6314  1.2370 -0.0424
40076SOL     OW25357   5.214   5.180   6.151  0.1696 -0.3207 -0.1169
40076SOL    HW125358   5.155   5.124   6.100  1.4878 -3.4974  1.7558
40076SOL    HW225359   5.247   5.243   6.087 -0.2460 -2.5444 -2.6239
40077SOL     OW25360   3.355  10.287   3.163  0.0504  0.1252  0.7846
40077SOL    HW125361   3.389  10.363   3.116 -0.1121  0.3593  1.0386
40077SOL    HW225362   3.407  10.213   3.132  1.2129  0.5751  1.6312
40078SOL     OW25363   2.758   4.857   6.732  0.2997  0.1528 -0.0502
40078SOL    HW125364   2.679   4.833   6.682 -0.0508 -2.2738  1.5394
40078SOL    HW225365   2.808   4.775   6.737  1.6606  1.0495  1.1748
40079SOL     OW25366   3.890   9.781  10.441  0.1759 -0.3537 -0.0297
40079SOL    HW125367   3.797   9.803  10.445  0.0622 -0.8656  0.2409
40079SOL    HW225368   3.928   9.824  10.517 -0.1772 -1.6738  0.9185
40080SOL     OW25369   3.136   9.676   0.099  0.6005  0.0995 -0.0092
40080SOL    HW125370   3.099   9.598   0.140  0.4323  0.9629  1.5087
40080SOL    HW225371   3.208   9.701   0.156  0.1214  1.5484 -0.0288
40081SOL     OW25372   3.292   8.008   4.125 -0.2820  0.5741  0.1457
40081SOL    HW125373   3.247   7.935   4.167  0.4203  0.9905  1.6749
40081SOL    HW225374   3.370   7.969   4.085 -1.1384  0.1158 -1.0812
40082SOL     OW25375   6.584   7.616   4.418  0.1804 -0.5212  0.4841
40082SOL    HW125376   6.551   7.561   4.489 -0.2858 -1.7803 -0.6746
40082SOL    HW225377   6.635   7.683   4.461 -0.3972 -1.0557  2.0373
40083SOL     OW25378   2.148   1.282   1.493 -0.2666  0.0315 -0.2179
40083SOL    HW125379   2.065   1.282   1.447 -0.3418 -0.6231 -0.0886
40083SOL    HW225380   2.203   1.221   1.444  0.0271  0.2036 -0.1063
40084SOL     OW25381  10.991   1.875  10.400 -0.5363 -0.4485 -0.7779
40084SOL    HW125382  11.019   1.787  10.426  1.6598  0.6308  0.6565
40084SOL    HW225383  10.899   1.879  10.425 -0.0493 -1.5343  1.3204
40085SOL     OW25384  10.809   9.615   9.439 -0.3914  0.3314  0.4541
40085SOL    HW125385  10.866   9.539   9.453  1.4254  1.4884 -0.5082
40085SOL    HW225386  10.836   9.677   9.507 -2.1567 -0.0153  1.5030
40086SOL     OW25387   8.262   1.847   3.428  0.0982 -0.0194 -0.1224
40086SOL    HW125388   8.314   1.925   3.411 -0.2155  0.5214  1.3349
40086SOL    HW225389   8.235   1.817   3.342  0.4774  1.3087 -0.7154
40087SOL     OW25390   9.364   1.436   5.955  0.1764  0.2826 -0.0314
40087SOL    HW125391   9.281   1.478   5.932 -0.4035 -1.1076 -0.5254
40087SOL    HW225392   9.401   1.409   5.871 -0.4652 -2.0454  0.4043
40088SOL     OW25393   2.617   0.827   2.523  0.1973  0.4412 -0.1730
40088SOL    HW125394   2.566   0.891   2.572 -0.1783 -0.1685  0.2275
40088SOL    HW225395   2.557   0.793   2.457  0.2835  0.2166 -0.1377
40089SOL     OW25396  11.287   2.003  11.170 -0.1481  0.4141  0.2389
40089SOL    HW125397  11.301   1.933  11.234 -0.8596  1.0240  1.0691
40089SOL    HW225398  11.313   2.083  11.215 -0.8281  0.8735 -0.1704
40090SOL     OW25399  10.476   8.087   4.454  0.0217 -0.5637 -0.8808
40090SOL    HW125400  10.483   8.149   4.527  1.5344 -0.7049 -0.8802
40090SOL    HW225401  10.394   8.111   4.410  1.3668  2.5890 -1.8684
40091SOL     OW25402   7.585   3.032   0.629 -0.2509  0.3147 -0.1119
40091SOL    HW125403   7.605   3.031   0.722  1.2532 -1.0881 -0.4166
40091SOL    HW225404   7.492   3.010   0.624 -0.1579 -0.3961  1.0308
40092SOL     OW25405   8.945  11.111   5.226 -0.1028  0.5288 -0.1080
40092SOL    HW125406   8.862  11.145   5.192  1.2667  2.0448 -2.1236
40092SOL    HW225407   8.951  11.023   5.191 -1.0439  0.2558  0.3950
40093SOL     OW25408   1.203   6.087   7.894  0.6763 -0.4981  0.2295
40093SOL    HW125409   1.218   6.015   7.832 -0.4070  0.0339 -0.6654
40093SOL    HW225410   1.150   6.150   7.845  1.1411  0.6580  1.1926
40094SOL     OW25411  11.277   6.195   5.382  0.2438 -0.1422  0.1647
40094SOL    HW125412  11.266   6.254   5.456 -0.6266  0.3740 -0.3651
40094SOL    HW225413  11.362   6.218   5.345 -0.0866  0.7843 -0.0350
40095SOL     OW25414   3.759   2.422   6.312 -0.4014 -0.1103  0.5445
40095SOL    HW125415   3.819   2.490   6.338 -0.7508 -0.3801  2.0910
40095SOL    HW225416   3.711   2.459   6.237  3.2979 -0.7851 -2.3123
40096SOL     OW25417   2.921   6.641   2.300  0.1220  0.5225 -0.1344
40096SOL    HW125418   2.971   6.623   2.379  1.4465 -2.3211 -1.5567
40096SOL    HW225419   2.830   6.626   2.326  0.5467 -0.4945  0.8460
40097SOL     OW25420  10.198   8.447   2.716 -0.6236 -0.0490 -0.0176
40097SOL    HW125421  10.268   8.486   2.768 -0.9470  0.5840 -0.0430
40097SOL    HW225422  10.198   8.497   2.634 -1.5208  0.4023  0.2423
40098SOL     OW25423  10.813   3.895   6.816  0.0761 -0.0752  0.3767
40098SOL    HW125424  10.750   3.823   6.826 -0.0821 -0.3639 -2.1730
40098SOL    HW225425  10.890   3.866   6.865 -1.1246 -0.5226  2.0396
40099SOL     OW25426   1.908   8.630   2.989 -0.0563 -0.1678 -0.0522
40099SOL    HW125427   1.897   8.670   3.074 -1.7627 -0.0512 -0.3097
40099SOL    HW225428   1.908   8.703   2.927  1.2696 -0.2429 -0.1514
40100SOL     OW25429   0.376   8.571   1.808 -0.5577 -0.3251 -0.0569
40100SOL    HW125430   0.340   8.651   1.771 -1.5132 -1.0247 -0.6467
40100SOL    HW225431   0.351   8.502   1.747 -0.0008 -1.1234  0.6025
40101SOL     OW25432   6.567  10.983   5.692  0.2173 -0.0943  0.2607
40101SOL    HW125433   6.472  10.971   5.690  0.2764 -0.6179  0.5711
40101SOL    HW225434   6.602  10.895   5.708  0.8467 -0.2854 -1.9856
40102SOL     OW25435   7.620   9.201  10.239  0.4747  0.6467 -0.2093
40102SOL    HW125436   7.652   9.144  10.309  2.1450  1.0831 -0.5888
40102SOL    HW225437   7.636   9.152  10.158  1.3163  1.3673 -0.4890
40103SOL     OW25438  10.469   6.349   5.443 -0.6062 -0.1608 -0.7261
40103SOL    HW125439  10.479   6.432   5.395 -0.1628  1.2464  1.6960
40103SOL    HW225440  10.375   6.335   5.447 -0.6601 -0.1036 -1.6801
40104SOL     OW25441   5.196   2.881   0.529  0.1838  0.3547 -0.7670
40104SOL    HW125442   5.122   2.942   0.535 -0.1779 -0.2031  0.5142
40104SOL    HW225443   5.180   2.832   0.448 -1.1658 -0.1568 -0.2121
40105SOL     OW25444   4.842   3.084   0.965  0.7317  0.2737  0.3633
40105SOL    HW125445   4.790   3.005   0.981  1.4795 -0.5223 -1.0545
40105SOL    HW225446   4.900   3.090   1.040 -1.8878  1.6139  2.3864
40106SOL     OW25447  10.926   4.401   8.237 -0.3216  0.2703 -0.4013
40106SOL    HW125448  10.831   4.391   8.244 -0.1993 -1.1524 -0.5950
40106SOL    HW225449  10.956   4.318   8.199  1.3518 -0.6318  2.7180
40107SOL     OW25450   8.967   2.601   5.644 -0.1000 -0.1191 -0.2502
40107SOL    HW125451   9.002   2.563   5.563  0.3189  0.7149 -0.4743
40107SOL    HW225452   8.937   2.688   5.617 -1.0277 -0.2866  0.2531
40108SOL     OW25453   5.458   9.883  10.797 -0.1303  0.0160  0.3820
40108SOL    HW125454   5.507   9.965  10.794 -0.0574 -0.0631 -0.6162
40108SOL    HW225455   5.380   9.904  10.849 -1.0888  1.2663 -1.4773
40109SOL     OW25456   3.706   1.205   8.647 -0.0724  0.2734 -0.4206
40109SOL    HW125457   3.664   1.233   8.565 -2.0959  0.3763  0.6232
40109SOL    HW225458   3.684   1.274   8.710  0.2621 -0.5112  0.5722
40110SOL     OW25459   7.844   5.757   7.566  0.1652  0.1930  0.5792
40110SOL    HW125460   7.877   5.670   7.545  0.7353  0.5302  0.0367
40110SOL    HW225461   7.758   5.742   7.604 -1.0008 -0.4380 -2.2397
40111SOL     OW25462   4.430   8.279   4.974 -0.2316 -0.3026 -0.7251
40111SOL    HW125463   4.374   8.356   4.964  1.4683  1.0355 -0.1194
40111SOL    HW225464   4.507   8.298   4.921 -0.3880 -2.1835 -1.6514
40112SOL     OW25465   9.248   1.227   4.571 -0.1316  0.9508 -0.4842
40112SOL    HW125466   9.182   1.217   4.639 -0.6993  0.5244 -1.0963
40112SOL    HW225467   9.325   1.181   4.605 -1.0846 -1.1196 -1.0433
40113SOL     OW25468   2.816   8.973   7.864 -0.3463  0.1254  0.3342
40113SOL    HW125469   2.786   9.052   7.820 -0.8353  0.4143  1.1773
40113SOL    HW225470   2.853   9.003   7.947 -0.3468 -0.5116  0.5737
40114SOL     OW25471   9.256   4.800  10.558  0.5341 -0.7075  0.0371
40114SOL    HW125472   9.315   4.850  10.502  1.0299 -1.9916 -0.6071
40114SOL    HW225473   9.192   4.864  10.589  0.9504  0.2481 -1.0580
40115SOL     OW25474   5.252  11.335   1.718 -0.2493  0.2651 -0.0675
40115SOL    HW125475   5.243  11.270   1.787  1.0066 -0.2621 -0.3914
40115SOL    HW225476   5.203  11.299   1.643 -1.3357  0.6882  0.4272
40116SOL     OW25477   6.753   2.315   9.460  0.0149  0.4858 -0.4864
40116SOL    HW125478   6.669   2.285   9.495  0.5930  1.4281  1.7789
40116SOL    HW225479   6.816   2.247   9.487  0.7044  1.8948  1.6024
40117SOL     OW25480   2.650   1.021   5.852 -0.9277  0.1450  0.0572
40117SOL    HW125481   2.699   1.002   5.932 -0.9093 -0.3226 -0.0661
40117SOL    HW225482   2.703   0.982   5.782 -0.1516  1.8835 -0.3484
40118SOL     OW25483  11.243   4.744   0.452  0.1592 -0.2044 -0.1456
40118SOL    HW125484  11.280   4.666   0.495  0.2195 -0.1869 -0.1664
40118SOL    HW225485  11.318   4.801   0.438  0.5859 -1.3666 -2.7757
40119SOL     OW25486   0.729   5.221   5.396 -0.0806  0.1102 -0.3632
40119SOL    HW125487   0.746   5.127   5.397  1.3906  0.3757  2.2443
40119SOL    HW225488   0.634   5.228   5.411  0.0835 -0.8985  1.2055
40120SOL     OW25489   2.476   6.625   3.037 -0.5503 -0.4023  0.1693
40120SOL    HW125490   2.524   6.643   3.118 -1.0512 -2.9979  1.0843
40120SOL    HW225491   2.540   6.584   2.979 -0.3636  0.8528 -0.5297
40121SOL     OW25492   5.763   3.575   2.513  0.1077 -0.0487  0.6641
40121SOL    HW125493   5.750   3.486   2.545  0.1088 -0.7574 -1.1996
40121SOL    HW225494   5.768   3.629   2.591 -0.3979 -1.6257  1.8014
40122SOL     OW25495   6.646  10.471  10.455  0.2851  0.5535  0.4753
40122SOL    HW125496   6.597  10.428  10.525 -0.7547 -0.8280 -1.0581
40122SOL    HW225497   6.659  10.560  10.487 -0.2967  0.0057  2.3577
40123SOL     OW25498   0.901   9.506   2.549  0.3841  0.0919 -0.5795
40123SOL    HW125499   0.819   9.522   2.595  1.2991  1.7475  0.5320
40123SOL    HW225500   0.907   9.577   2.484  1.6983  0.9464  0.4489
40124SOL     OW25501  10.412   4.278   2.977  0.8551 -0.2343 -0.1782
40124SOL    HW125502  10.357   4.201   2.964  0.8773 -0.0204 -1.6049
40124SOL    HW225503  10.381   4.316   3.059 -0.0668 -0.9942 -0.1652
40125SOL     OW25504   4.481   1.991   3.593 -0.0604 -0.1713  0.6599
40125SOL    HW125505   4.502   2.043   3.670 -0.9035 -1.2260  1.6139
40125SOL    HW225506   4.386   1.999   3.583  0.1041  0.4108 -0.6076
40126SOL     OW25507   0.242   8.894   1.102  0.4540 -0.3252 -0.0933
40126SOL    HW125508   0.192   8.832   1.156  2.4425 -1.2364  0.7678
40126SOL    HW225509   0.254   8.849   1.019 -0.4206  0.0225 -0.4091
40127SOL     OW25510  10.945   3.602   5.373  0.1732  0.3138  0.0085
40127SOL    HW125511  11.026   3.593   5.422 -0.5793 -0.2338  1.1601
40127SOL    HW225512  10.876   3.596   5.438 -0.7419  4.8960 -0.3624
40128SOL     OW25513   6.625   6.233   8.321 -0.0852  0.1519 -0.6440
40128SOL    HW125514   6.621   6.142   8.349  2.3373  0.6734  1.5442
40128SOL    HW225515   6.714   6.245   8.290 -0.8473  1.3771 -2.4570
40129SOL     OW25516   7.726   4.714   7.176 -0.2335 -0.5091  0.0707
40129SOL    HW125517   7.666   4.711   7.101 -0.4814 -1.4408  0.2968
40129SOL    HW225518   7.692   4.648   7.236  0.7574 -0.7213  0.4049
40130SOL     OW25519   1.995   1.188   4.446 -0.1019  0.1243 -0.1436
40130SOL    HW125520   1.933   1.260   4.438  0.4860  0.3934 -2.5748
40130SOL    HW225521   2.004   1.153   4.357  1.6936 -1.1887  0.5104
40131SOL     OW25522   8.237   4.424  10.529 -0.0755  0.6167 -0.4692
40131SOL    HW125523   8.311   4.426  10.468 -0.2915 -1.2497 -0.8361
40131SOL    HW225524   8.214   4.331  10.535 -1.5417  1.0358  0.6691
40132SOL     OW25525   6.666   4.651   2.041 -0.0214 -0.1623 -0.3669
40132SOL    HW125526   6.708   4.735   2.058 -2.7281  1.9318 -3.3955
40132SOL    HW225527   6.576   4.663   2.071 -0.4079 -2.0541 -0.6829
40133SOL     OW25528   1.524   4.987   9.414  0.2709  0.0670 -0.4979
40133SOL    HW125529   1.557   5.023   9.497  0.4797  0.7466 -0.8752
40133SOL    HW225530   1.587   5.016   9.348 -0.0004 -0.3150 -0.9302
40134SOL     OW25531   6.027  10.799   1.307 -0.0392 -0.2017  0.1284
40134SOL    HW125532   6.025  10.821   1.214 -0.3974  1.5703  0.5359
40134SOL    HW225533   6.109  10.838   1.339 -0.1066 -0.4646  0.6214
40135SOL     OW25534   2.617   8.620   1.175 -0.0236 -0.0633 -0.1512
40135SOL    HW125535   2.688   8.674   1.140 -0.9319  1.5669  0.4799
40135SOL    HW225536   2.660   8.566   1.242  0.4432  1.7567  1.0697
40136SOL     OW25537   9.592   7.299  10.458 -0.5266  0.0522 -0.1170
40136SOL    HW125538   9.531   7.268  10.391 -1.4086  0.5144  0.4618
40136SOL    HW225539   9.566   7.390  10.473  0.0103  0.1074  0.4634
40137SOL     OW25540   4.665   5.208   2.037 -0.0812 -0.0083 -0.1095
40137SOL    HW125541   4.693   5.139   1.976 -1.1037 -0.3344 -0.2194
40137SOL    HW225542   4.635   5.161   2.114 -1.3693  0.2688 -0.4210
40138SOL     OW25543   9.432   9.584  10.081 -0.2254 -0.2744 -0.1580
40138SOL    HW125544   9.453   9.673  10.053 -2.5516  0.5155  0.5001
40138SOL    HW225545   9.430   9.588  10.177 -0.2836 -1.0443 -0.1211
40139SOL     OW25546   9.516   2.965   3.958  0.1235  0.2805  0.1439
40139SOL    HW125547   9.538   2.873   3.964  0.9270  0.4764  0.1790
40139SOL    HW225548   9.421   2.966   3.946  0.2738 -0.5963 -1.2011
40140SOL     OW25549   9.553   4.243   1.300  0.1159  0.0744 -0.7804
40140SOL    HW125550   9.495   4.286   1.237 -0.8316  1.7494  1.1791
40140SOL    HW225551   9.629   4.301   1.305  1.0589 -1.0522 -1.7955
40141SOL     OW25552   1.142   1.030   2.228  0.2217  0.2230  0.1915
40141SOL    HW125553   1.198   0.972   2.178  0.7288  0.1737  0.8145
40141SOL    HW225554   1.053   1.005   2.202  0.4953  0.9348 -1.4946
40142SOL     OW25555   8.739   3.753  10.960  0.0608  0.6705  0.2254
40142SOL    HW125556   8.712   3.810  11.031  0.7476  0.2720  0.8166
40142SOL    HW225557   8.756   3.668  11.002 -1.8874 -0.2470 -0.7719
40143SOL     OW25558   7.293   3.156   6.939 -0.1722 -0.3747  0.5270
40143SOL    HW125559   7.240   3.177   7.016  0.0562  0.1980  0.5308
40143SOL    HW225560   7.379   3.134   6.975  0.2086  0.8300  0.3782
40144SOL     OW25561  10.515  10.277   8.246  0.1618  0.1933 -0.3756
40144SOL    HW125562  10.568  10.277   8.166  0.1467  1.4772 -0.3917
40144SOL    HW225563  10.510  10.185   8.271 -0.9319 -0.3798 -2.5738
40145SOL     OW25564   9.265   9.729   6.940 -0.0676  0.0769 -0.4110
40145SOL    HW125565   9.352   9.766   6.928  0.5466 -1.4332 -0.6029
40145SOL    HW225566   9.216   9.761   6.864  0.8901 -0.7610 -1.3915
40146SOL     OW25567  10.752   6.538   7.894 -0.6742 -0.1036  0.2351
40146SOL    HW125568  10.665   6.578   7.889 -0.9272 -0.8416 -2.0866
40146SOL    HW225569  10.734   6.444   7.899 -0.0364 -0.1303  2.5369
40147SOL     OW25570   1.178   4.793   7.440  0.5596 -0.2430 -0.2950
40147SOL    HW125571   1.108   4.756   7.385  1.1632 -1.2432 -0.4086
40147SOL    HW225572   1.196   4.725   7.505 -0.8052  1.3280  1.7551
40148SOL     OW25573   2.112   4.449   4.835  0.2677  0.2965 -0.3240
40148SOL    HW125574   2.138   4.461   4.744  0.1031  0.4042 -0.3560
40148SOL    HW225575   2.194   4.428   4.880  0.2524 -0.3549 -0.5998
40149SOL     OW25576   9.874   7.227   4.644  0.2073 -0.6533  0.1044
40149SOL    HW125577   9.855   7.321   4.647  1.5142 -0.4393  2.2817
40149SOL    HW225578   9.901   7.211   4.553 -4.0099  0.2320 -1.4589
40150SOL     OW25579   5.745  11.041   8.103  0.5831 -0.9870 -0.1589
40150SOL    HW125580   5.700  11.119   8.071 -0.4451 -1.8630 -0.8585
40150SOL    HW225581   5.709  10.969   8.052  1.7148 -1.8995  0.3022
40151SOL     OW25582   1.940   6.169   7.569  0.1557 -0.2074 -0.2347
40151SOL    HW125583   1.947   6.077   7.545 -1.3263 -0.1881 -0.7862
40151SOL    HW225584   1.876   6.171   7.640 -1.2860  0.5842 -1.5117
40152SOL     OW25585  10.700   5.041   5.504  0.0197 -0.3866  0.5728
40152SOL    HW125586  10.610   5.057   5.475 -0.7067 -1.0545  2.3775
40152SOL    HW225587  10.719   4.952   5.475  0.9595  0.5785 -1.8688
40153SOL     OW25588   2.802  10.991   0.836  0.4238  0.0348  0.1432
40153SOL    HW125589   2.880  11.044   0.821  1.2257 -1.1559  0.0398
40153SOL    HW225590   2.729  11.051   0.821  1.3035  0.8474 -0.9656
40154SOL     OW25591   6.914   7.211   8.702 -0.4296 -0.0407 -0.0228
40154SOL    HW125592   6.889   7.132   8.749 -0.5686 -0.4500 -0.7709
40154SOL    HW225593   6.831   7.251   8.676 -0.3373 -0.4052 -0.8807
40155SOL     OW25594   9.410   0.522   0.223 -0.5199 -0.4378  0.5895
40155SOL    HW125595   9.423   0.579   0.147  0.8903  1.6030  2.2718
40155SOL    HW225596   9.462   0.445   0.204 -0.2275  0.0194 -0.5371
40156SOL     OW25597   1.822   9.813   7.153 -0.0866 -0.4828  0.5741
40156SOL    HW125598   1.892   9.817   7.219  1.4126 -2.7204 -0.8056
40156SOL    HW225599   1.775   9.732   7.172 -0.4662 -0.4796 -0.3039
40157SOL     OW25600   8.819   6.488   0.286  0.0493 -0.2542  0.2005
40157SOL    HW125601   8.848   6.398   0.268  0.5481 -0.1699  0.5542
40157SOL    HW225602   8.898   6.532   0.316 -0.2003  0.3038  0.0331
40158SOL     OW25603   9.406   1.897   3.223  0.3102  0.0328 -0.0486
40158SOL    HW125604   9.492   1.864   3.248  0.5424  0.3464 -0.4153
40158SOL    HW225605   9.396   1.978   3.273 -0.0969 -0.3954  0.5694
40159SOL     OW25606   8.611  10.376   4.157  0.1185 -0.3225 -0.3743
40159SOL    HW125607   8.627  10.398   4.065 -1.4362  1.9158 -0.1529
40159SOL    HW225608   8.520  10.347   4.159  0.2361 -0.6385  0.4045
40160SOL     OW25609   4.596   0.054   3.901 -0.2220 -0.1227  0.0615
40160SOL    HW125610   4.526   0.104   3.858 -0.3954  0.4148  0.9593
40160SOL    HW225611   4.570  -0.037   3.891  0.7948 -0.1739 -2.8434
40161SOL     OW25612   3.421  10.412   1.651  0.1267 -0.2643  0.6332
40161SOL    HW125613   3.380  10.481   1.702  0.2860  0.3047 -0.0001
40161SOL    HW225614   3.351  10.350   1.633 -0.2253  0.1872  0.4310
40162SOL     OW25615   2.604   3.299   2.768  0.5092  0.3488  0.1196
40162SOL    HW125616   2.523   3.330   2.809 -0.4047 -0.0738 -1.3338
40162SOL    HW225617   2.639   3.234   2.830  0.3482  1.3390  1.2798
40163SOL     OW25618   6.356   1.668   9.543 -0.2174 -0.5995 -0.7152
40163SOL    HW125619   6.394   1.685   9.457  0.3767  0.1450 -0.3210
40163SOL    HW225620   6.416   1.605   9.583  1.5086  1.6832  0.4743
40164SOL     OW25621   2.799   4.661   4.736  0.5664 -0.0995  0.0567
40164SOL    HW125622   2.867   4.595   4.748  0.3399 -0.6618 -1.5775
40164SOL    HW225623   2.762   4.641   4.650 -1.3313  0.4857  0.7056
40165SOL     OW25624   2.869  10.873   7.319  0.3077 -0.5464 -0.8677
40165SOL    HW125625   2.866  10.812   7.393 -1.7303  1.3759  0.6963
40165SOL    HW225626   2.911  10.951   7.353  0.2918 -0.0161 -2.0428
40166SOL     OW25627   4.509   1.648   9.634  0.3077  0.0055  0.5051
40166SOL    HW125628   4.446   1.598   9.685 -0.7481 -0.5898 -1.3387
40166SOL    HW225629   4.576   1.585   9.609  0.0851 -0.0219 -0.0283
40167SOL     OW25630   9.799   6.990   7.033  0.4644  0.2473 -0.0005
40167SOL    HW125631   9.767   6.901   7.017  1.1915  0.1743 -1.0911
40167SOL    HW225632   9.865   7.004   6.966  2.2879  0.6351  1.8263
40168SOL     OW25633   1.152   6.549   8.466  0.3666 -0.6166  0.2435
40168SOL    HW125634   1.063   6.574   8.491  0.4892 -0.6220  0.6994
40168SOL    HW225635   1.166   6.591   8.381  0.7700  1.3437  1.2388
40169SOL     OW25636   2.458   5.772   9.632  0.3833 -0.2950 -0.1513
40169SOL    HW125637   2.426   5.737   9.715  1.1397 -0.1061  0.2331
40169SOL    HW225638   2.398   5.738   9.566  1.9244 -3.5393  0.0007
40170SOL     OW25639   6.008   4.164   5.954 -0.0896 -0.4503 -0.0584
40170SOL    HW125640   6.044   4.228   5.892  0.4212 -0.5980  0.0840
40170SOL    HW225641   5.914   4.165   5.937  0.0581 -0.5781 -0.9274
40171SOL     OW25642   5.279   9.628   0.429  0.3101  0.0017 -0.1103
40171SOL    HW125643   5.366   9.597   0.455  1.2723  1.0169 -1.9893
40171SOL    HW225644   5.295   9.709   0.382 -1.7702  0.7850  0.4718
40172SOL     OW25645   0.736   6.894   4.434 -0.3145 -0.3109  0.3860
40172SOL    HW125646   0.684   6.820   4.464  1.1200 -1.4715  0.0540
40172SOL    HW225647   0.791   6.918   4.509 -1.2954  0.8880  0.7265
40173SOL     OW25648   6.533   6.351   1.282 -0.0343 -0.0859  0.0972
40173SOL    HW125649   6.505   6.283   1.221 -1.6055 -0.3241  1.0692
40173SOL    HW225650   6.531   6.309   1.368  0.3490  0.7857  0.5420
40174SOL     OW25651   6.119   6.649   4.637  0.4843 -0.6637  0.5349
40174SOL    HW125652   6.162   6.580   4.687  0.6339 -1.9259 -1.2799
40174SOL    HW225653   6.177   6.725   4.646  2.4868 -1.9711 -0.8185
40175SOL     OW25654   0.183   4.065   6.816  0.0228  0.0349 -0.0731
40175SOL    HW125655   0.089   4.072   6.803 -0.3417 -1.5366  1.4547
40175SOL    HW225656   0.210   4.152   6.845 -1.0198  0.3815 -0.1140
40176SOL     OW25657  10.738   6.800   6.322 -0.5605 -0.1166  0.5378
40176SOL    HW125658  10.694   6.736   6.266 -1.1549  0.7329  0.0217
40176SOL    HW225659  10.724   6.883   6.277  0.5340  0.3209  1.0095
40177SOL     OW25660   7.074   9.985   4.160  0.5478  0.6224 -0.2134
40177SOL    HW125661   6.985   9.953   4.149  0.3736  0.6464  1.0241
40177SOL    HW225662   7.086   9.990   4.255  2.4892 -1.1284 -0.3181
40178SOL     OW25663   0.885   7.164   5.945 -0.1171 -0.1691 -0.4406
40178SOL    HW125664   0.922   7.189   5.861 -0.9698  0.2693 -0.7006
40178SOL    HW225665   0.795   7.138   5.925 -0.7491  1.1861  0.4998
40179SOL     OW25666   2.632   8.563   0.238 -0.4259 -0.0843  0.0343
40179SOL    HW125667   2.588   8.554   0.153  0.7152 -2.2815 -0.3605
40179SOL    HW225668   2.721   8.532   0.222  0.2064  0.8115  1.7167
40180SOL     OW25669   8.761   2.563   6.799 -0.0725 -0.9302 -0.0256
40180SOL    HW125670   8.724   2.634   6.851  1.9337 -0.4233  0.7180
40180SOL    HW225671   8.698   2.491   6.809 -0.4042 -0.3822  1.9593
40181SOL     OW25672   3.432   5.803   7.083 -0.7637  0.1646  0.2940
40181SOL    HW125673   3.362   5.792   7.147  0.0628 -1.4558  0.9529
40181SOL    HW225674   3.396   5.770   7.001 -0.3844 -1.8214  0.9013
40182SOL     OW25675  10.110   6.494   6.071  0.0389 -0.0682 -0.2122
40182SOL    HW125676  10.195   6.487   6.027  0.7128 -0.2589  1.0870
40182SOL    HW225677  10.048   6.456   6.009  0.5788  1.9875 -2.0552
40183SOL     OW25678   9.176   2.995   9.410  0.2423  0.3548  0.2481
40183SOL    HW125679   9.219   3.078   9.388  0.6916  0.1055  0.1831
40183SOL    HW225680   9.244   2.929   9.401 -0.0839 -0.0103  0.4173
40184SOL     OW25681   2.663   3.835   5.626  0.5627 -0.3397  0.9573
40184SOL    HW125682   2.741   3.812   5.577  0.1978  0.9963 -0.2671
40184SOL    HW225683   2.682   3.921   5.665 -0.8244  0.7100 -0.5921
40185SOL     OW25684   1.732   7.881   0.863  0.0225  0.2223 -0.2971
40185SOL    HW125685   1.780   7.822   0.921 -0.8967 -0.1786  0.0700
40185SOL    HW225686   1.727   7.964   0.911  2.6303  1.0747 -1.4513
40186SOL     OW25687   4.629   4.306   5.399  0.5309  0.7640  0.7881
40186SOL    HW125688   4.688   4.362   5.448  1.8188 -0.5402  0.7514
40186SOL    HW225689   4.683   4.233   5.369 -0.3310  1.2296 -2.0867
40187SOL     OW25690   9.641   8.855   4.710  0.4331  0.3889 -0.2727
40187SOL    HW125691   9.710   8.897   4.761 -0.1669  1.2058 -0.1272
40187SOL    HW225692   9.617   8.920   4.644  0.9719 -0.5319 -1.3929
40188SOL     OW25693   7.706   4.325   3.122  0.1079 -0.1298 -0.8792
40188SOL    HW125694   7.662   4.410   3.123 -0.6767 -0.5355  0.9908
40188SOL    HW225695   7.640   4.265   3.086 -0.4254 -0.5005  0.6985
40189SOL     OW25696   7.583   0.561   4.675  0.0340 -0.4961  0.3643
40189SOL    HW125697   7.534   0.526   4.601 -0.6309  0.2299  0.4558
40189SOL    HW225698   7.551   0.650   4.685  2.3298  0.4425 -0.4100
40190SOL     OW25699   4.003   1.899   7.019 -0.2031 -0.2135 -0.2125
40190SOL    HW125700   3.960   1.943   7.092  0.9931  2.3567 -1.0050
40190SOL    HW225701   3.933   1.885   6.955 -0.4916  1.1060 -0.1961
40191SOL     OW25702   0.811   5.565   1.081  0.2661 -0.2050 -0.0310
40191SOL    HW125703   0.859   5.638   1.043  0.9335  0.5261  2.1309
40191SOL    HW225704   0.863   5.488   1.059  2.3263  0.5474  2.0227
40192SOL     OW25705  11.112  10.821   2.535 -0.2894 -0.4164 -0.0204
40192SOL    HW125706  11.042  10.886   2.530 -1.9781 -2.1047  0.8109
40192SOL    HW225707  11.108  10.775   2.451 -0.4711 -0.7646  0.1739
40193SOL     OW25708  10.548   5.599   4.710  0.5207 -0.1083  0.1176
40193SOL    HW125709  10.577   5.679   4.754 -0.2371  0.4905 -0.4421
40193SOL    HW225710  10.602   5.594   4.631 -2.1016  2.0534 -1.9279
40194SOL     OW25711   4.641  11.061   0.592  0.2363 -0.0105 -0.2080
40194SOL    HW125712   4.616  11.067   0.500  1.9752  0.0696 -0.6882
40194SOL    HW225713   4.700  10.986   0.596  1.8349  1.2489  0.4551
40195SOL     OW25714   0.521   8.994   9.559 -0.2083  0.4953  0.1207
40195SOL    HW125715   0.468   8.926   9.519  2.4210 -1.2344 -0.5402
40195SOL    HW225716   0.564   9.038   9.485  1.5822 -0.1141  0.7552
40196SOL     OW25717   8.385   2.402   0.810 -0.0986 -0.1329  0.3658
40196SOL    HW125718   8.330   2.352   0.750  2.3901 -4.0636  1.1471
40196SOL    HW225719   8.445   2.449   0.752  0.0614 -1.1842 -0.3492
40197SOL     OW25720   7.814   9.078   1.195 -0.3057  0.3813  0.6249
40197SOL    HW125721   7.906   9.055   1.192 -0.5578 -1.0565  2.6226
40197SOL    HW225722   7.776   9.039   1.116  0.8803  1.4849 -0.5050
40198SOL     OW25723   8.310  11.016  10.332 -0.1314  0.6018 -0.4426
40198SOL    HW125724   8.303  11.080  10.261  1.0956  1.2521 -0.0090
40198SOL    HW225725   8.355  11.064  10.402  1.1652 -0.8403 -0.2589
40199SOL     OW25726   7.942   6.552   7.526  0.3686  0.0201 -0.0221
40199SOL    HW125727   7.869   6.609   7.552 -0.0877 -0.1552 -0.9295
40199SOL    HW225728   7.901   6.469   7.504  0.7629  0.1360 -1.2316
40200SOL     OW25729   9.383   4.711  11.145  0.4422 -0.5958  0.0870
40200SOL    HW125730   9.390   4.616  11.147 -0.2355 -0.6209  1.3216
40200SOL    HW225731   9.461   4.740  11.097  0.5794 -1.7696 -0.4109
40201SOL     OW25732   2.104   0.749   3.365  0.0925  0.4726 -0.0902
40201SOL    HW125733   2.099   0.681   3.298  0.2791 -1.1205  1.4893
40201SOL    HW225734   2.018   0.790   3.365 -1.4019 -2.5206  1.7697
40202SOL     OW25735  10.821  10.087   9.002  0.0982 -0.4087  0.2812
40202SOL    HW125736  10.778  10.045   9.077 -0.8515  0.8924  0.4790
40202SOL    HW225737  10.907  10.046   8.998 -0.4104 -1.5876  1.1452
40203SOL     OW25738   2.533   6.679   2.712 -0.4564  0.0130 -0.3614
40203SOL    HW125739   2.507   6.736   2.785  0.7099 -1.6751  1.4103
40203SOL    HW225740   2.514   6.591   2.742 -1.1494 -0.6321 -2.6350
40204SOL     OW25741   0.293   2.314  10.586  0.4214 -0.2292 -0.0296
40204SOL    HW125742   0.375   2.293  10.630  1.8743  4.4061 -0.2528
40204SOL    HW225743   0.315   2.316  10.493 -0.6461 -1.6670 -0.3380
40205SOL     OW25744   6.243   2.629   5.633 -0.0197 -0.4418 -0.8662
40205SOL    HW125745   6.254   2.655   5.724 -0.4790 -3.5146  0.1022
40205SOL    HW225746   6.330   2.638   5.594  0.7191 -1.4519  0.5236
40206SOL     OW25747  11.166   5.684  10.669  0.3282 -0.4342 -0.4434
40206SOL    HW125748  11.182   5.592  10.649 -2.4893 -1.0274 -0.2198
40206SOL    HW225749  11.193   5.731  10.590  2.2572 -1.3715 -0.3666
40207SOL     OW25750   7.933   1.329  10.500  0.0686  0.2046 -0.1934
40207SOL    HW125751   7.889   1.401  10.455  0.6768  0.5679 -0.2165
40207SOL    HW225752   7.873   1.255  10.492 -1.2367  1.0933  1.1078
40208SOL     OW25753   8.286   9.441   7.844  0.0586 -0.0259  0.2866
40208SOL    HW125754   8.276   9.472   7.753  0.1628  2.0326  0.9471
40208SOL    HW225755   8.222   9.370   7.852  0.7777 -0.9547 -1.7014
40209SOL     OW25756   5.679   4.001   3.345  0.0467  0.0248 -0.2104
40209SOL    HW125757   5.622   3.932   3.379 -0.9876  0.1663 -1.5922
40209SOL    HW225758   5.662   4.076   3.401 -0.6631 -0.1236 -0.2232
40210SOL     OW25759  10.229   6.337  10.082  0.0921  0.4220 -0.0679
40210SOL    HW125760  10.155   6.281  10.059 -0.4619  0.8706  0.6042
40210SOL    HW225761  10.303   6.300  10.033  0.2560 -2.2745  2.1248
40211SOL     OW25762   1.062   9.553   7.625 -0.5168 -0.1127  0.2147
40211SOL    HW125763   1.004   9.602   7.683  0.4787 -0.0125  1.1440
40211SOL    HW225764   1.111   9.620   7.577 -0.7653 -0.1978 -0.1615
40212SOL     OW25765   9.504   6.613   5.362 -0.1498  0.7803  0.2744
40212SOL    HW125766   9.484   6.588   5.272 -0.5957 -1.2432  0.9097
40212SOL    HW225767   9.419   6.623   5.405  0.0718 -1.2938  1.2492
40213SOL     OW25768   0.295   5.144   3.284 -0.4631 -0.0473 -0.5836
40213SOL    HW125769   0.373   5.099   3.253  1.1163  2.4801 -0.4078
40213SOL    HW225770   0.242   5.158   3.206  0.2963  0.1609 -1.0677
40214SOL     OW25771   5.403   2.218  10.293  0.2204  0.0667 -0.9155
40214SOL    HW125772   5.475   2.242  10.351  0.0725 -1.0936 -0.2301
40214SOL    HW225773   5.324   2.238  10.344  0.0915 -0.7983 -0.7553
40215SOL     OW25774   3.318   8.837   8.849  0.2790  0.1379  0.4674
40215SOL    HW125775   3.398   8.868   8.891  1.6451  0.1913 -2.0697
40215SOL    HW225776   3.349   8.785   8.775 -2.0518  1.5645 -1.5542
40216SOL     OW25777   8.477   0.855  10.920 -0.1206 -0.1149  0.2882
40216SOL    HW125778   8.482   0.808  10.837 -0.8339  0.0935  0.1221
40216SOL    HW225779   8.423   0.932  10.901  1.4161  1.0307  0.4439
40217SOL     OW25780   1.925   1.192  10.406  0.4514 -0.1068  0.1330
40217SOL    HW125781   1.999   1.237  10.445  1.1709 -0.3732 -0.8929
40217SOL    HW225782   1.895   1.250  10.336 -1.1669  0.6169  1.4138
40218SOL     OW25783   4.215   9.105   1.340  0.1490 -0.4953  0.0514
40218SOL    HW125784   4.305   9.071   1.334 -0.7757 -2.8636 -0.9845
40218SOL    HW225785   4.187   9.084   1.429  0.5749  0.1354  0.3361
40219SOL     OW25786   3.291   0.502   6.217 -0.1094  0.6801 -0.4793
40219SOL    HW125787   3.323   0.474   6.303 -2.3465  1.1628  0.5546
40219SOL    HW225788   3.367   0.494   6.159  0.9848 -1.2664  1.1693
40220SOL     OW25789   4.693   5.246   7.228 -0.3429 -0.0956  0.4546
40220SOL    HW125790   4.689   5.170   7.170  0.6662 -0.6145  1.0538
40220SOL    HW225791   4.642   5.220   7.305  1.1036 -0.6755  1.2284
40221SOL     OW25792   8.688   6.091   7.289  0.1348 -0.2305 -0.5450
40221SOL    HW125793   8.717   6.058   7.374 -0.4457  1.7407  0.4638
40221SOL    HW225794   8.594   6.073   7.287 -0.0123  0.4903 -0.3822
40222SOL     OW25795   0.433   7.803   9.041  0.2300 -0.2223  0.5946
40222SOL    HW125796   0.452   7.729   8.983  0.8802 -2.0217  3.0155
40222SOL    HW225797   0.338   7.811   9.039  0.3865  1.5203 -2.7972
40223SOL     OW25798   7.449   0.216   3.055 -0.3795  0.3023 -0.2062
40223SOL    HW125799   7.530   0.166   3.064  0.2744  1.6133  1.5338
40223SOL    HW225800   7.384   0.164   3.103  0.0099  0.5013  0.5419
40224SOL     OW25801   0.065   3.396   2.562  0.6378  0.6697  0.1179
40224SOL    HW125802   0.139   3.454   2.579  0.2745  0.6869  1.7929
40224SOL    HW225803   0.016   3.395   2.645  0.1435 -1.3018 -0.1717
40225SOL     OW25804   6.811   6.144   8.604  0.1672  0.0307  1.2299
40225SOL    HW125805   6.877   6.081   8.576 -2.1102 -0.8957 -2.2575
40225SOL    HW225806   6.734   6.091   8.624 -0.1005  1.2588  3.6489
40226SOL     OW25807   3.418   4.817   5.587 -0.5367  0.1605 -0.8656
40226SOL    HW125808   3.422   4.725   5.616 -1.1104  0.1415 -0.8514
40226SOL    HW225809   3.509   4.847   5.595 -0.2971 -0.4747 -1.0979
40227SOL     OW25810   2.026   0.082  10.491 -0.3889 -0.0685 -0.2769
40227SOL    HW125811   2.018   0.178  10.483 -1.1548 -0.2899 -2.7587
40227SOL    HW225812   1.943   0.049  10.456 -0.0948 -1.6466  0.5070
40228SOL     OW25813   5.385   2.868  10.375 -0.4321 -0.4535 -0.4387
40228SOL    HW125814   5.304   2.816  10.378 -1.1096  0.6433  0.7456
40228SOL    HW225815   5.365   2.941  10.317 -0.2944 -0.1856 -0.1533
40229SOL     OW25816   5.143   7.675   3.190  0.5374  0.0542 -0.1052
40229SOL    HW125817   5.077   7.716   3.247  1.2169 -0.8535  1.3371
40229SOL    HW225818   5.220   7.731   3.199  0.7439 -0.2645  0.1186
40230SOL     OW25819   5.194   3.626   2.994  0.1362  0.5845 -0.6407
40230SOL    HW125820   5.183   3.559   3.061 -1.5216  2.9345  1.5391
40230SOL    HW225821   5.288   3.646   2.994  0.3512 -0.4147 -0.0132
40231SOL     OW25822   8.158   1.746   6.130 -0.4836  0.1629  0.2163
40231SOL    HW125823   8.094   1.706   6.190 -0.2006 -0.7968 -0.1130
40231SOL    HW225824   8.157   1.690   6.053  0.6898  0.1919  0.1666
40232SOL     OW25825   9.929  10.616   4.171 -1.0464 -0.3164 -0.2315
40232SOL    HW125826  10.001  10.579   4.223 -1.3572 -0.8776 -0.1921
40232SOL    HW225827   9.920  10.706   4.203 -1.8261 -0.9197  1.3540
40233SOL     OW25828   0.540   0.275   4.571 -0.4737  0.5240  0.0076
40233SOL    HW125829   0.556   0.182   4.558 -0.9927  0.5965 -1.2175
40233SOL    HW225830   0.530   0.284   4.666  1.2952 -0.3752  0.3039
40234SOL     OW25831   2.346   8.552   4.950 -0.1014  0.3988  0.3627
40234SOL    HW125832   2.307   8.613   4.887 -0.6230  0.3429  0.6305
40234SOL    HW225833   2.366   8.607   5.026 -1.0967  0.1249  0.8221
40235SOL     OW25834  11.240   1.913   5.930 -0.4092  0.1177 -0.0237
40235SOL    HW125835  11.291   1.863   5.867  0.6857  2.0135 -0.6859
40235SOL    HW225836  11.281   1.999   5.931 -1.0421  0.4314  2.5195
40236SOL     OW25837   2.699   8.670   8.347  0.2446  0.0376  0.3644
40236SOL    HW125838   2.740   8.747   8.385 -1.4015  0.6046  1.0360
40236SOL    HW225839   2.637   8.640   8.413  1.0180 -1.9965  0.1920
40237SOL     OW25840  10.034   5.932   3.768  0.3003  0.0762 -0.7961
40237SOL    HW125841  10.124   5.965   3.771  0.4218 -0.2009 -1.2866
40237SOL    HW225842  10.039   5.846   3.809  0.3811 -0.2007 -1.3787
40238SOL     OW25843   8.761   9.254   6.306  0.0896  0.7131 -0.1260
40238SOL    HW125844   8.674   9.214   6.309  0.4314  0.0093  1.1503
40238SOL    HW225845   8.816   9.194   6.356  0.7422  2.4893  1.3422
40239SOL     OW25846   8.455   0.850   1.504 -0.1978  0.1944 -0.2216
40239SOL    HW125847   8.435   0.901   1.425  1.6055 -0.7578 -1.3379
40239SOL    HW225848   8.505   0.911   1.559  0.6933  0.1168 -0.9209
40240SOL     OW25849   6.504   5.097   7.068 -0.2809 -0.0543  0.9444
40240SOL    HW125850   6.447   5.098   6.991  0.6708 -0.1584  0.2279
40240SOL    HW225851   6.463   5.158   7.129 -0.4028  0.9564 -0.1240
40241SOL     OW25852  10.198   0.014   5.812  0.2720  0.3739 -0.3045
40241SOL    HW125853  10.219  -0.074   5.782  0.4235  0.6409 -0.9828
40241SOL    HW225854  10.284   0.053   5.831  0.1773  0.1949  0.5011
40242SOL     OW25855   6.150  10.131   9.243  0.3696  0.1579  0.0241
40242SOL    HW125856   6.174  10.178   9.163  1.4037  0.2041  0.3539
40242SOL    HW225857   6.232  10.093   9.274 -0.0408  0.0529  1.0084
40243SOL     OW25858   6.694   9.617   0.255  0.4788 -0.0425 -0.2364
40243SOL    HW125859   6.766   9.588   0.311 -1.3678  0.1320  2.3147
40243SOL    HW225860   6.661   9.697   0.296  1.6440  2.4159 -3.8709
40244SOL     OW25861   9.209   5.553   0.155  0.0041  0.0395 -0.5946
40244SOL    HW125862   9.255   5.470   0.150  0.2524  0.2774 -2.8126
40244SOL    HW225863   9.207   5.585   0.065 -2.9739  0.8640 -0.3114
40245SOL     OW25864   3.898   3.741   2.721  0.0489 -0.6091 -0.1304
40245SOL    HW125865   3.803   3.735   2.718  0.1086 -2.2223  0.7574
40245SOL    HW225866   3.916   3.832   2.744 -1.2554 -0.0548 -1.2567
40246SOL     OW25867   6.600   1.145   8.509 -0.7600  0.0977 -0.1995
40246SOL    HW125868   6.619   1.174   8.420 -2.8179  2.9005  0.2146
40246SOL    HW225869   6.682   1.161   8.557  0.1678 -0.8893 -1.4128
40247SOL     OW25870   0.623   1.504   9.996  0.1662  0.6630  0.3006
40247SOL    HW125871   0.571   1.552   9.931  0.4113 -1.1425 -1.2798
40247SOL    HW225872   0.680   1.447   9.943 -0.8354 -2.1044  2.0936
40248SOL     OW25873   1.222   9.767   3.215 -0.0563  0.2255  0.8905
40248SOL    HW125874   1.163   9.745   3.143 -1.3281 -0.9002  2.2519
40248SOL    HW225875   1.259   9.683   3.242  1.9762  0.8911  0.2298
40249SOL     OW25876  10.261   5.100   1.761  0.6017  0.1018  0.3595
40249SOL    HW125877  10.331   5.088   1.825  1.1632  1.1085 -0.0427
40249SOL    HW225878  10.234   5.012   1.738  0.0010 -0.2860  2.3993
40250SOL     OW25879   2.148   6.688   2.697 -0.1983  0.6401  0.0201
40250SOL    HW125880   2.168   6.699   2.790 -0.8007  1.5888  0.0442
40250SOL    HW225881   2.169   6.772   2.657  2.5402 -0.5311 -1.1775
40251SOL     OW25882  10.286   3.618   6.871  0.6434  0.1174  0.2923
40251SOL    HW125883  10.215   3.554   6.863  1.8799 -1.2608  0.2661
40251SOL    HW225884  10.329   3.618   6.786 -0.6285  2.5428 -0.3995
40252SOL     OW25885   8.868   1.380   9.429 -0.0363 -0.0835 -0.0653
40252SOL    HW125886   8.800   1.436   9.466 -0.6278 -0.8765  0.0776
40252SOL    HW225887   8.848   1.377   9.335  1.3254  1.7394 -0.4452
40253SOL     OW25888   2.522   7.056   3.020  0.2531 -0.1188  0.3453
40253SOL    HW125889   2.597   7.114   3.010 -0.5547  0.7025 -1.2925
40253SOL    HW225890   2.522   7.031   3.112  1.2309  1.6430  0.8452
40254SOL     OW25891   4.231  10.508   5.210 -0.1945 -0.1136 -0.2125
40254SOL    HW125892   4.207  10.586   5.160 -0.5977 -0.8909 -1.2622
40254SOL    HW225893   4.150  10.458   5.216  0.2351 -0.8209 -0.2218
40255SOL     OW25894   6.776   1.115   1.909 -0.1517  0.2234 -0.0574
40255SOL    HW125895   6.841   1.058   1.868 -0.4063  0.4826 -0.8222
40255SOL    HW225896   6.824   1.194   1.934  0.2219 -0.3508  1.0896
40256SOL     OW25897   3.260   4.787   1.535 -0.4156 -0.1080  0.2174
40256SOL    HW125898   3.338   4.839   1.553 -0.6665 -0.0275  1.0778
40256SOL    HW225899   3.294   4.707   1.495  0.1156 -0.0999  0.6426
40257SOL     OW25900  10.667   5.540   6.137 -0.2460  0.8461 -0.4017
40257SOL    HW125901  10.750   5.581   6.114  0.7479 -1.8755 -1.9364
40257SOL    HW225902  10.630   5.513   6.052 -1.5202 -0.0984  0.4356
40258SOL     OW25903   5.678   9.836   1.655 -0.0628 -0.3717 -0.0126
40258SOL    HW125904   5.639   9.812   1.739 -2.3433 -1.3213 -1.2759
40258SOL    HW225905   5.661   9.760   1.599 -2.7910  2.0627 -2.6571
40259SOL     OW25906   2.944   0.491   5.189  0.2959  0.3433 -0.0196
40259SOL    HW125907   2.965   0.554   5.120 -0.9818 -1.6772 -2.3132
40259SOL    HW225908   2.853   0.467   5.173  0.4479 -1.3224  1.4597
40260SOL     OW25909  10.806   4.799   0.204  0.1107 -0.0773 -0.4084
40260SOL    HW125910  10.786   4.767   0.117 -1.4947 -2.0665  0.6659
40260SOL    HW225911  10.892   4.762   0.224  0.2021 -0.1254 -0.8867
40261SOL     OW25912   0.488   6.709   3.941  0.0215 -0.5099  0.4358
40261SOL    HW125913   0.518   6.714   4.032  0.3020 -0.9400  0.3708
40261SOL    HW225914   0.393   6.723   3.946  0.3754  2.0905  0.5202
40262SOL     OW25915  11.302   3.534   2.332  0.1561 -0.1235 -0.2856
40262SOL    HW125916  11.300   3.473   2.405 -0.3084  0.2281 -0.0000
40262SOL    HW225917  11.394   3.556   2.321 -0.1013  2.9464  2.8191
40263SOL     OW25918   8.728   1.839  10.356  0.1666 -0.5050 -0.0050
40263SOL    HW125919   8.780   1.880  10.287  0.5156 -1.1691 -0.1355
40263SOL    HW225920   8.766   1.752  10.367 -0.3783 -0.6844  0.4900
40264SOL     OW25921   2.084   3.731   1.911 -0.0225  0.0647 -0.7691
40264SOL    HW125922   2.131   3.792   1.855 -0.5151  0.1019 -1.1458
40264SOL    HW225923   2.150   3.668   1.940  0.7848  1.5534  0.7213
40265SOL     OW25924   0.260   5.027   6.302 -0.0686 -0.5834 -0.5199
40265SOL    HW125925   0.289   5.053   6.390 -1.0536 -0.4598 -0.2153
40265SOL    HW225926   0.284   4.934   6.296 -1.5932 -1.0773  0.5909
40266SOL     OW25927   3.500  10.298   0.120  0.0776  0.1546  0.6201
40266SOL    HW125928   3.455  10.219   0.149  0.7050 -0.0943  0.9341
40266SOL    HW225929   3.470  10.367   0.179 -2.3495  0.7000 -1.1699
40267SOL     OW25930   0.263   0.878   5.305  0.1395  0.5840 -0.1448
40267SOL    HW125931   0.240   0.971   5.296  1.1936  1.0139  1.5385
40267SOL    HW225932   0.179   0.833   5.301 -0.4985  1.7031  0.2448
40268SOL     OW25933   2.760   8.191   2.879 -0.5234 -0.4132  0.1207
40268SOL    HW125934   2.807   8.261   2.833 -1.6859  0.0126 -0.4349
40268SOL    HW225935   2.756   8.119   2.816  0.3364 -0.8554  0.5584
40269SOL     OW25936   0.550  10.919   7.377  0.1630 -0.2104  0.2381
40269SOL    HW125937   0.463  10.889   7.350 -0.4000 -1.3896  3.1962
40269SOL    HW225938   0.533  11.001   7.424  0.9179  0.7607 -1.1430
40270SOL     OW25939   4.035  10.397   8.320  0.3208  0.1833 -0.0465
40270SOL    HW125940   3.972  10.455   8.363 -0.3138 -1.7785  1.7290
40270SOL    HW225941   4.100  10.378   8.388  0.5893 -1.1188 -0.6565
40271SOL     OW25942   2.757   9.361   0.745  0.0298  0.2580  0.0774
40271SOL    HW125943   2.796   9.275   0.729  1.1435  0.3150  2.2058
40271SOL    HW225944   2.710   9.351   0.827  0.4941  1.7713  0.5476
40272SOL     OW25945   2.112   1.647   2.345  0.9173  0.0544 -0.2327
40272SOL    HW125946   2.068   1.729   2.327  1.8268  0.8284  0.9545
40272SOL    HW225947   2.041   1.582   2.352  0.3453  0.3428 -3.0823
40273SOL     OW25948   5.486   5.837   8.614 -0.4311 -0.2511  0.4185
40273SOL    HW125949   5.441   5.837   8.529 -0.8441  2.1624  0.5901
40273SOL    HW225950   5.578   5.852   8.592 -0.4003 -0.5828  0.3272
40274SOL     OW25951   9.739  10.652   7.954 -0.2730  0.0051 -0.0684
40274SOL    HW125952   9.801  10.592   7.996 -0.3560 -0.3358 -0.4285
40274SOL    HW225953   9.747  10.733   8.004  0.9729  0.1890 -0.5447
40275SOL     OW25954   2.117   4.524   0.678 -0.1834  0.0894 -0.0642
40275SOL    HW125955   2.160   4.603   0.712 -2.0139  0.2748  1.9017
40275SOL    HW225956   2.152   4.453   0.730 -0.1512 -0.1257 -0.3787
40276SOL     OW25957   2.014   3.601   0.038  0.6309  0.4530 -0.1988
40276SOL    HW125958   2.109   3.614   0.038  0.6624  0.2919  0.5340
40276SOL    HW225959   1.990   3.607   0.131  0.1186 -0.8854 -0.2314
40277SOL     OW25960   5.567   5.300   6.553 -0.0412 -0.3294  0.4507
40277SOL    HW125961   5.616   5.356   6.613  0.1929 -1.5127  1.3915
40277SOL    HW225962   5.627   5.285   6.480  0.9744 -1.6053  1.5023
40278SOL     OW25963   1.075   9.784   0.104  0.2004  0.4542 -0.0543
40278SOL    HW125964   1.018   9.773   0.181 -1.3651  0.8588 -1.1319
40278SOL    HW225965   1.102   9.876   0.107 -0.3330  0.6194 -0.3122
40279SOL     OW25966   5.716   6.076  10.820  0.5894  0.2367 -0.3296
40279SOL    HW125967   5.661   6.070  10.742 -0.4146  0.5012  0.3488
40279SOL    HW225968   5.654   6.084  10.893  1.4647 -1.5029  0.6502
40280SOL     OW25969  11.104   5.330   7.150  0.3348  0.2855  0.4583
40280SOL    HW125970  11.193   5.311   7.181  0.7649 -0.1237 -1.0109
40280SOL    HW225971  11.067   5.244   7.128  0.6547  0.6970 -1.8006
40281SOL     OW25972   2.257   2.695   4.959 -0.1395  0.0831 -0.0552
40281SOL    HW125973   2.233   2.782   4.991 -2.5659 -0.1816 -0.9967
40281SOL    HW225974   2.334   2.709   4.904  1.3393  1.1702  2.2662
40282SOL     OW25975   7.748   7.134   9.578 -0.0007  0.0796  0.1496
40282SOL    HW125976   7.761   7.052   9.530  0.8632  0.0295  0.4734
40282SOL    HW225977   7.686   7.110   9.648 -0.0489 -0.2041  0.0128
40283SOL     OW25978   9.879   5.607   8.215 -0.0791 -0.1869  0.4318
40283SOL    HW125979   9.803   5.659   8.240  1.0177  0.8766  1.6831
40283SOL    HW225980   9.895   5.629   8.123 -0.0241  1.1805  0.7681
40284SOL     OW25981  10.260   9.657  11.030  0.6092 -1.1307  0.1842
40284SOL    HW125982  10.328   9.626  10.970  3.6438  1.7721  1.9215
40284SOL    HW225983  10.249   9.750  11.008  0.3669 -0.4975  2.7786
40285SOL     OW25984   6.662  10.123   3.784  0.0536  0.0646  0.3359
40285SOL    HW125985   6.595  10.109   3.851 -0.0938 -0.1575  0.1429
40285SOL    HW225986   6.681  10.036   3.750 -1.4877  0.3886 -1.4609
40286SOL     OW25987   6.723   5.107   6.444  0.4269 -0.5008  0.0641
40286SOL    HW125988   6.667   5.172   6.401  0.6862 -0.1492  0.2537
40286SOL    HW225989   6.802   5.156   6.468  0.2588 -0.6756  0.9904
40287SOL     OW25990  11.024   6.305   7.954  0.2757 -0.5390  0.4446
40287SOL    HW125991  11.028   6.313   8.049  2.3233 -1.1319  0.4451
40287SOL    HW225992  10.931   6.309   7.933 -0.1872 -0.1992  2.4469
40288SOL     OW25993   9.364   1.477   8.099 -0.0588  0.5159 -0.3637
40288SOL    HW125994   9.333   1.397   8.058  0.7418  0.9196 -1.8030
40288SOL    HW225995   9.285   1.524   8.125 -0.5788  0.3737 -1.7005
40289SOL     OW25996   7.518   3.403  10.795 -0.3004  0.1036  0.5754
40289SOL    HW125997   7.470   3.353  10.729 -1.4557 -0.5567  1.8890
40289SOL    HW225998   7.500   3.494  10.775  0.2186 -0.0586 -0.6592
40290SOL     OW25999   4.381   8.040   0.952 -0.0205  0.5324 -0.5094
40290SOL    HW126000   4.405   8.005   1.038 -0.1863  0.5103 -0.4718
40290SOL    HW226001   4.434   7.989   0.890 -0.1426  0.3214 -0.4434
40291SOL     OW26002   5.131   7.788   3.676 -0.2934 -0.4351 -0.4326
40291SOL    HW126003   5.050   7.820   3.637  0.8305  2.1601 -0.7709
40291SOL    HW226004   5.160   7.719   3.617 -0.1420  1.4586 -2.6670
40292SOL     OW26005   4.070   4.587   0.203  0.2309 -0.1609  0.3165
40292SOL    HW126006   4.130   4.559   0.273  0.5702 -0.2136  0.0034
40292SOL    HW226007   4.123   4.642   0.146  0.2236 -0.9314 -0.4551
40293SOL     OW26008  10.580  10.289   0.894  0.7169 -0.5644  0.3818
40293SOL    HW126009  10.500  10.318   0.850 -0.5378 -1.9958  1.6549
40293SOL    HW226010  10.636  10.367   0.895 -1.4378  1.0270  1.2326
40294SOL     OW26011   7.994   9.220   7.551  0.3985  0.2311 -0.1214
40294SOL    HW126012   8.082   9.192   7.574  0.7021  1.2075 -0.0827
40294SOL    HW226013   7.978   9.298   7.605 -0.6802 -0.2356  0.2463
40295SOL     OW26014   6.062  11.322   9.585 -0.0790  0.0290 -0.3877
40295SOL    HW126015   6.056  11.241   9.634  1.6569  0.8305  1.1748
40295SOL    HW226016   6.025  11.389   9.643  1.1320  0.8280 -0.5180
40296SOL     OW26017   9.851   3.539   4.096  0.1333 -0.0615  0.0188
40296SOL    HW126018   9.909   3.544   4.172  0.9654 -2.4878 -0.4240
40296SOL    HW226019   9.788   3.611   4.110  1.4141  0.7269  2.0085
40297SOL     OW26020   6.631   9.922   2.425  0.2697  0.1261  0.0544
40297SOL    HW126021   6.557   9.979   2.447  1.5145  2.7664 -2.3558
40297SOL    HW226022   6.607   9.883   2.341  0.0326 -1.8834  1.0402
40298SOL     OW26023   2.929  10.222   0.579  0.2296 -0.1933 -0.0592
40298SOL    HW126024   2.897  10.269   0.656  0.4860 -0.7076  0.3673
40298SOL    HW226025   3.010  10.180   0.608  1.1201  0.8274 -1.0429
40299SOL     OW26026   9.112   7.560   0.601 -0.3799 -0.0693 -0.1351
40299SOL    HW126027   9.103   7.505   0.679 -1.0694 -2.5670 -1.9201
40299SOL    HW226028   9.146   7.501   0.534  1.1530  2.2981 -1.4621
40300SOL     OW26029   2.744   3.703   0.203 -0.6370 -0.3474  0.1653
40300SOL    HW126030   2.689   3.627   0.221 -0.5242 -0.2001  1.1690
40300SOL    HW226031   2.826   3.667   0.169 -0.3735 -0.7026  1.1693
40301SOL     OW26032   6.284  11.128   6.619  0.3172  0.2031 -0.3744
40301SOL    HW126033   6.246  11.138   6.706 -1.6741 -1.8426 -0.9911
40301SOL    HW226034   6.371  11.091   6.635 -0.3813 -0.9909  0.6883
40302SOL     OW26035   5.814   5.816   1.429 -0.2648 -0.3697  0.4910
40302SOL    HW126036   5.820   5.727   1.395 -1.7308  0.0509 -0.9346
40302SOL    HW226037   5.722   5.827   1.452 -0.0772  0.7571  0.7279
40303SOL     OW26038   5.386   2.162   9.506  0.0775  0.0008 -0.0060
40303SOL    HW126039   5.313   2.200   9.457 -0.6451 -1.1568  0.1439
40303SOL    HW226040   5.354   2.154   9.595  0.2001 -0.9397 -0.0331
40304SOL     OW26041   6.863   1.476   3.483 -0.0326  0.1223 -0.3346
40304SOL    HW126042   6.824   1.530   3.551 -0.6952  0.4005 -0.9358
40304SOL    HW226043   6.854   1.386   3.516 -0.8209  0.2160 -0.2895
40305SOL     OW26044   0.489   3.853   3.504 -0.2331 -0.1295 -0.0192
40305SOL    HW126045   0.571   3.898   3.482 -1.2805  0.9635 -1.8169
40305SOL    HW226046   0.461   3.894   3.586  0.4968  0.2216  0.0599
40306SOL     OW26047   9.988   5.345   4.854 -0.6911  0.4466  0.0144
40306SOL    HW126048   9.985   5.389   4.770 -0.0365  0.7958  0.1687
40306SOL    HW226049   9.984   5.251   4.833  0.3984  0.4990 -0.4619
40307SOL     OW26050   3.545   1.717   7.691  0.3882 -0.1754  0.0716
40307SOL    HW126051   3.596   1.792   7.722  0.4604  0.4732 -1.5941
40307SOL    HW226052   3.454   1.748   7.694  0.5797  0.7031 -2.5748
40308SOL     OW26053   1.108   4.449   6.902  0.2746 -0.8004 -0.2237
40308SOL    HW126054   1.081   4.360   6.878  0.1882 -1.0877  0.9016
40308SOL    HW226055   1.035   4.484   6.952  1.1742 -0.8754  1.1660
40309SOL     OW26056   5.732   6.533  10.171  0.0249  0.2925  0.0151
40309SOL    HW126057   5.661   6.572  10.119 -1.5326 -1.3786  0.8422
40309SOL    HW226058   5.721   6.572  10.258 -0.0564 -0.1859  0.2176
40310SOL     OW26059   4.990   5.752   9.103  0.1118  0.1621 -0.0360
40310SOL    HW126060   5.084   5.767   9.091  0.0423  0.7632  0.1377
40310SOL    HW226061   4.974   5.666   9.064  0.7317  0.0591 -0.0700
40311SOL     OW26062   3.548   9.312   7.612  0.2363 -0.3766  0.4981
40311SOL    HW126063   3.489   9.378   7.576  0.8750 -0.8403 -1.4918
40311SOL    HW226064   3.502   9.277   7.688 -2.1546 -0.8232 -1.1035
40312SOL     OW26065   5.518   4.711   6.049  0.2090  0.0720 -0.5536
40312SOL    HW126066   5.485   4.772   5.982 -0.8651 -1.8602 -1.8539
40312SOL    HW226067   5.439   4.682   6.095  0.6219 -0.9543 -0.4973
40313SOL     OW26068   0.447   1.402  11.306  1.0895 -0.4426 -0.5568
40313SOL    HW126069   0.475   1.343  11.237 -0.5845 -0.7422 -0.9900
40313SOL    HW226070   0.419   1.481  11.260  1.4265 -0.0495 -0.1022
40314SOL     OW26071   7.354   2.380   4.882  0.2208 -0.1692 -0.4406
40314SOL    HW126072   7.303   2.451   4.922 -0.3320 -0.9380  0.2302
40314SOL    HW226073   7.313   2.367   4.797 -1.8750 -1.9948  0.8032
40315SOL     OW26074   5.801   0.101   1.923  0.3608 -0.5593  0.2775
40315SOL    HW126075   5.770   0.045   1.852  0.4740 -2.3276  1.5814
40315SOL    HW226076   5.850   0.041   1.980  0.2713  0.8393  1.8350
40316SOL     OW26077   6.405   3.759   9.161 -0.3749  0.4253  0.0014
40316SOL    HW126078   6.376   3.847   9.138 -1.5764 -0.2003 -0.9319
40316SOL    HW226079   6.354   3.701   9.104  0.5482 -0.8639  0.4615
40317SOL     OW26080  11.127   7.540   5.032  0.4111 -0.5321 -0.4926
40317SOL    HW126081  11.156   7.630   5.047 -1.0956 -0.2141  0.6807
40317SOL    HW226082  11.032   7.546   5.025  0.4427 -1.7827 -2.4124
40318SOL     OW26083  10.205   9.464   2.641 -0.0762  0.2039  0.3248
40318SOL    HW126084  10.214   9.379   2.599 -0.9793  0.6004 -0.7087
40318SOL    HW226085  10.132   9.506   2.596  0.4193  1.5741  0.7415
40319SOL     OW26086   8.868   6.971  10.046  0.3083  0.8331 -0.4596
40319SOL    HW126087   8.777   6.950  10.025  0.9200 -1.4542 -0.9320
40319SOL    HW226088   8.918   6.938   9.972  1.6175  1.2928  0.2115
40320SOL     OW26089   9.653   4.497   2.989  0.2233 -0.2310 -0.2369
40320SOL    HW126090   9.606   4.580   2.999  0.1878 -0.4163  1.2903
40320SOL    HW226091   9.739   4.513   3.028 -1.0504 -1.9522  3.5434
40321SOL     OW26092   8.212   3.733   3.944 -0.0377  0.5367  0.0614
40321SOL    HW126093   8.252   3.815   3.974 -2.1379  1.4230  0.5679
40321SOL    HW226094   8.142   3.717   4.007  0.5073 -1.8097  0.1050
40322SOL     OW26095   6.481   7.718   1.153  0.2326 -0.2230 -0.6137
40322SOL    HW126096   6.508   7.654   1.087  1.3044 -0.1402 -0.2708
40322SOL    HW226097   6.519   7.685   1.234  0.8590  0.8848 -0.4506
40323SOL     OW26098   7.107   6.712   8.884 -0.3402 -0.3199 -0.3464
40323SOL    HW126099   7.050   6.635   8.883 -0.8069 -0.0836  2.8109
40323SOL    HW226100   7.054   6.781   8.923  0.3650  1.4179 -2.3516
40324SOL     OW26101   3.795   5.889   3.203 -0.2663 -0.2705  0.3652
40324SOL    HW126102   3.756   5.956   3.259 -1.4881 -0.1056 -0.6536
40324SOL    HW226103   3.738   5.887   3.126  1.1697 -0.7418 -0.7033
40325SOL     OW26104   4.805   0.231   6.267 -0.0449 -0.3486  0.0161
40325SOL    HW126105   4.784   0.159   6.326 -0.7609  0.0624  0.2611
40325SOL    HW226106   4.823   0.305   6.325 -0.1705 -0.0980 -0.2654
40326SOL     OW26107   0.850  10.187  10.909 -0.0755 -0.0007  0.0794
40326SOL    HW126108   0.806  10.166  10.991 -0.5550 -1.2950 -0.4947
40326SOL    HW226109   0.931  10.136  10.911  0.7384  1.2935  0.5067
40327SOL     OW26110   7.406   0.448   0.074 -0.1790  0.3369 -0.4146
40327SOL    HW126111   7.414   0.543   0.073 -0.6457  0.4225  1.4091
40327SOL    HW226112   7.481   0.417   0.024  1.4143  1.6237  1.0917
40328SOL     OW26113   4.681  10.790   7.592 -0.1240  0.4105  0.2819
40328SOL    HW126114   4.775  10.773   7.588 -0.2689 -0.0743 -2.4358
40328SOL    HW226115   4.673  10.880   7.560 -0.5563  0.5253  0.7174
40329SOL     OW26116   6.271   4.414   0.560  0.0287  0.0199 -0.3435
40329SOL    HW126117   6.351   4.384   0.517  0.5795 -2.1992  2.0777
40329SOL    HW226118   6.302   4.476   0.627 -0.1532 -1.6128  1.2753
40330SOL     OW26119   2.865   3.927   7.808  0.1716  0.3334 -0.0233
40330SOL    HW126120   2.789   3.871   7.788  0.9106 -0.1377 -1.6298
40330SOL    HW226121   2.881   3.975   7.726 -1.5232  4.2587  1.8177
40331SOL     OW26122   2.999   3.597   6.498 -0.9564  0.1812 -0.0673
40331SOL    HW126123   3.069   3.585   6.434 -2.1364  0.8251 -1.5091
40331SOL    HW226124   3.013   3.684   6.534 -1.3398  0.5353 -0.7688
40332SOL     OW26125   9.741   4.418  10.974  0.4953 -0.2032 -1.2004
40332SOL    HW126126   9.681   4.432  11.047  1.4522 -1.2509 -0.1912
40332SOL    HW226127   9.698   4.459  10.899 -0.7566  0.3909 -0.1690
40333SOL     OW26128   8.775   7.365   3.078  0.0143 -0.2284  0.1529
40333SOL    HW126129   8.703   7.428   3.070 -0.6111 -1.1309 -1.6420
40333SOL    HW226130   8.741   7.298   3.138 -1.0348 -1.1258 -1.3949
40334SOL     OW26131   4.658   5.922   4.100 -0.1773  0.0152  0.9382
40334SOL    HW126132   4.628   6.013   4.101  1.1086  0.4750 -0.0436
40334SOL    HW226133   4.737   5.922   4.154  0.8459 -0.1192 -0.5133
40335SOL     OW26134   8.888   2.018   2.299  0.1926 -0.1911  0.1154
40335SOL    HW126135   8.822   1.952   2.278  2.3352 -2.3555 -0.0107
40335SOL    HW226136   8.889   2.077   2.223 -0.9050 -0.6883 -0.2855
40336SOL     OW26137   7.914   5.304   6.597 -0.4541 -0.6057 -0.0627
40336SOL    HW126138   7.875   5.381   6.639  0.6840 -0.3107  0.4962
40336SOL    HW226139   7.973   5.268   6.664  0.3150 -0.9487 -0.9133
40337SOL     OW26140   4.619   5.337   2.436 -0.2407 -0.1687 -0.0059
40337SOL    HW126141   4.589   5.337   2.527 -0.2590 -1.5711 -0.0023
40337SOL    HW226142   4.539   5.323   2.385 -0.1736  0.2235 -0.2201
40338SOL     OW26143  10.241   6.283   8.325 -0.2496  0.3150  0.0512
40338SOL    HW126144  10.210   6.280   8.234  0.3413  0.5315 -0.1612
40338SOL    HW226145  10.231   6.374   8.350  0.2906  0.3993 -0.0442
40339SOL     OW26146   3.888   8.178  10.649 -0.1921 -0.1233 -0.0367
40339SOL    HW126147   3.807   8.216  10.682  0.2072  0.6986 -0.0002
40339SOL    HW226148   3.860   8.097  10.605 -0.7330 -1.2606  2.3064
40340SOL     OW26149   5.834   5.946   6.282 -0.4400 -0.5228 -0.2209
40340SOL    HW126150   5.804   5.856   6.296 -1.9129 -0.3720 -2.1465
40340SOL    HW226151   5.757   6.000   6.302 -0.1476  0.1748 -0.9426
40341SOL     OW26152   3.144   7.603   3.515 -0.1938 -0.1418  0.2743
40341SOL    HW126153   3.233   7.629   3.540  0.1678 -0.1044 -0.9730
40341SOL    HW226154   3.157   7.538   3.446 -1.1377 -0.2448  0.1844
40342SOL     OW26155   9.384   9.848   4.761  0.1912 -0.0342  0.3327
40342SOL    HW126156   9.441   9.824   4.834  0.8059  0.3663 -0.0166
40342SOL    HW226157   9.438   9.836   4.683 -0.6560 -1.0677 -0.1096
40343SOL     OW26158   6.388   6.560  10.050 -1.0041 -0.2126 -0.2300
40343SOL    HW126159   6.325   6.529   9.985 -0.3208  1.1557 -1.5778
40343SOL    HW226160   6.473   6.541  10.011 -0.5698  2.4116 -0.6527
40344SOL     OW26161   2.987  11.113   7.366  0.8324  0.7093  0.4569
40344SOL    HW126162   3.002  11.124   7.460 -0.7852 -0.3669  0.8553
40344SOL    HW226163   2.916  11.174   7.346  0.6593  0.3810  0.0817
40345SOL     OW26164   6.825   8.524   5.925 -0.3489 -0.0333  0.0119
40345SOL    HW126165   6.900   8.540   5.868 -0.1265 -0.4205  0.1940
40345SOL    HW226166   6.847   8.568   6.007  0.2987 -1.2950  0.5404
40346SOL     OW26167   8.200   8.409   6.329  0.0818 -0.1042 -0.5139
40346SOL    HW126168   8.284   8.381   6.291  0.0625 -0.0565 -0.5902
40346SOL    HW226169   8.149   8.329   6.335  0.4707 -0.2914  0.3911
40347SOL     OW26170   6.103   1.352   7.612 -0.0064 -0.1804 -0.4280
40347SOL    HW126171   6.179   1.294   7.611  0.1393 -0.0425  1.1972
40347SOL    HW226172   6.123   1.418   7.546  1.2019 -0.2362 -0.1294
40348SOL     OW26173   2.702   8.269   5.445 -0.0925  0.8707 -0.2847
40348SOL    HW126174   2.697   8.186   5.399 -2.5131 -0.4969  2.3277
40348SOL    HW226175   2.624   8.317   5.417  0.1049  1.3430 -0.0433
40349SOL     OW26176   9.720   3.944   7.743 -0.3034  0.0673 -0.1774
40349SOL    HW126177   9.719   3.859   7.788 -0.2934 -0.1961 -0.6645
40349SOL    HW226178   9.715   3.921   7.650 -0.7001  0.6186 -0.2930
40350SOL     OW26179   7.795   7.573   4.959 -0.1324  0.1059 -0.2289
40350SOL    HW126180   7.833   7.596   5.044  0.5750  0.8318 -0.7303
40350SOL    HW226181   7.776   7.479   4.966  0.2137  0.0904  0.6172
40351SOL     OW26182   1.849   9.622   5.368  0.7364  0.2523  0.3034
40351SOL    HW126183   1.762   9.594   5.398  1.8349 -2.4272  1.1740
40351SOL    HW226184   1.887   9.543   5.329  2.1040  1.8689 -1.7213
40352SOL     OW26185   1.838   3.808   9.691 -0.1710 -0.2442  0.4195
40352SOL    HW126186   1.853   3.842   9.779 -0.2217  0.5941  0.1067
40352SOL    HW226187   1.744   3.821   9.676 -0.1423 -0.2854  0.1980
40353SOL     OW26188   4.765   8.354   2.658 -0.8041 -0.2853  0.4040
40353SOL    HW126189   4.755   8.261   2.637 -0.3137  0.0149 -1.2972
40353SOL    HW226190   4.858   8.372   2.645 -1.1965  0.8319 -1.1362
40354SOL     OW26191   3.903   0.000   9.229  0.1392 -0.1584 -0.0177
40354SOL    HW126192   3.985   0.044   9.205 -0.5854  1.6468  0.7397
40354SOL    HW226193   3.913  -0.021   9.322 -0.3267  0.2187  0.1187
40355SOL     OW26194   7.342   1.088   7.904 -0.0905  0.2136  0.3471
40355SOL    HW126195   7.395   1.107   7.827 -1.9407 -0.8981 -1.2640
40355SOL    HW226196   7.400   1.039   7.962  1.5047  1.5761 -0.0882
40356SOL     OW26197   9.687   3.781   5.983 -0.4456  0.3549  0.1899
40356SOL    HW126198   9.674   3.770   5.889 -0.1673 -1.1148  0.3117
40356SOL    HW226199   9.656   3.870   6.002 -1.3783  0.3100 -1.1184
40357SOL     OW26200   9.680   6.963  10.625 -0.3538  0.0463 -0.7788
40357SOL    HW126201   9.600   6.987  10.580 -1.4530  0.7015  1.4612
40357SOL    HW226202   9.663   6.876  10.661 -0.3668  0.5202  0.3831
40358SOL     OW26203   8.796   3.170  10.720  0.0186 -0.1515 -0.5883
40358SOL    HW126204   8.739   3.111  10.671  1.9095 -0.1452 -2.8752
40358SOL    HW226205   8.851   3.112  10.773 -0.3028 -0.2844 -0.3994
40359SOL     OW26206   3.804   2.481   5.667 -0.7063  0.2736 -0.1137
40359SOL    HW126207   3.808   2.416   5.737  0.6627  0.6633  0.1808
40359SOL    HW226208   3.846   2.439   5.592  0.6744  0.9991  0.2383
40360SOL     OW26209   5.952   4.349   0.883  0.2436 -0.6351  0.6579
40360SOL    HW126210   5.888   4.403   0.837 -0.3929  1.0348  3.3955
40360SOL    HW226211   6.037   4.374   0.846 -0.3623 -0.4643 -0.6488
40361SOL     OW26212   0.135  11.216   7.855 -0.0747 -0.0011  0.4949
40361SOL    HW126213   0.062  11.264   7.892  0.2395 -0.3958  1.6496
40361SOL    HW226214   0.213  11.259   7.891  0.2523  0.1665 -0.4060
40362SOL     OW26215   5.236  10.729   1.312  0.2070 -0.2689 -0.1765
40362SOL    HW126216   5.310  10.669   1.317  0.5689  0.1628 -0.3763
40362SOL    HW226217   5.171  10.683   1.259  1.0009  0.0554 -1.4499
40363SOL     OW26218   1.349   0.576   7.666 -0.5368 -0.0661  1.0097
40363SOL    HW126219   1.256   0.599   7.666 -0.3342  0.7518 -0.0603
40363SOL    HW226220   1.369   0.556   7.575  0.3897 -0.0630  1.2114
40364SOL     OW26221   7.869   5.870   7.314  0.3089 -0.5996 -0.5381
40364SOL    HW126222   7.807   5.810   7.272 -0.5461 -1.2237  1.5657
40364SOL    HW226223   7.887   5.829   7.399 -0.6873  2.3941  1.1670
40365SOL     OW26224   1.508   9.827   1.948  0.7329  0.2409 -0.8208
40365SOL    HW126225   1.527   9.819   1.855  1.5579 -0.6154 -0.5922
40365SOL    HW226226   1.586   9.791   1.991  0.1340  0.1313  0.1868
40366SOL     OW26227   0.240  11.079   0.174  0.3176  0.0353  0.3071
40366SOL    HW126228   0.320  11.059   0.125  1.4063  0.5162  1.8256
40366SOL    HW226229   0.209  11.162   0.137 -1.2916 -1.7220 -2.4394
40367SOL     OW26230   4.261   1.924   5.008 -0.2714 -0.2434 -0.2852
40367SOL    HW126231   4.281   1.916   4.914 -0.5351  0.6355 -0.4132
40367SOL    HW226232   4.286   2.013   5.031  0.7518 -0.7782  0.7276
40368SOL     OW26233   7.759   5.976   6.977 -0.2260 -0.1632  0.0942
40368SOL    HW126234   7.729   6.033   6.907  0.7733 -0.6102 -0.7158
40368SOL    HW226235   7.680   5.954   7.027 -0.6951  1.4514  0.0696
40369SOL     OW26236   8.586  10.266   6.357 -0.4438  0.2538 -0.3221
40369SOL    HW126237   8.647  10.340   6.353 -0.6199  0.3470 -1.5570
40369SOL    HW226238   8.633  10.195   6.314  0.0105 -0.5788  1.5048
40370SOL     OW26239   6.904   3.196  10.269  0.3701 -0.6054  0.5435
40370SOL    HW126240   6.919   3.275  10.218  0.6661 -0.7345  0.4317
40370SOL    HW226241   6.987   3.149  10.266 -0.1652 -1.5066 -0.3889
40371SOL     OW26242   8.921   7.491   8.938 -0.1210 -0.0989  0.3463
40371SOL    HW126243   9.014   7.506   8.955  0.2456 -1.6798 -0.2473
40371SOL    HW226244   8.909   7.517   8.846 -0.4559  0.9108  0.6668
40372SOL     OW26245  10.470   8.414   0.547  0.5056  0.8021 -0.0721
40372SOL    HW126246  10.481   8.320   0.532  0.2421  0.7396  0.1329
40372SOL    HW226247  10.391   8.437   0.498 -0.2638  0.6271  1.0898
40373SOL     OW26248  10.021   5.991  10.444 -0.8079  0.9058 -0.0703
40373SOL    HW126249  10.001   5.898  10.438 -2.8537  1.3140  0.0703
40373SOL    HW226250  10.038   6.018  10.354 -0.8978  0.5339 -0.1983
40374SOL     OW26251   9.174   1.735  10.957  0.2329  0.4767  0.5121
40374SOL    HW126252   9.169   1.826  10.986  0.3262  0.1569  1.5452
40374SOL    HW226253   9.261   1.726  10.919  0.6491  0.5188  1.4474
40375SOL     OW26254   0.526   6.100   2.894  0.3989 -0.0294 -0.5844
40375SOL    HW126255   0.431   6.090   2.904  0.4598  0.8567  1.0106
40375SOL    HW226256   0.537   6.191   2.865  0.8729  0.4101  0.9736
40376SOL     OW26257   0.073  10.496   5.886  0.2094  0.0671  0.3564
40376SOL    HW126258   0.067  10.558   5.959  0.7257 -0.5312  0.9136
40376SOL    HW226259   0.063  10.550   5.808 -3.0998  0.3592  0.9081
40377SOL     OW26260   6.619   5.326   0.190 -0.0244 -0.1341 -0.1165
40377SOL    HW126261   6.654   5.280   0.267 -1.2986  1.2667  1.3376
40377SOL    HW226262   6.686   5.392   0.169 -0.2349  0.3013  0.5644
40378SOL     OW26263   6.959   1.645   3.226 -0.2476  0.1981  0.2697
40378SOL    HW126264   6.937   1.595   3.305  0.4925 -1.4621 -0.5520
40378SOL    HW226265   6.911   1.600   3.156  1.4009 -0.1055 -0.6779
40379SOL     OW26266   4.785   5.250   5.110  0.2745  0.1527  0.2023
40379SOL    HW126267   4.813   5.160   5.092  0.8083  0.2255  0.6589
40379SOL    HW226268   4.726   5.272   5.038  0.7302 -0.3019 -0.3107
40380SOL     OW26269   7.688   4.684   4.120 -0.0241 -0.1968 -0.5431
40380SOL    HW126270   7.754   4.695   4.052  1.3133 -4.1400 -0.0071
40380SOL    HW226271   7.631   4.615   4.087  0.1185 -1.5255  1.9027
40381SOL     OW26272   3.622  11.067   0.811  0.0967  0.4067  0.2489
40381SOL    HW126273   3.552  11.093   0.871 -0.0941  0.7020 -0.0975
40381SOL    HW226274   3.669  10.999   0.858 -2.2904 -2.0183 -0.7630
40382SOL     OW26275   0.570   7.709   3.665  0.6290 -0.4799  0.1460
40382SOL    HW126276   0.630   7.677   3.597 -0.7856 -1.8541 -0.4811
40382SOL    HW226277   0.608   7.679   3.747  0.5020 -1.8902 -0.2923
40383SOL     OW26278   2.209   2.068   4.636 -0.1301  0.1943 -0.1717
40383SOL    HW126279   2.155   2.038   4.563 -1.4563 -0.2148  0.9559
40383SOL    HW226280   2.274   1.999   4.647  0.1752  0.3279 -1.0449
40384SOL     OW26281   6.195   4.378   5.157  0.1834  0.3510 -0.2498
40384SOL    HW126282   6.265   4.433   5.192 -1.2207  1.4446  0.9092
40384SOL    HW226283   6.116   4.433   5.162 -1.0619 -1.4109  0.0085
40385SOL     OW26284   2.026   5.996  10.379  0.2532 -0.2306 -0.7516
40385SOL    HW126285   2.052   5.949  10.300 -1.0712 -0.8883 -0.8228
40385SOL    HW226286   1.959   6.058  10.349  0.9963  0.7295 -0.4321
40386SOL     OW26287   2.536   6.223   9.106  0.0128  0.5842  0.6243
40386SOL    HW126288   2.507   6.254   9.191  1.6365 -1.0228  1.7805
40386SOL    HW226289   2.461   6.238   9.048 -1.2130  1.3724  2.3951
40387SOL     OW26290   8.223  10.017   7.905  1.1287  0.1030 -0.6819
40387SOL    HW126291   8.217  10.006   8.000 -0.0529 -1.2069 -0.8750
40387SOL    HW226292   8.299   9.965   7.879  1.4132  0.4092 -0.4554
40388SOL     OW26293  10.998   4.602   0.965 -0.1399 -0.1623 -0.3884
40388SOL    HW126294  11.032   4.599   0.875 -0.0799 -1.9009 -0.3238
40388SOL    HW226295  10.923   4.543   0.963 -0.3508  0.0711  0.6278
40389SOL     OW26296   9.509   9.142   0.407 -0.2779 -0.2318 -0.0212
40389SOL    HW126297   9.533   9.191   0.486 -0.8812  0.4140 -0.2270
40389SOL    HW226298   9.490   9.054   0.439 -0.3186 -0.0298  0.5270
40390SOL     OW26299   6.456   8.079   3.378 -0.3954  0.4048 -0.2900
40390SOL    HW126300   6.474   8.115   3.465  1.9450 -0.2111 -0.4575
40390SOL    HW226301   6.371   8.037   3.386 -0.9225  1.7269  1.2578
40391SOL     OW26302  10.569   2.221  10.823  0.4294 -0.0760 -0.1882
40391SOL    HW126303  10.606   2.309  10.821  0.5593 -0.1384 -0.5382
40391SOL    HW226304  10.626   2.172  10.882 -0.5581  0.4873  1.2412
40392SOL     OW26305   0.160   8.180   4.550  0.0590 -0.6258  0.0152
40392SOL    HW126306   0.252   8.196   4.531 -0.3120  0.1319 -1.2035
40392SOL    HW226307   0.112   8.240   4.493 -1.1663  0.0302  1.6927
40393SOL     OW26308   9.398   1.498   5.174 -0.9512  0.1257  0.2274
40393SOL    HW126309   9.315   1.458   5.199 -0.6431 -1.7074 -1.5396
40393SOL    HW226310   9.455   1.424   5.151 -0.1157  1.5040 -2.3913
40394SOL     OW26311   3.453   7.770  10.580  0.1555 -0.2573  0.0149
40394SOL    HW126312   3.440   7.804  10.668 -0.4497  1.5824 -0.7470
40394SOL    HW226313   3.491   7.844  10.531 -1.1766 -0.6668 -1.6883
40395SOL     OW26314   2.791   0.093   1.866  0.0876 -0.0222 -0.0843
40395SOL    HW126315   2.737   0.104   1.944  0.4608 -1.1479  0.3516
40395SOL    HW226316   2.753   0.017   1.821 -1.8806  2.3288 -2.5085
40396SOL     OW26317   1.613  10.972  10.095 -0.1041  0.2473 -0.4394
40396SOL    HW126318   1.534  10.931  10.061  0.6495 -0.8417 -0.9138
40396SOL    HW226319   1.679  10.957  10.027  0.4524  1.3460 -0.1512
40397SOL     OW26320   8.996   8.390   4.521  0.8222 -0.1045 -0.6732
40397SOL    HW126321   9.075   8.376   4.573 -0.7831  0.2550  1.9321
40397SOL    HW226322   8.937   8.320   4.548 -0.4739  0.8037 -1.1260
40398SOL     OW26323   9.398  10.850   5.708  0.3886 -0.2266  0.0448
40398SOL    HW126324   9.368  10.759   5.706 -0.8403  0.1718 -0.0127
40398SOL    HW226325   9.441  10.863   5.624  2.7490 -1.4623  1.0011
40399SOL     OW26326   3.215   6.191  11.134  0.1202 -0.0263 -1.0247
40399SOL    HW126327   3.247   6.108  11.168  0.3408  0.6019  0.3046
40399SOL    HW226328   3.265   6.205  11.053  0.0036 -1.2265 -1.3145
40400SOL     OW26329   2.607  10.855   4.542 -0.3650 -0.0118 -0.7807
40400SOL    HW126330   2.520  10.882   4.569 -1.0238 -2.0641 -0.7502
40400SOL    HW226331   2.610  10.870   4.448 -0.3504  1.1024 -0.6056
40401SOL     OW26332   8.576   5.028   7.038  0.1565 -0.2845  0.2442
40401SOL    HW126333   8.668   5.002   7.047 -0.7413 -3.1516  1.5894
40401SOL    HW226334   8.566   5.049   6.945  2.3931  1.0462  0.2721
40402SOL     OW26335   6.027  10.318   1.235 -0.1188  0.5258  0.1263
40402SOL    HW126336   5.943  10.295   1.275 -1.7554  1.4105 -2.6675
40402SOL    HW226337   6.010  10.401   1.190  2.8095  1.7656  1.1640
40403SOL     OW26338   5.213  11.090   6.855  0.0196  0.1828 -0.2232
40403SOL    HW126339   5.129  11.134   6.846  0.8783  2.2317  1.3262
40403SOL    HW226340   5.193  11.010   6.904 -0.9689  0.9433  0.6490
40404SOL     OW26341  11.015   1.521   7.038 -0.5655 -0.6757  0.2190
40404SOL    HW126342  11.012   1.609   6.999  0.4231 -0.9280 -0.4626
40404SOL    HW226343  10.975   1.531   7.124 -0.4272  0.4543  0.1590
40405SOL     OW26344   2.251  10.173  10.668 -0.4601 -0.0988  0.7756
40405SOL    HW126345   2.205  10.257  10.660 -1.7985 -0.8408  0.6495
40405SOL    HW226346   2.193  10.119  10.722 -0.2997 -1.4492 -0.4031
40406SOL     OW26347   3.098   1.834   9.217  0.2000 -0.2358  0.0234
40406SOL    HW126348   3.104   1.791   9.132 -2.0077  0.2052 -0.3948
40406SOL    HW226349   3.105   1.927   9.198 -1.4799 -0.0556  0.1419
40407SOL     OW26350   9.409   3.356   0.834 -0.3675  0.1115 -0.1520
40407SOL    HW126351   9.347   3.291   0.801  2.2696 -2.0073 -1.0803
40407SOL    HW226352   9.427   3.329   0.924  0.5066 -0.2679 -0.4402
40408SOL     OW26353   4.234  10.194   1.613  0.2021  0.0421  0.0456
40408SOL    HW126354   4.164  10.243   1.657  0.0359 -1.1847  1.1670
40408SOL    HW226355   4.272  10.257   1.552 -2.3164  0.5459 -1.0772
40409SOL     OW26356   9.340   9.806   0.894 -0.1687  0.4601  0.1418
40409SOL    HW126357   9.371   9.785   0.806  0.7320 -0.1147  0.5818
40409SOL    HW226358   9.251   9.838   0.882 -0.2209 -0.0782 -0.9315
40410SOL     OW26359   3.537   8.986   2.168 -0.3651 -0.1459 -0.1013
40410SOL    HW126360   3.579   9.054   2.221  0.6637  0.8255 -2.1356
40410SOL    HW226361   3.576   8.904   2.199  0.9528  0.4978 -0.0420
40411SOL     OW26362   8.400   7.935   0.357 -0.5869  0.6276  0.5701
40411SOL    HW126363   8.355   7.851   0.348 -0.2274  0.5569 -0.7083
40411SOL    HW226364   8.452   7.943   0.276 -1.6266  2.6868  0.0820
40412SOL     OW26365   8.519   3.295   6.622 -0.1842 -0.4330  0.0527
40412SOL    HW126366   8.431   3.294   6.659 -0.5138  0.6501 -0.6964
40412SOL    HW226367   8.526   3.212   6.574 -0.1251 -1.3664  1.6279
40413SOL     OW26368   8.269   7.491   8.172  0.0964  0.5832  0.1561
40413SOL    HW126369   8.255   7.554   8.243 -0.4538 -1.5055  1.9664
40413SOL    HW226370   8.182   7.457   8.153  0.6188 -0.9873  0.5181
40414SOL     OW26371  10.735   1.351   2.525 -0.4457  0.1059  0.2018
40414SOL    HW126372  10.769   1.431   2.486 -0.6365 -0.1369 -0.4645
40414SOL    HW226373  10.807   1.288   2.519 -0.9887 -0.3958 -1.1712
40415SOL     OW26374  10.784   6.992   7.247 -0.4851  0.1451  0.1404
40415SOL    HW126375  10.838   6.979   7.325  0.5758  0.2300 -0.5712
40415SOL    HW226376  10.758   7.084   7.251 -1.3842 -0.1368  0.9884
40416SOL     OW26377   4.277   6.033  10.555 -0.2369  0.5860  0.3254
40416SOL    HW126378   4.236   5.964  10.608  2.2828  0.1858  1.8586
40416SOL    HW226379   4.230   6.030  10.472 -0.9515 -2.2423  0.7549
40417SOL     OW26380   1.349   1.880   8.174 -0.5272 -0.2185  0.5338
40417SOL    HW126381   1.395   1.831   8.242  2.3161  0.0806 -1.0535
40417SOL    HW226382   1.366   1.972   8.194  0.1418 -0.1219 -0.4090
40418SOL     OW26383   3.526  10.543   2.744 -0.1840  0.0586  0.1892
40418SOL    HW126384   3.568  10.519   2.661 -0.0604  1.5515 -0.2027
40418SOL    HW226385   3.442  10.581   2.718 -1.8445 -2.8967  0.9685
40419SOL     OW26386   8.095  10.459   3.900 -0.9045 -0.1385 -0.2009
40419SOL    HW126387   8.036  10.531   3.876 -2.7127 -1.1619  1.0308
40419SOL    HW226388   8.040  10.381   3.897  0.2746 -1.0745  1.3678
40420SOL     OW26389   9.864   9.672   0.190 -0.4011 -0.1465 -0.3927
40420SOL    HW126390   9.877   9.607   0.120 -2.2049 -0.7232 -0.2243
40420SOL    HW226391   9.875   9.622   0.271  0.9269  0.3563 -0.2600
40421SOL     OW26392   8.892   1.341   1.066 -0.0927 -0.2066 -0.0871
40421SOL    HW126393   8.964   1.404   1.070  0.2637 -0.6254  0.1425
40421SOL    HW226394   8.856   1.341   1.155 -0.9685  0.6838 -0.4284
40422SOL     OW26395   4.405   0.999   0.848  0.0548  0.1464 -0.5415
40422SOL    HW126396   4.469   0.997   0.777 -0.1022 -0.6688 -0.6641
40422SOL    HW226397   4.456   1.027   0.925 -0.1474  2.8606 -1.3232
40423SOL     OW26398   6.712   2.957   1.636  1.2214  0.2109  0.2528
40423SOL    HW126399   6.720   3.000   1.551 -3.3449  0.9341  0.0818
40423SOL    HW226400   6.663   3.018   1.690  3.2657 -0.6195  3.2135
40424SOL     OW26401   7.454   0.593   1.196 -0.2021  0.2002 -0.0085
40424SOL    HW126402   7.421   0.644   1.122 -0.8013 -0.7821 -0.4337
40424SOL    HW226403   7.493   0.657   1.254 -0.0015  1.0236 -1.0379
40425SOL     OW26404   3.482   2.098   6.260 -0.2259  0.6886 -0.0755
40425SOL    HW126405   3.497   2.041   6.185  0.2138  0.0984  0.4590
40425SOL    HW226406   3.389   2.117   6.258 -0.3945 -0.1477 -0.1827
40426SOL     OW26407   6.084   5.578   2.157 -0.1848  0.4085  0.7550
40426SOL    HW126408   6.078   5.668   2.124 -0.4983 -0.7839 -2.6082
40426SOL    HW226409   6.009   5.533   2.120  1.3339 -1.8718  0.3072
40427SOL     OW26410  10.769   8.697   4.571 -0.2055 -0.7238 -0.0483
40427SOL    HW126411  10.760   8.602   4.580 -0.9306 -0.6911 -0.4346
40427SOL    HW226412  10.852   8.717   4.615 -0.4998 -1.4180  0.8402
40428SOL     OW26413   3.841   7.170   0.178 -0.0510 -0.5743  0.3924
40428SOL    HW126414   3.776   7.235   0.151 -0.9663 -0.4314  2.8240
40428SOL    HW226415   3.925   7.211   0.158 -0.6628  0.0077 -1.0781
40429SOL     OW26416   2.902   0.936  11.246  0.3697 -0.2584  0.3261
40429SOL    HW126417   2.819   0.953  11.201 -0.1125  0.6529  1.5436
40429SOL    HW226418   2.930   0.851  11.212 -0.1582  0.2361 -1.4258
40430SOL     OW26419   6.988   0.444   9.992  0.4107  0.6108 -0.4174
40430SOL    HW126420   7.035   0.395   9.925 -0.4553 -0.5658 -0.1906
40430SOL    HW226421   7.037   0.525  10.002  0.4952  0.8528 -2.5542
40431SOL     OW26422  11.139   6.350   6.800 -0.7501  0.2574  0.2419
40431SOL    HW126423  11.062   6.400   6.774 -0.6797  0.2893  0.0943
40431SOL    HW226424  11.199   6.359   6.726 -1.0198 -0.6427 -0.0864
40432SOL     OW26425   5.378   8.931   2.487  0.0978  0.2715 -0.1235
40432SOL    HW126426   5.380   8.997   2.556  1.4163  0.4743 -0.3419
40432SOL    HW226427   5.312   8.963   2.425 -0.1293  0.7739  0.3793
40433SOL     OW26428   5.355   6.056   9.400 -0.3759 -0.2031  0.5500
40433SOL    HW126429   5.376   5.978   9.450  1.4189  1.3958  2.3736
40433SOL    HW226430   5.293   6.105   9.454 -2.3189 -0.8124 -1.0446
40434SOL     OW26431   6.239   7.527   3.467  0.1331 -0.1468  0.4757
40434SOL    HW126432   6.256   7.435   3.486  1.1094  0.1414  0.9839
40434SOL    HW226433   6.280   7.576   3.538  0.6641  0.7438 -0.4220
40435SOL     OW26434   6.092   8.457   1.382 -0.0709 -0.4229  0.1619
40435SOL    HW126435   6.027   8.389   1.394  0.4054 -0.7294  1.0729
40435SOL    HW226436   6.146   8.453   1.461  1.0166 -0.1433 -0.5554
40436SOL     OW26437   8.160  11.115   5.731 -0.2358  0.6294 -0.5752
40436SOL    HW126438   8.087  11.118   5.670 -0.2042 -0.2959 -0.6556
40436SOL    HW226439   8.119  11.118   5.818 -0.3450  0.5731 -0.6250
40437SOL     OW26440   8.660   4.313   1.919 -0.1452 -0.4512  0.2132
40437SOL    HW126441   8.630   4.223   1.915  0.8086 -0.7641 -0.1512
40437SOL    HW226442   8.705   4.320   2.003  0.6861 -0.6154 -0.2116
40438SOL     OW26443   9.922  10.543   8.977 -0.3620 -0.1217 -0.4366
40438SOL    HW126444  10.009  10.505   8.962 -0.2121 -0.1047  0.4043
40438SOL    HW226445   9.936  10.637   8.967 -0.5494 -0.2077 -1.5991
40439SOL     OW26446   9.468   8.764   3.819  0.7356 -0.3109  0.4045
40439SOL    HW126447   9.468   8.669   3.831  0.3666 -0.5290 -1.1898
40439SOL    HW226448   9.404   8.779   3.750  0.8399  1.0963  0.6087
40440SOL     OW26449   5.750   9.489   4.112 -0.3111 -0.1736 -0.0321
40440SOL    HW126450   5.706   9.427   4.054 -0.9501 -0.3161  0.5999
40440SOL    HW226451   5.829   9.443   4.140 -1.4933 -1.3069  1.5874
40441SOL     OW26452   9.396   6.233   3.683 -0.1962  0.0312  0.4501
40441SOL    HW126453   9.341   6.303   3.649  0.4637 -0.8466 -2.5166
40441SOL    HW226454   9.344   6.153   3.670 -0.7968 -0.1465  3.4672
40442SOL     OW26455   9.170   7.909   0.662 -0.0474  0.1567 -0.2751
40442SOL    HW126456   9.190   7.839   0.724  0.7342  0.8558  0.2644
40442SOL    HW226457   9.082   7.889   0.631 -0.3197 -0.3744  0.8229
40443SOL     OW26458   0.397  10.099  10.918  0.1207  0.4496  0.6364
40443SOL    HW126459   0.332  10.149  10.967  0.1357  1.0315  0.0692
40443SOL    HW226460   0.365  10.008  10.921 -2.2860  1.1267 -2.1052
40444SOL     OW26461   5.188   9.715   4.759 -0.0198  1.1070 -0.5228
40444SOL    HW126462   5.146   9.658   4.696 -0.1567  1.2996 -0.6064
40444SOL    HW226463   5.196   9.799   4.714 -1.1387  1.5597  0.1045
40445SOL     OW26464  11.116   2.956   8.614  0.1978  0.1476  0.0236
40445SOL    HW126465  11.045   2.894   8.630 -0.3942  0.8053 -0.0910
40445SOL    HW226466  11.191   2.900   8.593 -0.3206 -0.5363 -0.0281
40446SOL     OW26467   0.399   6.040   5.217 -0.8066  0.2937  0.1161
40446SOL    HW126468   0.394   6.136   5.220 -0.6271  0.3047  0.0364
40446SOL    HW226469   0.452   6.021   5.140 -0.7228  0.1322  0.2146
40447SOL     OW26470   8.677   7.964   8.952 -0.2093 -0.2042 -0.0863
40447SOL    HW126471   8.715   7.878   8.970 -0.3455  0.0558  1.4965
40447SOL    HW226472   8.728   7.997   8.877  1.8394 -0.4159  1.1632
40448SOL     OW26473  10.272   4.149   9.218  0.2971  0.3817  0.2086
40448SOL    HW126474  10.277   4.054   9.205 -0.4309  0.4633 -0.7393
40448SOL    HW226475  10.184   4.164   9.252  0.0938  0.8160 -0.5029
40449SOL     OW26476   5.303   7.402   0.643 -0.2969 -0.3451 -0.3125
40449SOL    HW126477   5.349   7.374   0.564 -0.7188  0.4824 -0.8563
40449SOL    HW226478   5.358   7.470   0.681 -1.2062  0.8742 -1.1372
40450SOL     OW26479   4.474  10.170   7.673  0.4433  0.1621 -0.1946
40450SOL    HW126480   4.400  10.120   7.638 -0.3751  0.0427  1.6456
40450SOL    HW226481   4.550  10.114   7.661 -0.5153 -1.7198  2.1822
40451SOL     OW26482   5.561   7.603  11.289 -0.5744  0.0710  0.0160
40451SOL    HW126483   5.609   7.520  11.301 -0.6300  0.0281 -0.0582
40451SOL    HW226484   5.616   7.653  11.229 -1.0342 -0.3130 -0.7351
40452SOL     OW26485   2.414   8.456   8.235  0.1693 -0.6320 -0.2231
40452SOL    HW126486   2.405   8.524   8.168 -0.7702 -0.0162  0.5078
40452SOL    HW226487   2.360   8.384   8.204  0.2541 -0.5999 -0.4440
40453SOL     OW26488   9.742   0.175   3.366  0.6238 -0.2324  0.1449
40453SOL    HW126489   9.755   0.167   3.271 -3.2410 -1.1775 -0.3939
40453SOL    HW226490   9.649   0.156   3.379  0.4690  2.5633  3.8452
40454SOL     OW26491   8.616   0.210   8.089  0.0559  0.3337  0.0045
40454SOL    HW126492   8.538   0.169   8.126  0.3768  0.2456  0.5937
40454SOL    HW226493   8.638   0.280   8.150  0.5067  0.2842 -0.0959
40455SOL     OW26494  11.227   4.259   2.293 -0.1922 -0.4914  0.6096
40455SOL    HW126495  11.283   4.214   2.355  0.6708  2.4178  2.0528
40455SOL    HW226496  11.144   4.211   2.296  1.3141 -3.2046  0.4510
40456SOL     OW26497   7.066   8.035  10.439  0.2511 -0.2711  0.3251
40456SOL    HW126498   6.980   7.998  10.458  1.1248 -2.6377 -0.0118
40456SOL    HW226499   7.123   7.998  10.508  1.1026  0.7486  0.1732
40457SOL     OW26500   4.749   4.574   9.055  0.2971  0.1324 -0.0565
40457SOL    HW126501   4.654   4.585   9.060 -0.0806 -1.8747 -2.0279
40457SOL    HW226502   4.767   4.495   9.105  0.8950  0.3332  0.0508
40458SOL     OW26503   1.649   1.356   2.209  0.0365  0.4470 -0.3503
40458SOL    HW126504   1.560   1.373   2.180  0.4747  1.6782 -1.0270
40458SOL    HW226505   1.684   1.443   2.231  0.8140 -0.1089  0.6564
40459SOL     OW26506   2.670  10.301   3.668  0.3924 -0.2543 -0.1541
40459SOL    HW126507   2.622  10.300   3.586  0.6003 -2.3391 -0.2813
40459SOL    HW226508   2.602  10.304   3.736  0.1555 -0.7500 -0.3688
40460SOL     OW26509   1.364   0.218   3.951  0.1466 -0.4080  0.2330
40460SOL    HW126510   1.297   0.261   3.897 -0.9250  3.8778  4.5788
40460SOL    HW226511   1.432   0.284   3.961  1.5482 -2.0551  1.9229
40461SOL     OW26512   4.412   9.037   7.261  0.3193 -0.7267  0.4415
40461SOL    HW126513   4.460   9.109   7.302  0.3503 -0.5772  0.1434
40461SOL    HW226514   4.373   9.075   7.183 -0.4243 -0.8043  0.7677
40462SOL     OW26515   3.252   0.897   4.213  0.0657  0.4781  0.1768
40462SOL    HW126516   3.161   0.877   4.191  0.7855 -1.7435 -1.0490
40462SOL    HW226517   3.292   0.919   4.129  1.0807 -0.4264  0.4112
40463SOL     OW26518   7.439   1.081  10.833 -0.0370  0.0580 -0.0361
40463SOL    HW126519   7.478   1.130  10.760 -1.2753  0.6152 -0.3444
40463SOL    HW226520   7.383   1.016  10.790  0.5317 -0.7208  0.4014
40464SOL     OW26521   7.670   4.831   0.347  0.3844 -0.1223  0.1029
40464SOL    HW126522   7.577   4.834   0.370  0.3811 -1.3688  0.2751
40464SOL    HW226523   7.715   4.818   0.430  0.5112 -2.4559 -0.2985
40465SOL     OW26524   3.710  11.321   6.323 -0.0880 -0.0740  0.2517
40465SOL    HW126525   3.639  11.326   6.260  0.1751 -0.8889 -0.1138
40465SOL    HW226526   3.767  11.252   6.291  1.9876  1.9420 -0.5760
40466SOL     OW26527   9.817   0.168  11.009  0.0399  0.6481 -0.1678
40466SOL    HW126528   9.796   0.187  11.101 -0.2705 -2.3515  0.4345
40466SOL    HW226529   9.902   0.124  11.014  0.2574  0.9257 -1.3950
40467SOL     OW26530   6.351   7.357  11.272  0.4882  0.2314 -0.3993
40467SOL    HW126531   6.300   7.423  11.226 -0.6312  0.2431  0.8109
40467SOL    HW226532   6.306   7.275  11.253 -0.2851  0.2992  1.0294
40468SOL     OW26533   5.555   8.471   0.603 -0.2767 -0.2449  0.4768
40468SOL    HW126534   5.579   8.528   0.677  1.2227 -0.6814  0.3243
40468SOL    HW226535   5.632   8.470   0.547 -0.9017 -1.0873 -0.3800
40469SOL     OW26536   2.531   3.491   6.439  0.2958  0.4977  0.1810
40469SOL    HW126537   2.471   3.478   6.366 -0.2679 -0.4903  0.8099
40469SOL    HW226538   2.517   3.582   6.466 -0.9827  0.2416  0.3797
40470SOL     OW26539   4.929   6.970   3.018 -0.0604  0.3061  0.4794
40470SOL    HW126540   4.865   6.911   3.057 -0.7537  0.8857  0.2260
40470SOL    HW226541   4.952   6.928   2.935 -1.1003  0.7448 -0.0433
40471SOL     OW26542  10.646   9.466   1.683  0.4533 -0.0135  0.1259
40471SOL    HW126543  10.651   9.561   1.671  1.7623 -0.1549 -0.5177
40471SOL    HW226544  10.715   9.431   1.626  0.6776 -1.2932  1.1679
40472SOL     OW26545   9.089   1.465   9.549  0.6611 -0.1705 -0.2902
40472SOL    HW126546   9.011   1.424   9.511  1.2817 -0.4243 -1.3076
40472SOL    HW226547   9.109   1.537   9.489  0.9943  0.1162  0.1678
40473SOL     OW26548   9.618   3.826   6.959 -0.3362 -0.3216 -0.3055
40473SOL    HW126549   9.597   3.919   6.957  2.2203  0.2939  0.0661
40473SOL    HW226550   9.547   3.787   7.011 -1.6233  1.3508 -0.7723
40474SOL     OW26551   7.446   0.659   6.500 -0.5658 -0.2891 -0.4963
40474SOL    HW126552   7.540   0.667   6.512 -0.2137 -2.0004 -1.9436
40474SOL    HW226553   7.419   0.594   6.566 -0.5055 -0.8698 -1.0443
40475SOL     OW26554   9.487   0.162   3.240 -0.1691  0.3570  0.1354
40475SOL    HW126555   9.467   0.252   3.267 -1.0770  0.4484 -0.8399
40475SOL    HW226556   9.449   0.154   3.153 -0.0896 -0.9835  0.2203
40476SOL     OW26557   5.544  10.375  10.701  0.2764 -0.6400 -0.1150
40476SOL    HW126558   5.499  10.306  10.750 -0.0190 -0.3647  0.0059
40476SOL    HW226559   5.605  10.329  10.644 -0.2118 -1.0239 -0.3292
40477SOL     OW26560   4.889   5.701   5.249  0.2852  0.1644 -0.3225
40477SOL    HW126561   4.888   5.656   5.165  3.5505  0.0506 -0.3543
40477SOL    HW226562   4.873   5.793   5.228 -0.8442 -0.1356 -0.8273
40478SOL     OW26563   5.225   8.033   4.300  0.0652  0.1974 -0.0841
40478SOL    HW126564   5.150   8.049   4.358 -0.0934 -0.2862 -0.1517
40478SOL    HW226565   5.245   7.940   4.312  1.3603  0.5738  0.7705
40479SOL     OW26566  11.046  10.776   1.386 -0.1080 -0.1056 -0.1748
40479SOL    HW126567  10.967  10.817   1.422  0.6990  0.5817  0.8134
40479SOL    HW226568  11.015  10.691   1.353 -1.2690  0.1735  0.1734
40480SOL     OW26569   2.184   6.144   3.726  0.2986 -0.1063  0.1648
40480SOL    HW126570   2.114   6.108   3.671  0.6221 -0.4071 -0.0557
40480SOL    HW226571   2.264   6.107   3.688  0.7618  1.9998 -0.9579
40481SOL     OW26572   6.226   1.197   8.281 -0.3355  1.2176 -0.4897
40481SOL    HW126573   6.279   1.267   8.317  1.1197  1.1609 -2.4530
40481SOL    HW226574   6.276   1.117   8.298 -0.7490  0.9429 -0.5432
40482SOL     OW26575   7.439   7.255   7.596  0.7816  0.0451 -0.0370
40482SOL    HW126576   7.456   7.292   7.509  0.5675  0.2741  0.0157
40482SOL    HW226577   7.399   7.327   7.645 -0.0030 -0.3690 -0.0550
40483SOL     OW26578  11.025  10.618   4.671  0.0283  0.2629 -0.3157
40483SOL    HW126579  11.001  10.708   4.648 -0.7024  0.2670  0.4230
40483SOL    HW226580  10.944  10.568   4.660  0.0390 -0.0143  0.7575
40484SOL     OW26581   1.266   8.890   1.094  0.0818 -0.1761 -0.3075
40484SOL    HW126582   1.350   8.932   1.114  0.8211 -1.1635 -1.2867
40484SOL    HW226583   1.243   8.843   1.173  1.0909 -0.9349 -0.4542
40485SOL     OW26584   6.399  10.762   7.866 -0.3784 -0.2387 -0.1091
40485SOL    HW126585   6.363  10.809   7.790  0.4788  0.3591 -0.1465
40485SOL    HW226586   6.326  10.708   7.896 -1.8960  2.2620  0.9015
40486SOL     OW26587   4.491   9.584   1.410 -0.4264  0.1164  0.5778
40486SOL    HW126588   4.556   9.652   1.396 -1.1780  0.7274  0.0561
40486SOL    HW226589   4.516   9.514   1.349 -0.7178  0.6842 -0.2088
40487SOL     OW26590   9.215   8.381   2.936  0.1334  0.4631 -0.5480
40487SOL    HW126591   9.255   8.418   2.857  0.5428  1.7354  0.2402
40487SOL    HW226592   9.121   8.380   2.916 -0.1169  3.7507  0.0940
40488SOL     OW26593   5.735  10.938   6.002 -0.1462 -0.2562  0.0938
40488SOL    HW126594   5.824  10.920   5.972  0.4966 -0.5818  2.0559
40488SOL    HW226595   5.742  11.019   6.052 -0.7197 -0.8514  1.1721
40489SOL     OW26596   8.962   9.660   8.375 -0.6377 -0.1565 -0.3125
40489SOL    HW126597   9.042   9.707   8.351  0.7562 -3.0503 -1.5125
40489SOL    HW226598   8.974   9.637   8.468  0.0448 -0.8107 -0.5624
40490SOL     OW26599   0.856   8.897   6.358 -0.1082 -0.2085  0.8015
40490SOL    HW126600   0.858   8.850   6.441 -2.0085  0.3271  1.1817
40490SOL    HW226601   0.831   8.831   6.293  0.5530 -0.4492  0.7948
40491SOL     OW26602   0.324   9.177   6.478  0.2602  0.2482  0.4596
40491SOL    HW126603   0.396   9.240   6.484  3.0291 -2.4016 -2.8427
40491SOL    HW226604   0.260   9.220   6.420  1.9128  0.2989 -1.3912
40492SOL     OW26605   6.853   5.960   9.301  0.4226  0.4706  0.6281
40492SOL    HW126606   6.823   5.870   9.309 -0.5694  0.9421  2.4643
40492SOL    HW226607   6.948   5.953   9.293  0.1978 -0.8110 -1.1559
40493SOL     OW26608   1.835   5.122   2.951  0.4012 -0.5770  0.0577
40493SOL    HW126609   1.783   5.202   2.950  1.5331  0.1786 -0.0089
40493SOL    HW226610   1.896   5.134   3.024  2.4376 -0.1136 -1.6553
40494SOL     OW26611   2.775   2.793   0.858  0.0208  0.2852  0.2670
40494SOL    HW126612   2.803   2.884   0.865  0.3246  0.2490 -0.5088
40494SOL    HW226613   2.694   2.796   0.807  0.3658  0.0601 -0.2988
40495SOL     OW26614   0.728   8.076   8.405  0.2223  0.1421 -0.1981
40495SOL    HW126615   0.753   7.999   8.456  0.3911  0.1703 -0.2400
40495SOL    HW226616   0.792   8.143   8.429  0.6439 -0.0187 -0.8727
40496SOL     OW26617   8.356   1.041   6.893 -0.0749  0.5225 -0.2244
40496SOL    HW126618   8.385   1.075   6.977  0.3286 -1.9781  0.6850
40496SOL    HW226619   8.276   0.992   6.913 -0.0045 -0.0388 -1.2784
40497SOL     OW26620   8.395   1.375   8.119 -0.6000 -0.8190 -0.2282
40497SOL    HW126621   8.421   1.387   8.210 -0.6027 -1.2572 -0.1694
40497SOL    HW226622   8.458   1.312   8.084 -1.3456 -1.5942 -0.1933
40498SOL     OW26623   3.941  10.214   0.967  0.0289  0.8021  0.2132
40498SOL    HW126624   3.846  10.202   0.975 -0.0147  1.7838  1.3675
40498SOL    HW226625   3.952  10.307   0.947  0.7867  1.0049  1.4662
40499SOL     OW26626  11.035   1.493  10.273 -0.0944 -0.2035  0.0595
40499SOL    HW126627  10.963   1.520  10.330  0.4925  1.1647  0.1699
40499SOL    HW226628  11.034   1.556  10.201  1.2416  0.0858  0.2783
40500SOL     OW26629   0.546   0.415  10.900 -0.4850  0.6292 -0.4276
40500SOL    HW126630   0.616   0.379  10.845 -1.6413 -0.5477 -1.1680
40500SOL    HW226631   0.565   0.383  10.988  0.5986  1.3719 -0.3747
40501SOL     OW26632   5.865  10.063   0.173  0.2615  0.0806 -0.0406
40501SOL    HW126633   5.942  10.007   0.169  1.7448  1.8874  2.0410
40501SOL    HW226634   5.897  10.150   0.150 -1.3735  0.6736 -0.1573
40502SOL     OW26635   8.331   9.535   5.723 -0.0705  0.5331 -0.4009
40502SOL    HW126636   8.361   9.615   5.680 -1.0910  1.5595  0.7504
40502SOL    HW226637   8.236   9.543   5.726 -0.0786  0.0160  1.1081
40503SOL     OW26638   8.190   6.552   5.945 -0.1438 -0.4474 -0.0395
40503SOL    HW126639   8.172   6.459   5.933  0.2796 -0.9811  3.1225
40503SOL    HW226640   8.107   6.590   5.972 -0.2841  0.1113 -1.1909
40504SOL     OW26641   6.296   7.395   6.111  0.0893  0.2275  0.0558
40504SOL    HW126642   6.308   7.351   6.027 -0.2593 -1.0732  0.6602
40504SOL    HW226643   6.209   7.367   6.140  0.3337  0.4095  0.9827
40505SOL     OW26644   8.446  11.284   7.734  0.1762 -0.2543  0.2728
40505SOL    HW126645   8.420  11.362   7.784 -0.0972 -0.0154 -0.2415
40505SOL    HW226646   8.541  11.279   7.746  0.4163  1.0555 -0.9722
40506SOL     OW26647   2.772   9.256  10.447 -0.3460 -0.1793 -0.2701
40506SOL    HW126648   2.809   9.168  10.441  1.1582  0.3020  1.6975
40506SOL    HW226649   2.846   9.314  10.429 -1.4056  0.7039 -1.8904
40507SOL     OW26650   7.330   3.587   1.030 -0.1985  0.1778 -0.6652
40507SOL    HW126651   7.410   3.636   1.010 -1.0474  1.8231 -0.1628
40507SOL    HW226652   7.291   3.634   1.104 -0.1766 -2.3060  0.9719
40508SOL     OW26653   1.753   5.669   9.189 -0.3139  0.6352 -0.1891
40508SOL    HW126654   1.679   5.630   9.143 -0.2118 -1.1098  1.0628
40508SOL    HW226655   1.714   5.730   9.252 -0.8730 -2.0591  2.1446
40509SOL     OW26656   2.544   1.385   0.140 -0.5664 -0.6697 -0.1444
40509SOL    HW126657   2.605   1.312   0.129 -0.1780 -0.4345  0.4311
40509SOL    HW226658   2.550   1.408   0.233 -0.0061  0.6916 -0.5063
40510SOL     OW26659   5.481   7.141  10.645  0.4153  0.1496  0.3061
40510SOL    HW126660   5.420   7.188  10.701 -0.4018  1.0340 -1.2859
40510SOL    HW226661   5.440   7.055  10.631  0.4466  0.0609  0.7765
40511SOL     OW26662   1.474   2.949   0.103  0.6357  0.1594  0.5997
40511SOL    HW126663   1.405   2.947   0.038  0.9140  0.2221  0.3016
40511SOL    HW226664   1.508   3.038   0.100  0.8701  0.0710  0.5969
40512SOL     OW26665   6.523  10.273   1.634 -0.1015 -0.2910  1.1201
40512SOL    HW126666   6.478  10.233   1.559 -0.4939  0.1225  1.1281
40512SOL    HW226667   6.455  10.327   1.675  0.5111  0.6590  0.8898
40513SOL     OW26668   4.839   8.634  10.160  0.1432  0.1930 -0.0709
40513SOL    HW126669   4.881   8.578  10.095  0.1947 -1.4305  1.3160
40513SOL    HW226670   4.904   8.640  10.231  0.5516  2.8628 -0.6413
40514SOL     OW26671   7.154  10.435   5.452 -0.1738 -0.3200  0.0607
40514SOL    HW126672   7.204  10.384   5.389  2.1573  0.9053  0.8681
40514SOL    HW226673   7.161  10.386   5.534 -2.6659 -1.5823 -0.4405
40515SOL     OW26674   9.965   1.243   4.919 -0.5101 -0.0794 -0.2491
40515SOL    HW126675   9.879   1.245   4.960  0.8066 -0.5687  2.7107
40515SOL    HW226676  10.004   1.328   4.941  0.3136 -0.4335 -0.3053
40516SOL     OW26677   2.975   3.033  10.411  0.0444 -0.2091 -0.2480
40516SOL    HW126678   2.979   3.111  10.466  1.2940  0.2090 -0.9053
40516SOL    HW226679   2.910   2.977  10.453 -0.1257  0.7542  0.7941
40517SOL     OW26680   2.358   3.054   4.656 -0.3065 -0.1952 -0.7664
40517SOL    HW126681   2.293   3.096   4.599 -0.6335 -1.3779 -1.2733
40517SOL    HW226682   2.405   2.993   4.600  1.4045  0.7892 -0.4415
40518SOL     OW26683   5.721   2.845   9.313  0.1163  0.1658  0.1134
40518SOL    HW126684   5.750   2.935   9.305 -0.7160  0.2810 -1.7984
40518SOL    HW226685   5.788   2.794   9.268  0.6994 -0.2158  1.3789
40519SOL     OW26686   4.337   4.146   9.812 -0.3957  0.2527  0.0184
40519SOL    HW126687   4.377   4.072   9.766 -0.5944  0.7385 -0.9421
40519SOL    HW226688   4.319   4.112   9.900 -1.4635 -1.1874 -0.7220
40520SOL     OW26689  10.441   3.683   4.805 -0.5520 -0.0324  0.0676
40520SOL    HW126690  10.452   3.696   4.711 -0.7541  0.2923  0.0895
40520SOL    HW226691  10.418   3.590   4.814  0.9565 -0.4307 -0.0736
40521SOL     OW26692   6.357   6.815   4.596  0.0993  0.3019 -0.4643
40521SOL    HW126693   6.399   6.899   4.613  1.3001 -0.5204  0.7918
40521SOL    HW226694   6.428   6.757   4.571 -0.2995 -1.0231  1.3417
40522SOL     OW26695   5.237   0.039   4.969 -0.5369  0.3324  0.4893
40522SOL    HW126696   5.312   0.086   5.003  2.6173 -2.2339 -2.5006
40522SOL    HW226697   5.222   0.076   4.882 -0.8763 -1.1471 -0.1011
40523SOL     OW26698   8.289   6.389   8.754 -0.0783  0.1375 -0.2770
40523SOL    HW126699   8.305   6.403   8.661 -0.0338  0.2627 -0.2500
40523SOL    HW226700   8.220   6.451   8.776  1.6407  1.8835  0.3531
40524SOL     OW26701   6.426   4.696   1.467 -0.0648  0.3520  0.5234
40524SOL    HW126702   6.343   4.740   1.484 -0.8785 -1.2526  0.7637
40524SOL    HW226703   6.463   4.742   1.392 -1.3464  0.8172  0.1794
40525SOL     OW26704   6.406   7.956   5.144  0.2439  0.1050  0.2387
40525SOL    HW126705   6.384   8.048   5.157  1.5826  0.4441  0.1459
40525SOL    HW226706   6.502   7.954   5.142  0.1999 -0.9674 -2.1254
40526SOL     OW26707   1.969   7.913   1.175  0.3508 -0.2815  0.0856
40526SOL    HW126708   1.950   7.829   1.216  0.0456  0.0053  0.5413
40526SOL    HW226709   2.030   7.956   1.235  0.1677  0.0003  0.0725
40527SOL     OW26710   9.334   9.994   6.676 -0.5055  1.2287 -0.1788
40527SOL    HW126711   9.384  10.003   6.594  0.4911 -1.1470  0.1112
40527SOL    HW226712   9.253   9.950   6.650  0.0119  0.0532  0.1531
40528SOL     OW26713  10.652   9.277   4.951 -0.4806  0.2994  0.4246
40528SOL    HW126714  10.580   9.219   4.976  2.4054 -3.6971 -0.1252
40528SOL    HW226715  10.702   9.289   5.031 -1.5457  2.9365  0.7653
40529SOL     OW26716   2.834   3.325   4.467 -0.2182 -0.0087  0.1961
40529SOL    HW126717   2.765   3.320   4.401 -0.4235 -0.7859  0.4649
40529SOL    HW226718   2.908   3.364   4.421 -0.2888 -0.7344 -0.5457
40530SOL     OW26719   1.753   5.526   2.064  0.0940  0.0124 -0.3605
40530SOL    HW126720   1.835   5.554   2.104  0.2803 -1.8815  0.6108
40530SOL    HW226721   1.771   5.526   1.970  1.1782 -0.3577 -0.1490
40531SOL     OW26722   6.168   5.656   5.831  0.2653 -0.7350 -0.0718
40531SOL    HW126723   6.205   5.596   5.766 -0.3042 -1.7876  0.5567
40531SOL    HW226724   6.243   5.707   5.861  1.1465 -2.5234  0.8461
40532SOL     OW26725   1.887   5.776   1.859  0.1795 -0.1170  0.1459
40532SOL    HW126726   1.809   5.821   1.826 -0.8951 -0.3002  2.2954
40532SOL    HW226727   1.866   5.683   1.851  0.1570 -0.1662  0.7432
40533SOL     OW26728   0.789   4.600   8.941 -0.7911 -0.4264 -0.5365
40533SOL    HW126729   0.775   4.517   8.985 -2.0867 -0.4080 -0.8991
40533SOL    HW226730   0.745   4.665   8.997  0.8575  0.1312  0.1471
40534SOL     OW26731  10.005   5.562   8.596 -0.1429 -0.2995 -0.5021
40534SOL    HW126732   9.972   5.647   8.625  1.5481  0.7244 -1.5461
40534SOL    HW226733   9.939   5.499   8.627 -2.1964  1.5256 -1.0807
40535SOL     OW26734  11.115  10.571   0.611 -0.2576  0.0130  0.0632
40535SOL    HW126735  11.093  10.561   0.519 -1.2956  0.5939  0.2371
40535SOL    HW226736  11.163  10.492   0.633  0.8697  0.3232 -1.2268
40536SOL     OW26737   8.139   0.471   3.351 -0.7173 -0.5138  0.2031
40536SOL    HW126738   8.059   0.501   3.394 -0.8489 -2.0443  1.0341
40536SOL    HW226739   8.201   0.543   3.365 -0.9584 -0.6861  2.3806
40537SOL     OW26740   3.246   4.062   3.230 -0.3563 -0.2943 -0.1820
40537SOL    HW126741   3.216   4.150   3.209 -2.5522 -1.0520 -0.3812
40537SOL    HW226742   3.306   4.073   3.304 -1.2445  1.2845  0.3179
40538SOL     OW26743   8.865   5.136   0.472  0.4168 -0.3586  0.4395
40538SOL    HW126744   8.905   5.141   0.559  1.0348 -0.1620  0.1447
40538SOL    HW226745   8.804   5.062   0.477  0.1976 -0.1323  1.1408
40539SOL     OW26746  10.284   6.132   5.241 -0.4937 -0.8840 -0.4418
40539SOL    HW126747  10.227   6.172   5.176 -0.9417  1.6103  1.3917
40539SOL    HW226748  10.229   6.070   5.288 -1.2312  0.2088  0.1452
40540SOL     OW26749   1.465   5.507   2.778 -0.2758 -0.5907  0.1863
40540SOL    HW126750   1.473   5.486   2.685 -0.5711 -1.6197  0.3881
40540SOL    HW226751   1.379   5.549   2.786  0.2760  0.6473 -0.2009
40541SOL     OW26752  10.614   6.514   7.626 -0.2480  0.0965 -0.0859
40541SOL    HW126753  10.654   6.539   7.710 -1.7406  2.1142  0.0507
40541SOL    HW226754  10.682   6.532   7.561  0.9908 -1.6788  0.6882
40542SOL     OW26755   9.743   1.319   1.587 -0.2829 -0.6189 -0.4399
40542SOL    HW126756   9.802   1.394   1.576  0.4764 -1.1246  0.2074
40542SOL    HW226757   9.661   1.347   1.545  0.2366  0.2902 -0.8502
40543SOL     OW26758   0.910   6.930   7.399  0.4954  0.1338  0.5364
40543SOL    HW126759   0.920   6.835   7.397  1.8437  0.2383  1.3293
40543SOL    HW226760   0.816   6.945   7.393  0.3109 -1.2339 -0.1414
40544SOL     OW26761   7.735   6.854   0.406 -0.0252 -0.2530 -0.1538
40544SOL    HW126762   7.810   6.808   0.367  0.3227 -1.2655  1.6421
40544SOL    HW226763   7.775   6.923   0.460 -0.4113 -0.1395 -0.0126
40545SOL     OW26764   2.101   6.122   2.869 -0.0217  0.4138 -0.1345
40545SOL    HW126765   2.122   6.054   2.804 -0.0262  0.7020 -0.4382
40545SOL    HW226766   2.005   6.128   2.867  0.0306  1.1200 -0.8192
40546SOL     OW26767   1.422   8.897   8.066  0.3268 -0.1242  0.4084
40546SOL    HW126768   1.438   8.823   8.007 -2.6286 -0.7563  0.3087
40546SOL    HW226769   1.437   8.862   8.153 -1.1034 -0.8859  0.3636
40547SOL     OW26770   4.311   4.926   9.556  0.7410 -0.3116  0.7934
40547SOL    HW126771   4.266   5.010   9.557  1.8742  0.2924  1.0114
40547SOL    HW226772   4.261   4.873   9.493 -0.3746  0.2902  1.1576
40548SOL     OW26773   6.601   4.374   5.726  0.6602 -0.6299  0.0838
40548SOL    HW126774   6.512   4.368   5.693  0.7334 -0.5181 -0.1349
40548SOL    HW226775   6.594   4.429   5.805  0.3558 -1.6266  0.7592
40549SOL     OW26776   7.450   2.896   1.110  0.2934 -0.7525  0.5643
40549SOL    HW126777   7.433   2.808   1.145  0.9484 -0.6148  1.2319
40549SOL    HW226778   7.517   2.883   1.044  0.3319 -0.7603  0.6056
40550SOL     OW26779  10.039   5.029   6.154  0.0200 -0.1653 -0.3798
40550SOL    HW126780  10.055   4.939   6.126 -0.5180 -0.8523  1.4209
40550SOL    HW226781  10.093   5.083   6.096  1.1013 -1.7153 -0.8334
40551SOL     OW26782   3.635   0.393   2.874 -1.0193  0.2640 -0.4420
40551SOL    HW126783   3.573   0.397   2.802 -1.8662 -1.0119  0.1929
40551SOL    HW226784   3.687   0.315   2.857 -0.6947  0.3989 -0.0835
40552SOL     OW26785   0.281   8.308   7.570 -0.4670  0.2111  0.4610
40552SOL    HW126786   0.371   8.342   7.575  0.2161 -1.1014 -2.1828
40552SOL    HW226787   0.292   8.215   7.552 -2.3740  0.1626 -0.4950
40553SOL     OW26788   2.906   3.914   2.639  0.3826 -0.5184  0.6958
40553SOL    HW126789   2.845   3.889   2.570  1.1698 -0.2531 -0.1096
40553SOL    HW226790   2.856   3.905   2.720 -0.8588  0.1368  0.0160
40554SOL     OW26791   6.736  10.606   3.224  0.4686 -0.4723  0.2056
40554SOL    HW126792   6.724  10.698   3.201  0.3444 -0.3786  0.6362
40554SOL    HW226793   6.800  10.608   3.296 -0.1316 -0.6682  0.7438
40555SOL     OW26794   1.506   5.892   1.884  0.3002  0.1802  0.5767
40555SOL    HW126795   1.533   5.850   1.965  1.7712  2.3043  1.2217
40555SOL    HW226796   1.574   5.868   1.820 -0.0069 -0.1695  0.3756
40556SOL     OW26797  10.091   8.415   2.108  0.3406  0.6329  0.3499
40556SOL    HW126798  10.156   8.451   2.168  0.1064 -1.8513  2.1868
40556SOL    HW226799  10.136   8.412   2.023  1.2652  2.5655  0.7290
40557SOL     OW26800   1.317   3.301   0.168 -0.2105  0.1112 -0.1829
40557SOL    HW126801   1.401   3.277   0.127  0.9832  0.7232  1.8407
40557SOL    HW226802   1.278   3.217   0.192  1.3546 -0.0993  1.7777
40558SOL     OW26803   4.024   8.001   1.246 -0.0625  0.0886 -0.1514
40558SOL    HW126804   4.013   7.987   1.152  1.6856 -1.8483 -0.1054
40558SOL    HW226805   4.021   7.913   1.284  0.7281  0.7257  1.4474
40559SOL     OW26806   7.368   6.279   2.626 -0.1701  0.3095 -0.2705
40559SOL    HW126807   7.429   6.230   2.571 -0.1750  0.5651 -0.5038
40559SOL    HW226808   7.342   6.217   2.693  1.1718  0.5074  0.4628
40560SOL     OW26809   3.437   4.688   3.535  0.2100 -0.1003 -0.4597
40560SOL    HW126810   3.447   4.593   3.532 -3.0398 -0.5922  1.5658
40560SOL    HW226811   3.350   4.704   3.500  0.4837  2.0902 -0.1968
40561SOL     OW26812   0.148   6.092   0.753  0.2620 -1.2861 -0.0091
40561SOL    HW126813   0.171   6.184   0.766  0.7896 -1.4322  0.1082
40561SOL    HW226814   0.213   6.044   0.804 -0.7151 -1.6871  0.8705
40562SOL     OW26815   0.893   7.431   7.260 -0.2482 -0.1543  0.3674
40562SOL    HW126816   0.847   7.500   7.308 -0.3107 -0.5750  0.9100
40562SOL    HW226817   0.896   7.357   7.320  3.6729  0.7892  1.5011
40563SOL     OW26818   2.315   4.111   1.597  0.5571 -0.5163  0.8752
40563SOL    HW126819   2.362   4.052   1.538 -2.0117 -0.7242 -1.0761
40563SOL    HW226820   2.355   4.197   1.582 -0.4138 -0.4593 -1.6576
40564SOL     OW26821   8.779  11.114   1.143 -0.1672  0.0281 -0.4245
40564SOL    HW126822   8.737  11.133   1.227 -0.1234  2.3032 -0.8965
40564SOL    HW226823   8.711  11.073   1.091 -0.4199 -0.6653  0.4260
40565SOL     OW26824   2.692   1.057   9.284 -0.2911 -0.3877 -0.1527
40565SOL    HW126825   2.670   1.149   9.269  1.1462 -0.1211 -0.7883
40565SOL    HW226826   2.786   1.059   9.304  0.1399 -1.8663 -1.8583
40566SOL     OW26827   7.958   2.553   0.597 -0.1648  0.2495  0.1487
40566SOL    HW126828   7.884   2.613   0.601 -0.7082 -0.4259  0.2587
40566SOL    HW226829   7.922   2.472   0.559  0.7933  0.3452 -1.0015
40567SOL     OW26830   9.296   5.349   3.259  0.9077  0.5310 -0.1374
40567SOL    HW126831   9.218   5.293   3.264  1.0440  0.3488 -0.0092
40567SOL    HW226832   9.346   5.312   3.186  1.5016 -0.1646  0.6152
40568SOL     OW26833   0.455   7.341   0.484  0.5418  0.3679 -0.0000
40568SOL    HW126834   0.440   7.424   0.438  0.8034  1.2825  1.5072
40568SOL    HW226835   0.381   7.286   0.459  0.1440  1.2110 -0.7033
40569SOL     OW26836   9.140   3.334   6.502 -0.3880 -0.1255  0.2637
40569SOL    HW126837   9.097   3.419   6.509  1.5435  0.9286 -0.1404
40569SOL    HW226838   9.156   3.322   6.409  1.3897  0.1739  0.4959
40570SOL     OW26839  10.158   8.833   4.997  0.1730  0.4108  0.0062
40570SOL    HW126840  10.196   8.755   4.956  1.7744  0.1334  1.9421
40570SOL    HW226841  10.144   8.807   5.088  1.0550  2.4844  0.7610
40571SOL     OW26842   3.159   3.408   4.682 -0.0921 -0.1129 -0.1745
40571SOL    HW126843   3.129   3.499   4.690  0.2199  0.0434 -0.7758
40571SOL    HW226844   3.248   3.410   4.717  0.9113  0.3691 -2.6570
40572SOL     OW26845  11.061   3.231   1.404  0.0240  0.0160  0.3625
40572SOL    HW126846  11.007   3.165   1.362 -0.1894  0.8819 -0.7383
40572SOL    HW226847  11.143   3.185   1.425 -0.6269 -0.9397  0.8280
40573SOL     OW26848   5.932   7.141  10.412 -0.1034 -0.5135 -0.5222
40573SOL    HW126849   5.862   7.076  10.408 -1.2727  0.7885 -1.5600
40573SOL    HW226850   5.902   7.205  10.476 -0.6840  0.9519 -2.2151
40574SOL     OW26851  11.077   7.913   7.178  0.1714 -0.1979 -0.2715
40574SOL    HW126852  11.085   7.911   7.082  0.7871 -0.1242 -0.2270
40574SOL    HW226853  11.148   7.857   7.209  1.5855  1.7889  0.2031
40575SOL     OW26854   2.317  11.191   9.844 -0.0264  0.1713  0.2060
40575SOL    HW126855   2.329  11.172   9.937 -0.7467 -2.7362 -0.2232
40575SOL    HW226856   2.242  11.250   9.840  0.1041  0.4236  1.4834
40576SOL     OW26857   3.318   2.075  11.304 -0.6054 -0.2149  0.1265
40576SOL    HW126858   3.385   2.102  11.367 -1.1350 -1.5791  1.3140
40576SOL    HW226859   3.313   2.147  11.242  1.0787  0.4605  0.7279
40577SOL     OW26860   8.863   2.391   6.375 -0.0577  0.4477 -0.2109
40577SOL    HW126861   8.883   2.475   6.416  0.3138 -0.3724  1.3129
40577SOL    HW226862   8.819   2.340   6.443  1.2810 -1.2366 -0.5614
40578SOL     OW26863   0.368   8.318   4.986 -0.4194  0.3788  0.3477
40578SOL    HW126864   0.323   8.302   4.903  0.0511  0.1417  0.1352
40578SOL    HW226865   0.299   8.346   5.046 -0.6574  1.2683 -0.3207
40579SOL     OW26866   1.699   4.198   4.694  0.2147 -0.1061  0.5882
40579SOL    HW126867   1.780   4.151   4.711  0.1687 -0.3054  0.2570
40579SOL    HW226868   1.661   4.154   4.619  0.1924  0.4934  0.2460
40580SOL     OW26869   2.338   7.099   1.170  0.0141 -0.5182 -0.2034
40580SOL    HW126870   2.286   7.179   1.164 -1.0924 -1.3104 -1.6877
40580SOL    HW226871   2.428   7.129   1.184 -0.4148  0.9713 -0.5693
40581SOL     OW26872   0.242   7.235   3.901  0.0411 -0.1415  0.4683
40581SOL    HW126873   0.281   7.322   3.896 -0.6401  0.1336 -0.1081
40581SOL    HW226874   0.278   7.197   3.981  0.9512  0.3718  0.2993
40582SOL     OW26875  10.909   9.854   8.628  0.5246  0.3597 -0.2278
40582SOL    HW126876  10.990   9.810   8.652  0.9770  1.5563  0.4818
40582SOL    HW226877  10.886   9.818   8.543  1.3517 -0.6021 -0.0479
40583SOL     OW26878   9.916   6.252   6.791  0.7786  0.0241 -0.1936
40583SOL    HW126879   9.949   6.164   6.811 -0.4301 -0.6527 -1.1027
40583SOL    HW226880   9.887   6.247   6.700 -1.6323  0.6336  0.5090
40584SOL     OW26881   5.137   3.892   8.981  0.4382 -0.7178 -0.5527
40584SOL    HW126882   5.080   3.820   9.005 -0.7593 -0.2602 -1.9759
40584SOL    HW226883   5.219   3.851   8.953 -0.2414 -1.5349 -1.3606
40585SOL     OW26884   3.267   0.680   6.532  0.1605  0.2054 -0.6686
40585SOL    HW126885   3.228   0.683   6.445  1.3390 -0.9176 -1.2630
40585SOL    HW226886   3.238   0.760   6.574  1.0204  1.6518 -2.7402
40586SOL     OW26887   9.294   2.761   8.495 -0.4283  0.8471 -0.1599
40586SOL    HW126888   9.202   2.743   8.480 -1.1408  3.0416  1.4064
40586SOL    HW226889   9.308   2.740   8.587  0.4257  1.4040 -0.1529
40587SOL     OW26890   0.954   1.019   3.707  0.7169  0.3935  0.2918
40587SOL    HW126891   1.002   1.100   3.690 -0.1573  0.8526 -0.0316
40587SOL    HW226892   1.022   0.952   3.716  1.4455  1.1618  0.5689
40588SOL     OW26893  10.540   8.949   6.769  0.2939 -0.0466  0.3487
40588SOL    HW126894  10.575   9.025   6.722 -0.9293  0.4984  0.2830
40588SOL    HW226895  10.445   8.956   6.757  0.1083 -1.0083  1.2262
40589SOL     OW26896   7.371   6.118  11.321  0.1031  0.3786 -0.1107
40589SOL    HW126897   7.323   6.172  11.260 -2.2001 -0.3832  0.9779
40589SOL    HW226898   7.323   6.126  11.404 -0.4858 -3.5027  0.0127
40590SOL     OW26899   7.958   6.591   5.552  0.1365 -0.7159  0.3746
40590SOL    HW126900   8.041   6.615   5.512 -0.1626 -0.6616 -0.2181
40590SOL    HW226901   7.966   6.498   5.572 -0.5304 -1.2808 -1.8547
40591SOL     OW26902   3.692   3.118   0.207 -0.6231 -0.4697  0.2354
40591SOL    HW126903   3.706   3.038   0.155 -0.8699  1.6273 -3.2582
40591SOL    HW226904   3.752   3.181   0.168 -2.3393  1.7830  1.1609
40592SOL     OW26905   1.301   2.161   5.352  0.9678 -0.3222 -0.5631
40592SOL    HW126906   1.214   2.166   5.312  0.3475  2.0173  1.0241
40592SOL    HW226907   1.360   2.198   5.286  0.5598 -0.4855 -1.0224
40593SOL     OW26908   0.859   3.894   6.452 -0.8200 -0.4581  0.2570
40593SOL    HW126909   0.847   3.884   6.357  3.1934  0.2490 -0.4231
40593SOL    HW226910   0.824   3.814   6.489 -1.2182 -1.3544 -1.9684
40594SOL     OW26911  10.305   2.377  10.929  0.2925 -0.2585  0.2196
40594SOL    HW126912  10.300   2.411  10.840 -0.8940 -0.5723  0.1554
40594SOL    HW226913  10.364   2.301  10.923 -0.5807 -0.8875 -0.4972
40595SOL     OW26914   0.121  10.088   4.393 -0.0017  0.3236  0.3440
40595SOL    HW126915   0.075  10.172   4.396 -1.3361 -0.3452 -0.7484
40595SOL    HW226916   0.117  10.056   4.483  0.9130  1.6145  0.8673
40596SOL     OW26917   8.184   3.820  10.332  0.0614  0.2025  0.4300
40596SOL    HW126918   8.267   3.793  10.372  0.3922  1.2392  0.4673
40596SOL    HW226919   8.159   3.746  10.276  1.1399 -0.0168  0.2197
40597SOL     OW26920   2.557   3.806   5.328 -0.4486  0.6912  0.5028
40597SOL    HW126921   2.603   3.730   5.366 -1.1633 -0.3696 -0.7005
40597SOL    HW226922   2.547   3.783   5.236 -0.4207  2.4052  0.0738
40598SOL     OW26923   5.633  10.230   0.970 -0.1610 -0.1731 -0.2578
40598SOL    HW126924   5.617  10.239   1.064 -0.8911  1.3479 -0.5077
40598SOL    HW226925   5.638  10.135   0.956  1.2142 -0.3907  1.5049
40599SOL     OW26926   1.624   1.049   5.891 -0.0353  0.3877  0.2344
40599SOL    HW126927   1.566   0.982   5.926 -2.3778  2.0887 -0.2351
40599SOL    HW226928   1.673   1.081   5.967  0.0503 -0.8455  0.6962
40600SOL     OW26929   4.125  11.008   9.328 -0.2757  0.2261  0.2499
40600SOL    HW126930   4.112  11.086   9.382  2.3006  0.3418  0.7599
40600SOL    HW226931   4.156  10.941   9.390  1.8341  0.1043 -0.9022
40601SOL     OW26932   4.771   0.774   1.575  0.4678 -0.3659  0.2697
40601SOL    HW126933   4.732   0.687   1.572  0.4247 -0.3037 -1.2115
40601SOL    HW226934   4.812   0.779   1.661 -2.2170 -0.6750  1.6213
40602SOL     OW26935   3.845   2.638   8.099  0.3176  0.4849  0.6702
40602SOL    HW126936   3.863   2.726   8.132  0.3076  0.8608 -0.2970
40602SOL    HW226937   3.926   2.613   8.054 -0.5815  1.0574 -1.3069
40603SOL     OW26938   6.065   6.252   1.972 -0.0554 -0.0529  0.0103
40603SOL    HW126939   6.084   6.332   1.924 -2.0401  1.8902  2.3823
40603SOL    HW226940   6.000   6.277   2.037 -1.2949 -3.7470  0.3325
40604SOL     OW26941   1.220   9.857   5.308  0.3706 -0.0604 -0.1711
40604SOL    HW126942   1.207   9.946   5.276  2.0246  0.0990 -0.4425
40604SOL    HW226943   1.240   9.805   5.230  1.0897 -0.3282  0.1811
40605SOL     OW26944  10.138  11.321   7.234  0.3339  0.1542 -0.3427
40605SOL    HW126945  10.058  11.347   7.188  0.9534 -0.1032 -1.5966
40605SOL    HW226946  10.154  11.232   7.205  0.3002 -0.3045  1.0194
40606SOL     OW26947   6.825   8.337   9.731 -0.3521 -0.0914  0.0823
40606SOL    HW126948   6.779   8.253   9.726  0.4735 -0.7363  2.6399
40606SOL    HW226949   6.777   8.387   9.797 -0.5428  1.2786 -1.0735
40607SOL     OW26950   4.792   5.923   7.954 -0.5493 -0.7492 -0.2378
40607SOL    HW126951   4.792   5.873   7.873  0.1099  1.6338 -1.7410
40607SOL    HW226952   4.837   6.004   7.933 -2.2188  0.8138  1.9365
40608SOL     OW26953   4.280   3.216   8.816  0.2479  0.0540 -0.2158
40608SOL    HW126954   4.344   3.185   8.880  0.9614 -0.3422 -1.1090
40608SOL    HW226955   4.196   3.184   8.850  0.7193 -0.9319  0.0585
40609SOL     OW26956   2.155   7.553   3.899  0.4603  0.5246 -0.1864
40609SOL    HW126957   2.250   7.544   3.894  0.6314  2.2349 -0.2826
40609SOL    HW226958   2.137   7.568   3.992  0.6167  3.3220 -0.5578
40610SOL     OW26959   5.747   9.609   0.291  0.3642 -0.0271  0.2450
40610SOL    HW126960   5.715   9.637   0.205  1.1378  0.0915 -0.0076
40610SOL    HW226961   5.792   9.686   0.326  2.2645 -0.8618 -0.3334
40611SOL     OW26962   5.605   9.376   4.360 -0.2548  0.3307 -0.0476
40611SOL    HW126963   5.600   9.294   4.310  2.2095 -1.1788  2.0701
40611SOL    HW226964   5.658   9.434   4.305 -1.1386  0.1737 -1.0894
40612SOL     OW26965   7.477   1.769   9.021 -0.0025 -0.1929  0.4937
40612SOL    HW126966   7.494   1.785   8.928 -0.7862 -0.6008  0.2750
40612SOL    HW226967   7.563   1.775   9.063  0.2638  0.6695 -0.1572
40613SOL     OW26968   5.387   2.615  11.247 -0.4222 -0.2220  0.3555
40613SOL    HW126969   5.455   2.602  11.313  1.0854  2.4961 -0.5846
40613SOL    HW226970   5.380   2.710  11.238 -0.5552 -0.5131 -3.4009
40614SOL     OW26971   8.658   9.427   9.535 -0.0824 -0.7854  0.6514
40614SOL    HW126972   8.733   9.439   9.478 -0.5341 -1.2123 -0.0301
40614SOL    HW226973   8.694   9.387   9.614  0.9647  2.1750  1.7332
40615SOL     OW26974   6.325   0.304   4.121  0.5133  0.4376  0.0074
40615SOL    HW126975   6.383   0.310   4.196  0.9091 -1.1171 -0.1478
40615SOL    HW226976   6.291   0.214   4.125 -1.3905  1.1332 -0.2539
40616SOL     OW26977   5.148   8.844   3.711  0.3514 -0.5185  0.5016
40616SOL    HW126978   5.089   8.799   3.773 -0.0065 -0.8875 -0.1047
40616SOL    HW226979   5.202   8.901   3.767  0.1417 -0.9688  1.1747
40617SOL     OW26980  10.269   2.871   8.510  0.8511  0.1031  0.3221
40617SOL    HW126981  10.220   2.952   8.504  0.2892 -0.1301  1.5752
40617SOL    HW226982  10.263   2.832   8.423 -1.3540 -0.0343  0.5293
40618SOL     OW26983   2.241   8.741   3.049  0.3842  0.7088  0.3701
40618SOL    HW126984   2.248   8.655   3.008  1.8496  1.5146 -1.1675
40618SOL    HW226985   2.233   8.723   3.142 -1.5160 -1.1388 -0.1097
40619SOL     OW26986   9.800   7.176   0.345  0.2927  0.0904  0.5386
40619SOL    HW126987   9.856   7.225   0.405 -2.1355  3.1894  0.3950
40619SOL    HW226988   9.729   7.142   0.399 -0.2905  0.3109 -0.0824
40620SOL     OW26989   1.700   3.533   2.105  0.0331  0.7886 -0.4127
40620SOL    HW126990   1.773   3.478   2.078  0.5725 -0.2602  2.9791
40620SOL    HW226991   1.629   3.472   2.125 -0.6655  1.5924 -0.3853
40621SOL     OW26992   9.396   9.976   9.859  0.4892 -0.5129  0.5951
40621SOL    HW126993   9.316  10.029   9.860 -0.1934 -1.5074 -0.1915
40621SOL    HW226994   9.370   9.894   9.818  2.0315 -0.6715 -0.1170
40622SOL     OW26995   6.665   5.916   5.938 -0.1021 -0.0495 -0.1904
40622SOL    HW126996   6.587   5.868   5.908  0.5233 -1.6013  0.5545
40622SOL    HW226997   6.641   6.008   5.932 -1.3721 -0.4626 -1.6359
40623SOL     OW26998   4.817   3.666   7.834 -0.4149 -0.0957 -1.2430
40623SOL    HW126999   4.732   3.621   7.836 -1.4131  1.7504  0.3307
40623SOL    HW227000   4.839   3.679   7.927  1.5834 -0.5338 -1.6427
40624SOL     OW27001   9.317   5.415   6.754  0.5321 -0.0110 -0.2562
40624SOL    HW127002   9.404   5.426   6.791  1.1652  2.5320 -2.3076
40624SOL    HW227003   9.328   5.348   6.686  0.9674  0.5348 -0.7270
40625SOL     OW27004   8.322   5.039   0.479 -0.3110  0.0007 -0.2563
40625SOL    HW127005   8.376   5.057   0.402  1.5817  0.0817  1.0666
40625SOL    HW227006   8.295   5.125   0.509  1.5338  0.1658  0.9762
40626SOL     OW27007   5.049   2.495   3.518 -0.5515 -0.9094 -0.9370
40626SOL    HW127008   5.038   2.450   3.602  1.1216  0.6880  0.1945
40626SOL    HW227009   5.131   2.461   3.483  0.4481  0.7965 -0.3300
40627SOL     OW27010   1.440   1.856   4.381 -0.6379  0.4857  0.2375
40627SOL    HW127011   1.414   1.918   4.313  1.2794  0.2211 -0.7795
40627SOL    HW227012   1.478   1.910   4.450  1.4996  0.4343 -0.8700
40628SOL     OW27013  10.578   7.405   4.218 -0.4869 -0.8782 -0.5083
40628SOL    HW127014  10.613   7.489   4.245 -1.0832 -1.4556  2.1779
40628SOL    HW227015  10.650   7.343   4.228 -1.1043 -1.3492  1.2055
40629SOL     OW27016   2.407  10.697   1.679  0.9516 -0.2199  0.5096
40629SOL    HW127017   2.396  10.770   1.618  0.1068 -0.1589  0.7289
40629SOL    HW227018   2.319  10.662   1.691  0.9795  0.2522  2.2974
40630SOL     OW27019   6.165   5.994   3.032 -0.0015  0.4249  0.3901
40630SOL    HW127020   6.242   5.991   2.975 -0.5711 -0.4654 -0.3400
40630SOL    HW227021   6.096   6.031   2.977 -0.4228  0.0259  0.6516
40631SOL     OW27022   6.555  10.625   0.841 -0.1263 -0.2277 -0.6376
40631SOL    HW127023   6.536  10.532   0.841 -0.2394 -0.2392  1.4679
40631SOL    HW227024   6.470  10.667   0.832 -0.1270 -0.3242 -1.0777
40632SOL     OW27025   1.791   1.776   1.771 -0.2550  0.0808  0.3969
40632SOL    HW127026   1.791   1.821   1.687  1.7148 -0.9766 -0.1953
40632SOL    HW227027   1.699   1.772   1.796 -0.8848  0.2419 -1.7891
40633SOL     OW27028  11.186  11.230   1.962  0.0262  0.1643  0.4816
40633SOL    HW127029  11.277  11.258   1.959  0.1605 -0.4765 -2.5029
40633SOL    HW227030  11.189  11.137   1.980  0.1347 -0.4634 -2.5328
40634SOL     OW27031  10.231   0.096   6.289  0.4869  0.0494  0.0547
40634SOL    HW127032  10.308   0.056   6.330  0.5653 -0.5637 -0.6997
40634SOL    HW227033  10.246   0.191   6.296  1.2350 -0.0725  0.0361
40635SOL     OW27034  10.756   0.461   0.644 -0.0827 -0.1445 -0.2055
40635SOL    HW127035  10.689   0.392   0.641  0.7783 -1.0765  0.9657
40635SOL    HW227036  10.818   0.437   0.575 -0.8029  0.5479 -1.0891
40636SOL     OW27037   7.887   0.138   8.248  0.0095  0.3778  0.7978
40636SOL    HW127038   7.803   0.102   8.277  0.2511 -1.6669 -0.9839
40636SOL    HW227039   7.865   0.226   8.217 -0.9841  0.9279  2.9463
40637SOL     OW27040   1.286   1.201   7.513 -0.3182 -0.5596 -0.6232
40637SOL    HW127041   1.279   1.126   7.454  1.9176 -0.0074 -1.6547
40637SOL    HW227042   1.318   1.272   7.457 -0.0976  0.5242  0.8523
40638SOL     OW27043   8.682   4.331   0.973 -0.4879  0.2638 -0.2190
40638SOL    HW127044   8.663   4.365   0.886 -1.9570 -0.9710 -0.4094
40638SOL    HW227045   8.755   4.271   0.960  1.0625  2.0953 -0.1366
40639SOL     OW27046   3.719   9.454  10.903  0.4678  0.6427  0.2296
40639SOL    HW127047   3.628   9.442  10.931 -0.0868 -2.1769 -2.4230
40639SOL    HW227048   3.712   9.489  10.814  1.9715  0.2627 -0.0508
40640SOL     OW27049   2.595  10.269   3.029  0.0626 -0.3675 -0.6466
40640SOL    HW127050   2.531  10.199   3.017 -0.8590  0.4151 -0.3836
40640SOL    HW227051   2.546  10.339   3.071  0.2773  1.4843 -3.3268
40641SOL     OW27052   5.990   5.150   0.282 -0.1183  0.2273 -0.2837
40641SOL    HW127053   5.916   5.119   0.230  0.7676 -0.1272 -1.3432
40641SOL    HW227054   6.042   5.203   0.221  0.5162  0.4547  0.4463
40642SOL     OW27055   7.959   3.185   1.012 -0.4586  0.4494 -0.1428
40642SOL    HW127056   7.919   3.193   0.925 -1.3112  0.3603  0.2286
40642SOL    HW227057   7.970   3.275   1.042 -0.8401  0.4637 -0.0451
40643SOL     OW27058  10.349   5.721   9.452 -0.3204  0.8743 -0.1348
40643SOL    HW127059  10.429   5.755   9.411 -0.0433 -0.6775 -0.9296
40643SOL    HW227060  10.278   5.760   9.401 -0.0131  0.3569 -0.9776
40644SOL     OW27061   5.742   4.278   1.076  0.1265  0.2492  0.0180
40644SOL    HW127062   5.820   4.271   1.021  0.0004 -1.1259 -0.0178
40644SOL    HW227063   5.670   4.258   1.016 -0.3231  2.2387 -0.1149
40645SOL     OW27064  10.830   6.721   1.889  0.0674  0.0439 -0.0974
40645SOL    HW127065  10.886   6.773   1.946  2.5797  0.7994 -3.0694
40645SOL    HW227066  10.883   6.645   1.867 -0.7116 -0.0807 -1.6194
40646SOL     OW27067   4.767  10.002   6.870  0.1122 -0.1383 -0.4051
40646SOL    HW127068   4.828   9.979   6.801  0.6198  1.7532 -0.5924
40646SOL    HW227069   4.822  10.033   6.942 -0.6181  1.5906 -0.5848
40647SOL     OW27070   8.692   6.367  10.303 -0.3543  0.5853  0.9487
40647SOL    HW127071   8.786   6.380  10.317 -0.5793  0.7432  2.3461
40647SOL    HW227072   8.668   6.434  10.239  0.6600 -0.0491 -0.1199
40648SOL     OW27073   8.021   7.670   8.322 -0.4465 -0.5603 -0.3868
40648SOL    HW127074   7.939   7.626   8.298 -1.7278  1.1373  0.8425
40648SOL    HW227075   8.059   7.614   8.390 -0.9077 -1.0081 -0.4970
40649SOL     OW27076   3.829   6.705   2.749  0.0841  0.1578 -0.2524
40649SOL    HW127077   3.859   6.627   2.796 -0.9812  0.2785  0.6379
40649SOL    HW227078   3.874   6.700   2.664  1.0536 -0.7123  0.3040
40650SOL     OW27079   5.482   4.010  10.220 -0.5192 -0.1370  0.2493
40650SOL    HW127080   5.494   3.985  10.312  0.0362  1.8132  0.7295
40650SOL    HW227081   5.428   4.089  10.223 -0.1841  0.1609 -1.0913
40651SOL     OW27082   4.617   0.131   5.249  0.4410 -0.3714  0.5039
40651SOL    HW127083   4.684   0.194   5.222  1.3688 -1.3681  0.4611
40651SOL    HW227084   4.600   0.151   5.341  0.0607  0.5397  0.2365
40652SOL     OW27085   2.100   9.576   1.949  0.0062 -0.0461  0.1832
40652SOL    HW127086   2.105   9.573   1.853 -0.2849 -1.2107  0.1912
40652SOL    HW227087   2.170   9.518   1.978 -0.0638  0.1129  0.6592
40653SOL     OW27088  10.558   8.258  10.813  0.0187 -0.3069  0.1640
40653SOL    HW127089  10.527   8.232  10.900 -1.6358  0.3813 -0.1996
40653SOL    HW227090  10.532   8.185  10.756  1.2267 -0.8206  0.2581
40654SOL     OW27091   8.157   1.839   1.712 -0.1192 -0.2742 -0.3468
40654SOL    HW127092   8.136   1.932   1.708  1.6964  0.1744  0.2298
40654SOL    HW227093   8.137   1.813   1.802  0.4825 -0.1508 -0.1713
40655SOL     OW27094   3.020   2.907   1.501 -0.3307  0.2692 -0.4510
40655SOL    HW127095   3.006   2.913   1.595  1.7470  0.2207 -0.0953
40655SOL    HW227096   2.994   2.818   1.479 -0.1998  0.0620  0.2103
40656SOL     OW27097  10.427   7.958   3.064  0.1630  0.1445 -0.0957
40656SOL    HW127098  10.514   7.937   3.030 -0.6493 -0.4950 -1.8673
40656SOL    HW227099  10.374   7.975   2.986 -1.4498 -0.0700  0.9128
40657SOL     OW27100   0.820   7.345   3.970 -0.5389 -0.0282  0.0910
40657SOL    HW127101   0.874   7.300   3.905  0.2165  0.5756  0.2998
40657SOL    HW227102   0.853   7.315   4.055 -0.7569  0.0823  0.2183
40658SOL     OW27103   0.977   4.465   8.540 -0.1065 -0.3033  0.0809
40658SOL    HW127104   0.886   4.472   8.570  0.0964  1.3606  0.3593
40658SOL    HW227105   0.970   4.434   8.450 -0.9587 -0.1993  0.1064
40659SOL     OW27106   0.003   4.213   4.306 -0.4308  0.3294 -0.1062
40659SOL    HW127107   0.003   4.166   4.222 -0.6160  0.8639 -0.4131
40659SOL    HW227108   0.092   4.201   4.340 -0.4161 -0.0659 -0.2777
40660SOL     OW27109   2.431   7.101   9.114  0.5796 -0.0037  0.0696
40660SOL    HW127110   2.521   7.090   9.145  0.8329  0.3911 -0.5217
40660SOL    HW227111   2.414   7.195   9.121  0.4976  0.0337 -0.5870
40661SOL     OW27112   9.622   2.843   4.212  0.4996 -0.8610 -0.3468
40661SOL    HW127113   9.715   2.845   4.237  0.6336 -2.8604 -0.5537
40661SOL    HW227114   9.619   2.780   4.140 -0.9598 -0.4165 -0.6879
40662SOL     OW27115   0.498   2.476   5.749  0.3394 -0.2068  0.2981
40662SOL    HW127116   0.546   2.540   5.697  0.8234 -0.2598  0.6790
40662SOL    HW227117   0.480   2.520   5.832 -0.2442 -0.1985  0.1718
40663SOL     OW27118   7.487   8.485   2.898  0.1349 -0.1497  0.7902
40663SOL    HW127119   7.509   8.570   2.860  0.2848 -0.7574 -0.5109
40663SOL    HW227120   7.549   8.474   2.970  1.5468 -0.1051 -0.3917
40664SOL     OW27121   1.572   2.171   7.254 -0.6674 -0.9052  0.1540
40664SOL    HW127122   1.574   2.118   7.334  2.8573 -0.1644  0.6274
40664SOL    HW227123   1.542   2.257   7.282  0.2317 -0.7456  0.6512
40665SOL     OW27124   0.207   6.506   9.976 -0.1502 -0.2439 -0.5467
40665SOL    HW127125   0.284   6.527   9.924 -1.1641  2.6068 -0.9819
40665SOL    HW227126   0.133   6.530   9.921 -1.2983 -0.9327  0.6694
40666SOL     OW27127  10.018   7.099   6.279  0.0701  0.1201  0.2114
40666SOL    HW127128  10.099   7.051   6.268  0.6231  1.5431 -2.2869
40666SOL    HW227129   9.956   7.035   6.314  1.9587 -1.2306  1.1634
40667SOL     OW27130   5.362   0.378   7.970 -0.1822 -0.5230 -0.2723
40667SOL    HW127131   5.274   0.407   7.946 -0.2889 -0.3609  0.2952
40667SOL    HW227132   5.357   0.282   7.970 -0.9704 -0.5033  1.9241
40668SOL     OW27133  10.158  11.188   7.593 -0.0305 -0.0344  0.0651
40668SOL    HW127134  10.186  11.178   7.684 -0.2248  1.7342  0.3366
40668SOL    HW227135  10.194  11.273   7.566 -2.3051  0.7480 -0.6276
40669SOL     OW27136   9.627   1.836   7.910  0.3107  0.5779  0.5068
40669SOL    HW127137   9.642   1.763   7.850  2.5559 -0.2846  2.0235
40669SOL    HW227138   9.560   1.804   7.971  0.2017  0.3369  0.2608
40670SOL     OW27139   2.229   1.391   8.565 -0.2812  0.2517 -0.5650
40670SOL    HW127140   2.282   1.370   8.488 -1.0418 -0.3142 -0.9345
40670SOL    HW227141   2.218   1.486   8.561  0.5593  0.3575 -0.5753
40671SOL     OW27142   9.064   8.049   9.761 -0.0558  0.6376 -0.7533
40671SOL    HW127143   9.012   8.010   9.832 -2.2946  0.3648 -2.5034
40671SOL    HW227144   9.150   8.007   9.768 -0.1200  0.8513  1.9760
40672SOL     OW27145   3.762   0.088  10.897  0.2430 -0.2196  0.0675
40672SOL    HW127146   3.718   0.103  10.814 -0.0581  0.2082  0.3060
40672SOL    HW227147   3.842   0.141  10.892  0.6095 -0.7951 -0.2573
40673SOL     OW27148   1.355   0.950   5.951  0.4114 -0.5218 -0.1459
40673SOL    HW127149   1.290   0.914   5.890 -1.2996  0.0811  1.2948
40673SOL    HW227150   1.335   0.909   6.035 -0.2845  2.2214  1.0786
40674SOL     OW27151  10.939   0.720   8.343 -0.0316  0.1523  0.3008
40674SOL    HW127152  10.965   0.661   8.414  0.5437 -0.3746 -0.3383
40674SOL    HW227153  10.967   0.675   8.263 -0.1304  1.0135 -0.2283
40675SOL     OW27154   2.264   1.660   7.937  0.3772 -0.5582 -0.8086
40675SOL    HW127155   2.185   1.626   7.896 -0.6987 -0.1142  0.8628
40675SOL    HW227156   2.237   1.686   8.025  2.3140 -0.1355 -0.3051
40676SOL     OW27157   8.030   7.376  10.103  0.2186 -0.2562  0.3250
40676SOL    HW127158   7.975   7.453  10.087  1.8915  0.9042 -0.0826
40676SOL    HW227159   7.974   7.301  10.083 -0.5962  0.9281 -2.0098
40677SOL     OW27160  10.931   5.845   5.073 -0.5709 -0.5527 -0.0374
40677SOL    HW127161  10.916   5.932   5.109  0.0221 -0.3470 -0.2691
40677SOL    HW227162  10.844   5.810   5.055 -0.8114 -0.0471  0.1472
40678SOL     OW27163   8.481   7.815   9.596  0.2560 -0.4054  0.0599
40678SOL    HW127164   8.493   7.885   9.532 -1.1248 -0.4597 -0.2734
40678SOL    HW227165   8.509   7.736   9.550  1.3732 -0.1435  0.2776
40679SOL     OW27166   0.345   7.146   4.182  0.3744 -0.0997  0.2200
40679SOL    HW127167   0.404   7.161   4.256 -1.5060 -1.8306  2.1434
40679SOL    HW227168   0.261   7.185   4.210 -1.0156 -2.8429  0.0414
40680SOL     OW27169   0.279   5.294   8.160 -0.1345 -0.1879  0.2138
40680SOL    HW127170   0.235   5.333   8.084  0.2514  0.1377  0.1584
40680SOL    HW227171   0.218   5.226   8.190 -0.6917  0.2710  0.1470
40681SOL     OW27172   7.717   9.632  10.944  0.3974 -0.8362 -0.1210
40681SOL    HW127173   7.679   9.575  11.012 -3.0154  1.2888 -0.1387
40681SOL    HW227174   7.654   9.629  10.872  0.5110  2.3346 -0.4131
40682SOL     OW27175  11.100  10.345   8.761 -0.5791  0.3739 -0.4562
40682SOL    HW127176  11.080  10.348   8.854 -2.8303 -0.2903 -0.8957
40682SOL    HW227177  11.140  10.258   8.748  1.2576  1.1051  0.1540
40683SOL     OW27178   1.510   4.818   3.157  0.4734 -0.5494  0.5242
40683SOL    HW127179   1.542   4.836   3.245  0.2363  0.5188  0.4006
40683SOL    HW227180   1.564   4.872   3.099 -0.4814  0.0677  0.1791
40684SOL     OW27181   7.099   5.328   1.351  0.6626 -0.2721 -0.3920
40684SOL    HW127182   7.129   5.255   1.298  0.4064  0.0678 -1.0251
40684SOL    HW227183   7.178   5.365   1.390  0.7821 -0.9256 -0.0130
40685SOL     OW27184   3.786   6.448   7.426 -0.4033 -0.2532 -0.7175
40685SOL    HW127185   3.844   6.377   7.455 -0.1629  0.2338  0.0363
40685SOL    HW227186   3.817   6.470   7.338  0.6364  0.0560 -0.2943
40686SOL     OW27187  10.053   4.880   3.526  0.3591  0.5919  0.0598
40686SOL    HW127188   9.983   4.858   3.588  1.4931 -0.5144  0.9650
40686SOL    HW227189  10.055   4.976   3.527 -0.9063  0.6288  0.2912
40687SOL     OW27190   2.734   1.641   3.082 -0.2431 -0.4887  0.1999
40687SOL    HW127191   2.715   1.548   3.068 -0.8907 -0.3571  0.2193
40687SOL    HW227192   2.700   1.660   3.169  0.8385 -0.4924  0.6281
40688SOL     OW27193   7.168   8.361   1.812  0.2993 -0.4636  0.5417
40688SOL    HW127194   7.118   8.390   1.737 -0.9180 -1.3194  1.0042
40688SOL    HW227195   7.190   8.441   1.860  0.8936  0.0586 -0.5941
40689SOL     OW27196   9.055   4.009   4.285 -0.2252  0.6507  0.5042
40689SOL    HW127197   8.979   3.968   4.245  0.0716  0.7315 -0.1502
40689SOL    HW227198   9.040   4.103   4.275  0.1750  0.6591 -0.0374
40690SOL     OW27199   6.119   8.830   1.176 -0.0124 -0.0945 -0.0663
40690SOL    HW127200   6.073   8.823   1.259 -2.1285 -1.8988 -1.3184
40690SOL    HW227201   6.199   8.878   1.196 -2.3961  3.1419  2.2209
40691SOL     OW27202   2.479   5.932   4.816  0.7292 -0.1681  0.2586
40691SOL    HW127203   2.408   5.869   4.804 -0.6760  1.4393 -0.0053
40691SOL    HW227204   2.447   6.013   4.775  3.0385  0.3533 -0.5760
40692SOL     OW27205  10.615   2.332   3.499 -0.2520  0.5826 -0.2651
40692SOL    HW127206  10.657   2.377   3.573  0.6398 -0.8540  0.1379
40692SOL    HW227207  10.525   2.364   3.499 -0.3713  0.3067  1.7051
40693SOL     OW27208   5.710   2.346   2.877 -0.2564 -0.7265 -0.6784
40693SOL    HW127209   5.710   2.392   2.793 -1.3665 -1.3658 -1.0288
40693SOL    HW227210   5.618   2.338   2.901  0.1246  0.6994  1.3003
40694SOL     OW27211   2.618  10.106  10.847 -0.3380 -0.2970 -0.3828
40694SOL    HW127212   2.713  10.117  10.843 -0.7389  3.9506 -0.7207
40694SOL    HW227213   2.591  10.094  10.756 -0.3009  0.5241 -0.5055
40695SOL     OW27214   6.115  10.927  10.997  0.7054  0.5302  0.0933
40695SOL    HW127215   6.173  10.913  10.922  1.4549 -0.6851  0.8939
40695SOL    HW227216   6.174  10.940  11.071 -0.0296  2.0849  0.4263
40696SOL     OW27217   2.554   5.683   3.419  0.1235 -0.5743 -0.2611
40696SOL    HW127218   2.617   5.744   3.381  0.4311 -1.3970 -1.0977
40696SOL    HW227219   2.524   5.726   3.499 -0.3851  1.0840 -1.3266
40697SOL     OW27220   9.026   2.875   6.928  0.0820  0.3390  0.3591
40697SOL    HW127221   9.120   2.892   6.926  0.0796  0.7594  2.6109
40697SOL    HW227222   9.017   2.790   6.970 -0.5087 -0.1178 -0.6645
40698SOL     OW27223  10.587   1.052  10.395 -0.2486  0.1904 -0.4728
40698SOL    HW127224  10.642   1.130  10.404  1.4679 -0.5877 -3.4430
40698SOL    HW227225  10.546   1.041  10.481 -0.9688  4.6305 -0.1353
40699SOL     OW27226   9.540  11.266   1.324 -0.0730  0.4605  0.1121
40699SOL    HW127227   9.556  11.178   1.357 -3.1631 -0.7409 -1.3428
40699SOL    HW227228   9.600  11.276   1.251  2.2714  0.6886  2.0092
40700SOL     OW27229   5.703   2.643  11.062  0.1492  0.4765 -0.2672
40700SOL    HW127230   5.793   2.612  11.056 -0.3754 -1.1696  0.1043
40700SOL    HW227231   5.672   2.646  10.972  0.7320  1.5403 -0.4358
40701SOL     OW27232  10.842   4.707   1.334  0.2747 -0.2160 -0.1835
40701SOL    HW127233  10.818   4.663   1.415  0.3803  0.1137  0.0228
40701SOL    HW227234  10.896   4.643   1.287  2.3447  0.5342  1.1235
40702SOL     OW27235   3.872   5.554   9.137  0.3983  0.5774 -0.0505
40702SOL    HW127236   3.940   5.563   9.204 -0.2310  0.8048  0.5671
40702SOL    HW227237   3.793   5.587   9.179 -0.3267 -0.6732 -0.3969
40703SOL     OW27238   3.034  10.413   9.823 -0.3759  0.4398 -0.1636
40703SOL    HW127239   3.061  10.445   9.910  2.0512  1.1082 -1.1265
40703SOL    HW227240   2.938  10.415   9.826 -0.3317  1.9067  1.9781
40704SOL     OW27241   6.220   2.805   8.665 -0.5511 -0.0724  0.3177
40704SOL    HW127242   6.246   2.819   8.574  0.0970 -2.3302  0.1239
40704SOL    HW227243   6.141   2.857   8.676 -0.5509  0.3410 -1.4902
40705SOL     OW27244   7.056   9.357   1.727  0.5607  0.1472 -0.3256
40705SOL    HW127245   7.020   9.274   1.698  1.1090  0.1606 -1.0863
40705SOL    HW227246   7.056   9.412   1.648  1.5004  0.4002 -0.1620
40706SOL     OW27247   2.374   8.501   3.580 -0.2443  0.2971 -0.4492
40706SOL    HW127248   2.441   8.561   3.547  0.6771  0.9332  2.4533
40706SOL    HW227249   2.296   8.522   3.528  1.2795  0.8701 -2.5541
40707SOL     OW27250   8.063   6.407   2.744  0.0196  0.2725 -0.7143
40707SOL    HW127251   8.006   6.442   2.675  1.5007 -1.2579 -2.7807
40707SOL    HW227252   8.026   6.321   2.764 -1.4680  1.4336  1.7502
40708SOL     OW27253   6.163   8.271   5.508 -0.1101 -0.2694  0.2115
40708SOL    HW127254   6.078   8.226   5.510  0.9536 -2.2906  1.1082
40708SOL    HW227255   6.154   8.340   5.574 -1.3544  0.1338 -0.3478
40709SOL     OW27256   9.527   1.614   0.233  0.1952  0.2788 -0.2236
40709SOL    HW127257   9.580   1.540   0.265 -0.3216 -0.7134 -1.6213
40709SOL    HW227258   9.590   1.668   0.183  0.2688  0.0320 -0.3993
40710SOL     OW27259   1.799   2.556   3.771 -0.1772 -0.2170 -0.3694
40710SOL    HW127260   1.758   2.481   3.813 -0.0160  1.6775  3.4167
40710SOL    HW227261   1.734   2.587   3.708 -2.6750 -0.1122  2.1638
40711SOL     OW27262   4.517  10.765   0.234 -0.0265  0.3312 -0.1549
40711SOL    HW127263   4.430  10.797   0.212  0.7501  2.0100 -0.8431
40711SOL    HW227264   4.563  10.761   0.151  0.5530 -0.5764  0.2047
40712SOL     OW27265   6.419   7.384   6.396  0.2183 -0.0313 -0.0098
40712SOL    HW127266   6.343   7.391   6.453  1.1979 -0.8822  1.4329
40712SOL    HW227267   6.382   7.376   6.308 -1.3304  0.5014  0.5712
40713SOL     OW27268   9.893   7.262   8.738 -0.9440  0.2171  0.2641
40713SOL    HW127269   9.963   7.200   8.717 -0.5071  1.0294 -0.6870
40713SOL    HW227270   9.885   7.257   8.833  1.1346  0.8949  0.4998
40714SOL     OW27271  10.249  10.902   4.163  0.5112 -0.2673 -0.2951
40714SOL    HW127272  10.262  10.863   4.077  0.9022  0.7586 -0.6975
40714SOL    HW227273  10.255  10.996   4.149  0.1035 -0.0684  0.7709
40715SOL     OW27274   3.053   3.321   5.003  0.8446 -0.0765 -0.1951
40715SOL    HW127275   3.093   3.263   4.938 -0.9674 -1.8514  0.1956
40715SOL    HW227276   2.991   3.264   5.050  0.2559  1.7936  1.3432
40716SOL     OW27277   7.862  10.130  11.088  0.0186 -0.2177 -0.0742
40716SOL    HW127278   7.819  10.088  11.162  0.8169  1.3311  1.3008
40716SOL    HW227279   7.948  10.087  11.083  0.4002  0.4497  0.6230
40717SOL     OW27280   7.181   8.003   9.118  0.4051  0.3437  0.0761
40717SOL    HW127281   7.148   8.056   9.045  1.7642  2.0808  0.6927
40717SOL    HW227282   7.275   7.993   9.100  0.2127 -1.6748  0.0912
40718SOL     OW27283   0.516   7.873   5.082  0.2202  0.0946 -0.3694
40718SOL    HW127284   0.477   7.955   5.110 -0.4247 -0.4897  0.4756
40718SOL    HW227285   0.497   7.811   5.153  2.7571 -0.1944  0.0985
40719SOL     OW27286   6.993   0.575   5.051  0.2493 -0.2167 -0.1748
40719SOL    HW127287   7.077   0.556   5.093 -0.2811  2.7875  2.3453
40719SOL    HW227288   6.932   0.512   5.089  0.5647  0.0681  0.8053
40720SOL     OW27289   2.733   1.165   0.084  0.1420 -0.1057  0.3933
40720SOL    HW127290   2.733   1.134  -0.006  1.1056 -0.0748  0.3728
40720SOL    HW227291   2.691   1.094   0.133  0.9433 -0.7740  0.1266
40721SOL     OW27292  10.534   1.687   7.700  0.5740 -0.8560 -0.5860
40721SOL    HW127293  10.525   1.663   7.792  0.5993  1.1438 -0.0339
40721SOL    HW227294  10.626   1.713   7.691 -0.0350  1.3748 -0.5606
40722SOL     OW27295   4.350   1.048   7.028 -0.2068 -0.1424  0.2138
40722SOL    HW127296   4.391   1.099   7.098 -0.4287 -0.0267  0.2585
40722SOL    HW227297   4.424   1.009   6.981  0.1506  2.5992 -1.6498
40723SOL     OW27298   4.953  11.128   5.998 -0.4114 -0.3076  0.0497
40723SOL    HW127299   4.904  11.142   5.917  0.1521  4.7075  0.4588
40723SOL    HW227300   4.891  11.147   6.068  0.3543 -0.1658  0.6923
40724SOL     OW27301   0.110   3.115   0.680 -0.3387  0.0007 -0.3856
40724SOL    HW127302   0.128   3.044   0.619  2.0707  1.1951 -1.1224
40724SOL    HW227303   0.179   3.107   0.747 -1.2662  0.4298  0.6386
40725SOL     OW27304   1.221   7.896  10.844  0.3889 -0.1776 -0.0635
40725SOL    HW127305   1.218   7.991  10.837 -3.2517 -0.1879  0.2952
40725SOL    HW227306   1.204   7.878  10.936  0.3667 -1.1971 -0.2601
40726SOL     OW27307   8.373  10.202   7.071  0.0158 -0.6999 -0.7012
40726SOL    HW127308   8.363  10.284   7.118 -3.0488 -0.6285 -1.3937
40726SOL    HW227309   8.403  10.140   7.138 -1.1156  0.1463  0.6218
40727SOL     OW27310   8.597   1.454   1.596  0.2572 -0.0307  0.1148
40727SOL    HW127311   8.559   1.530   1.640  0.5493  0.6478 -0.8119
40727SOL    HW227312   8.675   1.487   1.552 -0.6484 -0.4630 -1.8706
40728SOL     OW27313   4.480   1.797   7.571 -0.5473  0.0229  0.4162
40728SOL    HW127314   4.491   1.882   7.613 -2.1911  0.2512  0.4033
40728SOL    HW227315   4.499   1.813   7.478 -0.1841  0.2299  0.5268
40729SOL     OW27316  10.267   8.020   2.843 -0.1950 -0.2118  0.5626
40729SOL    HW127317  10.230   7.956   2.782 -0.5497  0.7785 -0.2742
40729SOL    HW227318  10.272   8.101   2.792 -1.8095  0.9892  2.2878
40730SOL     OW27319   4.349   3.557   7.049  0.4292 -0.1797 -0.7166
40730SOL    HW127320   4.349   3.469   7.011  0.8893 -0.8884  0.8896
40730SOL    HW227321   4.436   3.566   7.087 -0.4065  0.0896  1.1519
40731SOL     OW27322   4.189  10.882   8.025 -0.5412 -0.3910  0.0784
40731SOL    HW127323   4.255  10.821   7.993 -1.0933 -1.0432  0.1860
40731SOL    HW227324   4.239  10.942   8.081 -0.1832 -1.4594  0.9349
40732SOL     OW27325  10.958   9.930   7.304  0.1313  0.0645 -0.1407
40732SOL    HW127326  10.931   9.951   7.393 -1.8008 -1.5584 -0.3020
40732SOL    HW227327  10.884   9.881   7.267  0.7619  0.9866 -2.7433
40733SOL     OW27328   7.147   9.359  10.687  0.2360 -0.3141  0.2623
40733SOL    HW127329   7.065   9.345  10.639  0.5629  1.4436 -0.8640
40733SOL    HW227330   7.159   9.454  10.686  1.1669 -0.3811  2.3451
40734SOL     OW27331   9.189   8.756   3.228 -0.4283  0.1896 -0.0006
40734SOL    HW127332   9.169   8.697   3.156  2.0114  1.3975 -1.7327
40734SOL    HW227333   9.219   8.698   3.299 -0.0607 -0.7853 -0.9451
40735SOL     OW27334   7.382   2.800   7.673  0.8557 -0.1734  0.0893
40735SOL    HW127335   7.394   2.705   7.670  0.1678 -0.3059  1.2955
40735SOL    HW227336   7.288   2.812   7.679  0.9124  0.6077 -0.5950
40736SOL     OW27337   8.371   5.665   3.538 -0.1617 -0.2290  0.1904
40736SOL    HW127338   8.292   5.706   3.574  1.5586  3.0941  0.4344
40736SOL    HW227339   8.346   5.638   3.450 -2.5058 -2.3200  1.4479
40737SOL     OW27340   9.770   4.222   0.867  0.5089 -0.1057  0.0950
40737SOL    HW127341   9.737   4.175   0.790 -0.1209 -0.6566  0.6927
40737SOL    HW227342   9.721   4.184   0.940  0.9614  0.5597  0.7407
40738SOL     OW27343   4.162   4.573   7.750 -0.2323  0.4768 -0.4274
40738SOL    HW127344   4.169   4.644   7.813 -0.0976  1.3905 -1.4606
40738SOL    HW227345   4.103   4.607   7.682 -1.1696 -0.8566 -0.2982
40739SOL     OW27346  10.159   2.802   1.222 -0.6100 -0.6908 -0.1606
40739SOL    HW127347  10.073   2.794   1.180 -1.0109 -0.8275  0.6704
40739SOL    HW227348  10.163   2.893   1.250 -0.6574 -0.7890  0.1642
40740SOL     OW27349   3.262   4.902   8.602 -0.4475 -0.0745  0.4878
40740SOL    HW127350   3.343   4.923   8.555  0.1366 -3.3177 -0.0906
40740SOL    HW227351   3.204   4.866   8.535 -1.1235 -0.9038  1.4980
40741SOL     OW27352   6.515  10.584   5.377 -0.6446 -0.3861  0.2992
40741SOL    HW127353   6.499  10.551   5.288 -1.4668 -0.4776  0.4800
40741SOL    HW227354   6.505  10.507   5.433 -2.7469  0.1804  0.7472
40742SOL     OW27355   4.548  10.646   0.853  0.5379 -0.1517  0.0795
40742SOL    HW127356   4.536  10.557   0.885 -1.6417  0.3833  0.7994
40742SOL    HW227357   4.478  10.658   0.789 -0.0191  1.4835  0.9731
40743SOL     OW27358   5.006   9.053   0.884  0.2946  0.0846 -0.5758
40743SOL    HW127359   4.980   8.961   0.885  1.9397 -0.3886  0.6388
40743SOL    HW227360   5.032   9.072   0.974 -1.8320  2.2980 -0.3684
40744SOL     OW27361   3.215  10.908   0.609 -0.7879  0.1736  0.0028
40744SOL    HW127362   3.135  10.865   0.641 -2.3341  1.3966 -2.0544
40744SOL    HW227363   3.192  11.000   0.605 -0.3655  0.1889 -3.6218
40745SOL     OW27364  11.007   3.493  10.869 -0.0710  0.2912 -0.1969
40745SOL    HW127365  11.019   3.513  10.961  0.0447  1.3662 -0.4318
40745SOL    HW227366  11.094   3.502  10.830 -0.5968  2.6236 -0.8992
40746SOL     OW27367   2.141   0.715   3.868  0.6646 -0.1981  0.2755
40746SOL    HW127368   2.175   0.633   3.904 -1.7163 -1.4273 -0.1401
40746SOL    HW227369   2.046   0.701   3.863  0.3688  2.0562 -1.1510
40747SOL     OW27370   7.296  10.899   4.609  0.9479 -0.5643 -0.4424
40747SOL    HW127371   7.288  10.831   4.541 -0.9050  0.8478 -1.6815
40747SOL    HW227372   7.211  10.901   4.652  0.3149  2.2433 -1.6924
40748SOL     OW27373   2.126   6.410   6.502  0.4784  0.5048  0.1201
40748SOL    HW127374   2.138   6.432   6.595 -2.5314 -2.2337  1.2550
40748SOL    HW227375   2.054   6.467   6.473 -0.5914 -0.7468  0.3029
40749SOL     OW27376   1.559   7.699   1.645 -0.0370 -0.0676 -0.0114
40749SOL    HW127377   1.489   7.633   1.642  0.1148 -0.1846 -1.0507
40749SOL    HW227378   1.635   7.651   1.677 -0.3989  0.0433  1.0601
40750SOL     OW27379   5.310   9.322   0.427 -0.3114 -0.2905 -0.5501
40750SOL    HW127380   5.232   9.302   0.375  0.0219 -0.5593 -0.9504
40750SOL    HW227381   5.327   9.415   0.408 -0.2108 -0.3780 -0.8976
40751SOL     OW27382   2.990   9.285   2.612  0.1806 -0.4343  0.0140
40751SOL    HW127383   2.980   9.298   2.706  0.0786 -1.8872  0.2160
40751SOL    HW227384   3.065   9.340   2.588  1.6972 -1.8405  1.3648
40752SOL     OW27385   5.373   0.484  10.681 -0.0061  0.3248  0.2560
40752SOL    HW127386   5.297   0.435  10.713 -0.2091 -0.1570 -0.9138
40752SOL    HW227387   5.342   0.525  10.600  1.2129 -0.5110 -0.6405
40753SOL     OW27388   3.677   6.851   2.123 -0.1350 -0.2499  0.4714
40753SOL    HW127389   3.767   6.836   2.095 -0.1895  0.4842 -0.1225
40753SOL    HW227390   3.634   6.766   2.114  0.0404 -0.1919 -0.9601
40754SOL     OW27391   4.458   4.403   9.891 -0.2644 -0.2586  0.0862
40754SOL    HW127392   4.376   4.447   9.869  1.7300  2.7554 -1.6124
40754SOL    HW227393   4.461   4.328   9.832 -1.6347 -0.2202 -0.0616
40755SOL     OW27394   1.450   0.637   4.117 -0.0945  0.0332 -0.5795
40755SOL    HW127395   1.374   0.641   4.059  0.3417  0.9239 -1.1006
40755SOL    HW227396   1.435   0.560   4.171 -0.7256 -0.5468 -1.5724
40756SOL     OW27397   1.233  11.058   8.550  0.3374  0.5886 -0.2712
40756SOL    HW127398   1.208  11.098   8.467 -0.4475  0.4359 -0.1125
40756SOL    HW227399   1.184  10.976   8.553  1.5164 -0.1343 -0.3470
40757SOL     OW27400   1.465   5.242   4.723 -0.2031 -0.1074 -0.4128
40757SOL    HW127401   1.385   5.269   4.767  0.2340  0.6654 -0.0775
40757SOL    HW227402   1.534   5.258   4.788  0.2011 -0.9722 -0.6143
40758SOL     OW27403   2.684   8.108   0.036 -0.0411  0.1618 -0.2091
40758SOL    HW127404   2.643   8.161   0.104 -1.7428 -0.1098 -1.0091
40758SOL    HW227405   2.778   8.113   0.056 -0.5925 -1.1362  3.0492
40759SOL     OW27406   1.426   7.074   7.453  0.0198  0.0889  0.2589
40759SOL    HW127407   1.360   7.007   7.435  0.2494 -1.0813  3.5346
40759SOL    HW227408   1.498   7.027   7.495  1.4627  1.9196 -0.0891
40760SOL     OW27409   9.382   1.102   4.970  0.3158 -0.4063  0.0263
40760SOL    HW127410   9.334   1.166   5.023  0.3135 -0.6436  0.3120
40760SOL    HW227411   9.464   1.146   4.949  0.8373 -0.7740  1.2653
40761SOL     OW27412   6.101   5.099   2.109  0.3651  0.9290 -0.1795
40761SOL    HW127413   6.095   5.194   2.120  0.4830  0.7811  1.1611
40761SOL    HW227414   6.097   5.086   2.014  2.6512  2.4400 -0.5293
40762SOL     OW27415   6.563   2.885   0.410  0.1695 -0.2690  0.0579
40762SOL    HW127416   6.509   2.816   0.371  0.2892 -0.4003  0.1214
40762SOL    HW227417   6.651   2.847   0.412  0.1147 -0.3701  0.7113
40763SOL     OW27418   2.209   7.200   7.740 -0.0916  0.0181 -0.5167
40763SOL    HW127419   2.210   7.226   7.832  0.8111 -0.9055 -0.2505
40763SOL    HW227420   2.165   7.271   7.695  0.8376  1.1981  0.4132
40764SOL     OW27421  10.165   0.410   6.693  0.3657 -0.2000  0.0345
40764SOL    HW127422  10.152   0.440   6.783  0.0515  2.1390 -0.7588
40764SOL    HW227423  10.252   0.441   6.669  0.3968 -0.6866 -0.5063
40765SOL     OW27424   0.242   0.936   8.493  0.2657 -0.1881 -0.3574
40765SOL    HW127425   0.298   0.869   8.454 -0.0069 -0.9769  0.5811
40765SOL    HW227426   0.280   1.019   8.463  1.9715 -0.7093  0.2732
40766SOL     OW27427   7.328   9.496   4.890 -0.2491 -0.1609  0.1418
40766SOL    HW127428   7.392   9.433   4.856 -0.9643 -0.2171 -1.1453
40766SOL    HW227429   7.351   9.506   4.982  1.5488 -0.2607 -0.2649
40767SOL     OW27430   7.839   2.129   9.369 -0.2255  0.5154  0.3061
40767SOL    HW127431   7.845   2.171   9.454 -0.4061  2.3415 -0.5571
40767SOL    HW227432   7.915   2.160   9.320 -0.1071 -0.5274 -0.1876
40768SOL     OW27433   0.027   4.662   4.888 -0.4457  0.0034 -0.7187
40768SOL    HW127434   0.065   4.610   4.817 -1.6543 -0.9553 -0.6881
40768SOL    HW227435  -0.066   4.638   4.888 -0.2585 -0.8582  1.8969
40769SOL     OW27436   9.060   1.190   4.757  0.2156  0.0874  0.5321
40769SOL    HW127437   8.967   1.170   4.752  0.4870 -1.2149  0.4403
40769SOL    HW227438   9.080   1.190   4.850  0.3250 -0.6327  0.5107
40770SOL     OW27439   9.696   7.874   0.243  0.1401  0.4686  0.2445
40770SOL    HW127440   9.617   7.922   0.268 -0.3476 -0.2988  0.1964
40770SOL    HW227441   9.668   7.819   0.169  0.6926  0.1183  0.2951
40771SOL     OW27442   3.269   2.893   9.839 -0.3833 -0.0826 -0.1856
40771SOL    HW127443   3.297   2.921   9.927  2.0518  1.2669 -1.3539
40771SOL    HW227444   3.174   2.892   9.844 -0.3233  1.3706  2.0658
40772SOL     OW27445   9.125   2.473   5.377 -0.4750 -0.4796  0.2984
40772SOL    HW127446   9.130   2.566   5.355 -0.6051 -1.1976 -2.9404
40772SOL    HW227447   9.214   2.441   5.366 -0.7855 -1.1136 -0.4215
40773SOL     OW27448  11.152   2.851   1.616 -0.1504 -0.6126 -0.1693
40773SOL    HW127449  11.221   2.866   1.681  0.5489 -0.7944 -0.8610
40773SOL    HW227450  11.095   2.928   1.624  1.0979  0.4133 -0.7957
40774SOL     OW27451   4.565   7.276  11.205 -0.3650 -0.3173 -0.2974
40774SOL    HW127452   4.582   7.309  11.293 -0.6140  0.8282 -0.6781
40774SOL    HW227453   4.639   7.306  11.153 -0.3167 -0.8346 -0.5327
40775SOL     OW27454   7.587  11.085   7.747  0.1187 -0.2016  0.3001
40775SOL    HW127455   7.616  11.165   7.702 -0.6567 -0.3150 -0.4136
40775SOL    HW227456   7.627  11.091   7.834  0.7001  0.5838 -0.0108
40776SOL     OW27457   8.283   8.202   8.402  0.3152  0.2369  0.0343
40776SOL    HW127458   8.242   8.124   8.439 -0.3014  0.6926  0.3264
40776SOL    HW227459   8.312   8.252   8.479  0.3008  0.5141 -0.1399
40777SOL     OW27460   5.511   3.851   0.316 -0.4834  0.3257  0.1039
40777SOL    HW127461   5.508   3.865   0.410  1.4388 -1.3580  0.4747
40777SOL    HW227462   5.573   3.916   0.284  0.5672 -0.5539  0.3340
40778SOL     OW27463   8.134   7.717  11.181 -0.4983  0.5982 -0.8185
40778SOL    HW127464   8.177   7.717  11.095 -0.9024 -0.7572 -1.0378
40778SOL    HW227465   8.147   7.628  11.214 -0.0733  1.1919  0.6712
40779SOL     OW27466   0.826  10.476   2.073 -0.0774 -0.1038 -0.2261
40779SOL    HW127467   0.758  10.541   2.093 -0.7016 -0.2878 -1.6719
40779SOL    HW227468   0.884  10.478   2.149 -0.9376  1.0506  0.4229
40780SOL     OW27469   0.358   7.575   6.894  0.5707  0.2126 -0.2382
40780SOL    HW127470   0.284   7.625   6.929  0.3160  1.4846 -2.5166
40780SOL    HW227471   0.318   7.506   6.842  0.9664 -1.0969  1.1550
40781SOL     OW27472   1.729   3.864   5.638 -0.1605 -0.5880  0.1357
40781SOL    HW127473   1.803   3.837   5.692 -0.1809 -0.2879  0.3142
40781SOL    HW227474   1.713   3.790   5.580  0.4324 -0.5593 -0.0645
40782SOL     OW27475   7.091   4.256   5.461 -0.1442 -0.0634  0.4984
40782SOL    HW127476   7.103   4.337   5.412 -0.3869 -0.2028  0.2050
40782SOL    HW227477   7.022   4.276   5.525  0.5932  0.2981  1.1965
40783SOL     OW27478   8.034   2.530   9.582  0.3931 -0.4795 -0.0811
40783SOL    HW127479   8.020   2.615   9.622  0.2192  0.0721 -1.2758
40783SOL    HW227480   8.106   2.544   9.520 -0.6968 -0.8072 -1.4392
40784SOL     OW27481   1.051   5.898  10.598  0.1005 -0.4635 -0.4398
40784SOL    HW127482   1.134   5.857  10.621  0.7126  0.9312 -0.0981
40784SOL    HW227483   1.076   5.979  10.554 -1.0825 -0.4387 -1.0976
40785SOL     OW27484   0.803   4.789   8.713 -0.1427 -0.5956 -0.2862
40785SOL    HW127485   0.853   4.728   8.768 -1.1441 -0.8472  0.3594
40785SOL    HW227486   0.716   4.790   8.752  0.2231  2.3446  0.5749
40786SOL     OW27487   4.809   5.993   0.477  0.2346  0.8468  0.0719
40786SOL    HW127488   4.774   6.050   0.409  0.1980 -0.0888 -0.7034
40786SOL    HW227489   4.743   5.996   0.547 -0.2926  0.9072 -0.4185
40787SOL     OW27490  10.304   5.285   0.758  0.0999 -0.3876  0.1069
40787SOL    HW127491  10.308   5.267   0.852  1.7245  0.3665  0.2077
40787SOL    HW227492  10.213   5.305   0.741 -0.1113  0.0150  1.6339
40788SOL     OW27493   5.034   3.007   1.705  0.6797  0.4839 -0.5211
40788SOL    HW127494   5.112   2.960   1.735  0.3480  0.1399 -0.1961
40788SOL    HW227495   4.976   2.939   1.671  0.8266  0.8157 -1.4651
40789SOL     OW27496   2.030   9.913   9.887 -0.2782 -0.3293 -0.3213
40789SOL    HW127497   1.992  10.001   9.895  0.2880  0.0160 -1.4457
40789SOL    HW227498   2.114   9.919   9.932  0.5964  0.2230 -1.9811
40790SOL     OW27499  11.256  10.512   1.384 -0.3705  0.0514 -0.0170
40790SOL    HW127500  11.208  10.572   1.326 -1.4323  0.4442  1.2452
40790SOL    HW227501  11.206  10.430   1.380  1.7651 -1.1815 -2.6944
40791SOL     OW27502   1.435   7.800   2.668  0.3855  0.3727  0.4604
40791SOL    HW127503   1.473   7.738   2.730  2.5672 -0.9850 -2.1076
40791SOL    HW227504   1.364   7.752   2.626  0.6581  0.3379  0.0305
40792SOL     OW27505   3.693   0.160   3.568 -0.1934  0.0658 -0.5536
40792SOL    HW127506   3.603   0.183   3.592  0.0447  0.7867 -0.3368
40792SOL    HW227507   3.738   0.152   3.652  0.4860  1.9461 -0.7334
40793SOL     OW27508   5.640   4.209   3.517  0.5329 -0.1737  0.3545
40793SOL    HW127509   5.612   4.237   3.604 -1.5638  4.1552 -1.5938
40793SOL    HW227510   5.727   4.247   3.506  0.9475 -1.0146  0.6157
40794SOL     OW27511   0.004   0.748   3.798  0.2174  0.1024  0.2167
40794SOL    HW127512  -0.024   0.707   3.716 -1.6622  2.2379 -0.2736
40794SOL    HW227513   0.065   0.817   3.772 -0.8439  1.1872  0.5104
40795SOL     OW27514   7.645   1.416   6.945 -0.1664  0.0823 -0.0933
40795SOL    HW127515   7.563   1.430   6.899 -0.8998 -1.2458  0.7973
40795SOL    HW227516   7.698   1.364   6.885 -0.9150 -1.1755  0.3155
40796SOL     OW27517   2.869   2.851  10.228 -0.1077 -0.3393 -0.1779
40796SOL    HW127518   2.929   2.778  10.242 -0.5973 -0.7046  0.0097
40796SOL    HW227519   2.906   2.923  10.281  0.1810 -0.5522 -0.0887
40797SOL     OW27520   2.640   3.477   3.089  0.0335 -0.2406  0.1343
40797SOL    HW127521   2.580   3.472   3.163  0.0787  0.4188  0.2203
40797SOL    HW227522   2.584   3.493   3.013 -0.0492 -1.3364 -0.0342
40798SOL     OW27523   0.329   2.737  10.780 -0.0893 -0.3353  0.1015
40798SOL    HW127524   0.281   2.666  10.738 -0.4801 -1.5507  2.5139
40798SOL    HW227525   0.276   2.815  10.763 -1.1762 -1.1062 -0.1074
40799SOL     OW27526   3.847   4.768   5.242  0.2467 -0.2777 -0.5359
40799SOL    HW127527   3.933   4.809   5.237 -0.2800  0.9878  0.4869
40799SOL    HW227528   3.804   4.792   5.160  0.5665 -0.2321 -0.6920
40800SOL     OW27529   9.344   0.450   3.311 -0.0800  0.2791 -0.7543
40800SOL    HW127530   9.321   0.524   3.367 -0.2538 -0.0151 -0.4336
40800SOL    HW227531   9.275   0.386   3.326 -0.1192  0.1883 -1.2968
40801SOL     OW27532   3.960   6.727  11.294 -0.1904  0.2120  0.1720
40801SOL    HW127533   3.886   6.787  11.296 -0.2421  0.2498 -1.8099
40801SOL    HW227534   3.943   6.671  11.218  1.4136 -0.2924  0.1710
40802SOL     OW27535   1.561   3.357   1.611  0.4629  0.2466 -0.7430
40802SOL    HW127536   1.519   3.371   1.696  2.1473 -1.0075  0.3152
40802SOL    HW227537   1.629   3.423   1.607  1.3773 -0.6602 -0.4335
40803SOL     OW27538   1.583   3.861   4.849  0.1041 -0.4973 -0.0143
40803SOL    HW127539   1.554   3.898   4.933 -0.1592 -0.9123  0.0814
40803SOL    HW227540   1.674   3.888   4.841  1.0763 -2.9704  1.8647
40804SOL     OW27541   7.228   6.512   6.056  0.3796 -0.4058  0.1638
40804SOL    HW127542   7.176   6.584   6.019  0.3411  0.0967  1.1743
40804SOL    HW227543   7.165   6.443   6.073  0.3596 -0.5476 -0.4724
40805SOL     OW27544   7.988   9.937   0.056  0.3480  0.1719 -0.5014
40805SOL    HW127545   8.056   9.871   0.051  1.4536  1.2033  0.6242
40805SOL    HW227546   8.008   9.998  -0.016  1.1055  0.9224  0.3374
40806SOL     OW27547   3.332   1.761   5.513 -0.3672  0.7276  0.2324
40806SOL    HW127548   3.409   1.813   5.491 -0.1398  0.1431 -0.4043
40806SOL    HW227549   3.309   1.787   5.602  0.8230  0.6065  0.5885
40807SOL     OW27550   4.662   6.888   5.906 -0.2131 -0.2730  0.5321
40807SOL    HW127551   4.670   6.981   5.927  0.0468 -0.4589  1.2916
40807SOL    HW227552   4.605   6.853   5.975 -0.2256 -0.6954  0.3100
40808SOL     OW27553   5.645   8.750   0.729  0.0269  0.1141  0.0584
40808SOL    HW127554   5.666   8.707   0.812  1.5848 -0.0797 -0.4370
40808SOL    HW227555   5.657   8.844   0.747  0.9318  0.0324 -0.1084
40809SOL     OW27556   1.572   0.729  11.116 -0.7834  0.1088 -0.1283
40809SOL    HW127557   1.632   0.804  11.113  0.9521 -1.2940 -2.2456
40809SOL    HW227558   1.629   0.653  11.107 -2.7649 -1.3552 -0.6035
40810SOL     OW27559   9.871   5.532   8.943  0.2065 -0.2707 -0.0202
40810SOL    HW127560   9.829   5.472   9.005 -0.8482  0.4735 -0.0006
40810SOL    HW227561   9.812   5.533   8.868  0.8179 -0.1487 -0.4961
40811SOL     OW27562   3.947   5.170   0.572 -0.1363 -0.1358 -0.5022
40811SOL    HW127563   3.945   5.261   0.600  0.8292  0.1115 -1.2117
40811SOL    HW227564   3.963   5.120   0.653 -1.3062  0.2581 -0.0135
40812SOL     OW27565   3.307   1.776   2.605  0.2493  0.1422  0.7237
40812SOL    HW127566   3.249   1.801   2.677 -1.5348  0.0017 -0.6282
40812SOL    HW227567   3.321   1.683   2.617  0.3120  0.2026  1.1383
40813SOL     OW27568  10.420   7.966   7.367 -0.2185  0.1411 -0.2451
40813SOL    HW127569  10.433   8.028   7.438  1.8570  0.7070 -1.0687
40813SOL    HW227570  10.379   7.890   7.408  4.0536 -0.9685  2.3089
40814SOL     OW27571   4.626   7.642  10.328  0.5570 -0.7726 -0.5560
40814SOL    HW127572   4.675   7.674  10.404  0.5237 -1.3449 -0.2969
40814SOL    HW227573   4.547   7.696  10.327  1.2534  0.2589 -1.0646
40815SOL     OW27574   9.286   4.194   8.259  0.2372 -0.1392 -0.1201
40815SOL    HW127575   9.365   4.245   8.273  0.3518  0.4373 -2.7103
40815SOL    HW227576   9.217   4.243   8.303  0.7314  1.1184 -0.7426
40816SOL     OW27577   2.068   9.243   6.979 -0.1099 -0.0560  0.1454
40816SOL    HW127578   2.091   9.190   6.903  1.1586 -0.1558  0.5874
40816SOL    HW227579   2.128   9.317   6.975 -0.6582  0.4088  0.5420
40817SOL     OW27580  10.536  10.799   6.515 -0.1975  0.1086  0.0093
40817SOL    HW127581  10.547  10.738   6.588  0.3108  1.3331  0.9720
40817SOL    HW227582  10.624  10.834   6.499 -0.3186 -0.0777 -1.1404
40818SOL     OW27583  10.433   4.530  10.000 -0.4857  0.4771 -0.1562
40818SOL    HW127584  10.490   4.491   9.934 -1.9116 -1.3333 -0.3560
40818SOL    HW227585  10.357   4.560   9.950 -2.1497 -2.0671  0.8091
40819SOL     OW27586   6.148   6.940   8.805 -0.5859 -0.2960 -0.1794
40819SOL    HW127587   6.131   6.915   8.714 -0.7888  1.9000 -0.7650
40819SOL    HW227588   6.169   7.033   8.802  0.3620 -0.3918  1.9220
40820SOL     OW27589   2.855   4.168   6.570  0.0623  0.1513 -0.1562
40820SOL    HW127590   2.776   4.165   6.515 -0.3258 -0.2438  0.4219
40820SOL    HW227591   2.824   4.150   6.658  0.6011  1.3619  0.2977
40821SOL     OW27592   6.183   6.998   4.476 -0.2393  0.1456 -0.1401
40821SOL    HW127593   6.115   6.937   4.446  2.0426 -1.8046 -1.5758
40821SOL    HW227594   6.224   6.953   4.550  0.6488  0.4590 -0.4327
40822SOL     OW27595   9.865   4.828   0.389 -0.6435  0.3856  0.0923
40822SOL    HW127596   9.805   4.895   0.356  0.1670  1.1004  0.0507
40822SOL    HW227597   9.821   4.791   0.465 -0.4151  2.0478  1.0534
40823SOL     OW27598   8.169   2.282   8.672 -0.2940 -0.3196  0.4009
40823SOL    HW127599   8.093   2.224   8.681  0.0936 -0.8350  0.3801
40823SOL    HW227600   8.186   2.286   8.578 -1.0614  0.8019  0.2959
40824SOL     OW27601  11.244   5.741   7.323  0.1018 -0.1867  0.4420
40824SOL    HW127602  11.338   5.755   7.312 -0.2755 -0.1614 -3.2278
40824SOL    HW227603  11.238   5.672   7.389  2.7727 -1.2832 -0.3877
40825SOL     OW27604   0.092   3.298   9.693  0.5981 -0.2510  0.4595
40825SOL    HW127605  -0.002   3.310   9.710  0.2752 -0.1978 -1.2777
40825SOL    HW227606   0.135   3.342   9.766 -0.7099  0.4584  0.8267
40826SOL     OW27607   3.755   8.180   4.225 -0.0448  0.1483 -0.0240
40826SOL    HW127608   3.797   8.164   4.141  1.2984 -0.0536  0.6700
40826SOL    HW227609   3.770   8.272   4.243 -0.5323  0.2465 -0.1175
40827SOL     OW27610   0.741   0.002   5.506 -0.0198 -0.4252  0.4052
40827SOL    HW127611   0.677   0.072   5.518 -0.0143 -0.5545  1.2089
40827SOL    HW227612   0.771  -0.019   5.595  0.2923 -1.1536  0.1316
40828SOL     OW27613   6.145   2.293   9.223 -0.2162 -0.1439 -0.1104
40828SOL    HW127614   6.153   2.265   9.314 -0.5048  1.3889  0.4100
40828SOL    HW227615   6.065   2.250   9.192 -0.9343  0.4937  0.8244
40829SOL     OW27616   4.258   1.371   8.564  0.2647 -0.2201 -0.0395
40829SOL    HW127617   4.350   1.377   8.587  0.2809  0.0571 -0.1773
40829SOL    HW227618   4.256   1.373   8.469  0.0179  1.2726 -0.0234
40830SOL     OW27619   0.741  10.091  11.155 -0.0291 -0.4348  0.3132
40830SOL    HW127620   0.702  10.170  11.193 -2.5324 -1.6587  0.4152
40830SOL    HW227621   0.691  10.075  11.076  0.6037 -1.7968  0.1659
40831SOL     OW27622   7.384   2.426   8.435  0.4067  0.1662  0.4593
40831SOL    HW127623   7.457   2.402   8.378 -1.0593  0.6378 -1.6778
40831SOL    HW227624   7.357   2.512   8.403 -1.2000 -0.0867  1.1057
40832SOL     OW27625   6.837   2.008   0.824 -0.0425  0.1771  0.1251
40832SOL    HW127626   6.754   1.970   0.852 -0.6804  0.7114 -0.9814
40832SOL    HW227627   6.821   2.035   0.733  1.4029  0.0924 -0.1695
40833SOL     OW27628   9.075   5.147   2.951 -0.1799  0.1558 -0.3585
40833SOL    HW127629   9.015   5.096   2.897  0.1465 -0.2853 -0.3023
40833SOL    HW227630   9.152   5.159   2.895 -0.5821  1.2907 -0.6826
40834SOL     OW27631   9.692   4.178   2.159  0.0395  0.4224 -0.3726
40834SOL    HW127632   9.782   4.210   2.168 -0.1745  0.6457  0.9570
40834SOL    HW227633   9.678   4.123   2.236 -2.0032  2.8747  1.0717
40835SOL     OW27634   0.717   5.973   7.076  0.1544  0.1817  0.0168
40835SOL    HW127635   0.665   5.892   7.076  0.3625  0.0490 -0.3188
40835SOL    HW227636   0.653   6.042   7.095  0.0253 -0.0934  0.6006
40836SOL     OW27637   3.659   5.859   9.115  0.5401 -0.3923 -0.1626
40836SOL    HW127638   3.627   5.949   9.124 -0.6813 -1.0263  2.2518
40836SOL    HW227639   3.580   5.807   9.099  0.7967 -1.4548  1.8646
40837SOL     OW27640   8.713   3.010   3.001  0.0863 -0.0485  0.4978
40837SOL    HW127641   8.652   2.936   3.001  0.3892 -0.3004  0.4128
40837SOL    HW227642   8.742   3.016   3.092  1.3889 -1.1449  0.1779
40838SOL     OW27643   8.014  11.281  11.252  0.8235 -0.0147 -0.3332
40838SOL    HW127644   8.086  11.219  11.248  0.9395  0.1606 -1.1261
40838SOL    HW227645   7.955  11.245  11.318  0.4458 -1.4678 -1.4197
40839SOL     OW27646   1.422   0.496   8.338  0.1862 -0.0636 -0.2226
40839SOL    HW127647   1.377   0.559   8.282 -0.0009 -0.4168 -0.4695
40839SOL    HW227648   1.463   0.434   8.278  1.8839  0.8474 -0.0347
40840SOL     OW27649  11.051   2.263   4.171 -0.0545 -0.8074 -0.0773
40840SOL    HW127650  11.146   2.261   4.160  0.0182  0.7853  0.2011
40840SOL    HW227651  11.018   2.297   4.088 -0.4841 -2.4560 -0.6114
40841SOL     OW27652   7.049   7.020   0.651 -0.2129 -0.1499 -0.4936
40841SOL    HW127653   7.122   6.971   0.688  1.4535  0.1784 -3.1663
40841SOL    HW227654   6.971   6.981   0.690  1.2857 -1.8790  0.8592
40842SOL     OW27655   3.841   4.392   8.369  0.3009  0.8605  0.4834
40842SOL    HW127656   3.836   4.421   8.278 -0.8699  1.5525  0.7559
40842SOL    HW227657   3.907   4.450   8.409 -0.5497  1.8202  0.5227
40843SOL     OW27658  10.607   2.209   5.781 -0.2410  0.2146 -0.5241
40843SOL    HW127659  10.635   2.295   5.813  0.8562  0.6327 -2.5450
40843SOL    HW227660  10.672   2.185   5.716 -0.6685 -2.0744 -0.1589
40844SOL     OW27661   0.896   5.965   0.940 -0.1081 -0.0862 -0.2728
40844SOL    HW127662   0.851   5.937   0.861  1.0432 -0.1833 -0.9162
40844SOL    HW227663   0.946   5.887   0.968 -1.5613 -0.4723  1.3243
40845SOL     OW27664   3.302   1.425   2.225 -0.0497 -0.0575  0.1894
40845SOL    HW127665   3.336   1.341   2.195  1.5251  0.8177 -0.5161
40845SOL    HW227666   3.216   1.404   2.263 -0.4549 -1.7029 -1.5969
40846SOL     OW27667   9.453   9.017   1.148  0.1454 -0.2010 -0.0086
40846SOL    HW127668   9.375   9.068   1.126 -0.7795 -0.9493  1.4347
40846SOL    HW227669   9.434   8.929   1.117 -0.7066 -0.9965  2.6678
40847SOL     OW27670   0.351   2.569   2.191 -0.1666 -0.3799 -0.2498
40847SOL    HW127671   0.443   2.563   2.214  0.1425 -3.2194 -1.9764
40847SOL    HW227672   0.311   2.491   2.230 -2.1328  1.4712  1.6019
40848SOL     OW27673   9.132   9.453   4.198 -0.1012  0.0314  0.4355
40848SOL    HW127674   9.052   9.504   4.212 -1.6460 -2.5260  1.1780
40848SOL    HW227675   9.191   9.480   4.268 -0.2543  2.0136 -0.1786
40849SOL     OW27676   8.331   8.223  10.712 -0.5916  0.5699  0.8289
40849SOL    HW127677   8.238   8.242  10.696 -0.6760 -0.8125 -0.5064
40849SOL    HW227678   8.359   8.177  10.633  1.2592  1.0214  1.2084
40850SOL     OW27679   9.100  11.090   1.537 -0.0289 -0.7477 -0.1866
40850SOL    HW127680   9.089  10.998   1.563  0.8463 -0.4437  1.2972
40850SOL    HW227681   9.165  11.087   1.466  0.6229 -1.1968  0.4201
40851SOL     OW27682   3.535   9.601   3.870 -0.7729 -0.1671 -0.1702
40851SOL    HW127683   3.493   9.554   3.942 -3.9696  1.0237 -1.1834
40851SOL    HW227684   3.627   9.573   3.874 -0.8609 -0.2063  4.2700
40852SOL     OW27685   2.700   5.178   4.010 -0.6026 -0.6006  0.2907
40852SOL    HW127686   2.734   5.261   3.978  0.7947 -1.4461 -0.5103
40852SOL    HW227687   2.778   5.131   4.041 -1.4422 -1.3851  1.2093
40853SOL     OW27688   5.955   2.800  11.006 -0.4783  0.0449  0.1259
40853SOL    HW127689   5.997   2.758  10.930  0.8432  0.5245  0.5685
40853SOL    HW227690   5.943   2.729  11.069 -0.6333 -0.1583 -0.1316
40854SOL     OW27691   7.065   3.844   5.517  0.2022  0.3110  0.2077
40854SOL    HW127692   7.093   3.928   5.554 -0.3094  0.0847  1.1310
40854SOL    HW227693   7.146   3.795   5.506  0.3316  0.2528  1.3753
40855SOL     OW27694   0.368  11.102   2.680  0.1898 -0.0470  0.1924
40855SOL    HW127695   0.289  11.156   2.687  0.6630  0.3839  2.7980
40855SOL    HW227696   0.403  11.121   2.593 -2.0355  0.4844 -0.6313
40856SOL     OW27697   9.403   2.689   5.480 -0.2307 -0.2175 -0.2033
40856SOL    HW127698   9.333   2.754   5.484 -0.5372 -0.4041 -2.0169
40856SOL    HW227699   9.417   2.662   5.571 -0.9166  1.5124  0.4231
40857SOL     OW27700   8.525  10.371   0.485 -0.1937 -0.0254  0.1051
40857SOL    HW127701   8.572  10.303   0.534 -0.7507 -0.9923 -0.6879
40857SOL    HW227702   8.531  10.449   0.541  0.4630 -0.7162  1.0211
40858SOL     OW27703   0.615   9.599   1.619 -0.3203 -0.0803 -0.7298
40858SOL    HW127704   0.520   9.601   1.631 -0.6807 -0.6462 -3.1732
40858SOL    HW227705   0.630   9.529   1.555  1.6651  0.6067 -1.0628
40859SOL     OW27706   3.415  10.360   1.255  0.1498 -0.3818 -0.1246
40859SOL    HW127707   3.321  10.371   1.242  0.3464 -0.9055 -2.1615
40859SOL    HW227708   3.442  10.301   1.185  2.0435 -0.0317  0.2872
40860SOL     OW27709   8.089   4.411   9.382  0.8024 -0.3795 -0.2518
40860SOL    HW127710   8.078   4.343   9.315 -0.3426  0.2239 -0.7005
40860SOL    HW227711   7.999   4.436   9.404  1.2065  0.3790  0.5383
40861SOL     OW27712   0.681   1.328   9.731  0.1239 -0.7030  0.6068
40861SOL    HW127713   0.707   1.237   9.744  0.5832 -0.9532 -1.9336
40861SOL    HW227714   0.741   1.361   9.665  0.4940  1.7245  2.1149
40862SOL     OW27715   4.359   2.217  10.838  0.4657 -0.3562 -0.2639
40862SOL    HW127716   4.450   2.192  10.820  0.3910 -1.0051  0.2219
40862SOL    HW227717   4.343   2.186  10.927 -0.0125  0.3910 -0.0813
40863SOL     OW27718   8.631   6.991   5.731 -0.0430 -1.3101 -0.0441
40863SOL    HW127719   8.667   6.958   5.813  0.6894 -0.8604 -0.1849
40863SOL    HW227720   8.576   6.920   5.698 -1.4722 -0.9842  1.5354
40864SOL     OW27721   7.068   1.637  11.319  0.0936 -0.5768  0.0888
40864SOL    HW127722   7.074   1.551  11.361 -0.0317 -1.7179 -2.1899
40864SOL    HW227723   7.151   1.647  11.273  0.1495  0.5977  0.4325
40865SOL     OW27724   8.044   3.399   9.854 -0.3246 -0.0681  0.1848
40865SOL    HW127725   7.965   3.453   9.841  0.1078  0.2268 -1.3325
40865SOL    HW227726   8.105   3.430   9.787  1.2594  0.0047  1.6421
40866SOL     OW27727   3.777  11.222   4.372  0.1005  0.0166  0.6738
40866SOL    HW127728   3.757  11.142   4.322  1.3021  0.1734 -0.0660
40866SOL    HW227729   3.844  11.266   4.321  1.6289  0.0150  2.6250
40867SOL     OW27730   0.425   3.249   9.804  0.1040  0.0873  0.3763
40867SOL    HW127731   0.380   3.265   9.721 -2.4920 -0.6850  1.5883
40867SOL    HW227732   0.400   3.324   9.859  1.2580  0.2424  0.7043
40868SOL     OW27733   6.086   9.929   9.737  0.0383  0.4020  0.0875
40868SOL    HW127734   6.138   9.855   9.707  1.2790  0.9234  0.9410
40868SOL    HW227735   6.127  10.005   9.696 -0.0558  0.8130  0.7446
40869SOL     OW27736   7.413  10.601   9.478  0.2331 -0.3628  0.3224
40869SOL    HW127737   7.335  10.549   9.496  0.8429 -0.9386  1.3282
40869SOL    HW227738   7.439  10.576   9.389 -1.4043  0.7174 -0.4825
40870SOL     OW27739   5.672   0.542   0.938 -0.3691 -0.0242 -0.2255
40870SOL    HW127740   5.712   0.461   0.905  0.0221  0.8375 -1.9127
40870SOL    HW227741   5.741   0.584   0.988 -1.0716 -1.5153  2.0572
40871SOL     OW27742   2.208   5.607  10.353 -0.0558  0.6060 -0.1333
40871SOL    HW127743   2.210   5.584  10.446  2.1294  0.4916 -0.1757
40871SOL    HW227744   2.193   5.524  10.308 -0.2464  0.5301  0.0690
40872SOL     OW27745  10.963   5.465   1.241  0.5762  0.3059 -0.2217
40872SOL    HW127746  11.004   5.515   1.171  1.0803 -0.0201 -0.1603
40872SOL    HW227747  11.032   5.407   1.273  0.6817  1.2562  1.3042
40873SOL     OW27748   8.666   3.622   8.195 -0.3794  0.5222 -0.0597
40873SOL    HW127749   8.660   3.535   8.155 -0.5810 -0.5640  2.2313
40873SOL    HW227750   8.759   3.645   8.188  0.0319 -0.7224  0.9574
40874SOL     OW27751   6.024   0.420   6.329 -0.2384  0.3871  0.2703
40874SOL    HW127752   6.047   0.419   6.422  1.5498  3.4253 -0.0870
40874SOL    HW227753   5.965   0.495   6.319 -0.2014  0.2541 -1.1057
40875SOL     OW27754   5.082  10.359   1.045 -0.1568 -0.4065  0.0591
40875SOL    HW127755   5.161  10.304   1.047 -0.0725 -0.2664  0.8885
40875SOL    HW227756   5.044  10.343   0.959  1.9220  1.1605 -1.1905
40876SOL     OW27757   0.820   8.336   0.377  0.7882 -0.3132 -0.3158
40876SOL    HW127758   0.746   8.359   0.433  0.8030 -0.7222 -0.1209
40876SOL    HW227759   0.897   8.364   0.426  0.7487  0.4647 -0.6898
40877SOL     OW27760   6.728   1.749   0.629 -0.4858 -0.1820  0.0790
40877SOL    HW127761   6.752   1.824   0.684  1.5489 -0.6309 -0.1710
40877SOL    HW227762   6.726   1.784   0.540 -1.7800  0.0831  0.2068
40878SOL     OW27763   5.695   4.105   1.511  0.0133 -0.5774 -0.5082
40878SOL    HW127764   5.786   4.131   1.499  0.4819 -1.4551  1.0246
40878SOL    HW227765   5.699   4.017   1.549 -1.4456 -0.2734  0.4159
40879SOL     OW27766  11.050   3.316   1.102 -0.4090  0.3193 -0.0224
40879SOL    HW127767  10.994   3.275   1.168 -1.2848  2.2552  0.4908
40879SOL    HW227768  11.106   3.245   1.070 -2.4533 -1.4369  0.1837
40880SOL     OW27769   9.356   7.986   5.525  0.4210  0.0185 -0.3218
40880SOL    HW127770   9.446   8.006   5.552 -0.8535  2.5410  2.4695
40880SOL    HW227771   9.334   7.905   5.572  0.5707  0.5666  0.7189
40881SOL     OW27772  10.603   1.589  10.218 -0.3137 -0.1547  0.0019
40881SOL    HW127773  10.652   1.583  10.300 -1.6857 -2.1311  0.7155
40881SOL    HW227774  10.645   1.526  10.160 -0.7561 -0.4245 -0.0336
40882SOL     OW27775   1.996   5.165   8.025 -0.0197 -0.4934  0.1793
40882SOL    HW127776   1.941   5.089   8.041  1.1796 -1.1938  1.0147
40882SOL    HW227777   1.934   5.236   8.006 -1.2899 -0.8884  2.6407
40883SOL     OW27778   1.955   8.353   0.681  0.2222 -0.4045 -0.5077
40883SOL    HW127779   1.920   8.322   0.597 -1.0918  0.2933 -0.2283
40883SOL    HW227780   1.907   8.304   0.747 -0.6850  0.9876 -0.1049
40884SOL     OW27781   5.471   3.504   2.882  0.1236  0.2880  0.4505
40884SOL    HW127782   5.537   3.573   2.870  0.5189 -0.4297 -1.7266
40884SOL    HW227783   5.504   3.452   2.954  0.4287  1.6734  1.3398
40885SOL     OW27784   8.633   0.632   9.284 -0.4613 -0.0822 -0.0040
40885SOL    HW127785   8.620   0.670   9.371  1.6368 -0.0707  0.3445
40885SOL    HW227786   8.632   0.707   9.225 -1.2727 -0.0239  0.0819
40886SOL     OW27787   0.129   1.556   7.808 -0.4425  0.1363 -0.2595
40886SOL    HW127788   0.195   1.621   7.784  0.5034 -0.5888  0.3627
40886SOL    HW227789   0.079   1.541   7.727  0.6366  0.1256 -0.9274
40887SOL     OW27790   2.165   1.187   6.429  0.4800 -0.2586  0.1127
40887SOL    HW127791   2.222   1.262   6.416  0.4898 -0.4300 -0.8812
40887SOL    HW227792   2.117   1.179   6.346 -0.7124 -0.3353  0.8049
40888SOL     OW27793  11.284   7.486   2.027 -0.5844 -0.3447  0.2379
40888SOL    HW127794  11.295   7.572   1.987 -0.4436 -0.5223 -0.1096
40888SOL    HW227795  11.223   7.501   2.099 -2.2546 -0.3517 -1.1340
40889SOL     OW27796   9.046   7.141   8.953 -0.3689  0.4062  0.2576
40889SOL    HW127797   9.049   7.089   9.034 -2.2901  2.0248  1.4258
40889SOL    HW227798   8.961   7.119   8.914  0.2851  0.1057 -1.0303
40890SOL     OW27799   1.489  11.071   1.271  0.0080  0.0320  0.2454
40890SOL    HW127800   1.532  11.029   1.346 -2.0268  0.8529  1.9409
40890SOL    HW227801   1.407  11.106   1.308 -2.0957 -1.4548 -2.8097
40891SOL     OW27802   4.729  11.025   9.721  0.2112  0.0410 -0.4855
40891SOL    HW127803   4.728  11.032   9.626  1.5266  1.3902 -0.4233
40891SOL    HW227804   4.650  11.072   9.749  0.5755  0.9054 -0.8648
40892SOL     OW27805   1.863   7.304   3.949 -0.4079 -0.2343 -0.1453
40892SOL    HW127806   1.850   7.216   3.984 -3.6723  0.3728  0.2923
40892SOL    HW227807   1.923   7.345   4.011  0.0205 -1.6778  0.4235
40893SOL     OW27808   0.836   7.751   9.522 -0.4553 -0.0661 -0.0333
40893SOL    HW127809   0.749   7.742   9.561 -1.2953  2.5116 -1.1967
40893SOL    HW227810   0.819   7.782   9.433  1.6413 -0.2520 -0.5156
40894SOL     OW27811   9.367   6.077   9.512  0.2136  0.0049 -0.8653
40894SOL    HW127812   9.334   5.987   9.519  1.1170 -0.3836 -1.4881
40894SOL    HW227813   9.358   6.098   9.419  0.1400  0.5069 -0.7434
40895SOL     OW27814  10.163   6.427   3.236  0.0715  0.3388  0.1982
40895SOL    HW127815  10.084   6.391   3.197  0.2782  0.1024 -0.0028
40895SOL    HW227816  10.151   6.415   3.330 -0.1678  0.3817  0.1745
40896SOL     OW27817  11.156   5.461   2.087 -0.2887  0.1419  0.3521
40896SOL    HW127818  11.160   5.365   2.089  1.6060  0.2238  1.0397
40896SOL    HW227819  11.242   5.488   2.056 -1.0189  1.6247 -0.4320
40897SOL     OW27820   0.288   4.384   9.040  0.0923  0.0711 -0.5809
40897SOL    HW127821   0.221   4.374   9.108  1.5551  0.5320  0.9635
40897SOL    HW227822   0.314   4.476   9.045  1.1110 -0.1984 -0.9045
40898SOL     OW27823   3.911   2.939   8.153 -0.2969  0.2778 -0.5555
40898SOL    HW127824   3.912   3.002   8.225  2.2550  0.0119 -0.2961
40898SOL    HW227825   3.848   2.974   8.091 -0.2515  2.1346  0.4111
40899SOL     OW27826   3.959   9.977   9.576  0.4833  0.4772 -0.1954
40899SOL    HW127827   3.954   9.884   9.552 -1.6770  0.3730  0.5395
40899SOL    HW227828   3.897  10.021   9.517 -0.7017  0.9976  1.3735
40900SOL     OW27829   3.941   2.244   7.760  0.2677 -0.3550  0.6003
40900SOL    HW127830   4.005   2.198   7.814  1.4922  0.9069  0.2380
40900SOL    HW227831   3.948   2.336   7.785 -1.4879 -0.1986  0.6286
40901SOL     OW27832   5.490   0.974   5.469  0.3178  0.4960  0.3616
40901SOL    HW127833   5.459   0.889   5.502  1.7392  0.2622  1.1255
40901SOL    HW227834   5.473   1.035   5.540  0.3003  0.6455  0.2299
40902SOL     OW27835   1.882   9.784   3.098  0.2430 -0.2144  0.5138
40902SOL    HW127836   1.858   9.808   3.187 -1.2880  0.1865  0.0032
40902SOL    HW227837   1.942   9.853   3.069  0.4326 -0.1430  1.0842
40903SOL     OW27838  10.401   9.917   2.475 -0.5390  0.3812  0.5655
40903SOL    HW127839  10.384   9.836   2.525 -1.5362  1.4133  1.9300
40903SOL    HW227840  10.483   9.950   2.511 -0.1506  0.0110  0.0335
40904SOL     OW27841   2.598   3.590   7.575 -0.1694  0.6201 -0.1942
40904SOL    HW127842   2.575   3.521   7.513  0.4992 -0.2467  0.5113
40904SOL    HW227843   2.561   3.670   7.537 -1.7331 -0.2607 -0.5624
40905SOL     OW27844   5.265   1.671   1.124  0.0102  0.3981 -0.6129
40905SOL    HW127845   5.189   1.669   1.066  0.7178 -0.4387 -1.5321
40905SOL    HW227846   5.228   1.673   1.213 -1.0792 -0.5206 -1.0383
40906SOL     OW27847   5.826   0.088   5.539 -0.1174  0.4783  0.1349
40906SOL    HW127848   5.852   0.090   5.447 -1.2303 -0.6511 -0.2179
40906SOL    HW227849   5.888   0.147   5.582 -0.1439  1.7146 -1.4611
40907SOL     OW27850   5.448   0.258  11.021 -0.0242  0.2111 -0.3821
40907SOL    HW127851   5.418   0.337  11.066  0.5072  0.6105 -0.7147
40907SOL    HW227852   5.410   0.265  10.933  1.6683  1.1234 -1.0666
40908SOL     OW27853   0.226   9.178   0.785  1.0972  0.1812 -0.0903
40908SOL    HW127854   0.148   9.233   0.790  0.8547 -0.2127  0.6158
40908SOL    HW227855   0.205   9.112   0.719  1.3358  0.8553 -0.8397
40909SOL     OW27856   2.760   7.061   1.691 -0.0340 -0.1968 -0.2020
40909SOL    HW127857   2.771   7.131   1.755 -0.2199 -1.1425  0.8950
40909SOL    HW227858   2.697   7.001   1.732  0.3589 -1.1593 -0.9802
40910SOL     OW27859  10.109   2.559   0.222 -0.0722 -0.4369 -0.3694
40910SOL    HW127860  10.059   2.536   0.301  0.2841 -0.0527 -0.0328
40910SOL    HW227861  10.122   2.475   0.177  0.6380 -0.8019  0.5113
40911SOL     OW27862   6.221   1.087   5.971  0.2330  0.1191  0.0014
40911SOL    HW127863   6.139   1.137   5.972 -1.0269 -1.8304 -0.8401
40911SOL    HW227864   6.282   1.140   5.920 -0.8264  1.1389 -0.2152
40912SOL     OW27865  10.859   4.277   3.105 -0.2800  0.2801 -0.5910
40912SOL    HW127866  10.920   4.352   3.105 -0.3563  0.3672  1.7603
40912SOL    HW227867  10.787   4.305   3.160  0.3331 -2.0200  1.4700
40913SOL     OW27868   4.004   0.253  10.863  0.1520 -0.2289  0.4218
40913SOL    HW127869   4.093   0.235  10.831 -0.7113 -3.1907 -0.4441
40913SOL    HW227870   4.013   0.260  10.958  1.3117 -0.4448  0.3336
40914SOL     OW27871   0.004  10.812   4.451  0.2573 -0.1752 -0.3295
40914SOL    HW127872  -0.018  10.774   4.367  1.4368  0.6637 -1.0366
40914SOL    HW227873   0.090  10.852   4.438  1.5865 -2.1191  1.9303
40915SOL     OW27874   2.299  11.078   9.226  0.2247 -0.2113 -0.2467
40915SOL    HW127875   2.320  11.154   9.172 -0.0896 -0.0239 -0.1054
40915SOL    HW227876   2.206  11.086   9.244  0.0328 -1.0551 -0.8796
40916SOL     OW27877  10.792   8.372   7.527  0.0226 -0.4854  0.2574
40916SOL    HW127878  10.884   8.375   7.553  0.6759 -0.2063 -1.9648
40916SOL    HW227879  10.768   8.464   7.516  0.7776 -0.6255 -3.3474
40917SOL     OW27880   8.050   5.937   7.661 -0.5086  0.2733 -0.0985
40917SOL    HW127881   8.112   5.915   7.591  1.3394 -0.8117  1.8165
40917SOL    HW227882   7.976   5.877   7.647  0.3450 -0.7152 -0.4617
40918SOL     OW27883   4.304   7.324  10.427 -0.0785  0.2083  0.2226
40918SOL    HW127884   4.256   7.357  10.351  0.1165 -1.2486 -0.5679
40918SOL    HW227885   4.261   7.240  10.447  1.2767 -0.4637  0.3441
40919SOL     OW27886   1.304   3.709  10.604 -0.5574  0.3490  0.4259
40919SOL    HW127887   1.311   3.803  10.591  0.8219  0.6727  3.1735
40919SOL    HW227888   1.210   3.693  10.612 -0.8369  1.3841 -0.5785
40920SOL     OW27889  11.140   4.587   3.562  0.2302 -0.0494 -0.3292
40920SOL    HW127890  11.056   4.610   3.522  0.4163  2.9537  0.9256
40920SOL    HW227891  11.129   4.608   3.655  2.8762  1.8579 -0.4019
40921SOL     OW27892  10.804   9.657   6.171  0.1623 -0.0398 -0.4561
40921SOL    HW127893  10.751   9.735   6.156 -0.3950 -0.3607 -0.1819
40921SOL    HW227894  10.796   9.606   6.090  0.5749  0.2154 -0.6566
40922SOL     OW27895   9.753   1.660   1.010  0.1884 -0.1093 -0.3127
40922SOL    HW127896   9.793   1.692   1.092  0.2583 -0.5189 -0.1841
40922SOL    HW227897   9.661   1.686   1.016 -0.5679 -2.9200  1.3720
40923SOL     OW27898   4.353   3.806   1.216  0.1375  0.2710  0.3306
40923SOL    HW127899   4.416   3.876   1.200 -1.3876  1.3824 -0.8970
40923SOL    HW227900   4.268   3.849   1.218 -1.0128 -1.7193 -2.0655
40924SOL     OW27901  10.187   1.984   9.514  0.0325 -0.1532 -0.0758
40924SOL    HW127902  10.193   1.889   9.521 -0.6334 -0.3313 -1.7213
40924SOL    HW227903  10.277   2.015   9.529  0.3613 -1.0714 -0.1318
40925SOL     OW27904   3.261   1.931   0.844 -0.1017  0.1287  0.4444
40925SOL    HW127905   3.235   1.991   0.914  1.2104  1.1954  0.0494
40925SOL    HW227906   3.322   1.982   0.790  0.1802 -1.2069 -0.5376
40926SOL     OW27907   6.736   0.910   5.740 -0.0312  0.2338 -0.0967
40926SOL    HW127908   6.662   0.937   5.795  0.3566  0.3758  0.3606
40926SOL    HW227909   6.696   0.859   5.670 -0.4102 -1.1998  1.1321
40927SOL     OW27910   9.079   5.098  10.983  0.0556 -0.2107  0.0244
40927SOL    HW127911   9.081   5.181  10.934 -0.7052  0.4789  1.1599
40927SOL    HW227912   9.163   5.095  11.028  0.1563 -0.1549 -0.1574
40928SOL     OW27913   6.947   2.804   7.259  0.0216 -0.3678 -0.0671
40928SOL    HW127914   6.988   2.733   7.307  1.5043 -0.4174 -1.3471
40928SOL    HW227915   7.013   2.873   7.257 -1.2312  0.8868  0.7675
40929SOL     OW27916   0.070   3.448   0.217 -0.2884 -0.0823 -0.4387
40929SOL    HW127917   0.115   3.516   0.267  1.0255 -2.3609  1.5742
40929SOL    HW227918   0.034   3.494   0.142 -0.4533  3.0679  1.4619
40930SOL     OW27919   4.933   5.600   1.598  0.3628  0.1617  0.3945
40930SOL    HW127920   4.872   5.632   1.665 -0.4842 -0.9577  0.1605
40930SOL    HW227921   4.954   5.678   1.546 -0.8110  0.5605  0.5145
40931SOL     OW27922  10.181   9.981   9.061 -0.0927 -0.3218 -0.1522
40931SOL    HW127923  10.104   9.949   9.014 -1.0459 -0.8117  1.7026
40931SOL    HW227924  10.191  10.071   9.032 -2.0394  0.0968  0.4449
40932SOL     OW27925   9.211   2.420  10.207 -0.6104 -0.3629  0.1270
40932SOL    HW127926   9.289   2.407  10.153  2.6373  0.5420  4.4055
40932SOL    HW227927   9.161   2.338  10.197  1.6747 -1.6277 -1.3453
40933SOL     OW27928   6.844   7.866   6.953 -0.1060 -0.3893 -0.3866
40933SOL    HW127929   6.889   7.890   6.872 -2.4572 -0.1844 -1.6843
40933SOL    HW227930   6.890   7.914   7.021  0.5830  1.1415 -1.8894
40934SOL     OW27931   8.773   1.154   4.722  0.0558 -0.7628  0.1600
40934SOL    HW127932   8.795   1.063   4.739  0.4155 -0.5620  0.8006
40934SOL    HW227933   8.688   1.151   4.680 -0.9426 -1.2680  2.1577
40935SOL     OW27934   6.295   9.843   6.045  0.2213  0.0649 -0.1610
40935SOL    HW127935   6.273   9.932   6.018  0.0805 -0.2365 -1.0486
40935SOL    HW227936   6.335   9.854   6.131  0.3459  1.0025 -0.3271
40936SOL     OW27937   1.389  10.103  10.935 -0.5243  0.1130 -0.0539
40936SOL    HW127938   1.424  10.192  10.925  0.7962 -0.4884 -0.9355
40936SOL    HW227939   1.362  10.077  10.847  1.0736 -1.1405 -0.2056
40937SOL     OW27940   1.076   0.219   2.101  0.0662 -0.1790  0.0200
40937SOL    HW127941   1.115   0.142   2.142  0.9929 -0.0663 -0.6308
40937SOL    HW227942   1.079   0.287   2.168 -3.2678 -1.4107  1.5661
40938SOL     OW27943  10.239   3.315   2.538 -0.6459  0.2353 -0.3070
40938SOL    HW127944  10.189   3.383   2.582 -0.2920  1.1676 -1.3199
40938SOL    HW227945  10.236   3.240   2.598 -0.6588  1.2774  1.0270
40939SOL     OW27946   1.536   5.642   9.027 -0.3341 -0.3985 -0.1312
40939SOL    HW127947   1.485   5.716   8.992  1.1034  0.4693 -0.4141
40939SOL    HW227948   1.578   5.604   8.950 -0.3356 -0.9456  0.1401
40940SOL     OW27949   3.013   1.318   7.747  0.0209  0.1950 -0.1239
40940SOL    HW127950   3.045   1.347   7.661 -2.6739 -0.0699 -1.2492
40940SOL    HW227951   3.087   1.269   7.784  1.3852  0.7031 -2.0867
40941SOL     OW27952   0.500   6.429   2.202 -0.3745  0.0485 -0.3951
40941SOL    HW127953   0.498   6.512   2.250  1.2986 -0.7523  1.1308
40941SOL    HW227954   0.407   6.408   2.187 -0.8168  2.3678 -1.1854
40942SOL     OW27955   4.974   0.645   6.773 -0.6451 -0.3594  0.1574
40942SOL    HW127956   4.968   0.550   6.763 -0.4620 -0.2793 -0.6904
40942SOL    HW227957   4.914   0.665   6.845 -0.0682 -1.2059  0.8813
40943SOL     OW27958   4.630   5.530   2.823 -0.3406 -0.4816 -0.1332
40943SOL    HW127959   4.564   5.523   2.891 -0.9810  3.0093 -0.3247
40943SOL    HW227960   4.698   5.586   2.861 -0.4897  1.1420 -2.1546
40944SOL     OW27961   9.545   3.527   3.407  0.1463  0.3208  0.6167
40944SOL    HW127962   9.554   3.436   3.436 -0.6813 -0.2492 -0.8462
40944SOL    HW227963   9.635   3.560   3.402  0.5077 -0.6781  0.3699
40945SOL     OW27964   3.555   4.951   8.505  0.2120 -0.1026 -0.5136
40945SOL    HW127965   3.530   5.023   8.562 -1.5330 -1.0148 -0.1006
40945SOL    HW227966   3.623   4.904   8.553  2.0684  1.7861 -1.1964
40946SOL     OW27967   8.905   6.676   5.439  0.0898 -0.1025  0.7279
40946SOL    HW127968   8.973   6.739   5.417  1.0482 -0.8383  1.5164
40946SOL    HW227969   8.894   6.686   5.534  0.2055 -1.0675  0.8456
40947SOL     OW27970  10.039   3.605   5.012 -0.1175  0.5224  0.1123
40947SOL    HW127971  10.078   3.678   4.964  0.9944  0.4834  0.9425
40947SOL    HW227972   9.949   3.600   4.979 -0.7777  3.4409  1.3359
40948SOL     OW27973   8.589  11.128   7.406  0.1154  0.1388 -0.2744
40948SOL    HW127974   8.624  11.072   7.476 -0.1569 -1.0651 -1.0868
40948SOL    HW227975   8.514  11.171   7.446  0.5686  0.2397  0.4902
40949SOL     OW27976   0.750   0.947   7.302 -0.1851  0.2725  0.3059
40949SOL    HW127977   0.690   0.875   7.287  0.5845 -0.3396  0.1418
40949SOL    HW227978   0.837   0.909   7.292  0.2183  1.7921 -2.4197
40950SOL     OW27979   8.843   0.477   4.005  0.1833  0.9230 -0.3078
40950SOL    HW127980   8.865   0.465   3.913  0.4369  0.1707 -0.1565
40950SOL    HW227981   8.903   0.419   4.052 -0.5335  0.6337  0.2678
40951SOL     OW27982   8.041   9.804   5.335  0.4744  0.2873  0.3599
40951SOL    HW127983   8.058   9.855   5.414  1.8189  3.0332 -1.6376
40951SOL    HW227984   8.109   9.830   5.274 -1.4533 -0.6157 -2.2687
40952SOL     OW27985   6.086  10.427   3.835 -0.1751 -0.0336 -0.9530
40952SOL    HW127986   6.179  10.447   3.847  0.4128 -2.1143 -1.7081
40952SOL    HW227987   6.084  10.374   3.755 -2.2103  1.2448 -1.7686
40953SOL     OW27988   4.158  10.916   0.272 -0.0225  0.2193  0.0578
40953SOL    HW127989   4.208  10.873   0.203 -0.0446  2.5035 -1.4230
40953SOL    HW227990   4.067  10.896   0.253 -0.1167  1.9185 -1.3571
40954SOL     OW27991   7.071   3.898   8.605 -0.6716 -0.0370  0.1943
40954SOL    HW127992   7.090   3.808   8.633  0.2780  0.3612  0.8553
40954SOL    HW227993   7.030   3.888   8.519 -1.0800 -1.1281  0.5076
40955SOL     OW27994   3.897   3.674  10.306 -0.0075  0.1381 -0.2526
40955SOL    HW127995   3.916   3.667  10.213  0.0554  2.8127 -0.4812
40955SOL    HW227996   3.877   3.767  10.320 -1.1756 -0.4182  2.1772
40956SOL     OW27997   9.294   8.083  11.218 -0.1096 -0.0922  0.1814
40956SOL    HW127998   9.390   8.087  11.222 -0.0053 -0.0385 -1.8763
40956SOL    HW227999   9.270   8.145  11.149 -1.5382 -1.1159 -0.2771
40957SOL     OW28000   7.935   3.386  10.589  0.0977  0.0201  0.0884
40957SOL    HW128001   7.883   3.381  10.509 -0.0521 -1.1539  0.2508
40957SOL    HW228002   7.878   3.430  10.652 -0.6435 -1.0958  0.2136
40958SOL     OW28003   1.679   2.351   9.978  0.0281  0.4459 -0.3417
40958SOL    HW128004   1.731   2.357   9.898  0.8272  0.1116  0.1473
40958SOL    HW228005   1.736   2.387  10.046  0.4283 -1.8411  0.5631
40959SOL     OW28006   6.724   0.824  10.238 -0.6293  0.4854  0.3979
40959SOL    HW128007   6.639   0.785  10.216  0.3157 -2.2518  1.4009
40959SOL    HW228008   6.785   0.783  10.177  0.7806 -1.5663  3.0499
40960SOL     OW28009   7.255   0.623   7.519 -0.1658  0.2959  0.0968
40960SOL    HW128010   7.229   0.714   7.531 -0.9439  0.2043 -0.8349
40960SOL    HW228011   7.278   0.615   7.427  1.4731 -0.0692  0.5329
40961SOL     OW28012  10.867   0.682   3.838 -0.8795  0.3115  0.2405
40961SOL    HW128013  10.928   0.620   3.879  0.5888  1.0381 -0.7790
40961SOL    HW228014  10.811   0.712   3.909  1.1356  0.9726  1.6021
40962SOL     OW28015  11.263   9.385   5.801  0.5252 -0.5307  0.3696
40962SOL    HW128016  11.199   9.336   5.854  0.6295 -1.0183  0.0505
40962SOL    HW228017  11.343   9.383   5.852  0.3492 -0.1186  0.6639
40963SOL     OW28018  11.135   4.100   9.698 -0.0501  0.1884 -1.2384
40963SOL    HW128019  11.169   4.120   9.786  0.1059 -0.9347 -1.0449
40963SOL    HW228020  11.089   4.180   9.672 -0.6928  0.2945  0.1558
40964SOL     OW28021   9.281  10.946   1.906 -0.1321 -0.1348  0.0165
40964SOL    HW128022   9.271  10.992   1.990 -1.0434 -2.7712  1.4168
40964SOL    HW228023   9.356  10.988   1.865  0.5241  1.0244  2.2948
40965SOL     OW28024   1.556   7.299   7.930  0.1114 -0.0514  0.0470
40965SOL    HW128025   1.538   7.323   8.020 -1.1801 -4.2554  1.0071
40965SOL    HW228026   1.471   7.278   7.892  0.8308 -0.1801 -1.5630
40966SOL     OW28027   5.792   7.497   6.467  0.5096 -0.3043  0.0450
40966SOL    HW128028   5.719   7.435   6.464  0.9476 -0.7774 -0.8303
40966SOL    HW228029   5.774   7.551   6.545 -0.3419 -0.9386  0.2954
40967SOL     OW28030   1.828   7.373   0.115 -0.0862  0.1677  0.5033
40967SOL    HW128031   1.791   7.292   0.152  1.1089  0.2804  2.0157
40967SOL    HW228032   1.755   7.434   0.114 -1.4362 -1.3769 -2.1897
40968SOL     OW28033   7.089   6.133   1.819 -0.3900  0.3504  0.1611
40968SOL    HW128034   7.087   6.102   1.728  0.2633  0.0972  0.2273
40968SOL    HW228035   7.086   6.228   1.812  2.6380  0.4792 -0.2786
40969SOL     OW28036   6.271  10.133   3.506  0.2886  0.5073 -0.2151
40969SOL    HW128037   6.222  10.190   3.565 -0.4406  0.4794 -0.7893
40969SOL    HW228038   6.207  10.068   3.477  1.1591 -0.7150  0.5846
40970SOL     OW28039   9.047   0.795   9.765  0.6450  0.0898  0.6327
40970SOL    HW128040   9.101   0.812   9.688 -0.4248  0.7341  0.0133
40970SOL    HW228041   8.969   0.848   9.752 -0.1042 -0.7651  1.5686
40971SOL     OW28042   2.637   0.860  10.547 -0.4551 -0.0779  0.5113
40971SOL    HW128043   2.698   0.922  10.507  0.0654  0.0884  1.5526
40971SOL    HW228044   2.686   0.821  10.619 -2.0076  0.9990  2.1636
40972SOL     OW28045   1.011  10.559   3.211 -0.1150  0.2428 -0.1687
40972SOL    HW128046   1.038  10.507   3.135  2.1229 -1.0328  1.4461
40972SOL    HW228047   1.071  10.634   3.210  1.3636 -0.8831  1.5314
40973SOL     OW28048   1.795   1.444   0.672 -0.0692 -0.2412 -0.0954
40973SOL    HW128049   1.843   1.502   0.731 -2.1932  1.2871  0.1812
40973SOL    HW228050   1.746   1.386   0.730  1.0983 -1.5392 -0.3780
40974SOL     OW28051   0.263   2.363   5.136 -0.4914 -0.3625  0.1783
40974SOL    HW128052   0.319   2.411   5.197 -2.4059  0.8576  1.0094
40974SOL    HW228053   0.214   2.302   5.192  1.4339 -2.8906 -0.7853
40975SOL     OW28054   7.947   4.414   6.166  0.1699 -0.0141  0.4255
40975SOL    HW128055   8.024   4.450   6.123 -0.9639  1.5495 -0.3727
40975SOL    HW228056   7.976   4.393   6.254  1.6334  0.0588 -0.0247
40976SOL     OW28057   8.575   4.569   3.484 -0.2281 -0.2834 -0.3665
40976SOL    HW128058   8.538   4.482   3.495  0.1355 -0.2613  1.0347
40976SOL    HW228059   8.595   4.575   3.390 -0.6018 -1.5515 -0.5285
40977SOL     OW28060   1.620   5.701   5.556  0.5638  0.0050 -0.0578
40977SOL    HW128061   1.543   5.739   5.596 -0.3240 -0.4059 -1.3429
40977SOL    HW228062   1.646   5.629   5.615 -1.3649 -1.2956 -0.7534
40978SOL     OW28063   1.997   8.359   9.151  0.0943  0.0896  0.7247
40978SOL    HW128064   2.020   8.274   9.187 -0.8599 -0.0782  0.9664
40978SOL    HW228065   1.905   8.350   9.125  0.9465 -0.0431 -2.4453
40979SOL     OW28066   5.661   0.716   8.664 -0.8406 -0.5262 -0.4589
40979SOL    HW128067   5.606   0.729   8.741 -0.9371  0.7551 -0.7443
40979SOL    HW228068   5.609   0.749   8.591  0.3255  0.7376 -0.7238
40980SOL     OW28069   8.368   0.537   4.447  0.4949  0.3361 -0.5142
40980SOL    HW128070   8.280   0.570   4.465 -0.5240 -1.3005 -2.3445
40980SOL    HW228071   8.419   0.615   4.426 -1.0258  1.1196 -1.4119
40981SOL     OW28072   2.054   7.272   3.142  0.1552 -0.2337 -0.5180
40981SOL    HW128073   2.126   7.216   3.172 -0.7362 -0.8760  0.4675
40981SOL    HW228074   1.978   7.213   3.138 -0.9688  1.0401  1.2667
40982SOL     OW28075  10.576   0.559   8.341  0.5853  0.9180  0.1852
40982SOL    HW128076  10.609   0.604   8.263 -1.8635 -1.1861 -2.1390
40982SOL    HW228077  10.489   0.528   8.317  0.3706 -1.1170  3.2577
40983SOL     OW28078   7.340   6.171   6.124 -0.3954 -0.2633 -0.8902
40983SOL    HW128079   7.361   6.247   6.069 -0.9327 -0.1443 -0.9334
40983SOL    HW228080   7.272   6.124   6.075 -1.2016  0.0862 -0.1171
40984SOL     OW28081   9.993   0.286   2.608 -0.5378  0.2950 -0.4630
40984SOL    HW128082   9.947   0.208   2.577  0.1946 -1.0568  1.7202
40984SOL    HW228083  10.082   0.277   2.573 -0.6383  0.5132 -0.7791
40985SOL     OW28084   4.782   1.036   3.609 -0.1339 -0.0695 -0.0443
40985SOL    HW128085   4.785   0.948   3.570 -2.3451 -0.8563  1.4254
40985SOL    HW228086   4.720   1.084   3.555 -1.0301 -0.2921  0.7585
40986SOL     OW28087   8.827   8.031   3.932 -0.4059 -0.0701  0.3833
40986SOL    HW128088   8.837   8.005   3.840 -0.3012 -0.1972  0.4320
40986SOL    HW228089   8.807   7.950   3.978 -0.6310  0.0204  0.4472
40987SOL     OW28090   4.109   1.066   5.424  0.5110  0.3660 -0.1134
40987SOL    HW128091   4.039   1.002   5.435  1.1313 -0.1228  1.0535
40987SOL    HW228092   4.149   1.043   5.340  0.0470 -0.1029 -0.2087
40988SOL     OW28093  10.465   5.854   4.101 -0.2226 -0.0003  0.3265
40988SOL    HW128094  10.415   5.850   4.020  0.6286  1.2942 -0.2810
40988SOL    HW228095  10.556   5.842   4.074  0.2164  1.9447  0.8865
40989SOL     OW28096   9.123  10.110   4.747  0.0710  0.3659 -0.2375
40989SOL    HW128097   9.059  10.159   4.695 -0.2064 -0.9773 -1.1843
40989SOL    HW228098   9.071  10.043   4.792  0.3544  1.2967  1.5576
40990SOL     OW28099   9.992   9.649   0.600  0.2128 -0.0428  0.6802
40990SOL    HW128100   9.910   9.605   0.578  1.0381 -0.8019 -0.9870
40990SOL    HW228101   9.966   9.739   0.620 -1.0841 -0.4218  0.7848
40991SOL     OW28102   9.004   2.257   3.557 -0.0415 -0.0945  0.3462
40991SOL    HW128103   9.015   2.326   3.492 -0.5292 -0.7785 -0.4828
40991SOL    HW228104   9.000   2.176   3.505  0.3918 -0.7241  1.2887
40992SOL     OW28105  10.693   1.186   5.035 -0.3719  0.2646 -0.0668
40992SOL    HW128106  10.703   1.237   4.954  0.1510  1.1900  0.5635
40992SOL    HW228107  10.606   1.147   5.028 -0.9196  1.5142 -0.4367
40993SOL     OW28108   9.584   1.775  10.287  0.4227  0.3591  0.0253
40993SOL    HW128109   9.581   1.866  10.317 -0.3284 -0.4209  2.3836
40993SOL    HW228110   9.612   1.725  10.363  0.8655 -1.3986 -1.2638
40994SOL     OW28111   7.653   2.403   8.694 -0.2236  0.0139 -0.6067
40994SOL    HW128112   7.569   2.418   8.651 -1.1323 -1.1264  0.7688
40994SOL    HW228113   7.652   2.461   8.771  0.4177  0.2753 -0.7848
40995SOL     OW28114   0.355   1.572   3.333  0.3421 -0.7881 -0.4970
40995SOL    HW128115   0.305   1.552   3.412 -1.1105  1.5861 -0.7582
40995SOL    HW228116   0.405   1.492   3.316 -1.3987 -2.3332  1.2452
40996SOL     OW28117  10.773   5.260  10.398 -0.0526 -0.2931  0.0182
40996SOL    HW128118  10.737   5.226  10.316  0.5980  0.0918 -0.4388
40996SOL    HW228119  10.756   5.354  10.395 -0.7774 -0.3988  0.7188
40997SOL     OW28120   6.136   4.595   0.378  0.2265 -0.3004  0.1918
40997SOL    HW128121   6.177   4.600   0.292  0.4166 -1.8070  0.1757
40997SOL    HW228122   6.192   4.535   0.427  1.0437  1.8054  1.8986
40998SOL     OW28123   7.059   8.439   4.964 -0.0879  0.3593 -0.0433
40998SOL    HW128124   7.046   8.488   4.883 -1.0103  0.9133  0.4244
40998SOL    HW228125   6.988   8.374   4.964  0.9659 -0.8039 -0.5285
40999SOL     OW28126   3.744   7.896   0.920 -0.2369 -0.4348 -0.3944
40999SOL    HW128127   3.836   7.900   0.894 -0.0239  1.3078  0.5068
40999SOL    HW228128   3.705   7.974   0.880 -0.8761 -0.1132  0.8118
41000SOL     OW28129   4.488   7.364   2.304  0.5658  0.4165 -0.1887
41000SOL    HW128130   4.399   7.347   2.333  0.8436  0.1123  0.4952
41000SOL    HW228131   4.541   7.356   2.384  1.2140  0.4888 -0.6106
41001SOL     OW28132   8.376   4.843   6.892  0.3515  0.1790  0.1085
41001SOL    HW128133   8.440   4.804   6.832 -0.5596 -0.0326 -0.7503
41001SOL    HW228134   8.365   4.932   6.859  2.4156  1.2138  2.0536
41002SOL     OW28135   1.140   9.689   6.069 -0.1579 -0.7415 -0.2205
41002SOL    HW128136   1.099   9.767   6.107  0.8898 -0.4362  0.3064
41002SOL    HW228137   1.210   9.724   6.014 -0.7217 -1.2490 -1.2698
41003SOL     OW28138  10.679   1.786   0.900 -0.1883 -0.1725 -0.6675
41003SOL    HW128139  10.687   1.708   0.954  0.1626 -0.5647 -1.2768
41003SOL    HW228140  10.700   1.858   0.958 -1.8487 -0.4044  0.2596
41004SOL     OW28141   9.924  10.630   3.904 -0.1227 -0.2500 -0.5964
41004SOL    HW128142   9.964  10.555   3.860 -1.0702 -0.7881 -0.5556
41004SOL    HW228143   9.918  10.603   3.996  1.7252  0.8112 -0.1519
41005SOL     OW28144   3.586   3.663   5.423 -0.0463  0.2052  0.1912
41005SOL    HW128145   3.600   3.654   5.328 -0.4780 -3.3733  0.3985
41005SOL    HW228146   3.494   3.640   5.435  0.3270 -0.5461  1.6303
41006SOL     OW28147   6.593   3.551   2.045  0.2841  0.3426  0.1902
41006SOL    HW128148   6.664   3.615   2.046  0.4952  0.1095  2.2646
41006SOL    HW228149   6.634   3.469   2.016  0.5307  0.5747 -0.1131
41007SOL     OW28150   5.979   1.299   0.486  0.4593  0.1796 -0.1678
41007SOL    HW128151   5.922   1.348   0.427  0.8310  1.6439  0.6455
41007SOL    HW228152   5.920   1.245   0.538  0.0928 -0.7113 -1.5112
41008SOL     OW28153   0.070   1.065   8.829 -0.0392  0.0340  0.1624
41008SOL    HW128154   0.147   1.118   8.806 -0.3233  0.2221 -0.3482
41008SOL    HW228155   0.023   1.118   8.893  0.9213 -0.6289  1.4452
41009SOL     OW28156   7.211   4.911   8.155 -0.0980 -0.0559  0.2033
41009SOL    HW128157   7.173   4.976   8.214  1.5003  1.7180 -0.6729
41009SOL    HW228158   7.293   4.886   8.196 -1.9121 -3.5401  1.8580
41010SOL     OW28159   5.416  10.923   2.941 -0.1323  0.6016  0.2433
41010SOL    HW128160   5.340  10.869   2.918 -0.9923  1.3154  1.3692
41010SOL    HW228161   5.417  10.993   2.876 -0.5404  0.6828  0.3237
41011SOL     OW28162   5.796   7.502   2.378 -0.2662 -0.1580  0.1575
41011SOL    HW128163   5.730   7.517   2.311  1.0696 -0.4888 -1.2569
41011SOL    HW228164   5.781   7.571   2.443 -0.4445  1.2503 -1.3565
41012SOL     OW28165   0.845   0.935   2.630  0.1577  0.4361 -0.3695
41012SOL    HW128166   0.790   0.992   2.576 -0.5927 -0.4853 -0.6104
41012SOL    HW228167   0.931   0.939   2.589  0.3561  2.1412  0.1990
41013SOL     OW28168   0.248   5.012   0.992  0.4200  0.1809  0.3559
41013SOL    HW128169   0.294   5.035   1.073 -0.0906 -0.7894  0.9238
41013SOL    HW228170   0.163   5.057   0.999 -0.8847 -2.3951  1.8132
41014SOL     OW28171  10.197   8.004   9.914 -0.3310  0.2439  0.6614
41014SOL    HW128172  10.185   8.058   9.836 -2.7754  0.3681  1.0585
41014SOL    HW228173  10.166   8.059   9.986  1.8246  0.0977  1.7216
41015SOL     OW28174   7.541   2.621   8.106  0.1722 -0.3043 -0.6495
41015SOL    HW128175   7.502   2.603   8.021 -1.1803  0.5405 -0.2234
41015SOL    HW228176   7.527   2.540   8.156 -1.2929  0.0817 -0.4157
41016SOL     OW28177   1.762   7.456   8.570 -0.3843 -0.8128  0.3382
41016SOL    HW128178   1.680   7.504   8.579  0.1650  0.1218  0.4001
41016SOL    HW228179   1.744   7.369   8.607 -1.4145 -0.7019  0.0974
41017SOL     OW28180   7.467   3.578   7.198 -0.0102 -0.3241 -0.2743
41017SOL    HW128181   7.556   3.559   7.168 -0.3875 -0.7007 -1.1813
41017SOL    HW228182   7.425   3.619   7.122 -0.2115  1.0963  0.5754
41018SOL     OW28183  11.271   4.809   3.377 -0.0568  0.2619  0.4681
41018SOL    HW128184  11.255   4.722   3.415 -0.6205 -0.5857 -1.5934
41018SOL    HW228185  11.188   4.856   3.389  0.0147  0.2657  0.9541
41019SOL     OW28186   9.918   8.488   3.198 -0.0836  0.3226  0.5193
41019SOL    HW128187   9.977   8.414   3.213 -0.3523  0.4612  2.3897
41019SOL    HW228188   9.876   8.502   3.283 -1.8444  1.0575 -0.4606
41020SOL     OW28189   0.508   3.733  11.010  0.5257 -0.2119 -0.2340
41020SOL    HW128190   0.493   3.812  10.958  0.4864 -0.2313 -0.2523
41020SOL    HW228191   0.423   3.689  11.011  0.2319  0.3658  0.8293
41021SOL     OW28192  10.775   1.801   0.210  0.0201  0.0150 -0.0502
41021SOL    HW128193  10.780   1.716   0.168 -1.5721  1.3180 -3.0404
41021SOL    HW228194  10.701   1.793   0.271 -0.2594 -0.6812 -0.4775
41022SOL     OW28195   7.271   3.498   6.668  0.6898 -0.1470  0.2597
41022SOL    HW128196   7.289   3.518   6.576  1.1928  1.4009  0.6790
41022SOL    HW228197   7.315   3.414   6.683  1.6470  0.1792 -0.5942
41023SOL     OW28198   0.091   8.804   3.562  0.3046  0.7860  0.2865
41023SOL    HW128199   0.134   8.887   3.539 -0.1371  0.5298 -1.6107
41023SOL    HW228200   0.151   8.736   3.531 -0.3532  0.4179 -0.1960
41024SOL     OW28201  10.095   1.146   6.136  0.0606 -0.0547 -0.1919
41024SOL    HW128202  10.052   1.061   6.123  1.6002 -0.7718 -0.7250
41024SOL    HW228203  10.078   1.194   6.054  0.2031 -0.3116 -0.3730
41025SOL     OW28204  10.341   2.206   3.760 -0.2085 -0.4222  0.0158
41025SOL    HW128205  10.251   2.173   3.766 -0.9934  1.6988  0.1356
41025SOL    HW228206  10.332   2.301   3.765  2.0760 -0.2073  0.3296
41026SOL     OW28207   8.260   9.818   5.972 -0.3074 -0.3244  0.7546
41026SOL    HW128208   8.239   9.911   5.976 -1.1243 -0.4204 -0.9775
41026SOL    HW228209   8.355   9.815   5.969 -0.3271  0.5406 -1.0566
41027SOL     OW28210   9.923   9.647   9.303  0.0988 -0.3449 -0.0228
41027SOL    HW128211   9.906   9.631   9.396 -0.4172  0.1458 -0.0257
41027SOL    HW228212   9.837   9.667   9.266  0.5144  1.0588 -0.2777
41028SOL     OW28213   2.168   6.351   7.509  0.5961 -0.1204 -0.1892
41028SOL    HW128214   2.119   6.269   7.508  0.0070  0.2313 -1.2434
41028SOL    HW228215   2.249   6.331   7.462  0.4875 -0.1160 -0.3775
41029SOL     OW28216   9.898   5.960   9.805  0.2060  0.2172  0.0048
41029SOL    HW128217   9.887   5.927   9.716 -0.4472 -0.4670  0.3361
41029SOL    HW228218   9.990   5.986   9.810  1.2377 -3.1695  0.2461
41030SOL     OW28219   1.980   4.488   9.346 -0.0931 -0.5051 -0.4949
41030SOL    HW128220   2.021   4.521   9.426 -1.0164  0.4164 -0.3952
41030SOL    HW228221   2.048   4.435   9.305  1.3071  1.2369 -0.4920
41031SOL     OW28222   1.277   8.867   4.986 -0.5072 -0.1798  0.0146
41031SOL    HW128223   1.254   8.912   5.067  0.3855  0.1321  0.1013
41031SOL    HW228224   1.298   8.777   5.013  0.2378  0.0459  0.1966
41032SOL     OW28225   6.949   3.846   8.338  0.2326 -0.1006 -0.5400
41032SOL    HW128226   6.929   3.906   8.266  0.4600 -1.7321 -1.9860
41032SOL    HW228227   6.990   3.771   8.296 -0.2651 -1.3892  1.2187
41033SOL     OW28228   9.203   9.931   7.521 -0.4323  0.1347  0.4284
41033SOL    HW128229   9.144   9.899   7.590 -1.0347  0.7897  0.2259
41033SOL    HW228230   9.204   9.861   7.456  0.8140 -0.8611  1.4930
41034SOL     OW28231   1.554  10.912   1.529 -0.6279 -0.2219  0.8011
41034SOL    HW128232   1.625  10.902   1.594 -1.4311 -1.4149  1.5108
41034SOL    HW228233   1.538  10.823   1.498 -0.4940  0.3042 -0.8018
41035SOL     OW28234   1.291   9.365   5.890 -0.1235 -0.2640 -0.9998
41035SOL    HW128235   1.343   9.446   5.888 -1.3510  0.5894  0.3332
41035SOL    HW228236   1.326   9.312   5.819  1.2114  1.1367 -1.4094
41036SOL     OW28237  11.061   6.924   9.254 -1.0325  0.4369  0.5206
41036SOL    HW128238  11.083   6.929   9.161  1.1517 -0.5489  0.9588
41036SOL    HW228239  10.986   6.866   9.258  0.6014 -1.7911 -0.3798
41037SOL     OW28240  11.072   8.905   3.035  0.0758 -1.1072  0.3122
41037SOL    HW128241  11.013   8.846   3.081 -0.2465 -1.1044 -0.0898
41037SOL    HW228242  11.052   8.992   3.070 -1.8381 -0.7757 -1.4912
41038SOL     OW28243   0.898   9.489  10.732 -0.0807  0.2476 -0.1945
41038SOL    HW128244   0.993   9.478  10.722  0.0366  1.0122  0.0786
41038SOL    HW228245   0.862   9.406  10.702  0.7133 -0.3004  0.3311
41039SOL     OW28246   0.372   0.374   8.876 -0.3215 -0.2108  0.1997
41039SOL    HW128247   0.404   0.299   8.826  1.9150 -0.0810  1.3465
41039SOL    HW228248   0.295   0.341   8.922 -0.3192 -1.3350 -0.5930
41040SOL     OW28249  10.303   8.170   9.297 -0.4216 -0.2065  0.4403
41040SOL    HW128250  10.344   8.255   9.280 -1.3896  0.2828  0.5564
41040SOL    HW228251  10.376   8.113   9.322  0.5589 -0.0247 -1.8665
41041SOL     OW28252   0.737   1.264   9.066 -0.7378  0.0488 -0.1721
41041SOL    HW128253   0.687   1.191   9.102  0.7599 -1.3147 -0.7551
41041SOL    HW228254   0.686   1.342   9.087 -0.3736 -0.7326  4.0849
41042SOL     OW28255   6.443   2.407   3.317 -0.2961 -0.6084 -0.3612
41042SOL    HW128256   6.502   2.365   3.380 -1.3320 -1.1842  0.2467
41042SOL    HW228257   6.392   2.335   3.281 -0.8863 -0.0704 -0.6023
41043SOL     OW28258   9.873   6.646   2.803 -0.0360 -0.2065  0.5085
41043SOL    HW128259   9.873   6.572   2.863 -1.0170 -0.0324  0.7341
41043SOL    HW228260   9.782   6.676   2.801  0.3914  1.1523  0.6269
41044SOL     OW28261   7.452   9.693   5.995 -0.5003 -0.0483 -0.2619
41044SOL    HW128262   7.547   9.687   6.006 -0.6720  0.3353  1.5150
41044SOL    HW228263   7.419   9.608   6.023 -0.7238 -0.0487 -0.5217
41045SOL     OW28264   9.089   3.714   5.647  0.0697 -0.0319  0.1414
41045SOL    HW128265   9.038   3.659   5.588  0.5462  1.0343 -1.2930
41045SOL    HW228266   9.027   3.742   5.714 -0.9677  0.3696 -0.9822
41046SOL     OW28267  10.205   3.303   8.259  0.1761  0.2495  0.3709
41046SOL    HW128268  10.129   3.347   8.221  0.8053  1.3370  0.3633
41046SOL    HW228269  10.265   3.290   8.186 -0.1497 -0.9532  0.3037
41047SOL     OW28270   9.390   9.563  11.087 -0.5071 -0.4589 -0.0138
41047SOL    HW128271   9.347   9.566  11.001 -0.9788 -1.0734  0.1969
41047SOL    HW228272   9.461   9.500  11.075  1.3844  1.7600 -0.8233
41048SOL     OW28273   3.299   3.928   6.964  0.4755  0.1231  0.0365
41048SOL    HW128274   3.237   3.991   7.000 -0.6773 -0.1422 -1.3769
41048SOL    HW228275   3.310   3.955   6.873  1.1276 -0.8335 -0.1742
41049SOL     OW28276   9.292   8.647   6.279  0.3183  0.3760  0.3845
41049SOL    HW128277   9.285   8.691   6.194 -1.1049 -0.8407 -0.1553
41049SOL    HW228278   9.333   8.563   6.258 -0.5522 -0.1578  0.8150
41050SOL     OW28279   7.214  10.802   5.744  0.2862 -0.0996  0.3972
41050SOL    HW128280   7.185  10.803   5.836  1.1619 -0.3295  0.6780
41050SOL    HW228281   7.300  10.843   5.745  0.0392  0.4511 -0.4241
41051SOL     OW28282   8.702   1.442   0.858 -0.7608  0.0531  0.0301
41051SOL    HW128283   8.622   1.436   0.909  0.1795 -0.5520  1.4460
41051SOL    HW228284   8.754   1.366   0.884 -0.0311  0.0279 -1.4200
41052SOL     OW28285   2.772   2.931  10.534  0.0562  0.3545 -0.1717
41052SOL    HW128286   2.757   2.850  10.583  1.8293  0.0727 -0.0382
41052SOL    HW228287   2.701   2.989  10.559  1.8174  0.8230  4.0976
41053SOL     OW28288   2.152   3.330   9.225  0.4980 -0.3183  0.1642
41053SOL    HW128289   2.102   3.347   9.145 -3.5360  0.9004  2.7402
41053SOL    HW228290   2.128   3.240   9.249  1.9363 -0.7891 -0.1424
41054SOL     OW28291   0.809   6.799   0.034 -0.3648  0.1157  0.5945
41054SOL    HW128292   0.876   6.820   0.099  0.9659 -1.0755 -0.3628
41054SOL    HW228293   0.839   6.841  -0.046 -1.5834  0.8997  0.5397
41055SOL     OW28294   3.386   1.225   6.751 -0.3014  0.2922  0.1054
41055SOL    HW128295   3.364   1.164   6.821 -0.5365 -0.9519 -1.0173
41055SOL    HW228296   3.315   1.288   6.750 -0.7787 -0.2373  0.3717
41056SOL     OW28297   4.568   4.553   5.365 -0.5470  0.0790 -0.4137
41056SOL    HW128298   4.538   4.584   5.279 -2.5821  1.0647  0.6160
41056SOL    HW228299   4.553   4.458   5.363 -1.7780  0.2712 -0.6993
41057SOL     OW28300  10.965   8.594   7.792 -0.6164  0.2255 -0.1910
41057SOL    HW128301  10.975   8.670   7.850 -2.1407 -0.1082  0.5455
41057SOL    HW228302  11.053   8.577   7.759 -0.0944  1.7353  0.3743
41058SOL     OW28303  10.293   8.304  10.672 -0.0785  0.2435  0.0677
41058SOL    HW128304  10.344   8.224  10.658 -2.3583 -1.1258 -0.6230
41058SOL    HW228305  10.202   8.275  10.671 -0.9156  2.7599  0.5056
41059SOL     OW28306   5.553   7.038   9.846 -0.3752 -0.2526 -0.3786
41059SOL    HW128307   5.606   6.967   9.883 -1.8955 -1.4551 -0.4925
41059SOL    HW228308   5.463   7.016   9.871 -0.8202  1.8479 -0.0633
41060SOL     OW28309   4.446   4.490  10.776 -0.5080 -0.0712  0.3311
41060SOL    HW128310   4.511   4.513  10.709 -0.8316  0.8794  0.3260
41060SOL    HW228311   4.398   4.417  10.738 -0.6478  0.4186 -0.4663
41061SOL     OW28312   0.523   6.299   8.507 -0.4728  0.0285  0.4288
41061SOL    HW128313   0.554   6.338   8.426 -0.1715 -0.5669  0.2531
41061SOL    HW228314   0.594   6.314   8.570 -0.8900  0.8727  0.6995
41062SOL     OW28315   1.715   2.153   7.971 -0.4900 -0.4783  0.5812
41062SOL    HW128316   1.795   2.101   7.961 -0.1315  0.0536  0.6828
41062SOL    HW228317   1.644   2.090   7.956 -0.0394 -0.4397 -1.9026
41063SOL     OW28318   2.094  10.184   9.296 -0.6910  0.3350 -0.6094
41063SOL    HW128319   2.063  10.102   9.257 -0.5352 -0.5955  1.1795
41063SOL    HW228320   2.181  10.197   9.259  0.5473 -1.9122  1.3233
41064SOL     OW28321   5.503   2.813   6.071  0.0149 -0.0921  0.0117
41064SOL    HW128322   5.457   2.812   5.987 -0.5257 -0.0465  0.3030
41064SOL    HW228323   5.459   2.882   6.121  0.6826  0.2378  0.1410
41065SOL     OW28324   7.659   5.330  10.148 -0.1343 -0.5563 -0.1487
41065SOL    HW128325   7.625   5.350  10.060 -1.9163 -0.8166  0.4689
41065SOL    HW228326   7.733   5.272  10.132  0.2498  0.2879 -1.5425
41066SOL     OW28327   8.796   5.284   4.381  0.3080 -0.2369  1.0141
41066SOL    HW128328   8.749   5.367   4.380  0.4059 -0.1677 -2.3980
41066SOL    HW228329   8.885   5.306   4.353  0.2772 -1.4861 -0.1322
41067SOL     OW28330   8.624   2.144   0.319  0.3617 -0.3636 -0.5219
41067SOL    HW128331   8.650   2.206   0.388  0.7936 -1.8040  0.6287
41067SOL    HW228332   8.700   2.088   0.307 -0.6806 -1.8499 -0.2406
41068SOL     OW28333   2.407  10.756   2.743  0.1589 -0.1732  0.3254
41068SOL    HW128334   2.407  10.666   2.711 -1.5562 -0.1415  0.2157
41068SOL    HW228335   2.318  10.772   2.772  0.1989  1.7836 -0.5094
41069SOL     OW28336   2.268   6.547   4.979 -0.1024  0.0040 -0.3313
41069SOL    HW128337   2.173   6.548   4.966 -0.3528  0.6483  1.4369
41069SOL    HW228338   2.291   6.638   4.996  0.8006 -0.1938 -0.4598
41070SOL     OW28339   1.551   0.325   7.627  0.6222  0.0538 -0.1472
41070SOL    HW128340   1.539   0.259   7.559  2.9846  1.2545 -1.7681
41070SOL    HW228341   1.469   0.375   7.626 -1.0484 -2.5501  0.8596
41071SOL     OW28342   4.398   5.356   7.482  0.4090  0.0750  0.1949
41071SOL    HW128343   4.483   5.317   7.502  1.5362  2.2688 -0.2246
41071SOL    HW228344   4.388   5.427   7.545 -1.8854 -1.1693  1.3177
41072SOL     OW28345  10.695   2.780   9.931 -0.0347 -0.0102 -0.2038
41072SOL    HW128346  10.677   2.726  10.008 -2.4487 -1.8264 -1.9536
41072SOL    HW228347  10.689   2.870   9.962 -1.8842 -0.7107  1.5566
41073SOL     OW28348   1.362  10.491   5.848 -0.5481  0.6787  0.0875
41073SOL    HW128349   1.375  10.582   5.877 -0.4855  0.8653 -0.5243
41073SOL    HW228350   1.366  10.440   5.929 -0.5762  1.2215  0.4365
41074SOL     OW28351   5.090   4.341   7.104  0.0887 -0.0637 -0.0951
41074SOL    HW128352   5.177   4.337   7.145  0.3528 -2.4075 -0.8156
41074SOL    HW228353   5.032   4.367   7.175  1.1071 -0.3037  0.8491
41075SOL     OW28354   1.386   6.403   5.397 -0.0047  0.2297  0.0394
41075SOL    HW128355   1.417   6.464   5.330  1.2583 -0.5205 -0.0698
41075SOL    HW228356   1.310   6.360   5.357  0.9830 -0.5115 -1.0869
41076SOL     OW28357   8.682   5.179   6.793 -0.1293 -0.0480 -0.1550
41076SOL    HW128358   8.599   5.193   6.747 -0.2639 -0.6384 -0.0959
41076SOL    HW228359   8.679   5.239   6.867  0.1016  0.9333 -0.9346
41077SOL     OW28360   5.442   4.915  10.897  0.2074 -0.4767 -0.2639
41077SOL    HW128361   5.489   4.980  10.948 -1.2206  0.5126 -0.1670
41077SOL    HW228362   5.408   4.963  10.821 -0.2906 -1.2519 -0.5431
41078SOL     OW28363   8.120   2.975   1.110  0.5506  0.2325 -0.9143
41078SOL    HW128364   8.073   3.033   1.051  0.5078  0.2824 -0.8324
41078SOL    HW228365   8.179   3.032   1.159 -0.2419  0.3627 -0.0950
41079SOL     OW28366   7.365   0.608   5.284  0.1445  0.4210 -0.4970
41079SOL    HW128367   7.406   0.632   5.367 -0.0012 -1.1790  0.0587
41079SOL    HW228368   7.429   0.549   5.242 -0.7929 -0.6632 -0.4311
41080SOL     OW28369  10.847   4.050   3.768  0.8452  0.9977 -0.0696
41080SOL    HW128370  10.829   4.032   3.676 -2.4891  0.0923  0.6675
41080SOL    HW228371  10.896   3.974   3.799  1.7128  1.1695 -1.0041
41081SOL     OW28372  10.946   7.553   6.125 -0.4170  0.1870  0.7149
41081SOL    HW128373  11.005   7.524   6.194 -0.9645 -1.9463  0.3245
41081SOL    HW228374  10.868   7.584   6.171 -0.3484 -0.2071  1.0925
41082SOL     OW28375   1.238  10.195   5.016 -0.2423 -0.4530 -0.3235
41082SOL    HW128376   1.237  10.150   4.932 -0.8867 -1.3214  0.1393
41082SOL    HW228377   1.160  10.251   5.014 -0.5578 -0.8865 -0.0803
41083SOL     OW28378   8.996   5.961   2.544 -0.5484  0.2671 -0.2041
41083SOL    HW128379   8.925   5.897   2.540 -0.4104  0.0947  0.0843
41083SOL    HW228380   9.012   5.986   2.453 -0.5527 -0.1607 -0.3187
41084SOL     OW28381   1.416   9.411   4.194 -0.1387 -0.0463 -0.1072
41084SOL    HW128382   1.396   9.388   4.103 -0.2107  0.1019 -0.1295
41084SOL    HW228383   1.506   9.380   4.208 -0.6954 -1.5156  0.2709
41085SOL     OW28384   3.813   3.529  10.730  0.3177 -0.1523 -0.0484
41085SOL    HW128385   3.738   3.471  10.739  1.2046 -1.5422 -1.3313
41085SOL    HW228386   3.780   3.603  10.680  0.0956 -1.3534 -1.7189
41086SOL     OW28387   7.224   7.275   3.695 -0.5948  0.2835 -0.2414
41086SOL    HW128388   7.182   7.228   3.624 -0.2898  0.0417 -0.2640
41086SOL    HW228389   7.250   7.206   3.757 -0.6221  0.4669 -0.0263
41087SOL     OW28390   0.089   6.458   8.978 -0.0013  0.1344 -0.0122
41087SOL    HW128391   0.025   6.440   9.047  0.2851  0.4180  0.3241
41087SOL    HW228392   0.161   6.503   9.022  0.7615 -0.8345 -0.2648
41088SOL     OW28393   1.372   9.498   7.074  0.1205 -0.0576  0.1346
41088SOL    HW128394   1.462   9.469   7.057 -0.5130 -1.3476 -1.1456
41088SOL    HW228395   1.325   9.417   7.095 -1.3732  0.1746 -2.1017
41089SOL     OW28396   2.490   7.640   5.159  0.0961 -0.1237 -0.6132
41089SOL    HW128397   2.402   7.675   5.147  0.7040  1.8338  0.4757
41089SOL    HW228398   2.545   7.691   5.100  0.9661  0.6967  0.8629
41090SOL     OW28399   6.511   2.180   9.550 -0.8950 -0.4833 -0.3895
41090SOL    HW128400   6.477   2.113   9.491  0.8648 -1.2150 -0.6182
41090SOL    HW228401   6.458   2.172   9.629 -0.6651 -2.2042 -0.3938
41091SOL     OW28402   6.191   3.208  10.450 -0.0604 -0.1656  0.0554
41091SOL    HW128403   6.250   3.158  10.506  1.2731  0.3425 -0.8713
41091SOL    HW228404   6.188   3.159  10.368  0.0238  0.4356 -0.3139
41092SOL     OW28405   8.022   5.381  10.444  0.0941 -0.2217 -0.3942
41092SOL    HW128406   8.106   5.391  10.400  0.0546  0.0449 -0.4108
41092SOL    HW228407   8.038   5.313  10.510  1.0591  1.7016  1.4126
41093SOL     OW28408  10.565   3.327   8.642  0.5767  0.0511 -1.1250
41093SOL    HW128409  10.546   3.350   8.552 -0.4225  2.4381 -0.3328
41093SOL    HW228410  10.485   3.284   8.674  0.9803 -0.9181 -1.4038
41094SOL     OW28411   9.525   8.297   8.316 -0.1404  0.1509  0.4485
41094SOL    HW128412   9.568   8.373   8.356  1.6233  0.4299 -1.8337
41094SOL    HW228413   9.434   8.325   8.304  0.4736  1.9144 -0.3262
41095SOL     OW28414   3.424   4.152   8.217  0.4074  0.1169  0.4968
41095SOL    HW128415   3.388   4.143   8.129  0.2856 -0.6233  0.6216
41095SOL    HW228416   3.471   4.071   8.233 -1.4871 -0.7373  1.9677
41096SOL     OW28417   2.957   9.691   3.880 -0.0913  0.1051 -0.7096
41096SOL    HW128418   2.910   9.729   3.806 -0.2188  1.0241 -0.1769
41096SOL    HW228419   3.049   9.712   3.863 -0.2568  1.5892  0.0840
41097SOL     OW28420   3.037   7.075   0.168 -0.0744  0.2999 -0.3513
41097SOL    HW128421   3.024   6.982   0.151  0.1543  0.0579  0.7375
41097SOL    HW228422   3.129   7.091   0.147 -0.1130  0.2838 -0.5351
41098SOL     OW28423   1.557   6.323   7.520 -0.5714  0.0856 -0.1284
41098SOL    HW128424   1.565   6.237   7.562 -0.6801 -0.6298 -1.5452
41098SOL    HW228425   1.540   6.303   7.428  0.5339  1.6187 -0.6855
41099SOL     OW28426   4.780  10.980   4.582 -0.1981 -0.0079 -0.4457
41099SOL    HW128427   4.836  11.058   4.590 -1.7761  1.3586 -2.0443
41099SOL    HW228428   4.841  10.908   4.569  1.2509  1.2716 -0.9743
41100SOL     OW28429   7.628   5.159   9.728  0.1835 -0.2809 -0.1338
41100SOL    HW128430   7.685   5.236   9.727  0.1635 -0.2581  0.3561
41100SOL    HW228431   7.551   5.186   9.678  0.4280 -0.1763 -0.4551
41101SOL     OW28432   4.426  10.560   4.587 -0.3965 -0.6546 -0.2107
41101SOL    HW128433   4.520  10.569   4.569  0.0124  0.5885  2.4011
41101SOL    HW228434   4.386  10.563   4.500  1.9648 -1.2272 -1.3796
41102SOL     OW28435   8.656   5.004   1.682  0.2540  0.0722  0.4278
41102SOL    HW128436   8.629   4.961   1.600  0.4783  1.2156 -0.2566
41102SOL    HW228437   8.706   4.936   1.728  0.5665 -0.4308 -0.6208
41103SOL     OW28438   5.294   9.447   0.150 -0.1164  0.0815 -0.9175
41103SOL    HW128439   5.297   9.468   0.057  3.1847  1.6821 -0.5513
41103SOL    HW228440   5.353   9.372   0.159  1.3458  1.3177  0.1432
41104SOL     OW28441   0.586   6.296   5.934  0.1687 -0.2167  0.0199
41104SOL    HW128442   0.591   6.223   5.872  2.3020 -0.5202  0.5057
41104SOL    HW228443   0.621   6.261   6.016 -1.3776  0.5773  1.0480
41105SOL     OW28444   9.629   6.800   2.747 -0.3555  0.3104 -0.0811
41105SOL    HW128445   9.670   6.882   2.720 -0.1958  0.0652 -0.6043
41105SOL    HW228446   9.643   6.741   2.673 -0.1788 -0.2930  0.4276
41106SOL     OW28447   5.804   5.121  10.146 -0.1682  0.6408  0.6597
41106SOL    HW128448   5.741   5.159  10.207 -0.1532 -1.6094  2.1547
41106SOL    HW228449   5.751   5.068  10.087  0.1766 -0.2205  1.1113
41107SOL     OW28450   5.791   3.343   6.186 -0.6645 -0.3141  0.1106
41107SOL    HW128451   5.883   3.365   6.168 -1.4000  3.1638  0.1915
41107SOL    HW228452   5.790   3.313   6.276  0.7249 -2.6910 -0.6297
41108SOL     OW28453   9.712   4.955   3.939  0.3431 -0.4899 -0.4303
41108SOL    HW128454   9.687   4.982   4.027 -0.1375 -0.4017 -0.5959
41108SOL    HW228455   9.647   4.891   3.913  0.3580 -0.3597 -0.8049
41109SOL     OW28456   9.689   8.215   8.597  0.3901  0.2313 -0.0330
41109SOL    HW128457   9.666   8.122   8.606  1.2893  0.1357  1.3810
41109SOL    HW228458   9.666   8.254   8.681  2.1051  0.8302  0.1765
41110SOL     OW28459   0.579   3.722   3.131  0.2093 -0.0483 -0.1399
41110SOL    HW128460   0.649   3.713   3.196  0.9151  1.1551 -0.7018
41110SOL    HW228461   0.526   3.795   3.164  0.3370  0.2970 -0.6966
41111SOL     OW28462   3.995   6.337   0.739  0.0362 -0.0179 -0.3390
41111SOL    HW128463   4.056   6.283   0.690 -1.5453 -1.9415 -0.2542
41111SOL    HW228464   4.018   6.427   0.715  0.9099 -0.8224 -2.6550
41112SOL     OW28465   8.496   2.576  10.762  0.5848  0.3537  0.5486
41112SOL    HW128466   8.463   2.624  10.687  0.5564 -0.8858 -0.2454
41112SOL    HW228467   8.531   2.495  10.725  0.1093 -0.4925  1.9205
41113SOL     OW28468   8.001   6.034   1.726 -1.3175 -0.3479  0.0265
41113SOL    HW128469   7.910   6.052   1.704 -0.5462  0.8739 -2.2655
41113SOL    HW228470   8.051   6.102   1.681  0.7972 -1.4485  0.6363
41114SOL     OW28471  11.107   1.499   4.047 -0.1135  0.3790  0.2166
41114SOL    HW128472  11.109   1.496   4.143  0.3876  0.5206  0.2178
41114SOL    HW228473  11.020   1.532   4.026 -0.2698  0.2378  0.6203
41115SOL     OW28474   9.093   2.859   9.885  0.6115 -0.5004 -0.2450
41115SOL    HW128475   9.118   2.769   9.903 -0.1666 -0.7740 -0.4946
41115SOL    HW228476   9.165   2.895   9.834  0.7206 -1.1243 -0.5342
41116SOL     OW28477   3.344   5.707   2.128  0.0222  0.0136 -0.1986
41116SOL    HW128478   3.409   5.663   2.181 -0.0503 -0.7313 -0.7199
41116SOL    HW228479   3.265   5.709   2.182  0.1537 -0.0865 -0.0052
41117SOL     OW28480  10.709   2.174   1.416 -0.0503  0.6024  0.2510
41117SOL    HW128481  10.723   2.251   1.361 -0.2986  2.1907  2.3287
41117SOL    HW228482  10.777   2.179   1.483  0.4837 -1.4944 -0.1025
41118SOL     OW28483   0.272   9.985   6.449 -0.1715 -0.1206  0.4651
41118SOL    HW128484   0.331   9.989   6.525 -1.0158  0.8552  1.0663
41118SOL    HW228485   0.302  10.055   6.392  0.5496 -0.9401 -0.1773
41119SOL     OW28486   5.215   6.149  10.871  0.3697 -0.4046 -0.5383
41119SOL    HW128487   5.158   6.211  10.825  0.2478 -0.7682 -0.8729
41119SOL    HW228488   5.205   6.172  10.964  2.1914  1.6873 -0.8210
41120SOL     OW28489   5.969   1.524   6.718 -0.2953  0.0170 -0.3135
41120SOL    HW128490   5.879   1.516   6.750 -0.1095 -1.6436 -0.1681
41120SOL    HW228491   5.969   1.605   6.668 -1.7965  0.2079 -0.0390
41121SOL     OW28492   2.901   5.782   8.748 -0.6030  0.1250  0.5323
41121SOL    HW128493   2.902   5.699   8.700  0.7033  0.2837  0.2726
41121SOL    HW228494   2.970   5.834   8.708 -0.3862  0.7589  1.7081
41122SOL     OW28495   0.541   1.934   4.994  0.0018 -0.5999 -0.2745
41122SOL    HW128496   0.572   1.991   4.923  0.3706 -2.0687 -1.3106
41122SOL    HW228497   0.465   1.980   5.030 -2.3451 -1.4509 -3.9036
41123SOL     OW28498   5.324   7.488  11.235  0.6937 -0.1298 -0.7174
41123SOL    HW128499   5.273   7.477  11.316  2.4538 -2.4144  0.1324
41123SOL    HW228500   5.404   7.531  11.263  0.9720 -0.2195 -1.3710
41124SOL     OW28501   7.910   6.375   0.425  0.5615  0.0120  0.3317
41124SOL    HW128502   7.935   6.285   0.443  3.5916  0.8752  0.7639
41124SOL    HW228503   7.964   6.427   0.484 -1.6300  2.0977  0.5758
41125SOL     OW28504  10.362   4.003   1.124  0.0888 -0.6349 -0.1437
41125SOL    HW128505  10.342   3.962   1.208 -1.0032 -0.7683 -0.4613
41125SOL    HW228506  10.399   3.932   1.071  3.0770 -0.0037  1.0023
41126SOL     OW28507   3.524   4.207   1.505 -0.1082  0.4685 -0.7554
41126SOL    HW128508   3.513   4.117   1.474  2.0666  0.2386 -0.9748
41126SOL    HW228509   3.527   4.260   1.424  0.9662  0.4304 -0.7514
41127SOL     OW28510   6.527  11.064   6.734  0.7334  0.8235  0.7080
41127SOL    HW128511   6.550  10.972   6.749 -0.3388  0.1394 -1.6690
41127SOL    HW228512   6.603  11.101   6.690 -0.2463  0.1147 -1.6403
41128SOL     OW28513   3.594  10.976   4.297  0.3240  0.2418 -0.1219
41128SOL    HW128514   3.674  10.937   4.262 -0.3822 -1.2154 -0.1569
41128SOL    HW228515   3.587  10.941   4.386 -0.8077 -0.4689 -0.4768
41129SOL     OW28516   0.031   6.886   7.021  0.2056  0.3047 -0.1713
41129SOL    HW128517  -0.053   6.918   6.987  0.8003  0.7677 -1.2271
41129SOL    HW228518   0.068   6.962   7.065 -0.0804  0.0043  0.5868
41130SOL     OW28519   2.450   0.229   1.962 -0.3727  0.1926  0.5141
41130SOL    HW128520   2.410   0.295   2.018 -0.5098 -0.6304  1.4007
41130SOL    HW228521   2.542   0.256   1.955 -0.7928  1.3780 -0.4804
41131SOL     OW28522  10.596   3.748   3.346 -0.0757  0.0980  0.7182
41131SOL    HW128523  10.580   3.658   3.375  0.8006 -0.3501 -0.1373
41131SOL    HW228524  10.538   3.801   3.399 -1.3087 -1.0695  0.5739
41132SOL     OW28525   7.165   5.651   2.388 -0.5280  0.2046  0.1239
41132SOL    HW128526   7.153   5.575   2.332 -0.5548  0.6791 -0.5225
41132SOL    HW228527   7.157   5.617   2.477 -0.2594 -0.5920 -0.1554
41133SOL     OW28528   2.034   9.484  10.289  0.1006 -0.2760 -0.7331
41133SOL    HW128529   1.940   9.497  10.305 -0.0255 -0.0211 -1.6805
41133SOL    HW228530   2.038   9.406  10.233  0.4960 -0.6540 -0.1905
41134SOL     OW28531  10.306  10.508   8.163 -0.5951  0.3301 -0.6490
41134SOL    HW128532  10.273  10.598   8.170 -0.6316  0.3978 -1.6179
41134SOL    HW228533  10.264  10.474   8.084 -0.6840 -0.5859 -0.2069
41135SOL     OW28534   7.730   8.972   6.415  0.0765 -0.5647  0.0858
41135SOL    HW128535   7.776   8.935   6.340  3.1905  1.6453  0.8427
41135SOL    HW228536   7.769   9.058   6.428 -0.7318 -0.6692  3.9371
41136SOL     OW28537   4.979   8.316   2.167 -0.2940 -0.3854 -0.0018
41136SOL    HW128538   5.009   8.407   2.160 -0.8988 -0.1740  0.0674
41136SOL    HW228539   5.008   8.287   2.253 -1.2174  0.1653  0.5001
41137SOL     OW28540   9.909   9.618   8.736 -0.7343 -0.6509 -0.1255
41137SOL    HW128541   9.813   9.618   8.737 -0.7507 -0.4727  2.2476
41137SOL    HW228542   9.933   9.526   8.731 -1.0717 -0.8236  1.1024
41138SOL     OW28543   5.162   7.939   9.329  0.3972  0.1453  0.0567
41138SOL    HW128544   5.094   7.877   9.354  1.5144 -0.2902  2.0788
41138SOL    HW228545   5.238   7.914   9.380  1.3799  2.1398 -0.3657
41139SOL     OW28546   8.406   6.850   9.409  0.3893  0.0992  0.2398
41139SOL    HW128547   8.354   6.921   9.446 -1.9774 -1.2252 -0.4549
41139SOL    HW228548   8.403   6.781   9.476  0.7809 -0.1916 -0.0394
41140SOL     OW28549   2.684   6.604   8.387 -0.2871 -0.4436 -0.1862
41140SOL    HW128550   2.746   6.614   8.314 -1.6266 -0.7326 -1.4000
41140SOL    HW228551   2.599   6.628   8.349 -0.9763 -0.3901  1.3496
41141SOL     OW28552   3.597   7.429   4.644 -0.6357  0.2651 -0.4240
41141SOL    HW128553   3.577   7.337   4.630 -2.9632  0.7550 -0.5882
41141SOL    HW228554   3.516   7.466   4.680  0.3202  2.1963 -0.1671
41142SOL     OW28555   3.562  10.727   5.583  0.3864  0.3294  0.1186
41142SOL    HW128556   3.500  10.655   5.567 -0.8798  1.7989 -1.7638
41142SOL    HW228557   3.648  10.689   5.562 -0.2273 -0.7473 -0.5403
41143SOL     OW28558   3.590   4.147   4.911 -0.1344  0.2481 -0.2042
41143SOL    HW128559   3.516   4.087   4.902 -0.6628  0.5325  2.0973
41143SOL    HW228560   3.552   4.234   4.899  0.2406  0.2665 -1.3044
41144SOL     OW28561   5.005   4.185   8.507  0.5177 -0.2544  0.4180
41144SOL    HW128562   5.034   4.097   8.532  0.1387  0.2351  2.6624
41144SOL    HW228563   4.911   4.185   8.526  0.5914  0.7624  0.7909
41145SOL     OW28564  11.316   1.547   8.692  0.3836  0.1718 -0.0852
41145SOL    HW128565  11.301   1.455   8.669  0.5524  0.2683 -0.5975
41145SOL    HW228566  11.409   1.552   8.712  0.3354  0.1893  0.1352
41146SOL     OW28567   7.416   1.832  10.778  0.2142 -0.0043 -0.0850
41146SOL    HW128568   7.461   1.788  10.705 -2.5903  0.0668 -1.9435
41146SOL    HW228569   7.473   1.905  10.801  1.7954 -0.8228 -1.3286
41147SOL     OW28570  10.661   0.267   3.375  0.0047 -0.9725  0.5796
41147SOL    HW128571  10.615   0.330   3.432 -0.7223  0.3085 -1.3642
41147SOL    HW228572  10.726   0.320   3.328  0.0456 -1.8391 -0.3566
41148SOL     OW28573   2.460   5.195   2.386  0.9302 -0.0700 -0.0843
41148SOL    HW128574   2.392   5.201   2.318  0.4384 -1.1149  0.3080
41148SOL    HW228575   2.489   5.104   2.383  0.8987 -0.1274  1.1136
41149SOL     OW28576   2.669   7.499   1.488  0.1237  0.2504  0.3502
41149SOL    HW128577   2.608   7.425   1.490  1.4087 -0.9618 -1.9754
41149SOL    HW228578   2.684   7.521   1.580 -0.5882 -2.1503  1.0723
41150SOL     OW28579   9.675   4.251   4.087  0.3343 -0.1457 -0.2190
41150SOL    HW128580   9.586   4.241   4.054 -0.3530  1.7966  0.9581
41150SOL    HW228581   9.701   4.163   4.114 -1.4547 -0.6330 -0.0050
41151SOL     OW28582   0.537   0.752   2.897 -0.1442 -0.2228  0.5522
41151SOL    HW128583   0.630   0.777   2.897  0.4162 -2.1844  0.9238
41151SOL    HW228584   0.522   0.719   2.986 -0.1538 -3.5196 -0.6091
41152SOL     OW28585   1.501  10.199   2.286  0.3497 -0.4067 -0.2679
41152SOL    HW128586   1.508  10.227   2.377 -0.1312  1.8123 -0.8778
41152SOL    HW228587   1.413  10.226   2.260  0.6127 -0.7075 -1.4780
41153SOL     OW28588   1.588   5.819   6.584  0.5023 -0.3120  0.0402
41153SOL    HW128589   1.534   5.742   6.602 -0.1776  0.1363 -0.0665
41153SOL    HW228590   1.651   5.789   6.518  0.6346 -0.9390  0.4454
41154SOL     OW28591  10.519   9.870   4.840  0.0542 -0.4291 -0.1180
41154SOL    HW128592  10.512   9.781   4.873  0.7636 -0.0362  1.1098
41154SOL    HW228593  10.555   9.860   4.752 -0.8499 -1.4167 -0.3822
41155SOL     OW28594   3.372   6.928   0.935  0.3538 -0.0879  0.1183
41155SOL    HW128595   3.361   6.942   0.840  0.6565  0.0338  0.0980
41155SOL    HW228596   3.412   7.010   0.966 -0.8073  0.3192  0.5479
41156SOL     OW28597   2.347   4.848  10.896 -0.2199  0.1326 -0.3334
41156SOL    HW128598   2.374   4.937  10.916  1.2612 -0.0621 -1.4017
41156SOL    HW228599   2.385   4.795  10.966 -1.8182  0.4187  0.7805
41157SOL     OW28600   8.636   9.962   1.482 -0.0592 -0.0388  0.2828
41157SOL    HW128601   8.600  10.045   1.451  1.4879  0.7688  0.6075
41157SOL    HW228602   8.639   9.907   1.404 -1.0006  0.2265  0.0478
41158SOL     OW28603   2.559   7.050  10.570 -0.2299  0.1208 -0.7210
41158SOL    HW128604   2.543   7.033  10.478  1.0678 -0.4259 -0.8630
41158SOL    HW228605   2.585   7.142  10.574 -1.9349  0.6119 -0.6707
41159SOL     OW28606   2.551   9.029   8.186 -0.5435  0.1875  0.0999
41159SOL    HW128607   2.562   8.943   8.145 -1.5961  0.1046 -0.0354
41159SOL    HW228608   2.623   9.037   8.248  0.7968  0.0963 -1.4117
41160SOL     OW28609   7.307   7.183   6.957  0.1829  0.2371 -0.0563
41160SOL    HW128610   7.294   7.237   6.879  0.9794 -0.2105 -0.5060
41160SOL    HW228611   7.264   7.100   6.936  1.1190 -0.1763 -0.3536
41161SOL     OW28612   6.719  10.449   7.501 -0.0158  0.5666  0.0086
41161SOL    HW128613   6.660  10.455   7.576  1.5825 -1.6249  1.4586
41161SOL    HW228614   6.661  10.432   7.427 -1.6879  3.5039  0.5620
41162SOL     OW28615   4.078   0.221   8.288  0.1386 -0.4895 -0.5785
41162SOL    HW128616   4.038   0.252   8.207 -1.7365 -1.2553  0.0458
41162SOL    HW228617   4.007   0.179   8.337  1.0475  0.7114  1.8648
41163SOL     OW28618   8.280   7.303   6.585 -0.1992 -0.3121 -0.4271
41163SOL    HW128619   8.305   7.372   6.524  0.5383  0.4104  0.6811
41163SOL    HW228620   8.234   7.239   6.531 -0.6593  0.9139 -1.5070
41164SOL     OW28621  10.590  10.173   1.404 -0.0674 -0.1464  0.3325
41164SOL    HW128622  10.537  10.249   1.428  0.4294  0.0768  0.7357
41164SOL    HW228623  10.527  10.106   1.377 -0.5367  0.1981  0.5880
41165SOL     OW28624   1.342   3.120   3.559 -0.3261 -0.4832  0.6438
41165SOL    HW128625   1.295   3.186   3.610  0.7035 -0.4750  1.6106
41165SOL    HW228626   1.424   3.106   3.607  0.1477 -1.3455 -0.3752
41166SOL     OW28627   5.427  10.854   5.702  0.2434 -0.2174  0.1429
41166SOL    HW128628   5.460  10.831   5.789  1.2558 -0.3813 -0.2760
41166SOL    HW228629   5.465  10.789   5.644 -0.1735  0.0831 -0.4719
41167SOL     OW28630   5.496   1.933   4.024  0.5560 -0.2085  0.3913
41167SOL    HW128631   5.422   1.890   4.067  0.5976 -0.0732  0.5992
41167SOL    HW228632   5.468   1.943   3.933 -0.2683  1.1284  0.7691
41168SOL     OW28633   7.546   6.728   3.285 -0.5230 -0.3348 -0.0734
41168SOL    HW128634   7.556   6.634   3.300 -1.5340 -0.4142  0.1702
41168SOL    HW228635   7.454   6.738   3.258 -0.6288  0.6750  0.6272
41169SOL     OW28636   8.503  11.210   6.280  0.2531 -0.2818  0.2734
41169SOL    HW128637   8.512  11.118   6.303  1.8320 -0.2077  0.0137
41169SOL    HW228638   8.497  11.255   6.364 -0.8230 -0.6423  0.3955
41170SOL     OW28639   4.777   1.033   7.635 -0.1951 -0.4938  0.2114
41170SOL    HW128640   4.794   1.123   7.605  0.3317 -0.4718  0.5886
41170SOL    HW228641   4.816   0.978   7.567  0.4695 -0.4429  0.5566
41171SOL     OW28642   8.747   2.121   7.222 -0.4872 -0.2869  0.2164
41171SOL    HW128643   8.680   2.169   7.174  0.7245 -0.8748 -2.1591
41171SOL    HW228644   8.830   2.149   7.182  0.6432 -0.1550  2.5623
41172SOL     OW28645   3.475   2.000   1.392  0.5118  0.3725 -0.0969
41172SOL    HW128646   3.565   1.966   1.393  0.5286  0.4237  0.1673
41172SOL    HW228647   3.423   1.927   1.357  0.5234  0.0028  0.6406
41173SOL     OW28648   2.415   5.775  10.334  0.1578 -0.5595 -0.0538
41173SOL    HW128649   2.387   5.866  10.342 -1.7161 -1.2178  0.9733
41173SOL    HW228650   2.335   5.724  10.340  1.1353 -2.2761 -1.0747
41174SOL     OW28651   3.381   4.117   0.863 -0.1511 -0.4363 -0.3525
41174SOL    HW128652   3.421   4.204   0.864 -0.2611 -0.3864  0.3949
41174SOL    HW228653   3.379   4.092   0.956  1.0809 -1.7845 -0.6739
41175SOL     OW28654   6.498   3.535   2.871  0.1233  0.4612  0.1308
41175SOL    HW128655   6.519   3.473   2.801  1.6849  0.7400  0.3331
41175SOL    HW228656   6.524   3.490   2.951  0.9770  1.2363  0.3020
41176SOL     OW28657   4.388   7.701   9.436 -0.0194 -0.2627 -0.0042
41176SOL    HW128658   4.425   7.614   9.423 -0.4181 -0.2055 -1.6597
41176SOL    HW228659   4.353   7.725   9.351 -0.3694  1.3135  0.5634
41177SOL     OW28660   8.943   3.378   9.284 -0.0715 -0.4708  0.0558
41177SOL    HW128661   8.875   3.340   9.339  1.0461 -0.1979  1.6371
41177SOL    HW228662   8.931   3.472   9.293 -0.2004 -0.4225 -0.5793
41178SOL     OW28663   3.693   6.679   3.682 -0.0081  0.0050 -0.4762
41178SOL    HW128664   3.757   6.746   3.660  1.3164 -0.7677  0.9373
41178SOL    HW228665   3.716   6.604   3.627  0.3449 -0.2985  0.0858
41179SOL     OW28666   2.670   7.899   8.269 -0.0948  0.1735 -0.1098
41179SOL    HW128667   2.714   7.833   8.323  1.0291 -0.6503 -1.9818
41179SOL    HW228668   2.645   7.967   8.331  1.4557 -0.5877  1.4147
41180SOL     OW28669   1.981   0.406   3.947 -0.6959  0.3330  0.2513
41180SOL    HW128670   1.909   0.344   3.964 -1.0409  0.4130 -0.9200
41180SOL    HW228671   1.980   0.464   4.024 -0.8877 -0.6165  0.9745
41181SOL     OW28672   4.706   8.952   2.139  0.1492 -0.2203  0.3588
41181SOL    HW128673   4.733   9.041   2.116 -0.7524 -0.1957 -0.6606
41181SOL    HW228674   4.784   8.899   2.125  0.2132  0.1443 -0.7227
41182SOL     OW28675   0.915   7.423   8.001  1.0589 -0.1662  0.4620
41182SOL    HW128676   0.872   7.508   7.986  1.1655 -0.1267  0.3829
41182SOL    HW228677   0.851   7.359   7.970  0.9417 -0.1177  0.6005
41183SOL     OW28678   3.330   3.302   9.558  0.2031 -0.6635 -1.1937
41183SOL    HW128679   3.398   3.237   9.541 -1.1093 -1.4492 -3.5968
41183SOL    HW228680   3.249   3.252   9.563 -0.1771  0.1878  2.3540
41184SOL     OW28681   9.489   1.513   9.745  0.2272  0.2724 -0.2610
41184SOL    HW128682   9.441   1.434   9.718 -1.3736  1.3758 -0.7015
41184SOL    HW228683   9.534   1.486   9.825  1.4148 -1.7096 -1.5454
41185SOL     OW28684   1.067   5.062   7.878 -0.5406 -0.0034 -0.1950
41185SOL    HW128685   1.062   5.146   7.831 -0.5100 -1.1205 -2.2320
41185SOL    HW228686   0.982   5.055   7.922 -0.1679  1.5633  0.8375
41186SOL     OW28687   9.022   7.739   1.847 -0.2361  0.1523 -0.1190
41186SOL    HW128688   9.082   7.743   1.921  1.0052  0.7081 -1.1352
41186SOL    HW228689   8.936   7.726   1.887  0.3689  0.7413  1.4270
41187SOL     OW28690   0.071  10.666   6.102  0.3207 -0.0751  0.8371
41187SOL    HW128691   0.163  10.679   6.080 -0.0316  1.4364  0.1869
41187SOL    HW228692   0.047  10.744   6.153 -1.1434  0.6280 -0.8445
41188SOL     OW28693   2.757   2.895   8.222 -0.2759  0.0796  0.3933
41188SOL    HW128694   2.689   2.873   8.159 -0.9477  1.2708  0.6723
41188SOL    HW228695   2.819   2.822   8.219 -1.1182 -0.5967 -0.4964
41189SOL     OW28696   2.612   1.964   2.586  0.6102  0.7165  0.2055
41189SOL    HW128697   2.685   2.024   2.602  0.1155  1.5295 -0.5528
41189SOL    HW228698   2.534   2.016   2.606  0.1957  0.1426  0.0858
41190SOL     OW28699   2.211  10.867   8.607 -0.0501  0.3656 -0.1781
41190SOL    HW128700   2.240  10.878   8.697  1.0059 -0.6097 -0.3914
41190SOL    HW228701   2.193  10.956   8.577  0.8950  0.8212  0.5733
41191SOL     OW28702   1.563   0.709   1.635  0.1145  0.5557  0.0965
41191SOL    HW128703   1.658   0.704   1.640  0.3529  2.3579 -2.2768
41191SOL    HW228704   1.538   0.760   1.712  1.0266 -0.2564  0.9431
41192SOL     OW28705   3.295   4.949   3.906 -0.5286 -0.1733  0.0594
41192SOL    HW128706   3.296   4.947   4.001  2.4240 -1.1974  0.0547
41192SOL    HW228707   3.256   4.866   3.881 -1.7557  0.3017  0.3520
41193SOL     OW28708   9.030   7.868   0.338  0.2853 -0.4363 -0.0959
41193SOL    HW128709   9.013   7.793   0.281  0.0538 -1.0753  0.7965
41193SOL    HW228710   8.943   7.900   0.361  0.3731 -0.3036  0.0500
41194SOL     OW28711   4.712   2.185   7.486 -0.0092 -0.6099  0.1805
41194SOL    HW128712   4.787   2.225   7.531  0.9543 -2.3363  0.1713
41194SOL    HW228713   4.681   2.118   7.547  0.2888 -1.8698 -1.0427
41195SOL     OW28714   2.151   7.291   8.003 -0.2774 -0.0110 -1.1315
41195SOL    HW128715   2.114   7.212   8.043  0.9506  0.2422  0.5789
41195SOL    HW228716   2.213   7.323   8.068  0.0900  1.7213 -2.3135
41196SOL     OW28717  10.338   5.352   4.024 -0.2244 -0.0981  0.2325
41196SOL    HW128718  10.383   5.272   4.050 -0.1131  0.4808  1.8856
41196SOL    HW228719  10.369   5.418   4.087 -0.2406  1.2598 -1.1534
41197SOL     OW28720   2.215   9.838   2.943 -0.2773  0.7680  0.2453
41197SOL    HW128721   2.239   9.840   3.035  0.5641  1.1927  0.0194
41197SOL    HW228722   2.156   9.913   2.931 -1.1775  0.1427  0.6397
41198SOL     OW28723   1.826  10.498   8.313 -0.4712  0.3860  0.2663
41198SOL    HW128724   1.878  10.490   8.233 -1.2532 -0.3620 -0.1790
41198SOL    HW228725   1.756  10.558   8.290 -1.4530 -0.8483 -0.0219
41199SOL     OW28726   9.649   9.555   5.276  0.3356  0.3411 -0.1995
41199SOL    HW128727   9.643   9.620   5.346  0.3679 -0.5863  0.6797
41199SOL    HW228728   9.603   9.478   5.310 -1.5848  0.6193 -2.0915
41200SOL     OW28729   5.692   7.552  10.040  0.2769  0.3844  0.5886
41200SOL    HW128730   5.746   7.617  10.084  2.4216  0.0489 -1.4637
41200SOL    HW228731   5.669   7.592   9.956 -1.4356 -0.0895  0.8057
41201SOL     OW28732   9.968   7.831  10.539  0.2856  0.1232 -0.1791
41201SOL    HW128733   9.877   7.844  10.564 -0.0206 -0.6084 -0.9070
41201SOL    HW228734   9.977   7.736  10.527  1.0503  0.2226 -0.4415
41202SOL     OW28735   6.386   9.841   0.228  0.4560 -0.1225  0.0617
41202SOL    HW128736   6.405   9.904   0.158 -0.0765 -0.7130 -0.6234
41202SOL    HW228737   6.460   9.849   0.288  0.2727  1.3288  0.1036
41203SOL     OW28738   6.492   9.623   9.874  0.0824  0.2857 -0.2309
41203SOL    HW128739   6.507   9.715   9.850 -2.2236  0.8893  0.4920
41203SOL    HW228740   6.470   9.580   9.792  1.5585  0.2830 -0.6371
41204SOL     OW28741   1.814   6.327   0.869  0.1274  0.1458 -0.6415
41204SOL    HW128742   1.773   6.358   0.950  1.3164  2.2131 -0.7901
41204SOL    HW228743   1.742   6.318   0.807 -0.6026 -0.1050  0.2271
41205SOL     OW28744   7.813  10.348   0.483  0.4215 -0.8560 -0.1571
41205SOL    HW128745   7.891  10.309   0.442  0.0632 -2.6230  0.7817
41205SOL    HW228746   7.743  10.285   0.465 -0.2121 -0.5816  1.2626
41206SOL     OW28747   5.974   5.655   0.686 -0.5564  0.1745 -0.0541
41206SOL    HW128748   5.906   5.711   0.723 -0.7559  0.3944 -0.7284
41206SOL    HW228749   5.929   5.574   0.663 -0.6207  0.3626 -0.6050
41207SOL     OW28750  10.776   8.072   5.343 -0.3176 -0.2163 -0.0143
41207SOL    HW128751  10.777   7.982   5.311  0.6114 -0.7530  1.5233
41207SOL    HW228752  10.860   8.109   5.314 -1.5575  0.8257 -2.4573
41208SOL     OW28753   9.367   4.086   6.416  0.4651  0.3792  0.2103
41208SOL    HW128754   9.349   4.018   6.480  0.6128  0.6684  0.5566
41208SOL    HW228755   9.338   4.167   6.458  0.2566  0.5256 -0.2137
41209SOL     OW28756   7.171   8.551   6.209  0.4110 -0.3011  0.3371
41209SOL    HW128757   7.201   8.530   6.121 -0.5804  0.0837 -0.0996
41209SOL    HW228758   7.126   8.473   6.239 -1.2554  0.3568 -0.3934
41210SOL     OW28759   2.721   0.750   6.934  0.5638 -0.1056  0.2278
41210SOL    HW128760   2.816   0.752   6.938  0.6677  1.2102 -1.8699
41210SOL    HW228761   2.693   0.831   6.976  0.4770  0.3871 -0.7522
41211SOL     OW28762   4.964   6.341   1.847 -0.0373  0.2473 -0.5000
41211SOL    HW128763   5.012   6.347   1.930  0.0754  0.3005 -0.5674
41211SOL    HW228764   4.900   6.412   1.852 -1.0438 -0.7086  0.1784
41212SOL     OW28765   0.275  10.213   8.800  0.5291 -0.2127 -0.1807
41212SOL    HW128766   0.310  10.255   8.722 -1.0934 -0.4157 -1.0479
41212SOL    HW228767   0.201  10.161   8.768  0.4253 -1.0446  1.3541
41213SOL     OW28768   5.222   0.628   0.490 -0.1299  0.2507  0.3274
41213SOL    HW128769   5.299   0.663   0.533  0.0048  0.0202  0.2757
41213SOL    HW228770   5.256   0.563   0.429 -0.3201  0.5560 -0.1087
41214SOL     OW28771  10.555   8.656   0.069  0.5487 -0.6339  0.4487
41214SOL    HW128772  10.589   8.746   0.069 -0.4832 -0.2347 -0.8332
41214SOL    HW228773  10.544   8.635  -0.024  0.7484 -2.0750  0.7454
41215SOL     OW28774   6.681  10.693   5.656 -0.1837 -0.3818 -0.2382
41215SOL    HW128775   6.673  10.645   5.573  0.8627 -0.5172 -0.2625
41215SOL    HW228776   6.775  10.709   5.666 -0.6475  3.2346 -1.0999
41216SOL     OW28777   0.026   6.850   3.102 -0.1568  0.3649  0.4207
41216SOL    HW128778  -0.049   6.797   3.129 -1.3275  2.4070  1.2980
41216SOL    HW228779  -0.008   6.940   3.098  1.4357  0.9050 -2.3122
41217SOL     OW28780   3.050   6.309   2.506 -0.1499  0.0014 -0.4220
41217SOL    HW128781   3.122   6.261   2.466  0.7020  0.5455  0.4531
41217SOL    HW228782   2.973   6.280   2.458  0.2824 -2.5215  0.3416
41218SOL     OW28783   8.948   0.122   1.928 -0.2818  0.0576  0.4675
41218SOL    HW128784   8.858   0.109   1.902 -0.0420  0.3038 -0.4960
41218SOL    HW228785   8.984   0.183   1.863  0.7017 -0.3952  0.5704
41219SOL     OW28786   1.053   3.366   4.296  0.0691 -0.5003  0.2562
41219SOL    HW128787   1.073   3.413   4.376 -0.6827 -0.6887  0.5581
41219SOL    HW228788   0.972   3.406   4.264 -2.1791 -3.4326  2.0158
41220SOL     OW28789   4.854   5.815   0.277  0.1314 -0.4123  0.6641
41220SOL    HW128790   4.794   5.747   0.308  1.7241 -1.5829  1.2337
41220SOL    HW228791   4.857   5.879   0.348 -0.2119 -0.4965  0.7548
41221SOL     OW28792   4.469   1.719   5.755  0.0576  0.0138  0.4076
41221SOL    HW128793   4.519   1.742   5.677 -1.1476 -4.1715 -1.7785
41221SOL    HW228794   4.530   1.670   5.810 -0.1937 -0.5998  0.1484
41222SOL     OW28795   5.150   1.801   6.831 -0.2825  0.1822  0.7314
41222SOL    HW128796   5.162   1.706   6.831 -2.2550 -0.1217 -1.6235
41222SOL    HW228797   5.216   1.834   6.770 -2.1034 -0.1046 -1.4550
41223SOL     OW28798   8.753   9.472   8.719  0.0797 -0.1363 -0.0454
41223SOL    HW128799   8.835   9.490   8.674 -0.0745 -0.0690 -0.3080
41223SOL    HW228800   8.766   9.387   8.761  0.9955  0.8137  1.6374
41224SOL     OW28801   1.587   4.963   0.949 -0.7364 -0.4549  0.0696
41224SOL    HW128802   1.618   4.991   1.035  0.8073  0.3719 -0.7276
41224SOL    HW228803   1.637   4.884   0.930 -0.9086 -0.5077 -0.1609
41225SOL     OW28804   6.356   1.337   6.504  0.0023 -0.5012  0.0580
41225SOL    HW128805   6.444   1.334   6.465 -0.3598 -1.5245 -0.7280
41225SOL    HW228806   6.297   1.327   6.429 -0.8194  1.1933  0.4608
41226SOL     OW28807   7.574   4.074  10.883 -0.4003 -0.1799  0.0862
41226SOL    HW128808   7.528   4.155  10.905  0.2849  0.2985 -0.2199
41226SOL    HW228809   7.656   4.080  10.931  0.9048  0.6538 -2.1515
41227SOL     OW28810   5.937   2.119   4.289  0.0950 -0.8061 -0.2569
41227SOL    HW128811   5.857   2.137   4.241  0.9343  1.3360 -0.8837
41227SOL    HW228812   6.004   2.109   4.221  0.7591 -0.5466  0.3591
41228SOL     OW28813   7.902   0.807   6.424 -0.2694  0.1169 -0.6135
41228SOL    HW128814   7.906   0.900   6.398 -0.2007 -0.0468 -1.2025
41228SOL    HW228815   7.964   0.764   6.365  0.4436 -0.1570  0.3265
41229SOL     OW28816   0.185  10.254   3.421 -0.1337 -0.0538 -0.4151
41229SOL    HW128817   0.274  10.288   3.424  0.3459 -0.9937 -2.8791
41229SOL    HW228818   0.183  10.185   3.488  0.8331  0.3294  0.0037
41230SOL     OW28819  10.452   0.023   0.335  0.3158  0.2368  0.5760
41230SOL    HW128820  10.531   0.077   0.347  0.4998 -0.2440  1.5739
41230SOL    HW228821  10.382   0.076   0.374  0.2907  0.2906  0.4569
41231SOL     OW28822  10.765   1.432   7.536  0.0283 -0.0348  0.0909
41231SOL    HW128823  10.762   1.490   7.612 -0.2029  0.0320  0.0329
41231SOL    HW228824  10.790   1.346   7.572  0.5044  0.1293  0.1564
41232SOL     OW28825   7.221   1.431   1.568 -0.0852  0.3401  0.1648
41232SOL    HW128826   7.215   1.339   1.541 -0.6343  0.5923 -0.5990
41232SOL    HW228827   7.314   1.450   1.570  0.0548 -0.3868  0.8494
41233SOL     OW28828  10.042  10.438   8.448 -0.0164  0.2868  0.1336
41233SOL    HW128829  10.128  10.430   8.407  1.0842 -0.5884  2.5428
41233SOL    HW228830  10.005  10.350   8.445  1.2819 -0.4420  3.5044
41234SOL     OW28831   7.415   1.433  10.927  0.4480 -0.8731 -0.0178
41234SOL    HW128832   7.434   1.339  10.923 -0.6107 -1.1485  1.4234
41234SOL    HW228833   7.332   1.443  10.881  0.7622 -0.5670 -0.5335
41235SOL     OW28834  10.455   0.228   3.897  0.0449 -0.2626  0.0294
41235SOL    HW128835  10.502   0.250   3.978  0.2131 -1.6595  0.3294
41235SOL    HW228836  10.523   0.222   3.830  0.1633 -1.1560  0.2246
41236SOL     OW28837   6.505   6.423   5.476  0.0304 -0.0652 -0.4021
41236SOL    HW128838   6.491   6.509   5.436 -0.8097 -0.8145 -1.7526
41236SOL    HW228839   6.426   6.408   5.528  1.0682  0.8558  1.5150
41237SOL     OW28840   6.991   9.591   1.535  0.0706 -0.1456 -0.4183
41237SOL    HW128841   6.972   9.590   1.441 -0.6145  0.2954 -0.2921
41237SOL    HW228842   7.069   9.646   1.543 -1.3018  1.8525 -0.4911
41238SOL     OW28843  11.273   1.407  10.811 -0.6620 -0.4951  0.0363
41238SOL    HW128844  11.221   1.328  10.824  1.3455 -1.7942  0.3559
41238SOL    HW228845  11.310   1.427  10.897  1.0426 -0.8200 -0.5924
41239SOL     OW28846   5.790   1.168   6.784 -0.4571 -0.4151  0.6278
41239SOL    HW128847   5.849   1.137   6.715 -0.9954  0.6130 -0.3033
41239SOL    HW228848   5.819   1.122   6.863  1.8697  0.4250  0.2741
41240SOL     OW28849   0.910   2.069   5.481 -0.3639  0.7662 -0.3174
41240SOL    HW128850   0.836   2.069   5.420 -1.4820 -0.7596  1.0132
41240SOL    HW228851   0.962   1.993   5.455 -1.1663 -0.2496  0.9896
41241SOL     OW28852   5.584   5.873   2.281 -0.0956 -0.6472 -0.8749
41241SOL    HW128853   5.573   5.918   2.197 -0.4377  1.3190  0.1829
41241SOL    HW228854   5.496   5.847   2.306  0.0197 -1.3312 -1.1681
41242SOL     OW28855   9.676   3.393   2.868  0.5862 -0.6220  0.4153
41242SOL    HW128856   9.657   3.311   2.823 -1.0302  0.7723 -1.5443
41242SOL    HW228857   9.637   3.382   2.955  1.7831 -2.4982  0.7409
41243SOL     OW28858   7.833   6.922   5.976 -0.2695 -0.3939 -0.4090
41243SOL    HW128859   7.764   6.930   5.910  0.1556 -0.7949 -0.9147
41243SOL    HW228860   7.789   6.933   6.060 -0.6692  1.0966 -0.7978
41244SOL     OW28861   0.617   9.973   2.903 -0.3072  0.5515 -0.5091
41244SOL    HW128862   0.572  10.028   2.839 -1.1558 -0.0539 -0.4392
41244SOL    HW228863   0.563   9.980   2.982 -0.2925 -0.1891 -0.4291
41245SOL     OW28864   0.805   4.177   3.580  0.0738 -0.4020 -0.2059
41245SOL    HW128865   0.827   4.266   3.552 -2.0719 -0.1022 -1.0334
41245SOL    HW228866   0.864   4.160   3.653  0.8227  1.5316 -0.3189
41246SOL     OW28867   1.535   8.605   7.454  0.2591 -0.0626 -0.2964
41246SOL    HW128868   1.480   8.683   7.453 -0.2365 -0.4119 -0.4334
41246SOL    HW228869   1.608   8.628   7.511 -0.9148 -0.1944  1.2875
41247SOL     OW28870   8.426   7.775   6.609  0.1506  0.1828  0.4332
41247SOL    HW128871   8.463   7.821   6.685  2.9329  3.3443 -2.6927
41247SOL    HW228872   8.371   7.841   6.566  0.2576 -0.9409 -1.4517
41248SOL     OW28873   3.587   2.629   5.503  0.1822  0.0223 -0.0395
41248SOL    HW128874   3.661   2.602   5.558 -0.4140 -0.9253  0.3059
41248SOL    HW228875   3.510   2.600   5.551 -0.3935  0.3965 -0.7349
41249SOL     OW28876   3.403   6.987   1.762 -0.2303 -0.1077  0.0205
41249SOL    HW128877   3.400   7.076   1.797  0.3137 -0.2960  0.5507
41249SOL    HW228878   3.355   6.934   1.826 -0.3293 -0.2401 -0.1617
41250SOL     OW28879   1.467   2.123   8.260 -0.3775  0.5235  0.2163
41250SOL    HW128880   1.454   2.212   8.227  1.6079  0.9357  0.5199
41250SOL    HW228881   1.553   2.097   8.228 -2.0271 -2.3421 -2.1321
41251SOL     OW28882   6.904   1.926   3.253  0.5615  0.3092  0.2667
41251SOL    HW128883   6.971   1.969   3.199 -0.1662 -0.0451 -0.9216
41251SOL    HW228884   6.919   1.833   3.241 -0.2330  0.2264 -0.1127
41252SOL     OW28885   6.280   2.405   7.307 -0.1763  0.0883  0.1674
41252SOL    HW128886   6.212   2.352   7.350  1.3710 -1.0460  1.2940
41252SOL    HW228887   6.249   2.495   7.315 -1.0870 -0.3265  1.5582
41253SOL     OW28888   4.399   1.174   3.003  0.4578  0.2290 -0.0315
41253SOL    HW128889   4.473   1.207   2.952  0.0503  0.8363 -0.2285
41253SOL    HW228890   4.392   1.082   2.977  0.1813  0.5593 -1.1592
41254SOL     OW28891   2.127  10.021   8.477  0.1076  0.1393  0.2452
41254SOL    HW128892   2.125   9.926   8.486  1.3241 -0.0772 -1.4927
41254SOL    HW228893   2.080  10.053   8.553 -0.5699 -1.8627  0.7062
41255SOL     OW28894   8.465   1.929   0.689 -0.0487 -0.0395 -0.0486
41255SOL    HW128895   8.523   1.897   0.620 -2.5781 -2.7049 -1.0521
41255SOL    HW228896   8.377   1.924   0.651 -1.1971  1.4996  2.2725
41256SOL     OW28897   3.856   5.843   2.363  0.1778  0.5334 -0.1820
41256SOL    HW128898   3.892   5.877   2.445  0.8560  0.1187 -0.3027
41256SOL    HW228899   3.904   5.762   2.348 -3.5398 -2.1302  1.6901
41257SOL     OW28900  11.320   6.720   6.079  0.1387  0.2845  0.1355
41257SOL    HW128901  11.401   6.715   6.131 -0.8878 -0.4655  1.6965
41257SOL    HW228902  11.319   6.639   6.029 -0.4327 -0.4344  1.3029
41258SOL     OW28903   3.984   4.235   4.703 -0.1952  0.0767 -0.5091
41258SOL    HW128904   3.911   4.224   4.642 -0.4026  0.9877 -0.4385
41258SOL    HW228905   3.959   4.181   4.779 -1.1689  0.9812 -0.1709
41259SOL     OW28906   7.198   6.986   9.241 -0.1280  0.5499  0.4443
41259SOL    HW128907   7.183   7.077   9.213 -3.5897 -0.5213 -1.5796
41259SOL    HW228908   7.113   6.957   9.275  0.3764 -2.4601 -0.6764
41260SOL     OW28909   8.702   7.499   0.611 -0.4015  0.4318 -0.2020
41260SOL    HW128910   8.700   7.403   0.607 -4.8745  0.4776 -3.3258
41260SOL    HW228911   8.748   7.524   0.531 -0.3018  0.8947  0.0019
41261SOL     OW28912   8.312   3.552  10.135 -0.0774  0.4140  0.0083
41261SOL    HW128913   8.254   3.620  10.101 -0.3505 -0.1807 -0.7214
41261SOL    HW228914   8.395   3.596  10.151 -0.1698  0.8513 -0.7279
41262SOL     OW28915   1.378   6.859   2.959  0.6244 -0.6168  0.2992
41262SOL    HW128916   1.305   6.797   2.960  2.0513 -2.3617 -0.1284
41262SOL    HW228917   1.448   6.815   3.008  0.7880  1.8319  2.3435
41263SOL     OW28918   0.339  10.991   5.843 -0.4070  0.4646 -0.0004
41263SOL    HW128919   0.414  10.973   5.786 -0.2471 -1.6283  0.8258
41263SOL    HW228920   0.264  10.992   5.784 -0.0734 -0.2973 -0.4532
41264SOL     OW28921   1.177   2.912   5.860  0.2078 -0.3859  0.5973
41264SOL    HW128922   1.251   2.930   5.918  2.5022 -1.5939 -1.8518
41264SOL    HW228923   1.197   2.827   5.821 -1.3044  0.3297 -1.8583
41265SOL     OW28924   1.169  10.476   9.677  0.2836 -0.3455  0.4495
41265SOL    HW128925   1.265  10.471   9.685  0.2348 -1.7392  0.3336
41265SOL    HW228926   1.145  10.557   9.721  1.4484 -0.3967  1.1911
41266SOL     OW28927   7.208   0.902   9.344  0.6658  0.3146 -0.5227
41266SOL    HW128928   7.290   0.854   9.358  0.5369  0.5660  1.1043
41266SOL    HW228929   7.164   0.852   9.275  1.2482 -1.0204  0.0448
41267SOL     OW28930   4.775   7.500   1.497 -0.5250 -0.3067  0.2554
41267SOL    HW128931   4.758   7.588   1.532  1.9443  0.5205 -0.5328
41267SOL    HW228932   4.809   7.451   1.572 -1.7845 -0.5940  0.6640
41268SOL     OW28933   7.631   3.938   5.020 -0.0639  0.5681 -0.0846
41268SOL    HW128934   7.578   3.942   5.099 -0.7421  0.1509 -0.5083
41268SOL    HW228935   7.718   3.915   5.051 -0.3686  0.2237  0.5267
41269SOL     OW28936   1.076   1.371   9.316  0.3934  0.0372 -0.1564
41269SOL    HW128937   1.129   1.370   9.396  0.4332 -2.4421 -0.1691
41269SOL    HW228938   1.094   1.456   9.276  1.6475  0.6406  1.6269
41270SOL     OW28939   0.288   8.657   2.932  0.1694 -0.4532 -0.0193
41270SOL    HW128940   0.262   8.627   3.019  1.1433  0.3162  0.5495
41270SOL    HW228941   0.237   8.603   2.872  1.1624 -2.5772  0.9890
41271SOL     OW28942   1.673   1.206   0.815  0.3600  0.6102  0.2202
41271SOL    HW128943   1.622   1.258   0.752  1.7090 -0.3158 -1.6961
41271SOL    HW228944   1.607   1.164   0.870 -0.8771  1.0273 -0.9144
41272SOL     OW28945   2.989   1.105   2.589 -0.2798 -0.2363 -0.5270
41272SOL    HW128946   3.044   1.181   2.607  0.1064 -0.7707  0.6192
41272SOL    HW228947   3.038   1.055   2.524 -0.3214  0.2568 -0.9435
41273SOL     OW28948  11.236   6.944  10.419  0.2573 -0.0247 -0.1717
41273SOL    HW128949  11.312   6.922  10.472 -0.0728 -0.7926 -0.0039
41273SOL    HW228950  11.263   7.020  10.367  0.6053  0.6624  1.0167
41274SOL     OW28951   1.263   1.457   7.761  0.1797 -0.4303  0.0508
41274SOL    HW128952   1.285   1.550   7.770  0.0032 -0.3275 -0.5182
41274SOL    HW228953   1.216   1.452   7.678  0.3135 -1.0519  0.0097
41275SOL     OW28954   9.297   2.583   0.292 -0.1835  0.4388  0.5991
41275SOL    HW128955   9.353   2.508   0.311 -1.4768 -1.1683 -1.7511
41275SOL    HW228956   9.354   2.659   0.304  1.7556 -1.0348  0.8518
41276SOL     OW28957   7.687   5.260   7.854  0.3319  0.1773 -0.4465
41276SOL    HW128958   7.673   5.209   7.775 -0.4713  0.9184 -0.7960
41276SOL    HW228959   7.628   5.335   7.845  1.0763  0.8710  0.3136
41277SOL     OW28960   6.952   0.917   3.140 -1.0836  0.7334 -0.6693
41277SOL    HW128961   6.943   0.825   3.168  2.3363  0.0133 -1.6621
41277SOL    HW228962   6.975   0.964   3.221 -0.7107  0.3224 -0.5298
41278SOL     OW28963   9.556   9.997   6.458 -0.3032  0.2045 -0.0595
41278SOL    HW128964   9.616   9.935   6.500 -0.4629  1.0237  1.4087
41278SOL    HW228965   9.546   9.964   6.369  0.9587 -0.9226  0.1999
41279SOL     OW28966   2.238   8.991   1.168 -0.1641 -0.3023 -0.1901
41279SOL    HW128967   2.154   8.996   1.121 -1.1006 -2.4993  1.1579
41279SOL    HW228968   2.259   8.898   1.168  1.8852  0.1530  0.1960
41280SOL     OW28969   7.474   5.831   9.002 -0.4420 -0.0837 -0.4879
41280SOL    HW128970   7.561   5.802   9.026 -0.9711 -0.8318  0.5746
41280SOL    HW228971   7.481   5.926   8.995  0.5299 -0.1748 -0.7308
41281SOL     OW28972   0.911  10.183   5.282 -0.0537  0.4396  0.4640
41281SOL    HW128973   0.854  10.115   5.318 -2.0327  0.1760 -2.9963
41281SOL    HW228974   0.999  10.146   5.290 -1.0297 -2.2202 -0.6714
41282SOL     OW28975   3.200   0.544   4.570  0.4535 -0.1069 -0.4341
41282SOL    HW128976   3.285   0.586   4.557 -0.0944  0.8867 -0.8117
41282SOL    HW228977   3.149   0.569   4.493 -0.1768 -0.7330 -0.2212
41283SOL     OW28978   9.755   3.854  10.181 -0.0636  0.3401 -0.1501
41283SOL    HW128979   9.672   3.887  10.149  0.5098  0.4314 -1.5863
41283SOL    HW228980   9.780   3.786  10.118  1.6714  1.3523 -0.5868
41284SOL     OW28981   5.291  11.196   7.601  0.2959  0.1904 -0.0437
41284SOL    HW128982   5.307  11.108   7.567  1.7770  1.1544 -1.9608
41284SOL    HW228983   5.353  11.207   7.673  1.8786  0.5418 -1.4298
41285SOL     OW28984  10.701   6.206   6.502  0.5658 -0.8107 -0.0113
41285SOL    HW128985  10.748   6.122   6.499  1.8918 -0.1838  1.9261
41285SOL    HW228986  10.720   6.247   6.418  1.7666 -1.4985 -0.0901
41286SOL     OW28987   7.467   3.897   7.065 -0.2311  0.1023  0.2234
41286SOL    HW128988   7.420   3.833   7.119 -1.7582  0.3075 -0.8254
41286SOL    HW228989   7.398   3.941   7.015  0.9032  1.8548  0.1675
41287SOL     OW28990   7.749   7.098   1.374 -0.0009  0.4317 -0.3931
41287SOL    HW128991   7.790   7.012   1.366 -0.5005  0.1333  0.2794
41287SOL    HW228992   7.689   7.090   1.448 -0.7108  1.0939 -0.8895
41288SOL     OW28993   5.385   4.065   7.596  0.3464 -0.5229  0.1309
41288SOL    HW128994   5.427   4.121   7.661  1.6295  0.0373 -1.1593
41288SOL    HW228995   5.329   4.124   7.545  2.8998 -0.0482 -2.2523
41289SOL     OW28996   2.731   9.810   1.038  0.8708  0.0593 -0.2072
41289SOL    HW128997   2.816   9.771   1.019  1.3089  0.6860  0.4142
41289SOL    HW228998   2.669   9.761   0.985  0.8705 -3.9551  3.2567
41290SOL     OW28999   8.484   9.741   1.624  0.0295  0.2269  0.7690
41290SOL    HW129000   8.566   9.709   1.662  0.7144 -1.8864 -2.2788
41290SOL    HW229001   8.509   9.820   1.577  0.4374 -0.6968 -0.5802
41291SOL     OW29002  11.131  11.228   1.210  0.5853 -0.3733  0.1047
41291SOL    HW129003  11.094  11.224   1.122  0.6797  1.2242 -0.0152
41291SOL    HW229004  11.209  11.172   1.205  0.2218 -0.8325 -0.6282
41292SOL     OW29005   8.816   8.553   5.487 -0.6176 -0.1753  0.2201
41292SOL    HW129006   8.753   8.617   5.518 -0.2089  0.4697 -0.2829
41292SOL    HW229007   8.810   8.556   5.392 -0.5795 -0.8662  0.1905
41293SOL     OW29008   3.807   3.851   5.430  0.2813 -0.3037  0.0716
41293SOL    HW129009   3.750   3.779   5.404  1.5483 -1.0463 -0.6986
41293SOL    HW229010   3.877   3.850   5.365  1.5066  0.1878  1.3836
41294SOL     OW29011   8.854   1.169   4.355 -0.6216 -0.6169 -0.0101
41294SOL    HW129012   8.858   1.130   4.268 -0.9027 -0.8223  0.0708
41294SOL    HW229013   8.927   1.129   4.402  1.3755  1.6864 -1.0530
41295SOL     OW29014  10.088   9.545   3.700  0.9119  0.4310 -0.0017
41295SOL    HW129015  10.028   9.524   3.772  0.1108  1.4745 -0.3487
41295SOL    HW229016  10.032   9.550   3.623  1.6667 -0.0034 -0.5831
41296SOL     OW29017   6.218   8.727   4.215  0.0620  0.0134  0.3180
41296SOL    HW129018   6.295   8.762   4.170  0.3355  0.7961  1.3607
41296SOL    HW229019   6.143   8.770   4.172  0.0973 -1.8555 -1.6758
41297SOL     OW29020  10.835   6.750   6.576 -0.2124 -0.1012 -0.0552
41297SOL    HW129021  10.809   6.777   6.488 -1.2868 -1.5435 -0.1927
41297SOL    HW229022  10.782   6.673   6.594 -0.6583  0.6869  2.2193
41298SOL     OW29023   3.761   5.103   1.268  0.1206  0.6982 -0.2304
41298SOL    HW129024   3.678   5.067   1.298 -0.1220  2.4422  1.2397
41298SOL    HW229025   3.739   5.191   1.237  1.1525  0.5820 -1.3409
41299SOL     OW29026   4.965   9.755   5.432 -0.0862 -0.0737  0.5036
41299SOL    HW129027   4.964   9.698   5.509 -0.1759  0.3934  0.8445
41299SOL    HW229028   5.011   9.833   5.460  1.2412 -0.5187 -0.3566
41300SOL     OW29029   3.195   2.531   4.796  0.0905 -0.0112  0.1686
41300SOL    HW129030   3.251   2.496   4.866  0.1230  0.9129  0.6098
41300SOL    HW229031   3.209   2.471   4.722  2.8886  1.0790 -0.2725
41301SOL     OW29032   7.959   4.979   2.290  0.7395 -0.5537  0.3158
41301SOL    HW129033   7.926   4.956   2.203  1.5118 -1.2126  0.1861
41301SOL    HW229034   7.906   5.053   2.317 -1.2822 -1.9990  0.3818
41302SOL     OW29035   1.870   3.953   6.155 -0.1583  0.8868  0.5963
41302SOL    HW129036   1.873   3.885   6.222 -1.8170 -1.1441 -1.3251
41302SOL    HW229037   1.790   4.002   6.174  0.4068  1.5749  1.2528
41303SOL     OW29038   0.599   7.156   4.361 -0.1378 -0.0608  0.1934
41303SOL    HW129039   0.600   7.105   4.442 -1.2426 -0.9802 -0.3737
41303SOL    HW229040   0.646   7.103   4.298  0.1283  0.3510  0.0450
41304SOL     OW29041   8.998   0.871   6.624  0.3891  1.0250 -0.4685
41304SOL    HW129042   9.080   0.891   6.668  0.1814  0.0976  0.3566
41304SOL    HW229043   8.951   0.814   6.685  0.8302 -1.7278 -2.6193
41305SOL     OW29044   9.998   0.642   9.191 -0.1005 -0.4856 -0.2417
41305SOL    HW129045  10.002   0.591   9.110  1.6463 -0.2194 -0.3526
41305SOL    HW229046   9.915   0.618   9.231  0.2735 -2.7204 -0.7471
41306SOL     OW29047  11.175   4.399   8.381 -0.1612  0.5269  0.3248
41306SOL    HW129048  11.085   4.388   8.350 -0.3121 -0.2972  1.0511
41306SOL    HW229049  11.181   4.345   8.459  1.3787 -0.5616 -0.5015
41307SOL     OW29050   4.137   3.959   7.258  0.2168  0.1483 -0.3239
41307SOL    HW129051   4.218   3.986   7.301  0.8319 -1.0767 -0.6956
41307SOL    HW229052   4.163   3.887   7.201 -1.5066 -1.6465  1.1314
41308SOL     OW29053   3.261   6.920  10.800 -0.3378 -0.0071  0.0932
41308SOL    HW129054   3.339   6.865  10.803 -1.3595 -1.4863  0.2947
41308SOL    HW229055   3.234   6.929  10.892  0.4577  1.7818  0.1696
41309SOL     OW29056   6.913   5.578  10.192 -0.0797 -0.1421 -0.3600
41309SOL    HW129057   6.871   5.583  10.278  1.6972  0.8854  0.4756
41309SOL    HW229058   6.886   5.658  10.147 -1.1089 -0.7385 -0.8111
41310SOL     OW29059   8.607   6.303   8.614 -0.1868  0.3135  0.2775
41310SOL    HW129060   8.559   6.316   8.532  0.9546  0.8165 -0.3317
41310SOL    HW229061   8.564   6.229   8.656  1.4751 -2.3905 -2.5528
41311SOL     OW29062   0.977  10.276   2.457  0.0329  0.3302  0.0825
41311SOL    HW129063   0.889  10.272   2.494 -0.8916  0.1631 -2.0335
41311SOL    HW229064   1.033  10.305   2.530 -1.6390 -0.2752  1.6426
41312SOL     OW29065   8.824   8.098   1.416 -0.2702 -0.7813  0.2958
41312SOL    HW129066   8.789   8.151   1.487 -1.3532  0.5706 -1.1988
41312SOL    HW229067   8.880   8.034   1.459  0.4815  1.1063  2.2273
41313SOL     OW29068   1.642   7.701   3.841  0.9320  0.2091 -0.6030
41313SOL    HW129069   1.649   7.634   3.773  1.4102 -0.3597  0.0020
41313SOL    HW229070   1.573   7.668   3.899  0.1252  0.9725 -1.1153
41314SOL     OW29071   1.867   6.849   2.759  0.3935  0.2292 -0.3334
41314SOL    HW129072   1.826   6.931   2.730  1.6096  0.7775 -0.5567
41314SOL    HW229073   1.899   6.868   2.847  1.4978  0.3040 -0.7397
41315SOL     OW29074   6.040   1.747  10.629  0.1889  0.3062 -0.3492
41315SOL    HW129075   6.038   1.838  10.600  0.9352  0.1205 -1.0014
41315SOL    HW229076   5.988   1.747  10.710  0.6777  1.4247 -0.0164
41316SOL     OW29077   0.875  10.973   7.824 -0.7438  0.2643  0.0190
41316SOL    HW129078   0.793  10.984   7.872 -1.1354 -3.3378  0.2972
41316SOL    HW229079   0.848  10.957   7.734 -0.1667  2.4742 -0.5774
41317SOL     OW29080   9.289   5.910   7.571  1.2067  0.0442  0.0181
41317SOL    HW129081   9.370   5.960   7.563  0.7915  0.5400 -1.0994
41317SOL    HW229082   9.268   5.883   7.482 -1.0349  1.7956 -0.0235
41318SOL     OW29083   4.924   0.498   2.987 -0.4604  0.4385  0.3250
41318SOL    HW129084   5.003   0.488   2.934 -0.6632 -0.4871  0.1960
41318SOL    HW229085   4.935   0.584   3.028 -0.4084  1.2594 -1.3635
41319SOL     OW29086   6.199   3.446   2.983 -0.1287 -0.1263 -0.0859
41319SOL    HW129087   6.174   3.362   2.945 -2.6125 -0.4957  2.2276
41319SOL    HW229088   6.265   3.480   2.923 -0.5533 -2.7715 -2.1749
41320SOL     OW29089  10.540   5.819  10.390  0.0165 -0.0042 -0.0797
41320SOL    HW129090  10.537   5.724  10.396  0.9096 -0.0642 -0.5695
41320SOL    HW229091  10.588   5.847  10.468 -0.7780  0.0905  0.3835
41321SOL     OW29092   4.504   1.090   8.756 -0.4593 -0.5387  0.8108
41321SOL    HW129093   4.483   1.007   8.713 -1.0510  0.0653 -0.0721
41321SOL    HW229094   4.426   1.111   8.806  0.2282 -1.2359  2.1907
41322SOL     OW29095   8.120   2.625   5.697 -0.0641  0.2111 -0.3107
41322SOL    HW129096   8.185   2.677   5.649  0.7698  0.5266  1.1198
41322SOL    HW229097   8.153   2.535   5.691  0.5561  0.3837  0.4896
41323SOL     OW29098   2.861   5.100   6.497  0.0769  0.5520 -0.5973
41323SOL    HW129099   2.897   5.013   6.508 -0.6047  0.2693 -0.5570
41323SOL    HW229100   2.834   5.104   6.406 -0.3747  0.5328 -0.4661
41324SOL     OW29101   3.112   3.145   4.727 -0.0593  0.2530 -0.0500
41324SOL    HW129102   3.131   3.238   4.713  0.6004  0.2545  0.8058
41324SOL    HW229103   3.126   3.105   4.641  1.8107  0.6027  0.0624
41325SOL     OW29104   7.555   7.103   1.618 -0.8477  0.9206 -0.1516
41325SOL    HW129105   7.593   7.126   1.704 -0.3617 -2.7443  0.6894
41325SOL    HW229106   7.467   7.072   1.639 -0.0341 -1.8860 -0.6719
41326SOL     OW29107   6.606   0.518  10.242  0.4660 -0.6574  0.5683
41326SOL    HW129108   6.535   0.578  10.219  1.7867  0.9144  0.4753
41326SOL    HW229109   6.636   0.483  10.158 -0.2087 -1.3626  0.6117
41327SOL     OW29110  10.464   6.344  10.284 -0.2641  0.0328 -0.1279
41327SOL    HW129111  10.378   6.358  10.243 -0.4756  0.8496  0.5665
41327SOL    HW229112  10.468   6.250  10.301 -0.1718 -0.3098 -2.0212
41328SOL     OW29113  10.061   2.307   0.092  0.2332  0.2506 -0.1163
41328SOL    HW129114  10.054   2.337   0.001 -2.0492  1.6981  0.4859
41328SOL    HW229115   9.998   2.235   0.098 -1.2303  1.5655  0.8279
41329SOL     OW29116   9.292  10.501   4.397 -0.0056  0.1089 -0.7839
41329SOL    HW129117   9.331  10.426   4.352  0.9816 -0.8154  1.4997
41329SOL    HW229118   9.358  10.570   4.390 -0.7010  0.6339 -2.4474
41330SOL     OW29119   8.853   0.262   7.738 -0.2279  0.0618  0.0285
41330SOL    HW129120   8.866   0.224   7.651  1.9226  2.7163 -0.8835
41330SOL    HW229121   8.925   0.226   7.791  0.7217  1.3520 -0.3495
41331SOL     OW29122   3.536   2.611   2.932 -0.0870  0.0432  0.2392
41331SOL    HW129123   3.546   2.704   2.955  1.3666  0.2858 -1.2868
41331SOL    HW229124   3.617   2.571   2.962  0.5887 -0.1633 -1.8394
41332SOL     OW29125   4.243   4.011  10.962  0.1772  0.3987 -0.5138
41332SOL    HW129126   4.222   3.928  11.005  0.1088 -0.3677 -1.9762
41332SOL    HW229127   4.218   4.078  11.025  0.7141 -0.7009  0.8920
41333SOL     OW29128   4.545   2.577   2.863  0.5455  0.1837 -0.2964
41333SOL    HW129129   4.481   2.648   2.862  1.4353  1.0070 -1.1301
41333SOL    HW229130   4.539   2.539   2.951  0.7832  1.9710  0.5101
41334SOL     OW29131   2.469   3.207   3.536 -0.0319 -0.1475  0.1817
41334SOL    HW129132   2.555   3.181   3.569  0.4062  2.0097  0.8178
41334SOL    HW229133   2.486   3.236   3.447 -0.1464  0.0933  0.2398
41335SOL     OW29134   6.569   2.073   5.958 -0.4352  0.1297  0.3506
41335SOL    HW129135   6.659   2.042   5.947 -0.4490  0.6504 -1.2983
41335SOL    HW229136   6.547   2.112   5.874 -2.3916 -0.4528  0.5791
41336SOL     OW29137   8.381   0.986   6.050  0.1804 -0.1152  1.1679
41336SOL    HW129138   8.346   0.901   6.026  1.3177 -0.2419 -0.0907
41336SOL    HW229139   8.476   0.974   6.051  0.2774  0.6837  2.7448
41337SOL     OW29140  10.770   8.715   9.693  0.2378  0.2308 -0.1560
41337SOL    HW129141  10.810   8.632   9.722 -0.0319  0.1580  0.0063
41337SOL    HW229142  10.843   8.777   9.690  0.5277 -0.1323 -0.7414
41338SOL     OW29143   4.657   4.137   7.496  0.0342 -0.2232  0.4896
41338SOL    HW129144   4.642   4.128   7.401  0.0626 -0.2459  0.4875
41338SOL    HW229145   4.589   4.083   7.536  0.6272 -0.9928  0.4640
41339SOL     OW29146   8.861   2.215   5.022 -0.1379 -0.0799 -0.8024
41339SOL    HW129147   8.893   2.135   5.064  0.9945  0.6628 -0.2267
41339SOL    HW229148   8.874   2.284   5.088 -1.0973  0.5928 -1.2899
41340SOL     OW29149   5.475   1.397  10.506 -0.1873 -0.0742 -0.1079
41340SOL    HW129150   5.404   1.372  10.447  1.9651 -0.6335 -2.5822
41340SOL    HW229151   5.549   1.341  10.480  0.7433 -0.6339  3.4396
41341SOL     OW29152   5.233  10.035  11.130  0.1264  0.1396 -0.1223
41341SOL    HW129153   5.236  10.121  11.171  1.3412  0.9459 -1.8288
41341SOL    HW229154   5.150   9.998  11.158  0.8034  0.7364  2.8421
41342SOL     OW29155   3.252   0.012   6.779  0.0194  0.1938  0.5687
41342SOL    HW129156   3.267  -0.053   6.847 -0.7259 -0.0547  0.4953
41342SOL    HW229157   3.329   0.069   6.783  1.0126 -1.1232  0.1360
41343SOL     OW29158   4.714   4.749   3.751 -0.2180  0.4836  0.3200
41343SOL    HW129159   4.796   4.786   3.786 -1.4352  0.5994  3.1897
41343SOL    HW229160   4.660   4.826   3.733 -1.0633  0.3231  2.0223
41344SOL     OW29161   1.503   4.938   0.543 -0.5086 -0.4257 -0.9201
41344SOL    HW129162   1.518   5.015   0.487 -0.3018 -0.4328 -0.8766
41344SOL    HW229163   1.409   4.920   0.535 -0.5611 -0.1584 -0.9170
41345SOL     OW29164  10.888   2.570   2.349  0.3018 -0.3204 -0.0156
41345SOL    HW129165  10.852   2.658   2.345 -1.1539 -0.9148 -0.4573
41345SOL    HW229166  10.982   2.582   2.354  0.0572  1.2774  0.9047
41346SOL     OW29167   3.894   6.034   4.335 -0.1403  0.1449  0.2825
41346SOL    HW129168   3.951   6.032   4.412 -0.1500 -2.0164  0.2599
41346SOL    HW229169   3.951   6.015   4.261 -0.5943 -0.4227  0.0724
41347SOL     OW29170   9.949   7.707   8.177  0.1898  0.2377 -0.9163
41347SOL    HW129171   9.892   7.716   8.254 -0.4546  0.8913 -1.4667
41347SOL    HW229172   9.914   7.770   8.114  0.9246 -0.0599 -1.6205
41348SOL     OW29173   9.658  11.233   9.311  0.1610 -0.2856  0.3465
41348SOL    HW129174   9.628  11.258   9.224 -1.2450  1.5950  1.3221
41348SOL    HW229175   9.594  11.273   9.370  1.3423 -1.1495  2.2482
41349SOL     OW29176   7.926   3.786   7.074 -0.3519 -0.4889 -0.4524
41349SOL    HW129177   7.946   3.862   7.129 -0.6966 -0.9960  0.3858
41349SOL    HW229178   7.863   3.819   7.010 -2.4708 -0.6536  1.4683
41350SOL     OW29179   9.688   6.582   8.772 -0.4943  0.3281  0.0206
41350SOL    HW129180   9.680   6.568   8.866 -0.4350 -0.6622 -0.1118
41350SOL    HW229181   9.620   6.646   8.751 -0.0647  1.0617  0.8421
41351SOL     OW29182   5.833  10.754   5.699 -0.2012 -0.5777  0.4370
41351SOL    HW129183   5.885  10.814   5.752 -0.2103 -0.4398  0.2899
41351SOL    HW229184   5.882  10.671   5.702 -0.4204 -0.6868  1.0010
41352SOL     OW29185   6.472   9.851   5.848  0.2165 -0.0895 -0.5062
41352SOL    HW129186   6.398   9.828   5.792 -0.7791  1.7029  0.0172
41352SOL    HW229187   6.445   9.824   5.936 -0.4926  1.9114 -0.0701
41353SOL     OW29188   5.511   8.043   7.006  0.1620  0.5045  0.2074
41353SOL    HW129189   5.598   8.019   6.976  1.4275  3.2432  1.4213
41353SOL    HW229190   5.513   8.027   7.101 -1.5517 -1.8488 -0.1141
41354SOL     OW29191   3.358   5.607   6.113 -0.4437  0.0117 -0.7319
41354SOL    HW129192   3.281   5.620   6.059 -0.1263  0.4929 -1.0717
41354SOL    HW229193   3.341   5.657   6.193 -0.7830 -0.4545 -0.5130
41355SOL     OW29194   4.055   1.510   8.369  0.2710  0.3620 -0.3110
41355SOL    HW129195   4.049   1.547   8.281 -3.0784 -0.0706 -0.3349
41355SOL    HW229196   4.022   1.421   8.360  1.4967 -0.2555  1.0849
41356SOL     OW29197  10.142   9.645  10.422  0.0538  0.2515 -0.0258
41356SOL    HW129198  10.214   9.581  10.428 -0.5385 -0.4316 -0.0869
41356SOL    HW229199  10.133   9.679  10.511 -0.4529 -0.6842  0.2906
41357SOL     OW29200   2.747  10.796   9.975  0.2542 -0.1270  0.2368
41357SOL    HW129201   2.720  10.872  10.026  1.2041  0.2079  0.2559
41357SOL    HW229202   2.684  10.791   9.903 -0.6719 -0.1929  1.0539
41358SOL     OW29203   1.224   2.650   3.848  0.0037 -0.1559  0.0382
41358SOL    HW129204   1.317   2.666   3.864 -0.2851  0.6585  0.9780
41358SOL    HW229205   1.198   2.721   3.790 -0.8359  1.7842  2.6643
41359SOL     OW29206   3.426   0.013  11.065  0.1510 -0.0160  0.2955
41359SOL    HW129207   3.513   0.002  11.103  0.2357  1.5485  0.5953
41359SOL    HW229208   3.368   0.028  11.140 -0.2322 -0.2262  0.0444
41360SOL     OW29209   0.740   3.405   4.233  0.2284 -0.2602  0.0079
41360SOL    HW129210   0.666   3.457   4.202  0.3530  0.1305  0.3545
41360SOL    HW229211   0.733   3.322   4.186 -0.2789 -0.1266 -0.1537
41361SOL     OW29212   7.584   5.232   7.594  0.1822  0.0361  0.1621
41361SOL    HW129213   7.526   5.161   7.622  0.5744 -0.0345  0.8070
41361SOL    HW229214   7.541   5.269   7.517  0.5167 -1.6038 -0.8490
41362SOL     OW29215   3.237   3.097   7.799 -0.3012 -0.4986  0.4726
41362SOL    HW129216   3.289   3.032   7.846 -0.0529  0.1795  1.1356
41362SOL    HW229217   3.225   3.168   7.861  1.1607  0.9987 -0.9134
41363SOL     OW29218   7.218   8.119   7.137  0.0864  0.1660 -0.5465
41363SOL    HW129219   7.215   8.211   7.113 -0.3192  0.0611 -0.9076
41363SOL    HW229220   7.289   8.082   7.084  0.7038  0.4141  0.1066
41364SOL     OW29221   9.260   4.169   3.133  0.0470 -0.2318  0.4562
41364SOL    HW129222   9.329   4.235   3.127  0.3661 -0.6922 -1.1596
41364SOL    HW229223   9.283   4.104   3.067  0.5889 -2.8062  3.1075
41365SOL     OW29224   6.869   0.081   6.382 -0.8070 -0.5215  0.0267
41365SOL    HW129225   6.895   0.164   6.342 -1.3771 -0.8036 -0.9471
41365SOL    HW229226   6.930   0.069   6.455  0.0952  0.1085 -0.6234
41366SOL     OW29227   1.015   8.409   8.339 -0.3565  0.6561  0.1161
41366SOL    HW129228   1.013   8.402   8.243 -0.9201 -0.6486  0.2093
41366SOL    HW229229   1.001   8.320   8.369 -0.5736  1.1305  1.4286
41367SOL     OW29230   1.476   5.029   5.225 -0.2117 -0.6835  0.2359
41367SOL    HW129231   1.564   5.034   5.262 -1.3320  0.2330  2.9220
41367SOL    HW229232   1.425   4.980   5.290 -1.8175 -0.6704 -0.9709
41368SOL     OW29233   0.072   2.373   0.542 -0.0921 -0.3027  0.2485
41368SOL    HW129234   0.106   2.455   0.506 -1.6607  0.9292  1.4784
41368SOL    HW229235   0.148   2.316   0.549  1.1821  1.3607  0.1766
41369SOL     OW29236   7.263   5.582   4.073  0.0112  0.0258  0.2138
41369SOL    HW129237   7.296   5.510   4.020 -0.9072 -0.4196  0.2309
41369SOL    HW229238   7.221   5.539   4.148  0.1292  0.6012  0.6144
41370SOL     OW29239   6.240   5.101   6.361 -0.5331  0.3003 -0.4763
41370SOL    HW129240   6.187   5.065   6.290  0.1740 -0.9208 -0.3946
41370SOL    HW229241   6.229   5.196   6.353 -2.5992  0.0665 -0.5349
41371SOL     OW29242   9.258   9.018   8.723  0.0671 -0.1588 -0.3485
41371SOL    HW129243   9.220   8.951   8.667  1.7160 -0.5397 -1.0558
41371SOL    HW229244   9.189   9.041   8.784 -2.2963  1.3262 -3.4680
41372SOL     OW29245   0.976   5.902  10.230  0.4428  0.3100  0.1013
41372SOL    HW129246   0.903   5.929  10.285  1.4814  1.7986  0.7666
41372SOL    HW229247   1.054   5.922  10.281  1.3577 -0.5746 -0.9112
41373SOL     OW29248   6.833   7.804   2.620 -0.6699  0.3500 -0.2509
41373SOL    HW129249   6.763   7.857   2.581 -0.4368  1.0173  0.2283
41373SOL    HW229250   6.914   7.850   2.598 -0.3828 -0.3803 -0.7311
41374SOL     OW29251   0.449   6.762   4.991  0.3859 -0.0008  0.7978
41374SOL    HW129252   0.354   6.759   4.991  0.3044  1.8413  0.6468
41374SOL    HW229253   0.475   6.728   4.906 -0.0826 -1.3149  1.1630
41375SOL     OW29254   1.167   2.659   5.748 -0.9172 -0.0386 -0.3890
41375SOL    HW129255   1.135   2.692   5.664 -0.4695  0.5535 -0.3306
41375SOL    HW229256   1.247   2.610   5.725 -1.0156 -0.2183 -0.3518
41376SOL     OW29257   9.017  11.048   2.599  0.2956 -0.5055 -0.4510
41376SOL    HW129258   9.073  10.972   2.588 -1.1567 -1.6990  0.2867
41376SOL    HW229259   8.929  11.017   2.577 -0.3525  0.8767  0.1066
41377SOL     OW29260   2.650   5.809   6.534  0.0689  0.2172 -0.2641
41377SOL    HW129261   2.573   5.757   6.558 -0.0831 -0.3304 -1.9028
41377SOL    HW229262   2.653   5.878   6.601 -0.7495 -0.8477  0.9071
41378SOL     OW29263   2.219   9.807   0.447  0.2262  0.2427  0.5310
41378SOL    HW129264   2.159   9.881   0.440  1.3649  0.8662 -4.4099
41378SOL    HW229265   2.175   9.736   0.400  1.1667 -0.8611  1.2807
41379SOL     OW29266   6.534   6.670  10.449 -0.1678 -0.3010 -0.1597
41379SOL    HW129267   6.611   6.676  10.505  0.3197 -1.4055 -0.6837
41379SOL    HW229268   6.506   6.760  10.436  0.2158  0.0124  1.1720
41380SOL     OW29269   0.379   6.140   1.000  0.0863 -0.3003  0.4723
41380SOL    HW129270   0.454   6.153   1.059  1.7510 -1.5114 -1.2875
41380SOL    HW229271   0.388   6.209   0.934  0.2433 -1.0496 -0.3048
41381SOL     OW29272   3.926   3.248  10.396 -0.0772 -0.3740  0.2083
41381SOL    HW129273   3.951   3.280  10.483 -0.0476  1.0545 -0.2980
41381SOL    HW229274   3.996   3.189  10.371  0.0378 -0.5994  1.0596
41382SOL     OW29275   1.564   5.820   3.583 -0.8929 -0.5570 -0.1407
41382SOL    HW129276   1.572   5.751   3.518  0.9567 -0.6617  0.1689
41382SOL    HW229277   1.565   5.902   3.533 -0.8622 -0.6853 -0.3477
41383SOL     OW29278   0.480   8.198   0.457  0.3658 -0.2996  0.1348
41383SOL    HW129279   0.535   8.275   0.473  1.0652 -0.3927 -1.6248
41383SOL    HW229280   0.422   8.224   0.385  0.2823 -1.2422 -0.1551
41384SOL     OW29281   2.740   3.464   3.923  0.2443  0.0835  0.5743
41384SOL    HW129282   2.796   3.413   3.981  1.2222  0.4510 -0.0260
41384SOL    HW229283   2.652   3.452   3.957  0.7476 -0.1189  1.8288
41385SOL     OW29284   1.033   6.208   7.703 -0.0554  0.8375  0.1275
41385SOL    HW129285   0.947   6.191   7.663 -0.0928 -0.5414  0.7745
41385SOL    HW229286   1.096   6.186   7.634 -0.1020 -2.0845  0.9471
41386SOL     OW29287   8.548   3.636  10.204  0.3117  0.1826  0.6548
41386SOL    HW129288   8.635   3.611  10.172  0.8850  1.3200  1.2990
41386SOL    HW229289   8.539   3.728  10.180 -0.7956  0.0241  0.4388
41387SOL     OW29290   5.869   1.342   3.143 -0.3773  0.0322  0.2297
41387SOL    HW129291   5.812   1.409   3.105 -0.8298 -0.6736 -0.3552
41387SOL    HW229292   5.904   1.295   3.067  0.0655 -0.2861  0.6281
41388SOL     OW29293   9.860  11.217   6.118 -0.5453 -0.1271 -0.0846
41388SOL    HW129294   9.890  11.160   6.188 -0.6296 -0.3379 -0.2187
41388SOL    HW229295   9.933  11.277   6.103 -0.4783 -0.1618  0.0973
41389SOL     OW29296   1.687   4.083   0.848  0.0993 -0.1946  0.3475
41389SOL    HW129297   1.696   3.992   0.821  1.5105  0.3164 -0.9881
41389SOL    HW229298   1.635   4.079   0.928  1.9803 -2.3383  1.4972
41390SOL     OW29299   7.303   3.810   4.655  0.0097  0.6573 -0.1967
41390SOL    HW129300   7.211   3.814   4.682 -0.1436  0.8015 -0.7310
41390SOL    HW229301   7.348   3.868   4.717 -0.2751  0.6569  0.0111
41391SOL     OW29302   5.973   5.171   9.417 -0.7269  0.2588 -0.0974
41391SOL    HW129303   6.069   5.179   9.416 -0.8230  1.6620 -1.3857
41391SOL    HW229304   5.942   5.258   9.391 -2.3106 -0.5621 -1.0492
41392SOL     OW29305   9.665   6.177   3.687  0.1959 -0.1626  0.3948
41392SOL    HW129306   9.682   6.090   3.725 -1.5254 -0.5033  0.4092
41392SOL    HW229307   9.570   6.183   3.682  0.3406  0.5791 -2.2807
41393SOL     OW29308   4.842  10.231   5.694 -0.2041 -0.5848  0.2536
41393SOL    HW129309   4.750  10.243   5.670 -0.3913 -0.3940  1.0375
41393SOL    HW229310   4.891  10.267   5.621 -0.7566  2.0876  1.1628
41394SOL     OW29311   4.976   2.882   6.142  0.0500  0.0143 -0.0991
41394SOL    HW129312   4.908   2.941   6.172  0.5971  0.7360 -0.2604
41394SOL    HW229313   4.990   2.905   6.050  0.1519 -0.4764 -0.2105
41395SOL     OW29314   1.534   9.573   7.745  0.2413 -0.0655 -0.5666
41395SOL    HW129315   1.564   9.508   7.809 -1.8189 -0.6585 -0.1625
41395SOL    HW229316   1.583   9.652   7.766 -0.0094 -0.4136  1.4036
41396SOL     OW29317   5.591   6.564   2.646 -0.0196  0.5091 -0.0042
41396SOL    HW129318   5.641   6.631   2.598 -0.4933 -0.3141 -1.6945
41396SOL    HW229319   5.519   6.612   2.687  0.1244  1.1588 -0.5075
41397SOL     OW29320   6.448   7.621   6.034 -0.3654  0.0421  0.2929
41397SOL    HW129321   6.451   7.582   5.946  1.9013  1.7212 -0.4008
41397SOL    HW229322   6.391   7.562   6.084 -3.5217  0.2254 -2.8583
41398SOL     OW29323  10.664   1.087   7.157 -0.2421 -0.3271  0.5509
41398SOL    HW129324  10.570   1.074   7.161 -0.6949  2.5877 -0.1537
41398SOL    HW229325  10.698   1.007   7.116 -2.2122 -2.0238  2.1354
41399SOL     OW29326   1.271  10.346   1.418 -0.0957  0.3800  0.1977
41399SOL    HW129327   1.184  10.374   1.447  0.8476  2.6943  0.9310
41399SOL    HW229328   1.278  10.380   1.329 -0.0260 -0.0239  0.0480
41400SOL     OW29329   3.172   4.086   6.551  0.2534 -0.9014  0.7758
41400SOL    HW129330   3.107   4.101   6.482  1.8120 -1.1692 -0.7912
41400SOL    HW229331   3.130   4.118   6.631 -0.9442  1.0223 -0.5790
41401SOL     OW29332   1.869  10.106   5.885  0.7342  0.3780  0.2110
41401SOL    HW129333   1.882  10.045   5.958 -0.6999 -1.4329 -1.0009
41401SOL    HW229334   1.778  10.136   5.894  0.5656  0.1884 -0.7922
41402SOL     OW29335   8.492   4.471   9.847 -0.1241 -0.4450  0.0817
41402SOL    HW129336   8.514   4.473   9.754  1.4124  0.4664  0.4525
41402SOL    HW229337   8.479   4.378   9.866  0.3495 -0.7163 -0.8644
41403SOL     OW29338   3.403   9.914  10.311 -0.2495 -0.3563 -0.1761
41403SOL    HW129339   3.370  10.004  10.300 -1.2091 -0.3335  2.5062
41403SOL    HW229340   3.425   9.886  10.222 -1.2246  2.0453 -1.2343
41404SOL     OW29341   4.746   5.024  10.863  0.1629  0.2077 -0.8693
41404SOL    HW129342   4.783   5.035  10.951 -0.0774  0.9200 -0.8531
41404SOL    HW229343   4.788   5.092  10.810 -1.2754  1.1852 -0.7940
41405SOL     OW29344   0.312   7.761   2.080  0.2659  0.3329 -0.3797
41405SOL    HW129345   0.316   7.682   2.027 -1.0385 -0.9898  1.4781
41405SOL    HW229346   0.402   7.794   2.079  1.1582 -1.9912  0.0764
41406SOL     OW29347   0.883  11.036   0.024  0.6039 -0.4251 -0.6040
41406SOL    HW129348   0.914  11.052   0.113 -0.7479 -0.4533 -0.1208
41406SOL    HW229349   0.960  11.053  -0.031  1.1209  0.8090  0.4599
41407SOL     OW29350   7.755  11.241   0.873 -0.6267 -0.5438  0.4566
41407SOL    HW129351   7.815  11.166   0.868  0.7956  0.5158  0.9779
41407SOL    HW229352   7.808  11.316   0.843 -0.7024  0.9424  3.7522
41408SOL     OW29353   7.103   3.559  10.550 -0.3744 -0.3538 -0.1282
41408SOL    HW129354   7.060   3.643  10.535 -0.0923  0.1372  1.6731
41408SOL    HW229355   7.031   3.500  10.573 -0.3066 -0.0129  0.9687
41409SOL     OW29356   8.420   5.169   7.725  0.0229 -0.0055 -0.5078
41409SOL    HW129357   8.358   5.178   7.796  0.1597  4.0467 -0.7856
41409SOL    HW229358   8.505   5.160   7.768 -0.0808  0.6935 -0.1586
41410SOL     OW29359  10.591   9.542   2.433 -0.6454  0.6494 -0.4944
41410SOL    HW129360  10.616   9.634   2.447  3.8112 -0.5640  0.3306
41410SOL    HW229361  10.607   9.527   2.340 -0.3589  0.4417 -0.4127
41411SOL     OW29362   0.341   7.078   6.723 -0.2579 -0.9107  0.3544
41411SOL    HW129363   0.352   7.111   6.812 -0.7772  0.2795 -0.0104
41411SOL    HW229364   0.429   7.080   6.685 -0.0872 -1.1359  0.7325
41412SOL     OW29365   3.777   2.023   8.469 -0.3567 -0.3211  0.5372
41412SOL    HW129366   3.693   1.978   8.480 -0.8263  0.0999 -1.2036
41412SOL    HW229367   3.843   1.954   8.479 -0.9643 -0.9126  0.4613
41413SOL     OW29368   8.737   9.820   4.886 -0.3078  0.2082 -0.5441
41413SOL    HW129369   8.827   9.848   4.870 -0.5257  0.4430 -1.3791
41413SOL    HW229370   8.742   9.763   4.963  0.4396  0.8522 -0.1215
41414SOL     OW29371   8.626   7.632   6.145  0.0793 -0.2882  0.2070
41414SOL    HW129372   8.695   7.695   6.125 -1.5776  1.5326  0.0594
41414SOL    HW229373   8.571   7.677   6.209 -0.4998 -2.0546  0.9943
41415SOL     OW29374   3.565   5.925   3.017 -0.6470 -0.1162  0.5924
41415SOL    HW129375   3.520   5.892   3.094  1.3943 -0.3897  1.6974
41415SOL    HW229376   3.555   6.020   3.022 -1.8330 -0.2219  0.3552
41416SOL     OW29377   4.785   9.183   3.822  0.5644  0.0754  0.0791
41416SOL    HW129378   4.864   9.167   3.770  0.1519  0.5948 -0.7204
41416SOL    HW229379   4.760   9.096   3.855  2.1374  0.0762  1.3380
41417SOL     OW29380   4.834   5.486  10.893 -0.5456  0.3154  0.1802
41417SOL    HW129381   4.865   5.447  10.975 -1.1242 -1.1960 -0.3195
41417SOL    HW229382   4.822   5.412  10.834  1.0782  1.5157 -1.6971
41418SOL     OW29383   0.501  10.957   6.578  0.1593 -0.9685 -0.4772
41418SOL    HW129384   0.461  11.042   6.559  1.8046  0.0395  0.3609
41418SOL    HW229385   0.589  10.979   6.610  0.3360 -2.9530  0.4943
41419SOL     OW29386   4.774   9.411   0.458  0.1368 -0.3579  0.0977
41419SOL    HW129387   4.831   9.345   0.498  0.5975 -0.1454 -0.2043
41419SOL    HW229388   4.817   9.434   0.376 -0.1026  0.2037  0.1246
41420SOL     OW29389  10.589   2.766   3.004 -0.1056 -0.1422 -0.3537
41420SOL    HW129390  10.561   2.755   3.094  0.2755  1.1855 -0.0592
41420SOL    HW229391  10.596   2.677   2.969 -2.1859 -0.5829  0.3130
41421SOL     OW29392  10.380   1.961   7.117 -0.4251 -0.3770 -0.1235
41421SOL    HW129393  10.464   1.923   7.146 -0.7858 -1.5954 -0.6212
41421SOL    HW229394  10.394   2.055   7.119  0.3469 -0.5044  1.6472
41422SOL     OW29395   6.225   2.398   0.500  0.2276  0.0352  0.0368
41422SOL    HW129396   6.144   2.402   0.551  1.4441 -0.3638  2.0504
41422SOL    HW229397   6.256   2.308   0.511 -0.0879 -0.4342 -2.4296
41423SOL     OW29398  10.851   7.302  11.038  0.0447  0.1463 -0.3890
41423SOL    HW129399  10.838   7.366  11.108  2.7741 -0.4746  0.7690
41423SOL    HW229400  10.844   7.217  11.082 -2.5626 -0.3943 -1.7257
41424SOL     OW29401   2.649  11.090   3.665 -0.0133  0.0618 -0.1799
41424SOL    HW129402   2.694  11.011   3.636 -0.1066  0.5768 -1.7756
41424SOL    HW229403   2.618  11.131   3.585  0.9703  2.2956  0.5490
41425SOL     OW29404   4.543   0.693   3.972  0.3689  0.3351 -0.1172
41425SOL    HW129405   4.496   0.621   3.931  1.6559  0.3405 -1.6907
41425SOL    HW229406   4.498   0.772   3.942  0.3863  0.2751 -0.3018
41426SOL     OW29407   0.119   9.196   1.303  0.3036 -0.1967  0.2084
41426SOL    HW129408   0.148   9.184   1.213  2.3892  2.5258  0.4466
41426SOL    HW229409   0.169   9.132   1.353 -0.2223 -1.1202 -0.4288
41427SOL     OW29410   6.192   4.497   6.638 -0.0297 -0.1758  0.1825
41427SOL    HW129411   6.166   4.580   6.598 -0.4142 -0.6557 -0.5818
41427SOL    HW229412   6.288   4.500   6.639 -0.0418  0.2898  0.1913
41428SOL     OW29413   4.507  10.656  10.538  0.3035 -0.5415 -0.3014
41428SOL    HW129414   4.530  10.625  10.450  0.1305 -0.2416 -0.4553
41428SOL    HW229415   4.412  10.645  10.543  0.1952  0.2636 -0.4802
41429SOL     OW29416   9.182   2.964   8.944  0.2847 -0.0031 -0.7776
41429SOL    HW129417   9.137   3.048   8.938  1.8714  0.8564 -0.7173
41429SOL    HW229418   9.249   2.977   9.012  0.4432 -1.3533 -0.6580
41430SOL     OW29419   2.103   1.814   9.950  0.2434  0.6629  0.3607
41430SOL    HW129420   2.038   1.871   9.909  0.3960 -0.2429 -1.1943
41430SOL    HW229421   2.126   1.751   9.882  1.4908 -0.0809  1.4369
41431SOL     OW29422   2.598   1.169   6.667  0.2030 -0.0895  0.1851
41431SOL    HW129423   2.573   1.097   6.726 -0.7857  0.0045 -0.1098
41431SOL    HW229424   2.532   1.167   6.598  0.4655  0.7891 -0.0944
41432SOL     OW29425   4.919   4.766   6.813 -0.1912  0.3274 -0.0626
41432SOL    HW129426   4.962   4.680   6.816 -0.9029  0.0196  2.0871
41432SOL    HW229427   4.911   4.792   6.905 -0.4210  2.4955 -0.6653
41433SOL     OW29428   8.671  10.632   1.359 -0.1314  0.2888  0.8259
41433SOL    HW129429   8.671  10.719   1.320 -0.6058  0.3735  1.0091
41433SOL    HW229430   8.711  10.576   1.293 -0.6008  0.4991  0.3548
41434SOL     OW29431   9.164   0.980   5.198  0.3518 -0.0942  0.0026
41434SOL    HW129432   9.163   0.931   5.116 -1.9717  0.6229 -0.4384
41434SOL    HW229433   9.251   1.020   5.200  0.3533  0.1362 -2.2804
41435SOL     OW29434   1.188   4.374   5.854  0.6456 -0.5034 -0.0187
41435SOL    HW129435   1.165   4.461   5.886  1.3068 -0.1776 -0.4190
41435SOL    HW229436   1.207   4.323   5.933  2.6459  0.3981  0.1080
41436SOL     OW29437   1.042  10.894   9.805 -0.1161  0.0744 -0.0068
41436SOL    HW129438   1.101  10.903   9.730  1.7993 -0.3574  1.4133
41436SOL    HW229439   1.027  10.800   9.813 -0.0539  0.0993  0.3773
41437SOL     OW29440   3.269   7.242   0.595  0.0879  0.2105 -0.3786
41437SOL    HW129441   3.187   7.250   0.547 -0.3376 -0.0231  0.3145
41437SOL    HW229442   3.302   7.332   0.602 -0.1535  0.3139 -0.5662
41438SOL     OW29443   6.309   7.237   2.155 -0.4801  0.5445 -0.3218
41438SOL    HW129444   6.235   7.202   2.206  1.3375 -0.3117  1.8167
41438SOL    HW229445   6.357   7.291   2.218  2.9558 -2.1478 -0.5143
41439SOL     OW29446   7.350   9.041   4.869  0.3206 -0.1348  0.1082
41439SOL    HW129447   7.399   9.121   4.887  0.3505  0.6754 -3.2181
41439SOL    HW229448   7.348   8.994   4.952  2.6724  2.0286  1.4322
41440SOL     OW29449   9.627   3.123   0.854  0.2507 -0.1537 -0.3192
41440SOL    HW129450   9.697   3.058   0.855 -0.6512 -1.1686 -1.1135
41440SOL    HW229451   9.602   3.130   0.762 -0.4864  0.4067 -0.0866
41441SOL     OW29452   3.977  10.252   4.700  0.0897  0.0520  0.4900
41441SOL    HW129453   3.888  10.245   4.668 -0.1485  2.2953  0.5586
41441SOL    HW229454   4.009  10.162   4.703 -2.4668 -0.8815  1.3586
41442SOL     OW29455   6.254   4.951  10.812  0.0666  0.5362 -0.0802
41442SOL    HW129456   6.160   4.968  10.819  0.5445  3.8590 -0.8499
41442SOL    HW229457   6.290   4.983  10.895  0.5709 -0.2646  0.0084
41443SOL     OW29458   7.659   3.753   8.685  0.8071  0.4768  0.5248
41443SOL    HW129459   7.750   3.736   8.711  0.7561 -0.6446  0.0263
41443SOL    HW229460   7.665   3.820   8.617  1.3398 -0.2053 -0.1152
41444SOL     OW29461   2.592   4.355   5.564 -0.1601 -0.3595 -0.0215
41444SOL    HW129462   2.535   4.306   5.624  1.6696 -1.6583  0.7117
41444SOL    HW229463   2.533   4.414   5.518 -1.9550 -0.9759  1.4116
41445SOL     OW29464   2.034   3.482   1.709  0.2162 -0.1418  0.4688
41445SOL    HW129465   2.116   3.502   1.663  1.1264  1.5234  2.7364
41445SOL    HW229466   1.969   3.477   1.639  1.6660  1.7235 -1.0761
41446SOL     OW29467   0.280   3.421   6.648  0.1100 -0.3766  0.2021
41446SOL    HW129468   0.246   3.507   6.672  1.3512 -0.0870  0.9822
41446SOL    HW229469   0.202   3.368   6.631 -0.6564  1.0808 -0.9550
41447SOL     OW29470   7.080  10.909   8.998  0.0507  0.3599  0.3861
41447SOL    HW129471   7.055  10.996   9.029  0.1079 -0.0454  1.5643
41447SOL    HW229472   7.118  10.865   9.074  2.9820  0.4178 -0.9606
41448SOL     OW29473   6.764  10.477   3.463  0.1808 -0.1390 -0.3296
41448SOL    HW129474   6.796  10.500   3.550  0.2082 -0.9691 -0.1221
41448SOL    HW229475   6.782  10.384   3.454  1.5816  0.2378 -1.8189
41449SOL     OW29476   3.078   6.563  10.364  0.6811  0.1500 -0.4776
41449SOL    HW129477   3.088   6.655  10.338  0.9373 -0.4762 -2.6879
41449SOL    HW229478   3.021   6.566  10.441 -2.2444  1.9138 -2.6258
41450SOL     OW29479   6.521   3.293   4.326 -0.2878 -0.1019 -0.2671
41450SOL    HW129480   6.435   3.308   4.365  0.4638  1.9850  0.6867
41450SOL    HW229481   6.536   3.199   4.338 -1.8421 -0.2471  0.7977
41451SOL     OW29482   6.452   9.886   1.074  0.0359 -0.2215  0.0073
41451SOL    HW129483   6.400   9.936   1.011 -1.2541 -0.7793  0.6153
41451SOL    HW229484   6.506   9.828   1.020  0.8557  1.1642 -0.6683
41452SOL     OW29485   1.009   2.721   1.906 -0.2452  0.5518 -0.3795
41452SOL    HW129486   1.059   2.670   1.970 -1.0645  1.0190  0.6460
41452SOL    HW229487   1.070   2.787   1.874  1.0174 -1.3886 -2.1617
41453SOL     OW29488   4.569   9.698   8.000  0.0027 -0.1886  0.4327
41453SOL    HW129489   4.566   9.608   8.032 -1.9915 -0.0499  0.7293
41453SOL    HW229490   4.499   9.743   8.048  0.8657  1.4755  0.1665
41454SOL     OW29491   5.557   8.637  11.070  0.1342  0.0318 -0.0480
41454SOL    HW129492   5.497   8.697  11.026 -0.1462  1.1440  1.7844
41454SOL    HW229493   5.504   8.595  11.138  1.0298 -0.1545  0.5536
41455SOL     OW29494  10.032   9.246   2.723 -1.0777 -0.5820  0.8238
41455SOL    HW129495   9.955   9.299   2.700 -0.6114 -0.6581 -0.9769
41455SOL    HW229496  10.072   9.224   2.639  1.3599  0.0834  1.7680
41456SOL     OW29497   5.227   5.050   9.112 -0.3950 -0.0443 -0.1429
41456SOL    HW129498   5.154   5.060   9.051  0.1663  1.4078 -0.5905
41456SOL    HW229499   5.187   5.057   9.198 -1.0142 -0.8800 -0.3532
41457SOL     OW29500   4.896   7.024   0.325  0.4444 -0.1125 -0.5062
41457SOL    HW129501   4.945   7.016   0.243 -1.0457 -0.2765 -1.3877
41457SOL    HW229502   4.892   6.935   0.359  0.4577 -0.1533 -0.6105
41458SOL     OW29503   2.369   5.936   0.960  0.0097  0.0451 -0.0974
41458SOL    HW129504   2.321   5.996   1.018  0.9937 -0.6082  1.4173
41458SOL    HW229505   2.432   5.991   0.915 -2.3042  0.9780 -2.3471
41459SOL     OW29506   4.208   2.868   8.900 -0.4572 -0.4580 -0.0341
41459SOL    HW129507   4.177   2.907   8.981 -1.1842 -0.3769 -0.3477
41459SOL    HW229508   4.128   2.842   8.853 -0.2717  3.2074 -2.5739
41460SOL     OW29509   5.406   4.190   2.091 -0.2810 -0.1975  0.1026
41460SOL    HW129510   5.467   4.192   2.017  0.0353  0.0020  0.3674
41460SOL    HW229511   5.461   4.207   2.168 -0.1586 -2.9534  0.6947
41461SOL     OW29512   9.045   6.013   5.424 -0.1751  0.0675 -0.1597
41461SOL    HW129513   9.034   5.984   5.334 -0.9468 -2.2478  0.6490
41461SOL    HW229514   8.978   6.081   5.436 -0.2128  0.2311 -1.2413
41462SOL     OW29515   9.024   3.149   6.660 -0.3277  0.5064  0.3275
41462SOL    HW129516   8.980   3.190   6.734  0.1695  2.3296 -0.3489
41462SOL    HW229517   9.052   3.222   6.605 -1.7905 -0.8365 -2.3066
41463SOL     OW29518   6.460   5.921  10.409 -0.2540 -0.4378  0.2113
41463SOL    HW129519   6.548   5.928  10.446  0.1708 -3.3624 -0.1273
41463SOL    HW229520   6.407   5.981  10.461  1.4428 -0.4291  1.9684
41464SOL     OW29521   4.786   0.813   3.950 -0.8144  0.2807 -0.4285
41464SOL    HW129522   4.855   0.746   3.946  0.7969  1.7820  1.2570
41464SOL    HW229523   4.704   0.763   3.950  0.3749 -1.7807  1.7691
41465SOL     OW29524   3.825   9.205   1.999 -0.2317  0.3062  0.0965
41465SOL    HW129525   3.732   9.216   2.020 -0.4442  0.0069 -0.6676
41465SOL    HW229526   3.838   9.257   1.920  0.8297  2.3891  1.5883
41466SOL     OW29527   6.839   1.843   3.624  0.0424 -0.3225  0.2429
41466SOL    HW129528   6.864   1.926   3.585 -0.2952 -0.6442 -0.6769
41466SOL    HW229529   6.812   1.865   3.713 -0.3959  0.6050 -0.1126
41467SOL     OW29530  11.126   3.369   4.746 -0.8921 -0.0684  0.6592
41467SOL    HW129531  11.143   3.432   4.817 -1.0504  0.6791  0.0427
41467SOL    HW229532  11.207   3.368   4.696 -1.0773  0.0639  0.3533
41468SOL     OW29533   6.649  11.184   6.389  0.2021  0.2221  0.5835
41468SOL    HW129534   6.714  11.182   6.318  1.1376  0.4044  1.4264
41468SOL    HW229535   6.691  11.136   6.461 -1.0609 -0.6583  0.7562
41469SOL     OW29536   6.728  10.921   2.938 -0.0774  0.5428  0.5931
41469SOL    HW129537   6.672  10.901   2.863 -0.5239 -0.8230  1.2617
41469SOL    HW229538   6.814  10.886   2.914 -1.0469 -3.1155  2.0832
41470SOL     OW29539   2.328   4.142   6.333 -0.6408  0.2555  0.4311
41470SOL    HW129540   2.249   4.189   6.308 -0.6651 -0.3294 -0.6369
41470SOL    HW229541   2.297   4.056   6.362 -0.2706 -0.7201 -1.9418
41471SOL     OW29542   8.268   8.802   3.024  0.2429  0.5883  0.0904
41471SOL    HW129543   8.316   8.738   2.971 -2.4223 -2.4404  1.1362
41471SOL    HW229544   8.196   8.830   2.968  1.5407  2.9288 -0.4474
41472SOL     OW29545   9.217   3.602   7.606  0.4448 -0.0954  0.1835
41472SOL    HW129546   9.169   3.526   7.638  0.2706 -2.4326 -5.2154
41472SOL    HW229547   9.149   3.664   7.578  0.5594 -0.2687 -0.4937
41473SOL     OW29548   5.470   4.931   6.395 -0.7937  0.4501 -0.3399
41473SOL    HW129549   5.376   4.919   6.408 -0.3469 -1.9810  1.0757
41473SOL    HW229550   5.503   4.842   6.381  1.2452  1.3145 -1.2245
41474SOL     OW29551  10.960   2.968   6.764  0.3772  0.2212  0.2143
41474SOL    HW129552  10.950   2.883   6.807 -1.1466 -0.6913 -1.8433
41474SOL    HW229553  10.900   3.026   6.811  1.3433  0.1514  1.5560
41475SOL     OW29554   0.603  10.647   7.091 -0.4384 -0.6073  0.4104
41475SOL    HW129555   0.533  10.676   7.031 -0.5913  1.0068  1.3256
41475SOL    HW229556   0.558  10.593   7.156 -0.7876  0.1233  0.7833
41476SOL     OW29557   8.554   5.253   7.241  0.0378 -0.8737 -0.0327
41476SOL    HW129558   8.580   5.210   7.159  0.9303 -1.9515  0.8040
41476SOL    HW229559   8.484   5.198   7.276  0.0226 -0.7111  0.1912
41477SOL     OW29560   3.527   4.358   3.047  0.1120 -0.0148 -0.2165
41477SOL    HW129561   3.501   4.405   2.968 -2.8421 -1.2959 -0.0837
41477SOL    HW229562   3.505   4.267   3.029 -0.0214 -0.4156  1.8455
41478SOL     OW29563   6.417   7.445   0.192  0.8464  0.0548 -0.2485
41478SOL    HW129564   6.477   7.511   0.158  1.0653 -0.4428 -0.8409
41478SOL    HW229565   6.387   7.398   0.114 -2.1198  1.7971 -0.2482
41479SOL     OW29566   8.034   3.412   5.607 -0.0338  0.0623  0.4305
41479SOL    HW129567   8.002   3.335   5.560 -0.1206  0.2053  0.2586
41479SOL    HW229568   8.037   3.384   5.699  0.5867 -0.3674  0.2858
41480SOL     OW29569   4.174   5.765   8.250 -0.6240 -0.1720 -0.6407
41480SOL    HW129570   4.223   5.693   8.210 -0.9604 -0.0809 -1.2213
41480SOL    HW229571   4.164   5.829   8.180 -2.2238 -0.5204 -0.7643
41481SOL     OW29572   5.193  10.121   0.656 -0.1976 -0.8690 -0.7083
41481SOL    HW129573   5.223  10.061   0.587  2.4583 -1.8132  1.2092
41481SOL    HW229574   5.128  10.070   0.705  0.6932 -1.5300 -0.2081
41482SOL     OW29575   7.356   4.189   1.559  0.3917  0.4111  0.2698
41482SOL    HW129576   7.381   4.123   1.623  2.5659  1.4059  0.4822
41482SOL    HW229577   7.382   4.152   1.475 -0.1952  0.1603  0.1983
41483SOL     OW29578   8.661  11.241   5.202  0.0185 -0.3564 -0.5276
41483SOL    HW129579   8.643  11.182   5.128 -1.2312 -0.7967  0.1077
41483SOL    HW229580   8.603  11.210   5.272  2.7369 -1.2816  1.3739
41484SOL     OW29581   6.839   3.795   3.435 -0.0980 -0.0718  0.2664
41484SOL    HW129582   6.768   3.851   3.466  0.2410  0.0703  0.7982
41484SOL    HW229583   6.890   3.776   3.514  0.6658  0.1327 -0.1776
41485SOL     OW29584   6.509   4.012   3.985  0.0919 -0.2011  0.1487
41485SOL    HW129585   6.446   3.945   4.011  0.0445 -0.0054  0.5353
41485SOL    HW229586   6.593   3.966   3.983  0.1053 -0.2024  0.7053
41486SOL     OW29587   1.826   0.489   2.145  0.4683  0.1407  0.7022
41486SOL    HW129588   1.849   0.397   2.136 -1.2249 -0.3300  1.1375
41486SOL    HW229589   1.798   0.499   2.236  2.0494  1.4270  1.0895
41487SOL     OW29590  10.464   5.612   7.351 -0.0505  0.1910  0.5173
41487SOL    HW129591  10.387   5.635   7.404 -0.5472  1.0954 -0.5714
41487SOL    HW229592  10.461   5.672   7.277  1.8922  0.4436  0.6172
41488SOL     OW29593   6.301   7.091   4.877  0.0393 -0.1300 -0.6569
41488SOL    HW129594   6.207   7.093   4.894  0.4549  1.7461  1.6099
41488SOL    HW229595   6.308   7.055   4.788 -2.9092  1.3749 -1.5811
41489SOL     OW29596   9.453   6.238   8.650  0.0431 -0.5156 -0.2656
41489SOL    HW129597   9.538   6.223   8.607  2.0731  1.4216  2.8295
41489SOL    HW229598   9.433   6.329   8.632 -0.5913 -0.5392  0.3153
41490SOL     OW29599   9.846   6.158   1.997 -0.2262 -0.2397  0.2719
41490SOL    HW129600   9.888   6.172   1.913 -0.7209 -3.2665 -0.5263
41490SOL    HW229601   9.800   6.075   1.988 -0.5550 -0.4799  3.4160
41491SOL     OW29602   9.410  10.770  10.168  0.0325 -0.5626 -0.3269
41491SOL    HW129603   9.355  10.698  10.138  0.0748 -0.3407 -0.9377
41491SOL    HW229604   9.446  10.808  10.088  0.0027  0.1423 -0.0123
41492SOL     OW29605   1.536   2.930   3.246  0.1733  0.3499 -0.2862
41492SOL    HW129606   1.485   2.868   3.194 -0.4044 -0.9591  1.8004
41492SOL    HW229607   1.591   2.875   3.302 -0.9052  1.6898  2.1310
41493SOL     OW29608   3.821   7.434  10.986 -0.7342  0.0060 -0.0743
41493SOL    HW129609   3.736   7.453  11.027 -0.4145 -1.5997  1.4203
41493SOL    HW229610   3.885   7.459  11.052 -0.1084 -0.3452 -0.5418
41494SOL     OW29611   5.747   6.146   7.011 -0.3416  0.2017 -0.4514
41494SOL    HW129612   5.657   6.171   7.033  0.3466  0.1451  2.6479
41494SOL    HW229613   5.772   6.083   7.078  1.8252 -0.2424 -1.6200
41495SOL     OW29614   8.640   4.190   6.263  0.0573 -0.7158 -0.6161
41495SOL    HW129615   8.693   4.122   6.222  1.4485  0.8696 -1.4877
41495SOL    HW229616   8.673   4.272   6.226  1.1251  0.7729  3.3916
41496SOL     OW29617   8.316   4.878   5.331 -0.6300 -0.8309 -0.3292
41496SOL    HW129618   8.255   4.837   5.269  0.6135 -3.7372  0.2976
41496SOL    HW229619   8.401   4.841   5.309  0.0606 -0.8348  2.1936
41497SOL     OW29620   7.360   4.550   0.550  0.3108  0.5269 -0.6220
41497SOL    HW129621   7.349   4.457   0.528 -2.7097  0.7304 -0.1949
41497SOL    HW229622   7.454   4.559   0.569  0.6877 -2.3814 -0.8377
41498SOL     OW29623   8.821   7.539   9.447 -0.2344  0.2440 -0.5133
41498SOL    HW129624   8.739   7.513   9.490 -0.0934  0.2396 -0.2405
41498SOL    HW229625   8.852   7.458   9.407 -0.3701  0.2485 -0.6277
41499SOL     OW29626   2.029   5.581   2.127  0.3095  0.1230 -0.4350
41499SOL    HW129627   2.095   5.602   2.062 -0.2519 -1.3775 -1.5062
41499SOL    HW229628   2.055   5.496   2.163  0.2202  0.5921  0.7960
41500SOL     OW29629   4.283  10.616   0.556  0.1140  0.1440 -0.2715
41500SOL    HW129630   4.275  10.696   0.608 -2.1534  0.3992 -0.9921
41500SOL    HW229631   4.251  10.547   0.613  2.6340 -0.4015  0.5730
41501SOL     OW29632   7.431  10.206   2.550 -0.2334 -0.2503 -0.2002
41501SOL    HW129633   7.512  10.245   2.583  0.1142 -1.4724  0.4269
41501SOL    HW229634   7.443  10.201   2.455 -0.1308  0.8109 -0.2474
41502SOL     OW29635   4.393   0.698  10.840 -0.2788  0.3957  0.1545
41502SOL    HW129636   4.408   0.782  10.885  0.3210 -0.0524  0.8051
41502SOL    HW229637   4.437   0.708  10.755 -0.8213  0.9982 -0.0602
41503SOL     OW29638   1.987   7.166   9.162  0.1793  0.2585  0.4658
41503SOL    HW129639   2.029   7.143   9.079  0.9751  1.5951  0.4815
41503SOL    HW229640   1.896   7.137   9.151  0.0043  1.3601 -1.3020
41504SOL     OW29641   3.403   8.224   1.339 -0.2539  0.6614 -0.0332
41504SOL    HW129642   3.385   8.248   1.248 -3.1057  0.6775  0.4912
41504SOL    HW229643   3.381   8.132   1.345  3.9067 -0.4466 -0.3018
41505SOL     OW29644   1.017   9.841   9.621  0.2186 -0.3618  0.3308
41505SOL    HW129645   1.070   9.868   9.545 -0.8286 -1.6570 -0.8862
41505SOL    HW229646   1.067   9.770   9.661 -1.0224 -2.3010 -1.4305
41506SOL     OW29647   0.569   3.308   4.028 -0.1027  0.6284  0.1000
41506SOL    HW129648   0.635   3.328   3.961 -0.3586  0.7868 -0.1085
41506SOL    HW229649   0.563   3.213   4.027  2.2978  0.4153  2.2405
41507SOL     OW29650  10.766  10.586   7.700 -0.1383  0.0837 -0.2458
41507SOL    HW129651  10.813  10.656   7.744  0.1570 -1.2833  1.6964
41507SOL    HW229652  10.759  10.517   7.766 -2.5251 -0.7763 -1.3578
41508SOL     OW29653   5.540   5.751   0.609 -0.1223  0.1680  0.7433
41508SOL    HW129654   5.506   5.741   0.697  1.7895 -0.8707  1.3945
41508SOL    HW229655   5.559   5.662   0.580  2.2727  0.6917  0.5482
41509SOL     OW29656   3.798   5.219  10.009 -0.1518  0.5445 -0.7414
41509SOL    HW129657   3.888   5.237   9.982  0.1428 -0.1876 -0.2745
41509SOL    HW229658   3.788   5.125   9.996  0.5709 -0.1772  3.2334
41510SOL     OW29659   5.605  10.579   0.884  0.7303 -0.1978 -0.1727
41510SOL    HW129660   5.610  10.648   0.950 -0.9781  0.7399 -0.9829
41510SOL    HW229661   5.550  10.511   0.923  0.2086  0.0929 -0.3977
41511SOL     OW29662   7.273   8.525   2.625  0.3087 -0.0698 -0.1753
41511SOL    HW129663   7.227   8.446   2.598  0.6654 -0.3118 -0.0909
41511SOL    HW229664   7.307   8.504   2.713  0.4622  0.1490 -0.1819
41512SOL     OW29665   3.544   9.194   3.088 -0.6749  0.3495  0.4464
41512SOL    HW129666   3.488   9.132   3.136 -0.6332  0.4782  0.6619
41512SOL    HW229667   3.514   9.187   2.998 -0.3970 -0.2842  0.4012
41513SOL     OW29668   7.681  11.137   5.536 -0.1974  0.1118 -0.1292
41513SOL    HW129669   7.612  11.196   5.509 -0.1629  0.0616 -0.3229
41513SOL    HW229670   7.638  11.051   5.542  0.1349 -0.1598 -1.4891
41514SOL     OW29671   2.274   6.949   7.328 -0.0022 -0.1775  0.0597
41514SOL    HW129672   2.232   6.863   7.319  0.4866 -0.4410  0.2764
41514SOL    HW229673   2.202   7.011   7.320 -0.3044 -0.5929 -0.4954
41515SOL     OW29674   9.495   3.764  11.106  0.4645  0.0380  0.9905
41515SOL    HW129675   9.562   3.705  11.072  0.8634 -0.2772  2.2789
41515SOL    HW229676   9.543   3.843  11.129  0.3115  0.0070  1.4196
41516SOL     OW29677  10.436   9.988   8.152 -0.3512 -0.0638  0.1303
41516SOL    HW129678  10.378   9.926   8.196  1.7117 -1.9312  0.2969
41516SOL    HW229679  10.380  10.033   8.089 -2.1640 -1.1807  0.9141
41517SOL     OW29680   1.483   0.087   8.419  0.0685  0.2348  0.0545
41517SOL    HW129681   1.500  -0.002   8.389 -1.0360  0.0919 -0.1874
41517SOL    HW229682   1.464   0.078   8.512  1.2387  0.3857  0.3133
41518SOL     OW29683   1.309   5.819   4.360  0.5118  0.1353  0.5439
41518SOL    HW129684   1.279   5.892   4.306  0.2899  0.4091  1.0353
41518SOL    HW229685   1.272   5.836   4.447 -0.3012 -1.0433  0.4365
41519SOL     OW29686  11.019   3.679   6.024  0.7904 -0.0462 -0.1447
41519SOL    HW129687  10.974   3.662   5.941 -0.0922  0.5495  0.2109
41519SOL    HW229688  11.112   3.671   6.002  0.5469 -0.4766 -1.0594
41520SOL     OW29689  10.953   4.707   9.111  0.0695  0.0800 -0.4190
41520SOL    HW129690  10.953   4.615   9.138 -0.8595  0.4793  1.0435
41520SOL    HW229691  10.965   4.705   9.016 -0.9800 -1.5902 -0.5287
41521SOL     OW29692  11.035   4.830  10.475 -0.3197 -0.0522  0.5162
41521SOL    HW129693  10.998   4.913  10.445 -1.6194  0.1204  2.5640
41521SOL    HW229694  10.974   4.797  10.540  0.2885 -2.5310 -0.0766
41522SOL     OW29695   1.071  10.847   9.051 -0.2760 -0.1868 -0.5079
41522SOL    HW129696   0.994  10.876   9.100 -0.6560 -1.4126 -0.3519
41522SOL    HW229697   1.143  10.899   9.086 -0.7094 -0.3727  0.6962
41523SOL     OW29698  11.084   1.455   0.398  0.2353  0.2219  0.2497
41523SOL    HW129699  11.143   1.526   0.424  0.3241 -0.8647  3.2505
41523SOL    HW229700  11.000   1.478   0.438 -0.4394 -0.0111 -1.0269
41524SOL     OW29701   6.311   5.363   8.749  0.5876  0.7050  0.3765
41524SOL    HW129702   6.266   5.280   8.763  0.6902  0.5632 -0.0918
41524SOL    HW229703   6.378   5.366   8.817 -0.0920  0.8935  1.0400
41525SOL     OW29704   6.801   7.346   5.477 -0.5583  0.2273 -0.1971
41525SOL    HW129705   6.714   7.367   5.445 -0.9791 -0.3063  0.5778
41525SOL    HW229706   6.861   7.388   5.415 -1.3650  1.3354 -0.2347
41526SOL     OW29707   9.467   8.993   7.929  0.4607 -0.2517 -0.2805
41526SOL    HW129708   9.390   9.017   7.876 -0.1908 -1.1768  0.2304
41526SOL    HW229709   9.540   9.040   7.888 -0.5828  1.6953  0.0170
41527SOL     OW29710   6.128   0.885   8.029  0.1765 -0.1320 -0.2271
41527SOL    HW129711   6.193   0.950   8.003  1.3832 -0.8718  0.8720
41527SOL    HW229712   6.076   0.928   8.097 -1.1632  0.8109 -1.8037
41528SOL     OW29713   0.796   2.949   1.647  0.7123  0.2619 -0.5465
41528SOL    HW129714   0.861   3.002   1.694 -0.6832  1.1062  0.4718
41528SOL    HW229715   0.735   2.921   1.715  0.3329 -1.0252 -1.4037
41529SOL     OW29716   9.808   4.896   4.501  0.2779 -0.3292 -0.5792
41529SOL    HW129717   9.784   4.986   4.478 -0.2964 -0.3653 -0.1329
41529SOL    HW229718   9.725   4.849   4.503  0.4110 -0.5158  0.7233
41530SOL     OW29719   1.193   0.250   6.516  0.1370  0.2615  0.2200
41530SOL    HW129720   1.281   0.286   6.507  0.4437 -0.2852  1.0322
41530SOL    HW229721   1.138   0.310   6.466  0.8684  0.9984  0.2844
41531SOL     OW29722   0.647   5.301   7.664 -0.1379 -0.1894 -0.2992
41531SOL    HW129723   0.663   5.335   7.576 -1.6458 -0.3291 -0.6358
41531SOL    HW229724   0.628   5.208   7.652  3.4489 -1.1369  0.5717
41532SOL     OW29725   2.344   6.027  10.389  0.5144 -0.0819  0.8594
41532SOL    HW129726   2.252   6.029  10.416  0.5921 -0.4023  1.1333
41532SOL    HW229727   2.392   6.062  10.464  0.5867  0.3947  0.5945
41533SOL     OW29728   0.652   3.272   3.228 -0.5430  0.1760  0.2968
41533SOL    HW129729   0.650   3.303   3.318 -1.4217 -3.4815  1.6384
41533SOL    HW229730   0.598   3.334   3.179 -0.6451  1.7958  2.4160
41534SOL     OW29731   7.149   7.429   4.102 -0.4819 -0.2543 -0.7771
41534SOL    HW129732   7.242   7.417   4.121 -0.4306 -0.8398 -1.3940
41534SOL    HW229733   7.104   7.381   4.171 -0.3213 -0.3018 -0.7050
41535SOL     OW29734   9.418   8.098   4.900 -0.4654 -0.2497 -0.5597
41535SOL    HW129735   9.513   8.090   4.908 -0.3948  0.9337 -0.1022
41535SOL    HW229736   9.403   8.128   4.810 -0.4203 -0.6274 -0.6940
41536SOL     OW29737   5.089   1.063  10.991  0.3291  1.0297 -0.3453
41536SOL    HW129738   5.142   1.141  11.006  0.2742  0.8063  1.0131
41536SOL    HW229739   5.009   1.079  11.041  1.7968 -1.4757  2.9499
41537SOL     OW29740  10.375   9.855   0.081  0.6092  0.1710 -0.2009
41537SOL    HW129741  10.406   9.944   0.101 -0.0654  0.1643  0.9606
41537SOL    HW229742  10.371   9.812   0.167  0.3335 -0.7847 -0.6890
41538SOL     OW29743   0.871   3.589   3.047 -0.1338 -0.0296 -0.0895
41538SOL    HW129744   0.884   3.546   3.132  0.0146  1.5707  0.7194
41538SOL    HW229745   0.824   3.670   3.068 -0.7820  0.0174 -1.6338
41539SOL     OW29746   4.999   6.483   8.858  0.1420  0.3284 -1.0894
41539SOL    HW129747   5.074   6.436   8.894 -2.1492 -0.9918  2.2381
41539SOL    HW229748   4.958   6.524   8.933 -2.5671  0.9007 -2.8097
41540SOL     OW29749   9.401   6.207   8.973 -0.0158  0.5879 -0.5153
41540SOL    HW129750   9.388   6.193   8.879 -1.4559  1.7762 -0.5084
41540SOL    HW229751   9.327   6.261   9.000  1.6874  2.3221  0.8268
41541SOL     OW29752   1.246   4.408  10.777 -0.5142 -0.4655 -0.1289
41541SOL    HW129753   1.277   4.445  10.859 -0.5363 -0.0277 -0.3188
41541SOL    HW229754   1.154   4.431  10.773 -0.5011 -0.4368 -0.3002
41542SOL     OW29755   3.140  10.482   8.815  0.2461  0.1711  0.2248
41542SOL    HW129756   3.131  10.496   8.721 -0.2766  0.6072  0.3356
41542SOL    HW229757   3.090  10.554   8.854 -1.0432 -1.0455  0.8282
41543SOL     OW29758   3.636   3.544  10.259 -0.4294 -0.1879  0.2967
41543SOL    HW129759   3.579   3.497  10.320  0.0678 -1.4417 -0.1946
41543SOL    HW229760   3.715   3.563  10.310  0.2009 -1.6986 -0.0895
41544SOL     OW29761   5.493   5.064   4.686  0.1779  0.0100 -0.6122
41544SOL    HW129762   5.491   5.149   4.730  0.7796 -1.0903  1.5927
41544SOL    HW229763   5.402   5.035   4.684 -0.0437  0.7297 -1.4700
41545SOL     OW29764   5.650   5.886  10.427  0.1254 -0.6475  0.4150
41545SOL    HW129765   5.613   5.950  10.488 -0.5712  2.5242 -3.1875
41545SOL    HW229766   5.726   5.930  10.389  0.3088 -2.3909 -1.2847
41546SOL     OW29767   5.526   2.049   4.304 -0.0101 -0.1793  0.2071
41546SOL    HW129768   5.475   1.984   4.256  1.6450 -1.0341 -0.4382
41546SOL    HW229769   5.461   2.110   4.340 -1.5082 -1.6727  0.0514
41547SOL     OW29770   5.208  10.262   7.880 -0.3533 -0.0540  0.0308
41547SOL    HW129771   5.126  10.216   7.898  0.7854 -2.8225 -1.5952
41547SOL    HW229772   5.276  10.205   7.917  0.9994  1.1130 -0.6017
41548SOL     OW29773   7.168   1.784   6.351 -0.4364  0.0840  0.3125
41548SOL    HW129774   7.109   1.794   6.276  1.1066  0.6981 -0.8663
41548SOL    HW229775   7.234   1.853   6.338  1.4668 -1.6034  0.6787
41549SOL     OW29776   2.666   1.074   6.253  0.1336  0.0980 -0.2207
41549SOL    HW129777   2.713   1.143   6.206 -1.6500  0.5857 -1.3250
41549SOL    HW229778   2.653   1.005   6.188 -1.0780  0.1634 -0.0511
41550SOL     OW29779   6.793   5.506   6.883 -0.2779  0.6717 -0.0192
41550SOL    HW129780   6.730   5.440   6.914  0.1639 -0.5048 -1.5841
41550SOL    HW229781   6.746   5.554   6.815  0.8348 -0.9327 -1.9746
41551SOL     OW29782   0.172   7.537   4.071  0.1548  0.3054 -0.1644
41551SOL    HW129783   0.121   7.457   4.087 -1.7076  1.7405  1.4996
41551SOL    HW229784   0.109   7.597   4.031  1.1926  1.3254 -0.2813
41552SOL     OW29785   9.885   1.039   0.121 -0.4328  0.1292  0.1431
41552SOL    HW129786   9.900   0.951   0.157  1.8221  0.1581 -0.6342
41552SOL    HW229787   9.808   1.071   0.168 -1.0334 -2.0745  0.7656
41553SOL     OW29788   7.872  10.690  10.707 -0.2370 -0.0300  0.8723
41553SOL    HW129789   7.912  10.776  10.693  1.6255 -0.9539  0.5216
41553SOL    HW229790   7.829  10.670  10.624  0.2929  0.0368  0.5846
41554SOL     OW29791   9.527   8.602   8.459  0.1523  0.1141 -0.0514
41554SOL    HW129792   9.479   8.671   8.505 -0.2304 -1.0984  1.4127
41554SOL    HW229793   9.611   8.596   8.504  0.6524  0.4319 -0.9316
41555SOL     OW29794  11.252   2.662   0.685  0.2754 -0.6389 -0.2724
41555SOL    HW129795  11.284   2.717   0.756  0.8415 -0.1981 -0.8647
41555SOL    HW229796  11.247   2.574   0.723  0.6888 -0.4275  0.2686
41556SOL     OW29797   3.172   4.106   7.612  0.4530 -0.2944  0.6894
41556SOL    HW129798   3.098   4.046   7.618 -0.6923  1.0829  0.4748
41556SOL    HW229799   3.228   4.069   7.544 -0.1509 -1.2253  0.7002
41557SOL     OW29800  10.587   3.219   7.932  0.2612  0.2912 -0.0644
41557SOL    HW129801  10.534   3.165   7.990 -0.9336 -0.5390 -1.8925
41557SOL    HW229802  10.670   3.172   7.925  1.7817  2.2294  3.7944
41558SOL     OW29803   0.937   7.238   2.224 -0.4496 -0.3316 -0.0032
41558SOL    HW129804   0.939   7.330   2.250  0.1455 -0.8502  1.9173
41558SOL    HW229805   0.856   7.205   2.262 -0.1250 -0.8408  0.2521
41559SOL     OW29806   9.959   6.904   2.238 -0.5524  0.4198 -1.0232
41559SOL    HW129807  10.022   6.859   2.182 -0.5965  2.2448 -2.5742
41559SOL    HW229808   9.876   6.862   2.219 -0.5385  0.9275 -2.2158
41560SOL     OW29809   4.680   8.075  10.838 -0.0445  0.4823 -0.0884
41560SOL    HW129810   4.649   8.057  10.749  0.9101 -0.5439 -0.2247
41560SOL    HW229811   4.602   8.067  10.893 -0.4776  0.2922 -0.7276
41561SOL     OW29812   9.918   6.247   7.176 -0.1452  0.1414 -0.2796
41561SOL    HW129813   9.928   6.312   7.106 -0.5443 -0.9694 -1.3765
41561SOL    HW229814   9.826   6.253   7.201 -0.6976 -1.4183 -1.8130
41562SOL     OW29815   4.489   9.358   2.927 -0.1053  0.5367  0.2249
41562SOL    HW129816   4.558   9.417   2.895  0.9348 -1.8471 -2.0682
41562SOL    HW229817   4.527   9.316   3.004 -0.2913  1.7342  0.9794
41563SOL     OW29818   7.802  11.204   5.788 -0.1072 -0.0976  0.1474
41563SOL    HW129819   7.772  11.182   5.700  0.8984 -0.6628 -0.0506
41563SOL    HW229820   7.870  11.270   5.775  0.2908 -0.4384  0.4802
41564SOL     OW29821   1.463   8.349  10.616  0.9373  0.0819  0.3394
41564SOL    HW129822   1.398   8.321  10.551  1.8355 -2.2535  0.4049
41564SOL    HW229823   1.533   8.388  10.565  1.6614 -1.7895 -0.1195
41565SOL     OW29824   2.015   7.609   7.265  0.6175  0.1795  0.5011
41565SOL    HW129825   1.967   7.540   7.219  1.7110  0.1866 -0.7017
41565SOL    HW229826   1.974   7.690   7.235 -0.5325  0.0633  1.7550
41566SOL     OW29827   0.695   0.461   0.973 -0.2492 -0.3234  0.1791
41566SOL    HW129828   0.739   0.511   0.904  0.5860 -0.6572  0.4684
41566SOL    HW229829   0.704   0.515   1.052  0.0573 -0.6135  0.3425
41567SOL     OW29830   9.527   6.304   8.268 -0.0162 -0.5222 -0.1507
41567SOL    HW129831   9.613   6.309   8.227  0.1165  0.6363  0.2693
41567SOL    HW229832   9.531   6.366   8.341  0.1125 -3.3105  2.3179
41568SOL     OW29833   3.258   1.728   8.103  0.3612 -0.4130 -0.2616
41568SOL    HW129834   3.225   1.817   8.114 -2.7001 -1.3198 -1.3013
41568SOL    HW229835   3.283   1.724   8.010  0.7927 -0.5454 -0.1388
41569SOL     OW29836   4.294   3.277   5.619  0.0939  0.5099  0.5272
41569SOL    HW129837   4.288   3.369   5.595 -2.1942 -0.3100 -2.4237
41569SOL    HW229838   4.233   3.268   5.692 -0.6067  1.1027  0.0236
41570SOL     OW29839   2.419   4.478   3.156  0.1716  0.2696  0.5983
41570SOL    HW129840   2.448   4.553   3.208  0.7300  1.1041 -0.8798
41570SOL    HW229841   2.439   4.503   3.066 -2.1522 -0.5015 -0.1701
41571SOL     OW29842   3.255   7.975  10.358  0.1787  0.7092  0.2960
41571SOL    HW129843   3.243   7.934  10.272 -0.4845  0.5668  0.4548
41571SOL    HW229844   3.344   7.952  10.384 -0.1452 -0.5183  0.3217
41572SOL     OW29845   8.388   5.618   7.496 -0.1387 -0.0172  0.3948
41572SOL    HW129846   8.478   5.645   7.476 -0.1076 -0.3536  0.0687
41572SOL    HW229847   8.335   5.695   7.478  0.1002  0.2258  0.7144
41573SOL     OW29848   9.243   7.860   4.941  0.0316  0.0293 -0.0972
41573SOL    HW129849   9.313   7.925   4.943 -1.2390  1.4054  1.4630
41573SOL    HW229850   9.195   7.879   4.860 -0.7258  1.5171  0.6690
41574SOL     OW29851   3.759  10.082   8.013 -0.2586 -0.6045 -0.1146
41574SOL    HW129852   3.746   9.997   8.056 -0.3466 -0.3768  0.3158
41574SOL    HW229853   3.673  10.105   7.979  0.1679 -1.5754 -1.8987
41575SOL     OW29854   6.195   5.969  10.907  0.3771  0.1420 -0.4199
41575SOL    HW129855   6.145   6.013  10.975 -0.7188  0.4434 -1.4234
41575SOL    HW229856   6.133   5.910  10.864  1.0651 -0.0637 -1.1637
41576SOL     OW29857   2.456   8.612   4.415  0.5540  0.2994 -0.0408
41576SOL    HW129858   2.519   8.612   4.487  0.1663 -0.1535  0.2992
41576SOL    HW229859   2.427   8.703   4.409  1.4130  0.5595 -0.3522
41577SOL     OW29860   5.307   6.206   5.428  0.6484  0.2303  0.3060
41577SOL    HW129861   5.330   6.128   5.379 -0.7000  0.4430 -0.6830
41577SOL    HW229862   5.306   6.178   5.519  1.6166 -0.5355  0.0939
41578SOL     OW29863  10.924  11.264   8.018  0.6934 -0.2504  0.4419
41578SOL    HW129864  10.961  11.177   8.032  0.0959 -0.4695  0.7239
41578SOL    HW229865  10.988  11.311   7.966  1.4591 -0.5449  1.1132
41579SOL     OW29866   5.277  10.576   1.932  0.2062  0.3279  0.2564
41579SOL    HW129867   5.226  10.582   1.852  2.6219  2.5092 -1.2171
41579SOL    HW229868   5.256  10.656   1.980 -0.3591 -0.4160  1.2537
41580SOL     OW29869  10.301   8.136   7.569  0.0762 -0.1846  0.0137
41580SOL    HW129870  10.259   8.162   7.651 -1.2142  0.0614 -0.7195
41580SOL    HW229871  10.247   8.065   7.535 -0.9267  1.4667 -1.9359
41581SOL     OW29872   3.711   4.780   6.530  0.5950 -0.1546  0.1483
41581SOL    HW129873   3.650   4.854   6.531  0.0411 -0.5861 -0.9208
41581SOL    HW229874   3.662   4.709   6.490  2.1608 -0.1658 -1.8295
41582SOL     OW29875   4.022   2.152  10.898 -0.2738 -0.2094  0.1126
41582SOL    HW129876   3.936   2.120  10.924 -0.2756 -0.9934 -0.8240
41582SOL    HW229877   4.066   2.075  10.862  0.9525  0.0932  0.9234
41583SOL     OW29878   2.044   6.280   5.564  0.3165 -0.2462 -0.5145
41583SOL    HW129879   2.055   6.358   5.511 -2.1114  1.2689  1.0809
41583SOL    HW229880   1.952   6.256   5.552  0.2821 -1.1240  1.3060
41584SOL     OW29881   1.124   3.400   4.770 -0.0557 -0.6062 -0.4772
41584SOL    HW129882   1.072   3.480   4.766  0.7295 -0.1258 -1.2785
41584SOL    HW229883   1.191   3.418   4.836  1.2128  0.0822 -1.9059
41585SOL     OW29884   4.676   4.100  10.687  0.1403 -0.2043 -0.0114
41585SOL    HW129885   4.603   4.098  10.625  0.2431  1.7853 -0.2314
41585SOL    HW229886   4.727   4.021  10.667 -0.0803  0.1728 -2.1579
41586SOL     OW29887   2.493   7.007   7.125 -0.2766 -0.0460  0.0468
41586SOL    HW129888   2.459   7.010   7.215 -1.3513 -0.2176 -0.3467
41586SOL    HW229889   2.580   7.046   7.131 -0.3789  0.0240  1.1516
41587SOL     OW29890   1.594   5.560   0.045  0.2834 -0.2540 -0.1923
41587SOL    HW129891   1.632   5.611   0.116 -1.4483 -0.6947  1.0832
41587SOL    HW229892   1.584   5.622  -0.027  1.1246  0.4324  0.2806
41588SOL     OW29893   5.002   0.614   5.472 -0.1817  0.3327 -0.0141
41588SOL    HW129894   4.947   0.627   5.549 -0.1765  0.4464 -0.0277
41588SOL    HW229895   5.081   0.572   5.505  0.2872  1.3764  0.2184
41589SOL     OW29896   1.700   9.077   6.579  0.4093 -0.1591 -0.1327
41589SOL    HW129897   1.718   9.068   6.673  0.9690 -0.2764 -0.2501
41589SOL    HW229898   1.615   9.036   6.567 -0.7727  1.9898  0.7356
41590SOL     OW29899   0.269   3.195   7.898  0.3461  0.2595 -0.2834
41590SOL    HW129900   0.195   3.195   7.837  2.3695  0.5368 -2.8457
41590SOL    HW229901   0.270   3.283   7.935 -0.7734  0.1620 -0.0085
41591SOL     OW29902   8.390   4.526   6.180 -0.5650 -0.2354 -0.7774
41591SOL    HW129903   8.433   4.504   6.097 -0.6201 -0.9004 -0.6307
41591SOL    HW229904   8.437   4.604   6.210  1.7355 -1.9298  0.2261
41592SOL     OW29905   5.015   3.318   4.167  0.3307 -0.3652  0.7193
41592SOL    HW129906   5.051   3.232   4.188 -0.1460 -0.3243  1.7122
41592SOL    HW229907   5.047   3.375   4.235  0.8770  0.3143 -0.0989
41593SOL     OW29908  10.363   8.247   8.944  0.1295 -0.0432  0.0976
41593SOL    HW129909  10.351   8.339   8.965 -1.6596 -0.0034 -0.9823
41593SOL    HW229910  10.278   8.207   8.962  0.5328 -1.2377 -0.5945
41594SOL     OW29911   8.969   6.721   4.206 -0.2964 -0.0791 -0.5667
41594SOL    HW129912   9.046   6.726   4.148  0.9339  1.9737  1.1824
41594SOL    HW229913   8.985   6.643   4.259 -1.1416 -1.6382 -2.5270
41595SOL     OW29914   7.546   2.344   1.464  0.3852 -0.0731 -0.3449
41595SOL    HW129915   7.598   2.423   1.454  1.9270 -0.8014  1.4752
41595SOL    HW229916   7.551   2.324   1.558 -1.4965 -1.2870 -0.4862
41596SOL     OW29917   8.259   8.932   7.409  0.1831 -0.2289 -0.6391
41596SOL    HW129918   8.242   9.001   7.472 -0.0470  1.9809 -3.0331
41596SOL    HW229919   8.333   8.883   7.446  1.9640  2.8045 -0.0533
41597SOL     OW29920   2.516   0.324   8.487  0.1499  0.0613  0.2298
41597SOL    HW129921   2.548   0.408   8.456  0.8681 -0.9853 -1.9444
41597SOL    HW229922   2.570   0.304   8.563  0.5242  1.1704  0.2618
41598SOL     OW29923   3.512   7.681   0.305  0.9121 -0.2227  0.6255
41598SOL    HW129924   3.445   7.686   0.373 -1.0564  1.9755 -1.3632
41598SOL    HW229925   3.588   7.726   0.342  0.3496 -0.3146  1.9024
41599SOL     OW29926   6.621  10.246  10.255 -0.5519  0.2483 -0.1508
41599SOL    HW129927   6.605  10.292  10.338  2.2552  0.7207  0.2023
41599SOL    HW229928   6.666  10.166  10.280 -1.1059 -0.3736 -1.1163
41600SOL     OW29929   1.736   6.753   3.496 -0.3383 -0.4949  0.8147
41600SOL    HW129930   1.648   6.780   3.470 -0.8245 -1.2548  1.6566
41600SOL    HW229931   1.730   6.659   3.511 -0.0591 -0.1460  3.4699
41601SOL     OW29932   3.041   0.804   3.503 -0.1708 -0.2549 -0.1435
41601SOL    HW129933   2.996   0.794   3.587  1.6245 -0.8861  0.7542
41601SOL    HW229934   3.032   0.719   3.461  0.4408 -0.4734  0.1665
41602SOL     OW29935  10.798   3.953  10.621 -0.0629 -0.1476  0.5050
41602SOL    HW129936  10.809   3.858  10.633  0.4548 -0.1447  0.1252
41602SOL    HW229937  10.736   3.960  10.549 -0.7879 -0.1900  1.1252
41603SOL     OW29938   9.739   7.748   5.558  0.7034  0.1869  0.5033
41603SOL    HW129939   9.797   7.676   5.584  0.2892  0.5891  2.6356
41603SOL    HW229940   9.771   7.773   5.472  1.8566 -1.5183  0.3919
41604SOL     OW29941   4.773   5.248   6.878  0.5013 -0.3616  0.1373
41604SOL    HW129942   4.820   5.280   6.954  3.0390 -0.4858 -1.3360
41604SOL    HW229943   4.817   5.167   6.854 -0.9341 -0.8839 -0.8532
41605SOL     OW29944   3.412  10.886   2.647 -0.6235 -0.6486  0.3022
41605SOL    HW129945   3.410  10.840   2.563 -0.0332  0.7394 -0.4885
41605SOL    HW229946   3.505  10.899   2.665 -0.7815  0.1660  0.5485
41606SOL     OW29947   3.036   4.171   2.835 -0.4752 -0.3733  0.0548
41606SOL    HW129948   3.004   4.225   2.907 -2.5698  0.1242 -1.1947
41606SOL    HW229949   2.957   4.144   2.789  0.7901 -1.1737 -1.7021
41607SOL     OW29950   8.798   4.166   3.922  0.0043  0.3702 -0.1498
41607SOL    HW129951   8.713   4.148   3.882 -0.0691 -1.4759  0.7960
41607SOL    HW229952   8.852   4.089   3.901  1.1061  1.0492  0.1418
41608SOL     OW29953   0.371   2.999   4.736 -0.1409 -0.1081 -0.2497
41608SOL    HW129954   0.467   2.992   4.730 -0.1484 -0.6089  0.1372
41608SOL    HW229955   0.346   2.926   4.792 -0.8325 -0.4213 -0.9745
41609SOL     OW29956   2.539   9.877   3.680  0.1289 -0.1518 -0.5581
41609SOL    HW129957   2.615   9.935   3.683 -1.4765  2.0603 -0.9068
41609SOL    HW229958   2.564   9.806   3.621  1.2200  1.6330 -2.2874
41610SOL     OW29959   7.641   2.983   6.707 -0.1000 -0.3552  0.1407
41610SOL    HW129960   7.658   2.950   6.618  0.0060  0.3118 -0.0886
41610SOL    HW229961   7.550   2.958   6.724  0.1476 -1.2389  0.1806
41611SOL     OW29962   3.539   7.091   2.229  0.3067 -0.0606  0.4146
41611SOL    HW129963   3.536   7.175   2.183  0.6115  0.7411  1.8305
41611SOL    HW229964   3.569   7.028   2.162  0.7587  1.0834 -0.4762
41612SOL     OW29965   7.673   5.700   6.488  0.4736 -0.0714 -0.0771
41612SOL    HW129966   7.705   5.642   6.420 -0.7173 -1.8107  0.7938
41612SOL    HW229967   7.579   5.680   6.494  0.2643  1.1639  0.9784
41613SOL     OW29968   6.566   5.183   8.015 -0.8101  0.4594 -0.5182
41613SOL    HW129969   6.608   5.182   7.929 -0.6513 -0.8929 -0.4424
41613SOL    HW229970   6.616   5.119   8.066 -0.7939  1.3746  0.6404
41614SOL     OW29971  10.655  11.179   1.132 -0.1408  0.1417 -0.0927
41614SOL    HW129972  10.709  11.257   1.119  1.8524 -1.0644  0.7585
41614SOL    HW229973  10.696  11.112   1.076 -0.0892 -1.0709  1.3521
41615SOL     OW29974   2.244  10.900   8.121  0.2719 -0.6282  0.0413
41615SOL    HW129975   2.181  10.941   8.062  1.3882  0.1312 -0.6489
41615SOL    HW229976   2.200  10.820   8.151 -0.1889 -1.2308 -2.1049
41616SOL     OW29977   4.291  10.827   0.762  0.5403  0.1277  0.3925
41616SOL    HW129978   4.376  10.868   0.749  0.8464 -0.7581 -0.5199
41616SOL    HW229979   4.296  10.786   0.848  0.1329  2.1969  1.4325
41617SOL     OW29980   4.218   6.685   1.460  0.0186  0.4813  0.2740
41617SOL    HW129981   4.167   6.698   1.380 -1.1443  0.5343  1.0198
41617SOL    HW229982   4.303   6.725   1.441 -0.4758  1.0690 -0.7044
41618SOL     OW29983  11.279   1.174   6.416 -0.1075  0.5054 -0.5428
41618SOL    HW129984  11.303   1.206   6.503 -0.5950 -2.0650  0.5807
41618SOL    HW229985  11.222   1.099   6.432  0.4633 -0.5542 -3.0660
41619SOL     OW29986   2.590   6.350  10.064  0.5896 -0.0937 -0.2138
41619SOL    HW129987   2.645   6.315  10.134  0.5956 -0.1227 -0.2332
41619SOL    HW229988   2.602   6.445  10.069  2.5218 -0.2317 -1.7723
41620SOL     OW29989   8.551   6.286   9.428 -0.2066  0.6176 -0.1666
41620SOL    HW129990   8.522   6.369   9.388  2.3060  1.6589  0.0576
41620SOL    HW229991   8.493   6.275   9.504 -1.1099  1.7395 -0.6635
41621SOL     OW29992   1.120  11.232   5.646  0.3730  0.4533  0.7487
41621SOL    HW129993   1.161  11.150   5.673 -0.6081 -0.0204  0.8431
41621SOL    HW229994   1.174  11.263   5.574  0.9199 -0.1341  0.8984
41622SOL     OW29995   1.199   5.543   2.832  0.1026 -0.8380 -0.7168
41622SOL    HW129996   1.158   5.629   2.837 -0.3902 -1.0065 -1.5477
41622SOL    HW229997   1.129   5.486   2.797 -0.8081 -2.3934  3.4047
41623SOL     OW29998  11.195   0.482   7.921 -0.0873  0.1339  0.4689
41623SOL    HW129999  11.104   0.502   7.898 -0.1114  0.2742  0.6922
41623SOL    HW230000  11.220   0.550   7.983  0.7871  1.2596 -1.0745
41624SOL     OW30001   1.622   8.829   0.102  0.0293  0.2665 -0.6109
41624SOL    HW130002   1.587   8.812   0.015  0.3710  1.1477 -0.9254
41624SOL    HW230003   1.700   8.881   0.087  1.3335 -1.4167  0.0956
41625SOL     OW30004   3.537   1.425   3.374  0.1015 -0.0041  0.6110
41625SOL    HW130005   3.534   1.505   3.427  1.8564  0.0908  0.5854
41625SOL    HW230006   3.630   1.412   3.355 -0.4237 -0.2223 -2.1336
41626SOL     OW30007   3.179   3.677   1.045  0.4935 -0.1467  0.5582
41626SOL    HW130008   3.110   3.727   1.089  1.4106  0.1580  1.6735
41626SOL    HW230009   3.175   3.706   0.954 -1.6527 -1.0409  0.3426
41627SOL     OW30010  10.651   1.873  10.387  0.0574 -0.6600  0.4132
41627SOL    HW130011  10.555   1.878  10.383  0.1299  0.0421 -0.4699
41627SOL    HW230012  10.668   1.815  10.462 -1.0593 -1.4374  0.0851
41628SOL     OW30013   4.059   1.717   3.758  0.4894  0.5190  0.2254
41628SOL    HW130014   4.039   1.688   3.847  0.9941  0.2585  0.2536
41628SOL    HW230015   4.074   1.636   3.709 -0.3078  0.6338 -0.2248
41629SOL     OW30016   8.200  10.587  10.334  0.1592 -0.3583  0.5872
41629SOL    HW130017   8.188  10.670  10.380  0.8874 -0.6864  1.3950
41629SOL    HW230018   8.146  10.525  10.382 -0.3178 -0.3749  0.0367
41630SOL     OW30019   7.936   0.572   3.644 -0.0434 -0.6436 -0.0132
41630SOL    HW130020   7.841   0.570   3.639 -0.2036  1.8741  1.1663
41630SOL    HW230021   7.960   0.486   3.679 -2.0456 -0.5482  1.7157
41631SOL     OW30022   2.560   1.994   6.661  0.4046 -0.1553 -0.0624
41631SOL    HW130023   2.568   1.960   6.572 -0.7998  0.2622 -0.3403
41631SOL    HW230024   2.491   1.941   6.701 -0.5380  1.0221 -0.0666
41632SOL     OW30025   2.903   1.623   8.432  0.2317 -0.6549  0.1151
41632SOL    HW130026   2.892   1.547   8.489  1.0497 -0.3389  0.7118
41632SOL    HW230027   2.943   1.588   8.352 -2.3466 -1.3448 -0.9245
41633SOL     OW30028   8.262   2.339   5.204  0.2570 -0.6322 -0.1094
41633SOL    HW130029   8.264   2.263   5.146  0.6219 -0.4686 -0.3126
41633SOL    HW230030   8.348   2.379   5.195 -0.9025  1.5363 -2.3509
41634SOL     OW30031   6.032  10.614   8.260 -0.2342  0.1514 -0.3913
41634SOL    HW130032   6.058  10.593   8.170  0.4746 -0.2660 -0.0936
41634SOL    HW230033   5.981  10.694   8.252  2.8617  2.1707 -0.7711
41635SOL     OW30034   7.143   1.197   4.100  0.3904  0.1868 -0.7346
41635SOL    HW130035   7.047   1.197   4.094  0.2872  3.3078  0.0212
41635SOL    HW230036   7.165   1.108   4.124 -2.4724 -0.1461  0.9514
41636SOL     OW30037   5.564   6.033   0.657  0.0454 -0.5466  0.2258
41636SOL    HW130038   5.493   6.047   0.595  0.5854 -0.3846 -0.3624
41636SOL    HW230039   5.589   5.941   0.645 -0.7988 -0.9124  1.2161
41637SOL     OW30040   0.790   6.104  10.843  0.0815  0.1116 -0.6948
41637SOL    HW130041   0.844   6.027  10.859  0.0727  0.2032 -0.2357
41637SOL    HW230042   0.812   6.130  10.753  2.6465  1.6197  0.3221
41638SOL     OW30043   4.945   9.503   6.789 -0.0534 -0.5770 -0.4015
41638SOL    HW130044   4.991   9.424   6.818 -0.8209 -0.9820 -0.2934
41638SOL    HW230045   4.853   9.487   6.811  0.0635  1.2096  1.5441
41639SOL     OW30046   1.689  10.943   5.561 -0.1392 -0.5945 -0.3297
41639SOL    HW130047   1.667  10.886   5.486 -2.8928  0.1409 -0.1365
41639SOL    HW230048   1.679  11.032   5.527  0.5696 -0.2435  0.3727
41640SOL     OW30049   0.316   9.676   4.773  0.4780 -0.3634  0.2339
41640SOL    HW130050   0.341   9.768   4.780  0.9906 -0.2332 -2.5648
41640SOL    HW230051   0.222   9.675   4.791  0.1413  0.9651 -1.3958
41641SOL     OW30052   8.859   5.829   1.613  0.3232  0.3450 -0.1424
41641SOL    HW130053   8.787   5.768   1.630  0.6454  0.0827  0.2916
41641SOL    HW230054   8.816   5.914   1.600 -0.0566  0.2216  0.2794
41642SOL     OW30055   6.208   9.082   4.869  0.0553 -0.2695  0.1794
41642SOL    HW130056   6.262   9.015   4.827 -1.6877 -0.8353 -1.2116
41642SOL    HW230057   6.200   9.151   4.803 -1.8161 -0.6817 -0.0528
41643SOL     OW30058   4.546   3.488   8.960  0.6480 -0.5042 -0.3643
41643SOL    HW130059   4.620   3.526   8.912 -0.7894 -0.5770 -2.7480
41643SOL    HW230060   4.469   3.530   8.921 -0.5702 -0.1945  2.2786
41644SOL     OW30061   6.415   8.443   5.282 -0.5788 -0.4889 -0.3540
41644SOL    HW130062   6.337   8.412   5.237  0.3580 -1.7730 -1.1289
41644SOL    HW230063   6.450   8.365   5.325  0.8371 -0.1453 -0.8562
41645SOL     OW30064   5.948   9.926   5.613 -0.1010  0.1885  0.2933
41645SOL    HW130065   5.871   9.977   5.588 -0.8711 -0.7150  0.7984
41645SOL    HW230066   6.008   9.935   5.538 -2.1649 -2.0523 -1.6943
41646SOL     OW30067   5.850   8.431   0.611 -0.1761  0.4410 -0.8962
41646SOL    HW130068   5.910   8.485   0.664 -0.2699  1.3845 -1.7377
41646SOL    HW230069   5.807   8.374   0.675  1.4881 -0.1414 -0.2533
41647SOL     OW30070   9.240  10.972  10.381 -0.9716  0.1157  0.1062
41647SOL    HW130071   9.282  11.058  10.384 -0.7179 -0.0411  1.3586
41647SOL    HW230072   9.292  10.923  10.317  0.6573 -0.0079  1.4875
41648SOL     OW30073  10.180   0.758   5.012  0.2642 -0.8288  0.3725
41648SOL    HW130074  10.171   0.686   5.074 -1.0487 -0.3610  0.7471
41648SOL    HW230075  10.117   0.737   4.943  0.1903 -0.2525  0.2676
41649SOL     OW30076   1.635   1.763   2.455 -0.0571 -0.3038 -0.5167
41649SOL    HW130077   1.709   1.744   2.398  0.4131  0.3137 -0.1065
41649SOL    HW230078   1.588   1.680   2.461  0.6591 -0.7219 -0.6748
41650SOL     OW30079   0.720   3.070   4.337 -0.0040  0.2050  0.0589
41650SOL    HW130080   0.654   3.015   4.295  1.9749 -1.9034 -0.4192
41650SOL    HW230081   0.673   3.114   4.407 -1.7421 -1.8838  0.2710
41651SOL     OW30082   1.920   7.353   9.798  0.0644  0.4269 -0.1880
41651SOL    HW130083   1.842   7.393   9.761 -0.8982  0.1335  1.4806
41651SOL    HW230084   1.937   7.402   9.878 -0.2739 -1.5101  1.1103
41652SOL     OW30085   4.272   4.603   1.246 -0.3722  0.6072 -0.6066
41652SOL    HW130086   4.284   4.698   1.234 -0.3946  0.6274 -0.4707
41652SOL    HW230087   4.344   4.564   1.196  0.6354  0.7454  0.6843
41653SOL     OW30088   3.598   7.244   9.683 -0.8118  0.1227 -0.1309
41653SOL    HW130089   3.553   7.173   9.730 -0.2222 -1.1008 -1.3879
41653SOL    HW230090   3.558   7.244   9.596  0.0612  0.5163 -0.5340
41654SOL     OW30091   2.230   0.386   1.625 -0.2194  0.2155  0.5050
41654SOL    HW130092   2.192   0.322   1.685  0.2635 -0.9971 -0.4784
41654SOL    HW230093   2.156   0.417   1.573 -0.1626 -0.8510 -0.2171
41655SOL     OW30094   5.972   8.622   9.365  0.0873 -0.5292 -0.3930
41655SOL    HW130095   5.973   8.539   9.318  1.2187 -0.8794  0.2433
41655SOL    HW230096   6.013   8.684   9.304  1.6609 -1.0080  0.1421
41656SOL     OW30097   7.430  11.013   3.274 -0.5428 -0.7698 -0.1472
41656SOL    HW130098   7.471  10.953   3.212 -0.2808 -0.0496 -0.6756
41656SOL    HW230099   7.337  10.990   3.272 -0.6031 -0.4603 -1.1388
41657SOL     OW30100   5.981   3.533   3.811  0.7070 -0.1905 -0.1221
41657SOL    HW130101   5.968   3.627   3.802  1.2128 -0.1497 -0.4028
41657SOL    HW230102   5.917   3.495   3.750 -0.0726 -0.0558  0.5945
41658SOL     OW30103  11.165   6.497   4.933  0.0385 -0.1573  0.4169
41658SOL    HW130104  11.202   6.421   4.886  0.6804 -0.0507  0.7362
41658SOL    HW230105  11.242   6.550   4.956 -0.1782 -0.5992  2.2667
41659SOL     OW30106   5.146   8.400   9.707  0.3146 -0.0194  0.0623
41659SOL    HW130107   5.101   8.406   9.623  1.8439  0.4292 -0.7459
41659SOL    HW230108   5.140   8.307   9.730 -0.0429 -0.1620 -0.5689
41660SOL     OW30109   5.235   6.356   8.978 -0.6946 -0.2633  0.3149
41660SOL    HW130110   5.246   6.290   8.910  1.0796  0.7773 -0.4528
41660SOL    HW230111   5.224   6.307   9.059 -1.2570 -1.4969 -0.5050
41661SOL     OW30112   3.500   4.086   5.951  0.6674  0.0028 -0.2793
41661SOL    HW130113   3.434   4.037   6.001  0.0050 -0.1581 -1.2933
41661SOL    HW230114   3.583   4.058   5.988  0.2976 -1.8029 -0.7486
41662SOL     OW30115   1.567   1.013   9.452  0.7556  0.0191 -0.0754
41662SOL    HW130116   1.564   1.006   9.357  0.1525  0.3164 -0.0851
41662SOL    HW230117   1.573   1.107   9.469  2.8864 -0.1450  0.1492
41663SOL     OW30118   4.400   1.079  10.540  0.3805 -0.1932 -0.7701
41663SOL    HW130119   4.364   1.136  10.608  1.0935 -1.3449  0.6056
41663SOL    HW230120   4.495   1.089  10.549  0.5316 -1.9001 -0.2067
41664SOL     OW30121  11.153   2.623   2.366  0.4197 -0.5277 -0.1247
41664SOL    HW130122  11.233   2.644   2.318  0.8595  0.0916  0.8595
41664SOL    HW230123  11.156   2.681   2.443 -0.1551 -1.6576  0.7592
41665SOL     OW30124   1.104   6.882  10.569 -0.1467 -0.6167 -0.2142
41665SOL    HW130125   1.136   6.808  10.620  0.4697 -0.0962  0.1678
41665SOL    HW230126   1.176   6.945  10.570 -1.6522  1.1490  1.8383
41666SOL     OW30127   8.645   3.242   3.736 -0.1744 -0.0325  0.5215
41666SOL    HW130128   8.575   3.250   3.672 -0.6135  1.4618  1.1579
41666SOL    HW230129   8.659   3.331   3.768  1.8157 -0.3549  0.6219
41667SOL     OW30130   0.809   0.208   7.274 -0.1306  0.2543 -0.0695
41667SOL    HW130131   0.724   0.230   7.234 -0.1134  0.6552  0.1106
41667SOL    HW230132   0.869   0.275   7.242  0.1719 -0.1721 -0.3848
41668SOL     OW30133   1.504   7.232   6.374  0.2244 -0.2696  0.7763
41668SOL    HW130134   1.480   7.154   6.323  1.2768 -0.1885  0.1428
41668SOL    HW230135   1.595   7.218   6.398  0.3137  0.6042  0.9638
41669SOL     OW30136   5.488   6.948   1.124  0.4917  0.4326  0.3313
41669SOL    HW130137   5.464   6.985   1.209  0.3864  1.0836  0.0217
41669SOL    HW230138   5.561   7.002   1.094  0.8519 -0.1060  0.2293
41670SOL     OW30139   1.872   1.405   5.513  0.9171 -0.1642  0.2488
41670SOL    HW130140   1.916   1.320   5.508  2.1135  0.3711  1.3530
41670SOL    HW230141   1.887   1.435   5.603  2.4500  2.2173 -0.7181
41671SOL     OW30142   3.581   4.608   8.818  1.1048 -0.5619 -0.2431
41671SOL    HW130143   3.564   4.538   8.756 -0.5812 -1.1511  0.8353
41671SOL    HW230144   3.510   4.671   8.802  1.2021 -0.2762  0.4308
41672SOL     OW30145   7.988   1.190   7.212  0.2470 -0.2513  0.0551
41672SOL    HW130146   7.913   1.176   7.154  1.4523 -0.8130 -1.3801
41672SOL    HW230147   7.990   1.112   7.268 -0.3844 -0.1089  0.2862
41673SOL     OW30148   3.358  10.663   8.051  0.0354  0.2411 -0.6332
41673SOL    HW130149   3.308  10.581   8.056  0.2816  0.1608  0.8108
41673SOL    HW230150   3.329  10.713   8.127 -0.0760  1.4864 -1.4862
41674SOL     OW30151   7.258   3.602   5.640 -0.0312  0.3182 -0.5225
41674SOL    HW130152   7.242   3.533   5.576 -2.4045  2.5758 -2.4820
41674SOL    HW230153   7.294   3.675   5.588  1.5051  0.9275  1.3350
41675SOL     OW30154   5.621   1.059   8.107  0.5160  0.4286 -0.1205
41675SOL    HW130155   5.578   1.125   8.053 -0.3085 -0.3822 -0.4695
41675SOL    HW230156   5.597   1.081   8.197 -0.8935 -0.2068 -0.3392
41676SOL     OW30157   6.690   4.558   6.824 -0.4810  0.2849 -0.0170
41676SOL    HW130158   6.675   4.475   6.870  0.0518  0.5722  0.6810
41676SOL    HW230159   6.782   4.577   6.837 -0.7677  1.3788  0.4820
41677SOL     OW30160   9.369   7.585   1.672  0.0318 -0.1987  0.2924
41677SOL    HW130161   9.375   7.620   1.583 -1.2548 -0.3941  0.1206
41677SOL    HW230162   9.283   7.543   1.675 -0.8100  1.5941  2.2735
41678SOL     OW30163   9.911   9.596   7.490 -0.2546  0.6717 -0.3502
41678SOL    HW130164   9.874   9.679   7.459  0.7944  1.7105  1.1209
41678SOL    HW230165   9.957   9.560   7.415 -2.3373  0.4618 -1.5617
41679SOL     OW30166   9.030   9.579   8.640 -0.5088  0.2347 -0.1783
41679SOL    HW130167   9.021   9.660   8.690  1.7242  0.4631 -0.0912
41679SOL    HW230168   9.094   9.527   8.690 -0.6331 -0.8549 -1.1321
41680SOL     OW30169   3.717   6.522  10.134 -0.0959  0.3501  0.4757
41680SOL    HW130170   3.811   6.508  10.145 -0.1584 -1.2641 -0.9275
41680SOL    HW230171   3.702   6.513  10.040 -2.0317 -1.7602  0.9494
41681SOL     OW30172   8.745   0.929   7.724  0.2002  0.1841  0.4950
41681SOL    HW130173   8.671   0.905   7.668  2.0454  0.2240 -2.0060
41681SOL    HW230174   8.728   1.020   7.748 -0.7970  0.0546  0.3239
41682SOL     OW30175   0.729   2.631   5.856 -0.0687 -0.7153 -0.0247
41682SOL    HW130176   0.727   2.559   5.919 -0.9547 -1.0043 -0.3856
41682SOL    HW230177   0.714   2.709   5.910 -1.8136 -1.0533 -0.0092
41683SOL     OW30178   5.060   3.003   5.899  0.1865 -0.7427  0.1660
41683SOL    HW130179   5.120   3.075   5.882 -1.1649  0.3491 -0.0501
41683SOL    HW230180   5.086   2.935   5.836  0.7247 -0.0214 -0.3981
41684SOL     OW30181   2.506   4.838   7.047  0.2629 -0.6871  0.2942
41684SOL    HW130182   2.453   4.772   7.092  1.0455 -0.4117  1.6441
41684SOL    HW230183   2.597   4.809   7.058  0.5748  0.2798  0.3447
41685SOL     OW30184   2.995   1.055   1.310  0.2525  0.1325  0.5956
41685SOL    HW130185   2.922   1.010   1.351  0.1296 -0.6908 -0.4983
41685SOL    HW230186   3.069   0.994   1.319 -0.1978 -0.8577 -1.9491
41686SOL     OW30187   1.363   8.654  11.022 -0.0680 -0.0975 -0.1347
41686SOL    HW130188   1.346   8.666  11.116 -0.1552 -0.9807 -0.0363
41686SOL    HW230189   1.304   8.716  10.979  1.2290  1.5838  0.4486
41687SOL     OW30190   2.285   0.632   8.867  0.1528  0.6058  0.0279
41687SOL    HW130191   2.268   0.629   8.773  0.3381  0.9559 -0.0187
41687SOL    HW230192   2.278   0.725   8.890 -1.4891  0.3420  0.6509
41688SOL     OW30193   1.593   8.477   3.975  0.4509 -0.5074 -0.1726
41688SOL    HW130194   1.567   8.531   3.900 -1.2712 -0.2770  0.5621
41688SOL    HW230195   1.645   8.536   4.029 -0.6316  0.1493  0.1656
41689SOL     OW30196   8.943   9.766   2.461  0.4266 -0.4803  0.1700
41689SOL    HW130197   8.978   9.692   2.511 -1.1632 -0.6630  1.0580
41689SOL    HW230198   8.909   9.825   2.528  2.4639  1.4874 -0.4822
41690SOL     OW30199   9.277   4.316   6.562 -0.1185 -0.1436 -0.0856
41690SOL    HW130200   9.192   4.319   6.517 -0.5617  0.3291  0.7641
41690SOL    HW230201   9.303   4.407   6.570  0.6557 -0.3102 -0.6732
41691SOL     OW30202  11.122   8.020   3.545 -0.0363 -0.3033  0.3731
41691SOL    HW130203  11.111   7.928   3.569 -0.2008 -0.8595 -1.7598
41691SOL    HW230204  11.154   8.062   3.625 -1.6910 -1.8553  1.8919
41692SOL     OW30205  11.118   8.415   1.586  0.6632 -0.3375 -0.1219
41692SOL    HW130206  11.178   8.461   1.527  0.6700  1.1508  1.0078
41692SOL    HW230207  11.175   8.377   1.653  0.3745  1.3490  1.1339
41693SOL     OW30208   0.384   3.886   0.685 -0.2096  0.3114 -0.1060
41693SOL    HW130209   0.293   3.856   0.689 -0.0845 -0.0089  0.4000
41693SOL    HW230210   0.432   3.823   0.738  0.3348  0.3891 -0.5128
41694SOL     OW30211  11.199   0.539   7.357  0.5530  0.0848 -0.8099
41694SOL    HW130212  11.127   0.602   7.358  1.5247  1.1912 -0.4124
41694SOL    HW230213  11.167   0.466   7.410 -0.3315  0.5062 -0.7468
41695SOL     OW30214   7.778   9.779   4.202 -0.7074  0.0282 -0.3872
41695SOL    HW130215   7.763   9.787   4.296 -2.1121  0.3042 -0.6189
41695SOL    HW230216   7.726   9.849   4.163  1.2111  0.9786 -1.2762
41696SOL     OW30217   0.329   4.073   8.215  0.1195 -0.1450 -0.1990
41696SOL    HW130218   0.401   4.137   8.217 -0.5559  0.6009  0.7523
41696SOL    HW230219   0.344   4.023   8.135  0.8028  1.0633 -0.8489
41697SOL     OW30220   1.135   5.122   3.188 -0.4672 -0.0367  0.5393
41697SOL    HW130221   1.203   5.152   3.128 -1.0074 -0.8067 -0.4774
41697SOL    HW230222   1.087   5.056   3.138 -1.9081  0.4417  1.2636
41698SOL     OW30223   1.644  11.204   6.181 -0.4785 -0.5665  0.2859
41698SOL    HW130224   1.695  11.252   6.247  1.2072 -0.7339 -0.8666
41698SOL    HW230225   1.560  11.250   6.178 -1.3304 -1.7651  3.9599
41699SOL     OW30226   9.513   5.001   5.161 -0.2013  0.1737 -0.5707
41699SOL    HW130227   9.472   5.086   5.144  0.4178  0.4079 -0.9209
41699SOL    HW230228   9.447   4.937   5.133 -0.7329  0.5371 -0.1497
41700SOL     OW30229   0.207   1.702   3.928 -0.6530  0.1514 -0.4103
41700SOL    HW130230   0.112   1.698   3.917 -0.5152  1.4250 -2.1832
41700SOL    HW230231   0.238   1.617   3.898 -1.2126 -0.2901  0.2257
41701SOL     OW30232   8.715   2.354   2.184  0.2691 -0.2250 -0.3136
41701SOL    HW130233   8.632   2.332   2.227  0.0508 -0.3653 -0.8045
41701SOL    HW230234   8.774   2.378   2.256  0.2414 -1.5328  0.1502
41702SOL     OW30235   6.196   4.155   0.243  0.2985 -0.1667  0.6837
41702SOL    HW130236   6.169   4.083   0.186  1.6399  0.5636 -0.9288
41702SOL    HW230237   6.148   4.141   0.324 -0.0069 -2.4572  0.1344
41703SOL     OW30238   9.669   4.088   8.693  0.5993  0.3972  0.2366
41703SOL    HW130239   9.712   4.171   8.674 -0.2560  0.2817 -2.4446
41703SOL    HW230240   9.679   4.036   8.613 -1.0203 -1.1451  0.9758
41704SOL     OW30241   1.028   3.602  10.954  0.0093  0.4733 -0.0398
41704SOL    HW130242   1.009   3.620  10.862  0.1427 -0.9758 -0.3545
41704SOL    HW230243   0.943   3.610  10.997 -0.7632 -2.5559 -0.9034
41705SOL     OW30244   4.378   9.155   2.538 -0.1308 -0.0646  0.0700
41705SOL    HW130245   4.365   9.234   2.591 -1.5303 -0.2640  0.0353
41705SOL    HW230246   4.426   9.185   2.461  2.9251  0.0545  1.9034
41706SOL     OW30247   1.171   1.328   9.843  0.6379 -0.2233  0.3420
41706SOL    HW130248   1.161   1.273   9.920  2.1710  2.1373  2.3031
41706SOL    HW230249   1.099   1.391   9.847  1.4537  0.7112  0.5657
41707SOL     OW30250   8.649  10.251   5.465 -0.4440  0.1060 -0.5921
41707SOL    HW130251   8.689  10.172   5.427  0.0837  0.9481 -1.8656
41707SOL    HW230252   8.722  10.314   5.469 -0.7580  0.3845  0.8217
41708SOL     OW30253   0.103   0.987   5.686  0.3021 -0.2742  0.0611
41708SOL    HW130254   0.132   0.962   5.773 -0.2016 -1.2158 -0.0273
41708SOL    HW230255   0.146   0.925   5.627 -1.0053 -0.9905 -0.1601
41709SOL     OW30256   1.227   9.190  10.455  0.5468  0.3950  0.1141
41709SOL    HW130257   1.202   9.259  10.393 -1.0776 -1.5788 -1.4998
41709SOL    HW230258   1.323   9.189  10.451  0.4985  0.4958 -2.2084
41710SOL     OW30259   6.793   2.975   9.407 -0.5271 -0.2289 -0.3218
41710SOL    HW130260   6.842   3.031   9.347 -0.6938 -0.8793 -1.0686
41710SOL    HW230261   6.737   2.922   9.351 -1.2266 -0.3204  0.4563
41711SOL     OW30262   8.062   0.122   7.439  0.5186 -0.1112 -0.5258
41711SOL    HW130263   8.107   0.193   7.485 -2.2719  2.0602 -1.0824
41711SOL    HW230264   7.989   0.099   7.495 -1.6064  1.0241 -2.7530
41712SOL     OW30265   6.265   4.866   7.607  0.7665  0.1868 -0.1608
41712SOL    HW130266   6.195   4.874   7.542 -0.9206 -1.4702  1.3826
41712SOL    HW230267   6.309   4.951   7.605 -0.8136  1.0063 -1.7114
41713SOL     OW30268   4.497   7.233   0.790  0.2654 -0.5027 -0.0254
41713SOL    HW130269   4.588   7.253   0.811  0.0509  0.6654 -0.2172
41713SOL    HW230270   4.448   7.261   0.867 -0.2551  1.5928 -1.0897
41714SOL     OW30271   7.919   9.159   9.443  0.0950 -0.2926 -0.1855
41714SOL    HW130272   7.833   9.128   9.415  0.2019 -0.8890  0.1476
41714SOL    HW230273   7.972   9.080   9.450  1.0687  0.1916 -1.6983
41715SOL     OW30274   8.879   3.501   5.640 -0.3876 -0.3474 -0.4558
41715SOL    HW130275   8.827   3.421   5.652 -0.2067 -0.3238  0.5148
41715SOL    HW230276   8.969   3.470   5.631 -0.3691 -0.2851 -0.4859
41716SOL     OW30277   1.350   0.393   9.216 -0.3943  0.4863 -0.3434
41716SOL    HW130278   1.331   0.315   9.164 -3.1812  0.1452  1.0483
41716SOL    HW230279   1.421   0.367   9.274 -1.1071 -0.9425 -0.0931
41717SOL     OW30280   0.559  10.004   4.070 -0.2446 -0.0041 -0.2344
41717SOL    HW130281   0.634  10.013   4.129 -1.4201  2.2508  0.9464
41717SOL    HW230282   0.489   9.969   4.125 -0.5308 -0.6392 -0.9860
41718SOL     OW30283   7.525   9.076   8.531 -0.0627  0.4293 -0.5105
41718SOL    HW130284   7.541   9.122   8.449 -1.6123  0.2514 -0.9364
41718SOL    HW230285   7.474   9.139   8.584  0.0228  0.1583 -0.1018
41719SOL     OW30286   4.865   0.776   7.445  0.2820 -0.0937 -0.1831
41719SOL    HW130287   4.831   0.688   7.429  2.4479 -0.9642 -0.2741
41719SOL    HW230288   4.869   0.816   7.358  1.0314 -0.5871 -0.3814
41720SOL     OW30289   7.964   0.137   4.302 -0.1073  0.2802  0.2005
41720SOL    HW130290   8.004   0.051   4.314 -0.6453  0.1399  0.9949
41720SOL    HW230291   8.027   0.199   4.339 -1.0571 -0.0193  2.3942
41721SOL     OW30292   7.581   1.009   4.110 -0.5723  0.8339 -0.0127
41721SOL    HW130293   7.669   1.007   4.071 -0.9217  3.5135 -1.0404
41721SOL    HW230294   7.578   1.091   4.158 -2.4493  0.6562  0.2006
41722SOL     OW30295   8.243   8.442   3.430  0.1573 -0.5780  0.0199
41722SOL    HW130296   8.162   8.492   3.421 -0.3415 -1.7335 -2.0145
41722SOL    HW230297   8.236   8.402   3.517 -0.5243  0.9308  0.6786
41723SOL     OW30298   8.791  11.052  10.897  0.0403 -0.5613 -0.0556
41723SOL    HW130299   8.770  11.130  10.845  1.3125 -0.8573 -1.0369
41723SOL    HW230300   8.854  11.083  10.962 -0.7073 -0.4285  0.6116
41724SOL     OW30301   9.289   0.481   5.791 -0.2753  0.0205  0.3455
41724SOL    HW130302   9.244   0.538   5.854  0.2839  1.8967 -0.9033
41724SOL    HW230303   9.219   0.450   5.733 -0.3664  0.7854  0.0319
41725SOL     OW30304   0.812   3.454   5.669 -0.3955  0.4293  0.0457
41725SOL    HW130305   0.897   3.491   5.696 -0.3581 -0.1628  0.7481
41725SOL    HW230306   0.796   3.493   5.582  0.1932  1.1936  0.2690
41726SOL     OW30307   5.663  10.712   1.703 -0.2634  0.1139 -0.0046
41726SOL    HW130308   5.717  10.749   1.633 -0.4473 -2.2396 -1.4503
41726SOL    HW230309   5.573  10.718   1.671 -0.3023 -1.4797 -0.2415
41727SOL     OW30310   2.704   2.788   3.429  0.7317  0.8203  0.1610
41727SOL    HW130311   2.730   2.697   3.417 -0.6285  0.4159  0.1537
41727SOL    HW230312   2.780   2.831   3.468  1.9829  0.0611 -1.4014
41728SOL     OW30313   4.899   5.561   1.927 -0.1227  0.2068 -0.6954
41728SOL    HW130314   4.931   5.547   2.016 -1.1128  2.2453  0.0075
41728SOL    HW230315   4.805   5.541   1.932 -0.4627  1.7161 -0.9367
41729SOL     OW30316   8.753   1.640   0.248  0.0766 -0.5295 -0.0127
41729SOL    HW130317   8.685   1.675   0.191 -0.7525 -0.6660  0.8928
41729SOL    HW230318   8.835   1.657   0.201 -0.5945 -0.5911 -1.2143
41730SOL     OW30319   5.624   0.418   3.271  0.2048  0.4293 -0.1218
41730SOL    HW130320   5.653   0.484   3.208  0.2915  0.1603 -0.3611
41730SOL    HW230321   5.559   0.464   3.325  2.3646  1.5891  1.5939
41731SOL     OW30322   2.521   4.210   8.364  0.2811  0.1429 -0.6139
41731SOL    HW130323   2.466   4.152   8.312 -1.0782  1.6866 -0.9490
41731SOL    HW230324   2.583   4.247   8.301  1.5983 -1.4433 -0.2722
41732SOL     OW30325   5.701   2.208   2.128  0.5105  0.1539  0.4332
41732SOL    HW130326   5.735   2.262   2.056  0.8957  0.9709  1.2224
41732SOL    HW230327   5.763   2.221   2.200 -0.4055  0.1105  1.2380
41733SOL     OW30328  10.237   1.801  10.679  0.3696  0.4377 -0.4885
41733SOL    HW130329  10.279   1.839  10.601  0.8991 -0.3840 -0.6070
41733SOL    HW230330  10.152   1.844  10.684  1.0466  1.8041 -0.5073
41734SOL     OW30331  10.077   2.779   6.065  0.2693  0.9622 -0.4163
41734SOL    HW130332  10.171   2.766   6.080  0.3354  0.7657 -0.9802
41734SOL    HW230333  10.061   2.870   6.089  0.4726  0.8017  0.3279
41735SOL     OW30334   9.604   3.813   0.274  0.2772  0.1033 -0.8181
41735SOL    HW130335   9.532   3.790   0.216  1.8108 -2.4767 -1.7991
41735SOL    HW230336   9.567   3.806   0.362 -0.7814 -0.8059 -1.3187
41736SOL     OW30337   1.836   1.348   6.045 -0.0218 -0.2879  0.5551
41736SOL    HW130338   1.858   1.363   5.953  1.6704 -2.9674  0.4856
41736SOL    HW230339   1.806   1.434   6.076  0.9777  1.0683 -2.0363
41737SOL     OW30340  11.085   4.748   5.312  0.2533  0.1896 -0.2247
41737SOL    HW130341  11.155   4.813   5.310  1.7186 -1.3664 -1.7072
41737SOL    HW230342  11.129   4.665   5.292 -1.8469 -0.9894 -0.1225
41738SOL     OW30343   5.867   2.655   0.216 -0.0057  0.4003  0.0841
41738SOL    HW130344   5.895   2.720   0.280  2.0916  0.6664 -1.0501
41738SOL    HW230345   5.892   2.571   0.254 -1.5062  0.3134  0.9419
41739SOL     OW30346   7.810   0.119   0.478 -0.2575  0.6576  0.2786
41739SOL    HW130347   7.735   0.064   0.499 -0.4948  0.7205 -0.3980
41739SOL    HW230348   7.852   0.075   0.404  1.2969 -0.2289  1.6742
41740SOL     OW30349   2.192  10.909   9.500 -0.3811  0.2520 -0.0613
41740SOL    HW130350   2.138  10.984   9.527 -0.1839  0.9965 -1.6737
41740SOL    HW230351   2.129  10.839   9.484 -0.6609  0.4037  0.3523
41741SOL     OW30352   4.236   7.714   9.075  0.0710  0.0262  0.4328
41741SOL    HW130353   4.252   7.800   9.112 -1.0472 -0.0161  1.0250
41741SOL    HW230354   4.189   7.731   8.993  0.5049  0.0030  0.1733
41742SOL     OW30355   7.236  10.725   0.665  0.2304 -0.2162  0.6073
41742SOL    HW130356   7.220  10.700   0.574 -0.0620 -0.2099  0.6594
41742SOL    HW230357   7.169  10.791   0.684  0.0780 -0.4680  0.9380
41743SOL     OW30358   5.992   8.487   5.380 -0.6011 -0.3327  0.1726
41743SOL    HW130359   6.048   8.410   5.384 -1.2684 -0.9796 -2.1542
41743SOL    HW230360   6.041   8.551   5.328 -0.2327  0.6838  1.7224
41744SOL     OW30361   6.979   8.441   2.818  0.1639  0.1443  0.1484
41744SOL    HW130362   7.045   8.378   2.789 -0.7294 -0.4051 -0.6918
41744SOL    HW230363   6.896   8.401   2.796 -0.4445  1.1627  0.5573
41745SOL     OW30364   0.639   4.276   6.451  0.0158 -0.4278  0.4968
41745SOL    HW130365   0.672   4.192   6.418 -0.2990 -0.0540 -0.7761
41745SOL    HW230366   0.702   4.341   6.420 -1.8728  0.3010 -1.9665
41746SOL     OW30367   0.537   7.074   3.137 -0.2073  0.7486 -0.3708
41746SOL    HW130368   0.480   7.084   3.061  0.6080 -0.0571 -1.0900
41746SOL    HW230369   0.523   6.984   3.167 -0.1122  0.8886  0.1096
41747SOL     OW30370   4.362  10.339   2.554 -0.2729 -0.3886  0.1867
41747SOL    HW130371   4.277  10.297   2.542  0.3883 -1.4213 -1.1194
41747SOL    HW230372   4.363  10.410   2.490 -0.3610 -0.0401  0.5707
41748SOL     OW30373   1.482   9.194   0.064 -0.4804  0.1789  0.0775
41748SOL    HW130374   1.442   9.123   0.114  0.1350  0.5329  1.0815
41748SOL    HW230375   1.541   9.150   0.002 -1.1908 -0.2564 -0.2938
41749SOL     OW30376  10.821   4.252   1.212 -0.3024 -0.2933  0.4319
41749SOL    HW130377  10.788   4.165   1.191 -1.4119  0.1761  0.2006
41749SOL    HW230378  10.913   4.238   1.235  0.3627 -1.1226 -2.5490
41750SOL     OW30379   6.504   6.693   5.623 -0.3081 -0.2060 -0.1155
41750SOL    HW130380   6.502   6.691   5.527 -2.4822  0.4639 -0.1118
41750SOL    HW230381   6.432   6.751   5.647 -0.2251 -0.9245  1.9389
41751SOL     OW30382  11.260  11.222   6.657 -0.6737 -0.2367 -0.4195
41751SOL    HW130383  11.350  11.242   6.682 -0.5569 -0.3543 -0.7359
41751SOL    HW230384  11.209  11.297   6.686 -0.3796  0.1115 -0.7929
41752SOL     OW30385   5.480   5.762   7.351  0.1735  0.1296  0.4087
41752SOL    HW130386   5.541   5.707   7.400  0.1303  1.2116  1.6978
41752SOL    HW230387   5.399   5.758   7.401 -0.6999 -0.9375 -1.0556
41753SOL     OW30388   4.917   5.940   5.879 -0.1237  0.0012  0.0161
41753SOL    HW130389   4.901   6.033   5.863 -0.2644 -0.0516 -0.1459
41753SOL    HW230390   5.005   5.937   5.916 -0.9707  0.4162  2.1340
41754SOL     OW30391   6.931   2.693   8.255 -0.3433 -0.1512  0.6536
41754SOL    HW130392   6.859   2.750   8.282  0.5082 -0.7634  4.6076
41754SOL    HW230393   7.007   2.728   8.302  1.5648 -0.6899 -1.9239
41755SOL     OW30394   2.258  11.089   6.656 -0.3034  0.6866 -0.1430
41755SOL    HW130395   2.255  10.996   6.680  1.4084  0.0943 -2.0803
41755SOL    HW230396   2.193  11.130   6.714 -1.0993 -1.6957  0.7558
41756SOL     OW30397   2.135   5.891   9.359  0.3418 -1.2841 -0.2583
41756SOL    HW130398   2.067   5.824   9.364 -0.2690 -0.6412 -0.1031
41756SOL    HW230399   2.099   5.958   9.301  0.0037  0.0462  1.4614
41757SOL     OW30400   2.192   4.893   2.217 -0.0485 -0.2151  0.3296
41757SOL    HW130401   2.244   4.813   2.220 -0.8904 -0.7484  0.8305
41757SOL    HW230402   2.102   4.862   2.205 -0.2521  0.6955 -0.5326
41758SOL     OW30403   1.777   4.769   9.163 -0.2825  0.4115  0.3056
41758SOL    HW130404   1.761   4.734   9.076 -0.0093  0.0491  0.3986
41758SOL    HW230405   1.697   4.750   9.212 -0.7128  1.2428 -0.0593
41759SOL     OW30406  11.328   9.914   7.094  0.1321  0.4678 -0.2541
41759SOL    HW130407  11.377   9.913   7.176 -1.1807 -1.6029  0.5344
41759SOL    HW230408  11.313  10.007   7.076 -0.4468  0.9149  2.3971
41760SOL     OW30409   1.194  11.265   7.471 -0.7318  0.0412 -0.0888
41760SOL    HW130410   1.274  11.223   7.438 -1.6553  0.2486 -2.7036
41760SOL    HW230411   1.216  11.358   7.477 -1.1195  0.2909 -2.0551
41761SOL     OW30412   2.031   6.391   7.178  0.1477  0.2423 -0.3632
41761SOL    HW130413   2.091   6.445   7.127  0.5892  0.2074  0.1083
41761SOL    HW230414   2.032   6.431   7.265  1.0662 -0.9783  0.1983
41762SOL     OW30415   8.093   2.436   4.061 -0.5921  0.5053 -0.1106
41762SOL    HW130416   8.027   2.496   4.095 -1.8662  0.2698 -2.0912
41762SOL    HW230417   8.056   2.349   4.075 -0.3645  0.3367 -0.5561
41763SOL     OW30418   2.051  10.138   9.578  0.7206  0.6570 -0.0190
41763SOL    HW130419   2.044  10.143   9.483  0.3021 -0.7098 -0.0738
41763SOL    HW230420   2.013  10.053   9.600  0.4638  1.1260  1.4027
41764SOL     OW30421   1.106   7.499   9.771  0.4081 -0.1029 -0.2428
41764SOL    HW130422   1.142   7.577   9.814 -1.0597 -0.2585  1.2945
41764SOL    HW230423   1.079   7.442   9.843 -1.0837 -0.8437 -1.3767
41765SOL     OW30424   8.833  10.696   0.902  0.4182 -0.1994  0.1814
41765SOL    HW130425   8.859  10.780   0.941 -0.5528 -0.2968  1.0641
41765SOL    HW230426   8.739  10.702   0.892  0.3557 -1.1536  0.1680
41766SOL     OW30427   9.999   9.691   4.462 -0.7707 -0.0637 -0.5422
41766SOL    HW130428  10.060   9.752   4.504 -0.3232 -0.6717 -0.2913
41766SOL    HW230429   9.913   9.732   4.472 -0.2751  1.3704 -1.9284
41767SOL     OW30430   1.351   4.821   4.422 -0.2270 -0.7543 -0.7141
41767SOL    HW130431   1.325   4.903   4.463  0.4418 -0.7156 -0.3642
41767SOL    HW230432   1.368   4.762   4.495  1.5138 -0.5165 -0.9247
41768SOL     OW30433  11.129   9.748   8.821 -0.5352  0.0562 -0.0021
41768SOL    HW130434  11.126   9.666   8.773  0.8834  1.4134 -2.4810
41768SOL    HW230435  11.221   9.759   8.844 -0.9866  0.1120  1.8849
41769SOL     OW30436   3.565   5.552   9.272 -0.7558  0.0254 -0.1856
41769SOL    HW130437   3.567   5.620   9.339 -1.3582  0.5586 -0.7057
41769SOL    HW230438   3.526   5.594   9.195 -0.0634 -0.5745 -0.8818
41770SOL     OW30439   8.000   1.622   5.163 -0.3521 -0.0429  0.0417
41770SOL    HW130440   8.090   1.624   5.197 -0.4358 -0.3420  0.2980
41770SOL    HW230441   7.971   1.713   5.166  0.5210  0.2969 -1.6317
41771SOL     OW30442   2.572   4.462   2.747 -0.2993 -0.2288 -0.3126
41771SOL    HW130443   2.614   4.546   2.766 -0.7277 -0.1321  0.2221
41771SOL    HW230444   2.501   4.455   2.811  1.6191 -2.3837  1.6783
41772SOL     OW30445  10.064   0.065  10.253  0.0493  0.2607  0.1910
41772SOL    HW130446  10.122   0.046  10.179 -0.8337  0.8131 -0.6586
41772SOL    HW230447  10.009   0.137  10.222 -1.3760 -0.5376  0.8273
41773SOL     OW30448   3.624   3.937   9.651  0.3891  0.7437  0.0499
41773SOL    HW130449   3.655   4.023   9.622  1.6954  0.3470  0.2271
41773SOL    HW230450   3.681   3.874   9.606  1.6353  0.0836  2.4670
41774SOL     OW30451   9.082   6.903   8.273 -1.1060 -0.2223  0.3130
41774SOL    HW130452   9.069   6.887   8.180  0.4388  0.2739 -0.0088
41774SOL    HW230453   9.177   6.900   8.285 -1.2650  0.0221  1.8135
41775SOL     OW30454   6.123   2.342   7.793 -0.2194  0.3129  0.0303
41775SOL    HW130455   6.165   2.256   7.800  0.0537  0.3045 -1.5306
41775SOL    HW230456   6.030   2.325   7.800 -0.0486  0.2293  2.6334
41776SOL     OW30457   2.879   3.026   7.196 -0.2105  0.2603 -0.0060
41776SOL    HW130458   2.967   3.056   7.219 -0.3837  1.8649 -1.3908
41776SOL    HW230459   2.843   2.993   7.279  1.6210 -0.2827  0.6047
41777SOL     OW30460   8.898   9.412   6.080  0.3740  0.3435 -0.0949
41777SOL    HW130461   8.804   9.429   6.086  0.0433 -1.0940 -0.9031
41777SOL    HW230462   8.933   9.438   6.165 -0.5966  1.7988 -0.1153
41778SOL     OW30463   0.575   6.497   5.511  0.1777  0.2223 -0.5780
41778SOL    HW130464   0.566   6.424   5.450  1.5098 -0.9117  0.5530
41778SOL    HW230465   0.503   6.486   5.573 -1.4105  1.5970 -2.1382
41779SOL     OW30466   6.439  10.966   4.520  0.5827 -0.4656  0.2328
41779SOL    HW130467   6.365  10.906   4.516  1.0669 -1.0747  0.3227
41779SOL    HW230468   6.465  10.978   4.429  0.3702 -0.2426  0.2005
41780SOL     OW30469  10.571   1.538   1.800  0.8346 -0.0967 -0.3996
41780SOL    HW130470  10.567   1.446   1.774  0.6174 -0.7713  1.9017
41780SOL    HW230471  10.628   1.539   1.877 -0.1675  1.5052  0.3531
41781SOL     OW30472   9.064   2.550   8.284 -0.1222 -0.5484 -0.2486
41781SOL    HW130473   9.095   2.590   8.203  0.5332  0.2671  0.3951
41781SOL    HW230474   9.139   2.502   8.318 -0.4741 -1.1079 -0.2571
41782SOL     OW30475   8.715   5.657   4.956 -0.1509  0.0688 -0.1584
41782SOL    HW130476   8.779   5.608   4.904 -0.5119  0.9860 -1.4999
41782SOL    HW230477   8.658   5.589   4.993  0.8154 -0.6720  0.0302
41783SOL     OW30478   4.979  10.947   3.347 -0.2730  0.1205  0.3883
41783SOL    HW130479   4.950  10.868   3.391  1.1377  0.1935  1.4938
41783SOL    HW230480   4.904  11.006   3.351 -1.1629 -0.9684 -0.0037
41784SOL     OW30481   1.878   5.965   0.191 -0.4669  0.4960  0.6684
41784SOL    HW130482   1.793   6.009   0.201 -1.2206 -0.7326 -0.1831
41784SOL    HW230483   1.897   5.969   0.098 -0.2181 -0.3671  0.6753
41785SOL     OW30484   3.702   6.852   5.818 -0.6576 -0.1184 -0.3260
41785SOL    HW130485   3.694   6.916   5.889 -2.6406 -0.6622 -0.0284
41785SOL    HW230486   3.745   6.777   5.858  1.3825  0.8821 -0.5940
41786SOL     OW30487   1.624   9.419   1.340 -0.2424  0.2613 -0.0769
41786SOL    HW130488   1.529   9.409   1.351 -0.0581 -1.3876  0.1746
41786SOL    HW230489   1.646   9.499   1.389 -1.2816 -0.1878  1.1535
41787SOL     OW30490   4.817   6.233   3.973  0.3401  0.4239 -0.0526
41787SOL    HW130491   4.893   6.290   3.967  0.8007 -0.0820  0.8503
41787SOL    HW230492   4.853   6.146   3.990 -0.4523  0.2332  0.6881
41788SOL     OW30493   1.535   1.958   9.739  0.6653 -0.0133 -0.2238
41788SOL    HW130494   1.610   2.002   9.700  1.2504 -1.2651 -0.5344
41788SOL    HW230495   1.568   1.925   9.823  1.1828 -2.6364 -1.4004
41789SOL     OW30496   8.865   1.908   0.574 -0.3531  0.2464  0.1221
41789SOL    HW130497   8.862   1.954   0.490  1.0731 -1.0468 -0.6517
41789SOL    HW230498   8.793   1.846   0.570  1.0490 -1.3353 -1.0627
41790SOL     OW30499   6.689   0.687   6.761 -0.7382 -0.4567 -0.1303
41790SOL    HW130500   6.756   0.734   6.813 -0.1370 -0.3612 -0.9874
41790SOL    HW230501   6.607   0.730   6.785 -0.3328  0.2839 -0.0304
41791SOL     OW30502   8.586   4.664   4.143  0.1012  0.2031 -0.1590
41791SOL    HW130503   8.597   4.571   4.123  0.9977  0.6164 -1.6815
41791SOL    HW230504   8.504   4.689   4.101 -0.0930  0.1283  0.1740
41792SOL     OW30505  10.071  10.740  10.216 -0.0307 -0.3291 -0.1944
41792SOL    HW130506   9.990  10.792  10.213  0.6762  0.7390 -1.8645
41792SOL    HW230507  10.128  10.787  10.275 -0.2070 -0.4527  0.0744
41793SOL     OW30508   6.369   7.753   8.869 -0.0695  0.2336  0.2066
41793SOL    HW130509   6.431   7.744   8.797  1.9201 -0.4070  1.9596
41793SOL    HW230510   6.358   7.664   8.903 -1.4603  0.4413  0.3391
41794SOL     OW30511   1.537   5.629   3.382 -0.3075  0.3562  0.2976
41794SOL    HW130512   1.469   5.596   3.323  0.3839  0.0615 -0.3339
41794SOL    HW230513   1.618   5.591   3.349  0.1025  0.2888  1.3690
41795SOL     OW30514   8.611  10.998   7.656  0.0616 -1.0909  0.1559
41795SOL    HW130515   8.520  10.983   7.682  0.1055 -0.6901  0.5456
41795SOL    HW230516   8.645  11.059   7.722  0.8048 -1.7536  0.3963
41796SOL     OW30517   9.726   2.157   7.933 -0.3602  0.2324  0.0308
41796SOL    HW130518   9.642   2.124   7.901  0.0688 -1.0611  0.1960
41796SOL    HW230519   9.715   2.252   7.936 -1.5901  0.1225 -0.5818
41797SOL     OW30520   4.186   2.351   1.099  0.1187  0.2242  0.0363
41797SOL    HW130521   4.156   2.308   1.019 -0.2757  0.6932 -0.0650
41797SOL    HW230522   4.106   2.383   1.141  0.1542 -1.5032  1.4775
41798SOL     OW30523  10.488   2.898   3.515  0.2343 -0.1295 -0.0541
41798SOL    HW130524  10.432   2.975   3.516 -0.1113 -0.3538 -1.1920
41798SOL    HW230525  10.577   2.933   3.514  0.0735  0.2624 -0.8686
41799SOL     OW30526  10.775  10.393   6.581 -0.2644  0.0564 -0.1201
41799SOL    HW130527  10.813  10.356   6.660 -1.6311 -0.9329  0.0979
41799SOL    HW230528  10.846  10.442   6.540  0.5055  0.4381  1.6281
41800SOL     OW30529  10.004  10.269  10.599  0.4817 -0.1525 -0.4256
41800SOL    HW130530  10.075  10.334  10.604 -0.9631  1.6183 -2.0806
41800SOL    HW230531  10.011  10.233  10.510  0.3574 -1.2461 -0.0078
41801SOL     OW30532   4.304   2.322   3.264 -0.0905  0.0613  0.1029
41801SOL    HW130533   4.342   2.379   3.198 -1.4683  0.1110 -0.6732
41801SOL    HW230534   4.354   2.339   3.344 -0.1967  2.0186 -0.2378
41802SOL     OW30535   6.468   7.000   6.269 -0.4891  0.2072  0.0512
41802SOL    HW130536   6.502   6.931   6.212  0.8019  0.4484  0.5131
41802SOL    HW230537   6.520   7.077   6.246 -1.4415  0.8585  0.0432
41803SOL     OW30538   5.523   4.698   7.376  0.1755  0.8011 -0.5887
41803SOL    HW130539   5.455   4.680   7.441  0.9283  1.7195  0.4798
41803SOL    HW230540   5.496   4.780   7.334 -0.8649 -0.3529 -2.2032
41804SOL     OW30541   2.042   2.046   6.130 -0.1462  1.0357 -0.0392
41804SOL    HW130542   1.987   2.025   6.205  0.8124  0.4096  0.5120
41804SOL    HW230543   2.022   2.137   6.110 -2.0167  0.5571 -0.4077
41805SOL     OW30544   4.242   1.662   9.441  0.0950  0.3453  0.3172
41805SOL    HW130545   4.184   1.649   9.517  0.4333  0.1980  0.5514
41805SOL    HW230546   4.330   1.658   9.478  0.3365 -2.0043 -0.4170
41806SOL     OW30547   9.983   7.310   0.532  0.0726  0.3070  0.3806
41806SOL    HW130548   9.983   7.237   0.594  0.0293  1.5523  1.8682
41806SOL    HW230549  10.052   7.368   0.563 -0.3531  1.2382 -0.3855
41807SOL     OW30550   0.203   8.142  10.232  0.7150  0.1249  0.0124
41807SOL    HW130551   0.116   8.102  10.232  0.0198  1.5781 -2.1394
41807SOL    HW230552   0.187   8.235  10.246  2.1034  0.1550  1.6316
41808SOL     OW30553   6.615   1.877   0.878 -0.0645  0.1460 -0.8456
41808SOL    HW130554   6.540   1.924   0.842 -0.1941  0.0916 -0.6477
41808SOL    HW230555   6.581   1.790   0.901 -0.0725  0.3104 -0.2384
41809SOL     OW30556   9.232   8.457   6.996  0.1366  0.5060  0.2038
41809SOL    HW130557   9.207   8.373   6.958 -1.8008  0.5320  1.3532
41809SOL    HW230558   9.183   8.522   6.945  1.6496  0.9436 -0.7011
41810SOL     OW30559   9.003   2.815   9.082  0.0111  0.8973 -0.0261
41810SOL    HW130560   9.041   2.890   9.036  0.8317 -0.0660 -0.9438
41810SOL    HW230561   9.074   2.750   9.085 -1.2821 -0.5877 -0.9510
41811SOL     OW30562   7.076   1.848   1.771 -0.5279 -0.2610  0.2621
41811SOL    HW130563   7.169   1.854   1.747 -1.1371  1.5833 -1.7249
41811SOL    HW230564   7.077   1.803   1.856  2.2172  0.2800  0.5828
41812SOL     OW30565   1.452   1.573   5.900 -0.0511 -0.0205  0.3929
41812SOL    HW130566   1.434   1.648   5.843  3.4342 -0.7283 -1.7659
41812SOL    HW230567   1.502   1.609   5.973 -0.1639  0.0846  0.4184
41813SOL     OW30568   3.100   9.998   7.798  0.1469  0.0705 -0.5910
41813SOL    HW130569   3.085   9.927   7.736 -0.5067 -0.2619 -0.0605
41813SOL    HW230570   3.027   9.991   7.860  1.0345  0.1184  0.4697
41814SOL     OW30571   8.770  10.959   5.051  0.2352  0.3744 -0.2157
41814SOL    HW130572   8.690  10.937   5.003 -1.2563  1.1948  1.8201
41814SOL    HW230573   8.785  10.884   5.108  0.2625  0.7068  0.2213
41815SOL     OW30574   6.635   0.563   5.341  0.0567  0.2635  0.1483
41815SOL    HW130575   6.669   0.574   5.430 -0.6105 -1.0552  0.5937
41815SOL    HW230576   6.540   0.572   5.351  0.0726  1.4990 -0.6768
41816SOL     OW30577   7.828   9.607   2.428 -0.1509 -0.5788 -0.3975
41816SOL    HW130578   7.842   9.621   2.334  0.1639  1.2521 -0.1011
41816SOL    HW230579   7.755   9.544   2.432 -1.2189  0.5073 -1.8709
41817SOL     OW30580   4.070   5.448   9.682 -0.2329  0.4512 -0.1211
41817SOL    HW130581   4.150   5.473   9.728 -0.2749  0.5047 -0.0783
41817SOL    HW230582   4.090   5.363   9.643 -0.7093 -0.3417  1.2995
41818SOL     OW30583  11.328   6.643  11.187  0.4542  0.5154  0.2755
41818SOL    HW130584  11.402   6.611  11.240 -0.2559  0.7318  1.4158
41818SOL    HW230585  11.292   6.715  11.238 -0.2316  0.7389 -0.5260
41819SOL     OW30586   0.064   4.941   0.112 -0.1054  0.2415  0.0294
41819SOL    HW130587   0.037   4.852   0.090  0.2459  0.1594 -0.0857
41819SOL    HW230588   0.006   4.998   0.062 -0.6287  0.0832  0.4562
41820SOL     OW30589   9.591   3.436   7.049  0.3151 -0.3952  0.0908
41820SOL    HW130590   9.504   3.402   7.072  0.0394  0.4777  0.3777
41820SOL    HW230591   9.577   3.486   6.968 -0.4009  3.5335  2.4730
41821SOL     OW30592   9.182  11.102   7.209 -0.6964  0.4069 -0.2271
41821SOL    HW130593   9.100  11.142   7.179  0.5166  3.2732  0.0663
41821SOL    HW230594   9.249  11.168   7.189  1.5497 -1.8612 -0.4220
41822SOL     OW30595   0.002   2.753   0.920 -0.0233  0.1865  0.0894
41822SOL    HW130596   0.067   2.810   0.961  1.0207 -0.4920 -0.5934
41822SOL    HW230597  -0.042   2.709   0.993  1.5323 -0.7000  0.5090
41823SOL     OW30598   9.084   8.691   4.645 -0.5726 -0.0162 -0.0812
41823SOL    HW130599   9.177   8.679   4.623 -0.5482  0.1830 -0.0890
41823SOL    HW230600   9.049   8.742   4.572 -0.8471 -0.6711 -0.4109
41824SOL     OW30601  10.682   4.743   5.786  0.6438 -0.0952 -0.4867
41824SOL    HW130602  10.676   4.753   5.881  0.8665 -3.6216 -0.0072
41824SOL    HW230603  10.768   4.777   5.764  1.8450 -1.9668  1.0689
41825SOL     OW30604   2.016   9.445   7.803 -0.0684  0.2534  0.8836
41825SOL    HW130605   2.027   9.391   7.724 -2.5978  0.9759  0.0065
41825SOL    HW230606   2.002   9.533   7.770 -1.5884  0.4970  2.1213
41826SOL     OW30607   2.095   5.381  10.187  0.4555 -0.5087 -0.2841
41826SOL    HW130608   2.113   5.290  10.165  1.0092 -0.1266 -1.4649
41826SOL    HW230609   2.116   5.429  10.107  1.2447  0.7885  0.6907
41827SOL     OW30610   7.917   2.421  11.060  0.5571  0.0109 -0.4351
41827SOL    HW130611   7.963   2.354  11.110  0.3467 -1.1369 -1.7586
41827SOL    HW230612   7.949   2.504  11.096  1.2796 -0.7937  0.7976
41828SOL     OW30613   2.384   5.063  11.110  0.2869 -0.0367 -0.3282
41828SOL    HW130614   2.472   5.065  11.148  0.2770 -0.0247 -0.3065
41828SOL    HW230615   2.363   5.155  11.095 -1.1880  0.2487  3.0566
41829SOL     OW30616   3.195  10.443   8.036 -0.1096 -0.2110  0.4164
41829SOL    HW130617   3.190  10.348   8.025 -0.3553 -0.1925  0.3766
41829SOL    HW230618   3.130  10.478   7.976  0.5255  0.0261 -0.1458
41830SOL     OW30619   2.668   3.304   4.971  0.1884 -0.3452 -0.0765
41830SOL    HW130620   2.702   3.347   5.049 -1.2192 -0.4827  0.6353
41830SOL    HW230621   2.717   3.222   4.964  1.8002  0.6511 -0.5533
41831SOL     OW30622   1.213   3.822   7.869  0.3599  0.5887  0.1878
41831SOL    HW130623   1.220   3.728   7.858  0.3195  0.0937  3.6813
41831SOL    HW230624   1.143   3.849   7.810  0.2994 -1.5824 -0.7632
41832SOL     OW30625   1.948   4.661   7.577 -0.4629  0.0352  0.1152
41832SOL    HW130626   1.948   4.669   7.672 -0.3370  0.4298  0.0810
41832SOL    HW230627   1.917   4.571   7.561  2.9423 -1.2994  0.6161
41833SOL     OW30628   2.882   6.437  10.199 -0.1634 -0.9619  0.0102
41833SOL    HW130629   2.825   6.433  10.275  0.6272 -3.0295  0.5072
41833SOL    HW230630   2.967   6.467  10.233 -0.8137  1.7745 -0.6737
41834SOL     OW30631   4.029   8.805  10.235 -0.1764 -1.0409 -0.2270
41834SOL    HW130632   4.105   8.756  10.266 -0.3096 -2.0414 -1.4256
41834SOL    HW230633   3.977   8.740  10.188 -1.1658 -0.0872 -0.4718
41835SOL     OW30634   1.613   2.736  11.237  0.8808  0.1278 -0.0540
41835SOL    HW130635   1.702   2.773  11.241  1.3670 -1.1202  0.9940
41835SOL    HW230636   1.572   2.764  11.319  0.4683  0.2904 -0.3154
41836SOL     OW30637   9.704   6.206   1.222 -0.7512 -0.2026  0.2075
41836SOL    HW130638   9.776   6.251   1.177  1.3999 -2.3788  1.3895
41836SOL    HW230639   9.625   6.252   1.191  0.9981  1.3776 -2.1431
41837SOL     OW30640   9.459   3.971   7.295  0.3141 -0.8020 -0.1023
41837SOL    HW130641   9.515   3.972   7.372  0.9744 -0.0437 -0.5823
41837SOL    HW230642   9.372   3.947   7.328  0.3360  0.6390  1.0498
41838SOL     OW30643   7.636  11.209  10.434  0.3344 -0.2952 -0.8929
41838SOL    HW130644   7.724  11.213  10.398  0.7828 -1.6543  0.0159
41838SOL    HW230645   7.644  11.156  10.513 -1.2190 -0.0855 -0.5675
41839SOL     OW30646   6.134   5.556   7.356  0.2766  0.0037  0.8092
41839SOL    HW130647   6.067   5.501   7.315  1.3208 -1.4148  0.9586
41839SOL    HW230648   6.121   5.544   7.450  2.6194 -2.7193  0.8719
41840SOL     OW30649   5.724   0.248  11.089 -0.0741  0.4578  0.2000
41840SOL    HW130650   5.644   0.272  11.041 -0.0095  0.9542  0.3369
41840SOL    HW230651   5.705   0.272  11.179 -0.2677 -0.6604  0.4545
41841SOL     OW30652   7.730   5.494   6.719  0.2672 -0.1116 -0.5303
41841SOL    HW130653   7.648   5.446   6.728  0.2622  0.3880  2.5379
41841SOL    HW230654   7.704   5.582   6.691 -0.4792  0.7408  2.6958
41842SOL     OW30655   1.663  10.021   3.126 -0.1951  0.6356  0.0278
41842SOL    HW130656   1.651   9.948   3.065  0.3056  0.5225  0.0642
41842SOL    HW230657   1.637   9.985   3.211 -2.9691  1.4131 -0.4397
41843SOL     OW30658   6.819   6.532   2.746 -0.0832 -0.2785 -0.3035
41843SOL    HW130659   6.766   6.542   2.824  0.0374  0.1709 -0.2822
41843SOL    HW230660   6.760   6.551   2.673  0.0609  0.2822 -0.2770
41844SOL     OW30661   8.727   7.388   1.233 -0.2294  0.5861  0.8967
41844SOL    HW130662   8.819   7.416   1.229  0.2043 -0.8609  0.4865
41844SOL    HW230663   8.697   7.389   1.142  0.1325 -1.3556  0.7384
41845SOL     OW30664   9.304   1.804   3.683  0.4378  0.7015  0.2837
41845SOL    HW130665   9.231   1.746   3.704  1.0010 -0.1291 -0.0172
41845SOL    HW230666   9.283   1.839   3.596 -0.6693  2.1941  1.1178
41846SOL     OW30667   7.636   9.183   9.180 -0.3230  0.1651  0.2822
41846SOL    HW130668   7.620   9.133   9.260  1.3474 -1.0400 -0.1207
41846SOL    HW230669   7.725   9.217   9.190  0.7551 -1.8168 -1.9738
41847SOL     OW30670  10.714   1.165   9.767  0.8918 -0.7111  0.2353
41847SOL    HW130671  10.649   1.151   9.698  0.6340 -2.1198  0.7548
41847SOL    HW230672  10.662   1.171   9.848  1.1695  1.2098  0.2921
41848SOL     OW30673   8.843   2.642   7.411  0.6112 -0.1809  0.4504
41848SOL    HW130674   8.832   2.552   7.442 -0.8556  0.3820  1.6121
41848SOL    HW230675   8.923   2.672   7.454  0.4104 -0.5216  1.0690
41849SOL     OW30676   3.997   1.650   4.369 -0.1236  0.0101  0.5275
41849SOL    HW130677   3.905   1.626   4.379  0.1571 -0.8930  1.0041
41849SOL    HW230678   4.040   1.569   4.340  0.3617  0.6645 -0.5924
41850SOL     OW30679   1.164  11.146  10.352  0.3739  0.3938  0.1068
41850SOL    HW130680   1.214  11.087  10.295 -1.4964 -1.1532 -0.0203
41850SOL    HW230681   1.223  11.218  10.371  1.1280  0.8297 -3.6141
41851SOL     OW30682   8.884  10.127   4.564  0.5363 -0.2057 -0.1869
41851SOL    HW130683   8.808  10.070   4.577 -0.0801  0.8451  0.9340
41851SOL    HW230684   8.852  10.197   4.507  0.6260  0.2665  0.3289
41852SOL     OW30685   0.764   4.345   7.927 -0.0431 -0.4492 -0.2384
41852SOL    HW130686   0.791   4.437   7.924  0.9618 -0.7633 -1.1171
41852SOL    HW230687   0.775   4.314   7.837 -0.5674 -1.3861  0.0103
41853SOL     OW30688   5.499   3.358   0.212  0.3443  0.6709  0.5377
41853SOL    HW130689   5.417   3.395   0.180  0.2185 -0.1893 -0.1413
41853SOL    HW230690   5.545   3.433   0.251 -0.1126  1.4637 -0.4099
41854SOL     OW30691   0.540   5.380   4.299  0.2145 -0.2389 -0.2765
41854SOL    HW130692   0.469   5.438   4.272 -1.7929 -1.5849  1.9158
41854SOL    HW230693   0.544   5.313   4.230 -0.4916 -0.0051 -0.5482
41855SOL     OW30694   3.791   7.064   9.951  0.0040  0.2131 -0.5001
41855SOL    HW130695   3.759   7.089  10.038  0.2357  0.0032 -0.3572
41855SOL    HW230696   3.733   6.993   9.923  1.4031 -1.3582  0.4871
41856SOL     OW30697   8.823   1.507   8.403 -0.6519  0.0719  0.3679
41856SOL    HW130698   8.841   1.584   8.457 -1.3139  0.1397  0.4886
41856SOL    HW230699   8.904   1.455   8.408 -0.6195  0.2060  1.1989
41857SOL     OW30700   7.135  10.536   3.037  0.0463  0.2607 -0.6334
41857SOL    HW130701   7.162  10.500   3.122  0.4859  1.2959 -0.3362
41857SOL    HW230702   7.154  10.629   3.043  1.5083  0.1027 -2.4324
41858SOL     OW30703   9.985   4.822   1.211  1.1153 -0.3111 -0.4244
41858SOL    HW130704   9.971   4.739   1.257 -0.5906 -0.3914 -1.0704
41858SOL    HW230705  10.059   4.862   1.258  1.6475 -1.9576  0.1945
41859SOL     OW30706  10.235   6.019  10.926 -0.4508 -0.1260 -0.2206
41859SOL    HW130707  10.216   6.110  10.905  0.2713  0.2492  0.6963
41859SOL    HW230708  10.153   5.984  10.959 -0.3447  0.6369  0.8838
41860SOL     OW30709   3.539   6.324   6.965 -0.3929  0.5768 -0.3717
41860SOL    HW130710   3.550   6.294   7.055 -1.9617  2.4532  0.4780
41860SOL    HW230711   3.483   6.259   6.924 -0.0174 -0.0560  0.1189
41861SOL     OW30712   0.580   9.268   4.085 -0.0967  0.1869 -0.5302
41861SOL    HW130713   0.509   9.235   4.140 -0.5994  0.1582 -1.1904
41861SOL    HW230714   0.631   9.325   4.143 -0.8586  0.4837 -0.1469
41862SOL     OW30715   8.669   6.491   3.381 -0.2191 -0.1033  0.0595
41862SOL    HW130716   8.659   6.516   3.290 -0.8759  0.8414  0.3793
41862SOL    HW230717   8.603   6.424   3.396 -1.7253  1.4367  0.4486
41863SOL     OW30718   5.331   5.711   7.583 -0.6996 -0.7125 -0.2185
41863SOL    HW130719   5.340   5.799   7.619 -2.4757 -0.3777 -0.5501
41863SOL    HW230720   5.335   5.653   7.659  1.2605 -0.4205 -0.0730
41864SOL     OW30721  10.624   4.584   8.451  0.1978 -0.0026 -0.4469
41864SOL    HW130722  10.597   4.524   8.520  1.0861 -0.1017 -0.1753
41864SOL    HW230723  10.549   4.589   8.392 -0.8657  0.7173  0.9486
41865SOL     OW30724   2.287   2.792   3.885 -0.5462 -0.4271 -0.3686
41865SOL    HW130725   2.315   2.824   3.800 -1.8189  3.4852  0.5860
41865SOL    HW230726   2.195   2.767   3.873 -0.4140 -0.8926 -0.4059
41866SOL     OW30727  10.559   8.413   9.440 -0.1615 -0.2329 -0.2483
41866SOL    HW130728  10.511   8.460   9.372  0.4032  0.8870  0.1207
41866SOL    HW230729  10.601   8.340   9.394 -0.8766 -0.2611 -0.8602
41867SOL     OW30730   8.372   4.827   1.499 -0.1133 -0.5249 -0.2366
41867SOL    HW130731   8.461   4.826   1.534 -0.1907  1.4512  0.0715
41867SOL    HW230732   8.335   4.742   1.524  0.5718 -0.0389  2.5320
41868SOL     OW30733   3.496   9.711   1.561 -0.0911 -0.1797  0.0357
41868SOL    HW130734   3.477   9.803   1.541  0.5421 -0.3351 -1.3322
41868SOL    HW230735   3.591   9.707   1.571 -0.1355 -0.6497  0.2976
41869SOL     OW30736  10.689   8.822   1.505 -0.1840  0.2846  0.3994
41869SOL    HW130737  10.769   8.772   1.487  0.5125  1.6079 -0.2319
41869SOL    HW230738  10.694   8.843   1.598 -0.5075 -0.8465  0.6848
41870SOL     OW30739   3.081   3.397   8.188  0.3116 -0.6242  0.3402
41870SOL    HW130740   3.086   3.452   8.266  0.2518  2.8119 -1.9665
41870SOL    HW230741   3.017   3.330   8.210 -0.2296  0.6839  2.9823
41871SOL     OW30742   9.241   9.536   6.686 -0.8373  0.6240  0.4337
41871SOL    HW130743   9.161   9.583   6.710  0.1728  1.8690  1.4761
41871SOL    HW230744   9.236   9.454   6.735 -1.1449  1.0038  1.0500
41872SOL     OW30745  11.182   3.196   2.530  0.4707 -0.0515  0.6377
41872SOL    HW130746  11.265   3.230   2.565  1.3725 -1.8684  0.3446
41872SOL    HW230747  11.209   3.128   2.468 -1.1820  1.2263 -1.5330
41873SOL     OW30748   6.869   3.388  11.304  0.7548  0.1812  0.2172
41873SOL    HW130749   6.798   3.435  11.349  0.3911 -0.6471  0.5247
41873SOL    HW230750   6.873   3.304  11.350 -0.7691 -1.3772 -2.3980
41874SOL     OW30751   1.039   0.831   7.813  0.2250  0.2392  0.5496
41874SOL    HW130752   1.133   0.817   7.799  0.0597 -0.2548 -0.0880
41874SOL    HW230753   1.006   0.859   7.727  0.5250  4.5621  1.7572
41875SOL     OW30754   8.290   4.351   0.928  0.3654 -1.0724  0.7368
41875SOL    HW130755   8.288   4.275   0.869 -0.2632 -0.0670 -0.5541
41875SOL    HW230756   8.211   4.343   0.981  0.1007 -1.1089  0.3353
41876SOL     OW30757   5.085   1.474   9.273  0.1063 -0.2949  0.4577
41876SOL    HW130758   5.057   1.389   9.309 -0.0656 -0.6969 -0.5905
41876SOL    HW230759   5.051   1.473   9.183  0.8409  0.5302  0.1723
41877SOL     OW30760   9.856   8.256   9.829 -0.2240  0.0450 -0.2832
41877SOL    HW130761   9.884   8.168   9.804 -0.2579  0.3065 -1.2236
41877SOL    HW230762   9.809   8.243   9.912 -1.7595 -1.0680 -1.2916
41878SOL     OW30763   6.864   7.032  10.958  0.2682  0.1851  0.2901
41878SOL    HW130764   6.813   7.013  11.037  1.0420  0.6737  0.9142
41878SOL    HW230765   6.799   7.058  10.893 -0.5563 -1.8949  0.2366
41879SOL     OW30766   9.579   7.626   9.851  0.3201  0.0257 -0.1444
41879SOL    HW130767   9.488   7.626   9.821  0.2624 -0.4123  0.0094
41879SOL    HW230768   9.630   7.610   9.772  0.2141 -0.4335 -0.1277
41880SOL     OW30769   7.787   9.036   7.525  0.4011  0.1009  0.2641
41880SOL    HW130770   7.873   9.077   7.521  0.1781  0.5016 -0.5605
41880SOL    HW230771   7.806   8.942   7.535  0.9461  0.1333 -0.4096
41881SOL     OW30772  11.164  10.659   2.043  0.0822 -0.0439  0.6242
41881SOL    HW130773  11.238  10.639   2.101  0.4112  0.0625  0.2441
41881SOL    HW230774  11.204  10.702   1.967 -0.3388 -0.2579  0.2802
41882SOL     OW30775   5.549   2.963   8.806 -0.0413  0.1288  0.2927
41882SOL    HW130776   5.470   2.986   8.856  1.1763  0.3441  2.1758
41882SOL    HW230777   5.594   2.899   8.861  1.8720  1.1535 -0.0688
41883SOL     OW30778   0.585   4.217  11.144 -0.1507 -0.1289 -0.5338
41883SOL    HW130779   0.668   4.264  11.154 -0.4719  0.2820  0.3351
41883SOL    HW230780   0.590   4.176  11.058  0.8558  0.0886 -0.5830
41884SOL     OW30781   9.445   9.410   2.954  0.7630  0.5010  0.3861
41884SOL    HW130782   9.401   9.338   2.999  2.9064 -1.8979 -1.2100
41884SOL    HW230783   9.507   9.445   3.018  0.7751 -0.0913  0.6992
41885SOL     OW30784   4.783   3.265   9.771 -0.0980  0.3575  0.3907
41885SOL    HW130785   4.858   3.319   9.745 -0.9670  1.1187 -0.5441
41885SOL    HW230786   4.809   3.228   9.856  1.1238  1.0194  0.3197
41886SOL     OW30787   5.031   8.539   2.916  0.2540  0.0522 -0.1781
41886SOL    HW130788   5.114   8.557   2.959 -0.3333  1.9352  0.1978
41886SOL    HW230789   4.977   8.499   2.985  0.1787  0.6867  0.1327
41887SOL     OW30790   8.252   6.002   4.306 -0.2016 -0.0346 -0.1630
41887SOL    HW130791   8.170   5.970   4.269  0.0226  0.6790 -1.3163
41887SOL    HW230792   8.232   6.019   4.398 -1.1582 -0.4848 -0.2775
41888SOL     OW30793   2.903   3.760  10.001  0.1871 -0.0977  0.0661
41888SOL    HW130794   2.833   3.707   9.965  1.5549 -1.5924 -0.4523
41888SOL    HW230795   2.924   3.823   9.932  0.1412 -0.3978 -0.2223
41889SOL     OW30796   6.694  10.858   4.991  0.3068  0.3944 -0.2484
41889SOL    HW130797   6.682  10.876   5.084 -0.6109 -1.0697 -0.0567
41889SOL    HW230798   6.666  10.938   4.947  0.0196  0.8273  0.7082
41890SOL     OW30799   7.465   8.441   4.091 -0.0485  0.1588 -0.1306
41890SOL    HW130800   7.493   8.532   4.082  0.0773  0.1192 -0.1490
41890SOL    HW230801   7.506   8.396   4.017 -1.7848  0.4774 -1.3191
41891SOL     OW30802   0.800   5.857  11.240 -0.0261 -0.1917  0.0396
41891SOL    HW130803   0.806   5.952  11.226  1.5984 -0.3461 -0.3866
41891SOL    HW230804   0.748   5.826  11.166  0.9059  0.1467 -0.7593
41892SOL     OW30805   8.909   9.020   8.646  0.1180 -0.8788 -0.9898
41892SOL    HW130806   8.936   9.112   8.638 -0.4659 -0.5869  0.2508
41892SOL    HW230807   8.820   9.018   8.613  1.1104 -1.5735 -3.7488
41893SOL     OW30808   9.755   4.230   0.004 -0.3525  0.2527 -0.5578
41893SOL    HW130809   9.760   4.156   0.065 -1.7137  0.8906  0.3574
41893SOL    HW230810   9.841   4.272   0.010  0.3265 -1.0738 -0.8603
41894SOL     OW30811   3.961   8.568   9.514  0.4655  0.5559 -0.1512
41894SOL    HW130812   3.941   8.581   9.606  0.0478  1.6596 -0.3917
41894SOL    HW230813   3.893   8.508   9.483  0.7984 -0.0796  0.3231
41895SOL     OW30814   8.520   0.488   3.171 -0.3939  0.4310 -0.1579
41895SOL    HW130815   8.518   0.392   3.169 -0.2458  0.4428 -1.6217
41895SOL    HW230816   8.563   0.513   3.089  1.2253  1.7128  1.0577
41896SOL     OW30817   5.283   4.951   0.187 -0.2483 -0.0743  0.0158
41896SOL    HW130818   5.327   4.919   0.108  0.5474  1.9672 -0.4123
41896SOL    HW230819   5.294   4.881   0.251  0.4662 -1.0980 -1.2024
41897SOL     OW30820   9.419   7.304   3.901  0.2097  0.1353  0.0757
41897SOL    HW130821   9.478   7.245   3.949 -0.3621  0.3284  1.0226
41897SOL    HW230822   9.338   7.303   3.951 -0.3887  0.3787 -0.8711
41898SOL     OW30823   4.404   4.014   7.389  0.0384  0.4227  0.2222
41898SOL    HW130824   4.323   4.045   7.429  0.3796  1.2436  0.2831
41898SOL    HW230825   4.426   4.081   7.324 -1.3889 -1.6640 -2.5610
41899SOL     OW30826   3.315   6.964   1.477 -0.1302 -0.3639 -0.2844
41899SOL    HW130827   3.348   6.978   1.566 -0.2963  0.5533 -0.3640
41899SOL    HW230828   3.394   6.943   1.426  0.2012  0.7297 -0.2470
41900SOL     OW30829   9.342  10.661   6.814 -0.5668  0.1631  0.0952
41900SOL    HW130830   9.270  10.615   6.770 -1.2538 -0.1169  1.4831
41900SOL    HW230831   9.304  10.745   6.841  0.0806  0.6676 -0.5604
41901SOL     OW30832   0.233   0.252   6.004 -0.4843  0.7406 -0.2472
41901SOL    HW130833   0.308   0.226   5.951 -1.1048  1.3527 -1.4573
41901SOL    HW230834   0.189   0.170   6.026 -0.3963  0.4938 -0.9684
41902SOL     OW30835   6.897   8.331  11.271  0.2384 -0.0229 -0.1904
41902SOL    HW130836   6.808   8.320  11.304 -0.7990 -0.3027 -2.9496
41902SOL    HW230837   6.908   8.426  11.261 -0.2182 -0.0652 -1.0835
41903SOL     OW30838   7.833  10.443   0.218  0.3014 -0.1052 -0.2457
41903SOL    HW130839   7.927  10.428   0.225  0.0218 -1.4157  0.9816
41903SOL    HW230840   7.804  10.455   0.308 -0.3911  2.4937 -0.7644
41904SOL     OW30841   5.014   8.487  11.305  0.2487  0.1658  0.2289
41904SOL    HW130842   5.097   8.474  11.351  1.2112  0.7961 -1.3187
41904SOL    HW230843   5.021   8.575  11.267 -1.2129  0.3048  0.2640
41905SOL     OW30844   5.524   3.048   3.686  0.8222  1.6000 -0.3154
41905SOL    HW130845   5.479   2.990   3.624 -1.7885  2.2728  0.8999
41905SOL    HW230846   5.549   2.991   3.758  0.0432  1.6178 -0.0326
41906SOL     OW30847   5.726   2.517  10.204 -0.0318 -0.5929  0.5929
41906SOL    HW130848   5.754   2.572  10.277  2.7649 -0.3834 -0.5802
41906SOL    HW230849   5.733   2.573  10.127  0.3972 -1.8204 -0.2862
41907SOL     OW30850   9.973   0.214   2.908 -0.0711  0.1714  0.3571
41907SOL    HW130851  10.031   0.191   2.834  1.4066 -1.0543  1.8377
41907SOL    HW230852   9.982   0.309   2.917  1.2537  0.0854  0.1459
41908SOL     OW30853  11.197   8.985   3.647 -0.1719  0.2667  0.6180
41908SOL    HW130854  11.143   8.926   3.699 -0.0232  0.6195  1.1670
41908SOL    HW230855  11.282   8.941   3.641 -0.6623 -0.5482 -0.7013
41909SOL     OW30856   1.186   0.386   8.484 -0.1706 -0.1113  0.0354
41909SOL    HW130857   1.221   0.416   8.568 -0.4493  0.0935  0.0780
41909SOL    HW230858   1.253   0.410   8.420  1.3650 -2.8278  0.5635
41910SOL     OW30859   7.678   0.622   3.620  0.3391  0.9921 -0.6255
41910SOL    HW130860   7.623   0.649   3.693  0.7151  1.7701 -0.6212
41910SOL    HW230861   7.664   0.527   3.613  0.2358  0.9179  0.4033
41911SOL     OW30862   7.604   1.788   3.709  0.0821 -0.7264 -0.3216
41911SOL    HW130863   7.633   1.810   3.620  1.5306 -0.7025  0.1530
41911SOL    HW230864   7.674   1.821   3.766  0.2257 -2.7458  0.6904
41912SOL     OW30865   1.534   2.862   2.843  0.2956  0.5199 -0.3943
41912SOL    HW130866   1.591   2.938   2.834 -0.8275  1.7245  2.1951
41912SOL    HW230867   1.587   2.797   2.890  0.7091  0.2725 -1.1846
41913SOL     OW30868   2.706   2.877   1.411 -0.6911 -1.0542 -0.6231
41913SOL    HW130869   2.671   2.844   1.494 -2.3305 -2.4349 -1.8293
41913SOL    HW230870   2.702   2.972   1.420  1.0372 -1.1448  1.6452
41914SOL     OW30871   0.836   6.850   1.717 -0.2063 -0.4857  0.6403
41914SOL    HW130872   0.862   6.789   1.647  0.3094  1.3235 -0.7750
41914SOL    HW230873   0.875   6.813   1.796 -0.3611 -2.2886 -0.0834
41915SOL     OW30874   0.010  10.336   9.520  0.0213 -0.1049 -0.2896
41915SOL    HW130875  -0.077  10.299   9.506 -1.2046  2.2695  0.8616
41915SOL    HW230876   0.026  10.389   9.442  1.2523 -1.9583 -1.3538
41916SOL     OW30877   6.257  10.441   5.254  0.1671  0.6642  0.0215
41916SOL    HW130878   6.256  10.369   5.191 -0.9182 -0.5623  1.4151
41916SOL    HW230879   6.321  10.415   5.320 -2.2691 -0.3770  2.0443
41917SOL     OW30880   9.609   2.871   4.522  0.2702  0.3046  0.5657
41917SOL    HW130881   9.538   2.810   4.540 -0.5020  1.5070  1.6644
41917SOL    HW230882   9.636   2.850   4.432 -1.3499 -0.2755  0.1908
41918SOL     OW30883   6.947   5.898   5.973 -0.2599  0.2982 -0.1307
41918SOL    HW130884   6.980   5.879   5.885 -1.1322 -0.3895 -0.3162
41918SOL    HW230885   6.856   5.923   5.960 -0.6748 -0.7689  0.6681
41919SOL     OW30886   8.952   5.721  10.811 -0.0829  0.3701 -0.1646
41919SOL    HW130887   9.033   5.689  10.771 -0.2980 -0.5860  0.1572
41919SOL    HW230888   8.963   5.816  10.814  1.2694  0.2009  0.4111
41920SOL     OW30889   6.457   0.508   9.938 -0.0465 -0.1111 -0.6116
41920SOL    HW130890   6.473   0.523   9.845 -1.8660 -1.0016 -1.0764
41920SOL    HW230891   6.540   0.473   9.971  0.3914 -0.4310 -2.0195
41921SOL     OW30892   3.282   8.243   0.584 -0.0141 -0.6296 -0.2766
41921SOL    HW130893   3.202   8.193   0.572 -0.5487  0.2983 -0.6298
41921SOL    HW230894   3.351   8.189   0.544 -0.4875 -1.3421 -0.1313
41922SOL     OW30895   9.068   5.180   7.008  0.3186  0.3002 -0.2976
41922SOL    HW130896   9.135   5.124   6.969  1.0627  1.3986 -0.6212
41922SOL    HW230897   9.078   5.265   6.964 -0.0251  1.0243  0.9781
41923SOL     OW30898  10.190   9.924   4.869  0.3838  0.3722 -0.2803
41923SOL    HW130899  10.267   9.972   4.899  1.2867 -0.8345 -0.6312
41923SOL    HW230900  10.213   9.832   4.880 -0.7261 -0.0132 -1.0757
41924SOL     OW30901   3.193   8.804  10.313  0.3692 -0.8731 -0.4336
41924SOL    HW130902   3.208   8.822  10.405 -0.7007  0.8309 -0.5625
41924SOL    HW230903   3.155   8.716  10.311 -0.2782 -0.6285  0.8229
41925SOL     OW30904   8.450  10.823   6.909  0.5423 -0.1357  0.1734
41925SOL    HW130905   8.402  10.906   6.911  0.0329 -0.4071 -0.4875
41925SOL    HW230906   8.465  10.807   6.816 -0.0123 -1.1528  0.2577
41926SOL     OW30907  10.964   8.403   0.303 -0.0412  0.0819  0.7969
41926SOL    HW130908  10.870   8.419   0.295  0.1523  1.0703  0.4113
41926SOL    HW230909  11.005   8.485   0.274  0.9243 -0.1373  1.5117
41927SOL     OW30910   0.853   7.546   8.903  0.9298 -0.1821  0.1233
41927SOL    HW130911   0.798   7.622   8.887  2.4703  0.8388 -0.4408
41927SOL    HW230912   0.803   7.472   8.868  0.6926  0.9537 -2.0509
41928SOL     OW30913   3.865   2.058   4.568 -0.2405 -0.2453 -0.1036
41928SOL    HW130914   3.837   2.140   4.608 -0.9534 -1.0242  1.0246
41928SOL    HW230915   3.791   2.030   4.515  0.1703  0.0668 -0.8432
41929SOL     OW30916   0.301   1.159  10.480 -0.3145  0.2372  0.4511
41929SOL    HW130917   0.351   1.079  10.497 -0.5679 -0.0240 -0.0279
41929SOL    HW230918   0.218   1.128  10.443 -0.1796  0.7452 -0.2908
41930SOL     OW30919   1.722   5.924   6.267 -0.5860 -0.2439 -0.7419
41930SOL    HW130920   1.743   6.012   6.299 -1.7417  0.4125 -1.7877
41930SOL    HW230921   1.637   5.933   6.224 -1.0255 -2.0106 -0.2819
41931SOL     OW30922   0.081   5.246   6.947 -0.1350 -0.6811 -0.5896
41931SOL    HW130923   0.081   5.153   6.925  2.6480 -1.1239  1.1729
41931SOL    HW230924   0.149   5.284   6.892 -0.4953  0.1212 -0.4894
41932SOL     OW30925   7.705   8.559   5.595  0.4703  0.3197  0.0508
41932SOL    HW130926   7.797   8.559   5.568  0.2790 -4.2150 -1.0560
41932SOL    HW230927   7.655   8.561   5.513 -0.3242 -0.2654  0.5049
41933SOL     OW30928   6.881   7.352   5.763  0.3686  0.1727  0.7947
41933SOL    HW130929   6.964   7.401   5.762  0.6496 -0.2970  1.1519
41933SOL    HW230930   6.859   7.342   5.670  1.3973 -0.8646  0.6554
41934SOL     OW30931  10.879   0.226   6.534  0.2521 -0.3280  0.1945
41934SOL    HW130932  10.950   0.289   6.529 -1.1367  1.5307  2.7077
41934SOL    HW230933  10.824   0.258   6.606 -3.1361 -1.6631 -1.7079
41935SOL     OW30934   3.043   0.607  10.761 -0.1477 -0.3240 -0.3049
41935SOL    HW130935   3.061   0.588  10.669 -0.8281 -1.7900 -0.1396
41935SOL    HW230936   3.130   0.617  10.800  0.1774 -1.2070 -0.7851
41936SOL     OW30937  10.731   0.093  10.783 -0.0699 -0.6015  0.0471
41936SOL    HW130938  10.762   0.102  10.693 -0.9303 -1.4655 -0.3498
41936SOL    HW230939  10.665   0.162  10.792  0.6814  0.0824  0.3156
41937SOL     OW30940   0.634   0.436   8.038  0.5032 -0.2318 -0.8005
41937SOL    HW130941   0.581   0.505   8.076  0.2759 -1.1411  0.5668
41937SOL    HW230942   0.711   0.481   8.003  0.3447  0.7006  0.0432
41938SOL     OW30943   1.078  10.583   6.095 -0.2768 -0.0348  0.1526
41938SOL    HW130944   1.007  10.604   6.036 -0.0178 -0.2513 -0.2380
41938SOL    HW230945   1.153  10.565   6.038  0.2904  0.9153  0.5810
41939SOL     OW30946   7.276   0.935   8.526  0.2620  0.3876 -0.6491
41939SOL    HW130947   7.262   0.999   8.455 -3.5920  0.0764 -0.2186
41939SOL    HW230948   7.295   0.853   8.481  0.0306  0.6718 -1.2690
41940SOL     OW30949   3.190  10.688   2.022  0.1795  0.1203  0.2900
41940SOL    HW130950   3.182  10.706   2.116 -1.8874 -0.4814  0.2410
41940SOL    HW230951   3.104  10.710   1.985  0.3680 -1.4706 -1.1587
41941SOL     OW30952   6.269   3.901   6.783  0.2527 -0.3461 -0.3481
41941SOL    HW130953   6.331   3.926   6.851  1.5607 -2.5493 -0.6898
41941SOL    HW230954   6.188   3.881   6.830  0.7427 -0.5406  0.4138
41942SOL     OW30955   2.947   2.466   9.624 -0.6280  0.8309  0.0280
41942SOL    HW130956   2.946   2.390   9.682 -2.1221  1.0408  0.3098
41942SOL    HW230957   2.938   2.541   9.682  0.7318  1.2353 -0.2594
41943SOL     OW30958  10.580   4.190   5.093  0.1840 -0.1610  0.8726
41943SOL    HW130959  10.647   4.226   5.151  0.4562 -1.2666  1.2508
41943SOL    HW230960  10.606   4.099   5.080  1.0806  0.4953 -2.3828
41944SOL     OW30961  11.012   8.935  10.131  0.1265  0.0196 -0.3932
41944SOL    HW130962  10.954   8.905  10.202  0.5125 -0.5220 -0.3054
41944SOL    HW230963  11.033   8.856  10.083 -1.4213  0.6001 -2.0884
41945SOL     OW30964   7.359   7.139   5.079 -0.3356 -0.1050 -0.2800
41945SOL    HW130965   7.421   7.147   5.152  0.7154 -2.5460 -0.8859
41945SOL    HW230966   7.278   7.107   5.120 -0.0000 -0.6834 -0.0696
41946SOL     OW30967   7.173   2.342   6.270  0.0576 -0.0441  0.1294
41946SOL    HW130968   7.109   2.409   6.246 -0.3935  0.8230  3.4918
41946SOL    HW230969   7.250   2.362   6.215 -0.4813  2.5002  0.2281
41947SOL     OW30970   7.941   5.036  10.827 -0.2203 -0.0509  0.0208
41947SOL    HW130971   8.022   4.987  10.813 -0.7696 -0.7843 -0.6888
41947SOL    HW230972   7.873   4.969  10.831 -0.4863  0.3724  3.3173
41948SOL     OW30973   5.215   1.991  11.150 -0.3754 -0.6458 -0.1965
41948SOL    HW130974   5.176   2.079  11.148 -1.3060 -1.0627 -0.8556
41948SOL    HW230975   5.144   1.934  11.178  0.8982 -0.8804  2.6611
41949SOL     OW30976   9.934   1.876   1.631 -0.3639 -0.4340 -0.0845
41949SOL    HW130977   9.940   1.892   1.537 -3.0353  0.0567 -0.2058
41949SOL    HW230978   9.887   1.951   1.666 -1.6662 -1.8277  1.2454
41950SOL     OW30979   1.139  10.613   1.064  0.0012 -0.1789  1.0183
41950SOL    HW130980   1.131  10.702   1.031 -0.8535 -0.6259 -0.0045
41950SOL    HW230981   1.064  10.566   1.027  0.4069 -1.3060  1.5882
41951SOL     OW30982  10.324   6.357   0.536  0.1719  0.0493 -0.4027
41951SOL    HW130983  10.420   6.353   0.535  0.2244  0.6644  0.5869
41951SOL    HW230984  10.296   6.297   0.468  1.2675 -0.3301 -0.5238
41952SOL     OW30985   0.076   2.387   4.869 -0.0575  0.3801 -0.1172
41952SOL    HW130986   0.137   2.392   4.795  0.4699 -0.5122  0.2469
41952SOL    HW230987   0.123   2.426   4.942 -0.8500  1.9256 -0.4083
41953SOL     OW30988   0.045   6.934  11.037  0.0489  0.2205  0.4025
41953SOL    HW130989   0.003   6.872  11.097 -0.5117  0.4741  0.2747
41953SOL    HW230990  -0.027   6.965  10.981  0.9679 -1.9191 -2.0959
41954SOL     OW30991   8.148   3.184   1.742  0.6592 -0.0588 -0.3246
41954SOL    HW130992   8.231   3.137   1.743 -0.3077 -1.8781  3.0336
41954SOL    HW230993   8.090   3.132   1.687  1.3869  0.5823 -1.7061
41955SOL     OW30994   9.363   9.414   5.251 -0.0849  0.7774  0.8135
41955SOL    HW130995   9.350   9.342   5.189  2.4583 -0.0198  1.1480
41955SOL    HW230996   9.450   9.398   5.288  0.6627  4.2054  0.6536
41956SOL     OW30997   7.794   0.888   7.687 -0.2814  0.5672 -0.4731
41956SOL    HW130998   7.784   0.812   7.630  0.4995 -0.1072  0.2565
41956SOL    HW230999   7.887   0.909   7.682  0.1306 -0.5348  1.8080
41957SOL     OW31000   4.294   5.519   2.551 -0.0740 -0.8288  0.0240
41957SOL    HW131001   4.288   5.521   2.646 -0.0296  1.5490  0.0055
41957SOL    HW231002   4.320   5.429   2.530 -1.4700 -1.7603  2.1555
41958SOL     OW31003   0.646   7.077   8.778 -0.0283 -0.1466 -0.3798
41958SOL    HW131004   0.596   7.009   8.732 -0.6877 -0.4775  0.8215
41958SOL    HW231005   0.633   7.058   8.871  2.6157 -0.4193 -0.0431
41959SOL     OW31006   0.915   7.651   0.264  0.5255 -0.0118  0.2061
41959SOL    HW131007   0.993   7.598   0.246 -0.5785 -1.2193 -1.1491
41959SOL    HW231008   0.841   7.593   0.245 -0.7202  1.0109  1.7643
41960SOL     OW31009   7.495   3.268   8.601 -0.0348 -0.4348 -0.0077
41960SOL    HW131010   7.500   3.173   8.611  0.0740 -0.3592  0.6814
41960SOL    HW231011   7.584   3.299   8.617  0.0173 -0.2494 -0.6381
41961SOL     OW31012   1.106  10.487   2.967 -0.0671  0.1358  0.5693
41961SOL    HW131013   1.180  10.526   2.919  1.4196 -0.9524  1.9262
41961SOL    HW231014   1.065  10.428   2.904  0.1177  0.8417 -0.2336
41962SOL     OW31015  10.547   4.690   2.913 -0.0214 -0.4001 -0.3614
41962SOL    HW131016  10.554   4.595   2.903  0.8070 -0.2381 -1.3501
41962SOL    HW231017  10.470   4.714   2.863  0.2285 -0.4482 -0.7691
41963SOL     OW31018   7.843   0.782   0.349 -0.9683 -0.0626 -0.0424
41963SOL    HW131019   7.800   0.832   0.418 -1.2836 -0.1452 -0.1800
41963SOL    HW231020   7.798   0.809   0.269  0.1347  0.8778 -0.3608
41964SOL     OW31021   0.204   8.109  10.613 -0.2923 -0.2178  0.4255
41964SOL    HW131022   0.191   8.015  10.622 -0.8644 -0.3612 -1.7203
41964SOL    HW231023   0.295   8.123  10.638 -0.0498 -1.4080  0.2406
41965SOL     OW31024   0.443   7.216   1.211  0.4061 -0.0070 -0.1201
41965SOL    HW131025   0.386   7.147   1.177 -0.4488  0.2545  0.7794
41965SOL    HW231026   0.471   7.184   1.297  1.0587  0.1767 -0.2607
41966SOL     OW31027   1.058   0.205   1.831  0.2979 -0.1987  0.4916
41966SOL    HW131028   1.041   0.116   1.802 -1.2176 -0.0432  0.8364
41966SOL    HW231029   1.062   0.199   1.927  0.1385  0.1099  0.5191
41967SOL     OW31030   1.163   5.639   6.671  0.3332 -0.2181  0.2494
41967SOL    HW131031   1.231   5.604   6.613 -0.7473 -0.4516 -0.8884
41967SOL    HW231032   1.185   5.732   6.681  0.1534 -0.0207 -1.0842
41968SOL     OW31033   8.542   4.616   1.935  0.4859 -0.2890 -0.4156
41968SOL    HW131034   8.559   4.592   2.026 -0.1857  0.6600 -0.0289
41968SOL    HW231035   8.448   4.638   1.933  0.2575 -1.3281 -1.5652
41969SOL     OW31036   2.147   3.198   4.997  0.1905 -0.5559 -0.7753
41969SOL    HW131037   2.138   3.106   5.022  1.9646 -0.4882  0.1918
41969SOL    HW231038   2.226   3.228   5.044 -1.3897  1.9474  0.3774
41970SOL     OW31039   1.284   2.424   3.132  0.4657  0.0829  0.4276
41970SOL    HW131040   1.221   2.365   3.091  1.0652 -0.4970  0.3415
41970SOL    HW231041   1.350   2.439   3.066  1.5021 -0.9589  1.2076
41971SOL     OW31042   1.749   7.209   0.885  0.2903  0.7841  0.3193
41971SOL    HW131043   1.836   7.171   0.873  0.2871  0.6625  0.6687
41971SOL    HW231044   1.693   7.133   0.900  0.0577  0.8330 -0.2634
41972SOL     OW31045   7.604   9.576   5.623  0.2646 -0.0814 -0.2757
41972SOL    HW131046   7.632   9.652   5.674  0.0175  0.8370 -1.4813
41972SOL    HW231047   7.549   9.526   5.683 -2.0445  2.2488 -0.3739
41973SOL     OW31048   5.002   0.056   4.371  0.2278  0.7001  0.1966
41973SOL    HW131049   4.924   0.056   4.427 -0.7174  0.7789 -1.1079
41973SOL    HW231050   4.974   0.099   4.291  1.9711  1.8347  0.1823
41974SOL     OW31051   2.985   4.480   0.033 -0.1566  0.3080 -0.3112
41974SOL    HW131052   3.036   4.515  -0.041  0.7124  0.1786  0.2287
41974SOL    HW231053   3.041   4.413   0.071 -1.3361 -0.8481 -0.6051
41975SOL     OW31054   2.331   8.191   9.733  0.2383  0.1173 -0.3296
41975SOL    HW131055   2.297   8.103   9.751  1.1306 -0.3257 -0.8363
41975SOL    HW231056   2.261   8.250   9.763  0.3121 -0.7139  1.5233
41976SOL     OW31057   0.635   9.088   6.000  0.6999 -0.4066  0.0881
41976SOL    HW131058   0.646   9.182   5.987  1.4771 -0.7353 -1.8570
41976SOL    HW231059   0.661   9.073   6.091  0.3603  1.2751  0.4839
41977SOL     OW31060   8.933  10.940   8.760 -0.1148  0.2889 -0.0283
41977SOL    HW131061   8.877  10.886   8.704 -0.6987 -0.4157  1.2176
41977SOL    HW231062   9.013  10.888   8.769 -0.4651 -0.1222  0.7232
41978SOL     OW31063   7.697   9.925   9.575 -0.0862  0.0468  0.0508
41978SOL    HW131064   7.748   9.971   9.642 -1.0602  1.1313  0.0560
41978SOL    HW231065   7.752   9.851   9.550  0.4208 -0.2322  1.8679
41979SOL     OW31066   0.918   0.822   4.153 -0.0632 -0.3945  0.1256
41979SOL    HW131067   0.828   0.854   4.141  0.2510  0.4239 -0.0950
41979SOL    HW231068   0.957   0.883   4.215 -0.2160 -1.8298  1.6726
41980SOL     OW31069  11.059   9.593   4.021 -0.0669 -0.6278 -0.5828
41980SOL    HW131070  11.060   9.640   3.938  2.1648 -0.7373 -0.6451
41980SOL    HW231071  11.035   9.659   4.086 -1.5419 -0.4793 -1.2411
41981SOL     OW31072   0.800   8.496   4.336  0.4558 -0.8940  0.1340
41981SOL    HW131073   0.836   8.505   4.424 -0.3804 -2.5669  0.6679
41981SOL    HW231074   0.794   8.401   4.322  0.3914 -0.6482 -1.6421
41982SOL     OW31075   5.771   6.305  11.298 -0.0451 -1.0170  0.0184
41982SOL    HW131076   5.749   6.214  11.317 -2.7529 -0.4633 -0.1789
41982SOL    HW231077   5.765   6.313  11.203  0.1999 -0.6469  0.0308
41983SOL     OW31078   8.033   5.338   5.613 -0.0550 -0.3860 -0.4292
41983SOL    HW131079   8.128   5.346   5.599  0.1279 -2.3280 -0.5056
41983SOL    HW231080   8.022   5.250   5.650 -1.6699  0.4296  1.1481
41984SOL     OW31081   8.737   0.956  10.938 -0.0210 -0.3372  0.2843
41984SOL    HW131082   8.646   0.943  10.963  0.3872 -0.2694  1.8665
41984SOL    HW231083   8.751   1.050  10.947 -0.5438  0.0616 -2.6532
41985SOL     OW31084   4.447  10.376   3.777  0.8249  0.1324 -0.0796
41985SOL    HW131085   4.396  10.339   3.849  0.5783 -0.7450 -0.6880
41985SOL    HW231086   4.385  10.434   3.732  0.8924  0.4510  0.2353
41986SOL     OW31087   7.663  10.612   6.865 -0.1316  0.1555  0.0366
41986SOL    HW131088   7.589  10.651   6.912 -0.1674  1.3621 -0.9992
41986SOL    HW231089   7.723  10.685   6.851  1.9265 -1.0625  2.0651
41987SOL     OW31090   2.533   2.898   0.322  0.2679 -0.1033 -0.1150
41987SOL    HW131091   2.514   2.869   0.233 -0.4436 -0.5614  0.1778
41987SOL    HW231092   2.550   2.992   0.314  0.1265 -0.1287 -0.7241
41988SOL     OW31093  10.142   4.810   8.560  0.6041 -0.3765  0.2653
41988SOL    HW131094  10.075   4.765   8.612  0.1364 -0.5989 -0.5105
41988SOL    HW231095  10.224   4.768   8.585  0.2998 -0.9328  0.3360
41989SOL     OW31096   0.700   9.986   6.261  0.2460 -0.4044 -0.3770
41989SOL    HW131097   0.689  10.054   6.328  1.3699  0.4162 -1.0027
41989SOL    HW231098   0.620   9.990   6.209 -0.0740 -0.1704  0.1321
41990SOL     OW31099   7.256   5.011   9.173 -1.1468  0.1690  0.4760
41990SOL    HW131100   7.208   4.957   9.235 -0.7597 -0.9453 -0.1653
41990SOL    HW231101   7.314   4.949   9.128 -0.9250  1.0680 -0.4950
41991SOL     OW31102   0.176   0.529   6.635 -0.2806 -0.1847 -0.0401
41991SOL    HW131103   0.080   0.537   6.636 -0.1394  1.6018  0.9174
41991SOL    HW231104   0.197   0.482   6.716 -0.3888 -1.2416 -0.6166
41992SOL     OW31105   7.146   4.193  10.803  0.4328 -0.4600 -0.0507
41992SOL    HW131106   7.166   4.278  10.764 -0.3416 -1.3255 -2.4055
41992SOL    HW231107   7.176   4.129  10.739 -1.7847 -1.9110  0.2978
41993SOL     OW31108   8.730   2.345   3.874 -0.2004  0.2732  0.2172
41993SOL    HW131109   8.753   2.414   3.812 -0.7179  1.1790  1.0043
41993SOL    HW231110   8.648   2.376   3.913 -0.4609 -0.8207  0.5426
41994SOL     OW31111   8.938   8.778   3.793 -0.4455 -0.3367  0.7349
41994SOL    HW131112   8.899   8.706   3.745  1.4256 -0.8411 -0.0881
41994SOL    HW231113   8.882   8.790   3.870 -1.2042 -2.1416  0.4693
41995SOL     OW31114   6.887   5.850   8.608 -0.0546 -0.1683 -0.1783
41995SOL    HW131115   6.948   5.778   8.622 -0.9417 -0.5334  2.0634
41995SOL    HW231116   6.806   5.809   8.577  0.1292  0.0855 -0.9987
41996SOL     OW31117   7.057   3.783  10.748 -0.0871 -0.0933 -0.0808
41996SOL    HW131118   7.116   3.709  10.763 -1.8630 -1.5988 -0.3535
41996SOL    HW231119   7.071   3.806  10.656 -0.0663 -0.5757 -0.2006
41997SOL     OW31120   3.869   2.085   0.818  0.2882 -0.4354 -0.0627
41997SOL    HW131121   3.905   2.170   0.793 -0.5057  0.4984  1.8651
41997SOL    HW231122   3.833   2.099   0.906 -0.7729 -2.4977 -0.1392
41998SOL     OW31123  10.266   8.452   0.344  0.5818 -0.3685 -0.1010
41998SOL    HW131124  10.332   8.395   0.304  0.6212 -0.7564  0.4973
41998SOL    HW231125  10.276   8.536   0.299  1.3044 -0.5025 -0.1978
41999SOL     OW31126   6.279   6.718   4.301  0.2203  0.4042 -0.1969
41999SOL    HW131127   6.243   6.782   4.239  2.1834  1.1240 -0.6577
41999SOL    HW231128   6.269   6.760   4.387  0.2110  0.7151 -0.3474
42000SOL     OW31129   3.775   1.655   9.349  0.3874  0.0883  0.0239
42000SOL    HW131130   3.704   1.602   9.315 -0.3877  1.3450 -0.3732
42000SOL    HW231131   3.740   1.745   9.349  3.3108  1.4063 -4.2202
42001SOL     OW31132   5.780   7.890   3.063  0.1273 -0.0057 -0.1406
42001SOL    HW131133   5.856   7.916   3.011  0.1903 -2.5382 -1.3902
42001SOL    HW231134   5.717   7.961   3.050  1.6658  1.3731 -0.3367
42002SOL     OW31135   8.946   4.540   8.625 -0.5322  0.4394  0.2056
42002SOL    HW131136   8.968   4.450   8.602  3.2908  1.1430  0.8477
42002SOL    HW231137   8.891   4.532   8.703 -0.8041 -1.3565 -0.1554
42003SOL     OW31138   5.171   1.890  10.851 -0.6644  0.0178 -0.6029
42003SOL    HW131139   5.212   1.937  10.923  0.2891 -0.8078 -0.5937
42003SOL    HW231140   5.240   1.881  10.786 -1.2022 -0.2386 -1.1469
42004SOL     OW31141   6.864   1.090  10.129  0.0020 -1.0370  0.2084
42004SOL    HW131142   6.797   1.038  10.173 -2.0617  1.6740  0.4151
42004SOL    HW231143   6.931   1.106  10.196  0.6550 -3.3198  0.1427
42005SOL     OW31144   2.216   2.163   6.305 -0.5622  0.4325  0.8138
42005SOL    HW131145   2.164   2.110   6.244 -0.7205 -0.6794  1.8852
42005SOL    HW231146   2.184   2.252   6.292  0.1769  0.3999 -1.5149
42006SOL     OW31147   9.844   3.999  11.185 -0.0243  0.2471 -0.2499
42006SOL    HW131148   9.854   4.081  11.233  1.6822  0.5172 -1.0117
42006SOL    HW231149   9.764   4.009  11.134 -0.9330  0.6233  1.2371
42007SOL     OW31150  11.014   9.024   6.271  0.6420  0.3318  0.4957
42007SOL    HW131151  11.107   9.005   6.260  0.5506  0.4578 -0.5602
42007SOL    HW231152  11.011   9.095   6.335  1.3617  1.5007 -0.7679
42008SOL     OW31153   8.010   6.508   6.254 -0.0148  0.0708 -0.3105
42008SOL    HW131154   7.927   6.483   6.214 -0.1500 -0.6307  0.4127
42008SOL    HW231155   8.034   6.434   6.309 -0.1552  1.2922  1.4195
42009SOL     OW31156   5.443   0.254   7.176  0.0789  0.6464 -0.3441
42009SOL    HW131157   5.372   0.193   7.156 -1.1889  1.9982 -0.0491
42009SOL    HW231158   5.469   0.233   7.266  2.4648 -2.1694 -1.5880
42010SOL     OW31159   8.877   1.629   0.722  0.0119 -0.1096 -0.1031
42010SOL    HW131160   8.924   1.689   0.780  0.0314  1.3661 -1.6038
42010SOL    HW231161   8.814   1.585   0.780  1.6872 -0.4703  1.4863
42011SOL     OW31162  10.973   5.218   8.145 -0.5952  0.1218  0.2648
42011SOL    HW131163  11.055   5.168   8.149 -0.7639 -0.2549 -0.6458
42011SOL    HW231164  10.939   5.215   8.234 -0.1254 -0.5938  0.4318
42012SOL     OW31165   5.463   9.867   3.984  0.7983 -0.6874 -0.2017
42012SOL    HW131166   5.433   9.958   3.973 -0.5637 -1.1257 -0.3008
42012SOL    HW231167   5.462   9.854   4.079  0.9800 -0.5966 -0.1883
42013SOL     OW31168  10.336   3.689   2.211  0.4684 -0.3491 -0.2960
42013SOL    HW131169  10.409   3.749   2.197 -0.8443  1.1705 -0.7542
42013SOL    HW231170  10.327   3.684   2.306  0.2471  0.5996 -0.2629
42014SOL     OW31171   5.165   2.359   9.565  0.5331 -0.1063 -0.0779
42014SOL    HW131172   5.099   2.420   9.530 -1.2074 -2.1655 -0.4634
42014SOL    HW231173   5.163   2.373   9.659  0.2482  0.5521 -0.1776
42015SOL     OW31174   0.395   7.606  10.229 -0.1134  0.1422  0.6005
42015SOL    HW131175   0.426   7.613  10.320  1.1072  1.1577  0.1250
42015SOL    HW231176   0.474   7.586  10.178 -0.9338 -1.2773 -0.1495
42016SOL     OW31177   3.531  10.808   1.890 -0.0468  0.0995  0.1103
42016SOL    HW131178   3.620  10.813   1.856  0.4364 -0.5768  1.2411
42016SOL    HW231179   3.540  10.825   1.984 -1.1437  0.2476  0.2010
42017SOL     OW31180   9.384   4.608  10.136 -0.0423  0.0379 -0.0479
42017SOL    HW131181   9.364   4.515  10.142  0.8171 -0.1474  0.0734
42017SOL    HW231182   9.469   4.617  10.179 -0.3323  0.9560  0.3386
42018SOL     OW31183   7.782   1.473   2.813  0.1177  0.3564  0.9092
42018SOL    HW131184   7.806   1.501   2.901  0.4550  0.7959  0.6761
42018SOL    HW231185   7.819   1.539   2.755 -0.3403  0.2170  0.4521
42019SOL     OW31186   9.959   2.485   6.594 -0.1858  0.3226  0.1525
42019SOL    HW131187  10.020   2.413   6.575 -0.0405  0.5448 -0.2436
42019SOL    HW231188   9.957   2.535   6.512 -1.5320 -0.1408 -0.0990
42020SOL     OW31189   0.270   1.642  10.467  0.0510  0.5596  0.0989
42020SOL    HW131190   0.292   1.550  10.454  0.7659  0.6325  0.7959
42020SOL    HW231191   0.249   1.649  10.560  0.4570  1.1996  0.1416
42021SOL     OW31192   9.948   9.237   5.224 -0.1838 -0.3723 -0.4877
42021SOL    HW131193   9.944   9.198   5.137 -2.6453 -0.1659 -0.4817
42021SOL    HW231194   9.984   9.325   5.209 -1.2735 -0.0725 -1.3941
42022SOL     OW31195   3.438   3.791   3.447  0.2460  0.3854 -0.0910
42022SOL    HW131196   3.370   3.852   3.475 -1.7038 -2.5086  1.7375
42022SOL    HW231197   3.420   3.776   3.354  0.1775  1.8195 -0.3236
42023SOL     OW31198   2.570   5.998   8.276  0.3220 -0.0008 -0.1222
42023SOL    HW131199   2.500   6.061   8.258 -0.2451 -0.7171 -0.4655
42023SOL    HW231200   2.562   5.933   8.206 -0.4189 -1.5600  1.3669
42024SOL     OW31201  10.968  10.817   2.212  0.2881 -0.5955  0.3789
42024SOL    HW131202  11.052  10.859   2.229 -0.8340  1.3819  1.1660
42024SOL    HW231203  10.991  10.736   2.166  2.7642 -1.3000  2.7352
42025SOL     OW31204   2.072   4.621  10.207 -0.2949  0.5318  0.0657
42025SOL    HW131205   2.053   4.641  10.299  1.1552  1.2031  0.2229
42025SOL    HW231206   2.117   4.537  10.210 -0.5146  0.4078 -0.0675
42026SOL     OW31207   8.381   1.445   4.316 -0.1148  0.3031 -0.0435
42026SOL    HW131208   8.302   1.495   4.298 -0.4527  0.2323  1.2081
42026SOL    HW231209   8.422   1.491   4.390  1.3739  0.7467 -1.1175
42027SOL     OW31210   7.064   2.263  10.108 -0.0941  0.1432 -0.0565
42027SOL    HW131211   7.134   2.315  10.148  0.2561 -1.4837  1.4824
42027SOL    HW231212   7.097   2.242  10.020  1.1178 -0.1365  0.4501
42028SOL     OW31213   4.601   6.196   8.774 -0.2665  0.5273  1.0166
42028SOL    HW131214   4.674   6.139   8.749  0.6784  1.2983  1.9991
42028SOL    HW231215   4.596   6.260   8.703  1.2499  1.6236  1.8841
42029SOL     OW31216   6.484   9.854   8.061 -0.0867 -0.1672 -0.4279
42029SOL    HW131217   6.425   9.826   8.131  0.3435 -1.7339 -0.6739
42029SOL    HW231218   6.470   9.791   7.991  0.1917  0.8295 -1.3951
42030SOL     OW31219   7.950   2.163   1.039 -0.4533 -0.3052 -0.1238
42030SOL    HW131220   7.922   2.135   1.126  0.5364  0.0733  0.3269
42030SOL    HW231221   8.017   2.100   1.013  0.1935  0.3437 -0.0500
42031SOL     OW31222   7.372   4.050   6.202  0.3478  0.6396 -0.3518
42031SOL    HW131223   7.323   4.044   6.120  0.2667  0.4868 -0.2922
42031SOL    HW231224   7.349   3.970   6.250 -1.5663  1.9241  0.9125
42032SOL     OW31225   8.531   9.696   3.862  0.7276  0.2569  0.0913
42032SOL    HW131226   8.547   9.769   3.803  2.6198  0.0948  0.3680
42032SOL    HW231227   8.530   9.619   3.806  0.0452  0.3594 -0.0379
42033SOL     OW31228   4.067   2.973   2.085  0.1554 -0.6040  0.8191
42033SOL    HW131229   4.077   3.023   2.166 -1.5588  0.6059  0.3047
42033SOL    HW231230   3.972   2.966   2.073  0.3551 -3.3855  0.4978
42034SOL     OW31231   0.835   5.880   2.750  0.6068  0.2479 -0.2518
42034SOL    HW131232   0.754   5.873   2.698  1.5168 -2.3723 -1.3943
42034SOL    HW231233   0.900   5.914   2.689  1.4014 -1.7592 -0.5506
42035SOL     OW31234   8.252   4.910   7.134 -0.7890 -0.1371  0.1994
42035SOL    HW131235   8.300   4.891   7.053  0.5721  1.4237  0.6163
42035SOL    HW231236   8.167   4.866   7.122  0.4748 -2.4017 -0.8203
42036SOL     OW31237   0.346   3.880   1.174 -0.4810 -0.4171  0.5170
42036SOL    HW131238   0.278   3.900   1.109 -1.7042 -1.4415  1.4519
42036SOL    HW231239   0.340   3.951   1.237  0.3720  0.3160 -0.2204
42037SOL     OW31240  11.140   9.559   7.979  0.0192 -0.5802  0.5380
42037SOL    HW131241  11.150   9.547   7.884  0.0015 -0.6389  0.5432
42037SOL    HW231242  11.063   9.614   7.989  0.9384  0.7326  0.4645
42038SOL     OW31243   7.425   1.534   7.325  0.4832  0.4493  0.0408
42038SOL    HW131244   7.511   1.496   7.308  0.0192 -0.6367  0.0753
42038SOL    HW231245   7.399   1.498   7.411 -1.3404 -1.7026 -1.3509
42039SOL     OW31246   3.715   5.777   5.390 -0.4450 -0.3592 -0.6485
42039SOL    HW131247   3.760   5.861   5.388 -0.1967 -0.4905 -0.5172
42039SOL    HW231248   3.647   5.787   5.457 -0.2561 -0.3466 -0.4596
42040SOL     OW31249   9.205   1.793   3.395 -0.2770 -0.1994  0.0493
42040SOL    HW131250   9.196   1.698   3.405 -2.7631 -0.2170 -1.9983
42040SOL    HW231251   9.259   1.805   3.317  0.9842  0.0908  0.9477
42041SOL     OW31252  11.213   6.876   1.456 -0.0166 -0.2993  0.1476
42041SOL    HW131253  11.286   6.937   1.473  0.3243 -0.5534 -0.4053
42041SOL    HW231254  11.141   6.911   1.508 -0.3843  1.6424 -1.6080
42042SOL     OW31255   3.734   0.196   9.507 -0.1975  0.5200  0.1337
42042SOL    HW131256   3.763   0.207   9.597  0.8563  1.9329 -0.3706
42042SOL    HW231257   3.770   0.271   9.460  0.0538 -0.6829 -1.6559
42043SOL     OW31258   8.270   6.551   9.743  0.2591  0.2852  0.0409
42043SOL    HW131259   8.250   6.573   9.652  1.0368 -1.4213 -0.5494
42043SOL    HW231260   8.185   6.547   9.787 -0.1916 -0.1766 -0.8907
42044SOL     OW31261   0.536  10.538   9.272 -0.4824 -0.6413  0.2066
42044SOL    HW131262   0.475  10.583   9.330  1.0720 -1.7427  2.7953
42044SOL    HW231263   0.567  10.606   9.212 -1.7362  0.6546  1.0046
42045SOL     OW31264   0.958   0.436  10.000  0.3107  0.3249 -0.4866
42045SOL    HW131265   0.885   0.444  10.061 -0.2458  1.3191 -1.2565
42045SOL    HW231266   1.034   0.468  10.049 -0.6585  4.0092 -1.2207
42046SOL     OW31267   0.247   8.431   3.851  0.2322  0.2351  0.1401
42046SOL    HW131268   0.238   8.398   3.940  0.3061 -0.4556 -0.1067
42046SOL    HW231269   0.157   8.453   3.825  0.3121  1.2596  0.6891
42047SOL     OW31270   4.278   6.302   2.747 -0.1354  0.1038  0.1753
42047SOL    HW131271   4.357   6.331   2.701 -0.7154  2.8218  0.7965
42047SOL    HW231272   4.290   6.333   2.837 -0.5288 -2.2020  1.0484
42048SOL     OW31273   2.209   1.309   5.083 -0.2816  0.7030  0.5076
42048SOL    HW131274   2.201   1.223   5.122  1.7337  0.9767  1.6162
42048SOL    HW231275   2.146   1.364   5.130  0.5496  0.5098  1.8805
42049SOL     OW31276   6.766   4.683   2.774 -0.0570  0.2546  0.3476
42049SOL    HW131277   6.788   4.774   2.797  0.3744 -0.1579  1.6131
42049SOL    HW231278   6.674   4.674   2.796 -0.3769  0.6895 -0.7811
42050SOL     OW31279   4.495   2.653  10.303  0.1910 -0.7852 -0.2496
42050SOL    HW131280   4.448   2.605  10.371  0.4225 -2.9294 -1.5837
42050SOL    HW231281   4.428   2.706  10.260 -0.2739 -0.8143  0.4307
42051SOL     OW31282   6.735   2.520  10.115  0.3279  0.0161 -0.1900
42051SOL    HW131283   6.653   2.566  10.133  0.0946 -0.1048 -0.9100
42051SOL    HW231284   6.774   2.568  10.042  1.1669  0.3934  0.4916
42052SOL     OW31285   4.047  10.070   2.706  0.0362  0.0475 -0.4162
42052SOL    HW131286   4.078   9.981   2.690  1.5204  0.4929 -0.0851
42052SOL    HW231287   4.079  10.120   2.631  0.6446  0.6282  0.2202
42053SOL     OW31288   5.242   3.829   7.620 -1.1614  0.5436  0.5475
42053SOL    HW131289   5.158   3.868   7.595 -1.4332  0.2732  1.0396
42053SOL    HW231290   5.305   3.901   7.613 -1.2198  0.4750 -0.9701
42054SOL     OW31291   1.786   2.980   4.993  0.0134 -0.2916  0.2317
42054SOL    HW131292   1.846   2.916   4.956 -1.8320 -1.5578 -0.6144
42054SOL    HW231293   1.707   2.930   5.014 -0.6913  1.3077  1.5195
42055SOL     OW31294   8.547   5.669  10.897 -0.3724  0.2486 -0.0018
42055SOL    HW131295   8.630   5.622  10.896 -0.4340  0.0990  1.4451
42055SOL    HW231296   8.499   5.632  10.971 -1.3384  1.0173 -0.2320
42056SOL     OW31297   4.772   2.660   5.286 -0.3757  0.4107  0.2461
42056SOL    HW131298   4.845   2.667   5.224 -1.4923 -0.0357 -1.1558
42056SOL    HW231299   4.794   2.722   5.355  0.7815  1.1348 -0.7336
42057SOL     OW31300  11.284   3.656   0.878 -0.3794  0.1132 -0.2602
42057SOL    HW131301  11.266   3.596   0.805 -2.4470  0.1475  0.1829
42057SOL    HW231302  11.340   3.606   0.937  0.6001 -0.2177 -1.4498
42058SOL     OW31303   1.242   3.617   3.843 -0.8800  0.3160  0.6112
42058SOL    HW131304   1.161   3.567   3.856 -0.2188 -1.0253 -0.2607
42058SOL    HW231305   1.308   3.550   3.826 -0.1991  1.5566 -1.8782
42059SOL     OW31306   6.482   5.270   8.559  0.0476  0.1964 -0.2111
42059SOL    HW131307   6.420   5.298   8.491  0.7478 -0.5655 -1.1931
42059SOL    HW231308   6.430   5.265   8.639 -1.0421  0.0912 -0.9162
42060SOL     OW31309   9.668  10.799   6.645  0.1276  0.0464  0.2268
42060SOL    HW131310   9.591  10.746   6.628  0.2933 -0.2732  0.4773
42060SOL    HW231311   9.633  10.883   6.675 -0.1435  0.2734 -0.7084
42061SOL     OW31312   7.126   3.497   7.574  0.2972  0.7284 -0.2476
42061SOL    HW131313   7.171   3.572   7.613  0.6436  0.1687  0.4500
42061SOL    HW231314   7.175   3.479   7.494  0.2986  1.1689 -0.3414
42062SOL     OW31315  10.428   9.075   2.607 -0.2507  0.4018  0.3590
42062SOL    HW131316  10.375   9.124   2.670 -0.0413 -0.0705  0.9081
42062SOL    HW231317  10.496   9.136   2.581  1.0238 -0.1197  2.3342
42063SOL     OW31318   4.437   5.454   7.896 -0.2546  0.6860  0.0639
42063SOL    HW131319   4.416   5.385   7.959  0.1781  0.1807 -0.3426
42063SOL    HW231320   4.507   5.417   7.842 -0.0473  1.4250 -0.1843
42064SOL     OW31321   7.569   9.712   9.794 -0.0772 -0.0100 -0.6616
42064SOL    HW131322   7.589   9.655   9.869  1.1081 -0.6582 -1.4541
42064SOL    HW231323   7.597   9.799   9.821  0.6467 -0.3011 -0.4814
42065SOL     OW31324   9.296   2.718   6.836  0.5137  0.1059  0.2325
42065SOL    HW131325   9.324   2.738   6.747 -1.2541  1.1828 -0.1021
42065SOL    HW231326   9.268   2.627   6.832  1.6854 -0.2549  0.0114
42066SOL     OW31327   0.602   3.947   1.045 -0.3967 -0.1999  0.6482
42066SOL    HW131328   0.519   3.917   1.083 -0.7422  1.0408  0.8956
42066SOL    HW231329   0.635   4.010   1.108  1.1903 -1.3418  0.9808
42067SOL     OW31330   1.512  11.133   8.925 -0.1594 -0.0167 -0.1490
42067SOL    HW131331   1.475  11.183   8.997 -0.6491 -0.3397 -0.1725
42067SOL    HW231332   1.479  11.177   8.846 -0.7924 -0.5225 -0.1684
42068SOL     OW31333   6.177   3.004   0.807  0.4522  0.0897 -0.2810
42068SOL    HW131334   6.258   2.992   0.758 -0.1285 -1.2610 -0.9481
42068SOL    HW231335   6.121   2.932   0.778 -0.5841  0.3651  0.9845
42069SOL     OW31336  10.820   0.292   5.559 -0.2937  0.0545 -0.4245
42069SOL    HW131337  10.863   0.260   5.480  1.4023  0.2915  0.3740
42069SOL    HW231338  10.859   0.379   5.574 -0.9953  0.2357  0.3610
42070SOL     OW31339   9.240   4.759   0.536 -0.7625 -0.6086 -0.4202
42070SOL    HW131340   9.243   4.851   0.561 -1.6488 -0.7021  0.0624
42070SOL    HW231341   9.330   4.728   0.544 -0.3516  0.3714 -1.1856
42071SOL     OW31342   5.485   7.362   2.736 -0.4499 -0.0525 -0.1167
42071SOL    HW131343   5.509   7.397   2.822 -1.0606 -0.8598  0.3937
42071SOL    HW231344   5.440   7.434   2.692 -0.6224  0.1903  0.4544
42072SOL     OW31345   0.048   9.237   9.771 -0.0450  0.5747  0.0216
42072SOL    HW131346   0.119   9.203   9.717  0.4772  1.4289  0.1617
42072SOL    HW231347   0.035   9.170   9.838  0.3911  0.2553 -0.2076
42073SOL     OW31348   6.338   7.632   9.167  0.2802 -0.1295 -0.7836
42073SOL    HW131349   6.387   7.713   9.175 -0.4162  0.0939  1.5774
42073SOL    HW231350   6.402   7.563   9.186 -0.1239  0.1378  1.8070
42074SOL     OW31351   3.888   5.777  10.720 -0.8720 -0.2366 -0.8082
42074SOL    HW131352   3.892   5.699  10.776 -1.0275  0.4346  0.1534
42074SOL    HW231353   3.979   5.794  10.696 -0.5789  0.5404  0.7574
42075SOL     OW31354   4.936   3.089   7.584 -0.0588 -0.1494 -0.0749
42075SOL    HW131355   4.873   3.020   7.563 -0.5710  0.0860  0.6803
42075SOL    HW231356   4.955   3.077   7.677  0.5154  0.1913 -0.1453
42076SOL     OW31357   5.751   0.310   3.550  0.7958 -0.5280  0.1228
42076SOL    HW131358   5.789   0.343   3.469 -2.2097 -0.3231 -1.2491
42076SOL    HW231359   5.680   0.371   3.570  1.2330 -0.8021  2.7213
42077SOL     OW31360  10.898   9.938   3.270  0.2299 -0.1162 -0.4139
42077SOL    HW131361  10.804   9.923   3.265  0.2861  0.0979 -2.6709
42077SOL    HW231362  10.908  10.019   3.320 -0.6532 -1.3909  1.8523
42078SOL     OW31363   8.900   8.230   6.973  0.3952 -0.0309 -0.2800
42078SOL    HW131364   8.870   8.317   6.999  0.2827 -0.1664  0.0473
42078SOL    HW231365   8.992   8.227   6.999  0.7315  0.4258 -1.3838
42079SOL     OW31366   6.054   1.965   2.997  0.4438 -0.1364  0.7642
42079SOL    HW131367   6.005   1.891   2.961 -0.5748  1.2820 -0.7923
42079SOL    HW231368   6.071   1.940   3.088 -1.2793 -1.5775  0.7143
42080SOL     OW31369   9.438   0.779   0.317  0.0050 -0.3415  0.4553
42080SOL    HW131370   9.387   0.814   0.390  0.3854  0.5808  0.2771
42080SOL    HW231371   9.408   0.688   0.309 -3.0701  0.7115 -0.9151
42081SOL     OW31372  10.866   8.099  10.052  0.3649  0.2836  0.1309
42081SOL    HW131373  10.939   8.100   9.990  0.1695  0.7556 -0.0944
42081SOL    HW231374  10.900   8.141  10.131 -0.0105  1.5716 -0.3805
42082SOL     OW31375   3.589  10.342   5.205 -0.5330  0.1489  0.3409
42082SOL    HW131376   3.570  10.327   5.113 -0.3098  0.8054  0.1809
42082SOL    HW231377   3.646  10.419   5.205 -0.5244  0.1454  1.0222
42083SOL     OW31378   6.914   3.136   3.191 -0.0236  0.0307 -0.1955
42083SOL    HW131379   6.912   3.060   3.132  1.6556 -1.5626  1.6975
42083SOL    HW231380   6.831   3.131   3.239 -0.3828  0.0075 -0.8118
42084SOL     OW31381   7.879   8.582   9.429 -0.3852  0.0330  0.2501
42084SOL    HW131382   7.907   8.658   9.480  0.4893 -0.9209  1.2458
42084SOL    HW231383   7.882   8.509   9.492  0.6894 -1.1690 -1.1544
42085SOL     OW31384   7.278   6.759   1.039  0.1123  0.0535  0.2049
42085SOL    HW131385   7.208   6.759   1.105  1.9645  2.1135  2.2444
42085SOL    HW231386   7.310   6.668   1.038 -1.2036 -0.4284  0.7506
42086SOL     OW31387   9.277   7.124   4.595 -0.1360  0.1086 -0.2184
42086SOL    HW131388   9.308   7.170   4.517  0.2486 -0.1489 -0.2183
42086SOL    HW231389   9.206   7.069   4.564 -0.7676  0.8807 -0.1781
42087SOL     OW31390   8.174   4.418   3.098 -0.6622  0.4073  0.0471
42087SOL    HW131391   8.132   4.499   3.069 -0.6274  0.1259 -0.8262
42087SOL    HW231392   8.105   4.372   3.146 -0.8360  0.7342  0.1153
42088SOL     OW31393  10.058   9.208   3.766 -0.0854 -0.3704  0.0433
42088SOL    HW131394  10.013   9.292   3.774 -1.0566 -0.9135  0.3002
42088SOL    HW231395  10.102   9.197   3.850 -1.3484 -0.9082  0.6484
42089SOL     OW31396   5.033   2.157   7.040  0.0519  0.4700  0.0193
42089SOL    HW131397   4.955   2.210   7.059 -1.0241 -1.1057  0.0418
42089SOL    HW231398   5.008   2.103   6.965  1.0958 -0.1354  0.1007
42090SOL     OW31399   1.273   2.797   4.979  0.1513  0.3172 -0.0648
42090SOL    HW131400   1.225   2.865   5.026  1.4844  0.3479  1.2798
42090SOL    HW231401   1.215   2.721   4.981 -0.0665  0.5161  1.0863
42091SOL     OW31402   0.742  11.044   1.786  0.3867 -0.0969 -0.1472
42091SOL    HW131403   0.696  11.056   1.703 -0.1419  0.4755  0.2259
42091SOL    HW231404   0.834  11.060   1.764  0.0355  1.9670 -0.2531
42092SOL     OW31405   6.473   1.852   7.963 -0.2276 -0.8386 -0.5874
42092SOL    HW131406   6.534   1.825   7.894  0.2366  0.1666 -0.5781
42092SOL    HW231407   6.496   1.943   7.981  0.4426 -1.4205  1.7327
42093SOL     OW31408   5.221   0.694   6.445 -0.5770 -0.1233  0.6716
42093SOL    HW131409   5.159   0.713   6.375  1.4514 -0.0842 -1.1364
42093SOL    HW231410   5.207   0.602   6.465 -1.2587 -0.0962  0.3357
42094SOL     OW31411   1.887   3.125  10.828  0.2154 -0.1182  0.1745
42094SOL    HW131412   1.980   3.118  10.849 -0.2978 -1.6066  2.1034
42094SOL    HW231413   1.865   3.041  10.787 -0.7646 -0.6872  1.8110
42095SOL     OW31414   0.757   2.338   0.620 -0.4452 -0.2291 -0.0207
42095SOL    HW131415   0.712   2.363   0.701 -0.2061  0.0319  0.0336
42095SOL    HW231416   0.805   2.417   0.595  2.8247 -1.5130  1.8213
42096SOL     OW31417   6.186   3.053   6.874  0.3144 -0.4254 -0.0932
42096SOL    HW131418   6.281   3.045   6.878  0.4907  1.3860 -0.2305
42096SOL    HW231419   6.171   3.144   6.848 -1.4712 -0.2601  1.4202
42097SOL     OW31420   4.404   0.325   5.663 -0.2402 -0.2590  0.2670
42097SOL    HW131421   4.451   0.246   5.637  1.3938  0.6210  0.5115
42097SOL    HW231422   4.417   0.330   5.758  0.0173  0.5300  0.1885
42098SOL     OW31423   2.824   1.951   8.648 -0.0634 -0.3166  0.2595
42098SOL    HW131424   2.807   2.017   8.714 -1.1180 -0.3578  0.0399
42098SOL    HW231425   2.848   1.873   8.698 -1.3094 -0.4781  0.6185
42099SOL     OW31426  10.380   6.541   5.031 -0.7125 -0.1995  1.0215
42099SOL    HW131427  10.459   6.543   5.084 -0.4523  0.2408  0.6167
42099SOL    HW231428  10.332   6.463   5.062 -1.3004  0.8995  2.9493
42100SOL     OW31429   1.051   1.902   4.266 -0.2175  0.5107 -0.3084
42100SOL    HW131430   1.096   1.965   4.323  0.8961 -0.2281 -0.3610
42100SOL    HW231431   1.065   1.936   4.178  3.8429 -1.8769 -0.7015
42101SOL     OW31432   5.252   9.577   3.437 -0.4826  0.1746  0.2019
42101SOL    HW131433   5.219   9.650   3.383  1.0601  0.9581  0.2920
42101SOL    HW231434   5.173   9.528   3.461 -1.3259  0.5365 -1.7194
42102SOL     OW31435   6.150   8.355   5.166 -0.1440  0.4288 -0.3701
42102SOL    HW131436   6.065   8.337   5.127 -0.4312  1.2939 -0.1627
42102SOL    HW231437   6.213   8.332   5.097 -0.6759  2.8840 -1.7604
42103SOL     OW31438   6.450   7.904   1.916  0.8319 -0.5368  0.2441
42103SOL    HW131439   6.394   7.886   1.841  0.7763 -0.5352  0.2852
42103SOL    HW231440   6.460   8.000   1.916 -0.7398 -0.3563  1.3673
42104SOL     OW31441   0.027   7.434   6.467  0.2258 -0.2401 -0.1737
42104SOL    HW131442  -0.007   7.503   6.409 -0.5502 -0.3730  0.1120
42104SOL    HW231443   0.100   7.476   6.512 -0.0257  0.3018 -0.2528
42105SOL     OW31444   9.082   6.041   1.507  0.5805  0.0667  0.9164
42105SOL    HW131445   9.029   5.974   1.551  0.1752  0.0526  0.4192
42105SOL    HW231446   9.167   6.038   1.551  0.3221 -0.2510  1.3992
42106SOL     OW31447   8.637   0.071   7.261  0.6126  0.3867 -0.2195
42106SOL    HW131448   8.609   0.148   7.211 -0.7497  1.3513  1.9384
42106SOL    HW231449   8.629   0.098   7.352  0.5756 -2.1690  0.5709
42107SOL     OW31450   2.592   5.761   3.940  0.3060  0.0789 -0.1556
42107SOL    HW131451   2.523   5.784   4.003  1.0831  0.6960  0.4861
42107SOL    HW231452   2.625   5.845   3.909 -1.7243 -0.1967 -3.2800
42108SOL     OW31453   9.996   3.404   0.219  0.2023  0.6628 -0.0827
42108SOL    HW131454  10.091   3.391   0.214  0.2812  1.5610 -1.0175
42108SOL    HW231455   9.982   3.447   0.304  0.5603 -0.0183  0.3293
42109SOL     OW31456   0.644  10.599   6.045 -0.4926 -0.6298  0.4948
42109SOL    HW131457   0.600  10.670   5.999 -0.6768 -1.3061 -0.4092
42109SOL    HW231458   0.573  10.543   6.077 -0.3432 -2.1020 -1.5846
42110SOL     OW31459   7.951   3.168   2.400 -0.2192 -0.6240 -0.0589
42110SOL    HW131460   7.869   3.208   2.430  0.1632  1.0486 -1.1302
42110SOL    HW231461   7.927   3.079   2.376 -1.9444  0.1096 -1.1803
42111SOL     OW31462   1.559   8.721   3.062 -0.3761  0.4871  0.0046
42111SOL    HW131463   1.464   8.733   3.062 -0.3256  0.9083  0.1028
42111SOL    HW231464   1.574   8.647   3.003 -0.6964  0.9836 -0.7043
42112SOL     OW31465   4.589   4.377   5.788 -0.0357 -0.1339  0.4894
42112SOL    HW131466   4.657   4.329   5.742 -0.9897 -1.3999  0.3756
42112SOL    HW231467   4.551   4.314   5.849 -0.6518  0.7411  1.0423
42113SOL     OW31468   9.467   4.054   9.959 -0.1333  1.1133  0.1890
42113SOL    HW131469   9.510   4.013   9.883  1.1580  1.2503  0.8232
42113SOL    HW231470   9.513   4.137   9.970  1.3667  0.0281  2.5827
42114SOL     OW31471   6.479   3.772  10.062  0.4267 -0.0943 -0.3902
42114SOL    HW131472   6.543   3.760   9.991 -0.3306  0.1052 -1.1075
42114SOL    HW231473   6.458   3.683  10.090  0.0175 -0.2073 -1.0536
42115SOL     OW31474   4.932   7.864   1.673  0.0808  0.4861  0.0960
42115SOL    HW131475   4.872   7.912   1.730 -0.4740 -1.1562  0.9280
42115SOL    HW231476   4.946   7.780   1.718  2.2804  0.4744 -0.5162
42116SOL     OW31477   3.871  10.592   3.339 -0.1639  0.8400 -0.7562
42116SOL    HW131478   3.828  10.676   3.326 -2.3513 -0.2801 -1.0708
42116SOL    HW231479   3.944  10.592   3.277  0.5548  2.9357  0.0403
42117SOL     OW31480   9.486   0.842  10.091 -0.0331  0.4342 -0.2207
42117SOL    HW131481   9.553   0.848  10.160 -0.6218  0.5333  0.3528
42117SOL    HW231482   9.427   0.774  10.122 -1.2809  1.6900  0.2447
42118SOL     OW31483   1.533   3.871   3.323  0.0007 -0.2064  0.0072
42118SOL    HW131484   1.609   3.826   3.288 -1.1795 -0.9791 -1.5889
42118SOL    HW231485   1.470   3.802   3.342 -0.7347  0.5197  0.2524
42119SOL     OW31486   4.401   1.848   7.886 -0.2124 -0.2048 -0.3742
42119SOL    HW131487   4.433   1.933   7.917  1.1151  0.4317 -3.2709
42119SOL    HW231488   4.409   1.791   7.962  3.7080  1.0522  0.3061
42120SOL     OW31489   8.769   0.397   4.833 -0.5421 -0.3428 -0.4131
42120SOL    HW131490   8.781   0.309   4.869 -2.1292 -0.8486 -1.0740
42120SOL    HW231491   8.675   0.403   4.814 -0.4692  1.5155 -0.3270
42121SOL     OW31492   9.521   1.098   9.162  0.1908 -0.1186 -0.5042
42121SOL    HW131493   9.616   1.100   9.149 -0.1634 -1.7454 -3.9448
42121SOL    HW231494   9.488   1.170   9.108 -0.6158 -0.0510  0.0667
42122SOL     OW31495   7.456   2.850   4.858 -0.2670  0.0220  0.1531
42122SOL    HW131496   7.500   2.927   4.822 -1.5377  0.1369 -1.1668
42122SOL    HW231497   7.401   2.885   4.928  0.4442  0.0821  0.6959
42123SOL     OW31498   8.837  10.243  10.453 -0.2883 -0.0766  0.1534
42123SOL    HW131499   8.748  10.210  10.437  0.0729 -0.5621 -0.9136
42123SOL    HW231500   8.889  10.206  10.381  0.8524 -0.0994  0.9797
42124SOL     OW31501  10.946  10.004  10.689  0.3274  0.0057 -0.3382
42124SOL    HW131502  11.039   9.995  10.710  0.3481  0.5697 -0.1880
42124SOL    HW231503  10.907   9.924  10.725  0.6399  0.1216  0.2770
42125SOL     OW31504   5.175   8.135   8.644 -0.2169 -0.3034  0.3011
42125SOL    HW131505   5.097   8.111   8.694 -0.0482  0.7139  1.0760
42125SOL    HW231506   5.224   8.192   8.703  0.3552  0.3128 -0.7637
42126SOL     OW31507   3.713  10.799  10.180  0.1343  0.0335  0.4676
42126SOL    HW131508   3.772  10.864  10.142  2.2349 -2.9494 -1.5359
42126SOL    HW231509   3.717  10.816  10.274  3.1777  0.7464  0.2618
42127SOL     OW31510   5.637  10.706   8.109  0.3855  0.0127  0.2698
42127SOL    HW131511   5.681  10.707   8.024  0.9007  0.6474  0.5404
42127SOL    HW231512   5.682  10.638   8.159 -0.1794 -0.6391 -0.0960
42128SOL     OW31513   7.165   2.287  11.295 -0.0723  0.8821  0.3010
42128SOL    HW131514   7.178   2.375  11.261  0.9290  0.7529  0.3579
42128SOL    HW231515   7.134   2.236  11.220 -2.4485  1.7043  0.6895
42129SOL     OW31516   7.105   6.192   9.228  0.1367 -0.2911 -0.4740
42129SOL    HW131517   7.074   6.184   9.319  0.0793  0.2107 -0.4451
42129SOL    HW231518   7.130   6.284   9.220 -0.4755 -0.1787 -1.1594
42130SOL     OW31519   6.176  11.083   5.993 -0.3333  0.0566  0.5358
42130SOL    HW131520   6.259  11.127   6.011 -0.1440 -0.5010  1.0263
42130SOL    HW231521   6.110  11.152   6.002  0.3737  1.3704 -3.4171
42131SOL     OW31522   0.318   4.660   2.855 -0.6165  0.3704  0.8982
42131SOL    HW131523   0.233   4.674   2.897 -1.3111  1.4352 -0.8256
42131SOL    HW231524   0.375   4.728   2.892 -1.7253  2.4965 -1.2122
42132SOL     OW31525   8.396   4.524   2.632 -0.6027  0.5542 -0.2297
42132SOL    HW131526   8.481   4.561   2.655 -0.3947  0.8894 -1.4897
42132SOL    HW231527   8.334   4.596   2.643 -0.5441  0.6435 -0.5121
42133SOL     OW31528   7.912   5.661  10.725 -0.1810 -0.1493  0.2970
42133SOL    HW131529   7.824   5.642  10.757  0.0574 -0.4186  0.8078
42133SOL    HW231530   7.939   5.739  10.775 -0.2810  0.1703 -0.1441
42134SOL     OW31531   9.951  10.561   0.207 -0.5337  0.2449 -0.2718
42134SOL    HW131532   9.918  10.574   0.118  1.9482  1.5739 -1.0421
42134SOL    HW231533  10.008  10.485   0.201  1.5395  1.7885 -0.3599
42135SOL     OW31534   7.076   5.021   2.865 -0.5088 -0.1140  0.0238
42135SOL    HW131535   7.087   5.108   2.905 -1.5732  0.7415 -1.4689
42135SOL    HW231536   7.079   4.960   2.938 -1.0637  1.3099  1.2483
42136SOL     OW31537   6.833   6.932   8.758  0.0348 -0.1084 -0.0454
42136SOL    HW131538   6.813   6.842   8.732  1.6731 -0.8631  1.2158
42136SOL    HW231539   6.860   6.925   8.849  0.2473  1.6632  0.0324
42137SOL     OW31540   9.548   0.796   2.990 -0.2260 -0.0645 -0.8710
42137SOL    HW131541   9.489   0.846   2.933  0.1635  1.4962  0.0452
42137SOL    HW231542   9.499   0.717   3.011 -1.9020  1.0708 -0.3643
42138SOL     OW31543   6.779   0.732   4.727 -0.0416 -0.5088  0.0213
42138SOL    HW131544   6.713   0.710   4.792  0.7629 -0.1789  0.9699
42138SOL    HW231545   6.813   0.648   4.697  1.4395 -0.6543  1.9854
42139SOL     OW31546   3.403   8.503   3.682 -0.2270  0.0721  0.2311
42139SOL    HW131547   3.415   8.452   3.602 -2.4665 -1.9527  1.1512
42139SOL    HW231548   3.357   8.582   3.652  2.2067  1.0945 -1.0022
42140SOL     OW31549  11.088   9.859  11.211  0.2388 -0.6105  0.0809
42140SOL    HW131550  11.011   9.882  11.159  1.0451 -1.0162 -1.3363
42140SOL    HW231551  11.076   9.767  11.234  0.5782 -0.8383 -0.6476
42141SOL     OW31552   9.738   0.830   2.089 -0.3841  0.2876 -0.3171
42141SOL    HW131553   9.775   0.852   2.175 -1.5560  1.1087 -0.0050
42141SOL    HW231554   9.660   0.777   2.109 -2.3107  2.8600 -0.7152
42142SOL     OW31555   5.755   4.085   9.437 -0.2944 -0.1693 -0.1413
42142SOL    HW131556   5.689   4.091   9.368 -1.9509  1.9292  1.5384
42142SOL    HW231557   5.826   4.035   9.398 -2.4967 -1.7613 -2.3079
42143SOL     OW31558   5.749   1.294   8.792 -0.1539 -0.0795  0.3952
42143SOL    HW131559   5.781   1.382   8.813 -0.9950  0.3839 -0.2259
42143SOL    HW231560   5.709   1.263   8.872  2.5334 -0.9904  1.4388
42144SOL     OW31561   6.958   9.931   5.353 -0.1495 -0.2963 -0.3236
42144SOL    HW131562   6.871   9.893   5.360 -0.4306  0.1850 -1.1749
42144SOL    HW231563   7.014   9.871   5.403 -0.7476 -1.3162 -0.8599
42145SOL     OW31564  10.523  11.189   9.557 -0.7180 -0.5356 -0.0563
42145SOL    HW131565  10.428  11.192   9.547 -0.7712  1.7923  0.8894
42145SOL    HW231566  10.537  11.136   9.635 -1.2780 -0.4318  0.1193
42146SOL     OW31567   8.586  11.205   0.212  0.6951 -0.1694  0.0576
42146SOL    HW131568   8.549  11.123   0.179  0.0115  0.1182  0.1078
42146SOL    HW231569   8.577  11.199   0.307  2.8312 -1.0714  0.2212
42147SOL     OW31570   7.679   4.489   6.496  0.4568  0.1287  0.1345
42147SOL    HW131571   7.688   4.403   6.456  1.2675  0.1558  0.2351
42147SOL    HW231572   7.688   4.550   6.423 -0.6706  0.1159 -0.0170
42148SOL     OW31573  11.131   7.496   7.857  0.3196  0.0716 -0.2976
42148SOL    HW131574  11.173   7.571   7.815 -0.9889  0.8204 -0.2832
42148SOL    HW231575  11.200   7.429   7.861  1.9196  1.7212  0.9024
42149SOL     OW31576   3.207   4.791   7.545 -0.0353  0.5700 -0.1948
42149SOL    HW131577   3.232   4.761   7.458 -0.5082 -1.3147  0.2938
42149SOL    HW231578   3.223   4.885   7.544 -0.4648  0.6328 -2.4590
42150SOL     OW31579   6.172   4.830   8.802  0.0241  0.3630 -0.3718
42150SOL    HW131580   6.202   4.891   8.870  0.6912  0.0671 -0.3967
42150SOL    HW231581   6.234   4.757   8.806 -1.7178 -1.0901  0.7375
42151SOL     OW31582   1.162   8.470   9.133 -0.5116 -0.2635  0.0482
42151SOL    HW131583   1.156   8.447   9.040  3.0442  1.0983 -0.5919
42151SOL    HW231584   1.241   8.425   9.164 -0.0021  1.6821  1.6735
42152SOL     OW31585   3.863   3.203   4.410  0.0250 -0.0773  0.2829
42152SOL    HW131586   3.807   3.278   4.391 -2.1320 -1.3543  1.3695
42152SOL    HW231587   3.805   3.127   4.406  1.6391 -1.4434  1.5872
42153SOL     OW31588   9.345   2.459   2.731 -0.1364  0.4664 -0.1951
42153SOL    HW131589   9.275   2.396   2.715 -0.9099  1.2756 -0.0940
42153SOL    HW231590   9.425   2.408   2.728 -0.6874 -0.3637 -0.9711
42154SOL     OW31591   5.875   4.483   4.409  0.2808  0.1445  0.0727
42154SOL    HW131592   5.966   4.478   4.380  0.3551 -0.0116  0.3280
42154SOL    HW231593   5.825   4.502   4.330  0.3477 -1.3780 -0.3418
42155SOL     OW31594   8.150   4.708   5.570  0.2512  0.1859 -0.1894
42155SOL    HW131595   8.185   4.635   5.518  1.0299  1.8107 -1.9924
42155SOL    HW231596   8.083   4.747   5.515  0.0465  1.0293  0.6495
42156SOL     OW31597  10.260  10.061   6.317  0.1494 -0.1263  0.6026
42156SOL    HW131598  10.273  10.058   6.412  1.8413 -0.1425  0.3774
42156SOL    HW231599  10.184  10.117   6.306 -0.4052 -0.5593  2.0024
42157SOL     OW31600   8.003   2.356   6.777  0.3811 -0.4117  0.4089
42157SOL    HW131601   7.975   2.434   6.825  1.8751 -0.0467  0.7175
42157SOL    HW231602   8.012   2.385   6.686 -0.8182 -0.6802  0.2036
42158SOL     OW31603   4.301   1.243  10.725  0.2263  0.1254  0.1154
42158SOL    HW131604   4.368   1.311  10.735 -0.0340  0.2674  0.8638
42158SOL    HW231605   4.272   1.224  10.814 -0.1530 -0.5202 -0.1462
42159SOL     OW31606   5.877   1.437   9.169  0.9406  0.6039 -0.0103
42159SOL    HW131607   5.969   1.411   9.177  0.8495  0.4555  0.5977
42159SOL    HW231608   5.835   1.401   9.247  0.5621  1.4851  0.1973
42160SOL     OW31609  11.063   6.552   4.290 -0.2448  0.0221  0.1962
42160SOL    HW131610  10.978   6.594   4.301  1.3067  2.9371  1.6756
42160SOL    HW231611  11.120   6.622   4.258  1.6426 -1.8352 -0.6144
42161SOL     OW31612   5.131   6.013   5.160  0.0693 -0.4735  0.3124
42161SOL    HW131613   5.166   6.098   5.134 -1.6041  0.4777  1.1231
42161SOL    HW231614   5.183   5.988   5.236  0.6494 -0.2427 -0.0024
42162SOL     OW31615   4.311   9.254  10.587  0.2555  0.2294  0.0244
42162SOL    HW131616   4.378   9.273  10.522 -0.4615  1.6461 -0.3173
42162SOL    HW231617   4.238   9.217  10.537  0.0756  0.4097  0.1495
42163SOL     OW31618   1.397   2.093   5.596 -0.2341  0.0846  0.2859
42163SOL    HW131619   1.359   2.113   5.510 -0.5879 -1.8070 -0.0137
42163SOL    HW231620   1.436   2.006   5.586  0.8654  0.3956  1.6797
42164SOL     OW31621   4.836  10.015   1.309 -0.2593  0.2985  0.3901
42164SOL    HW131622   4.817   9.930   1.270  1.3390 -1.0696  2.4783
42164SOL    HW231623   4.754  10.041   1.351 -0.5332 -0.5723  0.3938
42165SOL     OW31624   4.956   1.547   4.960 -0.3136  0.0005 -0.0516
42165SOL    HW131625   4.894   1.557   4.888 -0.9433 -1.8769  0.1913
42165SOL    HW231626   4.929   1.466   5.004  1.4991 -0.1506  0.8556
42166SOL     OW31627  10.468   2.660   8.733  0.2290 -0.1325  0.3615
42166SOL    HW131628  10.545   2.611   8.705  0.3947 -1.3472  2.7928
42166SOL    HW231629  10.498   2.751   8.738  0.8975 -0.2802 -0.7658
42167SOL     OW31630   4.796   4.234   5.698  0.9329  0.3834 -0.3758
42167SOL    HW131631   4.827   4.298   5.634  2.8785  0.7562  0.9279
42167SOL    HW231632   4.874   4.207   5.746 -0.2773 -0.9897  0.8824
42168SOL     OW31633   6.944   5.074   0.974 -0.1335  0.2837  0.7500
42168SOL    HW131634   7.007   5.136   0.938  0.5933 -1.4103 -1.0293
42168SOL    HW231635   6.997   4.998   0.998 -1.3826 -0.8666 -0.0521
42169SOL     OW31636   3.461   2.620  11.127 -0.0682 -0.1466 -0.0876
42169SOL    HW131637   3.449   2.714  11.115 -0.2658  0.0066  1.2553
42169SOL    HW231638   3.439   2.582  11.042  0.3047  1.0388 -0.7239
42170SOL     OW31639   6.674   8.891   0.847  0.0334  0.7441 -0.6157
42170SOL    HW131640   6.637   8.861   0.930 -0.8197  1.0727 -0.8704
42170SOL    HW231641   6.663   8.987   0.850 -1.8980  0.5983 -1.9845
42171SOL     OW31642   9.159   1.474   5.340  0.5840 -0.5244 -0.3309
42171SOL    HW131643   9.142   1.419   5.416 -1.8718 -0.7070 -0.9868
42171SOL    HW231644   9.150   1.564   5.373 -0.0043 -0.5955 -0.2957
42172SOL     OW31645   3.501   5.564   6.862 -0.6202  0.4126  0.4147
42172SOL    HW131646   3.515   5.540   6.953  0.5825 -0.5610 -0.0065
42172SOL    HW231647   3.406   5.563   6.851 -0.7084 -1.1436  1.2212
42173SOL     OW31648   8.863   5.585   2.213 -0.0707  0.1783 -0.3338
42173SOL    HW131649   8.923   5.648   2.173 -0.7875  0.8274 -0.3968
42173SOL    HW231650   8.900   5.499   2.191  1.5408  0.5815  0.7266
42174SOL     OW31651   6.771   0.986   3.541 -0.4812 -0.0493  0.4999
42174SOL    HW131652   6.700   0.968   3.602  0.1306  1.6142  1.7329
42174SOL    HW231653   6.833   0.915   3.554 -0.4240  0.2192  1.7207
42175SOL     OW31654   8.134   8.156   2.974  0.0015  0.1563 -0.4366
42175SOL    HW131655   8.113   8.235   3.024 -0.4427  0.1395 -0.5963
42175SOL    HW231656   8.051   8.112   2.962  0.6996 -2.0927  2.5508
42176SOL     OW31657  11.158   3.982   6.657 -0.3132 -0.8321 -0.3928
42176SOL    HW131658  11.112   4.066   6.655  0.6910 -0.2587 -0.2396
42176SOL    HW231659  11.141   3.946   6.744 -1.7165 -1.3555 -0.8724
42177SOL     OW31660   9.081   1.714   5.081  0.3845 -0.1382 -0.2633
42177SOL    HW131661   9.036   1.638   5.118 -1.1459  0.4734 -0.8306
42177SOL    HW231662   9.036   1.729   4.998  1.1857  0.9226 -0.5021
42178SOL     OW31663   9.118  11.158   2.318  1.0150  0.5496  0.0220
42178SOL    HW131664   9.026  11.182   2.328  1.0713  0.4279  0.8053
42178SOL    HW231665   9.159  11.181   2.401  1.0930 -2.1365  0.7699
42179SOL     OW31666  10.109   2.575   5.216  0.4538  0.0204 -0.1773
42179SOL    HW131667  10.053   2.646   5.248  2.0453  1.0124  0.4630
42179SOL    HW231668  10.119   2.516   5.291 -0.5189 -0.6727 -0.5825
42180SOL     OW31669   7.672   7.621   7.745  0.1991 -0.4672 -0.2719
42180SOL    HW131670   7.651   7.572   7.824  2.4027 -1.6374 -0.3746
42180SOL    HW231671   7.603   7.598   7.683 -0.8584 -0.4915  0.8850
42181SOL     OW31672   5.402   4.553   8.395  0.2106  0.2545 -0.4773
42181SOL    HW131673   5.408   4.646   8.416  1.7479 -0.3634  2.0549
42181SOL    HW231674   5.380   4.511   8.478  0.5138 -1.7544 -1.3856
42182SOL     OW31675   4.995   2.302   8.070  0.2356  0.2953  0.0322
42182SOL    HW131676   5.025   2.221   8.110  0.2196  0.1334 -0.2787
42182SOL    HW231677   4.903   2.309   8.094  0.7387  1.2395  1.7106
42183SOL     OW31678   2.821  10.526   5.938 -0.4014  0.1668  0.1526
42183SOL    HW131679   2.833  10.543   6.032  1.0019 -1.9765  0.4009
42183SOL    HW231680   2.753  10.459   5.935  0.8070 -1.0711 -0.2261
42184SOL     OW31681   1.325   2.970   5.301 -0.1715 -0.4667  0.2275
42184SOL    HW131682   1.274   2.891   5.283  0.7799 -0.8658 -0.7974
42184SOL    HW231683   1.314   2.985   5.395 -1.1253 -1.2764  0.2592
42185SOL     OW31684   9.499   2.604   5.787 -0.0599  0.1795 -0.2199
42185SOL    HW131685   9.450   2.687   5.786 -0.9197 -0.3312 -0.3713
42185SOL    HW231686   9.475   2.564   5.871  0.2128 -0.0014 -0.2301
42186SOL     OW31687   4.072   5.157  10.303 -0.0900  0.2842  0.1537
42186SOL    HW131688   3.989   5.181  10.262 -0.3338 -0.9461 -0.0700
42186SOL    HW231689   4.066   5.191  10.392 -0.4416  1.0316 -0.1468
42187SOL     OW31690  10.023   8.018  11.027 -0.1755 -0.3341  0.1698
42187SOL    HW131691  10.112   7.987  11.012  0.5192  0.3541  2.4931
42187SOL    HW231692   9.982   7.949  11.079 -0.1720  0.4109  1.1998
42188SOL     OW31693   4.059   1.416   3.746  0.3493  0.3704  0.2835
42188SOL    HW131694   4.126   1.381   3.687  1.4729  0.4715  1.4818
42188SOL    HW231695   4.040   1.344   3.806 -0.3093  0.4907  0.2322
42189SOL     OW31696   2.440   2.852   4.511  0.0262  0.0374 -0.1370
42189SOL    HW131697   2.366   2.806   4.472 -2.1055  0.5108  3.1114
42189SOL    HW231698   2.506   2.784   4.527 -0.3845 -0.6845 -1.5038
42190SOL     OW31699  10.805   8.157   4.794 -0.2350  0.4399  0.2209
42190SOL    HW131700  10.875   8.203   4.747  0.7351 -1.4096 -0.2289
42190SOL    HW231701  10.741   8.224   4.814  1.7805  2.2360  0.8176
42191SOL     OW31702   8.244   2.699  11.134 -0.0031 -0.2188 -0.2392
42191SOL    HW131703   8.235   2.637  11.062  0.6798 -0.4816 -0.1009
42191SOL    HW231704   8.160   2.696  11.179 -0.0473 -0.8677 -0.3680
42192SOL     OW31705   6.540   9.220   5.786  0.2816  0.2087  0.0477
42192SOL    HW131706   6.450   9.196   5.806 -0.6124  0.3385 -3.5408
42192SOL    HW231707   6.545   9.314   5.802  0.5195 -0.2101  2.6520
42193SOL     OW31708   1.423   1.159   3.144  0.3523 -0.1612 -0.2259
42193SOL    HW131709   1.485   1.152   3.071 -0.6793  1.2934 -1.2839
42193SOL    HW231710   1.338   1.167   3.102 -0.4513 -1.1334  1.1974
42194SOL     OW31711   2.193   2.678   2.384  0.4957  0.6849  0.1666
42194SOL    HW131712   2.221   2.763   2.417  0.2717  1.4084 -1.4231
42194SOL    HW231713   2.268   2.645   2.335  0.5738 -0.0238  0.7584
42195SOL     OW31714   6.553   4.967   7.411 -0.1837 -0.1476 -0.7846
42195SOL    HW131715   6.540   4.891   7.468  1.2412 -0.4716 -0.8859
42195SOL    HW231716   6.464   5.000   7.395 -0.7696 -1.4494 -0.2862
42196SOL     OW31717   0.230   1.774  11.177  0.8124 -0.2965  0.3206
42196SOL    HW131718   0.169   1.733  11.239  0.7072 -0.1915  0.2868
42196SOL    HW231719   0.230   1.867  11.201  1.6459 -0.4432  0.8998
42197SOL     OW31720   8.442   3.234   2.702  0.2146 -0.6019  0.0888
42197SOL    HW131721   8.522   3.233   2.754 -0.6086  0.5866  1.4153
42197SOL    HW231722   8.379   3.283   2.755 -1.0489 -0.5170 -1.4350
42198SOL     OW31723   5.164   1.154   0.957 -0.3003  1.1175 -0.0872
42198SOL    HW131724   5.104   1.203   0.900 -0.5893  0.4221 -0.3939
42198SOL    HW231725   5.221   1.107   0.896 -1.1960 -0.3504  0.1724
42199SOL     OW31726   3.093   2.747   3.378 -0.0367  0.3664  0.0008
42199SOL    HW131727   3.089   2.785   3.291 -0.0527 -0.4625 -0.3611
42199SOL    HW231728   3.010   2.699   3.387  1.2499 -2.0173 -0.6671
42200SOL     OW31729   9.256   6.246   4.471  0.4914  0.3649  0.2119
42200SOL    HW131730   9.246   6.182   4.401  2.4381 -0.2783  0.4820
42200SOL    HW231731   9.293   6.323   4.429 -0.1171  0.6562  0.2080
42201SOL     OW31732   4.490   0.723   9.026 -0.1422  0.3410  0.6291
42201SOL    HW131733   4.399   0.746   9.046 -0.1426 -0.4265  1.5266
42201SOL    HW231734   4.511   0.652   9.087  0.8220  0.0128 -0.0706
42202SOL     OW31735   4.108   7.754   2.635 -0.3842  0.9848  0.2580
42202SOL    HW131736   4.149   7.678   2.593  0.7947  2.1345 -0.7232
42202SOL    HW231737   4.016   7.730   2.644 -0.0599 -0.4792 -0.2338
42203SOL     OW31738   4.722   3.806   2.731  0.2572 -0.0017  0.1736
42203SOL    HW131739   4.652   3.766   2.782  0.1684  0.8620  0.7367
42203SOL    HW231740   4.770   3.861   2.793 -1.0100  2.5562 -1.0211
42204SOL     OW31741  10.311   3.494  10.330  0.7820 -0.5922  0.0517
42204SOL    HW131742  10.352   3.580  10.321  1.1728 -0.5972  1.6664
42204SOL    HW231743  10.383   3.435  10.354  0.3458 -1.1720 -0.0468
42205SOL     OW31744   6.550   1.506   9.648 -0.1630  0.1473  0.0459
42205SOL    HW131745   6.494   1.469   9.716  0.1500  1.3993  1.0102
42205SOL    HW231746   6.622   1.548   9.696  1.1438 -0.6956 -1.1349
42206SOL     OW31747   5.873  10.521   1.570  0.1943  0.4116  0.2949
42206SOL    HW131748   5.861  10.429   1.545 -0.7716  0.2048  1.4674
42206SOL    HW231749   5.940  10.519   1.638 -0.1059  0.5320  0.5948
42207SOL     OW31750   2.809   7.585   0.835 -0.0665 -0.3521  0.0053
42207SOL    HW131751   2.829   7.606   0.744  0.7743 -0.2280  0.2179
42207SOL    HW231752   2.741   7.648   0.859 -0.4182 -0.4967 -0.5840
42208SOL     OW31753   2.349   5.863   2.896  0.1407  0.5474  0.3351
42208SOL    HW131754   2.370   5.770   2.900  1.0870  0.8029  1.3847
42208SOL    HW231755   2.278   5.869   2.832 -0.4147 -0.9811  0.8052
42209SOL     OW31756   2.331   4.629   8.562  0.0142 -0.8903  0.1956
42209SOL    HW131757   2.352   4.697   8.497 -0.3498  0.0340  1.0312
42209SOL    HW231758   2.238   4.643   8.581  0.2621 -0.7917  1.3324
42210SOL     OW31759   2.874   8.819   8.951  0.0777 -0.0744  0.2551
42210SOL    HW131760   2.813   8.881   8.910  0.4142  0.3451  0.3855
42210SOL    HW231761   2.893   8.858   9.036  1.4785  0.4082 -0.2704
42211SOL     OW31762   0.121   9.663   3.645  0.3042 -0.1735 -0.8502
42211SOL    HW131763   0.124   9.663   3.550 -2.0256  0.1089 -0.9549
42211SOL    HW231764   0.060   9.734   3.668  1.1513  0.0454  0.8695
42212SOL     OW31765   6.455   1.198   1.076 -0.4615  0.4792  0.2736
42212SOL    HW131766   6.481   1.210   1.167 -0.7140 -0.5866  0.4904
42212SOL    HW231767   6.533   1.162   1.033 -0.6413  0.0895  0.2738
42213SOL     OW31768   2.915   8.252  10.192  0.1864  0.1220 -0.3635
42213SOL    HW131769   2.822   8.233  10.207 -0.1077  1.9716  0.3754
42213SOL    HW231770   2.927   8.340  10.227  2.4263 -0.4236  0.3563
42214SOL     OW31771   5.856   1.569   3.972  0.3802  0.5669  0.4528
42214SOL    HW131772   5.802   1.490   3.978 -0.0484  0.8015 -0.3291
42214SOL    HW231773   5.828   1.612   3.891  1.0198  1.2213  0.5722
42215SOL     OW31774   3.111   4.602   0.379  0.5927 -0.0429 -0.2499
42215SOL    HW131775   3.130   4.692   0.406  2.5534 -0.8682  1.2996
42215SOL    HW231776   3.169   4.586   0.305  2.0572 -0.7936  1.0264
42216SOL     OW31777  10.795   2.543   2.833 -0.3876  0.0918 -0.1942
42216SOL    HW131778  10.727   2.482   2.805 -2.1937  1.1320  1.8018
42216SOL    HW231779  10.833   2.502   2.911  0.6953 -0.0525 -0.7831
42217SOL     OW31780   9.092  10.906   0.786  0.2502 -0.5420 -0.0206
42217SOL    HW131781   9.138  10.982   0.820 -0.4142 -0.2320  0.1780
42217SOL    HW231782   9.047  10.869   0.861 -1.7829  0.5401 -0.6809
42218SOL     OW31783  10.490   8.521   4.531  0.1761  0.4909 -0.6643
42218SOL    HW131784  10.398   8.495   4.533  0.4174 -0.3046  0.6554
42218SOL    HW231785  10.494   8.601   4.583  0.0879  1.0651 -1.5185
42219SOL     OW31786   3.284   1.523   0.789  0.0190  0.6952 -0.0596
42219SOL    HW131787   3.352   1.460   0.767 -0.4521 -0.1927  0.9990
42219SOL    HW231788   3.210   1.470   0.818 -0.4068  1.7240  0.7709
42220SOL     OW31789   1.165  10.153   5.264  0.0562 -0.0723  0.4533
42220SOL    HW131790   1.192  10.230   5.315 -0.1353 -1.0339  2.0196
42220SOL    HW231791   1.192  10.174   5.175 -0.3024  1.9650  0.7936
42221SOL     OW31792  11.329   6.529   0.228 -0.4898  0.0850 -0.0684
42221SOL    HW131793  11.414   6.488   0.215 -0.3414  0.2249  0.4661
42221SOL    HW231794  11.349   6.619   0.252 -0.7657 -0.1176  0.9388
42222SOL     OW31795   3.918   5.673   3.270  0.1109 -0.2253  0.0450
42222SOL    HW131796   3.889   5.759   3.240 -0.6746 -0.8902 -1.1657
42222SOL    HW231797   3.848   5.643   3.327 -0.4905 -0.8187 -0.9836
42223SOL     OW31798   9.696   8.114   7.565  1.0324  0.7348 -0.7644
42223SOL    HW131799   9.677   8.204   7.536 -0.4438  0.7515  0.1959
42223SOL    HW231800   9.696   8.119   7.660  0.2098 -0.4262 -0.6965
42224SOL     OW31801   9.956   5.136   7.668  0.1936 -0.2567  0.0606
42224SOL    HW131802   9.870   5.173   7.645  0.0673  1.0712  2.4957
42224SOL    HW231803  10.019   5.203   7.639  0.3721 -0.8095 -0.8612
42225SOL     OW31804   9.179   5.833   8.800  0.3849 -0.5070  0.2905
42225SOL    HW131805   9.178   5.762   8.736 -4.8216 -1.6087  1.3156
42225SOL    HW231806   9.199   5.911   8.749  0.3005 -1.8922 -1.9515
42226SOL     OW31807  10.293   6.005   3.743  0.0712  0.3005  0.1800
42226SOL    HW131808  10.302   5.914   3.714 -0.2152  0.6563 -1.0368
42226SOL    HW231809  10.380   6.043   3.733 -0.1735  0.6096 -0.9011
42227SOL     OW31810   4.725   9.738   3.266 -0.1996  0.1967 -0.7994
42227SOL    HW131811   4.750   9.692   3.347 -0.0494 -0.8455 -1.4291
42227SOL    HW231812   4.666   9.807   3.295 -0.5402 -0.4857  0.1538
42228SOL     OW31813   9.051   6.019   2.814  0.3126  0.2640 -0.4333
42228SOL    HW131814   9.037   6.110   2.787  1.0460  0.3198 -0.6446
42228SOL    HW231815   9.005   5.967   2.748 -2.2936  0.5454  1.1078
42229SOL     OW31816   7.510   6.418   8.006 -0.0472  0.0030 -0.3855
42229SOL    HW131817   7.526   6.512   8.008 -1.0519  0.1706  0.1236
42229SOL    HW231818   7.522   6.394   7.914 -0.3998  0.7452 -0.6353
42230SOL     OW31819   4.876  10.118  10.581 -0.1226 -0.2564  0.2191
42230SOL    HW131820   4.807  10.057  10.556  0.3009 -0.0517 -1.5819
42230SOL    HW231821   4.890  10.103  10.674 -2.5336 -0.3625  0.5905
42231SOL     OW31822   6.085  11.285   8.424 -0.3491 -0.3804  0.0333
42231SOL    HW131823   6.019  11.247   8.366 -1.5770  0.0680  1.1315
42231SOL    HW231824   6.166  11.282   8.373 -0.6410 -3.4631 -0.2897
42232SOL     OW31825   2.790   3.796   8.089  0.1397  0.5230  0.5035
42232SOL    HW131826   2.867   3.747   8.058 -1.1259 -0.1327 -1.7119
42232SOL    HW231827   2.779   3.865   8.024 -0.8294  0.9551  1.1269
42233SOL     OW31828   5.137   6.482   9.899 -0.2180  0.1752 -0.0539
42233SOL    HW131829   5.174   6.443   9.978 -2.4452 -1.7302  0.1024
42233SOL    HW231830   5.086   6.557   9.931 -0.4329 -0.0952  0.2495
42234SOL     OW31831   8.081   9.212   4.778  0.1465  0.4328  0.0861
42234SOL    HW131832   8.095   9.304   4.757  0.7732  0.5979  1.1952
42234SOL    HW231833   8.079   9.209   4.873  0.7561 -0.7848  0.0767
42235SOL     OW31834   3.760   9.761   8.402 -0.4482  0.6844  0.2633
42235SOL    HW131835   3.755   9.749   8.497 -0.5706  0.7916  0.2706
42235SOL    HW231836   3.761   9.856   8.390 -1.6216  0.6776  0.0940
42236SOL     OW31837   5.328   2.804  10.757  0.3107  0.1191 -0.0675
42236SOL    HW131838   5.249   2.750  10.767  0.5865 -0.2376  0.2218
42236SOL    HW231839   5.297   2.894  10.763  0.1283 -0.0388  1.5519
42237SOL     OW31840   4.218   3.993   6.504 -0.3092  0.2049 -0.0332
42237SOL    HW131841   4.129   4.030   6.503  0.4528  2.1316  0.8617
42237SOL    HW231842   4.214   3.921   6.566 -0.7617  1.5871  1.5635
42238SOL     OW31843   2.484   5.368   4.839  0.2403 -0.3328 -0.5690
42238SOL    HW131844   2.487   5.289   4.785  0.3843 -0.0010 -1.0407
42238SOL    HW231845   2.485   5.440   4.777 -0.9877  0.0278 -0.1690
42239SOL     OW31846   5.459   2.544   9.828 -0.6531  0.2606 -0.5090
42239SOL    HW131847   5.475   2.590   9.911 -0.1453 -0.1372 -0.3797
42239SOL    HW231848   5.444   2.614   9.764  0.2204  0.6157 -0.3356
42240SOL     OW31849   4.549   5.039   0.646 -0.0324  0.3081 -0.5623
42240SOL    HW131850   4.608   5.114   0.634  0.2230  0.0611 -0.8500
42240SOL    HW231851   4.516   5.020   0.558  0.3539 -0.2885 -0.5784
42241SOL     OW31852   0.882   3.704  10.407  0.3438 -0.0692 -0.0973
42241SOL    HW131853   0.861   3.797  10.396  0.0625 -0.2590 -1.1986
42241SOL    HW231854   0.799   3.662  10.430  0.7379  0.1641  1.8460
42242SOL     OW31855   3.487   1.836   2.991 -0.1324  0.3317  0.3317
42242SOL    HW131856   3.581   1.835   2.974 -0.2543  0.3756 -0.3617
42242SOL    HW231857   3.457   1.750   2.964 -0.0973 -0.1195  1.7065
42243SOL     OW31858   0.372   4.199   6.490  0.2648  0.1298  0.2876
42243SOL    HW131859   0.441   4.141   6.456  1.1376  1.2427  0.1193
42243SOL    HW231860   0.410   4.287   6.483 -0.8348  0.6682  1.0469
42244SOL     OW31861   3.382   8.035   3.499 -0.0921  0.2106  0.0385
42244SOL    HW131862   3.385   7.943   3.526  0.1709  0.3160  0.3831
42244SOL    HW231863   3.473   8.064   3.506 -0.1087  0.3813 -0.4773
42245SOL     OW31864   7.326   5.924   4.592  0.4783  0.3533  0.1508
42245SOL    HW131865   7.388   5.996   4.586  0.8139  0.0443 -0.1107
42245SOL    HW231866   7.254   5.958   4.645  1.1070  0.5471  0.8836
42246SOL     OW31867   2.736   6.555   1.558 -0.4808 -0.2603 -0.0142
42246SOL    HW131868   2.818   6.532   1.601 -1.0223 -2.2185  0.0092
42246SOL    HW231869   2.728   6.649   1.571  1.3719 -0.1768  0.6608
42247SOL     OW31870  10.160  11.061   1.704 -0.2674  0.4913 -0.1146
42247SOL    HW131871  10.255  11.072   1.707 -0.2068 -0.1788  0.6175
42247SOL    HW231872  10.143  11.036   1.613  0.4999 -1.2822  0.1838
42248SOL     OW31873   5.592   7.515   4.026  0.1636  0.4817 -0.0584
42248SOL    HW131874   5.598   7.530   3.931  0.9210 -1.5357 -0.3547
42248SOL    HW231875   5.522   7.451   4.036  1.7949 -1.2495  0.5028
42249SOL     OW31876   8.071   0.383  10.686 -0.8640 -0.1933  0.2635
42249SOL    HW131877   7.991   0.398  10.735 -1.2592  0.3334 -0.5205
42249SOL    HW231878   8.041   0.366  10.596 -0.0874  0.3355 -0.1030
42250SOL     OW31879   2.388   4.559   9.622  0.2296 -0.5507  0.0923
42250SOL    HW131880   2.410   4.606   9.702  0.9970 -2.7766  1.2256
42250SOL    HW231881   2.470   4.515   9.596  0.2696  0.9023 -2.4738
42251SOL     OW31882   9.208   6.175   1.139 -0.2673 -0.0226  0.6916
42251SOL    HW131883   9.157   6.219   1.071  0.9145  2.3942  1.3227
42251SOL    HW231884   9.158   6.189   1.219 -0.1552 -0.3151  0.8136
42252SOL     OW31885   4.725   6.952   9.663  0.1961  0.0740 -0.1185
42252SOL    HW131886   4.679   6.918   9.586 -1.3178  0.3396  0.6461
42252SOL    HW231887   4.760   7.037   9.635 -1.4920  0.7802 -0.1227
42253SOL     OW31888   6.095   6.889   0.849 -0.0624  0.1251 -0.7148
42253SOL    HW131889   6.130   6.849   0.769 -0.2980  1.0116 -1.2785
42253SOL    HW231890   6.027   6.949   0.817 -0.9510 -0.3552  0.2440
42254SOL     OW31891   5.506   2.727   1.282 -1.3379 -0.2749  0.5321
42254SOL    HW131892   5.538   2.649   1.236 -0.9637 -0.1604  0.5995
42254SOL    HW231893   5.534   2.715   1.373  0.5305  0.9236  0.1360
42255SOL     OW31894   8.198   9.499  10.299  0.3516 -0.4825 -0.0543
42255SOL    HW131895   8.118   9.476  10.347 -0.5384  0.2873 -1.1570
42255SOL    HW231896   8.207   9.593  10.311  0.8423 -0.4956 -0.3345
42256SOL     OW31897  11.177   6.339  10.257  0.0686 -0.2326  0.0116
42256SOL    HW131898  11.248   6.329  10.320  0.0373  0.6665  0.1984
42256SOL    HW231899  11.213   6.395  10.188 -1.8519  4.2582  2.4152
42257SOL     OW31900   6.078   4.499   9.483 -0.6660  0.5398 -0.2561
42257SOL    HW131901   5.994   4.458   9.503 -0.1114 -0.6840 -0.4132
42257SOL    HW231902   6.070   4.527   9.392 -1.3049  1.4691  0.0670
42258SOL     OW31903  10.751   6.028   0.298 -0.1357 -0.2915  0.3882
42258SOL    HW131904  10.681   6.018   0.362 -0.8177  1.1692 -0.1218
42258SOL    HW231905  10.783   6.118   0.310 -0.1400 -0.0641 -1.1830
42259SOL     OW31906   1.584   4.538   7.216  0.2807 -0.5107  0.3447
42259SOL    HW131907   1.602   4.504   7.128  0.1244 -2.7802  1.1516
42259SOL    HW231908   1.662   4.588   7.239  0.2399  0.2836 -1.1511
42260SOL     OW31909   0.935   2.210  10.237  0.6074 -0.5137  0.3951
42260SOL    HW131910   0.881   2.206  10.159  1.4746 -0.9476 -0.1934
42260SOL    HW231911   0.934   2.303  10.263  0.9190 -0.2341 -0.5638
42261SOL     OW31912   6.519   8.639  10.020 -0.1082  0.2852  0.0442
42261SOL    HW131913   6.520   8.616  10.112 -0.2200  0.9412  0.2157
42261SOL    HW231914   6.574   8.717  10.014 -0.8114  0.7687 -0.2892
42262SOL     OW31915   3.567  10.540   0.859 -0.3214  0.3049  0.1827
42262SOL    HW131916   3.614  10.615   0.823  1.2587 -0.2305  1.0886
42262SOL    HW231917   3.577  10.549   0.954 -1.7339 -0.0362  0.3786
42263SOL     OW31918   4.723   6.091   2.099 -0.1746  0.1733 -0.1833
42263SOL    HW131919   4.719   6.141   2.017 -0.8704 -0.9247 -0.8269
42263SOL    HW231920   4.731   6.158   2.167  0.5667  1.0948 -1.1487
42264SOL     OW31921   5.560   0.491   3.623 -0.2924 -0.1237 -0.1493
42264SOL    HW131922   5.603   0.505   3.707  0.0919 -0.7406 -0.2451
42264SOL    HW231923   5.538   0.580   3.593  0.2788  0.1463  0.2241
42265SOL     OW31924   8.084   1.525   4.073  0.5016 -0.4956  0.3098
42265SOL    HW131925   8.098   1.536   4.167 -1.6168 -0.4463  0.6272
42265SOL    HW231926   8.007   1.469   4.066  0.9967 -0.9878 -1.3971
42266SOL     OW31927   1.195  11.324   5.055  0.9416 -0.5280  0.3679
42266SOL    HW131928   1.188  11.419   5.049 -1.1189 -0.6215  0.7861
42266SOL    HW231929   1.117  11.291   5.009  0.8965 -1.9599  1.4062
42267SOL     OW31930  10.842   2.227   9.429  0.6670  0.2944 -0.1973
42267SOL    HW131931  10.813   2.318   9.437  0.6841  0.3377 -0.6302
42267SOL    HW231932  10.861   2.200   9.519  0.5638  0.6848 -0.0571
42268SOL     OW31933   0.488  10.224   0.993 -0.5892  0.0161  0.3564
42268SOL    HW131934   0.467  10.229   1.086  1.9667 -1.7118  1.0663
42268SOL    HW231935   0.529  10.308   0.974 -0.7567  0.2183  0.8762
42269SOL     OW31936   9.630   8.245   1.250  0.2875  0.0346  0.5392
42269SOL    HW131937   9.654   8.294   1.171  1.1669 -1.2482  0.0025
42269SOL    HW231938   9.583   8.309   1.304  0.3767  1.1440 -0.6672
42270SOL     OW31939   4.088   5.252  10.588  0.0115  0.7747 -0.1934
42270SOL    HW131940   4.158   5.213  10.642  0.0690 -0.5552 -1.2001
42270SOL    HW231941   4.110   5.345  10.585  0.9190  0.6085  0.7325
42271SOL     OW31942   9.826  10.609  11.284  1.0914  0.2960 -0.2830
42271SOL    HW131943   9.888  10.557  11.233 -0.3300  0.1127 -1.8543
42271SOL    HW231944   9.740  10.591  11.245  0.0986  0.9715  1.4975
42272SOL     OW31945   9.322  10.505   8.164 -0.0491  0.4057  0.1387
42272SOL    HW131946   9.409  10.516   8.202  0.2575 -0.6223 -0.2465
42272SOL    HW231947   9.273  10.454   8.229 -0.2223  0.5896  0.1537
42273SOL     OW31948  10.476   0.378   5.176  0.4938 -0.2091 -0.1457
42273SOL    HW131949  10.401   0.347   5.125  0.8292 -1.5513  0.1614
42273SOL    HW231950  10.502   0.303   5.229  0.2172  1.1233  1.9441
42274SOL     OW31951   9.047   3.480   0.957  0.2965 -0.3795 -0.2792
42274SOL    HW131952   8.989   3.451   1.028 -2.0023  0.0973 -1.9144
42274SOL    HW231953   8.992   3.478   0.879  2.7485 -0.6870 -2.0289
42275SOL     OW31954   5.347   2.753   8.779 -1.0427 -0.6249  0.0962
42275SOL    HW131955   5.331   2.771   8.686 -0.2245  0.6062  0.1661
42275SOL    HW231956   5.313   2.830   8.824 -0.5501 -0.7677  0.7245
42276SOL     OW31957  10.088   0.966   3.597  0.2147  0.1512  0.5431
42276SOL    HW131958  10.017   1.026   3.577  0.8265  1.3455  1.8522
42276SOL    HW231959  10.167   1.010   3.565  0.4910 -0.6702  0.0836
42277SOL     OW31960   2.408   4.054   7.047 -0.3187 -0.0348 -0.3726
42277SOL    HW131961   2.331   4.108   7.067  1.1721  1.3848  1.6149
42277SOL    HW231962   2.467   4.113   7.000  0.3009 -0.6126 -0.3247
42278SOL     OW31963   4.852   1.592   5.832 -0.2114  0.4492 -0.2566
42278SOL    HW131964   4.808   1.620   5.752  0.9776  2.5247 -0.2295
42278SOL    HW231965   4.926   1.539   5.803 -0.0662  0.7958 -0.5268
42279SOL     OW31966   3.325   6.776   8.717 -0.3048 -0.0534  0.1099
42279SOL    HW131967   3.407   6.818   8.693 -0.8676  0.9781 -0.0271
42279SOL    HW231968   3.323   6.695   8.665  1.4266 -0.9488  1.4154
42280SOL     OW31969   2.789   9.899   1.486  0.8312 -0.5214 -0.1370
42280SOL    HW131970   2.802   9.820   1.540  0.5636 -1.8695 -2.0180
42280SOL    HW231971   2.878   9.925   1.461  0.8855 -0.5298  0.0406
42281SOL     OW31972   0.848   4.531   9.367 -0.3177  0.7349  0.2063
42281SOL    HW131973   0.793   4.507   9.292 -0.0061  1.8484 -0.3904
42281SOL    HW231974   0.853   4.451   9.419 -1.8610  0.3889 -0.1313
42282SOL     OW31975   8.649   0.918  11.324 -0.1930 -0.0934  0.4595
42282SOL    HW131976   8.619   0.830  11.302  0.8273 -1.0677  2.7653
42282SOL    HW231977   8.596   0.944  11.400  0.8844  0.4262  1.0644
42283SOL     OW31978   5.635  10.607   4.510 -0.2131  0.0432 -0.9477
42283SOL    HW131979   5.685  10.682   4.478  1.5043 -0.9737 -0.7352
42283SOL    HW231980   5.570  10.645   4.569  1.0820  1.3311 -0.2994
42284SOL     OW31981   1.026  10.815   6.377 -0.4791  0.0538 -0.1783
42284SOL    HW131982   1.080  10.893   6.390  0.1147 -0.2759 -0.6791
42284SOL    HW231983   1.087  10.742   6.377 -0.6242 -0.1260 -2.9873
42285SOL     OW31984  10.122   1.239   0.744 -0.0492  0.4544  0.4143
42285SOL    HW131985  10.095   1.305   0.680 -0.6145 -0.2109 -0.0387
42285SOL    HW231986  10.080   1.265   0.826  0.0046  0.8465  0.3171
42286SOL     OW31987   6.159   1.076   7.069 -0.1838  0.1768 -0.3170
42286SOL    HW131988   6.242   1.120   7.089 -0.0709 -0.2357  0.1496
42286SOL    HW231989   6.101   1.146   7.040 -0.0632  0.6664  0.6023
42287SOL     OW31990   5.367   3.573   5.545 -0.3835  0.0261  0.1549
42287SOL    HW131991   5.458   3.594   5.565 -0.6680  0.8567  0.6157
42287SOL    HW231992   5.343   3.507   5.610 -0.0046 -0.4723 -0.2038
42288SOL     OW31993   8.786   8.030   1.919 -0.0606 -0.3399  0.0002
42288SOL    HW131994   8.815   7.945   1.951  1.3884 -0.0801 -0.5666
42288SOL    HW231995   8.695   8.016   1.892  0.3619 -1.8828 -0.6967
42289SOL     OW31996   5.027   9.119   3.685 -0.6348 -0.5569  0.2278
42289SOL    HW131997   5.078   9.176   3.743 -2.1270  0.3575  0.6437
42289SOL    HW231998   5.073   9.035   3.690  1.9798  0.7196 -0.8975
42290SOL     OW31999   1.532   7.446   2.657  0.3641  0.0735 -0.0392
42290SOL    HW132000   1.491   7.460   2.571 -0.0921 -0.0157  0.1608
42290SOL    HW232001   1.608   7.505   2.658  0.2670  0.2059 -0.4334
42291SOL     OW32002   6.437   8.307   1.258  0.7070  0.8051  0.6295
42291SOL    HW132003   6.391   8.383   1.222 -0.0041  0.0252 -0.1351
42291SOL    HW232004   6.439   8.324   1.353 -1.1800  0.8488  0.6768
42292SOL     OW32005   3.270   6.291   7.496  0.2906  0.2202  0.0047
42292SOL    HW132006   3.347   6.312   7.549 -0.5688  0.7814  1.0321
42292SOL    HW232007   3.196   6.297   7.556 -0.5333 -0.6646 -0.8896
42293SOL     OW32008   7.764   5.049   1.337  0.5710  0.5364 -0.3776
42293SOL    HW132009   7.777   5.074   1.428  0.3250 -1.3537  0.2018
42293SOL    HW232010   7.776   5.130   1.288 -0.3137  1.7751  1.4098
42294SOL     OW32011   3.089   7.863   1.716 -0.2449  0.1650 -0.2605
42294SOL    HW132012   3.008   7.848   1.669 -0.3152 -0.5032  0.0574
42294SOL    HW232013   3.112   7.954   1.698 -2.7587  1.3627  2.2511
42295SOL     OW32014   3.230   1.275   5.165 -0.1303  0.4830 -0.3084
42295SOL    HW132015   3.269   1.362   5.163 -0.5784  0.7868  2.4292
42295SOL    HW232016   3.206   1.261   5.257 -2.8063 -1.3048 -1.2061
42296SOL     OW32017   4.737  11.225   3.410 -0.9030  0.0684 -0.1951
42296SOL    HW132018   4.731  11.313   3.446  0.3965 -0.8375  2.4160
42296SOL    HW232019   4.812  11.229   3.350 -0.8392  0.7334 -0.0780
42297SOL     OW32020  10.665   3.026  10.381 -0.3960 -0.4132 -0.3948
42297SOL    HW132021  10.586   3.017  10.328 -1.9697 -1.7890  2.1184
42297SOL    HW232022  10.635   3.067  10.462  1.3239 -1.6417  0.8998
42298SOL     OW32023   6.871   3.846   3.016  0.1883 -0.0603  0.8546
42298SOL    HW132024   6.857   3.755   3.042  1.4132 -0.7798 -0.9022
42298SOL    HW232025   6.783   3.878   2.995 -0.0944 -1.3005  0.0866
42299SOL     OW32026   1.865   4.085   2.373 -0.2394  0.5831 -0.1940
42299SOL    HW132027   1.779   4.116   2.404  0.0227 -0.3217  1.4745
42299SOL    HW232028   1.872   3.996   2.407  0.8572  0.2164 -1.3536
42300SOL     OW32029   1.974   5.154   2.213 -0.5584  0.0902 -0.1086
42300SOL    HW132030   1.882   5.165   2.238 -0.6177  0.1722 -0.3678
42300SOL    HW232031   2.005   5.082   2.269 -0.7828  0.0518 -0.0319
42301SOL     OW32032  10.047   1.405   2.312  0.2732  0.6594  0.7041
42301SOL    HW132033   9.966   1.356   2.297  0.3960  0.9084 -0.8043
42301SOL    HW232034  10.020   1.483   2.361 -0.3470  0.5592  0.5200
42302SOL     OW32035   6.117   0.573   1.355 -0.5972 -0.2740  0.1349
42302SOL    HW132036   6.059   0.628   1.408 -0.8625  0.0417 -0.4782
42302SOL    HW232037   6.173   0.529   1.419 -2.1542 -1.3268  0.8334
42303SOL     OW32038  11.279   7.706   0.548  0.0247  0.1415  0.2435
42303SOL    HW132039  11.300   7.742   0.461 -0.3397  0.4275  0.2718
42303SOL    HW232040  11.364   7.691   0.589  0.2142 -0.6378 -0.4250
42304SOL     OW32041   5.257   8.955   2.808  0.4765 -0.1452  0.2297
42304SOL    HW132042   5.243   8.955   2.902  2.4246 -1.1582  0.5480
42304SOL    HW232043   5.210   8.877   2.777  0.8348 -0.4849  0.5334
42305SOL     OW32044   3.058   4.698   8.847  0.2634 -0.5075 -0.3829
42305SOL    HW132045   3.091   4.737   8.927  1.3335 -1.6326 -0.2545
42305SOL    HW232046   2.963   4.704   8.854  0.3596 -0.3137  0.8196
42306SOL     OW32047   7.993   9.669   6.324  0.0852 -0.7537  0.2741
42306SOL    HW132048   7.958   9.658   6.236 -1.5380  0.4774  0.7354
42306SOL    HW232049   8.079   9.709   6.311 -0.9739  1.2994 -0.7193
42307SOL     OW32050   9.686  11.161   0.508 -0.2014 -0.2403  0.7594
42307SOL    HW132051   9.750  11.115   0.562 -0.9084  0.4882  2.2443
42307SOL    HW232052   9.737  11.197   0.435  0.6507 -1.7416  0.5960
42308SOL     OW32053   2.663   7.299   1.091  0.3371  0.1308  0.1108
42308SOL    HW132054   2.609   7.378   1.076  0.1787  0.1958  1.0361
42308SOL    HW232055   2.738   7.311   1.033 -0.0177  0.6460 -0.2534
42309SOL     OW32056   7.246   4.840   7.898 -0.1202  0.2765 -0.1716
42309SOL    HW132057   7.340   4.850   7.886 -0.2442  1.7998  0.0371
42309SOL    HW232058   7.231   4.862   7.990 -0.9081  1.7732 -0.6541
42310SOL     OW32059   6.184   7.106  10.349 -0.2521  0.0840  0.1540
42310SOL    HW132060   6.090   7.124  10.357 -0.3292  0.1234 -0.8197
42310SOL    HW232061   6.213   7.162  10.277  0.6090  0.3822  0.7218
42311SOL     OW32062   1.355   3.590   2.441  0.3803 -0.1811  0.1108
42311SOL    HW132063   1.338   3.587   2.536  1.1324 -0.4746  0.2386
42311SOL    HW232064   1.368   3.499   2.416  0.2741 -0.0931 -0.2652
42312SOL     OW32065   7.927  11.033   8.909 -0.5107  0.1800  0.1599
42312SOL    HW132066   7.989  11.036   8.836  0.6285 -1.7332  0.9808
42312SOL    HW232067   7.864  10.966   8.884 -0.0192 -0.6062  0.9779
42313SOL     OW32068   0.298   6.660   4.148  0.4725  0.4547 -0.1769
42313SOL    HW132069   0.330   6.570   4.149 -1.0152 -0.0989 -0.2259
42313SOL    HW232070   0.324   6.697   4.233 -0.7196 -0.6948  0.7043
42314SOL     OW32071   2.680   4.339   8.158 -0.0468  0.5929  0.3806
42314SOL    HW132072   2.624   4.411   8.129 -0.0862 -0.3564 -1.9579
42314SOL    HW232073   2.769   4.370   8.141  0.0059  0.6587  0.7619
42315SOL     OW32074   9.594  11.191  10.789 -0.3312 -0.1325  0.2679
42315SOL    HW132075   9.673  11.228  10.750 -0.7195  0.8008  0.3491
42315SOL    HW232076   9.533  11.264  10.794 -1.5313 -1.0444 -0.6410
42316SOL     OW32077   5.113   0.769   7.200 -0.6748  0.8901  0.1438
42316SOL    HW132078   5.170   0.806   7.133 -1.1634  0.9907 -0.2221
42316SOL    HW232079   5.027   0.807   7.182 -1.9793 -2.9010 -2.2858
42317SOL     OW32080   1.266   8.673   7.205 -0.3444 -0.2903  0.2932
42317SOL    HW132081   1.210   8.673   7.127  0.9284 -1.6447 -0.6352
42317SOL    HW232082   1.212   8.631   7.272 -0.6350 -1.1494 -0.4623
42318SOL     OW32083   9.277   9.040   6.839  0.3472  0.2785  0.0684
42318SOL    HW132084   9.233   9.021   6.921  0.1999 -0.2771 -0.1406
42318SOL    HW232085   9.324   8.960   6.817  0.1483  0.3271 -0.5427
42319SOL     OW32086   0.613   8.759   4.710 -0.0742 -0.1761 -0.2746
42319SOL    HW132087   0.528   8.745   4.669 -0.5970  1.0802  0.3821
42319SOL    HW232088   0.640   8.847   4.683  0.2477  0.0867  0.8714
42320SOL     OW32089   5.071   9.755   9.474 -0.2515 -0.0131  0.1511
42320SOL    HW132090   4.982   9.786   9.464 -0.0198  0.8168  0.6367
42320SOL    HW232091   5.078   9.681   9.414 -0.6305  1.2095 -1.4264
42321SOL     OW32092   0.437   0.670   6.597 -0.6738 -0.5808 -0.7168
42321SOL    HW132093   0.421   0.759   6.565  0.2155 -0.4775 -0.9040
42321SOL    HW232094   0.353   0.642   6.633 -0.8268  0.5360 -0.1651
42322SOL     OW32095   4.492   7.644   2.172  0.2317  0.1340  0.0471
42322SOL    HW132096   4.441   7.568   2.201  1.0032 -1.1411 -1.8214
42322SOL    HW232097   4.582   7.613   2.170  0.8675  1.8284  1.5275
42323SOL     OW32098   1.576   9.239   2.865  0.2165  0.1295  0.4192
42323SOL    HW132099   1.661   9.206   2.833 -1.2235 -2.6326 -0.7301
42323SOL    HW232100   1.518   9.233   2.789 -1.6867 -0.5381  1.8788
42324SOL     OW32101   0.912   0.135   7.512  0.1316 -0.5887 -0.1365
42324SOL    HW132102   0.857   0.161   7.438 -1.7579 -0.9712  1.0862
42324SOL    HW232103   0.907   0.039   7.512  0.1449 -0.5868  0.4876
42325SOL     OW32104   3.602   8.091   7.463 -0.1251 -0.7845 -0.2010
42325SOL    HW132105   3.517   8.135   7.472 -0.4937 -1.2506 -1.2516
42325SOL    HW232106   3.631   8.114   7.375  0.4125 -1.3689 -0.1793
42326SOL     OW32107   3.093   2.226   3.362 -0.3585  0.1194 -0.5308
42326SOL    HW132108   3.111   2.277   3.283 -1.7950  1.6113  0.0829
42326SOL    HW232109   3.086   2.291   3.432 -1.7546 -0.9488  0.3497
42327SOL     OW32110   1.038   6.399   0.072  0.5776 -0.1716 -0.4153
42327SOL    HW132111   1.050   6.449   0.153 -2.1132 -1.2718  0.7215
42327SOL    HW232112   1.087   6.318   0.087 -0.4920 -0.6772  0.4319
42328SOL     OW32113  10.476   6.604  10.358 -0.0550 -0.0538  0.5274
42328SOL    HW132114  10.433   6.655  10.290  1.0586 -0.1694 -0.2894
42328SOL    HW232115  10.480   6.515  10.323  0.8946 -0.0303  0.5403
42329SOL     OW32116   8.636  10.863   2.083  0.5247 -0.6331 -0.0665
42329SOL    HW132117   8.731  10.860   2.081  0.6464  2.2982 -2.1034
42329SOL    HW232118   8.608  10.834   1.996 -0.2902  1.1652 -0.4285
42330SOL     OW32119   2.158  10.788   6.226 -0.0591  0.2462 -0.0416
42330SOL    HW132120   2.232  10.818   6.279 -0.1399  0.8076 -0.2462
42330SOL    HW232121   2.115  10.722   6.280  2.0650 -1.9263 -0.9104
42331SOL     OW32122  10.346   3.342   3.829  0.2045  0.3878 -0.8854
42331SOL    HW132123  10.320   3.428   3.794  0.2831  1.3741  1.3678
42331SOL    HW232124  10.265   3.293   3.834 -0.3213  1.3437  0.4352
42332SOL     OW32125   3.367   5.833   1.122  0.0088  0.7433 -0.7431
42332SOL    HW132126   3.313   5.911   1.106 -2.6164 -0.6733  0.9083
42332SOL    HW232127   3.403   5.848   1.210 -0.4339  0.1403 -0.4586
42333SOL     OW32128   7.451   3.981   4.825 -0.4266 -0.1541  0.1468
42333SOL    HW132129   7.504   3.933   4.889 -0.0490 -0.6911 -0.5658
42333SOL    HW232130   7.490   4.068   4.823 -1.4296  0.3468  1.8235
42334SOL     OW32131   5.973   2.313  10.558  0.6332  0.1462 -0.2682
42334SOL    HW132132   5.942   2.379  10.496  1.7046  0.6722 -0.2472
42334SOL    HW232133   6.031   2.360  10.618  0.1941 -0.5089  0.6852
42335SOL     OW32134   7.569   7.475   5.323  0.4736  0.3674 -0.4586
42335SOL    HW132135   7.573   7.386   5.359  5.2407  0.0797 -1.4827
42335SOL    HW232136   7.565   7.462   5.228 -1.6596  1.2695 -0.5188
42336SOL     OW32137   9.325   3.916   9.410  0.1042  0.1027  0.0693
42336SOL    HW132138   9.339   4.006   9.381 -1.9526  0.3560 -0.1818
42336SOL    HW232139   9.230   3.906   9.415  0.3359 -1.1249  3.0045
42337SOL     OW32140   8.063   8.970   7.892  0.4296 -0.4216  0.4255
42337SOL    HW132141   8.033   8.886   7.926 -0.4625  0.4781  1.9132
42337SOL    HW232142   7.990   9.030   7.907  0.9290  0.5530 -0.9104
42338SOL     OW32143  10.156   4.077   4.387  0.3856 -0.1555  0.0337
42338SOL    HW132144  10.245   4.048   4.408  0.3848  0.1462  0.4788
42338SOL    HW232145  10.148   4.065   4.292  0.6482 -0.8688  0.1013
42339SOL     OW32146   8.188   6.602  10.869 -0.2563  0.1435  0.0973
42339SOL    HW132147   8.210   6.685  10.909 -1.1051 -0.7140  2.4499
42339SOL    HW232148   8.270   6.569  10.833  0.5857  0.8323  1.3733
42340SOL     OW32149   9.947   4.207   2.921  0.1116  0.3109  0.1592
42340SOL    HW132150   9.851   4.211   2.924  0.0439 -0.2808 -0.9062
42340SOL    HW232151   9.971   4.159   3.001 -0.3931  1.5235  1.0556
42341SOL     OW32152   2.341   7.764   6.937  1.0261 -0.4790  0.1103
42341SOL    HW132153   2.400   7.691   6.922  0.9287 -0.3934 -0.6807
42341SOL    HW232154   2.390   7.824   6.994  0.1804 -2.3299  2.8707
42342SOL     OW32155   7.330   8.929   7.872 -0.3162 -0.0148  0.2527
42342SOL    HW132156   7.317   8.957   7.962 -0.6951  0.7195 -0.0222
42342SOL    HW232157   7.411   8.973   7.845 -0.8741  0.7709 -0.1577
42343SOL     OW32158   2.706   8.936   2.351 -0.3462  0.1805 -0.5039
42343SOL    HW132159   2.674   8.925   2.440  0.3718  0.8233 -0.1601
42343SOL    HW232160   2.663   9.016   2.320  0.5030  0.7495 -0.2277
42344SOL     OW32161  10.309   4.769   6.100 -0.2680  0.1617  0.2219
42344SOL    HW132162  10.272   4.756   6.013  0.7548 -1.7777  0.0418
42344SOL    HW232163  10.342   4.859   6.100  0.0722  0.0397 -1.5266
42345SOL     OW32164   2.443   3.418   6.976 -0.1677  0.1404 -0.2273
42345SOL    HW132165   2.447   3.406   6.881 -0.1272 -0.0546 -0.1999
42345SOL    HW232166   2.352   3.444   6.993 -0.9855 -2.7352  0.0282
42346SOL     OW32167   9.114   6.377   3.856  0.8711 -0.3604 -0.0753
42346SOL    HW132168   9.205   6.372   3.887  0.8773 -1.8506 -0.3006
42346SOL    HW232169   9.115   6.448   3.791  1.8611 -0.3307 -0.0392
42347SOL     OW32170  10.120  10.848   5.968 -0.0876 -0.2645  0.0854
42347SOL    HW132171  10.049  10.834   6.031  0.1197  0.0232  0.3893
42347SOL    HW232172  10.105  10.784   5.899 -2.8611  2.2343 -1.7835
42348SOL     OW32173   5.646   3.363  10.049 -0.0577  0.4138  0.1492
42348SOL    HW132174   5.556   3.368  10.019 -0.3743 -1.8322  0.6388
42348SOL    HW232175   5.642   3.382  10.143 -0.0002  0.4133  0.1520
42349SOL     OW32176   5.362   0.825   9.823  0.0941 -0.2170 -0.2132
42349SOL    HW132177   5.415   0.869   9.890 -1.3759  0.8375  0.2947
42349SOL    HW232178   5.354   0.735   9.854 -0.9173  0.3581  1.2877
42350SOL     OW32179  10.371   4.650   6.523  0.3120 -0.5722 -0.5411
42350SOL    HW132180  10.326   4.574   6.485  0.3844 -0.7523 -0.2684
42350SOL    HW232181  10.395   4.704   6.447  0.4829 -0.9456 -0.7571
42351SOL     OW32182   3.256   0.127   8.939 -0.1511  0.1902  0.0266
42351SOL    HW132183   3.275   0.101   8.849 -1.3169 -1.2107  0.1662
42351SOL    HW232184   3.337   0.111   8.987  0.8763  2.1201 -0.9928
42352SOL     OW32185   3.857   9.172   9.322  0.0247 -0.1392  0.5911
42352SOL    HW132186   3.934   9.224   9.343 -0.0020  0.3119 -0.4049
42352SOL    HW232187   3.783   9.231   9.339 -0.0376 -0.1247  0.2825
42353SOL     OW32188  11.226   1.377  10.519  0.4085  0.4484 -0.3041
42353SOL    HW132189  11.248   1.460  10.476 -1.7677  1.2903  0.1216
42353SOL    HW232190  11.275   1.379  10.600  0.5388  1.2440 -0.3956
42354SOL     OW32191  11.309  11.265   3.111  0.4970 -0.1079  0.0288
42354SOL    HW132192  11.332  11.282   3.203  1.6010  2.1156 -0.6290
42354SOL    HW232193  11.392  11.242   3.070  0.4900  1.6439 -0.9970
42355SOL     OW32194  10.039   2.740   2.066  0.1459 -0.2823  0.6584
42355SOL    HW132195   9.995   2.723   2.149 -1.8386  0.0550 -0.2943
42355SOL    HW232196  10.042   2.836   2.059 -2.1007 -0.2925 -0.8641
42356SOL     OW32197   6.684   6.401   2.328 -0.5384 -0.3904  0.7893
42356SOL    HW132198   6.599   6.394   2.283 -0.8747  0.5816  1.2421
42356SOL    HW232199   6.665   6.457   2.404  0.9535  1.6074 -0.2591
42357SOL     OW32200   4.002   9.722  10.936 -0.1505  0.1370 -0.1478
42357SOL    HW132201   3.973   9.634  10.960 -1.5421  1.0342  1.5638
42357SOL    HW232202   3.946   9.748  10.863 -0.9164  0.2606  0.4753
42358SOL     OW32203   0.969   2.274   1.908  0.3143 -0.0169  0.1383
42358SOL    HW132204   0.968   2.316   1.994 -0.3081 -1.4172  0.8387
42358SOL    HW232205   0.999   2.342   1.848  0.5151  1.0492  1.4261
42359SOL     OW32206   6.516  11.200   8.622 -0.0310  0.3496  0.1068
42359SOL    HW132207   6.460  11.278   8.621 -1.3290 -0.5491  0.6164
42359SOL    HW232208   6.532  11.184   8.715  1.2345  0.7053 -0.0479
42360SOL     OW32209   7.435   7.709   3.213  0.0445  0.0486 -0.3032
42360SOL    HW132210   7.501   7.747   3.154 -0.3420  1.2462  0.0224
42360SOL    HW232211   7.352   7.724   3.168 -0.1474 -0.0960  0.0041
42361SOL     OW32212   5.557   4.461  10.882 -0.3698 -0.3548 -0.4251
42361SOL    HW132213   5.601   4.477  10.966 -1.0365 -0.4263 -0.0595
42361SOL    HW232214   5.594   4.526  10.823  0.7289 -0.8511 -0.3042
42362SOL     OW32215   6.675  11.258   5.083 -0.0161  0.2059  0.1743
42362SOL    HW132216   6.627  11.335   5.054  0.6804  0.9913  1.0960
42362SOL    HW232217   6.753  11.256   5.028 -1.4526 -1.5369 -1.8985
42363SOL     OW32218   2.826   4.551  10.098  0.2806  0.2973 -0.6402
42363SOL    HW132219   2.793   4.463  10.082  2.0336 -0.8630  1.7082
42363SOL    HW232220   2.762   4.590  10.158  1.5949 -0.9331  1.6491
42364SOL     OW32221   2.667   1.517   8.158  0.1907 -0.5628  0.3281
42364SOL    HW132222   2.705   1.591   8.205  1.1001  0.1846 -1.5294
42364SOL    HW232223   2.583   1.501   8.202  0.9588  0.1651  2.1099
42365SOL     OW32224   0.974   7.742   5.392 -0.0317 -0.0186 -0.5572
42365SOL    HW132225   0.961   7.687   5.469  0.6948  0.4613 -0.0823
42365SOL    HW232226   0.944   7.688   5.319 -0.3023 -0.6486  0.0126
42366SOL     OW32227   6.012   3.870   5.369  0.1961 -0.0135 -0.2247
42366SOL    HW132228   6.071   3.917   5.428  0.6270  0.9127 -1.3763
42366SOL    HW232229   5.940   3.841   5.425 -0.9145  3.4381  0.2102
42367SOL     OW32230   3.033  11.193   4.015 -0.5030 -0.0735 -0.2426
42367SOL    HW132231   3.064  11.161   4.100 -0.7913 -1.4358 -0.6270
42367SOL    HW232232   3.034  11.288   4.023  2.1235 -0.1163  0.3371
42368SOL     OW32233   4.935   0.989   2.225  0.5240 -0.1146 -0.0611
42368SOL    HW132234   4.965   1.053   2.290  0.3649 -0.5978  0.4979
42368SOL    HW232235   5.015   0.951   2.189  0.6253 -2.1095  2.1325
42369SOL     OW32236   9.217   9.427   0.406  0.4159 -0.1146 -0.4462
42369SOL    HW132237   9.192   9.409   0.497  0.3472  1.0722 -0.2213
42369SOL    HW232238   9.254   9.515   0.409  1.7220 -0.6254 -1.3261
42370SOL     OW32239   3.890   8.187   8.961  0.2549 -0.3132  0.4904
42370SOL    HW132240   3.840   8.266   8.941 -0.3941 -0.6527  0.7647
42370SOL    HW232241   3.914   8.196   9.053  2.4903  0.8317 -0.1576
42371SOL     OW32242   4.275   2.715   8.235  0.3157  0.0826 -0.0574
42371SOL    HW132243   4.265   2.800   8.277  1.8015  0.0702  0.3334
42371SOL    HW232244   4.246   2.729   8.145 -0.2379  0.7861  0.2214
42372SOL     OW32245   2.481   3.446   8.521 -0.1157  0.0743 -0.0778
42372SOL    HW132246   2.567   3.413   8.548  0.2664  0.3993 -0.8793
42372SOL    HW232247   2.454   3.388   8.451 -1.5152 -1.3113  1.5730
42373SOL     OW32248   4.353   7.000   9.017 -0.3845 -0.3078  0.0993
42373SOL    HW132249   4.373   6.922   8.966  1.1514 -0.7853  1.3575
42373SOL    HW232250   4.412   7.068   8.982  1.5078 -0.9383  1.8989
42374SOL     OW32251   9.853   6.923   3.196 -0.2639  0.6489  0.2870
42374SOL    HW132252   9.794   6.986   3.155 -0.9774 -0.3823 -0.2754
42374SOL    HW232253   9.914   6.897   3.127 -2.6448 -2.5451 -0.7412
42375SOL     OW32254   1.453   1.687   1.622  0.0834  1.0257 -0.1586
42375SOL    HW132255   1.478   1.757   1.562 -0.9774  2.0692  0.5796
42375SOL    HW232256   1.371   1.718   1.662 -0.5876 -0.7910 -0.0764
42376SOL     OW32257   7.880   7.548   9.574  0.4522 -0.0543 -0.0237
42376SOL    HW132258   7.942   7.619   9.593  1.9452 -1.1603 -0.6230
42376SOL    HW232259   7.862   7.509   9.660  0.2528  0.5473  0.2100
42377SOL     OW32260   2.565   9.725   1.448 -0.5476  0.3950  0.1325
42377SOL    HW132261   2.569   9.681   1.533  1.3989 -0.4260 -0.3419
42377SOL    HW232262   2.639   9.786   1.450 -0.6721  0.5758 -0.8477
42378SOL     OW32263   9.499   1.455   4.799 -0.0690  0.2654 -0.2009
42378SOL    HW132264   9.538   1.539   4.821  0.3109 -0.2174  1.0530
42378SOL    HW232265   9.405   1.468   4.810  0.0671  0.2211  1.1640
42379SOL     OW32266   2.897   6.871  11.170  0.3010 -0.4328 -0.2798
42379SOL    HW132267   2.862   6.888  11.083  1.1067  1.8828 -0.1765
42379SOL    HW232268   2.991   6.865  11.158  0.3762 -0.6542  0.3591
42380SOL     OW32269   1.342   9.946  10.702 -0.0099 -0.2427  0.3392
42380SOL    HW132270   1.424   9.932  10.654  0.0572 -1.6640  0.8520
42380SOL    HW232271   1.281   9.979  10.636  0.5758 -0.5090 -0.3512
42381SOL     OW32272   9.875  10.995   2.866 -0.3188 -0.3238  0.6573
42381SOL    HW132273   9.888  11.084   2.832  0.6943 -0.0931  1.6342
42381SOL    HW232274   9.902  10.938   2.794  2.4045  0.1575  1.2638
42382SOL     OW32275   6.003   9.658  10.258 -0.1426 -0.0364  0.0370
42382SOL    HW132276   5.981   9.664  10.165 -1.3436  1.4453  0.3869
42382SOL    HW232277   5.985   9.745  10.292  1.4778 -0.2241  1.4226
42383SOL     OW32278   8.878  10.079   7.780 -0.5946  0.1200  0.0500
42383SOL    HW132279   8.838  10.164   7.762  0.9577  0.8855  0.1503
42383SOL    HW232280   8.963  10.082   7.736  0.0161 -0.8761  1.1334
42384SOL     OW32281   3.476   2.420   7.595  0.2233  0.3781 -0.2829
42384SOL    HW132282   3.539   2.428   7.667 -0.0727  0.3111 -0.0125
42384SOL    HW232283   3.502   2.487   7.532 -0.0387  1.0199  0.2874
42385SOL     OW32284  10.056   1.737   6.195  0.0388 -0.0312  0.3735
42385SOL    HW132285   9.980   1.794   6.182  0.0737 -0.3066 -1.0889
42385SOL    HW232286  10.047   1.669   6.128  0.6049 -1.1123  1.3764
42386SOL     OW32287   0.574  10.053   4.914 -0.7110  0.3526 -0.1985
42386SOL    HW132288   0.593  10.146   4.914  0.9216  0.0293 -0.1982
42386SOL    HW232289   0.501  10.044   4.975  0.7345  1.3284  1.7287
42387SOL     OW32290   8.248   9.869   7.063 -0.3628  0.1069  0.1094
42387SOL    HW132291   8.264   9.777   7.041 -1.1761 -0.5085  1.9832
42387SOL    HW232292   8.325   9.915   7.029 -0.0842 -1.2215 -1.1055
42388SOL     OW32293   6.616  10.121   9.760 -0.3453 -0.4914 -0.5165
42388SOL    HW132294   6.535  10.172   9.761 -0.7552 -1.1321  1.3986
42388SOL    HW232295   6.684  10.184   9.736 -0.6302  1.3187  3.1921
42389SOL     OW32296  10.397   4.543   2.497 -0.9080 -0.4200  0.2886
42389SOL    HW132297  10.378   4.495   2.416 -1.6094 -0.1664  0.2940
42389SOL    HW232298  10.367   4.486   2.567  1.0475 -1.2746  0.4550
42390SOL     OW32299  10.137   4.712   2.519  0.0533 -0.0003  0.3209
42390SOL    HW132300  10.215   4.711   2.464 -1.3606  0.9445 -1.7582
42390SOL    HW232301  10.099   4.625   2.507  1.3836 -0.8831  2.2691
42391SOL     OW32302   2.896   6.092   8.395  0.8090  0.0836  0.0621
42391SOL    HW132303   2.980   6.062   8.360  0.0917 -0.0389 -1.6293
42391SOL    HW232304   2.900   6.187   8.389  0.1116  0.0261 -1.8555
42392SOL     OW32305   1.642   2.784   4.746 -0.1455  0.2571  0.0383
42392SOL    HW132306   1.707   2.777   4.676  0.2075  1.7680  0.1965
42392SOL    HW232307   1.618   2.877   4.748  0.1481  0.3273  2.1716
42393SOL     OW32308   7.137   5.657   5.993  0.5870  0.4259  0.0550
42393SOL    HW132309   7.148   5.564   6.014  1.2619  0.7800  1.2820
42393SOL    HW232310   7.047   5.677   6.016  1.1024  0.6307  1.9569
42394SOL     OW32311   4.682   1.249   4.814 -0.4835 -0.5988  0.1547
42394SOL    HW132312   4.766   1.265   4.773 -0.8677  0.8809 -0.0850
42394SOL    HW232313   4.699   1.257   4.908 -0.5917  0.9612  0.0581
42395SOL     OW32314   5.773   6.458  10.634  0.3715 -1.0677 -0.4029
42395SOL    HW132315   5.769   6.398  10.560  2.5635 -0.9188 -0.6685
42395SOL    HW232316   5.809   6.406  10.706 -0.7443 -0.9231  0.2866
42396SOL     OW32317  10.154   9.813  11.268 -0.4299  0.2287 -0.2871
42396SOL    HW132318  10.182   9.765  11.190 -0.0298  1.0764 -0.6590
42396SOL    HW232319  10.235   9.834  11.314 -0.7164 -1.5064  1.1111
42397SOL     OW32320   6.283   9.154   5.473  0.6252 -0.5113  0.2945
42397SOL    HW132321   6.234   9.118   5.547  0.5640 -1.2041 -0.0844
42397SOL    HW232322   6.317   9.238   5.506  2.2591 -1.7230  1.7804
42398SOL     OW32323  10.157   6.551   0.877  0.4370 -0.2326 -0.4148
42398SOL    HW132324  10.072   6.520   0.909  0.0699  1.1780 -0.0098
42398SOL    HW232325  10.165   6.511   0.790 -0.7888 -0.1201 -0.5939
42399SOL     OW32326   7.326   5.835   5.543 -0.3969  0.8493 -0.2136
42399SOL    HW132327   7.244   5.862   5.585 -2.1250 -0.0821 -2.8193
42399SOL    HW232328   7.320   5.740   5.537  1.5215  0.6397  0.7666
42400SOL     OW32329   3.214   5.082   5.713 -0.3625  0.1863 -0.3871
42400SOL    HW132330   3.121   5.103   5.725 -0.0219  0.8802  1.1972
42400SOL    HW232331   3.238   5.035   5.792  1.1375  1.8246  0.1545
42401SOL     OW32332   5.416  11.093   8.194  0.1276 -0.3558  0.0406
42401SOL    HW132333   5.373  11.177   8.210  0.9903 -0.3979  2.7448
42401SOL    HW232334   5.504  11.115   8.165 -0.2498 -0.3280 -1.1141
42402SOL     OW32335   8.572   1.154   8.051  0.0161  0.1640 -0.6149
42402SOL    HW132336   8.653   1.172   8.099  0.8792 -1.5238 -1.4055
42402SOL    HW232337   8.532   1.080   8.097 -0.4267  0.1718 -0.9840
42403SOL     OW32338   7.294   2.653   9.579 -0.1335 -0.3785 -0.7166
42403SOL    HW132339   7.328   2.658   9.489  0.3220  0.4534 -0.5051
42403SOL    HW232340   7.249   2.569   9.583 -0.3790 -0.3042 -1.8034
42404SOL     OW32341   6.781   2.223   6.969  0.2685  0.4034 -1.0151
42404SOL    HW132342   6.736   2.259   6.893  1.8911  1.7023 -1.3890
42404SOL    HW232343   6.821   2.299   7.011 -0.2390 -0.3593  0.8901
42405SOL     OW32344   6.693   9.139   4.602 -0.1005 -0.0491 -0.4678
42405SOL    HW132345   6.749   9.095   4.538  2.1768  0.4049  1.1660
42405SOL    HW232346   6.660   9.216   4.557  0.3837 -0.4624 -1.5392
42406SOL     OW32347   0.565   3.685   1.723 -0.0224  0.3054 -0.4409
42406SOL    HW132348   0.533   3.765   1.766 -0.1491 -0.0871  0.2092
42406SOL    HW232349   0.628   3.649   1.786 -0.8487 -0.7337 -0.2074
42407SOL     OW32350   6.258   6.121   5.183 -0.0946 -0.3151  0.0720
42407SOL    HW132351   6.179   6.075   5.212 -0.7398  0.5359 -0.3285
42407SOL    HW232352   6.324   6.099   5.249 -0.2578 -2.1943 -0.3493
42408SOL     OW32353   1.345   5.264   6.398  0.2062 -0.0393 -0.1439
42408SOL    HW132354   1.306   5.186   6.359 -0.6273  0.5267 -0.4678
42408SOL    HW232355   1.337   5.250   6.492  0.7362 -0.6795 -0.1935
42409SOL     OW32356   6.785   4.776   8.214  0.3939 -0.2733 -0.1354
42409SOL    HW132357   6.699   4.759   8.176  0.7161  0.3173 -1.1229
42409SOL    HW232358   6.843   4.712   8.172  0.5311 -0.3584  0.1809
42410SOL     OW32359   8.537   7.909   8.545  0.0746 -0.5092 -0.6248
42410SOL    HW132360   8.561   7.988   8.595 -1.5093  0.2183 -0.9938
42410SOL    HW232361   8.518   7.942   8.457  0.2582 -1.4372 -1.0146
42411SOL     OW32362   0.184   7.605  10.047  0.1919  0.5761  0.3291
42411SOL    HW132363   0.141   7.690  10.057  3.4941  2.5559 -1.3669
42411SOL    HW232364   0.251   7.604  10.116  0.6263 -0.3267 -0.1075
42412SOL     OW32365   0.219   1.354  10.830  0.0040 -0.2620 -0.3771
42412SOL    HW132366   0.221   1.312  10.916  1.0156  1.3183  0.3873
42412SOL    HW232367   0.126   1.365  10.811 -0.2192 -0.1189  0.7635
42413SOL     OW32368   1.339   4.169   6.947  0.2352  0.0166  0.0458
42413SOL    HW132369   1.387   4.088   6.932  1.3005  0.3668  1.5616
42413SOL    HW232370   1.355   4.221   6.868 -0.7902 -1.3902 -1.1177
42414SOL     OW32371   5.748   3.258  10.970 -0.5077  0.0120  0.3529
42414SOL    HW132372   5.698   3.179  10.989  0.6498 -0.5568  1.0906
42414SOL    HW232373   5.698   3.329  11.009 -0.9458 -0.5040  0.7240
42415SOL     OW32374   9.755   2.483   3.902 -0.1519  0.1066  0.0908
42415SOL    HW132375   9.849   2.486   3.919 -0.4510  1.1586  1.7771
42415SOL    HW232376   9.729   2.393   3.921  1.0852 -1.1738 -3.9097
42416SOL     OW32377   2.762   9.452   1.290 -0.3834 -0.0603 -0.4182
42416SOL    HW132378   2.691   9.513   1.270  0.5021  1.5017  1.0711
42416SOL    HW232379   2.818   9.454   1.213  0.4226  2.1895  0.1751
42417SOL     OW32380  10.730  10.694   2.534 -0.1711 -0.0940 -0.2663
42417SOL    HW132381  10.726  10.767   2.595  0.7040 -0.8816  0.7490
42417SOL    HW232382  10.645  10.650   2.543  1.0850 -2.0173  2.6799
42418SOL     OW32383   7.815   8.022   8.612 -0.1771 -0.1393  0.4433
42418SOL    HW132384   7.764   7.963   8.557  0.1143 -0.6675  0.7351
42418SOL    HW232385   7.878   8.062   8.552 -2.0977  1.9009 -0.2938
42419SOL     OW32386  10.452  10.301   2.537  0.1564 -0.6638  0.4616
42419SOL    HW132387  10.525  10.268   2.484  0.2183 -0.0170  0.1319
42419SOL    HW232388  10.374  10.281   2.484  0.0962 -1.2970  0.7838
42420SOL     OW32389   3.033   0.792   0.380 -0.2654  0.5260 -0.0522
42420SOL    HW132390   3.009   0.839   0.459  0.0736  1.0013 -0.2322
42420SOL    HW232391   2.961   0.810   0.319 -0.8487 -0.3733  0.3630
42421SOL     OW32392   6.926   0.718   9.273 -0.0632  0.1256 -0.3599
42421SOL    HW132393   6.952   0.666   9.349  0.0645  1.0186  0.2166
42421SOL    HW232394   6.965   0.672   9.198 -0.2043 -0.7662  0.1066
42422SOL     OW32395   6.711   7.272  10.235 -0.2616  0.1990  0.2383
42422SOL    HW132396   6.730   7.239  10.323 -0.6460  1.0059  0.6273
42422SOL    HW232397   6.790   7.321  10.211 -0.4809  0.6687  0.4683
42423SOL     OW32398   3.781   4.643   2.880  0.7870 -0.2183 -0.1470
42423SOL    HW132399   3.699   4.692   2.885  1.1052  0.4466 -1.2046
42423SOL    HW232400   3.761   4.559   2.922  0.9338  1.6717  3.9254
42424SOL     OW32401   2.611  10.476   5.298 -0.6391  0.6769  0.9469
42424SOL    HW132402   2.561  10.402   5.332 -0.3109  0.0316  0.0543
42424SOL    HW232403   2.577  10.489   5.209  1.7192 -0.6668 -0.1896
42425SOL     OW32404   1.756   7.682   9.717 -0.6662 -0.6335  0.0345
42425SOL    HW132405   1.682   7.735   9.747  0.8901  1.4349  0.3715
42425SOL    HW232406   1.717   7.599   9.691 -3.0994  0.3730  0.2820
42426SOL     OW32407   3.612   2.326   3.921 -0.4492 -0.1672  0.3016
42426SOL    HW132408   3.549   2.260   3.893  0.1784 -1.0195  0.8831
42426SOL    HW232409   3.565   2.380   3.984 -1.5049  1.0214 -1.4695
42427SOL     OW32410  10.473   2.757   2.022  0.0586  0.0781  0.1230
42427SOL    HW132411  10.492   2.768   2.115 -0.8469 -1.1111  0.4660
42427SOL    HW232412  10.482   2.845   1.985  2.9195  0.1362  0.8386
42428SOL     OW32413   9.243   1.637   9.385  0.4505  0.2971  0.5017
42428SOL    HW132414   9.325   1.617   9.338  0.0919  0.9092 -0.3951
42428SOL    HW232415   9.236   1.732   9.381 -0.5392  0.2089  0.2004
42429SOL     OW32416   2.222   5.606   2.377  0.1120 -0.2088  0.0345
42429SOL    HW132417   2.128   5.588   2.383 -0.4267  1.8447 -1.8552
42429SOL    HW232418   2.252   5.550   2.305 -0.0848  0.7280 -0.7796
42430SOL     OW32419   7.076   2.029   0.983  0.3235  0.6043  0.0641
42430SOL    HW132420   7.015   2.048   0.911 -0.0813 -0.2864  0.1631
42430SOL    HW232421   7.051   2.090   1.052 -0.4428  0.2758  0.0881
42431SOL     OW32422  10.898   0.177   6.981 -0.4640  0.5338  0.1056
42431SOL    HW132423  10.964   0.180   7.050  0.5388  0.7451 -0.8458
42431SOL    HW232424  10.820   0.142   7.024  0.4256 -0.2575  1.1229
42432SOL     OW32425  10.261   2.050   6.714 -0.1504  0.5835 -0.2158
42432SOL    HW132426  10.280   1.968   6.759 -0.1311  1.0435  0.6152
42432SOL    HW232427  10.233   2.110   6.783 -0.8725  1.0679 -0.9128
42433SOL     OW32428  10.517   0.059   2.174 -0.1842  0.2374 -0.2667
42433SOL    HW132429  10.538   0.140   2.127 -0.1981 -0.3039 -1.2144
42433SOL    HW232430  10.427   0.038   2.147 -0.7348  0.7056  1.1371
42434SOL     OW32431   5.989   8.362   1.019 -0.2186  0.2699  0.4746
42434SOL    HW132432   5.946   8.282   1.048  0.5194 -0.2046  0.2616
42434SOL    HW232433   6.077   8.358   1.057 -0.2841  1.1381  0.7394
42435SOL     OW32434  10.029  10.776   7.292  0.1496  0.6123  0.2594
42435SOL    HW132435  10.068  10.815   7.370 -0.0473  1.3882 -0.0248
42435SOL    HW232436   9.935  10.789   7.302  0.1161  0.6507 -0.0749
42436SOL     OW32437   5.254   4.600   8.160 -0.1847  0.2812  0.3769
42436SOL    HW132438   5.164   4.575   8.184  0.0407 -2.0876 -1.0486
42436SOL    HW232439   5.306   4.574   8.236 -0.2362 -1.9049 -0.2812
42437SOL     OW32440   3.985   4.703   1.449  0.5685  0.2383  0.4731
42437SOL    HW132441   3.929   4.751   1.389 -1.1823  1.0496  2.6734
42437SOL    HW232442   3.965   4.611   1.433 -0.5444  0.4860  0.4290
42438SOL     OW32443   3.887   5.991   5.289 -0.2414  0.1433  0.4744
42438SOL    HW132444   3.945   5.998   5.213 -3.2703  0.5368 -1.9030
42438SOL    HW232445   3.837   6.073   5.288 -3.0065 -1.4967  0.5641
42439SOL     OW32446   7.998  11.278   5.022 -0.8503 -0.2634 -0.1543
42439SOL    HW132447   7.907  11.250   5.029 -0.3540 -2.0670 -0.7674
42439SOL    HW232448   8.039  11.247   5.103 -0.9993  1.4499  0.6004
42440SOL     OW32449   7.096   7.442   0.137  0.1936  0.7069  0.2461
42440SOL    HW132450   7.013   7.471   0.174 -0.7145  1.0714 -1.9865
42440SOL    HW232451   7.072   7.366   0.082  1.1805  1.3568 -1.1016
42441SOL     OW32452   9.323   4.465   1.932  0.3687  0.5609 -0.1605
42441SOL    HW132453   9.351   4.387   1.982  2.7815  0.8308 -1.0285
42441SOL    HW232454   9.394   4.527   1.944 -0.5309  1.8331 -1.3318
42442SOL     OW32455   4.857   6.766   0.403  0.6785  0.2018  0.3096
42442SOL    HW132456   4.820   6.718   0.476  0.5075  0.1916  0.2160
42442SOL    HW232457   4.909   6.702   0.355  0.4571  0.1125  0.1892
42443SOL     OW32458   0.600   1.892   8.502  0.2493 -0.2236  0.1062
42443SOL    HW132459   0.552   1.810   8.515  0.4798 -0.8420 -2.7254
42443SOL    HW232460   0.687   1.866   8.474  1.0036  0.9886  1.2298
42444SOL     OW32461   1.620   9.613   6.818  0.1497  0.1424 -0.0582
42444SOL    HW132462   1.615   9.554   6.893 -0.3535 -0.3995 -0.5120
42444SOL    HW232463   1.615   9.701   6.856 -0.6538 -0.1435  0.4995
42445SOL     OW32464   1.719   8.867   4.618 -0.0372  0.1040  0.0686
42445SOL    HW132465   1.742   8.856   4.525 -1.3373  1.5967 -0.4530
42445SOL    HW232466   1.703   8.960   4.628 -1.4368 -0.2570  1.4306
42446SOL     OW32467   7.735   1.210   1.516 -0.2261 -0.3280  0.0476
42446SOL    HW132468   7.729   1.142   1.583 -1.5083 -0.2751  0.0032
42446SOL    HW232469   7.653   1.203   1.467  0.2892  0.2547 -0.9187
42447SOL     OW32470  11.004  10.177   8.438 -0.8634  0.5942 -0.6322
42447SOL    HW132471  10.933  10.234   8.468 -0.7989  0.7011 -0.6812
42447SOL    HW232472  10.965  10.090   8.434 -0.4816  0.3387  1.0899
42448SOL     OW32473   6.991   6.988   9.460  0.1788 -0.0556 -0.1221
42448SOL    HW132474   6.906   7.031   9.468 -0.5438 -1.4716 -0.0483
42448SOL    HW232475   7.016   6.967   9.550  1.0786  1.2278 -0.0583
42449SOL     OW32476   6.411   5.971  10.129 -0.3517 -0.0920 -0.2497
42449SOL    HW132477   6.317   5.975  10.146 -0.1339  1.2479  0.7191
42449SOL    HW232478   6.449   5.942  10.212 -0.0384 -2.2755 -1.1267
42450SOL     OW32479   2.665  11.323   1.382 -0.3154  0.3244 -0.5173
42450SOL    HW132480   2.578  11.305   1.348 -0.1503  0.4334 -1.0104
42450SOL    HW232481   2.685  11.411   1.349  0.7244 -0.4235 -1.9651
42451SOL     OW32482  10.733   7.028  11.103  0.4360  0.0555  0.1597
42451SOL    HW132483  10.758   7.022  11.195 -1.0161 -0.1247  0.5516
42451SOL    HW232484  10.724   6.938  11.074  0.9429  0.1103 -0.1891
42452SOL     OW32485   8.664   2.115   8.194 -0.2990  0.0751  0.2062
42452SOL    HW132486   8.676   2.022   8.214 -2.3520 -0.4049 -0.6813
42452SOL    HW232487   8.616   2.150   8.269 -0.4255  0.1900  0.0739
42453SOL     OW32488   1.655   1.078   2.166 -0.2279  0.1565  0.4302
42453SOL    HW132489   1.603   1.034   2.234  1.0073 -1.6715  0.2431
42453SOL    HW232490   1.651   1.171   2.189 -1.2378 -0.2515  2.0269
42454SOL     OW32491   2.058   6.633   4.253  0.2468 -0.6836  0.3127
42454SOL    HW132492   2.139   6.664   4.293 -0.3889 -0.4741  1.4506
42454SOL    HW232493   2.005   6.711   4.243  0.8391 -0.5385 -2.0382
42455SOL     OW32494   9.751   8.158   5.916  0.1368 -0.7496 -0.5317
42455SOL    HW132495   9.761   8.188   6.006 -0.6330  0.8451 -0.9469
42455SOL    HW232496   9.663   8.187   5.891  0.2059 -1.4945 -1.6690
42456SOL     OW32497   5.326   6.726   0.231  0.6013  0.0154  0.0497
42456SOL    HW132498   5.366   6.643   0.258 -0.8309 -0.3917  1.0017
42456SOL    HW232499   5.260   6.700   0.166  0.2805  0.4231  0.2081
42457SOL     OW32500   6.844   6.956  11.265  0.0450  0.2803  0.0118
42457SOL    HW132501   6.760   6.930  11.229 -0.1497  2.5619 -1.3208
42457SOL    HW232502   6.836   6.943  11.359 -1.6358  0.0231 -0.1560
42458SOL     OW32503   3.464   0.711   7.949 -0.0475  0.0580 -0.1533
42458SOL    HW132504   3.554   0.693   7.974 -0.3510 -1.1231  0.1206
42458SOL    HW232505   3.471   0.759   7.867  0.7945 -1.6119 -1.0896
42459SOL     OW32506   0.794   7.213  10.314 -0.1157 -0.1436 -0.5108
42459SOL    HW132507   0.712   7.166  10.302 -0.9972  1.3044 -0.2415
42459SOL    HW232508   0.861   7.144  10.317 -1.1554 -1.2473 -2.0044
42460SOL     OW32509   6.121   4.232   5.462  0.1811 -0.3350 -0.3737
42460SOL    HW132510   6.179   4.161   5.490 -0.3375  0.0984  1.8981
42460SOL    HW232511   6.170   4.279   5.395  1.5929 -1.2237  0.0258
42461SOL     OW32512   9.064   1.223   3.303 -0.2831 -1.1691  0.2247
42461SOL    HW132513   9.106   1.300   3.341  0.6032 -1.1808 -0.7064
42461SOL    HW232514   8.970   1.239   3.313 -0.1098  0.2608 -0.4133
42462SOL     OW32515   5.675   3.311   3.961  0.4649 -0.5245  0.3308
42462SOL    HW132516   5.709   3.249   3.897 -0.8803 -1.9395  0.9493
42462SOL    HW232517   5.672   3.262   4.043 -0.7824  0.2773  0.7835
42463SOL     OW32518   3.111   7.037   5.578 -0.2564  0.3254  0.4064
42463SOL    HW132519   3.201   7.068   5.588 -1.0248  2.1613  2.0041
42463SOL    HW232520   3.064   7.110   5.539 -0.9572 -0.8517 -1.0350
42464SOL     OW32521   5.778   0.215  10.159  0.2243 -0.5196  0.4442
42464SOL    HW132522   5.771   0.121  10.142  1.8482 -0.7959  1.2591
42464SOL    HW232523   5.748   0.225  10.250  1.8230 -0.5122  0.9773
42465SOL     OW32524   2.915   5.031   4.068 -0.4258  0.1731  0.4305
42465SOL    HW132525   3.001   5.067   4.044 -0.4504 -0.2009 -0.2372
42465SOL    HW232526   2.911   4.947   4.023 -2.0787  1.2002 -1.4527
42466SOL     OW32527   0.375   9.572   2.590 -0.4356  0.1739 -0.7774
42466SOL    HW132528   0.342   9.572   2.680 -1.1831  0.9430 -1.0443
42466SOL    HW232529   0.312   9.519   2.541  0.7690 -1.4865 -0.5770
42467SOL     OW32530  10.471   9.227   3.444  0.5341 -0.4151  0.2252
42467SOL    HW132531  10.434   9.177   3.517 -1.5021 -1.3325 -1.4019
42467SOL    HW232532  10.485   9.162   3.375 -0.8604  1.0133 -1.4386
42468SOL     OW32533  10.129   5.155   7.308 -0.4781  0.1931 -0.2282
42468SOL    HW132534  10.119   5.250   7.302 -1.3314  0.0382 -1.6043
42468SOL    HW232535  10.039   5.122   7.306 -0.2128 -0.6115  0.8844
42469SOL     OW32536   9.986   0.114   5.221 -0.0370 -0.4678 -0.0935
42469SOL    HW132537  10.008   0.102   5.314  2.0296 -0.8353 -0.6044
42469SOL    HW232538   9.891   0.117   5.219 -0.0548  3.1871  2.4687
42470SOL     OW32539   3.396   3.933   2.637 -0.1474  0.5117  0.1458
42470SOL    HW132540   3.303   3.936   2.613 -0.0414 -1.1105 -0.5338
42470SOL    HW232541   3.396   3.913   2.731 -0.4950  1.2550  0.3044
42471SOL     OW32542   5.252   1.803   0.325 -0.1205  0.0101  0.0976
42471SOL    HW132543   5.310   1.816   0.250  0.3068  0.5912  0.5211
42471SOL    HW232544   5.307   1.822   0.401 -0.6526 -0.2089  0.5374
42472SOL     OW32545   8.410   0.849   2.020 -0.2819  0.0491 -0.2199
42472SOL    HW132546   8.368   0.902   1.952 -2.0087 -0.0387  0.7522
42472SOL    HW232547   8.338   0.799   2.059  0.7310 -0.1229  1.4649
42473SOL     OW32548   1.966   8.895  11.140 -0.2307 -0.1958  0.0945
42473SOL    HW132549   1.941   8.827  11.078 -0.4444 -0.5397  0.5499
42473SOL    HW232550   1.892   8.901  11.200 -0.5077  0.9284 -0.3500
42474SOL     OW32551   1.847   0.706   1.697 -0.1565  0.0501 -0.2312
42474SOL    HW132552   1.889   0.770   1.640 -1.4207  0.1334 -1.0854
42474SOL    HW232553   1.888   0.719   1.782  0.0142  1.5971 -0.5434
42475SOL     OW32554  10.042   9.040  11.172 -0.3752 -0.2335  0.5636
42475SOL    HW132555  10.136   9.051  11.156 -1.2012  0.6970 -4.4500
42475SOL    HW232556  10.005   9.128  11.166 -1.9576 -0.9508 -0.6631
42476SOL     OW32557   9.769   4.159   5.132 -0.0508  0.1519 -0.3392
42476SOL    HW132558   9.851   4.110   5.124  0.6608  0.9122  1.9636
42476SOL    HW232559   9.762   4.206   5.048  1.4772 -0.5076 -0.8658
42477SOL     OW32560   8.419   3.625   3.021  0.3967  0.0839 -0.3070
42477SOL    HW132561   8.402   3.579   2.938 -0.8340  2.7434 -1.6067
42477SOL    HW232562   8.335   3.622   3.067  0.4259  0.5895 -0.2102
42478SOL     OW32563   0.551  10.312   2.018 -0.1548  0.4139  0.1756
42478SOL    HW132564   0.577  10.260   1.942  1.8601 -0.2706  1.3126
42478SOL    HW232565   0.475  10.265   2.054  1.5594 -1.6897  1.1110
42479SOL     OW32566   5.566   9.115  10.933 -0.5850 -0.1888  0.2267
42479SOL    HW132567   5.514   9.090  10.856  1.3678  0.1101 -1.2433
42479SOL    HW232568   5.560   9.210  10.935  0.5486 -0.0912 -0.4466
42480SOL     OW32569   0.772   6.755   2.561  0.5751 -0.0667 -0.0050
42480SOL    HW132570   0.815   6.741   2.477  1.9446  0.4294  0.5976
42480SOL    HW232571   0.793   6.677   2.612 -1.5887 -1.1006 -0.6502
42481SOL     OW32572   9.207   8.131   0.178 -0.2005 -0.0544 -0.4483
42481SOL    HW132573   9.268   8.138   0.104  0.1158 -0.7506 -0.2607
42481SOL    HW232574   9.173   8.042   0.171 -1.7322  0.5642 -0.9643
42482SOL     OW32575  10.639   6.081   0.004 -0.0179  0.5263 -0.1528
42482SOL    HW132576  10.613   6.048  -0.082 -1.8641  1.1443  0.1591
42482SOL    HW232577  10.667   6.003   0.052 -0.3359 -0.0096 -0.8228
42483SOL     OW32578   5.987   4.902   5.303 -0.3761  0.1014 -0.0880
42483SOL    HW132579   6.032   4.940   5.228 -0.4460  1.2750  0.4467
42483SOL    HW232580   5.994   4.808   5.291 -2.1949  0.2661 -2.6631
42484SOL     OW32581   8.710   3.484   4.618 -0.1104 -0.0391  0.0664
42484SOL    HW132582   8.716   3.412   4.555 -0.0985 -0.2831  0.3449
42484SOL    HW232583   8.709   3.563   4.564  0.3233 -0.2298 -0.2193
42485SOL     OW32584   5.881   4.168   7.412 -0.8783  0.1118 -0.0438
42485SOL    HW132585   5.827   4.116   7.471  0.9521 -1.1489  0.5566
42485SOL    HW232586   5.880   4.256   7.449 -2.9699  0.2526 -0.3702
42486SOL     OW32587  11.000   0.087   6.174 -0.4796 -0.0865 -0.2147
42486SOL    HW132588  10.935   0.026   6.210 -1.8616  0.5495 -1.5438
42486SOL    HW232589  10.948   0.164   6.149  0.7587  0.3207 -1.5746
42487SOL     OW32590   9.883   1.834   5.658  0.0083 -0.7203 -0.0992
42487SOL    HW132591   9.951   1.815   5.723  0.4833  0.3439 -0.2843
42487SOL    HW232592   9.811   1.776   5.682  0.8265 -1.5844  0.3336
42488SOL     OW32593   1.199   5.419   7.393  0.0737  0.0780  0.7187
42488SOL    HW132594   1.116   5.463   7.409 -0.0632 -1.1239  3.6654
42488SOL    HW232595   1.193   5.337   7.442  1.8400 -1.4335 -1.4691
42489SOL     OW32596   5.004   9.366   1.416  0.5182 -0.0006  0.2198
42489SOL    HW132597   4.962   9.354   1.332 -0.2730  0.3719  0.5625
42489SOL    HW232598   5.094   9.390   1.395  0.7693 -1.5401 -0.5056
42490SOL     OW32599   1.506  10.605   1.440 -0.3359 -0.0033 -0.1398
42490SOL    HW132600   1.434  10.557   1.399 -2.6988  1.3617  2.3269
42490SOL    HW232601   1.536  10.547   1.510 -0.8100  0.5630  0.5369
42491SOL     OW32602   9.560   7.481   2.954  0.1973  0.4235 -0.2474
42491SOL    HW132603   9.529   7.421   2.886  1.0613 -1.0592  0.6278
42491SOL    HW232604   9.620   7.540   2.910 -0.1112  0.1830 -0.9880
42492SOL     OW32605   9.164   2.782   3.317  0.3307  0.3427 -0.7721
42492SOL    HW132606   9.223   2.707   3.318  0.2866  0.3189 -0.1320
42492SOL    HW232607   9.188   2.833   3.394 -1.2530 -0.2832  0.1717
42493SOL     OW32608   6.766   8.963   3.330  0.1653  0.0663  0.0920
42493SOL    HW132609   6.802   9.051   3.343 -0.8532  0.6380 -0.8498
42493SOL    HW232610   6.815   8.908   3.391  2.6589  0.8263 -1.1502
42494SOL     OW32611   1.863  10.172  10.771 -0.1730  0.1129 -0.0001
42494SOL    HW132612   1.945  10.142  10.809  0.1347  1.4914  0.4585
42494SOL    HW232613   1.880  10.175  10.677  1.0101  2.3451  0.2331
42495SOL     OW32614   6.945   4.627   1.543  0.1093  0.1373  0.8196
42495SOL    HW132615   6.998   4.562   1.589  0.7758  0.7403  0.9206
42495SOL    HW232616   6.898   4.673   1.612 -0.5188 -0.3739  0.7322
42496SOL     OW32617   1.617   3.977   8.028  0.4011  0.0378 -0.4719
42496SOL    HW132618   1.680   3.947   7.963  1.4846  1.1983  0.0096
42496SOL    HW232619   1.671   4.016   8.097 -0.7574 -0.6665  0.8489
42497SOL     OW32620   0.875   9.983   5.851  0.3311 -0.6106 -0.3877
42497SOL    HW132621   0.919   9.917   5.797  1.4019 -0.4785  0.2991
42497SOL    HW232622   0.899   9.960   5.941  1.3142  1.1425 -0.1945
42498SOL     OW32623   8.968   9.536   5.138  0.0400  0.1106  0.2197
42498SOL    HW132624   8.981   9.452   5.094  0.6181 -0.4306  1.3983
42498SOL    HW232625   9.035   9.594   5.100 -1.3155  0.4831 -1.6620
42499SOL     OW32626   3.092   8.264   9.791 -0.3916  0.1856 -0.0388
42499SOL    HW132627   3.067   8.217   9.712 -0.5622  1.8450 -0.9863
42499SOL    HW232628   3.032   8.339   9.795  0.0666  0.4948  1.2850
42500SOL     OW32629   7.503   7.818   2.385 -0.3372  0.0481 -0.8399
42500SOL    HW132630   7.460   7.847   2.305 -0.1509 -1.3050 -1.4427
42500SOL    HW232631   7.559   7.745   2.357 -1.2985 -1.3339  0.7295
42501SOL     OW32632   8.713   0.747   1.185 -0.7177  0.5323  0.1289
42501SOL    HW132633   8.666   0.671   1.219 -1.6935  1.2865  0.4486
42501SOL    HW232634   8.684   0.754   1.094 -0.1572  0.1650 -0.0877
42502SOL     OW32635  10.024   1.772  10.357  0.2227  0.0627  0.4506
42502SOL    HW132636  10.050   1.764  10.449 -0.4994  0.5787  0.7006
42502SOL    HW232637  10.083   1.839  10.321  0.9117 -0.5777  0.3816
42503SOL     OW32638   4.366   7.541   6.208 -0.5105 -0.1291 -0.8580
42503SOL    HW132639   4.448   7.590   6.206 -2.0860  2.5647 -1.9760
42503SOL    HW232640   4.341   7.532   6.115 -2.8605  1.5310 -0.4260
42504SOL     OW32641   7.729   3.746   6.542 -0.4241  0.1926 -0.2896
42504SOL    HW132642   7.819   3.724   6.568 -0.7360 -1.2139 -0.3219
42504SOL    HW232643   7.739   3.791   6.458  0.2473 -0.1429 -0.4000
42505SOL     OW32644   8.724   0.501  10.743 -0.2570 -0.5823 -0.6548
42505SOL    HW132645   8.815   0.520  10.720  0.5549 -1.8423  1.3085
42505SOL    HW232646   8.718   0.526  10.836 -1.7564 -1.0227 -0.6306
42506SOL     OW32647   2.750   0.758   3.624  0.4861 -0.0370 -0.0960
42506SOL    HW132648   2.752   0.676   3.573  1.2953  0.4736 -0.9078
42506SOL    HW232649   2.662   0.762   3.659  0.1988 -0.8799 -0.6843
42507SOL     OW32650   6.136   9.631   3.666  0.3465  0.1271  0.2711
42507SOL    HW132651   6.157   9.576   3.591 -0.7453  0.1616 -0.0674
42507SOL    HW232652   6.043   9.649   3.657  0.7026  2.1060  0.3244
42508SOL     OW32653  10.647   4.560  10.294  0.0324  0.0047  0.1714
42508SOL    HW132654  10.741   4.567  10.308  0.3674 -1.3419 -1.1980
42508SOL    HW232655  10.637   4.549  10.200 -1.5646  1.0364  0.1970
42509SOL     OW32656   0.960   9.843   9.248 -0.6366  0.0466 -0.0566
42509SOL    HW132657   0.907   9.913   9.285 -1.1835 -0.0502 -0.6581
42509SOL    HW232658   1.041   9.844   9.300 -1.2103  0.2120  0.8333
42510SOL     OW32659   8.476   6.639   3.563  0.4622  0.2664  0.1797
42510SOL    HW132660   8.424   6.719   3.573  0.4856  0.5548 -1.8607
42510SOL    HW232661   8.421   6.580   3.512  2.5589  1.0467 -3.1356
42511SOL     OW32662   7.289   2.005   0.605 -0.1292  0.0465 -1.0071
42511SOL    HW132663   7.346   2.056   0.548  1.4591  1.4824  1.7590
42511SOL    HW232664   7.264   2.065   0.676 -0.5579 -2.1579  0.8041
42512SOL     OW32665   0.265   3.952   6.550 -0.3085  0.5963  0.1505
42512SOL    HW132666   0.296   4.038   6.523 -0.1134  0.3186 -0.5355
42512SOL    HW232667   0.213   3.968   6.628 -1.1147  1.4649 -0.5547
42513SOL     OW32668   4.030   1.882   2.059 -0.2163  0.1144  0.3746
42513SOL    HW132669   4.002   1.961   2.105 -0.0374  0.7185 -0.5395
42513SOL    HW232670   4.040   1.910   1.968 -0.6895 -1.1012 -0.0479
42514SOL     OW32671   5.164   4.972   7.023  0.9027 -0.9553 -0.3333
42514SOL    HW132672   5.199   4.883   7.032  1.4556 -0.6901  0.1676
42514SOL    HW232673   5.110   4.985   7.101  2.4612 -0.1196  0.6381
42515SOL     OW32674   2.647   6.299   2.586  0.3109  0.2509 -0.0415
42515SOL    HW132675   2.607   6.357   2.650 -1.2173 -1.3303  0.4722
42515SOL    HW232676   2.714   6.251   2.634 -1.1041 -1.2208  0.5040
42516SOL     OW32677   3.578   2.502   2.309  0.1659 -0.0667 -0.2510
42516SOL    HW132678   3.491   2.477   2.342 -0.8297  1.8952 -1.2910
42516SOL    HW232679   3.621   2.418   2.291 -1.6874 -1.0833 -0.1491
42517SOL     OW32680   3.508   6.166   9.952  0.3148 -0.4006 -0.3326
42517SOL    HW132681   3.538   6.255   9.972 -0.4550  0.3437 -2.3071
42517SOL    HW232682   3.457   6.176   9.872 -1.0461 -2.4053  0.2388
42518SOL     OW32683   0.497   7.079   4.732  0.4132  0.5731 -0.0084
42518SOL    HW132684   0.500   6.986   4.751 -1.4957  0.6684  0.8709
42518SOL    HW232685   0.507   7.122   4.817  2.3177  1.2244 -0.5202
42519SOL     OW32686   9.178   5.609  10.680  0.0590 -0.1411  0.1196
42519SOL    HW132687   9.127   5.620  10.600  0.5124  1.3298  0.0194
42519SOL    HW232688   9.267   5.593  10.651 -0.2629 -2.4998  0.2998
42520SOL     OW32689   2.953   5.268   8.673  0.7742  0.5928 -0.5958
42520SOL    HW132690   2.992   5.189   8.712 -1.2476  0.3369  0.9579
42520SOL    HW232691   2.934   5.242   8.582 -0.1381 -0.8128 -0.0195
42521SOL     OW32692   4.042   6.440  10.966 -0.4565  0.0707  0.0216
42521SOL    HW132693   4.017   6.518  10.917  0.7253  0.1483 -0.4816
42521SOL    HW232694   4.028   6.368  10.905  0.9899  0.1643 -0.4424
42522SOL     OW32695   8.677   4.224   3.456 -0.4379  0.0485 -0.4015
42522SOL    HW132696   8.725   4.291   3.406 -0.4801 -2.0069 -3.3394
42522SOL    HW232697   8.739   4.196   3.523  0.1366  1.9412 -0.1148
42523SOL     OW32698   8.599   4.299   6.523 -0.0377 -0.2726  0.3457
42523SOL    HW132699   8.653   4.375   6.504  0.5569 -0.8432 -0.3024
42523SOL    HW232700   8.593   4.253   6.439  0.7958 -1.6842  1.0450
42524SOL     OW32701   3.059   3.028   9.218  0.0167  0.4397 -0.1910
42524SOL    HW132702   2.992   3.068   9.273 -1.0760 -0.2392 -1.0016
42524SOL    HW232703   3.130   3.008   9.279 -0.4193  1.3709  0.6444
42525SOL     OW32704   2.091   0.190   5.264 -0.5776 -0.0493  0.2473
42525SOL    HW132705   2.030   0.171   5.193 -0.2259  0.0230 -0.0824
42525SOL    HW232706   2.074   0.124   5.330  1.4433 -2.2957 -1.3870
42526SOL     OW32707   1.066   1.248   3.581  0.1985 -0.5715 -0.5260
42526SOL    HW132708   1.073   1.338   3.547  0.5488 -0.0561  0.8860
42526SOL    HW232709   1.090   1.193   3.506 -1.8673  0.4110 -1.9738
42527SOL     OW32710   1.052   1.422   0.945  0.2904 -0.3789 -0.2601
42527SOL    HW132711   1.143   1.430   0.972  0.2184 -0.5715  0.0344
42527SOL    HW232712   1.002   1.466   1.014  0.2149  0.3854 -0.7927
42528SOL     OW32713   0.808   9.835   1.074  0.2137  0.1231  0.1631
42528SOL    HW132714   0.754   9.783   1.134  0.3857  0.1419  0.3358
42528SOL    HW232715   0.795   9.795   0.988 -3.3014  2.5907 -0.5862
42529SOL     OW32716  11.119   5.606   9.504 -0.2869 -1.0535 -0.2334
42529SOL    HW132717  11.057   5.560   9.561  0.1927 -2.5142 -0.8570
42529SOL    HW232718  11.205   5.574   9.531 -0.1632 -3.4718 -3.1774
42530SOL     OW32719   6.155   2.870   5.475 -0.3651  0.0273 -0.1474
42530SOL    HW132720   6.070   2.913   5.485 -1.1688 -1.5902  0.2424
42530SOL    HW232721   6.197   2.878   5.561 -0.8023 -0.5512  0.1235
42531SOL     OW32722   8.277   9.597   4.383  0.2762 -0.1857 -0.2587
42531SOL    HW132723   8.246   9.583   4.293 -1.7768  1.2249  0.1940
42531SOL    HW232724   8.198   9.600   4.435  1.4060 -0.0123  1.4819
42532SOL     OW32725   9.070   6.461   2.344  0.2019  0.7784  0.1556
42532SOL    HW132726   8.992   6.485   2.395 -0.1389  2.3835 -1.0609
42532SOL    HW232727   9.067   6.365   2.339 -1.1749  0.7663  0.9327
42533SOL     OW32728   9.676   5.055   0.317  0.3411 -0.3581  0.4473
42533SOL    HW132729   9.757   5.089   0.281 -1.2703  0.1182 -2.9162
42533SOL    HW232730   9.622   5.132   0.334 -0.2161 -0.7759  0.6093
42534SOL     OW32731   3.855   3.767   9.028  0.0766 -0.6673  0.3146
42534SOL    HW132732   3.785   3.829   9.011  0.1158 -0.3648  1.2127
42534SOL    HW232733   3.811   3.683   9.040 -0.1012 -0.5344  0.5756
42535SOL     OW32734   9.529  11.209   5.337 -0.3834  0.0398  0.0398
42535SOL    HW132735   9.547  11.155   5.414  2.5033  2.0667  0.8855
42535SOL    HW232736   9.611  11.208   5.288 -0.7880  2.3975 -0.7211
42536SOL     OW32737  10.340   5.338  10.801 -0.5888 -0.0479 -0.5100
42536SOL    HW132738  10.423   5.363  10.760 -0.1274  3.2493  2.1575
42536SOL    HW232739  10.273   5.367  10.740  0.1669 -0.3460 -1.4949
42537SOL     OW32740   4.840   5.993  10.237  0.1291 -0.1206  0.4753
42537SOL    HW132741   4.786   5.923  10.275  0.3228 -0.4464  0.1542
42537SOL    HW232742   4.878   5.954  10.158 -1.2629  0.9500 -0.7500
42538SOL     OW32743   4.768  10.558  11.029 -0.2373  0.4742 -0.7681
42538SOL    HW132744   4.680  10.582  11.061 -1.1760 -0.8514 -2.2961
42538SOL    HW232745   4.789  10.625  10.965  0.4542  1.5482  0.5566
42539SOL     OW32746   5.281   6.799  10.024 -0.7610  0.3024  0.3111
42539SOL    HW132747   5.309   6.858  10.095  1.4625 -0.0011 -0.2751
42539SOL    HW232748   5.217   6.741  10.066 -0.3471  0.8780  1.7891
42540SOL     OW32749   5.729   3.591   8.322 -0.4032  0.2484 -0.6174
42540SOL    HW132750   5.762   3.503   8.300 -1.1173 -0.3550  0.6454
42540SOL    HW232751   5.807   3.639   8.349  0.0995  0.2246 -1.9878
42541SOL     OW32752   0.932   3.796   3.577  0.3103  0.1618 -0.3024
42541SOL    HW132753   0.880   3.849   3.637 -0.3498  1.9085 -2.3407
42541SOL    HW232754   1.012   3.846   3.564  0.7997 -0.6001 -0.2642
42542SOL     OW32755  10.795   8.488   1.911 -0.2635  0.4611  0.1400
42542SOL    HW132756  10.709   8.501   1.871 -0.2256  1.9902  0.5222
42542SOL    HW232757  10.857   8.523   1.847  0.0867 -0.5111 -0.0758
42543SOL     OW32758   8.498   8.981  10.742 -0.0423 -0.0402  0.6932
42543SOL    HW132759   8.582   8.935  10.733 -0.1838 -0.4021  1.1479
42543SOL    HW232760   8.433   8.912  10.729 -0.2871  0.4677 -0.8456
42544SOL     OW32761   5.668   5.968   9.739 -0.9413  0.1394  0.0035
42544SOL    HW132762   5.586   6.016   9.754 -0.9216 -0.2079  1.2055
42544SOL    HW232763   5.720   5.984   9.817  0.8425  1.7399 -1.4514
42545SOL     OW32764   4.300   3.080   7.336 -0.3389 -0.3286  0.1707
42545SOL    HW132765   4.239   3.022   7.382 -0.2653 -0.1658  0.4785
42545SOL    HW232766   4.309   3.042   7.249 -0.6894 -0.4908  0.2060
42546SOL     OW32767  11.059   2.123   9.572  0.8064 -0.5359  0.3880
42546SOL    HW132768  11.043   2.035   9.540  0.0713  0.1015 -1.0820
42546SOL    HW232769  11.115   2.163   9.506  0.3441  0.3949  0.5397
42547SOL     OW32770  10.781  11.135   2.766 -0.0323 -0.2253  0.3090
42547SOL    HW132771  10.860  11.151   2.816  0.4484  0.1206 -0.5446
42547SOL    HW232772  10.747  11.223   2.746 -0.0640 -0.3488 -0.1957
42548SOL     OW32773   8.068   2.488   2.913  0.0844  0.0378 -0.2376
42548SOL    HW132774   8.109   2.452   2.834  1.3520  0.1825  0.3362
42548SOL    HW232775   8.141   2.525   2.963 -0.7105  0.0263  0.9595
42549SOL     OW32776   4.897   7.381   2.440 -0.1135  0.5387 -0.0800
42549SOL    HW132777   4.815   7.340   2.465 -0.0288  0.7911  0.6286
42549SOL    HW232778   4.938   7.319   2.380  0.6992 -1.1146  2.1010
42550SOL     OW32779   5.185   8.109   0.856 -0.5541 -0.4310  0.0330
42550SOL    HW132780   5.190   8.170   0.782  0.3399  0.9593  1.2022
42550SOL    HW232781   5.160   8.164   0.930 -1.4066 -1.8023  0.7775
42551SOL     OW32782  10.991   2.080   3.214 -0.5318 -0.3673 -0.9542
42551SOL    HW132783  11.059   2.109   3.274 -0.2821  0.5814 -1.6765
42551SOL    HW232784  10.921   2.145   3.224 -2.8488 -3.1564  2.2914
42552SOL     OW32785   3.141   7.748   2.416 -0.3080  0.0146 -0.0839
42552SOL    HW132786   3.051   7.716   2.407 -0.8552  0.6132  2.7683
42552SOL    HW232787   3.136   7.815   2.483  2.2423  0.2936 -0.1182
42553SOL     OW32788   1.059   7.710   8.448  0.1364  0.1870  0.4533
42553SOL    HW132789   1.064   7.640   8.514 -0.7645  0.4950  0.8480
42553SOL    HW232790   1.089   7.668   8.367 -0.4504 -0.6792  0.6722
42554SOL     OW32791   6.607   3.059   0.932 -0.4242  0.1436  0.0574
42554SOL    HW132792   6.650   3.049   0.848 -0.1893 -1.2055  0.3251
42554SOL    HW232793   6.544   3.130   0.919  0.4191  0.7204 -0.9201
42555SOL     OW32794  11.164   7.781   5.141 -0.4624 -0.0513  0.0781
42555SOL    HW132795  11.216   7.809   5.216 -1.2081  0.8714  0.2464
42555SOL    HW232796  11.083   7.830   5.148 -1.6492 -1.9652  0.1794
42556SOL     OW32797   9.462   3.509   4.974  0.9417  0.1765  0.1408
42556SOL    HW132798   9.422   3.527   4.889  2.1300  1.5839 -0.1245
42556SOL    HW232799   9.455   3.592   5.022  0.6626 -0.4841  1.2816
42557SOL     OW32800   0.947   9.120   0.830  0.0616 -0.2415  0.1120
42557SOL    HW132801   0.863   9.099   0.788  0.2004 -0.7390  0.0850
42557SOL    HW232802   1.007   9.135   0.757  0.0219  0.0268  0.1322
42558SOL     OW32803   0.776   8.447   0.060  0.3356  0.7109 -0.0067
42558SOL    HW132804   0.778   8.399   0.143 -0.9833  0.3678 -0.1598
42558SOL    HW232805   0.865   8.442   0.027  0.4238 -0.8601  0.4310
42559SOL     OW32806   9.577   7.389  11.042 -0.4257 -0.3451  0.1160
42559SOL    HW132807   9.484   7.393  11.017 -0.9662  1.3975  2.2024
42559SOL    HW232808   9.576   7.395  11.138  1.8897  0.8499  0.1057
42560SOL     OW32809   4.150   9.114   4.380  0.6898 -0.6726 -0.6833
42560SOL    HW132810   4.244   9.125   4.374  0.4660  1.0741 -1.2076
42560SOL    HW232811   4.121   9.185   4.437 -0.1067 -2.3110  1.0220
42561SOL     OW32812   5.767   2.408   7.279  0.1105 -0.3692 -0.2666
42561SOL    HW132813   5.713   2.348   7.227  1.0686 -0.9101 -0.6478
42561SOL    HW232814   5.842   2.429   7.222  0.0357  0.8042  0.0492
42562SOL     OW32815   3.889   8.526  11.122  0.1980 -0.3527 -0.8505
42562SOL    HW132816   3.881   8.432  11.105  0.6821 -0.3586 -1.0584
42562SOL    HW232817   3.957   8.556  11.062  0.5898 -0.0153 -0.2418
42563SOL     OW32818   4.109   8.123  10.489 -0.0577  0.4630  0.3281
42563SOL    HW132819   4.040   8.135  10.554 -0.0472 -1.9939  0.8259
42563SOL    HW232820   4.187   8.102  10.541  0.9450  2.5454 -0.2669
42564SOL     OW32821  11.180   1.132   7.701  0.2332  0.4380 -0.0337
42564SOL    HW132822  11.193   1.153   7.608  0.4073 -1.6274 -0.5021
42564SOL    HW232823  11.269   1.117   7.734  0.0843 -0.0230  0.1617
42565SOL     OW32824   8.557   5.211   5.116 -0.1820  0.2402  0.0215
42565SOL    HW132825   8.532   5.129   5.072  2.2565 -0.6444  0.2495
42565SOL    HW232826   8.474   5.245   5.150 -1.6353 -0.7900 -2.2944
42566SOL     OW32827   9.189   8.903   5.921  0.1110  0.6360 -0.2346
42566SOL    HW132828   9.266   8.867   5.965  0.5384  2.3768  0.4859
42566SOL    HW232829   9.223   8.974   5.868 -0.7718  0.2211 -1.3689
42567SOL     OW32830   0.214  10.527  11.307  0.2720  0.6375  0.0206
42567SOL    HW132831   0.243  10.615  11.334  0.0494 -0.0212  2.5223
42567SOL    HW232832   0.237  10.471  11.380  0.2424 -1.3903 -1.4932
42568SOL     OW32833   8.513   1.501   8.859  0.8992 -0.1934  0.3143
42568SOL    HW132834   8.491   1.554   8.782  0.5843 -0.8230 -0.0343
42568SOL    HW232835   8.429   1.467   8.889  1.1022 -0.4835  0.5478
42569SOL     OW32836   6.644   6.300   0.231 -0.0711 -0.3510  0.6848
42569SOL    HW132837   6.554   6.331   0.224  0.0975  0.0784  0.3949
42569SOL    HW232838   6.696   6.380   0.242  0.3516 -0.5323  0.0511
42570SOL     OW32839  11.023   4.034  11.123  0.0079  0.3547  0.2373
42570SOL    HW132840  11.113   4.036  11.089 -0.8392  0.9140 -2.0687
42570SOL    HW232841  10.968   4.033  11.045 -2.0070 -0.2547  1.6249
42571SOL     OW32842   7.323   4.756   9.700  0.0934  0.2262  0.1711
42571SOL    HW132843   7.235   4.794   9.696  0.6388  1.4884 -0.3859
42571SOL    HW232844   7.377   4.824   9.741  0.7739 -0.6073  0.6787
42572SOL     OW32845  10.196   3.853   1.988 -0.3951  0.2889  0.1219
42572SOL    HW132846  10.237   3.793   2.051 -0.4252  0.7203  0.5548
42572SOL    HW232847  10.268   3.885   1.934 -0.0857  1.4017  1.1759
42573SOL     OW32848   9.142   4.448   1.049 -0.4562 -0.0007  0.3769
42573SOL    HW132849   9.077   4.476   0.984  1.0675  2.1305 -0.2770
42573SOL    HW232850   9.123   4.500   1.127 -0.1305 -0.0858  0.5154
42574SOL     OW32851   7.534   2.610   7.079  0.7456 -0.2623  0.2847
42574SOL    HW132852   7.554   2.698   7.048  0.5210 -0.2337  0.2239
42574SOL    HW232853   7.612   2.559   7.056  0.1005 -0.5178 -1.4411
42575SOL     OW32854   5.281  10.991   1.722 -0.3906  0.2858  0.7999
42575SOL    HW132855   5.321  11.047   1.789  1.8343 -0.3235  0.0438
42575SOL    HW232856   5.296  11.038   1.640 -0.1507 -0.5240  0.3723
42576SOL     OW32857   1.860   4.801   2.453  0.0643  0.4389  0.1562
42576SOL    HW132858   1.918   4.876   2.470 -1.3387  1.4446  0.6625
42576SOL    HW232859   1.918   4.725   2.454  1.5474  1.5357 -0.5315
42577SOL     OW32860   8.497  10.928   6.304  0.4702  0.2070 -0.6196
42577SOL    HW132861   8.412  10.884   6.306  0.6890 -0.2114 -0.4771
42577SOL    HW232862   8.545  10.884   6.234  0.2544  1.0361 -1.3040
42578SOL     OW32863   0.257  11.174   4.319 -0.1621  0.4811  0.5369
42578SOL    HW132864   0.276  11.195   4.411  2.8911 -1.9520  0.5313
42578SOL    HW232865   0.334  11.204   4.271  0.0278 -1.8414 -0.6885
42579SOL     OW32866   8.665   5.832   9.292 -0.2183  0.1046 -0.3785
42579SOL    HW132867   8.649   5.745   9.255 -1.3297  0.0638  0.1586
42579SOL    HW232868   8.759   5.834   9.310  0.0052 -0.5705 -1.4339
42580SOL     OW32869   1.705   1.917   1.559 -0.0253  0.5319  0.5079
42580SOL    HW132870   1.733   2.001   1.523  0.4423 -0.1291 -0.7496
42580SOL    HW232871   1.622   1.899   1.516  1.0146 -0.7288 -1.0740
42581SOL     OW32872   7.184   7.185   8.625 -0.2146  0.1239  0.4160
42581SOL    HW132873   7.190   7.113   8.687  1.2848 -1.5116 -1.5526
42581SOL    HW232874   7.093   7.214   8.629 -0.0562  0.3116  3.6008
42582SOL     OW32875   3.233   2.783   9.486 -0.2118  0.5766 -0.7933
42582SOL    HW132876   3.137   2.782   9.497 -0.2841  0.2198 -1.4370
42582SOL    HW232877   3.246   2.824   9.400  0.2817  2.0363 -0.0384
42583SOL     OW32878   6.129   5.686   8.430  0.0582  0.1252 -0.6986
42583SOL    HW132879   6.154   5.674   8.521 -2.4206 -1.6188 -0.1963
42583SOL    HW232880   6.187   5.627   8.381  0.7640  0.3713 -0.1631
42584SOL     OW32881   0.176   8.532   2.272  0.1187 -0.1428 -0.1565
42584SOL    HW132882   0.267   8.531   2.299 -0.0239 -1.9075  0.2850
42584SOL    HW232883   0.178   8.561   2.180  1.0410  0.6360  0.1127
42585SOL     OW32884   9.264   2.341   5.764  0.6816 -0.3263  0.6125
42585SOL    HW132885   9.333   2.372   5.706  2.8220 -0.9271  2.7687
42585SOL    HW232886   9.236   2.258   5.726 -1.8394  1.8854 -2.5942
42586SOL     OW32887   2.599  10.951   3.890 -0.4331 -0.1921  0.3615
42586SOL    HW132888   2.625  11.030   3.844 -1.4046  0.9897  1.7872
42586SOL    HW232889   2.611  10.972   3.983 -3.4620 -0.6555  0.9250
42587SOL     OW32890   9.771   4.733   6.732  0.5862  0.5456  0.5937
42587SOL    HW132891   9.689   4.730   6.683  1.0419  0.1538 -0.1598
42587SOL    HW232892   9.802   4.643   6.732  1.2809  0.7819  0.4271
42588SOL     OW32893   4.015   5.186   3.585  0.1096  0.4840  0.0341
42588SOL    HW132894   4.015   5.105   3.533 -0.3704  0.2835  0.3496
42588SOL    HW232895   3.926   5.219   3.578 -0.3113 -0.2023  1.7528
42589SOL     OW32896   4.244   6.964   9.544 -0.1894 -0.6254  0.1228
42589SOL    HW132897   4.242   6.969   9.639  0.7288 -0.9634  0.1616
42589SOL    HW232898   4.175   7.024   9.516  0.7607  0.8924  0.9563
42590SOL     OW32899   4.838   0.388   0.105  0.3140 -0.1004 -0.0242
42590SOL    HW132900   4.887   0.313   0.072  1.1685  0.1063  0.7613
42590SOL    HW232901   4.791   0.354   0.181  0.2284  0.0133 -0.0256
42591SOL     OW32902   9.039   9.686   2.845 -0.0398 -0.0426  0.8682
42591SOL    HW132903   8.984   9.760   2.872 -0.7770 -0.7350  1.2983
42591SOL    HW232904   9.125   9.704   2.883 -0.8779 -0.6523  3.1381
42592SOL     OW32905   3.745   4.809   5.521  0.1231  0.0854 -0.6883
42592SOL    HW132906   3.790   4.893   5.526 -0.6513  0.5911 -1.9947
42592SOL    HW232907   3.782   4.767   5.443  0.6334 -0.8642  0.0570
42593SOL     OW32908   4.127  10.869  10.538  0.3478 -0.4997 -1.1602
42593SOL    HW132909   4.195  10.914  10.588 -1.7810  0.9753  0.5102
42593SOL    HW232910   4.146  10.890  10.447  1.4570  0.8430 -0.6335
42594SOL     OW32911   4.637  10.910   4.979  0.4688  0.0448  0.2663
42594SOL    HW132912   4.692  10.868   5.045  0.9298 -0.5150 -0.4537
42594SOL    HW232913   4.569  10.955   5.028  1.2498  0.2682  1.1527
42595SOL     OW32914  10.648   4.217   1.806 -0.6038  0.1825 -0.1241
42595SOL    HW132915  10.673   4.133   1.843 -0.8923  1.0226  2.0797
42595SOL    HW232916  10.731   4.262   1.789 -0.4605 -0.3887 -0.9458
42596SOL     OW32917   1.177   3.969  11.008  0.5675 -0.1436 -0.4022
42596SOL    HW132918   1.186   4.033  10.938 -1.1547  0.0045 -0.5096
42596SOL    HW232919   1.191   4.019  11.089 -0.6869  0.3594 -0.4899
42597SOL     OW32920   8.478   9.075   8.574 -0.0075 -0.2494 -0.0317
42597SOL    HW132921   8.422   9.119   8.511  1.4766 -0.7429 -1.7140
42597SOL    HW232922   8.417   9.039   8.639 -1.3545  2.7112  0.4273
42598SOL     OW32923  10.105   8.505   0.883 -0.5805 -0.0463 -0.3515
42598SOL    HW132924  10.171   8.451   0.838  1.2012  1.5268  0.2907
42598SOL    HW232925  10.060   8.551   0.812 -0.8906 -1.0178 -0.7922
42599SOL     OW32926   5.455   1.679   3.449  0.1120 -0.7308  0.0661
42599SOL    HW132927   5.448   1.726   3.532 -1.2895 -0.4274 -0.2178
42599SOL    HW232928   5.386   1.613   3.453  0.1381 -0.8121 -0.8013
42600SOL     OW32929   3.993   2.004   9.017  0.8222  0.0798  0.1761
42600SOL    HW132930   4.016   1.933   9.077 -2.2903 -0.0813  1.2712
42600SOL    HW232931   3.966   1.960   8.937  0.3987  0.0652  0.3223
42601SOL     OW32932   9.236   1.710   1.950  1.4024 -0.4512  0.1981
42601SOL    HW132933   9.328   1.717   1.976  1.3749  1.4717 -0.1858
42601SOL    HW232934   9.237   1.710   1.855  1.0024 -0.5759  0.1907
42602SOL     OW32935   8.838   9.788   0.597 -0.2483  0.1682  0.5284
42602SOL    HW132936   8.914   9.824   0.552  1.0489 -2.8982  0.0950
42602SOL    HW232937   8.782   9.754   0.527 -0.5014 -0.3490  0.9753
42603SOL     OW32938   6.640  11.284   6.033  0.4834  0.7384  0.2096
42603SOL    HW132939   6.715  11.248   6.079 -0.9318 -1.2716  1.0096
42603SOL    HW232940   6.674  11.310   5.947  2.0438 -0.2672  0.5040
42604SOL     OW32941  11.145   2.211   6.416  0.0545  0.2194 -0.2482
42604SOL    HW132942  11.055   2.178   6.423  0.0591  0.6419  2.4673
42604SOL    HW232943  11.199   2.133   6.408 -0.2644 -0.2560  1.9884
42605SOL     OW32944  10.978   5.103   4.274 -0.3670 -0.2507 -0.2226
42605SOL    HW132945  11.069   5.083   4.296  0.0417  2.0671  0.3788
42605SOL    HW232946  10.927   5.034   4.315  1.1881 -2.3382 -1.6885
42606SOL     OW32947   4.445  10.120   1.174  0.0695  0.1074 -0.0907
42606SOL    HW132948   4.356  10.084   1.173  0.4358 -0.8067 -2.2595
42606SOL    HW232949   4.490  10.070   1.242 -1.0331  0.4972  0.9437
42607SOL     OW32950   7.802   1.404   5.209  0.0829  0.0599 -0.3579
42607SOL    HW132951   7.862   1.478   5.195  0.2326  0.0767  0.3617
42607SOL    HW232952   7.725   1.425   5.156  0.7324  0.0076 -1.3482
42608SOL     OW32953   5.421   4.691   2.291  0.6431 -0.2843 -0.1895
42608SOL    HW132954   5.439   4.607   2.332  1.0242  0.4571  1.1812
42608SOL    HW232955   5.471   4.755   2.343 -2.4699  1.2728  1.0000
42609SOL     OW32956  10.791   2.200   6.218 -1.1965 -0.4812  0.5507
42609SOL    HW132957  10.826   2.136   6.279  1.1583 -1.2836 -1.5764
42609SOL    HW232958  10.760   2.272   6.274  2.9711 -0.1492  2.6485
42610SOL     OW32959  10.801   0.805   0.131 -0.1978 -0.1755  0.0846
42610SOL    HW132960  10.889   0.799   0.092  0.4062  1.1806  1.2250
42610SOL    HW232961  10.784   0.898   0.139 -1.6983 -0.4285  0.0237
42611SOL     OW32962   8.188   3.510  10.441 -0.1609 -0.7765 -0.1619
42611SOL    HW132963   8.114   3.464  10.482 -1.4305  0.5121 -0.9910
42611SOL    HW232964   8.186   3.482  10.350  0.0486 -0.3217 -0.3066
42612SOL     OW32965   2.403   2.211   1.579 -0.7140  0.1199  0.1509
42612SOL    HW132966   2.411   2.245   1.490  0.5518  0.0361  0.2212
42612SOL    HW232967   2.361   2.126   1.569  3.5218 -1.9601 -0.8441
42613SOL     OW32968   2.835   1.070   4.127  0.1677 -0.6353 -0.1381
42613SOL    HW132969   2.878   1.154   4.143  0.5537 -0.8091 -0.2483
42613SOL    HW232970   2.765   1.090   4.065 -1.5860  0.1125  2.0192
42614SOL     OW32971   8.297   4.533   0.158 -0.0083  0.6630 -0.5639
42614SOL    HW132972   8.341   4.457   0.121  0.5684  1.7239 -2.1070
42614SOL    HW232973   8.212   4.535   0.115 -0.5681  0.0960  0.5084
42615SOL     OW32974   7.609   8.425   8.476  0.0878 -0.3319  0.1456
42615SOL    HW132975   7.612   8.422   8.572 -0.4316 -1.5766  0.1293
42615SOL    HW232976   7.701   8.436   8.450  0.0736  1.5260  0.8210
42616SOL     OW32977   2.465   0.431   1.234  0.7113 -0.0334  0.2066
42616SOL    HW132978   2.468   0.526   1.222  0.9409  0.0329  0.7584
42616SOL    HW232979   2.426   0.419   1.321  1.3565 -0.4214  0.4508
42617SOL     OW32980   9.927   9.540   9.990  0.3850 -0.5214 -0.2022
42617SOL    HW132981   9.933   9.509  10.080  0.9274 -2.4416 -0.8801
42617SOL    HW232982   9.912   9.634   9.998 -0.4643 -0.8198  1.8908
42618SOL     OW32983   3.556   5.700   7.386  0.2100  0.1942 -0.4109
42618SOL    HW132984   3.484   5.761   7.402 -1.6916 -1.9669 -0.4174
42618SOL    HW232985   3.602   5.737   7.311 -1.5037  1.1243 -1.0358
42619SOL     OW32986   2.212   8.588   1.413  0.3350  0.5741  0.0911
42619SOL    HW132987   2.143   8.644   1.449 -0.9741 -1.5871  1.0207
42619SOL    HW232988   2.268   8.568   1.488  1.1670  1.1675 -0.3715
42620SOL     OW32989   3.478   3.054   8.737 -0.0832 -0.1301  0.4753
42620SOL    HW132990   3.392   3.076   8.773 -0.0486  2.3668 -0.9093
42620SOL    HW232991   3.540   3.083   8.804 -0.2207 -0.0839  0.5819
42621SOL     OW32992   9.924   3.188   3.096  0.7543 -0.1232  0.0679
42621SOL    HW132993   9.867   3.262   3.117  0.7372 -0.1179  0.0026
42621SOL    HW232994   9.964   3.164   3.180  2.5976  1.4806 -0.3172
42622SOL     OW32995  10.849   2.980   0.055 -0.3171  0.1967  0.3675
42622SOL    HW132996  10.913   2.914   0.029  0.9960  0.8365  1.8801
42622SOL    HW232997  10.879   3.061   0.014  0.0106  0.5594  1.3128
42623SOL     OW32998   4.879   0.805  10.075  0.7309 -0.6739 -0.0993
42623SOL    HW132999   4.796   0.839  10.109  1.3110  0.5228  0.1562
42623SOL    HW233000   4.863   0.711  10.063 -0.9707 -0.3020 -0.9885
42624SOL     OW33001   6.038   8.547  10.875  0.1173 -0.0682 -0.3061
42624SOL    HW133002   6.035   8.640  10.852  2.0465  0.0049 -0.3628
42624SOL    HW233003   5.947   8.518  10.869 -0.7461  2.1547  1.1375
42625SOL     OW33004   5.271  10.918  10.820 -0.0885 -1.0622 -0.1970
42625SOL    HW133005   5.247  11.009  10.800  0.7411 -1.1706 -1.8070
42625SOL    HW233006   5.358  10.924  10.858 -0.7679 -1.0498  1.3886
42626SOL     OW33007   8.381   4.042   2.293  0.3794 -0.3285  0.5513
42626SOL    HW133008   8.359   4.107   2.226  0.4525 -1.2023 -0.3259
42626SOL    HW233009   8.477   4.036   2.290  0.3811 -0.3781  0.7210
42627SOL     OW33010   9.815   0.904   3.042 -0.4237 -0.0351 -0.1737
42627SOL    HW133011   9.746   0.838   3.040 -0.0107 -0.4827  0.0804
42627SOL    HW233012   9.773   0.982   3.079 -1.4397  0.4842 -2.3458
42628SOL     OW33013   6.433   2.225   6.344 -0.1474  0.1782 -0.0754
42628SOL    HW133014   6.386   2.274   6.412  0.1987 -0.1388  0.3916
42628SOL    HW233015   6.523   2.257   6.349  0.1040 -0.5789  0.3032
42629SOL     OW33016  10.800   2.412   5.285 -0.2646 -0.1613 -0.4521
42629SOL    HW133017  10.874   2.422   5.344 -0.0050  1.2003 -0.9917
42629SOL    HW233018  10.724   2.406   5.343  0.3753 -3.0420  0.1652
42630SOL     OW33019   7.482  11.197   9.345  0.1913  0.2924  0.4620
42630SOL    HW133020   7.394  11.223   9.374 -0.1294 -1.3869  1.0412
42630SOL    HW233021   7.537  11.273   9.364 -0.9071  0.9177  1.2106
42631SOL     OW33022   4.845   4.627   9.480 -0.4008 -0.0973  0.0978
42631SOL    HW133023   4.874   4.695   9.420 -0.5877  0.8812  1.0929
42631SOL    HW233024   4.809   4.675   9.554 -2.7873 -1.2718 -0.2567
42632SOL     OW33025   9.461   2.768   3.412  0.7388 -0.2673  0.7397
42632SOL    HW133026   9.516   2.846   3.401  1.4732 -0.7930  0.6783
42632SOL    HW233027   9.458   2.729   3.325 -0.6340  0.3537  0.5003
42633SOL     OW33028  10.573  11.219   5.627 -0.0087  0.0230  0.2964
42633SOL    HW133029  10.638  11.150   5.638  1.0474  0.8859 -0.3896
42633SOL    HW233030  10.598  11.285   5.692 -0.1502  0.3931 -0.0262
42634SOL     OW33031   6.113   6.704  11.024  0.3356 -0.1947  0.2816
42634SOL    HW133032   6.184   6.642  11.005 -0.2237 -0.4446 -1.0572
42634SOL    HW233033   6.149   6.762  11.091  1.1891 -1.3974  0.8852
42635SOL     OW33034   9.294   7.918   9.787 -0.3010 -0.1095  0.6181
42635SOL    HW133035   9.315   7.825   9.777  0.5659  0.2138 -0.7661
42635SOL    HW233036   9.380   7.961   9.789 -0.7339  0.8439 -0.7765
42636SOL     OW33037   8.611   4.119   4.218  0.0737  0.0459 -0.2647
42636SOL    HW133038   8.657   4.166   4.287 -0.1426  0.6739 -0.5467
42636SOL    HW233039   8.657   4.035   4.212 -0.3515 -0.2881  1.1034
42637SOL     OW33040   2.866   8.351   9.246 -0.0174  0.4419 -0.1921
42637SOL    HW133041   2.816   8.322   9.321  1.0512  0.8412  0.6936
42637SOL    HW233042   2.914   8.273   9.217 -1.3371 -0.0087 -1.2115
42638SOL     OW33043   2.492   3.538   3.302  0.4667 -0.2043  0.4149
42638SOL    HW133044   2.457   3.626   3.287 -0.0948 -0.5373 -0.2738
42638SOL    HW233045   2.509   3.535   3.397  1.0240  0.8291  0.3621
42639SOL     OW33046   5.605   9.279   9.797 -0.2414  0.0581 -0.5350
42639SOL    HW133047   5.538   9.211   9.807 -0.2901  0.4114  1.8887
42639SOL    HW233048   5.562   9.347   9.746 -1.3424 -0.2458 -0.0314
42640SOL     OW33049   7.673   6.047   8.606  0.0247 -0.9058  0.1320
42640SOL    HW133050   7.611   6.077   8.540  1.8984  2.2520 -0.3241
42640SOL    HW233051   7.643   6.090   8.687  0.6027 -0.7756  0.2762
42641SOL     OW33052   3.297   1.582  10.138 -0.1643 -0.2798 -0.3207
42641SOL    HW133053   3.283   1.488  10.151  0.3213 -0.3045  0.0406
42641SOL    HW233054   3.229   1.608  10.076 -0.0278 -0.9645 -0.7688
42642SOL     OW33055   2.806   5.869   8.188  0.1344 -0.3067 -0.0936
42642SOL    HW133056   2.759   5.923   8.251 -0.3376 -0.7308 -0.0768
42642SOL    HW233057   2.751   5.791   8.178  1.0496 -0.9915  0.2457
42643SOL     OW33058  10.283   3.529   5.264  0.3484 -0.5377  0.3211
42643SOL    HW133059  10.362   3.530   5.319  0.5102 -3.1301  0.2025
42643SOL    HW233060  10.309   3.478   5.187 -1.4169 -1.4228  0.2882
42644SOL     OW33061   5.170   2.970   0.199 -0.3525  0.5236 -0.0383
42644SOL    HW133062   5.254   2.984   0.242 -0.9724  1.7356  0.8345
42644SOL    HW233063   5.179   3.010   0.113  0.5781 -1.0414 -0.6894
42645SOL     OW33064   2.936   4.565  10.455 -0.2641 -0.0210  0.2856
42645SOL    HW133065   2.953   4.659  10.461 -2.1215  0.3029  1.0070
42645SOL    HW233066   2.919   4.549  10.363  1.3606  0.1000 -0.0450
42646SOL     OW33067   6.658   5.502   0.794  0.1754  0.3447  0.0796
42646SOL    HW133068   6.692   5.419   0.827  1.7601  1.0832  0.3832
42646SOL    HW233069   6.581   5.520   0.848  0.4842 -0.3693  0.7682
42647SOL     OW33070  11.126  10.553   8.588  0.0971  0.4525 -0.4075
42647SOL    HW133071  11.125  10.472   8.639 -1.8796  0.5713 -0.2367
42647SOL    HW233072  11.142  10.525   8.498  2.2522  0.1327  0.0357
42648SOL     OW33073   9.925   9.843   4.035  0.3106  0.3431 -0.7373
42648SOL    HW133074   9.861   9.777   4.060  1.3786 -0.6283 -0.5476
42648SOL    HW233075   9.887   9.885   3.957 -0.3523 -0.5048 -0.8771
42649SOL     OW33076   6.662   7.461   1.732 -0.2294 -0.2050  0.1026
42649SOL    HW133077   6.668   7.551   1.762  3.5301  0.0294 -1.1693
42649SOL    HW233078   6.670   7.408   1.812  2.3341  0.5324  0.3661
42650SOL     OW33079   1.334   4.186  10.850 -0.9581  0.4334 -0.5907
42650SOL    HW133080   1.336   4.212  10.942  0.2760 -0.4556 -0.3459
42650SOL    HW233081   1.307   4.265  10.803 -0.3807  1.2520  0.4246
42651SOL     OW33082   6.268   1.281   1.338 -0.1932 -0.6206 -0.0858
42651SOL    HW133083   6.350   1.232   1.338 -1.2660 -2.5037 -1.3969
42651SOL    HW233084   6.204   1.219   1.303 -2.3898  0.4605  1.9123
42652SOL     OW33085   8.927   6.354   7.011 -0.6519 -0.0575 -0.4357
42652SOL    HW133086   8.915   6.397   6.926  0.2072 -1.4450 -1.2934
42652SOL    HW233087   8.843   6.312   7.029 -0.8117  0.1704 -0.6400
42653SOL     OW33088   8.900   7.611   8.194 -0.0762  0.3513  0.0603
42653SOL    HW133089   8.811   7.611   8.229 -0.0552 -0.1825  0.1186
42653SOL    HW233090   8.925   7.518   8.191  1.1665  0.5990  1.7948
42654SOL     OW33091   1.286   0.211   6.229 -0.5870 -0.6775 -0.3042
42654SOL    HW133092   1.198   0.200   6.265  0.1974  0.3867  2.0289
42654SOL    HW233093   1.288   0.302   6.199  0.3003 -0.0767  1.4597
42655SOL     OW33094   4.120   3.630   2.613  0.0431  0.0070 -0.3204
42655SOL    HW133095   4.192   3.609   2.673 -0.1335 -0.1124 -0.1460
42655SOL    HW233096   4.048   3.657   2.671  0.7052  2.4846 -0.6218
42656SOL     OW33097   3.342   4.812  10.880  0.6798  0.5406  0.3450
42656SOL    HW133098   3.332   4.722  10.849 -0.8122  0.9364 -0.3833
42656SOL    HW233099   3.434   4.833  10.864  1.1375 -0.9806  0.8866
42657SOL     OW33100   2.042   4.168   1.984 -0.1828  0.0104 -0.1263
42657SOL    HW133101   2.059   4.249   1.936  4.8089  0.1725  1.5378
42657SOL    HW233102   2.075   4.098   1.927 -2.7043 -0.7168 -0.7414
42658SOL     OW33103   4.547   0.924   9.286  0.4320  0.4777  0.0917
42658SOL    HW133104   4.595   0.879   9.217  0.9259  0.9106  0.1472
42658SOL    HW233105   4.476   0.969   9.241  0.1471 -0.0766 -0.0043
42659SOL     OW33106  11.228   8.891   9.690  0.2924  0.3144 -0.1085
42659SOL    HW133107  11.292   8.955   9.721  0.2991 -0.7741  2.2314
42659SOL    HW233108  11.269   8.806   9.705 -1.2795 -0.3614  0.5143
42660SOL     OW33109  10.829   1.776   5.891  0.6045  0.4500 -0.4048
42660SOL    HW133110  10.863   1.855   5.848 -0.0663  0.7879 -0.3216
42660SOL    HW233111  10.807   1.804   5.979  0.1245  0.2267 -0.4553
42661SOL     OW33112   5.378   8.717   8.234 -0.4069  0.3323  0.5543
42661SOL    HW133113   5.434   8.687   8.162  0.3449 -1.2496  1.7528
42661SOL    HW233114   5.418   8.800   8.262  0.0560  0.2990  0.0085
42662SOL     OW33115   0.146   6.371   7.819  0.0348 -0.3328 -0.0499
42662SOL    HW133116   0.060   6.391   7.782 -0.5060 -0.8694  0.8862
42662SOL    HW233117   0.163   6.281   7.794  0.6840  0.0249 -0.9017
42663SOL     OW33118   0.774   3.328   5.176  0.0901 -0.0065  0.3017
42663SOL    HW133119   0.765   3.291   5.263  1.9977 -1.5161 -0.1155
42663SOL    HW233120   0.715   3.275   5.122  0.9132 -0.8065  0.1814
42664SOL     OW33121   1.303   4.955   1.124  0.1070  0.2663  0.4661
42664SOL    HW133122   1.308   5.050   1.137 -0.7423  0.1658  1.6033
42664SOL    HW233123   1.365   4.937   1.054  0.2898  1.6643  0.2594
42665SOL     OW33124   5.457   7.405  11.020 -0.2137 -0.9383 -0.3147
42665SOL    HW133125   5.417   7.405  11.107  2.0708 -1.8730  0.7989
42665SOL    HW233126   5.395   7.359  10.964 -1.5277 -0.6903  0.9289
42666SOL     OW33127   1.372   5.827   5.031  0.6443 -0.1549  0.1318
42666SOL    HW133128   1.451   5.836   5.084  1.3094  0.8777 -1.0170
42666SOL    HW233129   1.307   5.882   5.075  0.7304 -0.5284  0.7355
42667SOL     OW33130   7.972   4.751   4.557 -0.6967 -0.3081  0.4683
42667SOL    HW133131   8.063   4.740   4.585 -0.7047 -1.5806  0.0264
42667SOL    HW233132   7.940   4.662   4.545 -3.1254 -0.0242  4.0919
42668SOL     OW33133   8.925   0.558   5.881 -0.0227 -0.3970  0.5762
42668SOL    HW133134   8.905   0.480   5.932 -1.2215  0.0633  0.8208
42668SOL    HW233135   8.884   0.542   5.796 -1.8823  0.7515  1.2341
42669SOL     OW33136   2.821   3.643   1.713 -0.1670  0.4302  0.5916
42669SOL    HW133137   2.908   3.624   1.680 -0.3112  0.7700  0.0108
42669SOL    HW233138   2.810   3.737   1.700 -1.2083  0.1314 -0.7641
42670SOL     OW33139   9.642   5.782   8.063  0.1628 -0.3251  0.0601
42670SOL    HW133140   9.668   5.820   7.979  1.5388  1.4951  1.2639
42670SOL    HW233141   9.554   5.747   8.048  0.9122 -1.2155 -2.4772
42671SOL     OW33142   5.914   7.360   0.760  0.3503  0.3967 -0.8835
42671SOL    HW133143   5.821   7.369   0.781  0.6349  1.0066  0.1322
42671SOL    HW233144   5.959   7.408   0.829  1.5880 -2.9963  0.7810
42672SOL     OW33145   3.584   1.333   2.009  0.5780 -0.1644  0.3719
42672SOL    HW133146   3.568   1.249   2.052 -1.7489  0.5018  0.8721
42672SOL    HW233147   3.625   1.387   2.077 -0.8142  0.0882  1.0284
42673SOL     OW33148   2.425   3.746   6.478 -0.1510 -0.6173  0.6908
42673SOL    HW133149   2.438   3.802   6.555 -1.4163 -0.3350  0.7140
42673SOL    HW233150   2.342   3.777   6.440 -1.1379 -2.7935  0.9947
42674SOL     OW33151   2.765   4.407   6.046 -0.5021  0.1466  0.1070
42674SOL    HW133152   2.702   4.359   6.101 -1.3853  1.7142  0.4997
42674SOL    HW233153   2.723   4.492   6.031  0.8693  0.6574 -0.8976
42675SOL     OW33154   0.068   2.682   0.175 -0.0077 -0.0952 -0.3615
42675SOL    HW133155   0.074   2.774   0.199  1.5727 -0.1478 -0.5047
42675SOL    HW233156   0.072   2.682   0.079 -0.8110 -0.2527 -0.3931
42676SOL     OW33157   1.931   5.959   4.346  0.0191 -0.4984  0.0600
42676SOL    HW133158   1.979   5.947   4.264 -0.5410  1.7578 -0.6424
42676SOL    HW233159   1.907   5.870   4.373  0.5152 -1.3035 -2.0301
42677SOL     OW33160   2.174   8.559   9.128  0.0962  0.1806 -0.2243
42677SOL    HW133161   2.113   8.614   9.079  0.5435  0.2348 -0.7348
42677SOL    HW233162   2.124   8.481   9.151 -0.4422  0.6524  0.2061
42678SOL     OW33163   9.246   5.837   7.977 -0.4371  0.0195  0.4479
42678SOL    HW133164   9.217   5.919   8.016  0.5032  0.0870  1.0269
42678SOL    HW233165   9.202   5.833   7.892 -0.6170  1.0321  0.4932
42679SOL     OW33166  10.290   5.147   7.049  0.6215  0.0226  0.0358
42679SOL    HW133167  10.286   5.052   7.038  0.9819  0.0966 -0.7657
42679SOL    HW233168  10.224   5.166   7.115  0.5206 -0.7833  0.1713
42680SOL     OW33169   0.226   8.941  10.687 -0.3279  0.1831 -0.1788
42680SOL    HW133170   0.150   8.893  10.721 -0.7850  0.5225 -0.7006
42680SOL    HW233171   0.210   9.032  10.711  0.7367  0.0196  1.1580
42681SOL     OW33172  10.648   0.530   8.657 -0.1122 -0.0052 -0.2878
42681SOL    HW133173  10.577   0.590   8.633 -0.8751 -1.3119 -1.3862
42681SOL    HW233174  10.728   0.576   8.630 -0.5326  1.3837  0.7699
42682SOL     OW33175   7.509  10.477   7.806 -0.0654  0.1279  0.0352
42682SOL    HW133176   7.591  10.440   7.839 -1.1718 -1.5922  0.9033
42682SOL    HW233177   7.490  10.550   7.865  1.1746  0.9462 -0.5679
42683SOL     OW33178   3.374   6.904   3.668 -0.1509  0.3390 -0.3957
42683SOL    HW133179   3.318   6.969   3.709 -0.9352 -1.3993  1.3923
42683SOL    HW233180   3.340   6.896   3.579 -0.9521  1.3219 -0.1883
42684SOL     OW33181  10.156   2.181   6.933  0.1221 -0.2384 -0.1257
42684SOL    HW133182  10.140   2.272   6.911 -1.6021 -0.8473 -1.5239
42684SOL    HW233183  10.113   2.169   7.018  2.2840  0.7838  1.1587
42685SOL     OW33184   4.857   1.398   2.329 -0.2513 -0.2063  0.5615
42685SOL    HW133185   4.825   1.409   2.239 -0.2972 -1.0370  0.4754
42685SOL    HW233186   4.883   1.306   2.334 -0.3132 -0.1792  1.4180
42686SOL     OW33187   7.166   6.953   2.602  0.1836 -0.1155  0.2026
42686SOL    HW133188   7.097   7.004   2.644  1.0299  0.9304  0.3465
42686SOL    HW233189   7.156   6.865   2.638  0.1688  0.4878  1.7226
42687SOL     OW33190   7.697   2.598   1.485 -1.1368 -0.3720  0.6384
42687SOL    HW133191   7.711   2.691   1.466 -0.5114 -0.7142 -0.6472
42687SOL    HW233192   7.771   2.574   1.542 -0.2595 -0.5098 -0.5268
42688SOL     OW33193   1.567   7.928  10.521 -0.7405  0.2151  0.2264
42688SOL    HW133194   1.611   7.854  10.562 -0.8121 -0.8257 -1.5127
42688SOL    HW233195   1.474   7.913  10.538 -0.7170  0.2269  0.3699
42689SOL     OW33196   9.967   4.826   3.248 -0.1879  0.2088  0.3447
42689SOL    HW133197   9.996   4.842   3.338  0.1176 -0.3647  0.3535
42689SOL    HW233198  10.048   4.806   3.200 -0.3201  0.7472 -0.1083
42690SOL     OW33199   0.351   3.228   5.493  0.6504 -0.2953  0.5961
42690SOL    HW133200   0.404   3.277   5.557  3.1650  0.0441 -1.6762
42690SOL    HW233201   0.390   3.141   5.491  0.7653 -0.2185 -0.6864
42691SOL     OW33202   6.731   4.027   1.635 -0.0421  0.1808  0.1809
42691SOL    HW133203   6.719   3.994   1.724  1.0870  0.2643  0.3732
42691SOL    HW233204   6.647   4.011   1.592  0.1560 -2.0441  0.5583
42692SOL     OW33205   9.456   5.369   1.930 -0.6636 -0.1168  0.6735
42692SOL    HW133206   9.544   5.390   1.961  0.2233 -0.4020 -1.6116
42692SOL    HW233207   9.431   5.444   1.876 -1.3048 -0.6244  0.2620
42693SOL     OW33208   1.076  11.106   4.632 -0.3944  0.0476 -0.4220
42693SOL    HW133209   1.163  11.069   4.621  0.4383  1.6174  0.5643
42693SOL    HW233210   1.064  11.164   4.557 -1.0478 -0.9787 -1.1269
42694SOL     OW33211   7.055   5.951   8.844  0.2533  0.2340  0.0901
42694SOL    HW133212   7.098   5.929   8.762 -0.3851  0.2662 -0.2561
42694SOL    HW233213   6.962   5.943   8.825  0.0172  2.2770  0.2063
42695SOL     OW33214   2.718   3.388   8.645  0.0544  0.3488  0.3583
42695SOL    HW133215   2.743   3.425   8.560 -0.3425  0.7011  0.3948
42695SOL    HW233216   2.751   3.451   8.709  1.1572 -0.3688  0.5066
42696SOL     OW33217   9.018   5.262   4.210  0.3918  0.1352  0.2973
42696SOL    HW133218   9.095   5.207   4.221  0.2194  0.0694  1.2284
42696SOL    HW233219   9.042   5.324   4.141  1.5100  0.5339  1.0446
42697SOL     OW33220   5.387   3.785   6.865  0.3098 -0.6227 -0.5068
42697SOL    HW133221   5.440   3.844   6.810  1.1781  0.2749  1.2537
42697SOL    HW233222   5.373   3.834   6.945 -2.3586 -1.2734 -0.5383
42698SOL     OW33223   5.880   8.317   5.053  0.5534 -0.4241 -0.0293
42698SOL    HW133224   5.930   8.325   4.972  0.4069  0.2868 -0.0569
42698SOL    HW233225   5.788   8.315   5.025  0.5044 -0.2245  0.1091
42699SOL     OW33226   8.158   5.666   9.489 -0.1503 -0.3855  0.1789
42699SOL    HW133227   8.209   5.730   9.539  0.8333 -1.2052  0.2341
42699SOL    HW233228   8.080   5.651   9.543 -1.0477  1.7411 -0.4656
42700SOL     OW33229   8.395   4.881   9.102 -0.5578  0.1197 -0.1194
42700SOL    HW133230   8.305   4.853   9.092 -0.5832 -0.3920  1.4382
42700SOL    HW233231   8.431   4.878   9.013 -1.8458 -0.4001 -0.6353
42701SOL     OW33232   8.831   3.661   7.033 -0.3919 -0.0791 -0.0173
42701SOL    HW133233   8.794   3.573   7.040 -0.1257 -0.1697  0.2675
42701SOL    HW233234   8.878   3.674   7.116  0.3072 -0.0045 -0.4229
42702SOL     OW33235   2.666   5.187   3.730 -0.2312 -0.1116  0.1052
42702SOL    HW133236   2.681   5.187   3.825  0.5366  0.6354 -0.0099
42702SOL    HW233237   2.593   5.248   3.718 -0.2719 -0.1396  0.2052
42703SOL     OW33238   8.368  10.560   9.863  0.7748 -0.2258 -0.1413
42703SOL    HW133239   8.446  10.514   9.831 -1.0192 -1.9695 -2.1559
42703SOL    HW233240   8.352  10.523   9.950  1.1218 -1.2034 -0.4889
42704SOL     OW33241   5.550   0.842   2.738 -0.1479 -0.0083  0.5618
42704SOL    HW133242   5.509   0.757   2.720  1.6944 -1.1783  1.6979
42704SOL    HW233243   5.610   0.856   2.665  1.4240 -0.9312  1.6430
42705SOL     OW33244  11.065  11.147   4.366  0.2316 -0.4470  0.3543
42705SOL    HW133245  11.040  11.218   4.307 -1.4323 -0.7749  0.6626
42705SOL    HW233246  11.155  11.126   4.341  0.1415  0.6071 -0.8812
42706SOL     OW33247   1.924   4.213  10.161 -0.2803  0.1189 -0.2765
42706SOL    HW133248   1.948   4.214  10.253  4.1538 -1.0215 -1.2670
42706SOL    HW233249   1.919   4.305  10.136  0.0015  0.4192  0.7623
42707SOL     OW33250   4.732   7.774   0.407  0.0346 -0.5033 -0.0493
42707SOL    HW133251   4.674   7.730   0.470 -0.2436  0.6754  0.5251
42707SOL    HW233252   4.805   7.713   0.396  0.9617  0.0158  2.7716
42708SOL     OW33253   8.637   1.882   9.422 -0.1530 -0.0884  0.6459
42708SOL    HW133254   8.600   1.939   9.490  1.2452  1.1495  0.3879
42708SOL    HW233255   8.730   1.878   9.443  0.3198  0.4457 -1.2839
42709SOL     OW33256   4.717   4.475   0.429  0.3232  0.0417 -0.1819
42709SOL    HW133257   4.778   4.453   0.360  1.2111  0.4128  0.4720
42709SOL    HW233258   4.682   4.391   0.460 -0.2256 -0.1085 -1.2032
42710SOL     OW33259   5.930   9.956   2.932 -0.5386 -0.5159 -0.1297
42710SOL    HW133260   5.951  10.019   3.001 -0.7771  0.6726 -1.1177
42710SOL    HW233261   5.961   9.998   2.851 -1.9635 -1.0532 -0.9746
42711SOL     OW33262   3.516  11.000   9.068 -0.7128  0.3234 -0.5251
42711SOL    HW133263   3.422  11.002   9.052 -0.7530  1.0581 -0.2467
42711SOL    HW233264   3.547  10.923   9.020 -1.4785 -0.0291 -0.4703
42712SOL     OW33265   4.823   9.848   8.791 -0.1482  0.3432  0.1067
42712SOL    HW133266   4.755   9.904   8.828 -1.2264 -0.1645 -1.0828
42712SOL    HW233267   4.775   9.775   8.751  1.1844 -0.9954  0.8752
42713SOL     OW33268   2.780   7.868   7.704  0.1044  0.2147  0.1988
42713SOL    HW133269   2.773   7.794   7.765  1.3303  0.2860  0.4424
42713SOL    HW233270   2.819   7.938   7.756  0.1336  0.6287 -0.3771
42714SOL     OW33271   8.883   9.022   7.739 -0.1740 -0.3846 -0.9905
42714SOL    HW133272   8.960   8.981   7.778 -1.0951  0.1441  1.4670
42714SOL    HW233273   8.848   9.079   7.807 -1.3448  1.2825 -2.9073
42715SOL     OW33274   5.805   6.522   1.173  0.1084  0.3208  0.4358
42715SOL    HW133275   5.845   6.594   1.124 -0.0296  0.7342  0.9298
42715SOL    HW233276   5.853   6.520   1.256 -0.1092  0.0601  0.5563
42716SOL     OW33277   3.593   2.904   8.358 -0.1568 -0.5391  0.5712
42716SOL    HW133278   3.594   2.843   8.284  0.0091 -3.2398  2.7088
42716SOL    HW233279   3.501   2.908   8.384  0.0552 -1.1817  1.4486
42717SOL     OW33280  11.072   8.244  11.323  0.0601  0.2948 -0.0991
42717SOL    HW133281  11.006   8.227  11.255 -0.1496 -0.7647  0.3537
42717SOL    HW233282  11.154   8.253  11.276 -0.0507 -0.6635 -0.4793
42718SOL     OW33283   7.448   0.768   1.855  0.4527  0.1429  0.3846
42718SOL    HW133284   7.432   0.863   1.853  0.7663  0.2687  2.5776
42718SOL    HW233285   7.447   0.746   1.948 -0.5520 -2.1869 -0.1664
42719SOL     OW33286   8.931  10.505   5.418  0.1200  0.1282  0.2731
42719SOL    HW133287   8.966  10.581   5.371 -0.3953 -0.0565 -0.4121
42719SOL    HW233288   8.878  10.543   5.489  0.7342  0.4066  0.5839
42720SOL     OW33289   2.821   1.947   7.360 -0.3237 -0.9425  0.4813
42720SOL    HW133290   2.813   1.983   7.272  1.0169  2.3768  1.6436
42720SOL    HW233291   2.736   1.966   7.402 -0.2890 -0.8230  0.4977
42721SOL     OW33292   5.735   1.837   4.024 -0.0065  0.1173 -0.2397
42721SOL    HW133293   5.741   1.823   3.929  0.0288  1.2272 -0.4104
42721SOL    HW233294   5.654   1.887   4.036 -0.4324 -0.7248  0.3989
42722SOL     OW33295   3.830   8.345   1.699 -0.5915 -0.5242 -0.6590
42722SOL    HW133296   3.876   8.378   1.777 -1.6917 -0.1961 -0.1335
42722SOL    HW233297   3.847   8.411   1.632  1.5633 -1.5156 -1.1494
42723SOL     OW33298   1.088  10.838   0.910 -0.1027 -0.1296 -0.2682
42723SOL    HW133299   1.001  10.868   0.885 -0.2852 -0.2703  0.1904
42723SOL    HW233300   1.147  10.886   0.852 -0.4235  0.6727  0.0574
42724SOL     OW33301   8.388   4.278   0.309 -0.1995 -0.3041 -1.0235
42724SOL    HW133302   8.314   4.338   0.305 -3.0496 -3.5083  0.8290
42724SOL    HW233303   8.405   4.267   0.402  1.8679 -0.5316 -1.4003
42725SOL     OW33304   2.347   9.389   1.957  0.1096  0.3565  0.3939
42725SOL    HW133305   2.427   9.386   2.010 -0.4046 -0.9737  1.1443
42725SOL    HW233306   2.376   9.370   1.868  0.6067 -0.4816  0.7186
42726SOL     OW33307   0.071   9.471   9.906  1.0239  0.3159  0.5736
42726SOL    HW133308   0.060   9.395   9.848 -1.0700  0.9126  0.1538
42726SOL    HW233309   0.029   9.445   9.988  0.4807  0.9388  0.4972
42727SOL     OW33310   9.380   6.154   0.340  0.1141 -0.3478 -0.0398
42727SOL    HW133311   9.468   6.191   0.333 -0.2369  0.3738 -0.7220
42727SOL    HW233312   9.379   6.109   0.425  1.3768 -1.0049 -0.3665
42728SOL     OW33313   7.794   5.391   8.563  0.2249  0.0040 -0.1423
42728SOL    HW133314   7.793   5.396   8.467  0.2814 -2.9606 -0.3361
42728SOL    HW233315   7.886   5.402   8.586  0.2779  0.2036 -0.4431
42729SOL     OW33316   5.330   6.076   2.378 -0.3708  0.2953 -0.3313
42729SOL    HW133317   5.245   6.104   2.413 -0.0194  1.2133 -0.2153
42729SOL    HW233318   5.322   5.981   2.370 -0.2261 -0.0435  2.9234
42730SOL     OW33319   6.070   0.882   0.094  0.2221  0.4062 -0.2740
42730SOL    HW133320   6.056   0.873  -0.000  0.4404  0.1296 -0.2796
42730SOL    HW233321   6.045   0.798   0.130 -2.4916  1.4033  0.2259
42731SOL     OW33322   7.679   8.768   4.520  0.1830 -0.2568  0.4713
42731SOL    HW133323   7.772   8.786   4.532  0.1690 -0.4757  0.9250
42731SOL    HW233324   7.673   8.672   4.523 -0.4417 -0.1800  3.4475
42732SOL     OW33325   3.061   1.565   7.572  0.0995  0.3313 -0.0568
42732SOL    HW133326   3.118   1.630   7.532  1.2242 -0.0325  0.9223
42732SOL    HW233327   3.032   1.605   7.654 -0.8485  0.4039 -0.4175
42733SOL     OW33328  11.240   1.520   7.331 -0.0412  0.5094 -0.2661
42733SOL    HW133329  11.300   1.459   7.287 -0.8076  0.1863 -0.8803
42733SOL    HW233330  11.264   1.606   7.297 -1.0642  0.1887 -1.8368
42734SOL     OW33331   7.496   6.966   4.034  0.1484 -0.2097  0.4525
42734SOL    HW133332   7.517   6.890   4.088  0.0215 -1.0076 -0.5825
42734SOL    HW233333   7.523   7.041   4.086 -0.1923 -0.9374  1.7131
42735SOL     OW33334  10.244   2.055  11.155 -0.4149  0.0255  0.8514
42735SOL    HW133335  10.154   2.023  11.162 -0.6625  0.2889 -0.8890
42735SOL    HW233336  10.272   2.029  11.067  1.0549  0.3641  1.2042
42736SOL     OW33337   6.848   6.378  10.351  0.0279  0.0133 -0.2828
42736SOL    HW133338   6.784   6.444  10.324  0.3763  0.7848  0.7882
42736SOL    HW233339   6.925   6.427  10.377  0.8072 -0.8888 -0.8390
42737SOL     OW33340   4.883   2.910   4.929  0.5717  0.4228 -0.2808
42737SOL    HW133341   4.933   2.992   4.919  2.0781 -0.3924  0.4370
42737SOL    HW233342   4.795   2.939   4.952  1.1165  1.8585  0.0759
42738SOL     OW33343   8.831   1.196   9.651  0.5543  0.2811 -0.0110
42738SOL    HW133344   8.867   1.249   9.580 -1.2783  0.9599 -0.4678
42738SOL    HW233345   8.862   1.107   9.632  1.9714  0.8308 -0.3670
42739SOL     OW33346  11.278   6.524   0.972 -0.3304  0.0074 -0.2064
42739SOL    HW133347  11.271   6.608   1.018 -0.8882 -0.3663  0.3931
42739SOL    HW233348  11.330   6.469   1.031  0.3651  0.0567 -0.7748
42740SOL     OW33349   8.487   7.763   3.571 -0.4083 -0.0426 -0.2214
42740SOL    HW133350   8.409   7.718   3.603 -0.4670 -0.0270 -0.3412
42740SOL    HW233351   8.520   7.811   3.647 -0.2015 -0.4880 -0.0275
42741SOL     OW33352   4.395   7.933   1.213 -0.4196  0.7168 -0.0436
42741SOL    HW133353   4.483   7.897   1.229 -0.5732  0.2761 -0.1940
42741SOL    HW233354   4.337   7.876   1.264 -0.4981  1.7429  1.0344
42742SOL     OW33355   0.957   8.725   7.963 -0.3825 -0.0481 -0.1041
42742SOL    HW133356   0.875   8.678   7.946 -0.7961  0.0583  1.5457
42742SOL    HW233357   0.945   8.764   8.049  1.1880  0.4525 -0.1006
42743SOL     OW33358   1.495  10.166   6.849  0.6694 -0.0018 -0.0691
42743SOL    HW133359   1.454  10.252   6.858 -0.4766 -0.6192  0.8404
42743SOL    HW233360   1.451  10.112   6.914  0.9871 -1.4285 -1.0101
42744SOL     OW33361   7.237  11.312   1.401  0.2180 -0.2067 -0.5703
42744SOL    HW133362   7.156  11.313   1.453  0.7234  1.1794  0.2051
42744SOL    HW233363   7.240  11.224   1.363 -0.9499 -0.7195  0.4974
42745SOL     OW33364   6.807   4.221  11.223 -0.0251 -0.1827 -0.4449
42745SOL    HW133365   6.814   4.132  11.257  0.4176  0.7369  1.9998
42745SOL    HW233366   6.823   4.213  11.129 -1.5689 -2.8749 -0.5281
42746SOL     OW33367   8.354   7.684   4.702 -0.0238 -0.3958 -0.2639
42746SOL    HW133368   8.409   7.749   4.658  0.3283  0.2100  1.0335
42746SOL    HW233369   8.409   7.606   4.708 -0.3999 -0.7819 -1.7059
42747SOL     OW33370   5.218   9.231   5.423  0.8554 -0.1743  0.0771
42747SOL    HW133371   5.247   9.164   5.362  0.5920  0.9877 -1.3335
42747SOL    HW233372   5.201   9.183   5.505  1.7847 -1.6315 -0.5677
42748SOL     OW33373   7.710   4.598  10.981  0.2692  0.4448  0.4054
42748SOL    HW133374   7.706   4.518  11.033  0.1566  0.2720  0.1308
42748SOL    HW233375   7.625   4.640  10.992 -1.4114 -1.8224 -3.1880
42749SOL     OW33376   6.535   5.201   6.237 -0.2266 -0.4352  0.6810
42749SOL    HW133377   6.469   5.133   6.229  0.8154 -1.5863  1.5636
42749SOL    HW233378   6.491   5.273   6.282 -0.6450 -1.5430  2.0791
42750SOL     OW33379   8.028   5.625   9.113  0.0155 -0.0881 -0.1328
42750SOL    HW133380   8.025   5.541   9.069 -0.4813 -0.9931  1.5999
42750SOL    HW233381   8.120   5.635   9.139  0.2341  0.2773 -1.0208
42751SOL     OW33382   5.730   7.955  10.901  0.4049  0.7385  0.3856
42751SOL    HW133383   5.826   7.952  10.910  0.3633 -0.9623  0.3615
42751SOL    HW233384   5.715   7.959  10.806  0.3998 -2.9785  0.1629
42752SOL     OW33385   4.886  10.246   2.613  0.3839 -0.2089  0.4862
42752SOL    HW133386   4.881  10.217   2.704 -0.8024 -1.6964 -0.0365
42752SOL    HW233387   4.937  10.178   2.568  0.3656  0.1620 -0.1055
42753SOL     OW33388   3.234   4.009   9.487  0.0295 -0.3072 -0.1154
42753SOL    HW133389   3.301   4.064   9.528 -1.5614  2.1034 -0.6510
42753SOL    HW233390   3.179   3.981   9.560  0.2329 -0.3372  0.0292
42754SOL     OW33391   0.184   6.782   9.487  0.2591 -0.1301 -0.0464
42754SOL    HW133392   0.137   6.769   9.569  1.1243 -2.7138  0.0800
42754SOL    HW233393   0.132   6.734   9.422 -1.1316  2.9578 -1.3245
42755SOL     OW33394   7.989   0.685   8.686 -0.2496 -0.3353  0.1032
42755SOL    HW133395   7.920   0.750   8.698  0.8981  0.5988  1.8511
42755SOL    HW233396   8.053   0.730   8.630 -0.9999 -1.1867 -1.4835
42756SOL     OW33397  10.820   9.303   7.388  0.2913  0.0807  0.5055
42756SOL    HW133398  10.725   9.309   7.393  0.2281  0.2854 -0.7581
42756SOL    HW233399  10.851   9.391   7.409  0.2821 -0.2924  2.2203
42757SOL     OW33400   0.125   5.313   0.105 -0.0501 -0.0334 -0.2043
42757SOL    HW133401   0.073   5.262   0.043 -0.7209 -0.6441  0.8528
42757SOL    HW233402   0.117   5.403   0.074  0.2854 -0.4262 -1.4752
42758SOL     OW33403   5.138   3.070   8.554  0.1539  0.1223  0.3209
42758SOL    HW133404   5.176   2.998   8.504 -1.0137  0.8771 -1.7573
42758SOL    HW233405   5.211   3.129   8.572  0.8198 -0.7954  0.6355
42759SOL     OW33406   4.019   8.403   6.898  0.3998 -0.3546  0.1763
42759SOL    HW133407   4.090   8.344   6.924 -0.4127 -1.5226 -0.2048
42759SOL    HW233408   3.948   8.345   6.872  0.1287  0.7912 -1.7345
42760SOL     OW33409   0.375   6.671   2.756  0.5751 -0.0954  0.0891
42760SOL    HW133410   0.356   6.695   2.665 -0.1855  0.5963  0.4263
42760SOL    HW233411   0.295   6.627   2.786  0.8546 -0.3916  0.4025
42761SOL     OW33412   1.298   0.281   7.083 -0.7450 -0.1123 -0.7004
42761SOL    HW133413   1.333   0.194   7.102 -3.8213 -1.6055 -1.5793
42761SOL    HW233414   1.298   0.288   6.988 -1.7903  0.3113 -0.6748
42762SOL     OW33415   0.097   1.343   7.245  0.2409  0.5238 -0.1696
42762SOL    HW133416   0.168   1.306   7.297  1.4182  1.3401 -1.1689
42762SOL    HW233417   0.089   1.284   7.170  0.8031  1.2006 -0.7644
42763SOL     OW33418   9.089   9.304   7.733  0.7834  0.0418  0.0130
42763SOL    HW133419   9.033   9.301   7.655  1.1827 -2.8549 -0.1834
42763SOL    HW233420   9.028   9.295   7.806  0.7114 -0.0733 -0.0609
42764SOL     OW33421   5.092   1.081   5.115  0.0419  0.1273  0.4387
42764SOL    HW133422   5.104   1.103   5.022 -0.1603  1.0574  0.6272
42764SOL    HW233423   5.178   1.052   5.145  0.0194 -0.5540 -0.1362
42765SOL     OW33424   9.277   7.566   9.501 -0.6410 -0.5165 -0.1471
42765SOL    HW133425   9.317   7.489   9.461 -0.3915 -0.2793 -0.3612
42765SOL    HW233426   9.270   7.629   9.430  2.5218  0.9857  0.7613
42766SOL     OW33427   3.488   1.242   7.449  0.1341 -0.0741  0.0610
42766SOL    HW133428   3.470   1.333   7.473  0.0108  0.1385 -0.8377
42766SOL    HW233429   3.583   1.237   7.449  0.1500  0.2463 -0.6165
42767SOL     OW33430  10.448   5.667   6.916 -0.6346 -0.3917 -0.1297
42767SOL    HW133431  10.489   5.723   6.850 -0.9720  0.0067 -0.0036
42767SOL    HW233432  10.485   5.580   6.901  2.4608  0.5315  1.8533
42768SOL     OW33433   2.251   7.362   9.057 -1.0223  0.0771 -0.7483
42768SOL    HW133434   2.187   7.387   9.124 -0.2804  1.5145 -0.5548
42768SOL    HW233435   2.198   7.326   8.986 -1.9287 -0.1136  0.0164
42769SOL     OW33436   3.180   5.234   2.548 -0.0671 -0.5225  0.5167
42769SOL    HW133437   3.262   5.267   2.585  0.1732 -0.6061  0.0551
42769SOL    HW233438   3.207   5.165   2.489 -0.4666 -0.4760  0.2836
42770SOL     OW33439   4.656   0.454   0.326  0.1902  0.3563  0.2295
42770SOL    HW133440   4.751   0.458   0.336  0.0324 -0.2750  2.1152
42770SOL    HW233441   4.624   0.537   0.361  0.1300  1.2761 -1.9026
42771SOL     OW33442  11.074   7.644   6.355 -0.3159 -0.1841 -0.2954
42771SOL    HW133443  11.072   7.726   6.405 -1.7368  0.0214 -0.6652
42771SOL    HW233444  10.993   7.599   6.380 -0.1403 -0.9150 -1.0367
42772SOL     OW33445   7.512   4.513  10.772  0.0826  0.3242 -0.0611
42772SOL    HW133446   7.525   4.592  10.720 -0.2505  0.5535  0.2043
42772SOL    HW233447   7.548   4.534  10.858  0.4584  0.0112 -0.1412
42773SOL     OW33448   8.155   4.124   8.940  0.5173  0.0780 -0.5153
42773SOL    HW133449   8.091   4.124   8.869  0.4002  0.1253 -0.4100
42773SOL    HW233450   8.201   4.208   8.931 -0.1089  0.4866  0.0109
42774SOL     OW33451   1.996  10.506   1.466  0.0593 -0.0497 -0.3040
42774SOL    HW133452   2.001  10.596   1.433 -0.5196  0.0803 -0.0368
42774SOL    HW233453   1.903  10.490   1.477  0.1545 -0.7267 -0.4569
42775SOL     OW33454   4.777   0.611  10.358  0.1886  0.0361 -0.0811
42775SOL    HW133455   4.760   0.703  10.378  1.3483  0.2522 -0.0589
42775SOL    HW233456   4.693   0.568  10.371  0.0739  0.7853  1.7468
42776SOL     OW33457   3.771   5.810   3.672  0.0599  0.1719 -0.3256
42776SOL    HW133458   3.784   5.904   3.688 -0.5593  0.3916 -1.0596
42776SOL    HW233459   3.713   5.807   3.595 -0.7359 -0.8091  0.3061
42777SOL     OW33460   6.335   8.683  10.825  0.0778  0.3802 -0.5429
42777SOL    HW133461   6.327   8.751  10.892  1.5897 -0.1722  0.2188
42777SOL    HW233462   6.287   8.608  10.862 -0.0618  0.4510 -0.5825
42778SOL     OW33463   3.956  10.458   9.452 -0.0623  0.0914  0.5892
42778SOL    HW133464   4.005  10.432   9.374  1.1758  0.3079  1.2815
42778SOL    HW233465   3.887  10.516   9.418 -0.2041 -0.6735 -0.4555
42779SOL     OW33466   2.098   5.705   4.359 -0.0307 -0.0625  0.6068
42779SOL    HW133467   2.036   5.632   4.359  1.1841 -1.1402 -1.1524
42779SOL    HW233468   2.133   5.707   4.448 -2.0693  0.1398  1.4374
42780SOL     OW33469   0.494   4.832   8.430  0.1638 -0.3264  0.0680
42780SOL    HW133470   0.500   4.928   8.423  0.9972 -0.3535  0.2943
42780SOL    HW233471   0.442   4.806   8.354 -1.8750  0.4775  1.1416
42781SOL     OW33472  10.220   6.408   4.406 -0.2714 -0.2643  0.3967
42781SOL    HW133473  10.301   6.390   4.455  0.0807  0.7045  0.1878
42781SOL    HW233474  10.183   6.322   4.388  0.8299 -0.7322  0.3274
42782SOL     OW33475   8.532   2.648   4.392 -0.6332 -0.3015  0.1634
42782SOL    HW133476   8.488   2.567   4.418 -0.1522 -0.6711 -0.1686
42782SOL    HW233477   8.586   2.623   4.317 -0.4804  0.3270  0.0595
42783SOL     OW33478   4.007   1.667   6.757  0.2057 -0.3020  0.2699
42783SOL    HW133479   4.056   1.731   6.706  0.4067  1.4240  2.5792
42783SOL    HW233480   4.070   1.597   6.775  0.0638 -1.0494 -2.0132
42784SOL     OW33481   6.038   2.128   8.579  0.0594  0.3243  0.3676
42784SOL    HW133482   6.016   2.220   8.591  1.1428  0.5182  0.8750
42784SOL    HW233483   6.029   2.114   8.485 -0.0325  0.9621  0.2759
42785SOL     OW33484   9.054   2.038   3.384  0.1075 -0.5121  0.1562
42785SOL    HW133485   9.093   2.099   3.321  1.3228  0.2001  1.5651
42785SOL    HW233486   9.118   1.967   3.391 -0.2950 -0.8740  0.1400
42786SOL     OW33487   4.544   5.379   6.681 -0.1209 -0.7506 -0.1488
42786SOL    HW133488   4.487   5.416   6.748  1.1311  0.4844  0.2576
42786SOL    HW233489   4.522   5.286   6.679 -0.1347 -0.8207  2.0064
42787SOL     OW33490   3.714   1.265   1.219  0.0358 -0.1991  0.4203
42787SOL    HW133491   3.714   1.174   1.249 -0.6626 -0.9455 -1.7468
42787SOL    HW233492   3.730   1.316   1.298  0.0462 -2.1830  1.7406
42788SOL     OW33493   5.747  10.617   4.788 -0.1917  0.0921 -0.3913
42788SOL    HW133494   5.801  10.557   4.737  1.7499  0.9238  0.6417
42788SOL    HW233495   5.657  10.589   4.769  0.5390 -0.8786 -2.6772
42789SOL     OW33496   1.490   1.825   5.606  0.1102 -0.6323 -0.3078
42789SOL    HW133497   1.456   1.736   5.595  0.6698 -1.0073  0.8932
42789SOL    HW233498   1.585   1.815   5.604  0.2332  0.4190 -3.7014
42790SOL     OW33499   5.009   1.098   2.709 -0.6212  0.1561  0.1594
42790SOL    HW133500   4.965   1.148   2.777  3.2047  1.2919  1.9344
42790SOL    HW233501   5.036   1.163   2.644 -0.8015 -0.4050 -0.4882
42791SOL     OW33502   6.217   2.702  10.838 -0.5312 -0.0765 -0.0506
42791SOL    HW133503   6.237   2.758  10.763  0.2338 -0.0524  0.1585
42791SOL    HW233504   6.142   2.650  10.811 -0.8282  0.5829 -0.4913
42792SOL     OW33505  11.161  10.275   3.317 -0.6038  0.3320  0.6007
42792SOL    HW133506  11.113  10.223   3.253 -0.8026  0.4565  0.6487
42792SOL    HW233507  11.129  10.364   3.303 -0.9655  0.2888  1.1753
42793SOL     OW33508   4.278   1.619   7.124 -0.5350 -0.4042  0.0540
42793SOL    HW133509   4.315   1.707   7.137 -2.4620  0.4811 -0.1876
42793SOL    HW233510   4.247   1.619   7.033  0.5198 -1.7538 -0.3115
42794SOL     OW33511  11.258  10.227   1.136 -0.1405  0.0328 -0.0006
42794SOL    HW133512  11.196  10.299   1.137  1.2751  1.2934 -0.1973
42794SOL    HW233513  11.318  10.247   1.064  0.6291 -1.0178  0.3231
42795SOL     OW33514   9.788   9.318   4.950 -0.7906 -0.3255 -0.2603
42795SOL    HW133515   9.742   9.402   4.953 -1.5377 -0.7131 -0.6458
42795SOL    HW233516   9.839   9.321   4.869 -1.3920 -0.5313 -0.6528
42796SOL     OW33517   0.530   5.454   9.468  0.5076  0.4667 -0.5470
42796SOL    HW133518   0.617   5.453   9.428  0.8118  1.2255  0.0693
42796SOL    HW233519   0.517   5.365   9.499  0.7950  0.1861 -1.2238
42797SOL     OW33520   8.304  10.076   8.840  0.2322  0.4242  0.4654
42797SOL    HW133521   8.239  10.143   8.820 -0.2759 -0.5166 -1.1230
42797SOL    HW233522   8.257   9.993   8.828  1.6220 -0.2559 -0.3081
42798SOL     OW33523   8.533   4.941  10.071 -0.9358  0.3683 -0.1117
42798SOL    HW133524   8.577   4.962   9.988 -0.3628  0.4735  0.2200
42798SOL    HW233525   8.517   4.847  10.066  0.2890  0.1284  0.2190
42799SOL     OW33526   5.679   0.441   5.280  0.5496 -0.0723 -0.0963
42799SOL    HW133527   5.758   0.408   5.238 -0.3390 -1.1163 -0.9870
42799SOL    HW233528   5.608   0.386   5.245 -0.8417  2.1546 -0.9365
42800SOL     OW33529   3.544   3.658  10.691  0.0234 -0.1172 -0.2941
42800SOL    HW133530   3.509   3.698  10.612  0.2191  0.0980 -0.2723
42800SOL    HW233531   3.474   3.600  10.722  0.6332 -1.5679 -1.6035
42801SOL     OW33532   5.989   1.490   2.589  0.4425  0.4402  0.4105
42801SOL    HW133533   6.023   1.578   2.581  0.2467  0.3044 -2.2551
42801SOL    HW233534   6.052   1.445   2.646  1.1213  1.9787  0.9009
42802SOL     OW33535   1.262   7.834   8.777 -0.0611 -0.3808 -0.1377
42802SOL    HW133536   1.356   7.823   8.787 -0.4312 -2.2391  1.7155
42802SOL    HW233537   1.251   7.877   8.692  2.4675  0.4211 -0.0879
42803SOL     OW33538   2.809   6.693   0.880  0.6388  0.3146 -0.1113
42803SOL    HW133539   2.890   6.671   0.836  0.0904 -1.0601 -0.4490
42803SOL    HW233540   2.835   6.752   0.951  1.8719  0.1586 -0.4363
42804SOL     OW33541   0.971  11.204   2.107 -0.4818 -0.4690 -0.1853
42804SOL    HW133542   1.058  11.212   2.070 -0.4521 -0.6900 -0.1655
42804SOL    HW233543   0.985  11.202   2.202 -0.4761 -0.8947 -0.1957
42805SOL     OW33544   7.180   6.223   5.616  0.3716 -0.0162 -0.4611
42805SOL    HW133545   7.165   6.313   5.587 -1.9008 -0.6793 -1.4589
42805SOL    HW233546   7.119   6.210   5.689  0.4723 -0.8429 -0.5178
42806SOL     OW33547   7.267   0.673   3.390 -0.6279 -0.3608  1.3094
42806SOL    HW133548   7.312   0.758   3.394  1.5355 -1.4522  0.6992
42806SOL    HW233549   7.276   0.637   3.479  0.6091 -1.0195  0.9264
42807SOL     OW33550   8.570   8.842   9.186 -0.0619 -0.3389 -0.0719
42807SOL    HW133551   8.654   8.841   9.230  0.1073 -1.8817 -0.3980
42807SOL    HW233552   8.576   8.771   9.121 -2.4657 -2.1410  1.5651
42808SOL     OW33553   7.675  10.816  10.908  0.3755  0.2301  0.2106
42808SOL    HW133554   7.724  10.896  10.925  0.1152  0.5625 -0.5945
42808SOL    HW233555   7.640  10.827  10.820  1.3504 -1.2739 -0.3936
42809SOL     OW33556   3.871   8.418   0.470  0.3541  0.6541  0.7120
42809SOL    HW133557   3.796   8.395   0.524  0.9752 -0.3960  1.1351
42809SOL    HW233558   3.851   8.379   0.384  0.9069 -0.5686  1.1274
42810SOL     OW33559   8.793   4.233   5.216 -0.2533 -0.7358 -0.1938
42810SOL    HW133560   8.798   4.327   5.200  1.8129 -0.9543 -1.1231
42810SOL    HW233561   8.722   4.202   5.160 -2.0756  0.4887  1.3980
42811SOL     OW33562   2.502   3.337   3.835  0.0803 -0.0211 -0.6432
42811SOL    HW133563   2.460   3.251   3.834 -1.1507  0.5460 -2.4135
42811SOL    HW233564   2.494   3.367   3.744  2.0946  1.1978 -0.4283
42812SOL     OW33565  10.293   4.286   2.598  0.1970  0.0654 -0.1372
42812SOL    HW133566  10.250   4.259   2.680 -0.6547  3.0974  0.5035
42812SOL    HW233567  10.366   4.225   2.588 -0.8041 -1.5419  1.8840
42813SOL     OW33568   2.024  10.861   6.789  0.1130  0.7764  0.3519
42813SOL    HW133569   2.101  10.825   6.743  0.1472 -1.1051  1.8441
42813SOL    HW233570   2.042  10.845   6.881 -2.8547 -1.2818  0.6332
42814SOL     OW33571   7.035   4.126   6.073  0.4679  0.0800  0.6089
42814SOL    HW133572   6.943   4.149   6.062  0.7916  0.8795 -0.4986
42814SOL    HW233573   7.070   4.194   6.129  0.6874  0.5224 -0.0600
42815SOL     OW33574  11.129   6.040   2.273 -0.4037 -0.2615  0.0826
42815SOL    HW133575  11.145   6.081   2.188 -1.0217  0.2321  0.2002
42815SOL    HW233576  11.215   6.011   2.303  0.1352  1.5296  0.2890
42816SOL     OW33577   5.367   9.595  10.824  0.3418 -0.1037  0.1266
42816SOL    HW133578   5.340   9.677  10.866  2.4942  0.9521 -0.4623
42816SOL    HW233579   5.384   9.620  10.733  1.1756 -1.1962 -0.0216
42817SOL     OW33580   6.140   8.608   3.444 -0.6223 -0.5023 -0.5514
42817SOL    HW133581   6.133   8.562   3.527 -0.7034 -1.2914 -0.9955
42817SOL    HW233582   6.223   8.577   3.406  0.0398  0.7883 -0.2002
42818SOL     OW33583   6.834   6.585   3.389 -0.6424 -0.1717 -0.3710
42818SOL    HW133584   6.842   6.595   3.484  0.2968 -0.0143 -0.4548
42818SOL    HW233585   6.921   6.556   3.361 -0.7395  0.3689 -1.2553
42819SOL     OW33586   8.938   9.753   6.432  0.0772 -0.1959  0.1424
42819SOL    HW133587   8.869   9.688   6.430  0.3408 -0.4575 -3.0702
42819SOL    HW233588   9.008   9.716   6.378  0.4632  2.4444 -1.2736
42820SOL     OW33589   2.989   4.406   7.398  0.0115  0.4396 -0.1466
42820SOL    HW133590   2.945   4.347   7.337  0.0980  0.4412 -0.2109
42820SOL    HW233591   3.010   4.483   7.345 -1.2806  1.0787  0.2569
42821SOL     OW33592   8.141  10.177   5.756 -0.2545 -0.1837  0.1050
42821SOL    HW133593   8.094  10.216   5.829  0.4030  0.6435  0.0815
42821SOL    HW233594   8.225  10.222   5.753  0.6787 -1.8781  0.3291
42822SOL     OW33595   1.659   5.529   5.771  0.0444  0.0832  0.3773
42822SOL    HW133596   1.684   5.437   5.756  0.4073  0.2724 -0.2181
42822SOL    HW233597   1.698   5.551   5.856  0.8652 -0.0012  0.0317
42823SOL     OW33598  10.802   0.831   0.410 -0.1229 -0.4040 -0.4294
42823SOL    HW133599  10.803   0.827   0.315 -1.7185  1.0219 -0.5270
42823SOL    HW233600  10.735   0.769   0.437 -0.7613  0.3161 -0.3286
42824SOL     OW33601   7.750   8.043   7.710  0.3258 -0.2569  0.1799
42824SOL    HW133602   7.742   7.989   7.789 -0.8365  0.4429  0.5524
42824SOL    HW233603   7.844   8.055   7.698  0.5407 -1.1821  0.9007
42825SOL     OW33604   6.838   3.968   6.532 -0.2847  0.1067  0.1236
42825SOL    HW133605   6.840   3.881   6.492  0.7205  0.2489 -0.1657
42825SOL    HW233606   6.764   3.965   6.592  0.6701 -1.5032  1.3041
42826SOL     OW33607   0.344  11.223   2.181  0.9037 -0.0364 -0.7121
42826SOL    HW133608   0.330  11.317   2.170  0.8001  0.0434  0.0822
42826SOL    HW233609   0.414  11.202   2.120  2.2096  0.9132  0.4292
42827SOL     OW33610  10.960   6.225   5.682 -0.2514  0.4138  0.4629
42827SOL    HW133611  11.039   6.278   5.693 -0.2699  0.2374  1.5773
42827SOL    HW233612  10.891   6.288   5.661  0.0337  0.6562  0.2575
42828SOL     OW33613   5.349   2.798   2.670  0.1581 -0.1125  0.1067
42828SOL    HW133614   5.393   2.883   2.674 -0.5476  0.2117  1.1845
42828SOL    HW233615   5.315   2.792   2.581  1.1156  0.2783 -0.2826
42829SOL     OW33616  10.363   5.083   9.279  0.1737  0.4116  0.0305
42829SOL    HW133617  10.411   5.001   9.268  0.0835  0.6546 -2.6723
42829SOL    HW233618  10.281   5.069   9.232 -1.3811  0.8493  2.5409
42830SOL     OW33619  10.658   6.907   6.053  0.3606 -0.1057  0.4813
42830SOL    HW133620  10.564   6.888   6.051  0.1727  0.3423  3.6442
42830SOL    HW233621  10.680   6.924   5.961 -2.6043 -0.3658 -0.3453
42831SOL     OW33622   3.456   5.274   0.466  0.2417  0.1725 -0.0455
42831SOL    HW133623   3.538   5.295   0.422 -0.3305  1.9197 -0.3295
42831SOL    HW233624   3.408   5.220   0.403  1.0646 -0.6428  0.0242
42832SOL     OW33625   7.670   0.217  10.516  0.3283  0.4182  0.3098
42832SOL    HW133626   7.723   0.187  10.442  0.2335  0.7843  0.0897
42832SOL    HW233627   7.650   0.138  10.565  0.5620  0.1970  0.0535
42833SOL     OW33628   6.976   4.091   7.355 -0.2273  0.0604  0.4895
42833SOL    HW133629   6.991   4.121   7.265 -1.9066 -3.2834 -0.9696
42833SOL    HW233630   6.914   4.154   7.392 -1.0093  0.3815 -1.3462
42834SOL     OW33631   4.083  11.287  11.161  0.4781  0.0651  0.4717
42834SOL    HW133632   4.088  11.218  11.094  1.6307 -0.0576  0.6713
42834SOL    HW233633   4.056  11.241  11.240  1.2808 -0.1651  0.6118
42835SOL     OW33634   3.159   4.508   3.039  0.2265 -0.4091  0.4011
42835SOL    HW133635   3.143   4.433   3.096 -0.2874 -0.5857  0.0297
42835SOL    HW233636   3.246   4.539   3.063  1.3531 -2.4703 -0.9601
42836SOL     OW33637   0.186   8.966   8.235 -0.2398 -0.1676 -0.6248
42836SOL    HW133638   0.191   9.041   8.176  0.0070 -0.5867 -1.1359
42836SOL    HW233639   0.110   8.916   8.203 -1.6151  0.8851  0.9152
42837SOL     OW33640   2.775  11.207   8.935  0.2947 -0.5584  0.4832
42837SOL    HW133641   2.690  11.233   8.902  0.7049 -0.5053 -0.5450
42837SOL    HW233642   2.838  11.256   8.882  0.9998 -1.6120  0.3333
42838SOL     OW33643   2.151   9.681   7.267 -0.0177  0.0187 -0.0842
42838SOL    HW133644   2.117   9.723   7.346 -1.7172 -0.2236 -0.6690
42838SOL    HW233645   2.099   9.602   7.258  0.6588 -0.3230 -1.0639
42839SOL     OW33646   8.802   7.194  10.225  0.0132  0.6482 -0.3841
42839SOL    HW133647   8.856   7.264  10.188 -1.5956  2.1386  0.0434
42839SOL    HW233648   8.802   7.125  10.159  0.4808  1.6206 -1.3966
42840SOL     OW33649   1.008  10.662   8.220 -0.3379  0.1497 -0.0607
42840SOL    HW133650   1.071  10.637   8.152  0.5394 -1.1082  1.2026
42840SOL    HW233651   1.060  10.713   8.283 -0.8974  0.3221  0.2613
42841SOL     OW33652   5.335  10.516   0.456  0.2195  0.3784  0.1411
42841SOL    HW133653   5.423  10.480   0.454  0.1862  0.3203 -0.1699
42841SOL    HW233654   5.289  10.461   0.521  0.7480  1.1887  1.2209
42842SOL     OW33655   6.470   0.702   8.229 -0.7920  0.4258  0.1757
42842SOL    HW133656   6.383   0.705   8.268  0.1450 -0.1358  2.3614
42842SOL    HW233657   6.461   0.751   8.147 -3.1141  0.4895  0.4376
42843SOL     OW33658   6.355   6.125   5.560 -0.0701  0.0744  0.1187
42843SOL    HW133659   6.298   6.191   5.521 -1.4039  0.3157  2.3669
42843SOL    HW233660   6.321   6.041   5.529  0.8889  0.3648 -1.7822
42844SOL     OW33661   8.074   7.610   9.198  0.0618 -0.1798  1.1694
42844SOL    HW133662   8.108   7.681   9.252  2.5888  1.1581 -1.9960
42844SOL    HW233663   8.124   7.533   9.224  0.6434  0.2504  1.3170
42845SOL     OW33664   1.675   8.450   7.720 -0.4647 -0.2618 -0.0951
42845SOL    HW133665   1.692   8.544   7.713 -0.0338 -0.2855  0.6265
42845SOL    HW233666   1.703   8.426   7.808  1.5618 -1.5177 -1.0399
42846SOL     OW33667   9.557   6.521   2.157 -0.8932  0.2903  0.2138
42846SOL    HW133668   9.508   6.519   2.239  0.3948 -0.8310  0.9739
42846SOL    HW233669   9.492   6.504   2.089 -1.6086 -0.8344  1.1725
42847SOL     OW33670   1.919   5.623   8.872 -0.2251 -0.3660 -0.0602
42847SOL    HW133671   1.945   5.712   8.895 -1.0847  0.8805 -3.5322
42847SOL    HW233672   1.823   5.623   8.880 -0.3724 -0.4565 -1.5395
42848SOL     OW33673   5.247   3.778   4.747 -0.3609 -0.6724  0.1262
42848SOL    HW133674   5.310   3.778   4.819 -0.7300 -0.6129  0.4547
42848SOL    HW233675   5.168   3.740   4.785 -0.9495  0.4893  0.1119
42849SOL     OW33676   2.230   9.654  10.357  0.8257 -0.1152 -0.3084
42849SOL    HW133677   2.154   9.601  10.334  0.2643 -0.0694  1.4377
42849SOL    HW233678   2.209   9.742  10.326  1.4857 -0.7170 -2.6191
42850SOL     OW33679   2.143   8.150   6.864 -1.1669  0.3897  0.3832
42850SOL    HW133680   2.175   8.237   6.838 -0.0904  0.0171  0.4117
42850SOL    HW233681   2.168   8.142   6.956  1.0164 -0.9398 -0.2816
42851SOL     OW33682   0.129   9.454   4.708  0.1999 -0.1925  0.0092
42851SOL    HW133683   0.105   9.430   4.618  1.1762 -0.2384 -0.2460
42851SOL    HW233684   0.179   9.379   4.739 -1.0319 -0.6308  0.9619
42852SOL     OW33685   8.772   1.682   5.101 -0.4202  0.3066 -0.2176
42852SOL    HW133686   8.772   1.637   5.186 -0.1986  1.2362  0.2853
42852SOL    HW233687   8.683   1.717   5.093 -0.4184  0.2831 -0.3319
42853SOL     OW33688   7.602   9.216   0.742 -0.5421 -0.0201 -0.5197
42853SOL    HW133689   7.686   9.262   0.747 -0.2556 -0.1486 -3.3038
42853SOL    HW233690   7.540   9.275   0.784  0.7312  0.5812  0.5652
42854SOL     OW33691   0.695   6.017   9.797 -0.2425  0.3850  0.2189
42854SOL    HW133692   0.776   6.011   9.746  0.2263  3.5557  0.4788
42854SOL    HW233693   0.701   5.945   9.860  0.8291 -1.3969 -1.8306
42855SOL     OW33694   0.152  10.525   4.363 -0.1558  0.1174 -0.4482
42855SOL    HW133695   0.112  10.438   4.367 -1.0662  0.3405 -3.3394
42855SOL    HW233696   0.077  10.585   4.367  0.2134  0.6586 -1.5356
42856SOL     OW33697   0.455   5.782   2.843  0.0163 -0.5706 -0.2900
42856SOL    HW133698   0.497   5.833   2.773  0.8041  0.5144  0.9472
42856SOL    HW233699   0.522   5.775   2.911 -0.7844 -1.5143  0.4161
42857SOL     OW33700   4.855  11.078   4.229  0.1377  0.4735 -0.5735
42857SOL    HW133701   4.797  11.012   4.191  1.8350 -2.1417  1.1917
42857SOL    HW233702   4.943  11.043   4.215  0.9726  1.2747  2.3220
42858SOL     OW33703  10.312   3.237  10.751 -0.3085  0.8334 -0.1651
42858SOL    HW133704  10.236   3.283  10.716 -0.8774  0.1444  0.1295
42858SOL    HW233705  10.317   3.265  10.843 -0.2353  0.8509 -0.1747
42859SOL     OW33706   8.712   4.339  11.326 -0.2136  0.2494  0.1022
42859SOL    HW133707   8.749   4.364  11.241 -0.9671  0.0064 -0.3023
42859SOL    HW233708   8.755   4.256  11.347  0.2284  0.4823  0.1263
42860SOL     OW33709   3.295   9.831   1.083  0.4495  0.2528  0.1330
42860SOL    HW133710   3.248   9.812   1.164 -1.0892 -1.2955 -1.1081
42860SOL    HW233711   3.256   9.913   1.051 -0.8600 -0.6016 -0.4763
42861SOL     OW33712   9.234   1.119   3.612  0.3244 -0.8387 -0.2962
42861SOL    HW133713   9.162   1.057   3.598  0.4959 -1.3535  1.0339
42861SOL    HW233714   9.236   1.133   3.707  1.1194  0.2104 -0.4563
42862SOL     OW33715   9.756   1.197   6.952 -0.0615 -0.1221 -0.0237
42862SOL    HW133716   9.696   1.137   6.908  1.1636 -1.5895  0.2785
42862SOL    HW233717   9.834   1.197   6.896 -0.7411  2.7189 -1.0901
42863SOL     OW33718   8.028   5.104   6.727  0.0947 -0.0814  0.1410
42863SOL    HW133719   8.120   5.080   6.718  0.0709  0.3245 -1.2339
42863SOL    HW233720   8.013   5.106   6.822  1.7950  0.9485  0.4110
42864SOL     OW33721   2.171   1.344   0.183 -0.0847  0.1148 -0.9383
42864SOL    HW133722   2.257   1.385   0.190 -0.5700  1.0530 -0.3052
42864SOL    HW233723   2.142   1.365   0.094  0.0609  0.3690 -0.9264
42865SOL     OW33724   5.280   4.032   2.568 -0.0704 -0.9272 -0.4199
42865SOL    HW133725   5.286   3.966   2.638 -0.6960  0.4533  0.9546
42865SOL    HW233726   5.188   4.031   2.543 -0.9943  2.3227  2.5041
42866SOL     OW33727  10.316   8.500   6.369 -0.7361 -0.0992  0.2599
42866SOL    HW133728  10.393   8.507   6.426 -0.5827 -0.1322  0.0538
42866SOL    HW233729  10.320   8.410   6.336 -0.2381  0.2519 -0.6511
42867SOL     OW33730   7.578   8.339  10.259  0.7149 -0.2856  0.3999
42867SOL    HW133731   7.619   8.286  10.328 -0.6582 -0.7613  0.8837
42867SOL    HW233732   7.651   8.369  10.205  1.6194 -1.7517  0.7662
42868SOL     OW33733   1.332   2.008   6.384 -0.2082  0.7134 -0.4914
42868SOL    HW133734   1.305   1.998   6.293  0.6864  0.9390 -0.7899
42868SOL    HW233735   1.421   1.972   6.386 -0.3593  0.3619  0.3749
42869SOL     OW33736   1.387   1.073   4.636 -0.1711  0.0644  0.3252
42869SOL    HW133737   1.332   1.025   4.574  0.5894 -1.1316  0.5537
42869SOL    HW233738   1.473   1.076   4.594  0.2723 -0.4836  1.1746
42870SOL     OW33739   0.886   1.891   7.072 -0.0157  0.1369  0.3185
42870SOL    HW133740   0.956   1.886   7.136  1.6453  1.5546 -1.3166
42870SOL    HW233741   0.868   1.985   7.064 -1.5418 -0.1557  0.1123
42871SOL     OW33742   4.138   3.225   1.935 -0.3426  0.3859  0.1083
42871SOL    HW133743   4.057   3.274   1.921  0.2388  1.0365 -1.0423
42871SOL    HW233744   4.110   3.134   1.937 -1.3156  0.6981  1.3186
42872SOL     OW33745   6.833   1.582   0.185 -0.1309 -0.2715  0.9615
42872SOL    HW133746   6.874   1.511   0.137 -0.7673  0.0597 -0.0838
42872SOL    HW233747   6.905   1.628   0.228  0.5954  0.2348 -0.7585
42873SOL     OW33748   3.980   2.514   5.933  0.1962 -0.3241 -0.7473
42873SOL    HW133749   3.992   2.453   5.861  0.2624 -1.4302  0.1821
42873SOL    HW233750   4.030   2.476   6.005 -0.9959  0.0215  0.2874
42874SOL     OW33751   3.923   1.221   5.181  0.5068 -0.4090 -0.1160
42874SOL    HW133752   3.986   1.153   5.207 -1.7328 -1.7499  1.9864
42874SOL    HW233753   3.872   1.180   5.111 -0.2432 -0.5893  0.5255
42875SOL     OW33754   7.267   1.468   7.853 -0.3849  0.2378 -0.2362
42875SOL    HW133755   7.268   1.531   7.782  0.8960 -1.0367 -1.3864
42875SOL    HW233756   7.359   1.451   7.872 -0.7091 -0.8202  0.4566
42876SOL     OW33757   2.175   8.537   3.972  0.4977  0.5306  0.4226
42876SOL    HW133758   2.081   8.524   3.963  0.0116  2.8036  1.6829
42876SOL    HW233759   2.186   8.572   4.061  2.4563  0.7982  0.1091
42877SOL     OW33760   8.199   5.400   1.913  0.1781  0.5263  0.0247
42877SOL    HW133761   8.203   5.316   1.958 -1.5320 -0.4711 -1.6041
42877SOL    HW233762   8.276   5.400   1.855 -1.2920 -1.1871 -2.0225
42878SOL     OW33763   7.987   6.931   3.811  0.2094  0.4227  0.4691
42878SOL    HW133764   7.892   6.942   3.808  0.1495  0.0611  0.9747
42878SOL    HW233765   8.016   6.953   3.722 -0.8100 -3.5884 -0.9707
42879SOL     OW33766   1.976   3.257   2.691 -0.1974  0.1473  0.2793
42879SOL    HW133767   1.919   3.245   2.615 -1.4981  0.8433  1.1411
42879SOL    HW233768   1.985   3.170   2.729 -1.4178  0.1864  0.6629
42880SOL     OW33769   2.258   0.886   8.912 -0.2822 -0.4707 -0.9147
42880SOL    HW133770   2.231   0.899   9.003 -3.4055 -1.2028 -1.6680
42880SOL    HW233771   2.323   0.954   8.897  1.2056 -1.1043  2.2055
42881SOL     OW33772   8.858   8.300   6.327 -0.2960  0.3826 -0.7001
42881SOL    HW133773   8.948   8.273   6.345 -0.0722  1.5660 -0.0115
42881SOL    HW233774   8.865   8.393   6.306 -1.4641  0.6712  0.1635
42882SOL     OW33775   5.260   3.712   7.121  0.1447  0.2398  0.0730
42882SOL    HW133776   5.208   3.709   7.201 -2.5905  2.1009 -1.5341
42882SOL    HW233777   5.350   3.695   7.149 -0.7241  1.0492  3.5334
42883SOL     OW33778   6.376   2.174   4.024  0.4085 -0.2109  0.1036
42883SOL    HW133779   6.453   2.228   4.043  0.1086 -0.4833  2.2006
42883SOL    HW233780   6.348   2.141   4.109 -1.7173 -0.5616 -0.6948
42884SOL     OW33781   5.126   2.340   6.741 -0.8660  0.0185 -0.3522
42884SOL    HW133782   5.089   2.413   6.790  1.9699  0.4012  1.3468
42884SOL    HW233783   5.075   2.264   6.769  0.4287  0.2860  3.0706
42885SOL     OW33784   2.199   8.380   9.416  0.0766  0.1315 -0.2979
42885SOL    HW133785   2.218   8.342   9.330 -1.0515 -2.3135  0.4874
42885SOL    HW233786   2.279   8.364   9.467  0.4239  0.8051 -0.6275
42886SOL     OW33787   8.651   2.044   4.133  0.2952  0.2257  0.0470
42886SOL    HW133788   8.722   2.010   4.188  0.5252  1.9619  0.8483
42886SOL    HW233789   8.696   2.084   4.058  0.1322  0.5164  0.1018
42887SOL     OW33790   4.756   8.320  11.079  0.3645 -0.2696 -0.6132
42887SOL    HW133791   4.705   8.258  11.132  0.1697  0.0829 -0.3831
42887SOL    HW233792   4.837   8.274  11.059  0.5454 -0.3126  0.2033
42888SOL     OW33793   8.059   9.050  10.183 -0.4666 -0.1555 -0.2288
42888SOL    HW133794   8.102   9.007  10.257 -2.9509 -1.7730  0.3340
42888SOL    HW233795   8.129   9.097  10.139  1.4064 -0.6611  2.0945
42889SOL     OW33796   7.949   3.877   4.393 -0.1065 -0.1227 -0.0938
42889SOL    HW133797   7.925   3.910   4.306  0.2941  1.1940  0.2773
42889SOL    HW233798   7.908   3.791   4.398  0.4946 -0.5573 -1.8943
42890SOL     OW33799   6.910   9.923   7.563 -0.5798  0.0968 -0.2700
42890SOL    HW133800   6.978   9.981   7.529 -0.4053  0.2903  0.4023
42890SOL    HW233801   6.913   9.936   7.658 -1.5780  0.1428 -0.2382
42891SOL     OW33802   8.200   9.199   7.935 -0.3268 -0.2893  0.4076
42891SOL    HW133803   8.162   9.112   7.942  0.3175 -0.4280  2.2807
42891SOL    HW233804   8.287   9.191   7.973  0.7395  0.5742 -1.7261
42892SOL     OW33805   1.772   9.107   3.819 -0.5346 -0.0264 -0.2080
42892SOL    HW133806   1.777   9.173   3.750  4.0536 -0.7138 -0.7167
42892SOL    HW233807   1.704   9.046   3.790 -1.7930  2.1198 -1.8637
42893SOL     OW33808   5.251   8.451   2.471  0.6119  0.0712 -0.2590
42893SOL    HW133809   5.209   8.537   2.477  1.1951  0.3804 -0.5750
42893SOL    HW233810   5.345   8.470   2.470  0.7176 -0.4384 -2.3020
42894SOL     OW33811   7.429   2.301   9.594 -0.1428  0.0988 -0.0452
42894SOL    HW133812   7.507   2.288   9.541  0.6464 -0.9574  1.3670
42894SOL    HW233813   7.445   2.253   9.675 -2.4170 -0.4558  0.1203
42895SOL     OW33814   7.616  10.266   1.082 -0.1464  0.4676 -0.2442
42895SOL    HW133815   7.564  10.334   1.038  0.3334  0.2588 -1.1360
42895SOL    HW233816   7.590  10.272   1.174 -0.3777  1.6213 -0.3761
42896SOL     OW33817   7.126   2.654   4.383 -0.2033  0.0363  0.6672
42896SOL    HW133818   7.093   2.565   4.397  0.6346 -0.1211  1.7291
42896SOL    HW233819   7.047   2.708   4.376 -0.8306 -1.2386 -3.5110
42897SOL     OW33820  10.108  10.958   0.471 -0.2386  0.4913  0.7343
42897SOL    HW133821  10.183  11.014   0.450  0.2338 -0.2923  0.3053
42897SOL    HW233822  10.123  10.878   0.420 -1.4216  0.3715  0.5673
42898SOL     OW33823   0.541   0.621   9.707 -0.0947 -0.3701 -1.0256
42898SOL    HW133824   0.466   0.571   9.740  1.3213 -1.4163  0.6211
42898SOL    HW233825   0.520   0.712   9.729 -1.1863 -0.5707 -1.1912
42899SOL     OW33826  10.086   0.089   1.890  0.3579 -0.1217 -0.7323
42899SOL    HW133827  10.073   0.017   1.828  0.1734 -2.2911  1.7208
42899SOL    HW233828   9.998   0.109   1.922  0.4698  0.8838 -1.0311
42900SOL     OW33829   4.875   8.999   4.798  0.5822  0.1638  0.2734
42900SOL    HW133830   4.875   9.018   4.892 -0.2662 -3.3413  1.0706
42900SOL    HW233831   4.966   8.977   4.778  0.3201 -1.6404  0.9163
42901SOL     OW33832   9.592   1.096   1.316  0.1123 -0.0246  1.2530
42901SOL    HW133833   9.608   1.012   1.274  0.1151 -0.2635  1.7392
42901SOL    HW233834   9.678   1.137   1.323 -0.1569  1.1287 -1.3212
42902SOL     OW33835   1.449   0.488   7.895 -0.5321  0.3625  0.4424
42902SOL    HW133836   1.414   0.496   7.806  1.4769  0.7909 -0.3323
42902SOL    HW233837   1.451   0.393   7.911  0.5049  0.2049 -0.5622
42903SOL     OW33838   7.886   7.255   0.085 -0.0809 -0.2753  0.0327
42903SOL    HW133839   7.821   7.214   0.028  1.0101  0.6454 -1.9202
42903SOL    HW233840   7.898   7.192   0.156 -0.8119 -1.8548 -1.2024
42904SOL     OW33841   8.892   9.385  10.608 -0.7044 -0.1420  0.6155
42904SOL    HW133842   8.883   9.409  10.515 -1.4320  0.9109  0.9486
42904SOL    HW233843   8.974   9.336  10.612 -0.6071 -0.0998 -0.5640
42905SOL     OW33844   6.170   3.952   4.131 -0.1616 -0.1575 -0.3387
42905SOL    HW133845   6.136   4.006   4.203 -0.7929  0.3419 -0.9950
42905SOL    HW233846   6.184   3.866   4.170 -1.4392 -0.1636  0.1501
42906SOL     OW33847   9.746   3.850   4.956  0.0712 -0.1385 -0.0962
42906SOL    HW133848   9.659   3.890   4.967 -0.2225 -0.9095  0.3914
42906SOL    HW233849   9.728   3.759   4.934  0.7390  0.1311 -1.8362
42907SOL     OW33850   1.207   2.349   3.373 -0.5807 -0.1891 -0.0482
42907SOL    HW133851   1.285   2.332   3.426  0.5074  1.5879 -1.0291
42907SOL    HW233852   1.241   2.366   3.285 -1.8761  2.8609 -0.0081
42908SOL     OW33853   0.185   3.369   7.302 -0.0420 -0.4111  0.7828
42908SOL    HW133854   0.213   3.346   7.213  0.5809 -1.1324  1.1558
42908SOL    HW233855   0.143   3.454   7.293  1.8817  0.5008  0.1000
42909SOL     OW33856   9.792   9.947   3.805 -0.1255  0.2589 -0.8178
42909SOL    HW133857   9.726  10.014   3.791 -1.2611 -0.0060  2.7739
42909SOL    HW233858   9.873   9.986   3.774 -0.7644  3.3283  1.2002
42910SOL     OW33859   9.166   6.757  10.960  0.5328 -0.2425  0.4580
42910SOL    HW133860   9.214   6.678  10.935 -0.2500 -0.5403 -0.1010
42910SOL    HW233861   9.082   6.751  10.915  0.4922  0.9530  0.3440
42911SOL     OW33862  10.325   4.010  10.265 -0.6271 -0.3111 -0.0108
42911SOL    HW133863  10.268   3.975  10.334 -0.3572 -0.1489  0.2933
42911SOL    HW233864  10.324   4.105  10.279  1.2321 -0.4502  1.1624
42912SOL     OW33865   7.831   6.903   7.055  0.0492 -0.4741 -0.0266
42912SOL    HW133866   7.797   6.894   7.144 -1.5130 -1.8972 -0.7365
42912SOL    HW233867   7.793   6.984   7.022 -2.6380 -2.0010 -0.7782
42913SOL     OW33868   6.622   2.573   7.233  0.1451 -0.4779  0.1657
42913SOL    HW133869   6.697   2.517   7.251  0.3439  0.2220  1.5257
42913SOL    HW233870   6.558   2.551   7.301  0.2367  0.9638  0.7394
42914SOL     OW33871   4.613   6.778   9.463  0.0343 -0.0993  0.8780
42914SOL    HW133872   4.613   6.713   9.533 -1.5868 -2.0155 -0.8559
42914SOL    HW233873   4.642   6.731   9.386 -0.4983  1.4100 -0.2760
42915SOL     OW33874   0.783   0.057   0.316 -0.4796  0.3269  0.1184
42915SOL    HW133875   0.860   0.032   0.266 -1.0754  0.2692 -0.7706
42915SOL    HW233876   0.762   0.146   0.287 -1.3258 -0.0255 -0.3618
42916SOL     OW33877   7.347   2.530   2.529 -0.5235 -0.3268  0.3145
42916SOL    HW133878   7.403   2.591   2.577 -0.2644 -0.2706 -0.0542
42916SOL    HW233879   7.361   2.446   2.572  0.3396 -0.4374 -0.1918
42917SOL     OW33880   9.961   8.470   4.611  0.6203 -0.2340 -0.7286
42917SOL    HW133881   9.998   8.439   4.694 -0.4827 -0.0348 -0.1570
42917SOL    HW233882   9.868   8.483   4.629  0.4672  0.3214 -1.8524
42918SOL     OW33883   4.206   7.979  10.264 -0.4215  0.2840  0.4181
42918SOL    HW133884   4.131   7.921  10.248  0.4458 -0.5544 -0.6105
42918SOL    HW233885   4.192   8.011  10.354 -1.7537 -0.2445  0.4123
42919SOL     OW33886   3.828   6.345   1.715 -0.5661 -0.2707 -0.5763
42919SOL    HW133887   3.764   6.296   1.664 -0.4677 -0.8581 -0.1369
42919SOL    HW233888   3.846   6.289   1.791 -0.5726  0.5100  0.0074
42920SOL     OW33889   3.190   8.798   2.682 -0.5335 -0.1544 -0.4461
42920SOL    HW133890   3.121   8.762   2.626  0.7117 -1.3147 -1.2718
42920SOL    HW233891   3.233   8.721   2.720  0.2766  0.5507  0.0819
42921SOL     OW33892  10.894  10.044   0.092  0.3109 -0.0543 -0.9076
42921SOL    HW133893  10.987  10.023   0.083  0.2978  0.0526 -1.3147
42921SOL    HW233894  10.876  10.101   0.017  0.4597  1.7682  0.3899
42922SOL     OW33895   3.559   1.744   1.582  0.6634  0.4720 -0.4634
42922SOL    HW133896   3.502   1.693   1.639  0.7441 -0.2960 -1.0570
42922SOL    HW233897   3.593   1.815   1.638  0.5871 -0.1507  0.3789
42923SOL     OW33898   1.484   4.691   9.508 -0.0966  0.2790 -0.1538
42923SOL    HW133899   1.559   4.650   9.465  0.0804  1.3775 -0.8888
42923SOL    HW233900   1.516   4.775   9.539 -0.7860  0.3757  0.3141
42924SOL     OW33901   7.477   6.908   8.850  0.4655  0.7044  0.0343
42924SOL    HW133902   7.519   6.860   8.921 -2.5071 -0.9607  0.7281
42924SOL    HW233903   7.439   6.985   8.893  1.1487  1.2208 -0.2736
42925SOL     OW33904   9.914   2.525   9.246 -0.3397  0.0604  0.2717
42925SOL    HW133905   9.859   2.588   9.199  1.7395  2.5407  1.0959
42925SOL    HW233906   9.989   2.510   9.188  0.5066  0.4375  1.2612
42926SOL     OW33907   8.286   6.837   3.507 -0.0349  0.0841 -0.5593
42926SOL    HW133908   8.225   6.827   3.433 -0.8114  0.6124  0.0146
42926SOL    HW233909   8.291   6.931   3.522 -0.4645 -0.0771  0.5670
42927SOL     OW33910   3.463   6.416   8.627  0.3329  0.4299 -0.3413
42927SOL    HW133911   3.519   6.432   8.703  0.4296 -1.3704 -0.0084
42927SOL    HW233912   3.489   6.329   8.597 -2.7748 -0.7433  0.2629
42928SOL     OW33913   8.314   7.017   1.727  0.6296 -0.1086 -0.4212
42928SOL    HW133914   8.281   7.083   1.667  0.1069 -0.6897 -0.7726
42928SOL    HW233915   8.236   6.972   1.759  0.8783  0.3111  0.8393
42929SOL     OW33916   7.430   5.755   3.279 -0.3649 -0.4171  0.4492
42929SOL    HW133917   7.441   5.707   3.361  0.3777 -0.8802  0.0849
42929SOL    HW233918   7.518   5.784   3.256 -0.7767  0.9677  0.5594
42930SOL     OW33919   8.657   0.097   5.888 -0.3994 -0.5415  0.0084
42930SOL    HW133920   8.726   0.044   5.928  0.0214  0.4339  0.6195
42930SOL    HW233921   8.603   0.035   5.839  1.1938 -1.2529 -0.8783
42931SOL     OW33922   0.232   1.036   2.282  0.1996  0.1879  0.6836
42931SOL    HW133923   0.165   0.973   2.256 -1.6439  1.9457  1.0204
42931SOL    HW233924   0.315   0.994   2.259 -0.8893 -2.9697  2.2629
42932SOL     OW33925   5.242   1.890   6.231 -0.0039  0.0630  0.1321
42932SOL    HW133926   5.172   1.831   6.261 -2.3006  0.6493 -3.7275
42932SOL    HW233927   5.321   1.836   6.234 -1.4277 -2.1111  0.1005
42933SOL     OW33928   1.491   7.111   2.946 -0.2198 -0.0899 -0.2463
42933SOL    HW133929   1.468   7.131   2.855  0.6543 -1.3980 -0.7624
42933SOL    HW233930   1.443   7.030   2.965  1.8098 -1.3675 -0.4667
42934SOL     OW33931   7.449   6.885   8.357 -0.2998  0.2473 -0.2525
42934SOL    HW133932   7.455   6.970   8.401  1.5493 -0.0290  0.0931
42934SOL    HW233933   7.455   6.905   8.264 -1.7138  0.6406 -0.2596
42935SOL     OW33934   7.428   3.296   1.824  0.1123 -0.1682  0.0224
42935SOL    HW133935   7.422   3.201   1.835  0.2237 -0.0830  0.9377
42935SOL    HW233936   7.337   3.325   1.817  0.1624 -0.5506 -2.2948
42936SOL     OW33937   9.524   1.833   6.658 -0.2906 -0.2928 -0.6020
42936SOL    HW133938   9.577   1.898   6.611  1.0816 -0.5137  0.6050
42936SOL    HW233939   9.508   1.764   6.594  0.5048 -0.0142 -1.1103
42937SOL     OW33940   7.208   8.604   0.822  0.1576 -0.9645  0.5754
42937SOL    HW133941   7.143   8.557   0.771  1.1372 -3.3187  1.3994
42937SOL    HW233942   7.282   8.617   0.762  0.6120 -2.1562  0.8620
42938SOL     OW33943   1.739   7.433   1.956 -0.5600 -0.2738  0.5126
42938SOL    HW133944   1.806   7.451   2.021  0.3713 -1.1026 -0.1900
42938SOL    HW233945   1.777   7.464   1.873 -0.9890 -0.8389  0.0974
42939SOL     OW33946   8.358   9.267   7.406  0.2339  0.4562 -0.9149
42939SOL    HW133947   8.338   9.213   7.483 -2.2357  0.0898 -1.7843
42939SOL    HW233948   8.313   9.350   7.422  0.3376  0.6560 -1.6311
42940SOL     OW33949   5.728  10.048   3.673  0.0225  0.2351  0.1001
42940SOL    HW133950   5.639  10.015   3.680 -1.4218  4.0438  1.0181
42940SOL    HW233951   5.765  10.038   3.760 -0.3629  0.8063  0.3355
42941SOL     OW33952   5.101   4.617   7.142 -0.3141  0.2301  0.1731
42941SOL    HW133953   5.123   4.532   7.104 -0.3526  0.6071 -0.7150
42941SOL    HW233954   5.137   4.614   7.230  1.4181  0.0247 -0.5066
42942SOL     OW33955   8.832   1.221   0.520 -0.1024  0.4144 -0.7493
42942SOL    HW133956   8.862   1.312   0.524  1.5946 -0.1833  1.2255
42942SOL    HW233957   8.861   1.190   0.434  3.3513  0.4806  0.2851
42943SOL     OW33958   5.169   0.857   3.632  0.1637  0.0362 -0.3030
42943SOL    HW133959   5.214   0.854   3.716 -0.0910  2.9460  0.0006
42943SOL    HW233960   5.081   0.887   3.652  0.1991  1.0819 -1.6086
42944SOL     OW33961   2.088   3.109   0.751  0.6792  0.2289 -0.1107
42944SOL    HW133962   2.013   3.144   0.798  0.9377 -2.0196  2.0270
42944SOL    HW233963   2.164   3.138   0.803  1.2810  1.7411 -1.7704
42945SOL     OW33964   5.141  10.886   7.868 -0.2446  0.1297  0.3795
42945SOL    HW133965   5.102  10.799   7.876 -0.0655  0.1117  1.0012
42945SOL    HW233966   5.225  10.880   7.913 -0.7089  0.9232  1.3558
42946SOL     OW33967   0.715   1.341   0.410  0.1632  0.7585 -0.4535
42946SOL    HW133968   0.709   1.351   0.315  0.8001  0.6831 -0.5083
42946SOL    HW233969   0.667   1.416   0.446  1.1337  1.5823 -0.8420
42947SOL     OW33970   5.958   4.888   2.933  0.1170 -0.3733  0.0974
42947SOL    HW133971   5.907   4.821   2.978  0.1235 -0.5878 -0.2162
42947SOL    HW233972   6.032   4.905   2.992  0.2731 -0.8500  0.0435
42948SOL     OW33973   3.938   2.474   2.721 -0.0524 -0.3666 -0.3772
42948SOL    HW133974   3.964   2.481   2.629 -1.5987 -0.1441 -0.8130
42948SOL    HW233975   3.952   2.562   2.756 -3.2293  0.6630 -1.4648
42949SOL     OW33976   3.859   0.343   6.997 -0.3564  0.0673  0.3019
42949SOL    HW133977   3.896   0.294   6.923 -1.5468  1.3308 -1.1574
42949SOL    HW233978   3.785   0.290   7.025 -1.0099  0.4894 -0.6008
42950SOL     OW33979   9.981   7.409   2.230 -0.1095 -0.0156 -0.0676
42950SOL    HW133980   9.964   7.317   2.252 -0.5648 -0.2568 -1.3928
42950SOL    HW233981  10.072   7.410   2.201  0.6844  0.4128  2.3783
42951SOL     OW33982   7.254   5.573   7.800  0.3502 -0.4168  0.2541
42951SOL    HW133983   7.276   5.539   7.713 -2.2279  0.8030 -0.9228
42951SOL    HW233984   7.269   5.667   7.794  1.4155 -0.4810  1.5661
42952SOL     OW33985   3.872   7.114   4.612  0.0420 -0.1017  0.8479
42952SOL    HW133986   3.890   7.028   4.574  0.5130  1.2429 -2.1420
42952SOL    HW233987   3.958   7.147   4.639 -0.3011 -1.0844  3.2417
42953SOL     OW33988   0.020   9.804  10.298  0.3837 -0.7137 -0.1257
42953SOL    HW133989   0.093   9.758  10.339 -0.1673  0.2641  2.0242
42953SOL    HW233990   0.057   9.843  10.219  2.3006  0.1144  1.1471
42954SOL     OW33991   0.934   9.998   8.708  0.1199 -0.2086  0.6754
42954SOL    HW133992   0.932   9.956   8.794 -1.4089  0.8494  1.1683
42954SOL    HW233993   1.022   9.981   8.676  0.0628 -2.3642  1.5764
42955SOL     OW33994   9.856   1.631   3.019  0.3885  0.1601  0.6137
42955SOL    HW133995   9.804   1.647   2.940 -0.3048 -0.1015  1.0171
42955SOL    HW233996   9.860   1.536   3.026  2.1185  0.1453 -0.1984
42956SOL     OW33997   7.533   9.198   3.222 -0.1538 -0.1469  0.1991
42956SOL    HW133998   7.477   9.208   3.300 -1.1201  1.3828 -0.6510
42956SOL    HW233999   7.550   9.288   3.194  3.7920 -0.5292  1.1304
42957SOL     OW34000   1.936   3.320   4.325 -0.0926 -0.1840 -0.0716
42957SOL    HW134001   2.022   3.292   4.292 -1.6727 -2.7470 -2.2273
42957SOL    HW234002   1.891   3.353   4.247 -1.6614 -0.4169  0.7260
42958SOL     OW34003   5.103   2.863   5.666 -0.0241  0.0654  0.2487
42958SOL    HW134004   5.043   2.823   5.602 -0.0623 -0.6290  0.7102
42958SOL    HW234005   5.177   2.893   5.613  1.3380 -3.1897  0.1879
42959SOL     OW34006   7.759   9.070   2.453 -0.3699 -0.2232  0.2110
42959SOL    HW134007   7.684   9.098   2.400 -0.3122 -2.8513 -1.3464
42959SOL    HW234008   7.813   9.148   2.461 -1.7978  0.9501 -1.2108
42960SOL     OW34009   8.049   3.895   6.052 -0.0706  0.7896  0.0938
42960SOL    HW134010   8.064   3.882   6.145  2.2066 -2.3628 -0.6130
42960SOL    HW234011   8.137   3.900   6.014 -0.9414  0.5696 -2.0299
42961SOL     OW34012   2.934   7.131   3.532  0.0090 -0.3143  0.0428
42961SOL    HW134013   2.878   7.119   3.455 -0.1319  0.7017 -0.0286
42961SOL    HW234014   2.874   7.126   3.607 -0.1330  0.3846 -0.0138
42962SOL     OW34015   8.560   5.869   3.996  0.1331  0.6237 -0.1413
42962SOL    HW134016   8.566   5.831   4.084  2.4138  1.8012  0.2605
42962SOL    HW234017   8.489   5.933   4.003  0.7039  1.1615  1.0589
42963SOL     OW34018   3.805   3.947   1.420 -0.4439 -0.0951 -0.4926
42963SOL    HW134019   3.873   3.952   1.353  0.6404 -2.8718  0.3647
42963SOL    HW234020   3.827   4.018   1.481  1.7389 -0.9849 -0.1894
42964SOL     OW34021   9.500   3.700   9.963  0.0465  0.0419 -0.0043
42964SOL    HW134022   9.514   3.715   9.869 -0.7946 -1.3630 -0.3761
42964SOL    HW234023   9.575   3.647   9.990  0.2424  0.3690  0.1000
42965SOL     OW34024  11.247   5.281   0.321  0.5352  0.5712  0.3125
42965SOL    HW134025  11.303   5.292   0.244  0.8134 -1.8763  0.1061
42965SOL    HW234026  11.240   5.368   0.359  1.2081  1.6454 -1.9300
42966SOL     OW34027   8.733  10.622   3.371 -0.5040 -0.1829  0.4584
42966SOL    HW134028   8.757  10.661   3.456 -0.8922  1.7729 -0.2958
42966SOL    HW234029   8.650  10.663   3.349 -0.7751 -1.2490 -0.5309
42967SOL     OW34030   5.346  10.987   2.343 -0.1772  0.9339 -0.0439
42967SOL    HW134031   5.271  10.962   2.289 -0.2604  0.1817  0.4069
42967SOL    HW234032   5.308  11.042   2.412 -0.1687  1.3571 -0.3781
42968SOL     OW34033   0.067  10.030   8.749  0.0206  0.4397  0.2884
42968SOL    HW134034   0.018   9.959   8.791  0.0818  0.2257  0.0023
42968SOL    HW234035   0.009  10.060   8.678 -0.3559  1.2278  0.9298
42969SOL     OW34036   2.338   6.169   4.765  0.0950  0.4559 -0.2427
42969SOL    HW134037   2.339   6.159   4.860 -0.8853  0.3509 -0.2332
42969SOL    HW234038   2.330   6.263   4.750 -1.8431  0.3157 -0.1868
42970SOL     OW34039   6.886   7.039   5.808  0.4099  0.1445 -0.0787
42970SOL    HW134040   6.981   7.032   5.819  0.3598 -1.1108 -0.3641
42970SOL    HW234041   6.873   7.127   5.773  1.3775  0.7043  0.9135
42971SOL     OW34042   0.148   2.706   4.679  0.0660  0.2972 -0.4955
42971SOL    HW134043   0.213   2.695   4.748  0.1581  1.4760 -0.3826
42971SOL    HW234044   0.064   2.688   4.723  0.0040  2.2885  0.2726
42972SOL     OW34045   4.447   9.582   9.208  0.4475  0.0069  0.0869
42972SOL    HW134046   4.525   9.565   9.155 -0.9905 -2.2737 -1.3825
42972SOL    HW234047   4.394   9.643   9.155  0.1611 -0.3031  0.0133
42973SOL     OW34048   4.572   8.722   8.657  0.1565 -0.5280 -0.3868
42973SOL    HW134049   4.529   8.638   8.672  0.7449 -0.8120 -0.2756
42973SOL    HW234050   4.664   8.705   8.677  0.0422  0.5166  1.0225
42974SOL     OW34051   2.094   8.410  11.110  0.1111  0.2091 -0.3253
42974SOL    HW134052   2.101   8.364  11.026 -0.2509 -1.2403  0.4202
42974SOL    HW234053   2.003   8.398  11.137 -0.3480  2.4824 -0.7177
42975SOL     OW34054  10.764  10.930   7.867 -0.3255  0.6512 -0.3940
42975SOL    HW134055  10.735  10.859   7.925  0.8924  2.7010  2.8404
42975SOL    HW234056  10.854  10.906   7.844 -0.5842  0.1733 -0.9311
42976SOL     OW34057   5.973   8.591   2.422 -0.2834 -0.0930 -0.1753
42976SOL    HW134058   6.025   8.613   2.345  0.8074  0.0237  0.5866
42976SOL    HW234059   6.033   8.601   2.496 -1.2647 -0.3771  0.6801
42977SOL     OW34060   6.272   4.159   5.035  0.3182  0.0352 -0.4083
42977SOL    HW134061   6.193   4.108   5.051 -1.6730  2.4770 -1.9846
42977SOL    HW234062   6.257   4.242   5.080  2.1132  0.4331 -0.4873
42978SOL     OW34063  10.114   8.264   4.341 -0.0790  0.5767  0.3990
42978SOL    HW134064  10.170   8.321   4.289  1.0034 -0.1064  0.8054
42978SOL    HW234065  10.064   8.214   4.277  0.1589  0.7978  0.0428
42979SOL     OW34066   3.979   0.756   9.239  0.1823  0.0413 -0.0483
42979SOL    HW134067   4.038   0.693   9.280 -0.1285 -0.0780  0.2208
42979SOL    HW234068   3.892   0.715   9.246 -0.2301  1.1043  1.3575
42980SOL     OW34069   0.146   2.683   2.493  0.0892  0.3048  0.2827
42980SOL    HW134070   0.205   2.661   2.565 -2.4816 -1.8782  1.8066
42980SOL    HW234071   0.144   2.605   2.438 -0.2401  0.8989 -0.5581
42981SOL     OW34072   2.299   6.711   5.556  0.3128 -0.4244 -0.0125
42981SOL    HW134073   2.376   6.769   5.560 -0.1606  0.1192  1.3767
42981SOL    HW234074   2.279   6.691   5.647 -0.7567 -1.1530 -0.4024
42982SOL     OW34075   4.862   0.261   2.691  0.3756  0.1082  0.5558
42982SOL    HW134076   4.951   0.278   2.722  0.8736  1.5392 -1.5432
42982SOL    HW234077   4.824   0.348   2.677 -0.7696 -0.4930 -0.1682
42983SOL     OW34078   8.258   9.479   8.577 -0.0975  0.3119 -0.0909
42983SOL    HW134079   8.233   9.425   8.501  2.8044 -1.1043 -0.1411
42983SOL    HW234080   8.333   9.433   8.614 -1.1173  1.2859  3.3623
42984SOL     OW34081   9.701  10.696  10.921  0.7689  0.1855  0.1426
42984SOL    HW134082   9.667  10.786  10.923  1.7576  0.5501  0.8917
42984SOL    HW234083   9.777  10.700  10.865  0.1108 -0.4460 -0.8080
42985SOL     OW34084   5.852   2.612   1.848 -0.1728  0.5926 -0.1028
42985SOL    HW134085   5.812   2.627   1.762  0.0456 -0.8250 -0.4701
42985SOL    HW234086   5.940   2.649   1.841  0.0454 -0.0266 -0.6874
42986SOL     OW34087   6.617   3.894  10.687 -0.1864  0.1959 -0.6155
42986SOL    HW134088   6.671   3.971  10.668  1.9416 -1.4310 -1.3671
42986SOL    HW234089   6.647   3.828  10.625  0.7204 -2.4450  2.5183
42987SOL     OW34090   0.946   7.212  10.593 -0.2811 -0.4190 -0.3151
42987SOL    HW134091   0.897   7.139  10.554 -0.3937 -0.4781 -0.0651
42987SOL    HW234092   0.935   7.284  10.531 -1.5017 -0.1360  0.2056
42988SOL     OW34093  10.461   5.461   1.602 -0.0598 -0.4854 -0.0811
42988SOL    HW134094  10.404   5.423   1.535  0.2000 -0.2272 -0.4529
42988SOL    HW234095  10.406   5.466   1.681 -1.0396  1.1258 -0.8218
42989SOL     OW34096   7.703  10.307   1.499 -0.1539  0.4654  0.1209
42989SOL    HW134097   7.768  10.240   1.523  0.4822  1.2996  0.7223
42989SOL    HW234098   7.748  10.360   1.432 -0.7303  0.1703 -0.5022
42990SOL     OW34099   9.866   9.722   5.488 -0.0069 -0.0503 -0.2025
42990SOL    HW134100   9.834   9.763   5.569  1.2180 -0.2746  0.4146
42990SOL    HW234101   9.857   9.628   5.504  3.6057 -0.2416  1.1596
42991SOL     OW34102  10.690  10.514   8.708 -0.1614  0.1648 -0.1758
42991SOL    HW134103  10.731  10.534   8.792  0.8226 -2.6609  0.0730
42991SOL    HW234104  10.597  10.532   8.721 -0.5462 -3.2973  2.6084
42992SOL     OW34105   7.643   4.105   7.165 -0.0386 -0.2787 -0.3859
42992SOL    HW134106   7.581   4.041   7.131 -0.8435 -0.1071  0.7545
42992SOL    HW234107   7.717   4.052   7.196  0.0648 -0.5272 -1.0380
42993SOL     OW34108   3.450   6.719   2.515  0.7020  0.3165  0.0598
42993SOL    HW134109   3.477   6.807   2.541  0.8243 -0.1071  1.4335
42993SOL    HW234110   3.474   6.712   2.423  2.1123  1.1702  0.3479
42994SOL     OW34111   9.046   7.010   2.306 -0.2088  0.0477 -0.0144
42994SOL    HW134112   8.962   7.055   2.319 -0.3445  0.3027 -1.6714
42994SOL    HW234113   9.111   7.079   2.316 -0.3907  0.5352 -2.0518
42995SOL     OW34114   7.284   7.999   4.587  0.1203 -0.1846 -0.0915
42995SOL    HW134115   7.229   8.077   4.593  0.5797 -0.0108  2.0466
42995SOL    HW234116   7.300   7.989   4.493 -0.8718  1.6249 -0.4819
42996SOL     OW34117   9.351   1.411   1.846 -0.4106  0.3191  0.3750
42996SOL    HW134118   9.334   1.340   1.785 -1.2662 -0.8342  1.9025
42996SOL    HW234119   9.300   1.485   1.812 -1.4137 -0.5042  0.0538
42997SOL     OW34120   2.129  10.175   7.319 -0.1861 -0.5456 -0.3940
42997SOL    HW134121   2.072  10.147   7.248 -0.2450 -0.7578 -0.2659
42997SOL    HW234122   2.207  10.209   7.275 -2.1794  3.8703 -0.7122
42998SOL     OW34123   8.265   8.775  10.481  0.8380 -0.7717 -0.1715
42998SOL    HW134124   8.224   8.847  10.529 -0.4754 -1.2608 -0.5565
42998SOL    HW234125   8.321   8.732  10.546  1.5378  0.5173  0.0968
42999SOL     OW34126   6.632   8.505   1.901  0.4547 -0.0700  0.0258
42999SOL    HW134127   6.678   8.548   1.974 -1.9625  0.5219  1.2538
42999SOL    HW234128   6.702   8.476   1.843  2.4202  0.2331  2.1454
43000SOL     OW34129   0.891   9.919   2.932  0.6921  0.5246 -0.1093
43000SOL    HW134130   0.947   9.969   2.872  0.1792  0.2549 -0.8277
43000SOL    HW234131   0.821   9.981   2.954 -0.4067 -0.1283 -1.6702
43001SOL     OW34132   7.654   6.818   1.177  0.3620  0.0160  0.1224
43001SOL    HW134133   7.604   6.873   1.116  0.0562 -0.0654  0.2962
43001SOL    HW234134   7.742   6.814   1.139 -0.0384 -0.7052 -0.7535
43002SOL     OW34135   2.736   6.907   1.459  0.3862 -0.0921  0.3279
43002SOL    HW134136   2.826   6.875   1.466 -0.6489 -2.5831  3.4214
43002SOL    HW234137   2.721   6.955   1.541 -2.2980 -3.1523  1.7484
43003SOL     OW34138   7.787   1.372   4.560  0.3471  0.7981  0.5037
43003SOL    HW134139   7.792   1.290   4.511 -1.3136  0.9321  0.0840
43003SOL    HW234140   7.778   1.440   4.493  1.1954  1.2837  0.8745
43004SOL     OW34141   3.997  10.461   9.820  0.0607  0.3567  0.0987
43004SOL    HW134142   3.960  10.386   9.774  0.4351 -0.4988  1.1878
43004SOL    HW234143   3.940  10.473   9.896  0.5649  0.5719  0.4453
43005SOL     OW34144   8.363   2.080   9.376 -0.0009  0.0002  0.3858
43005SOL    HW134145   8.338   2.057   9.286 -2.6737  0.8511  0.8679
43005SOL    HW234146   8.432   2.145   9.365 -1.3723  1.2575 -1.1072
43006SOL     OW34147   7.131   5.674   9.991  0.1483 -0.4657  0.2555
43006SOL    HW134148   7.045   5.714   9.977  0.5009 -0.4795 -2.3115
43006SOL    HW234149   7.120   5.583   9.962  0.0592 -1.5656  3.5303
43007SOL     OW34150   7.572   4.974   3.418 -0.3100  0.2154 -0.5995
43007SOL    HW134151   7.615   4.931   3.344 -1.1299  0.2480 -1.0940
43007SOL    HW234152   7.547   4.903   3.476  1.8491  0.2828  0.4928
43008SOL     OW34153   2.990  10.469   7.587 -0.0003 -0.1052  0.4884
43008SOL    HW134154   3.071  10.433   7.551 -0.2524 -0.9667  0.7795
43008SOL    HW234155   2.931  10.394   7.594  0.0441  0.0456  2.7386
43009SOL     OW34156   4.202   3.792   6.083 -0.4065  0.0821  0.3923
43009SOL    HW134157   4.111   3.762   6.074  0.1532 -1.6900  0.3508
43009SOL    HW234158   4.227   3.765   6.171  0.0621  0.6138  0.4184
43010SOL     OW34159   7.802  11.115   9.824 -0.2466  0.1484 -0.8282
43010SOL    HW134160   7.788  11.209   9.837 -0.3827  0.1010 -0.6120
43010SOL    HW234161   7.719  11.075   9.851 -0.3802  0.0072 -1.4361
43011SOL     OW34162   0.346   4.235   4.666  0.3534  0.2748 -0.1656
43011SOL    HW134163   0.262   4.211   4.706 -0.0072 -0.1077 -1.1217
43011SOL    HW234164   0.412   4.202   4.726 -0.1691 -1.0536 -0.3095
43012SOL     OW34165   5.572  11.149   1.995  0.1274  0.0691 -0.2640
43012SOL    HW134166   5.593  11.188   1.910 -0.8829  0.5820 -0.2834
43012SOL    HW234167   5.655  11.110   2.024  0.3189 -0.6662 -1.7705
43013SOL     OW34168   9.439   9.053   5.943  0.4629 -0.3477  0.3286
43013SOL    HW134169   9.461   9.014   6.028 -0.6352 -0.2027  0.6847
43013SOL    HW234170   9.460   9.146   5.954  2.0091 -0.6203 -0.1531
43014SOL     OW34171   4.213   2.840   6.387  0.2236  0.5973  0.2603
43014SOL    HW134172   4.188   2.815   6.476  0.9864  0.2636  0.3891
43014SOL    HW234173   4.276   2.772   6.360  0.3591  0.9619 -0.3539
43015SOL     OW34174  11.277   5.589   7.540 -0.6155  0.0025  0.0720
43015SOL    HW134175  11.215   5.549   7.602 -2.1756  0.3471 -1.2415
43015SOL    HW234176  11.323   5.514   7.502  1.7208 -0.1172  3.0127
43016SOL     OW34177   3.270   2.518  11.287  0.3601  1.0449 -0.6773
43016SOL    HW134178   3.287   2.522  11.381  0.2992  1.6310 -0.6907
43016SOL    HW234179   3.349   2.554  11.247  0.8196 -0.1641 -0.8956
43017SOL     OW34180   8.491   1.429   4.848 -0.6540  0.2685  0.1087
43017SOL    HW134181   8.584   1.414   4.862 -0.7022 -0.5642 -0.4569
43017SOL    HW234182   8.451   1.342   4.851 -1.2018  0.4710 -1.2211
43018SOL     OW34183   4.104   3.551   7.187 -0.2644  0.1145 -0.0300
43018SOL    HW134184   4.125   3.464   7.220 -1.3603 -0.0971  0.1206
43018SOL    HW234185   4.182   3.578   7.139 -0.0927 -1.1282 -0.4497
43019SOL     OW34186   2.869   2.110   2.602 -0.1418  0.2346 -0.1577
43019SOL    HW134187   2.898   2.153   2.681 -0.6709 -0.3579  0.3687
43019SOL    HW234188   2.948   2.096   2.550  0.2353  0.3849  0.3882
43020SOL     OW34189   3.026   4.313   7.642  0.3728 -0.8144 -0.0520
43020SOL    HW134190   3.020   4.356   7.557 -0.8470  0.3920  0.6197
43020SOL    HW234191   3.091   4.244   7.630  1.9421  0.8580 -1.3161
43021SOL     OW34192  10.789   2.776   8.841 -0.6701  0.2508  0.3838
43021SOL    HW134193  10.732   2.701   8.860 -0.9071  0.0738 -1.0074
43021SOL    HW234194  10.731   2.843   8.806 -0.2522  0.6089  0.3704
43022SOL     OW34195   8.747   4.553   6.444  0.2862  0.2909  0.4133
43022SOL    HW134196   8.825   4.604   6.463  1.2752  0.0128 -2.5794
43022SOL    HW234197   8.770   4.502   6.366 -1.2819 -3.3338  2.1845
43023SOL     OW34198  10.602   9.163   1.845  0.0530 -0.1404  0.5097
43023SOL    HW134199  10.534   9.216   1.803  0.4958 -1.0894 -1.4747
43023SOL    HW234200  10.661   9.228   1.883 -0.6993  0.7486  0.2031
43024SOL     OW34201   0.474  10.751   1.734  0.6445  0.3073 -0.1685
43024SOL    HW134202   0.434  10.792   1.657 -0.8357 -3.9887 -1.8308
43024SOL    HW234203   0.408  10.759   1.802 -0.0513 -0.2178 -0.7765
43025SOL     OW34204   0.138   7.499   1.253  0.2375  0.1840 -0.0234
43025SOL    HW134205   0.119   7.510   1.346  1.8809 -1.7704  0.5788
43025SOL    HW234206   0.053   7.486   1.212 -0.4633  0.6656  1.2642
43026SOL     OW34207   8.663   6.783   5.918  0.1699 -0.2710 -0.3413
43026SOL    HW134208   8.568   6.788   5.904  0.1682 -0.4835 -0.4013
43026SOL    HW234209   8.672   6.741   6.003  0.2068 -0.0490 -0.2354
43027SOL     OW34210   2.715   0.754   6.333  0.1055 -0.0068  0.5000
43027SOL    HW134211   2.696   0.812   6.407  0.6240  0.3985  0.3197
43027SOL    HW234212   2.712   0.666   6.371  0.0491  0.1787  0.9347
43028SOL     OW34213  11.028   5.140  10.425 -0.2578 -0.1124  0.4208
43028SOL    HW134214  11.047   5.146  10.519  0.0303 -0.2055  0.3709
43028SOL    HW234215  10.944   5.183  10.414 -1.0919 -1.5681  0.9675
43029SOL     OW34216   8.909   0.447   7.427  0.0567  0.0657 -0.1926
43029SOL    HW134217   8.977   0.453   7.494  0.5171  1.2584 -0.7571
43029SOL    HW234218   8.947   0.392   7.359  0.2970  0.3776 -0.3109
43030SOL     OW34219   7.369   1.536   9.087  0.1358 -0.7553 -0.1583
43030SOL    HW134220   7.285   1.519   9.130 -0.5576 -0.6373 -1.4415
43030SOL    HW234221   7.383   1.629   9.098 -0.6213 -0.5038 -1.1754
43031SOL     OW34222   8.630   1.782   0.498  0.2535  0.1655  0.2298
43031SOL    HW134223   8.628   1.699   0.546 -1.2349  0.4032  0.6256
43031SOL    HW234224   8.684   1.765   0.422  1.1432 -0.7575  1.0565
43032SOL     OW34225   9.294   6.299   9.646  0.0732  0.1490  0.5288
43032SOL    HW134226   9.310   6.221   9.593  0.4220  0.1018  0.7021
43032SOL    HW234227   9.382   6.330   9.669 -0.0835 -1.4601  3.4803
43033SOL     OW34228   2.525   0.841   8.413  0.4379  0.3235 -0.0549
43033SOL    HW134229   2.458   0.819   8.349 -0.1406  0.1222  0.6158
43033SOL    HW234230   2.605   0.802   8.379  0.0461 -0.1411 -0.4384
43034SOL     OW34231   1.538   2.084  10.347 -0.4239 -0.3086  0.3272
43034SOL    HW134232   1.567   2.096  10.257  3.2315 -1.7271  1.2051
43034SOL    HW234233   1.496   1.998  10.348  0.3065 -0.6764  0.1082
43035SOL     OW34234   2.927   6.215  11.273  1.0998  0.2507  0.0757
43035SOL    HW134235   2.923   6.278  11.346 -1.0309  0.7105 -0.3852
43035SOL    HW234236   3.016   6.222  11.240  0.9160  3.0756  0.0401
43036SOL     OW34237   6.629   4.363   7.548 -0.3170 -0.8245 -0.3096
43036SOL    HW134238   6.634   4.373   7.643 -0.7136 -1.4307 -0.2182
43036SOL    HW234239   6.537   4.344   7.531  0.1088 -2.7267 -0.5959
43037SOL     OW34240   6.968  10.367   6.120 -0.2226 -0.8852  0.3979
43037SOL    HW134241   6.897  10.429   6.136  0.4463 -0.3038  1.1389
43037SOL    HW234242   6.937  10.314   6.046 -2.0566 -1.5916  1.6084
43038SOL     OW34243   1.605   4.127   3.530  0.2804 -0.4154  0.1728
43038SOL    HW134244   1.549   4.101   3.458  0.0960 -0.4064  0.3122
43038SOL    HW234245   1.595   4.057   3.595  0.8121 -0.6619 -0.0097
43039SOL     OW34246   3.034   7.808   3.805 -0.1028  0.0013 -0.0350
43039SOL    HW134247   3.074   7.857   3.733 -0.4564 -0.0942 -0.2979
43039SOL    HW234248   2.943   7.839   3.808 -0.3915 -0.7949 -0.3461
43040SOL     OW34249   4.083   1.907   4.611  0.2697  0.1615  0.0624
43040SOL    HW134250   4.018   1.973   4.586  0.7878  0.7297  0.1931
43040SOL    HW234251   4.112   1.934   4.698  0.2125 -0.4565  0.2736
43041SOL     OW34252   1.835   2.378   2.043  0.5393  0.3843  0.2508
43041SOL    HW134253   1.778   2.312   2.082  1.0468 -0.2418 -0.0635
43041SOL    HW234254   1.783   2.415   1.972  1.3820 -1.8983 -1.6302
43042SOL     OW34255   9.385  10.169   6.922 -0.2955  0.1092  0.1227
43042SOL    HW134256   9.371  10.094   6.865 -0.6230  0.0796  0.2468
43042SOL    HW234257   9.477  10.193   6.906 -0.6546  0.7151 -1.1606
43043SOL     OW34258   0.382   1.532   9.626  0.7024  0.1030 -0.6601
43043SOL    HW134259   0.393   1.466   9.695  1.4827 -0.5711 -1.4252
43043SOL    HW234260   0.425   1.610   9.662 -1.7513  0.7483  0.9812
43044SOL     OW34261   7.897   8.808  10.496  0.3984  0.3262 -0.0382
43044SOL    HW134262   7.959   8.881  10.493  1.7817 -0.7880  1.0442
43044SOL    HW234263   7.823   8.842  10.547  0.9335  1.0432  0.2689
43045SOL     OW34264   7.735   5.746   9.409  0.4551 -0.0440  1.0824
43045SOL    HW134265   7.722   5.840   9.415  0.6683  0.1011 -0.5403
43045SOL    HW234266   7.649   5.710   9.387  0.2487 -0.2946  2.2720
43046SOL     OW34267   7.338   5.176   2.689  0.0828  0.1425  0.0748
43046SOL    HW134268   7.329   5.082   2.697  1.1678  0.2104  3.0999
43046SOL    HW234269   7.252   5.211   2.712 -0.1647 -0.0883 -0.5012
43047SOL     OW34270   1.824   4.487   2.605  0.4727 -0.2776  0.2487
43047SOL    HW134271   1.805   4.413   2.664 -0.8281  1.6318  2.2893
43047SOL    HW234272   1.737   4.519   2.579  1.0121  1.5101  0.6355
43048SOL     OW34273   7.156  10.674   5.016  0.4098  0.0165 -0.3670
43048SOL    HW134274   7.070  10.641   5.041  0.9603 -0.4695  0.9429
43048SOL    HW234275   7.180  10.734   5.086  1.6518 -0.7650 -0.1023
43049SOL     OW34276  10.927   6.737   0.088 -0.0225 -0.5317 -0.3638
43049SOL    HW134277  10.988   6.811   0.085 -0.5234  0.0303  1.9539
43049SOL    HW234278  10.945   6.688   0.008  2.3543  0.4806 -0.5077
43050SOL     OW34279   1.624   6.634   0.078  0.4589 -0.7791 -0.4744
43050SOL    HW134280   1.599   6.586   0.157  0.6641  1.2197  0.8483
43050SOL    HW234281   1.547   6.632   0.022 -0.9551  0.9276  1.3606
43051SOL     OW34282   1.024  10.009   2.723  0.2004 -0.2347 -0.0278
43051SOL    HW134283   1.097   9.989   2.665 -1.2611 -0.7199 -1.7585
43051SOL    HW234284   1.050  10.091   2.766  1.9651 -0.6665 -0.2455
43052SOL     OW34285   8.396   2.157   6.759  0.3991  0.2036 -0.9976
43052SOL    HW134286   8.466   2.092   6.764 -0.3150 -0.7428 -2.8549
43052SOL    HW234287   8.424   2.227   6.819  1.1267 -1.8213  1.0958
43053SOL     OW34288   8.664   9.464   0.009  0.5906 -0.0096  0.1501
43053SOL    HW134289   8.645   9.558   0.000  1.8105  0.3563  1.3253
43053SOL    HW234290   8.746   9.452  -0.039 -0.6103 -0.8976 -1.7702
43054SOL     OW34291  10.514  10.691   8.405 -0.3036 -0.0846 -0.0922
43054SOL    HW134292  10.517  10.699   8.500  1.9236 -1.5101 -0.0324
43054SOL    HW234293  10.604  10.700   8.376 -0.8245 -0.6153 -1.9996
43055SOL     OW34294   5.136   9.553   3.811 -0.8011 -0.1140 -0.1429
43055SOL    HW134295   5.109   9.618   3.876 -0.5714 -0.8128  0.6574
43055SOL    HW234296   5.055   9.511   3.784 -0.9465  0.4863 -0.6393
43056SOL     OW34297   3.205   4.461   6.046 -0.4384  0.3257  0.1481
43056SOL    HW134298   3.274   4.431   6.105 -0.1548 -1.8109 -1.2041
43056SOL    HW234299   3.124   4.427   6.084 -0.4186  0.2953  0.1632
43057SOL     OW34300   4.779   3.071   3.774 -0.3752  0.2030 -0.0549
43057SOL    HW134301   4.707   3.010   3.756  1.6747 -1.5604 -2.5762
43057SOL    HW234302   4.736   3.149   3.809 -3.3047 -1.6538  0.6695
43058SOL     OW34303   6.166   8.130  10.837 -0.2189  0.1735 -0.5032
43058SOL    HW134304   6.113   8.162  10.763 -1.9635 -1.1788  0.1408
43058SOL    HW234305   6.243   8.090  10.796 -1.1633 -0.5491 -1.6058
43059SOL     OW34306   9.139   5.423   3.664 -0.1974 -0.1283  0.1706
43059SOL    HW134307   9.127   5.336   3.703 -0.6317 -0.7938 -1.3737
43059SOL    HW234308   9.076   5.425   3.592  0.5105  1.0937 -0.4279
43060SOL     OW34309   6.935   9.491  10.545  0.2780 -0.1248  0.3830
43060SOL    HW134310   6.909   9.548  10.472 -2.4679 -3.2106 -1.1747
43060SOL    HW234311   6.994   9.427  10.505  0.4945 -0.5406  1.3606
43061SOL     OW34312   8.607   7.204   4.716 -0.2741 -0.4223 -0.2188
43061SOL    HW134313   8.667   7.130   4.707  0.0943 -0.2476  0.7264
43061SOL    HW234314   8.526   7.174   4.675  0.3014 -0.8410 -1.0658
43062SOL     OW34315   3.101   4.778  10.162 -0.9465  0.1016 -0.0056
43062SOL    HW134316   3.072   4.687  10.160  2.7375 -1.1535 -1.9854
43062SOL    HW234317   3.090   4.805  10.253 -1.3991 -2.5685  0.7793
43063SOL     OW34318   3.117   7.484   0.835  0.7775 -0.4060  0.2759
43063SOL    HW134319   3.054   7.556   0.836  2.0138  0.7163 -0.6471
43063SOL    HW234320   3.159   7.488   0.921 -0.3279 -1.1000  0.8580
43064SOL     OW34321   3.317   8.080   8.767  0.3673  0.0345  0.1735
43064SOL    HW134322   3.320   7.985   8.773  1.5816  0.1197  1.2128
43064SOL    HW234323   3.381   8.102   8.700 -0.9092  0.0557 -1.0607
43065SOL     OW34324   3.592   5.899   5.696  0.2676  0.4760  0.9390
43065SOL    HW134325   3.570   5.948   5.776 -1.2000  0.0563  0.8095
43065SOL    HW234326   3.634   5.819   5.727  0.4035  0.6723  1.2606
43066SOL     OW34327  10.353   2.205   0.021 -0.2364  0.6089 -0.0468
43066SOL    HW134328  10.316   2.143  -0.042  0.7431  0.0643 -0.0941
43066SOL    HW234329  10.286   2.273   0.029 -2.0809 -1.2927  1.2915
43067SOL     OW34330   0.817  10.349   5.998  0.6888 -0.3941  0.1162
43067SOL    HW134331   0.768  10.430   6.014 -0.0139 -0.5576 -1.1192
43067SOL    HW234332   0.810  10.300   6.080 -0.5900 -0.0715  0.2106
43068SOL     OW34333   2.640   1.259   2.853  0.2779  0.1883 -0.7718
43068SOL    HW134334   2.686   1.280   2.771  0.2577  0.0716 -0.8129
43068SOL    HW234335   2.703   1.207   2.903 -0.3821 -1.3331 -1.4984
43069SOL     OW34336   8.471   5.426   0.225 -0.0773  0.2349  0.0242
43069SOL    HW134337   8.522   5.503   0.200 -0.0994  0.7197  1.4386
43069SOL    HW234338   8.427   5.451   0.307  0.5207 -1.5401  0.9125
43070SOL     OW34339   6.866   3.836   5.347 -0.2798 -0.3916 -0.0163
43070SOL    HW134340   6.940   3.857   5.403 -0.9590  0.2932  0.6192
43070SOL    HW234341   6.856   3.741   5.356  0.5839 -0.5077 -0.1990
43071SOL     OW34342   4.824   8.053   5.789 -0.0405 -0.0057 -0.2001
43071SOL    HW134343   4.848   8.040   5.881 -0.2353 -1.3156 -0.3223
43071SOL    HW234344   4.888   8.115   5.756 -0.2542  0.8342  0.9436
43072SOL     OW34345  10.109   7.046   8.228  0.7058  0.7118 -0.6898
43072SOL    HW134346  10.107   7.113   8.159  1.3364  0.2153 -1.2027
43072SOL    HW234347  10.181   7.073   8.285  0.2358  1.0787 -0.2721
43073SOL     OW34348  10.313  11.222   8.928  0.3278 -0.3207  0.5258
43073SOL    HW134349  10.398  11.243   8.967  0.5980 -0.2898 -0.0789
43073SOL    HW234350  10.252  11.284   8.968  0.3785 -1.1104  1.8378
43074SOL     OW34351   3.659   8.383   8.629 -0.0575  0.6922 -0.4871
43074SOL    HW134352   3.634   8.390   8.537  0.5538  1.5274 -0.5919
43074SOL    HW234353   3.662   8.473   8.660  1.3846  0.5271 -0.0915
43075SOL     OW34354   4.899   2.132   2.715  0.4915 -0.3172  0.1964
43075SOL    HW134355   4.910   2.218   2.674  2.2787 -1.1269 -1.0656
43075SOL    HW234356   4.901   2.150   2.809 -2.0936  1.3600 -0.0034
43076SOL     OW34357   7.271   7.123   6.476 -0.2026  0.1812 -0.0619
43076SOL    HW134358   7.238   7.204   6.437 -0.7000 -0.1207 -0.2811
43076SOL    HW234359   7.293   7.147   6.566 -1.7403  0.2219  0.3137
43077SOL     OW34360   3.137   5.525   5.476  0.2600 -0.7284 -0.4996
43077SOL    HW134361   3.100   5.445   5.438 -3.0205  0.8748 -0.8421
43077SOL    HW234362   3.112   5.522   5.568  0.1988 -0.1412 -0.4955
43078SOL     OW34363   8.282   5.249   7.969  0.3706 -0.1910 -0.1474
43078SOL    HW134364   8.308   5.197   8.044  1.1026  1.8910  1.0669
43078SOL    HW234365   8.207   5.300   7.999  0.6016  0.5898 -0.8612
43079SOL     OW34366   1.489   9.245  10.471  0.0118 -0.2869  0.2648
43079SOL    HW134367   1.538   9.305  10.527  0.6715 -0.3994 -0.1899
43079SOL    HW234368   1.549   9.224  10.400 -1.8378  2.1811 -2.0944
43080SOL     OW34369   1.367   9.352   4.685 -0.2834 -0.2286  0.0548
43080SOL    HW134370   1.449   9.401   4.675 -0.4563 -0.2415 -1.6397
43080SOL    HW234371   1.317   9.375   4.607 -0.9747 -1.9728 -0.0280
43081SOL     OW34372   0.795  10.846   8.230 -0.5032  0.1505  0.2800
43081SOL    HW134373   0.873  10.790   8.228 -0.3902  0.2935  0.6560
43081SOL    HW234374   0.810  10.906   8.304  0.9533  2.9356 -2.1825
43082SOL     OW34375   2.085   2.269  10.937  0.1299  0.4986 -0.3802
43082SOL    HW134376   2.120   2.244  10.851 -2.2238 -2.5889 -0.5117
43082SOL    HW234377   2.012   2.328  10.916  0.8981  1.4666 -0.3801
43083SOL     OW34378  10.727   4.347   9.268  0.2298 -0.1459  0.3649
43083SOL    HW134379  10.654   4.322   9.211  0.7443  0.0702 -0.4031
43083SOL    HW234380  10.686   4.396   9.339 -0.2291  1.3681 -0.9016
43084SOL     OW34381   6.728   1.246   3.586  0.1975  0.4540  0.2011
43084SOL    HW134382   6.663   1.275   3.521  1.2141  0.4260 -0.8337
43084SOL    HW234383   6.758   1.161   3.554 -0.1147 -0.0988  1.3229
43085SOL     OW34384   9.991   1.877   9.251  0.3461 -0.0466  0.3235
43085SOL    HW134385   9.972   1.963   9.213  0.4317  0.8643  2.2834
43085SOL    HW234386   9.906   1.844   9.278  0.5267  0.2891  1.3323
43086SOL     OW34387   3.005   9.188   3.612  0.0243 -0.2048 -0.6697
43086SOL    HW134388   2.956   9.222   3.687 -0.8635  0.5699 -1.5722
43086SOL    HW234389   3.091   9.230   3.619 -0.3223  0.4970 -0.5284
43087SOL     OW34390   7.575   8.175   5.360  0.6655 -0.5255  0.5099
43087SOL    HW134391   7.618   8.107   5.309  0.0571 -2.0414  1.9627
43087SOL    HW234392   7.523   8.224   5.296  0.2178 -2.1451 -0.3969
43088SOL     OW34393   3.677   9.415   2.179 -0.4389  0.3941 -0.1338
43088SOL    HW134394   3.584   9.417   2.156 -0.2731  0.6693 -0.7945
43088SOL    HW234395   3.713   9.496   2.143  0.0737  0.2518  0.0457
43089SOL     OW34396   5.579   0.701   6.434  0.2097 -0.1189  0.9154
43089SOL    HW134397   5.580   0.756   6.356  0.7153 -0.8708  0.3817
43089SOL    HW234398   5.506   0.641   6.419  1.6354 -1.6700  0.0138
43090SOL     OW34399   5.351   7.444   1.877  0.1958  0.2576  0.1609
43090SOL    HW134400   5.368   7.532   1.845  0.0072  0.1464 -0.2464
43090SOL    HW234401   5.366   7.387   1.802 -0.1461 -0.0124  0.2935
43091SOL     OW34402   6.434   8.776   4.059 -0.2890  0.2816  0.1654
43091SOL    HW134403   6.374   8.773   3.985 -0.5177 -1.2792  0.4041
43091SOL    HW234404   6.516   8.811   4.022 -0.4768 -0.2528 -0.7698
43092SOL     OW34405   1.397   9.333   2.065 -0.0428 -0.2216  0.3632
43092SOL    HW134406   1.470   9.394   2.054 -0.7946  0.6517  0.0883
43092SOL    HW234407   1.353   9.362   2.145 -1.6601  0.9577 -0.9131
43093SOL     OW34408  10.560   8.959  10.152  0.2911  0.0494 -0.3466
43093SOL    HW134409  10.469   8.947  10.123  0.2504  1.8710 -1.0508
43093SOL    HW234410  10.598   9.020  10.088  1.9210 -0.4399  0.1210
43094SOL     OW34411   6.631   2.918   0.044 -0.2563  0.5299  0.6810
43094SOL    HW134412   6.720   2.886   0.029 -1.1129 -2.4903  1.7252
43094SOL    HW234413   6.574   2.845   0.020 -2.7030  3.3823 -2.7911
43095SOL     OW34414  10.363   6.106   9.211  0.0306 -0.1756 -0.7383
43095SOL    HW134415  10.310   6.113   9.132  1.6624  1.0018 -1.7579
43095SOL    HW234416  10.434   6.168   9.198 -0.2602  0.8349  2.1438
43096SOL     OW34417   0.922   9.517  10.161 -0.7783  0.5273  0.3270
43096SOL    HW134418   0.915   9.596  10.107  0.3640  0.4723  0.0816
43096SOL    HW234419   0.856   9.458  10.125 -1.1185  1.0811  0.0224
43097SOL     OW34420   6.937   0.971   9.406  0.1300  0.5279  0.4859
43097SOL    HW134421   7.024   0.940   9.381 -0.4247  0.0595 -0.9110
43097SOL    HW234422   6.953   1.033   9.477  1.5442 -0.0867  0.7224
43098SOL     OW34423  10.540   0.068   0.869 -0.0628  0.6089  0.4255
43098SOL    HW134424  10.574  -0.012   0.829 -0.7468 -0.0859  1.2049
43098SOL    HW234425  10.555   0.056   0.963  0.4466  1.6977  0.4948
43099SOL     OW34426   7.476   3.481   3.168  0.1659  0.0173 -0.3701
43099SOL    HW134427   7.509   3.541   3.235 -0.4104 -0.6450  0.5180
43099SOL    HW234428   7.445   3.538   3.098  0.2492  0.7350  0.1727
43100SOL     OW34429  10.196   6.176   3.960  0.5138  0.0303 -0.5821
43100SOL    HW134430  10.238   6.131   3.886 -0.9725 -1.5020 -0.5237
43100SOL    HW234431  10.199   6.113   4.031  0.5148  0.9123  0.2099
43101SOL     OW34432   7.623   2.703  10.409  0.1818  0.1887 -0.3863
43101SOL    HW134433   7.606   2.702  10.315 -0.8667  1.6570 -0.2344
43101SOL    HW234434   7.633   2.611  10.433 -0.9167 -0.2811 -1.7066
43102SOL     OW34435   0.458   5.650   9.619  0.1979 -0.0461 -0.1608
43102SOL    HW134436   0.400   5.619   9.688  1.3645  1.2291  1.4189
43102SOL    HW234437   0.484   5.571   9.572 -2.0539 -0.7268 -0.3271
43103SOL     OW34438   8.670   5.807   6.055 -1.2555  0.1853 -0.2806
43103SOL    HW134439   8.720   5.729   6.078 -0.0309  0.9490 -0.3417
43103SOL    HW234440   8.597   5.807   6.117  0.0834  0.3247  1.3146
43104SOL     OW34441   9.200  10.658   5.300  0.0557 -0.2479  0.0004
43104SOL    HW134442   9.231  10.737   5.256 -3.5629  0.5272 -1.2725
43104SOL    HW234443   9.210  10.589   5.235  0.6125 -0.3226  0.1604
43105SOL     OW34444   1.141   3.186   8.935  0.1808  0.4941  0.5058
43105SOL    HW134445   1.158   3.231   8.853 -0.3813 -0.4547 -0.1412
43105SOL    HW234446   1.056   3.220   8.964  0.7724  1.4628  1.1452
43106SOL     OW34447  10.561   9.981   8.777  0.1954  0.0613  0.7955
43106SOL    HW134448  10.616  10.032   8.718 -0.0953  1.3137  1.6087
43106SOL    HW234449  10.613   9.902   8.795  0.8528  0.2883 -0.0472
43107SOL     OW34450   5.069   1.850   9.530 -0.5195  0.6372  0.0284
43107SOL    HW134451   5.103   1.774   9.483  0.3356  0.7135  0.5226
43107SOL    HW234452   5.120   1.854   9.611 -0.2894  1.9743 -0.1722
43108SOL     OW34453   1.042   2.366   3.773 -0.1379  0.1565  0.1372
43108SOL    HW134454   1.006   2.436   3.717 -0.0871 -0.0480 -0.1537
43108SOL    HW234455   0.985   2.364   3.849 -1.2002 -0.6828 -0.6651
43109SOL     OW34456   0.970   5.117   8.200  0.1004  0.0198  0.4803
43109SOL    HW134457   0.880   5.092   8.220 -0.4068  2.1749  0.9418
43109SOL    HW234458   0.992   5.184   8.265  1.8623 -0.1142  0.0574
43110SOL     OW34459   6.100   2.127   4.504 -0.1143  0.4711  0.4873
43110SOL    HW134460   6.183   2.155   4.466 -0.0493 -0.2101  0.1354
43110SOL    HW234461   6.037   2.135   4.432 -0.1833  0.1261  0.5109
43111SOL     OW34462   5.307   4.382  10.861 -0.0970  0.7104  0.5952
43111SOL    HW134463   5.247   4.456  10.853  0.1079  0.6829 -1.5495
43111SOL    HW234464   5.392   4.422  10.878  0.3831  1.1636 -2.4586
43112SOL     OW34465   1.324   6.998   6.635 -0.1132  0.3545  0.7402
43112SOL    HW134466   1.311   7.086   6.600 -1.8670  0.1475  0.8143
43112SOL    HW234467   1.300   6.940   6.563  0.6377 -0.0653  0.8238
43113SOL     OW34468   8.719   5.107  10.574  0.4746  0.0003 -0.7408
43113SOL    HW134469   8.705   5.016  10.547  0.2570 -0.5639  1.2135
43113SOL    HW234470   8.650   5.125  10.637  1.6079  0.9150  0.2737
43114SOL     OW34471   8.570   3.008   0.274 -0.1672 -0.7482 -0.1050
43114SOL    HW134472   8.523   2.959   0.207 -0.7696 -0.9795  0.4838
43114SOL    HW234473   8.577   2.947   0.347 -0.1869 -0.2341  0.3281
43115SOL     OW34474   5.917   3.918  10.521 -0.1611 -0.2998  0.7331
43115SOL    HW134475   5.856   3.946  10.589 -0.2629  0.2854  0.4007
43115SOL    HW234476   5.954   3.836  10.554  1.0493  0.8388  2.2823
43116SOL     OW34477   9.390   4.565   6.568  0.2973 -0.0967 -0.5884
43116SOL    HW134478   9.451   4.620   6.519 -0.6651  1.4341 -0.1103
43116SOL    HW234479   9.373   4.614   6.648 -0.6649 -1.0563 -0.1973
43117SOL     OW34480   2.733   1.886   0.277  0.4645 -0.8068  0.1530
43117SOL    HW134481   2.672   1.826   0.321  0.4742  0.1489  1.4933
43117SOL    HW234482   2.680   1.960   0.251  0.2053 -1.9065 -2.6358
43118SOL     OW34483   9.464   1.661   8.459 -0.2916  0.0226  0.3598
43118SOL    HW134484   9.526   1.589   8.447 -0.4592 -0.2361  1.0395
43118SOL    HW234485   9.382   1.618   8.482 -0.3055  0.4448  1.1179
43119SOL     OW34486  10.424   7.086   1.804 -0.0447 -0.0227 -0.3062
43119SOL    HW134487  10.353   7.034   1.842 -0.2254 -0.3430 -1.0689
43119SOL    HW234488  10.465   7.027   1.740  0.0850  0.5923 -0.7992
43120SOL     OW34489   3.571  10.258   1.460  0.0977 -0.2343 -0.4934
43120SOL    HW134490   3.526  10.291   1.382 -1.2822 -1.7059 -0.3346
43120SOL    HW234491   3.557  10.326   1.526  1.8838  1.3696 -1.6957
43121SOL     OW34492   9.322   4.267   9.644 -0.2833 -0.7993 -0.5161
43121SOL    HW134493   9.266   4.244   9.718 -1.0043  2.6500  0.1078
43121SOL    HW234494   9.341   4.360   9.657  0.7091 -0.4775 -3.9343
43122SOL     OW34495   4.878   0.204   7.172 -0.0351 -0.2307  0.1477
43122SOL    HW134496   4.865   0.219   7.266 -0.5233 -0.1074  0.0634
43122SOL    HW234497   4.941   0.133   7.167 -1.4911 -1.5875  0.5872
43123SOL     OW34498   4.639   6.104   3.651 -0.5475  0.5576 -0.6646
43123SOL    HW134499   4.665   6.071   3.737  0.6067  0.2190 -1.1353
43123SOL    HW234500   4.562   6.051   3.627  0.2578 -0.6259 -0.6641
43124SOL     OW34501   7.911   9.450  10.425  0.2560 -1.1624  0.2894
43124SOL    HW134502   7.917   9.358  10.401  0.5715 -1.0250 -0.1726
43124SOL    HW234503   7.939   9.453  10.517 -0.1622 -1.5807  0.4323
43125SOL     OW34504  11.188   1.736   6.114  0.4568  0.3202  0.2581
43125SOL    HW134505  11.128   1.708   6.044  0.4797  0.5626  0.1412
43125SOL    HW234506  11.224   1.819   6.083  0.0604  0.6974  0.8093
43126SOL     OW34507   7.517   6.374   5.312  0.6271 -0.0936  0.2228
43126SOL    HW134508   7.578   6.432   5.357 -0.1024 -0.1888  1.3553
43126SOL    HW234509   7.561   6.351   5.230  1.6189  0.7317  0.5222
43127SOL     OW34510   6.095   6.500   0.938 -0.2460 -0.0136 -0.4412
43127SOL    HW134511   6.051   6.563   0.995 -0.7995  0.7489 -1.6715
43127SOL    HW234512   6.186   6.530   0.935 -0.3363  0.2651 -0.3987
43128SOL     OW34513   8.488   4.607   6.515  0.0469 -0.3252  0.0945
43128SOL    HW134514   8.576   4.606   6.477  1.7769 -0.0834  3.8687
43128SOL    HW234515   8.468   4.700   6.527 -0.2912 -0.4079  0.1871
43129SOL     OW34516   0.151   5.979   1.038 -0.1939 -0.2356  0.2583
43129SOL    HW134517   0.163   5.980   1.133  1.3634 -1.8384  0.1001
43129SOL    HW234518   0.212   6.045   1.006  0.3029 -0.7035  0.2523
43130SOL     OW34519   3.441  11.171   1.260 -0.5819  0.2174  0.0619
43130SOL    HW134520   3.423  11.196   1.350 -0.9373 -1.3417  0.4333
43130SOL    HW234521   3.530  11.201   1.243 -0.2094 -0.2451  1.2058
43131SOL     OW34522  10.189   8.205   0.535  0.5270  0.3275  0.2334
43131SOL    HW134523  10.219   8.273   0.474  0.4750  0.8222  0.7540
43131SOL    HW234524  10.205   8.123   0.488  1.1979  0.6623 -0.1469
43132SOL     OW34525   5.198   4.181   3.284 -0.2351  0.1112  0.4095
43132SOL    HW134526   5.269   4.231   3.325 -0.2621  0.7799 -0.3513
43132SOL    HW234527   5.125   4.244   3.279  0.8061  1.1441 -3.8038
43133SOL     OW34528   8.015   3.818   0.187 -0.3482  0.0400 -0.2731
43133SOL    HW134529   8.022   3.851   0.098  1.0367 -0.2408 -0.2757
43133SOL    HW234530   8.070   3.739   0.188  0.9806  0.9677  1.2601
43134SOL     OW34531   5.981   1.316   7.122 -0.0495 -0.1273  0.3404
43134SOL    HW134532   5.888   1.302   7.100 -0.4039  1.6188  0.7259
43134SOL    HW234533   6.000   1.404   7.092  1.0699  0.1168  1.7213
43135SOL     OW34534   9.035   8.729   4.236 -0.2426  0.0255  0.2383
43135SOL    HW134535   9.046   8.784   4.158  0.9552  0.1904  0.5130
43135SOL    HW234536   9.013   8.790   4.306 -0.5836 -0.0363  0.1855
43136SOL     OW34537   7.829   2.434   9.092  0.5508  0.2547  0.6362
43136SOL    HW134538   7.748   2.455   9.044 -0.1889 -0.4509  1.5533
43136SOL    HW234539   7.801   2.427   9.183  1.2739 -2.0184  0.7082
43137SOL     OW34540   7.842   7.046   0.560  0.3979 -0.2104  0.4147
43137SOL    HW134541   7.835   7.129   0.606 -0.5770 -0.0018 -0.0866
43137SOL    HW234542   7.845   6.980   0.629 -0.6231  0.1319  0.7978
43138SOL     OW34543   9.368   7.749   3.394  0.9640 -0.8028 -0.5345
43138SOL    HW134544   9.352   7.745   3.300  1.4107  0.0742 -0.6541
43138SOL    HW234545   9.309   7.819   3.425  1.6285 -0.3214 -0.3451
43139SOL     OW34546   9.517   5.933   3.262 -0.1266  0.1451  0.2540
43139SOL    HW134547   9.527   5.838   3.249  0.4240  0.2056  0.2445
43139SOL    HW234548   9.574   5.953   3.336 -1.7095  0.1471  1.4890
43140SOL     OW34549  10.048   8.742   9.647 -0.1032  0.5331 -0.0650
43140SOL    HW134550  10.044   8.688   9.568  0.3884  2.3619 -1.3629
43140SOL    HW234551  10.038   8.832   9.615 -3.3627  1.0963  2.3049
43141SOL     OW34552   9.504   1.466   3.678 -0.1802  0.2112  0.0785
43141SOL    HW134553   9.437   1.422   3.730  0.5363  0.5388  1.3143
43141SOL    HW234554   9.584   1.456   3.730  1.5202 -3.2109 -2.9965
43142SOL     OW34555   9.937   6.676   6.215 -0.1088  0.0013  0.6029
43142SOL    HW134556   9.959   6.652   6.305  1.4793 -3.0121 -0.5324
43142SOL    HW234557  10.007   6.637   6.162 -1.2779  1.3166 -1.9791
43143SOL     OW34558  11.057   6.401   7.080 -0.3940 -0.3219 -0.3136
43143SOL    HW134559  11.136   6.379   7.030 -0.4425 -1.4724  0.1184
43143SOL    HW234560  11.043   6.494   7.061  1.3464  0.0351 -0.0140
43144SOL     OW34561  10.211   6.899   6.387  0.1444 -0.2542 -0.2766
43144SOL    HW134562  10.201   6.804   6.397 -1.9484 -0.0337 -0.2456
43144SOL    HW234563  10.244   6.928   6.472 -2.3406 -0.5364  0.8236
43145SOL     OW34564   7.808   0.174   0.151  0.0926  0.1154  0.5441
43145SOL    HW134565   7.828   0.081   0.153 -2.3035 -0.4685 -0.6909
43145SOL    HW234566   7.819   0.199   0.059 -1.3900  0.5419  0.4732
43146SOL     OW34567   6.499   4.638   2.876  0.0951 -0.0841  0.3157
43146SOL    HW134568   6.409   4.609   2.863  0.2581 -0.7974  0.7472
43146SOL    HW234569   6.508   4.647   2.971  0.4826 -0.0205  0.2756
43147SOL     OW34570   1.882   6.878   4.351 -0.0933 -0.1435  0.0507
43147SOL    HW134571   1.879   6.935   4.428 -0.1925 -0.7314  0.4776
43147SOL    HW234572   1.820   6.918   4.290 -2.5328 -1.5363  1.5473
43148SOL     OW34573   8.648   9.280   9.809  0.0881  0.5353  0.1931
43148SOL    HW134574   8.622   9.323   9.891 -1.2467  1.6680 -0.7991
43148SOL    HW234575   8.740   9.304   9.798  0.0882  0.9366  1.0072
43149SOL     OW34576   4.127   1.022   4.143 -0.3710  0.3917  0.7113
43149SOL    HW134577   4.141   1.090   4.208  0.0780 -0.2907  1.3329
43149SOL    HW234578   4.063   1.059   4.082 -0.8597  1.0006  1.5903
43150SOL     OW34579   4.594   1.049   3.785 -0.5594  0.0640 -1.1759
43150SOL    HW134580   4.611   1.142   3.798 -0.1686 -0.3352  1.3883
43150SOL    HW234581   4.671   1.017   3.738  1.5685  0.1411  2.1009
43151SOL     OW34582   1.925   6.178   1.831 -0.6219  0.1916 -0.0347
43151SOL    HW134583   1.991   6.199   1.897  1.4951 -3.4577 -0.7836
43151SOL    HW234584   1.844   6.168   1.880  0.5467 -0.6821  1.7909
43152SOL     OW34585   6.779   6.997   0.565 -0.3830  0.0119 -0.1096
43152SOL    HW134586   6.791   6.908   0.532  1.0018 -0.0727  0.5802
43152SOL    HW234587   6.763   7.050   0.487  0.9231 -0.4981 -0.7375
43153SOL     OW34588   7.203   9.842   6.066 -0.1384 -0.4457  0.6946
43153SOL    HW134589   7.288   9.811   6.033  0.8496  1.5943  1.2180
43153SOL    HW234590   7.221   9.868   6.156 -2.1225 -3.0563  1.9141
43154SOL     OW34591   5.974   4.953   9.607  0.2301 -0.4609  0.2224
43154SOL    HW134592   6.044   4.888   9.595  0.2798 -0.2668 -0.5971
43154SOL    HW234593   5.994   5.021   9.542  0.8238  0.9327  1.8229
43155SOL     OW34594  11.330   5.115   6.657  0.2052 -0.5808  0.4761
43155SOL    HW134595  11.422   5.114   6.685  0.7393  0.3913 -1.1562
43155SOL    HW234596  11.306   5.022   6.653  2.8976 -1.3097 -4.4461
43156SOL     OW34597   5.384   2.492   6.266  0.2185 -0.4844 -0.5837
43156SOL    HW134598   5.311   2.554   6.270  0.0030 -0.6286 -2.1351
43156SOL    HW234599   5.365   2.429   6.335  0.3614  1.0824  0.9258
43157SOL     OW34600   3.167   8.365   3.779  0.2104 -0.4456 -0.3366
43157SOL    HW134601   3.236   8.298   3.783  0.6375  0.0592  1.5202
43157SOL    HW234602   3.215   8.448   3.782 -0.4569 -0.0891  1.4843
43158SOL     OW34603  11.011   2.410   7.544 -0.1280  0.3732 -0.5117
43158SOL    HW134604  10.934   2.419   7.600  0.0597 -2.2110  0.2592
43158SOL    HW234605  10.986   2.447   7.460 -1.9539  0.2373 -0.0342
43159SOL     OW34606   0.281   6.286   1.341 -0.7556 -0.4831 -0.3812
43159SOL    HW134607   0.236   6.368   1.319 -0.6081 -0.3719 -0.2664
43159SOL    HW234608   0.317   6.302   1.428  1.4020  0.2100 -1.3655
43160SOL     OW34609   3.987  10.311  10.415 -0.4240  0.1986  0.3013
43160SOL    HW134610   4.026  10.262  10.343  1.9512  1.6944  0.5246
43160SOL    HW234611   3.951  10.390  10.374  0.0128  0.5583  0.6087
43161SOL     OW34612   5.042   6.772   9.127  0.3491 -0.3803  0.0626
43161SOL    HW134613   5.109   6.704   9.118  1.5795  0.7977  0.3041
43161SOL    HW234614   5.028   6.781   9.221 -2.0657 -2.4584 -0.0388
43162SOL     OW34615   6.529   5.258   5.198 -0.3024 -0.5121 -0.0286
43162SOL    HW134616   6.580   5.337   5.181  0.5907 -0.6982  1.7513
43162SOL    HW234617   6.583   5.206   5.257 -1.4400 -1.8779 -0.1658
43163SOL     OW34618   5.704   6.735   3.432  0.6641  0.9012 -0.1178
43163SOL    HW134619   5.720   6.787   3.511 -1.0452  1.4518 -0.1184
43163SOL    HW234620   5.706   6.644   3.461  1.2085  1.0629  0.3429
43164SOL     OW34621   5.292   9.462   2.083 -0.2214  0.4880 -0.1015
43164SOL    HW134622   5.252   9.486   2.167  0.6719 -0.8793  0.7366
43164SOL    HW234623   5.326   9.374   2.097  1.8383  1.0789 -1.2201
43165SOL     OW34624   8.880   4.531  11.170 -0.0446  0.1851 -0.0002
43165SOL    HW134625   8.905   4.508  11.259 -0.2376 -0.6145 -0.1531
43165SOL    HW234626   8.954   4.501  11.116  0.4580  1.4276 -0.0259
43166SOL     OW34627   7.111   5.405   4.264  0.2064 -0.2307 -0.4142
43166SOL    HW134628   7.139   5.404   4.355  0.2390 -1.3826 -0.4224
43166SOL    HW234629   7.016   5.412   4.268  0.3044  1.2152 -0.3340
43167SOL     OW34630   7.390  10.690   2.768  0.0002  0.0769 -0.6643
43167SOL    HW134631   7.455  10.692   2.698 -0.1151  0.6674 -0.7579
43167SOL    HW234632   7.437  10.720   2.846  0.0374 -0.2337 -0.5667
43168SOL     OW34633   9.555   3.857   9.199  0.2130  0.1577 -0.3981
43168SOL    HW134634   9.489   3.821   9.140 -1.0886  1.2030  0.3890
43168SOL    HW234635   9.508   3.922   9.251  1.3462 -0.6138  1.6735
43169SOL     OW34636   9.830   3.330   9.898 -0.1873 -0.1933 -0.0191
43169SOL    HW134637   9.839   3.315   9.804  0.3047 -2.2659  0.3373
43169SOL    HW234638   9.887   3.404   9.916  1.0909 -0.9184 -1.0592
43170SOL     OW34639   3.892   6.529   7.182 -0.3211  0.0361  0.4633
43170SOL    HW134640   3.847   6.472   7.119  0.8254  0.3474 -0.6647
43170SOL    HW234641   3.985   6.511   7.168 -0.0252  0.5680  1.6567
43171SOL     OW34642   6.804   3.875   7.221  0.7157  0.0826  0.3965
43171SOL    HW134643   6.837   3.926   7.147  1.1532  0.6079  0.9446
43171SOL    HW234644   6.853   3.908   7.297  0.4764 -0.6430  0.8761
43172SOL     OW34645   6.022   6.828  10.537 -0.2864 -0.2880 -0.4378
43172SOL    HW134646   5.938   6.852  10.575 -0.6318 -1.5111 -0.4029
43172SOL    HW234647   6.068   6.911  10.527 -2.0391  0.5731 -1.7693
43173SOL     OW34648   8.073   2.562   0.859 -0.4163 -0.5573 -0.2138
43173SOL    HW134649   8.038   2.582   0.772 -0.0466  1.8604  0.1587
43173SOL    HW234650   8.160   2.526   0.842 -0.5298 -0.5322 -0.8709
43174SOL     OW34651   3.684   9.767   7.512 -0.0118 -0.1322 -0.4369
43174SOL    HW134652   3.717   9.779   7.601  0.2322 -0.5952 -0.4660
43174SOL    HW234653   3.720   9.683   7.483  0.3740  0.2791 -1.1810
43175SOL     OW34654   4.448  10.569   6.524  0.2877 -0.5199 -0.0839
43175SOL    HW134655   4.522  10.629   6.517 -1.0966  1.1594 -0.5113
43175SOL    HW234656   4.370  10.625   6.523 -1.1193 -2.4117 -2.3794
43176SOL     OW34657  11.310   8.233  11.184 -0.7741 -0.6140 -0.1225
43176SOL    HW134658  11.359   8.303  11.141  1.9379 -0.6377  2.7937
43176SOL    HW234659  11.322   8.156  11.128  2.6634 -0.6402  0.5486
43177SOL     OW34660   4.068   1.321   3.184  0.3503  0.1351  0.1082
43177SOL    HW134661   3.986   1.357   3.216  0.3770 -0.6985  1.1244
43177SOL    HW234662   4.043   1.270   3.106 -0.1644 -0.5269  0.7034
43178SOL     OW34663  10.005   1.239   9.893 -0.0686 -0.3169 -0.7056
43178SOL    HW134664  10.057   1.275   9.965  0.1910 -1.5875 -0.2506
43178SOL    HW234665  10.063   1.176   9.850 -1.5941 -2.6057  0.5079
43179SOL     OW34666   2.337   6.168   8.839  0.0785  0.1526  0.1334
43179SOL    HW134667   2.301   6.252   8.814 -0.0598 -0.1244 -0.5995
43179SOL    HW234668   2.357   6.124   8.756  3.9242  1.0792  0.4645
43180SOL     OW34669   6.404  10.344   1.918  0.3458  0.6352 -0.1391
43180SOL    HW134670   6.450  10.423   1.891 -1.4083  1.8279  0.2549
43180SOL    HW234671   6.316  10.374   1.941  0.5161 -0.9691  2.8745
43181SOL     OW34672   0.023  10.929   8.072 -0.2029 -0.7386  0.4995
43181SOL    HW134673  -0.010  10.950   7.985  0.8070  0.5761  0.4035
43181SOL    HW234674   0.041  10.835   8.069 -2.1699 -1.1038 -0.0184
43182SOL     OW34675   8.635   6.602   8.868  0.3604 -0.2008 -0.0225
43182SOL    HW134676   8.604   6.511   8.867 -1.0540  0.2677 -0.1694
43182SOL    HW234677   8.661   6.619   8.778 -2.4108  0.5259 -0.7399
43183SOL     OW34678   0.469   2.912   2.335 -0.2684  0.0944 -0.1306
43183SOL    HW134679   0.385   2.957   2.325 -0.1162  0.8137  1.5892
43183SOL    HW234680   0.461   2.864   2.417 -0.2319 -2.6434 -1.6846
43184SOL     OW34681   5.805   1.771   7.123 -0.3378  0.9819  0.2983
43184SOL    HW134682   5.737   1.807   7.068 -0.6054 -1.8584 -1.3103
43184SOL    HW234683   5.887   1.807   7.088 -0.6958  1.0630 -0.4445
43185SOL     OW34684  11.324   8.271  10.718  0.0529  0.0553 -0.0398
43185SOL    HW134685  11.233   8.248  10.701 -0.0707  0.9698 -0.6150
43185SOL    HW234686  11.375   8.210  10.664 -0.2521  0.5580 -0.9026
43186SOL     OW34687   9.919   7.214   0.932  0.4146 -0.0115 -0.1838
43186SOL    HW134688   9.969   7.142   0.970  1.1205  0.4760 -0.1818
43186SOL    HW234689   9.829   7.198   0.961  0.8982  0.2061  1.4695
43187SOL     OW34690   6.756   0.041   9.512  0.3375 -0.1953 -0.6636
43187SOL    HW134691   6.689  -0.003   9.565 -0.7267 -1.1629 -2.7601
43187SOL    HW234692   6.832  -0.017   9.518  1.0370  0.8991  1.7145
43188SOL     OW34693   4.807   0.203  10.866  0.1802  0.6042 -0.0183
43188SOL    HW134694   4.776   0.293  10.880 -2.3445 -0.4469  1.6221
43188SOL    HW234695   4.734   0.160  10.821 -0.4578 -1.7289  3.0864
43189SOL     OW34696   1.754   3.904   4.028  0.0627 -0.1543  0.9132
43189SOL    HW134697   1.820   3.937   4.089  0.8778  0.3127 -0.1942
43189SOL    HW234698   1.801   3.841   3.973 -0.4785 -0.0017  0.2651
43190SOL     OW34699   6.286  10.590   4.325  0.5043  0.1507  0.0040
43190SOL    HW134700   6.370  10.596   4.282 -0.0554  0.5417 -1.0407
43190SOL    HW234701   6.221  10.603   4.256 -0.4231 -0.3630  0.7450
43191SOL     OW34702   9.241   2.960   6.409  0.4140 -0.4331  0.2750
43191SOL    HW134703   9.236   2.903   6.486 -0.4323 -0.1225  0.4533
43191SOL    HW234704   9.322   2.933   6.366  0.3946 -1.2863  0.7409
43192SOL     OW34705   0.174   2.401   1.660  0.0615  0.4211  0.5847
43192SOL    HW134706   0.120   2.413   1.738  0.1807  0.2002  0.6989
43192SOL    HW234707   0.148   2.317   1.624  1.2540 -0.2912  1.3668
43193SOL     OW34708   9.779   9.616   4.097  0.3598 -0.5484  0.0123
43193SOL    HW134709   9.819   9.545   4.147 -1.1470 -0.9185  0.7181
43193SOL    HW234710   9.715   9.573   4.041 -0.4663  0.2473  0.3387
43194SOL     OW34711   2.924   6.871   6.146 -0.3688  0.3411  0.2582
43194SOL    HW134712   2.892   6.843   6.231 -1.1570  1.3525  0.2981
43194SOL    HW234713   2.927   6.966   6.151  2.9483  0.2974  0.3622
43195SOL     OW34714   8.093   9.961   2.847 -0.2795 -0.7098 -0.2194
43195SOL    HW134715   8.137   9.982   2.765  0.7073 -1.1455  0.1931
43195SOL    HW234716   8.001   9.978   2.830  0.0597  0.2785 -1.0678
43196SOL     OW34717   9.884   9.157   8.449 -0.0533  0.3150  0.4399
43196SOL    HW134718   9.860   9.228   8.509  0.6161  0.6590  0.3103
43196SOL    HW234719   9.978   9.147   8.461  0.0827  0.3744 -0.5410
43197SOL     OW34720   0.717   9.058   0.703 -0.1634 -0.2665  0.6270
43197SOL    HW134721   0.717   8.963   0.689 -0.3193 -0.2242  0.3262
43197SOL    HW234722   0.641   9.090   0.654 -0.3657 -0.0362  1.0927
43198SOL     OW34723   7.762  10.171   9.828 -0.3449  0.1001 -0.0453
43198SOL    HW134724   7.848  10.149   9.791 -0.2189  0.0110  0.2970
43198SOL    HW234725   7.730  10.243   9.774 -1.3249 -1.7345 -1.9963
43199SOL     OW34726   7.069   2.904   2.706 -0.8793  0.1063  0.4458
43199SOL    HW134727   6.983   2.870   2.679 -0.2861 -0.5478 -0.6559
43199SOL    HW234728   7.095   2.848   2.779  0.1153 -1.8871 -1.3946
43200SOL     OW34729   9.934   0.542   4.373 -0.0342 -0.6131  0.1347
43200SOL    HW134730   9.887   0.602   4.315  1.5344  1.6048  1.0898
43200SOL    HW234731  10.019   0.528   4.331  1.0619  0.9020  1.7912
43201SOL     OW34732  10.613   0.259   2.047  0.1465  0.2152 -0.1909
43201SOL    HW134733  10.593   0.352   2.044  1.5867  0.5255 -0.5588
43201SOL    HW234734  10.577   0.223   1.966 -0.3699  0.4430 -0.0669
43202SOL     OW34735   1.859   3.171  10.344 -0.0012 -0.6995  0.5320
43202SOL    HW134736   1.818   3.162  10.258 -1.6567 -0.1573  1.2348
43202SOL    HW234737   1.928   3.235  10.332 -2.2690  1.7655  0.2581
43203SOL     OW34738   8.821   1.733   6.232  0.5761  0.3638 -0.5464
43203SOL    HW134739   8.744   1.787   6.215  1.8214  2.0688 -0.9709
43203SOL    HW234740   8.802   1.688   6.314 -1.6614 -0.7561 -1.6252
43204SOL     OW34741   7.358   3.150   3.098  0.2216 -0.1129  0.1968
43204SOL    HW134742   7.427   3.144   3.163 -0.7353 -0.3274  1.2168
43204SOL    HW234743   7.372   3.075   3.041  2.0361  0.9813 -0.8260
43205SOL     OW34744  10.000   3.652   2.164 -0.1371 -0.3549 -0.3994
43205SOL    HW134745  10.077   3.596   2.160  0.0220 -0.0689 -1.8107
43205SOL    HW234746   9.926   3.592   2.166  0.0861 -0.6222 -0.1976
43206SOL     OW34747   8.681   4.747   5.903  0.3395 -0.5240  0.9736
43206SOL    HW134748   8.644   4.661   5.921  0.7739 -0.8540  0.3363
43206SOL    HW234749   8.622   4.808   5.946 -2.3148 -0.8718 -1.9756
43207SOL     OW34750   6.230   8.483   1.627  0.1346 -0.2100  0.1052
43207SOL    HW134751   6.160   8.507   1.688 -0.0872 -0.5531 -0.0164
43207SOL    HW234752   6.305   8.533   1.657 -0.3713  0.7708 -0.2277
43208SOL     OW34753   9.601   2.400   3.133 -0.8194  0.3397  0.1652
43208SOL    HW134754   9.608   2.412   3.039 -0.9081  0.4601  0.1729
43208SOL    HW234755   9.598   2.305   3.145 -0.7511  0.3232  0.0517
43209SOL     OW34756   1.540   9.800   3.930 -0.0983 -0.0328 -0.2249
43209SOL    HW134757   1.590   9.780   3.851 -0.5926  2.8258 -1.3361
43209SOL    HW234758   1.467   9.739   3.928  0.4741 -0.6993 -1.4194
43210SOL     OW34759   8.069   7.420   5.130  0.1634 -0.1075 -0.1567
43210SOL    HW134760   7.997   7.482   5.140 -0.3359 -0.4563 -1.4669
43210SOL    HW234761   8.027   7.334   5.125  0.7693 -0.4498  0.4208
43211SOL     OW34762   0.091  10.259   0.914 -0.4194 -0.2690  0.3834
43211SOL    HW134763   0.150  10.209   0.858  0.9398  1.0551  0.6034
43211SOL    HW234764   0.134  10.344   0.924 -1.5178  0.1139  1.9876
43212SOL     OW34765   4.399   1.885   4.160 -0.4425 -0.0459 -0.2352
43212SOL    HW134766   4.397   1.848   4.248  1.2646  1.5026  0.4713
43212SOL    HW234767   4.325   1.946   4.158  0.2345  0.8097  0.5346
43213SOL     OW34768   5.253   0.916   7.441  0.1042 -1.1788 -0.1073
43213SOL    HW134769   5.215   0.830   7.422  0.9026 -1.6037  0.2398
43213SOL    HW234770   5.199   0.977   7.390  0.1376 -1.9760 -1.1223
43214SOL     OW34771   5.402   9.096   9.873 -0.1729 -0.1904 -0.1409
43214SOL    HW134772   5.401   9.101   9.968 -0.7538 -0.9251 -0.0990
43214SOL    HW234773   5.404   9.002   9.854 -0.4908 -0.0589 -0.8517
43215SOL     OW34774   2.773   0.538  11.009 -0.1243  0.3769 -0.1782
43215SOL    HW134775   2.745   0.509  11.096 -1.1253 -1.5027 -1.1072
43215SOL    HW234776   2.819   0.462  10.972 -0.2766  0.9490 -1.5525
43216SOL     OW34777   4.869   4.971   1.240 -0.2119  0.4357 -0.1189
43216SOL    HW134778   4.826   4.956   1.156  0.7840  0.0204 -0.5624
43216SOL    HW234779   4.840   4.898   1.295  1.5940 -1.0435 -1.0808
43217SOL     OW34780   3.249   5.546   3.215  0.2155 -0.3706  0.4950
43217SOL    HW134781   3.255   5.555   3.120 -1.2947 -0.4545  0.3721
43217SOL    HW234782   3.155   5.556   3.234  0.7585  2.0112  2.2064
43218SOL     OW34783   4.593   8.602   3.360 -0.2856  0.5442 -0.4231
43218SOL    HW134784   4.621   8.588   3.450 -0.3204 -0.3782 -0.5565
43218SOL    HW234785   4.578   8.514   3.325  2.5540  0.7222 -2.2397
43219SOL     OW34786   2.879   0.224   1.522 -0.3715 -0.3764  0.3220
43219SOL    HW134787   2.791   0.244   1.491 -0.2833  0.2287  0.4550
43219SOL    HW234788   2.932   0.219   1.443  0.1250  2.4940  0.4324
43220SOL     OW34789   6.783   1.025   4.078 -0.0952  0.0726  0.2006
43220SOL    HW134790   6.821   1.096   4.025  1.5414  0.1661  1.4616
43220SOL    HW234791   6.797   0.946   4.026 -1.3548  0.5691 -0.9263
43221SOL     OW34792   6.003  11.329   2.347 -0.1253 -0.1226  0.4933
43221SOL    HW134793   5.919  11.322   2.393 -1.2112 -0.1077 -1.4522
43221SOL    HW234794   6.068  11.302   2.412 -1.7120 -1.0048  1.7547
43222SOL     OW34795   3.214   2.116   5.650  0.6023 -0.1374 -0.6050
43222SOL    HW134796   3.196   2.023   5.642  0.3236  0.0876 -3.1604
43222SOL    HW234797   3.127   2.157   5.653  0.7228  0.0452  0.3545
43223SOL     OW34798   1.607   3.145   8.372 -1.0501  0.4298  0.0635
43223SOL    HW134799   1.635   3.085   8.442  0.0628  0.4698 -0.3413
43223SOL    HW234800   1.513   3.130   8.364 -1.3578  1.0568  2.1716
43224SOL     OW34801   7.559   8.936   8.777  0.0458  0.2099 -0.1751
43224SOL    HW134802   7.559   8.983   8.694  1.4122  0.1793 -0.2026
43224SOL    HW234803   7.533   8.847   8.754  0.5560  0.1681 -0.5957
43225SOL     OW34804   2.359   0.854   5.254 -0.5804 -0.0311 -0.0855
43225SOL    HW134805   2.416   0.834   5.328 -1.0740 -0.6782  0.1312
43225SOL    HW234806   2.296   0.781   5.252 -2.1631  1.2932  0.4552
43226SOL     OW34807   9.818   0.037   2.122 -0.3669  0.4878 -0.1662
43226SOL    HW134808   9.839   0.049   2.215  1.1692 -3.8324  0.1583
43226SOL    HW234809   9.730   0.000   2.121 -0.2319  0.1643 -0.3873
43227SOL     OW34810   5.401   5.750   3.136 -0.2836  0.2259  0.2502
43227SOL    HW134811   5.430   5.733   3.225  0.3418 -1.8430 -0.3274
43227SOL    HW234812   5.439   5.679   3.084 -2.9504 -0.2112 -1.2015
43228SOL     OW34813   7.008  10.998   6.370  0.4156  0.0193  0.1532
43228SOL    HW134814   7.078  11.046   6.413  0.6470 -0.3608  0.2005
43228SOL    HW234815   7.051  10.922   6.330  0.2311  0.4726 -0.9160
43229SOL     OW34816   9.511   2.385   0.944  0.3578 -0.5621  0.6897
43229SOL    HW134817   9.549   2.345   0.866 -0.5140 -0.0431 -0.0200
43229SOL    HW234818   9.517   2.318   1.012 -1.0954 -1.9073 -0.4750
43230SOL     OW34819   8.328   6.432   7.230 -0.4595  0.0318 -0.8224
43230SOL    HW134820   8.302   6.488   7.303  1.0704 -2.8787  2.0830
43230SOL    HW234821   8.418   6.460   7.210 -0.2840 -0.2952 -0.4835
43231SOL     OW34822   6.890   0.837  10.472 -0.5417  0.4467  0.1507
43231SOL    HW134823   6.838   0.852  10.392  0.3259  0.7930 -0.3514
43231SOL    HW234824   6.980   0.831  10.441  0.0405  2.6104  1.3205
43232SOL     OW34825   2.640   6.915   4.794 -0.3066  0.5450  0.0104
43232SOL    HW134826   2.634   6.833   4.843  1.1417 -0.2048 -1.0283
43232SOL    HW234827   2.642   6.983   4.861  1.3409 -0.4308  0.9952
43233SOL     OW34828   6.240   2.062   1.879  0.0548  0.1423  0.2626
43233SOL    HW134829   6.254   1.969   1.895  0.6656 -0.1022 -1.5831
43233SOL    HW234830   6.316   2.106   1.918  0.1560 -0.1880  0.4343
43234SOL     OW34831   8.222   3.498   9.658 -0.5654 -0.1665  0.0640
43234SOL    HW134832   8.213   3.593   9.652 -0.0380 -0.2733 -3.2213
43234SOL    HW234833   8.313   3.485   9.685 -0.3014  0.2348 -0.6278
43235SOL     OW34834   1.955   9.566   0.541  0.4783 -0.2210  0.3725
43235SOL    HW134835   1.982   9.566   0.449 -0.2989  0.7329  0.1406
43235SOL    HW234836   1.860   9.580   0.538  0.2707 -1.3305  1.2705
43236SOL     OW34837   4.731   9.297  10.000  0.0539  0.2832  0.5393
43236SOL    HW134838   4.788   9.326  10.071 -0.0483 -0.0620  0.7665
43236SOL    HW234839   4.681   9.224  10.038  0.7468 -0.5941 -0.2093
43237SOL     OW34840  10.953   2.481   8.525  0.0603 -0.0961  0.2576
43237SOL    HW134841  10.993   2.400   8.557  1.3063 -0.1405 -1.3612
43237SOL    HW234842  10.950   2.471   8.430  0.1028  1.7083  0.0406
43238SOL     OW34843   1.323   6.787   6.793  0.1422  0.1687 -0.0249
43238SOL    HW134844   1.312   6.865   6.739  0.2291 -0.0917 -0.4142
43238SOL    HW234845   1.311   6.819   6.883  1.0097  0.7809 -0.1229
43239SOL     OW34846   8.307   6.725   8.662  0.2629 -0.1623 -0.4002
43239SOL    HW134847   8.256   6.693   8.737  1.1386 -0.1769  0.1953
43239SOL    HW234848   8.286   6.664   8.592  1.3812 -1.6571  0.5388
43240SOL     OW34849   3.139  10.601   0.644 -0.1095 -0.3015 -0.5876
43240SOL    HW134850   3.050  10.617   0.612 -0.5894  0.3791  1.0211
43240SOL    HW234851   3.155  10.509   0.624 -2.6731 -1.5268  2.5169
43241SOL     OW34852   5.594   2.063   5.909  0.0770  0.5386  0.5696
43241SOL    HW134853   5.525   2.008   5.947 -0.0658 -0.4823 -1.0893
43241SOL    HW234854   5.574   2.064   5.815  2.4260  0.0621  0.0315
43242SOL     OW34855   4.529   5.744   9.215 -0.2901 -0.3650 -0.2122
43242SOL    HW134856   4.531   5.839   9.211  0.7295 -0.4121 -1.1203
43242SOL    HW234857   4.456   5.719   9.158 -1.3959 -0.0872  1.0689
43243SOL     OW34858  10.467   9.982   7.508 -0.1950  0.5890  0.3577
43243SOL    HW134859  10.449  10.046   7.439 -0.6161  0.1852  0.0909
43243SOL    HW234860  10.393   9.922   7.505 -0.2292  0.5751  1.1765
43244SOL     OW34861   1.547   8.793   0.821 -0.0608  0.8067  0.6394
43244SOL    HW134862   1.452   8.803   0.813 -0.1470  0.5231  1.2505
43244SOL    HW234863   1.583   8.867   0.773 -0.5505 -0.2810 -1.4611
43245SOL     OW34864  10.444   5.169  10.578  0.3435 -0.8870  0.0850
43245SOL    HW134865  10.529   5.131  10.598  0.6365  1.1483  3.1403
43245SOL    HW234866  10.387   5.138  10.649 -0.7969 -0.1226 -0.4855
43246SOL     OW34867   6.636   3.246   3.011  0.7099 -0.5174  0.1485
43246SOL    HW134868   6.688   3.220   2.935 -0.7640 -0.2268 -0.9899
43246SOL    HW234869   6.578   3.172   3.026  0.8177 -0.4629  0.8272
43247SOL     OW34870   9.478   1.704   1.100 -0.0119  0.3001 -0.0880
43247SOL    HW134871   9.419   1.744   1.036 -0.0671 -0.7753 -0.7223
43247SOL    HW234872   9.420   1.665   1.166  0.0247  0.7097  0.1834
43248SOL     OW34873   1.517   1.245   3.934  0.1835 -0.0003  0.0354
43248SOL    HW134874   1.509   1.340   3.931  0.5032  0.0021 -1.5083
43248SOL    HW234875   1.600   1.226   3.889 -1.4189 -1.1720 -2.5517
43249SOL     OW34876   4.785   0.101   3.072  0.4773 -0.2631 -0.1351
43249SOL    HW134877   4.718   0.091   3.139  0.4115  1.9820  0.1812
43249SOL    HW234878   4.737   0.107   2.990 -0.0565  4.5682  0.3778
43250SOL     OW34879   6.298   1.088   7.937 -0.1705  0.3928 -0.6651
43250SOL    HW134880   6.290   1.147   7.862 -0.7779  1.3069  0.1075
43250SOL    HW234881   6.363   1.130   7.993  1.5165 -1.1161 -1.4228
43251SOL     OW34882   4.336   0.876  11.254 -0.0672 -0.8682 -0.0396
43251SOL    HW134883   4.321   0.863  11.160 -1.2152  1.4437 -0.2137
43251SOL    HW234884   4.255   0.915  11.286  0.9680  0.0318  1.5644
43252SOL     OW34885   9.161   0.340  10.049 -0.0807 -0.0912  0.0834
43252SOL    HW134886   9.154   0.433  10.025  0.3579 -0.9083 -3.4561
43252SOL    HW234887   9.092   0.297   9.999  0.7074 -1.8887  0.4934
43253SOL     OW34888  11.170   8.339   6.380 -0.2669 -0.3138  0.1819
43253SOL    HW134889  11.095   8.298   6.336 -0.7594  2.3116 -1.6092
43253SOL    HW234890  11.134   8.372   6.462 -0.4889 -1.1877  0.4383
43254SOL     OW34891   0.395   3.156   0.540  0.3245 -0.1954  0.6960
43254SOL    HW134892   0.429   3.067   0.548  0.6743  0.0295  1.9256
43254SOL    HW234893   0.360   3.176   0.627 -2.2756 -0.1333 -0.3348
43255SOL     OW34894   4.268   1.741  11.329  0.0195 -0.8385 -0.2312
43255SOL    HW134895   4.347   1.768  11.375 -0.0277 -3.2535  1.4135
43255SOL    HW234896   4.203   1.732  11.399 -1.4503  0.1580 -1.4424
43256SOL     OW34897   4.810   9.842   2.344  0.0357 -0.3026 -0.4064
43256SOL    HW134898   4.851   9.912   2.394  0.7318 -0.3145 -0.9453
43256SOL    HW234899   4.721   9.872   2.326  0.4035  0.5359 -0.8248
43257SOL     OW34900   6.379   2.036   5.220 -0.4895 -0.4148 -0.3521
43257SOL    HW134901   6.330   2.012   5.299 -1.8621  1.5418 -0.5837
43257SOL    HW234902   6.354   1.969   5.156 -0.0186 -1.5226  0.5895
43258SOL     OW34903   7.601  10.023   9.349 -0.2581 -0.4112  0.2884
43258SOL    HW134904   7.609   9.999   9.442  0.2579  0.6157  0.5205
43258SOL    HW234905   7.648   9.954   9.303  0.0232 -0.5994  0.8440
43259SOL     OW34906   4.713   4.220   6.933  0.8648 -0.3532 -0.6226
43259SOL    HW134907   4.661   4.139   6.933  2.7844 -1.6281 -1.9702
43259SOL    HW234908   4.796   4.195   6.973  0.6313  1.5790  1.1718
43260SOL     OW34909   3.030   2.670   1.703  0.9471 -0.0693  0.1795
43260SOL    HW134910   3.028   2.762   1.730  0.6604  0.1685 -0.6311
43260SOL    HW234911   2.947   2.634   1.734  1.2414 -0.1625  0.8630
43261SOL     OW34912   2.347   7.992   5.936 -0.8575 -0.2134  0.0694
43261SOL    HW134913   2.319   7.934   6.006  0.9346 -1.0110  0.1637
43261SOL    HW234914   2.376   8.072   5.980 -2.7741  0.5652 -0.0208
43262SOL     OW34915   8.042  11.038   7.702  0.0763  0.1282  0.4734
43262SOL    HW134916   8.005  11.104   7.643  0.7996 -0.2126 -0.3744
43262SOL    HW234917   7.967  10.982   7.724 -0.2467  0.3827  0.0460
43263SOL     OW34918  10.187   0.485  10.089 -0.1076  0.1584  0.0936
43263SOL    HW134919  10.099   0.449  10.101 -0.6984  1.4754 -0.1969
43263SOL    HW234920  10.188   0.519  10.000  0.7956 -0.0974 -0.0037
43264SOL     OW34921   6.299   8.586   0.915  0.4913 -0.0788  0.0045
43264SOL    HW134922   6.389   8.606   0.889  0.6943 -1.3783 -0.3270
43264SOL    HW234923   6.308   8.539   0.998  0.0527  0.8052  0.5511
43265SOL     OW34924  10.057   6.095  11.316  0.4138  0.1686 -0.0764
43265SOL    HW134925  10.060   6.191  11.310  1.0875  0.2872  1.9242
43265SOL    HW234926  10.052   6.077  11.409  1.4576 -1.7997 -0.3849
43266SOL     OW34927   2.275   3.793   3.886  0.1010  0.0445  0.2789
43266SOL    HW134928   2.272   3.885   3.858  1.8625  0.1747  0.4717
43266SOL    HW234929   2.221   3.747   3.822 -1.0340  1.2578  0.3446
43267SOL     OW34930   2.078   1.608   4.376 -0.1559 -0.5683 -0.0259
43267SOL    HW134931   2.147   1.604   4.310 -1.2025 -1.5251 -1.0884
43267SOL    HW234932   1.997   1.617   4.326 -0.7922  0.7286  1.2204
43268SOL     OW34933   1.680  10.714   9.626 -0.1640  0.1938  0.6180
43268SOL    HW134934   1.620  10.648   9.593  0.5080  0.9905 -2.3675
43268SOL    HW234935   1.765  10.691   9.587  0.2613  2.2668  0.2706
43269SOL     OW34936   6.438   1.022   3.913 -0.1568  0.4406  0.5132
43269SOL    HW134937   6.383   1.075   3.970 -1.0012  1.2416 -1.0369
43269SOL    HW234938   6.503   1.083   3.879  0.2692 -0.0118  0.5119
43270SOL     OW34939   2.620  10.439   1.666 -0.3217 -0.0477 -0.2980
43270SOL    HW134940   2.559  10.513   1.668 -1.6989 -1.1722  0.2789
43270SOL    HW234941   2.704  10.476   1.695 -1.4134  0.9227  1.7058
43271SOL     OW34942   2.110   9.865   1.966 -0.2049 -0.0417  0.3545
43271SOL    HW134943   2.117   9.897   2.056 -1.9760 -0.0814  0.5276
43271SOL    HW234944   2.132   9.772   1.971 -2.4175 -0.5638  1.1496
43272SOL     OW34945   3.223   2.703   0.394  0.0458  0.1481 -0.2564
43272SOL    HW134946   3.193   2.794   0.383 -1.8685 -0.3469  0.6962
43272SOL    HW234947   3.183   2.656   0.321 -0.4093 -0.2533  0.2481
43273SOL     OW34948   5.242   3.144   5.432  0.2215  0.0325 -0.2846
43273SOL    HW134949   5.244   3.130   5.338 -0.2738  0.4927 -0.3688
43273SOL    HW234950   5.305   3.082   5.467  1.9138  1.2508 -1.1015
43274SOL     OW34951   0.837  11.062   8.452 -0.0791 -0.2580  0.7459
43274SOL    HW134952   0.757  11.057   8.503 -1.5349 -0.6751 -1.5048
43274SOL    HW234953   0.847  11.156   8.432 -0.7638 -0.3583 -0.1027
43275SOL     OW34954   8.931   6.023   9.902  0.7564  0.3856 -0.3587
43275SOL    HW134955   8.872   5.973   9.958  1.8756  0.1998  0.6550
43275SOL    HW234956   8.906   5.998   9.813  1.7880 -2.5643  0.1346
43276SOL     OW34957   9.639   0.466   4.025 -0.7314  0.4714  0.1908
43276SOL    HW134958   9.617   0.459   4.118 -1.7892  0.4986 -0.0609
43276SOL    HW234959   9.575   0.527   3.989 -0.1071  0.7368 -0.4897
43277SOL     OW34960   1.007   7.894   2.285  0.2679  0.0106 -0.2755
43277SOL    HW134961   0.980   7.974   2.328  2.0069 -0.5561  1.9632
43277SOL    HW234962   1.098   7.909   2.260  0.4706 -1.0796 -0.2467
43278SOL     OW34963   3.812   1.438   2.191  0.2267 -0.4923  0.4328
43278SOL    HW134964   3.828   1.454   2.284  0.4105 -1.3932  0.5621
43278SOL    HW234965   3.845   1.517   2.147  0.1815 -0.0844  1.1238
43279SOL     OW34966   4.848   9.282   5.948  0.3085  0.1995 -0.0130
43279SOL    HW134967   4.909   9.347   5.982  3.0500 -3.1459  1.8036
43279SOL    HW234968   4.774   9.284   6.010  0.3821  1.5098  0.0469
43280SOL     OW34969   9.585  10.605   0.815 -0.3968  0.2074  0.2497
43280SOL    HW134970   9.551  10.524   0.852 -2.3926  0.7112 -0.4504
43280SOL    HW234971   9.679  10.588   0.803 -0.9510 -2.3153 -0.7493
43281SOL     OW34972   4.728   4.300  11.294 -0.4332 -0.1462  0.0550
43281SOL    HW134973   4.672   4.273  11.366 -0.0399  0.9246  0.7695
43281SOL    HW234974   4.815   4.307  11.332 -0.2170  0.3882 -0.5300
43282SOL     OW34975   2.249   2.990   0.560 -0.2197 -0.0431 -0.7567
43282SOL    HW134976   2.187   3.057   0.587  0.3204  0.5244 -0.8993
43282SOL    HW234977   2.335   3.033   0.566  0.1261 -0.7047 -0.8916
43283SOL     OW34978   8.418   8.271  11.069  0.0791 -0.1295  0.0472
43283SOL    HW134979   8.472   8.259  10.991  0.2914 -0.0002  0.1715
43283SOL    HW234980   8.472   8.238  11.141  0.4973  1.1298  0.3318
43284SOL     OW34981   8.164   4.888  10.730 -0.2511  0.2087 -0.0252
43284SOL    HW134982   8.127   4.815  10.680  0.5231 -1.0069  1.1494
43284SOL    HW234983   8.258   4.882  10.716 -0.0454 -0.0335  1.4241
43285SOL     OW34984   3.541   7.511  10.516  0.4035  0.1375  0.5568
43285SOL    HW134985   3.630   7.517  10.551  0.1824  0.2217  1.1143
43285SOL    HW234986   3.508   7.601  10.517 -0.2388 -0.1014  1.8254
43286SOL     OW34987   4.331   1.967   9.073 -0.0333  0.0040  0.7031
43286SOL    HW134988   4.356   1.988   9.163 -1.7765  1.2719  0.9178
43286SOL    HW234989   4.273   1.891   9.081  0.3658 -0.3162  0.5803
43287SOL     OW34990   1.584   9.067   8.423  0.1843  1.1175 -0.3113
43287SOL    HW134991   1.556   9.132   8.488  0.0172  0.2848  0.4590
43287SOL    HW234992   1.680   9.076   8.421  0.1877  1.1543  0.0280
43288SOL     OW34993   7.980   9.107   0.129  0.3490 -0.2180  0.9988
43288SOL    HW134994   7.899   9.099   0.078  1.3203 -4.5277 -0.0546
43288SOL    HW234995   7.952   9.093   0.220 -0.3148 -0.1585  0.8046
43289SOL     OW34996   6.220   7.463   1.447  0.4712 -0.1456  1.0118
43289SOL    HW134997   6.245   7.554   1.461 -1.7549  0.2177  2.8921
43289SOL    HW234998   6.258   7.416   1.521  2.7367 -1.0257 -0.6381
43290SOL     OW34999   0.321   9.914   3.795 -0.8707  0.1797  0.5827
43290SOL    HW135000   0.308   9.821   3.817  1.0075  0.0100  1.0679
43290SOL    HW235001   0.416   9.925   3.792 -1.0592  1.5101 -2.0811
43291SOL     OW35002   5.675  11.313   9.064  0.0092  0.0743 -0.6344
43291SOL    HW135003   5.586  11.346   9.049  0.5338  1.9243  0.2457
43291SOL    HW235004   5.675  11.288   9.156 -0.5093 -2.8908 -1.3747
43292SOL     OW35005   5.320   2.922   1.741 -0.1498 -0.2039  0.3485
43292SOL    HW135006   5.269   2.853   1.783  0.2462 -0.9122 -0.3288
43292SOL    HW235007   5.407   2.914   1.780  0.1078 -0.6011 -0.2920
43293SOL     OW35008  10.674   3.073   9.601 -0.1130 -0.2678 -0.2635
43293SOL    HW135009  10.647   3.141   9.539 -2.1246  0.1811  1.0643
43293SOL    HW235010  10.593   3.045   9.643  1.1742 -0.8289  1.9202
43294SOL     OW35011   0.252   1.900   8.710 -0.2001  0.1385 -0.6258
43294SOL    HW135012   0.232   1.919   8.802 -1.0267  3.5588 -1.4547
43294SOL    HW235013   0.346   1.915   8.702  0.4067 -2.8314  0.2120
43295SOL     OW35014   6.209   2.464  10.244 -0.0383  0.6708  0.1508
43295SOL    HW135015   6.181   2.554  10.227 -3.2753  0.0712  1.8534
43295SOL    HW235016   6.213   2.458  10.340  0.4441 -0.8884  0.0403
43296SOL     OW35017   4.009   6.933   1.525  0.1611  0.1798  0.4865
43296SOL    HW135018   3.981   7.006   1.470  1.1673  0.1341 -0.0876
43296SOL    HW235019   3.937   6.921   1.587  0.7704  2.8569  1.7784
43297SOL     OW35020   8.639   9.118   4.014  0.0703  0.4260  0.0129
43297SOL    HW135021   8.645   9.164   4.097 -0.7992  0.1457  0.2374
43297SOL    HW235022   8.547   9.126   3.988  0.6697  2.0126 -1.7810
43298SOL     OW35023   1.645   8.810   8.800 -0.2325 -0.2035 -0.1417
43298SOL    HW135024   1.616   8.790   8.711 -1.4313  0.5372  0.0754
43298SOL    HW235025   1.728   8.763   8.809  0.5327  0.7329 -2.0842
43299SOL     OW35026   3.905   0.259   0.572  0.2101 -0.1838 -0.4704
43299SOL    HW135027   3.855   0.340   0.577  0.8057  0.1944 -0.5919
43299SOL    HW235028   3.924   0.237   0.663 -1.0416 -0.8670 -0.3785
43300SOL     OW35029   2.609   9.972   1.189 -0.5001 -0.1037  0.4738
43300SOL    HW135030   2.657   9.913   1.130  0.3594  0.8048  0.2375
43300SOL    HW235031   2.556   9.915   1.243  0.4363 -1.1113  0.3463
43301SOL     OW35032   4.774   0.814   2.427 -0.0141  0.5472  0.1514
43301SOL    HW135033   4.761   0.731   2.382 -1.9038  0.8826  0.0222
43301SOL    HW235034   4.815   0.871   2.362 -0.3899  0.2544 -0.3487
43302SOL     OW35035   0.105   1.733   1.174 -0.0745  0.4968 -0.5922
43302SOL    HW135036   0.035   1.668   1.180  0.0866  0.2610 -1.1854
43302SOL    HW235037   0.186   1.681   1.181  0.0776  0.4972 -2.1206
43303SOL     OW35038   5.592   2.701   2.462 -0.2474 -0.0068 -0.4583
43303SOL    HW135039   5.550   2.622   2.428  1.5604 -1.8617  1.4581
43303SOL    HW235040   5.520   2.761   2.480 -1.6429 -1.1334 -2.1603
43304SOL     OW35041   2.356   1.309   0.606  0.1786 -0.1337  0.3211
43304SOL    HW135042   2.400   1.343   0.683  0.4033 -0.1494  0.2023
43304SOL    HW235043   2.368   1.214   0.612 -0.1244 -0.1643  0.4593
43305SOL     OW35044   1.189   4.018   4.408 -0.2369 -0.4729 -0.5234
43305SOL    HW135045   1.198   3.975   4.323 -1.6363 -0.2314 -0.8135
43305SOL    HW235046   1.118   3.971   4.452  1.6245 -1.7157  1.2378
43306SOL     OW35047  11.017   8.541   9.707 -0.0103  0.3631  0.4387
43306SOL    HW135048  11.023   8.483   9.782 -0.2586 -2.8976 -1.9432
43306SOL    HW235049  11.106   8.573   9.693  1.1241 -3.1505 -0.9288
43307SOL     OW35050   4.657   5.315   4.872 -0.0915 -0.1427  0.1556
43307SOL    HW135051   4.728   5.265   4.830 -0.9651  0.5608 -2.2661
43307SOL    HW235052   4.639   5.386   4.811 -1.9673  0.4749  1.4028
43308SOL     OW35053   8.262   9.002   4.797  0.2968  0.4932 -0.4520
43308SOL    HW135054   8.272   8.958   4.712  2.1012  2.2723 -1.2224
43308SOL    HW235055   8.220   9.085   4.775 -1.0671  0.1158  0.6946
43309SOL     OW35056   5.007   6.729   3.803 -0.1464 -0.3178  0.5420
43309SOL    HW135057   4.928   6.728   3.749 -0.0627 -0.9846  0.4225
43309SOL    HW235058   5.032   6.821   3.808 -0.2395 -0.2396 -0.4269
43310SOL     OW35059   8.609   0.308  11.015  0.7794  0.0899  0.2636
43310SOL    HW135060   8.533   0.282  10.963  0.2045 -0.8015  1.4856
43310SOL    HW235061   8.585   0.393  11.052  0.7709  0.2550 -0.1218
43311SOL     OW35062  10.555  10.727   4.285 -0.0045  0.1145 -0.0373
43311SOL    HW135063  10.614  10.793   4.248  1.4494 -0.0869  1.8276
43311SOL    HW235064  10.490  10.777   4.334  0.1617  0.2514  0.0480
43312SOL     OW35065   9.002  11.055  10.533  0.5003  0.2381  0.5372
43312SOL    HW135066   9.048  11.019  10.457  0.1079 -0.8774  0.8318
43312SOL    HW235067   8.992  10.982  10.593 -0.0384  0.8995  1.2663
43313SOL     OW35068   3.959   9.989   4.628  0.0331  0.2807 -0.3442
43313SOL    HW135069   3.904   9.916   4.658  0.1451  0.6215  0.7392
43313SOL    HW235070   4.044   9.973   4.670  0.3027  0.5980 -0.7612
43314SOL     OW35071   4.972   8.133   4.372 -0.4221 -0.1284 -0.0216
43314SOL    HW135072   4.895   8.163   4.421  0.2258  0.7487  0.4717
43314SOL    HW235073   4.936   8.085   4.298 -1.4122 -1.9251  1.6044
43315SOL     OW35074  10.739  10.838   5.257  0.3869 -0.1645 -0.0965
43315SOL    HW135075  10.707  10.901   5.321 -0.1581 -1.0728  0.5291
43315SOL    HW235076  10.788  10.774   5.309  3.3024  1.1992 -1.0044
43316SOL     OW35077   5.546   5.445   2.259  0.7075 -0.2157 -0.4510
43316SOL    HW135078   5.459   5.414   2.231  0.1097  1.6689 -0.7458
43316SOL    HW235079   5.606   5.379   2.225 -0.6138 -1.6074 -0.1647
43317SOL     OW35080  10.926   3.279   0.829 -0.1098  0.6459  0.2878
43317SOL    HW135081  10.862   3.232   0.883  0.5177  0.8068  1.1744
43317SOL    HW235082  11.011   3.253   0.863  0.2582  2.2682  0.6816
43318SOL     OW35083   5.546  10.536   3.769 -0.3077 -0.4506 -0.5998
43318SOL    HW135084   5.516  10.602   3.706 -0.0390  0.0301 -0.2242
43318SOL    HW235085   5.634  10.514   3.740  0.3903  0.8469  0.4468
43319SOL     OW35086   1.554  11.191  10.456 -0.2570  0.3009  0.4138
43319SOL    HW135087   1.575  11.198  10.362  1.7060  0.6366  0.8509
43319SOL    HW235088   1.528  11.099  10.468 -1.4097  0.4745 -0.6135
43320SOL     OW35089  11.113   8.475   2.263  0.0714 -0.4840  0.0773
43320SOL    HW135090  11.094   8.389   2.225  0.3572 -0.6066  0.2093
43320SOL    HW235091  11.156   8.524   2.193  0.6415 -0.7256  0.2554
43321SOL     OW35092   4.145   0.287   2.128  0.2700  0.7168 -0.1763
43321SOL    HW135093   4.180   0.369   2.164  2.2306 -2.0242  4.6570
43321SOL    HW235094   4.060   0.276   2.170  0.8506 -0.5894  0.7129
43322SOL     OW35095   5.767   9.399  10.118  0.0218 -0.2762 -0.7984
43322SOL    HW135096   5.852   9.384  10.077  1.6786  2.5025  1.4671
43322SOL    HW235097   5.782   9.470  10.180 -3.8927  0.0352 -0.0726
43323SOL     OW35098   4.699   1.539   3.154  0.6965 -0.4571  0.1799
43323SOL    HW135099   4.716   1.563   3.062 -2.1518  0.5645 -0.1325
43323SOL    HW235100   4.744   1.607   3.205  0.4898  0.2115 -0.5124
43324SOL     OW35101   2.439   6.234   5.026 -0.5566  0.1759 -0.0697
43324SOL    HW135102   2.498   6.305   5.002  0.3870 -0.1848  1.1612
43324SOL    HW235103   2.462   6.213   5.116 -1.3053 -1.2237 -0.1945
43325SOL     OW35104   2.985   1.310   0.638 -0.3264  0.4963  0.1455
43325SOL    HW135105   3.049   1.242   0.659  0.8432  1.2279 -0.9448
43325SOL    HW235106   2.920   1.267   0.582 -0.7037 -0.2094  1.1154
43326SOL     OW35107   4.402   5.314   9.308 -0.1478 -0.0400  0.7108
43326SOL    HW135108   4.449   5.233   9.331 -1.6136 -1.3333 -0.7530
43326SOL    HW235109   4.416   5.324   9.214 -0.1054  1.3476  0.8573
43327SOL     OW35110  10.814   2.498   9.451 -0.4425  0.2416 -0.1156
43327SOL    HW135111  10.767   2.548   9.519  0.0951 -0.9540  1.1623
43327SOL    HW235112  10.899   2.542   9.444  0.4060 -1.0398  1.7155
43328SOL     OW35113  10.009   5.471   6.551 -0.1844 -1.1213  0.2400
43328SOL    HW135114   9.981   5.562   6.541  1.1719 -0.8241 -1.0389
43328SOL    HW235115   9.995   5.451   6.643 -1.1555  0.1534  0.3779
43329SOL     OW35116   8.788   4.458   2.795  0.1644 -0.0752 -0.1136
43329SOL    HW135117   8.836   4.401   2.856  0.9538 -1.4888 -2.0229
43329SOL    HW235118   8.793   4.544   2.836  2.5267 -0.5824  0.8091
43330SOL     OW35119   8.324   9.311   5.266  0.0811  0.4936 -0.3478
43330SOL    HW135120   8.363   9.308   5.354  1.0812  1.3976 -0.7503
43330SOL    HW235121   8.356   9.232   5.223  1.0574  0.9533 -0.4904
43331SOL     OW35122   2.398   1.861   4.244  0.4753  0.4335 -0.1387
43331SOL    HW135123   2.391   1.933   4.307 -1.8129 -0.8245  1.1337
43331SOL    HW235124   2.446   1.793   4.291  0.5365  0.2375 -0.4867
43332SOL     OW35125   0.521   2.918   1.251  0.4387 -0.2214  0.2647
43332SOL    HW135126   0.554   2.955   1.169 -0.5633 -0.7715 -0.4024
43332SOL    HW235127   0.483   2.834   1.226 -2.7347  1.0055  0.7045
43333SOL     OW35128  11.064   0.443   4.371 -0.0451 -0.1410  0.3995
43333SOL    HW135129  11.131   0.403   4.315  0.2928  0.8359  0.0948
43333SOL    HW235130  11.113   0.501   4.429 -0.5378 -0.1069  0.7826
43334SOL     OW35131   8.956   8.513   1.176 -0.1676  0.5544 -0.4504
43334SOL    HW135132   8.978   8.573   1.247  2.6947 -0.6747 -0.2100
43334SOL    HW235133   8.881   8.463   1.209 -0.3299  1.5600  0.7472
43335SOL     OW35134  11.052  11.076  10.152 -0.0126  0.1798  0.1112
43335SOL    HW135135  11.034  11.002  10.094 -1.0892  0.7931 -0.3440
43335SOL    HW235136  10.984  11.071  10.219  0.2149  0.4647  0.3630
43336SOL     OW35137   9.459   4.734   0.795 -0.0961 -0.0771  0.0814
43336SOL    HW135138   9.513   4.701   0.866  0.2868  0.3572 -0.0036
43336SOL    HW235139   9.369   4.732   0.830 -0.2810 -2.5284 -0.4167
43337SOL     OW35140   1.844   4.474   2.051  0.4190 -0.7244  0.2639
43337SOL    HW135141   1.915   4.431   2.098  0.4630 -2.6455 -1.4910
43337SOL    HW235142   1.786   4.403   2.024 -0.6615  0.5340 -0.8250
43338SOL     OW35143   3.787   4.175   1.563 -0.0561  0.1803 -0.0949
43338SOL    HW135144   3.694   4.196   1.554 -0.0742 -0.1150 -0.5554
43338SOL    HW235145   3.828   4.260   1.578 -0.6565  0.0920  2.2536
43339SOL     OW35146   0.913   5.093   4.867 -0.1558 -0.4699  0.4590
43339SOL    HW135147   0.989   5.044   4.899  0.3703  0.7300  1.0853
43339SOL    HW235148   0.870   5.033   4.805  0.6494 -1.5859  0.9639
43340SOL     OW35149   1.800   2.034  10.570  0.0307  0.4760  0.4965
43340SOL    HW135150   1.722   2.072  10.529 -1.4710 -0.4488  2.4446
43340SOL    HW235151   1.825   1.963  10.511 -0.7501  0.6144 -0.0091
43341SOL     OW35152   1.027   5.592   1.500  0.5626  0.4361 -0.3572
43341SOL    HW135153   0.976   5.598   1.580  0.8811 -0.8559 -0.0510
43341SOL    HW235154   1.088   5.666   1.505  1.5598 -0.4718  1.2919
43342SOL     OW35155   4.493   4.327   0.192 -0.4132  0.1130 -0.2823
43342SOL    HW135156   4.520   4.390   0.259  1.5024  0.3723 -1.2602
43342SOL    HW235157   4.399   4.315   0.207 -0.6313  2.5070  0.4928
43343SOL     OW35158   0.628   7.077   8.455  0.2612  0.0004 -0.4112
43343SOL    HW135159   0.546   7.080   8.504  0.8966  1.7889  0.5702
43343SOL    HW235160   0.680   7.009   8.498  0.0964  0.3011  0.2610
43344SOL     OW35161   8.709   1.068   9.290  0.0419 -0.2293  0.1669
43344SOL    HW135162   8.737   1.146   9.242 -1.5085 -0.0751 -0.5229
43344SOL    HW235163   8.643   1.100   9.351  1.0196 -0.6494  1.4604
43345SOL     OW35164   1.511   5.989   9.574 -0.7072 -0.4466  0.1803
43345SOL    HW135165   1.556   6.056   9.626 -1.4513 -1.1309  1.7435
43345SOL    HW235166   1.426   6.028   9.554  0.5708  0.9438 -2.9783
43346SOL     OW35167   0.332   2.609   2.683 -0.2111  0.3031 -0.4190
43346SOL    HW135168   0.350   2.643   2.771 -1.6644  2.3451 -0.8550
43346SOL    HW235169   0.273   2.535   2.697  1.8856 -1.2437  0.4770
43347SOL     OW35170   3.485   5.002   7.512  0.5981  0.3409 -0.0754
43347SOL    HW135171   3.505   5.036   7.425  2.5615 -0.0290  0.2274
43347SOL    HW235172   3.513   4.911   7.510 -2.0985 -0.5517  0.0131
43348SOL     OW35173   6.088   7.977   0.474  0.6445  0.2158  0.2419
43348SOL    HW135174   6.171   8.022   0.459  2.0465 -2.4075 -0.1174
43348SOL    HW235175   6.111   7.899   0.524 -1.1831 -2.1005 -2.3485
43349SOL     OW35176   6.136   5.930   6.569  0.0057 -0.1578 -0.6452
43349SOL    HW135177   6.043   5.945   6.588 -0.0731 -0.2520 -0.9482
43349SOL    HW235178   6.143   5.835   6.562 -0.0409 -0.1009 -1.4620
43350SOL     OW35179   2.928  10.898   0.602  0.1252 -0.5462  0.1461
43350SOL    HW135180   2.903  10.921   0.691  0.4807  0.4558 -0.0022
43350SOL    HW235181   2.937  10.803   0.603 -0.5808 -0.6086  0.9923
43351SOL     OW35182   3.110   2.071   2.991 -0.0625 -0.0162  0.1103
43351SOL    HW135183   3.145   2.001   2.935 -2.1809 -1.7806  0.9275
43351SOL    HW235184   3.059   2.127   2.932  0.6277  0.1535 -0.3295
43352SOL     OW35185   6.534   6.362   2.582 -0.1122 -0.3732 -0.6800
43352SOL    HW135186   6.566   6.333   2.667  0.3091  0.3867 -0.5709
43352SOL    HW235187   6.446   6.324   2.576  0.2300 -1.2347 -0.3343
43353SOL     OW35188   2.159   8.891   4.368  0.3177 -0.1198 -0.7820
43353SOL    HW135189   2.077   8.852   4.338 -0.4856  1.0950 -0.2022
43353SOL    HW235190   2.152   8.890   4.463  1.0996 -0.2656 -0.7292
43354SOL     OW35191   4.995  10.568   1.202 -0.3862  0.0537  0.6195
43354SOL    HW135192   4.918  10.620   1.178 -0.3435  0.3005  1.0145
43354SOL    HW235193   5.019  10.521   1.122 -1.2629 -0.4258  0.6308
43355SOL     OW35194   2.685   5.795   1.575 -0.0350  0.2347  0.4097
43355SOL    HW135195   2.736   5.718   1.601 -0.8087 -0.1580  0.7771
43355SOL    HW235196   2.607   5.758   1.533  0.1675  0.8336 -0.5006
43356SOL     OW35197   0.639   7.837   6.176 -0.2084  0.1879  0.1622
43356SOL    HW135198   0.606   7.927   6.171  0.2995  0.3312 -0.5957
43356SOL    HW235199   0.584   7.788   6.115  0.9145  0.4065 -1.0278
43357SOL     OW35200  10.437   3.653   4.541  0.3973 -0.1733  0.8421
43357SOL    HW135201  10.389   3.622   4.464 -0.4952 -0.9706  1.7138
43357SOL    HW235202  10.499   3.583   4.561  0.9096  0.2073  0.6262
43358SOL     OW35203   4.802   8.191   0.420 -0.0821 -0.3934  0.4568
43358SOL    HW135204   4.856   8.155   0.490 -2.8052 -3.7272  1.0350
43358SOL    HW235205   4.763   8.270   0.457  1.1983 -0.2063  1.4328
43359SOL     OW35206   8.586   5.864   3.615  0.6838  0.0500  0.3738
43359SOL    HW135207   8.519   5.799   3.592  0.8965 -0.3183  0.7853
43359SOL    HW235208   8.557   5.944   3.572  0.8587 -0.5283 -0.8355
43360SOL     OW35209  10.719   6.256   7.913 -0.2524 -0.3184 -0.1520
43360SOL    HW135210  10.677   6.198   7.976 -0.2101 -0.0032  0.1676
43360SOL    HW235211  10.719   6.207   7.831 -1.2189 -0.3207 -0.1476
43361SOL     OW35212   3.804   6.525   5.940  0.8259  0.2851  0.0880
43361SOL    HW135213   3.898   6.520   5.953  0.8213 -0.7191 -0.2085
43361SOL    HW235214   3.788   6.472   5.862 -0.3009 -1.7724  1.6729
43362SOL     OW35215   0.973   4.267   8.277 -0.0528  0.6671  0.3660
43362SOL    HW135216   0.954   4.355   8.245 -1.2497  0.5111  0.6164
43362SOL    HW235217   0.933   4.209   8.212  1.3608  0.2841 -0.1915
43363SOL     OW35218  10.093   6.725   1.093  0.0841 -0.6041  0.5169
43363SOL    HW135219  10.010   6.770   1.080  0.5643 -0.3015 -1.6583
43363SOL    HW235220  10.076   6.634   1.068  0.3720 -0.5587  0.1439
43364SOL     OW35221   8.255   2.386   5.735  0.0831 -0.1507 -0.4321
43364SOL    HW135222   8.239   2.386   5.829  0.5067 -0.7303 -0.3607
43364SOL    HW235223   8.210   2.308   5.703 -0.2451  0.1619 -0.7444
43365SOL     OW35224   4.228   9.659   4.508 -0.1207 -0.5030  0.1205
43365SOL    HW135225   4.169   9.603   4.558 -0.4559 -0.2264  0.0375
43365SOL    HW235226   4.268   9.717   4.573 -0.9985  0.2542  0.0059
43366SOL     OW35227   0.737   5.365  11.141  0.1848 -0.1423 -0.7298
43366SOL    HW135228   0.822   5.407  11.130 -0.1830  0.8961  0.4063
43366SOL    HW235229   0.743   5.320  11.225  0.0184 -1.0746 -1.2030
43367SOL     OW35230  10.587   6.963   3.160  0.1204 -0.6078 -0.0854
43367SOL    HW135231  10.590   6.995   3.250  1.5958 -1.9074  0.3488
43367SOL    HW235232  10.666   6.909   3.151  0.1807 -0.2074 -2.2618
43368SOL     OW35233  10.022   0.401   0.439  0.5379 -0.4437  0.5372
43368SOL    HW135234  10.094   0.463   0.440 -0.3425  0.5762  1.7722
43368SOL    HW235235  10.028   0.355   0.523  0.7569 -1.5485 -0.0652
43369SOL     OW35236  10.384  10.427   5.807  0.5930 -0.1607 -0.2501
43369SOL    HW135237  10.438  10.377   5.869  0.1277  0.8385  0.9792
43369SOL    HW235238  10.385  10.375   5.727  0.7536 -1.7530  0.7672
43370SOL     OW35239  10.505   6.641   7.914 -0.8067 -0.2757 -0.0019
43370SOL    HW135240  10.466   6.679   7.992  0.7847  1.2673  0.0730
43370SOL    HW235241  10.537   6.716   7.863  3.5042 -1.4572  0.7446
43371SOL     OW35242   4.617   7.727   3.640 -0.0144  0.2302  0.0227
43371SOL    HW135243   4.623   7.744   3.734  0.6681  0.7794 -0.1184
43371SOL    HW235244   4.690   7.668   3.621  0.0948  0.4437 -0.2336
43372SOL     OW35245   6.105   6.625   6.536 -0.6918 -0.2327 -0.1137
43372SOL    HW135246   6.058   6.703   6.507 -0.0154  0.5985  1.0186
43372SOL    HW235247   6.125   6.641   6.628  0.5425 -1.2044 -0.1947
43373SOL     OW35248   6.345   7.201   4.429  0.0848  0.5467  0.1041
43373SOL    HW135249   6.351   7.217   4.335 -1.0736  1.4035  0.1732
43373SOL    HW235250   6.277   7.135   4.438  0.9170 -0.3140  0.2767
43374SOL     OW35251   9.948   0.271  10.077  0.1644 -0.2393  0.0774
43374SOL    HW135252   9.965   0.239   9.988  2.0546  0.3094  0.2038
43374SOL    HW235253   9.854   0.289  10.079  0.5120  2.2248 -2.6499
43375SOL     OW35254   3.713   9.512   8.520 -0.0407  0.3033 -0.4182
43375SOL    HW135255   3.720   9.541   8.429 -0.5237 -0.7580 -0.8046
43375SOL    HW235256   3.770   9.435   8.525  1.2792  1.3271  0.6039
43376SOL     OW35257   7.948   3.085   9.137 -0.5425 -0.1873 -0.1200
43376SOL    HW135258   7.926   2.997   9.166 -1.4590  0.4459  1.2197
43376SOL    HW235259   8.043   3.092   9.149 -0.6041 -0.6811  0.7232
43377SOL     OW35260   2.476  10.659   1.935  0.4396 -0.4530  0.0282
43377SOL    HW135261   2.501  10.750   1.950 -1.3226 -0.2493  1.8315
43377SOL    HW235262   2.464  10.653   1.840  0.9947  1.0639 -0.1564
43378SOL     OW35263   0.073   0.758   3.386  0.5703 -0.4053  0.1978
43378SOL    HW135264   0.030   0.843   3.375  2.9280  0.7883 -0.3716
43378SOL    HW235265   0.022   0.713   3.452 -0.4268  1.6986  0.9120
43379SOL     OW35266   5.590   2.991   2.885  0.3405  0.1122 -0.6423
43379SOL    HW135267   5.576   3.084   2.868  0.1167  0.3802  0.9045
43379SOL    HW235268   5.670   2.969   2.838  0.1514  0.9811 -1.3674
43380SOL     OW35269   7.908   1.714   8.382 -0.5700  0.1430  0.5362
43380SOL    HW135270   7.821   1.683   8.357 -1.2096  2.0140  0.3479
43380SOL    HW235271   7.894   1.758   8.466  0.1621  0.5889  0.4253
43381SOL     OW35272   6.851   3.239   0.444  0.1527  0.3807  0.0655
43381SOL    HW135273   6.855   3.147   0.472  0.8318  0.3615 -0.0973
43381SOL    HW235274   6.850   3.234   0.349 -0.2028  0.5284  0.0616
43382SOL     OW35275   8.342   9.861   9.526  0.3341 -0.3925 -0.1560
43382SOL    HW135276   8.281   9.861   9.453  0.3804  0.6848 -0.2154
43382SOL    HW235277   8.384   9.948   9.522  0.1333 -0.2060  1.3018
43383SOL     OW35278   7.282   7.540   5.989 -0.2884 -0.0544 -0.3097
43383SOL    HW135279   7.377   7.533   5.996 -0.3812 -1.7790 -0.5539
43383SOL    HW235280   7.256   7.460   5.943 -1.9060  0.1010  0.3235
43384SOL     OW35281   3.573   4.878   3.409  0.1968  0.4437  0.6764
43384SOL    HW135282   3.549   4.958   3.456 -0.2319  1.1013 -0.6242
43384SOL    HW235283   3.543   4.807   3.465 -2.6629  1.2382  0.2429
43385SOL     OW35284   4.243   2.531   9.584 -0.4490 -0.2503  0.6208
43385SOL    HW135285   4.249   2.625   9.601 -0.1731 -0.2727  0.6402
43385SOL    HW235286   4.309   2.491   9.640  0.5152 -0.3173 -0.5325
43386SOL     OW35287   9.955   8.573   0.619 -0.3065 -0.1549  0.1479
43386SOL    HW135288   9.946   8.507   0.550 -1.0596 -0.2873  0.3722
43386SOL    HW235289   9.868   8.578   0.659 -0.0915  0.5379  0.5280
43387SOL     OW35290   8.522   5.635   6.694 -0.5741  0.0254 -0.1507
43387SOL    HW135291   8.436   5.666   6.725 -0.4783 -0.9862  1.1700
43387SOL    HW235292   8.531   5.547   6.731  1.0356  0.1139 -0.2858
43388SOL     OW35293   0.365  11.169   6.273 -0.1211  0.0771  0.1786
43388SOL    HW135294   0.297  11.184   6.208 -0.4455 -0.5942  0.3635
43388SOL    HW235295   0.360  11.245   6.331 -0.0406  0.5248 -0.3887
43389SOL     OW35296   6.186   1.731   3.728  0.4451  0.1870 -0.6791
43389SOL    HW135297   6.126   1.804   3.741 -0.8182 -1.1468  1.4011
43389SOL    HW235298   6.184   1.683   3.811  0.4022 -2.7968 -2.3168
43390SOL     OW35299   7.219   9.555   5.768 -0.1662  0.5070 -0.0291
43390SOL    HW135300   7.213   9.502   5.689 -0.6109  1.5339 -0.6857
43390SOL    HW235301   7.313   9.559   5.787 -0.1823 -1.0757  0.4131
43391SOL     OW35302   6.112   0.672   6.199  0.2754  0.4622 -0.6547
43391SOL    HW135303   6.087   0.687   6.108 -0.9752 -0.7879 -0.5287
43391SOL    HW235304   6.082   0.583   6.218  0.8450  0.5821  0.8667
43392SOL     OW35305   6.852   2.388   5.423  0.1330 -0.2598  0.0736
43392SOL    HW135306   6.881   2.414   5.510  0.8777 -0.6066 -0.0696
43392SOL    HW235307   6.764   2.425   5.415  0.6059  0.9572  0.4337
43393SOL     OW35308   7.359   0.733  11.315 -0.9809 -0.0320  0.0057
43393SOL    HW135309   7.364   0.811  11.260 -2.5053  0.3532  0.4051
43393SOL    HW235310   7.448   0.696  11.313 -0.3786  1.4430 -0.5555
43394SOL     OW35311   8.583   0.971   6.421  0.3926 -0.1234 -0.2656
43394SOL    HW135312   8.532   0.890   6.418 -0.0757  0.1372  0.5545
43394SOL    HW235313   8.576   1.008   6.333  0.0059 -0.5996 -0.4340
43395SOL     OW35314   2.907   8.713   7.822  0.1986  0.8439  0.6854
43395SOL    HW135315   2.833   8.658   7.797  0.8552 -0.2532  1.1470
43395SOL    HW235316   2.878   8.802   7.801  0.2499  0.1023 -2.8445
43396SOL     OW35317   3.477   5.825   4.833 -0.5326 -0.3517  0.3690
43396SOL    HW135318   3.536   5.818   4.758 -0.5844  0.1144  0.2836
43396SOL    HW235319   3.409   5.759   4.816 -1.7444  1.2365 -1.0923
43397SOL     OW35320   8.006   3.453   1.112 -0.6089 -0.2885  0.0493
43397SOL    HW135321   7.966   3.476   1.196 -0.1469  1.8987 -0.3058
43397SOL    HW235322   8.099   3.470   1.124 -0.5660  0.2290 -0.9671
43398SOL     OW35323   7.470  10.637   6.566 -0.2789  0.0104  0.0034
43398SOL    HW135324   7.378  10.632   6.594 -0.6810 -0.0077 -1.3246
43398SOL    HW235325   7.506  10.708   6.619 -0.9853 -0.1419  0.7144
43399SOL     OW35326   8.798  10.491   5.129 -0.1420  0.0391 -0.2801
43399SOL    HW135327   8.859  10.444   5.072 -1.0220 -1.1237 -0.2924
43399SOL    HW235328   8.794  10.437   5.208 -0.6002  0.4949  0.0084
43400SOL     OW35329   4.297   5.047   5.493  0.0953  0.0501  0.4895
43400SOL    HW135330   4.296   5.125   5.548  0.0075 -0.1345  0.7530
43400SOL    HW235331   4.240   4.985   5.539  0.3924 -0.2697  0.4291
43401SOL     OW35332   5.002   5.702  10.337 -0.4302  0.2063  0.2071
43401SOL    HW135333   4.954   5.644  10.395  2.1482 -2.4653 -0.1864
43401SOL    HW235334   4.975   5.675  10.249  0.0266  0.2941  0.0399
43402SOL     OW35335   2.765   0.055   8.641 -1.1575 -0.3323 -0.2906
43402SOL    HW135336   2.822   0.062   8.717 -1.9061  1.4883  0.1347
43402SOL    HW235337   2.728   0.142   8.631 -2.1011 -0.9016 -1.9393
43403SOL     OW35338   7.774   0.409   8.263 -0.5342  0.2025  0.6393
43403SOL    HW135339   7.830   0.486   8.267  0.1057 -0.3076  2.1126
43403SOL    HW235340   7.731   0.414   8.178  0.1228  1.7390  0.3848
43404SOL     OW35341   8.203  10.595   2.899 -0.5028 -0.4207 -0.4118
43404SOL    HW135342   8.209  10.551   2.984  0.8745 -1.0586 -0.8375
43404SOL    HW235343   8.285  10.574   2.855 -1.3374 -0.3431 -2.0361
43405SOL     OW35344   0.445   7.072   2.572  0.0283  0.0043  0.0565
43405SOL    HW135345   0.454   7.164   2.594  1.4644  0.2360 -1.3323
43405SOL    HW235346   0.351   7.057   2.566 -0.2505  0.9619  1.9389
43406SOL     OW35347   3.691   6.140   4.590 -0.7007 -0.6963 -0.4618
43406SOL    HW135348   3.758   6.184   4.538  0.9346 -2.4094  0.1638
43406SOL    HW235349   3.614   6.197   4.582  1.0956  1.8553 -0.3222
43407SOL     OW35350  11.129   9.241   5.968  0.0683  0.5351 -0.2746
43407SOL    HW135351  11.197   9.174   5.978 -0.1875  0.3360  0.1432
43407SOL    HW235352  11.047   9.193   5.971 -0.1036  0.8173 -0.4323
43408SOL     OW35353  10.778   9.453   6.599  0.0272 -0.1090 -0.1335
43408SOL    HW135354  10.873   9.466   6.593 -0.0769  0.1514 -1.4011
43408SOL    HW235355  10.754   9.418   6.513 -0.6153 -2.8680  1.1130
43409SOL     OW35356   3.026   1.169  11.212  0.1405  0.2490 -0.1060
43409SOL    HW135357   3.001   1.215  11.291 -1.2119 -1.9741  0.7908
43409SOL    HW235358   2.972   1.090  11.211  0.2601  0.1442 -3.1450
43410SOL     OW35359   9.447  10.690   6.493 -0.2121 -0.0707 -0.3521
43410SOL    HW135360   9.424  10.780   6.468 -0.8267 -0.4761 -1.2549
43410SOL    HW235361   9.385  10.635   6.446 -0.7403 -0.9117  1.3051
43411SOL     OW35362   4.722   6.474   1.853  0.2688 -0.0597  0.0260
43411SOL    HW135363   4.647   6.491   1.910 -0.6227 -1.5130 -0.6921
43411SOL    HW235364   4.684   6.434   1.775  1.6947  0.1073 -0.7622
43412SOL     OW35365   3.266   6.529   1.145  0.3416 -0.3746  0.3367
43412SOL    HW135366   3.194   6.585   1.174  1.5278  1.0526  0.6012
43412SOL    HW235367   3.330   6.533   1.217  2.7838  2.2569 -1.8296
43413SOL     OW35368   6.058  10.546   2.466  0.0053 -0.3684 -0.3627
43413SOL    HW135369   6.079  10.534   2.559 -1.1299 -1.1095 -0.1774
43413SOL    HW235370   5.972  10.588   2.467  1.2982  2.3957 -1.0798
43414SOL     OW35371   6.776   0.875   0.338  0.0197 -0.1589 -0.4763
43414SOL    HW135372   6.729   0.865   0.421 -0.5746  0.7581 -0.6911
43414SOL    HW235373   6.715   0.843   0.272  0.7439 -1.4923 -0.4993
43415SOL     OW35374   3.104   5.473   5.743  0.2342  0.3507 -0.4327
43415SOL    HW135375   3.147   5.522   5.814  3.2142 -1.0131 -1.2325
43415SOL    HW235376   3.085   5.388   5.782  0.3322  0.1818 -0.7571
43416SOL     OW35377  10.432  10.440   6.307  0.4178  0.1777 -0.0445
43416SOL    HW135378  10.459  10.532   6.304  0.2332  0.2047 -2.1916
43416SOL    HW235379  10.336  10.443   6.310  0.3856  0.0663 -0.8132
43417SOL     OW35380   4.091   7.527  10.766  0.0116 -0.0064  0.0605
43417SOL    HW135381   4.038   7.476  10.827 -0.3324  2.4064  1.8519
43417SOL    HW235382   4.177   7.486  10.770 -0.6527 -1.4250  0.2320
43418SOL     OW35383  10.003  10.385   5.040  0.0170  0.4318 -0.2719
43418SOL    HW135384  10.016  10.353   4.951 -0.2721 -2.4967  0.6698
43418SOL    HW235385  10.086  10.367   5.084 -0.1032  1.1448  0.2497
43419SOL     OW35386   2.757   1.714  11.146 -0.9736 -0.0433 -0.4286
43419SOL    HW135387   2.829   1.652  11.139 -0.3113  0.5760  0.8140
43419SOL    HW235388   2.691   1.669  11.198  0.2343  0.9243  2.0144
43420SOL     OW35389   8.857   3.390   9.030 -0.4774 -0.1562  0.0573
43420SOL    HW135390   8.769   3.417   9.054 -0.2353 -0.0566  0.8351
43420SOL    HW235391   8.899   3.367   9.112  0.3092  0.0557 -0.2764
43421SOL     OW35392   8.216   7.659   4.941 -0.3234 -0.3063 -0.5643
43421SOL    HW135393   8.277   7.657   4.867 -0.8789 -2.3409 -1.0130
43421SOL    HW235394   8.248   7.590   5.000 -1.4444 -0.5363 -0.2139
43422SOL     OW35395   3.403   5.402  11.137 -0.1661 -0.5555  0.1588
43422SOL    HW135396   3.312   5.375  11.133 -0.9185  1.9839 -1.1490
43422SOL    HW235397   3.400   5.492  11.170  1.8706 -0.4829  0.2304
43423SOL     OW35398   0.105   7.843  11.253  0.0648  0.4212  0.2489
43423SOL    HW135399   0.160   7.877  11.323 -0.3046  0.4622  0.5178
43423SOL    HW235400   0.025   7.814  11.296 -0.0216  0.1204 -0.1082
43424SOL     OW35401   0.750   3.692   6.535 -0.1844 -0.2306 -0.4558
43424SOL    HW135402   0.794   3.607   6.535 -0.5991 -0.4549  0.7524
43424SOL    HW235403   0.689   3.687   6.608 -1.6625  0.3698 -1.6340
43425SOL     OW35404   7.962   6.291   7.857 -0.0995  0.4486 -0.3623
43425SOL    HW135405   7.953   6.285   7.761  0.7107 -0.2321 -0.4022
43425SOL    HW235406   7.901   6.225   7.890  1.2834 -0.9337 -0.4930
43426SOL     OW35407  10.143  10.124   0.441 -0.1142 -0.1183 -0.3195
43426SOL    HW135408  10.116  10.171   0.520  0.0212 -1.6440  0.6542
43426SOL    HW235409  10.233  10.096   0.460 -0.2851 -0.9893 -0.7803
43427SOL     OW35410   0.658   4.992  10.251  0.1299  0.6033  0.0945
43427SOL    HW135411   0.610   5.040  10.318  0.7364  0.1261  0.8871
43427SOL    HW235412   0.642   5.040  10.170 -0.7858  1.0642  0.5455
43428SOL     OW35413   6.709   6.981  10.465 -0.3321  0.1561 -0.0653
43428SOL    HW135414   6.768   6.985  10.390 -0.5224  1.8321 -0.1519
43428SOL    HW235415   6.730   6.898  10.508 -0.3165 -0.8954 -2.0346
43429SOL     OW35416   2.250   8.716  10.372 -0.4990 -0.2682  0.1565
43429SOL    HW135417   2.339   8.750  10.373 -1.0939  1.3080  0.2925
43429SOL    HW235418   2.254   8.641  10.312  0.5079  0.9149 -1.2766
43430SOL     OW35419   5.389   2.256   8.858  0.0023  0.1015 -0.2923
43430SOL    HW135420   5.419   2.337   8.815 -0.7684  1.5336  1.7941
43430SOL    HW235421   5.412   2.268   8.950  1.2584 -2.7422 -0.1824
43431SOL     OW35422   3.064   3.387   6.717  0.1808 -0.2225  0.3195
43431SOL    HW135423   3.114   3.448   6.663  0.3472 -2.3130 -1.9463
43431SOL    HW235424   2.973   3.408   6.700  0.2319 -0.9366 -0.8885
43432SOL     OW35425   3.132  10.247   0.064 -0.6475  0.3226 -0.2033
43432SOL    HW135426   3.113  10.334   0.028 -1.0136 -0.1416 -1.1314
43432SOL    HW235427   3.127  10.259   0.159 -0.5607  1.3476 -0.3235
43433SOL     OW35428   8.965   5.441   8.814  0.2122 -0.3172 -0.6566
43433SOL    HW135429   8.884   5.443   8.763  0.9324  2.2832 -1.7493
43433SOL    HW235430   9.029   5.401   8.755  0.4351  0.3326 -0.8511
43434SOL     OW35431   5.761  11.308   3.825 -0.3742  0.3094  0.3719
43434SOL    HW135432   5.786  11.220   3.798 -0.1213  0.4659  0.0987
43434SOL    HW235433   5.748  11.356   3.743 -0.2375  0.6044  0.5216
43435SOL     OW35434   3.420   3.450   1.931 -0.2523 -0.6011  0.0309
43435SOL    HW135435   3.496   3.448   1.873 -0.4182 -2.7008 -0.1595
43435SOL    HW235436   3.425   3.535   1.974  1.4737 -0.1771 -0.9520
43436SOL     OW35437   0.855   6.574   3.788  0.0754 -0.5632  0.1445
43436SOL    HW135438   0.817   6.524   3.861 -0.6128 -2.0246 -1.1824
43436SOL    HW235439   0.785   6.631   3.759  0.0398 -0.6753  0.0093
43437SOL     OW35440   0.357  10.061   6.201 -0.1099 -0.0546 -0.1277
43437SOL    HW135441   0.430  10.116   6.231  0.6605 -0.8765 -0.4347
43437SOL    HW235442   0.299  10.120   6.153  1.0237  0.3754 -0.9954
43438SOL     OW35443  10.948   5.726   4.300  0.4750 -0.2143  0.1938
43438SOL    HW135444  10.877   5.750   4.359  0.6156 -0.9606  0.6711
43438SOL    HW235445  11.010   5.800   4.305  0.4346 -0.2268  0.8884
43439SOL     OW35446   2.258   2.180   8.254 -0.1546  0.6663  0.2155
43439SOL    HW135447   2.267   2.253   8.192  0.6898  0.9469  0.6461
43439SOL    HW235448   2.164   2.164   8.259 -0.1047 -0.8774 -2.8566
43440SOL     OW35449   3.767   0.242   4.020 -0.6256  0.6310  0.1708
43440SOL    HW135450   3.830   0.297   4.067  0.9946 -1.4520  0.5397
43440SOL    HW235451   3.776   0.156   4.060 -2.0997 -0.2443 -1.3146
43441SOL     OW35452  10.239   9.839   7.527  0.0981  0.0881  0.2364
43441SOL    HW135453  10.184   9.916   7.518 -0.4099 -0.4200 -1.2306
43441SOL    HW235454  10.179   9.769   7.554  0.3240 -0.0947  0.2723
43442SOL     OW35455   1.134   9.670   5.043 -0.0431  0.1905 -0.1637
43442SOL    HW135456   1.066   9.736   5.030 -0.3398 -0.3612 -1.4292
43442SOL    HW235457   1.093   9.603   5.098 -0.6954 -0.3872 -1.3390
43443SOL     OW35458   1.306   1.704   0.493 -0.2879 -0.7588  0.8007
43443SOL    HW135459   1.235   1.761   0.522  0.3721  0.0884  0.7561
43443SOL    HW235460   1.262   1.634   0.443 -0.8915  1.0702 -1.3123
43444SOL     OW35461   8.250   1.472   0.740  0.0781  0.3000  0.0261
43444SOL    HW135462   8.277   1.385   0.768 -1.5396 -0.0182  0.6621
43444SOL    HW235463   8.293   1.532   0.800  1.5922 -0.0264 -0.7202
43445SOL     OW35464   8.110   5.371   0.021 -0.1239 -0.9530  0.2093
43445SOL    HW135465   8.081   5.378  -0.070 -1.5580  0.5402  0.7550
43445SOL    HW235466   8.043   5.317   0.063 -1.5378  1.5384  1.2164
43446SOL     OW35467   1.055   9.617   2.113 -0.4210 -0.4481 -0.6575
43446SOL    HW135468   1.118   9.566   2.164  0.7674  1.0459 -0.5942
43446SOL    HW235469   1.081   9.708   2.128 -1.8326  0.1223 -1.6457
43447SOL     OW35470   6.367   4.602   4.954 -0.1328  0.7256  0.6636
43447SOL    HW135471   6.434   4.668   4.935  2.0209 -1.5810 -0.0594
43447SOL    HW235472   6.410   4.542   5.014 -1.0254 -1.6195 -0.9928
43448SOL     OW35473   0.886   8.421   5.948 -0.3784  0.9038  0.0798
43448SOL    HW135474   0.951   8.490   5.935 -0.9374  1.0932 -1.8326
43448SOL    HW235475   0.902   8.360   5.876 -1.2556  0.1060  0.5578
43449SOL     OW35476   8.588   2.065   5.771  0.3024  0.2045  0.6456
43449SOL    HW135477   8.639   2.089   5.848  3.2253 -0.0721 -1.1344
43449SOL    HW235478   8.563   1.974   5.787  1.2193  0.0218  1.1002
43450SOL     OW35479   1.198   5.868   0.481  0.4025  0.3495  0.6089
43450SOL    HW135480   1.237   5.827   0.558 -0.1889 -2.1105 -0.3315
43450SOL    HW235481   1.273   5.891   0.426  0.7362 -0.2396  0.8076
43451SOL     OW35482   7.631   6.508  10.117  0.3430 -0.0127  0.2135
43451SOL    HW135483   7.603   6.585  10.067 -0.2025  0.7859  1.6812
43451SOL    HW235484   7.726   6.510  10.112  0.3191  0.5282 -0.1265
43452SOL     OW35485  10.531   6.588   4.321 -0.0305 -0.4869  0.1681
43452SOL    HW135486  10.513   6.499   4.352 -1.2838 -0.7759 -1.3292
43452SOL    HW235487  10.583   6.575   4.241  0.2421  0.1450  0.2413
43453SOL     OW35488   7.187   7.566   8.705  0.1831 -0.5123 -0.3007
43453SOL    HW135489   7.220   7.611   8.783 -1.0212 -1.5716  0.8540
43453SOL    HW235490   7.122   7.504   8.739 -0.3354 -1.0177 -2.1489
43454SOL     OW35491   6.617   4.606   5.095 -0.3226 -0.1001 -0.4595
43454SOL    HW135492   6.662   4.551   5.032 -1.1864 -0.8513 -0.4173
43454SOL    HW235493   6.686   4.661   5.132  0.9064 -2.5223  0.9453
43455SOL     OW35494   7.943   4.768   8.317 -0.1275  0.2504 -0.1545
43455SOL    HW135495   7.897   4.849   8.295 -0.3885  0.3820  0.8781
43455SOL    HW235496   7.914   4.746   8.405  0.8278 -0.3401  0.0277
43456SOL     OW35497   4.578  11.185   8.176 -0.2180  0.6560 -0.1510
43456SOL    HW135498   4.631  11.235   8.113  1.3789  2.9180  2.8278
43456SOL    HW235499   4.627  11.104   8.190  1.1560  1.5771  0.5649
43457SOL     OW35500   6.259   2.002   8.213 -0.5466  0.6494  0.6846
43457SOL    HW135501   6.190   2.049   8.261 -2.2158 -0.8531 -0.1463
43457SOL    HW235502   6.278   2.058   8.138  1.2016  2.4250  2.4148
43458SOL     OW35503   6.685  10.799   8.548  0.4205 -0.0460 -0.4026
43458SOL    HW135504   6.778  10.807   8.569  0.5390  0.9313 -1.2470
43458SOL    HW235505   6.668  10.705   8.548  1.4354 -0.2363 -0.3772
43459SOL     OW35506   9.755  10.267  10.313 -0.0610 -0.1071  0.0199
43459SOL    HW135507   9.770  10.265  10.408 -0.3852  0.9510  0.1083
43459SOL    HW235508   9.840  10.249  10.274  0.2233  0.1562  0.5176
43460SOL     OW35509   3.046   1.358   2.926  0.3981  0.0238  0.4611
43460SOL    HW135510   3.018   1.389   2.840 -1.3445  1.2171  1.4358
43460SOL    HW235511   3.109   1.288   2.907  0.1704  0.3931 -1.7674
43461SOL     OW35512   9.418   2.208   9.067  0.1962 -0.5727  0.3367
43461SOL    HW135513   9.470   2.179   8.992  0.6872  1.0131  0.0509
43461SOL    HW235514   9.350   2.264   9.028 -0.9407 -1.5618  0.8471
43462SOL     OW35515   0.733   5.791   1.599 -0.9439 -1.1009 -0.5228
43462SOL    HW135516   0.687   5.707   1.591 -0.6563 -1.3466  0.3281
43462SOL    HW235517   0.751   5.800   1.693  1.7907 -1.5642 -0.9646
43463SOL     OW35518   5.623   3.742   9.004 -0.0434 -0.0342  0.3334
43463SOL    HW135519   5.687   3.675   9.026 -0.4263  0.0272  1.6930
43463SOL    HW235520   5.655   3.781   8.922  1.5205 -0.1554  0.8727
43464SOL     OW35521  10.392   5.268   2.617 -0.0378  0.1482  0.1896
43464SOL    HW135522  10.323   5.309   2.669  0.8373 -0.6346  2.0213
43464SOL    HW235523  10.382   5.174   2.632 -0.0219 -0.1275 -1.4153
43465SOL     OW35524   9.760   6.756   9.709 -0.2981  0.0394 -0.2006
43465SOL    HW135525   9.721   6.833   9.751  0.7422  0.4754  0.0027
43465SOL    HW235526   9.839   6.739   9.761  1.3388  0.9297 -2.2996
43466SOL     OW35527   8.413  10.790   5.844  0.1137 -0.1551  0.0357
43466SOL    HW135528   8.329  10.744   5.839  0.8366 -1.3427 -2.2329
43466SOL    HW235529   8.478  10.719   5.849  1.0088  0.7371  1.2438
43467SOL     OW35530   3.423  10.480   6.673 -0.0102 -0.7591  0.2099
43467SOL    HW135531   3.449  10.483   6.766  1.0449 -1.0213 -0.0686
43467SOL    HW235532   3.334  10.445   6.674 -1.0105  1.6618  1.3148
43468SOL     OW35533   5.765   2.074   4.670  0.0455 -0.1890  0.0485
43468SOL    HW135534   5.688   2.101   4.720  0.1273 -0.3286  0.2467
43468SOL    HW235535   5.768   1.979   4.679  0.7661 -0.0988  0.7996
43469SOL     OW35536   1.936   0.935   5.757  0.1575  0.0767 -0.0637
43469SOL    HW135537   2.028   0.921   5.735  1.4388  1.6986  3.9130
43469SOL    HW235538   1.898   0.847   5.757  2.3099 -0.8819  0.8004
43470SOL     OW35539   0.095   5.778   7.668  0.3951 -0.1440  0.0829
43470SOL    HW135540   0.033   5.852   7.663  2.8833  2.0423  0.4757
43470SOL    HW235541   0.044   5.702   7.639 -2.5970  1.4873  0.7897
43471SOL     OW35542   3.746  11.198   1.607 -0.0423  0.5355  0.3772
43471SOL    HW135543   3.704  11.279   1.579  1.4408  1.6765  1.3525
43471SOL    HW235544   3.825  11.191   1.553 -0.4775 -0.5893 -0.1322
43472SOL     OW35545   2.097  10.521   9.360 -0.0906  0.0968  0.1220
43472SOL    HW135546   2.179  10.566   9.338  0.3683 -1.6367 -1.8505
43472SOL    HW235547   2.101  10.438   9.311 -2.5897 -0.4331  0.7491
43473SOL     OW35548   7.783   8.769   4.242 -0.8121 -0.2476  0.4465
43473SOL    HW135549   7.862   8.737   4.285  0.2614  0.2044 -1.1755
43473SOL    HW235550   7.753   8.840   4.299  1.0385  0.8673  0.0697
43474SOL     OW35551   4.116   2.820   8.029 -0.3830 -0.2469 -0.0892
43474SOL    HW135552   4.044   2.870   8.067  0.1633  0.6233 -0.1768
43474SOL    HW235553   4.076   2.767   7.961 -0.5325  2.3769 -2.1180
43475SOL     OW35554   2.017   2.635   2.122  0.2106  0.5197  0.3685
43475SOL    HW135555   1.999   2.720   2.080  0.4270  0.4840  0.2020
43475SOL    HW235556   2.100   2.606   2.083 -1.0471 -0.8948 -1.3851
43476SOL     OW35557   7.327   5.309   0.655 -0.4736  0.2030 -0.2647
43476SOL    HW135558   7.328   5.225   0.608 -0.1737  0.6435 -1.0623
43476SOL    HW235559   7.414   5.346   0.639  0.1021 -0.2528  1.7770
43477SOL     OW35560   9.701   6.085   8.354 -0.0070  0.0016 -1.0970
43477SOL    HW135561   9.699   6.150   8.424 -0.4545 -1.4386  0.2617
43477SOL    HW235562   9.609   6.061   8.341  0.3001 -1.6173 -0.3757
43478SOL     OW35563  11.272   6.737   1.226  0.1966  0.4285  0.0477
43478SOL    HW135564  11.232   6.794   1.160  1.5859  1.4103  0.0197
43478SOL    HW235565  11.245   6.775   1.310 -0.1875  0.1900  0.0286
43479SOL     OW35566   5.125   3.669   0.603 -0.3505  0.0836  0.0989
43479SOL    HW135567   5.095   3.618   0.679  0.3354 -0.6698 -0.1351
43479SOL    HW235568   5.154   3.604   0.540 -0.6887  0.7236 -0.7260
43480SOL     OW35569   2.246   7.494   1.470  0.3394 -0.3725 -0.0142
43480SOL    HW135570   2.231   7.551   1.395 -0.8927 -0.4025  0.1984
43480SOL    HW235571   2.285   7.415   1.433 -0.4859 -0.4804 -0.6632
43481SOL     OW35572  11.161   6.676   3.192 -0.1755  0.1342 -0.1484
43481SOL    HW135573  11.208   6.602   3.230  0.6003  1.2068  1.0155
43481SOL    HW235574  11.092   6.695   3.255 -1.3222 -0.5427 -1.1780
43482SOL     OW35575   0.235   5.341  11.117 -0.2061  0.4249 -0.2917
43482SOL    HW135576   0.291   5.278  11.162 -1.2900 -1.0580 -0.9877
43482SOL    HW235577   0.161   5.289  11.085  0.1195  1.5803 -3.0668
43483SOL     OW35578   1.628   9.464   6.430  0.3375 -0.3716  0.2216
43483SOL    HW135579   1.672   9.417   6.359 -3.3301 -3.2138 -0.3328
43483SOL    HW235580   1.676   9.440   6.509  2.0103 -0.3900 -0.7811
43484SOL     OW35581   7.189   9.884   3.193 -0.2107  0.2244 -0.4846
43484SOL    HW135582   7.187   9.942   3.117 -1.8601  0.3749 -0.3573
43484SOL    HW235583   7.110   9.907   3.243  0.6221 -0.1501  1.0621
43485SOL     OW35584   8.084   8.888   0.645 -0.4008  0.2210  0.2938
43485SOL    HW135585   8.123   8.941   0.576 -0.0669  1.0332  1.0845
43485SOL    HW235586   8.014   8.943   0.681 -1.1780 -0.5625 -0.0105
43486SOL     OW35587   2.051   2.099   4.270  0.3100 -0.1380 -0.5189
43486SOL    HW135588   2.018   2.060   4.189 -0.9991  0.4095 -0.2660
43486SOL    HW235589   1.976   2.098   4.329  0.7669  1.0788  0.1031
43487SOL     OW35590   3.304   3.618   5.366 -0.0329  0.5601  0.1207
43487SOL    HW135591   3.311   3.556   5.294 -2.1641 -0.9055  1.1267
43487SOL    HW235592   3.260   3.694   5.329  3.3859  1.9081 -1.3465
43488SOL     OW35593   7.408   9.241   1.479 -0.0524  0.4368 -0.0563
43488SOL    HW135594   7.417   9.232   1.384  0.4870 -0.1403  0.0548
43488SOL    HW235595   7.493   9.273   1.509  0.2204 -0.6922  0.4055
43489SOL     OW35596   3.857   3.274   8.548  0.0575  0.1389 -0.1468
43489SOL    HW135597   3.871   3.291   8.641 -1.0298  0.1585  0.0200
43489SOL    HW235598   3.880   3.356   8.505  0.8189  0.0473  0.0685
43490SOL     OW35599   8.267  10.781  11.242 -0.0426  0.2571  0.1502
43490SOL    HW135600   8.270  10.803  11.335  1.3286 -0.3260  0.2549
43490SOL    HW235601   8.322  10.848  11.200  0.3913 -0.2323 -0.0733
43491SOL     OW35602   9.819   0.086   3.126  0.1773  0.4210  0.5052
43491SOL    HW135603   9.851   0.027   3.194  0.1674  1.3723  1.3423
43491SOL    HW235604   9.897   0.108   3.075  0.6199  1.6372  1.6979
43492SOL     OW35605   5.812   6.070   7.309  0.4091  0.3549 -0.1746
43492SOL    HW135606   5.740   6.131   7.326  1.5319  1.0938  2.1526
43492SOL    HW235607   5.882   6.124   7.274  1.0055  0.2228  0.7920
43493SOL     OW35608   8.276   4.467  10.974 -0.2731  0.0167 -0.1379
43493SOL    HW135609   8.339   4.522  11.020 -0.8324  0.9882 -0.5163
43493SOL    HW235610   8.255   4.516  10.894  1.2470 -1.9683 -1.8249
43494SOL     OW35611  10.172   3.537   7.194 -0.7419 -0.8443  0.4769
43494SOL    HW135612  10.264   3.517   7.206 -0.7988  0.2856  2.9821
43494SOL    HW235613  10.135   3.458   7.154  0.8515 -2.1501  1.5534
43495SOL     OW35614   1.717   4.257   8.616  0.0090 -0.2350 -0.2336
43495SOL    HW135615   1.724   4.234   8.709  0.3489  1.4297  0.1576
43495SOL    HW235616   1.763   4.186   8.571  0.1650 -0.8590  0.8904
43496SOL     OW35617   7.431  10.683   9.147  0.2592  0.0879 -0.3669
43496SOL    HW135618   7.523  10.688   9.174  0.4200 -0.5343 -0.7958
43496SOL    HW235619   7.407  10.592   9.161  0.0924 -0.0482 -1.5229
43497SOL     OW35620   4.877   4.952  10.452  0.2934  0.3348 -0.0792
43497SOL    HW135621   4.890   4.857  10.458  1.4283  0.5059  0.3064
43497SOL    HW235622   4.915   4.976  10.367 -3.2211 -0.0569 -1.8441
43498SOL     OW35623   3.104  10.073  10.497 -0.7006 -0.5582  0.1213
43498SOL    HW135624   3.115   9.985  10.461 -1.3819 -0.6167  0.0428
43498SOL    HW235625   3.157  10.129  10.441 -0.8720 -0.8129 -0.2960
43499SOL     OW35626   3.598   5.919   0.987  0.1842  0.9069 -0.5098
43499SOL    HW135627   3.520   5.871   1.014 -0.3969  0.8052 -2.3377
43499SOL    HW235628   3.621   5.882   0.902  1.1026  2.2555 -0.8671
43500SOL     OW35629   0.586   5.865   1.274  0.1175  0.6363  0.5869
43500SOL    HW135630   0.520   5.814   1.320  0.3263  0.6774  0.9381
43500SOL    HW235631   0.668   5.846   1.321  0.1788  1.3721  0.7819
43501SOL     OW35632   7.707  11.136   3.299  0.2555  0.1305 -0.1729
43501SOL    HW135633   7.626  11.141   3.349  0.4145 -0.3021  0.1296
43501SOL    HW235634   7.679  11.106   3.212 -0.0526  1.1477 -0.4280
43502SOL     OW35635   6.775   2.263   6.679 -0.6384  0.0741 -0.2168
43502SOL    HW135636   6.686   2.284   6.708 -1.3583 -2.6123 -0.3467
43502SOL    HW235637   6.792   2.323   6.606 -1.9801  1.1940  0.3654
43503SOL     OW35638   8.816   5.192   2.423  0.3653 -0.6334  0.0906
43503SOL    HW135639   8.744   5.251   2.446 -0.1250 -0.1758 -2.5313
43503SOL    HW235640   8.891   5.227   2.471 -0.2245  1.3569 -0.3874
43504SOL     OW35641   6.375   1.352   8.806 -0.3247  0.2303 -0.2606
43504SOL    HW135642   6.373   1.405   8.886 -1.0178  0.1626 -0.2331
43504SOL    HW235643   6.285   1.325   8.793  0.1595 -1.7623  0.2737
43505SOL     OW35644   7.029   6.616   2.360 -0.4585  0.1664 -1.0724
43505SOL    HW135645   6.939   6.626   2.391 -0.1936 -0.7126  0.0410
43505SOL    HW235646   7.057   6.532   2.396  1.7319  1.6846  0.9579
43506SOL     OW35647   8.528   9.026   0.058 -0.0839  0.5721 -0.6001
43506SOL    HW135648   8.555   8.938   0.083  2.4056  1.6270  0.5213
43506SOL    HW235649   8.436   9.030   0.084  0.6064 -0.6433  2.2493
43507SOL     OW35650   5.837   0.176   8.759  0.4909  0.0628  0.3191
43507SOL    HW135651   5.748   0.208   8.746  0.1294 -1.2476 -0.5694
43507SOL    HW235652   5.879   0.186   8.674  0.9387 -0.0934  0.5213
43508SOL     OW35653   6.629  10.721   1.129 -0.2528  0.1732 -0.3760
43508SOL    HW135654   6.651  10.627   1.127  0.5812  0.3495  0.3549
43508SOL    HW235655   6.706  10.763   1.168 -0.8320  1.1039 -0.2223
43509SOL     OW35656   3.002   5.941   4.133 -0.1766 -0.3261 -0.0232
43509SOL    HW135657   3.092   5.951   4.166 -1.1449 -1.2200  3.1134
43509SOL    HW235658   2.988   6.017   4.078  2.7847 -0.6036 -1.2725
43510SOL     OW35659  10.234   0.088   3.874 -0.0744  0.1011 -0.6858
43510SOL    HW135660  10.250   0.005   3.830  0.7970 -0.5498  0.8147
43510SOL    HW235661  10.306   0.145   3.845  0.3785 -0.2579 -0.2730
43511SOL     OW35662   0.098   5.939   5.776  0.2549 -0.3168 -0.4735
43511SOL    HW135663   0.042   5.862   5.766  0.5422 -0.7736  1.2243
43511SOL    HW235664   0.043   6.004   5.820  1.0132 -0.7757  1.2229
43512SOL     OW35665   8.921   2.025   4.280  0.2874 -0.0404 -0.5254
43512SOL    HW135666   8.926   1.977   4.198 -1.9475  0.1261 -0.7768
43512SOL    HW235667   8.980   2.099   4.269  1.0414 -0.7701 -1.4478
43513SOL     OW35668   7.026   7.489   5.385 -0.3308  0.0032 -0.4133
43513SOL    HW135669   7.090   7.484   5.314  2.3557  1.1009  1.8709
43513SOL    HW235670   6.975   7.568   5.366  1.4138  1.1718 -0.2910
43514SOL     OW35671   6.414   2.852   1.657 -0.1665 -0.2179 -0.4060
43514SOL    HW135672   6.376   2.770   1.629  0.3584 -0.5352 -0.2072
43514SOL    HW235673   6.508   2.841   1.644  0.0614 -0.2721  1.1965
43515SOL     OW35674   3.009   4.312   5.599  0.1124  0.6665  0.0000
43515SOL    HW135675   3.084   4.313   5.659  0.2093 -1.1399 -0.0495
43515SOL    HW235676   2.934   4.336   5.653  0.2361 -0.7128  0.8062
43516SOL     OW35677   9.510   5.568   1.396 -0.0982 -0.5126 -0.6309
43516SOL    HW135678   9.566   5.626   1.345  1.2117 -1.8339 -0.7086
43516SOL    HW235679   9.512   5.484   1.350 -1.4452 -0.8349 -0.1541
43517SOL     OW35680   3.510   5.177  10.522  0.5134 -0.1491  0.6506
43517SOL    HW135681   3.536   5.116  10.591 -1.5702  1.6445  3.1265
43517SOL    HW235682   3.583   5.239  10.516  1.3745 -1.1998  0.1375
43518SOL     OW35683   6.222   4.387   8.392  0.2341 -0.2104 -0.4742
43518SOL    HW135684   6.177   4.369   8.309  0.5284 -0.1528 -0.6452
43518SOL    HW235685   6.196   4.476   8.415 -1.3957 -0.8896  0.4761
43519SOL     OW35686   5.177   8.063  10.653  0.5029 -0.1261  0.0148
43519SOL    HW135687   5.171   8.132  10.586 -1.1827 -1.5249 -1.3298
43519SOL    HW235688   5.271   8.052  10.667  0.9262 -0.0854 -2.4677
43520SOL     OW35689   1.942   5.451   6.279  0.2726  0.3574  0.3564
43520SOL    HW135690   1.968   5.508   6.352  2.4369 -2.5190  1.9799
43520SOL    HW235691   1.878   5.391   6.318  1.4576 -1.2060 -0.0352
43521SOL     OW35692   3.940   5.485   0.459 -0.3975  0.3041  0.0244
43521SOL    HW135693   3.934   5.572   0.499 -0.9992  0.9456 -1.4316
43521SOL    HW235694   3.858   5.442   0.483 -0.1509  0.1776  0.6474
43522SOL     OW35695   1.372   8.774   2.145  0.0859  0.2853  0.4511
43522SOL    HW135696   1.452   8.786   2.094 -0.0200  0.7080  0.3827
43522SOL    HW235697   1.323   8.854   2.131 -0.2293  0.1370  0.7106
43523SOL     OW35698   7.024  10.670   9.627  0.1086 -0.5287  0.1421
43523SOL    HW135699   6.930  10.671   9.645 -0.0870 -0.9223 -0.8199
43523SOL    HW235700   7.030  10.645   9.534  1.1052  0.5983 -0.1045
43524SOL     OW35701   6.303   5.712   9.894 -0.0351 -0.3053  0.8729
43524SOL    HW135702   6.312   5.622   9.863 -0.7454  0.2896 -1.1787
43524SOL    HW235703   6.300   5.765   9.814 -1.6478  1.3547  1.9697
43525SOL     OW35704  10.430  11.012   4.940 -0.0297  0.5842  0.8615
43525SOL    HW135705  10.461  11.004   4.850 -0.3222 -0.9359  0.8702
43525SOL    HW235706  10.337  10.988   4.934  0.5689 -2.2746  1.9522
43526SOL     OW35707   6.654   7.958  10.314 -0.4048 -0.1677  0.9294
43526SOL    HW135708   6.684   8.038  10.270  0.3126 -0.9502 -0.0185
43526SOL    HW235709   6.718   7.891  10.290 -1.6544 -1.3238  0.7450
43527SOL     OW35710   8.254   3.300   0.273  0.3949 -0.1490 -0.2848
43527SOL    HW135711   8.304   3.293   0.355  0.1904  0.6421 -0.0831
43527SOL    HW235712   8.163   3.306   0.302  0.0585 -2.8124 -0.6961
43528SOL     OW35713   3.119   3.720   7.567 -0.3656 -0.1466 -0.1175
43528SOL    HW135714   3.086   3.635   7.539  0.4797 -0.1543 -1.1161
43528SOL    HW235715   3.211   3.720   7.540 -0.5415  1.3662 -0.7507
43529SOL     OW35716   7.322   8.104   2.743 -0.0545 -0.2092 -0.0234
43529SOL    HW135717   7.230   8.082   2.759 -0.6592  1.7526 -0.7317
43529SOL    HW235718   7.334   8.089   2.649  1.2494 -3.5583  0.5944
43530SOL     OW35719   7.278   8.926   6.386 -0.1443  0.6113  0.8091
43530SOL    HW135720   7.282   9.020   6.371 -0.4601  0.4797 -0.1801
43530SOL    HW235721   7.322   8.912   6.469 -0.2628  1.6567  1.0485
43531SOL     OW35722  10.424   7.046   7.987 -0.1392 -0.0315  0.1957
43531SOL    HW135723  10.331   7.023   7.988 -0.1197 -0.1218  2.0040
43531SOL    HW235724  10.468   6.966   7.958 -0.5330 -0.4632  0.7559
43532SOL     OW35725   0.902   1.421   6.086  0.2574  0.0396  0.1195
43532SOL    HW135726   0.983   1.471   6.095  1.1158 -1.1592 -0.8059
43532SOL    HW235727   0.839   1.484   6.050  1.1384  0.6177 -0.4204
43533SOL     OW35728   8.532  10.468   5.089  0.6804 -0.4696 -0.2182
43533SOL    HW135729   8.503  10.468   5.180 -0.5480  3.4506 -0.5477
43533SOL    HW235730   8.623  10.497   5.092  0.6384 -0.3389 -0.2681
43534SOL     OW35731   8.054   8.234  10.096 -0.3747 -0.5404 -0.0310
43534SOL    HW135732   8.115   8.288  10.146  0.5173 -1.9988  0.5212
43534SOL    HW235733   7.969   8.278  10.105  0.0597  0.0338  1.5464
43535SOL     OW35734  10.706  11.252   4.063  0.5483 -0.6299 -0.2691
43535SOL    HW135735  10.636  11.224   4.004  1.7477 -0.9151 -1.5550
43535SOL    HW235736  10.659  11.287   4.139 -1.0245  1.1209 -1.9825
43536SOL     OW35737   0.371   4.757   4.707  0.0423 -0.2489  0.1930
43536SOL    HW135738   0.426   4.773   4.630  2.2818 -0.8856  1.6289
43536SOL    HW235739   0.284   4.738   4.670  1.3399 -1.7500 -2.2317
43537SOL     OW35740   6.397   4.965   3.293  0.3019  0.0119  0.1026
43537SOL    HW135741   6.384   4.947   3.386  1.5954  0.7515  0.4455
43537SOL    HW235742   6.389   5.060   3.286 -1.1682 -0.1757 -0.7827
43538SOL     OW35743   8.049   5.111   9.316  0.2522 -0.1439 -0.1204
43538SOL    HW135744   8.065   5.111   9.222  3.6550 -0.7303  0.3978
43538SOL    HW235745   8.081   5.026   9.346 -0.5058  0.1585  1.6226
43539SOL     OW35746   7.215   5.390   6.051 -0.1099  0.2190  0.4739
43539SOL    HW135747   7.256   5.389   6.138  1.0549  3.9975  0.0550
43539SOL    HW235748   7.280   5.353   5.992 -0.0234 -0.2242  0.8441
43540SOL     OW35749   1.215   0.089   9.946  0.1928 -0.1499 -0.1413
43540SOL    HW135750   1.270   0.138  10.007  0.7140  1.1560 -1.5947
43540SOL    HW235751   1.276   0.061   9.877 -0.0831 -3.0180  0.7472
43541SOL     OW35752   5.981  11.229   4.768 -0.0470 -0.1238  0.0732
43541SOL    HW135753   5.956  11.167   4.837  2.7019 -0.7717  0.5744
43541SOL    HW235754   6.030  11.176   4.705  1.4191  1.2965 -0.0281
43542SOL     OW35755   8.888   6.298   7.398 -0.1127  0.0211 -0.9204
43542SOL    HW135756   8.811   6.288   7.342  0.2715  0.8704 -1.6020
43542SOL    HW235757   8.911   6.390   7.392  0.9379 -0.2164 -0.6878
43543SOL     OW35758   5.661   4.285   3.995  0.1586  0.0228  0.2213
43543SOL    HW135759   5.728   4.253   3.935 -0.7156  0.6212 -1.1175
43543SOL    HW235760   5.605   4.209   4.011 -0.2969  0.1565 -0.6983
43544SOL     OW35761   6.302   8.459   0.058  0.2352 -0.3304 -0.5539
43544SOL    HW135762   6.265   8.376   0.028 -0.0235 -0.1880 -0.6230
43544SOL    HW235763   6.275   8.465   0.150  2.5787 -1.6634  0.2841
43545SOL     OW35764   1.771   2.390   8.639 -0.3360  0.3336  0.2106
43545SOL    HW135765   1.849   2.445   8.627 -0.5220  0.5212 -0.1356
43545SOL    HW235766   1.741   2.409   8.728 -0.5283  0.9505  0.0101
43546SOL     OW35767   2.189   3.552   6.997 -0.2214 -0.3635  0.0101
43546SOL    HW135768   2.137   3.546   7.077 -0.9525  0.2660 -0.4194
43546SOL    HW235769   2.141   3.501   6.933  0.6066 -1.2584  0.0838
43547SOL     OW35770   5.791  10.487   3.063  0.6723 -0.1400 -0.2340
43547SOL    HW135771   5.792  10.498   3.158  0.0890 -3.5401  0.2339
43547SOL    HW235772   5.720  10.544   3.033  0.0326  0.0104  1.4983
43548SOL     OW35773   5.519   0.894   2.206 -0.0013  0.2462  0.0216
43548SOL    HW135774   5.496   0.949   2.281  2.4646  0.6090  0.5618
43548SOL    HW235775   5.613   0.877   2.216  0.1675 -0.5665 -2.4170
43549SOL     OW35776   2.161  10.514   3.885  0.1454 -0.1409  0.2188
43549SOL    HW135777   2.105  10.442   3.854 -0.6470  0.7543 -0.4306
43549SOL    HW235778   2.149  10.583   3.820  0.4281  0.8136  1.1828
43550SOL     OW35779   0.781   1.466   0.847  0.3532 -0.7663  0.3536
43550SOL    HW135780   0.874   1.465   0.868  0.4507 -1.2788 -0.0946
43550SOL    HW235781   0.767   1.389   0.792 -0.3886 -0.8365  0.6288
43551SOL     OW35782   6.072   0.325  10.283  0.5548  0.1707 -0.3010
43551SOL    HW135783   6.129   0.366  10.347  1.8595 -2.0398  0.0174
43551SOL    HW235784   5.984   0.332  10.321  0.7320  2.5276 -0.2388
43552SOL     OW35785   9.978   3.146  11.244 -0.5840  0.0600 -0.8201
43552SOL    HW135786  10.013   3.058  11.227  1.5176  0.6089  0.5837
43552SOL    HW235787   9.883   3.134  11.238 -0.2758 -1.8950 -2.5715
43553SOL     OW35788   6.266   0.096   3.082  0.1458 -0.3378 -0.1514
43553SOL    HW135789   6.232   0.090   2.993 -1.2120 -1.5911  0.4323
43553SOL    HW235790   6.273   0.190   3.099  0.4502 -0.0891 -1.5766
43554SOL     OW35791   6.993   9.510   5.144 -0.5989  0.7601 -0.5920
43554SOL    HW135792   6.980   9.517   5.239  1.9891 -0.2732 -0.1149
43554SOL    HW235793   6.941   9.434   5.118  0.9315 -0.6867  0.5016
43555SOL     OW35794   7.498   4.409  10.181 -0.2657 -0.3150 -0.0746
43555SOL    HW135795   7.533   4.493  10.151  0.3632 -0.0799  1.2765
43555SOL    HW235796   7.437   4.383  10.113  0.7488  0.4503 -1.3021
43556SOL     OW35797   8.404   5.987   7.981  0.1869  0.0126 -0.6852
43556SOL    HW135798   8.404   6.018   7.891 -0.5636  2.0990  0.0073
43556SOL    HW235799   8.319   5.945   7.993  0.1555  0.0314 -0.8563
43557SOL     OW35800   9.710   8.697   6.433 -0.4335  0.6476 -0.0152
43557SOL    HW135801   9.659   8.772   6.464 -1.9372 -0.3610 -0.0304
43557SOL    HW235802   9.747   8.658   6.512  0.9009  1.7591 -0.0555
43558SOL     OW35803  11.264   1.199   2.582  0.4043  0.0865 -0.1117
43558SOL    HW135804  11.271   1.294   2.593  2.3173  0.0389 -0.8050
43558SOL    HW235805  11.322   1.162   2.648  0.0662 -0.6045 -0.1913
43559SOL     OW35806   7.648   9.146   5.103  0.1216  0.0805  0.4003
43559SOL    HW135807   7.713   9.180   5.165 -0.1013  0.9714  0.1404
43559SOL    HW235808   7.660   9.199   5.024  0.9844 -1.6044 -0.6327
43560SOL     OW35809   1.971   9.707   5.660 -0.2392  0.6190 -0.5094
43560SOL    HW135810   1.915   9.668   5.593  0.5213 -0.5501 -0.4912
43560SOL    HW235811   1.976   9.640   5.729  3.1519 -0.3805 -1.6154
43561SOL     OW35812   0.394   6.955   8.712  0.2640 -0.4632 -0.2358
43561SOL    HW135813   0.302   6.983   8.714  0.4475  0.2040 -1.0507
43561SOL    HW235814   0.392   6.869   8.671  0.0484 -0.2410 -0.6990
43562SOL     OW35815   6.749   4.435  10.078 -0.1066  0.3106  0.6143
43562SOL    HW135816   6.685   4.482  10.024 -1.7264  0.4603  2.6152
43562SOL    HW235817   6.743   4.344  10.049 -0.1517  0.5761 -0.2233
43563SOL     OW35818   0.872   1.630   2.983  0.5088  0.1177  0.0215
43563SOL    HW135819   0.787   1.589   2.968 -0.0099  1.2356 -0.1022
43563SOL    HW235820   0.852   1.714   3.023  1.6288 -0.2568  1.4195
43564SOL     OW35821   7.764   4.694   8.092 -0.6495 -0.6410  0.1860
43564SOL    HW135822   7.855   4.725   8.099 -0.5479 -1.1289  1.0742
43564SOL    HW235823   7.772   4.605   8.058 -0.7468 -1.0026  1.1055
43565SOL     OW35824   7.663   8.582   6.301 -0.4079 -0.0981 -0.8681
43565SOL    HW135825   7.719   8.659   6.316 -0.1392 -0.5513  0.5516
43565SOL    HW235826   7.724   8.508   6.298 -0.6903 -0.2873 -1.9781
43566SOL     OW35827   0.371   3.264   7.478 -0.7256  0.5175 -0.1749
43566SOL    HW135828   0.304   3.274   7.410 -2.2853 -2.2325  0.9008
43566SOL    HW235829   0.417   3.183   7.455  2.5758  2.5404 -1.1157
43567SOL     OW35830   0.411   6.878   7.047 -0.0800 -0.6797  0.4223
43567SOL    HW135831   0.356   6.915   6.979  0.2337 -2.4975 -0.8699
43567SOL    HW235832   0.364   6.799   7.075  0.1759 -0.3625  1.7656
43568SOL     OW35833   9.676   2.534   2.862  0.6054 -0.0510 -0.1161
43568SOL    HW135834   9.736   2.603   2.891  0.3915  0.0763  0.0226
43568SOL    HW235835   9.699   2.519   2.770  1.8433 -1.0350  0.3287
43569SOL     OW35836   2.591   9.939  11.101  0.4676 -0.0058  0.7146
43569SOL    HW135837   2.683   9.960  11.117  0.7183  0.2927 -0.9865
43569SOL    HW235838   2.593   9.864  11.041 -0.3720  0.4983  0.0340
43570SOL     OW35839   3.670  10.768   7.217 -0.2840  0.3459  0.3317
43570SOL    HW135840   3.681  10.685   7.263 -2.7101 -0.7738 -0.9840
43570SOL    HW235841   3.623  10.824   7.280  1.6348  0.8798  1.3367
43571SOL     OW35842   2.897  10.186  10.958 -0.3704  0.0416 -0.4119
43571SOL    HW135843   2.841  10.191  11.036 -0.5680  0.3087 -0.5654
43571SOL    HW235844   2.856  10.247  10.896 -0.4814 -0.5184 -0.8919
43572SOL     OW35845   6.605   0.201  10.285 -0.9750  0.2474  0.2184
43572SOL    HW135846   6.601   0.141  10.210 -1.2222 -0.4082  0.7595
43572SOL    HW235847   6.525   0.254  10.277 -0.5218  0.8399 -0.5254
43573SOL     OW35848   5.523   6.445   2.212  0.0213 -0.3194  0.3671
43573SOL    HW135849   5.545   6.356   2.240  1.4132 -0.3298 -0.7225
43573SOL    HW235850   5.594   6.500   2.245 -0.4013  0.2682  0.3158
43574SOL     OW35851   8.567   4.785   7.179  0.4068  0.4630 -0.0721
43574SOL    HW135852   8.483   4.746   7.205 -0.3880  0.2037 -2.8242
43574SOL    HW235853   8.543   4.855   7.118  2.1771  0.5754 -0.6613
43575SOL     OW35854   2.707   9.484   6.949  0.2079  0.0682 -0.1000
43575SOL    HW135855   2.756   9.449   7.023 -1.0378  0.5032  0.9604
43575SOL    HW235856   2.708   9.414   6.884  0.9098 -0.5066  0.5282
43576SOL     OW35857   3.757  10.438  10.010 -0.4915 -0.0022  0.1025
43576SOL    HW135858   3.721  10.399   9.930 -1.2859  0.8717  0.0336
43576SOL    HW235859   3.682  10.477  10.054 -0.1733 -1.0711  1.6404
43577SOL     OW35860   2.577   1.235   1.531  0.1289  0.0302  0.1922
43577SOL    HW135861   2.543   1.298   1.595  0.1802  0.3737 -0.1156
43577SOL    HW235862   2.523   1.249   1.453 -0.9289 -1.4193  0.6402
43578SOL     OW35863   6.285   0.811   2.773  0.0615 -0.5576  0.0099
43578SOL    HW135864   6.291   0.906   2.781 -2.0391 -0.4371  0.4623
43578SOL    HW235865   6.303   0.794   2.680  0.2519  0.3119 -0.1197
43579SOL     OW35866   5.247   6.010   1.672 -0.0454 -0.7316 -0.2203
43579SOL    HW135867   5.211   6.029   1.586  1.0939 -0.7261 -0.7148
43579SOL    HW235868   5.172   6.008   1.731 -0.6218  1.3066 -0.8538
43580SOL     OW35869  10.136   4.815   0.073 -0.4855  0.0426  0.2433
43580SOL    HW135870  10.082   4.882   0.114 -0.4884 -0.1277  0.5196
43580SOL    HW235871  10.226   4.848   0.080 -0.7331  1.2982 -2.0662
43581SOL     OW35872   1.319   5.065   4.566  0.0801  0.4442 -0.2536
43581SOL    HW135873   1.241   5.057   4.622  1.5937 -0.6710  1.7437
43581SOL    HW235874   1.386   5.102   4.623  1.4706 -0.0719 -1.5236
43582SOL     OW35875   0.610   3.652   4.732 -0.4935  0.4824 -0.7039
43582SOL    HW135876   0.549   3.599   4.681  1.9824 -1.1674 -2.0514
43582SOL    HW235877   0.629   3.599   4.809  3.1202 -1.4247 -2.7509
43583SOL     OW35878   4.765   3.074   8.542  0.0203 -0.0417  0.1106
43583SOL    HW135879   4.700   3.045   8.477  0.0213  1.9345 -0.8180
43583SOL    HW235880   4.826   3.000   8.549 -2.0827 -1.7781  0.7125
43584SOL     OW35881   3.795   1.824   6.839 -1.0841  0.8263  0.5526
43584SOL    HW135882   3.854   1.757   6.806 -0.5481  1.2722  0.6105
43584SOL    HW235883   3.709   1.782   6.838 -0.5971 -0.1993  1.5644
43585SOL     OW35884   4.614   7.883   0.102  0.4091  0.2850  0.0848
43585SOL    HW135885   4.699   7.909   0.137  0.0983 -0.2712  1.2465
43585SOL    HW235886   4.581   7.818   0.163 -1.2707  1.1596  0.1353
43586SOL     OW35887   0.801   8.435   7.735  0.0860  0.7889  0.3169
43586SOL    HW135888   0.887   8.396   7.720  0.7480  2.5195 -0.4932
43586SOL    HW235889   0.788   8.493   7.660 -1.3127  1.3484  0.9901
43587SOL     OW35890   5.234   9.896   5.370  0.4264 -0.5362 -0.1483
43587SOL    HW135891   5.156   9.930   5.326  0.5970 -0.3027 -0.2725
43587SOL    HW235892   5.211   9.897   5.463  1.1876  2.0048  0.0720
43588SOL     OW35893   6.124   3.798  10.349  0.0882  0.1272  0.2062
43588SOL    HW135894   6.029   3.791  10.340  0.2070 -0.4071 -0.5859
43588SOL    HW235895   6.159   3.769  10.265  0.9575  0.2792  0.5103
43589SOL     OW35896   8.689   2.506   1.618 -0.2132 -0.3114 -0.2884
43589SOL    HW135897   8.774   2.531   1.581 -0.3946 -2.2626 -2.1493
43589SOL    HW235898   8.685   2.411   1.606 -0.9918 -0.8073  3.4117
43590SOL     OW35899  10.514   0.979   8.750 -0.2802 -0.0104 -0.2631
43590SOL    HW135900  10.477   0.926   8.821  0.7912 -0.9716 -0.4193
43590SOL    HW235901  10.446   0.980   8.683 -1.0394  0.3611  0.4911
43591SOL     OW35902   5.138   3.479   4.348  0.4127 -0.8795  0.1663
43591SOL    HW135903   5.093   3.556   4.382 -0.7521 -1.7917  0.7165
43591SOL    HW235904   5.230   3.492   4.373  0.7997  1.7592 -2.3577
43592SOL     OW35905   6.840   4.585   3.502 -0.0335  0.2191 -0.0780
43592SOL    HW135906   6.755   4.541   3.504  0.0521  0.0745  1.0031
43592SOL    HW235907   6.902   4.515   3.479 -0.2281  0.3814 -1.1313
43593SOL     OW35908   6.961   3.999   8.109  0.2100  0.1453 -0.5399
43593SOL    HW135909   7.053   4.017   8.089  1.1982 -0.2027  3.3918
43593SOL    HW235910   6.924   4.085   8.128  0.3323  0.0240  0.2474
43594SOL     OW35911   3.522   4.451   9.062 -0.2927 -0.7610 -0.5041
43594SOL    HW135912   3.436   4.462   9.021  0.0873 -1.7113 -1.6043
43594SOL    HW235913   3.583   4.489   8.999  0.1754 -0.9471 -0.1641
43595SOL     OW35914   0.734   8.627  10.613  0.0008 -0.4050 -0.0153
43595SOL    HW135915   0.760   8.536  10.630  1.0083  0.1940  1.8375
43595SOL    HW235916   0.639   8.626  10.618 -0.1501 -1.8244 -2.5620
43596SOL     OW35917   1.405   7.570   2.309 -0.1547 -0.3951 -0.4145
43596SOL    HW135918   1.345   7.592   2.380  0.3996  1.9141 -0.6337
43596SOL    HW235919   1.434   7.654   2.275 -0.5485 -1.4489 -3.5347
43597SOL     OW35920  10.038   5.846   1.204 -0.0646 -0.2814  0.0757
43597SOL    HW135921   9.957   5.893   1.186 -0.4648  0.4968  3.4323
43597SOL    HW235922  10.093   5.861   1.127 -2.4278  0.6945 -1.4504
43598SOL     OW35923   1.376  10.396   6.740  0.1103  0.4820 -0.3319
43598SOL    HW135924   1.295  10.420   6.694 -0.9633 -2.5483 -0.1476
43598SOL    HW235925   1.422  10.338   6.679  1.4319  1.0121  0.1525
43599SOL     OW35926   7.609   8.495   3.803  0.1767 -0.0888  0.9201
43599SOL    HW135927   7.650   8.524   3.884  1.4087 -0.4531  0.4344
43599SOL    HW235928   7.573   8.575   3.764  2.2647  0.5969  0.3189
43600SOL     OW35929   9.676   2.803   9.558  0.0962 -0.1924  0.4383
43600SOL    HW135930   9.664   2.898   9.549  0.4167 -0.1143  0.7979
43600SOL    HW235931   9.592   2.765   9.533  0.0750  0.1675 -0.0511
43601SOL     OW35932   7.930  11.155   9.584  0.1627  0.0351 -0.1687
43601SOL    HW135933   7.899  11.114   9.665 -1.5749 -1.3363 -1.4747
43601SOL    HW235934   7.982  11.088   9.541  3.0069  1.5184  0.8256
43602SOL     OW35935   8.042   5.169   4.885  0.1468  0.0986  0.2514
43602SOL    HW135936   8.030   5.255   4.844 -2.3637 -0.6229 -0.6501
43602SOL    HW235937   8.050   5.188   4.978  0.4434  1.3874 -0.0327
43603SOL     OW35938   7.996   4.928   1.736  0.0813 -0.2857  0.5577
43603SOL    HW135939   8.060   4.856   1.732  0.6708  0.0624  3.0028
43603SOL    HW235940   8.043   4.999   1.780 -1.8512  0.0864  2.0890
43604SOL     OW35941   0.043  10.656   5.668 -0.4994  0.1631 -0.1929
43604SOL    HW135942  -0.051  10.674   5.676 -0.7048 -0.7975 -0.4617
43604SOL    HW235943   0.056  10.640   5.575 -0.0452  0.4017 -0.1705
43605SOL     OW35944   1.562   9.924   9.229  0.1641  0.0517  0.4259
43605SOL    HW135945   1.492   9.919   9.294 -0.7361 -0.9638 -0.6041
43605SOL    HW235946   1.525   9.882   9.151  2.3717 -1.7422  0.2901
43606SOL     OW35947   2.868   2.871   2.287  0.0614 -0.0193  0.1071
43606SOL    HW135948   2.797   2.808   2.273 -1.0793  0.9300  1.4355
43606SOL    HW235949   2.868   2.885   2.382  2.5282 -0.5637  0.2263
43607SOL     OW35950   0.823   0.976   6.314 -0.3643  0.6502  0.2384
43607SOL    HW135951   0.773   0.897   6.333  1.9446 -1.3588 -1.7598
43607SOL    HW235952   0.873   0.992   6.394  1.4429 -1.7128 -0.3708
43608SOL     OW35953  11.314   3.184   1.476 -0.0307 -0.0479 -0.2104
43608SOL    HW135954  11.353   3.097   1.468 -0.2540 -0.1400 -0.3185
43608SOL    HW235955  11.352   3.220   1.556  0.5018 -0.0157 -0.4783
43609SOL     OW35956   6.291   6.882   5.556  0.0266 -0.0895 -0.1529
43609SOL    HW135957   6.283   6.930   5.474 -0.2176  0.6844  0.3188
43609SOL    HW235958   6.227   6.811   5.548 -0.3709  0.2948 -0.4173
43610SOL     OW35959   3.148   3.568   0.701  0.4842  0.7363 -0.5545
43610SOL    HW135960   3.205   3.511   0.754 -4.1985 -2.5895  1.2171
43610SOL    HW235961   3.162   3.656   0.737  0.3147 -0.8659  3.7035
43611SOL     OW35962   3.379   9.089   3.541 -0.6430 -0.0272 -0.0246
43611SOL    HW135963   3.305   9.085   3.480  0.8581 -1.8914 -1.7875
43611SOL    HW235964   3.455   9.061   3.489  0.9646 -0.1173  2.2850
43612SOL     OW35965   2.582   4.750   3.838  0.5732  0.5743  0.3713
43612SOL    HW135966   2.553   4.824   3.891 -2.6416  0.6946 -1.4232
43612SOL    HW235967   2.619   4.790   3.759 -2.3809  0.3445 -1.2033
43613SOL     OW35968   7.217   5.084   1.231  0.0880  0.3317  0.0597
43613SOL    HW135969   7.158   5.019   1.193  0.1917  0.0182  0.4256
43613SOL    HW235970   7.261   5.124   1.156 -1.8977  1.8444 -0.3297
43614SOL     OW35971   9.651   4.644   0.092  0.1354  0.3054 -0.6900
43614SOL    HW135972   9.577   4.653   0.151 -0.0887  1.4762 -1.1350
43614SOL    HW235973   9.722   4.610   0.147 -0.5671 -0.2706 -0.1413
43615SOL     OW35974   1.862   3.742   4.718  0.0072  0.2494 -0.8336
43615SOL    HW135975   1.893   3.816   4.771 -1.2441  1.7429 -2.1172
43615SOL    HW235976   1.917   3.745   4.640 -0.5525  0.3101 -1.2273
43616SOL     OW35977  10.687   2.398   7.447 -0.0347  1.0654  0.3128
43616SOL    HW135978  10.670   2.442   7.530 -0.6027 -1.4563  1.5861
43616SOL    HW235979  10.603   2.401   7.401  0.1702  2.0860 -0.0185
43617SOL     OW35980   2.675   4.620   9.866  0.6127  0.4399 -0.4508
43617SOL    HW135981   2.718   4.630   9.951 -3.0282 -1.4329  1.7040
43617SOL    HW235982   2.588   4.588   9.886 -0.1134 -0.8086 -4.9740
43618SOL     OW35983   1.549   1.280   9.887 -0.2684  0.5922  0.0410
43618SOL    HW135984   1.542   1.375   9.898  0.1331  0.4869  1.2213
43618SOL    HW235985   1.548   1.245   9.975 -0.9049 -0.5503 -0.4136
43619SOL     OW35986   0.320   1.671   9.269  0.2703 -0.2472 -0.2636
43619SOL    HW135987   0.415   1.666   9.277  0.0984 -0.1413  2.0722
43619SOL    HW235988   0.295   1.590   9.223  1.5491  0.0771 -1.5228
43620SOL     OW35989   2.857   6.865   2.818 -0.4879  0.1126  0.0358
43620SOL    HW135990   2.872   6.958   2.801  1.4557  0.1775  1.9443
43620SOL    HW235991   2.814   6.833   2.739 -0.3363  2.4255 -1.0176
43621SOL     OW35992   7.126   2.168   2.678 -0.1129 -0.0751  0.2469
43621SOL    HW135993   7.134   2.086   2.630  0.9703 -0.3217  0.8372
43621SOL    HW235994   7.037   2.168   2.712 -0.2630 -0.7842 -0.1507
43622SOL     OW35995   6.849   6.514   5.912  0.2134 -0.2849 -0.1768
43622SOL    HW135996   6.757   6.518   5.886 -0.1830 -2.1851  0.7881
43622SOL    HW235997   6.897   6.546   5.835 -1.1577 -1.3204 -1.5184
43623SOL     OW35998   4.961   2.142   3.914  0.2259 -0.3103  0.3766
43623SOL    HW135999   5.033   2.121   3.974 -0.1095  0.9238  1.2205
43623SOL    HW236000   4.884   2.149   3.969  0.2748  2.8841  0.1396
43624SOL     OW36001   2.040   1.566  11.052  1.0050 -0.2050  0.0363
43624SOL    HW136002   2.010   1.655  11.071 -0.4795 -0.5502 -0.6435
43624SOL    HW236003   2.016   1.552  10.960 -1.9627 -2.5352  1.0839
43625SOL     OW36004  10.401   8.234   4.681 -0.1853 -0.2609  0.0272
43625SOL    HW136005  10.375   8.187   4.760 -1.2531 -0.3169 -0.3552
43625SOL    HW236006  10.320   8.272   4.647  0.2335 -0.3534 -1.1133
43626SOL     OW36007   6.168   2.665   7.000 -0.3371  0.3029 -0.2824
43626SOL    HW136008   6.125   2.748   6.979 -1.2186  0.4437  1.9353
43626SOL    HW236009   6.253   2.691   7.035  0.4665  0.1365 -2.0544
43627SOL     OW36010   7.448   3.546   9.386  0.3077  0.6074  0.9390
43627SOL    HW136011   7.528   3.530   9.436  2.0466 -0.6171 -2.0879
43627SOL    HW236012   7.408   3.460   9.376 -0.2304  0.8972  0.5875
43628SOL     OW36013   4.452   6.060   2.919 -0.2130 -0.3455  0.3909
43628SOL    HW136014   4.421   5.975   2.951  0.7278 -0.6416  0.5361
43628SOL    HW236015   4.418   6.123   2.983 -1.6211 -0.5236 -0.1815
43629SOL     OW36016   3.384   0.387   6.447 -0.5866 -0.7224 -0.7778
43629SOL    HW136017   3.395   0.458   6.510 -0.3875  0.1052 -1.7302
43629SOL    HW236018   3.473   0.363   6.421 -0.6885 -0.4354 -1.4199
43630SOL     OW36019   2.878   7.258   1.498  0.6147  0.1595 -0.5298
43630SOL    HW136020   2.893   7.193   1.567 -0.7559  1.6935  1.2753
43630SOL    HW236021   2.791   7.237   1.464  0.7231  0.2469 -0.8666
43631SOL     OW36022  10.385   2.334   8.993 -0.0596  0.2389  0.0901
43631SOL    HW136023  10.311   2.322   8.932 -0.5231 -2.3748  1.1286
43631SOL    HW236024  10.463   2.323   8.938 -0.4156  1.8442 -0.7825
43632SOL     OW36025   8.263   8.209   1.986  0.0183 -0.0577  0.3748
43632SOL    HW136026   8.212   8.250   1.916  0.1237 -1.4889 -0.5574
43632SOL    HW236027   8.324   8.277   2.014 -0.0625  0.5459 -0.8866
43633SOL     OW36028   0.248   2.386   2.426  0.2761 -0.1640  1.2407
43633SOL    HW136029   0.289   2.300   2.420  0.2921 -0.1836  1.6223
43633SOL    HW236030   0.159   2.372   2.391 -0.5868 -0.9234  3.6246
43634SOL     OW36031   4.488   5.657   6.016 -0.1126  0.4734  0.1996
43634SOL    HW136032   4.463   5.568   5.994  1.8824  0.2565 -1.3168
43634SOL    HW236033   4.551   5.647   6.087  0.6776  0.6189 -0.4749
43635SOL     OW36034   3.955   1.678   1.351 -0.7714  0.3721 -0.0068
43635SOL    HW136035   3.977   1.706   1.440 -0.9932 -0.7972  0.4203
43635SOL    HW236036   4.032   1.630   1.321 -0.0564  2.0965 -1.0501
43636SOL     OW36037   5.727   7.173   4.558 -0.0698  0.3267  0.3602
43636SOL    HW136038   5.654   7.144   4.612 -0.4208  0.1336 -0.2107
43636SOL    HW236039   5.745   7.262   4.587  1.3773 -0.6305  2.5179
43637SOL     OW36040   6.468   0.965   6.300 -0.4323 -0.0689  0.1716
43637SOL    HW136041   6.465   1.042   6.245  2.4359 -0.7057 -0.9903
43637SOL    HW236042   6.380   0.927   6.295 -0.5804  0.5994 -2.9197
43638SOL     OW36043   1.149   9.964   7.465  0.1411  0.0946 -0.1146
43638SOL    HW136044   1.110  10.023   7.530 -0.1336 -0.5415  0.3022
43638SOL    HW236045   1.177  10.022   7.394  1.6462  0.9664  1.1450
43639SOL     OW36046   5.326   9.395   9.417 -0.0292  0.1484 -0.1416
43639SOL    HW136047   5.269   9.399   9.494 -0.7718 -0.9538 -0.6151
43639SOL    HW236048   5.375   9.314   9.428  1.3116  0.9784  0.1510
43640SOL     OW36049   7.706  10.978   0.130  0.2959  0.2212 -0.1833
43640SOL    HW136050   7.670  10.987   0.042 -0.0362  1.3923  0.0652
43640SOL    HW236051   7.728  10.886   0.137 -0.1641  0.0132 -1.3060
43641SOL     OW36052   1.208   0.502   6.745  0.6024 -0.3815 -0.6950
43641SOL    HW136053   1.117   0.476   6.754 -0.2363  1.4814 -3.0590
43641SOL    HW236054   1.204   0.594   6.720  3.2089  0.2054  0.9123
43642SOL     OW36055   3.377   5.670   7.764  0.0948 -0.1822  0.8102
43642SOL    HW136056   3.436   5.594   7.758  0.4566  0.1484  0.0554
43642SOL    HW236057   3.353   5.674   7.856  1.7865  0.0646  1.2675
43643SOL     OW36058  10.919  11.257   0.574 -0.4444 -0.3416  0.5054
43643SOL    HW136059  11.008  11.222   0.572  0.0505  0.8129  1.7028
43643SOL    HW236060  10.864  11.180   0.588  0.4134 -0.9849  0.4141
43644SOL     OW36061   2.933   4.106   3.100  0.9008 -0.2647 -0.0307
43644SOL    HW136062   2.879   4.041   3.146 -0.0446  0.6487  0.1479
43644SOL    HW236063   2.967   4.058   3.024  0.5909 -1.1059  0.3471
43645SOL     OW36064   4.688   4.856   9.787 -0.5683  0.0706 -0.0080
43645SOL    HW136065   4.696   4.778   9.841 -0.5024  0.0980  0.0216
43645SOL    HW236066   4.622   4.833   9.721 -2.1789  0.7249  1.3252
43646SOL     OW36067   1.333   5.626   3.857 -0.8783  0.0229  0.0490
43646SOL    HW136068   1.284   5.708   3.858 -0.2746  0.3822  0.4533
43646SOL    HW236069   1.406   5.641   3.917  0.3917 -0.0997 -1.4481
43647SOL     OW36070  10.496   5.293   7.609 -0.2438  0.6274 -0.0088
43647SOL    HW136071  10.453   5.262   7.529  0.1033 -0.0885  0.0773
43647SOL    HW236072  10.565   5.352   7.578 -0.9151  1.3306 -0.1727
43648SOL     OW36073   0.000   4.514   7.023  0.5244  0.0532 -0.2067
43648SOL    HW136074  -0.048   4.567   7.086  2.5502  1.6484  0.0295
43648SOL    HW236075   0.064   4.465   7.075 -0.0912 -1.2408 -0.6368
43649SOL     OW36076   6.937   8.377   9.465  0.0448 -0.6341 -0.0164
43649SOL    HW136077   6.862   8.403   9.411  1.0108 -1.5116 -1.8178
43649SOL    HW236078   6.900   8.366   9.553 -1.5045  1.0863 -0.4065
43650SOL     OW36079   4.586   3.478   0.534  0.4773 -0.1364 -0.4161
43650SOL    HW136080   4.619   3.511   0.617  2.4613  1.8781 -1.9485
43650SOL    HW236081   4.645   3.406   0.511 -0.7745 -1.4641  0.4558
43651SOL     OW36082   7.196   1.761   4.665  0.9323  0.0877  0.1163
43651SOL    HW136083   7.261   1.701   4.628 -1.1657 -0.8191 -2.2190
43651SOL    HW236084   7.156   1.711   4.736 -0.7109 -1.3220 -1.7309
43652SOL     OW36085   9.784   6.409   7.524  0.7788 -0.0223 -0.2386
43652SOL    HW136086   9.821   6.490   7.558  0.4077  0.0241  0.0565
43652SOL    HW236087   9.705   6.436   7.477  0.0318 -0.3218  0.8149
43653SOL     OW36088   0.281   9.019   6.870  0.2040 -0.5166  0.4287
43653SOL    HW136089   0.233   8.947   6.911  0.7251 -2.1493 -1.7101
43653SOL    HW236090   0.367   9.018   6.913  0.1754 -1.1327  0.4834
43654SOL     OW36091   5.666   7.810   0.858  0.4374  0.1645  0.4531
43654SOL    HW136092   5.587   7.813   0.912  0.5508 -1.3754  0.7254
43654SOL    HW236093   5.635   7.831   0.770  0.1214  1.8600  0.9506
43655SOL     OW36094   1.676   1.487   7.422  0.6301 -0.1486  0.0818
43655SOL    HW136095   1.624   1.564   7.400  2.7582  1.9066  1.8700
43655SOL    HW236096   1.766   1.519   7.426  1.5691 -2.7264  0.9094
43656SOL     OW36097   5.956  11.143   7.611 -0.1734 -0.4912 -0.1170
43656SOL    HW136098   6.033  11.101   7.572  0.1858  0.6062 -0.5949
43656SOL    HW236099   5.982  11.162   7.701  0.1678  0.0144 -0.3211
43657SOL     OW36100   6.068   9.599  10.732  0.1853 -0.5132 -0.8414
43657SOL    HW136101   5.986   9.641  10.756  0.8023  0.9091 -1.1812
43657SOL    HW236102   6.075   9.524  10.792 -0.2323  0.6806  0.7274
43658SOL     OW36103   1.422   2.533   5.072 -0.4608 -0.0813 -0.6787
43658SOL    HW136104   1.461   2.541   5.158  0.3156 -1.0519 -0.9386
43658SOL    HW236105   1.341   2.483   5.086 -1.3848  1.5015 -0.2209
43659SOL     OW36106   9.125   5.552   1.945 -0.1242 -0.6201 -0.1213
43659SOL    HW136107   9.082   5.477   1.986  0.9199 -2.0048 -1.4728
43659SOL    HW236108   9.107   5.541   1.851  1.2609  0.0027 -0.4784
43660SOL     OW36109   0.586  10.497   0.272  0.0488  0.1460 -0.5379
43660SOL    HW136110   0.667  10.493   0.221 -0.0501 -0.4254 -0.6586
43660SOL    HW236111   0.604  10.443   0.349 -0.5493 -0.7995 -1.0503
43661SOL     OW36112   8.687   1.971  10.781 -0.0414 -0.1219 -0.2031
43661SOL    HW136113   8.718   1.970  10.872 -1.2862 -0.1343  0.2428
43661SOL    HW236114   8.647   2.057  10.771 -0.4122 -0.3334 -0.5535
43662SOL     OW36115   0.162   1.684   5.915  0.0042  0.7766  0.3432
43662SOL    HW136116   0.196   1.767   5.882 -0.5465  0.8292 -0.0804
43662SOL    HW236117   0.152   1.629   5.837  0.7280  0.1810  0.6607
43663SOL     OW36118   0.925   8.635   7.153 -0.2802  0.0298  0.1163
43663SOL    HW136119   0.831   8.649   7.138 -0.0448  2.4191  0.7185
43663SOL    HW236120   0.966   8.716   7.126  1.0865  0.9618  4.5669
43664SOL     OW36121   4.957   7.853  10.006  0.3062 -0.0500  0.9022
43664SOL    HW136122   4.979   7.771   9.962  0.2447  0.1348  0.5172
43664SOL    HW236123   5.024   7.864  10.074  2.7633  1.5854 -1.6324
43665SOL     OW36124   9.206   6.082   9.934  0.0793  0.1210 -0.0189
43665SOL    HW136125   9.116   6.049   9.927 -0.2644  1.1274 -0.4821
43665SOL    HW236126   9.199   6.175   9.911  1.2409  0.2011 -0.0698
43666SOL     OW36127   6.196   5.659   6.490  0.2761 -0.1870 -0.0259
43666SOL    HW136128   6.256   5.589   6.464  0.9617 -0.2881  1.7808
43666SOL    HW236129   6.135   5.617   6.551 -0.5708  0.3251 -0.5061
43667SOL     OW36130   9.735   0.474  10.964  0.2649 -0.0835  0.2954
43667SOL    HW136131   9.778   0.529  11.030  1.7300  3.2801 -3.2699
43667SOL    HW236132   9.805   0.417  10.932 -0.0528 -0.5956  0.5124
43668SOL     OW36133   5.231   7.161  10.015 -0.0957 -0.2245 -0.0576
43668SOL    HW136134   5.225   7.218   9.938  2.0303 -0.9289 -0.7784
43668SOL    HW236135   5.141   7.157  10.048 -0.4859  2.6493 -0.6193
43669SOL     OW36136   4.957   2.351   6.189 -0.2858  0.0798 -0.2697
43669SOL    HW136137   4.957   2.445   6.176 -1.4924  0.1120 -0.0190
43669SOL    HW236138   4.930   2.338   6.280  2.5366 -0.4051  0.5541
43670SOL     OW36139   0.778   6.735  10.779 -0.8042  0.1524  0.6577
43670SOL    HW136140   0.803   6.687  10.700  0.0141 -0.6173  1.3831
43670SOL    HW236141   0.707   6.684  10.817  1.1141 -1.3619  2.2776
43671SOL     OW36142  10.568   1.227   5.712  0.2272 -0.1156  1.2202
43671SOL    HW136143  10.475   1.237   5.692  0.5138  1.1433  0.4287
43671SOL    HW236144  10.572   1.218   5.807 -0.8240 -1.8448  1.1255
43672SOL     OW36145   4.666   7.349   9.347 -0.2538  0.2343  0.2661
43672SOL    HW136146   4.659   7.268   9.297 -0.7775 -0.3147  1.2050
43672SOL    HW236147   4.583   7.356   9.393 -0.4323  1.6113 -0.2484
43673SOL     OW36148  10.382   0.941   2.522 -0.4037  0.1798 -0.4395
43673SOL    HW136149  10.385   0.996   2.600 -0.3451 -1.3157  0.6380
43673SOL    HW236150  10.319   0.873   2.543 -0.2850 -0.3218 -1.6577
43674SOL     OW36151   1.374   6.664   6.466 -0.1597 -0.3995 -0.6545
43674SOL    HW136152   1.413   6.700   6.546  1.8478 -1.5297 -1.0981
43674SOL    HW236153   1.317   6.734   6.434 -0.3322  0.3768  1.3138
43675SOL     OW36154   1.028   4.184   9.233 -0.2648 -0.1797 -0.6424
43675SOL    HW136155   1.068   4.189   9.320 -1.4240 -0.3258 -0.1040
43675SOL    HW236156   1.019   4.090   9.216 -1.1700 -0.1335 -0.4058
43676SOL     OW36157   5.241  10.312  10.903  0.3094 -0.0767  0.6575
43676SOL    HW136158   5.329  10.303  10.938  0.4374 -1.7213 -0.0259
43676SOL    HW236159   5.185  10.265  10.965 -0.0054  0.4525  0.7788
43677SOL     OW36160   3.971   2.836   4.179  0.2550 -0.1195  0.2295
43677SOL    HW136161   4.042   2.796   4.128 -0.4233 -0.1014 -0.7487
43677SOL    HW236162   4.016   2.883   4.249  1.1790 -0.6832  0.0356
43678SOL     OW36163   2.695   8.557  11.114 -0.0991  0.8607 -0.5594
43678SOL    HW136164   2.605   8.588  11.119 -0.0356  1.1928 -1.3920
43678SOL    HW236165   2.687   8.465  11.090 -0.2753  0.3082  1.5339
43679SOL     OW36166   7.404  10.521   3.648  0.1403  0.2095  0.5102
43679SOL    HW136167   7.327  10.477   3.684  0.3850 -0.4544  0.2350
43679SOL    HW236168   7.478  10.466   3.675  0.4736  0.6003  0.3940
43680SOL     OW36169   0.215  11.187   3.818 -0.1004  0.2388 -0.3818
43680SOL    HW136170   0.169  11.111   3.782 -0.2641 -0.8654  2.0812
43680SOL    HW236171   0.148  11.236   3.865  0.4147  0.8500 -0.2756
43681SOL     OW36172   5.994   8.790   6.019  0.1634  0.4155  0.0718
43681SOL    HW136173   5.991   8.774   5.924  0.1676  0.4432  0.0667
43681SOL    HW236174   5.991   8.886   6.026 -0.4592  0.3955  0.1248
43682SOL     OW36175   9.271   8.160   3.306  0.1574  0.6895 -0.7439
43682SOL    HW136176   9.345   8.107   3.334 -1.4651 -1.7776 -0.9794
43682SOL    HW236177   9.309   8.228   3.251  2.5867  1.4546  1.7694
43683SOL     OW36178   6.286   1.808   5.070 -0.2607 -0.0105  0.4851
43683SOL    HW136179   6.202   1.847   5.046 -0.0769 -0.1010 -0.3256
43683SOL    HW236180   6.300   1.739   5.005  1.6221  1.6299 -0.9155
43684SOL     OW36181   5.664  10.985   1.352 -0.3836 -0.0660  0.1354
43684SOL    HW136182   5.653  11.059   1.412 -3.2454 -1.7512  1.7811
43684SOL    HW236183   5.706  10.917   1.405 -0.6556 -0.7168 -0.4752
43685SOL     OW36184  11.293   9.028   0.043 -0.7624 -0.4528 -0.4523
43685SOL    HW136185  11.346   9.082  -0.015  0.0857  0.0957  0.7932
43685SOL    HW236186  11.203   9.043   0.015 -0.5544  1.7036 -0.0869
43686SOL     OW36187   8.225   9.291  11.108  0.0681 -0.2333  0.0315
43686SOL    HW136188   8.283   9.267  11.036 -1.4343 -1.9923 -0.6534
43686SOL    HW236189   8.282   9.330  11.174  1.5830  0.6356 -1.7656
43687SOL     OW36190   6.717   8.758   5.054 -0.0598 -0.3227  0.3217
43687SOL    HW136191   6.635   8.807   5.043  0.2462  0.4232  1.2380
43687SOL    HW236192   6.743   8.733   4.966 -0.7827  0.2472 -0.0555
43688SOL     OW36193   0.130   4.867   2.909  0.6497 -0.8385 -0.4093
43688SOL    HW136194   0.213   4.864   2.957  0.7997 -1.5837 -0.7007
43688SOL    HW236195   0.080   4.794   2.945 -0.6459  0.7488  1.1153
43689SOL     OW36196   6.806   3.660   5.700  0.0540 -0.1313 -0.2022
43689SOL    HW136197   6.840   3.716   5.630  0.1606 -1.1370 -0.9695
43689SOL    HW236198   6.882   3.642   5.756  0.5379 -1.4060 -1.2525
43690SOL     OW36199   9.909   8.367   3.686  0.3904 -0.2647  0.1971
43690SOL    HW136200   9.863   8.284   3.700  0.8853 -0.3007  1.7108
43690SOL    HW236201   9.928   8.399   3.774  1.2844  0.8527 -0.3907
43691SOL     OW36202   1.079  10.469   4.000  0.5918  0.4164  0.8036
43691SOL    HW136203   0.999  10.461   4.052  0.8574 -0.1287  1.1384
43691SOL    HW236204   1.149  10.460   4.065  0.9190  1.0366  0.5319
43692SOL     OW36205   0.978  11.067   0.296 -0.2492  0.1542 -0.1948
43692SOL    HW136206   0.931  11.041   0.375 -0.0304  0.1023 -0.0809
43692SOL    HW236207   1.029  11.144   0.321  1.2191 -0.9162  0.2184
43693SOL     OW36208   4.182   9.154   2.010 -0.2562 -0.6060 -0.0819
43693SOL    HW136209   4.159   9.207   2.086 -2.0494  0.3502 -1.2558
43693SOL    HW236210   4.127   9.076   2.018  0.9940 -1.4438  0.6216
43694SOL     OW36211   8.176   1.097   0.863 -0.3719 -0.0606  0.5518
43694SOL    HW136212   8.134   1.027   0.813 -0.1945  0.4512 -0.3124
43694SOL    HW236213   8.106   1.160   0.879 -0.1283  0.4018 -0.1850
43695SOL     OW36214   2.213   7.430   6.967  0.2108  0.4260 -0.3801
43695SOL    HW136215   2.245   7.464   7.051 -1.3771 -0.7066  0.7087
43695SOL    HW236216   2.152   7.497   6.936  0.3590  0.5759 -0.3525
43696SOL     OW36217   5.760   8.981  10.657  0.0011 -0.0733  0.0894
43696SOL    HW136218   5.776   9.072  10.685  0.3822 -0.0433 -0.2186
43696SOL    HW236219   5.727   8.938  10.735 -1.6398  0.7065 -0.1546
43697SOL     OW36220   4.887  10.818   8.841 -1.5767  0.0810  0.2720
43697SOL    HW136221   4.817  10.771   8.795 -0.6081 -0.9072 -0.2018
43697SOL    HW236222   4.952  10.836   8.774 -0.3981 -0.8905  1.1366
43698SOL     OW36223   3.665   4.435   3.894  0.4969  0.2985 -0.0024
43698SOL    HW136224   3.622   4.517   3.919 -0.6359 -0.5593  0.9432
43698SOL    HW236225   3.711   4.408   3.973 -1.7795 -1.6084  0.7544
43699SOL     OW36226  11.045   8.041   8.999  0.4004  0.5466  0.3577
43699SOL    HW136227  11.103   8.114   9.020  0.4562  0.4182  0.6674
43699SOL    HW236228  11.046   8.036   8.904  0.9434  0.5062  0.3657
43700SOL     OW36229   2.026   3.717   2.621  0.5886 -0.3736  0.6176
43700SOL    HW136230   1.995   3.744   2.535  0.5416 -0.6235  0.5578
43700SOL    HW236231   1.949   3.724   2.678  0.5098 -0.6524  0.5434
43701SOL     OW36232   7.631   5.419   3.498 -0.1439  0.1596 -0.0235
43701SOL    HW136233   7.727   5.415   3.500 -0.0639  1.1869 -1.4061
43701SOL    HW236234   7.609   5.503   3.537 -0.4304  0.4878 -0.8892
43702SOL     OW36235   9.537   4.523   8.127 -0.2316 -0.2379 -0.4792
43702SOL    HW136236   9.473   4.593   8.116  0.5621  0.2460 -2.1513
43702SOL    HW236237   9.611   4.564   8.170  0.2780 -0.0203 -1.5576
43703SOL     OW36238   3.982   0.218   6.176 -0.2564  0.0211  0.4171
43703SOL    HW136239   3.902   0.188   6.218 -0.1627 -0.8355  0.0109
43703SOL    HW236240   4.015   0.287   6.233 -1.3308  0.4422  0.5298
43704SOL     OW36241   1.686  10.999   7.904  0.0560  0.6668 -0.0403
43704SOL    HW136242   1.716  11.003   7.994  1.8997 -0.0465 -0.5838
43704SOL    HW236243   1.764  10.971   7.854 -1.0912  0.4117 -1.7455
43705SOL     OW36244   2.778   0.010   8.259 -0.4685 -0.1586  0.2339
43705SOL    HW136245   2.697   0.060   8.254 -0.3372  0.0312  0.0097
43705SOL    HW236246   2.846   0.075   8.276 -0.2361 -0.2023 -0.4977
43706SOL     OW36247   5.132   2.421   9.827 -0.0734  0.9497  0.6541
43706SOL    HW136248   5.189   2.428   9.903 -2.5554  1.7890  2.5148
43706SOL    HW236249   5.047   2.451   9.858 -1.4872 -0.0116 -2.1018
43707SOL     OW36250   2.964  10.705  10.296  0.1978 -0.5794  0.0716
43707SOL    HW136251   2.928  10.786  10.331 -0.3215 -0.8262  0.1105
43707SOL    HW236252   2.888  10.657  10.263  0.3736 -1.5450  1.0486
43708SOL     OW36253   4.221   5.941   8.057  0.2744  0.4398  0.1279
43708SOL    HW136254   4.187   5.945   7.968  1.6822 -0.8236 -0.4923
43708SOL    HW236255   4.309   5.905   8.048 -0.1843 -1.3336  2.1773
43709SOL     OW36256   5.323   9.701   4.359 -0.2353  0.0046  0.0474
43709SOL    HW136257   5.372   9.681   4.438 -2.2323 -2.5679  0.7109
43709SOL    HW236258   5.389   9.698   4.289  1.2167  0.4403  1.3637
43710SOL     OW36259  10.205   5.307   2.870 -0.0788 -0.2761  0.4711
43710SOL    HW136260  10.255   5.386   2.889  0.3652 -0.3166 -0.5087
43710SOL    HW236261  10.115   5.337   2.859 -0.0010  0.0193  0.6458
43711SOL     OW36262   7.953   7.769   4.876 -0.1180 -0.5248  0.3666
43711SOL    HW136263   7.880   7.726   4.918 -0.0355 -1.6997 -0.6636
43711SOL    HW236264   8.030   7.716   4.900  0.3587  0.5248  1.2015
43712SOL     OW36265   1.787   8.283   7.304 -0.1723 -0.7959 -0.4606
43712SOL    HW136266   1.872   8.319   7.282 -0.7046  0.5496 -0.3837
43712SOL    HW236267   1.748   8.258   7.220 -0.9711  1.5313 -0.8334
43713SOL     OW36268   5.919   3.948   9.284 -0.1219  0.6943  0.9933
43713SOL    HW136269   5.982   3.878   9.302  1.2877  1.6701 -0.1046
43713SOL    HW236270   5.881   3.926   9.199  0.1119  1.0923  0.7810
43714SOL     OW36271   7.391   8.137   6.678 -0.3861 -0.3082 -0.3427
43714SOL    HW136272   7.312   8.135   6.732 -1.1024  1.1206 -1.2945
43714SOL    HW236273   7.386   8.058   6.625 -1.0935 -0.3089 -0.2735
43715SOL     OW36274   0.337   3.231   3.721 -0.1499 -0.1304  0.0595
43715SOL    HW136275   0.362   3.258   3.809 -0.7788 -0.0223  0.2050
43715SOL    HW236276   0.317   3.138   3.729 -0.1557 -0.1330  0.0170
43716SOL     OW36277   7.159   3.379   8.430 -0.4853  0.0481 -0.8160
43716SOL    HW136278   7.156   3.342   8.342 -0.8437 -1.8346 -0.0324
43716SOL    HW236279   7.138   3.305   8.488 -0.0228  1.2060  0.8587
43717SOL     OW36280   2.999   4.332   4.387 -0.1214  0.2708 -0.0508
43717SOL    HW136281   2.926   4.304   4.442  0.4625 -0.3266  0.4285
43717SOL    HW236282   2.969   4.413   4.347 -1.6326 -0.7697 -1.0544
43718SOL     OW36283   0.776   7.698   8.307  0.7939 -0.3679 -0.2108
43718SOL    HW136284   0.834   7.706   8.383  0.8563  0.8394 -0.3731
43718SOL    HW236285   0.794   7.776   8.254 -2.0401  0.8309  0.4737
43719SOL     OW36286   3.749   9.433   1.449  0.8422  0.2733  0.0740
43719SOL    HW136287   3.761   9.404   1.358  0.0415  0.6087 -0.1426
43719SOL    HW236288   3.693   9.366   1.488 -0.7556  1.3311 -0.3403
43720SOL     OW36289   9.268   7.319   9.342  0.0265 -0.1290 -0.1736
43720SOL    HW136290   9.284   7.331   9.248 -0.8347  1.0974 -0.1689
43720SOL    HW236291   9.173   7.331   9.352  0.1751  0.1640  0.9176
43721SOL     OW36292   2.794  10.190   8.907 -0.1194  0.7558  0.6753
43721SOL    HW136293   2.859  10.145   8.961 -0.2094  2.2432  2.0526
43721SOL    HW236294   2.798  10.146   8.822 -0.5304 -2.1360  2.1145
43722SOL     OW36295   9.923   5.501   5.560  0.3047 -0.6076  0.4375
43722SOL    HW136296   9.922   5.417   5.607 -0.4627 -0.2107  1.1656
43722SOL    HW236297   9.846   5.547   5.594 -0.3742 -0.3887 -1.3745
43723SOL     OW36298   7.156   8.658   8.333  0.7472  0.2635  0.0405
43723SOL    HW136299   7.105   8.651   8.414  2.5134  0.9412  1.2325
43723SOL    HW236300   7.105   8.608   8.269  0.2935 -1.9118  2.0305
43724SOL     OW36301   7.104  11.315   9.202 -0.0676 -0.2563 -0.0125
43724SOL    HW136302   7.150  11.320   9.286 -1.7623  0.1307  0.9256
43724SOL    HW236303   7.051  11.236   9.209 -0.7246  0.1399 -0.4425
43725SOL     OW36304   1.121  10.208   9.268  0.0973 -0.5383 -0.3664
43725SOL    HW136305   1.044  10.247   9.228  0.6050  0.3631 -0.4664
43725SOL    HW236306   1.160  10.279   9.320  0.5541 -1.1389  0.1231
43726SOL     OW36307   0.737   9.979   9.359  0.4419 -0.1484 -0.0958
43726SOL    HW136308   0.684   9.986   9.438 -0.4689 -0.5790 -0.6618
43726SOL    HW236309   0.679  10.008   9.288  1.8253  1.9839 -0.4031
43727SOL     OW36310   9.071   1.568   7.834 -0.1493 -0.2274 -0.0880
43727SOL    HW136311   9.010   1.613   7.777  0.1807 -0.0553 -0.3058
43727SOL    HW236312   9.017   1.506   7.884 -0.1538 -1.8973 -2.0990
43728SOL     OW36313   2.420   0.338   3.451  0.3008  0.0496  0.0328
43728SOL    HW136314   2.400   0.373   3.538  0.1594 -0.1714  0.0904
43728SOL    HW236315   2.340   0.292   3.425  0.1051  0.6720 -0.4908
43729SOL     OW36316   8.917   0.042   6.922 -0.0144 -0.2244 -0.4277
43729SOL    HW136317   8.870   0.124   6.907  0.3827 -0.1020 -1.0276
43729SOL    HW236318   8.855  -0.026   6.894  0.3497 -0.0406 -1.7079
43730SOL     OW36319   3.995   1.661   4.716 -0.3418 -0.2724  0.3407
43730SOL    HW136320   4.015   1.744   4.673 -1.0623 -1.4844 -2.4751
43730SOL    HW236321   3.956   1.607   4.647 -0.5442 -2.7077  2.2775
43731SOL     OW36322   8.440   4.428   3.014  0.3327  0.0897  0.3780
43731SOL    HW136323   8.440   4.408   2.921 -0.0423 -1.4171  0.6941
43731SOL    HW236324   8.371   4.373   3.051  0.4508  0.7022  1.5300
43732SOL     OW36325   0.536   5.125   4.524 -0.2986 -0.3444 -0.0153
43732SOL    HW136326   0.474   5.085   4.463  0.1277 -0.8249 -0.1345
43732SOL    HW236327   0.615   5.139   4.472 -0.0525 -0.4296  0.3389
43733SOL     OW36328   7.203   4.094   8.750  0.1110 -0.0694  0.7323
43733SOL    HW136329   7.154   4.030   8.699 -2.1924  1.3944  1.0306
43733SOL    HW236330   7.142   4.168   8.761  1.8505  1.1675  2.4366
43734SOL     OW36331   2.642   0.320   5.884 -0.1182 -0.0283  0.1406
43734SOL    HW136332   2.570   0.264   5.856 -0.4157  0.8647 -0.9014
43734SOL    HW236333   2.682   0.351   5.803  2.6705 -2.0134  0.6767
43735SOL     OW36334   8.897   0.479   1.685 -0.3885  0.7692 -0.2646
43735SOL    HW136335   8.902   0.412   1.616  0.6054  2.0034 -1.4009
43735SOL    HW236336   8.827   0.447   1.743  0.4294 -1.5410 -0.4657
43736SOL     OW36337   9.713  10.911   2.602  0.0807  0.5974 -0.5459
43736SOL    HW136338   9.777  10.980   2.586  2.8257 -1.7269 -0.2459
43736SOL    HW236339   9.709  10.905   2.698  1.3775 -0.8837 -0.5459
43737SOL     OW36340   9.500   6.947  10.033  0.2182  0.6157  0.3596
43737SOL    HW136341   9.420   6.995  10.013 -1.0453 -2.0565 -1.1707
43737SOL    HW236342   9.477   6.889  10.105  0.5788 -0.6936 -0.5769
43738SOL     OW36343   1.899   2.250  10.717  0.0179 -0.3669  0.0602
43738SOL    HW136344   1.900   2.322  10.654  0.2436 -0.3533  0.0795
43738SOL    HW236345   1.870   2.174  10.667 -0.9310 -0.1045  0.2077
43739SOL     OW36346   1.018   5.680   2.164  0.1741  0.0040  0.2819
43739SOL    HW136347   0.944   5.695   2.106  0.7494 -0.1810 -0.5160
43739SOL    HW236348   1.074   5.757   2.153  0.7496 -0.4707 -0.1296
43740SOL     OW36349   6.914   8.843   1.616 -0.5776  0.0359 -0.2789
43740SOL    HW136350   6.854   8.790   1.563 -1.5276 -0.3456  1.1439
43740SOL    HW236351   6.942   8.784   1.686 -0.7129  1.0544  0.6444
43741SOL     OW36352   0.077   9.083   5.944  0.1055 -0.0188 -0.3979
43741SOL    HW136353   0.074   9.094   6.039 -0.5358 -0.1630 -0.4014
43741SOL    HW236354   0.147   9.141   5.916 -1.5723  2.1788 -0.1548
43742SOL     OW36355   9.282   0.317   2.328 -0.0258  0.4187 -0.2021
43742SOL    HW136356   9.193   0.282   2.324 -0.0516  0.5163 -0.5158
43742SOL    HW236357   9.314   0.291   2.414 -0.6096  0.9973  0.1942
43743SOL     OW36358   3.980   5.569   4.778  0.6323 -0.1024  0.2828
43743SOL    HW136359   4.034   5.597   4.703  0.0209 -2.1143 -0.9456
43743SOL    HW236360   3.984   5.473   4.776 -1.5871 -0.2422  1.2063
43744SOL     OW36361   5.923   3.222   9.711 -0.2659  0.1471  0.3957
43744SOL    HW136362   5.943   3.137   9.750  1.7915 -0.3562 -1.6023
43744SOL    HW236363   5.860   3.202   9.641 -0.4694  0.3740  0.5176
43745SOL     OW36364   2.356   4.029   7.653  0.4042  0.2478 -0.0243
43745SOL    HW136365   2.404   4.110   7.671 -1.9322  1.9034 -0.9310
43745SOL    HW236366   2.290   4.024   7.722 -1.6235  0.9344 -1.8496
43746SOL     OW36367   8.963   0.499   3.241 -0.8161  0.1403 -0.1096
43746SOL    HW136368   8.911   0.501   3.322 -1.3559  0.8109 -0.4684
43746SOL    HW236369   9.045   0.457   3.267 -1.2181 -0.1881  0.6538
43747SOL     OW36370   1.812   1.373   6.390  0.9515 -0.2669  0.1986
43747SOL    HW136371   1.872   1.316   6.341 -2.4165 -2.3936 -1.7110
43747SOL    HW236372   1.764   1.420   6.321 -1.9897 -1.2754  1.4879
43748SOL     OW36373   7.298   0.044   8.724  0.3070 -0.0389  0.2517
43748SOL    HW136374   7.204   0.057   8.723  0.0389 -1.8658 -1.6959
43748SOL    HW236375   7.329   0.085   8.643  1.2904  1.0767  1.1597
43749SOL     OW36376   5.446   6.667  10.524  0.3170 -0.6777  0.3403
43749SOL    HW136377   5.424   6.614  10.448 -1.4123  0.1949  0.2110
43749SOL    HW236378   5.487   6.606  10.585  0.2010 -1.7312 -0.6253
43750SOL     OW36379   2.054   3.243   5.413 -0.0193  0.4374 -0.1111
43750SOL    HW136380   2.007   3.206   5.487  0.7940  1.0858  0.7391
43750SOL    HW236381   2.003   3.216   5.336 -1.6195  0.9115  0.7719
43751SOL     OW36382  11.112   2.554   5.978 -0.2847  0.2004 -0.2656
43751SOL    HW136383  11.166   2.551   6.057 -1.8835  0.9982  0.9081
43751SOL    HW236384  11.052   2.479   5.987  2.0088 -2.0141 -2.6367
43752SOL     OW36385   2.739   7.039   3.787  0.6809 -0.2006 -0.4017
43752SOL    HW136386   2.795   7.116   3.793  0.4306 -0.1718  1.9600
43752SOL    HW236387   2.788   6.969   3.830 -0.8094 -0.3272  1.1694
43753SOL     OW36388   3.566   9.828  10.074 -0.0775  0.2797 -0.5276
43753SOL    HW136389   3.659   9.806  10.063 -0.1343 -0.5513  0.5799
43753SOL    HW236390   3.561   9.921  10.052  1.4992  1.0287  2.0204
43754SOL     OW36391   7.020   6.411   5.345 -0.0526 -0.3652 -0.7095
43754SOL    HW136392   7.058   6.428   5.431  0.3028  1.8588 -1.2831
43754SOL    HW236393   6.950   6.348   5.363  0.4087 -0.4052  1.1119
43755SOL     OW36394   5.108   9.161  10.571  0.2280  0.0931 -0.3082
43755SOL    HW136395   5.175   9.150  10.504  0.2494 -0.4587 -0.1958
43755SOL    HW236396   5.123   9.089  10.633 -2.5477 -2.1097 -2.0526
43756SOL     OW36397   4.022   6.167   2.899 -0.6310  0.1510 -0.2536
43756SOL    HW136398   3.968   6.190   2.974 -1.4152 -1.7684 -0.2076
43756SOL    HW236399   4.085   6.104   2.933 -0.0046  0.4225 -0.8867
43757SOL     OW36400   0.867   0.529   6.601 -0.7569 -0.3610 -0.1942
43757SOL    HW136401   0.775   0.537   6.577 -0.8105 -1.7920 -0.4871
43757SOL    HW236402   0.865   0.500   6.692 -0.5732  0.7503  0.1784
43758SOL     OW36403   0.826   7.591   2.985  0.4078 -0.1187 -0.6110
43758SOL    HW136404   0.743   7.619   2.947 -0.2065 -2.7374 -1.3103
43758SOL    HW236405   0.810   7.586   3.079  0.3959  1.3009 -0.5189
43759SOL     OW36406   8.074  11.035   8.262 -0.1152 -0.2163 -0.2216
43759SOL    HW136407   7.979  11.044   8.269 -0.1632 -0.8329 -0.0626
43759SOL    HW236408   8.091  10.942   8.274  0.5933  0.0158  0.6425
43760SOL     OW36409   2.420   7.862   7.748 -0.0980  0.4845  0.0125
43760SOL    HW136410   2.387   7.934   7.801 -0.4689  1.0204 -0.9417
43760SOL    HW236411   2.440   7.902   7.663  0.7168 -0.3172 -0.1786
43761SOL     OW36412   6.091   9.540   5.133  0.5877  0.3750 -0.0033
43761SOL    HW136413   6.119   9.457   5.171  0.6773  0.8524  0.9873
43761SOL    HW236414   6.172   9.589   5.121  0.4950  0.4697 -0.2488
43762SOL     OW36415   4.563   2.491   8.017  0.3203  0.0695 -0.1760
43762SOL    HW136416   4.623   2.424   7.984  0.6419  0.4665 -0.4010
43762SOL    HW236417   4.568   2.483   8.112  0.1060 -0.4505 -0.2121
43763SOL     OW36418   7.795   6.405   9.380  0.0739 -0.0153  0.9054
43763SOL    HW136419   7.833   6.326   9.418 -0.1071  0.4873  2.1914
43763SOL    HW236420   7.868   6.449   9.336  0.0222 -1.2435 -0.4273
43764SOL     OW36421   7.667   1.744   6.324 -0.4020  0.0728  0.0413
43764SOL    HW136422   7.593   1.735   6.383  0.2226 -0.0054  0.8289
43764SOL    HW236423   7.654   1.677   6.257 -0.1191 -1.1241  1.1698
43765SOL     OW36424   5.799   1.563   7.935  0.0380 -0.1218  0.1006
43765SOL    HW136425   5.882   1.575   7.887 -1.2506 -1.0826 -2.4650
43765SOL    HW236426   5.775   1.651   7.963  1.0772  0.4064 -0.6157
43766SOL     OW36427   6.561   1.711   9.363 -0.0205 -0.2044 -0.4208
43766SOL    HW136428   6.594   1.723   9.275 -0.8921  1.6886 -0.5295
43766SOL    HW236429   6.638   1.689   9.416  0.5542 -0.9690 -1.5730
43767SOL     OW36430   4.812   0.302   5.200 -0.4852  0.2079 -0.2157
43767SOL    HW136431   4.866   0.267   5.129 -0.5365 -2.6132  1.0946
43767SOL    HW236432   4.851   0.387   5.220 -0.2252  0.8808 -3.3127
43768SOL     OW36433   7.100   0.601   2.986 -0.0055  0.5475 -0.0506
43768SOL    HW136434   7.120   0.511   3.012 -1.5634 -0.5910 -2.6662
43768SOL    HW236435   7.184   0.646   2.988  0.9671 -1.2490  0.1504
43769SOL     OW36436   9.696   8.585   3.694  1.0182 -0.6588 -0.0757
43769SOL    HW136437   9.630   8.545   3.750  1.4292 -2.9164 -1.1508
43769SOL    HW236438   9.744   8.644   3.751 -0.2327 -0.9845  1.3298
43770SOL     OW36439   4.732   2.091   4.390 -0.3949  0.4513 -0.3365
43770SOL    HW136440   4.754   2.078   4.297 -0.2870  0.2258 -0.2781
43770SOL    HW236441   4.642   2.123   4.388 -0.2020  1.0054 -0.5519
43771SOL     OW36442   4.574  11.143   7.206  0.2077  0.0829  0.5376
43771SOL    HW136443   4.560  11.067   7.262  1.0729  1.3511  2.5413
43771SOL    HW236444   4.667  11.165   7.218  0.8327 -0.5331 -2.6304
43772SOL     OW36445   5.286   0.609   5.293 -0.3724  0.1499  0.3375
43772SOL    HW136446   5.247   0.522   5.302 -0.8918  0.5117  1.7624
43772SOL    HW236447   5.351   0.599   5.224 -0.3807 -1.3871  0.5300
43773SOL     OW36448  10.979   0.182  10.341  0.0478 -0.5699  0.8959
43773SOL    HW136449  11.026   0.243  10.283  1.7518  0.5377  3.3357
43773SOL    HW236450  11.019   0.097  10.324  0.5594 -0.2486  0.4733
43774SOL     OW36451   1.933   6.833   3.812  0.4186  0.0851  0.1397
43774SOL    HW136452   1.872   6.759   3.820 -0.4834  0.7001 -0.9713
43774SOL    HW236453   1.910   6.891   3.884 -0.6198  0.5399 -0.5594
43775SOL     OW36454   8.248   7.521  10.098  0.9339 -0.1462  0.1979
43775SOL    HW136455   8.240   7.607  10.138  1.5007  0.2311 -0.5030
43775SOL    HW236456   8.158   7.487  10.096  0.7504  0.2873  0.7596
43776SOL     OW36457   6.709  10.777   0.521 -0.0684 -0.3833  0.4057
43776SOL    HW136458   6.682  10.708   0.460  0.3414 -1.6166  1.5802
43776SOL    HW236459   6.641  10.777   0.588  0.0353  0.2290  0.5117
43777SOL     OW36460  10.290   3.622  10.820  0.3066  0.1601 -0.0563
43777SOL    HW136461  10.319   3.560  10.886  0.7208 -0.2114 -0.5877
43777SOL    HW236462  10.294   3.707  10.864  0.3158 -0.1166  0.4801
43778SOL     OW36463   6.556   9.597  10.937 -0.1759  0.1001  0.1336
43778SOL    HW136464   6.601   9.535  10.878  0.3866  2.0053 -1.4846
43778SOL    HW236465   6.480   9.627  10.887 -0.2364  1.0051  0.7570
43779SOL     OW36466   0.484  10.876   2.218 -0.7880  0.1357  0.0535
43779SOL    HW136467   0.491  10.781   2.220 -2.9497 -0.0989 -0.9492
43779SOL    HW236468   0.389  10.892   2.216 -0.5183  2.3831  2.6734
43780SOL     OW36469   9.505   1.342   3.016  0.1810  0.0172 -0.3477
43780SOL    HW136470   9.507   1.318   2.923  1.3285  0.2272 -0.3867
43780SOL    HW236471   9.437   1.409   3.022 -0.1730 -0.2766 -0.9669
43781SOL     OW36472   8.216   2.518   8.044 -0.0171  0.2732 -0.6517
43781SOL    HW136473   8.214   2.479   7.957 -0.5959  0.6648 -0.8100
43781SOL    HW236474   8.302   2.493   8.079  0.9955  1.7465 -2.0622
43782SOL     OW36475   2.813   3.303   8.173 -0.6920 -0.0153 -0.3611
43782SOL    HW136476   2.782   3.391   8.195 -2.5958  0.1926 -3.5076
43782SOL    HW236477   2.749   3.245   8.214 -0.7342  0.1482 -0.1952
43783SOL     OW36478   9.957   5.421   9.454 -0.0764 -0.2855  0.0018
43783SOL    HW136479   9.950   5.504   9.407 -1.3497 -1.3824 -1.7985
43783SOL    HW236480   9.890   5.427   9.523 -0.3463  0.0939 -0.2902
43784SOL     OW36481  11.307   7.864   8.503 -0.2327  0.1089 -0.1631
43784SOL    HW136482  11.308   7.957   8.477  1.8554  0.0679 -0.2718
43784SOL    HW236483  11.254   7.821   8.436 -1.6284  1.2916  0.1528
43785SOL     OW36484   5.452   4.281   4.429 -0.0560  0.3560  0.2822
43785SOL    HW136485   5.504   4.346   4.476  2.7372  0.0675 -2.2708
43785SOL    HW236486   5.420   4.328   4.352  1.0921 -0.9718 -1.0294
43786SOL     OW36487   7.467   3.961   5.881 -0.5804  0.0454  0.0420
43786SOL    HW136488   7.424   3.918   5.955  0.6835 -0.5969  0.4165
43786SOL    HW236489   7.395   4.000   5.831 -1.5068 -0.1342  1.2078
43787SOL     OW36490   8.947   7.414   3.521 -0.2226 -0.6528 -0.2527
43787SOL    HW136491   9.039   7.411   3.496 -0.5986 -0.2079 -1.7646
43787SOL    HW236492   8.945   7.380   3.611  1.3352 -1.1932 -0.4058
43788SOL     OW36493  10.407   9.571   7.455 -0.7792  0.1084  0.4998
43788SOL    HW136494  10.403   9.542   7.546  1.1365  1.9216  1.2057
43788SOL    HW236495  10.347   9.645   7.450 -1.4283 -0.4360  0.0894
43789SOL     OW36496   3.429   1.449   2.712  0.0060  0.3070 -0.1330
43789SOL    HW136497   3.353   1.438   2.655  0.1469 -0.0912 -0.2477
43789SOL    HW236498   3.446   1.361   2.747  1.5891 -0.0126 -1.6317
43790SOL     OW36499  10.626   0.209   0.427 -0.0716 -0.4086  0.1139
43790SOL    HW136500  10.717   0.185   0.445 -0.3229 -2.1824 -0.8883
43790SOL    HW236501  10.583   0.208   0.513  0.8954  0.6701  0.6216
43791SOL     OW36502  10.172  10.580  10.897  0.5445 -0.4593 -0.0253
43791SOL    HW136503  10.171  10.527  10.817  0.2738 -1.7647  0.8288
43791SOL    HW236504  10.245  10.641  10.884  0.7770 -0.9465 -1.0846
43792SOL     OW36505   2.072   9.630  11.250 -0.3555 -0.0455 -0.1550
43792SOL    HW136506   1.981   9.659  11.247 -0.6036 -0.6926  0.7627
43792SOL    HW236507   2.120   9.704  11.287 -0.8631 -0.5153  1.4780
43793SOL     OW36508   9.054   3.596   9.011  0.0411  0.4151  0.0837
43793SOL    HW136509   9.035   3.589   8.917 -0.9057  1.7018  0.1639
43793SOL    HW236510   8.976   3.562   9.054 -0.5665  2.1613  0.4020
43794SOL     OW36511   5.961   7.856   6.045 -0.0951 -0.3603 -1.0885
43794SOL    HW136512   5.877   7.903   6.044  1.0258  1.7467 -2.5870
43794SOL    HW236513   5.968   7.821   6.133 -1.3827  1.6394 -0.1486
43795SOL     OW36514   1.027   2.050   0.926 -0.5233 -0.8597 -0.9138
43795SOL    HW136515   1.118   2.061   0.954 -0.2306 -1.9607 -1.4141
43795SOL    HW236516   0.976   2.063   1.006  0.0293  0.2472 -0.7271
43796SOL     OW36517   7.818   3.281   0.789 -0.1769  0.3270  0.2321
43796SOL    HW136518   7.764   3.309   0.716 -0.1945  0.7649  0.4115
43796SOL    HW236519   7.756   3.244   0.852  0.0258 -1.7369 -0.7456
43797SOL     OW36520   7.434   4.385   3.589  0.2145 -0.0663 -0.5326
43797SOL    HW136521   7.452   4.317   3.653  1.3021 -0.9325 -1.7303
43797SOL    HW236522   7.517   4.396   3.542 -0.2670  1.3044 -1.0868
43798SOL     OW36523   3.221   0.980  11.256  0.2207 -0.0093  0.2329
43798SOL    HW136524   3.177   1.061  11.230  2.3613  0.8493 -0.8360
43798SOL    HW236525   3.159   0.937  11.315 -1.5060  1.7487 -0.2399
43799SOL     OW36526   6.543   5.257   2.735  0.2005 -0.4554  0.4373
43799SOL    HW136527   6.479   5.291   2.673  0.2060 -1.7091 -0.2667
43799SOL    HW236528   6.496   5.190   2.784  1.2775 -2.2110 -0.8814
43800SOL     OW36529   1.244   8.978   1.660  0.4877 -0.3946 -0.7479
43800SOL    HW136530   1.290   8.895   1.667 -1.1671 -1.1086  3.4680
43800SOL    HW236531   1.311   9.044   1.677  1.5182 -0.9066 -2.6878
43801SOL     OW36532  10.639   3.020   2.850  0.1721 -0.6434  0.2575
43801SOL    HW136533  10.717   3.023   2.795 -1.4535 -1.6112 -2.2003
43801SOL    HW236534  10.619   2.927   2.858 -0.3963 -0.4305  1.3833
43802SOL     OW36535   6.733   6.752   5.314  0.0436  0.7578 -0.1273
43802SOL    HW136536   6.783   6.763   5.395 -0.3580  0.2162  0.2057
43802SOL    HW236537   6.688   6.835   5.302  2.0690  1.7341 -1.1708
43803SOL     OW36538   6.701   1.236  10.503 -0.2774  0.0907 -0.9813
43803SOL    HW136539   6.637   1.214  10.570 -2.2312 -0.7294 -3.0680
43803SOL    HW236540   6.682   1.327  10.480  0.7832  0.5667 -0.0241
43804SOL     OW36541   0.929   7.276   5.696  0.2511 -0.1816  0.2211
43804SOL    HW136542   1.013   7.250   5.659 -0.1150 -2.2674  0.8033
43804SOL    HW236543   0.877   7.196   5.698 -1.6185  0.9951  0.2538
43805SOL     OW36544   6.096   5.497   7.653 -0.2848 -0.6181 -0.2188
43805SOL    HW136545   6.028   5.431   7.668 -0.7799  0.6182  3.6058
43805SOL    HW236546   6.050   5.580   7.652  0.5837 -0.1151 -3.1049
43806SOL     OW36547   9.302   1.103   6.444  0.0014 -0.5267 -0.0975
43806SOL    HW136548   9.211   1.111   6.413 -0.0301  0.1889  0.1695
43806SOL    HW236549   9.311   1.171   6.510  1.2754  0.6092 -1.4135
43807SOL     OW36550   4.507   1.507   9.879 -0.0872  0.2389  0.0575
43807SOL    HW136551   4.601   1.522   9.889  0.0530 -0.5944  0.0515
43807SOL    HW236552   4.497   1.412   9.888 -0.8887  0.2882 -0.2691
43808SOL     OW36553   7.734   3.825   5.611  0.4987  0.2403 -0.3079
43808SOL    HW136554   7.732   3.729   5.612 -1.4129  0.2709  1.3247
43808SOL    HW236555   7.774   3.847   5.527 -0.9792 -2.0040 -1.6643
43809SOL     OW36556   9.266   1.414   9.984  0.3573  0.1944 -0.1208
43809SOL    HW136557   9.277   1.506  10.009  2.3231 -0.0337 -0.0786
43809SOL    HW236558   9.171   1.403   9.975 -0.1359  1.4688  2.7261
43810SOL     OW36559   1.573   8.481  11.299 -0.0110 -0.3779  0.6970
43810SOL    HW136560   1.500   8.519  11.347  0.3412 -1.8536  2.4621
43810SOL    HW236561   1.532   8.434  11.227 -0.5394  1.9223 -0.5564
43811SOL     OW36562   1.779   2.447  10.295  0.3801  0.1976 -0.3678
43811SOL    HW136563   1.828   2.415  10.219  2.1741  2.0365 -0.0216
43811SOL    HW236564   1.841   2.441  10.368 -0.8682 -0.2113  0.6798
43812SOL     OW36565   8.857   9.172  11.045  0.6018  0.2212 -0.2128
43812SOL    HW136566   8.842   9.131  10.960 -0.1013  1.2764 -0.6095
43812SOL    HW236567   8.776   9.219  11.063 -0.3017 -2.1538  2.2968
43813SOL     OW36568  10.129   7.827   6.081  0.1741 -0.1602 -0.6039
43813SOL    HW136569  10.101   7.916   6.101 -1.3945 -0.6210 -0.6852
43813SOL    HW236570  10.202   7.838   6.020 -0.6439  1.0450 -1.3779
43814SOL     OW36571   7.170   6.347   4.009 -0.4400  0.0046  0.2049
43814SOL    HW136572   7.102   6.415   4.012  0.5513  1.1997 -2.9260
43814SOL    HW236573   7.121   6.265   4.017 -1.7664  0.9863  2.8710
43815SOL     OW36574   7.620   7.131   5.608 -0.4236 -0.4454  0.4414
43815SOL    HW136575   7.579   7.216   5.623  2.0277  0.8632  0.0150
43815SOL    HW236576   7.555   7.081   5.559 -1.7642  1.2923  0.4116
43816SOL     OW36577   0.866   8.087   2.440 -0.6981 -0.1579  0.8729
43816SOL    HW136578   0.831   8.151   2.378  0.9562  1.0021  1.0879
43816SOL    HW236579   0.934   8.136   2.488  0.6295 -2.0890  1.0112
43817SOL     OW36580   1.943   2.296   2.950 -0.2441 -0.0630  0.4057
43817SOL    HW136581   1.980   2.338   3.028 -1.4379 -0.0583  0.9802
43817SOL    HW236582   1.873   2.355   2.922 -0.0257 -0.2243 -0.4917
43818SOL     OW36583   0.597  10.942   4.119 -0.0669  0.2572  0.4461
43818SOL    HW136584   0.647  10.927   4.198  0.6285  0.5380  0.0679
43818SOL    HW236585   0.655  10.995   4.064 -1.0566  1.2182  0.3017
43819SOL     OW36586   0.261   0.726   7.932  0.2627  0.6736 -0.0596
43819SOL    HW136587   0.189   0.769   7.886 -0.0327 -1.2986 -1.4801
43819SOL    HW236588   0.339   0.750   7.882  0.3373  1.1236  0.2714
43820SOL     OW36589   4.648   1.879   2.587  0.2469  0.0959 -0.2699
43820SOL    HW136590   4.584   1.819   2.549 -1.5801  2.2435 -0.7352
43820SOL    HW236591   4.666   1.845   2.674 -1.1173 -0.8536 -0.3581
43821SOL     OW36592   6.486   6.882   2.838  0.5325  0.0341 -0.0463
43821SOL    HW136593   6.476   6.871   2.933 -0.3842 -1.9932 -0.3509
43821SOL    HW236594   6.450   6.969   2.820 -1.5167 -0.5413  1.1407
43822SOL     OW36595   8.777   4.604   7.134 -0.0219  0.0444 -0.6279
43822SOL    HW136596   8.726   4.685   7.138  2.6818  1.7495  0.8256
43822SOL    HW236597   8.731   4.544   7.194 -0.4477  1.4772  0.5037
43823SOL     OW36598   4.101   1.266   1.869  0.1665  0.1247  0.2667
43823SOL    HW136599   4.088   1.343   1.924  0.3701 -0.6435  1.4222
43823SOL    HW236600   4.013   1.237   1.848  0.0891  1.2242 -0.9839
43824SOL     OW36601  11.291   0.652  10.739  0.3690  0.3396  0.5627
43824SOL    HW136602  11.315   0.617  10.653 -1.4257 -2.8339  1.2768
43824SOL    HW236603  11.219   0.713  10.722  1.8323  1.8421 -0.4226
43825SOL     OW36604   0.793   7.490   9.819  0.1190 -0.4466 -0.3270
43825SOL    HW136605   0.835   7.576   9.821 -0.7143 -0.0355 -0.2088
43825SOL    HW236606   0.837   7.440   9.888 -0.1518  0.2475  0.3586
43826SOL     OW36607   7.312   3.282   3.687  0.1189 -0.1844  0.0548
43826SOL    HW136608   7.363   3.362   3.698 -0.4458  0.2407 -0.3993
43826SOL    HW236609   7.376   3.212   3.690  0.7024  0.3330 -0.3157
43827SOL     OW36610   7.859   5.852  11.277 -0.1684 -0.4708 -0.9250
43827SOL    HW136611   7.818   5.918  11.221 -0.5888 -1.1072 -1.3741
43827SOL    HW236612   7.949   5.845  11.244  0.1154  0.4479 -0.3631
43828SOL     OW36613   1.315   8.688  10.664  0.0905  0.5189  0.0767
43828SOL    HW136614   1.253   8.620  10.637  2.7544 -2.5542  1.2859
43828SOL    HW236615   1.376   8.696  10.590 -0.9386  2.5756 -0.5823
43829SOL     OW36616   4.497   5.901   2.542  0.2484  0.3160 -0.5203
43829SOL    HW136617   4.568   5.903   2.606 -0.3763  0.5199  0.1787
43829SOL    HW236618   4.425   5.946   2.585 -0.6277 -0.7652 -0.8380
43830SOL     OW36619   7.201   0.715   6.131  0.0130  0.0898  0.6264
43830SOL    HW136620   7.175   0.713   6.223  0.5691 -0.5043  0.7727
43830SOL    HW236621   7.241   0.630   6.115 -0.1936  0.1432 -0.2007
43831SOL     OW36622   0.806   1.706   7.572 -0.1781 -0.5681 -0.0670
43831SOL    HW136623   0.758   1.648   7.513 -1.8733  0.2300  0.5042
43831SOL    HW236624   0.751   1.784   7.579  0.2589 -0.4331  2.1300
43832SOL     OW36625   9.688   7.965   4.327 -0.2323 -0.0856 -0.1021
43832SOL    HW136626   9.784   7.964   4.327 -0.2281 -2.0588 -1.6653
43832SOL    HW236627   9.664   7.907   4.399 -0.3198  2.3651  1.9450
43833SOL     OW36628  10.457   2.145   6.461  0.0753  0.1785 -0.1003
43833SOL    HW136629  10.511   2.088   6.515  0.3385 -0.2577 -0.8169
43833SOL    HW236630  10.461   2.107   6.374 -2.4151 -0.5548  0.0823
43834SOL     OW36631   6.115   6.149   8.661 -0.3559 -0.2306  0.4572
43834SOL    HW136632   6.114   6.160   8.756 -1.3871  1.3907  0.2791
43834SOL    HW236633   6.208   6.139   8.639  0.3281  3.6888  1.2041
43835SOL     OW36634   6.840   9.622  10.768 -0.1842  0.3415  0.0189
43835SOL    HW136635   6.780   9.549  10.782 -1.3051  1.1809 -0.3046
43835SOL    HW236636   6.895   9.595  10.695  0.1356 -0.6165  0.6066
43836SOL     OW36637   4.569   6.398   5.417  0.2703 -0.1683  0.0592
43836SOL    HW136638   4.514   6.461   5.369  0.2402  0.2604  0.6510
43836SOL    HW236639   4.543   6.313   5.382  0.1662  0.1321 -0.6068
43837SOL     OW36640   9.998   3.954   9.743 -0.5305  0.0509  0.1305
43837SOL    HW136641  10.027   3.995   9.824  1.7167 -0.9670 -0.1256
43837SOL    HW236642   9.946   3.879   9.771  1.9677 -1.5299  0.7148
43838SOL     OW36643   0.089   1.282   2.931 -0.2348 -0.2167 -0.1242
43838SOL    HW136644   0.022   1.313   2.992 -0.1922  0.1226 -0.2513
43838SOL    HW236645   0.097   1.351   2.866 -0.3423 -0.6189 -0.5648
43839SOL     OW36646  10.270  10.902   5.205 -0.0638 -0.4581  0.2175
43839SOL    HW136647  10.246  10.966   5.139  1.2548  0.5954  0.7278
43839SOL    HW236648  10.257  10.817   5.163 -1.5302  0.1381 -0.5669
43840SOL     OW36649   5.280   2.254   3.807 -0.5917  0.1480 -0.3658
43840SOL    HW136650   5.280   2.312   3.731 -3.0154  1.9481  0.9345
43840SOL    HW236651   5.191   2.219   3.810  0.7523 -3.5673 -0.9878
43841SOL     OW36652   1.710   2.582  10.857 -0.4975  0.1079  0.2183
43841SOL    HW136653   1.665   2.663  10.880 -1.2058 -0.2767  0.2075
43841SOL    HW236654   1.685   2.566  10.766  0.1970  0.2398 -0.0022
43842SOL     OW36655  10.754   0.051   1.795 -0.4180  0.1149 -0.2516
43842SOL    HW136656  10.708  -0.025   1.832 -0.3561  0.8721  1.3964
43842SOL    HW236657  10.818   0.012   1.735  0.3678 -1.2129  1.4110
43843SOL     OW36658   6.515  11.302   7.581  0.1621 -0.7292  0.2924
43843SOL    HW136659   6.596  11.345   7.608  0.8618 -1.2563 -0.9353
43843SOL    HW236660   6.446  11.361   7.609  0.9554 -0.3697  1.5452
43844SOL     OW36661   0.446   8.065   9.558  0.5758 -0.2652  0.1991
43844SOL    HW136662   0.436   8.158   9.539 -1.4400 -0.0804  2.0871
43844SOL    HW236663   0.470   8.026   9.473 -1.1761  1.5607 -1.1724
43845SOL     OW36664  10.531   7.992   1.890 -0.7442 -0.3345  0.5203
43845SOL    HW136665  10.470   8.035   1.830 -0.1032 -0.6008 -0.3431
43845SOL    HW236666  10.617   8.028   1.867 -0.5460 -0.1080  1.5893
43846SOL     OW36667   5.685   9.984   7.762 -0.3603 -0.1479 -0.8423
43846SOL    HW136668   5.648   9.899   7.738  2.2824 -1.8867  0.9892
43846SOL    HW236669   5.779   9.971   7.761  0.0651  2.1513  1.6089
43847SOL     OW36670   8.844   6.975   4.160 -0.1141  0.5039 -0.4129
43847SOL    HW136671   8.761   6.945   4.120 -1.3730  2.3131  0.7710
43847SOL    HW236672   8.891   6.894   4.180 -3.9113 -0.9131  3.7767
43848SOL     OW36673   6.097   1.322  10.599  0.3640 -0.3095  0.0192
43848SOL    HW136674   6.166   1.257  10.609 -0.0823 -0.6496  0.9935
43848SOL    HW236675   6.113   1.385  10.670  0.9723  0.8129 -1.0945
43849SOL     OW36676   7.228   0.248   7.971 -0.1070  0.0922 -0.2554
43849SOL    HW136677   7.168   0.239   8.045 -1.1131 -1.6756 -1.2437
43849SOL    HW236678   7.309   0.206   8.000 -0.7058 -1.1698 -0.3401
43850SOL     OW36679   6.782   3.031   6.760 -0.6726  0.5391  0.3514
43850SOL    HW136680   6.823   2.999   6.840 -1.5129  1.1387  1.0344
43850SOL    HW236681   6.851   3.027   6.694  0.3514  1.0782  1.3702
43851SOL     OW36682  10.326   6.269   6.781  0.0102 -0.8667 -0.0922
43851SOL    HW136683  10.336   6.278   6.687 -1.6647 -0.0560 -0.2131
43851SOL    HW236684  10.372   6.189   6.803  0.8384 -0.7932 -1.5274
43852SOL     OW36685   7.745   4.594   5.803 -0.0810 -0.8743 -0.1214
43852SOL    HW136686   7.664   4.552   5.834 -0.2237 -1.1666 -0.8868
43852SOL    HW236687   7.716   4.656   5.737  0.0938  0.7018  1.2518
43853SOL     OW36688   9.757   0.602   2.867 -0.4399 -0.2069 -0.1680
43853SOL    HW136689   9.726   0.650   2.944  0.2805  0.4093 -0.2580
43853SOL    HW236690   9.706   0.521   2.867 -1.6088  0.5095  0.0363
43854SOL     OW36691   4.097   2.194   2.217 -0.4084  0.5043  0.4437
43854SOL    HW136692   4.111   2.272   2.163 -0.9867  0.6653  0.5316
43854SOL    HW236693   4.183   2.151   2.218 -0.1856  0.9316  0.0748
43855SOL     OW36694   9.770   9.010   4.885  0.3666 -0.1959  0.4725
43855SOL    HW136695   9.713   9.074   4.927  0.8625 -0.4473  1.5352
43855SOL    HW236696   9.858   9.032   4.914  0.9429  0.6819 -1.8051
43856SOL     OW36697   7.479   4.733  10.178 -0.4320 -0.1293 -0.6958
43856SOL    HW136698   7.386   4.710  10.169  0.1666 -1.9181 -2.8075
43856SOL    HW236699   7.492   4.805  10.116 -0.5409  0.5256  0.0418
43857SOL     OW36700   2.977   5.352   8.938 -0.2032  0.0666 -0.2361
43857SOL    HW136701   2.906   5.413   8.959  1.1095  0.8342  2.0669
43857SOL    HW236702   2.985   5.358   8.842 -1.2817  2.1586 -0.2215
43858SOL     OW36703   9.400   7.035  10.585  0.0600 -0.1731  0.2291
43858SOL    HW136704   9.402   7.006  10.676 -0.7571  1.5895  0.8194
43858SOL    HW236705   9.314   7.075  10.573  0.0295 -0.6544 -1.4146
43859SOL     OW36706   5.381   5.595   3.388 -0.0876  0.2412  0.5332
43859SOL    HW136707   5.333   5.612   3.469  0.0531 -0.6936  0.8204
43859SOL    HW236708   5.335   5.520   3.348  0.8268 -0.3538  0.5779
43860SOL     OW36709   4.454   8.695   0.346 -0.1299  0.1977  0.2519
43860SOL    HW136710   4.521   8.629   0.327 -0.8523 -0.5516  0.2860
43860SOL    HW236711   4.483   8.772   0.299 -0.6814 -0.9516 -2.0494
43861SOL     OW36712   5.281   4.499   2.588 -0.8689  0.1810  0.2761
43861SOL    HW136713   5.192   4.473   2.563 -0.8359  0.6924 -0.3836
43861SOL    HW236714   5.268   4.578   2.641 -0.8275  0.0958  0.4126
43862SOL     OW36715   9.419   3.585   7.393  0.5864  0.1141 -0.0233
43862SOL    HW136716   9.355   3.588   7.464 -1.4111 -1.3921 -1.6677
43862SOL    HW236717   9.501   3.613   7.433 -0.9005  1.2136  2.3785
43863SOL     OW36718   2.938  11.245   7.844 -0.3573 -0.4842 -0.8876
43863SOL    HW136719   2.871  11.273   7.781 -0.8159 -0.0558 -0.2113
43863SOL    HW236720   2.891  11.233   7.926  0.3344 -0.5089 -0.4888
43864SOL     OW36721   2.591   5.188   5.404 -0.9237 -0.3251 -0.5522
43864SOL    HW136722   2.544   5.264   5.438 -0.4921 -0.7196  0.9618
43864SOL    HW236723   2.670   5.223   5.363  0.9290 -0.1569  2.9959
43865SOL     OW36724   9.782   0.780   4.003 -0.6074 -0.0109 -0.5157
43865SOL    HW136725   9.694   0.758   4.035 -0.2088 -0.7895  0.0667
43865SOL    HW236726   9.822   0.695   3.983 -0.1840  0.3720 -1.3243
43866SOL     OW36727   7.137   4.022   0.315  0.3319 -1.0736 -0.1695
43866SOL    HW136728   7.155   3.988   0.227  1.2549  0.3738 -0.5549
43866SOL    HW236729   7.042   4.035   0.316  0.4682  0.1650 -1.4386
43867SOL     OW36730   2.009   5.156   8.931  0.0620  0.0611 -0.3663
43867SOL    HW136731   2.056   5.099   8.990  0.9162  1.8534  0.7306
43867SOL    HW236732   1.948   5.099   8.885 -1.5386 -1.1928  3.1529
43868SOL     OW36733  11.160   6.662   6.971  0.3727  0.3061  0.3686
43868SOL    HW136734  11.115   6.745   6.959 -0.6450 -0.3202 -0.2076
43868SOL    HW236735  11.244   6.673   6.926 -0.2710  0.6012 -0.7832
43869SOL     OW36736  10.139   7.079   2.136 -0.1923 -0.4744 -0.2444
43869SOL    HW136737  10.067   7.032   2.177 -1.8712  1.4631 -0.8846
43869SOL    HW236738  10.133   7.056   2.043  0.4131 -0.7764 -0.2174
43870SOL     OW36739   1.106   2.761   6.485 -0.1322  0.7975 -0.3350
43870SOL    HW136740   1.012   2.782   6.487 -1.0463 -3.1149  0.1587
43870SOL    HW236741   1.130   2.770   6.393 -0.8778  2.1016 -0.4226
43871SOL     OW36742   6.760   4.625   1.767  0.1395  0.7913  0.6064
43871SOL    HW136743   6.815   4.647   1.842 -1.3284  1.1346  1.6123
43871SOL    HW236744   6.673   4.658   1.791 -0.0313  2.2987 -1.9142
43872SOL     OW36745   4.710   9.772   1.122  0.1017  0.2871  0.1539
43872SOL    HW136746   4.671   9.780   1.209 -0.8704 -0.7767 -0.1740
43872SOL    HW236747   4.638   9.744   1.066  1.0051 -0.2819 -0.7391
43873SOL     OW36748   0.265   5.673   9.895 -0.4359  0.1691  0.5779
43873SOL    HW136749   0.345   5.724   9.907 -0.5163  1.1450 -2.5581
43873SOL    HW236750   0.294   5.589   9.860 -0.5211 -0.9087  3.0442
43874SOL     OW36751   7.515   0.443   7.744  0.1245 -0.0610 -0.1623
43874SOL    HW136752   7.581   0.376   7.758  0.6052  0.4882  0.2054
43874SOL    HW236753   7.564   0.517   7.708 -0.2423  0.4560  0.4066
43875SOL     OW36754   2.951   6.037   3.695  0.2133  0.5264  0.1942
43875SOL    HW136755   3.007   6.076   3.763  0.0358  1.2781 -0.0841
43875SOL    HW236756   3.001   5.961   3.664  0.9190  0.9727  0.2087
43876SOL     OW36757   2.768   7.536   9.703  0.4804 -0.1092  0.1986
43876SOL    HW136758   2.677   7.559   9.685  0.2326 -2.8485 -2.5127
43876SOL    HW236759   2.764   7.480   9.780 -0.1458 -0.1338  0.1509
43877SOL     OW36760   8.222   6.646   9.463  0.1357  0.0588 -0.8528
43877SOL    HW136761   8.191   6.682   9.380 -0.7570 -0.7603 -0.8982
43877SOL    HW236762   8.214   6.551   9.451  0.8369 -0.0901 -0.1463
43878SOL     OW36763   2.948   1.530   2.106  0.3491  0.6060 -0.4864
43878SOL    HW136764   2.896   1.487   2.173  1.7343 -1.0734 -0.4559
43878SOL    HW236765   2.901   1.612   2.088 -2.6059 -1.0885 -0.8743
43879SOL     OW36766   7.012   0.650   3.937  0.0884 -0.4620 -0.0598
43879SOL    HW136767   7.008   0.680   4.028 -1.6680  0.9245 -0.5762
43879SOL    HW236768   6.978   0.561   3.939  0.0068 -0.4167  0.6172
43880SOL     OW36769   5.221   6.219  11.139  0.3057 -0.3063 -0.6213
43880SOL    HW136770   5.281   6.264  11.198 -0.2262 -0.2852 -0.0992
43880SOL    HW236771   5.194   6.141  11.186 -0.6091  0.0293 -0.5747
43881SOL     OW36772   1.721   3.156   9.130 -0.6110 -0.3515 -0.5305
43881SOL    HW136773   1.714   3.061   9.136  4.3232 -0.7258  1.5074
43881SOL    HW236774   1.673   3.188   9.207  0.1769 -1.3475  0.3836
43882SOL     OW36775   7.653   2.664   8.438 -0.3472  0.6317  0.0058
43882SOL    HW136776   7.682   2.677   8.529 -1.0097  0.9855  0.1667
43882SOL    HW236777   7.623   2.751   8.410  0.0003  0.5570 -0.6049
43883SOL     OW36778   5.200   2.399  11.331 -0.0603  0.1538  0.2023
43883SOL    HW136779   5.261   2.463  11.294  0.9971 -0.8691  0.1489
43883SOL    HW236780   5.187   2.429  11.421  1.6754 -0.4391  0.6604
43884SOL     OW36781   4.385   2.091   4.478  0.2264 -0.6133  0.5898
43884SOL    HW136782   4.367   2.126   4.565  1.5123  0.4887  0.4292
43884SOL    HW236783   4.359   1.999   4.483 -1.1463 -0.1924  1.6736
43885SOL     OW36784   2.416   6.771   7.788  0.2351 -0.2187  0.0119
43885SOL    HW136785   2.380   6.691   7.750  0.4008  0.2005 -1.0547
43885SOL    HW236786   2.388   6.840   7.729 -1.3617  0.7584  1.8651
43886SOL     OW36787   0.179   0.509   0.754  0.5676  0.0232  0.0616
43886SOL    HW136788   0.208   0.417   0.750  0.0961 -0.1542  0.8297
43886SOL    HW236789   0.195   0.535   0.844  2.0989  1.1607 -0.5135
43887SOL     OW36790   1.837   3.243   5.596  0.9010 -0.2018  0.7530
43887SOL    HW136791   1.821   3.149   5.608  0.2685 -0.2801 -0.5977
43887SOL    HW236792   1.751   3.279   5.574  1.1123  0.7254  1.4403
43888SOL     OW36793  10.455   5.363   0.501 -0.6454  0.0647 -0.3115
43888SOL    HW136794  10.395   5.351   0.575  0.4745 -1.6789  0.3343
43888SOL    HW236795  10.538   5.388   0.542 -0.4824  0.8790 -1.1118
43889SOL     OW36796   7.756   1.114  11.261  0.1989  0.0736 -0.2411
43889SOL    HW136797   7.768   1.123  11.166  3.2321 -0.0873  0.0714
43889SOL    HW236798   7.778   1.022  11.279 -1.1208 -0.0961  0.5206
43890SOL     OW36799   7.259   0.128   9.010 -0.0056 -0.2416  0.1252
43890SOL    HW136800   7.203   0.062   9.051 -0.6112 -0.1043 -0.4719
43890SOL    HW236801   7.287   0.088   8.928 -0.3400  0.2309 -0.2192
43891SOL     OW36802   0.181   8.619   6.373 -0.1744 -0.0259 -0.1271
43891SOL    HW136803   0.225   8.676   6.309  0.3605 -0.3815 -0.0767
43891SOL    HW236804   0.253   8.579   6.422 -0.6051  1.7003  1.9802
43892SOL     OW36805   3.869   4.744  11.150  0.3178  0.0050 -0.1935
43892SOL    HW136806   3.962   4.756  11.170  0.2482  0.0767  0.0978
43892SOL    HW236807   3.843   4.826  11.108 -0.0729  0.7654  1.4812
43893SOL     OW36808  10.848   4.624   3.443 -0.1829  0.5769 -0.3469
43893SOL    HW136809  10.899   4.660   3.370 -0.0038  2.3540  0.6292
43893SOL    HW236810  10.789   4.695   3.468 -1.9096 -0.8349 -0.2770
43894SOL     OW36811   2.361   1.703   5.573 -0.2543 -0.4474  0.0562
43894SOL    HW136812   2.337   1.686   5.482  2.9335  1.5899 -1.2259
43894SOL    HW236813   2.366   1.616   5.613 -1.7687 -1.3643 -1.6671
43895SOL     OW36814   4.100   7.666   4.892  0.2327  0.3502 -0.0355
43895SOL    HW136815   4.047   7.630   4.821  0.5335  0.9543 -0.5699
43895SOL    HW236816   4.119   7.756   4.865  0.8868  0.3797  0.5132
43896SOL     OW36817   4.928   0.276   3.664  0.0107  0.3568  0.0974
43896SOL    HW136818   4.888   0.204   3.713  0.0637  1.6536  2.0664
43896SOL    HW236819   5.017   0.246   3.646 -1.4013 -2.1121 -3.3943
43897SOL     OW36820   7.739   6.415  10.609 -0.3500 -0.4171  0.0000
43897SOL    HW136821   7.672   6.384  10.670 -1.2875 -0.0083 -0.7977
43897SOL    HW236822   7.704   6.393  10.523  0.4323  0.0259 -0.4368
43898SOL     OW36823   0.916   7.092   8.765 -0.5485  0.4558  0.1732
43898SOL    HW136824   0.944   7.132   8.682 -0.4281  0.1156  0.0471
43898SOL    HW236825   0.822   7.108   8.770 -0.7118 -0.2585 -0.4479
43899SOL     OW36826   6.278   2.415   2.857 -0.4384  0.4480  0.3087
43899SOL    HW136827   6.345   2.379   2.914 -0.0517  0.1519 -0.3172
43899SOL    HW236828   6.197   2.370   2.883 -0.5210  1.2671  1.4840
43900SOL     OW36829  10.098  10.339   5.924 -0.1440  0.1153 -0.0248
43900SOL    HW136830  10.184  10.321   5.961 -0.2679 -0.8000 -0.1644
43900SOL    HW236831  10.110  10.330   5.829 -0.1937  0.8651 -0.1040
43901SOL     OW36832   4.958   5.991   2.103 -0.4314 -0.3944  0.4341
43901SOL    HW136833   4.971   5.947   2.187  0.0134 -0.5444  0.2854
43901SOL    HW236834   4.865   6.014   2.102 -0.5734 -0.9549  0.6914
43902SOL     OW36835   9.163  10.993   1.069 -0.3670  0.6540  0.1683
43902SOL    HW136836   9.181  11.075   1.115 -0.1056  1.0070 -0.5552
43902SOL    HW236837   9.245  10.943   1.075 -0.7287  0.1715  1.1580
43903SOL     OW36838   7.521   6.856   6.847 -0.1641  0.2536 -0.0183
43903SOL    HW136839   7.559   6.938   6.881 -0.1809  0.9193 -1.5421
43903SOL    HW236840   7.511   6.800   6.924 -0.9301  1.9989  1.1782
43904SOL     OW36841   8.460   0.651   8.252 -0.3853 -0.0519  0.2876
43904SOL    HW136842   8.511   0.656   8.171  1.1721 -0.6228  1.2213
43904SOL    HW236843   8.439   0.558   8.261 -1.2296  0.1200  0.1371
43905SOL     OW36844   4.845   6.614   9.036  0.0116 -0.3824 -0.0393
43905SOL    HW136845   4.764   6.618   9.087  0.0201  0.4584 -0.0818
43905SOL    HW236846   4.891   6.695   9.059 -0.9372  1.0545 -2.9963
43906SOL     OW36847   5.158   8.923   7.785  0.6012  0.6284  0.5265
43906SOL    HW136848   5.215   8.923   7.862  1.6911 -0.4628 -0.2564
43906SOL    HW236849   5.073   8.895   7.818  0.7265  1.4424  1.5605
43907SOL     OW36850  10.616   3.466   8.275 -0.0530  0.4208 -0.2679
43907SOL    HW136851  10.550   3.508   8.330 -0.6619 -1.5608  0.5385
43907SOL    HW236852  10.599   3.372   8.284  2.2928 -0.0823 -0.7899
43908SOL     OW36853  10.920   4.103   8.168  0.8351  0.4712  0.3049
43908SOL    HW136854  10.854   4.082   8.102 -0.0481  1.1749  0.9520
43908SOL    HW236855  10.924   4.026   8.224  1.7758 -0.2314 -0.7155
43909SOL     OW36856   8.037   4.203   1.222  0.0572  0.3199 -0.0943
43909SOL    HW136857   7.974   4.258   1.269  0.6265  1.9280 -1.1572
43909SOL    HW236858   8.122   4.243   1.241  0.3164  0.8640 -2.2523
43910SOL     OW36859   3.856   5.985   2.770 -0.1945 -0.2476  0.7368
43910SOL    HW136860   3.910   6.051   2.813  0.2716 -1.1880  1.6048
43910SOL    HW236861   3.774   6.031   2.751  0.7182  1.0440 -0.1632
43911SOL     OW36862   6.584  10.681   4.684  0.2670  0.0437 -0.5440
43911SOL    HW136863   6.500  10.724   4.699  0.6744  0.2786  1.1719
43911SOL    HW236864   6.594  10.680   4.588 -0.4155  2.4757 -0.6787
43912SOL     OW36865   0.317   2.504   1.311  0.4779 -0.2214 -0.2543
43912SOL    HW136866   0.252   2.437   1.288 -1.0119  0.8045  0.8566
43912SOL    HW236867   0.313   2.567   1.240  1.6840 -1.1330 -1.1624
43913SOL     OW36868   9.164  10.193   6.494 -0.6566 -0.3281  0.0318
43913SOL    HW136869   9.128  10.227   6.412 -1.2020 -0.0826  0.3743
43913SOL    HW236870   9.259  10.200   6.483 -0.6288 -2.3332 -1.4801
43914SOL     OW36871   2.438   4.229   2.052  0.1245  0.5488  0.0464
43914SOL    HW136872   2.463   4.292   2.120  0.9141  0.3688 -0.0735
43914SOL    HW236873   2.445   4.278   1.970 -1.7326  1.0407  0.1523
43915SOL     OW36874   3.349   4.757   3.100  0.5033  0.3936 -0.6439
43915SOL    HW136875   3.416   4.797   3.044  0.5553 -1.1937 -1.7580
43915SOL    HW236876   3.395   4.686   3.145 -0.1610  0.0122 -0.5610
43916SOL     OW36877  10.903   0.449   8.165  0.5845 -0.3346 -0.2645
43916SOL    HW136878  10.853   0.376   8.128  0.1374 -0.8664  1.3649
43916SOL    HW236879  10.874   0.525   8.114 -0.8778 -0.8585 -0.2561
43917SOL     OW36880   3.265  10.827   9.742 -0.8049  0.1604  0.9918
43917SOL    HW136881   3.314  10.786   9.814 -0.2795  1.4168  1.3651
43917SOL    HW236882   3.192  10.767   9.726  0.3450 -1.2852  1.0373
43918SOL     OW36883   4.942   6.358  10.532  0.5685 -0.3479  0.1827
43918SOL    HW136884   4.852   6.359  10.502  0.9486 -0.7125 -0.9873
43918SOL    HW236885   4.987   6.298  10.472  2.0668  1.5860 -0.6784
43919SOL     OW36886   0.909   0.557   0.260 -0.4998 -0.1208 -1.0360
43919SOL    HW136887   0.837   0.616   0.281  0.6094  0.1754  2.1457
43919SOL    HW236888   0.988   0.608   0.276  0.4540 -1.6711 -0.7064
43920SOL     OW36889   3.219   4.515   6.483 -0.2287  0.9550  0.3518
43920SOL    HW136890   3.150   4.450   6.478  0.5746  0.1928 -1.3464
43920SOL    HW236891   3.209   4.568   6.404 -0.8168  2.8555  1.6692
43921SOL     OW36892   5.578   2.601   0.249  0.4220 -1.0625 -0.0063
43921SOL    HW136893   5.576   2.510   0.278  2.3118 -1.1079  0.0147
43921SOL    HW236894   5.640   2.602   0.176  1.2808  0.4207  0.7262
43922SOL     OW36895   6.277   2.579   7.964  0.0308  0.6080  0.1086
43922SOL    HW136896   6.359   2.531   7.951 -0.8156 -0.5667 -0.9241
43922SOL    HW236897   6.296   2.637   8.039  0.5084 -2.5831  2.5704
43923SOL     OW36898   3.787   4.210  11.239  0.6312 -0.3081 -0.1909
43923SOL    HW136899   3.807   4.290  11.190 -1.9361  0.3010 -0.3342
43923SOL    HW236900   3.756   4.241  11.324 -2.0347 -1.0422 -0.8475
43924SOL     OW36901   9.527   5.157   6.393 -0.2351 -0.0483 -0.0228
43924SOL    HW136902   9.610   5.170   6.440 -0.3196  2.2503 -0.4693
43924SOL    HW236903   9.470   5.226   6.425 -1.0746  0.0816 -1.7644
43925SOL     OW36904   6.261  10.953   4.214 -0.1396 -0.0941  0.1125
43925SOL    HW136905   6.232  11.044   4.210 -1.2020 -0.4048  0.6386
43925SOL    HW236906   6.356  10.959   4.227 -0.3339  0.9364  1.0799
43926SOL     OW36907   3.777  10.740   0.795 -0.4765 -0.1970  0.4264
43926SOL    HW136908   3.855  10.782   0.758 -1.4817  1.4831  0.1717
43926SOL    HW236909   3.733  10.810   0.842 -1.3006 -1.3903  1.4507
43927SOL     OW36910   2.680   8.600   7.670 -0.3120 -0.0042 -0.1176
43927SOL    HW136911   2.696   8.690   7.640 -0.3417 -0.3199 -1.0688
43927SOL    HW236912   2.623   8.562   7.604 -0.6660 -0.5870  0.5194
43928SOL     OW36913   6.809   3.232  11.086  0.4219  0.3513  0.3339
43928SOL    HW136914   6.719   3.231  11.053  0.6657  0.3454 -0.3464
43928SOL    HW236915   6.814   3.309  11.143  0.1454  0.6751 -0.0849
43929SOL     OW36916   0.788  10.520   7.523 -0.1516  0.1094 -0.3944
43929SOL    HW136917   0.770  10.608   7.556 -0.6966  0.1095 -0.6790
43929SOL    HW236918   0.877  10.524   7.488  0.1654  0.2946  0.4437
43930SOL     OW36919   0.434   0.860   3.388  0.2459 -0.1946  0.0412
43930SOL    HW136920   0.468   0.774   3.411  1.5547  0.3656  0.2625
43930SOL    HW236921   0.351   0.843   3.344  1.6442 -1.6894 -2.0796
43931SOL     OW36922   7.974   7.655   6.898 -0.2228 -0.0305  0.3734
43931SOL    HW136923   8.052   7.703   6.926 -0.1558 -0.3561  0.7477
43931SOL    HW236924   7.957   7.687   6.809  0.8228 -0.5573 -0.0267
43932SOL     OW36925   9.715   3.359   8.386  0.2959  0.4807  0.4090
43932SOL    HW136926   9.655   3.320   8.323  1.5168  0.1129 -0.5473
43932SOL    HW236927   9.714   3.452   8.367  0.8697  0.3371 -0.3475
43933SOL     OW36928   5.369   3.410   0.526  0.3060  0.0977 -0.0739
43933SOL    HW136929   5.340   3.490   0.482  3.1381  0.0751 -2.1107
43933SOL    HW236930   5.323   3.339   0.481  0.3682  0.3303 -0.5009
43934SOL     OW36931   9.276   5.875   9.365 -0.4478  0.3503 -0.0947
43934SOL    HW136932   9.186   5.866   9.395 -0.5671 -0.9941 -0.8071
43934SOL    HW236933   9.269   5.897   9.273 -0.0579 -1.7728 -0.6579
43935SOL     OW36934   7.817   7.866   9.883 -0.3462 -0.0048  0.1294
43935SOL    HW136935   7.740   7.912   9.916 -0.4188  1.2174 -1.6789
43935SOL    HW236936   7.889   7.898   9.937 -0.6582  0.9646 -0.0353
43936SOL     OW36937   2.970   7.232   9.947 -0.8757  0.3374  0.0805
43936SOL    HW136938   3.036   7.250   9.880 -0.3769 -2.8903 -0.3591
43936SOL    HW236939   3.016   7.181  10.013 -2.4902 -0.3492  0.6911
43937SOL     OW36940   0.076   6.853   2.143 -0.3488  0.1645 -0.0210
43937SOL    HW136941   0.077   6.941   2.106 -0.5139 -0.1797 -0.8528
43937SOL    HW236942   0.087   6.866   2.237 -1.1475  1.1140 -0.0555
43938SOL     OW36943  10.752   9.360   4.594 -0.4383 -0.0933 -0.0343
43938SOL    HW136944  10.795   9.410   4.663  0.7201 -1.7906  0.5150
43938SOL    HW236945  10.815   9.359   4.522 -0.3189 -0.9830  0.0731
43939SOL     OW36946   8.912  10.242   6.977  0.3391 -0.2009  0.3704
43939SOL    HW136947   8.915  10.320   6.922  0.2663  1.4705  2.7019
43939SOL    HW236948   8.868  10.270   7.057  2.1558 -2.1149  2.0913
43940SOL     OW36949   8.040   4.226   9.193 -0.2680 -0.1968 -0.0319
43940SOL    HW136950   8.056   4.191   9.105  1.2254  0.5126 -0.0581
43940SOL    HW236951   7.982   4.162   9.234  0.3736 -1.3876 -0.9470
43941SOL     OW36952   3.064   3.425   5.431  0.0325 -0.0741 -0.3091
43941SOL    HW136953   3.127   3.355   5.449 -0.4720 -0.2644  0.7992
43941SOL    HW236954   3.098   3.470   5.354  1.7533  0.1016  0.5358
43942SOL     OW36955   9.442   0.467   6.882  0.4160 -0.1018 -0.1743
43942SOL    HW136956   9.459   0.447   6.790 -0.7782  0.5192 -0.5292
43942SOL    HW236957   9.390   0.393   6.913 -1.1780  0.8107 -0.6211
43943SOL     OW36958   7.783   8.477   8.004 -0.4121  0.3008 -0.3804
43943SOL    HW136959   7.776   8.433   7.919 -0.3597  0.9137 -0.7046
43943SOL    HW236960   7.717   8.435   8.059  0.3616 -0.9121 -0.3611
43944SOL     OW36961   5.757   2.372   9.131 -0.3749  0.4700  0.3773
43944SOL    HW136962   5.732   2.279   9.134  0.5731  0.1767 -0.5116
43944SOL    HW236963   5.777   2.388   9.039 -0.3468  1.5130  0.5676
43945SOL     OW36964   2.663   4.862   1.820 -0.2800  0.3906  0.2129
43945SOL    HW136965   2.607   4.881   1.895 -1.0081 -0.8145 -0.0150
43945SOL    HW236966   2.726   4.797   1.852  1.6526  2.4452  0.7445
43946SOL     OW36967   8.644  10.486   0.731  0.0908 -0.2683 -0.2149
43946SOL    HW136968   8.624  10.562   0.787 -0.3719  0.5412 -1.4518
43946SOL    HW236969   8.737  10.495   0.711  0.5975 -1.3506  1.5779
43947SOL     OW36970   2.601   2.536   9.607  0.0905 -0.0019 -0.4277
43947SOL    HW136971   2.553   2.587   9.673 -0.3236 -0.3391 -0.4630
43947SOL    HW236972   2.620   2.598   9.537 -0.6872  0.0387 -0.6146
43948SOL     OW36973   8.928   8.971   9.268  0.3142  0.4202  0.1104
43948SOL    HW136974   8.963   9.026   9.198 -1.2491  0.0220 -1.0209
43948SOL    HW236975   8.898   9.033   9.334 -2.1423  1.0130 -1.4969
43949SOL     OW36976   5.485  11.311   9.352  0.3829 -0.0189 -0.2676
43949SOL    HW136977   5.462  11.223   9.381 -0.7405  0.4657  0.3536
43949SOL    HW236978   5.558  11.337   9.408 -0.6418  0.2400  0.9671
43950SOL     OW36979  10.845   9.306   2.016  0.2692 -0.1784 -0.6016
43950SOL    HW136980  10.838   9.392   1.973  1.1664 -0.2756 -0.9510
43950SOL    HW236981  10.904   9.321   2.090 -0.9829 -0.0978  0.4010
43951SOL     OW36982   6.990   2.422   4.434 -0.5382  0.2201  0.2373
43951SOL    HW136983   7.028   2.339   4.406 -1.1880  0.0255 -0.0901
43951SOL    HW236984   6.896   2.404   4.441 -0.5430  0.6315  1.2482
43952SOL     OW36985   6.902   5.333   6.097 -0.2474  0.6026  0.0971
43952SOL    HW136986   6.867   5.370   6.178  0.1139 -0.7421  0.8880
43952SOL    HW236987   6.869   5.389   6.027 -3.0684  0.0026  0.9111
43953SOL     OW36988   6.234   4.254   9.422 -0.5406 -0.0684  0.2420
43953SOL    HW136989   6.186   4.287   9.346  1.2455  0.0528 -0.8629
43953SOL    HW236990   6.167   4.241   9.489 -1.9362  1.2107 -0.8756
43954SOL     OW36991   0.740   8.744   1.005 -0.1757  0.2899  0.0400
43954SOL    HW136992   0.754   8.712   0.916  1.8749 -1.7023  1.0152
43954SOL    HW236993   0.825   8.780   1.031  0.2247 -2.1731  2.3252
43955SOL     OW36994   8.407   9.164   2.483  0.1158  0.0818 -0.1393
43955SOL    HW136995   8.467   9.107   2.530 -0.4541  1.1154  1.8949
43955SOL    HW236996   8.334   9.177   2.543 -0.7006  1.3186 -1.3618
43956SOL     OW36997  10.224   2.797   0.131 -0.1020  0.0885  0.1476
43956SOL    HW136998  10.312   2.809   0.167 -0.7802  2.0086  1.2407
43956SOL    HW236999  10.193   2.715   0.170  1.0279 -0.3743  0.0942
43957SOL     OW37000   5.085   9.181   0.250 -0.0519 -0.3517  0.0364
43957SOL    HW137001   5.131   9.148   0.173  1.3342  0.4696  0.4950
43957SOL    HW237002   5.035   9.257   0.218  0.4742 -0.0496 -0.0708
43958SOL     OW37003   8.028   7.869  10.823 -0.0027 -0.8500 -0.3179
43958SOL    HW137004   7.954   7.880  10.882 -0.6446  0.3152 -1.3104
43958SOL    HW237005   8.035   7.775  10.810 -1.3149 -0.9676 -0.2063
43959SOL     OW37006  10.269   1.532   9.844  0.3941 -0.1971 -0.3635
43959SOL    HW137007  10.238   1.483   9.768 -0.3530 -1.9532  1.0400
43959SOL    HW237008  10.203   1.599   9.859 -0.3243 -0.9242 -0.2597
43960SOL     OW37009   2.699   8.120   9.810 -0.4990  0.0996  0.3200
43960SOL    HW137010   2.646   8.105   9.731 -1.4863  0.8809  0.8263
43960SOL    HW237011   2.710   8.215   9.813  2.0314 -0.1347 -0.4773
43961SOL     OW37012   7.857   0.594   4.835  0.2526  0.2303  0.0192
43961SOL    HW137013   7.853   0.505   4.801 -0.7237 -0.1891  1.1994
43961SOL    HW237014   7.782   0.601   4.893  0.6865  1.6207  0.4373
43962SOL     OW37015   6.400  10.161   2.125 -0.3030 -0.0341  0.0088
43962SOL    HW137016   6.305  10.146   2.121 -0.3785  0.1506  1.0353
43962SOL    HW237017   6.420  10.210   2.045 -0.6557 -2.3478 -1.5455
43963SOL     OW37018   1.718   6.699   9.626 -0.1766  0.0642  0.1927
43963SOL    HW137019   1.809   6.730   9.619  0.0742 -0.9920 -1.6120
43963SOL    HW237020   1.666   6.774   9.597  0.1815  0.3460  0.2630
43964SOL     OW37021   1.000   1.233   6.658  0.0822  0.3708  0.0315
43964SOL    HW137022   1.013   1.242   6.564  0.5245  0.2110  0.0752
43964SOL    HW237023   1.032   1.316   6.694  1.5061 -0.2268  0.1853
43965SOL     OW37024   4.958   0.839   0.803  0.0042 -0.3965  0.5316
43965SOL    HW137025   4.996   0.909   0.748 -0.2925  0.2549  1.1438
43965SOL    HW237026   4.897   0.793   0.745  0.2237 -0.1678  0.1132
43966SOL     OW37027   0.754   2.018   2.901 -0.4479 -0.4710 -0.1028
43966SOL    HW137028   0.835   2.057   2.870  0.3801 -2.7814 -1.0111
43966SOL    HW237029   0.713   1.983   2.822 -1.6839 -0.4647  0.5241
43967SOL     OW37030   8.943   5.212   4.849  0.1551 -0.2973  0.1578
43967SOL    HW137031   8.898   5.205   4.765  0.2259  2.8699 -0.1978
43967SOL    HW237032   8.890   5.273   4.900  1.4700 -0.2471  1.5164
43968SOL     OW37033  10.836   9.588   1.993 -0.3506  0.2804  0.4929
43968SOL    HW137034  10.823   9.671   1.948 -2.2353  0.6974  1.7583
43968SOL    HW237035  10.930   9.584   2.010 -0.3786  2.6164  1.3079
43969SOL     OW37036  10.173   1.187   8.819 -0.8539  0.4405  0.3152
43969SOL    HW137037  10.212   1.243   8.886 -0.4672 -1.0039  1.3334
43969SOL    HW237038  10.165   1.102   8.861  2.5635 -1.4203 -2.4996
43970SOL     OW37039   9.037   0.887   7.110  0.2361 -0.4250  0.5418
43970SOL    HW137040   8.971   0.897   7.179 -0.5720  0.7973 -0.3825
43970SOL    HW237041   9.108   0.945   7.136  0.2985 -0.6029  0.7721
43971SOL     OW37042   7.903   4.030   3.304 -0.1187 -0.2993 -0.0455
43971SOL    HW137043   7.948   3.946   3.304 -1.1969 -0.8954 -1.5256
43971SOL    HW237044   7.810   4.008   3.296 -0.4585  1.0169  0.0793
43972SOL     OW37045   0.272   2.598  10.220  0.2854  0.4579  0.3066
43972SOL    HW137046   0.232   2.614  10.134  0.3585  1.1595  0.3988
43972SOL    HW237047   0.365   2.612  10.206 -0.0274  3.9695  1.2452
43973SOL     OW37048   0.510   3.469   3.088 -0.5497  0.4919 -0.3596
43973SOL    HW137049   0.534   3.558   3.113 -0.4236  0.0226  1.2816
43973SOL    HW237050   0.417   3.463   3.111 -0.5404  0.1812 -0.4032
43974SOL     OW37051   1.876   7.722   0.457 -0.2397 -0.3583  0.5125
43974SOL    HW137052   1.902   7.654   0.394  1.1527 -0.0730  0.7568
43974SOL    HW237053   1.865   7.674   0.539 -1.3504 -0.6170  0.2201
43975SOL     OW37054   7.445   0.193   1.680  0.2308 -0.1565  0.6090
43975SOL    HW137055   7.523   0.247   1.688  0.2624 -0.3745  1.8903
43975SOL    HW237056   7.372   0.255   1.681  0.3381 -0.0244  0.3389
43976SOL     OW37057   3.854   1.570   1.657  0.2346  0.1561 -0.1034
43976SOL    HW137058   3.806   1.538   1.733 -0.7662  0.0713 -0.7550
43976SOL    HW237059   3.817   1.521   1.583  0.2042  1.2394 -0.8223
43977SOL     OW37060   9.660   8.068  10.825  0.2551 -0.2218 -0.3369
43977SOL    HW137061   9.671   7.983  10.784  1.2861 -0.2629  0.0251
43977SOL    HW237062   9.607   8.118  10.763 -0.5768 -1.2091 -0.4284
43978SOL     OW37063   3.657   0.249   8.930 -0.0753 -0.3775 -0.0883
43978SOL    HW137064   3.602   0.193   8.875 -1.6115  0.3608  0.6590
43978SOL    HW237065   3.684   0.321   8.874 -0.2152 -0.5288 -0.3485
43979SOL     OW37066   0.080   0.197   2.735  0.1830 -0.3560  0.0310
43979SOL    HW137067   0.035   0.246   2.666 -0.9392 -0.4974  0.6529
43979SOL    HW237068   0.057   0.244   2.815  1.0133 -0.5337  0.3733
43980SOL     OW37069   4.850  10.405   7.709  0.8823  0.1759  0.4396
43980SOL    HW137070   4.804  10.470   7.762  0.6847  0.1766  0.2657
43980SOL    HW237071   4.844  10.324   7.760  1.2615  0.3269  0.7298
43981SOL     OW37072   5.452   5.346   7.674 -0.1459 -0.4242 -0.0129
43981SOL    HW137073   5.496   5.268   7.706 -1.0898 -0.5418  1.0177
43981SOL    HW237074   5.365   5.315   7.648 -0.3336  0.1895 -0.1139
43982SOL     OW37075   4.719   9.579   9.355  0.2617 -0.2176  0.3387
43982SOL    HW137076   4.678   9.500   9.388  1.1515 -1.0646 -0.5572
43982SOL    HW237077   4.666   9.651   9.390 -0.8368 -1.2250  0.7388
43983SOL     OW37078   3.913   7.488   5.364 -0.0721  0.0597 -0.2307
43983SOL    HW137079   3.902   7.394   5.379 -0.2630 -0.2143 -2.0633
43983SOL    HW237080   3.942   7.496   5.273  0.4276  1.7482  0.0455
43984SOL     OW37081  10.603   1.688   6.987 -0.1042  0.5736 -0.4464
43984SOL    HW137082  10.574   1.597   6.997  2.4828 -0.3591 -0.8944
43984SOL    HW237083  10.647   1.708   7.069  1.0625  0.7334 -1.1047
43985SOL     OW37084   4.484   6.672   1.334 -0.3733  0.0237  0.5730
43985SOL    HW137085   4.541   6.596   1.324 -0.7197 -0.2245  0.4476
43985SOL    HW237086   4.515   6.716   1.413  1.0213  0.8013 -0.3755
43986SOL     OW37087   6.592   4.616   8.643 -0.1215 -0.3322  0.1817
43986SOL    HW137088   6.541   4.553   8.592  1.1030 -1.3009  0.1474
43986SOL    HW237089   6.567   4.701   8.608 -0.5001 -0.8973 -0.9349
43987SOL     OW37090   1.389   8.866  10.023  0.6826 -0.0902 -0.0416
43987SOL    HW137091   1.328   8.816   9.969  1.0611 -1.0625  0.4060
43987SOL    HW237092   1.474   8.853   9.981  0.7862  0.1410  0.0977
43988SOL     OW37093  10.384   6.271   9.598  0.4312  0.3467 -0.0318
43988SOL    HW137094  10.401   6.341   9.661  1.3389  0.7350 -0.6980
43988SOL    HW237095  10.461   6.214   9.604 -0.7722 -1.1656  1.2549
43989SOL     OW37096   3.400   2.582   7.187 -0.6711  0.2601  0.1231
43989SOL    HW137097   3.323   2.634   7.209 -0.8198  0.4184 -0.7356
43989SOL    HW237098   3.365   2.510   7.134 -0.3870 -0.3580  0.7618
43990SOL     OW37099   8.983   3.565   6.745  0.1037  0.4338  0.3337
43990SOL    HW137100   8.894   3.587   6.770  0.0864  0.4613  0.2495
43990SOL    HW237101   9.031   3.558   6.828 -0.4842 -1.8024  0.5129
43991SOL     OW37102   4.478   9.819   7.754  0.1349  0.1387  0.2899
43991SOL    HW137103   4.527   9.749   7.798 -0.0087 -1.1859 -1.5893
43991SOL    HW237104   4.394   9.821   7.798  0.0200 -1.1112  0.1565
43992SOL     OW37105  10.475   6.028  10.668 -0.1648 -0.3207 -0.2561
43992SOL    HW137106  10.565   6.051  10.692 -0.2271 -0.3968  0.0593
43992SOL    HW237107  10.449   5.964  10.734 -0.4795 -0.2378 -0.2993
43993SOL     OW37108   9.837  10.911   0.331 -0.7349  0.2673 -0.3904
43993SOL    HW137109   9.813  10.819   0.344  0.2072 -0.1312 -1.3820
43993SOL    HW237110   9.908  10.926   0.394  0.3508 -0.2093 -1.4898
43994SOL     OW37111   3.516   0.496   6.008 -0.2165 -0.7418 -0.0967
43994SOL    HW137112   3.509   0.456   5.922  1.5649 -4.4066  1.3492
43994SOL    HW237113   3.610   0.510   6.020 -0.4204 -0.5728  1.3971
43995SOL     OW37114   2.125   0.642  11.191 -0.2279 -0.5636 -0.2243
43995SOL    HW137115   2.050   0.682  11.234 -2.0492 -3.7251 -0.3276
43995SOL    HW237116   2.196   0.652  11.254 -1.0421  1.2029  0.4571
43996SOL     OW37117   7.739   8.005   0.300  0.2991 -0.8369 -0.1393
43996SOL    HW137118   7.680   8.062   0.251 -0.4246 -1.5014 -0.0577
43996SOL    HW237119   7.737   7.922   0.252  1.3158 -0.8117 -0.2405
43997SOL     OW37120   2.575   3.563   7.841 -1.0353  0.6375  0.0168
43997SOL    HW137121   2.570   3.657   7.855 -1.9828  0.7629 -1.0580
43997SOL    HW237122   2.563   3.552   7.747  3.0776 -0.3059 -0.4803
43998SOL     OW37123   0.546   8.831   8.829 -0.1179 -0.5363  0.0836
43998SOL    HW137124   0.596   8.792   8.757 -2.3655 -0.6456 -1.4834
43998SOL    HW237125   0.480   8.885   8.785 -0.8575  0.2419  2.1044
43999SOL     OW37126   6.882   2.247   4.233  0.0620  0.2798 -0.5093
43999SOL    HW137127   6.863   2.337   4.208 -0.4456  0.0748 -0.8707
43999SOL    HW237128   6.913   2.205   4.153 -0.9672 -0.2128 -0.6583
44000SOL     OW37129   1.870   4.891   5.406 -0.0315  0.5047 -0.2632
44000SOL    HW137130   1.963   4.901   5.424  0.4298 -1.4877 -1.4348
44000SOL    HW237131   1.858   4.924   5.317 -0.4947  1.0214 -0.0125
44001SOL     OW37132   7.751   4.820  10.305 -0.0805 -0.8567 -0.0573
44001SOL    HW137133   7.678   4.776  10.262  0.6724 -3.5845  1.3780
44001SOL    HW237134   7.721   4.910  10.316 -2.6867 -1.5993 -0.7155
44002SOL     OW37135   4.737   6.793  11.244  0.1989  0.3102 -0.1412
44002SOL    HW137136   4.795   6.762  11.173 -0.6040 -0.0557 -0.6419
44002SOL    HW237137   4.779   6.873  11.276  0.9321  0.1047 -0.5677
44003SOL     OW37138   9.961   9.918   6.596 -0.4167  0.1935 -0.1317
44003SOL    HW137139   9.934   9.933   6.505  0.2607  0.0361 -0.3624
44003SOL    HW237140   9.993   9.828   6.597  1.5332  0.8618 -0.2216
44004SOL     OW37141   1.417   8.349   5.848 -0.3758  0.0416 -0.1311
44004SOL    HW137142   1.353   8.309   5.907 -1.2718 -0.7856 -1.6239
44004SOL    HW237143   1.496   8.295   5.859 -1.1481 -1.3381 -1.1007
44005SOL     OW37144  10.109  10.021   3.718 -0.4555  0.1727 -0.3002
44005SOL    HW137145  10.123   9.950   3.656 -1.4608 -0.8335  0.6138
44005SOL    HW237146  10.119  10.101   3.665  0.6155 -0.6281 -1.3414
44006SOL     OW37147   7.269   3.654  11.132 -0.0022  0.0095  0.1105
44006SOL    HW137148   7.180   3.626  11.111 -0.0146  0.1659 -0.0486
44006SOL    HW237149   7.287   3.614  11.217  0.4320 -1.5027 -0.6726
44007SOL     OW37150   3.041   5.865   1.736  0.3059 -0.2407  0.4812
44007SOL    HW137151   3.118   5.841   1.788  0.9580  1.4101  0.3127
44007SOL    HW237152   3.053   5.818   1.653  0.2267 -1.3790  1.1138
44008SOL     OW37153   6.170   6.496   7.774 -0.0389 -0.1719  0.0308
44008SOL    HW137154   6.187   6.578   7.820  0.0845  0.5833 -1.3471
44008SOL    HW237155   6.099   6.455   7.824  0.9844 -0.0068  1.6699
44009SOL     OW37156  10.384   9.841   8.940  0.1438 -0.5731 -0.1757
44009SOL    HW137157  10.305   9.887   8.970  1.1639  0.8755  0.3450
44009SOL    HW237158  10.431   9.907   8.889  1.6245 -1.0401  0.5754
44010SOL     OW37159   4.900   1.528  10.618 -0.1327 -0.1690 -0.0564
44010SOL    HW137160   4.928   1.501  10.705  1.2509 -0.3999 -0.5501
44010SOL    HW237161   4.848   1.607  10.632  2.5520  1.5481  0.7786
44011SOL     OW37162   1.687   5.565   6.130 -0.3080  0.2914  0.0742
44011SOL    HW137163   1.778   5.537   6.119  0.0799  2.2664 -2.4384
44011SOL    HW237164   1.639   5.485   6.150  1.5880 -1.2016 -1.1320
44012SOL     OW37165   2.235   2.281   2.604  0.2245 -0.8197  0.6808
44012SOL    HW137166   2.308   2.220   2.591  0.1456 -0.8685  0.4701
44012SOL    HW237167   2.171   2.230   2.654  0.0508 -0.9933  0.2844
44013SOL     OW37168   1.918   0.223   4.186  0.0589 -0.5414  0.1702
44013SOL    HW137169   1.987   0.237   4.251 -0.9903  1.7727  0.8512
44013SOL    HW237170   1.908   0.128   4.181  2.7335 -0.8945  0.6398
44014SOL     OW37171   2.331   1.524   1.412 -0.4348  0.0761  0.1446
44014SOL    HW137172   2.299   1.434   1.409 -0.1464 -0.0217 -0.0306
44014SOL    HW237173   2.426   1.515   1.412 -0.4006  0.3526  0.9814
44015SOL     OW37174   9.580   4.290   9.741  0.1865  0.6451  0.1680
44015SOL    HW137175   9.627   4.245   9.671 -0.2593  1.1042 -0.4358
44015SOL    HW237176   9.494   4.310   9.703 -0.5263 -0.2325  1.2709
44016SOL     OW37177   2.481   6.411   3.323 -1.1718  0.3232  0.4635
44016SOL    HW137178   2.529   6.443   3.400 -1.9097 -0.0216  1.0721
44016SOL    HW237179   2.456   6.491   3.276  1.3252  0.4668 -0.6887
44017SOL     OW37180  10.245   5.419   9.820 -0.3019 -0.5453  0.1978
44017SOL    HW137181  10.239   5.405   9.725  0.7189 -1.5064  0.2650
44017SOL    HW237182  10.157   5.397   9.852 -0.5534 -0.5615 -0.4899
44018SOL     OW37183   7.315   8.423  10.260 -0.1985  0.2472  0.0451
44018SOL    HW137184   7.359   8.504  10.232  1.2331 -0.5816 -0.1435
44018SOL    HW237185   7.386   8.360  10.273 -1.3842 -1.2975 -0.8203
44019SOL     OW37186  10.194   8.480  11.267  0.7194  0.1284  0.2405
44019SOL    HW137187  10.175   8.567  11.229 -0.1736 -1.0589 -2.1331
44019SOL    HW237188  10.141   8.420  11.215  2.4072 -2.0252  0.9853
44020SOL     OW37189   4.795   7.190   1.353 -0.0002  0.2430  0.0030
44020SOL    HW137190   4.859   7.209   1.284  0.6643 -0.6618  0.3595
44020SOL    HW237191   4.744   7.271   1.361  0.0426  0.4178 -1.4100
44021SOL     OW37192   0.729   7.809   9.005  0.3122  0.1094 -0.5436
44021SOL    HW137193   0.640   7.782   9.028  0.0412  1.5116  0.1091
44021SOL    HW237194   0.716   7.870   8.932  0.5346  2.1661  1.0816
44022SOL     OW37195   0.167   2.944  10.761 -0.4394  0.3961 -0.0169
44022SOL    HW137196   0.127   3.021  10.801 -1.6099  0.2501 -0.8908
44022SOL    HW237197   0.096   2.903  10.711  0.7276 -0.0372 -1.3405
44023SOL     OW37198   5.256   8.128   3.444  0.4779 -0.5270  0.6700
44023SOL    HW137199   5.167   8.102   3.422 -0.1015  0.7538  1.4470
44023SOL    HW237200   5.287   8.176   3.367  0.6316 -1.2991  0.2518
44024SOL     OW37201   2.484   2.380   7.812  0.2969 -0.0479 -0.2061
44024SOL    HW137202   2.536   2.370   7.892 -0.6394 -4.2128 -0.0172
44024SOL    HW237203   2.530   2.326   7.747 -0.4839  1.0763 -1.7079
44025SOL     OW37204   6.354   3.828   2.852  0.4764  0.4498 -0.1201
44025SOL    HW137205   6.391   3.901   2.902  0.3255  0.4414  0.0043
44025SOL    HW237206   6.420   3.759   2.856  0.1662  0.1974  0.6537
44026SOL     OW37207   8.353   6.564  10.474  0.0486  0.2514  0.2544
44026SOL    HW137208   8.417   6.635  10.468 -0.5096  0.5589 -2.7972
44026SOL    HW237209   8.269   6.604  10.451 -0.8027 -0.7292  1.6049
44027SOL     OW37210   7.979   1.559   2.334  0.1125 -0.3609 -0.5649
44027SOL    HW137211   7.931   1.619   2.277  0.1665  0.1668 -0.0516
44027SOL    HW237212   8.054   1.531   2.281 -0.2408 -0.4537 -1.0211
44028SOL     OW37213   7.143   6.801   4.723 -0.3675  0.1114 -0.6517
44028SOL    HW137214   7.100   6.764   4.800  0.4308  2.1406  0.8072
44028SOL    HW237215   7.082   6.867   4.689  1.1543  2.4217  0.9468
44029SOL     OW37216   6.301   5.042   7.325  0.0401 -0.1579 -1.2584
44029SOL    HW137217   6.290   5.124   7.279 -0.9267 -0.0138 -0.7963
44029SOL    HW237218   6.270   5.060   7.414  1.8927 -0.4236 -0.5434
44030SOL     OW37219  10.255   7.669   0.669  0.0026 -0.0787 -0.0147
44030SOL    HW137220  10.187   7.616   0.627  0.7439  0.3000 -1.7296
44030SOL    HW237221  10.337   7.638   0.631  0.6084  0.9148  0.4570
44031SOL     OW37222   7.708   3.523   1.941  0.0092 -0.6844 -0.2902
44031SOL    HW137223   7.620   3.560   1.937  0.3982  0.1747 -0.9714
44031SOL    HW237224   7.705   3.446   1.883 -0.5483 -1.2129  0.4303
44032SOL     OW37225   1.282   7.032   3.394  0.4443  0.0486 -0.2636
44032SOL    HW137226   1.331   6.950   3.403  2.6437  1.3182 -0.2612
44032SOL    HW237227   1.331   7.082   3.328 -0.1949  1.8319  0.5733
44033SOL     OW37228   0.876   0.157   9.551 -0.0225  0.9194  0.1807
44033SOL    HW137229   0.895   0.236   9.603 -0.1445  1.4194 -0.5218
44033SOL    HW237230   0.807   0.185   9.490  0.1277  0.3422 -0.2555
44034SOL     OW37231   2.946   3.965  10.792 -0.3352 -0.2641 -0.3447
44034SOL    HW137232   3.035   3.963  10.828  0.4083  0.1297 -2.0844
44034SOL    HW237233   2.900   4.030  10.844  0.4098 -0.4359  0.5460
44035SOL     OW37234   5.687   1.476   9.700  0.4257  0.4572 -0.2010
44035SOL    HW137235   5.651   1.564   9.695 -1.3083 -0.1164  1.6679
44035SOL    HW237236   5.776   1.488   9.735  0.6084  1.5361 -1.0193
44036SOL     OW37237   0.028  10.882   2.991  0.4909 -0.7108  0.1853
44036SOL    HW137238  -0.036  10.946   3.020  0.6860 -0.1650 -0.5476
44036SOL    HW237239   0.113  10.926   3.002  0.5232 -0.1949 -1.8765
44037SOL     OW37240   8.453   8.385   2.067 -0.3047 -0.1663  0.7570
44037SOL    HW137241   8.470   8.477   2.044 -1.1246 -0.2333 -0.1564
44037SOL    HW237242   8.537   8.341   2.056 -0.3881  0.0573 -0.9286
44038SOL     OW37243   6.276  10.631   1.137  0.3840 -0.2642 -0.1647
44038SOL    HW137244   6.300  10.694   1.205  0.5258 -0.6646  0.1560
44038SOL    HW237245   6.328  10.553   1.157  1.1337 -0.0569 -1.2951
44039SOL     OW37246   9.110   2.061   2.504 -0.0703  0.5895 -0.0584
44039SOL    HW137247   9.126   2.120   2.430 -0.9474  1.3988  0.3834
44039SOL    HW237248   9.061   1.988   2.466  2.1613 -0.5248 -0.8658
44040SOL     OW37249   5.897   5.291   1.498  0.1004 -0.1997  0.0155
44040SOL    HW137250   5.861   5.208   1.466  0.7509 -1.0761  1.5094
44040SOL    HW237251   5.825   5.354   1.488 -0.7140 -1.1617 -0.2216
44041SOL     OW37252   2.365   3.352   1.380 -0.2088  0.2043  0.0557
44041SOL    HW137253   2.441   3.304   1.347  0.3635  1.2765 -0.2331
44041SOL    HW237254   2.372   3.438   1.339 -0.3395  1.0552  1.7634
44042SOL     OW37255   7.521  10.201   7.676  0.0234 -0.7143  0.2673
44042SOL    HW137256   7.525  10.291   7.643 -0.3182 -0.3493  1.2157
44042SOL    HW237257   7.435  10.169   7.648 -0.5735 -0.1516  1.4496
44043SOL     OW37258   3.312   7.805   8.807  0.6261  0.3232 -0.0317
44043SOL    HW137259   3.310   7.760   8.722 -1.4771 -0.7494  0.5386
44043SOL    HW237260   3.374   7.756   8.860  1.2330  0.4228 -0.6489
44044SOL     OW37261   9.166   0.398   4.381 -0.5514 -0.2690 -0.2043
44044SOL    HW137262   9.174   0.316   4.430  0.9345  0.7981  1.3818
44044SOL    HW237263   9.180   0.467   4.446 -1.1949  1.2492 -1.6234
44045SOL     OW37264   0.479   7.915   8.571 -0.8300 -0.1212 -0.7961
44045SOL    HW137265   0.523   7.843   8.526  1.5455  0.3672  0.6814
44045SOL    HW237266   0.391   7.881   8.589  0.3297 -2.7663  0.1563
44046SOL     OW37267   8.357  11.256   7.477 -0.9187 -0.0541 -0.1358
44046SOL    HW137268   8.371  11.277   7.569  0.6989  0.4062 -0.4531
44046SOL    HW237269   8.307  11.331   7.443  0.6071  0.9827 -0.1643
44047SOL     OW37270   9.790  10.260   9.983 -0.4244  0.2842 -0.0469
44047SOL    HW137271   9.813  10.201  10.054 -1.2004 -0.5425 -0.4733
44047SOL    HW237272   9.695  10.265   9.985 -0.3491  1.7573  0.1705
44048SOL     OW37273  10.891   9.928   8.293 -0.0417 -0.4381 -0.6992
44048SOL    HW137274  10.912   9.959   8.205 -1.1848 -1.9582 -1.5337
44048SOL    HW237275  10.935   9.843   8.300 -1.6401 -1.2807 -0.5886
44049SOL     OW37276   8.493   2.716   9.718 -0.5187  0.2629 -0.1480
44049SOL    HW137277   8.415   2.771   9.706  1.3761  2.1991 -4.6134
44049SOL    HW237278   8.563   2.778   9.740  0.4785 -1.0431  0.4071
44050SOL     OW37279   6.188   8.155   4.515 -0.3388 -0.1416  0.4183
44050SOL    HW137280   6.220   8.139   4.426 -1.0899  0.2966  0.0684
44050SOL    HW237281   6.258   8.123   4.572 -0.2542 -1.2991 -0.3204
44051SOL     OW37282   4.825   9.229  11.279 -0.0223 -0.0299 -0.2023
44051SOL    HW137283   4.891   9.166  11.249 -1.9080 -1.4708 -1.4518
44051SOL    HW237284   4.874   9.291  11.332  2.0911 -1.9108  0.1285
44052SOL     OW37285   0.720  10.214  10.413 -0.1715 -0.2717  0.3446
44052SOL    HW137286   0.649  10.200  10.475 -1.2343 -2.1086 -1.2230
44052SOL    HW237287   0.744  10.126  10.384  1.1476  0.4753 -0.9246
44053SOL     OW37288  10.655   1.728   4.019 -0.2425  0.8846 -0.1455
44053SOL    HW137289  10.592   1.668   3.978 -2.3858  2.4587  0.7121
44053SOL    HW237290  10.659   1.803   3.960  0.5214  0.9837  0.0238
44054SOL     OW37291   3.862   4.353  10.394 -0.3361  0.1271 -0.4472
44054SOL    HW137292   3.771   4.384  10.393  0.3548  2.2776 -0.0491
44054SOL    HW237293   3.872   4.305  10.312 -1.1540  1.9604 -1.6530
44055SOL     OW37294   4.143   0.206   5.283 -0.3505 -0.2625  0.2830
44055SOL    HW137295   4.056   0.172   5.262 -0.7329  0.2218  1.0452
44055SOL    HW237296   4.135   0.301   5.270  0.5641 -0.3836 -1.3655
44056SOL     OW37297   8.690   0.813  10.326 -0.0398 -0.1208  0.6648
44056SOL    HW137298   8.697   0.902  10.361  1.2136 -0.1239  0.4515
44056SOL    HW237299   8.660   0.761  10.400 -2.3868  0.7499  0.3597
44057SOL     OW37300   0.250   0.392   9.607 -0.4697  0.0183 -0.0308
44057SOL    HW137301   0.185   0.461   9.619 -1.2531 -0.8266  0.5819
44057SOL    HW237302   0.217   0.318   9.656  1.7796  0.1138  1.7320
44058SOL     OW37303   3.391   0.291   9.474 -0.5459 -0.1736 -0.1287
44058SOL    HW137304   3.331   0.363   9.455  1.9774  1.6476 -1.4653
44058SOL    HW237305   3.366   0.262   9.562 -3.9250 -0.0830 -0.9940
44059SOL     OW37306   5.148   3.486   6.359 -0.2243  0.0041 -0.3620
44059SOL    HW137307   5.177   3.534   6.437 -0.8017  0.0468 -0.1711
44059SOL    HW237308   5.145   3.551   6.290  0.5332 -0.0856 -0.4756
44060SOL     OW37309   3.742   3.673   4.871 -0.9365 -0.5795  0.4402
44060SOL    HW137310   3.748   3.768   4.879  2.5968 -0.5265 -1.7285
44060SOL    HW237311   3.681   3.659   4.799 -1.3327  0.0486  0.6463
44061SOL     OW37312   3.262   0.273   2.908 -0.0173  0.4604  0.3486
44061SOL    HW137313   3.318   0.262   2.985 -0.0580  1.9622  0.6116
44061SOL    HW237314   3.276   0.364   2.880 -2.2231  0.8443  0.3651
44062SOL     OW37315   1.493   7.299   8.203 -0.0284 -0.7491 -1.2419
44062SOL    HW137316   1.407   7.259   8.191  0.3525 -1.5790 -1.2285
44062SOL    HW237317   1.547   7.230   8.241  0.9423 -0.5760 -2.2539
44063SOL     OW37318   9.079   2.609  10.547 -0.5447 -0.4217 -0.0673
44063SOL    HW137319   9.039   2.652  10.623  0.8084 -2.5145  1.8737
44063SOL    HW237320   9.005   2.570  10.500 -1.2841  0.0394  0.6941
44064SOL     OW37321   5.161   1.306   2.593  0.2073  0.3516  0.1527
44064SOL    HW137322   5.229   1.351   2.541  0.7815 -0.8693 -0.1746
44064SOL    HW237323   5.198   1.302   2.681 -0.1169  1.0642  0.3280
44065SOL     OW37324   9.080  10.358  10.289  0.0275 -0.3999  0.7628
44065SOL    HW137325   9.005  10.408  10.256  1.3215  1.0415 -0.0555
44065SOL    HW237326   9.138  10.424  10.326  1.4219 -1.3710  0.3293
44066SOL     OW37327   0.225   5.638   7.152 -0.1774  0.5747 -0.2162
44066SOL    HW137328   0.297   5.695   7.178 -0.1477  0.8179 -0.8124
44066SOL    HW237329   0.267   5.561   7.114 -0.2265  0.5817 -0.2862
44067SOL     OW37330  10.468   9.085  10.735  0.1456 -0.6542  0.2607
44067SOL    HW137331  10.486   9.045  10.820  0.5194  0.2780  0.6190
44067SOL    HW237332  10.517   9.166  10.735 -2.4277  0.9706  0.4690
44068SOL     OW37333  11.015   3.256   4.537 -0.1658  0.5281 -0.0899
44068SOL    HW137334  11.039   3.314   4.610  0.5814  1.3489 -0.9757
44068SOL    HW237335  11.089   3.196   4.528 -0.5265  0.0350  0.2188
44069SOL     OW37336   6.774   5.129   7.357 -0.5422  0.2634 -0.0285
44069SOL    HW137337   6.687   5.093   7.376 -1.1713  1.9627  0.3985
44069SOL    HW237338   6.827   5.102   7.432 -0.8552 -0.2298  0.0232
44070SOL     OW37339   1.348   4.579   8.311 -0.0830  0.2039  0.1316
44070SOL    HW137340   1.258   4.612   8.305  0.3444  0.9813 -2.5382
44070SOL    HW237341   1.346   4.497   8.263  0.6391  0.2375  0.0430
44071SOL     OW37342   8.282   3.771   9.257 -0.2768 -0.3104  0.1383
44071SOL    HW137343   8.272   3.803   9.167  2.3228 -1.6020 -0.6577
44071SOL    HW237344   8.273   3.849   9.311 -0.6285  0.6879 -1.3313
44072SOL     OW37345   9.092   0.379   6.189  0.5689 -0.2535 -0.1452
44072SOL    HW137346   9.019   0.357   6.130 -0.3307  1.1667  0.4087
44072SOL    HW237347   9.171   0.362   6.137 -0.2001 -0.1278 -1.3659
44073SOL     OW37348   3.969   4.303   5.131  0.1590  0.1830  0.3507
44073SOL    HW137349   3.900   4.369   5.129 -1.0830 -1.1266 -1.0243
44073SOL    HW237350   3.974   4.276   5.223 -2.7693 -1.3300  0.1159
44074SOL     OW37351   1.857   8.455   2.599 -0.3496  0.0867 -0.4632
44074SOL    HW137352   1.848   8.444   2.693  0.4980 -1.6283 -0.5747
44074SOL    HW237353   1.772   8.488   2.570 -0.1472  2.0397  1.0858
44075SOL     OW37354   0.844   9.303   3.547  0.2969  0.3961 -0.3977
44075SOL    HW137355   0.820   9.315   3.638  2.6087  0.2384  0.2696
44075SOL    HW237356   0.894   9.221   3.545 -0.7903 -0.2543 -2.0096
44076SOL     OW37357   7.124   0.801  10.339  0.1635  0.5070 -0.3620
44076SOL    HW137358   7.156   0.876  10.289 -0.1588 -0.9381 -2.8073
44076SOL    HW237359   7.202   0.748  10.356 -0.1288 -0.4016 -1.7915
44077SOL     OW37360   2.340   6.571  11.118 -0.1619  0.1114  0.5740
44077SOL    HW137361   2.399   6.496  11.111 -0.1375  0.0686  1.2510
44077SOL    HW237362   2.258   6.542  11.079  0.7104  0.6396 -1.7136
44078SOL     OW37363   7.918   5.391   1.597  0.3664  0.2128  0.2066
44078SOL    HW137364   8.008   5.369   1.572  0.8594  0.7588  1.4504
44078SOL    HW237365   7.899   5.472   1.550 -0.2737 -1.0550 -1.7820
44079SOL     OW37366   4.379   5.146   1.481 -0.5565 -0.2606 -0.3700
44079SOL    HW137367   4.365   5.099   1.399  1.3653 -0.7818 -0.4459
44079SOL    HW237368   4.474   5.163   1.482 -0.6880  0.4367  1.3559
44080SOL     OW37369   2.514   7.357   6.634  0.3608 -0.7101  0.4022
44080SOL    HW137370   2.461   7.286   6.599  0.0299 -0.1085 -0.3281
44080SOL    HW237371   2.582   7.313   6.686 -1.1153 -1.4719  1.7554
44081SOL     OW37372   6.819   5.494   6.302 -0.7011  0.6272  0.3849
44081SOL    HW137373   6.875   5.571   6.291 -1.9416  1.5693  0.5171
44081SOL    HW237374   6.730   5.528   6.293 -1.2912 -0.6844  1.1260
44082SOL     OW37375  11.260   3.038   6.456  0.1914  0.0222  0.6382
44082SOL    HW137376  11.249   2.987   6.536  1.5544 -0.9007  0.2569
44082SOL    HW237377  11.201   2.996   6.393 -0.6197  0.5304  1.0611
44083SOL     OW37378   2.449   1.116   7.469  0.4352 -0.1307  0.6205
44083SOL    HW137379   2.501   1.039   7.494  1.3365  0.4632  0.5918
44083SOL    HW237380   2.416   1.150   7.552  1.6367  0.5754  0.8209
44084SOL     OW37381   9.781   6.191   6.232  0.0627  0.1420 -0.8230
44084SOL    HW137382   9.820   6.105   6.248 -0.2345  0.0146 -0.7781
44084SOL    HW237383   9.846   6.253   6.266 -0.2031 -0.0992  0.1503
44085SOL     OW37384   2.502   5.619  11.184 -0.9427 -0.0253  0.4635
44085SOL    HW137385   2.490   5.712  11.162 -0.1518  0.1310  0.6736
44085SOL    HW237386   2.595   5.610  11.200 -1.2578 -0.4764  2.1748
44086SOL     OW37387   0.346   3.862   7.427  0.2435  0.0806 -0.1016
44086SOL    HW137388   0.331   3.890   7.337 -1.1378 -1.1715 -0.2733
44086SOL    HW237389   0.353   3.767   7.422 -0.1493 -0.0238  1.1538
44087SOL     OW37390   1.057   4.794   6.876  0.3437  0.3036  0.3114
44087SOL    HW137391   1.053   4.751   6.790  1.6224  1.0211 -0.1310
44087SOL    HW237392   1.115   4.738   6.927 -0.4733 -0.1604  0.7503
44088SOL     OW37393   8.848   6.243   9.472  0.0356 -0.1025 -0.1275
44088SOL    HW137394   8.786   6.316   9.479 -0.0738 -0.1360 -0.7272
44088SOL    HW237395   8.933   6.282   9.490 -0.0303  0.1736 -0.3990
44089SOL     OW37396   5.439   1.803   3.703 -0.3674 -0.0415 -0.7563
44089SOL    HW137397   5.374   1.758   3.757 -1.7661  1.3400 -1.2401
44089SOL    HW237398   5.523   1.772   3.736 -1.2657 -1.9445 -0.1859
44090SOL     OW37399   2.145   1.672   9.493  0.0148  0.2489  0.0703
44090SOL    HW137400   2.169   1.749   9.442  0.7925  0.4239  0.6907
44090SOL    HW237401   2.222   1.615   9.488 -0.6502 -0.5937 -0.5887
44091SOL     OW37402   8.350   7.377   9.689 -0.2820 -0.8498  0.1476
44091SOL    HW137403   8.267   7.371   9.641 -0.0220 -1.6224 -0.2007
44091SOL    HW237404   8.389   7.290   9.682 -0.2742 -1.0005  1.8364
44092SOL     OW37405   2.376   6.786  10.756 -0.3560  0.2332  0.0121
44092SOL    HW137406   2.429   6.795  10.677  0.2738 -1.3253  0.2540
44092SOL    HW237407   2.313   6.718  10.736  0.5878 -1.0345  1.2592
44093SOL     OW37408   3.537   9.177   7.906  0.1289 -0.1133  0.4849
44093SOL    HW137409   3.461   9.235   7.917  2.4234  2.8510  1.2891
44093SOL    HW237410   3.550   9.139   7.993  0.0320 -0.0046  0.5479
44094SOL     OW37411   0.032   5.163   2.204 -0.1300  0.1904 -0.3759
44094SOL    HW137412   0.054   5.140   2.114  0.4908  0.6822 -0.3467
44094SOL    HW237413   0.110   5.140   2.255 -0.3876  0.1460  0.0025
44095SOL     OW37414   9.733   3.412   7.850  0.1674 -0.5595  0.3482
44095SOL    HW137415   9.677   3.335   7.854 -0.6232  0.0463  1.1088
44095SOL    HW237416   9.782   3.411   7.933  1.3387 -1.1164 -0.3322
44096SOL     OW37417  10.935   0.384   2.554 -0.6736  0.1639 -0.9113
44096SOL    HW137418  10.976   0.366   2.638 -0.9252  0.3488 -0.7497
44096SOL    HW237419  10.973   0.319   2.495 -0.0295  0.4311 -0.7977
44097SOL     OW37420   3.551   0.012   9.604  0.5362  0.2814  0.1391
44097SOL    HW137421   3.597   0.067   9.540  0.1248 -0.3918 -0.7481
44097SOL    HW237422   3.600  -0.070   9.604 -0.3805 -0.2758 -0.4674
44098SOL     OW37423   4.055  11.042   3.647  0.0759  0.5375 -0.0118
44098SOL    HW137424   4.149  11.051   3.633 -0.1847  2.1577 -0.9361
44098SOL    HW237425   4.027  10.976   3.584 -0.1401  3.5571 -3.2813
44099SOL     OW37426   4.158   6.436   7.203 -0.0561 -0.9324  0.2629
44099SOL    HW137427   4.134   6.405   7.290  2.1508  2.0723  2.0103
44099SOL    HW237428   4.253   6.423   7.197  0.3828  2.1941 -0.2552
44100SOL     OW37429   7.541   5.440   0.554 -0.3606 -0.2269  0.0302
44100SOL    HW137430   7.548   5.472   0.464  0.8316 -1.0669 -0.1988
44100SOL    HW237431   7.632   5.423   0.580 -0.7300 -0.4131  1.2373
44101SOL     OW37432   9.230   0.521   6.654 -0.1451  0.6532 -0.1466
44101SOL    HW137433   9.154   0.485   6.608 -0.1808 -0.0843  0.4861
44101SOL    HW237434   9.305   0.473   6.618  0.2840  2.7547 -2.2319
44102SOL     OW37435  10.830   2.510   0.442  0.3694 -0.6962 -0.0341
44102SOL    HW137436  10.899   2.546   0.499 -0.8277  2.5714 -0.5034
44102SOL    HW237437  10.750   2.523   0.492 -0.3245 -0.8900 -1.0901
44103SOL     OW37438   2.814   8.975   5.792  0.1264  0.5657 -0.3564
44103SOL    HW137439   2.767   8.911   5.738  0.8905 -2.1386  2.0526
44103SOL    HW237440   2.907   8.958   5.773  0.4031 -0.4835  1.8508
44104SOL     OW37441   1.171   2.976   5.537  0.1309 -0.2621  0.1842
44104SOL    HW137442   1.178   3.064   5.574  1.5916 -0.2045 -0.2105
44104SOL    HW237443   1.108   2.931   5.594  2.6348 -0.2954  3.0486
44105SOL     OW37444   0.491   4.764  10.712 -0.3655 -0.6106 -0.0115
44105SOL    HW137445   0.466   4.846  10.671  1.3210  0.3755  0.8540
44105SOL    HW237446   0.429   4.753  10.784  0.9311  1.2192  1.4299
44106SOL     OW37447  10.398   8.841   0.302 -0.1336 -0.6360  0.3849
44106SOL    HW137448  10.392   8.928   0.263 -0.5164 -0.5922  0.5341
44106SOL    HW237449  10.346   8.786   0.243  0.2610 -0.7997  0.1877
44107SOL     OW37450  10.031   8.070   4.150  0.2792 -0.0368  0.6160
44107SOL    HW137451   9.993   8.030   4.228  0.9975 -0.8721  0.5393
44107SOL    HW237452  10.125   8.056   4.159  0.2000 -2.2239 -1.5486
44108SOL     OW37453   4.459   4.985   1.951  0.1680  0.8661  0.1775
44108SOL    HW137454   4.382   4.967   2.006  0.6643  1.1873  0.9964
44108SOL    HW237455   4.424   4.995   1.863 -0.3752 -1.8331  0.0633
44109SOL     OW37456   9.425   7.511   5.654 -0.0376 -0.0739 -0.2265
44109SOL    HW137457   9.518   7.495   5.637  0.2263 -0.2090  1.3083
44109SOL    HW237458   9.400   7.579   5.590  0.9176 -0.5776 -1.1447
44110SOL     OW37459   2.499   9.129  10.945  0.0076 -0.0039  0.8103
44110SOL    HW137460   2.461   9.184  10.876  1.1972 -0.0842  0.0853
44110SOL    HW237461   2.560   9.187  10.990 -0.2728 -0.1473  1.3910
44111SOL     OW37462   1.736   8.220   7.589  0.1670  0.0206  0.0866
44111SOL    HW137463   1.728   8.250   7.499  0.4731  0.4926  0.2154
44111SOL    HW237464   1.699   8.291   7.642 -0.8094 -0.6146  0.2868
44112SOL     OW37465   6.362   5.085  11.022 -0.1476  0.5699 -0.0558
44112SOL    HW137466   6.348   5.078  11.116  1.2322  0.4610  0.1474
44112SOL    HW237467   6.457   5.096  11.012 -0.1505 -0.6186 -1.4958
44113SOL     OW37468  10.772   0.084   1.046 -0.2337 -0.0494  0.2175
44113SOL    HW137469  10.832   0.078   0.972 -0.3937  0.5326  0.0350
44113SOL    HW237470  10.730   0.170   1.036  0.0916  0.2325  1.2466
44114SOL     OW37471   4.449   3.277   3.215  0.4934  0.5810  0.0639
44114SOL    HW137472   4.382   3.327   3.262  1.0409  0.8699  0.5491
44114SOL    HW237473   4.407   3.193   3.195 -0.0810  0.8416  0.1820
44115SOL     OW37474  10.039   2.495   7.060 -0.3765 -0.1844 -0.2902
44115SOL    HW137475   9.993   2.576   7.080  1.9731  1.1991 -0.2859
44115SOL    HW237476  10.068   2.462   7.146  1.6922  0.8627 -0.5474
44116SOL     OW37477   5.858   9.675   3.940 -0.0120  0.1195 -0.1102
44116SOL    HW137478   5.785   9.688   3.879 -0.5136 -1.9692 -0.0023
44116SOL    HW237479   5.818   9.634   4.017  0.9783  0.6521  0.7055
44117SOL     OW37480   6.032   9.290   5.710  0.4153  0.5890  0.2712
44117SOL    HW137481   6.056   9.199   5.691 -0.9577  0.0952  0.8515
44117SOL    HW237482   6.109   9.326   5.753  1.9735  0.4850 -2.3051
44118SOL     OW37483   9.721   5.446   6.986  0.7559 -0.1685 -0.0796
44118SOL    HW137484   9.764   5.531   6.978  2.1793 -0.8848 -0.2112
44118SOL    HW237485   9.776   5.397   7.048 -0.0910 -0.9635  0.0529
44119SOL     OW37486   2.559   9.447   5.620 -0.2719  0.4857  0.0791
44119SOL    HW137487   2.507   9.401   5.555  1.6873 -0.1999 -1.0138
44119SOL    HW237488   2.582   9.380   5.684 -0.7953  0.8131  0.6190
44120SOL     OW37489   8.276   2.014   9.621  0.0097  0.5312  0.7837
44120SOL    HW137490   8.356   1.990   9.668  0.0011 -1.3597 -0.1082
44120SOL    HW237491   8.306   2.041   9.534 -0.3842 -1.2733  0.0681
44121SOL     OW37492   8.401   7.736   4.352  0.0875  0.3367 -0.2149
44121SOL    HW137493   8.446   7.688   4.421  0.5237  0.8694 -0.1213
44121SOL    HW237494   8.313   7.700   4.351  0.0843  0.3192  0.6084
44122SOL     OW37495   2.201   1.846   0.870 -0.2670  0.6522 -0.1128
44122SOL    HW137496   2.131   1.902   0.836 -0.7593 -0.6290 -1.2229
44122SOL    HW237497   2.178   1.833   0.962 -1.8906 -0.3762 -0.6567
44123SOL     OW37498   2.442   0.204   4.824 -0.6483 -0.0275 -0.0441
44123SOL    HW137499   2.390   0.155   4.888  0.8299 -1.1042  0.3786
44123SOL    HW237500   2.525   0.219   4.869 -0.1092  0.4714 -1.2023
44124SOL     OW37501   8.974   2.652   2.290  0.0218 -0.1622 -0.1096
44124SOL    HW137502   8.935   2.589   2.351  0.6443 -1.0599 -0.6409
44124SOL    HW237503   8.955   2.617   2.203 -0.9841  1.1907 -0.4555
44125SOL     OW37504   5.644   0.070   5.990 -0.1798 -0.0067  0.3535
44125SOL    HW137505   5.687   0.146   6.030 -0.1912  1.2370 -1.9416
44125SOL    HW237506   5.716   0.020   5.952 -0.5470  0.9897 -1.6799
44126SOL     OW37507   6.114   1.588   8.645 -0.1959 -0.2574 -0.2785
44126SOL    HW137508   6.026   1.600   8.608 -0.5820 -0.2408  0.6260
44126SOL    HW237509   6.112   1.637   8.727  0.1036 -1.6947  0.5951
44127SOL     OW37510   4.785   7.634   5.899  0.4589  0.0006 -0.2698
44127SOL    HW137511   4.877   7.625   5.925  0.3069  0.4645  0.4316
44127SOL    HW237512   4.744   7.554   5.930  0.5254  0.0120 -0.1517
44128SOL     OW37513   5.667   5.222   0.637 -0.7198  0.0388 -0.2806
44128SOL    HW137514   5.633   5.193   0.721 -2.0210 -1.1581 -1.2082
44128SOL    HW237515   5.647   5.151   0.576  1.0269  0.4767 -1.4274
44129SOL     OW37516   3.250   9.550   4.288  0.0796 -0.3629  0.1026
44129SOL    HW137517   3.262   9.635   4.331  0.2173 -0.4196  0.1754
44129SOL    HW237518   3.157   9.548   4.264  0.2622  0.1633 -0.6597
44130SOL     OW37519   5.877   4.546   5.654  0.1125  0.2023  0.2477
44130SOL    HW137520   5.851   4.614   5.716  1.0155  2.5463 -1.8383
44130SOL    HW237521   5.962   4.574   5.621  0.8367 -2.3270 -0.1650
44131SOL     OW37522   7.512   6.188   8.448  0.1753 -0.3542  0.2886
44131SOL    HW137523   7.454   6.234   8.510  0.6962 -0.6628  1.0143
44131SOL    HW237524   7.461   6.181   8.368 -1.2160 -1.5950  1.2525
44132SOL     OW37525  11.074   6.568   8.994  0.4695 -0.1341  0.0085
44132SOL    HW137526  11.109   6.503   8.934  0.7714  0.4920 -0.4990
44132SOL    HW237527  10.981   6.572   8.974  0.3078 -0.9653  0.5716
44133SOL     OW37528   2.966   5.372   7.137  0.1668  0.4855  0.1386
44133SOL    HW137529   2.879   5.340   7.159 -0.4529  0.3236 -2.4995
44133SOL    HW237530   2.985   5.336   7.051  2.0271  2.1554 -0.2030
44134SOL     OW37531   8.059   6.628   2.002  0.0482 -0.7276 -0.0991
44134SOL    HW137532   8.043   6.697   2.066  1.9403 -0.2463 -0.1134
44134SOL    HW237533   8.088   6.553   2.054  0.3501 -0.7325 -0.2689
44135SOL     OW37534   7.237   4.701   4.624 -0.5701 -0.3680  0.2323
44135SOL    HW137535   7.229   4.611   4.658  1.4762  0.4121  2.9794
44135SOL    HW237536   7.315   4.699   4.569  0.4399  0.0795  1.6252
44136SOL     OW37537   5.740   9.898  10.142  0.0036 -0.2685 -0.5017
44136SOL    HW137538   5.777   9.811  10.125  0.1683 -0.4449  0.6999
44136SOL    HW237539   5.683   9.915  10.068  1.0500 -0.8122 -1.4438
44137SOL     OW37540   0.892   4.042   0.371  0.5069  0.3264 -0.3251
44137SOL    HW137541   0.886   4.137   0.368  0.7981  0.3770  0.5654
44137SOL    HW237542   0.986   4.023   0.367  0.3522 -0.0212 -2.8725
44138SOL     OW37543   3.002   8.316   3.468  0.1518 -0.3039 -0.1095
44138SOL    HW137544   3.030   8.263   3.543  0.5589  0.6956  0.4472
44138SOL    HW237545   2.916   8.349   3.492 -0.1559 -0.7979 -0.5099
44139SOL     OW37546   1.457   7.391   1.915 -0.6176 -0.1642 -0.3813
44139SOL    HW137547   1.549   7.378   1.890 -0.8888 -1.3267 -0.8039
44139SOL    HW237548   1.458   7.394   2.010 -0.1206 -0.0544 -0.3902
44140SOL     OW37549  10.224   6.269  10.829  0.2028 -0.2705  0.0822
44140SOL    HW137550  10.210   6.247  10.737  1.3025  0.8274 -0.3640
44140SOL    HW237551  10.144   6.313  10.856 -0.4917 -1.4055 -0.0752
44141SOL     OW37552   9.444   7.672   6.843  0.0602 -0.1114 -0.0745
44141SOL    HW137553   9.462   7.589   6.886  1.1546 -0.5704 -1.3931
44141SOL    HW237554   9.358   7.660   6.803  0.3602 -0.7340 -0.5415
44142SOL     OW37555   6.485   9.899   5.039  0.2335 -0.4657 -0.3039
44142SOL    HW137556   6.578   9.888   5.055  0.1056 -0.2070  0.6053
44142SOL    HW237557   6.480   9.972   4.977  0.5909 -0.0515  0.1604
44143SOL     OW37558  10.246   1.292   8.474  0.0266 -0.0205 -0.0950
44143SOL    HW137559  10.245   1.387   8.461  1.2299 -0.0482 -0.4325
44143SOL    HW237560  10.327   1.275   8.522 -0.7521 -0.7548  0.9998
44144SOL     OW37561   2.191   5.632   1.448 -0.5848  0.5829  0.1533
44144SOL    HW137562   2.155   5.718   1.471 -0.8590  0.2783  0.9032
44144SOL    HW237563   2.150   5.572   1.511 -1.1994 -0.2556 -1.0356
44145SOL     OW37564   3.512   4.599   6.349  0.0807  0.7674 -0.3304
44145SOL    HW137565   3.588   4.541   6.356 -0.7607 -0.2647  0.2186
44145SOL    HW237566   3.476   4.603   6.437  0.4187  2.5415 -0.2460
44146SOL     OW37567   3.985   2.213   6.889 -0.5272  0.5861 -0.1017
44146SOL    HW137568   3.917   2.267   6.928  1.0191  3.1067 -0.7733
44146SOL    HW237569   3.938   2.149   6.836 -2.3965  1.4459  0.4832
44147SOL     OW37570  10.960   5.579   3.640  0.6746  0.2872  0.0540
44147SOL    HW137571  10.968   5.665   3.597 -1.3195  0.8539  0.7540
44147SOL    HW237572  10.930   5.520   3.571 -0.9726  0.8564  0.2465
44148SOL     OW37573   2.202   1.438   9.262 -0.6013  0.1449  0.7778
44148SOL    HW137574   2.286   1.394   9.267  0.0089  1.4483  2.2009
44148SOL    HW237575   2.206   1.506   9.328 -2.9734 -0.1066  1.2324
44149SOL     OW37576   5.838   3.997   8.579  0.5073  0.7564 -0.2281
44149SOL    HW137577   5.862   4.077   8.626  1.3995  0.8698 -0.8497
44149SOL    HW237578   5.766   4.024   8.521 -0.4368  0.6674  0.8909
44150SOL     OW37579   6.305   7.307   3.630 -0.9007  0.4066 -0.6176
44150SOL    HW137580   6.242   7.313   3.702 -0.0743 -2.2292  0.3792
44150SOL    HW237581   6.389   7.332   3.670 -0.1627 -2.5671 -0.2297
44151SOL     OW37582   5.545   4.364   5.389  0.5121  0.2915 -0.5441
44151SOL    HW137583   5.535   4.268   5.383  0.3317  0.4167 -2.7462
44151SOL    HW237584   5.580   4.379   5.476 -0.2838 -1.7289  0.1648
44152SOL     OW37585  11.216   4.091   8.856  0.2046  0.2496  0.0408
44152SOL    HW137586  11.236   4.026   8.922  0.4278  0.9049  0.6189
44152SOL    HW237587  11.280   4.076   8.786 -1.4399 -1.9085 -1.0584
44153SOL     OW37588   7.582   6.113   2.480  0.1686 -0.1085  0.1768
44153SOL    HW137589   7.580   6.026   2.520  0.5167  0.5868  1.7707
44153SOL    HW237590   7.656   6.157   2.524 -0.6037  1.3049  0.0810
44154SOL     OW37591   5.502   4.900   2.984 -0.3369  0.1537  0.3737
44154SOL    HW137592   5.524   4.808   2.998  0.2303  0.2785  0.3294
44154SOL    HW237593   5.542   4.945   3.059 -1.7447  0.2058  1.1022
44155SOL     OW37594   7.062   3.638   5.839  0.3936  0.2572  0.2734
44155SOL    HW137595   7.066   3.734   5.846  0.3944  0.3333 -0.7366
44155SOL    HW237596   7.136   3.615   5.783 -0.9344 -0.1357 -1.3506
44156SOL     OW37597   2.306   8.420  10.625 -0.0426 -0.0770  0.0314
44156SOL    HW137598   2.277   8.350  10.684  2.8851 -1.4845 -0.1066
44156SOL    HW237599   2.330   8.492  10.683 -2.4034  0.5867  0.2156
44157SOL     OW37600   5.581   5.674   1.889  0.7454 -0.1242  0.0618
44157SOL    HW137601   5.501   5.726   1.899  1.0830  0.5156 -0.4912
44157SOL    HW237602   5.560   5.611   1.820  0.3922 -0.6139  0.6124
44158SOL     OW37603   0.276   6.280   1.638  0.3452 -0.0821  0.3870
44158SOL    HW137604   0.275   6.186   1.655 -2.3321 -0.2214 -0.2979
44158SOL    HW237605   0.265   6.320   1.724  0.1679 -0.4425  0.5332
44159SOL     OW37606   5.156   4.195   0.664  0.0727  0.4611 -0.0046
44159SOL    HW137607   5.069   4.171   0.633  0.0313  0.7140 -0.0892
44159SOL    HW237608   5.213   4.186   0.588  0.4823 -1.5531  0.5105
44160SOL     OW37609   4.860   9.692  10.768  0.4747 -0.0640 -0.4930
44160SOL    HW137610   4.951   9.717  10.755 -0.0037  2.6051  0.7538
44160SOL    HW237611   4.820   9.697  10.681  0.4387  3.7355 -0.3470
44161SOL     OW37612   5.908   3.341   3.135 -0.6119 -0.2457 -0.1147
44161SOL    HW137613   5.874   3.394   3.063 -3.0013  0.6813  1.6139
44161SOL    HW237614   5.830   3.301   3.174  0.7306 -1.5622  1.2985
44162SOL     OW37615   5.570   3.474   6.099  0.0326 -0.3027 -0.2744
44162SOL    HW137616   5.593   3.565   6.117 -0.8855 -0.5191  2.2911
44162SOL    HW237617   5.644   3.423   6.134 -0.5340 -0.6330  0.4581
44163SOL     OW37618   3.758   2.094   3.558  0.3962 -0.3583 -0.6193
44163SOL    HW137619   3.806   2.138   3.628 -1.0566  0.3223 -0.0231
44163SOL    HW237620   3.786   2.003   3.562  3.6498  0.5106 -2.0403
44164SOL     OW37621   2.692   2.369   4.506  0.0483  0.2038  0.0870
44164SOL    HW137622   2.755   2.346   4.574  0.3811  1.7641  0.3200
44164SOL    HW237623   2.616   2.313   4.523  1.7022 -2.3675 -0.7559
44165SOL     OW37624   0.100   1.139   5.317  0.2135 -0.5192 -0.3609
44165SOL    HW137625   0.009   1.129   5.343  0.1388 -1.2097 -0.8803
44165SOL    HW237626   0.096   1.173   5.227  0.4655 -0.7291 -0.4520
44166SOL     OW37627   8.162   4.008  11.165  0.4205 -0.0730 -0.1254
44166SOL    HW137628   8.111   3.941  11.211  0.4078 -1.3440 -1.9241
44166SOL    HW237629   8.100   4.080  11.151 -1.2161 -1.8936 -2.9574
44167SOL     OW37630   1.772   0.590   6.923 -0.0777  0.2975 -0.8934
44167SOL    HW137631   1.692   0.598   6.976  0.7620 -1.2677  0.6527
44167SOL    HW237632   1.756   0.513   6.868  0.0606  0.4703 -1.1790
44168SOL     OW37633   7.828   8.914   8.869 -0.0648 -0.1772 -0.0632
44168SOL    HW137634   7.734   8.907   8.852 -0.5782  1.7969  1.6501
44168SOL    HW237635   7.854   8.996   8.827  0.7871 -0.4701 -0.1187
44169SOL     OW37636   0.061   1.129   1.209 -0.0369  0.1639 -0.1630
44169SOL    HW137637   0.075   1.140   1.115  1.9558  1.6014  0.2688
44169SOL    HW237638   0.037   1.037   1.220 -0.0432 -0.0721 -2.0287
44170SOL     OW37639   1.917   9.668   7.672  0.2764  0.0134  0.4467
44170SOL    HW137640   1.837   9.711   7.644  1.1964  2.6715  1.7539
44170SOL    HW237641   1.921   9.683   7.766  3.2381  1.6055  0.1259
44171SOL     OW37642   5.199   2.173   3.042 -0.6210 -0.3895  0.1897
44171SOL    HW137643   5.104   2.160   3.042 -0.3806 -2.2078 -0.4615
44171SOL    HW237644   5.220   2.197   2.952 -0.2105 -2.0119 -0.1597
44172SOL     OW37645   5.805   7.767   3.951  0.0031 -0.2438  0.6484
44172SOL    HW137646   5.820   7.674   3.936 -1.4101 -0.3568 -0.2152
44172SOL    HW237647   5.764   7.798   3.870  0.6102  1.1636  0.8704
44173SOL     OW37648   5.330   4.772   4.813  0.2020 -0.2234  0.3664
44173SOL    HW137649   5.285   4.688   4.827  2.2472 -1.3001  0.6102
44173SOL    HW237650   5.299   4.800   4.727  2.5436 -3.2554 -1.5648
44174SOL     OW37651   2.618   4.919   6.324 -0.6139  0.1106  0.3237
44174SOL    HW137652   2.688   4.950   6.267 -0.6957  0.0617  0.1966
44174SOL    HW237653   2.540   4.923   6.270 -0.4872 -1.0962  0.0538
44175SOL     OW37654   9.834   8.791   2.806 -0.4743 -0.0566 -0.4479
44175SOL    HW137655   9.850   8.769   2.898 -2.0923 -0.6729 -0.2982
44175SOL    HW237656   9.899   8.858   2.786 -1.0542  1.1661  1.5853
44176SOL     OW37657   0.261   5.780   4.874  0.5563 -0.5816 -0.0519
44176SOL    HW137658   0.252   5.865   4.831  3.1106  0.0422  0.5599
44176SOL    HW237659   0.308   5.726   4.811  0.2215 -1.1032  0.1425
44177SOL     OW37660   5.038   4.397   3.177 -0.4992  0.2537  0.6917
44177SOL    HW137661   5.106   4.461   3.196 -1.0634  1.1251 -0.2148
44177SOL    HW237662   4.974   4.408   3.247 -0.8457  1.0303  0.2527
44178SOL     OW37663   5.416   0.286   3.963  0.1313  0.2065 -0.2509
44178SOL    HW137664   5.413   0.303   3.868  0.2145  0.6098 -0.1813
44178SOL    HW237665   5.495   0.232   3.975 -0.2773 -0.4567 -0.5071
44179SOL     OW37666   1.958   9.562   8.384 -0.2353 -0.8611  0.2769
44179SOL    HW137667   1.960   9.648   8.427  0.8551 -0.6428 -0.1918
44179SOL    HW237668   1.944   9.500   8.455 -1.1715 -0.2853  0.6048
44180SOL     OW37669   9.263   6.304   2.934  0.4922  0.2788 -0.5352
44180SOL    HW137670   9.324   6.243   2.975  0.4159 -1.0892 -2.3949
44180SOL    HW237671   9.202   6.328   3.004 -0.0138 -2.4925  0.0345
44181SOL     OW37672   6.975  10.768   1.870 -0.1089 -0.2211 -0.4152
44181SOL    HW137673   7.024  10.717   1.934  0.1237 -2.7469 -2.5065
44181SOL    HW237674   7.042  10.814   1.820 -0.1835  0.2665 -0.0721
44182SOL     OW37675   2.420   0.550  10.782 -0.0551  0.0297  0.1343
44182SOL    HW137676   2.434   0.489  10.709 -0.6523 -0.7620  0.6730
44182SOL    HW237677   2.482   0.522  10.849  0.0187  0.3284  0.1898
44183SOL     OW37678   0.887   4.953  10.029  0.2141  0.7792 -0.3834
44183SOL    HW137679   0.893   4.881   9.966 -1.2459  0.5019 -0.2193
44183SOL    HW237680   0.825   4.923  10.095  0.4882  1.7223  0.3210
44184SOL     OW37681   7.667   4.788   1.994  0.2726  0.0897  0.0189
44184SOL    HW137682   7.656   4.876   2.030 -0.4844  0.0811 -0.1924
44184SOL    HW237683   7.715   4.801   1.912  1.8177  0.1320  0.9097
44185SOL     OW37684   7.468   7.765   0.669 -0.2969  0.6729  0.2415
44185SOL    HW137685   7.511   7.806   0.594  3.0312 -1.6062  0.7509
44185SOL    HW237686   7.381   7.741   0.637 -0.3522  3.1864 -1.6459
44186SOL     OW37687   4.236   8.979   0.467 -0.3704  0.4267  0.2301
44186SOL    HW137688   4.227   8.894   0.510 -1.3291 -0.1020 -0.9621
44186SOL    HW237689   4.175   8.974   0.393 -1.3883  2.6468  0.9042
44187SOL     OW37690   5.489   2.975  10.599 -0.3789  0.3736 -0.5574
44187SOL    HW137691   5.457   2.940  10.516  1.4731 -0.6701 -0.8690
44187SOL    HW237692   5.481   2.902  10.660 -1.1472  0.9501  0.0420
44188SOL     OW37693   2.681   2.469   6.561 -0.2469  0.4846  0.2882
44188SOL    HW137694   2.588   2.450   6.562 -0.1870  0.2136  0.9298
44188SOL    HW237695   2.721   2.397   6.610  0.3745  0.1868 -0.6498
44189SOL     OW37696   1.580   1.359   5.774  0.1380 -0.1078 -0.1783
44189SOL    HW137697   1.571   1.274   5.815 -2.2278 -0.5192 -1.4641
44189SOL    HW237698   1.523   1.417   5.825  1.6451  0.6965  0.6210
44190SOL     OW37699   1.136   1.109  10.905 -0.0644  0.0203  0.3006
44190SOL    HW137700   1.129   1.014  10.920  1.4070 -0.3468 -1.1033
44190SOL    HW237701   1.100   1.149  10.984 -1.2469 -1.7144  0.6595
44191SOL     OW37702   6.812   4.117   6.306 -0.3241 -0.3940 -0.1042
44191SOL    HW137703   6.742   4.068   6.348 -0.4038 -0.4774 -0.3311
44191SOL    HW237704   6.875   4.135   6.376 -0.7369 -0.0102  0.1697
44192SOL     OW37705   6.587   5.895   1.310  0.3396 -0.3162  0.3427
44192SOL    HW137706   6.622   5.814   1.272  1.5556 -1.0324  2.8686
44192SOL    HW237707   6.633   5.904   1.394 -0.0241  2.8246  0.2707
44193SOL     OW37708   2.938  11.263   2.284  0.0337 -0.3084 -0.4453
44193SOL    HW137709   2.857  11.245   2.236  0.2504  0.0745 -0.9594
44193SOL    HW237710   2.965  11.349   2.253 -0.1144  0.1840  0.7740
44194SOL     OW37711   4.920   1.331   7.058  0.0922  0.3966  0.1038
44194SOL    HW137712   4.889   1.313   6.969 -1.4805  2.2773  0.2191
44194SOL    HW237713   4.855   1.289   7.115  0.3818  0.3044  0.3712
44195SOL     OW37714   4.943  10.981   9.312 -0.0662  0.0508  0.3652
44195SOL    HW137715   5.012  11.043   9.334 -1.4891  1.7288  0.2032
44195SOL    HW237716   4.970  10.943   9.228  2.2158 -1.6852  1.8170
44196SOL     OW37717   8.837   5.001   5.999 -0.0850 -0.3670 -0.1757
44196SOL    HW137718   8.921   4.985   5.956  0.0491  1.4677 -0.6473
44196SOL    HW237719   8.775   4.944   5.953  0.4466  0.0908 -1.4843
44197SOL     OW37720   2.052   2.409   8.434  0.6539 -0.1490 -0.0385
44197SOL    HW137721   2.141   2.401   8.469  1.3559 -2.2694 -2.1773
44197SOL    HW237722   2.064   2.418   8.339 -1.4243 -1.0010 -0.4078
44198SOL     OW37723   4.618   1.037   6.850  0.3315 -0.2785 -0.1930
44198SOL    HW137724   4.637   1.092   6.775  1.0479  0.0379  0.2192
44198SOL    HW237725   4.609   0.949   6.814  0.7362 -0.1393 -0.6302
44199SOL     OW37726  10.870   3.655   1.513 -0.3479 -0.4666 -0.0671
44199SOL    HW137727  10.932   3.582   1.517 -0.9882 -0.9463  1.4767
44199SOL    HW237728  10.789   3.619   1.549 -0.9065  0.7544 -0.0976
44200SOL     OW37729   2.799   1.201   9.812 -0.5549  0.3132  0.3303
44200SOL    HW137730   2.757   1.273   9.859 -0.1018  0.5504  0.3723
44200SOL    HW237731   2.871   1.242   9.764  0.1093 -0.2087  0.8768
44201SOL     OW37732   7.396   8.372   8.911 -0.4991 -0.3161  0.5406
44201SOL    HW137733   7.373   8.363   9.003 -1.7038 -0.6838  0.2208
44201SOL    HW237734   7.488   8.397   8.911 -0.8162  0.8792  1.8694
44202SOL     OW37735   7.031   4.718   8.796 -0.1612  0.0223  0.2707
44202SOL    HW137736   7.105   4.732   8.855  0.8272  2.1133 -1.3724
44202SOL    HW237737   6.961   4.773   8.832  0.2458  0.8134 -0.1132
44203SOL     OW37738   1.062   7.957   6.020 -0.0160  0.5624  0.4625
44203SOL    HW137739   1.104   7.917   5.944 -1.2302  0.1152  0.0171
44203SOL    HW237740   0.977   7.986   5.988 -0.9071 -0.4157  1.8611
44204SOL     OW37741   8.675   9.173   2.091 -0.3880 -0.1598 -0.6144
44204SOL    HW137742   8.711   9.204   2.174 -0.1389 -0.6313 -0.5462
44204SOL    HW237743   8.736   9.206   2.025  0.4068 -1.3095 -0.4673
44205SOL     OW37744   7.528   3.900   9.825 -0.2203 -0.4126 -0.1692
44205SOL    HW137745   7.546   3.816   9.783 -1.5223 -1.0492  0.5044
44205SOL    HW237746   7.443   3.926   9.789  0.3975  0.8555 -0.7296
44206SOL     OW37747   1.035   1.473   7.599 -0.3599 -0.3395  0.3725
44206SOL    HW137748   0.967   1.420   7.556  1.7105 -1.9619 -0.9840
44206SOL    HW237749   1.035   1.555   7.550 -1.1416 -0.4361  0.1938
44207SOL     OW37750  10.652   5.549   5.258 -0.1455 -0.8286  0.5035
44207SOL    HW137751  10.592   5.583   5.191 -0.2684  2.7008  2.2748
44207SOL    HW237752  10.597   5.497   5.316 -0.5625 -1.5951 -0.5713
44208SOL     OW37753   0.141  11.305   6.790 -0.4178  0.5131 -0.0151
44208SOL    HW137754   0.219  11.352   6.759 -1.0691  0.6772 -1.4399
44208SOL    HW237755   0.137  11.325   6.884  2.0316 -0.6214  0.3817
44209SOL     OW37756   0.009   3.324   0.501  0.1905 -0.0930  0.0076
44209SOL    HW137757  -0.060   3.265   0.472  0.0725  1.3828 -2.9480
44209SOL    HW237758   0.065   3.270   0.556 -0.1438 -2.8713 -2.2515
44210SOL     OW37759   7.964   4.514   5.643  0.0379 -0.2380  0.0746
44210SOL    HW137760   7.915   4.546   5.719  2.2096  0.6395  1.1471
44210SOL    HW237761   8.014   4.590   5.613 -0.7312 -0.6036 -2.1949
44211SOL     OW37762  11.091   1.576  11.068  0.0407 -0.6516 -0.2692
44211SOL    HW137763  11.044   1.608  10.991 -0.0077  0.8673  0.3611
44211SOL    HW237764  11.183   1.582  11.043  0.0074 -0.6183 -0.3921
44212SOL     OW37765   2.077   5.260   6.767  0.7693 -0.3097 -0.1965
44212SOL    HW137766   2.022   5.185   6.741 -0.8388  1.3250 -1.6262
44212SOL    HW237767   2.043   5.287   6.852  1.8411 -1.6257  0.6842
44213SOL     OW37768   4.207   8.491  10.653 -0.1530 -0.4027 -0.3049
44213SOL    HW137769   4.168   8.447  10.578 -0.1012  1.3746 -1.4164
44213SOL    HW237770   4.274   8.431  10.685  0.3143 -0.8767 -2.1358
44214SOL     OW37771   0.297  10.683   2.453 -0.1731  0.5075  0.1109
44214SOL    HW137772   0.275  10.737   2.377 -0.2398  1.0110  0.4905
44214SOL    HW237773   0.216  10.638   2.475 -0.5310  1.4903  0.8004
44215SOL     OW37774   3.102   6.542   8.674 -0.3699 -0.2770 -0.3409
44215SOL    HW137775   3.009   6.528   8.658 -0.3265 -0.9036 -0.0581
44215SOL    HW237776   3.107   6.575   8.763 -0.3525  0.1200 -0.4889
44216SOL     OW37777   3.339   7.373   0.339 -0.4091  0.0114  0.2576
44216SOL    HW137778   3.328   7.410   0.426 -0.1644  0.2470  0.1900
44216SOL    HW237779   3.420   7.412   0.306 -0.6069  0.0868 -0.1542
44217SOL     OW37780   3.147   4.031   2.560  0.2067  0.3903  0.2542
44217SOL    HW137781   3.061   4.010   2.596  0.4645 -2.0088 -0.4689
44217SOL    HW237782   3.136   4.023   2.465  1.1002  0.6150  0.1245
44218SOL     OW37783  11.018   1.586   5.880 -0.2331 -0.4874  0.5203
44218SOL    HW137784  10.957   1.659   5.884 -1.1345 -1.2865  1.5512
44218SOL    HW237785  10.963   1.509   5.872  0.6923 -1.1196  0.1233
44219SOL     OW37786   8.276   4.792   0.965 -0.3520 -0.7165 -0.4791
44219SOL    HW137787   8.236   4.813   0.880 -0.0651 -0.9840 -0.6786
44219SOL    HW237788   8.363   4.832   0.961 -1.7068  2.6146  1.1500
44220SOL     OW37789   9.489   5.750   9.416  0.5287 -0.0331 -0.4132
44220SOL    HW137790   9.402   5.790   9.408  2.1609  3.3069 -2.4321
44220SOL    HW237791   9.521   5.744   9.326  2.9353  0.0784  0.3977
44221SOL     OW37792   4.868   5.667   2.561 -0.2268  0.6130 -0.3867
44221SOL    HW137793   4.854   5.579   2.596  1.2200  0.0329 -1.2603
44221SOL    HW237794   4.878   5.722   2.639 -2.7577  0.3269  0.2095
44222SOL     OW37795  10.291   8.636   0.130  0.0018 -0.2619  0.0790
44222SOL    HW137796  10.272   8.596   0.045  0.1755  0.0592 -0.1166
44222SOL    HW237797  10.385   8.658   0.125  0.2715 -1.2435  0.7756
44223SOL     OW37798   3.584   7.063   0.091 -0.1166  0.1464  0.5395
44223SOL    HW137799   3.612   7.147   0.056 -0.2805 -0.2557 -0.5910
44223SOL    HW237800   3.624   6.998   0.033 -1.6229 -0.4826  0.1769
44224SOL     OW37801   7.269   3.598   2.868  0.5404  0.1240 -0.0077
44224SOL    HW137802   7.204   3.604   2.798  0.2464  0.7719  0.3220
44224SOL    HW237803   7.218   3.592   2.948  0.8751 -1.1005  0.1182
44225SOL     OW37804   9.429   1.491   6.204 -0.1570  0.5161  0.2181
44225SOL    HW137805   9.416   1.478   6.110  0.4440 -0.7854  0.3034
44225SOL    HW237806   9.516   1.456   6.221 -0.8780 -0.6965  1.5362
44226SOL     OW37807   3.231   4.165   7.342 -0.5033 -0.1574 -0.1450
44226SOL    HW137808   3.311   4.131   7.382  0.6325  1.9485 -0.5821
44226SOL    HW237809   3.256   4.251   7.308 -2.3544 -0.4454 -2.3026
44227SOL     OW37810   4.527   2.220   0.722  0.0457  0.4435 -0.2316
44227SOL    HW137811   4.570   2.244   0.804 -0.4211 -0.2297  0.2202
44227SOL    HW237812   4.524   2.124   0.725 -0.7676  0.4566 -0.6222
44228SOL     OW37813   8.257  10.491  11.006  0.2090 -0.4789 -0.0652
44228SOL    HW137814   8.257  10.585  11.023  0.0815 -0.4894 -0.0083
44228SOL    HW237815   8.183  10.477  10.946  0.4536 -0.4880 -0.3681
44229SOL     OW37816   0.269   2.342   4.664  0.1549  0.0790 -0.0618
44229SOL    HW137817   0.235   2.397   4.593  0.1668  1.7260  1.1773
44229SOL    HW237818   0.251   2.252   4.635 -0.1422  0.7281 -1.9864
44230SOL     OW37819   6.920   7.605   6.533 -0.0758  0.5253 -0.0376
44230SOL    HW137820   6.940   7.654   6.452  0.1176  0.2695 -0.1436
44230SOL    HW237821   6.827   7.623   6.549  0.1309  1.3762  0.2250
44231SOL     OW37822   4.055  10.938   4.471  0.4571 -0.0834  0.2393
44231SOL    HW137823   4.081  11.022   4.433  0.4660 -0.3776 -0.4002
44231SOL    HW237824   4.103  10.872   4.420  0.5892 -0.4730  0.8510
44232SOL     OW37825   7.754   3.986   5.316  0.4118 -0.0482  0.0419
44232SOL    HW137826   7.661   3.979   5.336  0.5856 -0.8264  0.6271
44232SOL    HW237827   7.769   4.079   5.305 -0.2433  0.1761  0.9437
44233SOL     OW37828   9.471   5.290   0.318  0.2866 -0.4871  0.3209
44233SOL    HW137829   9.425   5.228   0.261 -0.4826  0.7888 -0.4548
44233SOL    HW237830   9.405   5.319   0.381  0.2255  0.7202 -0.2847
44234SOL     OW37831   0.468   3.604   3.807 -0.1532 -0.0199  0.4588
44234SOL    HW137832   0.560   3.575   3.810  0.1384  0.8199 -0.1056
44234SOL    HW237833   0.438   3.582   3.719 -0.3235  0.1979  0.4613
44235SOL     OW37834   7.588   0.998   6.715 -0.1253 -0.3786  0.9050
44235SOL    HW137835   7.669   1.032   6.676  0.1236 -1.1279  0.7553
44235SOL    HW237836   7.537   0.965   6.641 -0.7010  0.3621  0.9702
44236SOL     OW37837   6.933   5.320   9.413  0.0097 -0.2755  0.3786
44236SOL    HW137838   6.938   5.307   9.318 -0.6485  2.9705 -0.1395
44236SOL    HW237839   7.015   5.365   9.435 -0.0834 -0.5374  1.2685
44237SOL     OW37840   2.262   7.936   2.401  0.9931 -0.4411  0.4472
44237SOL    HW137841   2.301   7.894   2.325 -0.1981 -1.8059  0.5563
44237SOL    HW237842   2.189   7.988   2.366  1.0962 -0.2223  0.5503
44238SOL     OW37843  10.902   5.360   4.298 -0.2176 -0.5052 -0.4245
44238SOL    HW137844  10.909   5.266   4.279  2.4394 -0.6765  1.0827
44238SOL    HW237845  10.881   5.363   4.392 -0.3262  0.3937 -0.4773
44239SOL     OW37846   5.744   2.321   3.416 -0.6439  0.2763 -0.3153
44239SOL    HW137847   5.738   2.315   3.320  1.0743 -0.4608 -0.3967
44239SOL    HW237848   5.724   2.232   3.447  0.8072 -0.0037 -0.1271
44240SOL     OW37849   2.956   0.589   4.294 -0.0371 -0.1556 -1.1262
44240SOL    HW137850   3.026   0.524   4.290 -1.0776 -1.2910 -1.1669
44240SOL    HW237851   2.963   0.636   4.211  1.1955  0.3031 -0.7792
44241SOL     OW37852   1.732   1.993  10.867  0.0006 -0.5565  0.5384
44241SOL    HW137853   1.658   2.043  10.832 -0.3620 -1.4455  0.0470
44241SOL    HW237854   1.801   2.004  10.802  0.1425 -0.1620  0.7488
44242SOL     OW37855   1.176   9.240   8.660  0.0999 -0.0828  0.2825
44242SOL    HW137856   1.138   9.152   8.662 -0.3871  0.0975 -0.6015
44242SOL    HW237857   1.181   9.267   8.752 -3.4509  0.5311  0.3529
44243SOL     OW37858   1.851   8.979   1.553 -0.0201 -0.3236 -0.0732
44243SOL    HW137859   1.881   9.068   1.534  1.2922 -0.7876 -0.2308
44243SOL    HW237860   1.759   8.990   1.575  0.2567  1.1538  0.4642
44244SOL     OW37861   9.721   9.948   0.994 -0.1416 -0.0612  0.3593
44244SOL    HW137862   9.677   9.958   1.079  0.1724  1.4976  0.3600
44244SOL    HW237863   9.675  10.008   0.936  1.2229  0.7233  0.0586
44245SOL     OW37864   4.685   1.586   7.254 -0.1244 -0.3059 -0.0861
44245SOL    HW137865   4.750   1.620   7.193  1.3651 -1.9905  0.5036
44245SOL    HW237866   4.673   1.655   7.319  1.1399 -0.0018 -0.1708
44246SOL     OW37867   8.068   2.950   1.577  0.3767 -0.2211 -0.5351
44246SOL    HW137868   8.114   2.897   1.512 -0.2831  0.0932 -1.2547
44246SOL    HW237869   8.010   3.007   1.526 -2.0893 -1.8078  0.4442
44247SOL     OW37870   4.970   2.834   0.959 -0.6486 -0.2763  0.7688
44247SOL    HW137871   4.935   2.913   0.916 -0.3501 -0.6814 -0.2448
44247SOL    HW237872   4.952   2.847   1.052 -1.8027  0.3785  0.4659
44248SOL     OW37873   1.560   0.393   9.863 -0.0432 -0.1531  0.1893
44248SOL    HW137874   1.589   0.320   9.808 -0.6756  0.7975 -1.4621
44248SOL    HW237875   1.641   0.429   9.899  0.8156  1.5126 -3.1313
44249SOL     OW37876   1.366   8.056   3.266  0.3883  0.5121 -0.0826
44249SOL    HW137877   1.354   8.151   3.266  0.3188  0.5145 -1.4495
44249SOL    HW237878   1.399   8.036   3.354 -0.2355  1.7111  0.4424
44250SOL     OW37879   2.719   9.861   3.169  0.3393  0.1177  0.0073
44250SOL    HW137880   2.733   9.927   3.102 -0.5781  0.4723  0.1617
44250SOL    HW237881   2.789   9.797   3.154  0.2292  0.2629 -1.1881
44251SOL     OW37882   5.596   2.390  11.068  0.5241 -0.4619 -0.5948
44251SOL    HW137883   5.502   2.389  11.050  0.4604 -1.2388 -0.2630
44251SOL    HW237884   5.618   2.483  11.075 -0.6051 -0.2995  1.2356
44252SOL     OW37885   2.245   2.053  10.429 -0.3066 -0.5971 -0.0095
44252SOL    HW137886   2.319   2.081  10.482 -1.0237  0.8473  0.2715
44252SOL    HW237887   2.267   1.964  10.402  1.2572 -0.3987  0.5364
44253SOL     OW37888   9.579   0.022   4.988  0.0823 -0.4229 -0.7022
44253SOL    HW137889   9.652  -0.039   4.972  0.0356 -0.2834 -1.4704
44253SOL    HW237890   9.502  -0.035   4.994  0.0113 -0.4257 -1.6213
44254SOL     OW37891   6.700   0.747   6.035 -0.0460  0.3860  0.7426
44254SOL    HW137892   6.649   0.813   5.987 -1.0847 -0.9430 -0.0286
44254SOL    HW237893   6.791   0.772   6.020 -0.3857  0.7606 -0.8365
44255SOL     OW37894   5.965   4.872   6.324  0.5196 -0.1075 -0.0207
44255SOL    HW137895   5.978   4.867   6.419  0.4282  0.9784  0.0579
44255SOL    HW237896   6.049   4.843   6.287  0.0726 -1.9204  0.3641
44256SOL     OW37897  10.926   9.063   9.173 -0.0802  0.2449 -0.5067
44256SOL    HW137898  10.879   9.053   9.090 -0.1829 -0.5689 -0.3549
44256SOL    HW237899  10.963   8.977   9.191  0.8164  0.6817 -0.2254
44257SOL     OW37900   8.705   8.129   1.156  0.3668  0.5845 -0.6381
44257SOL    HW137901   8.766   8.110   1.226 -1.7017  0.0950  1.0785
44257SOL    HW237902   8.721   8.062   1.090 -2.4606 -3.4428  2.5098
44258SOL     OW37903   5.365   5.657   9.256 -0.0469 -0.5004 -0.5671
44258SOL    HW137904   5.349   5.713   9.180 -1.1074 -1.2594 -0.9179
44258SOL    HW237905   5.314   5.578   9.239 -0.2625 -0.7074  0.9069
44259SOL     OW37906   8.898   8.843   0.153 -0.2172 -0.2566  0.4945
44259SOL    HW137907   8.924   8.933   0.174  0.0095 -0.1446 -0.2267
44259SOL    HW237908   8.916   8.793   0.232  0.3451  0.2002  0.6589
44260SOL     OW37909   9.062   0.248   7.927 -0.2882 -0.4986 -0.0594
44260SOL    HW137910   9.055   0.154   7.913  0.0405 -0.4961 -0.2317
44260SOL    HW237911   9.149   0.271   7.895 -0.5602 -0.0527 -0.4815
44261SOL     OW37912   5.190   9.752  10.101  0.0973  0.3494 -0.2266
44261SOL    HW137913   5.121   9.686  10.094  0.6928 -0.3098  0.0398
44261SOL    HW237914   5.247   9.720  10.171  1.1029  0.4817 -0.9740
44262SOL     OW37915  10.528   0.185   6.227  0.3854 -0.3764  0.4814
44262SOL    HW137916  10.549   0.100   6.189  2.0746 -0.3528  1.3154
44262SOL    HW237917  10.539   0.173   6.322 -0.7358  0.3876  0.7205
44263SOL     OW37918   1.543   2.736   1.806 -0.0592 -0.4414  0.4699
44263SOL    HW137919   1.506   2.806   1.752 -1.6210 -1.8728 -0.3606
44263SOL    HW237920   1.580   2.782   1.882 -1.3198  1.2615  0.0990
44264SOL     OW37921   2.316   0.407   5.742  0.3633 -0.1901  0.0732
44264SOL    HW137922   2.325   0.334   5.681 -1.5344  0.0337 -0.5104
44264SOL    HW237923   2.387   0.466   5.720 -0.4136 -0.0079 -2.0967
44265SOL     OW37924   5.829   1.110   0.902 -0.7485 -0.4304 -0.8500
44265SOL    HW137925   5.831   1.150   0.815  1.1817  0.0080 -0.6221
44265SOL    HW237926   5.774   1.033   0.891  1.2819 -1.6381 -3.0227
44266SOL     OW37927   6.198   0.324   2.018 -0.1956 -0.1717 -0.2816
44266SOL    HW137928   6.107   0.313   1.991 -0.9034 -1.2411  2.3316
44266SOL    HW237929   6.200   0.293   2.109  2.3625  1.7126  0.3760
44267SOL     OW37930   2.007   3.560   2.945 -0.1866  0.3150  0.0739
44267SOL    HW137931   1.913   3.542   2.949 -0.1502  0.2796  0.8233
44267SOL    HW237932   2.042   3.520   3.024  0.2939  1.3208  0.3815
44268SOL     OW37933   8.626   8.985   5.372  0.6117  0.1374  0.2728
44268SOL    HW137934   8.539   8.972   5.410  0.3545  1.1641  0.0649
44268SOL    HW237935   8.619   8.951   5.283  0.2986  0.5650  0.1281
44269SOL     OW37936   2.892   5.904   5.861  0.4094  0.3776  0.3939
44269SOL    HW137937   2.967   5.956   5.891 -0.5072  0.7925  2.0303
44269SOL    HW237938   2.825   5.918   5.928 -0.6019 -1.2164 -0.2629
44270SOL     OW37939   1.981   6.518   4.550  0.8707 -0.5871  0.0926
44270SOL    HW137940   1.965   6.467   4.630 -0.6496  1.9639  1.5055
44270SOL    HW237941   2.074   6.539   4.553  0.6468  0.2791  1.7484
44271SOL     OW37942   2.400   3.949   0.293  0.0920  0.5030 -0.5222
44271SOL    HW137943   2.373   4.002   0.368  0.2541  1.2962 -1.0207
44271SOL    HW237944   2.322   3.946   0.237 -0.1081 -0.2980 -0.2147
44272SOL     OW37945   4.257   0.502  10.950  0.0172  0.6812 -0.0313
44272SOL    HW137946   4.318   0.465  11.014 -0.0188  0.5780 -0.0556
44272SOL    HW237947   4.301   0.580  10.918 -0.4738  1.3772  0.9775
44273SOL     OW37948   7.448   0.622   4.169  0.0976 -0.2898  0.0183
44273SOL    HW137949   7.505   0.679   4.116 -1.0444  1.5773  0.7236
44273SOL    HW237950   7.486   0.535   4.161  1.6416  0.4960 -1.4842
44274SOL     OW37951   6.844   6.813   4.077  0.3455 -0.6541  0.2209
44274SOL    HW137952   6.939   6.806   4.088  0.9480  3.3187 -1.3263
44274SOL    HW237953   6.810   6.828   4.165  1.4007 -0.1091  0.5417
44275SOL     OW37954   5.396   8.169   8.911 -0.5785  0.3566 -0.4270
44275SOL    HW137955   5.345   8.095   8.943 -1.8737  1.2003 -0.5068
44275SOL    HW237956   5.331   8.231   8.879  0.4600  1.7799  0.1750
44276SOL     OW37957   1.255   9.034   6.507  0.2098 -0.1985 -0.1994
44276SOL    HW137958   1.318   9.031   6.434  0.1707  1.4496 -0.3213
44276SOL    HW237959   1.176   9.072   6.468  1.1363  3.4853  1.3448
44277SOL     OW37960   1.687   3.990   0.162  0.0731 -0.5688 -0.2137
44277SOL    HW137961   1.618   3.948   0.109  0.8075 -1.7748 -0.2162
44277SOL    HW237962   1.768   3.967   0.117  0.5106  0.5924 -0.0250
44278SOL     OW37963   4.878   4.789   7.088 -0.3754  0.1935 -0.6608
44278SOL    HW137964   4.909   4.873   7.124 -0.5006  0.2898 -0.7763
44278SOL    HW237965   4.954   4.732   7.093 -0.4244  0.1680 -0.1216
44279SOL     OW37966   0.399   3.469   1.703  0.4406 -0.0652  0.6795
44279SOL    HW137967   0.456   3.547   1.703 -1.0868  1.0947  2.1262
44279SOL    HW237968   0.312   3.504   1.681 -0.2112 -1.4126  1.1117
44280SOL     OW37969   4.452   4.579  11.288 -0.3849  0.0196  0.4771
44280SOL    HW137970   4.478   4.553  11.377 -2.1351  0.0776  1.0287
44280SOL    HW237971   4.422   4.498  11.247 -0.2712  0.1182  0.1993
44281SOL     OW37972   2.556   5.033   6.855 -0.1227 -0.0601 -0.1348
44281SOL    HW137973   2.630   5.006   6.801  0.2400 -0.6836  0.6502
44281SOL    HW237974   2.536   4.956   6.909 -0.8637  0.3450  0.1832
44282SOL     OW37975   2.300   2.706   6.529  0.4616 -0.6252 -0.7514
44282SOL    HW137976   2.210   2.685   6.555  0.4448 -0.8114 -0.9616
44282SOL    HW237977   2.302   2.690   6.434  0.6619 -0.4335 -0.7800
44283SOL     OW37978   4.837   2.451   7.806 -0.1215 -0.6427 -0.3043
44283SOL    HW137979   4.921   2.494   7.822  0.0858 -1.6662  1.4763
44283SOL    HW237980   4.860   2.364   7.774 -0.5357 -0.0212 -2.3644
44284SOL     OW37981   4.000   0.492   7.536  0.0122 -0.0998  0.6687
44284SOL    HW137982   4.062   0.430   7.497 -2.2172 -2.3340  0.5803
44284SOL    HW237983   3.926   0.494   7.476 -1.3180  0.2332  2.2682
44285SOL     OW37984   9.575   0.787   6.399 -0.2424  0.0892 -0.4880
44285SOL    HW137985   9.639   0.833   6.345 -0.6866 -0.1698 -1.2396
44285SOL    HW237986   9.614   0.701   6.413  0.6354  0.7245  1.0093
44286SOL     OW37987   2.472   7.784   6.669 -0.3177 -0.3152  0.1444
44286SOL    HW137988   2.467   7.845   6.742 -2.4659  0.5298 -0.6758
44286SOL    HW237989   2.441   7.701   6.705  0.9583 -0.5256  0.8016
44287SOL     OW37990  10.770   0.313   8.534  0.0937 -0.3653 -0.0130
44287SOL    HW137991  10.701   0.378   8.532  0.6223  0.2304  0.9055
44287SOL    HW237992  10.847   0.359   8.500  0.5436 -0.4054  0.9259
44288SOL     OW37993   5.266   0.457   3.524  0.7185 -0.1050  0.2000
44288SOL    HW137994   5.359   0.477   3.518  0.6488 -0.1459 -1.2845
44288SOL    HW237995   5.261   0.362   3.512  0.3856  0.0762 -1.2380
44289SOL     OW37996   0.416   0.489   1.623  0.4868 -0.1188 -0.2893
44289SOL    HW137997   0.381   0.456   1.540  0.3288  0.1655 -0.3379
44289SOL    HW237998   0.420   0.584   1.611  0.6230 -0.0912 -0.0318
44290SOL     OW37999   4.502   8.654   0.634  0.0835  0.0499 -0.2731
44290SOL    HW138000   4.488   8.744   0.663  1.6962 -0.2850  1.7204
44290SOL    HW238001   4.480   8.654   0.541 -0.9847  2.2445 -0.0395
44291SOL     OW38002   3.875   7.488   3.735  0.2207  0.0203  0.0019
44291SOL    HW138003   3.835   7.507   3.651 -1.7049 -0.6064  0.7457
44291SOL    HW238004   3.969   7.482   3.717 -0.1646  0.0399 -2.0526
44292SOL     OW38005   4.944   1.901   4.395  0.5743  0.1595 -0.1205
44292SOL    HW138006   4.906   1.980   4.433 -0.4404  0.3673 -1.5160
44292SOL    HW238007   4.974   1.850   4.471 -2.6244 -0.0567  1.1161
44293SOL     OW38008   0.639   5.559   8.753 -0.1469 -0.4482  0.1446
44293SOL    HW138009   0.706   5.582   8.689 -0.4539  0.1069  0.0187
44293SOL    HW238010   0.647   5.626   8.822  0.0577 -0.9304  0.5973
44294SOL     OW38011   1.002   0.261   9.102  0.1000 -0.5759 -0.1345
44294SOL    HW138012   1.004   0.187   9.163 -0.6966 -0.5757 -0.1030
44294SOL    HW238013   0.923   0.247   9.049 -0.4180  0.6070  0.3069
44295SOL     OW38014   4.971   8.586   9.302  0.0265  0.8145 -0.3807
44295SOL    HW138015   5.019   8.518   9.349  0.7129  1.1108 -0.6457
44295SOL    HW238016   5.000   8.578   9.211  0.0239  1.3714 -0.4353
44296SOL     OW38017   0.106   5.934   9.877  0.4109 -0.0010 -0.0135
44296SOL    HW138018   0.165   6.009   9.872  0.8502 -0.4425 -1.6674
44296SOL    HW238019   0.071   5.925   9.789  0.1639 -1.5908  0.2329
44297SOL     OW38020   1.023   6.641   8.913 -0.0728 -0.3797  0.1869
44297SOL    HW138021   1.056   6.694   8.985  1.8583 -0.5084 -0.5722
44297SOL    HW238022   0.961   6.581   8.954 -0.8858  1.2280  1.3356
44298SOL     OW38023   0.961   9.926   6.160  0.1527  1.1200  0.2857
44298SOL    HW138024   1.014   9.995   6.200  1.7728  0.1918 -0.2121
44298SOL    HW238025   0.872   9.945   6.188  0.7593  2.6634  1.2207
44299SOL     OW38026   9.892   6.707   3.764 -0.1214  0.2684  0.6736
44299SOL    HW138027   9.917   6.655   3.688  2.6151 -0.2109  1.8580
44299SOL    HW238028   9.880   6.796   3.729  0.2802 -0.1063 -0.4468
44300SOL     OW38029   8.119   5.743   3.552  0.2434  0.0976 -0.2092
44300SOL    HW138030   8.067   5.681   3.501 -0.5185  0.8170 -0.3143
44300SOL    HW238031   8.115   5.709   3.642 -0.6423  0.3000 -0.1695
44301SOL     OW38032   9.694   3.141  11.240 -0.1807 -0.1969 -0.2726
44301SOL    HW138033   9.678   3.051  11.269 -3.1276  0.3920  0.0645
44301SOL    HW238034   9.709   3.190  11.321  0.4665 -0.1733 -0.3971
44302SOL     OW38035   2.987   0.700  10.161  0.6142  0.4168  0.1324
44302SOL    HW138036   2.923   0.769  10.176  0.1205  0.0085 -0.1005
44302SOL    HW238037   2.940   0.633  10.111  1.0960 -0.0800  0.3370
44303SOL     OW38038   1.815   5.812  11.185 -0.6617  0.2297  0.3651
44303SOL    HW138039   1.727   5.847  11.195 -0.8098 -0.0462  0.0268
44303SOL    HW238040   1.803   5.718  11.172 -0.5913  0.6479 -3.4893
44304SOL     OW38041   7.070   4.655   3.996  0.5356  0.1698 -0.0727
44304SOL    HW138042   7.071   4.595   3.921 -0.1357  2.1093 -1.6778
44304SOL    HW238043   7.158   4.693   3.996 -0.1819  1.8623 -1.2972
44305SOL     OW38044   8.202   0.107   5.944 -0.4327  1.2081  0.6829
44305SOL    HW138045   8.205   0.078   6.035 -2.5924  1.9912  1.0343
44305SOL    HW238046   8.214   0.202   5.949  0.6733  1.1100  0.0315
44306SOL     OW38047   5.208   4.952   6.434  0.0485 -0.5763  0.5484
44306SOL    HW138048   5.170   4.970   6.521 -1.5354 -4.0198  0.6397
44306SOL    HW238049   5.148   4.994   6.373  1.1566  1.8475  1.0393
44307SOL     OW38050   0.825   8.561   7.482  0.6140  0.3070  0.0261
44307SOL    HW138051   0.916   8.579   7.457  0.0745  0.2400 -2.0235
44307SOL    HW238052   0.786   8.522   7.404 -1.6960  2.0330  0.2693
44308SOL     OW38053   1.484  10.330   6.472 -0.0424 -0.1421  0.1502
44308SOL    HW138054   1.456  10.355   6.384 -0.6644  1.1737  0.7071
44308SOL    HW238055   1.436  10.250   6.491 -1.0376  0.3919 -0.1229
44309SOL     OW38056   4.345   3.940   5.712  0.5379  0.1713 -0.3404
44309SOL    HW138057   4.261   3.982   5.731  0.6621  0.3199 -0.1242
44309SOL    HW238058   4.392   4.003   5.658  1.6368  1.3032  1.8540
44310SOL     OW38059   2.386   5.973   1.848  0.0721 -0.6399 -0.6348
44310SOL    HW138060   2.345   6.022   1.919 -0.3456  0.8837 -1.8966
44310SOL    HW238061   2.318   5.913   1.817  0.0979 -0.9514 -0.0899
44311SOL     OW38062   0.435   5.040  10.735 -0.2173  0.5117 -0.0258
44311SOL    HW138063   0.378   5.111  10.706 -0.7182  0.4704  0.8455
44311SOL    HW238064   0.401   5.015  10.821 -0.0029 -0.7294 -0.2907
44312SOL     OW38065   1.479   7.917   1.506 -0.3240 -0.6812 -0.1535
44312SOL    HW138066   1.457   7.871   1.425 -1.5098 -3.0398  1.4730
44312SOL    HW238067   1.536   7.857   1.553  0.4193  0.7113  0.7649
44313SOL     OW38068   0.868   0.014   8.419  0.5545 -0.0493  0.1623
44313SOL    HW138069   0.927   0.060   8.479 -0.1827  0.9826  0.1186
44313SOL    HW238070   0.858   0.074   8.345  0.6444 -0.8744 -0.5124
44314SOL     OW38071   5.424   5.905   6.740 -0.6730  0.1890 -0.8518
44314SOL    HW138072   5.452   5.943   6.823  0.3172 -0.8679 -0.6912
44314SOL    HW238073   5.340   5.864   6.760 -0.2923 -0.3234 -0.3088
44315SOL     OW38074   9.905  11.200   1.297  0.0263  0.4884  0.0642
44315SOL    HW138075   9.956  11.248   1.231  1.2615  1.9690  2.0283
44315SOL    HW238076   9.958  11.123   1.316 -0.5005 -0.1213 -0.9085
44316SOL     OW38077  10.453   7.459   1.407  0.1268  0.3838  0.9217
44316SOL    HW138078  10.414   7.423   1.486 -1.0351  0.4266  0.3757
44316SOL    HW238079  10.547   7.446   1.419 -0.1633 -1.4782  1.3873
44317SOL     OW38080   3.386   8.088   2.976 -0.0972  0.0538 -0.1270
44317SOL    HW138081   3.307   8.035   2.989 -0.2671  0.4405  0.4248
44317SOL    HW238082   3.382   8.113   2.883 -0.4748 -0.1649 -0.1721
44318SOL     OW38083   7.530   8.950   7.394  0.3002 -0.0320  0.3653
44318SOL    HW138084   7.464   9.020   7.394  0.1823 -0.1403  1.4397
44318SOL    HW238085   7.612   8.995   7.417 -0.0109 -0.4572  2.3591
44319SOL     OW38086   6.625   2.004   3.187 -0.0653  0.4721 -0.1133
44319SOL    HW138087   6.717   1.986   3.210 -0.1871 -0.5954 -0.4309
44319SOL    HW238088   6.575   1.973   3.262 -0.2981 -0.8440 -0.7899
44320SOL     OW38089   1.690   9.160   7.674 -0.4892 -0.2795 -0.1376
44320SOL    HW138090   1.650   9.090   7.622 -1.5277  0.0176  0.2437
44320SOL    HW238091   1.675   9.134   7.765  1.0756 -0.6550  0.0215
44321SOL     OW38092   5.158   0.339   4.496  0.0334 -0.1631 -0.3061
44321SOL    HW138093   5.080   0.389   4.473  0.0956 -0.7205 -1.7492
44321SOL    HW238094   5.229   0.381   4.449  0.4550 -0.2481  0.2451
44322SOL     OW38095   0.513  10.193   2.775  0.1449  0.0610  0.5610
44322SOL    HW138096   0.442  10.257   2.768 -0.2738 -0.3909  0.5536
44322SOL    HW238097   0.576  10.231   2.835 -0.1803  0.4049  0.6798
44323SOL     OW38098  10.238   4.924   1.020  0.7626 -0.4314 -0.1935
44323SOL    HW138099  10.162   4.869   1.035 -0.1820  0.4820 -1.4864
44323SOL    HW238100  10.284   4.883   0.946  0.5423  0.0046 -0.5774
44324SOL     OW38101   4.588   2.304   2.708  0.7218 -0.1239  0.0254
44324SOL    HW138102   4.537   2.377   2.742  0.8671  0.0912 -0.2187
44324SOL    HW238103   4.563   2.230   2.764  0.8892  0.2040  0.5359
44325SOL     OW38104   0.276   6.006  11.213 -0.0354 -0.4935 -0.3710
44325SOL    HW138105   0.231   6.009  11.297  1.2807 -0.8484  0.3673
44325SOL    HW238106   0.207   6.019  11.148 -1.3711 -2.2291  0.6647
44326SOL     OW38107   0.475   5.471  10.976 -0.1688 -1.0603 -0.7957
44326SOL    HW138108   0.566   5.458  11.001  0.1752  1.0308 -0.8887
44326SOL    HW238109   0.425   5.444  11.054  0.7444  2.1852  0.9880
44327SOL     OW38110   2.122   4.360   9.864 -0.3463  0.1279 -0.0320
44327SOL    HW138111   2.101   4.440   9.913 -1.9016  2.3217 -4.0150
44327SOL    HW238112   2.038   4.329   9.831  0.7164 -0.6331 -2.1486
44328SOL     OW38113   2.443   8.149   7.991  0.3097 -0.0074 -0.2735
44328SOL    HW138114   2.511   8.082   7.997 -0.2406 -0.5780 -0.3701
44328SOL    HW238115   2.490   8.228   7.965  1.2831  0.1700  1.8748
44329SOL     OW38116   2.741   3.202   9.973 -0.5409 -0.0766  0.2372
44329SOL    HW138117   2.794   3.145   9.917 -1.5557 -1.4956  0.6975
44329SOL    HW238118   2.803   3.267  10.007  0.6366 -0.9189 -0.2665
44330SOL     OW38119   1.947   9.944   3.326 -0.2429 -0.0555 -0.1219
44330SOL    HW138120   1.902  10.016   3.371 -0.1562  0.0289 -0.1717
44330SOL    HW238121   1.946   9.872   3.389 -0.5679 -0.0983 -0.1724
44331SOL     OW38122   2.191   3.560   3.135 -0.1487 -0.4632 -0.2250
44331SOL    HW138123   2.270   3.614   3.150 -1.1977  0.6171  1.6826
44331SOL    HW238124   2.223   3.470   3.136  1.6582  0.0687 -3.5336
44332SOL     OW38125   9.213   1.553   6.653  0.4201  0.4393  0.5800
44332SOL    HW138126   9.191   1.515   6.738 -0.6346  0.1487  0.1850
44332SOL    HW238127   9.128   1.566   6.610  0.9030  1.2389 -0.1457
44333SOL     OW38128   8.205   1.454   8.994 -0.0974 -0.1103  0.8616
44333SOL    HW138129   8.149   1.501   8.933  3.0620  0.4273 -1.7604
44333SOL    HW238130   8.256   1.522   9.038  1.6307 -0.7702 -0.0495
44334SOL     OW38131   0.890   1.218  10.617 -0.7942  0.2081  0.0439
44334SOL    HW138132   0.956   1.165  10.574 -1.0990  0.2853 -0.5247
44334SOL    HW238133   0.939   1.288  10.660 -0.4073 -0.4352  0.6673
44335SOL     OW38134   6.727   5.269   0.908 -0.4480 -0.3202 -0.0801
44335SOL    HW138135   6.655   5.279   0.970  0.8815  1.9232  1.1930
44335SOL    HW238136   6.777   5.195   0.941 -0.1547  0.4053  1.1281
44336SOL     OW38137   6.803   0.530   0.413  0.2019 -0.1414  0.6547
44336SOL    HW138138   6.724   0.579   0.437  0.3469  0.3523  0.1369
44336SOL    HW238139   6.875   0.588   0.438  0.3705  0.0274 -0.2056
44337SOL     OW38140  10.944   5.625   9.013  0.0023  0.0356  0.0194
44337SOL    HW138141  10.956   5.533   8.990  0.6323  0.7582 -2.6881
44337SOL    HW238142  10.858   5.628   9.055 -0.2113 -1.7163 -0.2625
44338SOL     OW38143   7.408   0.938   5.419 -0.0462 -0.2869 -0.9289
44338SOL    HW138144   7.451   1.012   5.460 -3.8685  1.4461  0.1755
44338SOL    HW238145   7.400   0.873   5.489  2.2178 -1.3560 -1.5927
44339SOL     OW38146   9.424  10.350   0.673  0.4416 -0.2602 -0.4699
44339SOL    HW138147   9.395  10.419   0.732  1.0103 -1.8929  1.8093
44339SOL    HW238148   9.352  10.340   0.610 -0.3224  1.3005  0.1523
44340SOL     OW38149   1.126   9.332   1.546  0.3431  0.0926  0.8733
44340SOL    HW138150   1.174   9.263   1.500 -1.7211 -0.7238 -0.1301
44340SOL    HW238151   1.099   9.393   1.477  0.1902  0.6955  1.4535
44341SOL     OW38152   1.541   7.420  10.372 -0.6455 -0.1407 -0.0102
44341SOL    HW138153   1.597   7.389  10.301 -2.3936 -0.9940 -1.0654
44341SOL    HW238154   1.535   7.515  10.359  1.7325  0.1650  1.0062
44342SOL     OW38155   9.207   1.580   8.771 -0.3325  0.6942 -0.3445
44342SOL    HW138156   9.139   1.603   8.835 -1.1133  0.1017 -0.9578
44342SOL    HW238157   9.288   1.577   8.822 -0.6386  2.1108  0.2650
44343SOL     OW38158   8.925   4.882  10.128  0.0760  0.5700  0.5511
44343SOL    HW138159   8.932   4.875  10.224 -0.5846  1.2012  0.6463
44343SOL    HW238160   8.892   4.796  10.101  1.8286 -0.1859  0.7192
44344SOL     OW38161   1.523   8.119   4.360 -0.8671  0.1361 -0.1018
44344SOL    HW138162   1.491   8.146   4.446  1.0602  2.2772 -0.0012
44344SOL    HW238163   1.495   8.190   4.302 -1.4634 -0.9085 -1.1186
44345SOL     OW38164   5.949   0.899   6.468  0.0142  1.0142 -0.1109
44345SOL    HW138165   6.005   0.974   6.447 -0.3876  1.1433 -0.7180
44345SOL    HW238166   6.008   0.836   6.510  0.8054  0.7620 -1.5871
44346SOL     OW38167   4.830   9.909   9.385  0.2086  0.1446 -0.5473
44346SOL    HW138168   4.838  10.001   9.360 -1.8850  0.3708 -0.4858
44346SOL    HW238169   4.821   9.862   9.302 -2.3118  0.4201 -0.4845
44347SOL     OW38170   2.188   3.288   2.497 -0.2241  0.0521  0.3820
44347SOL    HW138171   2.180   3.205   2.544  3.6930 -1.4079 -1.3097
44347SOL    HW238172   2.191   3.354   2.566  1.5612 -1.6844  2.0486
44348SOL     OW38173   3.146   4.867   8.097  0.3398 -0.3025  0.1560
44348SOL    HW138174   3.081   4.863   8.167 -0.5868  0.6431 -0.6190
44348SOL    HW238175   3.105   4.818   8.025  0.0198  1.1794 -0.6857
44349SOL     OW38176   0.847   1.817   1.513 -0.2433  0.3157  0.2761
44349SOL    HW138177   0.893   1.809   1.596 -0.0143  2.2372  0.3599
44349SOL    HW238178   0.846   1.728   1.477  1.1463 -0.2229  1.5314
44350SOL     OW38179   1.737   6.869   7.474  0.6967  0.2462 -0.4647
44350SOL    HW138180   1.708   6.914   7.553 -0.3881 -0.0195 -0.7015
44350SOL    HW238181   1.666   6.809   7.452  2.2056 -1.7341 -0.0628
44351SOL     OW38182   3.083   6.379   3.561  0.1288  0.1755  0.0580
44351SOL    HW138183   3.059   6.468   3.537  0.2098  0.6417  1.6239
44351SOL    HW238184   3.004   6.327   3.547 -0.0128  0.5562 -0.5321
44352SOL     OW38185   7.050   7.584   0.961  0.3407 -0.1863 -0.0831
44352SOL    HW138186   6.959   7.554   0.961 -0.0914  1.0376 -2.1177
44352SOL    HW238187   7.058   7.636   1.041 -0.0564 -2.2415  1.3332
44353SOL     OW38188   2.160   9.615   1.662 -0.2045  0.1701  0.1032
44353SOL    HW138189   2.076   9.636   1.622  0.3686 -0.7289 -1.6216
44353SOL    HW238190   2.199   9.550   1.603  0.4570 -1.5682  2.3807
44354SOL     OW38191   8.297   2.739   7.285  0.3511 -0.2359  0.2156
44354SOL    HW138192   8.387   2.729   7.316  0.1088  1.0445  1.3550
44354SOL    HW238193   8.258   2.804   7.343 -1.5474 -1.3166  0.2023
44355SOL     OW38194   4.434   4.820   5.729 -0.2557 -0.5973 -0.5258
44355SOL    HW138195   4.404   4.746   5.675 -0.3167 -1.3263  0.4863
44355SOL    HW238196   4.527   4.802   5.745  0.2133  0.5390 -1.8507
44356SOL     OW38197   6.434  10.666   8.735  0.5457 -0.0764 -0.4616
44356SOL    HW138198   6.390  10.653   8.651 -0.6121 -0.5144  0.1908
44356SOL    HW238199   6.405  10.753   8.763  0.3631 -0.2232 -0.1910
44357SOL     OW38200   1.205   8.756   4.081 -0.1255 -1.0060  0.0372
44357SOL    HW138201   1.133   8.725   4.026 -1.4098  0.3278  0.9573
44357SOL    HW238202   1.164   8.781   4.164  0.9970  2.0916 -0.2680
44358SOL     OW38203  10.179   1.884   0.789 -0.3650 -0.0022 -0.0145
44358SOL    HW138204  10.201   1.924   0.873  0.3129 -2.3483  0.9443
44358SOL    HW238205  10.250   1.911   0.730  0.6462 -0.6483  0.8979
44359SOL     OW38206   4.402   2.790   2.405 -0.2849 -0.0568  0.9258
44359SOL    HW138207   4.344   2.793   2.481 -2.6071  0.0444 -0.7994
44359SOL    HW238208   4.408   2.697   2.383 -1.1845  0.0671  0.1015
44360SOL     OW38209  10.178   1.683   9.210 -0.6334 -0.4276 -0.0500
44360SOL    HW138210  10.124   1.761   9.194  2.2571  1.1821 -2.5255
44360SOL    HW238211  10.201   1.688   9.302 -2.2071  0.5283  0.2991
44361SOL     OW38212   6.669  11.210   3.499 -0.0438 -0.2934 -0.2840
44361SOL    HW138213   6.712  11.294   3.516 -0.5417  0.0036 -0.4736
44361SOL    HW238214   6.578  11.223   3.527  0.0206 -0.9648  0.2455
44362SOL     OW38215   9.941   4.349   0.410  0.6171  0.6279 -0.4550
44362SOL    HW138216  10.002   4.284   0.374 -0.9342 -0.5235 -1.0790
44362SOL    HW238217   9.996   4.411   0.457  2.2937 -0.2150 -1.2762
44363SOL     OW38218   5.093   0.339  10.617  0.2663  0.4166  0.1192
44363SOL    HW138219   5.046   0.401  10.562  0.2038  0.2550 -0.0105
44363SOL    HW238220   5.048   0.255  10.602 -0.9766  0.7308  1.8694
44364SOL     OW38221   2.005   9.050   2.230 -0.2816  0.0325  0.0423
44364SOL    HW138222   1.912   9.046   2.209 -0.1388 -1.4986 -0.4116
44364SOL    HW238223   2.042   9.109   2.164 -0.9152  0.5846  0.1802
44365SOL     OW38224   7.846   9.517   6.660 -0.2146 -0.1387  0.4102
44365SOL    HW138225   7.786   9.498   6.588  2.0501 -0.0502 -1.5580
44365SOL    HW238226   7.904   9.441   6.665  0.6826  0.5674  1.0443
44366SOL     OW38227   8.613   7.891   2.591 -0.3124  0.1034  0.1515
44366SOL    HW138228   8.539   7.850   2.548 -0.7320 -0.3638  1.2936
44366SOL    HW238229   8.577   7.924   2.674  0.8622 -0.6415  0.9799
44367SOL     OW38230   3.440   6.475   5.222  0.3580  0.1373 -0.4268
44367SOL    HW138231   3.510   6.411   5.207  0.0641  0.1397 -1.8320
44367SOL    HW238232   3.486   6.552   5.258  1.0221  0.0084 -0.9897
44368SOL     OW38233   3.901   0.105   1.049  0.1924  0.3596 -0.0716
44368SOL    HW138234   3.889   0.018   1.011 -0.2529  0.2126  0.3959
44368SOL    HW238235   3.966   0.092   1.118 -0.5849  0.2046  0.6401
44369SOL     OW38236   9.851   0.921   2.589  0.4000 -0.2529 -0.0187
44369SOL    HW138237   9.894   0.945   2.671  0.3687  0.2639 -0.1547
44369SOL    HW238238   9.783   0.858   2.616  0.9280 -0.7124  0.2493
44370SOL     OW38239   8.820   0.164   0.892 -0.6506 -0.1145  0.1561
44370SOL    HW138240   8.816   0.257   0.914 -0.1344  0.0610 -0.4839
44370SOL    HW238241   8.869   0.125   0.965  1.8014  0.6015 -1.0390
44371SOL     OW38242   5.780   5.628   2.172  0.4386  0.0125  0.1521
44371SOL    HW138243   5.765   5.699   2.109  0.6758  1.0485  1.2331
44371SOL    HW238244   5.701   5.576   2.169 -0.4167  1.2701  0.5335
44372SOL     OW38245   4.833   9.523   1.567  0.2043 -0.4160  0.3377
44372SOL    HW138246   4.890   9.511   1.491  0.0815  1.9634 -0.1486
44372SOL    HW238247   4.797   9.435   1.584 -0.1603 -0.8728 -2.6301
44373SOL     OW38248   0.909   2.057   7.583 -0.0400 -0.3070 -0.1716
44373SOL    HW138249   0.828   2.109   7.585 -1.0041 -1.8138  1.0630
44373SOL    HW238250   0.962   2.092   7.654  0.8774  1.3714 -1.6233
44374SOL     OW38251   4.534   6.636   3.256  0.1716 -0.0311 -0.3040
44374SOL    HW138252   4.537   6.546   3.221 -0.0893  0.3215 -1.2494
44374SOL    HW238253   4.542   6.625   3.351  0.7789 -1.0144 -0.4662
44375SOL     OW38254   3.644   4.578   2.184 -0.1409  1.0833  0.0039
44375SOL    HW138255   3.556   4.557   2.215  1.3187 -0.3810  3.3949
44375SOL    HW238256   3.654   4.525   2.105 -2.1819  0.9773 -0.2063
44376SOL     OW38257   5.116   3.723  10.736  0.6307 -0.1539  0.3907
44376SOL    HW138258   5.063   3.797  10.765  0.0876 -0.3972  0.0244
44376SOL    HW238259   5.117   3.663  10.810  0.5615 -0.0587  0.4675
44377SOL     OW38260   5.470   0.666   4.034 -0.4695  0.0155 -0.0095
44377SOL    HW138261   5.532   0.598   4.007 -0.5657  0.2104 -0.7221
44377SOL    HW238262   5.502   0.695   4.119  0.6573  0.4052 -0.5579
44378SOL     OW38263   4.368   0.290   1.452  0.1926 -1.1012 -0.4787
44378SOL    HW138264   4.313   0.212   1.453 -0.3205 -0.7294  1.8420
44378SOL    HW238265   4.391   0.305   1.544  1.1874  0.8506 -1.0201
44379SOL     OW38266  11.305   7.732   5.985 -0.0424 -0.6726 -0.0633
44379SOL    HW138267  11.292   7.682   5.904  2.2290  0.0511 -0.9018
44379SOL    HW238268  11.383   7.785   5.969  0.1573 -0.1378  2.4225
44380SOL     OW38269  10.308   7.422  10.866  0.0700 -0.3415 -0.1888
44380SOL    HW138270  10.387   7.476  10.863 -0.7626  0.7477 -2.5992
44380SOL    HW238271  10.339   7.335  10.841  1.1632 -0.7994  2.4765
44381SOL     OW38272   2.345   2.343   7.463 -0.3027  0.3719 -0.0377
44381SOL    HW138273   2.287   2.289   7.408 -0.5607  1.0388 -0.4248
44381SOL    HW238274   2.287   2.407   7.503  0.1493  0.9892 -0.3559
44382SOL     OW38275  11.277  10.228   7.722  0.2320 -0.7865 -0.0483
44382SOL    HW138276  11.323  10.274   7.652  1.2804  0.3011  1.3169
44382SOL    HW238277  11.284  10.136   7.698  0.1468 -0.4022 -1.6184
44383SOL     OW38278   5.571  11.072   7.472  0.0554  0.0414  0.0552
44383SOL    HW138279   5.551  11.150   7.420  0.1681  1.0214  1.4769
44383SOL    HW238280   5.489  11.023   7.475  0.9436 -1.9944 -4.2799
44384SOL     OW38281   8.709   0.454   8.224  0.2876  0.1243  0.1893
44384SOL    HW138282   8.740   0.470   8.314 -0.0369 -1.4494  0.5849
44384SOL    HW238283   8.789   0.459   8.171  0.3624  1.9175  0.4338
44385SOL     OW38284   2.938   5.701  10.474  0.4785 -0.3125  0.5748
44385SOL    HW138285   2.917   5.668  10.562 -3.7880 -0.3442 -0.3503
44385SOL    HW238286   2.953   5.794  10.487  1.5194 -0.6089  1.5761
44386SOL     OW38287   8.045   9.578   3.563 -0.3962  0.0596 -0.0560
44386SOL    HW138288   8.102   9.607   3.491  0.3783  1.1970  0.9806
44386SOL    HW238289   8.105   9.549   3.631 -1.1410 -1.6849 -0.1140
44387SOL     OW38290   2.692   1.768   8.322  0.4135  0.2399 -0.1056
44387SOL    HW138291   2.692   1.859   8.351  0.7847  0.3140 -0.3288
44387SOL    HW238292   2.766   1.729   8.368  1.1223  0.4067 -1.0907
44388SOL     OW38293   5.220   1.365   7.930  0.0246  0.4741 -0.0228
44388SOL    HW138294   5.188   1.455   7.931 -0.1578  0.4106 -0.1062
44388SOL    HW238295   5.256   1.354   7.841 -1.9659 -0.2373 -0.7660
44389SOL     OW38296   5.681   6.542  11.039 -0.1319 -0.0246 -0.3681
44389SOL    HW138297   5.756   6.541  10.980  1.6250 -1.0665  1.8271
44389SOL    HW238298   5.716   6.567  11.124 -2.3420 -0.0659  0.6057
44390SOL     OW38299   0.006   3.315   3.260 -0.0633  0.4741 -0.3473
44390SOL    HW138300  -0.030   3.232   3.230  0.0773  0.6890 -1.1252
44390SOL    HW238301  -0.034   3.330   3.345  0.2425 -0.6057 -0.0102
44391SOL     OW38302   3.607   0.532  11.034 -0.6721 -0.1572 -0.3738
44391SOL    HW138303   3.640   0.479  10.961 -0.8544 -0.8422  0.0332
44391SOL    HW238304   3.538   0.478  11.072 -0.7056  0.2874  0.1866
44392SOL     OW38305   7.428   4.992   4.117 -0.0673  0.8427 -0.7585
44392SOL    HW138306   7.379   4.915   4.088  0.3814  1.2556 -2.6489
44392SOL    HW238307   7.501   4.999   4.056  1.4579  1.1682  1.0916
44393SOL     OW38308   4.568   4.093   4.514 -0.8942 -0.2470  0.8925
44393SOL    HW138309   4.638   4.062   4.572 -0.8485 -0.3804  0.7638
44393SOL    HW238310   4.559   4.025   4.448 -0.1996  0.4147  0.1127
44394SOL     OW38311   4.551   7.601   0.529 -0.0481  0.1381  0.0345
44394SOL    HW138312   4.468   7.556   0.519 -0.3072  0.7468 -0.6284
44394SOL    HW238313   4.588   7.568   0.611 -2.3274  2.1018  1.9132
44395SOL     OW38314   0.222   1.401   3.560  0.2580  0.3809 -0.5934
44395SOL    HW138315   0.298   1.365   3.605  0.3377 -0.3802 -1.3339
44395SOL    HW238316   0.159   1.329   3.559 -0.7332  1.2116  0.6177
44396SOL     OW38317   0.501   2.242  10.020  0.4002  0.2875  0.1333
44396SOL    HW138318   0.534   2.230   9.931  0.9409  1.0408  0.2257
44396SOL    HW238319   0.462   2.329  10.020 -0.1650  0.0363  0.4643
44397SOL     OW38320   0.834   2.627   3.339  0.1492  0.0744  0.8996
44397SOL    HW138321   0.842   2.722   3.337 -2.1717  0.2645 -0.6766
44397SOL    HW238322   0.861   2.598   3.252  0.3868 -0.6854  1.2132
44398SOL     OW38323   5.569   4.123   1.858  0.3538  0.0163  0.5864
44398SOL    HW138324   5.505   4.180   1.817  0.8833  0.3340  0.1877
44398SOL    HW238325   5.531   4.036   1.854 -0.2234  0.2645  0.7070
44399SOL     OW38326  11.093   3.685   9.437  0.2223  0.1672 -0.6817
44399SOL    HW138327  11.167   3.631   9.410 -1.0716 -1.4531 -1.0631
44399SOL    HW238328  11.061   3.725   9.356  0.6261  0.7854 -0.5338
44400SOL     OW38329   2.673   6.347   2.188 -0.0207  0.0560 -0.1603
44400SOL    HW138330   2.690   6.255   2.170 -2.8569 -0.4064 -0.7917
44400SOL    HW238331   2.714   6.394   2.116 -0.8123 -0.9349 -1.2780
44401SOL     OW38332   3.588  10.556  11.231 -0.0879  0.9521  0.2105
44401SOL    HW138333   3.553  10.601  11.308 -2.6695  2.5774 -1.8731
44401SOL    HW238334   3.533  10.478  11.222  2.0462 -0.8185  1.6239
44402SOL     OW38335  10.357   0.085   3.533  0.4454 -0.0300  0.8039
44402SOL    HW138336  10.350   0.016   3.468 -0.2419 -1.1925  2.0780
44402SOL    HW238337  10.327   0.164   3.488 -0.3979 -0.8884 -0.1593
44403SOL     OW38338   0.108   7.140   9.706  0.3026  0.4973  0.4817
44403SOL    HW138339   0.084   7.074   9.771  2.6733 -0.2921  0.6235
44403SOL    HW238340   0.096   7.224   9.751 -1.7368  0.1515  0.6360
44404SOL     OW38341   0.385  10.717   6.687  0.2854 -0.1140  0.6489
44404SOL    HW138342   0.418  10.805   6.668 -3.7161  1.7207  1.6836
44404SOL    HW238343   0.359  10.720   6.779 -2.4368 -1.5004 -0.0236
44405SOL     OW38344   6.585   3.563   4.380 -0.0305 -0.7306  0.4540
44405SOL    HW138345   6.511   3.612   4.414  0.3461 -0.6271  1.1294
44405SOL    HW238346   6.547   3.482   4.346 -0.7914  0.4152 -1.5333
44406SOL     OW38347   6.404   1.232   2.403 -0.1961  0.1047 -0.7503
44406SOL    HW138348   6.349   1.306   2.429 -0.7373 -0.0169 -1.5266
44406SOL    HW238349   6.390   1.224   2.308 -0.3450 -1.1415 -0.6301
44407SOL     OW38350  11.172   4.920   1.559 -0.7396 -0.5767  0.3839
44407SOL    HW138351  11.094   4.948   1.511 -0.0553  0.8318  0.0796
44407SOL    HW238352  11.138   4.895   1.645 -1.3355  1.7538  0.8778
44408SOL     OW38353   3.786   9.750   3.542 -0.6663  0.4005 -0.4691
44408SOL    HW138354   3.702   9.791   3.521 -1.9419 -3.1599 -2.7681
44408SOL    HW238355   3.763   9.667   3.585  1.7116  0.0853  0.3025
44409SOL     OW38356   5.178   2.692   6.760 -0.0865  0.2742  0.1520
44409SOL    HW138357   5.118   2.631   6.803 -0.7614 -0.2514 -1.5237
44409SOL    HW238358   5.134   2.776   6.764 -0.5192  0.0684 -0.2326
44410SOL     OW38359   7.479  10.332   5.479 -0.0113  0.3609 -0.1126
44410SOL    HW138360   7.496  10.400   5.413 -1.0004 -0.2753 -1.0475
44410SOL    HW238361   7.411  10.277   5.439  2.3160 -2.4984 -0.3294
44411SOL     OW38362   1.024   8.767   0.661  0.5884 -0.1270 -0.4198
44411SOL    HW138363   0.929   8.760   0.674  0.5074 -0.0948 -0.9772
44411SOL    HW238364   1.058   8.682   0.687  0.2410 -0.6566 -1.6421
44412SOL     OW38365   1.967   2.772   6.453  0.2255  0.2440 -0.4005
44412SOL    HW138366   1.898   2.837   6.455 -1.0690 -1.0779 -0.9305
44412SOL    HW238367   1.994   2.768   6.361 -0.0923 -0.3582 -0.4724
44413SOL     OW38368   4.299   5.741   7.881 -0.3078 -0.2054  0.2427
44413SOL    HW138369   4.320   5.673   7.945 -2.8558 -0.4938  0.8343
44413SOL    HW238370   4.379   5.793   7.873  2.0603 -3.8615 -1.0359
44414SOL     OW38371   9.962   8.919   8.661 -0.0821  0.5003 -0.2069
44414SOL    HW138372   9.930   8.996   8.707 -0.4074  0.9148 -1.1161
44414SOL    HW238373  10.030   8.952   8.602  1.7383 -0.3050  1.3720
44415SOL     OW38374   9.670   3.563   8.694  0.2264 -0.6077 -0.0582
44415SOL    HW138375   9.630   3.609   8.768  2.1044 -0.9649  1.2220
44415SOL    HW238376   9.672   3.471   8.720 -0.6952 -0.9988 -1.3103
44416SOL     OW38377   5.765   3.793   3.931  0.7141 -0.1223 -0.7850
44416SOL    HW138378   5.726   3.707   3.947 -1.6081  1.0931  0.3164
44416SOL    HW238379   5.789   3.826   4.017  3.3782 -0.4414 -1.3719
44417SOL     OW38380  10.015   4.948   1.524  0.1601 -0.3781  0.2680
44417SOL    HW138381   9.963   5.014   1.569  0.7587  0.9668 -0.9488
44417SOL    HW238382  10.072   4.911   1.592  0.5828  1.1485  0.7609
44418SOL     OW38383  11.169   9.412   8.357  0.6216 -0.4424 -0.2538
44418SOL    HW138384  11.211   9.395   8.273  0.5526 -3.4090  0.2361
44418SOL    HW238385  11.239   9.401   8.421  0.9767  3.0764  0.0564
44419SOL     OW38386   0.530  11.225  11.172  0.4490  0.2193 -0.0223
44419SOL    HW138387   0.608  11.245  11.121  0.0059  0.1569 -0.7418
44419SOL    HW238388   0.556  11.238  11.263  1.6998 -1.1960 -0.1598
44420SOL     OW38389   2.198   6.257   0.327  0.0321 -0.3816  0.2380
44420SOL    HW138390   2.195   6.348   0.356  0.0871 -0.5271  0.6895
44420SOL    HW238391   2.284   6.225   0.353  0.1649 -0.4503 -0.2685
44421SOL     OW38392   8.087   4.023   9.950  0.3630  0.1623  0.3411
44421SOL    HW138393   8.177   4.001   9.924 -0.1675 -0.4229 -1.0299
44421SOL    HW238394   8.072   4.109   9.910 -0.3059 -0.5475 -0.9535
44422SOL     OW38395   9.933   3.606   6.795 -0.0460 -0.9448  0.4234
44422SOL    HW138396   9.853   3.645   6.761 -0.7790 -1.0762  1.9641
44422SOL    HW238397   9.982   3.680   6.831  0.3900 -0.9102 -0.2241
44423SOL     OW38398   5.288  11.158   1.942  0.0113 -0.4431  0.3157
44423SOL    HW138399   5.237  11.100   2.000  0.0754  0.1736  0.9906
44423SOL    HW238400   5.372  11.169   1.986  0.9420 -1.8538 -1.0314
44424SOL     OW38401   9.597   2.200   4.338  0.3076  0.0564 -0.0350
44424SOL    HW138402   9.611   2.120   4.390 -0.4394  0.9425  1.5731
44424SOL    HW238403   9.685   2.235   4.324  0.7711 -1.7497 -1.9298
44425SOL     OW38404   6.558  11.061  11.080  0.1045  0.1297  0.2886
44425SOL    HW138405   6.513  10.977  11.070  0.1814  0.4519 -3.1079
44425SOL    HW238406   6.528  11.094  11.165 -1.6321 -2.2900  0.6611
44426SOL     OW38407   9.672  10.721   9.413  0.0338  0.3561 -0.0090
44426SOL    HW138408   9.751  10.688   9.370 -0.7338 -0.8509 -0.4957
44426SOL    HW238409   9.667  10.813   9.386  1.7798  0.6907  0.7810
44427SOL     OW38410   4.447   1.337   8.957 -0.6823 -0.4994  0.3591
44427SOL    HW138411   4.388   1.402   8.919 -1.1576 -0.4682  1.1263
44427SOL    HW238412   4.399   1.254   8.951 -0.8167 -0.4717  0.9988
44428SOL     OW38413   1.068   0.158   3.085  0.1438  0.3797 -0.0427
44428SOL    HW138414   1.161   0.135   3.081  0.2556  0.2968  2.4053
44428SOL    HW238415   1.024   0.076   3.107 -0.1588  1.0636  1.9629
44429SOL     OW38416   1.348  10.727   2.095  0.0959  0.7098 -0.2149
44429SOL    HW138417   1.371  10.808   2.140 -1.1613  0.8548  0.1819
44429SOL    HW238418   1.269  10.697   2.139  0.5460 -0.7344 -0.3650
44430SOL     OW38419   6.110   7.132   1.441 -0.0422  0.3681 -0.3122
44430SOL    HW138420   6.094   7.099   1.352  1.1656  0.4228 -0.5655
44430SOL    HW238421   6.023   7.151   1.476 -0.4423  1.8239 -2.0586
44431SOL     OW38422   4.147   4.806  11.153  0.0283  0.2565  0.0036
44431SOL    HW138423   4.167   4.900  11.150 -0.3477  0.3350 -0.0756
44431SOL    HW238424   4.166   4.775  11.064  1.1888  0.0398  0.3159
44432SOL     OW38425   4.225   0.819  10.152  0.4782 -0.2699 -0.3955
44432SOL    HW138426   4.273   0.821  10.235  2.0502 -1.9852 -1.2372
44432SOL    HW238427   4.135   0.797  10.177  0.6031  0.7738  0.9957
44433SOL     OW38428   7.556   2.319   1.729 -0.5050  0.0343  0.1731
44433SOL    HW138429   7.540   2.397   1.782 -2.0671 -1.7864  2.4614
44433SOL    HW238430   7.498   2.252   1.765  1.1330 -2.3557 -1.4172
44434SOL     OW38431   8.380   6.363   7.602 -0.2095  0.8929 -0.2471
44434SOL    HW138432   8.345   6.434   7.548 -1.1510 -0.4271 -1.3920
44434SOL    HW238433   8.332   6.370   7.685 -0.2706  1.6115 -0.3393
44435SOL     OW38434   8.162  10.608   4.855 -0.3077 -0.1331 -0.1173
44435SOL    HW138435   8.194  10.632   4.768 -0.0728 -0.0823 -0.0173
44435SOL    HW238436   8.234  10.558   4.894  0.5188  1.8892  0.9702
44436SOL     OW38437  10.061   7.182   3.265 -0.4894  0.0293  0.2394
44436SOL    HW138438   9.987   7.125   3.242 -2.1581  2.5192 -0.8185
44436SOL    HW238439  10.093   7.215   3.180  0.8700  0.1440  0.7876
44437SOL     OW38440   4.652   4.843   5.465  0.0741  0.1096 -0.3356
44437SOL    HW138441   4.639   4.792   5.545 -2.8516  0.0623 -0.7784
44437SOL    HW238442   4.727   4.801   5.422 -0.2227 -1.7684  0.9082
44438SOL     OW38443   0.362   4.147   1.287  0.3312  0.7245  0.5488
44438SOL    HW138444   0.324   4.227   1.251  0.6720  1.5217  1.9215
44438SOL    HW238445   0.352   4.156   1.382  0.0691 -1.0194  0.6945
44439SOL     OW38446   1.809   4.026   8.493  0.5603  0.7874  0.7374
44439SOL    HW138447   1.786   3.933   8.500  1.3520  0.5412  0.1916
44439SOL    HW238448   1.905   4.026   8.483  0.2559  1.4556 -2.8519
44440SOL     OW38449   3.444   5.926   1.992  0.9525  0.4518  0.7362
44440SOL    HW138450   3.380   5.865   2.029  1.1896 -0.0479  0.3398
44440SOL    HW238451   3.529   5.886   2.011  1.0859  0.2932 -0.1472
44441SOL     OW38452  10.597   5.054   6.950  0.2637  0.2639  0.8210
44441SOL    HW138453  10.608   5.138   6.906  1.8090 -0.5573 -0.3816
44441SOL    HW238454  10.560   4.996   6.884 -0.2467 -0.1746  1.4748
44442SOL     OW38455   0.078   9.581   2.728  0.0946 -0.0464  0.0436
44442SOL    HW138456  -0.017   9.578   2.711 -0.3043  0.4183  2.0442
44442SOL    HW238457   0.102   9.673   2.713 -0.1441  0.2345  1.3032
44443SOL     OW38458   0.470  10.529  10.646  0.2568 -0.3939 -0.3694
44443SOL    HW138459   0.417  10.454  10.618 -3.2943  1.2264  1.6755
44443SOL    HW238460   0.431  10.557  10.729  4.2158  1.0938  1.1552
44444SOL     OW38461   1.039   1.189   0.067  0.0912  0.2486 -0.5940
44444SOL    HW138462   0.979   1.123   0.102  1.1727 -1.0206 -1.0891
44444SOL    HW238463   0.984   1.248   0.016 -0.8351 -0.4729 -0.4247
44445SOL     OW38464   5.727   7.632   1.062 -0.5154  0.2515  0.8724
44445SOL    HW138465   5.723   7.699   0.994 -0.7631 -0.7179 -0.0872
44445SOL    HW238466   5.818   7.600   1.058 -0.7499 -0.3790  0.4156
44446SOL     OW38467   4.747   5.721   9.827  0.3932  0.4232 -0.6491
44446SOL    HW138468   4.761   5.806   9.784  2.5701  0.9037  0.8910
44446SOL    HW238469   4.779   5.657   9.763 -2.7420  0.5834 -2.4828
44447SOL     OW38470   2.782   9.492   3.921 -0.3356 -0.0556 -0.1260
44447SOL    HW138471   2.769   9.436   3.844  0.4694 -0.3485 -0.0571
44447SOL    HW238472   2.860   9.543   3.899 -0.6289  0.4917  0.1304
44448SOL     OW38473   3.674   9.353   4.868  0.1057  0.2845  0.4056
44448SOL    HW138474   3.706   9.386   4.784  0.0702 -0.3982  0.1192
44448SOL    HW238475   3.693   9.423   4.930 -1.6401  1.6016 -0.5109
44449SOL     OW38476   6.745   6.410   8.544  0.1533  0.6342  0.6254
44449SOL    HW138477   6.756   6.329   8.592 -0.3547 -0.2316 -0.6985
44449SOL    HW238478   6.679   6.391   8.478  0.0815  2.0953  0.2488
44450SOL     OW38479  10.510   7.141   9.755  0.4357 -0.4391  0.3111
44450SOL    HW138480  10.435   7.148   9.696  0.2467 -0.0081  0.5963
44450SOL    HW238481  10.483   7.188   9.833  0.6535 -1.0881  0.7783
44451SOL     OW38482   7.111  10.019   9.973  0.2528  0.3121 -0.3147
44451SOL    HW138483   7.196  10.063   9.977  0.8848 -0.9757  1.0553
44451SOL    HW238484   7.109   9.978   9.886  1.4352 -0.4172 -0.0137
44452SOL     OW38485   1.397   1.895   9.078  0.8074 -0.1325  0.9097
44452SOL    HW138486   1.451   1.962   9.037  1.1233  0.5367  2.3950
44452SOL    HW238487   1.423   1.896   9.170  0.2013 -1.6954  1.1108
44453SOL     OW38488  10.268   4.827   1.685 -0.4442  0.1146  0.5534
44453SOL    HW138489  10.336   4.761   1.702 -0.0807  0.5291  0.7134
44453SOL    HW238490  10.188   4.776   1.672 -0.1738 -0.3569  0.7308
44454SOL     OW38491   8.107   3.142   3.182  0.1376 -0.0680  0.2750
44454SOL    HW138492   8.161   3.220   3.197 -0.3687  0.6458 -1.5164
44454SOL    HW238493   8.024   3.176   3.149  0.3037 -1.3976 -1.5974
44455SOL     OW38494   4.219   8.897   4.957 -0.4207 -0.6948  0.4756
44455SOL    HW138495   4.227   8.885   5.052 -0.6032 -0.4363  0.5254
44455SOL    HW238496   4.306   8.879   4.923 -0.3469 -0.7582  0.6969
44456SOL     OW38497   8.316   2.813   3.454 -0.7211  0.1291  0.5150
44456SOL    HW138498   8.220   2.813   3.461 -0.7279 -2.3430  0.7699
44456SOL    HW238499   8.346   2.793   3.543  0.0543  0.9067  0.4326
44457SOL     OW38500   0.039   5.723   0.942  0.3587 -0.3067 -0.2177
44457SOL    HW138501   0.132   5.731   0.960  0.0595  0.0351  1.3184
44457SOL    HW238502  -0.002   5.722   1.029 -1.1592  0.8030 -0.8927
44458SOL     OW38503   7.564   6.738  11.119  0.3753  0.1474  0.3276
44458SOL    HW138504   7.642   6.770  11.074  1.6913 -0.5598  2.0704
44458SOL    HW238505   7.527   6.674  11.059  0.9240  0.7357 -0.6612
44459SOL     OW38506   8.058   0.734   0.916 -0.0961  0.4970 -0.6424
44459SOL    HW138507   8.043   0.656   0.969  2.5855  0.4953  0.1517
44459SOL    HW238508   8.052   0.806   0.978  2.3342  0.5446 -0.4269
44460SOL     OW38509   0.453   4.566   7.026 -0.7027 -0.6628 -0.4212
44460SOL    HW138510   0.397   4.594   7.098 -1.0359 -0.8842 -0.5932
44460SOL    HW238511   0.535   4.614   7.039 -0.6090 -1.0303  0.3491
44461SOL     OW38512   7.794   6.861   9.582  0.4118 -0.2186  0.0271
44461SOL    HW138513   7.872   6.881   9.530  0.0428  0.9257 -0.1012
44461SOL    HW238514   7.828   6.834   9.668  0.9467  0.3862  0.0085
44462SOL     OW38515   7.233   0.808   1.639  0.6397  0.2863 -0.1926
44462SOL    HW138516   7.296   0.757   1.690 -0.0596 -1.2662 -0.8371
44462SOL    HW238517   7.236   0.769   1.552 -0.1642  1.1362 -0.6139
44463SOL     OW38518   7.298   2.889   0.111 -0.8674  0.0336  1.0648
44463SOL    HW138519   7.299   2.959   0.176  1.0278 -0.7866  1.9671
44463SOL    HW238520   7.381   2.899   0.064 -1.0455 -0.9803  0.5221
44464SOL     OW38521   2.206   4.052   7.860 -0.7515  0.0178 -0.0107
44464SOL    HW138522   2.224   4.022   7.950 -2.5416  1.4762  0.8668
44464SOL    HW238523   2.144   3.988   7.825  0.4179 -0.9000 -0.4584
44465SOL     OW38524   5.415   7.622   0.747 -0.1546  0.0413 -0.3322
44465SOL    HW138525   5.345   7.673   0.786 -0.5618  0.0971 -1.1204
44465SOL    HW238526   5.467   7.687   0.698  0.7299  0.0802  0.6438
44466SOL     OW38527  11.313   0.026   9.433 -0.0428  0.1048 -0.1273
44466SOL    HW138528  11.302  -0.053   9.380  0.1682  0.1132 -0.1857
44466SOL    HW238529  11.394   0.011   9.482 -0.0182  0.2739 -0.1154
44467SOL     OW38530   0.803  10.149   3.924  0.1159  0.3362 -0.3470
44467SOL    HW138531   0.773  10.240   3.919 -0.5826  0.0149 -2.5001
44467SOL    HW238532   0.729  10.098   3.892  1.1707 -0.8437 -0.9177
44468SOL     OW38533   7.196   9.274   0.529  0.3435 -0.1390 -0.6166
44468SOL    HW138534   7.291   9.258   0.524  0.4082 -0.1585  0.3951
44468SOL    HW238535   7.170   9.297   0.440  1.2579 -0.3874 -0.9550
44469SOL     OW38536   6.369   2.960   9.117 -0.2530  0.5764  0.1568
44469SOL    HW138537   6.453   3.005   9.120  0.5833 -0.9925  2.1896
44469SOL    HW238538   6.304   3.030   9.117  1.0166  1.8426 -2.9989
44470SOL     OW38539   3.354   3.989   1.436 -0.0401  0.2838  0.3874
44470SOL    HW138540   3.292   4.001   1.364  1.8986  4.1472 -0.7677
44470SOL    HW238541   3.331   4.058   1.499  1.7419  0.4118  0.9160
44471SOL     OW38542   7.738   6.066   3.575 -0.0098  0.3338 -0.1016
44471SOL    HW138543   7.716   6.119   3.652  0.4778 -0.9262  0.9365
44471SOL    HW238544   7.809   6.009   3.605 -1.2823 -1.7008 -0.8099
44472SOL     OW38545   7.205   5.876   6.894 -0.4131 -0.1695 -0.3768
44472SOL    HW138546   7.180   5.785   6.910 -0.4415 -0.0779  0.1134
44472SOL    HW238547   7.154   5.926   6.959 -2.4082  0.4369 -2.3323
44473SOL     OW38548   3.136   5.517   1.984  0.0888  0.3070 -0.0161
44473SOL    HW138549   3.065   5.459   1.956  0.9894 -0.4905 -0.7265
44473SOL    HW238550   3.100   5.567   2.056 -0.6739 -1.2600  0.7200
44474SOL     OW38551   6.331   8.532   2.805 -0.0821 -0.4860  0.4628
44474SOL    HW138552   6.406   8.472   2.814  1.0033  0.7721  0.0227
44474SOL    HW238553   6.301   8.546   2.894  1.2439  0.2716  0.8120
44475SOL     OW38554   0.791   9.019   5.385 -0.4750 -0.5348  0.2117
44475SOL    HW138555   0.803   9.101   5.339  0.7820 -1.6953 -1.5986
44475SOL    HW238556   0.713   9.032   5.438  0.2754  2.1373  0.7094
44476SOL     OW38557   8.067  11.261   7.965  0.3180  0.2922  0.6460
44476SOL    HW138558   8.107  11.339   8.002 -0.9129  0.8463  0.8456
44476SOL    HW238559   8.136  11.195   7.966  1.5543  1.5539 -0.1003
44477SOL     OW38560   3.717   8.330   8.143 -0.0162  0.1716  0.0820
44477SOL    HW138561   3.749   8.300   8.058 -1.3954 -1.1416 -0.0057
44477SOL    HW238562   3.666   8.408   8.123 -0.0710  0.0492 -0.2598
44478SOL     OW38563   5.205   3.612  10.352  0.4542 -0.1032  0.3211
44478SOL    HW138564   5.125   3.605  10.403 -0.0473 -0.5334 -0.5121
44478SOL    HW238565   5.276   3.613  10.417 -0.0877 -1.9454  0.9612
44479SOL     OW38566   4.678  10.488   6.006 -0.4759  0.3463 -0.0964
44479SOL    HW138567   4.645  10.439   5.931  0.6878 -0.9203  0.2016
44479SOL    HW238568   4.773  10.487   5.995 -0.3271  0.5352  1.1491
44480SOL     OW38569   9.064   4.515   0.054  0.0007  0.0086 -0.5938
44480SOL    HW138570   9.132   4.449   0.043  1.6781  1.8070 -1.3078
44480SOL    HW238571   9.110   4.598   0.051 -2.1584  1.2638 -0.4475
44481SOL     OW38572   8.822  10.282   9.409  0.1684 -0.0072 -0.4079
44481SOL    HW138573   8.775  10.327   9.338 -2.1665 -1.7320 -0.0218
44481SOL    HW238574   8.822  10.344   9.482 -1.4926  0.0337 -0.4356
44482SOL     OW38575   0.634   4.038   2.925 -0.0871  0.5119  0.2002
44482SOL    HW138576   0.699   3.975   2.894 -1.1097 -0.1218 -0.6765
44482SOL    HW238577   0.570   3.985   2.972 -1.5015  0.7463 -1.4294
44483SOL     OW38578   4.525   9.102   4.145 -0.6145  0.2208 -0.4829
44483SOL    HW138579   4.539   9.189   4.181  0.0353 -0.5732  1.2080
44483SOL    HW238580   4.512   9.046   4.221 -0.5296 -1.2470 -1.5301
44484SOL     OW38581   0.607  10.960   5.308 -0.0616  0.1485 -0.8679
44484SOL    HW138582   0.616  11.055   5.306  0.5221  0.0970 -0.6666
44484SOL    HW238583   0.689  10.927   5.271 -0.4013 -0.2708 -1.2511
44485SOL     OW38584   0.493   4.183   7.876 -0.1783 -0.1332  0.3492
44485SOL    HW138585   0.467   4.273   7.859  1.2083  0.3815  0.9594
44485SOL    HW238586   0.588   4.184   7.874 -0.1525 -1.5644  0.4537
44486SOL     OW38587   5.924   4.515   0.532 -0.0307 -0.7087  0.4657
44486SOL    HW138588   5.917   4.432   0.484 -1.1768 -1.2714  1.5515
44486SOL    HW238589   5.991   4.565   0.486 -0.0836 -1.8212 -0.8365
44487SOL     OW38590  10.779   2.155   8.459 -0.0603 -0.3331  0.0959
44487SOL    HW138591  10.741   2.072   8.489  0.0418 -0.2025  0.5965
44487SOL    HW238592  10.707   2.218   8.464 -0.0640 -0.3308 -0.0092
44488SOL     OW38593   8.299   1.403  11.235  0.0827  0.3245 -0.3632
44488SOL    HW138594   8.361   1.331  11.242 -0.6905 -0.3698 -0.5657
44488SOL    HW238595   8.352   1.477  11.205  0.8098 -0.2620 -0.5444
44489SOL     OW38596   8.412   9.827   7.830 -0.6568  0.2581  0.2982
44489SOL    HW138597   8.423   9.732   7.832 -2.0952  0.0725  0.2926
44489SOL    HW238598   8.486   9.859   7.779 -0.8335 -0.9714 -0.7414
44490SOL     OW38599   0.853   2.896   9.362  0.3380 -0.0300 -0.1405
44490SOL    HW138600   0.861   2.906   9.267 -0.3210 -3.2552 -0.5870
44490SOL    HW238601   0.780   2.953   9.386 -0.1958 -0.0254 -1.7328
44491SOL     OW38602   9.256   3.571   6.685 -0.1861  0.0509 -0.0429
44491SOL    HW138603   9.281   3.558   6.593  0.3407 -0.8707  0.2229
44491SOL    HW238604   9.166   3.539   6.690 -1.0366  2.2743 -0.7424
44492SOL     OW38605   0.675   7.872   0.555  0.0260  0.1386 -0.6529
44492SOL    HW138606   0.598   7.884   0.501 -0.2768 -0.3294 -0.3308
44492SOL    HW238607   0.746   7.912   0.505 -0.7874  2.4598 -0.0056
44493SOL     OW38608   6.952   6.045   0.506 -0.3348  0.2750 -0.6296
44493SOL    HW138609   6.941   5.954   0.479  0.4525  0.4531 -1.5881
44493SOL    HW238610   6.863   6.076   0.521 -0.4572 -1.6386  3.1701
44494SOL     OW38611   3.915   5.530   7.558 -0.0849 -0.0312 -0.2037
44494SOL    HW138612   3.828   5.544   7.597  0.8505  0.3750  1.7846
44494SOL    HW238613   3.918   5.436   7.540 -0.3717 -0.3203  1.1784
44495SOL     OW38614   9.843   3.889   2.119 -0.1272 -0.8951  0.4942
44495SOL    HW138615   9.875   3.798   2.116  1.7726 -0.2185 -0.6899
44495SOL    HW238616   9.852   3.914   2.211  0.3500 -1.5579  0.6395
44496SOL     OW38617   4.122   0.414   7.207  0.4381  0.4663 -0.4817
44496SOL    HW138618   4.046   0.359   7.225  0.6180  0.7571  1.2898
44496SOL    HW238619   4.115   0.436   7.114 -1.1105 -0.3103 -0.5576
44497SOL     OW38620   5.003   4.595   5.737 -0.0923 -0.3158 -0.1419
44497SOL    HW138621   5.054   4.671   5.707  0.5299 -0.3632  0.7646
44497SOL    HW238622   5.040   4.521   5.689  0.4485 -0.2909  0.2214
44498SOL     OW38623   5.692   3.249   8.244  0.0482  0.0424 -0.0458
44498SOL    HW138624   5.780   3.286   8.254 -0.4130  1.3933 -0.7943
44498SOL    HW238625   5.704   3.171   8.191  0.7508  0.4866 -0.5482
44499SOL     OW38626   5.566   1.184   8.614  0.4733 -0.8670  0.4173
44499SOL    HW138627   5.631   1.194   8.683  0.7629 -0.1964  0.0558
44499SOL    HW238628   5.521   1.269   8.611  1.0353 -0.6004 -0.7897
44500SOL     OW38629   7.687   6.164   4.724  0.2092 -0.3437 -0.0891
44500SOL    HW138630   7.776   6.137   4.745  0.9632  0.9136 -1.6043
44500SOL    HW238631   7.691   6.259   4.719 -1.4756 -0.1943  0.8841
44501SOL     OW38632   8.093   8.260   3.891  0.2072  0.0203  0.1659
44501SOL    HW138633   8.005   8.229   3.910  0.3890  0.0926  1.1315
44501SOL    HW238634   8.151   8.192   3.927  0.5405 -0.2645 -0.8877
44502SOL     OW38635   4.553   2.209   8.560 -0.9459 -0.5346 -0.1751
44502SOL    HW138636   4.478   2.267   8.573 -1.5262 -1.1454 -0.7560
44502SOL    HW238637   4.522   2.123   8.588 -1.2935 -1.2936 -2.7854
44503SOL     OW38638   8.046   4.284   5.809 -0.1936 -0.0688  0.0189
44503SOL    HW138639   8.130   4.240   5.797  1.6471  2.5127  2.8010
44503SOL    HW238640   8.037   4.341   5.732  1.6581  1.2296  0.7341
44504SOL     OW38641   8.334   2.479   4.229 -0.6020 -0.4208 -0.1701
44504SOL    HW138642   8.338   2.451   4.320 -0.1654  2.0618  0.6256
44504SOL    HW238643   8.259   2.433   4.193 -0.9063 -1.2807  1.4957
44505SOL     OW38644   8.655   7.526   8.786  0.3214 -0.0226 -0.0652
44505SOL    HW138645   8.575   7.495   8.827  1.1828 -0.1257  1.5602
44505SOL    HW238646   8.693   7.447   8.746 -1.5015  0.4312 -2.8029
44506SOL     OW38647   5.755  10.648   3.987  0.0116 -0.2538  0.2302
44506SOL    HW138648   5.747  10.585   3.915 -0.9834 -0.5223  0.5698
44506SOL    HW238649   5.727  10.731   3.949 -0.4499 -0.3815  0.2878
44507SOL     OW38650   6.687   0.126   4.762  0.2152 -0.3417 -0.1763
44507SOL    HW138651   6.618   0.107   4.826 -0.0540 -2.3139 -0.9908
44507SOL    HW238652   6.748   0.052   4.770  1.1014  0.2955 -0.9536
44508SOL     OW38653   0.438   2.986   1.521  0.1004  0.6448 -0.2265
44508SOL    HW138654   0.511   3.027   1.568  0.5641  0.1698 -0.5272
44508SOL    HW238655   0.470   2.977   1.431  0.0854 -0.5548 -0.1252
44509SOL     OW38656   3.053   6.598   2.518  0.1008 -0.3938  0.1294
44509SOL    HW138657   3.063   6.623   2.610  2.1454 -1.7698  0.3171
44509SOL    HW238658   3.066   6.503   2.518  0.7390 -0.3170 -1.6861
44510SOL     OW38659   9.282   6.516  10.237 -1.1612  0.2043  0.1132
44510SOL    HW138660   9.222   6.531  10.310  0.3775  1.7994  1.0979
44510SOL    HW238661   9.348   6.456  10.272 -0.7765  0.4754 -0.1299
44511SOL     OW38662   0.045   9.316   2.828  0.3770  1.0489  0.2378
44511SOL    HW138663   0.085   9.248   2.774  0.4949  0.4141  1.1059
44511SOL    HW238664   0.094   9.395   2.808  0.2489  0.8767 -0.7773
44512SOL     OW38665  10.349   0.637   3.342  0.2345  0.5045  0.0649
44512SOL    HW138666  10.384   0.592   3.265  1.9782  1.1935  0.4215
44512SOL    HW238667  10.361   0.575   3.413  1.6403  1.0971  0.3597
44513SOL     OW38668   8.833  10.921   2.462  0.0399  0.0614 -0.1767
44513SOL    HW138669   8.745  10.912   2.498  1.0038 -3.0163  1.6085
44513SOL    HW238670   8.848  10.840   2.413  1.7852  0.6709 -0.6922
44514SOL     OW38671   1.943   9.749   4.772 -0.0180  0.2516  0.0641
44514SOL    HW138672   1.965   9.833   4.812  0.7457  0.5164 -0.8986
44514SOL    HW238673   1.931   9.690   4.846 -0.4811  1.1857  0.7427
44515SOL     OW38674   7.549   2.877   6.984 -0.6944  0.4002 -0.2740
44515SOL    HW138675   7.619   2.836   6.932 -1.0556 -0.3009 -0.2214
44515SOL    HW238676   7.478   2.890   6.921 -0.1790  2.0073 -0.5477
44516SOL     OW38677   5.055   9.124   2.002  0.4898  0.1796 -0.2077
44516SOL    HW138678   5.094   9.038   2.014  0.1824 -0.1917 -1.7191
44516SOL    HW238679   5.128   9.179   1.972  0.6570  0.4254  0.6281
44517SOL     OW38680   7.270  10.099   6.608  0.1697 -0.4066 -0.0909
44517SOL    HW138681   7.259  10.162   6.678  1.2582  0.8611 -1.0403
44517SOL    HW238682   7.221  10.135   6.534 -1.0068 -1.7477  0.0090
44518SOL     OW38683   2.249   9.288   7.650 -0.2336  0.1918  0.7895
44518SOL    HW138684   2.318   9.222   7.657 -0.6920 -0.3516  0.2330
44518SOL    HW238685   2.168   9.239   7.652 -0.5525  0.5763 -1.2627
44519SOL     OW38686   8.926   1.118   5.100  0.0054  0.0463  0.5876
44519SOL    HW138687   8.899   1.026   5.102 -0.9436  0.2702 -0.8080
44519SOL    HW238688   9.021   1.114   5.103  0.0118 -1.0480 -0.3141
44520SOL     OW38689   7.089   3.227   7.122  0.5759 -0.3958  0.1595
44520SOL    HW138690   7.025   3.201   7.187  0.8590 -1.6453 -0.0446
44520SOL    HW238691   7.054   3.308   7.084 -0.3249 -0.4767  0.8084
44521SOL     OW38692   2.078   0.867   2.511  0.2966 -0.1689 -0.0968
44521SOL    HW138693   2.113   0.846   2.425 -1.6992  1.0347 -1.2423
44521SOL    HW238694   2.138   0.826   2.573  1.5697 -1.3072 -2.0681
44522SOL     OW38695   7.319   7.671   9.309 -0.1311  0.0679  0.3697
44522SOL    HW138696   7.348   7.754   9.346 -3.3995  0.8998  1.1420
44522SOL    HW238697   7.282   7.623   9.383 -0.2130 -1.1970 -0.4776
44523SOL     OW38698   3.129   4.858  10.679  0.0486  0.5698  0.5619
44523SOL    HW138699   3.224   4.853  10.694  0.3976  1.3744 -1.2536
44523SOL    HW238700   3.099   4.928  10.738  0.5640  0.2029  1.2584
44524SOL     OW38701  10.801   8.033   3.760 -0.4088  0.4854  0.1623
44524SOL    HW138702  10.710   8.058   3.776 -0.7435 -1.3494  1.4079
44524SOL    HW238703  10.852   8.088   3.819 -0.8684  0.3980  0.6492
44525SOL     OW38704   6.419   0.818   0.994 -0.2312 -0.6060 -0.0920
44525SOL    HW138705   6.476   0.809   1.071  0.3938 -1.5163 -0.6524
44525SOL    HW238706   6.332   0.794   1.025  0.2096 -2.0376  0.0906
44526SOL     OW38707   5.520   9.640   2.092 -0.5162  0.4132  0.2281
44526SOL    HW138708   5.425   9.640   2.086 -0.4603  0.3917 -0.7302
44526SOL    HW238709   5.545   9.549   2.079 -0.3978  0.2954  1.2093
44527SOL     OW38710   3.945   2.913   8.732  0.1002  0.2338 -0.5332
44527SOL    HW138711   3.998   2.866   8.668  0.5461  0.7243 -0.5266
44527SOL    HW238712   3.855   2.904   8.699  0.3341  0.5577 -1.2792
44528SOL     OW38713   5.318   5.228   6.394 -0.1857  0.0703  0.2012
44528SOL    HW138714   5.280   5.161   6.337  2.1236 -2.0553  1.0867
44528SOL    HW238715   5.407   5.197   6.411  0.9933  3.4686  0.4904
44529SOL     OW38716  11.194   3.729   4.392 -0.1797 -0.4427  0.4667
44529SOL    HW138717  11.165   3.662   4.331 -0.6358  0.3638 -0.2165
44529SOL    HW238718  11.126   3.796   4.388  0.6041  0.3758  0.6145
44530SOL     OW38719   5.266   5.242   0.515 -0.1309 -0.6731  0.0945
44530SOL    HW138720   5.276   5.176   0.583  0.5674 -2.0124 -1.2626
44530SOL    HW238721   5.353   5.248   0.474 -0.5484  0.0717 -0.7059
44531SOL     OW38722  10.773  10.486   0.409  0.3293 -0.4121  0.0553
44531SOL    HW138723  10.799  10.578   0.416 -0.6837 -0.0868 -0.2518
44531SOL    HW238724  10.852  10.441   0.380  0.5393  0.5489 -0.9407
44532SOL     OW38725  10.729   1.703   1.287  0.2654 -0.5020 -1.0804
44532SOL    HW138726  10.646   1.750   1.275 -0.5737 -1.0162  2.2631
44532SOL    HW238727  10.785   1.765   1.333  0.2696 -1.5899  0.4250
44533SOL     OW38728   5.888   1.119   4.840 -0.0356  0.3890  0.7659
44533SOL    HW138729   5.973   1.075   4.832 -1.1567 -1.8779  1.0835
44533SOL    HW238730   5.824   1.054   4.812 -1.5761  2.6313 -1.0988
44534SOL     OW38731   8.698   8.603   0.293  0.3830 -0.0527 -0.0391
44534SOL    HW138732   8.776   8.657   0.302 -0.4103  1.3579 -1.4963
44534SOL    HW238733   8.643   8.629   0.367  0.9648 -0.5417  0.5810
44535SOL     OW38734   0.426   7.912   3.371  0.7341 -0.0170 -0.1857
44535SOL    HW138735   0.507   7.955   3.396  0.6542  0.6467 -1.0222
44535SOL    HW238736   0.358   7.978   3.388  0.4133 -0.4478  0.1962
44536SOL     OW38737   5.828   7.052   5.473  0.2602 -0.6221  0.0685
44536SOL    HW138738   5.756   7.112   5.493  0.0619 -0.6066 -0.6725
44536SOL    HW238739   5.897   7.108   5.437  0.4730 -0.6998  0.3508
44537SOL     OW38740   0.516   9.186   4.836  0.1947  0.4339 -0.7075
44537SOL    HW138741   0.510   9.270   4.882 -0.7558  0.1867 -0.3692
44537SOL    HW238742   0.534   9.209   4.745 -1.0702  1.0553 -0.8122
44538SOL     OW38743   6.289   2.084   4.244  0.6741 -0.2541 -0.1993
44538SOL    HW138744   6.263   1.997   4.276  1.1335 -0.3899 -0.1995
44538SOL    HW238745   6.375   2.099   4.282 -0.3576  1.1748  1.7017
44539SOL     OW38746   9.542   8.563   0.421 -0.3424  0.7720  0.7305
44539SOL    HW138747   9.490   8.607   0.487  1.2109  1.3061  1.6330
44539SOL    HW238748   9.495   8.577   0.339  0.2729  4.4457  0.9224
44540SOL     OW38749   8.259   6.631   2.455  0.2265 -0.4861 -0.1543
44540SOL    HW138750   8.346   6.608   2.424  0.6198  0.3659  0.3158
44540SOL    HW238751   8.273   6.699   2.520 -0.5839 -2.3644  2.0420
44541SOL     OW38752   5.156   0.881   6.098  0.5387 -0.2756 -0.2028
44541SOL    HW138753   5.176   0.825   6.023 -1.6743 -1.9195  0.3885
44541SOL    HW238754   5.137   0.967   6.060  2.7633 -0.1741 -1.2033
44542SOL     OW38755  10.648  10.944   7.568 -0.0974 -0.5406  0.0343
44542SOL    HW138756  10.592  10.867   7.578 -0.8542  0.1514  1.2071
44542SOL    HW238757  10.673  10.968   7.657 -0.1849  0.8075 -0.2906
44543SOL     OW38758   0.331  11.174  10.442  0.2626 -0.0448 -0.5788
44543SOL    HW138759   0.301  11.198  10.529  0.9255  0.0845 -0.3819
44543SOL    HW238760   0.335  11.258  10.395  0.4049 -0.0500 -0.5755
44544SOL     OW38761   5.726   3.030  10.483  0.4473  0.4084 -0.2565
44544SOL    HW138762   5.646   3.009  10.532  0.6639  0.7823  0.2626
44544SOL    HW238763   5.695   3.069  10.402  0.1182  1.8784  0.5569
44545SOL     OW38764   0.770   6.692   9.067  0.5701  0.0812  0.3136
44545SOL    HW138765   0.816   6.687   9.151  2.6675 -1.8342 -0.8867
44545SOL    HW238766   0.769   6.601   9.035 -2.4137  0.3603 -0.6164
44546SOL     OW38767   7.365   2.432   0.220  0.3961  0.0866 -0.6636
44546SOL    HW138768   7.310   2.476   0.285  0.1173  0.5454 -1.2070
44546SOL    HW238769   7.326   2.346   0.210 -0.3271  0.4756 -1.1813
44547SOL     OW38770   2.268   5.437   8.542  0.0263 -0.1298  0.2215
44547SOL    HW138771   2.179   5.413   8.565  0.2214 -1.0777  0.0131
44547SOL    HW238772   2.323   5.374   8.589  0.6072  0.6918  0.6717
44548SOL     OW38773   9.974  11.048   6.354 -0.4154 -0.0497 -0.4649
44548SOL    HW138774   9.981  10.992   6.431 -0.2900 -0.3361 -0.6848
44548SOL    HW238775  10.010  11.132   6.382  0.6844 -0.4862 -0.5472
44549SOL     OW38776   2.025   1.145   5.585 -0.2588  0.1757 -0.3180
44549SOL    HW138777   1.988   1.089   5.653 -0.8512 -0.7024 -1.3277
44549SOL    HW238778   2.005   1.098   5.503  2.6046 -0.0382 -0.9323
44550SOL     OW38779   7.271   9.332  11.241 -0.6395 -0.1378  0.1614
44550SOL    HW138780   7.229   9.409  11.280  0.1314  0.7065 -0.6577
44550SOL    HW238781   7.278   9.353  11.148  2.5247  0.2092  0.4182
44551SOL     OW38782   4.756   1.092  10.137 -0.3584 -0.3526 -1.1653
44551SOL    HW138783   4.815   1.103  10.062 -0.8282 -2.5362 -1.8892
44551SOL    HW238784   4.722   1.003  10.128  0.2770 -1.0063  2.1487
44552SOL     OW38785   0.626   7.710   6.981 -0.1715  0.0657 -0.6006
44552SOL    HW138786   0.642   7.679   6.892 -2.0906 -1.2362 -0.5263
44552SOL    HW238787   0.547   7.663   7.009 -0.0092  0.9954  1.5229
44553SOL     OW38788   8.130   0.790   9.026  0.2981  0.0963  0.3655
44553SOL    HW138789   8.086   0.850   9.087  0.8273 -0.8948  1.7645
44553SOL    HW238790   8.095   0.704   9.047  0.5170 -0.2667 -0.7297
44554SOL     OW38791  11.323   5.777   4.233 -0.1039  0.5133 -0.5087
44554SOL    HW138792  11.322   5.740   4.144 -4.2528  1.3464 -0.9284
44554SOL    HW238793  11.270   5.856   4.226 -2.7126 -0.7641  3.2027
44555SOL     OW38794   7.146   5.416   0.072  0.3258  0.0112  0.4220
44555SOL    HW138795   7.232   5.457   0.058  0.9251 -1.9704 -1.9368
44555SOL    HW238796   7.085   5.471   0.024  0.4864  0.6243  0.9194
44556SOL     OW38797   7.112   9.923   9.729  0.4106  0.3062  0.2368
44556SOL    HW138798   7.169   9.847   9.717  0.0910  0.2125 -0.7703
44556SOL    HW238799   7.029   9.897   9.690  0.6103  1.5289 -1.0450
44557SOL     OW38800  10.689   6.568  10.013  0.4029  0.4453  0.3145
44557SOL    HW138801  10.617   6.540  10.069  0.7783 -1.1507  0.0078
44557SOL    HW238802  10.673   6.662   9.998 -1.5665  0.1122  0.2708
44558SOL     OW38803   1.200   2.407   8.641 -0.0843 -0.4860  0.3015
44558SOL    HW138804   1.214   2.416   8.735  2.6657  2.2965 -0.3067
44558SOL    HW238805   1.282   2.435   8.602 -2.1731  1.2025 -3.0365
44559SOL     OW38806   9.969   8.363   9.242 -0.3619  0.1637  0.2584
44559SOL    HW138807   9.880   8.360   9.278 -0.7120  1.2753 -0.4949
44559SOL    HW238808   9.958   8.350   9.148  0.2160  0.8699  0.0874
44560SOL     OW38809   0.388   1.169  10.189 -0.4428  0.1921  0.4326
44560SOL    HW138810   0.469   1.124  10.209 -1.1790 -1.5611 -0.3654
44560SOL    HW238811   0.326   1.138  10.255 -0.6741  0.8805  0.5407
44561SOL     OW38812   7.659   6.521   8.843  0.1409  0.6968 -0.0025
44561SOL    HW138813   7.569   6.493   8.826  0.0412  0.7905  0.3682
44561SOL    HW238814   7.701   6.520   8.757 -0.4758  1.5821 -0.3194
44562SOL     OW38815   8.920   1.630   4.103  0.1308  0.5430  0.2849
44562SOL    HW138816   8.908   1.634   4.198  0.4149  1.6497  0.2808
44562SOL    HW238817   9.005   1.673   4.088 -0.1799  0.8803 -0.5204
44563SOL     OW38818   7.975   2.083   0.020  0.4653 -0.0775 -0.1004
44563SOL    HW138819   7.897   2.040  -0.014  0.0717 -0.7076  1.5470
44563SOL    HW238820   8.014   2.127  -0.056 -1.9272  0.9152 -0.7775
44564SOL     OW38821   1.752   7.125   9.837  0.2933 -0.1342 -0.2987
44564SOL    HW138822   1.768   7.219   9.833  0.5866 -0.1771 -0.1064
44564SOL    HW238823   1.813   7.087   9.774  0.5637 -0.2486  0.0365
44565SOL     OW38824   1.187   9.574   6.894 -0.4441 -0.4657 -0.3553
44565SOL    HW138825   1.108   9.550   6.942 -0.4031  0.1236  0.0095
44565SOL    HW238826   1.259   9.534   6.943 -0.3894  0.2603  0.1644
44566SOL     OW38827   5.807  10.670   9.624  0.2199  0.0438 -0.4195
44566SOL    HW138828   5.889  10.700   9.663 -0.7950  2.5093 -0.1161
44566SOL    HW238829   5.757  10.635   9.698  1.2545 -2.1372 -0.7157
44567SOL     OW38830   4.438   3.554   1.822 -0.6401  0.5668  0.5176
44567SOL    HW138831   4.525   3.588   1.800  0.0552 -1.6760 -0.3338
44567SOL    HW238832   4.452   3.504   1.902 -0.6759 -1.5969 -0.7885
44568SOL     OW38833   3.441   2.813  10.799  0.2158  0.0939  0.2645
44568SOL    HW138834   3.484   2.899  10.807  0.2013 -0.0034  1.4236
44568SOL    HW238835   3.357   2.824  10.843 -0.0626 -0.3363 -0.1560
44569SOL     OW38836   5.829   8.470   4.617 -0.4694  0.3322  0.3512
44569SOL    HW138837   5.834   8.557   4.577  0.6711  0.3465  0.5252
44569SOL    HW238838   5.878   8.413   4.557 -2.9152 -0.6017 -0.8445
44570SOL     OW38839  11.140   6.455   7.336  0.5193  0.2747  0.2108
44570SOL    HW138840  11.099   6.539   7.357  0.7314  0.2804  0.6133
44570SOL    HW238841  11.126   6.444   7.242  1.4278  1.2750 -0.0510
44571SOL     OW38842   7.410   8.768   2.767  0.3668  0.2787 -0.1699
44571SOL    HW138843   7.377   8.857   2.759 -0.1794  0.2269  1.2425
44571SOL    HW238844   7.368   8.720   2.696 -0.5780  0.8086  0.0255
44572SOL     OW38845   1.307   3.241   0.723 -0.6339  0.0235 -0.4473
44572SOL    HW138846   1.324   3.251   0.630  2.1409  0.4731  0.0520
44572SOL    HW238847   1.242   3.307   0.744 -2.0523 -0.7718 -2.2359
44573SOL     OW38848  10.903   9.726  10.466 -0.2792 -0.5151 -0.0190
44573SOL    HW138849  10.872   9.765  10.385 -0.3186  0.6853  0.5625
44573SOL    HW238850  10.881   9.633  10.458  0.3239 -0.5352 -1.6665
44574SOL     OW38851   1.777   0.071   0.567 -0.7582  0.1225  0.2803
44574SOL    HW138852   1.771   0.166   0.573 -0.5344  0.1558 -0.0064
44574SOL    HW238853   1.822   0.045   0.647 -0.7736  0.2634  0.3347
44575SOL     OW38854   8.662   1.093   8.742  0.1159 -0.7177 -0.2951
44575SOL    HW138855   8.649   1.104   8.648 -1.4475 -1.7891 -0.2231
44575SOL    HW238856   8.688   1.180   8.773  1.1764 -0.4922 -1.7929
44576SOL     OW38857   2.864   8.074   1.865  0.2780  0.0516 -0.0440
44576SOL    HW138858   2.782   8.024   1.861 -0.0626  0.5403  0.5818
44576SOL    HW238859   2.875   8.110   1.776  0.2354 -0.6700 -0.3421
44577SOL     OW38860   1.893   1.777   3.395  0.0602 -0.0404 -0.0018
44577SOL    HW138861   1.813   1.788   3.344  0.1580  1.3004  0.1071
44577SOL    HW238862   1.864   1.740   3.478 -0.1146 -2.1073 -0.9576
44578SOL     OW38863   8.371   4.619   7.261  0.3096 -0.1723 -0.0247
44578SOL    HW138864   8.383   4.560   7.187  2.0390  1.2377 -0.9017
44578SOL    HW238865   8.279   4.610   7.284 -0.2387 -0.7099 -2.2880
44579SOL     OW38866   8.692   3.360   7.829 -0.3026  0.0238  0.0517
44579SOL    HW138867   8.650   3.442   7.855  0.6959  0.2297  1.0333
44579SOL    HW238868   8.687   3.360   7.733 -1.0385  0.8366  0.0854
44580SOL     OW38869   2.338   9.092   5.766  0.2096 -0.1806 -0.2882
44580SOL    HW138870   2.325   8.997   5.761 -0.8439 -0.1952  2.1977
44580SOL    HW238871   2.286   9.127   5.693  0.0923 -1.4399 -0.8300
44581SOL     OW38872   6.299   3.474   1.799  0.7074  0.1900  0.8005
44581SOL    HW138873   6.272   3.382   1.802 -0.2119  0.4774  1.7206
44581SOL    HW238874   6.319   3.495   1.890  2.5369  0.4315  0.3547
44582SOL     OW38875   1.410   3.869   9.105 -0.4613 -0.0231 -0.0947
44582SOL    HW138876   1.441   3.951   9.145  1.6867 -1.3465  1.0119
44582SOL    HW238877   1.422   3.804   9.174 -0.1931 -1.6799 -1.7091
44583SOL     OW38878   6.111   2.639  10.037 -0.2976  0.3744  0.4923
44583SOL    HW138879   6.118   2.684   9.953 -0.5795 -0.1245  0.2016
44583SOL    HW238880   6.105   2.546  10.014 -1.7432  0.3337  1.0014
44584SOL     OW38881   9.366   2.925   7.802  0.0460 -0.5464  0.0557
44584SOL    HW138882   9.451   2.945   7.763  0.4398 -2.0733  0.1074
44584SOL    HW238883   9.360   2.830   7.799 -1.9807 -0.4307 -0.6167
44585SOL     OW38884   6.026   1.985   9.073 -0.4191 -0.0851  0.3509
44585SOL    HW138885   5.956   1.923   9.054 -1.4408  1.5507 -1.3474
44585SOL    HW238886   6.072   1.996   8.990  1.3375 -0.4732  1.2340
44586SOL     OW38887   2.862   3.977   0.842 -0.0455 -0.7904 -0.1515
44586SOL    HW138888   2.829   3.980   0.752  1.7759 -3.4861 -0.9615
44586SOL    HW238889   2.804   3.914   0.886  0.5694 -1.3225 -0.0998
44587SOL     OW38890   3.343   3.032   8.110 -0.0825  0.0920  0.4427
44587SOL    HW138891   3.352   2.993   8.196 -0.2711 -3.5263 -1.0817
44587SOL    HW238892   3.418   2.998   8.060 -1.3651  0.0675 -1.5254
44588SOL     OW38893   8.866   6.841   1.754 -0.1968  0.2193 -0.4784
44588SOL    HW138894   8.948   6.792   1.753 -0.1365  0.3214 -0.5785
44588SOL    HW238895   8.893   6.933   1.760 -0.2901  0.2868 -1.0301
44589SOL     OW38896   1.219   4.279   5.404  0.3378 -0.3320  0.3022
44589SOL    HW138897   1.192   4.364   5.439  0.7935 -0.0929  0.0825
44589SOL    HW238898   1.170   4.269   5.322 -0.0577 -0.4881  0.5561
44590SOL     OW38899   2.745   1.105   8.969  0.5064  0.6157 -0.2737
44590SOL    HW138900   2.801   1.028   8.968 -0.3051 -0.0234  1.2302
44590SOL    HW238901   2.670   1.080   8.915  1.7877  1.5886 -2.5519
44591SOL     OW38902   4.091   6.113   5.494  0.4663  0.7003 -0.4891
44591SOL    HW138903   4.183   6.142   5.493  0.5373  0.4706 -0.9157
44591SOL    HW238904   4.090   6.037   5.436  0.2810 -0.1421  0.5903
44592SOL     OW38905   9.356   0.660   5.484 -0.3032  0.0419 -0.4365
44592SOL    HW138906   9.269   0.641   5.519  0.3326 -1.7236  0.2409
44592SOL    HW238907   9.359   0.755   5.477 -1.3886  0.2685  1.8869
44593SOL     OW38908   7.808   8.842   2.237 -0.2850 -0.5124  0.2332
44593SOL    HW138909   7.877   8.847   2.171  0.5784 -2.0614  0.9944
44593SOL    HW238910   7.789   8.933   2.259  1.2126 -0.0628 -0.3144
44594SOL     OW38911   1.230   1.207   9.160  0.4029  0.2504 -0.1212
44594SOL    HW138912   1.148   1.248   9.190 -0.2987  0.0243 -1.6757
44594SOL    HW238913   1.266   1.270   9.097 -0.2080 -1.0660 -1.8269
44595SOL     OW38914   6.548   2.505   7.888  0.3260 -0.2298 -0.7413
44595SOL    HW138915   6.567   2.599   7.877  1.3711 -0.5584 -1.8871
44595SOL    HW238916   6.617   2.474   7.947 -1.2160  0.1193  1.2837
44596SOL     OW38917   7.248   3.788   3.419  0.0407  0.4911  0.1349
44596SOL    HW138918   7.172   3.835   3.386  0.1613  2.6886  2.8035
44596SOL    HW238919   7.212   3.720   3.477  0.0612  0.7839  0.4922
44597SOL     OW38920   9.160   5.322   1.033  1.1848 -0.4066  0.6740
44597SOL    HW138921   9.204   5.403   1.058  1.0717 -0.9183  2.5605
44597SOL    HW238922   9.202   5.254   1.084  2.3969 -1.8293 -2.1026
44598SOL     OW38923  11.034   0.003  10.000 -0.3669 -0.0372 -0.4264
44598SOL    HW138924  11.026  -0.083  10.040 -2.7478  0.6448  0.6520
44598SOL    HW238925  11.098   0.049  10.054  0.1815 -0.7829 -0.4329
44599SOL     OW38926   0.911   1.350   3.223  0.9827  0.1642  0.4128
44599SOL    HW138927   0.990   1.396   3.251  2.2439 -0.4478 -1.9964
44599SOL    HW238928   0.916   1.265   3.267  1.7800  0.0359  0.0721
44600SOL     OW38929   3.226   9.454   3.453  0.5692 -0.6204  0.2229
44600SOL    HW138930   3.253   9.414   3.535  0.7634 -0.0061  0.4623
44600SOL    HW238931   3.307   9.484   3.412  0.4901 -1.0559 -0.2674
44601SOL     OW38932   7.661   0.071  11.006 -0.3799 -0.4307  0.1814
44601SOL    HW138933   7.672  -0.024  11.011 -0.9958 -0.5281 -0.3365
44601SOL    HW238934   7.567   0.085  10.997 -0.1879  0.1664 -1.0337
44602SOL     OW38935   4.351   2.322   3.550 -0.0094  0.1999 -0.7692
44602SOL    HW138936   4.323   2.236   3.582 -2.9967  2.1392  2.1463
44602SOL    HW238937   4.442   2.329   3.578 -0.3235 -1.2452  0.6689
44603SOL     OW38938  10.278   7.148   8.404  0.4188 -0.6689  0.4282
44603SOL    HW138939  10.312   7.101   8.481  0.3716  0.8207  1.3756
44603SOL    HW238940  10.293   7.240   8.424 -0.5770 -0.2078 -0.9020
44604SOL     OW38941   9.545   0.485   6.209  0.2127  0.0079  0.0777
44604SOL    HW138942   9.486   0.417   6.238  0.8692  0.0336  1.4983
44604SOL    HW238943   9.544   0.478   6.113 -3.9538  1.6151 -0.0990
44605SOL     OW38944  11.234   1.804   2.117 -0.0498  0.2463 -0.3823
44605SOL    HW138945  11.286   1.850   2.052 -0.4091  2.1967  0.6644
44605SOL    HW238946  11.152   1.853   2.121 -0.3910 -0.3960  0.8496
44606SOL     OW38947   4.941   2.037   1.432 -0.0988  0.1234  0.3491
44606SOL    HW138948   4.958   2.012   1.523  1.2896  0.1292  0.1014
44606SOL    HW238949   4.848   2.017   1.419  0.0665 -1.3683  1.2863
44607SOL     OW38950   3.609   6.328   6.593 -0.0366  0.1029 -0.8372
44607SOL    HW138951   3.649   6.242   6.582  1.8557  0.6110  1.6456
44607SOL    HW238952   3.517   6.315   6.569  0.4646 -2.3182 -1.5602
44608SOL     OW38953   1.831   0.127   8.337 -0.2710 -0.1208  0.5605
44608SOL    HW138954   1.771   0.091   8.272 -1.8085  0.4695  1.6208
44608SOL    HW238955   1.827   0.222   8.324  1.3270 -0.1226 -0.1091
44609SOL     OW38956   4.930  10.298  10.363 -0.9851  0.9063 -0.5104
44609SOL    HW138957   4.943  10.384  10.402  1.1610  0.8504 -1.0611
44609SOL    HW238958   4.911  10.241  10.437  1.4482  1.1226  0.3346
44610SOL     OW38959   0.000  10.253   6.234 -0.1027  0.1848 -0.2046
44610SOL    HW138960  -0.031  10.185   6.293  0.4709 -0.7872 -0.9931
44610SOL    HW238961   0.077  10.215   6.192 -0.8522  0.6239 -2.0183
44611SOL     OW38962   9.547   7.855   9.336  1.0382 -0.0150  0.5583
44611SOL    HW138963   9.481   7.871   9.403  0.4540  1.1322 -0.2749
44611SOL    HW238964   9.547   7.935   9.283  1.8906 -0.6881 -0.4739
44612SOL     OW38965   6.905   2.605   8.894 -0.4667 -0.1587  0.6346
44612SOL    HW138966   6.948   2.531   8.936 -0.4763 -0.3926  0.2328
44612SOL    HW238967   6.939   2.682   8.940  0.5783 -0.3262  0.1516
44613SOL     OW38968   7.855   6.838   0.763 -0.1709 -0.5569  0.0585
44613SOL    HW138969   7.946   6.833   0.791 -1.0058 -0.1143  3.0421
44613SOL    HW238970   7.816   6.756   0.792 -0.8438 -0.5293 -0.7439
44614SOL     OW38971   2.218   0.854   4.288  0.2659 -0.1384  0.4550
44614SOL    HW138972   2.164   0.849   4.367 -2.2319  1.5261 -1.0538
44614SOL    HW238973   2.237   0.763   4.266 -3.7446 -0.9234 -0.0986
44615SOL     OW38974   4.110   2.675   1.639  0.3383  0.2223 -0.0239
44615SOL    HW138975   4.184   2.728   1.613  0.5546 -0.9291 -1.8708
44615SOL    HW238976   4.112   2.599   1.579 -2.2282  0.1162 -0.0557
44616SOL     OW38977   9.201   8.897   7.589  0.3994 -0.3009  0.3261
44616SOL    HW138978   9.268   8.835   7.560 -0.3251 -2.2640  2.7009
44616SOL    HW238979   9.138   8.901   7.518  1.0146 -1.4559 -0.2889
44617SOL     OW38980  11.043   0.113   9.730  0.1140  0.3460  0.2932
44617SOL    HW138981  11.008   0.114   9.819 -1.1514  0.7571 -0.1900
44617SOL    HW238982  11.135   0.090   9.740  0.6085  2.8806  1.9094
44618SOL     OW38983   5.101   7.916   2.046  0.7281 -0.0163  0.6328
44618SOL    HW138984   5.053   7.884   2.122  0.5688  0.1235  0.5919
44618SOL    HW238985   5.158   7.844   2.021 -0.1306 -0.5153  0.1094
44619SOL     OW38986   0.825   1.629   8.582 -0.4825 -0.3757  0.0292
44619SOL    HW138987   0.881   1.562   8.543 -1.4056 -1.1594  0.0384
44619SOL    HW238988   0.746   1.629   8.529 -0.2733  1.1104 -0.3234
44620SOL     OW38989  11.105   6.520   5.330  0.0012 -0.6960 -0.4868
44620SOL    HW138990  11.068   6.609   5.324 -1.5381 -1.2752  0.1137
44620SOL    HW238991  11.180   6.530   5.389 -0.5964  0.0869  0.1645
44621SOL     OW38992   9.443   2.063   1.323  0.0691 -0.2696  0.1445
44621SOL    HW138993   9.469   2.038   1.412 -1.0284 -0.1298  0.5099
44621SOL    HW238994   9.372   2.003   1.301  1.2630 -1.2417 -1.1919
44622SOL     OW38995   8.923   2.208   0.924  0.1288  0.0297  0.4008
44622SOL    HW138996   8.984   2.171   0.860  0.4827  1.4521 -0.0940
44622SOL    HW238997   8.867   2.134   0.949  0.4033 -0.6883 -1.0600
44623SOL     OW38998   0.539  11.167   7.504 -0.0838 -0.0577 -0.4465
44623SOL    HW138999   0.485  11.224   7.450  0.2394 -0.7643 -1.5251
44623SOL    HW239000   0.482  11.142   7.577 -0.5065  0.9242 -0.4281
44624SOL     OW39001   9.952   6.528   0.486 -0.0564  0.0410 -0.6035
44624SOL    HW139002   9.990   6.471   0.553 -0.2831  0.8872  0.2555
44624SOL    HW239003  10.021   6.539   0.421  0.5627  0.1327  0.0661
44625SOL     OW39004   6.810   6.243   5.446 -0.1039 -0.3847 -0.3314
44625SOL    HW139005   6.724   6.213   5.416 -0.0539  0.0943 -0.9660
44625SOL    HW239006   6.817   6.210   5.536  0.1142 -2.6491 -1.1468
44626SOL     OW39007   9.884   4.050   0.614 -0.1527 -0.3134 -0.1246
44626SOL    HW139008   9.825   4.084   0.546 -0.3696 -0.4807 -0.0242
44626SOL    HW239009   9.972   4.072   0.583 -0.3306  1.0715  0.3426
44627SOL     OW39010   6.376   2.229   6.080 -0.4431  0.4262 -0.6183
44627SOL    HW139011   6.368   2.219   6.175  3.0845  2.2929 -0.0114
44627SOL    HW239012   6.453   2.177   6.057 -0.7017  0.7489 -2.2963
44628SOL     OW39013   2.298   8.929   0.661 -0.1131 -0.3855 -0.3759
44628SOL    HW139014   2.318   8.902   0.571  0.6714 -0.1787 -0.2705
44628SOL    HW239015   2.378   8.971   0.691 -0.1745 -0.9708  0.6223
44629SOL     OW39016   8.917   8.825  10.870  0.3635  0.5351 -0.2883
44629SOL    HW139017   8.833   8.835  10.825 -0.3251  2.4319  1.3236
44629SOL    HW239018   8.894   8.830  10.963  2.1307 -0.2110  0.1988
44630SOL     OW39019  10.329   2.848   4.885 -0.2597 -0.5950 -0.4318
44630SOL    HW139020  10.341   2.795   4.965  1.2821  0.4556  0.0571
44630SOL    HW239021  10.243   2.888   4.896  0.9394  1.4891  1.9139
44631SOL     OW39022   5.758   0.438   2.632 -0.1729 -0.2976  0.0099
44631SOL    HW139023   5.773   0.430   2.726 -1.9024 -1.0182  0.2461
44631SOL    HW239024   5.782   0.528   2.611 -1.6865  0.4809  1.5342
44632SOL     OW39025   3.804   4.361   4.137  0.4640 -0.4778 -0.3943
44632SOL    HW139026   3.845   4.437   4.096  1.8782 -0.2905  1.3081
44632SOL    HW239027   3.835   4.363   4.228  0.2422 -2.8881 -0.2366
44633SOL     OW39028  10.132   7.379   8.958 -0.1386  0.1099 -0.1199
44633SOL    HW139029  10.087   7.331   9.027 -0.4317  0.3188 -0.1687
44633SOL    HW239030  10.223   7.348   8.964 -0.0499  0.5186  0.6900
44634SOL     OW39031   7.110   7.952   5.723  0.3257 -0.5131 -0.2751
44634SOL    HW139032   7.067   8.023   5.675  0.2780  0.1697  0.7604
44634SOL    HW239033   7.093   7.874   5.670 -1.1881 -0.0619 -0.4861
44635SOL     OW39034   7.730   8.039   0.571  0.0994 -0.4380  0.4934
44635SOL    HW139035   7.749   8.054   0.479 -0.9561  0.0078  0.3401
44635SOL    HW239036   7.639   8.068   0.582  0.9387  1.7517  2.1575
44636SOL     OW39037   1.307   2.078  10.937  0.4445 -0.0746 -0.0776
44636SOL    HW139038   1.391   2.093  10.893 -1.1047  0.6755 -2.9078
44636SOL    HW239039   1.253   2.154  10.911 -1.2430 -0.7600  1.3373
44637SOL     OW39040   6.626   6.447   3.531 -0.6725 -0.1994  0.2036
44637SOL    HW139041   6.669   6.453   3.446 -0.6496  2.4907  0.3857
44637SOL    HW239042   6.673   6.509   3.586 -0.8643 -1.7219  2.1190
44638SOL     OW39043   4.723   7.089  10.663  0.1751 -0.2238 -0.3030
44638SOL    HW139044   4.656   7.126  10.605 -1.5340  1.6920  2.7970
44638SOL    HW239045   4.775   7.163  10.691  0.0376 -0.8797  1.7801
44639SOL     OW39046   3.918   9.499   2.374  0.5446  0.2963 -0.2310
44639SOL    HW139047   3.967   9.581   2.373  0.5856  0.2678 -0.7196
44639SOL    HW239048   3.932   9.461   2.287  1.1745 -0.6208  0.2693
44640SOL     OW39049   0.053   3.652   6.293  0.3280 -0.2613 -0.0235
44640SOL    HW139050   0.018   3.636   6.381  0.6240  0.1630  0.1752
44640SOL    HW239051   0.147   3.663   6.307  0.6883 -2.2802 -0.6565
44641SOL     OW39052   6.063   4.148   1.709 -0.0361  0.2901  0.1806
44641SOL    HW139053   5.994   4.195   1.757  0.0885  0.5693  0.0897
44641SOL    HW239054   6.040   4.160   1.617  0.0823  0.3052  0.1529
44642SOL     OW39055   6.391   9.013  10.375  0.3144 -0.2687  0.3978
44642SOL    HW139056   6.322   8.974  10.322 -0.2629 -1.9041  2.2945
44642SOL    HW239057   6.363   9.103  10.389 -0.2765 -0.2684 -0.7731
44643SOL     OW39058   2.846   4.702   0.198  0.1583  0.2511 -0.3662
44643SOL    HW139059   2.769   4.645   0.201  0.0074  0.5173  0.8098
44643SOL    HW239060   2.920   4.643   0.211  0.1839 -0.0308 -1.6713
44644SOL     OW39061  10.397   6.589   8.580  0.4093  0.4504 -0.2145
44644SOL    HW139062  10.447   6.639   8.644 -0.6420  1.6140 -0.2767
44644SOL    HW239063  10.330   6.650   8.549 -1.4247 -1.2397  0.3178
44645SOL     OW39064   6.188   1.116  10.383  0.2890 -0.3710  0.3659
44645SOL    HW139065   6.147   1.186  10.332  1.2548  0.9349  1.3500
44645SOL    HW239066   6.268   1.095  10.335  0.0221 -0.7677  0.0949
44646SOL     OW39067   6.407  11.174   6.075  0.2159 -0.1484 -0.1374
44646SOL    HW139068   6.405  11.187   6.170 -1.0291 -0.3651 -0.1248
44646SOL    HW239069   6.488  11.217   6.046  0.0920  0.7787  0.8939
44647SOL     OW39070  10.152   9.539   8.952  0.0094 -0.4800 -0.2726
44647SOL    HW139071  10.155   9.542   9.047 -0.9876 -1.4379 -0.2105
44647SOL    HW239072  10.177   9.628   8.925  0.1379 -0.1568  0.8745
44648SOL     OW39073   4.564   0.708   0.361 -0.5639  0.2250  0.6432
44648SOL    HW139074   4.519   0.747   0.286 -2.0101 -1.9373  0.3391
44648SOL    HW239075   4.648   0.755   0.366 -0.6760  0.7765 -1.9793
44649SOL     OW39076   0.316   2.569   8.354 -0.6130  0.0926  0.3718
44649SOL    HW139077   0.395   2.516   8.368  0.0575  0.4531 -1.9306
44649SOL    HW239078   0.349   2.652   8.320 -2.0059  0.0751 -1.0767
44650SOL     OW39079   7.597   2.499   5.767  0.8536 -0.1914 -0.6553
44650SOL    HW139080   7.659   2.544   5.710 -0.3669  1.8274 -0.4297
44650SOL    HW239081   7.590   2.554   5.844  0.8542 -1.8120  0.5276
44651SOL     OW39082   1.793   6.342  11.141 -0.3351 -0.3296 -0.2783
44651SOL    HW139083   1.729   6.364  11.073  0.1021 -0.7792 -0.8348
44651SOL    HW239084   1.770   6.253  11.167 -0.5003 -0.1587  0.1685
44652SOL     OW39085  10.420   7.143   5.778  0.3003 -0.2112 -0.1491
44652SOL    HW139086  10.434   7.053   5.748 -3.3473 -0.7918 -0.2830
44652SOL    HW239087  10.369   7.134   5.859  0.2915  1.7249  0.0774
44653SOL     OW39088   5.829   3.824   6.650 -0.5148  0.1061  0.5280
44653SOL    HW139089   5.862   3.861   6.732  0.4358 -1.5967  0.9401
44653SOL    HW239090   5.753   3.771   6.677  0.3822 -1.2431  0.4576
44654SOL     OW39091   2.203  10.652   9.677  0.9410  0.1231  0.0754
44654SOL    HW139092   2.265  10.579   9.677  1.6159  0.6896 -0.2420
44654SOL    HW239093   2.219  10.697   9.759  1.3649  0.6190 -0.2784
44655SOL     OW39094   7.581  10.974   0.628 -0.3797 -0.2752  0.3251
44655SOL    HW139095   7.585  10.892   0.676 -1.7398 -0.1097  0.7205
44655SOL    HW239096   7.527  10.955   0.551  2.0710 -0.6365 -1.3612
44656SOL     OW39097   4.226   8.664   1.193 -0.1242  0.1508 -0.0050
44656SOL    HW139098   4.274   8.606   1.252  1.3414 -0.6024 -1.9059
44656SOL    HW239099   4.283   8.740   1.183  0.8087 -0.8113 -2.3929
44657SOL     OW39100   7.898  10.687   7.574  0.5313  0.4006  0.0576
44657SOL    HW139101   7.858  10.682   7.661  0.8483 -1.1681  0.1325
44657SOL    HW239102   7.992  10.680   7.591  0.6383  0.8240 -0.3613
44658SOL     OW39103   2.924   2.675   1.353 -0.3134  0.1049 -0.2023
44658SOL    HW139104   2.985   2.602   1.361 -1.0315 -0.5450 -0.5986
44658SOL    HW239105   2.842   2.642   1.390 -0.7211  0.6202 -0.6373
44659SOL     OW39106   8.010   7.612   7.244 -0.0556  0.4188 -1.0285
44659SOL    HW139107   8.047   7.567   7.168  2.2039  1.4611 -0.5770
44659SOL    HW239108   7.988   7.699   7.211  0.5701  0.7420 -0.6020
44660SOL     OW39109   0.040   0.864   1.204  0.0120  0.2934  0.3781
44660SOL    HW139110   0.102   0.804   1.246 -2.5854 -1.2245  2.1888
44660SOL    HW239111   0.010   0.816   1.127  2.2368  1.7096 -1.4569
44661SOL     OW39112   4.394   7.229   9.333  0.3102 -0.3456  0.1072
44661SOL    HW139113   4.401   7.138   9.361  0.7945 -0.2423  0.3301
44661SOL    HW239114   4.381   7.225   9.238 -2.2056 -0.7345  0.4342
44662SOL     OW39115   1.758   9.179   2.106 -0.3199  0.3375  0.6110
44662SOL    HW139116   1.792   9.265   2.130  0.4080  0.6215 -1.3287
44662SOL    HW239117   1.709   9.150   2.183  1.2667  1.5147  2.1118
44663SOL     OW39118   1.778   5.574   9.583 -0.5111  0.1426 -0.6973
44663SOL    HW139119   1.710   5.509   9.567 -0.3413 -0.7278  1.8206
44663SOL    HW239120   1.732   5.649   9.621 -0.1283 -0.4412  0.9923
44664SOL     OW39121   0.089  11.273  10.020 -0.7748 -0.4044  0.3045
44664SOL    HW139122   0.104  11.329  10.097 -2.8370  0.6683 -0.0462
44664SOL    HW239123   0.053  11.192  10.056  1.3244 -1.1710  0.7314
44665SOL     OW39124   8.972   9.125   0.135  0.1464  0.3717 -0.5654
44665SOL    HW139125   8.877   9.119   0.146  0.3283  1.3381  1.7508
44665SOL    HW239126   8.985   9.210   0.091 -0.0794 -0.0072 -1.3801
44666SOL     OW39127   4.613   3.270   3.840 -0.0564  0.2553 -0.0870
44666SOL    HW139128   4.634   3.326   3.765  0.1964  1.8149  1.1073
44666SOL    HW239129   4.584   3.331   3.908 -3.6772 -1.4140 -0.0034
44667SOL     OW39130   1.795   9.493   8.852  0.1650  0.7468 -0.4555
44667SOL    HW139131   1.827   9.424   8.795 -1.3723  0.2015 -0.6749
44667SOL    HW239132   1.854   9.567   8.835  0.5055  0.1850 -1.7955
44668SOL     OW39133   7.631   0.577   8.579  0.6367  0.0597  0.7538
44668SOL    HW139134   7.638   0.618   8.493  0.7571  0.2444  0.8518
44668SOL    HW239135   7.551   0.613   8.617 -0.0171 -0.8714  0.2661
44669SOL     OW39136   5.595   0.365   4.370  0.2498  0.2463 -0.1057
44669SOL    HW139137   5.662   0.300   4.350  0.3803  0.3279  0.0567
44669SOL    HW239138   5.561   0.339   4.456  1.1447  1.0661  0.5193
44670SOL     OW39139   7.120   7.686   4.851 -0.0188  0.1462 -0.0275
44670SOL    HW139140   7.205   7.702   4.808  0.5941 -0.9152  0.7666
44670SOL    HW239141   7.057   7.731   4.796  0.9215 -0.0850 -1.3245
44671SOL     OW39142   0.624   9.176   0.423 -0.1573 -0.1691 -0.2044
44671SOL    HW139143   0.653   9.116   0.354  0.4231 -0.8382  0.6076
44671SOL    HW239144   0.559   9.127   0.472 -1.5401  0.7751 -1.0645
44672SOL     OW39145   9.549   9.949   1.832  0.1180 -0.0189 -0.1695
44672SOL    HW139146   9.581   9.860   1.816 -2.0478 -0.5468 -1.8105
44672SOL    HW239147   9.531   9.952   1.925  0.9510 -1.0435  0.0388
44673SOL     OW39148   7.932   0.164   6.579 -0.3814 -0.2790 -0.9063
44673SOL    HW139149   8.005   0.225   6.568 -0.7480  0.5635  1.1384
44673SOL    HW239150   7.974   0.078   6.585  0.2595 -0.0571 -2.1741
44674SOL     OW39151   6.470  10.848   5.468  0.0407  0.5279  0.3893
44674SOL    HW139152   6.456  10.766   5.421 -0.0456 -0.0110  1.3488
44674SOL    HW239153   6.395  10.855   5.527 -1.0461  2.3339 -1.1357
44675SOL     OW39154   4.511   8.194   9.554  0.1467  0.0956  0.0443
44675SOL    HW139155   4.561   8.244   9.489  0.5056  0.6860  0.7635
44675SOL    HW239156   4.432   8.246   9.568 -0.5724 -0.7152 -0.9081
44676SOL     OW39157   9.633   3.959   6.523 -0.0498  0.2394 -0.2780
44676SOL    HW139158   9.562   3.902   6.492 -0.6856  0.6596  0.3863
44676SOL    HW239159   9.589   4.041   6.545  0.4080 -0.0032  1.5777
44677SOL     OW39160  10.338   1.396  10.399 -0.4297  0.0399  0.7984
44677SOL    HW139161  10.335   1.475  10.344 -0.5338 -0.0578  0.6599
44677SOL    HW239162  10.380   1.424  10.480  2.5090 -0.5360 -0.4899
44678SOL     OW39163   0.127   6.651   1.978  0.0120  0.2583 -0.4183
44678SOL    HW139164   0.123   6.725   2.037  0.9463  0.2248 -0.2993
44678SOL    HW239165   0.166   6.686   1.898  0.7585 -0.1692 -0.2481
44679SOL     OW39166   6.164   9.094   1.992 -0.9005 -0.1654 -0.1032
44679SOL    HW139167   6.090   9.144   2.027 -1.1511 -0.2767 -0.4721
44679SOL    HW239168   6.209   9.062   2.070 -0.2590  1.3165  0.1601
44680SOL     OW39169   0.945  10.978   4.128 -0.3835 -0.4851 -0.2928
44680SOL    HW139170   0.994  10.934   4.198 -1.2743 -0.3904  0.4024
44680SOL    HW239171   0.912  11.058   4.169 -1.6706 -0.8780 -0.5682
44681SOL     OW39172   8.384   9.480   9.466  0.2483 -0.1602 -0.1537
44681SOL    HW139173   8.336   9.528   9.533  0.3069 -0.3050 -0.0095
44681SOL    HW239174   8.464   9.451   9.509  1.3742  1.7008 -0.9051
44682SOL     OW39175   4.886   5.008   5.564  0.4570  0.2954  0.1870
44682SOL    HW139176   4.795   5.024   5.538  0.0608 -1.8537  0.1630
44682SOL    HW239177   4.938   5.028   5.486 -0.0889  0.5044 -0.1262
44683SOL     OW39178  11.151   7.098   2.535  0.0367 -0.0578  0.5458
44683SOL    HW139179  11.059   7.117   2.514  0.9396  1.6495 -2.1561
44683SOL    HW239180  11.154   7.003   2.546 -1.8103 -0.2908 -0.6985
44684SOL     OW39181   6.381   3.052   8.779  0.4325  0.4237 -0.2316
44684SOL    HW139182   6.345   2.967   8.754 -2.2183  1.6338 -0.6965
44684SOL    HW239183   6.366   3.108   8.702  0.4581  1.7974  0.7469
44685SOL     OW39184   2.330  10.937   5.943 -0.0926 -0.2417 -0.0906
44685SOL    HW139185   2.283  11.003   5.993 -1.2735 -0.7456 -0.5155
44685SOL    HW239186   2.422  10.958   5.955 -0.4111  0.4050  1.2338
44686SOL     OW39187   7.724   6.052   7.499  0.4514  0.7586  0.1557
44686SOL    HW139188   7.639   6.012   7.512  0.7988  0.4472  1.6203
44686SOL    HW239189   7.759   6.011   7.420 -0.3039  0.1199  0.1537
44687SOL     OW39190   7.089   4.595   7.875 -0.0683  0.0983 -0.1705
44687SOL    HW139191   7.037   4.598   7.955  0.0103 -1.4745 -0.0413
44687SOL    HW239192   7.166   4.648   7.895  0.0546 -0.4555  0.8804
44688SOL     OW39193   8.009   7.950   4.387 -0.5749  0.1790  0.5992
44688SOL    HW139194   8.090   7.962   4.337 -0.7113 -1.1780  0.0509
44688SOL    HW239195   7.940   7.977   4.327 -0.5366  1.3492  1.0720
44689SOL     OW39196   5.210  10.661   0.953 -0.1777  0.2433 -0.1496
44689SOL    HW139197   5.259  10.655   1.035  2.0759  2.3862 -1.2725
44689SOL    HW239198   5.269  10.626   0.887 -1.4847 -0.2794 -1.0699
44690SOL     OW39199   3.926   0.444  11.314 -0.2153 -0.0620  0.2378
44690SOL    HW139200   4.007   0.407  11.350 -0.0981 -1.3125 -1.2683
44690SOL    HW239201   3.858   0.420  11.378  0.2861 -0.6486  0.5489
44691SOL     OW39202   9.285   2.874  10.834  0.0017  0.2665  0.0050
44691SOL    HW139203   9.252   2.819  10.905 -0.6563  2.2128  1.2466
44691SOL    HW239204   9.213   2.933  10.814  1.0537  1.3739 -0.5847
44692SOL     OW39205  10.228  10.777   2.904 -0.4071  0.4173  0.0155
44692SOL    HW139206  10.208  10.719   2.978  0.1925  2.7897  2.1236
44692SOL    HW239207  10.320  10.758   2.883 -0.7423 -0.6550 -0.5098
44693SOL     OW39208   7.435   2.274   2.650 -0.0207  0.7230  0.1316
44693SOL    HW139209   7.499   2.308   2.712  0.7304 -0.7156  0.1582
44693SOL    HW239210   7.361   2.248   2.705 -0.6078  2.2851  0.1094
44694SOL     OW39211   0.497  10.910   9.425  0.1555 -0.3411 -0.4813
44694SOL    HW139212   0.442  10.954   9.490 -1.2251 -1.9599 -0.4945
44694SOL    HW239213   0.582  10.901   9.467  0.1762  1.4289 -0.1083
44695SOL     OW39214   3.536   3.846   0.827 -0.2446 -0.1634 -0.2961
44695SOL    HW139215   3.498   3.879   0.746  2.3949  1.9829 -0.7247
44695SOL    HW239216   3.591   3.772   0.799 -0.2714 -0.1825 -0.2990
44696SOL     OW39217   2.974   3.518   2.584 -0.4113  0.5809 -0.4191
44696SOL    HW139218   2.913   3.540   2.654 -0.4953  0.1939 -0.3659
44696SOL    HW239219   2.919   3.507   2.507 -0.2753  1.3725 -0.6279
44697SOL     OW39220   3.731   3.843   0.519  0.2676 -0.1258 -0.1717
44697SOL    HW139221   3.736   3.864   0.426  3.0461 -0.5665 -0.1824
44697SOL    HW239222   3.780   3.913   0.562 -0.8452 -0.0184  0.9598
44698SOL     OW39223  10.059   8.764   3.956 -0.3829  0.3664 -0.1275
44698SOL    HW139224  10.072   8.829   4.026 -0.3781  1.0073 -0.7212
44698SOL    HW239225  10.088   8.681   3.995  1.9309  1.1208 -0.1524
44699SOL     OW39226   2.556   9.381   8.027 -0.3684 -0.3829 -0.1587
44699SOL    HW139227   2.540   9.440   7.953 -1.7016  1.7667  1.7584
44699SOL    HW239228   2.469   9.355   8.056  0.1897 -2.5096 -0.3005
44700SOL     OW39229   8.694   4.759   9.060 -0.0110 -0.0297  0.2651
44700SOL    HW139230   8.732   4.822   9.000  0.5382 -0.2926  0.3383
44700SOL    HW239231   8.730   4.781   9.146 -0.9874  0.5023  0.5498
44701SOL     OW39232   9.369   8.718   7.890  0.6547  0.3810 -0.1502
44701SOL    HW139233   9.409   8.803   7.874  1.3203 -0.1301 -1.2186
44701SOL    HW239234   9.323   8.697   7.809 -0.7635  0.3913  0.6237
44702SOL     OW39235   9.202   9.035   7.812  0.8970  0.4226 -0.0261
44702SOL    HW139236   9.224   8.985   7.733 -0.5019  0.6932 -0.6065
44702SOL    HW239237   9.190   9.125   7.781  3.6343  1.2110  1.0488
44703SOL     OW39238   4.749   2.237   4.095  0.6615 -0.3470 -0.1220
44703SOL    HW139239   4.721   2.146   4.101 -0.0690 -0.1901 -1.0235
44703SOL    HW239240   4.671   2.288   4.118 -0.0772  0.1053 -3.3135
44704SOL     OW39241   1.808  10.603   9.060 -0.4829 -0.9092  0.4471
44704SOL    HW139242   1.803  10.632   9.151 -0.4310 -1.1778  0.5344
44704SOL    HW239243   1.866  10.667   9.019 -2.4981  0.6964  0.0153
44705SOL     OW39244   2.453   2.210   1.845  0.1095 -0.3787 -0.6759
44705SOL    HW139245   2.442   2.205   1.750  1.0894  1.1090 -0.8826
44705SOL    HW239246   2.542   2.180   1.861  0.0768 -0.2509 -0.2551
44706SOL     OW39247   9.553   3.564   0.720  0.9613  0.2515 -0.3143
44706SOL    HW139248   9.494   3.512   0.774  1.3584  1.6278  1.4906
44706SOL    HW239249   9.622   3.503   0.693 -0.1848 -0.8674 -0.7539
44707SOL     OW39250   0.397   1.977   6.570 -0.6117  0.4392 -0.3050
44707SOL    HW139251   0.486   1.970   6.537 -0.5101  0.2457  0.0146
44707SOL    HW239252   0.349   1.907   6.525 -0.0203 -1.1268  1.4716
44708SOL     OW39253   5.600   3.443  11.106 -0.0981  0.0549  0.2004
44708SOL    HW139254   5.514   3.459  11.068  0.0993  1.1405  0.2064
44708SOL    HW239255   5.641   3.529  11.111 -0.0893 -0.0657  2.8652
44709SOL     OW39256   6.477   1.603   0.904 -0.6767  0.7222 -0.4226
44709SOL    HW139257   6.475   1.518   0.862  0.0504  0.9154 -0.8503
44709SOL    HW239258   6.449   1.587   0.994  1.5517 -0.3087  0.1092
44710SOL     OW39259   2.036   3.439   6.276  0.3190 -0.2944 -0.3775
44710SOL    HW139260   2.065   3.372   6.214  3.5486  1.5147 -0.9712
44710SOL    HW239261   1.946   3.458   6.250 -0.0022 -3.0000 -1.4058
44711SOL     OW39262   1.514   8.583   9.945 -0.1734 -0.5148  0.3093
44711SOL    HW139263   1.474   8.563   9.860 -2.1449  1.6992  0.6790
44711SOL    HW239264   1.558   8.667   9.932 -0.0526 -0.4154  1.3310
44712SOL     OW39265   0.191   6.663  10.419 -0.0646  0.4665  0.1849
44712SOL    HW139266   0.271   6.639  10.373 -0.8521 -1.8876 -0.0164
44712SOL    HW239267   0.126   6.601  10.388 -1.2288  0.3916  2.6549
44713SOL     OW39268   0.250   4.985   4.106 -0.2860 -0.4418  0.3250
44713SOL    HW139269   0.193   5.061   4.111  2.3399  1.7168 -1.1103
44713SOL    HW239270   0.231   4.945   4.021  0.9934  0.8450 -0.5800
44714SOL     OW39271   3.553   1.959  11.107 -0.3158  0.2337 -0.5522
44714SOL    HW139272   3.585   1.947  11.196  2.1596 -1.1871 -1.5780
44714SOL    HW239273   3.508   2.043  11.108 -0.8033 -0.0352  2.1582
44715SOL     OW39274  10.286   5.608   8.584  0.0580 -0.6654  0.1761
44715SOL    HW139275  10.316   5.519   8.605  1.4469 -0.6217 -1.4843
44715SOL    HW239276  10.195   5.597   8.558 -0.5417 -1.2366  2.3877
44716SOL     OW39277  10.202   1.179   9.360 -0.3885  0.4735 -0.2666
44716SOL    HW139278  10.281   1.233   9.349  0.7868 -0.8687  1.3091
44716SOL    HW239279  10.132   1.242   9.376  0.8139  1.5905  0.7148
44717SOL     OW39280   1.888   6.075   5.743  0.1330  0.4610  0.2564
44717SOL    HW139281   1.879   6.068   5.838  1.4516  1.0263  0.4383
44717SOL    HW239282   1.841   6.155   5.721  0.5878  0.8227  0.5646
44718SOL     OW39283   0.112   7.247   4.254 -0.4474 -0.6117  0.0810
44718SOL    HW139284   0.069   7.293   4.326  0.2734 -1.4862  1.0889
44718SOL    HW239285   0.069   7.161   4.252  0.5277 -1.1156  0.4239
44719SOL     OW39286   5.764   8.047   9.491  0.2291  0.6233 -0.1393
44719SOL    HW139287   5.770   8.055   9.586 -1.0134 -2.1770  0.2234
44719SOL    HW239288   5.838   8.098   9.458  1.6105  0.3532  2.4071
44720SOL     OW39289   3.050   1.679   3.905 -0.4063  0.0202  0.0099
44720SOL    HW139290   2.983   1.615   3.883  0.2845 -1.5736  2.3640
44720SOL    HW239291   3.008   1.764   3.892 -2.3191 -0.9413 -0.1534
44721SOL     OW39292   7.085   2.244   9.403 -0.5675 -0.1653 -0.5069
44721SOL    HW139293   7.136   2.233   9.323  1.2881 -1.0348  0.7577
44721SOL    HW239294   7.047   2.158   9.420  1.3239 -0.7396  1.0182
44722SOL     OW39295   6.432   2.983   7.113 -0.1532 -0.4316 -0.4863
44722SOL    HW139296   6.475   3.009   7.032 -2.4448  2.8588 -0.7485
44722SOL    HW239297   6.413   2.890   7.100 -0.0534 -0.0935 -3.5418
44723SOL     OW39298   6.375   9.757   3.006 -0.4345  0.0329 -0.6835
44723SOL    HW139299   6.302   9.819   3.013 -0.3898 -0.1083  1.1097
44723SOL    HW239300   6.443   9.806   2.960 -0.9612  0.7979 -0.6659
44724SOL     OW39301   3.798   7.449   3.484  0.1666  0.0362  0.0620
44724SOL    HW139302   3.849   7.495   3.418 -0.1415 -0.7775 -0.7530
44724SOL    HW239303   3.805   7.357   3.460 -2.4431 -0.0288 -0.6126
44725SOL     OW39304  10.405   9.219   8.624  0.1930  0.1482  0.3759
44725SOL    HW139305  10.439   9.303   8.655 -0.2653  0.8230 -0.8931
44725SOL    HW239306  10.457   9.200   8.546 -0.8991  0.1366 -0.3597
44726SOL     OW39307  10.188   7.289   0.255  0.5102  0.1511  0.4123
44726SOL    HW139308  10.231   7.208   0.282  1.0679  0.4884  0.5441
44726SOL    HW239309  10.231   7.314   0.174 -0.2402 -0.1347 -0.0828
44727SOL     OW39310  11.169   9.599  10.246  0.2084 -0.7214 -0.8369
44727SOL    HW139311  11.223   9.665  10.289 -0.9831 -1.2507  1.5755
44727SOL    HW239312  11.230   9.545  10.196  1.5708  0.2241 -0.2036
44728SOL     OW39313   0.526   0.349   8.604  0.3180 -0.3685  0.0707
44728SOL    HW139314   0.445   0.397   8.586  0.7203  0.3396  0.1504
44728SOL    HW239315   0.567   0.338   8.518  1.3642  1.4618  0.3184
44729SOL     OW39316   5.334   1.519   2.386  0.4470 -0.2654  0.5356
44729SOL    HW139317   5.329   1.613   2.369  1.6176 -0.3364 -0.3399
44729SOL    HW239318   5.399   1.511   2.456  0.7069 -0.4411  0.2790
44730SOL     OW39319   3.456   3.056  11.155  0.1159 -0.0267  0.3509
44730SOL    HW139320   3.362   3.075  11.155  0.5895  2.4469  0.1377
44730SOL    HW239321   3.472   3.014  11.240 -0.7744  1.7703  1.4325
44731SOL     OW39322   9.003   5.796   9.227 -0.3963 -0.0932  0.2572
44731SOL    HW139323   8.986   5.789   9.133 -0.3755  0.7035  0.1855
44731SOL    HW239324   8.969   5.882   9.251 -1.2822 -0.6907  1.1845
44732SOL     OW39325   7.452   8.075   6.976 -0.5084  0.0197  0.3382
44732SOL    HW139326   7.527   8.128   7.000  1.0376 -2.0913  0.3504
44732SOL    HW239327   7.415   8.118   6.898  0.2134  1.5160  0.8193
44733SOL     OW39328   1.185   4.976   8.096 -0.5100  0.3467 -0.4322
44733SOL    HW139329   1.160   4.989   8.005 -0.7349 -0.8066 -0.5484
44733SOL    HW239330   1.114   5.014   8.147  0.0026  1.7262 -0.7248
44734SOL     OW39331   8.593   6.045   1.386 -0.3310 -0.7584 -0.6797
44734SOL    HW139332   8.635   6.127   1.413 -0.9200  0.0835 -2.2476
44734SOL    HW239333   8.573   6.000   1.468 -0.0671  0.6936  0.1987
44735SOL     OW39334   9.872   8.717   3.075 -0.0420  0.1072  0.1781
44735SOL    HW139335   9.906   8.629   3.094  0.2787  0.5868  1.9844
44735SOL    HW239336   9.900   8.770   3.150  0.4703  1.9642 -1.2839
44736SOL     OW39337   5.477   4.728   4.074 -0.0457 -0.4403  0.2992
44736SOL    HW139338   5.455   4.640   4.103  0.0058 -0.6952 -0.4484
44736SOL    HW239339   5.451   4.731   3.982  0.6550  0.0783  0.1160
44737SOL     OW39340   3.219   1.437   1.613  0.2378 -0.1335  0.0466
44737SOL    HW139341   3.133   1.460   1.577  0.3393  0.5519  0.2302
44737SOL    HW239342   3.206   1.351   1.652 -0.6491  0.4169  1.0069
44738SOL     OW39343   6.134   0.331   6.092 -0.1427  0.3456 -0.8659
44738SOL    HW139344   6.125   0.237   6.078 -2.4364  0.7622 -2.3851
44738SOL    HW239345   6.090   0.347   6.175  1.9810 -0.1598  0.4173
44739SOL     OW39346   0.235   8.758   8.997 -0.6977  0.0687 -0.6887
44739SOL    HW139347   0.204   8.816   9.066  1.0146  0.6410 -0.3630
44739SOL    HW239348   0.215   8.805   8.916  1.0011  1.3550 -0.4205
44740SOL     OW39349   5.349   1.309   1.219 -0.0632  0.1124  0.5025
44740SOL    HW139350   5.376   1.374   1.155 -1.6868 -0.7065 -1.0480
44740SOL    HW239351   5.431   1.275   1.256  0.9404 -0.3753 -2.1012
44741SOL     OW39352  10.568   5.615   4.339  0.4507  0.3188 -0.3216
44741SOL    HW139353  10.622   5.580   4.268 -1.9157 -1.1181 -1.4883
44741SOL    HW239354  10.596   5.566   4.417 -0.8534 -2.2358 -1.3912
44742SOL     OW39355   1.030   9.776   6.918 -0.4419  0.1136  0.4141
44742SOL    HW139356   1.081   9.695   6.904 -1.1441 -0.3323  0.4227
44742SOL    HW239357   1.096   9.845   6.915  0.2591 -0.5105  1.0512
44743SOL     OW39358   1.354   6.978   0.436 -0.6013 -0.1721 -0.1635
44743SOL    HW139359   1.423   6.938   0.384 -0.8750  0.8005 -1.2857
44743SOL    HW239360   1.289   7.007   0.372 -1.7140 -0.4265  0.8243
44744SOL     OW39361   2.921   7.483   5.188  0.1748 -0.0720 -0.1261
44744SOL    HW139362   2.938   7.469   5.095  0.1889  1.7017 -0.4119
44744SOL    HW239363   2.896   7.575   5.194 -3.0863 -0.9941  1.1897
44745SOL     OW39364   2.737  10.865   6.312  0.3623 -0.6125 -0.6612
44745SOL    HW139365   2.698  10.777   6.316  0.9207 -1.0159 -3.2051
44745SOL    HW239366   2.825  10.853   6.345  0.6474 -1.1685 -1.5948
44746SOL     OW39367   8.397   9.891   3.336 -0.6825 -0.1216  0.3217
44746SOL    HW139368   8.460   9.858   3.273  0.0356 -1.0216  1.4741
44746SOL    HW239369   8.372   9.977   3.304  1.9738  0.7338  0.4223
44747SOL     OW39370   5.509   1.669  10.637 -0.3150  0.3348  0.2915
44747SOL    HW139371   5.579   1.699  10.580  0.2350 -0.4403  0.5486
44747SOL    HW239372   5.455   1.747  10.653  1.2168  1.2519  1.1450
44748SOL     OW39373   0.663   4.708   9.945 -0.0355 -0.6638  0.1378
44748SOL    HW139374   0.642   4.681   9.855  1.4022 -0.6234 -0.2408
44748SOL    HW239375   0.580   4.707   9.991 -0.7986 -0.7078 -1.2006
44749SOL     OW39376   9.187   2.920   2.395  0.1204  0.3241 -0.2297
44749SOL    HW139377   9.120   2.945   2.459  0.3349  2.8556 -0.9111
44749SOL    HW239378   9.138   2.899   2.315  0.0952  2.1326 -0.7153
44750SOL     OW39379  10.579   0.857   9.532 -0.1249  0.0457  0.1781
44750SOL    HW139380  10.672   0.856   9.507  0.3777 -2.1118  1.9284
44750SOL    HW239381  10.543   0.777   9.494 -0.8475 -0.0371  1.0149
44751SOL     OW39382   4.107   7.745   3.904  0.0239 -0.4006  0.6072
44751SOL    HW139383   4.083   7.767   3.994  0.7822 -1.0207  0.9645
44751SOL    HW239384   4.129   7.652   3.908 -1.1486 -0.7309 -0.4700
44752SOL     OW39385   3.661   7.714  11.266 -0.2219 -0.2820  0.3394
44752SOL    HW139386   3.576   7.748  11.296 -0.5543 -1.7403  1.1302
44752SOL    HW239387   3.679   7.641  11.326  0.2808 -1.7206 -1.5198
44753SOL     OW39388   4.377   7.216   3.076  0.2231 -0.9028 -0.1474
44753SOL    HW139389   4.400   7.288   3.135  1.2509 -0.5615 -0.9474
44753SOL    HW239390   4.448   7.214   3.012 -1.1734 -0.8964 -1.7333
44754SOL     OW39391   7.718  10.045  10.571  0.2400 -0.0515 -0.2373
44754SOL    HW139392   7.798  10.098  10.575 -0.5287  1.0261  1.3173
44754SOL    HW239393   7.750   9.955  10.562  1.6628  0.2650  1.3983
44755SOL     OW39394   8.220   3.860   3.233 -0.4103 -0.2594  1.0307
44755SOL    HW139395   8.256   3.890   3.149  1.6904 -1.4917  1.4836
44755SOL    HW239396   8.233   3.934   3.292  1.3956 -0.6796  1.1831
44756SOL     OW39397   7.721   5.653   0.643  0.0846 -0.2256 -0.1140
44756SOL    HW139398   7.753   5.721   0.584 -0.3326  1.0506  1.1350
44756SOL    HW239399   7.753   5.678   0.729 -1.1854 -0.8970  0.5685
44757SOL     OW39400   7.397   3.907   3.590 -0.1081  0.3303  0.0447
44757SOL    HW139401   7.321   3.885   3.643  0.9669 -1.6802  0.8092
44757SOL    HW239402   7.366   3.900   3.499 -1.1476  0.7595  0.3614
44758SOL     OW39403  10.368   0.073   7.062  0.2938 -0.2522  0.3921
44758SOL    HW139404  10.314   0.011   7.111 -0.6265  0.9017  0.8610
44758SOL    HW239405  10.361   0.155   7.111  0.6819  0.4895 -0.7719
44759SOL     OW39406  10.251   2.463   8.074  0.2555 -0.0076  0.5830
44759SOL    HW139407  10.214   2.374   8.071  0.0472  0.0789  0.5554
44759SOL    HW239408  10.225   2.502   7.991  1.4856 -0.3659  0.0185
44760SOL     OW39409   1.855   8.992  10.531  0.0144  0.3767  0.0909
44760SOL    HW139410   1.946   8.988  10.501 -0.1394 -0.2944 -0.2812
44760SOL    HW239411   1.842   9.085  10.553  0.8264  0.4527  0.2862
44761SOL     OW39412   3.945   3.629   6.058  0.6171  0.2158  0.3408
44761SOL    HW139413   3.906   3.695   6.001  0.8484  0.8625  0.9287
44761SOL    HW239414   3.892   3.551   6.044  0.1070  0.6345 -0.0684
44762SOL     OW39415   8.705   5.355   1.468  0.0919  0.8528  0.3846
44762SOL    HW139416   8.769   5.381   1.401  0.8979 -0.6456  0.5442
44762SOL    HW239417   8.626   5.333   1.418  0.7115 -0.3367 -0.1089
44763SOL     OW39418   4.152  10.553   8.135  0.1561 -0.1783  0.1923
44763SOL    HW139419   4.104  10.631   8.160  0.7276  0.2337  0.0094
44763SOL    HW239420   4.117  10.484   8.192 -2.7463 -0.5464 -1.9073
44764SOL     OW39421   3.904   8.279   8.619  0.8031  0.4364  0.0370
44764SOL    HW139422   3.901   8.190   8.655 -1.5525 -0.9320 -3.2125
44764SOL    HW239423   3.819   8.317   8.641  0.1670  0.3321 -2.0473
44765SOL     OW39424  10.968   8.348   5.012 -0.5579  0.3237 -0.4560
44765SOL    HW139425  10.975   8.385   4.924 -2.1060 -0.6320 -1.0003
44765SOL    HW239426  10.876   8.358   5.035 -0.8904 -2.5460 -0.3522
44766SOL     OW39427   8.241   5.321   4.547 -0.2764 -0.6454  0.2195
44766SOL    HW139428   8.218   5.273   4.468 -3.2695  0.1674  0.5343
44766SOL    HW239429   8.331   5.351   4.532 -0.6312 -0.9398 -2.6448
44767SOL     OW39430   2.274   3.113   3.849 -0.2282  0.6267  0.0259
44767SOL    HW139431   2.271   3.061   3.768 -0.5079 -1.3048  1.2539
44767SOL    HW239432   2.309   3.053   3.915  0.8798  2.4585  1.1579
44768SOL     OW39433   4.525   2.980   2.969  0.2320 -0.4610  0.0116
44768SOL    HW139434   4.616   2.954   2.985 -0.1675 -1.5240  0.5579
44768SOL    HW239435   4.524   3.009   2.878  1.1749 -0.1917  0.0830
44769SOL     OW39436   4.330   2.776   5.386  0.2092 -0.4547  0.2314
44769SOL    HW139437   4.268   2.723   5.436  0.5747  0.0808  1.2715
44769SOL    HW239438   4.403   2.790   5.446  0.8341 -0.1336 -0.5959
44770SOL     OW39439  10.540   9.275   0.956 -0.0685  0.7829  0.1027
44770SOL    HW139440  10.562   9.254   0.865 -0.5587  0.8780 -0.0418
44770SOL    HW239441  10.554   9.194   1.004 -1.8641  0.1334 -0.4291
44771SOL     OW39442   4.293   6.563  11.156  0.2338 -0.0013  0.1386
44771SOL    HW139443   4.256   6.476  11.169 -0.8790  0.5509  0.6487
44771SOL    HW239444   4.325   6.589  11.243 -0.3357  0.5154  0.1933
44772SOL     OW39445   0.549   4.815   9.318  0.7094  0.1767  0.4576
44772SOL    HW139446   0.541   4.782   9.228 -1.4185 -0.3699  0.8367
44772SOL    HW239447   0.582   4.904   9.308  0.4144  0.1417 -0.8609
44773SOL     OW39448   7.526   1.380   2.228  0.1105  0.0288 -0.0418
44773SOL    HW139449   7.576   1.299   2.217  0.7938  0.6308 -1.4119
44773SOL    HW239450   7.540   1.428   2.147 -1.3577  0.9452  0.2375
44774SOL     OW39451   5.260   0.093  10.575  0.1780  0.7397  0.2082
44774SOL    HW139452   5.217   0.008  10.567  3.1900 -0.8705  0.3527
44774SOL    HW239453   5.222   0.132  10.654 -1.0155 -0.5836  0.3093
44775SOL     OW39454   9.857   1.463  10.652  0.0426  1.0500 -0.5627
44775SOL    HW139455   9.873   1.523  10.725 -1.3149 -0.9816  1.4665
44775SOL    HW239456   9.942   1.454  10.610  0.9323  1.9965  0.9816
44776SOL     OW39457   6.635  10.970   9.601 -0.2745  0.1134  0.1803
44776SOL    HW139458   6.696  10.985   9.528  0.5875  0.0156  0.8770
44776SOL    HW239459   6.594  10.886   9.581 -0.1210  0.1374 -0.2445
44777SOL     OW39460   4.365   4.156   8.974  0.0638 -0.0072  0.7941
44777SOL    HW139461   4.431   4.162   9.043  0.2105 -0.2146  0.6715
44777SOL    HW239462   4.282   4.159   9.021  0.1552  0.7816  0.9104
44778SOL     OW39463   8.896   0.713  11.283  0.5740  0.0345 -0.4013
44778SOL    HW139464   8.978   0.668  11.265  0.2603 -0.7425  0.0789
44778SOL    HW239465   8.875   0.690  11.374 -0.3549 -0.0699 -0.6365
44779SOL     OW39466   8.995   1.223   6.694 -0.6341  0.1355  0.1157
44779SOL    HW139467   8.960   1.173   6.768  0.9021 -1.0680  0.0406
44779SOL    HW239468   9.034   1.158   6.637 -0.6986  1.1921 -1.1692
44780SOL     OW39469   0.921   0.281   0.497  0.1250 -0.2255  0.3549
44780SOL    HW139470   0.930   0.290   0.402 -0.9690 -0.6275  0.2005
44780SOL    HW239471   0.969   0.201   0.519 -0.2256 -0.5297  0.0291
44781SOL     OW39472   7.261   2.977   8.378 -0.2083  1.1929 -0.8733
44781SOL    HW139473   7.316   2.916   8.428 -0.3823 -0.0887 -2.2068
44781SOL    HW239474   7.275   2.953   8.287 -0.8233  2.7121 -1.3783
44782SOL     OW39475   1.620   9.475   2.013  0.3839 -0.0486  0.5136
44782SOL    HW139476   1.660   9.520   1.938  0.0238  0.9243  0.8954
44782SOL    HW239477   1.686   9.479   2.081  0.8360 -1.2222  0.1428
44783SOL     OW39478  11.055   1.703  10.107  0.2095 -0.0118 -0.2575
44783SOL    HW139479  10.981   1.698  10.046 -2.3898 -1.8440  2.8828
44783SOL    HW239480  11.068   1.797  10.121  0.1462  0.4076 -2.7373
44784SOL     OW39481   6.298  10.624   8.485 -0.1960  0.5885 -0.7800
44784SOL    HW139482   6.265  10.535   8.469 -0.2938  0.4184  0.3421
44784SOL    HW239483   6.282  10.670   8.403 -0.2030 -0.4149 -1.3551
44785SOL     OW39484   2.683   4.095   1.780 -0.0114  0.1156 -0.3031
44785SOL    HW139485   2.732   4.177   1.771 -0.0905 -0.0400 -2.3639
44785SOL    HW239486   2.749   4.027   1.772 -0.1448 -0.0544  0.0310
44786SOL     OW39487   8.616   4.183   4.928 -0.1810  0.3395  0.2827
44786SOL    HW139488   8.683   4.241   4.893  1.5691  0.7756  4.0759
44786SOL    HW239489   8.567   4.238   4.989 -1.7429 -0.9161  0.1793
44787SOL     OW39490  10.172   3.097   2.711 -0.3781 -0.4382 -0.7158
44787SOL    HW139491  10.081   3.107   2.740 -0.4543 -2.3510 -0.2292
44787SOL    HW239492  10.223   3.100   2.792 -0.3056 -2.4511 -0.6505
44788SOL     OW39493  10.504   8.000   6.294  0.0809 -0.1266  0.4991
44788SOL    HW139494  10.515   7.919   6.345  0.0812  0.0727  0.8150
44788SOL    HW239495  10.508   8.070   6.359  0.9437  0.1807  0.1157
44789SOL     OW39496  10.966   6.636  11.148  0.4872 -0.1854  0.2115
44789SOL    HW139497  11.026   6.592  11.209  0.0534 -3.4002 -1.6013
44789SOL    HW239498  11.023   6.677  11.084  0.8424  0.4384  0.9140
44790SOL     OW39499   3.811   3.807   9.466 -0.1180 -0.2311  0.1096
44790SOL    HW139500   3.780   3.854   9.389  0.0131  0.1877  0.3150
44790SOL    HW239501   3.825   3.717   9.435 -0.7870 -0.2397 -0.1717
44791SOL     OW39502   5.948   3.512   3.351 -0.3481 -0.0717  0.7130
44791SOL    HW139503   5.940   3.477   3.263  1.1411  3.1651 -0.7837
44791SOL    HW239504   6.041   3.503   3.372 -0.5680 -0.1411  1.6806
44792SOL     OW39505   5.097  10.738   9.644  0.3301 -0.2620  0.3612
44792SOL    HW139506   5.159  10.783   9.588 -0.9368 -0.0517 -0.9063
44792SOL    HW239507   5.132  10.750   9.733  2.7980 -1.3288 -0.4335
44793SOL     OW39508   7.162   0.550   4.781 -0.5419  0.2408 -0.0052
44793SOL    HW139509   7.176   0.460   4.810 -0.1973  0.6433  1.1187
44793SOL    HW239510   7.139   0.597   4.861 -0.7077  1.1553 -0.5822
44794SOL     OW39511   1.230   3.617   2.010 -0.5202  0.7341 -0.7113
44794SOL    HW139512   1.172   3.658   2.075  0.6716 -0.6757  1.3199
44794SOL    HW239513   1.279   3.552   2.061 -0.6607 -1.5228 -3.3671
44795SOL     OW39514   3.764   6.066  10.905 -0.1265  0.3037 -0.0168
44795SOL    HW139515   3.698   6.118  10.859 -2.2807  0.1768  2.8006
44795SOL    HW239516   3.749   5.977  10.874 -0.2542  0.5029 -0.5416
44796SOL     OW39517   5.449   9.449   5.239 -0.6027  0.0094  0.4136
44796SOL    HW139518   5.462   9.358   5.215  0.5541  0.1416  0.5393
44796SOL    HW239519   5.416   9.446   5.329 -0.9940 -0.3000  0.2597
44797SOL     OW39520   3.341   0.905   3.937  0.1172 -0.9664 -0.1001
44797SOL    HW139521   3.272   0.876   3.877 -0.7694 -0.2736  0.5656
44797SOL    HW239522   3.317   0.995   3.958  1.6425 -0.4791 -0.4418
44798SOL     OW39523   2.146   1.140   9.640  0.0995  0.3206 -0.8986
44798SOL    HW139524   2.052   1.129   9.629  0.1657  0.4255 -1.5646
44798SOL    HW239525   2.154   1.216   9.698 -0.2989 -1.7835  2.0490
44799SOL     OW39526   3.391   0.634   3.231  0.4066  0.5858 -0.3759
44799SOL    HW139527   3.390   0.658   3.138  0.4468  5.2025  0.6866
44799SOL    HW239528   3.322   0.687   3.269  0.4214 -1.2413  2.2779
44800SOL     OW39529   8.821   3.543  11.119 -0.3680  0.0393  0.1841
44800SOL    HW139530   8.751   3.487  11.154 -0.4053 -0.0349 -0.0062
44800SOL    HW239531   8.895   3.483  11.107 -0.5370 -0.0612 -0.4140
44801SOL     OW39532   0.956   1.030   2.923 -0.3511 -0.1029 -0.0812
44801SOL    HW139533   0.909   1.104   2.884 -0.7959 -1.0911 -1.4844
44801SOL    HW239534   0.889   0.963   2.935  0.2607 -0.6775  0.1371
44802SOL     OW39535   2.834   2.321   0.238 -0.4043 -0.1171 -0.2541
44802SOL    HW139536   2.806   2.410   0.217  0.0111  0.5778  1.9809
44802SOL    HW239537   2.913   2.332   0.291  0.2410 -1.8567 -0.8096
44803SOL     OW39538   1.922   5.929   2.689 -0.2560 -0.3184 -0.1052
44803SOL    HW139539   1.828   5.916   2.702 -0.0674 -0.2071  1.5265
44803SOL    HW239540   1.962   5.898   2.771  1.2147 -1.3466 -1.1869
44804SOL     OW39541   1.510   8.605   8.999 -0.0687 -0.3351  0.1784
44804SOL    HW139542   1.553   8.529   9.038 -1.0269 -2.3038 -2.4481
44804SOL    HW239543   1.574   8.639   8.935 -0.3797 -0.0785  0.0017
44805SOL     OW39544   6.512   0.536   8.983 -0.5858 -0.1701  0.1909
44805SOL    HW139545   6.503   0.456   8.932 -1.7868 -0.5478  0.9924
44805SOL    HW239546   6.601   0.566   8.964  0.3878 -2.4442  0.9590
44806SOL     OW39547  11.297   7.776   1.147  0.4022  0.1978 -0.2465
44806SOL    HW139548  11.306   7.723   1.067 -0.5450  0.1139 -0.2984
44806SOL    HW239549  11.257   7.717   1.211 -1.3334  1.0464 -0.5181
44807SOL     OW39550  10.729   5.602   9.731  0.0478 -0.3504  0.8097
44807SOL    HW139551  10.639   5.586   9.758 -0.4636 -0.1558 -0.7686
44807SOL    HW239552  10.762   5.667   9.794 -1.7023  1.4423 -0.0817
44808SOL     OW39553   4.448   4.188   5.992 -0.0057 -0.4138  0.0827
44808SOL    HW139554   4.535   4.161   6.022 -0.8093 -1.4584  1.5874
44808SOL    HW239555   4.389   4.121   6.028 -1.6666  1.4464  0.9060
44809SOL     OW39556   6.037   7.442   1.018  0.7216  0.1592 -0.7489
44809SOL    HW139557   6.122   7.426   1.060  0.8837  2.4741 -0.1408
44809SOL    HW239558   6.014   7.531   1.045 -0.6785  0.5028 -3.0345
44810SOL     OW39559   1.690   2.879  10.016 -0.3429  0.6589  0.2196
44810SOL    HW139560   1.676   2.804  10.075  0.1273  0.9678  0.7212
44810SOL    HW239561   1.613   2.933  10.028  0.4820  1.5275  1.7526
44811SOL     OW39562   1.837   5.167   0.880 -0.1699  0.1789 -0.1448
44811SOL    HW139563   1.912   5.117   0.848 -0.1920 -0.5977  1.0051
44811SOL    HW239564   1.818   5.228   0.809  1.4561  0.2963 -0.5088
44812SOL     OW39565   6.070  10.086   9.966 -0.0115 -0.5519 -0.4219
44812SOL    HW139566   6.073  10.049   9.878 -0.1755  0.9662 -1.0803
44812SOL    HW239567   6.091  10.178   9.954 -0.1937 -0.2984  1.1121
44813SOL     OW39568   5.447  11.117   2.741 -0.0690  0.2950 -0.4269
44813SOL    HW139569   5.529  11.089   2.702  0.4050  0.6190  0.3202
44813SOL    HW239570   5.394  11.147   2.667  0.3925 -0.1341 -0.9360
44814SOL     OW39571  10.607   5.080   1.811  0.4504  0.7841  0.3786
44814SOL    HW139572  10.627   5.174   1.815  0.9102  0.6903  0.3519
44814SOL    HW239573  10.542   5.072   1.741  1.6942  0.8754 -0.8158
44815SOL     OW39574   0.364   9.564   4.066 -0.1708 -0.2104 -0.5470
44815SOL    HW139575   0.366   9.588   3.974 -0.5586  0.1862 -0.4568
44815SOL    HW239576   0.281   9.599   4.098 -0.4634 -1.1378 -0.2636
44816SOL     OW39577   0.318   7.478   5.160  0.2176 -0.6511 -0.2449
44816SOL    HW139578   0.276   7.561   5.185  2.6445  1.2696 -2.3246
44816SOL    HW239579   0.346   7.440   5.244  0.7493  1.5664  0.6235
44817SOL     OW39580   7.490   5.292   1.732 -0.3376 -0.0440 -0.8049
44817SOL    HW139581   7.535   5.376   1.736 -0.0219 -0.1236 -2.3326
44817SOL    HW239582   7.439   5.296   1.651 -0.6644 -1.1405 -0.6624
44818SOL     OW39583   5.334   8.292   4.599  0.2217 -0.0023  0.0137
44818SOL    HW139584   5.348   8.198   4.612 -1.6287 -0.4771 -1.2300
44818SOL    HW239585   5.337   8.329   4.687 -0.8620 -1.4955  0.7096
44819SOL     OW39586   8.377   5.287   6.492 -0.2339 -0.3919  0.3209
44819SOL    HW139587   8.457   5.243   6.463  0.0039 -0.9529  1.7943
44819SOL    HW239588   8.352   5.241   6.572 -2.5726 -0.8594 -0.6394
44820SOL     OW39589  10.235   3.567   3.719 -0.4236 -0.0619 -0.3007
44820SOL    HW139590  10.202   3.597   3.634  0.8533  0.0367 -0.7746
44820SOL    HW239591  10.247   3.647   3.770  1.3488  0.1150 -0.9668
44821SOL     OW39592  10.890  10.289   3.132 -0.2310  0.1260 -0.0927
44821SOL    HW139593  10.850  10.375   3.140  1.2728  0.9025 -0.8555
44821SOL    HW239594  10.844  10.248   3.058 -2.6774 -0.7330  1.8058
44822SOL     OW39595   8.448   5.112   9.259 -0.2041 -0.4308  0.5251
44822SOL    HW139596   8.542   5.124   9.245 -0.5847 -0.0749 -1.8771
44822SOL    HW239597   8.420   5.053   9.190 -1.9628  0.3946  0.4933
44823SOL     OW39598  10.320   9.154   5.313 -0.4941  0.2501 -0.1990
44823SOL    HW139599  10.350   9.221   5.374 -2.4849  1.3259 -0.3550
44823SOL    HW239600  10.355   9.181   5.228 -1.5586  1.2763 -0.3162
44824SOL     OW39601  10.808   3.569   7.313 -0.0567  0.2986  0.4323
44824SOL    HW139602  10.723   3.602   7.343  0.1471 -0.2077  1.5930
44824SOL    HW239603  10.811   3.478   7.344  1.4367  0.6993  1.5168
44825SOL     OW39604   7.733   8.252   1.551 -0.0174 -0.2921  0.5190
44825SOL    HW139605   7.653   8.201   1.542 -0.2258 -0.0696  1.1184
44825SOL    HW239606   7.779   8.240   1.467  0.4284 -2.2833  1.0195
44826SOL     OW39607   1.490   2.339   3.719 -0.6750 -0.0954 -0.8089
44826SOL    HW139608   1.423   2.275   3.742 -0.0474 -1.0699 -1.6565
44826SOL    HW239609   1.527   2.366   3.803 -2.3941  0.7689 -0.3092
44827SOL     OW39610   2.519   1.125   9.558  0.0944  0.2495 -0.1163
44827SOL    HW139611   2.521   1.057   9.625  0.9142  0.7475  0.3612
44827SOL    HW239612   2.601   1.115   9.510  0.3865  1.1361  0.1876
44828SOL     OW39613   3.921   0.170   6.800  0.9280 -0.3323 -0.0381
44828SOL    HW139614   3.872   0.095   6.764  0.5932  0.0478 -0.3742
44828SOL    HW239615   4.013   0.146   6.788  0.8158 -0.2651 -1.0209
44829SOL     OW39616   0.690   7.426   5.617  0.1097 -0.0747 -0.1101
44829SOL    HW139617   0.725   7.466   5.537  2.2000  0.0898  0.8439
44829SOL    HW239618   0.762   7.375   5.652 -0.7218 -0.0372  1.7494
44830SOL     OW39619  10.545   9.330   7.407 -0.0218  0.1892  0.1764
44830SOL    HW139620  10.504   9.339   7.321  0.4633 -0.1622 -0.0967
44830SOL    HW239621  10.501   9.395   7.462 -1.2992 -0.5434  0.0291
44831SOL     OW39622   1.967   6.044   8.266 -0.0092  0.1196 -0.0380
44831SOL    HW139623   1.968   6.022   8.172 -2.6489  2.0846 -0.5905
44831SOL    HW239624   1.984   6.138   8.269 -0.7529  0.2266  1.3750
44832SOL     OW39625   5.627   2.426   7.922  0.2553 -0.4787  0.4910
44832SOL    HW139626   5.710   2.380   7.907  1.0198  0.7814  0.7974
44832SOL    HW239627   5.636   2.508   7.874 -1.3823 -0.9218 -0.6269
44833SOL     OW39628   6.487   0.466   1.000 -0.4249 -0.1138  0.0278
44833SOL    HW139629   6.531   0.522   0.936 -0.0933 -0.9003 -0.4472
44833SOL    HW239630   6.519   0.496   1.085  0.3199 -0.0699 -0.2618
44834SOL     OW39631   8.089   1.376   5.079 -0.0892  0.3341  0.1929
44834SOL    HW139632   8.084   1.397   4.986 -0.9669 -1.6615 -0.2379
44834SOL    HW239633   8.041   1.446   5.122 -0.5230  0.7429 -0.9381
44835SOL     OW39634   8.965   3.167   6.927  0.4748  0.3881 -0.1453
44835SOL    HW139635   8.974   3.076   6.901 -1.2020  0.2736 -0.3746
44835SOL    HW239636   8.976   3.166   7.022 -0.4764 -0.1949 -0.0317
44836SOL     OW39637   7.670  11.138   7.363  0.1511  0.1743  0.3873
44836SOL    HW139638   7.748  11.194   7.366  0.9175 -0.8912  0.4964
44836SOL    HW239639   7.631  11.147   7.450  0.3443  0.4341  0.4474
44837SOL     OW39640   7.847   4.673   3.896  0.0994  0.2616  0.3753
44837SOL    HW139641   7.908   4.630   3.836 -0.7386  0.4512 -0.6202
44837SOL    HW239642   7.762   4.668   3.852 -0.6117 -0.0094  1.7553
44838SOL     OW39643   2.942   0.468   8.450 -0.2169 -0.1495  0.4950
44838SOL    HW139644   2.999   0.544   8.462  1.7632 -1.5018 -0.1532
44838SOL    HW239645   2.962   0.411   8.524  1.4130 -1.9315 -1.2813
44839SOL     OW39646   3.470   8.608   3.167  0.0345  0.3659 -0.2744
44839SOL    HW139647   3.403   8.558   3.120 -0.9387  1.2660  0.1191
44839SOL    HW239648   3.423   8.648   3.240  1.6515 -1.4969  1.8325
44840SOL     OW39649  11.196   0.765   4.402  0.3047  0.9372  0.3272
44840SOL    HW139650  11.172   0.816   4.480 -1.0179  0.4736  0.2358
44840SOL    HW239651  11.288   0.786   4.387  0.0591  2.4892  0.8996
44841SOL     OW39652   4.792   2.688   2.761  0.2973 -0.5314 -0.3861
44841SOL    HW139653   4.771   2.629   2.834 -1.8891 -0.1912 -0.7028
44841SOL    HW239654   4.713   2.686   2.706  1.6370 -0.1951 -2.3467
44842SOL     OW39655   6.775   3.815   5.978  0.4552 -0.4161 -0.6336
44842SOL    HW139656   6.716   3.882   5.943 -2.5572 -3.5036 -1.6891
44842SOL    HW239657   6.855   3.824   5.925 -0.5121  1.2655 -1.8454
44843SOL     OW39658   1.254  10.264   8.451  0.0384  0.4662 -0.0916
44843SOL    HW139659   1.221  10.335   8.506  0.7338  1.1450 -0.5300
44843SOL    HW239660   1.293  10.308   8.376  1.1137 -0.3430 -0.0274
44844SOL     OW39661   5.382   1.869   7.069  0.0013  0.5231 -0.6317
44844SOL    HW139662   5.332   1.791   7.094 -0.2765  0.2767 -1.9354
44844SOL    HW239663   5.417   1.902   7.152 -0.1250 -0.8130 -0.0328
44845SOL     OW39664   5.031   3.163   5.607 -0.2910  0.3757 -0.0215
44845SOL    HW139665   5.104   3.160   5.545 -0.8503  0.9416 -0.7157
44845SOL    HW239666   4.955   3.185   5.554 -1.1797 -1.2667  0.5233
44846SOL     OW39667   8.961   8.595   3.053 -0.1105  0.2273  0.5487
44846SOL    HW139668   8.916   8.601   3.138  0.5213  0.8136  0.8433
44846SOL    HW239669   8.903   8.641   2.992  0.6164  1.9656  1.1476
44847SOL     OW39670   5.371   1.895  10.671  0.2990 -0.1320 -0.0992
44847SOL    HW139671   5.297   1.893  10.610 -0.8219  1.3022  1.1770
44847SOL    HW239672   5.426   1.966  10.639 -0.4247  0.7977  0.6893
44848SOL     OW39673  10.618   6.841   7.503 -0.4031  0.3819 -0.0757
44848SOL    HW139674  10.554   6.808   7.440  0.9933 -0.7224 -0.9420
44848SOL    HW239675  10.686   6.774   7.505  0.4119  1.2322  1.3258
44849SOL     OW39676   5.673   8.225   1.118  0.3000  0.1728 -0.6742
44849SOL    HW139677   5.625   8.182   1.047 -0.6638  1.6714 -0.9545
44849SOL    HW239678   5.639   8.184   1.198 -3.0705  2.6083 -0.7087
44850SOL     OW39679   9.944   2.355   9.563 -0.2814  0.3837 -0.1379
44850SOL    HW139680  10.025   2.355   9.512  1.7166  0.9409  2.9133
44850SOL    HW239681   9.926   2.262   9.580  0.1933  0.3090 -0.0546
44851SOL     OW39682   9.937   5.987   5.683  0.8552  0.4744 -0.4502
44851SOL    HW139683   9.940   5.914   5.745  2.2530  0.9185  0.0342
44851SOL    HW239684   9.848   5.985   5.647 -0.2633  0.6978  2.1716
44852SOL     OW39685   7.889   6.532   3.170 -0.3200  0.2408 -0.4777
44852SOL    HW139686   7.978   6.532   3.134  0.3104 -0.5778  1.0174
44852SOL    HW239687   7.838   6.585   3.109  1.4207  1.5512 -0.8142
44853SOL     OW39688   4.016   7.937  11.139  0.7004  0.4730 -0.1137
44853SOL    HW139689   4.050   7.885  11.066  1.2652  0.4646  0.1490
44853SOL    HW239690   4.088   7.940  11.202  0.7304  1.6880 -0.1810
44854SOL     OW39691  10.390   6.531   7.121 -1.0041  0.1106 -0.5141
44854SOL    HW139692  10.389   6.450   7.172 -1.5743  1.5608  1.8400
44854SOL    HW239693  10.400   6.502   7.030  0.9490 -2.4879  0.4836
44855SOL     OW39694   5.947   9.847   2.463  0.4107 -0.1989 -0.3614
44855SOL    HW139695   6.003   9.769   2.473  0.3015 -0.3254 -0.7140
44855SOL    HW239696   5.932   9.853   2.369 -0.3309 -0.2764 -0.2488
44856SOL     OW39697   0.515   1.867   2.688 -0.1678 -0.2312  0.4124
44856SOL    HW139698   0.548   1.859   2.777 -0.9387 -2.0465  0.5506
44856SOL    HW239699   0.516   1.778   2.653 -2.4164  0.0479 -0.4634
44857SOL     OW39700   2.611   5.810   9.902 -0.0558 -0.0448  0.5982
44857SOL    HW139701   2.680   5.746   9.884 -1.6710 -1.6901  0.0752
44857SOL    HW239702   2.531   5.758   9.907 -1.2252  1.7890  1.5112
44858SOL     OW39703   9.805   4.250   2.498  0.1902 -0.0407 -0.5182
44858SOL    HW139704   9.775   4.270   2.586  3.4790  1.2905  0.3741
44858SOL    HW239705   9.783   4.327   2.446 -1.9712 -0.9244 -0.9862
44859SOL     OW39706   9.793   9.858  10.463  0.3024  0.4578  0.1830
44859SOL    HW139707   9.820   9.811  10.384 -2.8116 -1.2657  0.0774
44859SOL    HW239708   9.722   9.915  10.435 -0.4713  0.2286  1.6160
44860SOL     OW39709   1.292   0.196   7.426  0.3094  0.7171  0.5292
44860SOL    HW139710   1.385   0.203   7.403  0.0670  1.1946 -0.3085
44860SOL    HW239711   1.250   0.164   7.346 -0.2096  0.2241  0.9942
44861SOL     OW39712   8.098   7.057   4.277 -0.0490  0.0119 -0.3225
44861SOL    HW139713   8.090   7.071   4.183  3.0310 -1.9556 -0.9733
44861SOL    HW239714   8.146   7.135   4.308  0.8999 -0.3649 -0.8009
44862SOL     OW39715   0.772   0.314   0.221 -0.3512 -0.4594  0.5501
44862SOL    HW139716   0.681   0.327   0.197 -0.2196 -1.3315 -0.4532
44862SOL    HW239717   0.806   0.403   0.235 -1.4792 -0.1643  1.4354
44863SOL     OW39718   1.538   6.480   2.319  0.2693 -0.0265 -0.0565
44863SOL    HW139719   1.476   6.500   2.389  1.6944  0.7450  1.0109
44863SOL    HW239720   1.623   6.471   2.363  1.6179  2.7033 -1.9403
44864SOL     OW39721   6.125   2.073   4.770 -0.0924  0.6142 -0.0282
44864SOL    HW139722   6.069   2.006   4.809 -1.2395  1.2397 -0.5843
44864SOL    HW239723   6.097   2.079   4.679  2.0797 -0.3093 -0.8022
44865SOL     OW39724  10.741   4.898   7.747  0.2327 -0.4735 -0.1053
44865SOL    HW139725  10.820   4.902   7.694  1.5615  0.1550  1.8627
44865SOL    HW239726  10.706   4.987   7.747  1.1258 -0.1000  1.3356
44866SOL     OW39727  11.024   6.418   2.978 -0.0744  0.4766 -0.1513
44866SOL    HW139728  10.928   6.417   2.977 -0.1104 -1.2068  1.0510
44866SOL    HW239729  11.047   6.451   3.065  0.4250  0.4148 -0.2567
44867SOL     OW39730   6.702   3.299   6.555 -0.5486  0.2280 -0.5093
44867SOL    HW139731   6.755   3.331   6.482  0.2801 -1.4144 -0.6586
44867SOL    HW239732   6.750   3.223   6.587 -1.0876  0.7159  1.5278
44868SOL     OW39733   0.763   5.694   6.320 -0.3709  0.1284  0.0781
44868SOL    HW139734   0.720   5.637   6.257 -1.5243  0.9290  0.1301
44868SOL    HW239735   0.691   5.740   6.364  0.4987  0.9149  0.6983
44869SOL     OW39736   1.790  10.063   5.411  0.0426  0.4844 -0.5734
44869SOL    HW139737   1.713  10.006   5.420 -0.6157  1.0077 -2.5540
44869SOL    HW239738   1.837  10.053   5.494 -1.1765 -1.2954 -0.0521
44870SOL     OW39739  10.448  10.272   8.705 -0.3027 -0.8317  0.3834
44870SOL    HW139740  10.456  10.184   8.668  0.5099 -1.5703  2.2505
44870SOL    HW239741  10.493  10.267   8.790 -1.9577  0.8350  1.4109
44871SOL     OW39742   9.956   2.388   5.801  0.0718  0.1528  0.2781
44871SOL    HW139743   9.957   2.467   5.748 -1.4910 -1.2572 -1.9210
44871SOL    HW239744  10.041   2.388   5.846  0.6163  2.3668 -0.7174
44872SOL     OW39745   1.232   8.825   3.747  0.0728 -0.0933 -0.4683
44872SOL    HW139746   1.291   8.829   3.822 -0.8051  1.0894  0.1731
44872SOL    HW239747   1.152   8.867   3.777 -0.2931  0.3808 -2.0652
44873SOL     OW39748   0.916   3.536   4.519  0.2483  0.1478 -0.8125
44873SOL    HW139749   0.823   3.512   4.522  0.5604 -0.9306  0.9894
44873SOL    HW239750   0.944   3.535   4.611  1.8075  1.4496 -1.2340
44874SOL     OW39751   2.143   9.219   9.930  0.9514 -0.6046 -0.2835
44874SOL    HW139752   2.152   9.150   9.863  0.1216  3.2446 -4.6435
44874SOL    HW239753   2.051   9.244   9.926  0.9031 -0.2334  2.3904
44875SOL     OW39754   2.479   8.056   5.044  0.1532  0.0098 -0.2212
44875SOL    HW139755   2.390   8.071   5.075  0.9083  3.4280  0.5283
44875SOL    HW239756   2.498   8.131   4.987  2.5883 -0.6124 -0.3003
44876SOL     OW39757   6.284   2.735   2.663 -0.3311  0.0648  0.8540
44876SOL    HW139758   6.207   2.780   2.696 -0.4730  0.4495  0.0187
44876SOL    HW239759   6.289   2.761   2.571  0.3501 -0.5685  0.7079
44877SOL     OW39760   4.755   3.423   0.826 -0.8317  0.1786 -0.2700
44877SOL    HW139761   4.686   3.375   0.780 -0.6910 -0.2343 -0.0531
44877SOL    HW239762   4.712   3.458   0.904 -1.0771  0.9015 -0.7147
44878SOL     OW39763   9.679   1.880   8.776  0.2139  0.7217 -0.2891
44878SOL    HW139764   9.760   1.898   8.824 -0.3969  2.0462  0.2346
44878SOL    HW239765   9.616   1.853   8.843  0.0292  0.3025 -0.6266
44879SOL     OW39766   8.787   1.619   7.201 -0.2625 -0.4611 -0.1545
44879SOL    HW139767   8.833   1.588   7.279  0.6713 -0.0231 -0.5176
44879SOL    HW239768   8.844   1.593   7.128 -0.7677 -0.2197 -0.6362
44880SOL     OW39769   9.190   8.415   5.273  0.0291  0.1650 -0.5622
44880SOL    HW139770   9.210   8.324   5.249 -1.9810 -0.7405  0.9487
44880SOL    HW239771   9.206   8.418   5.367 -0.4275  1.2204 -0.5172
44881SOL     OW39772   3.315   9.446   2.987  0.0589 -0.4558 -0.4318
44881SOL    HW139773   3.350   9.475   2.903 -0.0736 -1.0020 -0.6726
44881SOL    HW239774   3.249   9.380   2.965 -1.4327  0.8485 -0.0065
44882SOL     OW39775   4.280   9.452   2.200 -0.0574  0.3796 -0.2104
44882SOL    HW139776   4.288   9.528   2.141 -1.5736  1.2723  0.6803
44882SOL    HW239777   4.186   9.430   2.198  0.3801 -1.5342 -0.5144
44883SOL     OW39778   8.071   1.694   9.854 -0.4534 -0.0981 -0.5046
44883SOL    HW139779   8.158   1.657   9.871  0.0173  0.2466 -2.0476
44883SOL    HW239780   8.085   1.751   9.779 -1.7397  1.0607  0.1317
44884SOL     OW39781   9.664   5.016  11.234 -0.5298  0.0756 -0.1633
44884SOL    HW139782   9.587   5.040  11.286 -0.9853  0.4009 -0.9869
44884SOL    HW239783   9.636   5.027  11.143  0.4327  0.0106 -0.4677
44885SOL     OW39784   6.939   4.548  11.282 -0.1178  0.4227  0.0877
44885SOL    HW139785   6.973   4.506  11.204 -1.7973  0.0761 -0.4732
44885SOL    HW239786   6.952   4.484  11.352 -0.4336 -0.0525 -0.2899
44886SOL     OW39787   1.541   9.950   2.678 -0.2267 -0.6845 -0.1468
44886SOL    HW139788   1.508   9.891   2.610  0.0870 -1.3143  0.2461
44886SOL    HW239789   1.526   9.902   2.760  1.0968 -0.7069  0.0773
44887SOL     OW39790   7.327   0.348   1.206  0.0165 -0.1748  0.2296
44887SOL    HW139791   7.267   0.371   1.134  0.7850  0.4100 -0.2283
44887SOL    HW239792   7.392   0.417   1.206  0.7157 -0.8252  0.7089
44888SOL     OW39793   5.411   7.998   2.846 -0.4519  0.1585  0.2052
44888SOL    HW139794   5.398   8.042   2.929 -0.4636  3.0377 -1.2651
44888SOL    HW239795   5.502   8.014   2.823 -0.6591  0.0635 -0.7206
44889SOL     OW39796   0.386   9.573   9.239 -0.3984  0.1075 -0.0047
44889SOL    HW139797   0.472   9.580   9.280  0.0851  0.1243 -0.9933
44889SOL    HW239798   0.382   9.483   9.205 -0.8347  0.0549  0.1790
44890SOL     OW39799  10.437  10.834   1.231 -0.0976 -0.4867 -0.0654
44890SOL    HW139800  10.424  10.830   1.136  0.0261  0.5900 -0.1308
44890SOL    HW239801  10.434  10.927   1.252 -1.2222 -0.7924  1.1488
44891SOL     OW39802   0.071   8.632   0.773  0.4028  0.4085  0.0977
44891SOL    HW139803  -0.013   8.615   0.814  0.2554  0.4624 -0.1809
44891SOL    HW239804   0.115   8.547   0.773 -0.1863  0.0970 -0.9603
44892SOL     OW39805   7.749   8.935   1.434 -0.7650 -0.4293 -0.1136
44892SOL    HW139806   7.753   8.944   1.339  0.1050 -1.2716 -0.1655
44892SOL    HW239807   7.818   8.992   1.467 -0.6165 -0.6608 -0.0241
44893SOL     OW39808   6.739   5.889  10.466  0.2406 -0.0982  0.7753
44893SOL    HW139809   6.807   5.829  10.497 -1.0713 -1.3258  1.2716
44893SOL    HW239810   6.783   5.975  10.465  0.9366 -0.3445  4.0192
44894SOL     OW39811   6.432   4.139   6.171  0.0881 -0.0100  0.2451
44894SOL    HW139812   6.487   4.218   6.171  0.1437 -0.0316 -0.8934
44894SOL    HW239813   6.476   4.079   6.230  1.0716  0.1251 -0.3346
44895SOL     OW39814   2.257  10.101   1.710 -0.4362 -0.2447  0.1544
44895SOL    HW139815   2.300  10.043   1.648 -1.4411 -0.3300 -0.4693
44895SOL    HW239816   2.322  10.171   1.726 -0.7497  0.6273 -2.2094
44896SOL     OW39817   9.524   2.066   7.596  0.4202 -0.0829  0.1438
44896SOL    HW139818   9.607   2.113   7.600  0.1432  0.4076  0.1555
44896SOL    HW239819   9.545   1.984   7.551  0.6829  0.5238 -0.8306
44897SOL     OW39820   0.815   5.008   7.955  0.5913 -0.2419  0.1752
44897SOL    HW139821   0.722   5.018   7.937  0.6399  2.1339  1.0932
44897SOL    HW239822   0.824   5.029   8.048  2.2550  1.0651 -0.2593
44898SOL     OW39823   8.468   0.465  10.026  0.5193 -0.3649  0.8951
44898SOL    HW139824   8.508   0.450   9.940  0.6615 -0.3794  0.9649
44898SOL    HW239825   8.539   0.453  10.089  0.4492 -0.2107  1.0057
44899SOL     OW39826   7.341  10.085   1.780  0.5456 -0.1745  0.2051
44899SOL    HW139827   7.395  10.157   1.747  2.4158 -1.1756  0.9477
44899SOL    HW239828   7.388  10.006   1.753 -2.1376 -1.2021 -1.7188
44900SOL     OW39829   2.170   6.111   7.754  0.1763 -0.2091  0.1910
44900SOL    HW139830   2.133   6.151   7.676  0.7594 -1.4867 -0.7596
44900SOL    HW239831   2.215   6.183   7.799 -0.1079  0.5193 -0.6749
44901SOL     OW39832   4.218  10.769   5.365  0.6817  0.0328  0.2416
44901SOL    HW139833   4.200  10.683   5.325  0.2350 -0.3639  1.2907
44901SOL    HW239834   4.132  10.802   5.391  0.5112  2.0823 -2.6799
44902SOL     OW39835   2.981  10.847   1.892 -0.0171  0.3445 -0.1076
44902SOL    HW139836   3.037  10.846   1.815 -1.2673 -0.1537 -1.0327
44902SOL    HW239837   2.893  10.832   1.858 -0.4121 -1.4331  1.5680
44903SOL     OW39838   9.209   7.757   3.654 -0.5095 -0.2354  0.7228
44903SOL    HW139839   9.151   7.819   3.698  0.3728  0.9967  0.1803
44903SOL    HW239840   9.297   7.789   3.673 -0.0620 -0.9281 -0.1378
44904SOL     OW39841  10.052   8.151   5.328  0.3656  0.7583  0.1891
44904SOL    HW139842  10.134   8.167   5.374  0.7495 -1.3478  0.2633
44904SOL    HW239843  10.003   8.092   5.385 -0.5069  0.6817 -0.6249
44905SOL     OW39844  10.190   4.940   4.142 -0.5189 -0.6956 -0.2908
44905SOL    HW139845  10.214   4.875   4.208 -2.0899 -0.4001  0.5804
44905SOL    HW239846  10.100   4.919   4.119 -0.8393  0.8037 -0.4394
44906SOL     OW39847   2.384   9.022   4.209  0.2640 -0.5974  0.0610
44906SOL    HW139848   2.376   8.951   4.145 -0.5484 -0.6342  0.1977
44906SOL    HW239849   2.330   8.994   4.283 -0.4920  0.3949 -0.1002
44907SOL     OW39850   1.975   6.988   7.416  0.2627 -0.2138  0.3521
44907SOL    HW139851   1.881   6.969   7.422  0.2462 -0.3691 -0.4189
44907SOL    HW239852   2.018   6.908   7.446  0.1794 -1.0662 -1.7520
44908SOL     OW39853   5.167   9.913   8.813 -0.1491  0.5611 -0.1253
44908SOL    HW139854   5.119   9.994   8.830 -1.3916  0.0685 -1.1974
44908SOL    HW239855   5.161   9.864   8.895  2.4303  2.4238  1.2423
44909SOL     OW39856   6.211   7.626   9.430  0.0266  0.0223  0.1367
44909SOL    HW139857   6.115   7.621   9.433 -0.0152  0.2269 -0.6493
44909SOL    HW239858   6.232   7.613   9.338  0.6106  2.3994 -0.1057
44910SOL     OW39859  10.808   9.775   1.272 -0.1499 -0.1404  0.7914
44910SOL    HW139860  10.814   9.849   1.332 -0.5571  0.4495  0.1047
44910SOL    HW239861  10.899   9.744   1.264 -0.1060 -0.3044  1.7990
44911SOL     OW39862   1.841  10.641   4.758 -0.2129  0.2252 -0.4025
44911SOL    HW139863   1.765  10.583   4.770 -0.5462  0.6389 -0.4890
44911SOL    HW239864   1.885  10.608   4.680 -0.1011 -0.2390 -0.1470
44912SOL     OW39865   3.364   7.589   0.076 -0.7361 -0.5364 -0.3730
44912SOL    HW139866   3.412   7.623   0.152 -2.0760  0.3021  0.1072
44912SOL    HW239867   3.359   7.495   0.092  2.0446 -0.8541 -1.1691
44913SOL     OW39868   1.126   8.125  11.124  0.0478  0.1311  0.0577
44913SOL    HW139869   1.185   8.130  11.199 -0.9191 -0.0618  0.8435
44913SOL    HW239870   1.038   8.120  11.163 -0.6387  2.4699 -1.0943
44914SOL     OW39871   9.745  10.083   8.501 -0.0368  0.4102  0.2092
44914SOL    HW139872   9.780  10.035   8.426 -2.2002  0.4752 -0.8815
44914SOL    HW239873   9.799  10.055   8.574  1.9797  0.1728 -1.3134
44915SOL     OW39874   4.060   0.477   7.789 -0.1976  0.0141 -0.0211
44915SOL    HW139875   4.051   0.480   7.694 -1.2986 -1.0839  0.0389
44915SOL    HW239876   4.143   0.433   7.804  0.2080  0.6069 -0.4654
44916SOL     OW39877  10.144   9.288   7.024 -0.0168  0.2325 -0.2779
44916SOL    HW139878  10.179   9.284   7.113 -2.4012  3.9285  0.9887
44916SOL    HW239879  10.208   9.339   6.975  0.2924  0.0220 -0.0893
44917SOL     OW39880   5.779   5.745   9.025 -0.0571  0.2375 -0.2346
44917SOL    HW139881   5.824   5.826   9.001  0.0176 -0.2425 -1.7847
44917SOL    HW239882   5.723   5.769   9.098  0.5275  1.5144 -0.1994
44918SOL     OW39883   1.267   4.010   0.760 -0.1517 -0.4573 -0.2266
44918SOL    HW139884   1.323   4.062   0.703 -0.5735  0.8203  0.4978
44918SOL    HW239885   1.193   4.067   0.779 -0.4782 -1.2122  0.8340
44919SOL     OW39886  10.544   4.226  10.721 -0.9498  0.7337 -0.4309
44919SOL    HW139887  10.596   4.187  10.652 -0.8018 -1.0809  0.6743
44919SOL    HW239888  10.497   4.298  10.679 -0.1217  0.2638 -2.1698
44920SOL     OW39889   4.643  10.044   8.118 -0.1172 -0.0612 -0.0621
44920SOL    HW139890   4.600   9.992   8.186  1.5416 -1.7311 -0.2474
44920SOL    HW239891   4.736  10.031   8.133  0.2837  0.6758 -1.8000
44921SOL     OW39892   6.838   1.815   5.246 -0.0718  1.1683 -0.3655
44921SOL    HW139893   6.794   1.893   5.215 -0.7364  0.3628 -1.5087
44921SOL    HW239894   6.770   1.748   5.248  0.6175  0.4656 -0.0193
44922SOL     OW39895   6.943   0.074   1.363 -0.0749 -0.6057 -0.9190
44922SOL    HW139896   6.899   0.083   1.448 -0.4095 -1.9429 -0.9471
44922SOL    HW239897   6.985  -0.012   1.367  1.3615  0.0670 -1.4369
44923SOL     OW39898   1.743  10.986   0.534  0.1852  0.0349 -0.4372
44923SOL    HW139899   1.829  10.961   0.502 -0.0903 -1.7914  0.1740
44923SOL    HW239900   1.692  10.904   0.532 -1.1322  0.8144  0.4254
44924SOL     OW39901   8.511   1.322  11.037 -0.0769  0.3808  0.0311
44924SOL    HW139902   8.589   1.292  10.992  1.5327  2.2236  1.4974
44924SOL    HW239903   8.464   1.375  10.973  0.1920 -0.2239 -0.6640
44925SOL     OW39904  11.313   8.662   6.739 -0.4085  0.1464 -0.3852
44925SOL    HW139905  11.307   8.590   6.802 -0.8515  0.3028 -0.2459
44925SOL    HW239906  11.341   8.621   6.658  0.1063 -0.0656 -0.1072
44926SOL     OW39907   2.436  10.291   5.384 -0.1244  0.7267  0.3607
44926SOL    HW139908   2.399  10.206   5.361  0.1615  0.7108 -0.0423
44926SOL    HW239909   2.392  10.353   5.325  0.9641  0.6238 -0.5708
44927SOL     OW39910   3.558   4.849   9.635 -0.1530 -0.0475  0.0138
44927SOL    HW139911   3.599   4.884   9.556  1.5629  0.2776  1.0393
44927SOL    HW239912   3.565   4.754   9.626  1.6418  0.0251  0.6079
44928SOL     OW39913   8.198   9.059   5.448  0.2664 -0.3824 -0.0448
44928SOL    HW139914   8.275   9.112   5.472 -1.2469  1.9509 -0.1374
44928SOL    HW239915   8.125   9.121   5.451 -1.3630 -2.1721 -1.6702
44929SOL     OW39916   4.257   8.720  10.435  0.6113  0.4509 -0.1158
44929SOL    HW139917   4.232   8.657  10.368  0.2497  2.0176 -1.4953
44929SOL    HW239918   4.316   8.672  10.493 -0.2014 -1.3293 -0.7373
44930SOL     OW39919   0.621   0.924   1.685  0.3775 -0.8686 -0.6937
44930SOL    HW139920   0.621   0.983   1.610  2.0421  0.0362 -0.0287
44930SOL    HW239921   0.688   0.859   1.665  1.0070 -0.4818  0.0809
44931SOL     OW39922  10.313  10.625   1.340 -0.6360 -0.9308 -0.2154
44931SOL    HW139923  10.275  10.578   1.266 -1.2048  0.6716 -0.9559
44931SOL    HW239924  10.336  10.711   1.305 -0.9829 -0.1228  1.4962
44932SOL     OW39925   5.736   5.524   5.129 -0.2250 -0.3726 -0.5973
44932SOL    HW139926   5.734   5.510   5.223 -0.7799  1.3791 -0.3290
44932SOL    HW239927   5.812   5.474   5.099 -1.7430 -3.3623  0.3302
44933SOL     OW39928   0.423   1.628  11.067  0.4770 -0.4676  1.0991
44933SOL    HW139929   0.449   1.693  11.002 -1.5671 -2.9303 -2.3263
44933SOL    HW239930   0.350   1.668  11.115  0.6605  0.5775  0.4999
44934SOL     OW39931   4.092  10.083   0.756 -0.3102  0.0891 -0.1097
44934SOL    HW139932   4.161  10.044   0.810  1.0877 -0.6001 -2.2954
44934SOL    HW239933   4.022  10.104   0.817  1.8389  0.8142  2.1947
44935SOL     OW39934   1.939   6.867   6.886 -0.3921  0.4018 -0.0723
44935SOL    HW139935   1.890   6.949   6.898  0.8297  0.9753  1.1043
44935SOL    HW239936   1.922   6.817   6.965  0.0554  0.1439 -0.1379
44936SOL     OW39937   5.550   9.432   3.746  0.1931  0.0320  0.5431
44936SOL    HW139938   5.488   9.504   3.762 -0.3633 -0.2749 -0.2289
44936SOL    HW239939   5.517   9.388   3.668 -0.0292 -1.6905  1.5807
44937SOL     OW39940   5.856   2.516   2.533  0.0361  0.5373  1.4652
44937SOL    HW139941   5.916   2.463   2.586  1.2411 -0.2887 -0.6593
44937SOL    HW239942   5.910   2.589   2.502  0.0029 -0.2203 -0.4787
44938SOL     OW39943   5.407   4.537   1.629  0.9768 -0.1144  0.0714
44938SOL    HW139944   5.348   4.526   1.554  0.0746 -1.5122  0.9676
44938SOL    HW239945   5.481   4.587   1.594 -0.5163  1.3066 -1.1898
44939SOL     OW39946   1.077   1.941   6.689  0.1209 -0.0405  0.1016
44939SOL    HW139947   1.129   1.953   6.769  1.6544  0.8632 -1.0027
44939SOL    HW239948   1.074   2.028   6.650 -1.7865 -0.1983 -0.1488
44940SOL     OW39949   3.815   0.496   7.340  0.1804 -0.3940  0.0026
44940SOL    HW139950   3.851   0.556   7.275  0.3320 -0.2041  0.2584
44940SOL    HW239951   3.827   0.409   7.302  3.7722 -0.6026  1.3764
44941SOL     OW39952   3.947   4.067   6.524 -0.2987 -0.0610 -0.2528
44941SOL    HW139953   3.929   4.052   6.616 -0.4139 -1.7486 -0.5443
44941SOL    HW239954   3.865   4.101   6.488 -0.0622  1.2230  0.3833
44942SOL     OW39955  10.481   2.934   6.448 -0.0628  0.3139  0.1439
44942SOL    HW139956  10.431   2.973   6.520  0.4718 -1.1325  1.3335
44942SOL    HW239957  10.525   2.859   6.488  1.8004  0.6392 -1.2521
44943SOL     OW39958   9.202   0.803  10.650 -0.4292  0.2157  0.1986
44943SOL    HW139959   9.212   0.844  10.564 -1.2877 -0.6597 -0.3367
44943SOL    HW239960   9.281   0.829  10.698 -0.4201  1.5603 -0.4935
44944SOL     OW39961   1.631  10.174   4.476  0.6171 -0.3938 -0.2137
44944SOL    HW139962   1.688  10.228   4.422  0.0524 -0.7520 -1.1799
44944SOL    HW239963   1.570  10.236   4.516  1.1665 -0.1043  0.1743
44945SOL     OW39964   6.762   4.690   1.173  0.6656 -0.6469  0.4357
44945SOL    HW139965   6.698   4.759   1.156  0.4249 -1.0574 -0.3535
44945SOL    HW239966   6.842   4.737   1.196  1.3136  0.0376 -2.8528
44946SOL     OW39967   4.604   1.567   7.625  0.3617 -0.7487  0.7570
44946SOL    HW139968   4.621   1.565   7.719  1.2540 -0.3462  0.6152
44946SOL    HW239969   4.565   1.653   7.609  1.3765 -0.3079  0.5832
44947SOL     OW39970   5.074   1.764   1.333  0.3108  0.4422 -0.1341
44947SOL    HW139971   5.042   1.716   1.408  0.7219 -0.6632 -0.6570
44947SOL    HW239972   5.118   1.841   1.370  1.4815 -0.6747  0.8023
44948SOL     OW39973   4.033   9.935   4.074  0.3504  0.2170 -0.3225
44948SOL    HW139974   3.980   9.945   3.995  0.9703  0.7557 -0.6883
44948SOL    HW239975   3.971   9.936   4.146 -0.2352 -0.4119 -0.8136
44949SOL     OW39976  10.750   0.877   5.571 -0.2671 -0.6167  0.2633
44949SOL    HW139977  10.687   0.831   5.516 -0.9299 -2.0899  2.2094
44949SOL    HW239978  10.741   0.969   5.546 -1.7486 -1.0639 -0.8896
44950SOL     OW39979   2.087   7.584  10.949 -0.0257 -0.0565 -0.3176
44950SOL    HW139980   2.112   7.492  10.938 -0.4851 -0.2828  0.4166
44950SOL    HW239981   2.126   7.629  10.875  1.5222 -0.5839  0.1486
44951SOL     OW39982   4.441   9.224  10.824 -0.6903 -0.1329 -0.2659
44951SOL    HW139983   4.403   9.236  10.736  0.3355 -0.4419 -0.7571
44951SOL    HW239984   4.507   9.156  10.812 -1.4887 -1.1611  1.0445
44952SOL     OW39985   2.901   5.993   0.640  0.0373 -0.1207 -0.4363
44952SOL    HW139986   2.809   5.975   0.658  0.0980  0.8580  0.9176
44952SOL    HW239987   2.949   5.954   0.713  0.5188  1.3343  0.0467
44953SOL     OW39988   4.764   1.436  10.011 -0.6294 -0.2018  0.0348
44953SOL    HW139989   4.818   1.362   9.984  0.9410  1.7541 -2.4478
44953SOL    HW239990   4.800   1.462  10.096 -1.7814 -2.7715  1.3611
44954SOL     OW39991  10.790   1.398   5.740  0.2430 -0.1593  0.4551
44954SOL    HW139992  10.707   1.356   5.718  1.7252 -1.6041 -2.7327
44954SOL    HW239993  10.780   1.489   5.712  0.0209 -0.5339 -0.6755
44955SOL     OW39994   3.646   4.119  10.444 -0.3342 -0.0115 -0.0936
44955SOL    HW139995   3.615   4.152  10.528  1.2785 -0.0746  0.5485
44955SOL    HW239996   3.601   4.173  10.379 -1.4363  0.1732  0.8090
44956SOL     OW39997   5.327  10.920   8.702 -0.2309 -0.2950  0.2259
44956SOL    HW139998   5.369  10.852   8.756  0.3464  0.7486  1.0997
44956SOL    HW239999   5.368  10.910   8.616 -0.1168 -1.0281  0.3567
44957SOL     OW40000   8.901   7.055   4.645 -0.7539  0.1027  0.1964
44957SOL    HW140001   8.889   7.010   4.561  0.7425 -0.0498  0.0517
44957SOL    HW240002   8.918   6.985   4.708  1.3558  0.3958  0.0112
44958SOL     OW40003   7.249   1.243   6.897  0.3283 -0.6945  0.2561
44958SOL    HW140004   7.194   1.237   6.975 -1.1565  0.0413 -0.7008
44958SOL    HW240005   7.287   1.156   6.887 -0.5566 -1.1793  1.0243
44959SOL     OW40006   3.625   8.129   0.850  0.8561 -0.1922 -0.0932
44959SOL    HW140007   3.708   8.173   0.869  0.6224  0.6494 -0.9607
44959SOL    HW240008   3.560   8.181   0.897  0.5140  0.7153 -1.5568
44960SOL     OW40009   2.360   9.382  10.333  0.2883  0.2868  0.5090
44960SOL    HW140010   2.346   9.468  10.294  0.5879 -0.3877 -1.1507
44960SOL    HW240011   2.364   9.398  10.427  1.7761  2.2868  0.1368
44961SOL     OW40012   5.702   0.717   4.883 -0.0592  0.5902  0.2938
44961SOL    HW140013   5.677   0.675   4.966 -1.4185  2.4529  0.8785
44961SOL    HW240014   5.622   0.762   4.855  0.6814  0.7929 -1.5348
44962SOL     OW40015   1.191   5.803   5.829 -0.3318 -0.3713  0.3956
44962SOL    HW140016   1.102   5.832   5.811  0.3568  0.6128 -1.6088
44962SOL    HW240017   1.235   5.881   5.863 -0.9808 -1.6117  4.3852
44963SOL     OW40018  10.082   1.036   2.248  0.0557 -0.4193 -0.6614
44963SOL    HW140019  10.022   1.105   2.219 -1.6225 -0.9312  1.4771
44963SOL    HW240020  10.132   1.076   2.319  2.4306  0.0533 -2.5386
44964SOL     OW40021  11.177   7.212   7.646  0.4780  0.3428 -0.3814
44964SOL    HW140022  11.123   7.150   7.695  1.3777  0.3714  0.6528
44964SOL    HW240023  11.115   7.275   7.610 -0.2752 -0.2187 -0.0819
44965SOL     OW40024   6.958  10.629   1.260  0.2202  0.1975  0.1211
44965SOL    HW140025   6.947  10.607   1.353  1.1466 -1.3316 -0.1096
44965SOL    HW240026   6.889  10.581   1.215 -0.8717  1.7431  0.0957
44966SOL     OW40027  10.385   3.815   2.838 -0.1452 -0.4556  0.3349
44966SOL    HW140028  10.371   3.724   2.862 -2.2666 -0.6015 -1.3326
44966SOL    HW240029  10.475   3.818   2.805  0.1673 -1.7807  1.0444
44967SOL     OW40030   6.985   2.435   0.074  0.2376 -0.4595  0.4169
44967SOL    HW140031   7.015   2.345   0.070 -0.5012 -0.8123  2.1174
44967SOL    HW240032   7.066   2.487   0.070  0.7788 -1.2505  0.9213
44968SOL     OW40033   8.318   5.473   7.170 -0.1257  0.3751 -0.3265
44968SOL    HW140034   8.321   5.430   7.084 -0.1557  3.4028 -1.9248
44968SOL    HW240035   8.380   5.424   7.224  2.0047  0.0521 -2.9228
44969SOL     OW40036   5.095   6.555   2.918 -0.4809 -0.5431  0.4290
44969SOL    HW140037   5.052   6.497   2.981  0.0531  0.5940  1.8693
44969SOL    HW240038   5.136   6.622   2.972 -0.0421  0.4748 -1.1506
44970SOL     OW40039  10.163  10.621   3.156  0.8733  0.5636 -0.2273
44970SOL    HW140040  10.077  10.594   3.123  1.6380 -0.5290 -1.3690
44970SOL    HW240041  10.157  10.608   3.250 -0.3099  0.7803 -0.2611
44971SOL     OW40042   0.855   4.844   1.814 -0.2780  0.1565 -0.1613
44971SOL    HW140043   0.827   4.916   1.871 -0.9518 -0.6055  0.4920
44971SOL    HW240044   0.802   4.770   1.843  0.2391 -0.5378 -0.9927
44972SOL     OW40045   1.270   2.381   8.910  0.5563 -0.5089  0.0142
44972SOL    HW140046   1.314   2.339   8.984  1.8682 -0.2486 -0.5930
44972SOL    HW240047   1.187   2.412   8.946  1.3867  0.0611  1.5233
44973SOL     OW40048   3.375   1.886   1.841  0.5498  0.3941  0.0872
44973SOL    HW140049   3.470   1.887   1.839  0.6606 -2.3633  1.3358
44973SOL    HW240050   3.352   1.906   1.931 -0.0282  0.0503  0.0205
44974SOL     OW40051   9.053   0.175   2.380  0.2501  0.0168  0.2749
44974SOL    HW140052   9.088   0.087   2.362 -1.0462 -0.8346  1.7498
44974SOL    HW240053   8.987   0.188   2.313 -0.7345 -0.8564  1.0553
44975SOL     OW40054   1.329   7.367   5.783  0.2979  0.0022 -0.2926
44975SOL    HW140055   1.248   7.346   5.737  0.9572 -0.5250 -1.2106
44975SOL    HW240056   1.384   7.289   5.773  0.7650  0.2002  0.6708
44976SOL     OW40057   1.435   8.600   5.014 -0.3876 -0.1881  0.0755
44976SOL    HW140058   1.373   8.529   4.994  0.1662 -0.9392  0.9723
44976SOL    HW240059   1.466   8.580   5.102  1.0110  0.2671 -0.3016
44977SOL     OW40060  10.778   6.073   2.115  0.4938  0.1224 -0.2211
44977SOL    HW140061  10.685   6.095   2.120  0.1623 -1.4262  0.8546
44977SOL    HW240062  10.802   6.051   2.205  1.4399 -1.2268 -0.7881
44978SOL     OW40063   4.796   6.761   1.792 -0.5745 -0.4909  0.4266
44978SOL    HW140064   4.757   6.676   1.770 -0.7821 -0.3177  0.1353
44978SOL    HW240065   4.890   6.746   1.784 -0.5680 -0.9535  1.2910
44979SOL     OW40066   5.289   3.536  10.125  0.0221  0.0661  0.0894
44979SOL    HW140067   5.256   3.572  10.207  0.4542  0.7827 -0.0489
44979SOL    HW240068   5.328   3.611  10.080  1.7546 -0.7416  0.2079
44980SOL     OW40069   6.977  10.998   8.120  0.0975 -0.0581 -0.5498
44980SOL    HW140070   6.979  11.085   8.159  2.5029 -0.8336  1.1471
44980SOL    HW240071   6.997  11.013   8.028 -0.7174  1.2884 -0.5272
44981SOL     OW40072   7.099   6.665   1.527  0.1627  0.0754 -0.0902
44981SOL    HW140073   7.147   6.634   1.603  1.5115  1.1679 -0.4831
44981SOL    HW240074   7.009   6.633   1.541  0.8928 -1.6400  0.8263
44982SOL     OW40075   7.621   7.001   5.837 -0.5122 -0.0411 -0.0976
44982SOL    HW140076   7.626   7.058   5.760  0.5069  1.6695  1.2078
44982SOL    HW240077   7.528   6.996   5.858 -0.7132  0.1658 -0.9253
44983SOL     OW40078   8.250   9.765   1.755  0.0164  0.7917 -0.5413
44983SOL    HW140079   8.284   9.806   1.835 -0.8780 -0.0585  0.2967
44983SOL    HW240080   8.325   9.764   1.695  1.4038 -0.7852  1.1551
44984SOL     OW40081   6.038   7.784   3.659  0.0072 -0.3871  0.1042
44984SOL    HW140082   6.039   7.835   3.578  0.3501  0.8109  0.8569
44984SOL    HW240083   6.121   7.805   3.702 -0.8083  0.0973  1.4525
44985SOL     OW40084   3.481   0.777   0.460  0.2804 -0.3514  0.3919
44985SOL    HW140085   3.440   0.698   0.426 -1.0801  0.7031 -0.4739
44985SOL    HW240086   3.478   0.767   0.555  0.6095 -1.5763  0.2771
44986SOL     OW40087   5.843   3.666   5.745 -0.0335 -0.0957 -0.7839
44986SOL    HW140088   5.884   3.641   5.828 -0.3665  1.0459 -0.2617
44986SOL    HW240089   5.907   3.642   5.678  0.3171 -0.8574 -0.1774
44987SOL     OW40090  10.239  11.037   6.843 -0.4815  0.8028  0.5317
44987SOL    HW140091  10.147  11.062   6.833 -0.1303  1.3249 -1.5495
44987SOL    HW240092  10.238  10.971   6.913 -2.2222  1.9398  1.6172
44988SOL     OW40093   9.854  10.541   6.851  0.1877  0.0497  0.1316
44988SOL    HW140094   9.884  10.532   6.942  1.3558 -0.2978 -0.2730
44988SOL    HW240095   9.771  10.494   6.847  1.1869 -1.7907  0.5076
44989SOL     OW40096   1.774  10.249   7.520 -0.5422 -0.5093  0.6180
44989SOL    HW140097   1.832  10.250   7.596  0.3689  0.4530 -0.0855
44989SOL    HW240098   1.723  10.330   7.527 -2.4823 -1.7809  1.7284
44990SOL     OW40099   2.948  10.173   2.977 -0.1271  0.0677  0.2937
44990SOL    HW140100   2.932  10.090   2.931 -1.0334  0.0917  0.5550
44990SOL    HW240101   3.007  10.150   3.048  0.0699 -0.2540  0.0275
44991SOL     OW40102   6.520  10.739   9.572 -0.3934 -0.1486  0.2233
44991SOL    HW140103   6.594  10.680   9.560 -1.4523 -1.2611 -0.9234
44991SOL    HW240104   6.480  10.712   9.655  0.4677  0.4678  0.8553
44992SOL     OW40105   6.226   1.337   4.445 -0.2456  0.4156  0.3247
44992SOL    HW140106   6.305   1.330   4.392 -1.7383  0.1135 -1.9372
44992SOL    HW240107   6.192   1.248   4.452 -0.1861  0.4804  1.6234
44993SOL     OW40108   8.694   2.611   8.658 -0.4557  0.2682 -0.3731
44993SOL    HW140109   8.773   2.621   8.711 -1.0766 -0.2036  0.6718
44993SOL    HW240110   8.726   2.600   8.569  0.6953 -0.7818  0.1541
44994SOL     OW40111   0.211   4.530   7.201  0.0809  0.3944  0.4118
44994SOL    HW140112   0.245   4.500   7.286 -0.0974  1.3605  0.8289
44994SOL    HW240113   0.140   4.589   7.223 -1.4775 -1.1026 -0.4604
44995SOL     OW40114   9.930   0.910  10.229 -0.4192  0.3553 -0.4896
44995SOL    HW140115   9.948   0.881  10.140  0.8666 -0.0758 -0.0997
44995SOL    HW240116   9.995   0.979  10.246 -0.0896 -0.1643  0.4031
44996SOL     OW40117   1.767   7.072   8.201  0.7191  0.0211 -0.4455
44996SOL    HW140118   1.720   7.021   8.134 -1.3252  0.8674  0.2980
44996SOL    HW240119   1.763   7.018   8.280 -1.2210  1.1581  0.2745
44997SOL     OW40120  10.309   8.895   5.322  0.4961  0.2770  0.3695
44997SOL    HW140121  10.392   8.878   5.277  0.2077  0.1418 -0.1212
44997SOL    HW240122  10.295   8.989   5.312 -0.1348  0.0730 -0.8381
44998SOL     OW40123  10.055   8.800   5.246  0.8425  0.5520  0.2950
44998SOL    HW140124  10.144   8.772   5.264  0.4845 -0.5310  0.4549
44998SOL    HW240125  10.042   8.879   5.298  1.4003  0.1795  0.9972
44999SOL     OW40126  10.792   5.472  10.015  0.0223 -0.1314  0.1884
44999SOL    HW140127  10.765   5.411   9.946  0.7902 -0.6188  0.3141
44999SOL    HW240128  10.875   5.507   9.984  0.7130 -0.8693  1.1877
45000SOL     OW40129   2.687   7.573   5.384  0.0654  0.1128  0.2078
45000SOL    HW140130   2.740   7.639   5.340 -0.9904 -0.5418 -2.1149
45000SOL    HW240131   2.616   7.554   5.323 -1.4172 -0.8877  2.1800
45001SOL     OW40132  10.020  11.128  10.827 -0.0886 -0.6111  0.3342
45001SOL    HW140133  10.007  11.216  10.863  0.6211 -0.1953 -0.4017
45001SOL    HW240134  10.027  11.072  10.904  1.6441  0.3092  0.8956
45002SOL     OW40135   9.002   8.309   2.439 -0.2649  0.6267 -0.3193
45002SOL    HW140136   8.989   8.220   2.471 -0.8127  0.8253  0.0233
45002SOL    HW240137   8.914   8.347   2.439 -0.1594  0.8726 -1.3416
45003SOL     OW40138   6.161   8.666   8.201  0.5696 -0.2673  0.1992
45003SOL    HW140139   6.219   8.614   8.145  0.7919 -0.9473  1.0539
45003SOL    HW240140   6.073   8.635   8.181  0.7469 -1.3761  1.1169
45004SOL     OW40141   1.941   2.064   9.194  0.5467  0.3283  0.1874
45004SOL    HW140142   1.924   2.123   9.121  2.7241  1.9563  0.9138
45004SOL    HW240143   1.855   2.047   9.233 -0.3600  1.2222 -1.4026
45005SOL     OW40144   7.662   2.838   7.259  0.2253 -0.4887  0.0918
45005SOL    HW140145   7.741   2.787   7.241  1.3404  0.7046  1.4278
45005SOL    HW240146   7.629   2.863   7.173  1.1173 -1.3125 -0.4913
45006SOL     OW40147  11.014   5.858   4.687  0.0616 -0.1965  0.4769
45006SOL    HW140148  11.078   5.788   4.676 -0.7693 -1.0404  0.9494
45006SOL    HW240149  11.059   5.925   4.739  0.9350 -0.2693 -0.1889
45007SOL     OW40150  10.280   6.084   2.170 -0.3753  0.3982 -0.3329
45007SOL    HW140151  10.187   6.106   2.165 -0.6433 -0.5770  0.2900
45007SOL    HW240152  10.284   5.991   2.147  0.1982 -0.1035  1.7608
45008SOL     OW40153  10.182   5.723   2.646 -0.3229  0.1954 -0.1915
45008SOL    HW140154  10.092   5.692   2.640 -0.3714 -0.0845  1.7448
45008SOL    HW240155  10.177   5.804   2.696  0.4258  0.5180 -0.6300
45009SOL     OW40156   6.174   4.364   9.173  0.0059 -0.4871  0.4626
45009SOL    HW140157   6.129   4.349   9.089  0.3691  0.7249  0.0456
45009SOL    HW240158   6.152   4.454   9.196 -0.1342 -0.8327  1.7115
45010SOL     OW40159   2.971   1.559  10.645  0.4781  0.5590  0.8505
45010SOL    HW140160   2.899   1.498  10.661  1.2280 -0.1790  1.4875
45010SOL    HW240161   3.050   1.508  10.664  1.2829  0.7069 -1.8778
45011SOL     OW40162   2.257  10.344   2.929 -0.0193 -0.3447 -0.3180
45011SOL    HW140163   2.175  10.308   2.896 -0.0403 -1.3099  0.7587
45011SOL    HW240164   2.242  10.356   3.023  1.3071 -1.2649  0.0300
45012SOL     OW40165   6.081   3.996   5.102  0.1986 -0.2437 -0.2747
45012SOL    HW140166   6.016   4.062   5.076 -0.1605 -0.1286  0.8949
45012SOL    HW240167   6.047   3.958   5.183  1.2496 -0.6620 -0.0123
45013SOL     OW40168   2.560  11.244   0.431 -0.4790 -0.4306 -0.0378
45013SOL    HW140169   2.579  11.336   0.447  1.7387 -0.7168 -0.8262
45013SOL    HW240170   2.572  11.233   0.337 -0.4959 -1.5788  0.0871
45014SOL     OW40171   0.755   5.798   8.127 -0.1685  0.1201 -0.5182
45014SOL    HW140172   0.706   5.836   8.053  0.1495 -0.3895 -0.9971
45014SOL    HW240173   0.784   5.713   8.095 -0.1652 -0.1754  0.2594
45015SOL     OW40174   5.574   0.849  10.598 -0.3288  0.6822  0.3530
45015SOL    HW140175   5.622   0.782  10.647 -0.7980  1.3758  1.7828
45015SOL    HW240176   5.499   0.802  10.562  0.3041  0.0489 -0.1699
45016SOL     OW40177   1.983   7.538   2.141 -0.8678  0.2020 -0.5507
45016SOL    HW140178   1.950   7.607   2.199  1.2828 -0.1607  1.1885
45016SOL    HW240179   1.995   7.581   2.057 -0.6972  1.6636  0.2020
45017SOL     OW40180   6.222  10.719   3.334 -0.3485  0.1323  0.1766
45017SOL    HW140181   6.160  10.654   3.369  0.5987 -1.7694 -1.5832
45017SOL    HW240182   6.307  10.674   3.334  0.5012  1.6989 -0.1947
45018SOL     OW40183   9.906   8.413   1.021  0.1572 -0.1306 -0.2849
45018SOL    HW140184   9.904   8.477   1.092  1.2465 -0.8405  0.3925
45018SOL    HW240185   9.987   8.431   0.974 -0.0280 -0.3624 -0.6972
45019SOL     OW40186  11.295   8.655  10.331  0.0105  0.5988 -0.6683
45019SOL    HW140187  11.257   8.717  10.269 -0.9493  0.8890  0.1997
45019SOL    HW240188  11.373   8.700  10.364  1.8010 -0.4737 -3.3013
45020SOL     OW40189   9.623   0.844   0.111  0.4184  0.0775  0.1940
45020SOL    HW140190   9.576   0.836   0.194  1.5540  0.2016  0.8666
45020SOL    HW240191   9.590   0.772   0.057  3.1104 -3.0320  2.4803
45021SOL     OW40192   8.065   0.303   4.007  0.3659 -0.2144  0.0075
45021SOL    HW140193   7.974   0.300   4.037  0.7937  2.2113  1.6612
45021SOL    HW240194   8.115   0.263   4.079  0.7949  0.0924 -0.1184
45022SOL     OW40195  11.088   5.989   5.349 -0.2018  0.3101 -0.3678
45022SOL    HW140196  11.122   5.907   5.313  0.1839  0.4322 -0.2770
45022SOL    HW240197  11.148   6.056   5.318  1.6988  0.1174  2.6852
45023SOL     OW40198   2.795   2.270  11.308  0.1841 -0.8196  0.4515
45023SOL    HW140199   2.769   2.178  11.310  1.4551 -1.1688  1.5625
45023SOL    HW240200   2.814   2.292  11.400  0.8430  0.2601  0.0732
45024SOL     OW40201  11.069   6.907   7.996  0.1792 -0.1081  0.7285
45024SOL    HW140202  10.997   6.931   8.054 -1.0748 -0.6938 -0.5588
45024SOL    HW240203  11.057   6.814   7.978  0.7000  0.0041 -0.2604
45025SOL     OW40204   0.833  10.858   1.969 -0.2803 -0.0586  0.3070
45025SOL    HW140205   0.776  10.782   1.959 -1.8553  1.1621 -0.1094
45025SOL    HW240206   0.795  10.926   1.913  2.9010  0.0848 -1.8553
45026SOL     OW40207   0.736   8.373   7.236 -0.6114 -0.2915  0.0361
45026SOL    HW140208   0.742   8.460   7.196  3.6284 -0.2758  0.5591
45026SOL    HW240209   0.700   8.318   7.166 -1.4602  1.4653 -0.9546
45027SOL     OW40210   0.495   6.420   1.161 -0.0208 -0.6037  0.3722
45027SOL    HW140211   0.517   6.327   1.161 -2.5187 -1.2488  2.4265
45027SOL    HW240212   0.494   6.444   1.253 -2.1106  0.7578  0.0225
45028SOL     OW40213   7.365   5.738   7.329 -0.1995 -1.0081  0.7407
45028SOL    HW140214   7.297   5.679   7.362 -0.5916 -0.2959  1.2334
45028SOL    HW240215   7.350   5.742   7.234 -0.8326 -0.8775  0.8432
45029SOL     OW40216   3.925   1.263   8.399 -0.6461  0.4753  0.4266
45029SOL    HW140217   3.932   1.179   8.354  1.5135  1.8586 -1.9832
45029SOL    HW240218   3.836   1.293   8.381 -0.4717  0.0556 -1.1843
45030SOL     OW40219   8.689   0.198   6.663 -0.0967  0.1838  0.4311
45030SOL    HW140220   8.652   0.266   6.607 -0.4279 -0.2687  0.1019
45030SOL    HW240221   8.631   0.195   6.739 -0.1382  0.2024  0.3999
45031SOL     OW40222   0.481   3.711   9.265 -0.1410 -0.0440  0.5025
45031SOL    HW140223   0.477   3.805   9.286  0.8271 -0.0194  0.6004
45031SOL    HW240224   0.407   3.673   9.312 -0.5240  0.6764  0.4791
45032SOL     OW40225   7.353   0.931  11.063  0.0675 -0.2688 -0.7223
45032SOL    HW140226   7.343   0.845  11.022 -1.3270  0.4895 -2.0236
45032SOL    HW240227   7.401   0.983  10.999 -2.1996  0.9495 -1.4788
45033SOL     OW40228   8.609   3.683   6.768  0.4295  0.0872  0.3133
45033SOL    HW140229   8.645   3.712   6.852  0.2094 -0.3858  0.5751
45033SOL    HW240230   8.544   3.750   6.746 -0.1683 -0.2632  0.9762
45034SOL     OW40231   6.892  11.258   5.314  0.2544  0.2579  0.0226
45034SOL    HW140232   6.911  11.352   5.321 -1.2116  0.4783  1.1984
45034SOL    HW240233   6.834  11.251   5.238 -1.8199  0.6708  1.5240
45035SOL     OW40234   9.232   4.479   0.317  0.0792  0.0702  0.2260
45035SOL    HW140235   9.173   4.548   0.287  1.2702  1.5013  1.0840
45035SOL    HW240236   9.311   4.526   0.345  0.3119 -1.5035  2.3124
45036SOL     OW40237   6.191   9.207   2.689 -0.0949 -0.1813  0.4866
45036SOL    HW140238   6.138   9.170   2.759 -0.8917  2.0974  1.1389
45036SOL    HW240239   6.136   9.203   2.611  0.1571 -1.1475  0.3505
45037SOL     OW40240   0.591   3.476   7.632  0.1548  0.0955 -0.0060
45037SOL    HW140241   0.629   3.441   7.551 -0.0485 -0.7665  0.2629
45037SOL    HW240242   0.656   3.538   7.664  0.0468  0.7547 -1.0478
45038SOL     OW40243   1.185   6.136  11.202  0.5823 -0.5839 -0.2487
45038SOL    HW140244   1.107   6.140  11.257 -0.4869 -2.1711 -1.6070
45038SOL    HW240245   1.151   6.130  11.113  2.2760 -0.0116 -0.9432
45039SOL     OW40246   8.937  10.447   0.812  0.4901  0.0561 -0.1379
45039SOL    HW140247   8.921  10.519   0.873  1.0236 -0.7391  0.9713
45039SOL    HW240248   8.917  10.368   0.863  2.2662 -0.6906 -0.5579
45040SOL     OW40249   8.506   7.764   3.285 -0.1597 -0.0337  0.3323
45040SOL    HW140250   8.412   7.785   3.286 -0.2221 -0.2678 -0.2850
45040SOL    HW240251   8.535   7.779   3.375 -1.3097 -2.2348  1.1056
45041SOL     OW40252   4.268   9.942   0.897  0.1939 -0.1189 -0.0340
45041SOL    HW140253   4.357   9.910   0.915 -1.0826 -3.2953  0.9713
45041SOL    HW240254   4.231   9.878   0.837 -1.2444  1.5305 -0.9505
45042SOL     OW40255   7.555   6.283   9.733  0.0555 -0.4149 -0.3765
45042SOL    HW140256   7.546   6.362   9.680  0.8812  0.0769  0.2068
45042SOL    HW240257   7.645   6.286   9.765  0.5619 -2.3181 -1.5277
45043SOL     OW40258   8.192   2.647   0.516  0.7670  0.6815  0.8806
45043SOL    HW140259   8.104   2.613   0.534  0.5119  0.5394 -0.5717
45043SOL    HW240260   8.224   2.594   0.443  1.0460  2.4319 -0.3027
45044SOL     OW40261   3.445   4.115   4.503 -0.1596 -0.2049  0.0470
45044SOL    HW140262   3.495   4.033   4.504 -0.6613 -0.5108  0.5324
45044SOL    HW240263   3.396   4.112   4.421 -0.0353 -0.3076 -0.0233
45045SOL     OW40264   3.880   5.061   4.600 -0.0449  0.3382  0.1661
45045SOL    HW140265   3.887   4.966   4.604 -0.4570  0.3054  0.1418
45045SOL    HW240266   3.960   5.090   4.558 -0.3764 -0.0676 -0.7494
45046SOL     OW40267   5.493   1.420  11.055 -0.0709  0.4807 -0.0880
45046SOL    HW140268   5.448   1.496  11.090 -0.8241 -0.0098  0.0248
45046SOL    HW240269   5.523   1.447  10.968  0.9002  1.3616  0.5093
45047SOL     OW40270   6.395  10.503   8.945  0.4253  0.2690  0.6153
45047SOL    HW140271   6.425  10.555   9.019  2.8018  0.8861 -0.7615
45047SOL    HW240272   6.393  10.564   8.872 -1.8440 -0.3588  0.1078
45048SOL     OW40273  10.129  11.016   9.969  0.2998 -0.3967 -0.1573
45048SOL    HW140274  10.043  11.054   9.952  1.2946  1.3810 -1.4385
45048SOL    HW240275  10.159  11.061  10.049  0.6449  0.0732 -0.5475
45049SOL     OW40276  11.276   7.288   6.079 -0.2398 -0.1781 -0.9492
45049SOL    HW140277  11.326   7.218   6.122  1.0488 -0.3572 -2.6499
45049SOL    HW240278  11.279   7.361   6.140 -0.2146 -1.1016  0.1572
45050SOL     OW40279   6.378  11.175   6.362  0.0530  0.4778 -0.2483
45050SOL    HW140280   6.470  11.152   6.379 -0.3784 -1.0479  0.0791
45050SOL    HW240281   6.329  11.130   6.431 -0.9655  1.1262 -0.5438
45051SOL     OW40282   6.497   7.872   2.309  0.1500  0.2729  0.3119
45051SOL    HW140283   6.469   7.817   2.236  0.2935 -1.3686  1.4738
45051SOL    HW240284   6.453   7.956   2.294 -1.9613 -0.8902 -0.2044
45052SOL     OW40285  10.949   1.538   7.332  0.3227 -0.5279  0.0171
45052SOL    HW140286  10.873   1.504   7.378 -0.4870  1.2794  0.0816
45052SOL    HW240287  11.024   1.495   7.373 -0.4896 -0.1866  1.9125
45053SOL     OW40288   6.369  11.257   1.390 -0.5282 -0.0720 -0.4255
45053SOL    HW140289   6.430  11.245   1.317 -1.7872 -1.0925 -1.3306
45053SOL    HW240290   6.302  11.190   1.377 -1.1725  0.2188  1.2599
45054SOL     OW40291  10.466   1.259   3.967  0.6292  0.4998  0.3681
45054SOL    HW140292  10.544   1.204   3.967 -0.2288 -0.7413  1.0624
45054SOL    HW240293  10.394   1.198   3.982 -0.6552  1.3833 -1.8946
45055SOL     OW40294   5.881   7.791   1.594  0.2086  0.2793  0.0035
45055SOL    HW140295   5.872   7.843   1.675  2.5377 -1.1282  1.2163
45055SOL    HW240296   5.791   7.775   1.566 -0.6576  0.5671  2.4904
45056SOL     OW40297   6.269   1.365   0.962 -0.1296  0.5221  0.2900
45056SOL    HW140298   6.322   1.302   1.011 -3.2033 -1.6605  1.0188
45056SOL    HW240299   6.247   1.320   0.881  0.2861  1.9344 -0.6234
45057SOL     OW40300   2.079   3.405   5.702 -0.4980  0.2371  0.6819
45057SOL    HW140301   2.010   3.353   5.662 -0.8512 -0.1768  1.8280
45057SOL    HW240302   2.120   3.451   5.628 -0.9135 -0.7868 -0.1953
45058SOL     OW40303   1.791   9.948   4.403  0.2318  0.1454 -0.2783
45058SOL    HW140304   1.736  10.014   4.445  2.0958  2.0469 -0.7334
45058SOL    HW240305   1.782   9.965   4.309  0.7692 -0.2160 -0.4000
45059SOL     OW40306   1.361   4.992   5.904  0.2689  0.3659  0.2803
45059SOL    HW140307   1.389   4.961   5.818  0.5777  0.0519  0.4952
45059SOL    HW240308   1.388   5.084   5.906  1.0130  0.1461  0.3722
45060SOL     OW40309   8.674   4.732   0.151 -0.0081 -0.2690 -0.0230
45060SOL    HW140310   8.726   4.807   0.181 -0.0161  0.9815 -2.9178
45060SOL    HW240311   8.721   4.656   0.184  1.7380  0.9375  0.3775
45061SOL     OW40312   9.749   4.796   8.637  0.1511 -0.3215  0.2098
45061SOL    HW140313   9.717   4.706   8.641 -0.8404  0.0506  0.7685
45061SOL    HW240314   9.825   4.797   8.696  0.6185 -0.9722 -0.3817
45062SOL     OW40315   4.623   5.079   6.411 -0.0544 -0.1811 -0.4226
45062SOL    HW140316   4.593   5.132   6.337 -0.2391  2.3626  1.3901
45062SOL    HW240317   4.701   5.124   6.443 -0.1406 -1.0712  1.0992
45063SOL     OW40318   9.946   9.983  11.281  0.2832  0.6707  0.5049
45063SOL    HW140319  10.018   9.921  11.271 -0.2081  0.4782 -2.1064
45063SOL    HW240320   9.895   9.948  11.354  0.2329 -1.8034 -0.6751
45064SOL     OW40321   1.062   1.784   7.579 -0.1907  0.2654 -0.2257
45064SOL    HW140322   0.976   1.744   7.565 -0.2794  0.2224  0.4330
45064SOL    HW240323   1.042   1.871   7.613  0.0393 -0.2356  1.2229
45065SOL     OW40324   5.962   3.538   6.765 -0.3134  0.0897 -0.2547
45065SOL    HW140325   5.988   3.586   6.843  0.0628 -0.7012  0.1073
45065SOL    HW240326   5.943   3.606   6.700 -3.4686  0.8671  1.3990
45066SOL     OW40327   8.783   2.845   6.778  0.1318  0.2271  0.2431
45066SOL    HW140328   8.741   2.897   6.847  0.2567  1.1917 -0.3869
45066SOL    HW240329   8.869   2.823   6.813 -0.5554 -1.0033  1.1886
45067SOL     OW40330   8.411   9.891   1.932 -1.0304 -0.3692 -0.0899
45067SOL    HW140331   8.386   9.973   1.974  0.0067 -0.6992  1.2041
45067SOL    HW240332   8.441   9.835   2.004  0.2138 -1.1676 -1.2022
45068SOL     OW40333   9.217   1.775   7.541  0.0716 -0.0310 -0.9820
45068SOL    HW140334   9.129   1.762   7.576  0.0147  3.1296  0.1701
45068SOL    HW240335   9.275   1.744   7.611 -0.0944  3.2333  0.6829
45069SOL     OW40336   3.353   6.038  10.150  0.0501 -0.7190  0.1400
45069SOL    HW140337   3.402   6.100  10.096  2.3863 -0.1036  2.8348
45069SOL    HW240338   3.301   5.988  10.087  0.2992  2.0187 -2.3611
45070SOL     OW40339   0.526   8.057   6.088  0.3372 -0.0065  0.0718
45070SOL    HW140340   0.587   8.126   6.063  0.1551  0.1929  0.1763
45070SOL    HW240341   0.440   8.092   6.067  0.1351  0.4280  1.5650
45071SOL     OW40342   6.373   1.246   5.538 -0.4228 -0.2981 -0.0017
45071SOL    HW140343   6.310   1.175   5.529 -3.3624  2.2857 -0.3841
45071SOL    HW240344   6.353   1.306   5.466  2.4019  0.6819 -0.0519
45072SOL     OW40345   3.064   1.738  11.294 -0.8615  0.5232  0.1541
45072SOL    HW140346   3.131   1.692  11.344 -0.3334  1.2835  0.1565
45072SOL    HW240347   3.030   1.804  11.355 -2.2793 -0.4683  0.4692
45073SOL     OW40348   2.763   3.926   1.482  0.5861 -0.4373  0.7741
45073SOL    HW140349   2.814   3.864   1.535  1.9847  1.1296  1.3025
45073SOL    HW240350   2.821   4.001   1.469 -0.3686 -0.0499 -1.5317
45074SOL     OW40351   9.220   3.097   5.238 -0.3281 -0.3092 -0.1817
45074SOL    HW140352   9.163   3.032   5.198  1.5125 -0.8557 -1.9660
45074SOL    HW240353   9.198   3.179   5.193 -1.8288  0.1209  1.2676
45075SOL     OW40354   8.599   0.263   2.650 -0.0773 -0.0786  0.6529
45075SOL    HW140355   8.623   0.173   2.628 -1.1788 -0.8311  2.4833
45075SOL    HW240356   8.505   0.260   2.668  0.0064  1.3007  1.4400
45076SOL     OW40357   9.191  11.181   0.767  0.3548  0.2847 -0.4499
45076SOL    HW140358   9.142  11.233   0.831  0.6892  1.5126 -1.1844
45076SOL    HW240359   9.162  11.213   0.682  1.6752  0.3389 -0.8993
45077SOL     OW40360   2.254   7.422   2.442  1.0353  0.6368  0.1267
45077SOL    HW140361   2.267   7.381   2.528  1.9816  2.1502  0.7168
45077SOL    HW240362   2.215   7.507   2.461 -3.7372 -1.1017 -1.2730
45078SOL     OW40363   5.683   2.629   8.439  0.1558 -0.7482  0.1862
45078SOL    HW140364   5.722   2.641   8.526  0.1012 -1.3093  0.2925
45078SOL    HW240365   5.671   2.534   8.432 -2.2705 -0.4918  0.6164
45079SOL     OW40366   0.726   2.314   8.612 -0.2019  0.1653 -0.2016
45079SOL    HW140367   0.656   2.367   8.651 -0.0750 -1.0895  1.7612
45079SOL    HW240368   0.680   2.246   8.562 -0.4268 -1.3925  2.0738
45080SOL     OW40369   4.482   9.312  10.378  0.3177 -0.1134  0.1104
45080SOL    HW140370   4.567   9.287  10.342 -0.3163  1.0598 -2.3033
45080SOL    HW240371   4.484   9.408  10.379 -1.3716 -0.0530 -0.9600
45081SOL     OW40372   0.616   4.521   8.410  0.1641 -0.3733  0.0077
45081SOL    HW140373   0.582   4.432   8.417 -0.7805 -0.0071  0.1921
45081SOL    HW240374   0.653   4.540   8.497  0.5461 -0.6565 -0.0953
45082SOL     OW40375   6.508   1.210   9.111 -0.2489 -0.5534  0.1292
45082SOL    HW140376   6.508   1.305   9.121  0.1671 -0.6690  1.2400
45082SOL    HW240377   6.500   1.196   9.016  0.1198  0.5883 -0.0757
45083SOL     OW40378   6.586   2.758  10.807 -0.2741  0.4846 -0.3963
45083SOL    HW140379   6.624   2.835  10.766 -0.1888 -0.0153 -1.2641
45083SOL    HW240380   6.502   2.745  10.763 -0.5043  0.3625  0.0735
45084SOL     OW40381   9.565   4.587   1.876 -0.0212  0.2074 -0.2923
45084SOL    HW140382   9.613   4.667   1.897 -0.2799 -0.0370  1.3312
45084SOL    HW240383   9.582   4.572   1.783 -1.2973  3.0294 -1.0167
45085SOL     OW40384   1.458   7.563   9.693 -0.2633 -0.2678 -0.0620
45085SOL    HW140385   1.423   7.475   9.676  1.4684 -0.9698 -0.0204
45085SOL    HW240386   1.499   7.589   9.611  0.6909 -0.1781  0.4462
45086SOL     OW40387   8.163   4.127  10.480  0.9067 -0.0211 -0.1833
45086SOL    HW140388   8.139   4.084  10.562  0.0417 -0.3587 -0.6032
45086SOL    HW240389   8.218   4.063  10.435  1.9068  0.4150  0.4032
45087SOL     OW40390   7.578   3.235   5.908 -0.1356  0.2723 -0.1352
45087SOL    HW140391   7.552   3.268   5.822  0.0717 -1.6068 -0.9285
45087SOL    HW240392   7.628   3.307   5.947  0.0514  1.0222 -1.7220
45088SOL     OW40393   9.709   0.169   8.787  0.0686 -0.5082  0.0900
45088SOL    HW140394   9.688   0.116   8.709 -1.1320 -1.0742  0.7831
45088SOL    HW240395   9.691   0.259   8.760 -1.6158 -0.8265  0.1132
45089SOL     OW40396   7.566   7.557  10.827 -0.3629 -0.1122 -0.1691
45089SOL    HW140397   7.591   7.638  10.782 -0.2402  0.1274  0.3289
45089SOL    HW240398   7.567   7.580  10.920 -0.9215 -0.5238 -0.0628
45090SOL     OW40399   5.304   1.557   1.380  0.2006 -0.8897  0.1397
45090SOL    HW140400   5.395   1.586   1.377  0.0097 -0.1927  0.8090
45090SOL    HW240401   5.305   1.471   1.339  0.7987  0.0169 -1.7953
45091SOL     OW40402   1.228   3.852   2.312 -0.4752  0.1687  0.1617
45091SOL    HW140403   1.154   3.804   2.275 -0.6676  0.8225 -0.3180
45091SOL    HW240404   1.284   3.785   2.350 -0.0943 -0.5643 -1.6304
45092SOL     OW40405   7.294   1.538   4.504  0.2249  0.1269 -0.3464
45092SOL    HW140406   7.205   1.530   4.538  0.4222 -1.2514 -0.1371
45092SOL    HW240407   7.292   1.488   4.422  0.5322  0.9865 -0.8891
45093SOL     OW40408   0.294   3.275   4.763  0.0914 -0.4197 -0.1665
45093SOL    HW140409   0.272   3.237   4.848  0.1299 -1.5161 -0.6396
45093SOL    HW240410   0.325   3.201   4.711  1.7352  0.5244 -0.5706
45094SOL     OW40411   9.388   4.379   8.968  0.1713 -0.1829  0.6271
45094SOL    HW140412   9.324   4.329   8.917  1.2500  0.7554 -1.6968
45094SOL    HW240413   9.337   4.415   9.041 -2.2342  1.4341 -1.7501
45095SOL     OW40414   5.697   2.771   8.963 -0.3222  0.3667  0.0456
45095SOL    HW140415   5.790   2.770   8.989  0.0535  1.9433 -1.1940
45095SOL    HW240416   5.652   2.736   9.040  1.3077 -0.5819  0.6136
45096SOL     OW40417   0.734   6.280   2.418  0.6344  0.2741  0.0234
45096SOL    HW140418   0.820   6.273   2.377 -0.0844  1.2952 -1.7093
45096SOL    HW240419   0.672   6.276   2.345 -0.6885  2.0060  1.0134
45097SOL     OW40420   9.093   7.898   4.125  0.1844  0.1659 -0.7185
45097SOL    HW140421   9.171   7.897   4.180  0.3099 -0.7136 -0.9051
45097SOL    HW240422   9.101   7.819   4.071  0.0474  0.9815 -1.9652
45098SOL     OW40423   6.284  10.008   4.756  0.2181 -0.3384 -0.2159
45098SOL    HW140424   6.284   9.914   4.774 -2.3025 -0.1729  0.9037
45098SOL    HW240425   6.191  10.032   4.757  0.8828  2.3326  0.4671
45099SOL     OW40426  10.485  10.305   7.698 -0.5633 -0.4226  0.5427
45099SOL    HW140427  10.561  10.277   7.748 -0.3081  0.0628  0.4319
45099SOL    HW240428  10.517  10.378   7.645 -1.0130 -0.4595  0.2195
45100SOL     OW40429   2.834   7.976   3.545  1.0910 -0.1391 -0.0882
45100SOL    HW140430   2.907   7.925   3.512  0.3574 -0.7642 -0.7642
45100SOL    HW240431   2.767   7.912   3.568  0.3705  0.4705 -0.4232
45101SOL     OW40432   0.420   2.196  11.171 -0.5310 -0.4343  0.9512
45101SOL    HW140433   0.327   2.211  11.154 -1.0671 -1.7722  2.4917
45101SOL    HW240434   0.436   2.240  11.254  0.1315 -0.4551  0.8324
45102SOL     OW40435   5.716   4.511   8.755  0.3640 -0.2226  0.2860
45102SOL    HW140436   5.675   4.597   8.745  0.9928  0.1914  1.1787
45102SOL    HW240437   5.770   4.520   8.834  0.5925 -1.3723  0.2611
45103SOL     OW40438   0.627   3.834  10.192 -0.2906  0.7989  0.0873
45103SOL    HW140439   0.651   3.881  10.111 -0.4730  1.7232  0.5589
45103SOL    HW240440   0.692   3.764  10.198 -0.3572  0.6324 -0.9386
45104SOL     OW40441   8.896  10.121  11.090 -0.1609 -0.0869  0.2016
45104SOL    HW140442   8.835  10.134  11.017 -0.5434 -2.3841  0.0955
45104SOL    HW240443   8.945  10.043  11.066  0.6018 -0.1061  1.8139
45105SOL     OW40444  10.481   0.697   7.127 -0.2488 -0.0959  0.1437
45105SOL    HW140445  10.546   0.640   7.167  0.5044  2.3889  2.6259
45105SOL    HW240446  10.530   0.751   7.066 -0.2516  0.6286  0.7746
45106SOL     OW40447   3.336   0.010   3.649 -0.3048 -0.4385  0.0385
45106SOL    HW140448   3.345  -0.061   3.713  1.1541 -1.6426 -1.4365
45106SOL    HW240449   3.258  -0.012   3.600 -1.2223  0.2934  1.1506
45107SOL     OW40450   0.308   2.814  11.065  0.1307 -0.2234 -0.2917
45107SOL    HW140451   0.361   2.803  10.986 -1.1706  0.3362 -1.2409
45107SOL    HW240452   0.247   2.741  11.064  0.0291 -0.1487  0.1435
45108SOL     OW40453   9.608   2.693  10.068  0.1316  0.0530  0.0857
45108SOL    HW140454   9.595   2.777  10.112 -1.2686 -0.3233  0.4239
45108SOL    HW240455   9.637   2.717   9.980  1.3218  0.8453  0.6949
45109SOL     OW40456   3.878   1.886   4.278 -0.4150  0.4428  0.4432
45109SOL    HW140457   3.800   1.906   4.330 -0.0932  0.3735  0.9493
45109SOL    HW240458   3.927   1.823   4.330  0.0455  0.5823  0.1826
45110SOL     OW40459   0.028   4.541   5.378  0.1244  0.0974  0.7711
45110SOL    HW140460   0.089   4.561   5.308  1.7080 -3.1444  1.1232
45110SOL    HW240461  -0.048   4.502   5.334 -0.8992  2.2875  0.5163
45111SOL     OW40462   7.065   5.032   1.509 -0.5421 -0.0874  0.0020
45111SOL    HW140463   7.082   5.074   1.594 -2.3806  0.4015  0.1542
45111SOL    HW240464   7.139   5.058   1.454 -1.0983  2.4801  0.4246
45112SOL     OW40465   7.816   6.504   8.634 -0.2610 -0.5513 -0.0941
45112SOL    HW140466   7.813   6.427   8.578  2.6149 -0.2609 -0.6854
45112SOL    HW240467   7.765   6.570   8.586  0.5270 -0.9040 -1.4439
45113SOL     OW40468   7.828  11.044   1.090 -0.1068  0.9368 -0.0997
45113SOL    HW140469   7.781  11.109   1.039  0.9131 -0.3712 -2.8116
45113SOL    HW240470   7.776  10.964   1.080  0.4488  0.5095  0.4192
45114SOL     OW40471   0.549   5.172   6.248  0.1690 -0.8826  0.0210
45114SOL    HW140472   0.473   5.167   6.307 -1.4656 -0.1834 -1.9383
45114SOL    HW240473   0.610   5.231   6.292 -1.7839  1.0469  0.2395
45115SOL     OW40474   3.031   6.387   1.053  0.0036 -0.6129  0.8900
45115SOL    HW140475   3.098   6.412   1.117  0.4990 -0.4275  0.3013
45115SOL    HW240476   2.959   6.448   1.069  0.4022 -0.1173  0.8107
45116SOL     OW40477   6.806   1.734   9.541 -0.4321 -0.2315 -0.0548
45116SOL    HW140478   6.805   1.698   9.630 -2.6009 -0.4835 -0.1608
45116SOL    HW240479   6.766   1.820   9.550  0.1248  0.0892 -0.6548
45117SOL     OW40480  10.932   6.375  11.030 -0.2937 -0.1395 -0.6867
45117SOL    HW140481  10.859   6.313  11.029  1.0045 -1.7533  1.5009
45117SOL    HW240482  10.891   6.461  11.020 -2.3203 -1.1590 -1.3087
45118SOL     OW40483   3.398  11.190   3.262  0.1490  0.1117  0.1247
45118SOL    HW140484   3.306  11.165   3.273  0.1476  0.1242  0.1435
45118SOL    HW240485   3.415  11.182   3.168  0.3605 -0.6905  0.2276
45119SOL     OW40486   7.273   6.668   0.534 -0.2291 -0.5662 -0.1555
45119SOL    HW140487   7.285   6.690   0.441 -1.3860 -4.2999 -1.2658
45119SOL    HW240488   7.362   6.648   0.565  0.1292  0.4423 -0.5044
45120SOL     OW40489  10.446   1.481   4.608  0.2887  0.6652 -0.2454
45120SOL    HW140490  10.351   1.471   4.612  0.4334 -0.3759  1.5010
45120SOL    HW240491  10.470   1.515   4.695  1.8888 -3.2032  0.9530
45121SOL     OW40492   1.232   8.742   1.351 -0.0853 -0.1954  0.0862
45121SOL    HW140493   1.255   8.740   1.444 -0.4288 -1.2801  0.1585
45121SOL    HW240494   1.142   8.709   1.348  0.6783 -2.2532 -0.8372
45122SOL     OW40495   2.017   5.095  10.888 -0.2743  0.3235 -0.1323
45122SOL    HW140496   2.005   5.186  10.915 -0.2585  0.2631  0.0732
45122SOL    HW240497   2.092   5.064  10.938 -0.3656  0.1544 -0.0988
45123SOL     OW40498   7.790   0.364   9.211  0.3375  0.4323  0.0111
45123SOL    HW140499   7.725   0.365   9.281  1.1765  0.4507  0.7937
45123SOL    HW240500   7.780   0.277   9.170  0.8004 -0.1175  1.0511
45124SOL     OW40501   1.703   9.165   9.607 -0.3332 -0.3567 -0.6443
45124SOL    HW140502   1.702   9.069   9.597  1.9947 -0.5303  0.3533
45124SOL    HW240503   1.796   9.187   9.610 -0.8572  1.8620 -0.0851
45125SOL     OW40504   4.746   4.370   2.197 -0.2319 -0.6567 -0.4361
45125SOL    HW140505   4.702   4.321   2.266  0.2242 -0.8536 -0.2860
45125SOL    HW240506   4.803   4.306   2.154  1.8980  0.1606  1.0448
45126SOL     OW40507   9.781  10.194   8.158  0.1653  0.4183 -0.3255
45126SOL    HW140508   9.718  10.125   8.137  0.1870  0.5312 -0.7567
45126SOL    HW240509   9.843  10.153   8.217 -0.9511  0.6051  1.0133
45127SOL     OW40510   4.802   7.193   3.720 -0.1379 -0.3798  0.4350
45127SOL    HW140511   4.870   7.152   3.666 -0.2124  1.5163 -1.1523
45127SOL    HW240512   4.734   7.219   3.658 -0.7572  0.7938  1.5743
45128SOL     OW40513   6.998   8.636   1.817 -0.5516 -0.2264  0.0796
45128SOL    HW140514   6.966   8.582   1.890 -0.7954  0.3616  0.4079
45128SOL    HW240515   7.092   8.646   1.834 -1.1138  2.3725  1.9290
45129SOL     OW40516  10.594   8.301  10.376 -0.1120  0.1942  0.9361
45129SOL    HW140517  10.601   8.235  10.308 -2.3772 -0.6471  1.4661
45129SOL    HW240518  10.541   8.371  10.338 -2.3603 -0.7906  2.1511
45130SOL     OW40519  10.586   8.712   6.226  0.1503  0.0364  0.2473
45130SOL    HW140520  10.587   8.656   6.303  0.3044  0.5013  0.5821
45130SOL    HW240521  10.509   8.684   6.176 -0.0982 -0.0778  0.6985
45131SOL     OW40522   4.633   2.890  10.453 -0.0802  0.0716 -0.2701
45131SOL    HW140523   4.569   2.821  10.467 -0.4549  0.2810 -0.9315
45131SOL    HW240524   4.591   2.970  10.484  0.7950 -0.1610  1.6010
45132SOL     OW40525   7.160  10.407   0.816  0.4072  0.4285  0.2958
45132SOL    HW140526   7.070  10.437   0.805  0.2883 -0.5548 -1.5914
45132SOL    HW240527   7.203  10.478   0.865 -0.8998  1.7799 -0.4633
45133SOL     OW40528   4.437   2.388   1.121 -0.7587 -0.0582  0.0945
45133SOL    HW140529   4.344   2.379   1.099 -1.1018  0.0511  1.4097
45133SOL    HW240530   4.467   2.298   1.135 -0.2408 -0.2144 -1.9329
45134SOL     OW40531   0.439   8.631   6.934  0.1024 -0.2567 -0.0560
45134SOL    HW140532   0.380   8.564   6.898 -1.8890  1.3170  0.1392
45134SOL    HW240533   0.491   8.659   6.859 -1.5575  0.4722 -0.9826
45135SOL     OW40534  11.048  10.200   5.552 -0.0831 -0.2104  0.9373
45135SOL    HW140535  11.137  10.171   5.533  0.2423  1.9753 -1.0813
45135SOL    HW240536  11.059  10.265   5.621  0.0680  1.0489 -0.2441
45136SOL     OW40537   7.756   7.039   7.544 -0.2808  0.1984 -0.0802
45136SOL    HW140538   7.789   7.006   7.460 -0.8368 -1.0529  0.1871
45136SOL    HW240539   7.781   7.132   7.544  0.9303 -0.1085 -1.0207
45137SOL     OW40540   0.794  10.515   0.084  0.1766  0.0117  0.1292
45137SOL    HW140541   0.838  10.574   0.023  2.1693  0.5787  2.0524
45137SOL    HW240542   0.833  10.430   0.067  0.2677  0.0457  0.1694
45138SOL     OW40543   0.235   8.168   6.094  0.1308  0.0159 -0.2414
45138SOL    HW140544   0.168   8.139   6.156  0.8675 -0.2699  0.4422
45138SOL    HW240545   0.207   8.255   6.067 -0.3103  0.0619  0.3459
45139SOL     OW40546   1.785   5.015   1.416  0.8445 -0.8835 -0.2582
45139SOL    HW140547   1.772   4.998   1.323  0.4994  1.9805 -0.7814
45139SOL    HW240548   1.739   5.098   1.432  2.0988 -0.5909  2.1277
45140SOL     OW40549   4.826   9.967   6.172  0.0661 -0.1093 -0.0370
45140SOL    HW140550   4.832  10.039   6.236  3.7290 -0.1040 -0.2541
45140SOL    HW240551   4.819  10.012   6.088 -0.7177 -0.0477  0.0623
45141SOL     OW40552   5.851   0.231   4.325 -0.5266  0.5022  0.7400
45141SOL    HW140553   5.869   0.188   4.409 -1.0356 -1.3612 -0.0806
45141SOL    HW240554   5.907   0.308   4.325  0.9908 -0.5782  1.9241
45142SOL     OW40555   0.607   0.491   6.514 -0.6010  0.0412  0.1567
45142SOL    HW140556   0.521   0.527   6.540 -0.9964 -0.8568  0.1092
45142SOL    HW240557   0.623   0.528   6.427 -1.8033 -1.2220 -0.6307
45143SOL     OW40558   8.209   6.355  10.689  0.4144  0.2057 -0.6842
45143SOL    HW140559   8.255   6.436  10.666 -1.3096  1.1782 -0.8063
45143SOL    HW240560   8.194   6.312  10.605 -1.9091  1.5852 -1.0446
45144SOL     OW40561   0.727   6.303   1.983 -0.0794 -0.0739  0.0058
45144SOL    HW140562   0.643   6.280   1.943 -1.3222  1.5882  1.5665
45144SOL    HW240563   0.719   6.271   2.073  1.0172 -0.0034  0.1288
45145SOL     OW40564   8.045   2.295   9.273  0.1833  0.1140 -0.3733
45145SOL    HW140565   8.113   2.299   9.340 -2.0806  2.4146  1.9234
45145SOL    HW240566   8.034   2.385   9.245 -1.0677 -0.3994 -1.5774
45146SOL     OW40567   9.967   0.390   8.740  0.1829  0.0426  0.1960
45146SOL    HW140568  10.029   0.368   8.671  0.1560 -0.6179  0.3778
45146SOL    HW240569   9.891   0.426   8.694 -0.4634 -1.8036 -0.2591
45147SOL     OW40570   3.060   6.594   9.555  0.2216  0.2761  0.0476
45147SOL    HW140571   3.043   6.627   9.467  1.3556 -0.4085 -0.4358
45147SOL    HW240572   3.065   6.673   9.609  0.4136  0.7528 -0.6580
45148SOL     OW40573   0.195   9.635   1.587 -0.0114 -0.0863 -0.0532
45148SOL    HW140574   0.258   9.699   1.553 -1.0919  1.3465  0.5722
45148SOL    HW240575   0.113   9.657   1.543 -0.5846 -0.5206  0.7779
45149SOL     OW40576   2.585   1.364  10.624  0.5669  0.1227  0.3577
45149SOL    HW140577   2.618   1.398  10.541  0.5206  0.9233  0.6644
45149SOL    HW240578   2.555   1.275  10.604 -0.4153  0.6911 -0.7067
45150SOL     OW40579   8.487   4.458   1.698  0.0303  0.1871 -0.6153
45150SOL    HW140580   8.467   4.368   1.723  1.1375 -0.3716 -1.6657
45150SOL    HW240581   8.511   4.501   1.780 -1.0464 -0.3243 -0.0286
45151SOL     OW40582   3.042   1.106   5.812  0.4449  0.4953  0.3451
45151SOL    HW140583   3.105   1.035   5.824  0.3316  0.1914 -0.7518
45151SOL    HW240584   3.092   1.176   5.771  0.2604  0.5601  0.2267
45152SOL     OW40585   8.413   6.546   5.787 -0.2209 -0.3603 -0.0546
45152SOL    HW140586   8.327   6.528   5.825 -0.2474  0.4581  0.2807
45152SOL    HW240587   8.475   6.531   5.859 -0.4257  3.1261  0.9148
45153SOL     OW40588   5.217   1.941   7.884  0.2756  0.2353  0.3080
45153SOL    HW140589   5.247   2.025   7.851  0.6019 -0.4928 -1.2965
45153SOL    HW240590   5.219   1.883   7.808 -1.4237 -0.8294  1.0385
45154SOL     OW40591   4.507   5.110   6.662 -0.5301 -0.4589 -0.3139
45154SOL    HW140592   4.541   5.086   6.576 -2.6717 -0.9624 -1.0505
45154SOL    HW240593   4.540   5.041   6.720  2.7422  1.0609 -0.2627
45155SOL     OW40594   4.808   1.273   0.952  0.0022  0.1585  0.1769
45155SOL    HW140595   4.755   1.194   0.946  0.6488 -0.3461  0.8168
45155SOL    HW240596   4.886   1.253   0.900 -0.7186  1.1309 -1.2676
45156SOL     OW40597  10.921   4.734   6.269 -0.7678  0.2135 -0.3671
45156SOL    HW140598  10.965   4.819   6.270  1.9341 -1.1415  1.3020
45156SOL    HW240599  10.883   4.726   6.357 -3.0690  0.6676 -1.2751
45157SOL     OW40600   7.783   9.888   7.580 -0.4408 -0.1307 -0.4163
45157SOL    HW140601   7.842   9.892   7.504 -1.0178  1.0584 -0.8109
45157SOL    HW240602   7.704   9.934   7.552 -1.0317 -0.5186  0.5868
45158SOL     OW40603   3.515   3.021   4.224 -0.6499 -0.1569 -0.1298
45158SOL    HW140604   3.586   2.987   4.278 -0.7592 -1.1941 -0.6192
45158SOL    HW240605   3.558   3.080   4.162 -0.1330 -1.1842 -0.7636
45159SOL     OW40606   4.953   9.667   1.779  0.4692  0.5728  0.4199
45159SOL    HW140607   4.891   9.692   1.848 -0.7256 -1.5920  0.1880
45159SOL    HW240608   4.906   9.601   1.728  1.9488  0.9570 -1.4838
45160SOL     OW40609   4.256   0.660   1.121 -0.7280 -0.6561 -0.3476
45160SOL    HW140610   4.293   0.594   1.063  0.3242 -0.3813  0.0085
45160SOL    HW240611   4.161   0.653   1.108 -0.5757 -1.6414 -0.9506
45161SOL     OW40612   9.142   1.037   7.576  0.2564  0.1173  0.0293
45161SOL    HW140613   9.077   0.967   7.570  0.8766 -0.3847 -0.9277
45161SOL    HW240614   9.182   1.026   7.662  1.3729 -1.6241 -0.6982
45162SOL     OW40615   8.007   7.904   6.389 -0.0503  0.3351 -0.5247
45162SOL    HW140616   7.933   7.923   6.331  0.2168 -0.2321 -1.0613
45162SOL    HW240617   7.966   7.871   6.469 -0.4526  1.8168 -0.0988
45163SOL     OW40618   1.221   5.258  11.101  0.7772  0.0211 -0.4975
45163SOL    HW140619   1.159   5.191  11.130  1.7346 -0.7608 -0.2087
45163SOL    HW240620   1.265   5.219  11.026  0.9954  0.5293 -0.6368
45164SOL     OW40621   8.254   0.683   2.199  0.3401  0.3890 -0.2432
45164SOL    HW140622   8.272   0.674   2.293 -0.4794  1.5823  0.0486
45164SOL    HW240623   8.295   0.607   2.159 -1.7528 -1.7140  1.4110
45165SOL     OW40624   7.020  11.007   9.322  0.4410  0.4808 -0.1521
45165SOL    HW140625   7.018  11.016   9.417 -1.9387 -2.0614  0.0930
45165SOL    HW240626   7.075  10.931   9.306 -1.0988 -0.5472 -0.6495
45166SOL     OW40627   8.312   9.531   3.126  0.2595 -0.3363  0.0994
45166SOL    HW140628   8.351   9.476   3.058  1.6756 -0.2706  0.8335
45166SOL    HW240629   8.329   9.621   3.097 -1.7179 -0.2660 -0.9086
45167SOL     OW40630   1.621   3.946   6.340  0.0535  0.0411 -0.3285
45167SOL    HW140631   1.657   3.942   6.428 -0.4216  1.7407 -0.0347
45167SOL    HW240632   1.528   3.923   6.351 -0.2799  1.4095 -0.1919
45168SOL     OW40633  10.340   1.309   2.025 -0.4892  0.0859 -0.0636
45168SOL    HW140634  10.370   1.317   2.116  1.4936 -1.2502 -0.5633
45168SOL    HW240635  10.308   1.396   2.002  1.0379  1.0162  1.2275
45169SOL     OW40636   9.446  10.542   3.346 -0.7675 -0.0371  0.7685
45169SOL    HW140637   9.482  10.459   3.317 -0.5537 -0.1884  1.4466
45169SOL    HW240638   9.351  10.530   3.342 -0.7427  0.2138 -0.5992
45170SOL     OW40639   4.804   3.314   0.525  0.1976 -0.0154  0.3555
45170SOL    HW140640   4.796   3.247   0.594  1.8093 -0.6169 -0.0107
45170SOL    HW240641   4.896   3.338   0.526  0.7685 -1.7201 -3.1281
45171SOL     OW40642   2.577   1.021   8.733  0.0638 -0.0803 -0.2812
45171SOL    HW140643   2.636   0.978   8.671  0.3377 -0.7554  0.4450
45171SOL    HW240644   2.584   1.114   8.712  1.8570 -0.0886  0.1893
45172SOL     OW40645  10.658   9.805   3.677 -0.5311  0.0162 -0.6402
45172SOL    HW140646  10.681   9.898   3.675  2.1939 -0.6126 -2.1414
45172SOL    HW240647  10.673   9.775   3.587 -1.2864 -1.8766 -0.1504
45173SOL     OW40648   8.293  10.797   0.173  0.3862 -0.2709  0.2698
45173SOL    HW140649   8.323  10.716   0.214 -0.4610 -0.4222  0.6020
45173SOL    HW240650   8.304  10.864   0.240 -0.2737 -0.3783  0.4912
45174SOL     OW40651   7.627   1.814  11.052 -0.0493 -0.1159 -0.3799
45174SOL    HW140652   7.658   1.876  11.118  0.2061 -0.3445 -0.2854
45174SOL    HW240653   7.636   1.861  10.969  0.0421  0.0130 -0.2976
45175SOL     OW40654   8.974   7.497   1.169 -0.4856 -0.5190  0.3677
45175SOL    HW140655   8.961   7.577   1.221  0.7005 -1.3051  1.9148
45175SOL    HW240656   8.968   7.526   1.078 -0.4688  1.2618  0.9158
45176SOL     OW40657   7.129   0.136   2.776  0.4122  0.1616 -0.0997
45176SOL    HW140658   7.105   0.196   2.705 -0.2003  0.0763  0.0380
45176SOL    HW240659   7.078   0.057   2.759 -1.4149  0.9283  1.6589
45177SOL     OW40660   4.375   9.151   3.427  1.0211 -0.2253 -0.6358
45177SOL    HW140661   4.319   9.164   3.350  0.7183  0.0605 -0.3679
45177SOL    HW240662   4.457   9.195   3.404  0.4447  1.0936 -0.2469
45178SOL     OW40663   5.744   4.696   5.875 -0.1221 -0.5338 -0.0437
45178SOL    HW140664   5.687   4.705   5.952 -1.0647 -0.0093 -0.8013
45178SOL    HW240665   5.750   4.784   5.839 -0.0299 -0.8554 -0.8277
45179SOL     OW40666   7.991   4.324   5.436  0.4750  0.2204  0.7835
45179SOL    HW140667   7.974   4.392   5.502  3.1863  1.1712  0.5649
45179SOL    HW240668   7.996   4.243   5.487 -1.2917  0.3743  1.2354
45180SOL     OW40669   5.538   3.005   3.169 -0.0420 -0.4154 -0.1763
45180SOL    HW140670   5.541   3.016   3.074  1.3013  0.2665 -0.0694
45180SOL    HW240671   5.629   3.001   3.195 -0.4136 -1.1481  1.0381
45181SOL     OW40672   8.535   4.244   8.537  0.4421 -0.1373  0.0125
45181SOL    HW140673   8.533   4.312   8.470 -1.4906 -0.1992 -0.0282
45181SOL    HW240674   8.564   4.290   8.616  1.4717  0.2054 -0.5441
45182SOL     OW40675   2.489  10.039   9.045  0.3616 -0.3565  0.1640
45182SOL    HW140676   2.406  10.082   9.025  0.6604  0.0992 -0.1201
45182SOL    HW240677   2.513   9.993   8.964  0.9093  0.3869 -0.1044
45183SOL     OW40678  10.510   2.919   8.745  0.2267  0.0489  0.0430
45183SOL    HW140679  10.417   2.933   8.728 -0.0025  1.7299  2.4230
45183SOL    HW240680  10.555   2.970   8.679 -0.5469  0.2712 -0.3165
45184SOL     OW40681   3.469  10.668   9.210  0.1512  0.6871 -0.7356
45184SOL    HW140682   3.406  10.678   9.139  0.9964  0.4522 -1.5301
45184SOL    HW240683   3.419  10.687   9.290 -1.5052 -1.7813 -1.1382
45185SOL     OW40684   0.010   4.104   3.801 -0.4086  0.2579 -0.3364
45185SOL    HW140685  -0.015   4.056   3.722  0.4438  0.4668 -0.7307
45185SOL    HW240686   0.047   4.186   3.769  3.1066 -1.0615  0.1292
45186SOL     OW40687   1.343   7.535  10.787 -0.0221 -0.1854 -0.3976
45186SOL    HW140688   1.307   7.496  10.866 -1.0317  0.2863 -0.6224
45186SOL    HW240689   1.417   7.588  10.818 -0.1246 -0.3743  0.1738
45187SOL     OW40690   6.091   5.355   0.453  1.0486  0.3684 -0.3290
45187SOL    HW140691   6.029   5.428   0.450  0.9094  0.3012  0.8393
45187SOL    HW240692   6.038   5.277   0.435  0.3385  0.0433  2.8996
45188SOL     OW40693   9.030   0.147   9.918 -0.3871 -0.6769 -0.2561
45188SOL    HW140694   9.023   0.103   9.833 -0.1660 -1.1973 -0.0035
45188SOL    HW240695   9.117   0.125   9.949 -0.1620  0.1903 -0.2624
45189SOL     OW40696   3.207   9.174   2.937  0.2559 -0.2613 -0.7264
45189SOL    HW140697   3.142   9.104   2.931 -0.7892  0.6741 -0.4306
45189SOL    HW240698   3.291   9.131   2.918 -0.1452 -1.9433  1.1798
45190SOL     OW40699   1.130   0.327   3.806 -0.3100  0.4234 -0.0528
45190SOL    HW140700   1.089   0.261   3.751  1.4357  0.1113 -1.0247
45190SOL    HW240701   1.067   0.400   3.807 -0.4245  0.4032 -2.4021
45191SOL     OW40702   9.913   0.592   6.904 -0.3063 -0.7171 -0.4487
45191SOL    HW140703   9.939   0.684   6.911 -0.1845 -0.7706 -0.1832
45191SOL    HW240704   9.944   0.553   6.986 -1.5028 -0.7138  0.0096
45192SOL     OW40705   7.769   3.971   3.037 -0.0629  0.2931 -0.1540
45192SOL    HW140706   7.848   3.973   2.983  0.2984  0.4763  0.3714
45192SOL    HW240707   7.763   4.060   3.073 -1.2190  0.6556 -1.1985
45193SOL     OW40708   8.832   4.657   7.650  0.1331 -0.4116  0.5831
45193SOL    HW140709   8.894   4.647   7.577  0.6370  1.6978  0.6763
45193SOL    HW240710   8.759   4.705   7.613 -1.1326 -2.2153  0.6793
45194SOL     OW40711   1.863   6.774   4.785 -0.4858  0.2938 -0.6892
45194SOL    HW140712   1.829   6.694   4.745  1.4523 -0.7901 -0.2214
45194SOL    HW240713   1.861   6.757   4.879  0.2365  0.6779 -0.6034
45195SOL     OW40714   0.833  11.328   7.108  0.3519  0.2333  0.3118
45195SOL    HW140715   0.922  11.325   7.074  0.5679 -0.9424  0.9331
45195SOL    HW240716   0.835  11.395   7.176  0.8677 -0.0451  0.5734
45196SOL     OW40717   9.891   1.993   6.356  0.2910 -0.2016 -0.3666
45196SOL    HW140718   9.863   1.921   6.413  1.1961 -0.7908 -0.6667
45196SOL    HW240719   9.975   2.022   6.393 -1.0252  2.0596  0.9867
45197SOL     OW40720   0.320   9.256   4.475  0.1507  0.0234  0.1620
45197SOL    HW140721   0.262   9.257   4.398  0.0571  1.2619  0.2379
45197SOL    HW240722   0.332   9.348   4.496  1.1470 -0.2817  0.9157
45198SOL     OW40723   3.162   0.220   4.528 -0.7503  0.4645  0.4818
45198SOL    HW140724   3.184   0.295   4.584 -0.6221  1.8052 -1.3210
45198SOL    HW240725   3.246   0.181   4.506 -0.8472 -0.5231  1.8254
45199SOL     OW40726   3.413   1.587   2.937  0.4056  0.1044  0.3506
45199SOL    HW140727   3.409   1.532   2.859 -3.3266 -0.4891  0.8344
45199SOL    HW240728   3.433   1.526   3.008 -0.1948 -0.0605  0.3850
45200SOL     OW40729   9.003   6.459   1.197 -0.4480 -0.3392 -0.8176
45200SOL    HW140730   9.040   6.483   1.112  0.8351  1.1678  0.1197
45200SOL    HW240731   8.927   6.517   1.207 -0.6339 -0.5587 -0.9692
45201SOL     OW40732   5.559   6.668   0.978  0.3923  0.1208 -0.0616
45201SOL    HW140733   5.593   6.633   1.060  0.4991 -0.7619 -0.4666
45201SOL    HW240734   5.464   6.658   0.985  0.4322 -0.3840 -0.2333
45202SOL     OW40735   9.212  11.309   1.196  0.1727  0.4313  0.1665
45202SOL    HW140736   9.143  11.336   1.256 -1.0012  1.2008 -1.5134
45202SOL    HW240737   9.271  11.384   1.192 -0.0328  0.5778 -0.0704
45203SOL     OW40738  11.162   8.488   2.611 -0.3516 -0.5609  0.0666
45203SOL    HW140739  11.075   8.482   2.573 -0.5859  0.2742  0.4726
45203SOL    HW240740  11.216   8.529   2.543 -0.3212 -0.8520 -0.0889
45204SOL     OW40741   0.294   7.812   9.772 -0.4541  0.0280 -0.1035
45204SOL    HW140742   0.324   7.722   9.782  0.4022  0.3047 -0.0995
45204SOL    HW240743   0.243   7.829   9.851 -1.0327 -0.6131 -0.3365
45205SOL     OW40744   0.782   5.390   3.090 -0.3675 -0.1087 -0.0774
45205SOL    HW140745   0.776   5.457   3.022 -1.7663  1.5936  1.7069
45205SOL    HW240746   0.842   5.427   3.155 -1.1766 -0.5457  0.9354
45206SOL     OW40747   8.513  10.405   2.015 -0.1926  0.3752 -0.5792
45206SOL    HW140748   8.565  10.403   1.935  1.0015 -1.6765  0.2067
45206SOL    HW240749   8.570  10.446   2.080  0.1042 -0.9592  0.0267
45207SOL     OW40750  11.194   8.001   2.978 -0.1036 -0.3882 -0.3277
45207SOL    HW140751  11.243   7.929   2.938 -0.1848 -0.1354 -0.8835
45207SOL    HW240752  11.169   7.967   3.064 -0.1238 -1.0193 -0.5747
45208SOL     OW40753   9.646   1.888  11.150  0.4413  0.6315  0.1293
45208SOL    HW140754   9.658   1.819  11.215 -2.5311  0.0485  0.1089
45208SOL    HW240755   9.652   1.969  11.200 -0.9874  0.2121  0.9830
45209SOL     OW40756   8.442   3.558   4.147 -0.8510  0.5402 -0.2101
45209SOL    HW140757   8.515   3.596   4.098 -0.9684 -0.5163 -1.2253
45209SOL    HW240758   8.454   3.463   4.140 -1.6037  0.3639  0.7034
45210SOL     OW40759   3.278   5.318   2.209  0.1104 -0.1540 -1.1152
45210SOL    HW140760   3.246   5.386   2.268  0.2813 -1.9562  1.0992
45210SOL    HW240761   3.219   5.244   2.222  0.6990 -0.9114 -2.5544
45211SOL     OW40762  10.377  10.809   7.730  0.0770 -0.5669  0.1846
45211SOL    HW140763  10.387  10.801   7.636  0.4551  0.4267  0.1288
45211SOL    HW240764  10.288  10.778   7.748 -0.3833  0.2564 -0.6418
45212SOL     OW40765   6.717   9.884   4.396 -0.3930 -0.3437  0.3377
45212SOL    HW140766   6.624   9.905   4.400 -0.3680 -0.1340 -0.1343
45212SOL    HW240767   6.748   9.898   4.485 -0.5550  0.8511  0.2165
45213SOL     OW40768   1.386   6.518   7.764 -0.5194 -0.5347  0.2368
45213SOL    HW140769   1.461   6.484   7.813 -1.0086  0.3665  1.6121
45213SOL    HW240770   1.310   6.473   7.802 -0.7605 -0.9534 -0.7112
45214SOL     OW40771   6.750   0.630   8.342  0.4918  0.6889 -0.0580
45214SOL    HW140772   6.707   0.546   8.358 -1.6466  1.9103  0.7748
45214SOL    HW240773   6.678   0.690   8.323  2.0328  2.2403 -1.0862
45215SOL     OW40774   3.585   9.497   0.347 -0.0111 -0.0323  0.4876
45215SOL    HW140775   3.607   9.405   0.355 -0.2358 -0.0846  0.5226
45215SOL    HW240776   3.668   9.540   0.327  0.0735 -0.2563  0.3564
45216SOL     OW40777   3.101   4.716   5.908 -0.3746  0.3659 -0.4166
45216SOL    HW140778   3.037   4.698   5.977 -0.1050 -0.0648 -0.2720
45216SOL    HW240779   3.152   4.635   5.902 -1.2366 -0.0805 -2.0323
45217SOL     OW40780   1.859   5.656   6.937 -0.4069 -0.2248 -1.0548
45217SOL    HW140781   1.826   5.725   6.994 -3.0510 -0.7807 -1.8209
45217SOL    HW240782   1.906   5.702   6.867  2.8568  0.4582  1.4900
45218SOL     OW40783   7.215   4.314   3.246 -0.0954 -0.4260 -0.3023
45218SOL    HW140784   7.284   4.346   3.188 -0.6479  1.6838  0.1326
45218SOL    HW240785   7.147   4.282   3.187  0.0507  0.1676 -0.7995
45219SOL     OW40786  10.687   7.687   4.207 -0.0834 -0.2880 -0.0659
45219SOL    HW140787  10.606   7.737   4.221 -0.5037 -1.1803  0.8164
45219SOL    HW240788  10.731   7.689   4.292 -0.1278 -1.4525 -0.0108
45220SOL     OW40789   5.576   4.097   8.496 -0.2157 -1.1258  0.3370
45220SOL    HW140790   5.511   4.034   8.528 -1.7284  0.5034  0.5836
45220SOL    HW240791   5.529   4.149   8.430  0.3979  0.9497  1.4673
45221SOL     OW40792   1.980   3.090  11.113 -0.6061  0.2079  0.3685
45221SOL    HW140793   1.921   3.164  11.129  0.4175  0.7653  1.7398
45221SOL    HW240794   2.050   3.126  11.059  1.0201  0.8409  2.8060
45222SOL     OW40795   1.308   4.720   1.323 -0.2732 -0.0411 -0.0145
45222SOL    HW140796   1.254   4.653   1.282  0.5459  0.1045 -1.3491
45222SOL    HW240797   1.320   4.786   1.255  1.2145  0.1520  0.4293
45223SOL     OW40798   0.210   3.417   8.895 -0.4955  0.2911 -0.2128
45223SOL    HW140799   0.263   3.451   8.822  0.6398 -2.0114 -0.5105
45223SOL    HW240800   0.216   3.485   8.962  0.1497  1.5338 -1.4933
45224SOL     OW40801   8.921   6.928   2.904  0.1922 -0.2249 -0.2281
45224SOL    HW140802   8.851   6.973   2.857 -0.9534 -0.6195  1.0713
45224SOL    HW240803   8.989   6.996   2.916 -1.3415  1.1004  1.3376
45225SOL     OW40804   5.552  10.931   3.418  0.1915 -0.0739  0.5046
45225SOL    HW140805   5.570  10.855   3.473 -0.0722 -1.4306 -1.2247
45225SOL    HW240806   5.457  10.941   3.421  0.1407 -0.3743  0.0396
45226SOL     OW40807   4.130   3.155   8.011 -0.0042 -0.1235  0.0542
45226SOL    HW140808   4.149   3.120   7.924 -1.4604  0.3335 -0.4675
45226SOL    HW240809   4.038   3.183   8.006  0.2095  0.8804  1.4135
45227SOL     OW40810   2.457   1.621   6.544 -0.1124 -0.2156 -0.5568
45227SOL    HW140811   2.539   1.634   6.592 -0.1324 -0.3697 -0.4812
45227SOL    HW240812   2.395   1.592   6.611 -0.4171  0.5978 -0.4742
45228SOL     OW40813   9.708   1.022   5.878 -0.1422 -0.8061 -0.7277
45228SOL    HW140814   9.684   0.931   5.893 -1.2817 -0.2536  1.0259
45228SOL    HW240815   9.691   1.065   5.962  0.9538  0.8965 -1.3573
45229SOL     OW40816   9.053   5.431   2.884 -0.3383  0.0810  0.6040
45229SOL    HW140817   9.124   5.435   2.948 -1.6243  0.1355  2.0521
45229SOL    HW240818   9.003   5.353   2.908 -0.9117  0.1807 -0.2397
45230SOL     OW40819   6.034   2.957   1.408  0.1232 -0.0932 -0.3765
45230SOL    HW140820   6.097   3.026   1.431 -0.4042  0.4008 -0.3955
45230SOL    HW240821   6.049   2.940   1.315  1.8410 -1.6548  0.1627
45231SOL     OW40822   1.220   1.211   5.467  0.5424  0.0001 -1.0930
45231SOL    HW140823   1.204   1.186   5.558 -1.5076 -0.9485 -1.7019
45231SOL    HW240824   1.315   1.227   5.464  0.8365 -1.1000  0.9289
45232SOL     OW40825   6.868   9.687   3.661  0.3688 -0.2821 -0.0764
45232SOL    HW140826   6.791   9.740   3.641  1.2889  0.1422 -2.6678
45232SOL    HW240827   6.917   9.740   3.724 -0.9565 -0.1436  0.8739
45233SOL     OW40828   8.954   4.569   0.881  0.8289 -0.0912 -0.3525
45233SOL    HW140829   8.933   4.589   0.790 -3.4242 -1.1450  0.2793
45233SOL    HW240830   8.943   4.652   0.927  0.9918  0.0163 -0.5081
45234SOL     OW40831  10.813   3.471   3.890 -0.2747  0.6149  0.2529
45234SOL    HW140832  10.904   3.501   3.887  0.3050 -1.0314  0.9298
45234SOL    HW240833  10.799   3.444   3.981 -0.9357 -0.6183 -0.1980
45235SOL     OW40834   4.699   5.288   8.099 -0.0334  0.4824 -0.5795
45235SOL    HW140835   4.665   5.220   8.041 -0.9031  0.5995 -0.2172
45235SOL    HW240836   4.701   5.248   8.186  2.4635 -0.1002 -0.8803
45236SOL     OW40837   7.077   1.497   0.717 -0.4249 -0.5233  0.0035
45236SOL    HW140838   7.017   1.571   0.729  0.2322  0.1656 -0.8876
45236SOL    HW240839   7.149   1.514   0.777 -0.0914 -0.2389 -0.4735
45237SOL     OW40840   7.500   2.648   2.916 -0.4691 -0.3599 -0.0942
45237SOL    HW140841   7.568   2.631   2.851  0.3700 -0.4672  0.7930
45237SOL    HW240842   7.420   2.616   2.876  0.0365 -0.4411 -1.0641
45238SOL     OW40843   7.147   1.612   5.981  0.2475 -0.0904  0.1159
45238SOL    HW140844   7.188   1.688   5.940  1.6420 -1.5697 -1.2570
45238SOL    HW240845   7.093   1.649   6.051  2.3093  2.0157  0.6205
45239SOL     OW40846   4.708   0.717   6.231 -0.6374 -0.0685 -0.5673
45239SOL    HW140847   4.744   0.728   6.143 -0.9325  2.5345 -0.4027
45239SOL    HW240848   4.782   0.734   6.290 -0.8967  0.1802 -0.3085
45240SOL     OW40849   9.472   9.448   4.499  0.8435  0.2725  0.2735
45240SOL    HW140850   9.431   9.383   4.556  0.3951  2.4557  2.5376
45240SOL    HW240851   9.510   9.397   4.428 -1.8465 -2.2135  0.5237
45241SOL     OW40852   4.410   7.265   1.624  0.3199 -1.0112  0.2938
45241SOL    HW140853   4.325   7.297   1.653  0.3612 -0.8257  0.2067
45241SOL    HW240854   4.397   7.170   1.615 -0.1232 -0.8671 -0.5785
45242SOL     OW40855   5.276   7.954   7.164  0.0029 -0.0420  0.0955
45242SOL    HW140856   5.209   7.992   7.221 -0.0808 -1.5078  0.9945
45242SOL    HW240857   5.359   7.985   7.201 -0.1548  1.8615 -1.0813
45243SOL     OW40858  11.205   2.390   1.272  0.0849 -0.1933  0.2143
45243SOL    HW140859  11.191   2.299   1.245 -3.4630 -0.2087  1.8032
45243SOL    HW240860  11.222   2.385   1.366  0.6157  0.7208  0.1674
45244SOL     OW40861   3.731  10.330   3.191  0.9714 -0.6150  0.7774
45244SOL    HW140862   3.683  10.395   3.241  1.2787 -1.7377  2.5742
45244SOL    HW240863   3.760  10.377   3.112 -0.3799  0.8957  1.1507
45245SOL     OW40864   2.804   2.990   9.807  0.6364 -0.2423 -0.2199
45245SOL    HW140865   2.779   2.903   9.838  0.8276 -0.0754  0.4059
45245SOL    HW240866   2.853   2.973   9.726  0.6658 -0.7179 -0.1043
45246SOL     OW40867   5.891   3.228   6.997 -0.4622 -0.1411  0.3015
45246SOL    HW140868   5.857   3.251   7.084 -0.3269  1.3093 -0.0252
45246SOL    HW240869   5.984   3.251   7.001 -0.0832 -1.5949  0.2944
45247SOL     OW40870   1.117   5.076   8.495 -0.0433  0.2797  0.5361
45247SOL    HW140871   1.026   5.047   8.505  0.5862 -1.8178  0.5290
45247SOL    HW240872   1.111   5.169   8.473 -2.2355 -0.1463 -0.7650
45248SOL     OW40873   3.623   0.694   2.831 -0.2243 -0.1678  0.5073
45248SOL    HW140874   3.650   0.604   2.850  3.3541  1.2105  2.4818
45248SOL    HW240875   3.681   0.722   2.760  0.2300  1.2722  1.4172
45249SOL     OW40876   3.718   8.727   8.190 -0.9209  0.3219  0.0333
45249SOL    HW140877   3.650   8.695   8.131 -1.6951 -1.7560  1.9819
45249SOL    HW240878   3.671   8.751   8.270  0.3400  1.3714  0.4921
45250SOL     OW40879   7.874   3.632   4.582 -0.0137  0.0961 -0.0850
45250SOL    HW140880   7.851   3.564   4.645 -1.9515  2.6968  2.1070
45250SOL    HW240881   7.821   3.613   4.505  0.3134 -1.5055  0.0735
45251SOL     OW40882   6.096   0.849   1.758  0.5384 -0.2801 -0.1044
45251SOL    HW140883   6.177   0.818   1.797  0.2735  2.9164  3.3457
45251SOL    HW240884   6.027   0.803   1.806  0.2448 -1.5716 -1.7218
45252SOL     OW40885   6.983   0.153   8.201 -0.0852  0.0179 -0.1110
45252SOL    HW140886   6.996   0.203   8.282 -1.4470 -1.0266  0.7768
45252SOL    HW240887   6.937   0.213   8.143 -0.5303  0.2422  0.4684
45253SOL     OW40888   0.390   8.291   1.417 -0.1665  0.4095 -0.1417
45253SOL    HW140889   0.481   8.294   1.389  0.3588 -0.6855  1.4291
45253SOL    HW240890   0.348   8.230   1.356  0.4651 -0.2214  0.0592
45254SOL     OW40891   3.985   8.669   3.618  0.7082  0.6540  0.0237
45254SOL    HW140892   4.001   8.753   3.576  0.5748 -0.9628 -3.5099
45254SOL    HW240893   3.889   8.661   3.619  0.7156  0.6558  0.5350
45255SOL     OW40894   1.948   8.695   1.152  0.2760  0.1019 -0.1792
45255SOL    HW140895   1.869   8.721   1.106 -0.0748 -1.1257 -0.3017
45255SOL    HW240896   2.018   8.747   1.112  0.4341 -2.9037 -4.0982
45256SOL     OW40897   1.410   0.265   0.156 -0.2513 -0.0713  0.0222
45256SOL    HW140898   1.410   0.191   0.096 -0.5821 -1.7637  2.0743
45256SOL    HW240899   1.480   0.247   0.218  0.5331  1.9960 -0.2181
45257SOL     OW40900   0.276   0.272   4.387 -0.5118  0.1323 -0.5302
45257SOL    HW140901   0.354   0.254   4.439 -1.4571 -0.3868  0.7286
45257SOL    HW240902   0.203   0.239   4.440 -1.5282 -0.0901 -2.0271
45258SOL     OW40903   4.563   8.872  11.106 -0.1637 -0.1111 -0.1998
45258SOL    HW140904   4.471   8.872  11.131 -0.2651  1.9043 -0.4332
45258SOL    HW240905   4.578   8.961  11.072  1.2759 -1.1430 -2.3611
45259SOL     OW40906   5.720  10.052   1.223  0.5238  0.3116  0.1686
45259SOL    HW140907   5.755   9.998   1.293  1.5602 -0.9263 -1.2803
45259SOL    HW240908   5.702   9.991   1.151  0.1418  1.6437 -0.9017
45260SOL     OW40909   4.957  10.850   7.617  0.1267 -0.8046  0.4871
45260SOL    HW140910   5.022  10.881   7.553 -0.7597 -2.2725 -1.1662
45260SOL    HW240911   5.000  10.859   7.701  1.6597  0.3400 -0.3904
45261SOL     OW40912   0.017   6.285   1.154  0.6580 -0.9911 -0.2760
45261SOL    HW140913   0.099   6.301   1.200 -0.9370 -0.7811  2.5482
45261SOL    HW240914   0.008   6.189   1.153 -0.7286 -0.9331  2.5051
45262SOL     OW40915  10.772   7.567  11.183 -0.3828 -0.4394 -0.4520
45262SOL    HW140916  10.707   7.604  11.244  0.8257  1.0697 -0.0489
45262SOL    HW240917  10.812   7.644  11.142  1.5656 -1.3249 -0.2463
45263SOL     OW40918   9.332   6.946   0.947 -0.0464  0.1034 -0.3769
45263SOL    HW140919   9.347   7.037   0.922  1.7823 -0.1273 -0.1750
45263SOL    HW240920   9.295   6.906   0.869 -0.8174  0.9964 -0.4861
45264SOL     OW40921  10.685   4.713   1.955 -0.7260 -0.3124  0.2132
45264SOL    HW140922  10.763   4.659   1.947 -0.2368  0.0051  2.4387
45264SOL    HW240923  10.617   4.653   1.984 -0.8424 -0.2248  0.1235
45265SOL     OW40924   6.589   6.002   7.318  0.2063  0.1259  0.0719
45265SOL    HW140925   6.656   5.949   7.273  0.2453 -0.3170  0.6415
45265SOL    HW240926   6.535   6.037   7.248  1.4294  1.0232 -0.4447
45266SOL     OW40927  10.303   6.197   0.290 -0.3073 -0.2741 -0.0907
45266SOL    HW140928  10.336   6.250   0.217 -0.7960  0.1540 -0.0016
45266SOL    HW240929  10.344   6.111   0.277  2.2022  0.7108  0.9738
45267SOL     OW40930  10.160   2.100   3.009 -0.4123 -0.2991  0.0078
45267SOL    HW140931  10.136   2.193   3.004  0.2714 -0.1079  0.3383
45267SOL    HW240932  10.186   2.086   3.100  1.4865 -0.3331 -0.5360
45268SOL     OW40933   1.751  10.409   8.700 -0.3474 -0.4687  0.9163
45268SOL    HW140934   1.782  10.493   8.665 -0.0388 -1.2183 -0.6575
45268SOL    HW240935   1.656  10.413   8.691 -0.3579 -0.1654  1.1400
45269SOL     OW40936  11.308   9.068   9.955 -0.6965 -0.2092  0.6643
45269SOL    HW140937  11.233   9.127   9.950 -1.8140 -1.6008  0.7055
45269SOL    HW240938  11.312   9.042  10.048  0.7912  1.0474  0.9775
45270SOL     OW40939   8.088   7.149   1.579 -0.4223 -0.0404  0.6140
45270SOL    HW140940   8.045   7.137   1.494 -1.0711 -2.0205  1.1928
45270SOL    HW240941   8.031   7.210   1.626 -1.0111 -0.3491  0.2979
45271SOL     OW40942   9.007  10.487  10.032 -0.0146 -0.0664 -0.3179
45271SOL    HW140943   8.928  10.538  10.049  0.5064  1.1840 -1.5882
45271SOL    HW240944   8.974  10.406   9.992 -0.7992 -0.4742  1.1246
45272SOL     OW40945   2.523   3.038   0.588 -0.1759  0.3211  0.6136
45272SOL    HW140946   2.518   3.017   0.681  1.3517 -1.5888  0.2967
45272SOL    HW240947   2.542   2.954   0.545  1.7802  1.6087 -1.1495
45273SOL     OW40948   4.785   1.364   6.013 -0.1349 -0.4289 -0.4650
45273SOL    HW140949   4.811   1.429   5.947 -1.4186  1.4710  0.8464
45273SOL    HW240950   4.798   1.408   6.096 -0.2655 -2.1696  0.5022
45274SOL     OW40951   2.981   0.511   2.641 -0.5828  0.0892 -0.3914
45274SOL    HW140952   3.057   0.568   2.650 -0.5864 -0.0775  0.7828
45274SOL    HW240953   3.019   0.425   2.619 -0.5015  0.2353 -0.8377
45275SOL     OW40954  10.360   6.636  10.612 -0.8200  0.5292  0.1082
45275SOL    HW140955  10.355   6.584  10.532  0.5127  0.3843  0.1099
45275SOL    HW240956  10.370   6.726  10.581 -0.7937  0.5265  0.1098
45276SOL     OW40957   3.257   5.030  10.207 -0.0158  0.2954  0.2288
45276SOL    HW140958   3.353   5.032  10.205  0.0398 -0.8711  1.0802
45276SOL    HW240959   3.234   4.944  10.172 -0.7104  0.1885  0.9221
45277SOL     OW40960   6.019   9.309   9.552 -0.5698  0.3483 -0.3367
45277SOL    HW140961   6.000   9.386   9.498  0.2391  1.3374  0.7664
45277SOL    HW240962   6.100   9.330   9.598  0.4585 -1.7558 -1.0930
45278SOL     OW40963  11.146   8.611   1.397 -0.2020 -0.3480  0.4957
45278SOL    HW140964  11.151   8.597   1.302  0.2604 -1.2083  0.6487
45278SOL    HW240965  11.054   8.634   1.413 -0.6824 -1.9415  0.0736
45279SOL     OW40966   6.624   6.923   3.500 -0.2468 -0.7231  0.0661
45279SOL    HW140967   6.646   6.986   3.569 -2.5683  3.0606 -2.4381
45279SOL    HW240968   6.709   6.896   3.465  0.8452  1.2070  1.1260
45280SOL     OW40969   1.511   9.072   1.920  0.1700 -0.3312  0.8045
45280SOL    HW140970   1.423   9.086   1.954  0.5186 -1.7180  2.3520
45280SOL    HW240971   1.567   9.128   1.974  0.4175 -0.6248  0.8568
45281SOL     OW40972   3.842   6.922   1.108  0.0582 -0.1202 -0.2985
45281SOL    HW140973   3.886   6.884   1.032 -0.9274  1.0023 -1.4350
45281SOL    HW240974   3.760   6.957   1.074  0.0596  1.2966  1.1071
45282SOL     OW40975  10.744   1.250  10.347  0.2806 -0.6164  0.0732
45282SOL    HW140976  10.838   1.271  10.344  0.3049 -0.6009  0.8027
45282SOL    HW240977  10.705   1.305  10.279  0.6671  0.0928  0.4148
45283SOL     OW40978   9.305   2.651   4.898  0.3076 -0.0862 -0.0291
45283SOL    HW140979   9.234   2.634   4.837  0.5329 -1.4433  0.0756
45283SOL    HW240980   9.331   2.565   4.930  1.5165  0.4527  0.4880
45284SOL     OW40981   6.003   3.918   4.424  0.3369  0.2682  0.5356
45284SOL    HW140982   6.037   3.849   4.480  0.5957  0.1371  0.2195
45284SOL    HW240983   5.964   3.981   4.484 -1.7493 -1.1511  0.7289
45285SOL     OW40984   7.976   7.878  11.316 -0.4778 -0.1818 -0.2198
45285SOL    HW140985   7.953   7.841  11.402  0.4331  1.6506  0.8377
45285SOL    HW240986   8.023   7.807  11.272  1.2992 -0.3278  1.8107
45286SOL     OW40987   3.930   5.942   6.246 -0.3249  0.0721  0.1591
45286SOL    HW140988   3.969   5.855   6.250  0.8489  0.6278  1.0771
45286SOL    HW240989   3.968   5.989   6.320 -2.8948  0.5717  1.2254
45287SOL     OW40990   9.844   5.542   5.028 -0.3342  0.0019  0.1107
45287SOL    HW140991   9.904   5.483   4.983  0.1068 -0.7320  1.6461
45287SOL    HW240992   9.792   5.581   4.957  0.7061 -0.7217 -1.0745
45288SOL     OW40993   2.991   5.384   3.809  0.2152 -0.5932  0.0558
45288SOL    HW140994   3.000   5.401   3.715  0.2219  0.6733  0.2734
45288SOL    HW240995   3.037   5.301   3.823  1.4266 -0.0805 -0.8207
45289SOL     OW40996   1.546   0.671   7.055 -0.3876  0.3248 -0.1635
45289SOL    HW140997   1.453   0.655   7.070 -0.2808  1.5216  1.8749
45289SOL    HW240998   1.570   0.738   7.119  1.6937  0.6379 -1.2171
45290SOL     OW40999   7.443   4.639   2.546 -0.6327 -0.0199  0.4569
45290SOL    HW141000   7.466   4.549   2.523 -0.5064  0.4030 -1.1765
45290SOL    HW241001   7.358   4.633   2.589  0.2908 -1.1159  2.1598
45291SOL     OW41002   2.929   8.677  11.072  0.7545  0.0381 -0.1143
45291SOL    HW141003   2.834   8.674  11.080  0.7856  0.8507  0.6511
45291SOL    HW241004   2.961   8.621  11.143  0.8524  0.1780 -0.0478
45292SOL     OW41005   2.053   1.552   3.818  0.0039  0.7667  0.0860
45292SOL    HW141006   2.123   1.592   3.766  0.6454 -1.2559 -0.6742
45292SOL    HW241007   1.986   1.530   3.753 -1.6014  3.1362  0.8730
45293SOL     OW41008   4.103   2.376   2.011  0.1378  0.3145  0.4390
45293SOL    HW141009   4.173   2.369   1.947  0.0497 -0.2932  0.4019
45293SOL    HW241010   4.025   2.345   1.965  0.2791 -1.1407  1.1606
45294SOL     OW41011   8.778   4.335   5.911  0.0185 -0.5903 -0.1792
45294SOL    HW141012   8.866   4.356   5.942  0.9079 -0.2842 -2.7690
45294SOL    HW241013   8.792   4.263   5.850 -1.2318  0.9453 -2.3234
45295SOL     OW41014   4.858   3.301   7.265 -0.1711  0.1769  0.5100
45295SOL    HW141015   4.853   3.378   7.209  0.0013  0.2745  0.6280
45295SOL    HW241016   4.945   3.305   7.304  0.1614 -0.5428 -0.1470
45296SOL     OW41017   9.682   8.010   3.840 -0.7933  0.2700  0.2395
45296SOL    HW141018   9.767   8.040   3.807 -0.6470  0.1899  0.5456
45296SOL    HW241019   9.703   7.963   3.920 -1.0269 -0.6087 -0.2083
45297SOL     OW41020   3.739   3.236   7.180 -0.4909  0.1731 -0.1428
45297SOL    HW141021   3.686   3.315   7.195  1.1219  1.3764 -0.6496
45297SOL    HW241022   3.679   3.175   7.136 -1.3096  1.7088 -1.1945
45298SOL     OW41023   1.533   3.077   3.740  0.0568  0.0258 -0.4674
45298SOL    HW141024   1.562   3.138   3.807 -1.3658  1.0956 -0.7905
45298SOL    HW241025   1.468   3.022   3.784 -0.9892  0.8272 -0.9726
45299SOL     OW41026  11.223   1.403   8.309 -0.3475 -0.6624  0.6337
45299SOL    HW141027  11.206   1.383   8.401 -1.3980 -0.5698  0.4682
45299SOL    HW241028  11.311   1.441   8.309 -0.7168  0.2412  1.7348
45300SOL     OW41029   4.318   6.271   9.509  0.0803 -0.0557 -0.1972
45300SOL    HW141030   4.304   6.356   9.467 -1.4326 -0.7370 -1.1346
45300SOL    HW241031   4.329   6.210   9.436 -0.6619 -0.9495  0.4304
45301SOL     OW41032   9.969   2.195   7.183 -0.2704 -0.0570 -0.1291
45301SOL    HW141033   9.904   2.239   7.238  0.6678 -1.2611  2.0349
45301SOL    HW241034  10.052   2.238   7.205  0.4019 -1.7668  0.8275
45302SOL     OW41035   3.138  10.012   9.942  0.6736 -0.1569 -0.0816
45302SOL    HW141036   3.112  10.065   9.866  2.6206 -0.1698 -0.7888
45302SOL    HW241037   3.164  10.075  10.008 -0.6978 -0.1540  0.4763
45303SOL     OW41038  10.778  11.334   6.338 -0.1790  0.4582  0.2492
45303SOL    HW141039  10.809  11.412   6.383  1.6124 -0.9296  1.4943
45303SOL    HW241040  10.733  11.284   6.407 -0.1421 -0.2404 -0.2300
45304SOL     OW41041  10.556   5.834   9.318 -0.1970  0.1804  0.3878
45304SOL    HW141042  10.551   5.865   9.227 -0.1780 -1.6106 -0.2408
45304SOL    HW241043  10.639   5.869   9.350  1.1065 -1.3863 -1.1688
45305SOL     OW41044   7.651  10.283  10.930  0.3465 -0.9936 -0.4209
45305SOL    HW141045   7.718  10.215  10.928  1.2491 -0.1170 -0.0516
45305SOL    HW241046   7.630  10.293  11.023  0.4779 -0.5163 -0.4411
45306SOL     OW41047  10.593   1.039   0.247  0.8583 -0.1314  0.2179
45306SOL    HW141048  10.578   1.035   0.342 -0.9844 -0.4784 -0.0639
45306SOL    HW241049  10.559   0.956   0.214 -1.3523  1.2358 -1.0883
45307SOL     OW41050   0.615   2.467  10.323  0.1364  0.4762 -0.1010
45307SOL    HW141051   0.589   2.528  10.254  1.0315  1.3296  0.3051
45307SOL    HW241052   0.548   2.399  10.321  0.8370 -0.2231 -2.7018
45308SOL     OW41053  10.559   3.478  10.853  0.0731 -0.3719 -0.2260
45308SOL    HW141054  10.556   3.545  10.922  0.3020 -0.4520 -0.1348
45308SOL    HW241055  10.484   3.422  10.870 -2.6649  2.3250 -2.8632
45309SOL     OW41056  10.568   9.168   0.695 -0.3487 -0.6095 -0.1341
45309SOL    HW141057  10.489   9.123   0.664 -0.3728 -0.0266 -0.9269
45309SOL    HW241058  10.627   9.167   0.620 -0.3629  0.7066 -0.1715
45310SOL     OW41059   4.941   2.206   7.747 -0.7583 -0.0254  0.2519
45310SOL    HW141060   4.963   2.143   7.815  1.1997  1.2564  0.8736
45310SOL    HW241061   4.971   2.165   7.666 -1.8428 -0.9762  0.3297
45311SOL     OW41062   7.254   6.881   1.601 -0.4672 -1.0834  0.6540
45311SOL    HW141063   7.285   6.860   1.513 -0.3572 -1.4803  0.7843
45311SOL    HW241064   7.199   6.806   1.626 -2.5855  0.1865 -0.0729
45312SOL     OW41065   8.881  10.469   6.040 -0.0779  0.0188 -0.1177
45312SOL    HW141066   8.849  10.531   5.974  1.7971 -0.5778 -1.6499
45312SOL    HW241067   8.865  10.383   6.001  0.5777 -0.3506  0.4213
45313SOL     OW41068   6.600  10.910   2.381 -0.0204 -0.5185 -0.7094
45313SOL    HW141069   6.685  10.870   2.400  0.2232  0.4351  0.2380
45313SOL    HW241070   6.615  10.963   2.303  1.2214  2.6249  1.5799
45314SOL     OW41071   2.487   3.926   9.221  0.3259  0.0182  0.4920
45314SOL    HW141072   2.509   4.014   9.190  0.0535 -0.1660 -0.2262
45314SOL    HW241073   2.572   3.882   9.228  0.3066 -0.3697 -1.3226
45315SOL     OW41074   4.998   3.342  10.289 -0.3902 -0.0014 -0.4570
45315SOL    HW141075   5.077   3.387  10.318 -1.6812  1.7533  0.4192
45315SOL    HW241076   4.983   3.274  10.354 -1.0223  1.3193  0.7912
45316SOL     OW41077   9.431   0.098   3.817 -0.3332 -0.5280  0.0047
45316SOL    HW141078   9.470   0.066   3.898 -1.3599 -0.1660  0.6481
45316SOL    HW241079   9.442   0.193   3.821 -0.6806 -0.4814 -0.1224
45317SOL     OW41080   2.296   2.192   5.556 -0.0264  0.0879 -0.8663
45317SOL    HW141081   2.316   2.118   5.500 -2.4564 -2.3797  1.3522
45317SOL    HW241082   2.362   2.188   5.626  0.4698  0.6446 -1.3016
45318SOL     OW41083  10.504   5.535   0.947 -0.0368  0.1289 -0.0326
45318SOL    HW141084  10.597   5.551   0.963 -0.4547  3.4328 -0.4621
45318SOL    HW241085  10.471   5.500   1.029  1.8646 -2.6763 -0.3802
45319SOL     OW41086   8.023   0.395  10.180  0.7584 -0.1663 -0.4481
45319SOL    HW141087   8.075   0.460  10.133  0.8190  0.9161  1.0920
45319SOL    HW241088   7.961   0.363  10.114  0.8137  1.3530 -1.2814
45320SOL     OW41089   2.250   0.692   3.615 -0.1216 -0.4279 -0.4072
45320SOL    HW141090   2.198   0.714   3.539 -0.1919 -0.0849 -0.2603
45320SOL    HW241091   2.198   0.722   3.690 -0.1569 -0.9635 -0.2140
45321SOL     OW41092   3.240   8.131   5.741  0.6945  0.3003 -0.6108
45321SOL    HW141093   3.200   8.056   5.785  2.6982  0.1185  0.9502
45321SOL    HW241094   3.312   8.094   5.691  0.8911  1.0244 -0.8684
45322SOL     OW41095  11.135   5.704   1.987  0.0412  0.0165 -0.1278
45322SOL    HW141096  11.047   5.742   1.994  0.5512  1.0044  0.9125
45322SOL    HW241097  11.125   5.615   2.020 -0.2176  0.6569  1.5494
45323SOL     OW41098   5.466   9.895   2.216  0.1153  0.1119 -0.1343
45323SOL    HW141099   5.538   9.943   2.255  1.5606 -2.8553  0.9671
45323SOL    HW241100   5.506   9.816   2.179 -2.5662 -1.8328  0.8889
45324SOL     OW41101   6.258   6.128   6.412 -0.5773 -0.0462  0.2548
45324SOL    HW141102   6.183   6.103   6.358 -2.0602  1.1058  1.7239
45324SOL    HW241103   6.245   6.080   6.494 -0.2364  0.9030  0.8751
45325SOL     OW41104   5.271   4.579  10.085 -0.6285 -0.3555 -0.0977
45325SOL    HW141105   5.288   4.571  10.179 -0.0593 -1.4902 -0.2849
45325SOL    HW241106   5.326   4.652  10.057 -1.0095  0.1651  0.5003
45326SOL     OW41107   1.201  10.302   6.051 -0.3718 -0.2067 -1.1586
45326SOL    HW141108   1.234  10.225   6.004 -1.0982 -0.9724 -0.4219
45326SOL    HW241109   1.109  10.307   6.028 -0.9941 -1.2187  1.0140
45327SOL     OW41110   3.700   1.694   6.539  0.3176  0.2854 -0.5360
45327SOL    HW141111   3.721   1.785   6.556  0.1963  0.2427 -0.1538
45327SOL    HW241112   3.606   1.688   6.552  0.6066 -0.3183  1.4140
45328SOL     OW41113   1.056   8.627   5.964  0.4826  0.1589  0.6253
45328SOL    HW141114   1.120   8.660   6.027 -0.3185 -0.0693  1.5857
45328SOL    HW241115   0.975   8.674   5.985  0.8106  1.9347 -1.9031
45329SOL     OW41116   0.271  11.110   1.076  0.5064 -0.4319 -0.3131
45329SOL    HW141117   0.325  11.042   1.036  0.5276 -1.0793  0.7744
45329SOL    HW241118   0.294  11.190   1.029 -0.0562 -1.2896 -2.0991
45330SOL     OW41119   1.571  10.890   7.044  0.2422 -0.4115 -0.1461
45330SOL    HW141120   1.631  10.884   7.118  0.3092  2.5076  0.1059
45330SOL    HW241121   1.621  10.859   6.969  0.7877 -1.6220  0.7116
45331SOL     OW41122   5.787  10.586  11.268 -0.2116 -0.4534 -0.2177
45331SOL    HW141123   5.790  10.615  11.359  1.4031  1.2902 -0.7803
45331SOL    HW241124   5.697  10.602  11.241 -0.0931  1.3773  0.3653
45332SOL     OW41125   0.851   4.949   6.931 -0.6017  0.5305  0.3450
45332SOL    HW141126   0.942   4.928   6.907 -0.7424 -1.2971  1.3638
45332SOL    HW241127   0.806   4.960   6.847  0.1092 -0.5781 -0.1886
45333SOL     OW41128   5.139   3.941   0.023 -0.2206  0.1140  0.3756
45333SOL    HW141129   5.200   3.988   0.080 -0.8100  0.2200  0.9249
45333SOL    HW241130   5.120   3.860   0.070 -0.3533 -0.0091  0.1112
45334SOL     OW41131   6.541   7.036   7.646 -0.3472  0.1558  0.2274
45334SOL    HW141132   6.560   6.998   7.732 -1.0881 -0.4203  0.1409
45334SOL    HW241133   6.627   7.051   7.607  0.0061  0.5960  1.1407
45335SOL     OW41134   7.984   7.133   9.745 -0.1345 -0.0570  0.4347
45335SOL    HW141135   7.908   7.124   9.688  1.0874 -0.8620 -1.1225
45335SOL    HW241136   8.006   7.043   9.770  0.4073  0.1527  0.7209
45336SOL     OW41137   6.415   9.203   2.884  0.0349 -0.6360 -0.0680
45336SOL    HW141138   6.382   9.265   2.950 -0.2798 -1.5773  0.6713
45336SOL    HW241139   6.349   9.205   2.815  1.1753  1.5909 -1.1575
45337SOL     OW41140   1.889   6.550   6.457  0.0714 -0.2316 -0.5697
45337SOL    HW141141   1.865   6.631   6.503  1.9974 -0.7044  1.3666
45337SOL    HW241142   1.816   6.534   6.397 -1.6990  1.3823  1.0654
45338SOL     OW41143   5.049  10.211   0.089 -0.2070  0.2691  0.0355
45338SOL    HW141144   5.003  10.128   0.084  0.5603 -0.0518 -1.9490
45338SOL    HW241145   4.991  10.269   0.139 -1.5232 -0.9114 -0.1336
45339SOL     OW41146   2.646   4.452   6.586  0.0090 -0.3028 -0.5374
45339SOL    HW141147   2.646   4.500   6.669  0.2263  0.4809 -0.9884
45339SOL    HW241148   2.724   4.396   6.591  0.7843  0.7373 -0.7793
45340SOL     OW41149   2.016   5.897   7.087 -0.3023  0.1281  0.1711
45340SOL    HW141150   2.033   5.840   7.161  1.4186 -0.3337 -0.5526
45340SOL    HW241151   2.038   5.985   7.119 -1.9722  0.2770  0.9650
45341SOL     OW41152   1.922   5.217   7.607  0.4988 -0.1815  0.0716
45341SOL    HW141153   1.832   5.190   7.624  0.3788  0.8004  1.0141
45341SOL    HW241154   1.949   5.163   7.532 -1.1450  0.1266 -0.7655
45342SOL     OW41155   7.556   7.371   3.934  0.1565  0.3978  0.2291
45342SOL    HW141156   7.506   7.338   3.860  0.7482 -0.2202  0.0988
45342SOL    HW241157   7.506   7.344   4.011  1.3599 -2.1171  0.1914
45343SOL     OW41158   0.719  11.003   6.086 -0.2536  0.5270  0.0253
45343SOL    HW141159   0.663  10.926   6.080 -1.7790  1.6932 -1.1871
45343SOL    HW241160   0.683  11.053   6.159 -0.3799  0.9597 -0.3337
45344SOL     OW41161   7.093   2.612   7.063  0.4528 -0.2684  0.4780
45344SOL    HW141162   7.101   2.697   7.107 -0.8255  1.2086 -2.0560
45344SOL    HW241163   7.183   2.589   7.040  0.7235  0.8511  0.3754
45345SOL     OW41164   6.243   2.762  10.289  0.5368 -0.4329 -0.1886
45345SOL    HW141165   6.218   2.750  10.198  1.0991  0.9028 -0.5304
45345SOL    HW241166   6.221   2.853  10.308  2.0491 -0.1889  0.4732
45346SOL     OW41167   3.482   4.260   9.862 -0.5205 -0.0669  0.1235
45346SOL    HW141168   3.390   4.233   9.860 -0.5027 -0.1038 -0.3965
45346SOL    HW241169   3.520   4.221   9.783 -0.3796  1.0745 -0.3771
45347SOL     OW41170   5.658   7.851   3.376 -0.5190  0.2428 -0.2566
45347SOL    HW141171   5.582   7.793   3.387 -0.7703  0.7203  0.5159
45347SOL    HW241172   5.623   7.939   3.391 -0.1005  0.5840 -1.2765
45348SOL     OW41173   7.565   1.975   4.789  0.4195 -0.2080 -0.4612
45348SOL    HW141174   7.531   2.038   4.726 -1.1367 -0.9369 -0.3622
45348SOL    HW241175   7.620   2.028   4.848 -2.6348  1.5000  0.9665
45349SOL     OW41176   3.572   3.174   5.884 -0.3971 -0.3219 -0.0680
45349SOL    HW141177   3.618   3.101   5.925 -0.5625  0.0292  0.7549
45349SOL    HW241178   3.638   3.219   5.832  0.2953  0.3932  1.3934
45350SOL     OW41179   8.871   7.327   4.576 -0.5195 -0.1895 -0.1964
45350SOL    HW141180   8.888   7.248   4.627  1.0554  0.3462  0.1483
45350SOL    HW241181   8.852   7.295   4.488  3.7525 -0.8526 -0.9745
45351SOL     OW41182  10.681   3.684   9.234  0.4359  0.3541 -0.3065
45351SOL    HW141183  10.598   3.675   9.189  0.8321 -1.3860 -0.7070
45351SOL    HW241184  10.741   3.628   9.186  1.0336 -1.0039  1.9589
45352SOL     OW41185   2.206  10.801   1.171 -0.8224 -0.0395  0.4534
45352SOL    HW141186   2.184  10.721   1.122 -1.0786  0.4713 -0.2815
45352SOL    HW241187   2.152  10.869   1.130  2.4247  1.3460 -1.6823
45353SOL     OW41188   1.835   0.669   5.740  0.1634  0.1251  0.2771
45353SOL    HW141189   1.902   0.633   5.797  2.2329  1.3210 -1.3118
45353SOL    HW241190   1.752   0.640   5.778  1.6043 -2.3782  1.6101
45354SOL     OW41191   7.528  11.057   4.908 -0.6910  0.8966 -0.8881
45354SOL    HW141192   7.435  11.079   4.910 -0.8778  0.2173 -2.0232
45354SOL    HW241193   7.564  11.109   4.836 -0.2062  1.0750 -0.5210
45355SOL     OW41194   9.323   0.514  11.073 -0.2720  0.0397  0.2414
45355SOL    HW141195   9.384   0.454  11.117  0.5416 -0.1683 -1.1401
45355SOL    HW241196   9.271   0.457  11.017 -0.6059  0.4294  0.1585
45356SOL     OW41197  11.059   5.058   4.019  0.1965 -0.4435 -0.1366
45356SOL    HW141198  11.031   5.148   4.003 -0.3059 -0.4577  0.6139
45356SOL    HW241199  11.066   5.052   4.115 -0.6433 -1.4471 -0.1246
45357SOL     OW41200   9.505   6.369  10.964  0.2932  0.4587 -0.0887
45357SOL    HW141201   9.492   6.278  10.992  0.3972 -0.0052 -1.5020
45357SOL    HW241202   9.589   6.368  10.917  0.3742  1.3132  0.0354
45358SOL     OW41203   9.173   1.341   5.061 -0.8723  0.3285  0.4314
45358SOL    HW141204   9.199   1.420   5.013  0.4799 -0.6986 -0.5297
45358SOL    HW241205   9.086   1.363   5.096 -0.9513  1.8777 -0.6605
45359SOL     OW41206   8.164   9.446   2.183  0.4298  0.1565 -0.1277
45359SOL    HW141207   8.254   9.415   2.185  0.1015 -0.8409 -0.6349
45359SOL    HW241208   8.114   9.376   2.225 -0.2710  0.1538 -0.9738
45360SOL     OW41209   2.474   5.482   3.248  0.3134  0.3377  0.2036
45360SOL    HW141210   2.436   5.508   3.164 -0.8051 -0.5225  0.4297
45360SOL    HW241211   2.503   5.564   3.288  2.2947  0.6228 -1.6806
45361SOL     OW41212   2.892   0.431   3.166 -0.5339 -0.1923  0.0612
45361SOL    HW141213   2.800   0.405   3.171 -0.2305 -1.3321 -0.1921
45361SOL    HW241214   2.934   0.388   3.240 -0.0344 -0.3947 -0.3335
45362SOL     OW41215   2.916   1.150   2.217 -0.2374  0.4405  0.6231
45362SOL    HW141216   2.877   1.133   2.131 -0.2108 -0.4550  0.7826
45362SOL    HW241217   2.886   1.077   2.272 -0.7026  1.2997  1.5238
45363SOL     OW41218   5.902   7.104   7.436 -0.7428  0.3486 -0.5808
45363SOL    HW141219   5.987   7.079   7.473 -1.1750  1.9869  1.6199
45363SOL    HW241220   5.868   7.023   7.398  0.6702 -0.9204  0.7745
45364SOL     OW41221   5.886   0.364   4.639  0.2137 -0.4503 -0.4241
45364SOL    HW141222   5.821   0.358   4.709  0.9648 -0.5033  0.2743
45364SOL    HW241223   5.940   0.286   4.650  1.9515  0.8532  0.5775
45365SOL     OW41224   1.864   7.691  10.384 -0.5113 -0.2971  0.0804
45365SOL    HW141225   1.898   7.604  10.365  0.1966  0.6719 -3.6061
45365SOL    HW241226   1.910   7.719  10.462  0.2573 -2.6919  0.5075
45366SOL     OW41227   3.381   7.141  11.038 -0.0519  0.2739 -0.2419
45366SOL    HW141228   3.309   7.085  11.066  1.4777 -1.6062  0.0225
45366SOL    HW241229   3.382   7.212  11.103  0.8597 -1.8532  2.1623
45367SOL     OW41230  10.416  11.271   0.083  0.0313  0.2371  0.5379
45367SOL    HW141231  10.432  11.287   0.176  0.1654  1.4684  0.3055
45367SOL    HW241232  10.501  11.286   0.042  0.0115 -0.4748  0.2294
45368SOL     OW41233   0.456   3.958   1.525  0.3551  0.0218 -0.5272
45368SOL    HW141234   0.544   3.963   1.487  0.3930  0.2585 -0.4128
45368SOL    HW241235   0.422   3.874   1.495  0.6431 -0.0978 -0.5279
45369SOL     OW41236   2.697   3.400   9.458 -0.3737 -0.3879  0.1709
45369SOL    HW141237   2.706   3.310   9.488  0.1224 -0.3896  0.0170
45369SOL    HW241238   2.603   3.410   9.441 -0.1536 -1.5714 -1.9471
45370SOL     OW41239   0.120   4.867   9.321 -0.0365 -0.0304  0.3968
45370SOL    HW141240   0.049   4.813   9.287  0.6230 -1.4820  1.2661
45370SOL    HW241241   0.112   4.860   9.416 -0.1485  1.7018  0.5377
45371SOL     OW41242   7.679   0.436   8.013 -0.0829  0.3753  0.2266
45371SOL    HW141243   7.598   0.387   7.998 -1.5219  2.1529  1.8721
45371SOL    HW241244   7.673   0.510   7.952  1.0436 -0.2782 -0.7057
45372SOL     OW41245   6.193   9.025   4.233 -0.5185  0.4745 -0.1092
45372SOL    HW141246   6.148   8.962   4.176  0.8005 -1.7732  1.2736
45372SOL    HW241247   6.143   9.024   4.315  1.0855 -0.8421  0.8773
45373SOL     OW41248   4.717   8.431   2.981 -0.4123  0.1311  0.0373
45373SOL    HW141249   4.733   8.411   2.889 -1.0341  1.0648 -0.2796
45373SOL    HW241250   4.656   8.363   3.010  0.6546 -0.8139  0.0572
45374SOL     OW41251   9.476   2.629   1.126  0.3252  0.0067 -0.3848
45374SOL    HW141252   9.493   2.700   1.064 -0.1384  1.4678  1.1074
45374SOL    HW241253   9.467   2.551   1.072  0.2309  1.1947 -2.1232
45375SOL     OW41254   1.171  10.970   1.419 -0.0715 -0.3601 -0.0016
45375SOL    HW141255   1.157  10.978   1.325 -0.7514 -0.4936  0.0851
45375SOL    HW241256   1.083  10.954   1.455  0.2017 -0.4319  0.6374
45376SOL     OW41257   4.589   0.391   8.608  0.2188 -0.6585  0.2505
45376SOL    HW141258   4.529   0.331   8.652 -0.4457  0.0387  0.3091
45376SOL    HW241259   4.562   0.390   8.517  0.5902 -0.8978  0.1408
45377SOL     OW41260   9.619   4.217   1.781  0.0324  0.0629 -0.0788
45377SOL    HW141261   9.549   4.154   1.765 -0.7006  0.2669  2.2864
45377SOL    HW241262   9.593   4.265   1.859  0.3210  3.7019 -2.0689
45378SOL     OW41263   8.248   1.986   8.762 -0.4935 -0.3917  0.1676
45378SOL    HW141264   8.234   2.081   8.765 -0.9941 -0.5133  2.6714
45378SOL    HW241265   8.209   1.959   8.679 -1.0545  1.4791 -0.2064
45379SOL     OW41266   2.444   9.817  10.531  0.1553 -0.3046  0.3528
45379SOL    HW141267   2.530   9.779  10.511 -1.0296 -2.0143 -1.6397
45379SOL    HW241268   2.384   9.775  10.469 -2.2350  0.4460  2.0937
45380SOL     OW41269   9.083   2.667   9.397 -0.7000  0.1415  0.3384
45380SOL    HW141270   9.043   2.597   9.346 -1.0641 -0.1204  0.9791
45380SOL    HW241271   9.093   2.739   9.335 -0.8455 -0.2876 -0.1809
45381SOL     OW41272   7.971   1.706   3.635 -0.3395  0.5948  0.3014
45381SOL    HW141273   8.009   1.679   3.718  1.1741  0.0396 -0.5510
45381SOL    HW241274   7.911   1.778   3.658 -0.8470 -0.3383  1.9903
45382SOL     OW41275   3.018   9.866  10.224 -0.2031 -0.1006  0.0365
45382SOL    HW141276   2.971   9.942  10.190 -1.9027 -1.4452 -0.6920
45382SOL    HW241277   3.047   9.819  10.146  0.7244 -0.2711  0.4808
45383SOL     OW41278   5.704   6.724   0.761  0.8747 -0.2130  0.8912
45383SOL    HW141279   5.641   6.685   0.821  0.0112  1.1069  0.8653
45383SOL    HW241280   5.764   6.653   0.739 -0.7162 -1.5437  0.7741
45384SOL     OW41281   4.835  10.959   9.966  0.1396 -0.1895  0.4990
45384SOL    HW141282   4.801  10.965   9.877  2.0556  0.8858 -0.1753
45384SOL    HW241283   4.757  10.942  10.020 -1.4903  2.1335 -1.0134
45385SOL     OW41284   8.101   9.096   3.903 -0.2149 -0.7834  0.2492
45385SOL    HW141285   8.010   9.125   3.898 -0.1432 -0.6905 -0.6292
45385SOL    HW241286   8.119   9.061   3.816  0.1412 -2.1696  0.8683
45386SOL     OW41287   4.154   3.433   6.081 -0.1158  0.3867  0.1050
45386SOL    HW141288   4.107   3.515   6.063 -0.4524 -0.0167 -0.9134
45386SOL    HW241289   4.198   3.448   6.165 -0.7762  1.3422  0.2858
45387SOL     OW41290  10.751   7.757   3.792  0.3644 -0.0194  0.6869
45387SOL    HW141291  10.738   7.713   3.708 -2.7365  0.2913  0.9562
45387SOL    HW241292  10.767   7.849   3.769 -0.0643 -0.0108  0.4211
45388SOL     OW41293   9.448   2.421   6.639  0.1994  0.2410  0.1632
45388SOL    HW141294   9.396   2.452   6.565  0.2087 -1.5486 -0.6216
45388SOL    HW241295   9.536   2.408   6.602  0.3158 -0.2283  0.5936
45389SOL     OW41296   3.284   5.866   6.828 -0.2394 -1.0412 -0.2532
45389SOL    HW141297   3.249   5.840   6.743  0.7015 -0.0895 -0.9462
45389SOL    HW241298   3.298   5.960   6.821 -2.9364 -0.3835  1.9677
45390SOL     OW41299   7.466   7.508   9.141 -0.3521  0.0706  0.6829
45390SOL    HW141300   7.435   7.563   9.213  2.0162 -0.4036  2.1003
45390SOL    HW241301   7.560   7.523   9.138 -0.0144 -2.0838 -0.4936
45391SOL     OW41302   6.942   1.784   1.027  0.0843  0.0312 -0.4725
45391SOL    HW141303   6.962   1.874   1.001  0.3915  0.0385 -0.2199
45391SOL    HW241304   6.911   1.792   1.117 -0.6168 -0.0345 -0.7059
45392SOL     OW41305   4.391   7.656   1.052  0.0795  0.5480  0.6189
45392SOL    HW141306   4.312   7.710   1.060  0.3721  0.9223  1.0445
45392SOL    HW241307   4.434   7.664   1.137  0.8710  0.8116  0.2034
45393SOL     OW41308   6.483   2.613   8.676  0.3945 -0.4985  0.1222
45393SOL    HW141309   6.399   2.659   8.670 -0.5924 -2.2897 -0.2066
45393SOL    HW241310   6.506   2.616   8.768  1.3317  2.3442 -0.1693
45394SOL     OW41311   0.982   2.213   3.523 -0.2509 -0.1513 -0.1567
45394SOL    HW141312   0.978   2.267   3.602  1.2839  0.5163 -0.5265
45394SOL    HW241313   1.056   2.248   3.473 -1.0432 -0.7232 -1.7777
45395SOL     OW41314   6.049   6.077  10.067 -0.3021 -0.9651 -0.4040
45395SOL    HW141315   6.016   6.046  10.151 -0.2194 -2.3738 -0.8808
45395SOL    HW241316   5.973   6.077  10.010 -0.7232  1.5815  0.0681
45396SOL     OW41317  11.297  10.002  10.476  0.3940  0.1960  0.2054
45396SOL    HW141318  11.330   9.937  10.414  1.7581  0.6359  0.4718
45396SOL    HW241319  11.208  10.021  10.445  0.8500 -0.0278 -1.2622
45397SOL     OW41320   3.601   6.833  10.701 -0.0439  0.1317  0.2346
45397SOL    HW141321   3.678   6.776  10.702  0.7004  1.1267  0.4342
45397SOL    HW241322   3.632   6.916  10.664 -0.8575  0.7635  0.9269
45398SOL     OW41323   7.736   8.446   9.819  0.0681  0.1535  0.1688
45398SOL    HW141324   7.647   8.420   9.796 -0.5304  1.1940  1.2418
45398SOL    HW241325   7.736   8.541   9.810  1.0916  0.1606  0.1502
45399SOL     OW41326   4.377   2.403   8.835 -0.0702  0.1796  0.0335
45399SOL    HW141327   4.445   2.338   8.853  0.5065  0.7029 -0.2156
45399SOL    HW241328   4.418   2.487   8.856 -0.5266  0.5238 -0.4307
45400SOL     OW41329   4.583   4.364   6.715  0.0772  0.0406 -0.0726
45400SOL    HW141330   4.543   4.438   6.760  2.2400  1.7041 -0.8011
45400SOL    HW241331   4.636   4.320   6.782  1.3737  1.0945 -0.3843
45401SOL     OW41332  10.308  10.005   7.900  0.1567 -0.2918 -0.0151
45401SOL    HW141333  10.396  10.023   7.867 -0.5605  0.7000 -1.4376
45401SOL    HW241334  10.250  10.060   7.847 -1.3715 -1.2405  0.6130
45402SOL     OW41335   8.054   7.278   8.857  0.1202 -0.7478  0.5321
45402SOL    HW141336   8.119   7.281   8.786  1.0377 -0.3021  1.3738
45402SOL    HW241337   8.049   7.368   8.888 -1.4593 -0.6424 -0.0025
45403SOL     OW41338   1.007   1.933   8.543  0.2657 -0.2609 -0.3867
45403SOL    HW141339   0.931   1.952   8.598  0.7856  1.3047 -0.1960
45403SOL    HW241340   0.969   1.903   8.460 -0.6036  1.8201 -0.7760
45404SOL     OW41341   8.520   6.918  10.894 -0.5379  0.5844  0.1930
45404SOL    HW141342   8.494   6.853  10.829 -0.7483  2.6150 -1.7998
45404SOL    HW241343   8.451   6.984  10.891 -0.5999  0.6706  2.5661
45405SOL     OW41344   5.600   1.926   2.164 -0.1576  0.0801  0.4086
45405SOL    HW141345   5.612   1.886   2.078  1.1037 -1.7456  1.4066
45405SOL    HW241346   5.650   2.007   2.160  0.7220 -0.4937 -0.2455
45406SOL     OW41347   2.357  10.082   9.298 -0.4135  0.3124  0.2859
45406SOL    HW141348   2.391  10.057   9.212 -0.9468  0.6605 -0.0294
45406SOL    HW241349   2.357  10.000   9.348 -0.8351 -0.0543 -0.3030
45407SOL     OW41350   2.953   8.475  10.861 -0.1565  0.1452 -0.0268
45407SOL    HW141351   2.872   8.443  10.821 -0.8439  1.9853 -0.1437
45407SOL    HW241352   2.926   8.548  10.916  1.4674  1.1176 -0.4667
45408SOL     OW41353   8.984   8.358   2.776 -0.1443 -0.4225  0.0388
45408SOL    HW141354   8.941   8.438   2.747  1.3160  0.3105 -0.1936
45408SOL    HW241355   8.922   8.317   2.836 -1.7650 -0.1806 -1.4327
45409SOL     OW41356   2.520   7.525   2.879  0.2636 -0.2602  0.4512
45409SOL    HW141357   2.595   7.582   2.865  1.8223 -1.7640  2.3135
45409SOL    HW241358   2.506   7.528   2.974 -2.6949  0.7704  0.0388
45410SOL     OW41359   6.893   8.330   1.988  0.1390  0.2953 -0.6327
45410SOL    HW141360   6.955   8.383   2.038  0.2494 -0.6319  0.2294
45410SOL    HW241361   6.836   8.290   2.054  0.1464 -0.7604 -1.2536
45411SOL     OW41362   8.231   7.010   8.615 -0.1442  0.1057  0.1964
45411SOL    HW141363   8.254   6.919   8.629  0.0426 -0.3396 -2.7123
45411SOL    HW241364   8.136   7.010   8.606 -0.1571  0.2041  0.3485
45412SOL     OW41365   7.212   3.581   2.116  0.0676  0.0238 -0.6924
45412SOL    HW141366   7.136   3.612   2.069 -1.6941 -0.1915  1.8959
45412SOL    HW241367   7.274   3.654   2.113 -1.4233  1.3297 -0.2846
45413SOL     OW41368   3.873   4.133   3.381  0.1769 -0.6328 -0.2601
45413SOL    HW141369   3.794   4.168   3.341  0.5051 -0.4963 -0.7955
45413SOL    HW241370   3.843   4.090   3.461 -0.4363 -0.6041 -0.4752
45414SOL     OW41371   1.295   5.647  10.311 -0.4402 -0.2324  0.2523
45414SOL    HW141372   1.371   5.637  10.368 -0.5795  0.3596  0.5538
45414SOL    HW241373   1.315   5.725  10.259  0.4773 -1.7666 -1.7751
45415SOL     OW41374   0.320   5.863   4.456 -0.3881 -0.5481  0.4452
45415SOL    HW141375   0.238   5.884   4.501  1.3477  4.5661  1.5310
45415SOL    HW241376   0.303   5.885   4.364 -0.5429 -0.4853  0.4894
45416SOL     OW41377   5.641  10.476   7.893 -0.3619  0.6878  0.2770
45416SOL    HW141378   5.589  10.408   7.850 -0.7414  0.7550  0.6254
45416SOL    HW241379   5.683  10.523   7.821  0.3148 -0.2410  0.0619
45417SOL     OW41380   1.542   3.303   8.093  0.3087  0.7459 -0.1577
45417SOL    HW141381   1.629   3.264   8.101 -0.3917 -0.4343  2.2929
45417SOL    HW241382   1.507   3.267   8.011  1.1072 -0.8603  0.1916
45418SOL     OW41383   6.407   4.062   8.386  0.5238 -0.0534  0.7723
45418SOL    HW141384   6.407   4.067   8.481 -0.5122  0.9389  0.7213
45418SOL    HW241385   6.352   4.135   8.357 -0.3411 -1.1972 -0.5471
45419SOL     OW41386   9.589   4.773   2.923 -0.8414  0.1624  0.4488
45419SOL    HW141387   9.682   4.764   2.946 -0.4542 -0.9705 -1.4402
45419SOL    HW241388   9.581   4.863   2.891 -1.0980  1.2971  3.5042
45420SOL     OW41389   3.368   2.339   4.148 -0.3744  0.3400 -0.0276
45420SOL    HW141390   3.395   2.256   4.187 -1.4710  0.7518  1.6317
45420SOL    HW241391   3.448   2.391   4.144  0.2027 -0.5704 -0.5389
45421SOL     OW41392   5.915   7.060   2.396  0.4419 -0.2404 -0.2951
45421SOL    HW141393   5.858   7.007   2.452  0.6030  1.1379  1.2446
45421SOL    HW241394   5.855   7.119   2.350  0.3752 -0.8237 -0.9542
45422SOL     OW41395   5.387   6.125   8.867 -0.4393  0.4768 -0.3443
45422SOL    HW141396   5.477   6.116   8.835 -0.1207  2.2345 -0.0101
45422SOL    HW241397   5.394   6.111   8.962  0.3797  5.4773  0.4916
45423SOL     OW41398   6.609   3.730   2.703  0.0157 -0.0415  0.2110
45423SOL    HW141399   6.585   3.735   2.611 -1.4952  2.9176  0.6978
45423SOL    HW241400   6.554   3.660   2.738 -2.5017  1.5655 -0.3253
45424SOL     OW41401   7.734   8.533   1.973 -0.1333  0.5072 -0.2753
45424SOL    HW141402   7.820   8.492   1.978 -0.1999  0.4834  0.7822
45424SOL    HW241403   7.752   8.627   1.971 -0.0312  0.4672 -1.4605
45425SOL     OW41404   7.818   0.827  11.316 -0.1649 -0.6535  0.4346
45425SOL    HW141405   7.756   0.770  11.271 -0.0717 -0.8889  0.6053
45425SOL    HW241406   7.778   0.843  11.401 -1.7056  2.0720 -0.7465
45426SOL     OW41407   4.390   4.562   8.483  0.0113  0.0932 -0.1027
45426SOL    HW141408   4.314   4.542   8.539  0.6221 -2.9555 -0.2903
45426SOL    HW241409   4.462   4.574   8.544  0.0089  0.0195 -0.0856
45427SOL     OW41410   5.553   6.860   1.403  0.2275  0.1685 -0.2265
45427SOL    HW141411   5.634   6.871   1.352  0.5116  0.2442  0.2402
45427SOL    HW241412   5.526   6.770   1.386  0.8804 -0.1277  0.3032
45428SOL     OW41413   6.990   1.227   3.112 -0.0026 -0.7281  0.4431
45428SOL    HW141414   6.914   1.201   3.059 -0.0996 -1.4414  0.9288
45428SOL    HW241415   6.978   1.181   3.194  0.6730 -0.3961  0.7278
45429SOL     OW41416   0.924   0.495   8.425 -0.0447  0.0281 -0.6061
45429SOL    HW141417   0.971   0.414   8.442 -0.3503  0.5031  2.9331
45429SOL    HW241418   0.988   0.551   8.380  0.5259 -1.7254 -2.0087
45430SOL     OW41419   4.348  11.198   5.864 -0.3666  0.0125  0.4672
45430SOL    HW141420   4.361  11.173   5.773 -0.8903 -0.4056  0.5026
45430SOL    HW241421   4.294  11.127   5.900  0.0299  0.0567  1.1564
45431SOL     OW41422   3.557   0.762  10.632 -0.1217  0.4499 -0.1556
45431SOL    HW141423   3.620   0.768  10.704 -1.4223 -0.5722  1.0960
45431SOL    HW241424   3.473   0.782  10.672 -1.3544 -3.3179 -0.6334
45432SOL     OW41425   4.734   0.783   8.920  0.2892 -0.3663  0.1085
45432SOL    HW141426   4.653   0.741   8.950  0.1537 -0.5605 -0.5105
45432SOL    HW241427   4.727   0.873   8.950 -0.7333 -0.0619 -1.0144
45433SOL     OW41428   7.597   5.073   4.597 -0.2545  0.0666 -1.0861
45433SOL    HW141429   7.648   5.117   4.665 -1.7177  0.7826 -0.4101
45433SOL    HW241430   7.646   4.994   4.576 -0.6272 -1.0517  2.0445
45434SOL     OW41431   7.006   0.346   0.468  0.2449 -0.2706  0.4645
45434SOL    HW141432   6.979   0.254   0.472  1.6997 -0.8497 -2.1023
45434SOL    HW241433   6.927   0.393   0.443 -0.4717 -0.7978  1.6632
45435SOL     OW41434   8.557   0.489   9.060 -0.4107 -0.2455  0.7750
45435SOL    HW141435   8.603   0.548   9.120 -1.0026 -0.0939  1.0905
45435SOL    HW241436   8.480   0.461   9.109 -0.9456 -0.0556  0.0485
45436SOL     OW41437   4.131  10.703   9.864  0.2019 -0.5140 -0.2885
45436SOL    HW141438   4.056  10.644   9.867  0.6660 -1.1123 -0.4927
45436SOL    HW241439   4.198  10.662   9.918 -1.0674  2.0898  3.4537
45437SOL     OW41440   2.300   8.030   7.375 -0.4528  0.1039  0.1314
45437SOL    HW141441   2.367   8.035   7.444 -1.1779 -2.9258  1.0980
45437SOL    HW241442   2.219   8.010   7.421 -1.7849  2.1148 -1.2299
45438SOL     OW41443   6.637   5.019   6.051 -0.1771 -0.7791  0.0804
45438SOL    HW141444   6.604   5.094   6.100 -1.1902  1.1307 -3.3819
45438SOL    HW241445   6.726   5.044   6.025 -0.3641 -0.9498 -0.7396
45439SOL     OW41446   0.140   1.478   8.263  0.3546 -0.7749 -0.6225
45439SOL    HW141447   0.125   1.562   8.220 -0.2509  0.1355  1.2950
45439SOL    HW241448   0.222   1.446   8.225  2.1557  2.0636  0.6851
45440SOL     OW41449   0.623   7.404   9.483 -0.0126 -0.0258 -0.7488
45440SOL    HW141450   0.579   7.320   9.494 -0.2954  0.2622  0.3415
45440SOL    HW241451   0.613   7.448   9.567 -0.9561  1.6219 -1.6842
45441SOL     OW41452   3.620   4.543   1.786  0.0978  0.1620 -0.5633
45441SOL    HW141453   3.627   4.458   1.830 -1.9894  0.4783  0.4402
45441SOL    HW241454   3.530   4.546   1.754  0.7540  1.1586 -2.3691
45442SOL     OW41455   9.378   8.010  10.912 -0.6523  0.0669  0.2786
45442SOL    HW141456   9.285   7.991  10.912 -0.8508  1.0333  0.3886
45442SOL    HW241457   9.391   8.068  10.837 -0.6112  2.1386  1.8432
45443SOL     OW41458   9.386   9.389   2.696 -0.0952 -0.3525  0.0722
45443SOL    HW141459   9.408   9.400   2.788 -0.1073 -1.5014  0.2179
45443SOL    HW241460   9.444   9.450   2.650  0.8396 -0.7336  0.7299
45444SOL     OW41461   5.129   2.155   4.495 -0.1871 -0.8405  0.2416
45444SOL    HW141462   5.070   2.217   4.538  1.7813  0.6373  0.9046
45444SOL    HW241463   5.184   2.121   4.566  0.5128 -1.3448 -0.5307
45445SOL     OW41464   3.516   3.609   7.467  0.2646  0.7161 -0.0605
45445SOL    HW141465   3.450   3.652   7.413  1.3473  1.6699 -0.6490
45445SOL    HW241466   3.506   3.516   7.448 -1.3762  0.7762  0.3945
45446SOL     OW41467  11.149   6.809   5.315  0.3106  0.3833 -0.3516
45446SOL    HW141468  11.173   6.902   5.323  1.6000 -0.0216  0.5492
45446SOL    HW241469  11.187   6.768   5.392 -2.9984 -0.3463  0.9984
45447SOL     OW41470   1.104   8.143  10.452  0.1713 -0.5418 -0.4122
45447SOL    HW141471   1.186   8.192  10.448  0.9101 -1.8010 -0.7145
45447SOL    HW241472   1.113   8.075  10.385 -0.8324 -1.1065  0.0242
45448SOL     OW41473  11.054   4.985   8.978  0.0545 -0.3423 -0.1536
45448SOL    HW141474  10.972   5.036   8.976 -0.7009 -1.4999  0.7376
45448SOL    HW241475  11.039   4.914   8.915  0.8229  0.1091 -0.8483
45449SOL     OW41476   6.922   1.051   9.039  0.0293  0.2389 -0.5769
45449SOL    HW141477   6.997   1.035   8.981  1.8893  1.0675  1.5149
45449SOL    HW241478   6.953   1.118   9.100 -2.2775  0.2518  0.6192
45450SOL     OW41479   1.462   1.942   9.349 -0.1669 -0.2952  0.4530
45450SOL    HW141480   1.553   1.929   9.374  0.9315  0.2762 -3.0317
45450SOL    HW241481   1.437   2.024   9.392  0.4377 -1.2103  2.6357
45451SOL     OW41482   0.649  11.156   0.732 -0.1564  0.2890 -0.1044
45451SOL    HW141483   0.668  11.234   0.784  1.5862 -1.5135  2.0764
45451SOL    HW241484   0.698  11.086   0.775  0.4613 -1.5130 -3.5752
45452SOL     OW41485   2.803   1.788  10.787 -0.0108  0.1487 -0.4767
45452SOL    HW141486   2.722   1.739  10.800  1.1204 -1.3527  1.2478
45452SOL    HW241487   2.865   1.722  10.754  0.9114  0.9386 -0.3532
45453SOL     OW41488   2.813   7.146  11.302  0.6869  0.0487 -0.3008
45453SOL    HW141489   2.885   7.110  11.354  0.3824  0.2656  0.2852
45453SOL    HW241490   2.782   7.073  11.249 -0.0745 -0.6354  1.0429
45454SOL     OW41491   2.865   5.651  10.745 -0.0190  0.1905  0.7942
45454SOL    HW141492   2.952   5.680  10.772 -0.3536  0.6195  1.4216
45454SOL    HW241493   2.816   5.732  10.733  0.3644  0.0796 -2.0025
45455SOL     OW41494  10.331  10.024   8.480  0.3758  0.5147  1.0757
45455SOL    HW141495  10.327   9.955   8.547  0.8038 -1.5638 -0.9807
45455SOL    HW241496  10.423  10.024   8.452 -0.2334 -0.0597 -0.9464
45456SOL     OW41497   4.496   8.686   2.421 -0.0903  0.1979 -0.5518
45456SOL    HW141498   4.442   8.757   2.455  1.8732  0.5142  2.1064
45456SOL    HW241499   4.554   8.664   2.494  1.8314 -1.6272 -2.5744
45457SOL     OW41500   1.644   5.233   5.425 -0.2142  0.3791  0.2133
45457SOL    HW141501   1.559   5.264   5.454 -1.5778 -1.4992 -1.6343
45457SOL    HW241502   1.678   5.181   5.499 -1.3998 -0.2008  0.3596
45458SOL     OW41503   1.818   6.721   7.750 -0.4644 -0.0542 -0.5056
45458SOL    HW141504   1.761   6.674   7.688 -0.7813 -0.6451  0.2239
45458SOL    HW241505   1.769   6.721   7.832  0.1966  0.2433 -0.1090
45459SOL     OW41506   7.304   7.544   6.268  0.2761 -0.4069  0.0240
45459SOL    HW141507   7.308   7.536   6.172 -2.6844 -0.1504 -0.1508
45459SOL    HW241508   7.324   7.636   6.285 -1.5710  0.1170 -0.5421
45460SOL     OW41509   7.742   9.013  10.048 -0.0763 -0.0807  0.1063
45460SOL    HW141510   7.829   9.046  10.025  0.6188 -1.1469  1.1318
45460SOL    HW241511   7.690   9.026   9.969  0.8481  1.1463 -0.3163
45461SOL     OW41512   7.112   4.353   2.542  0.2040 -0.4585 -0.4334
45461SOL    HW141513   7.072   4.308   2.467  0.5826  1.6226 -1.9339
45461SOL    HW241514   7.111   4.446   2.518  1.8403  0.0894  1.4318
45462SOL     OW41515   2.701  11.126   7.724  0.2376  0.1694  0.1318
45462SOL    HW141516   2.769  11.069   7.760  0.5045 -0.2256 -0.9983
45462SOL    HW241517   2.651  11.071   7.664 -0.6936  0.6257  0.4707
45463SOL     OW41518   3.337   9.455   7.502 -0.1409  0.0916 -0.3779
45463SOL    HW141519   3.339   9.424   7.411 -2.5296  1.0223 -0.7634
45463SOL    HW241520   3.340   9.550   7.495 -0.6794  0.1730  0.5051
45464SOL     OW41521  11.111   1.190   0.308  0.6722  0.5691 -0.2444
45464SOL    HW141522  11.161   1.142   0.374  0.4814  1.3614  0.4901
45464SOL    HW241523  11.099   1.277   0.346 -2.3963  0.0188  0.2119
45465SOL     OW41524   4.978   6.384  11.140 -0.4018 -0.0637 -0.0883
45465SOL    HW141525   5.033   6.441  11.193 -0.4556 -0.9391  0.9329
45465SOL    HW241526   5.036   6.313  11.113 -0.6174 -0.1230 -0.4025
45466SOL     OW41527   9.560   6.786   1.012  0.0863 -0.2926 -0.0951
45466SOL    HW141528   9.472   6.823   1.014  0.7365  1.3348 -0.1317
45466SOL    HW241529   9.599   6.813   1.095  0.4674 -1.1932  0.0173
45467SOL     OW41530   4.440   4.871   4.460  0.2555 -0.0888  0.6787
45467SOL    HW141531   4.455   4.779   4.439 -0.9172 -0.2202  0.3530
45467SOL    HW241532   4.464   4.880   4.552  0.6119 -0.6605  0.6405
45468SOL     OW41533   5.408   0.775   0.870 -0.2454 -0.0195 -0.4300
45468SOL    HW141534   5.424   0.730   0.787 -0.6232 -0.0973 -0.4640
45468SOL    HW241535   5.330   0.732   0.906 -0.6592  0.6541 -0.4993
45469SOL     OW41536   4.225   0.797   9.099 -0.1698 -0.1127  0.0786
45469SOL    HW141537   4.185   0.823   9.016  0.7039  1.2411  0.0701
45469SOL    HW241538   4.153   0.761   9.151 -1.3012  1.8574 -0.1168
45470SOL     OW41539  10.197   4.448   0.384  1.0035  0.5214 -0.1751
45470SOL    HW141540  10.251   4.518   0.420 -0.7964  1.6488  0.4242
45470SOL    HW241541  10.167   4.481   0.300  0.3764  0.3685 -0.0148
45471SOL     OW41542   8.871   3.815   2.900 -0.2154  0.0036 -0.0447
45471SOL    HW141543   8.778   3.836   2.903  0.0137  0.9470  0.7592
45471SOL    HW241544   8.875   3.721   2.916 -1.0952 -0.2149 -1.1181
45472SOL     OW41545  10.881   6.916   4.798 -0.0887  0.0603 -0.2177
45472SOL    HW141546  10.949   6.973   4.763  1.1470 -1.0872  0.2629
45472SOL    HW241547  10.928   6.839   4.831 -1.5517 -0.4885  0.6738
45473SOL     OW41548   3.579   5.788   9.428 -0.5567  0.4955  0.6772
45473SOL    HW141549   3.553   5.816   9.516 -0.0413 -1.6098  1.5238
45473SOL    HW241550   3.674   5.797   9.427 -0.4925 -0.1690  0.5925
45474SOL     OW41551   6.519   2.748   1.191 -0.5361  0.0789  0.2162
45474SOL    HW141552   6.557   2.716   1.273  0.2650  2.1092  0.6413
45474SOL    HW241553   6.518   2.843   1.200  0.2911  0.3759 -2.4489
45475SOL     OW41554   4.602   3.990   1.191  0.4410 -0.2711 -0.1082
45475SOL    HW141555   4.696   3.989   1.173  0.2941  2.1793 -1.2039
45475SOL    HW241556   4.596   3.998   1.286  1.3975  1.9439 -0.2042
45476SOL     OW41557   1.438   1.151   1.177  0.0596 -0.1315  0.1662
45476SOL    HW141558   1.382   1.228   1.166  2.3630  1.2924 -2.4465
45476SOL    HW241559   1.488   1.169   1.257 -0.2867  0.5143  0.2426
45477SOL     OW41560   2.754   8.447   1.326 -0.5352  0.0777 -0.0874
45477SOL    HW141561   2.844   8.480   1.323 -0.4093 -0.2233  0.3481
45477SOL    HW241562   2.751   8.393   1.405 -0.9547 -0.3446 -0.3908
45478SOL     OW41563   2.310  11.157   3.402 -0.0185  1.1775  0.2033
45478SOL    HW141564   2.258  11.188   3.475  0.2023 -0.3124  0.9935
45478SOL    HW241565   2.267  11.077   3.373  0.7015  0.9937 -0.3852
45479SOL     OW41566   7.430   3.277   0.072 -0.4833  0.0232 -0.1810
45479SOL    HW141567   7.522   3.291   0.050 -0.3752  0.5009  0.5656
45479SOL    HW241568   7.385   3.273  -0.012  0.1607  0.2310 -0.5321
45480SOL     OW41569   4.945   7.293   3.289  0.4300 -0.2764  0.1926
45480SOL    HW141570   4.931   7.379   3.328 -0.9220  0.0353 -0.9630
45480SOL    HW241571   4.966   7.236   3.363 -1.9197  0.3474  1.3790
45481SOL     OW41572   0.894   7.751   9.843  0.0711 -0.2409 -0.1105
45481SOL    HW141573   0.920   7.787   9.928  0.9755 -1.5278  0.1863
45481SOL    HW241574   0.836   7.816   9.806 -1.2381 -0.1594  1.9886
45482SOL     OW41575   9.693   6.854   8.072  0.0297 -0.0914  0.1071
45482SOL    HW141576   9.760   6.792   8.042  0.2030 -0.9638  2.1994
45482SOL    HW241577   9.739   6.938   8.078  0.6333 -0.4353  0.3593
45483SOL     OW41578   6.697   1.143   0.876 -0.0325 -0.2409  0.6273
45483SOL    HW141579   6.720   1.138   0.783 -0.6733  0.1857  0.4457
45483SOL    HW241580   6.733   1.227   0.905  4.1933 -2.3306  1.8875
45484SOL     OW41581   7.163  10.559   6.059  0.1038 -0.0599 -0.0428
45484SOL    HW141582   7.249  10.517   6.052 -0.2168 -0.5163 -1.3112
45484SOL    HW241583   7.103  10.489   6.083 -0.1129  0.0346 -0.3012
45485SOL     OW41584   6.904   2.921   3.983 -0.3127  0.0439 -0.0448
45485SOL    HW141585   6.913   2.982   3.910 -3.2349  0.0690 -0.4368
45485SOL    HW241586   6.975   2.858   3.970  0.6788  1.4314 -1.5408
45486SOL     OW41587   1.365   4.231   0.035  0.0893 -0.0286  0.1130
45486SOL    HW141588   1.336   4.294   0.101 -0.3092  0.4970 -0.5583
45486SOL    HW241589   1.458   4.248   0.024  0.0045  0.3631  0.0132
45487SOL     OW41590   2.193   5.312   4.199 -0.4514 -0.1881  0.0726
45487SOL    HW141591   2.147   5.364   4.133 -1.4237  0.4758  1.2359
45487SOL    HW241592   2.146   5.330   4.280  0.5025 -1.2658  0.8858
45488SOL     OW41593   6.232   8.396  10.994  0.4464 -0.4373  0.2826
45488SOL    HW141594   6.158   8.453  10.973  2.3169  1.5646 -1.0061
45488SOL    HW241595   6.222   8.321  10.935 -0.6292 -0.2737  0.2498
45489SOL     OW41596   9.666   2.384   9.482 -0.5787  0.2970  0.5176
45489SOL    HW141597   9.674   2.335   9.400  0.0695 -0.4000  0.9970
45489SOL    HW241598   9.756   2.388   9.516 -0.9096  0.2575  1.3914
45490SOL     OW41599   4.110   5.230   2.918 -0.1017 -0.2863  0.0729
45490SOL    HW141600   4.043   5.278   2.869 -0.3789 -0.7036  0.0386
45490SOL    HW241601   4.078   5.140   2.920  1.2787 -0.8367 -1.3765
45491SOL     OW41602   2.523   5.836  10.830  0.5512  0.8295 -1.0694
45491SOL    HW141603   2.607   5.842  10.784  1.8107 -0.3463  0.9877
45491SOL    HW241604   2.541   5.873  10.916 -1.0661  0.5746 -0.6154
45492SOL     OW41605   2.987   7.096   3.155 -0.3260  0.0087  0.4488
45492SOL    HW141606   2.920   7.094   3.223  0.2780 -2.1731  1.0282
45492SOL    HW241607   2.992   7.006   3.124 -0.6178  0.9669 -2.5378
45493SOL     OW41608   1.862   1.304   3.216  0.4478  0.4643  0.2432
45493SOL    HW141609   1.903   1.389   3.203 -0.9484  1.1319  0.0974
45493SOL    HW241610   1.862   1.264   3.129  1.8312 -0.0384  0.4584
45494SOL     OW41611  10.784   0.351   1.781  0.0508 -0.4780 -0.6531
45494SOL    HW141612  10.729   0.273   1.780 -0.0882 -0.4166  0.9096
45494SOL    HW241613  10.757   0.398   1.860  1.6584  0.0429 -0.4062
45495SOL     OW41614   2.677  10.536  11.243 -0.1178  0.1442  0.4103
45495SOL    HW141615   2.617  10.596  11.286 -0.0078  1.2600 -0.9811
45495SOL    HW241616   2.717  10.587  11.173  0.6597 -1.2845 -0.2106
45496SOL     OW41617   7.079   6.983   3.681 -0.5885 -0.4582 -0.1128
45496SOL    HW141618   7.128   7.037   3.744 -0.4258  0.7556 -1.2671
45496SOL    HW241619   7.147   6.936   3.632 -0.6808 -0.7699  0.0601
45497SOL     OW41620   9.334   7.312   7.878  0.1927 -0.1805 -0.2263
45497SOL    HW141621   9.241   7.289   7.875  0.2052 -0.7424  2.5362
45497SOL    HW241622   9.378   7.230   7.900  1.5145 -0.2220 -2.8620
45498SOL     OW41623   2.551   2.975  10.916  0.2585 -0.0856  0.0302
45498SOL    HW141624   2.537   2.923  10.837  0.1106  1.1312 -0.7521
45498SOL    HW241625   2.597   3.053  10.886  1.3782 -0.2181  1.3499
45499SOL     OW41626   8.379   8.802  10.075  0.2649  0.3935 -0.1558
45499SOL    HW141627   8.421   8.722  10.104  0.4312  0.9882  1.2769
45499SOL    HW241628   8.414   8.870  10.132  0.2806  1.5323 -1.4797
45500SOL     OW41629   9.508   5.685   4.132 -0.3014  0.3027  0.4412
45500SOL    HW141630   9.495   5.648   4.220  0.9762 -1.1006  0.0710
45500SOL    HW241631   9.430   5.657   4.084 -0.0675 -0.6504  0.5912
45501SOL     OW41632   1.324   5.357   2.260 -0.2644  0.1035  0.6142
45501SOL    HW141633   1.236   5.384   2.233 -0.4643  0.6003  1.7112
45501SOL    HW241634   1.343   5.412   2.337  0.6478 -0.6245  0.9188
45502SOL     OW41635   4.864   0.714   7.716 -0.0094  0.2553 -0.1844
45502SOL    HW141636   4.875   0.734   7.623 -1.2998  0.0194 -0.4028
45502SOL    HW241637   4.936   0.656   7.737  0.2288  0.2212 -1.0695
45503SOL     OW41638   0.179   4.478   5.837 -0.0408 -0.0990  0.1456
45503SOL    HW141639   0.259   4.426   5.827  0.7356  0.3351  3.4249
45503SOL    HW241640   0.154   4.466   5.929 -1.0927  3.5191  0.4024
45504SOL     OW41641   9.389   2.045   0.130 -0.1506  0.3668 -0.0216
45504SOL    HW141642   9.439   2.119   0.165  2.0644 -1.8494  1.6650
45504SOL    HW241643   9.348   2.005   0.206 -2.0897  0.3465 -1.0397
45505SOL     OW41644   2.750   6.092   5.391 -0.3308 -0.1718  0.1703
45505SOL    HW141645   2.802   6.071   5.469  0.0730  0.4493  0.0708
45505SOL    HW241646   2.795   6.048   5.319 -0.4860 -0.4267  0.2281
45506SOL     OW41647   3.292   6.904   6.664  0.1994  0.2887  0.3111
45506SOL    HW141648   3.303   6.912   6.759 -1.8896 -0.8063  0.6742
45506SOL    HW241649   3.324   6.816   6.644 -1.5401 -0.3754  0.3762
45507SOL     OW41650   1.431   4.079   0.310  0.0973 -0.3634 -0.2037
45507SOL    HW141651   1.526   4.089   0.314 -0.0378  0.6724  0.9915
45507SOL    HW241652   1.414   4.042   0.224  1.6583 -1.4434 -0.0716
45508SOL     OW41653   9.201   2.730   8.785 -0.5033 -0.8358  0.1363
45508SOL    HW141654   9.115   2.740   8.743  0.1964 -1.6940 -1.5768
45508SOL    HW241655   9.212   2.810   8.836 -1.8953 -0.2540 -0.4391
45509SOL     OW41656   8.433   7.653  11.077 -0.3283 -0.7023  0.2116
45509SOL    HW141657   8.476   7.572  11.105 -0.2725 -1.2119 -1.2622
45509SOL    HW241658   8.370   7.624  11.011 -0.0560  0.4999 -0.5839
45510SOL     OW41659  10.767   8.116   0.629  0.2722  0.2230  0.2067
45510SOL    HW141660  10.728   8.156   0.706  0.1152 -0.1025  0.2971
45510SOL    HW241661  10.830   8.181   0.597 -0.1436  0.6338  0.2213
45511SOL     OW41662   1.570   8.465   1.178 -0.4636 -0.1225  0.3413
45511SOL    HW141663   1.535   8.533   1.120 -0.5670  0.8985  1.5730
45511SOL    HW241664   1.495   8.439   1.232 -0.2433 -0.7106  0.3646
45512SOL     OW41665   0.839   6.446   5.481  0.2497  0.0524 -0.4844
45512SOL    HW141666   0.745   6.462   5.479  0.0213 -0.5765  2.5680
45512SOL    HW241667   0.873   6.492   5.404 -2.2180  2.3845 -0.2398
45513SOL     OW41668   4.712   4.889   1.628 -1.0261 -0.6405 -0.0910
45513SOL    HW141669   4.753   4.834   1.561  0.4621  0.3837 -0.0462
45513SOL    HW241670   4.731   4.979   1.600 -1.7880 -0.1733  0.8531
45514SOL     OW41671  10.385   0.410   8.239 -0.3640 -0.0509 -0.0341
45514SOL    HW141672  10.357   0.324   8.272  0.1417 -0.1166  0.2299
45514SOL    HW241673  10.304   0.453   8.211 -0.6530 -0.4911  0.1292
45515SOL     OW41674   3.875   1.941   9.399  0.1004 -0.5051  0.1969
45515SOL    HW141675   3.874   1.909   9.489  1.6853 -0.3894  0.2661
45515SOL    HW241676   3.965   1.972   9.385 -0.2833  0.0095 -1.2331
45516SOL     OW41677  10.409   7.907   0.943  0.1109  0.1058  0.3260
45516SOL    HW141678  10.376   7.973   0.883  0.3863  0.1087  0.1805
45516SOL    HW241679  10.347   7.834   0.935  0.4408 -0.1040 -0.3490
45517SOL     OW41680   8.225   9.003   0.089 -0.4951 -0.1902  0.4010
45517SOL    HW141681   8.151   9.059   0.110 -0.9489 -1.8268  3.5532
45517SOL    HW241682   8.188   8.915   0.082  0.9065 -0.8018  0.4402
45518SOL     OW41683  10.006   9.411   7.283 -0.4279  0.2480 -0.0177
45518SOL    HW141684  10.070   9.341   7.290 -0.9614 -0.1862  0.5218
45518SOL    HW241685   9.921   9.367   7.288 -0.7641  0.9168  0.1574
45519SOL     OW41686  10.673  10.024   9.223  0.1440  0.4229  0.3312
45519SOL    HW141687  10.579  10.014   9.242  0.2968 -2.1826 -0.0072
45519SOL    HW241688  10.705   9.934   9.217  2.5962  1.2881  0.0048
45520SOL     OW41689   7.466   1.529   1.626  0.0579 -0.6171 -0.1734
45520SOL    HW141690   7.554   1.492   1.617 -0.0331 -1.3950  1.8481
45520SOL    HW241691   7.479   1.609   1.676 -0.1596  0.3732 -1.6613
45521SOL     OW41692  10.681   4.889   1.217 -0.2699 -0.0843  0.0014
45521SOL    HW141693  10.735   4.817   1.250  0.7450  0.1098 -1.2074
45521SOL    HW241694  10.601   4.846   1.185 -0.3121 -0.5081  0.6820
45522SOL     OW41695   4.110   1.839   5.243  0.4305  0.1933  0.1426
45522SOL    HW141696   4.032   1.883   5.211  0.1948 -0.3817 -0.0668
45522SOL    HW241697   4.088   1.814   5.333  1.0218  1.6347  0.7079
45523SOL     OW41698   8.422   6.550   3.857 -0.0845  0.7625 -0.0264
45523SOL    HW141699   8.396   6.459   3.869 -0.8536  0.8944 -0.6329
45523SOL    HW241700   8.431   6.560   3.762  2.2378  0.7200  0.1668
45524SOL     OW41701   8.722   5.218   5.346 -0.8236 -0.2810  0.0167
45524SOL    HW141702   8.686   5.197   5.432  0.5770 -1.2815  0.3670
45524SOL    HW241703   8.659   5.178   5.285 -0.9331 -1.0105  0.5980
45525SOL     OW41704   9.231   9.170   1.074  0.4837  0.1385 -0.1271
45525SOL    HW141705   9.168   9.141   1.140 -0.5076 -0.2965 -1.2452
45525SOL    HW241706   9.198   9.256   1.047 -0.3734 -0.6449 -1.6295
45526SOL     OW41707   0.488   3.426  10.975 -0.5003  0.8003  0.0564
45526SOL    HW141708   0.519   3.515  10.993 -0.5047  0.4583  1.8535
45526SOL    HW241709   0.424   3.408  11.044  1.2912 -1.4975  1.1685
45527SOL     OW41710   4.724   3.438   9.171 -0.1795  0.0573 -0.1911
45527SOL    HW141711   4.689   3.521   9.202 -2.4675 -1.5826  1.8201
45527SOL    HW241712   4.680   3.422   9.088  0.7168  1.0995 -0.8879
45528SOL     OW41713   4.283   8.906  11.080  0.1166 -0.6016 -0.4350
45528SOL    HW141714   4.233   8.908  10.999  1.1935 -0.8268 -1.1136
45528SOL    HW241715   4.294   8.813  11.100  0.6368 -0.5611 -0.5228
45529SOL     OW41716   8.412   3.675  10.466 -0.4485  0.0008  0.4310
45529SOL    HW141717   8.464   3.647  10.391 -1.9066  1.2439 -1.0907
45529SOL    HW241718   8.345   3.608  10.475  1.1211 -1.4089  2.1666
45530SOL     OW41719   7.208   9.598   3.767 -0.3082  0.1158  0.0122
45530SOL    HW141720   7.128   9.621   3.814  0.1967 -0.5401  1.2028
45530SOL    HW241721   7.231   9.678   3.719 -1.1301  0.6139  0.4329
45531SOL     OW41722   7.943   1.124   1.301  0.4019 -0.2313  1.0019
45531SOL    HW141723   7.885   1.135   1.376  2.8937  1.6851  2.7111
45531SOL    HW241724   7.930   1.203   1.249 -0.7074 -1.1830 -0.2103
45532SOL     OW41725   9.816   6.539   6.444 -0.0653 -0.2322  0.0165
45532SOL    HW141726   9.832   6.512   6.534 -0.1933 -0.9118 -0.1573
45532SOL    HW241727   9.750   6.477   6.412  0.2160 -0.1974 -0.6422
45533SOL     OW41728   7.217   9.550  10.407 -0.3419 -0.2184  0.3014
45533SOL    HW141729   7.171   9.576  10.486 -1.2064 -3.4161  0.9131
45533SOL    HW241730   7.310   9.560  10.428 -0.5772 -0.8153  1.6446
45534SOL     OW41731   1.986   0.614   4.145 -0.5252 -0.0662 -0.0533
45534SOL    HW141732   1.979   0.655   4.231  1.1483  0.3128 -0.0751
45534SOL    HW241733   1.902   0.631   4.103 -1.2689 -0.0674  1.4265
45535SOL     OW41734   7.532   6.544   2.449 -0.1928  0.4397  0.0581
45535SOL    HW141735   7.621   6.548   2.485 -0.2628 -0.9286  0.4134
45535SOL    HW241736   7.477   6.580   2.519 -0.0511  0.1937  0.2952
45536SOL     OW41737   4.099   9.486   2.757 -0.0449  0.1937  0.5022
45536SOL    HW141738   4.047   9.418   2.716 -0.7495  1.2462 -0.3768
45536SOL    HW241739   4.190   9.455   2.750 -0.2296  0.0237 -1.1954
45537SOL     OW41740   0.651   7.533   1.396  0.5253 -0.3924  0.1800
45537SOL    HW141741   0.741   7.501   1.392 -0.3517 -2.8066 -0.7957
45537SOL    HW241742   0.618   7.526   1.306 -1.1076 -0.8920  0.7964
45538SOL     OW41743   8.015   3.264   3.572 -0.0752 -0.0472 -0.5355
45538SOL    HW141744   8.077   3.196   3.599 -0.0480 -0.2180 -1.0369
45538SOL    HW241745   8.030   3.276   3.479 -1.3587 -0.6773 -0.8381
45539SOL     OW41746   6.187   5.579   1.229 -0.1007 -0.4332 -0.1331
45539SOL    HW141747   6.229   5.514   1.171  2.4086 -1.3755  2.6322
45539SOL    HW241748   6.182   5.535   1.314 -0.8296  2.0660  1.1464
45540SOL     OW41749   3.005  10.879  11.245 -0.3003 -0.7326 -0.2155
45540SOL    HW141750   2.978  10.957  11.293  0.6681 -0.2797 -0.4206
45540SOL    HW241751   2.946  10.875  11.170 -0.5799 -0.4053 -0.0132
45541SOL     OW41752   0.942  10.898   6.850  0.3291  0.7164  0.0754
45541SOL    HW141753   1.020  10.923   6.901  0.4824 -0.1191  0.2587
45541SOL    HW241754   0.871  10.896   6.914  0.8461 -2.0256  0.6304
45542SOL     OW41755   4.756   3.400   4.663 -0.4431  0.1488  1.0665
45542SOL    HW141756   4.812   3.404   4.585 -2.7640  1.4634 -0.6068
45542SOL    HW241757   4.767   3.311   4.696  0.1237 -0.6142 -1.1073
45543SOL     OW41758   8.235   3.133   7.643  0.0238 -0.4117 -0.2252
45543SOL    HW141759   8.225   3.112   7.736  1.3323  0.6163  0.1534
45543SOL    HW241760   8.207   3.225   7.636  1.5087  0.0178 -0.5577
45544SOL     OW41761   8.892   3.680   4.073  0.3485  0.0582  0.4113
45544SOL    HW141762   8.959   3.627   4.028 -0.6550 -0.8093 -0.0861
45544SOL    HW241763   8.940   3.727   4.141  1.5133 -0.3456 -0.1198
45545SOL     OW41764   1.566   9.759   0.800 -0.0054  0.4391 -0.3487
45545SOL    HW141765   1.589   9.816   0.873  3.1222  0.9732 -1.6635
45545SOL    HW241766   1.496   9.806   0.754  1.9090  2.8767 -0.9044
45546SOL     OW41767  10.391   4.024   6.354 -0.4001  0.0644 -0.4789
45546SOL    HW141768  10.455   3.952   6.359  0.9377  1.2284 -0.4119
45546SOL    HW241769  10.418   4.074   6.277 -2.2626 -0.3653 -1.4233
45547SOL     OW41770   3.625   3.386   2.384 -0.8306 -0.0219 -0.2945
45547SOL    HW141771   3.555   3.397   2.320  1.4602  0.1180 -2.9067
45547SOL    HW241772   3.638   3.473   2.421 -1.5449  0.1074 -0.3467
45548SOL     OW41773  10.789   5.313   7.936 -0.4005  0.1862 -0.3088
45548SOL    HW141774  10.729   5.343   8.004 -0.5856 -1.5151  0.2899
45548SOL    HW241775  10.872   5.298   7.982 -0.4342 -0.6412 -0.5100
45549SOL     OW41776   8.617  10.497   2.604 -0.1328 -0.7882  0.8821
45549SOL    HW141777   8.629  10.404   2.626 -0.3646 -1.0175  0.0535
45549SOL    HW241778   8.703  10.525   2.574 -0.2786 -0.9757  0.2725
45550SOL     OW41779   6.394   1.073   0.042 -0.5946  0.6927  0.7257
45550SOL    HW141780   6.437   1.144  -0.007  1.1610  0.7934  2.3589
45550SOL    HW241781   6.459   1.047   0.108 -1.8359 -1.3629  1.1699
45551SOL     OW41782   3.094   4.953   0.871 -0.2121 -0.3487  0.4770
45551SOL    HW141783   3.047   5.026   0.832  2.3954  0.9675 -0.3494
45551SOL    HW241784   3.100   4.888   0.801 -0.0333 -0.1515  0.3097
45552SOL     OW41785   0.884   3.045   7.011  0.8323 -0.3356 -0.1006
45552SOL    HW141786   0.912   3.136   7.012  0.8085 -0.3202 -0.9093
45552SOL    HW241787   0.860   3.027   7.102 -0.7107  0.9367 -0.2482
45553SOL     OW41788   2.107   6.907   1.472 -0.0921 -0.1300 -0.2430
45553SOL    HW141789   2.172   6.935   1.407 -0.1717  0.1248 -0.2146
45553SOL    HW241790   2.156   6.897   1.553 -0.6368  3.3317  0.6159
45554SOL     OW41791   9.096   1.199  10.179 -0.0500 -0.3042 -0.0939
45554SOL    HW141792   9.189   1.179  10.170  0.2261 -0.4860  2.7435
45554SOL    HW241793   9.092   1.263  10.250 -2.0847 -0.1696 -0.2998
45555SOL     OW41794   0.661   2.472   7.840  0.2891 -0.0348 -0.4204
45555SOL    HW141795   0.742   2.474   7.890 -0.5952 -1.4300  1.1258
45555SOL    HW241796   0.670   2.542   7.775  2.5384  0.0858  0.0007
45556SOL     OW41797   3.462   3.795   2.032 -0.0957 -0.0966  0.5177
45556SOL    HW141798   3.442   3.791   1.939  0.9194 -0.1663  0.3032
45556SOL    HW241799   3.376   3.792   2.075 -0.5223 -0.9167 -0.3800
45557SOL     OW41800   5.222   5.183   7.303 -0.5098  0.1680 -0.5350
45557SOL    HW141801   5.281   5.108   7.308  0.0243  0.6939  1.3778
45557SOL    HW241802   5.254   5.234   7.228  0.8353 -0.0713 -0.1389
45558SOL     OW41803   0.747   8.840   5.002 -0.0868  0.0049 -0.0046
45558SOL    HW141804   0.756   8.921   4.952  2.7798 -1.0185 -1.2578
45558SOL    HW241805   0.699   8.781   4.944  1.6941 -0.6050 -0.8914
45559SOL     OW41806  10.927   2.729   8.603 -0.5541  0.3290 -0.4603
45559SOL    HW141807  10.954   2.639   8.584  0.8029  0.6197  0.0411
45559SOL    HW241808  10.879   2.723   8.685  1.4213  0.3504  0.7294
45560SOL     OW41809   3.871   8.585   8.441 -0.4578  0.1055  0.0452
45560SOL    HW141810   3.824   8.560   8.362  0.3928  1.0100 -0.7564
45560SOL    HW241811   3.802   8.613   8.502 -1.1554 -1.1313 -0.1588
45561SOL     OW41812   1.500  11.014   2.969  0.6352 -0.1751 -0.1583
45561SOL    HW141813   1.559  10.947   3.004 -0.5693 -1.2116 -0.0949
45561SOL    HW241814   1.430  11.020   3.034 -0.1102 -0.0280 -0.9693
45562SOL     OW41815   8.474   4.129   5.414 -0.5007 -0.7985  0.7638
45562SOL    HW141816   8.497   4.057   5.355  0.1852  0.6998 -0.8661
45562SOL    HW241817   8.385   4.152   5.390  0.1806  0.5721 -0.5245
45563SOL     OW41818   9.759   0.315   0.445  0.1439 -0.5294 -0.3190
45563SOL    HW141819   9.720   0.304   0.359 -0.5968 -3.0349  0.3094
45563SOL    HW241820   9.850   0.339   0.428 -0.2537 -0.0352 -1.7796
45564SOL     OW41821   3.796   6.014  11.191 -0.1995  0.2549  0.5364
45564SOL    HW141822   3.788   6.054  11.104  1.4288 -0.8791 -0.1462
45564SOL    HW241823   3.729   6.059  11.243 -1.4749  0.6837 -1.3848
45565SOL     OW41824   2.747   5.775   7.594  0.1708 -0.3444  0.1444
45565SOL    HW141825   2.700   5.705   7.639 -0.0681 -0.3490 -0.1169
45565SOL    HW241826   2.836   5.741   7.583 -0.4185 -1.3335 -1.6343
45566SOL     OW41827   6.391   7.912   7.936  0.2665  0.2072 -0.0159
45566SOL    HW141828   6.440   7.830   7.926 -0.9236 -0.2856 -2.1591
45566SOL    HW241829   6.448   7.968   7.988  2.1149 -1.1670 -0.5149
45567SOL     OW41830   7.673   0.369   1.685  0.4657  0.2681  0.4296
45567SOL    HW141831   7.741   0.305   1.664 -0.2971 -0.6364  0.6955
45567SOL    HW241832   7.709   0.453   1.656  1.9651 -0.1105  1.1408
45568SOL     OW41833   2.417   4.900   0.523 -0.1598 -0.0490  0.1798
45568SOL    HW141834   2.440   4.906   0.616  1.5039 -2.3108 -0.0366
45568SOL    HW241835   2.491   4.939   0.477 -0.0269 -0.8235 -0.2706
45569SOL     OW41836   0.430   8.753   3.891  0.1637  0.2232  0.2599
45569SOL    HW141837   0.477   8.802   3.959 -0.8471  2.4974 -0.6133
45569SOL    HW241838   0.417   8.817   3.820 -2.9002 -0.7279 -0.1309
45570SOL     OW41839   4.863   5.518   5.051 -0.3067 -0.0434  0.0940
45570SOL    HW141840   4.853   5.430   5.087  0.0800 -1.3415 -2.8610
45570SOL    HW241841   4.773   5.550   5.041 -0.4916 -0.6251 -0.1103
45571SOL     OW41842   7.085   2.100   3.553  0.3140  0.8341 -0.3890
45571SOL    HW141843   7.023   2.153   3.503 -1.2640  0.2882  0.9550
45571SOL    HW241844   7.102   2.150   3.632  1.6124  0.9790 -0.7444
45572SOL     OW41845   9.021   9.659   9.587 -0.3376 -0.0491 -0.3286
45572SOL    HW141846   9.101   9.628   9.545 -0.7365 -0.6064 -0.6825
45572SOL    HW241847   8.985   9.582   9.631 -0.3143  0.3633  0.4154
45573SOL     OW41848   2.574  11.304   9.771 -0.6068 -0.3985  0.6508
45573SOL    HW141849   2.498  11.249   9.755 -0.3782 -0.4206 -0.3740
45573SOL    HW241850   2.648  11.243   9.774  0.0234  0.0718 -3.1828
45574SOL     OW41851   1.449   4.998   1.465  0.3201 -0.3748  0.2938
45574SOL    HW141852   1.498   4.968   1.541  1.0177  0.3536  0.1439
45574SOL    HW241853   1.414   4.919   1.425  2.4560 -1.0264 -0.3408
45575SOL     OW41854   2.551   5.991   8.914  0.3158  0.7325 -0.0543
45575SOL    HW141855   2.582   6.066   8.964 -1.1788  0.6588  1.0320
45575SOL    HW241856   2.461   6.014   8.890  0.1167 -0.3719 -0.3986
45576SOL     OW41857   5.210   3.518   7.799 -0.0668 -0.2092  0.3045
45576SOL    HW141858   5.223   3.423   7.803 -0.1258 -0.2434 -0.3586
45576SOL    HW241859   5.127   3.532   7.844 -0.9145 -0.6557 -1.0913
45577SOL     OW41860   7.652   1.139   0.326  0.1896  0.3396  0.1032
45577SOL    HW141861   7.715   1.211   0.320  0.2984  0.3290  1.0483
45577SOL    HW241862   7.614   1.148   0.414  1.1845 -1.5659  0.7546
45578SOL     OW41863   4.087   1.623   0.546  0.4396 -0.7786  0.5229
45578SOL    HW141864   4.122   1.581   0.624 -1.5351 -0.7314  1.4566
45578SOL    HW241865   3.993   1.624   0.559  0.1094 -0.3764 -1.6775
45579SOL     OW41866  10.532   7.974   3.600 -0.3617 -0.4720  0.1039
45579SOL    HW141867  10.605   8.011   3.551 -0.5540 -0.9003 -0.5197
45579SOL    HW241868  10.475   8.048   3.619  0.1493 -0.1633  0.4486
45580SOL     OW41869   2.987   0.933   7.978  0.3935 -0.0783  0.1636
45580SOL    HW141870   2.918   0.992   8.009  0.0998 -0.1141 -0.4284
45580SOL    HW241871   3.064   0.990   7.966  0.1384  0.1674 -0.3107
45581SOL     OW41872   4.727   0.512   2.754  0.1687  0.4355 -0.3428
45581SOL    HW141873   4.662   0.582   2.761  0.6033  0.8101  0.0198
45581SOL    HW241874   4.760   0.501   2.843  0.4660  0.1185 -0.4917
45582SOL     OW41875  11.137   3.510   0.377 -0.0259 -0.3619  0.1352
45582SOL    HW141876  11.204   3.544   0.318 -0.1307  2.0259  1.3240
45582SOL    HW241877  11.163   3.419   0.394  1.2599 -0.3735 -1.7392
45583SOL     OW41878   8.876   0.524   2.997  0.5896  0.2977 -0.3405
45583SOL    HW141879   8.862   0.429   3.002  1.5507  0.0821 -1.5702
45583SOL    HW241880   8.888   0.550   3.089 -1.0112 -0.5477  0.1282
45584SOL     OW41881   2.260   3.868   4.517 -0.2304 -0.2050 -0.3333
45584SOL    HW141882   2.246   3.962   4.502 -1.1915 -0.3925 -0.6502
45584SOL    HW241883   2.250   3.858   4.612  1.8307  0.3222 -0.0395
45585SOL     OW41884   9.490   1.707   7.074  0.0914 -0.3063 -0.1875
45585SOL    HW141885   9.493   1.624   7.025  0.6299 -0.4978  0.1635
45585SOL    HW241886   9.526   1.772   7.013  1.1826 -0.6234  0.0978
45586SOL     OW41887  10.308   0.216   1.403  0.3495 -0.1949 -0.2196
45586SOL    HW141888  10.308   0.219   1.307 -0.2207  0.4199 -0.1979
45586SOL    HW241889  10.258   0.293   1.430 -2.4469 -2.1982  0.5325
45587SOL     OW41890   3.870   6.293   2.468  0.1010 -0.2997 -0.8713
45587SOL    HW141891   3.787   6.264   2.506  0.2886 -1.1818 -1.1164
45587SOL    HW241892   3.915   6.337   2.541 -0.4661 -0.0398 -0.6712
45588SOL     OW41893   0.027   3.565   7.200  0.2497 -0.2576  0.4384
45588SOL    HW141894  -0.016   3.556   7.115  1.0583 -0.3100  0.0321
45588SOL    HW241895  -0.032   3.621   7.251  1.3885  2.7138 -1.3338
45589SOL     OW41896   1.690   2.474   1.836  0.1225 -0.0821 -0.1609
45589SOL    HW141897   1.654   2.561   1.820 -1.3743 -0.5940  0.3054
45589SOL    HW241898   1.703   2.437   1.748 -0.1738  0.2485 -0.3471
45590SOL     OW41899   2.565   8.842   5.686  0.3992  0.3550 -0.3090
45590SOL    HW141900   2.565   8.747   5.691  0.4740  0.2658 -1.7439
45590SOL    HW241901   2.473   8.866   5.680  0.4553  0.2232 -2.0400
45591SOL     OW41902   3.327   0.549   2.803 -0.4193 -0.1014 -0.6830
45591SOL    HW141903   3.258   0.605   2.766 -1.3662 -1.0772 -0.4316
45591SOL    HW241904   3.404   0.605   2.808 -0.4889  0.2826 -3.3773
45592SOL     OW41905   3.304   0.636   1.065 -0.0384 -0.0244  0.1550
45592SOL    HW141906   3.243   0.581   1.015 -1.3620  2.6628 -1.3274
45592SOL    HW241907   3.388   0.592   1.057 -0.8855 -1.4062 -1.6597
45593SOL     OW41908   2.064   7.876   4.294 -0.1949 -0.0376 -0.4724
45593SOL    HW141909   2.000   7.807   4.310 -0.9999  1.1224  1.4535
45593SOL    HW241910   2.125   7.871   4.368 -1.7059  2.8843  1.0302
45594SOL     OW41911   5.479   8.832  10.405 -0.3915  0.1837  0.2029
45594SOL    HW141912   5.553   8.885  10.376  0.1099 -1.6348 -2.0624
45594SOL    HW241913   5.493   8.818  10.499  1.8078  0.3877 -0.0848
45595SOL     OW41914  10.145   4.410   4.441  0.1799 -0.0464  0.3962
45595SOL    HW141915  10.161   4.319   4.415  0.0790  0.0109  0.1318
45595SOL    HW241916  10.231   4.451   4.441  0.1937 -0.0756  0.2611
45596SOL     OW41917   7.139   9.636   1.860  0.2967  0.1441  0.1786
45596SOL    HW141918   7.154   9.671   1.948  1.2960 -0.0849  0.0998
45596SOL    HW241919   7.053   9.670   1.836  0.4458  1.0262  0.8497
45597SOL     OW41920   4.515   4.311   0.535  0.1211 -0.0945 -0.2269
45597SOL    HW141921   4.422   4.294   0.546  0.4614 -0.9153  1.4643
45597SOL    HW241922   4.548   4.325   0.623  1.4333  1.1640 -0.8860
45598SOL     OW41923   3.994   5.113   5.293  0.4346  0.4726 -0.1700
45598SOL    HW141924   4.018   5.190   5.241  1.2629  1.1331  1.1779
45598SOL    HW241925   4.032   5.039   5.245  2.1116  1.1791  0.0695
45599SOL     OW41926   1.975  11.032   6.317 -0.4893 -0.3242  0.0767
45599SOL    HW141927   1.898  10.975   6.310 -0.1477 -0.5140 -2.3838
45599SOL    HW241928   2.048  10.979   6.283  0.4615  0.3785  0.9761
45600SOL     OW41929   6.891  10.164   1.200 -0.3012  0.4368  0.0108
45600SOL    HW141930   6.919  10.202   1.283 -2.3670  1.9624  0.0538
45600SOL    HW241931   6.960  10.188   1.138  1.6695 -1.4150  1.4131
45601SOL     OW41932   5.733   2.301   4.497 -0.0249  0.6456  0.3640
45601SOL    HW141933   5.708   2.243   4.425  2.1353  0.9841 -0.6894
45601SOL    HW241934   5.767   2.242   4.565  2.5878  0.6426 -0.8814
45602SOL     OW41935   5.216   2.197   6.228 -0.7543 -0.3151 -0.1865
45602SOL    HW141936   5.155   2.261   6.194 -1.9679 -2.2852 -1.7814
45602SOL    HW241937   5.180   2.112   6.203  2.2396 -1.5580 -0.5286
45603SOL     OW41938   4.966   2.759   2.488  0.3301  0.5542  0.3787
45603SOL    HW141939   4.927   2.828   2.435  2.1786  0.5525 -1.0358
45603SOL    HW241940   4.923   2.768   2.573 -1.9693  1.1867 -0.7953
45604SOL     OW41941   2.500   0.382   7.356 -0.0284  0.4201 -0.1940
45604SOL    HW141942   2.424   0.382   7.298  0.1330 -3.5151 -0.5834
45604SOL    HW241943   2.575   0.388   7.296  0.0677 -0.6636 -0.1877
45605SOL     OW41944   8.580   8.973   3.152 -0.3948 -0.2526 -0.4444
45605SOL    HW141945   8.645   9.014   3.209  1.1988 -0.4354 -2.0874
45605SOL    HW241946   8.499   8.974   3.203  0.8016  0.3262  1.4865
45606SOL     OW41947  11.015  10.643  10.899  0.0036 -0.5669  0.3248
45606SOL    HW141948  11.001  10.594  10.818  2.4882 -0.2311 -0.3648
45606SOL    HW241949  10.967  10.725  10.886 -3.0728 -2.1926  0.9472
45607SOL     OW41950   6.582   2.264  10.359  0.4971  0.4830  0.3411
45607SOL    HW141951   6.658   2.237  10.307 -0.1778  0.3429 -0.5920
45607SOL    HW241952   6.512   2.205  10.332  0.0299  0.6754  1.1250
45608SOL     OW41953   0.560   7.272   3.714  0.3822 -0.0862  0.6316
45608SOL    HW141954   0.571   7.337   3.783  1.3691  1.2555 -0.7403
45608SOL    HW241955   0.643   7.276   3.664 -0.7271 -0.2131 -1.2801
45609SOL     OW41956   7.436   9.517   5.170  0.0008  0.5862 -0.1418
45609SOL    HW141957   7.438   9.467   5.252  0.5485 -0.9656 -1.0945
45609SOL    HW241958   7.378   9.591   5.189  0.3352  0.3952  1.7331
45610SOL     OW41959   8.502   3.277   7.342 -0.4213 -0.2511 -0.1253
45610SOL    HW141960   8.417   3.245   7.311  0.2236 -0.5896 -1.5788
45610SOL    HW241961   8.567   3.221   7.300  0.6574  1.9725 -1.5455
45611SOL     OW41962   4.493   0.463   3.348  0.0367  0.5432  0.0564
45611SOL    HW141963   4.578   0.422   3.365 -1.2266 -1.1135  2.6711
45611SOL    HW241964   4.485   0.532   3.413 -0.6350  0.6463 -0.1245
45612SOL     OW41965  11.308   0.866   8.504  0.5278 -0.1013  0.2128
45612SOL    HW141966  11.395   0.905   8.502  1.2832 -1.7948 -2.7474
45612SOL    HW241967  11.290   0.853   8.597  2.6201  1.9769  0.9658
45613SOL     OW41968   2.764  11.206   9.210  0.1393 -0.6195  0.1779
45613SOL    HW141969   2.754  11.220   9.115 -0.7792 -1.1719  0.1893
45613SOL    HW241970   2.691  11.254   9.248  1.3144  0.7753  0.7081
45614SOL     OW41971   5.489   7.682   2.820  0.3904  0.2377 -0.3893
45614SOL    HW141972   5.528   7.733   2.749  0.2084  0.5153 -0.2876
45614SOL    HW241973   5.407   7.648   2.783  0.0219  0.8425 -0.1285
45615SOL     OW41974   7.269  10.443  10.063 -0.2011 -0.9184 -0.6891
45615SOL    HW141975   7.218  10.422  10.141 -2.6017  3.0241 -1.0558
45615SOL    HW241976   7.348  10.487  10.096 -1.5894  1.4630 -0.4377
45616SOL     OW41977   4.002   6.107   6.466  0.0080 -0.6490  0.0525
45616SOL    HW141978   4.021   6.200   6.475 -1.4212 -0.2608 -0.8594
45616SOL    HW241979   4.063   6.064   6.526 -0.0629  0.9392  1.2897
45617SOL     OW41980   6.516   2.686  10.230 -0.3265  0.3136 -0.3018
45617SOL    HW141981   6.422   2.698  10.242 -0.5321 -1.3032 -0.1831
45617SOL    HW241982   6.546   2.647  10.313  0.8753  2.9602  0.5789
45618SOL     OW41983   0.365   5.475   2.557  0.1273 -0.4421 -0.5913
45618SOL    HW141984   0.314   5.413   2.608 -0.0013 -0.6205 -0.9356
45618SOL    HW241985   0.454   5.440   2.558  0.2447 -0.1258  0.0144
45619SOL     OW41986   9.893   2.378   1.277  0.3358 -0.1506 -0.5777
45619SOL    HW141987   9.840   2.332   1.342 -1.1327  0.5848 -1.2410
45619SOL    HW241988   9.943   2.442   1.329 -0.9242  0.5207 -0.1664
45620SOL     OW41989   8.046  11.210   2.630  0.1858 -0.7369  0.0344
45620SOL    HW141990   8.096  11.234   2.708 -1.8938 -0.5733  1.3870
45620SOL    HW241991   8.011  11.292   2.597 -0.9809 -1.0658  0.4107
45621SOL     OW41992   9.825   0.434   3.166 -0.2413  0.1174 -0.5212
45621SOL    HW141993   9.852   0.356   3.118 -0.6763 -1.6301  1.9580
45621SOL    HW241994   9.902   0.491   3.165  1.2535 -1.8341  0.5924
45622SOL     OW41995   3.866   6.529   9.601 -0.0942 -1.1131 -0.2169
45622SOL    HW141996   3.892   6.447   9.643  1.5215 -1.6270 -2.1009
45622SOL    HW241997   3.937   6.589   9.621 -0.5041 -0.6468 -0.1643
45623SOL     OW41998   6.680   7.609  10.176 -0.1396 -0.2655  0.4438
45623SOL    HW141999   6.610   7.579  10.234 -0.0078  0.6904  1.1213
45623SOL    HW242000   6.646   7.599  10.088 -0.4028 -1.6147  0.6958
45624SOL     OW42001   8.627   7.073   5.095 -0.1139  0.1441 -0.8005
45624SOL    HW142002   8.631   7.092   5.188  1.2122  0.2408 -0.8591
45624SOL    HW242003   8.536   7.051   5.078 -0.2649 -0.3660  0.6216
45625SOL     OW42004   2.481  11.269   6.538 -0.0947  0.5293 -0.5739
45625SOL    HW142005   2.431  11.311   6.468 -2.5403  0.9175  1.3232
45625SOL    HW242006   2.431  11.191   6.560  0.8962  0.1606  0.4407
45626SOL     OW42007  10.370   3.046   7.420  0.2537  0.2507 -0.1971
45626SOL    HW142008  10.325   3.113   7.471 -0.3964 -1.9144  2.1867
45626SOL    HW242009  10.312   3.029   7.347 -0.4586  0.9591  0.1935
45627SOL     OW42010   8.103   3.620  11.181 -0.1816 -0.6541 -0.6327
45627SOL    HW142011   8.087   3.707  11.217  0.3045 -1.1962  0.9298
45627SOL    HW242012   8.019   3.575  11.188  0.3293 -1.3108  1.4006
45628SOL     OW42013   7.880  10.068   4.681  0.2113  0.7324  0.6092
45628SOL    HW142014   7.789  10.041   4.682 -0.0362  1.5637  0.6803
45628SOL    HW242015   7.913  10.045   4.768  0.3392 -0.4513  0.2594
45629SOL     OW42016   4.122   6.373  10.422  0.2326  0.0616  0.0308
45629SOL    HW142017   4.100   6.401  10.333  0.7527 -0.8799 -0.3980
45629SOL    HW242018   4.090   6.283  10.428 -0.4139  0.3505  1.0304
45630SOL     OW42019   4.948   9.937   3.451 -0.3487 -0.1369  0.1350
45630SOL    HW142020   5.009   9.880   3.405 -1.2861 -0.2551 -0.9729
45630SOL    HW242021   4.891   9.973   3.383 -2.5586 -1.3007  1.3030
45631SOL     OW42022   5.337   4.816   5.599  0.1171  0.1825  0.2082
45631SOL    HW142023   5.270   4.776   5.543 -0.4033  0.8040  0.3742
45631SOL    HW242024   5.362   4.747   5.660 -1.4145  0.3619  1.0675
45632SOL     OW42025   2.237   5.025   7.574 -0.4737 -0.3774  1.0387
45632SOL    HW142026   2.164   4.971   7.543 -0.7864  1.8536 -2.3088
45632SOL    HW242027   2.196   5.108   7.598  0.4186 -0.5789  3.4146
45633SOL     OW42028  10.700   7.894   3.042  0.2245 -0.1728 -0.2555
45633SOL    HW142029  10.775   7.895   2.982 -0.0576  2.1591 -0.6269
45633SOL    HW242030  10.717   7.967   3.102 -0.7986 -0.8409  0.8734
45634SOL     OW42031   8.821   7.062   7.131 -0.1808  0.1469 -0.2562
45634SOL    HW142032   8.803   7.088   7.040  0.2121  1.2616 -0.0191
45634SOL    HW242033   8.914   7.040   7.131  0.7135  3.6899  0.6843
45635SOL     OW42034   6.232   3.589   3.353 -0.0646 -0.2294  0.2446
45635SOL    HW142035   6.288   3.551   3.420 -0.9277 -0.7951  0.6621
45635SOL    HW242036   6.198   3.670   3.393  1.5728  0.8910 -0.5498
45636SOL     OW42037   7.783   2.417   9.875 -0.2212  0.0344  0.1992
45636SOL    HW142038   7.739   2.333   9.860  0.3651 -0.4771  1.2855
45636SOL    HW242039   7.736   2.479   9.819 -1.7070 -0.6877  0.6170
45637SOL     OW42040   8.117   9.078   0.456 -0.0584  0.0092  0.2359
45637SOL    HW142041   8.085   9.168   0.465  1.7693  0.6009  1.0324
45637SOL    HW242042   8.211   9.087   0.438  0.4063 -1.7519  1.6061
45638SOL     OW42043   8.389  10.623   2.525 -0.4009  0.1902 -0.4449
45638SOL    HW142044   8.326  10.572   2.474 -0.7368 -0.4814  0.6309
45638SOL    HW242045   8.449  10.559   2.561  1.1680  0.8687 -1.7880
45639SOL     OW42046   5.981   2.356   3.559  0.1433 -0.4477  0.8430
45639SOL    HW142047   5.897   2.371   3.515 -0.0172  0.8959  1.5606
45639SOL    HW242048   6.018   2.279   3.516  0.3452  1.2621 -2.1084
45640SOL     OW42049   1.194   5.882   7.699  0.0639  0.1669  0.7648
45640SOL    HW142050   1.275   5.846   7.662 -0.4087 -0.3921  0.2872
45640SOL    HW242051   1.155   5.932   7.628 -0.2320  0.0949  0.8770
45641SOL     OW42052   9.905   3.069   9.673 -0.2934 -0.3027  0.7900
45641SOL    HW142053   9.982   3.116   9.641  0.8158 -1.3185  1.9263
45641SOL    HW242054   9.832   3.107   9.624  0.9308  0.6076 -0.3720
45642SOL     OW42055   7.471   1.412  10.147  0.0566 -0.0491  0.2545
45642SOL    HW142056   7.484   1.400  10.053  0.9532  1.0534  0.2303
45642SOL    HW242057   7.558   1.396  10.185 -0.1680  0.0966  0.8259
45643SOL     OW42058   8.529   7.962   9.844  0.6671  0.2924 -0.0214
45643SOL    HW142059   8.600   8.024   9.823  0.0852  1.1802  0.5827
45643SOL    HW242060   8.488   7.943   9.759  1.8892 -0.5651 -0.4315
45644SOL     OW42061   8.951   1.681   9.318  0.2457 -0.5397 -0.2395
45644SOL    HW142062   8.873   1.696   9.264  0.8279  0.1605 -0.9031
45644SOL    HW242063   9.012   1.635   9.260 -0.7015 -3.6091  1.1188
45645SOL     OW42064   4.988   3.634   4.535  0.3208  0.0368  0.1065
45645SOL    HW142065   5.027   3.719   4.515 -0.7178  0.9453  1.9001
45645SOL    HW242066   4.904   3.635   4.489  0.0941  0.1824  0.5191
45646SOL     OW42067   2.996  10.840   1.295 -0.2461 -0.0898  0.5545
45646SOL    HW142068   3.051  10.763   1.305 -0.0418 -0.3038 -1.8987
45646SOL    HW242069   2.912  10.806   1.262  0.6571  0.8942 -3.0157
45647SOL     OW42070   5.971  11.112   9.777  0.0262 -0.2492 -0.1784
45647SOL    HW142071   6.049  11.064   9.807  0.6892  0.6090 -0.5077
45647SOL    HW242072   5.944  11.164   9.852  0.7664  0.7175 -0.5669
45648SOL     OW42073   3.047   3.078   5.455 -0.3574  0.6263 -0.7027
45648SOL    HW142074   3.097   2.998   5.472  0.4370  1.6748  2.0937
45648SOL    HW242075   3.086   3.144   5.512 -4.0040  1.8255  0.5471
45649SOL     OW42076   3.179   0.464   8.146  0.1873 -0.3638  0.0286
45649SOL    HW142077   3.123   0.394   8.111 -0.3642 -0.7627  1.6345
45649SOL    HW242078   3.123   0.542   8.146  0.8566  0.1270 -1.9206
45650SOL     OW42079   8.025   1.748  10.457 -0.6495  0.2475 -0.0020
45650SOL    HW142080   8.108   1.796  10.463  0.3682 -1.4445 -0.1316
45650SOL    HW242081   8.035   1.675  10.518 -0.8725 -1.6414 -2.1632
45651SOL     OW42082   9.329   1.301   6.641  0.1980  0.6495 -0.3782
45651SOL    HW142083   9.314   1.252   6.722 -1.3885 -1.8589 -2.1325
45651SOL    HW242084   9.278   1.381   6.652 -1.9101 -0.7326  0.1911
45652SOL     OW42085   9.021   6.097  11.039  0.0476  0.3928 -0.3512
45652SOL    HW142086   9.047   6.187  11.059 -1.4395  0.8545 -0.4789
45652SOL    HW242087   9.021   6.092  10.944 -1.4196  0.7259 -0.3773
45653SOL     OW42088  11.331   6.547  10.160  0.0404 -0.3052 -0.2448
45653SOL    HW142089  11.295   6.635  10.152  0.3269 -0.1900 -0.2818
45653SOL    HW242090  11.410   6.549  10.106  1.4596  0.1797  1.7912
45654SOL     OW42091   3.325   4.886   7.874  0.3186 -0.1259 -0.0615
45654SOL    HW142092   3.346   4.794   7.861  0.7679  0.0988 -0.9652
45654SOL    HW242093   3.271   4.888   7.953  0.5066 -1.1324  0.0907
45655SOL     OW42094   9.567   9.674  10.316  0.0805 -0.4156 -0.0971
45655SOL    HW142095   9.594   9.597  10.366  1.4071  1.7707  2.6483
45655SOL    HW242096   9.642   9.695  10.261  0.5735  0.2465  0.8210
45656SOL     OW42097   3.505   0.952   8.429 -0.2471  0.0886  0.3111
45656SOL    HW142098   3.562   0.944   8.352  0.6044  0.3375  0.9030
45656SOL    HW242099   3.423   0.986   8.394  0.5160  1.3357 -0.3470
45657SOL     OW42100   1.401   9.340   6.764 -0.4583  0.3184 -0.7498
45657SOL    HW142101   1.487   9.381   6.759 -0.8940  1.3752  0.3556
45657SOL    HW242102   1.339   9.407   6.735 -1.1642  0.4255  0.9702
45658SOL     OW42103   7.909   9.038   5.804 -0.1282  0.0986 -0.4035
45658SOL    HW142104   7.894   8.983   5.727 -1.1598  0.6415 -0.5887
45658SOL    HW242105   7.855   9.115   5.790 -1.0368 -0.2083  1.3060
45659SOL     OW42106   1.143   8.333  10.143 -0.5410 -0.2603  0.1362
45659SOL    HW142107   1.178   8.386  10.072  1.6274 -2.6789 -0.6495
45659SOL    HW242108   1.069   8.286  10.104 -1.8536  1.3719  0.5802
45660SOL     OW42109  10.560   8.161   2.277  1.0809 -0.6004  0.0657
45660SOL    HW142110  10.570   8.215   2.199  0.5824 -1.4456 -0.5924
45660SOL    HW242111  10.546   8.072   2.244 -0.8618 -0.7086  1.0438
45661SOL     OW42112   6.064   3.445   2.459 -0.1320 -0.1449 -0.0108
45661SOL    HW142113   6.050   3.421   2.368 -1.3644 -1.2144  0.4496
45661SOL    HW242114   5.988   3.411   2.506  1.5132 -1.5562  1.7577
45662SOL     OW42115   8.703   9.282   8.478  0.0113  0.5817 -0.0527
45662SOL    HW142116   8.638   9.214   8.494 -0.1236  0.8223  0.4323
45662SOL    HW242117   8.754   9.249   8.404  1.4709 -1.1643  1.6709
45663SOL     OW42118   6.888   5.303   9.112  0.1666  0.1244  0.1416
45663SOL    HW142119   6.873   5.213   9.142  0.1902  0.1473  0.2225
45663SOL    HW242120   6.894   5.296   9.017 -0.7957  0.1747  0.0666
45664SOL     OW42121   2.173   4.297   7.070 -0.2484  0.5700 -0.5946
45664SOL    HW142122   2.100   4.313   7.010  0.2926  1.1538 -1.1072
45664SOL    HW242123   2.223   4.378   7.067  0.2206  0.3010  0.0378
45665SOL     OW42124  11.207   4.661   9.757 -0.7114  0.1430  0.1906
45665SOL    HW142125  11.220   4.657   9.663  0.2533 -0.0899  0.3232
45665SOL    HW242126  11.115   4.682   9.769 -1.2079 -1.4938 -0.7809
45666SOL     OW42127   4.789   3.718  10.113 -0.3769  0.0729  0.1004
45666SOL    HW142128   4.777   3.679  10.200 -0.8741 -2.2072 -0.9526
45666SOL    HW242129   4.837   3.652  10.063 -0.2044  1.3089 -1.4126
45667SOL     OW42130   6.284   0.829   0.301  0.1581 -0.6229 -0.2440
45667SOL    HW142131   6.271   0.855   0.209  3.5348  1.2081 -0.2644
45667SOL    HW242132   6.217   0.878   0.349 -0.1246  0.2362 -1.4819
45668SOL     OW42133   5.883   6.098   2.670 -0.5772 -0.6435  0.3782
45668SOL    HW142134   5.831   6.055   2.602 -0.5162 -1.2395  0.7028
45668SOL    HW242135   5.823   6.107   2.744 -0.1900 -1.4585  0.8023
45669SOL     OW42136   5.483   0.790   8.438 -0.4551  0.0726 -0.3706
45669SOL    HW142137   5.404   0.740   8.422 -1.1991  0.2475  2.4333
45669SOL    HW242138   5.554   0.733   8.410 -1.4850 -0.8773 -1.0709
45670SOL     OW42139   7.837   0.082   1.807 -0.4159 -0.3409  0.6624
45670SOL    HW142140   7.873   0.127   1.730  0.0967  1.0471  1.7092
45670SOL    HW242141   7.752   0.049   1.777  0.3949 -1.0542 -0.9181
45671SOL     OW42142   7.179  11.279   5.135 -0.0633 -0.3100  0.0571
45671SOL    HW142143   7.203  11.209   5.195  1.0181 -0.6149 -0.7241
45671SOL    HW242144   7.115  11.239   5.076  0.4940 -0.6281 -0.3391
45672SOL     OW42145   2.436   2.069   9.890  0.5273 -0.5627  0.5413
45672SOL    HW142146   2.348   2.090   9.860  0.5836 -0.5558  0.3792
45672SOL    HW242147   2.444   1.975   9.878  1.1524 -0.3137 -1.1067
45673SOL     OW42148   1.379   1.556   4.184 -0.0673  0.2061  0.3513
45673SOL    HW142149   1.329   1.498   4.243  0.0717 -0.6836 -0.3864
45673SOL    HW242150   1.468   1.521   4.186  0.0050  0.3572 -0.1330
45674SOL     OW42151   5.429   1.305   8.353  0.2152  0.2844 -0.3977
45674SOL    HW142152   5.458   1.214   8.357 -1.0288 -0.1137 -0.0497
45674SOL    HW242153   5.357   1.310   8.416 -0.0856  1.3783 -0.8062
45675SOL     OW42154   2.708   7.309   8.889 -0.8328 -0.0044 -0.5654
45675SOL    HW142155   2.778   7.353   8.936 -0.2598 -1.9958  0.4817
45675SOL    HW242156   2.633   7.367   8.898  0.1421  1.1794  0.0361
45676SOL     OW42157   1.119   2.817   3.494 -0.2563  0.8542  0.0528
45676SOL    HW142158   1.091   2.889   3.437 -1.7062  0.0806 -0.2444
45676SOL    HW242159   1.134   2.744   3.434  3.4439  1.4996  0.0795
45677SOL     OW42160   7.662   5.373   3.218 -0.5372 -0.2304  0.2156
45677SOL    HW142161   7.750   5.337   3.218 -0.4553 -0.0398 -1.5819
45677SOL    HW242162   7.649   5.403   3.308  1.6063  0.6885  0.2491
45678SOL     OW42163   6.037   6.280   4.184 -0.7663 -0.1626 -0.0179
45678SOL    HW142164   6.086   6.248   4.260 -4.0870  1.4760  2.9632
45678SOL    HW242165   5.945   6.269   4.208 -1.9370  0.8703 -3.6432
45679SOL     OW42166   7.549   7.116   2.566  0.0244  0.1041  0.7077
45679SOL    HW142167   7.562   7.101   2.660  2.4938  3.1708  0.9137
45679SOL    HW242168   7.623   7.070   2.525 -0.1683  0.0980  0.3703
45680SOL     OW42169   1.428   0.879   0.562  0.3461  0.0771 -0.3259
45680SOL    HW142170   1.378   0.953   0.595  1.1665  0.8735 -0.8732
45680SOL    HW242171   1.498   0.866   0.626  0.6400  0.2416 -0.6124
45681SOL     OW42172   7.776  10.470   0.753  0.2476 -0.9593 -0.5145
45681SOL    HW142173   7.813  10.438   0.670  0.0734 -0.3321 -0.8340
45681SOL    HW242174   7.773  10.392   0.809 -0.2579 -1.5317 -1.3237
45682SOL     OW42175   0.733   9.464   2.785 -0.1254 -0.0775 -0.3077
45682SOL    HW142176   0.649   9.508   2.767  0.0163 -0.7033 -2.6079
45682SOL    HW242177   0.774   9.519   2.852 -1.0130  1.9796 -1.4011
45683SOL     OW42178   9.362   5.123  11.057  0.8864  0.2699 -0.0784
45683SOL    HW142179   9.380   5.141  11.149 -0.6755  0.1400  0.2507
45683SOL    HW242180   9.441   5.077  11.026  1.1472 -0.2446  1.3429
45684SOL     OW42181   9.113   8.298   6.431 -0.4279 -0.3011 -0.0967
45684SOL    HW142182   9.116   8.247   6.512 -0.1031  1.6423  1.1586
45684SOL    HW242183   9.205   8.317   6.412 -0.4574 -1.3144 -1.3030
45685SOL     OW42184   7.333   8.047   2.482  0.4070 -0.6438  0.3894
45685SOL    HW142185   7.388   7.969   2.474  1.1424 -0.1103  0.2244
45685SOL    HW242186   7.375   8.112   2.426 -0.1430 -0.0887  0.6132
45686SOL     OW42187   1.876   0.514   4.786  0.3722  0.1891 -0.3270
45686SOL    HW142188   1.952   0.571   4.800  1.1813 -0.8306 -0.4500
45686SOL    HW242189   1.838   0.504   4.874  2.0066 -1.4822  0.2406
45687SOL     OW42190   7.608   9.124   4.631 -0.1548  0.0143 -0.7775
45687SOL    HW142191   7.583   9.056   4.568 -0.7043 -1.1419  0.6322
45687SOL    HW242192   7.674   9.081   4.686  0.9634  1.2950 -1.1054
45688SOL     OW42193   4.851   2.272  10.567  0.7658 -0.0826  0.0310
45688SOL    HW142194   4.775   2.281  10.509 -0.0576 -1.6563  0.8265
45688SOL    HW242195   4.871   2.361  10.594 -1.5748  0.2516  0.7779
45689SOL     OW42196  11.228   8.678   8.820 -0.6852 -0.0040 -0.3586
45689SOL    HW142197  11.215   8.767   8.789  2.3209  0.9040  0.7926
45689SOL    HW242198  11.248   8.627   8.741  1.6752  1.2119 -0.5835
45690SOL     OW42199   3.293   8.196   8.250 -0.0094  0.4551  0.4697
45690SOL    HW142200   3.386   8.202   8.272  0.6289 -0.3126 -1.7994
45690SOL    HW242201   3.291   8.139   8.173 -2.5271 -0.7963  1.4182
45691SOL     OW42202   5.768   4.203   5.218 -0.0360 -0.4521 -0.6595
45691SOL    HW142203   5.750   4.297   5.222 -1.7391 -0.7902  0.1124
45691SOL    HW242204   5.689   4.165   5.179  0.2365 -1.6600 -0.0710
45692SOL     OW42205   7.526   3.208   2.317 -0.0375  0.4706  0.1848
45692SOL    HW142206   7.597   3.267   2.294  0.4716 -0.0798  0.3331
45692SOL    HW242207   7.458   3.265   2.353 -0.8143  1.3482 -2.5552
45693SOL     OW42208   8.864  10.711   6.924  0.2470  0.2272 -0.5180
45693SOL    HW142209   8.796  10.660   6.969 -0.4023  1.5019 -0.0300
45693SOL    HW242210   8.828  10.727   6.837 -0.2832  1.2458 -0.1297
45694SOL     OW42211  11.289   3.931   1.603  0.4080 -0.3119 -0.0626
45694SOL    HW142212  11.214   3.874   1.588  1.3739 -1.8224  0.6981
45694SOL    HW242213  11.302   3.976   1.519 -1.3023 -0.0464 -0.2100
45695SOL     OW42214   4.479   7.106   7.214 -0.0038 -0.6420  0.0096
45695SOL    HW142215   4.513   7.183   7.167  1.5993 -1.6260 -0.4978
45695SOL    HW242216   4.411   7.072   7.156 -0.4759  0.1994  0.0676
45696SOL     OW42217   6.574   6.889  10.185  0.2164  0.7579  0.2889
45696SOL    HW142218   6.647   6.871  10.125 -0.5593  0.3381 -0.5508
45696SOL    HW242219   6.616   6.911  10.268  1.2921 -0.2896  0.0376
45697SOL     OW42220   5.713   7.146  10.789 -0.4262  0.3264  0.6038
45697SOL    HW142221   5.636   7.127  10.736 -0.6292  1.1315  0.5906
45697SOL    HW242222   5.682   7.142  10.880 -0.3511  0.0946  0.6183
45698SOL     OW42223   5.126   8.760   0.034 -0.0596  0.0446  0.3206
45698SOL    HW142224   5.076   8.809   0.098  0.2326 -0.9740  1.3423
45698SOL    HW242225   5.088   8.785  -0.050 -0.2786  1.5703  0.8646
45699SOL     OW42226   9.336   4.866   0.050 -0.1930 -0.0444  1.0101
45699SOL    HW142227   9.241   4.850   0.052 -0.4337  1.1378 -0.1717
45699SOL    HW242228   9.367   4.813  -0.024 -0.0543  0.1588  0.9233
45700SOL     OW42229   1.224   6.552   8.763 -0.1585 -0.2906  0.4571
45700SOL    HW142230   1.190   6.514   8.683 -1.4350 -3.9994  2.6249
45700SOL    HW242231   1.150   6.599   8.801 -1.0669 -2.7818  1.8846
45701SOL     OW42232   8.173   1.521  10.864 -0.0575  0.6818 -0.7464
45701SOL    HW142233   8.142   1.467  10.937  0.8294  0.9052 -0.1925
45701SOL    HW242234   8.268   1.512  10.866 -0.1048 -0.7269 -3.0117
45702SOL     OW42235   9.789  10.337   2.718  0.2237 -0.2262  0.0103
45702SOL    HW142236   9.856  10.311   2.781 -0.4475  0.9085  1.2188
45702SOL    HW242237   9.773  10.429   2.737 -0.4376 -0.0279 -1.4284
45703SOL     OW42238  11.192   7.944   2.561 -0.1527  0.7229 -0.0012
45703SOL    HW142239  11.126   8.002   2.522  0.5467  0.4782 -1.5850
45703SOL    HW242240  11.275   7.971   2.521  0.8413  1.4821  2.4828
45704SOL     OW42241   6.889   1.943   6.642  0.0917  0.2771 -0.3267
45704SOL    HW142242   6.886   1.905   6.555 -0.1590  0.2841 -0.3225
45704SOL    HW242243   6.803   1.984   6.654  0.9404  2.3267 -0.9959
45705SOL     OW42244  10.805   8.218  10.548  0.2200  0.0662  0.3255
45705SOL    HW142245  10.751   8.149  10.587  0.5447 -0.5151 -0.2230
45705SOL    HW242246  10.745   8.265  10.490  0.7936 -2.1163 -2.1770
45706SOL     OW42247   0.300  10.640   7.368 -0.0120 -0.5920 -0.4731
45706SOL    HW142248   0.351  10.667   7.445  1.3482 -0.4081 -1.4196
45706SOL    HW242249   0.357  10.579   7.322 -1.3813 -1.7779 -0.6161
45707SOL     OW42250   0.589   3.625   5.789  0.2109 -0.3801 -0.1821
45707SOL    HW142251   0.647   3.699   5.803 -0.9638  0.2664  1.3625
45707SOL    HW242252   0.648   3.552   5.770  1.4944  0.4010  0.7385
45708SOL     OW42253   3.824   9.192   8.339 -0.0239 -0.5348  0.5573
45708SOL    HW142254   3.897   9.130   8.346 -0.3435 -0.6776  3.0743
45708SOL    HW242255   3.852   9.269   8.387  0.1080  1.1001 -2.0232
45709SOL     OW42256  11.093   0.492   6.106  0.1902 -0.5390 -0.1509
45709SOL    HW142257  11.035   0.568   6.099  0.8184 -0.2369 -2.5143
45709SOL    HW242258  11.173   0.526   6.146 -0.1348 -0.3029  0.2965
45710SOL     OW42259   4.088   4.930   3.914  0.0154 -0.5650  0.7698
45710SOL    HW142260   4.015   4.949   3.973 -0.6367 -0.0703 -0.1644
45710SOL    HW242261   4.059   4.964   3.829  1.7995  0.6790  0.6279
45711SOL     OW42262   4.593   1.935   1.793 -0.3442 -0.1024 -0.1436
45711SOL    HW142263   4.608   1.946   1.699  1.8091 -0.3176  0.1469
45711SOL    HW242264   4.595   1.840   1.806 -1.4714 -0.1183  0.0164
45712SOL     OW42265   5.938   0.805   5.266  0.1703  0.0258  0.2915
45712SOL    HW142266   5.865   0.866   5.255  0.9372  1.4068  2.4927
45712SOL    HW242267   5.948   0.796   5.361  2.2129 -0.9355  0.0190
45713SOL     OW42268   3.239  10.919   5.602  0.3342 -0.7813 -0.3166
45713SOL    HW142269   3.194  10.876   5.529 -0.0421  1.3694 -1.4179
45713SOL    HW242270   3.169  10.937   5.665  0.0101  0.4829 -1.0055
45714SOL     OW42271  10.883   0.992   5.172 -0.3052  0.3294 -0.0690
45714SOL    HW142272  10.808   1.051   5.164 -1.2152 -0.8505 -0.2580
45714SOL    HW242273  10.911   0.976   5.082 -0.8177 -0.5013 -0.0804
45715SOL     OW42274   1.937  10.279   0.916 -0.7129  0.2676  0.3043
45715SOL    HW142275   1.888  10.235   0.986 -1.8505 -0.4438 -0.9134
45715SOL    HW242276   2.026  10.244   0.923 -0.7436  0.4137  1.5601
45716SOL     OW42277   0.980  10.864   7.355  0.1980 -0.2412 -0.0125
45716SOL    HW142278   0.966  10.929   7.286 -0.4617 -0.0423  0.3083
45716SOL    HW242279   1.051  10.900   7.408  2.5385 -1.5892 -2.0670
45717SOL     OW42280   0.527   6.503   1.442  0.1741  0.6563 -0.0073
45717SOL    HW142281   0.621   6.500   1.456 -0.2012  0.1641  2.5862
45717SOL    HW242282   0.489   6.471   1.524 -2.2595  1.4364 -0.7846
45718SOL     OW42283   1.300   1.263   8.785  0.3065  0.0552  0.1085
45718SOL    HW142284   1.348   1.299   8.710 -0.1771 -0.0718 -0.2631
45718SOL    HW242285   1.217   1.234   8.748 -0.6522  1.6124  1.0154
45719SOL     OW42286   8.040   2.890   2.001 -0.0812 -0.1927 -0.3503
45719SOL    HW142287   8.018   2.978   1.972 -2.2245 -0.5706  0.0346
45719SOL    HW242288   8.030   2.835   1.924  1.8166 -0.0274 -0.7294
45720SOL     OW42289   5.999   9.013   0.971  0.3927 -0.5319 -0.2183
45720SOL    HW142290   5.944   9.080   1.011  0.2984 -0.5568 -0.3069
45720SOL    HW242291   5.993   8.938   1.030  0.9796 -0.2562  0.1936
45721SOL     OW42292   6.903   4.163  10.974  0.2156 -0.2130  0.5670
45721SOL    HW142293   6.910   4.070  10.996  2.6400  0.2050  1.7744
45721SOL    HW242294   6.986   4.184  10.933 -0.9674  1.0687 -1.2428
45722SOL     OW42295   9.806   9.345   7.612  0.0537 -0.2270  0.2210
45722SOL    HW142296   9.712   9.362   7.605  0.1726  0.4428  0.2292
45722SOL    HW242297   9.847   9.415   7.561  0.5575 -0.3640  0.4364
45723SOL     OW42298   6.494   7.412   9.176  0.2176 -0.7560  0.1062
45723SOL    HW142299   6.540   7.433   9.094 -1.4995  0.4529 -0.5811
45723SOL    HW242300   6.543   7.459   9.243 -0.1408  0.7644 -0.6635
45724SOL     OW42301   2.283   1.314   6.007  0.4595  0.1318  0.6681
45724SOL    HW142302   2.353   1.357   6.055  0.3145 -0.5557  1.5188
45724SOL    HW242303   2.323   1.233   5.976  0.1676 -0.0632  0.8002
45725SOL     OW42304   4.287   7.556   1.389 -0.0953 -0.3208 -0.1721
45725SOL    HW142305   4.237   7.560   1.307 -0.4356 -0.3412  0.0317
45725SOL    HW242306   4.245   7.485   1.439 -0.2281  0.0453  0.2408
45726SOL     OW42307  10.197   1.810   0.167 -0.6842  0.0519 -0.2177
45726SOL    HW142308  10.128   1.778   0.108  0.7352 -0.0514 -1.8705
45726SOL    HW242309  10.279   1.790   0.121  0.4089  1.3384  1.1247
45727SOL     OW42310   7.601   1.690   0.489  0.4003 -0.2678  0.5351
45727SOL    HW142311   7.629   1.774   0.453 -2.0554 -0.0456 -0.9933
45727SOL    HW242312   7.513   1.707   0.523 -0.6421 -2.4897 -0.9483
45728SOL     OW42313   8.100   8.281   7.141 -0.2075  0.5135  0.3461
45728SOL    HW142314   8.030   8.256   7.080 -0.0889 -0.4687  0.6009
45728SOL    HW242315   8.054   8.313   7.218 -0.3904 -0.5747  0.6977
45729SOL     OW42316   8.551   7.541   3.132  0.1732 -0.2990  0.6695
45729SOL    HW142317   8.512   7.581   3.054 -0.2441 -1.6026  0.2074
45729SOL    HW242318   8.545   7.610   3.199 -0.6291  0.3876 -0.0869
45730SOL     OW42319   6.433   8.865   4.861 -0.2302 -0.1018 -0.4930
45730SOL    HW142320   6.444   8.866   4.956  0.1668 -2.1599 -0.5007
45730SOL    HW242321   6.502   8.923   4.828 -1.3476  1.8663  0.5370
45731SOL     OW42322  10.541   1.152   6.361 -0.3890 -0.0486  0.4425
45731SOL    HW142323  10.583   1.089   6.421 -1.4108 -0.3993  0.7951
45731SOL    HW242324  10.502   1.097   6.294  0.3756  0.3269 -0.3197
45732SOL     OW42325  10.879   2.891   4.840 -0.0586  0.4485 -0.4393
45732SOL    HW142326  10.870   2.933   4.755 -0.2384  1.6108  0.1495
45732SOL    HW242327  10.973   2.895   4.859 -0.3529  2.9284  0.7663
45733SOL     OW42328   9.427   1.269   8.975 -0.1658  0.1579 -0.1710
45733SOL    HW142329   9.495   1.270   8.908  0.0228  2.7815  0.0027
45733SOL    HW242330   9.347   1.245   8.929  0.4848 -0.9570 -0.7499
45734SOL     OW42331   4.516   3.331   2.253 -0.7424  0.4879  0.6889
45734SOL    HW142332   4.520   3.256   2.194 -1.0798  0.9652  0.0535
45734SOL    HW242333   4.509   3.407   2.195  0.1290  1.0531  1.3094
45735SOL     OW42334   0.146   3.834   0.983 -0.4351 -0.1052 -0.0373
45735SOL    HW142335   0.061   3.794   0.967 -0.4765  0.1752 -0.5258
45735SOL    HW242336   0.209   3.764   0.964 -0.3826  0.7784 -3.4560
45736SOL     OW42337   1.219   9.213   9.468  0.2983 -0.1260 -0.1103
45736SOL    HW142338   1.159   9.186   9.398  0.2911 -0.8165  0.1579
45736SOL    HW242339   1.166   9.215   9.547  0.7469 -1.3054  0.2322
45737SOL     OW42340   4.802   1.771   2.206 -0.2610 -0.5139 -0.6773
45737SOL    HW142341   4.769   1.709   2.271  0.6693 -0.3670 -0.0494
45737SOL    HW242342   4.758   1.853   2.226  0.9984 -0.1302  0.6251
45738SOL     OW42343   4.542   1.247   5.995 -0.6765 -1.0533  0.0430
45738SOL    HW142344   4.495   1.292   5.925 -0.6739 -0.7437  0.2366
45738SOL    HW242345   4.631   1.285   5.991 -0.2151 -2.2080 -0.8386
45739SOL     OW42346   0.557   1.368   2.075  0.1322  0.3084 -0.2942
45739SOL    HW142347   0.634   1.409   2.114  0.6184 -0.5228 -0.3480
45739SOL    HW242348   0.487   1.431   2.086  0.6358  0.7297  0.5067
45740SOL     OW42349   5.621   2.650   3.839 -0.3071  0.1433  0.1647
45740SOL    HW142350   5.692   2.596   3.875 -1.2141 -1.7024 -0.7393
45740SOL    HW242351   5.562   2.664   3.913 -0.4449 -0.7523  0.2282
45741SOL     OW42352   5.909   4.869   1.020 -0.5726  0.2213  0.3321
45741SOL    HW142353   5.825   4.827   1.038 -1.0945  1.0623 -0.0902
45741SOL    HW242354   5.908   4.885   0.925  0.2227 -0.0988  0.2624
45742SOL     OW42355   0.761   4.413   0.691 -0.2026 -0.2310 -0.6106
45742SOL    HW142356   0.829   4.436   0.628 -0.0899 -0.5082 -0.5880
45742SOL    HW242357   0.723   4.497   0.716  1.3135  0.0956  0.7139
45743SOL     OW42358   7.482   7.578   8.866 -0.5768 -0.5798  0.1855
45743SOL    HW142359   7.423   7.522   8.816 -0.8960 -1.5345  1.6180
45743SOL    HW242360   7.506   7.526   8.943 -1.7283  1.6584  2.1075
45744SOL     OW42361   0.504   3.613   4.314 -0.1851  0.2141  0.1428
45744SOL    HW142362   0.537   3.687   4.366 -0.0970  0.1560  0.1699
45744SOL    HW242363   0.425   3.647   4.272 -0.5843  0.0799  0.7782
45745SOL     OW42364   0.685  10.152   8.440  0.7379  0.1559  0.0305
45745SOL    HW142365   0.735  10.200   8.506 -1.5212  0.8724  1.2585
45745SOL    HW242366   0.683  10.062   8.473 -0.6079  0.5655  1.0844
45746SOL     OW42367   2.553   0.403   0.597 -0.4780 -0.4031  0.2684
45746SOL    HW142368   2.597   0.476   0.640 -0.4385 -0.6251  0.6159
45746SOL    HW242369   2.542   0.430   0.506 -1.3326  0.4340  0.6154
45747SOL     OW42370   5.886   6.735   1.027 -0.0823 -0.7453  0.3544
45747SOL    HW142371   5.958   6.782   0.984  0.9171  0.4497  3.1982
45747SOL    HW242372   5.807   6.770   0.986  0.6844  2.8578  1.7040
45748SOL     OW42373   1.375   2.084   3.043  0.1117  0.6638  0.1930
45748SOL    HW142374   1.387   2.042   3.128 -1.4258  3.6599  2.0098
45748SOL    HW242375   1.285   2.117   3.045  0.1153  0.9715 -2.5266
45749SOL     OW42376  10.201   2.567   7.829 -0.4862  0.5759 -0.0754
45749SOL    HW142377  10.191   2.493   7.771 -5.4034  1.4001 -0.4716
45749SOL    HW242378  10.262   2.625   7.784 -1.8049 -0.2106 -2.9473
45750SOL     OW42379   7.265   9.348   3.654  0.2888 -0.2652  0.5341
45750SOL    HW142380   7.229   9.432   3.681  0.9315 -0.2632  1.4222
45750SOL    HW242381   7.213   9.283   3.701 -0.8932 -0.4118 -0.9668
45751SOL     OW42382   0.085   2.533   7.841 -0.1116  0.4213 -0.6089
45751SOL    HW142383   0.044   2.585   7.772 -1.3902  1.8649  1.1720
45751SOL    HW242384   0.034   2.453   7.845 -2.4945  1.9555  1.1942
45752SOL     OW42385   3.544   2.073   9.425 -0.2365  0.2656 -0.3232
45752SOL    HW142386   3.549   2.150   9.482 -0.3167  0.2316 -0.2702
45752SOL    HW242387   3.528   2.000   9.485 -1.2579  0.3562 -0.4846
45753SOL     OW42388   2.736   1.994  11.182 -0.1626 -0.1729  0.0173
45753SOL    HW142389   2.770   2.026  11.098  0.1635 -1.1543 -0.2331
45753SOL    HW242390   2.739   1.899  11.174 -2.0910 -0.2728  0.3502
45754SOL     OW42391   4.636   3.462   3.641 -0.3687  0.5236  0.6716
45754SOL    HW142392   4.557   3.504   3.609  0.0616  0.5501 -0.3838
45754SOL    HW242393   4.701   3.479   3.573 -0.2306 -1.9631  0.1214
45755SOL     OW42394   2.206   7.456   1.910  0.2158 -0.6368 -0.1118
45755SOL    HW142395   2.211   7.494   1.997  1.3826 -0.1956 -0.3452
45755SOL    HW242396   2.126   7.491   1.872  1.6769  2.3356 -0.6212
45756SOL     OW42397   9.414   1.070   7.885  0.1878  0.3114 -0.2884
45756SOL    HW142398   9.478   1.015   7.841  0.9412 -0.4524  1.7064
45756SOL    HW242399   9.333   1.020   7.884 -0.0892  0.7678 -1.7504
45757SOL     OW42400   7.372   4.758   2.907  0.5307  0.3671 -0.0518
45757SOL    HW142401   7.363   4.729   2.817  2.5155  0.2466 -0.2232
45757SOL    HW242402   7.463   4.739   2.930  0.3832  1.5089  1.5746
45758SOL     OW42403   5.386   5.468   2.704 -0.1931  0.0888  0.3672
45758SOL    HW142404   5.317   5.509   2.653  2.8660  1.4912 -2.8782
45758SOL    HW242405   5.386   5.377   2.676 -1.4193 -0.1681  1.1897
45759SOL     OW42406   8.897   1.467   7.451 -0.6654  0.0414 -0.2740
45759SOL    HW142407   8.812   1.459   7.495 -2.1971 -1.5042 -3.3560
45759SOL    HW242408   8.898   1.396   7.388  2.5751  0.6081 -0.9203
45760SOL     OW42409   0.578   1.014   1.390 -0.1290  0.3038  0.3270
45760SOL    HW142410   0.597   1.108   1.386 -0.0317  0.2601 -0.3252
45760SOL    HW242411   0.491   1.006   1.352 -0.3269  0.1868  0.8158
45761SOL     OW42412   1.059   6.388   2.343 -0.6224  0.3384  0.0915
45761SOL    HW142413   1.042   6.299   2.313  1.3042  0.1099 -0.3220
45761SOL    HW242414   1.096   6.433   2.267 -2.0579  1.6479  0.1435
45762SOL     OW42415   0.691   7.661   2.291 -0.3258  0.0841  0.7620
45762SOL    HW142416   0.776   7.634   2.256 -0.7692 -2.8115  1.7774
45762SOL    HW242417   0.713   7.716   2.366  0.7546 -2.4919  2.4244
45763SOL     OW42418   1.003   6.879  10.007  0.5132 -0.2169 -0.0565
45763SOL    HW142419   0.917   6.903   9.973  0.3329  0.1476  0.6436
45763SOL    HW242420   1.028   6.801   9.957  0.4122  0.5134 -1.2400
45764SOL     OW42421   5.120   8.662   5.302  0.6772  0.2724 -0.3377
45764SOL    HW142422   5.102   8.632   5.391 -0.4954 -0.3888 -0.7839
45764SOL    HW242423   5.096   8.755   5.303  0.4769  0.2176 -0.0006
45765SOL     OW42424   0.259  11.066   9.696  0.1379 -0.3853  0.0441
45765SOL    HW142425   0.234  11.001   9.761  0.3028 -1.1997 -0.6903
45765SOL    HW242426   0.192  11.059   9.628  0.3866 -0.0823 -0.2364
45766SOL     OW42427   0.166   1.999   1.152  0.2065  0.0118 -0.3845
45766SOL    HW142428   0.259   1.999   1.172  0.3526 -1.3553 -0.9721
45766SOL    HW242429   0.138   1.910   1.172 -1.5488  1.1264  2.3503
45767SOL     OW42430   3.557  10.130   3.061 -0.4606 -0.2212 -0.5250
45767SOL    HW142431   3.581  10.143   2.970  2.9362 -0.7181  0.2376
45767SOL    HW242432   3.611  10.193   3.109 -1.7721 -0.3783  1.1969
45768SOL     OW42433   2.631   1.809   3.796 -0.0921  0.0539  0.1380
45768SOL    HW142434   2.549   1.819   3.845 -0.2516 -1.1662  0.1390
45768SOL    HW242435   2.610   1.840   3.707 -0.8832 -1.3323 -0.1648
45769SOL     OW42436   5.477   8.262   9.955 -0.7936  0.1922  0.0132
45769SOL    HW142437   5.537   8.310   9.899 -1.6197  2.3576  0.9288
45769SOL    HW242438   5.462   8.180   9.909 -0.6847  1.4967 -2.4386
45770SOL     OW42439   7.093  10.343   7.520  0.8486  0.1856 -0.2804
45770SOL    HW142440   7.158  10.337   7.590  1.3361 -0.5550 -0.7886
45770SOL    HW242441   7.105  10.432   7.484  0.0931  0.8330  1.0375
45771SOL     OW42442   7.459   7.233  10.486 -0.5373  0.0702  0.3391
45771SOL    HW142443   7.525   7.298  10.461 -0.2684 -0.4332 -0.2764
45771SOL    HW242444   7.397   7.234  10.413  2.1488 -3.9985 -2.2015
45772SOL     OW42445   8.959   5.968   5.172  0.3111 -0.4279  0.3645
45772SOL    HW142446   8.883   5.916   5.144 -0.8637  1.5210 -0.1849
45772SOL    HW242447   9.020   5.965   5.099 -0.7115  0.7541 -0.5576
45773SOL     OW42448  10.754   5.274   2.471 -0.0144 -0.2996  0.0948
45773SOL    HW142449  10.728   5.217   2.543 -0.4192 -1.2867 -0.8251
45773SOL    HW242450  10.671   5.297   2.428  0.3072 -0.4859 -0.6288
45774SOL     OW42451   3.915  10.532   3.993 -0.1544  0.4839  0.2528
45774SOL    HW142452   3.998  10.557   4.036  0.5491 -1.9337  0.3705
45774SOL    HW242453   3.914  10.436   3.998 -2.5897  0.4554 -0.4883
45775SOL     OW42454   0.972   8.514   8.698  0.1803 -0.1885  0.0025
45775SOL    HW142455   1.065   8.522   8.718 -0.2066  1.1021  1.4351
45775SOL    HW242456   0.955   8.584   8.635  0.1476 -0.3120 -0.1253
45776SOL     OW42457   2.927   3.018   2.540 -1.1967  0.4249 -0.4360
45776SOL    HW142458   2.874   2.954   2.587 -0.0880  0.6117  1.0621
45776SOL    HW242459   2.910   3.101   2.585  0.3652  0.4900  0.0293
45777SOL     OW42460   0.009   8.146   9.415 -0.0840 -0.2031  0.3990
45777SOL    HW142461  -0.025   8.061   9.441 -1.0439 -0.2466 -0.9516
45777SOL    HW242462   0.019   8.140   9.319  1.1271  0.7380  0.4456
45778SOL     OW42463   8.218   1.981   2.187  0.1893 -0.3153  0.0125
45778SOL    HW142464   8.176   1.979   2.101  0.5864 -0.7711 -0.1766
45778SOL    HW242465   8.200   2.069   2.221  1.4678  0.4813 -1.2746
45779SOL     OW42466   0.917   2.809   3.673 -0.1268  0.1218  0.2665
45779SOL    HW142467   0.972   2.815   3.595  1.9564 -0.1348  1.6889
45779SOL    HW242468   0.892   2.717   3.678  1.2412 -0.2257  0.8952
45780SOL     OW42469   8.619   8.664  10.123 -0.3027  0.0053  0.5053
45780SOL    HW142470   8.702   8.619  10.107 -0.3328  0.3828 -0.7297
45780SOL    HW242471   8.640   8.730  10.189 -0.2508 -1.7545  2.3042
45781SOL     OW42472   5.115   5.455   6.872 -0.0233  0.1772 -0.1317
45781SOL    HW142473   5.039   5.451   6.931  0.1656  2.0100  0.2557
45781SOL    HW242474   5.164   5.375   6.892 -0.9841 -0.1989  0.8050
45782SOL     OW42475   3.616   1.428   8.731  0.1748 -0.0359  0.3892
45782SOL    HW142476   3.622   1.474   8.815 -0.2768 -2.2217  1.6645
45782SOL    HW242477   3.527   1.446   8.701 -0.0128 -0.1059  0.8979
45783SOL     OW42478   9.854  10.673   7.655 -0.4107 -0.1566 -0.0790
45783SOL    HW142479   9.798  10.595   7.651 -0.3936 -0.2260  1.0791
45783SOL    HW242480   9.826  10.726   7.580 -1.4327 -0.6023 -0.0202
45784SOL     OW42481   6.795   1.326   1.487 -0.1667 -0.0004  0.0135
45784SOL    HW142482   6.821   1.234   1.489 -0.2384 -0.0113  0.4231
45784SOL    HW242483   6.793   1.353   1.579  1.7432  0.9441 -0.2027
45785SOL     OW42484   9.634   1.604  11.238 -0.8706 -0.4223 -0.6231
45785SOL    HW142485   9.633   1.652  11.321 -0.1496  0.9870 -1.4110
45785SOL    HW242486   9.656   1.515  11.262  3.4210  0.7976  0.3098
45786SOL     OW42487   1.938   0.110   9.069  0.1300 -0.3817  0.2017
45786SOL    HW142488   2.015   0.104   9.012 -0.2540  1.0138 -0.4946
45786SOL    HW242489   1.864   0.097   9.011 -0.1619 -1.9731  0.9214
45787SOL     OW42490   2.358   3.408   9.746  0.5004 -0.1623 -0.1758
45787SOL    HW142491   2.293   3.354   9.700 -0.7818 -0.7023  2.1503
45787SOL    HW242492   2.410   3.345   9.797  1.1038  0.5115  0.0484
45788SOL     OW42493   8.047   8.468   6.830 -0.7383  0.5751 -0.2052
45788SOL    HW142494   8.105   8.525   6.881  0.2445 -3.1197  3.0933
45788SOL    HW242495   8.082   8.472   6.741  1.1407  2.7082  0.5749
45789SOL     OW42496   3.304   6.757   1.943  0.2872  0.1868 -0.0401
45789SOL    HW142497   3.382   6.702   1.950 -0.1191 -0.6154 -1.5794
45789SOL    HW242498   3.253   6.737   2.022  2.3923  1.9825  1.8538
45790SOL     OW42499   2.910   9.273   4.128  0.4685  0.3335  0.2532
45790SOL    HW142500   2.826   9.318   4.144  0.5191  1.0730 -1.4057
45790SOL    HW242501   2.976   9.341   4.139  0.9061 -0.3264  1.8903
45791SOL     OW42502   7.389   9.772   2.491 -0.0828 -0.1016  0.4919
45791SOL    HW142503   7.307   9.819   2.476  0.7612  0.8473 -1.2328
45791SOL    HW242504   7.451   9.812   2.431  1.8539 -0.3068  2.3113
45792SOL     OW42505   0.525   4.753   4.455 -0.4740  0.1778  0.3872
45792SOL    HW142506   0.608   4.764   4.502 -0.5468  0.6215  0.4106
45792SOL    HW242507   0.500   4.842   4.429  0.6388 -0.2267 -2.3146
45793SOL     OW42508   0.257   6.449   6.686  0.4005 -0.2826 -0.1731
45793SOL    HW142509   0.188   6.383   6.686  0.3963 -0.2789 -0.5528
45793SOL    HW242510   0.336   6.402   6.710 -0.0311  0.0273  1.9501
45794SOL     OW42511   3.962   2.224  11.300  0.7099 -0.5266 -0.2451
45794SOL    HW142512   4.027   2.166  11.341  1.3939 -0.2445 -0.9126
45794SOL    HW242513   3.929   2.174  11.226  1.7394  0.1583 -1.1787
45795SOL     OW42514   3.822   3.552   8.760 -0.1192 -0.3069  0.3575
45795SOL    HW142515   3.792   3.552   8.850 -1.1728 -0.2822  0.0186
45795SOL    HW242516   3.760   3.609   8.714 -0.8199 -1.8994 -0.7555
45796SOL     OW42517   9.038   5.371   1.481  0.6622 -0.2583  0.4662
45796SOL    HW142518   9.073   5.282   1.492 -0.0523 -0.4355  1.3377
45796SOL    HW242519   8.996   5.370   1.395  1.4954 -0.4747  0.0539
45797SOL     OW42520   7.022   0.830   3.473  0.4242  0.1973  0.0678
45797SOL    HW142521   7.008   0.779   3.552 -2.8727  0.8853  0.0183
45797SOL    HW242522   7.011   0.767   3.401 -0.9446  0.3892  0.0846
45798SOL     OW42523   1.361   1.342   3.712 -0.3784  0.6561  0.3115
45798SOL    HW142524   1.293   1.322   3.776 -0.4176  1.8103  0.6391
45798SOL    HW242525   1.393   1.256   3.683 -0.0787  0.1095  2.1706
45799SOL     OW42526   2.326   7.764   1.079 -0.0025  0.0207  0.0103
45799SOL    HW142527   2.257   7.750   1.014 -1.1541  2.6386  0.5952
45799SOL    HW242528   2.375   7.839   1.045  0.2609  0.5178  1.4532
45800SOL     OW42529   1.505   0.063   2.561  0.2691 -0.4778  0.2412
45800SOL    HW142530   1.520  -0.008   2.498  0.0470  0.4442 -0.8629
45800SOL    HW242531   1.534   0.142   2.515  1.1803  0.0632  1.7186
45801SOL     OW42532   3.592   5.849  10.216  0.5537 -0.8811 -0.5171
45801SOL    HW142533   3.503   5.817  10.199  0.1347  0.5751 -1.1477
45801SOL    HW242534   3.614   5.813  10.302 -0.6054 -1.3486 -0.4055
45802SOL     OW42535  11.034   6.795   9.774  0.1395 -0.1083  0.2571
45802SOL    HW142536  11.051   6.849   9.697  1.5968 -0.1335  0.5599
45802SOL    HW242537  11.021   6.706   9.739 -0.1911  0.0595 -0.0482
45803SOL     OW42538   4.092   4.863   5.196 -0.3048  0.2302  0.4177
45803SOL    HW142539   4.165   4.839   5.252  0.2508  0.5053 -0.1852
45803SOL    HW242540   4.123   4.847   5.107 -0.7989  0.8399  0.1321
45804SOL     OW42541  10.450   6.695  11.006 -0.1425 -0.0852  0.4226
45804SOL    HW142542  10.545   6.684  11.006 -0.0251  0.8047 -0.4380
45804SOL    HW242543  10.435   6.774  11.059 -0.2323  0.9354 -1.0860
45805SOL     OW42544   9.148  10.613  10.928  0.0480 -0.4934 -0.2277
45805SOL    HW142545   9.069  10.604  10.982 -0.3337  1.3045 -0.4431
45805SOL    HW242546   9.143  10.702  10.893  2.2732 -0.2986 -0.1167
45806SOL     OW42547   0.724   1.946   0.830  0.2731  0.5665 -0.8316
45806SOL    HW142548   0.688   1.931   0.917 -0.1896 -0.9823 -1.2824
45806SOL    HW242549   0.759   1.862   0.803 -0.0492  0.8935 -2.3524
45807SOL     OW42550   1.337  10.465   6.235 -0.2622  0.3512 -0.2440
45807SOL    HW142551   1.259  10.442   6.184 -1.1200  0.7916  0.8591
45807SOL    HW242552   1.318  10.553   6.268  0.8139  0.5595 -0.1658
45808SOL     OW42553   9.218   2.220   5.093  0.1929  0.4143  0.4031
45808SOL    HW142554   9.189   2.271   5.169 -0.3679  1.1817 -0.3206
45808SOL    HW242555   9.138   2.183   5.056 -0.0168  3.2430 -2.1121
45809SOL     OW42556   2.282   7.391   0.880  0.4597  0.2177  0.1876
45809SOL    HW142557   2.256   7.321   0.820  2.7777  0.3810 -1.0657
45809SOL    HW242558   2.266   7.472   0.832  0.4068  0.4412  0.5753
45810SOL     OW42559   9.911   5.422   0.086  0.4449 -0.2841 -1.3973
45810SOL    HW142560   9.831   5.448   0.131  1.1811  0.9428 -0.7775
45810SOL    HW242561   9.896   5.330   0.062 -1.2078 -0.0124 -1.4612
45811SOL     OW42562   7.100   7.671   3.976 -0.6080 -0.4849 -0.4115
45811SOL    HW142563   7.090   7.637   3.887  1.6840  0.5494 -1.0887
45811SOL    HW242564   7.147   7.601   4.022  0.6739  0.1141 -0.7793
45812SOL     OW42565  10.398   2.172   2.862 -0.0895 -0.1783  0.4294
45812SOL    HW142566  10.433   2.135   2.943  0.7314 -1.3160 -0.4186
45812SOL    HW242567  10.319   2.220   2.889  0.6118  0.1260  1.9909
45813SOL     OW42568   4.254  10.063   7.515  0.2660  0.1735  0.1438
45813SOL    HW142569   4.232  10.059   7.422  1.1719 -0.9952 -0.0290
45813SOL    HW242570   4.171  10.045   7.560  0.2773 -1.5436 -0.4705
45814SOL     OW42571   5.636   3.647   4.613 -0.0875 -0.0220  0.3394
45814SOL    HW142572   5.717   3.604   4.587  0.0177  0.6307 -0.4387
45814SOL    HW242573   5.570   3.612   4.553  0.0198  0.9723 -0.3686
45815SOL     OW42574  10.105  11.132   3.197 -0.1259  0.1569  0.1336
45815SOL    HW142575  10.136  11.052   3.237 -0.9408  0.3219  1.1118
45815SOL    HW242576  10.010  11.126   3.202 -0.2075  0.7994 -0.5503
45816SOL     OW42577   7.221   6.191   6.727  0.3179  0.0403  0.1490
45816SOL    HW142578   7.180   6.272   6.759 -0.2088  0.2198 -0.9636
45816SOL    HW242579   7.155   6.123   6.744 -0.1901  0.2270 -1.0638
45817SOL     OW42580   3.109   8.013  10.634  0.6456 -0.0711 -0.2803
45817SOL    HW142581   3.174   7.981  10.572 -1.0868  0.3299 -2.3453
45817SOL    HW242582   3.159   8.067  10.695  2.3249 -0.1465 -1.5603
45818SOL     OW42583   1.936   4.807   1.572  0.2999 -0.0285 -0.4885
45818SOL    HW142584   1.887   4.740   1.619  1.0697 -1.2254 -1.3422
45818SOL    HW242585   1.870   4.860   1.529 -0.2958 -1.1428 -0.9779
45819SOL     OW42586   8.981   4.988   1.212 -0.4198  0.1722 -0.0807
45819SOL    HW142587   8.900   5.031   1.184 -1.2464 -0.9818  0.4541
45819SOL    HW242588   8.970   4.975   1.306 -0.4335 -1.6058 -0.2941
45820SOL     OW42589   1.718   7.677   6.726  0.3592  0.3984  0.3594
45820SOL    HW142590   1.745   7.732   6.800  2.2386 -0.2692  0.1776
45820SOL    HW242591   1.731   7.731   6.649 -1.6699  1.1199  0.5008
45821SOL     OW42592   1.506   5.597   0.376  0.2219  0.7613  0.3241
45821SOL    HW142593   1.547   5.631   0.456 -1.0362  0.3033  1.1949
45821SOL    HW242594   1.575   5.598   0.311  2.4985 -2.6864  2.4898
45822SOL     OW42595   5.536   9.155   2.868  0.2396 -0.2445  0.0793
45822SOL    HW142596   5.449   9.195   2.878  0.5749  0.8834 -1.4408
45822SOL    HW242597   5.581   9.176   2.950 -0.4565  0.3447  0.3151
45823SOL     OW42598   3.390   5.287   6.911 -0.2274 -0.2866 -0.4580
45823SOL    HW142599   3.344   5.280   6.995  1.7675  0.5329  0.7253
45823SOL    HW242600   3.447   5.362   6.922 -0.0217 -0.1185 -2.6145
45824SOL     OW42601   6.341   0.632   4.587  0.1740  0.6329  0.1715
45824SOL    HW142602   6.356   0.726   4.594  0.5113  0.4956  1.3928
45824SOL    HW242603   6.284   0.611   4.661  1.0985 -0.3257  0.6231
45825SOL     OW42604   1.523   0.854   6.841 -0.5174 -0.0771  0.9164
45825SOL    HW142605   1.593   0.917   6.858 -1.3194  0.9054  0.6561
45825SOL    HW242606   1.530   0.790   6.912 -1.2971  1.7168  2.6684
45826SOL     OW42607   8.506   9.350   1.453 -0.0909 -0.4105 -0.7320
45826SOL    HW142608   8.425   9.372   1.407 -0.5927  0.3229  0.4870
45826SOL    HW242609   8.478   9.292   1.524  0.6625 -1.4389 -1.2502
45827SOL     OW42610   3.606   8.729   3.515 -0.1547 -0.4017  0.5331
45827SOL    HW142611   3.654   8.693   3.589 -1.3974 -3.7982 -0.2023
45827SOL    HW242612   3.519   8.749   3.550 -0.9509 -2.6224 -0.0944
45828SOL     OW42613   6.186   9.830   8.038 -0.7125  0.2810  0.0998
45828SOL    HW142614   6.210   9.908   7.988 -1.0848 -0.5388 -1.4084
45828SOL    HW242615   6.182   9.761   7.972  0.1637 -1.1319  1.5008
45829SOL     OW42616   1.871   9.486   4.567 -0.0362  0.2176  0.0992
45829SOL    HW142617   1.944   9.542   4.543 -1.1995  1.7320  0.0161
45829SOL    HW242618   1.793   9.537   4.544 -1.1182 -1.5986 -0.3533
45830SOL     OW42619   8.349  10.538   0.035 -0.2824 -0.3415  0.1240
45830SOL    HW142620   8.404  10.472  -0.008 -0.5110 -0.4749  0.0383
45830SOL    HW242621   8.349  10.612  -0.026  0.1312 -0.1836  0.3072
45831SOL     OW42622   9.964   1.331   4.574 -0.4009 -0.0511  0.2625
45831SOL    HW142623   9.908   1.318   4.498 -0.8001 -0.0383  0.5558
45831SOL    HW242624  10.000   1.244   4.593  0.6865  0.1737 -0.7030
45832SOL     OW42625   6.120  11.189   4.208 -0.4630  0.3127  0.7755
45832SOL    HW142626   6.147  11.213   4.297  0.6627 -1.5755  0.9848
45832SOL    HW242627   6.178  11.238   4.151 -0.4889  0.7286  1.1001
45833SOL     OW42628   8.140   3.101   5.359 -0.5842 -0.3400  0.3702
45833SOL    HW142629   8.140   3.031   5.424 -1.1903 -1.4263 -0.7816
45833SOL    HW242630   8.102   3.061   5.280  1.3317  0.5682 -1.0552
45834SOL     OW42631   8.701   0.709   3.843  0.5964  0.3435 -0.4386
45834SOL    HW142632   8.642   0.638   3.818  0.1288  0.8634 -0.8073
45834SOL    HW242633   8.644   0.776   3.882  1.1532  0.0934  0.8612
45835SOL     OW42634   1.406  11.085   1.868 -0.0936  0.7572 -0.0166
45835SOL    HW142635   1.398  11.085   1.773  1.8273 -0.6501 -0.2049
45835SOL    HW242636   1.474  11.021   1.887 -2.4600 -1.1213  2.4946
45836SOL     OW42637   0.466   7.475  10.723 -0.3218  0.0671 -0.2397
45836SOL    HW142638   0.486   7.490  10.815 -1.3168 -0.2074  0.0284
45836SOL    HW242639   0.396   7.410  10.724  1.8817 -2.4041 -1.2877
45837SOL     OW42640   1.146  10.488   1.993 -0.2411 -0.7351 -0.2918
45837SOL    HW142641   1.185  10.479   1.907 -0.9162 -0.3125 -0.6497
45837SOL    HW242642   1.054  10.464   1.980  0.0206 -2.2663  0.6481
45838SOL     OW42643   0.973   2.451   8.965  0.8297 -0.3536  0.4814
45838SOL    HW142644   0.981   2.384   9.033  1.3921 -0.1108  0.6573
45838SOL    HW242645   0.924   2.522   9.006  0.1097 -0.7035  0.2525
45839SOL     OW42646   1.852   0.246   6.215  0.1950  0.8699  0.6091
45839SOL    HW142647   1.765   0.233   6.253  0.1392  1.1532  0.5847
45839SOL    HW242648   1.903   0.171   6.245  0.1907  1.1672  1.3690
45840SOL     OW42649   6.947   9.807   6.553 -0.0720 -0.2110 -0.4262
45840SOL    HW142650   6.977   9.799   6.462  0.2271  2.2319 -0.5688
45840SOL    HW242651   7.028   9.817   6.604 -0.3710  1.1307 -0.2101
45841SOL     OW42652   6.447   4.206   4.204 -0.2414 -0.1653  0.0313
45841SOL    HW142653   6.374   4.198   4.266 -0.3418  2.1571  0.2386
45841SOL    HW242654   6.406   4.201   4.118 -0.1162 -3.2712  0.0889
45842SOL     OW42655   2.247   0.392   5.382 -0.2922 -0.5515 -0.2975
45842SOL    HW142656   2.313   0.344   5.433  0.9601 -0.7258 -2.0293
45842SOL    HW242657   2.188   0.324   5.349 -0.6953 -0.5098  0.3335
45843SOL     OW42658   2.394   2.738   3.206 -0.1016 -0.0297 -0.1091
45843SOL    HW142659   2.400   2.788   3.287 -2.7913  1.3069 -0.6527
45843SOL    HW242660   2.301   2.741   3.183  0.5538 -0.6069 -3.0866
45844SOL     OW42661   8.359   2.903   7.042  0.2793  0.6367  0.1438
45844SOL    HW142662   8.383   2.811   7.053 -1.6870  0.2903  1.8775
45844SOL    HW242663   8.282   2.902   6.986  0.3208  1.2295  0.0668
45845SOL     OW42664   0.902   6.309   4.941  0.1357  0.3635 -0.1092
45845SOL    HW142665   0.942   6.395   4.932  0.2503  0.3552  0.3036
45845SOL    HW242666   0.975   6.249   4.948  0.0614  0.3439  0.5965
45846SOL     OW42667   3.581   8.470   8.384  0.0955 -0.2413  0.2166
45846SOL    HW142668   3.525   8.545   8.407 -1.8128 -1.2629 -0.9794
45846SOL    HW242669   3.582   8.470   8.289 -1.0086 -2.5096  0.1794
45847SOL     OW42670   9.292   3.856   3.600  0.1757  0.3840 -0.2516
45847SOL    HW142671   9.285   3.769   3.560  0.5147 -0.0416  0.6007
45847SOL    HW242672   9.303   3.839   3.694  0.8967  1.3209 -0.1496
45848SOL     OW42673   1.538   2.496   4.840  0.3460 -0.0002 -0.7079
45848SOL    HW142674   1.502   2.518   4.926  0.5974  1.9922 -1.0803
45848SOL    HW242675   1.511   2.568   4.784  0.7210 -0.9744 -2.1564
45849SOL     OW42676   1.594   7.531   0.107  0.4683  0.4784 -0.5400
45849SOL    HW142677   1.591   7.476   0.029 -1.1588  0.8497 -0.7566
45849SOL    HW242678   1.514   7.583   0.103  0.6160  0.8681  1.1156
45850SOL     OW42679   3.898   5.450   3.053  0.5378  0.3993  0.6954
45850SOL    HW142680   3.880   5.371   3.104  2.5878 -1.3602 -1.2070
45850SOL    HW242681   3.923   5.516   3.118  0.4303 -1.0117  2.1830
45851SOL     OW42682   8.223   9.490   5.103  0.2512 -0.1530  0.4316
45851SOL    HW142683   8.258   9.431   5.169  1.2471 -1.7668 -1.4949
45851SOL    HW242684   8.299   9.520   5.054 -0.5329  0.5534 -0.3862
45852SOL     OW42685   1.803   6.546   3.282  0.5234  0.2545 -0.7435
45852SOL    HW142686   1.842   6.459   3.270  0.6806  0.6016 -3.0078
45852SOL    HW242687   1.854   6.603   3.225 -1.4886  1.2588 -1.5891
45853SOL     OW42688   8.501  10.033   8.285 -0.0222 -0.6144 -0.1743
45853SOL    HW142689   8.567   9.979   8.328 -0.0269  0.8919  1.8161
45853SOL    HW242690   8.547  10.073   8.211  0.1671 -2.7320 -1.2300
45854SOL     OW42691  10.514   2.338   1.576 -0.2756 -0.4467 -0.3967
45854SOL    HW142692  10.560   2.283   1.513 -0.2911 -0.7379 -0.1562
45854SOL    HW242693  10.574   2.411   1.593 -0.4772 -0.1114 -1.1167
45855SOL     OW42694   0.546   0.678  11.011  0.2698 -0.6022  0.5811
45855SOL    HW142695   0.619   0.665  11.071 -0.5258 -1.8501  1.3081
45855SOL    HW242696   0.543   0.598  10.959 -1.5221 -1.2363  1.6077
45856SOL     OW42697   1.124   6.575   2.862 -0.0791 -0.0135  0.6801
45856SOL    HW142698   1.108   6.669   2.852 -0.9646 -0.1666  0.6089
45856SOL    HW242699   1.189   6.555   2.795 -1.3021  0.1960 -0.6163
45857SOL     OW42700   8.237   4.979   0.159 -0.4100 -0.5728  0.0531
45857SOL    HW142701   8.277   5.062   0.132  0.2589 -0.7266  0.5646
45857SOL    HW242702   8.161   5.005   0.212  0.1778 -0.2862  0.7602
45858SOL     OW42703   7.810   7.334   4.583  0.2589  0.6506  0.6127
45858SOL    HW142704   7.779   7.244   4.595 -1.1194  1.0725  0.2900
45858SOL    HW242705   7.739   7.388   4.618  0.6270  1.6373 -0.1623
45859SOL     OW42706   7.196   7.799   5.986 -0.3356  0.1625  0.3311
45859SOL    HW142707   7.193   7.704   5.998  1.4341  0.1137  0.4510
45859SOL    HW242708   7.150   7.813   5.903  1.1123 -1.0081 -0.7100
45860SOL     OW42709  10.764  11.278   2.193  0.0286 -0.0531 -0.2599
45860SOL    HW142710  10.830  11.313   2.133  0.8459 -0.2740  0.5023
45860SOL    HW242711  10.686  11.332   2.177 -0.1234 -0.8409 -2.3188
45861SOL     OW42712   0.056   9.773   8.839 -0.1632  0.2380 -0.0661
45861SOL    HW142713   0.100   9.713   8.779 -1.9313 -0.5472 -0.5869
45861SOL    HW242714   0.114   9.776   8.915 -0.0750 -2.1651  0.0040
45862SOL     OW42715   8.218   8.074   5.817  0.4027 -0.1180 -0.1030
45862SOL    HW142716   8.139   8.042   5.774 -0.1769  1.2699 -0.1212
45862SOL    HW242717   8.280   8.001   5.812 -1.2731 -1.6489  0.9656
45863SOL     OW42718   3.002   7.377   0.513 -0.0516 -0.3051 -0.1043
45863SOL    HW142719   3.009   7.425   0.596  1.1791  0.0046 -0.3657
45863SOL    HW242720   3.027   7.441   0.447  0.9889 -1.1245 -0.5193
45864SOL     OW42721   0.003   5.750   8.416  0.3642  0.2858 -0.1689
45864SOL    HW142722  -0.054   5.708   8.481  1.7954 -1.3848  0.0431
45864SOL    HW242723  -0.042   5.735   8.332 -0.5759  0.8612  0.2281
45865SOL     OW42724   4.252   6.283  10.980  0.0495  0.1603  0.3016
45865SOL    HW142725   4.258   6.282  10.884  1.8634  1.5860  0.3655
45865SOL    HW242726   4.182   6.345  10.999  1.0946  1.4942 -0.0909
45866SOL     OW42727   6.020   3.122   6.556 -0.0036  0.3525  0.2194
45866SOL    HW142728   5.934   3.157   6.532 -1.4001 -1.8701  1.7193
45866SOL    HW242729   6.043   3.168   6.637 -0.4784 -0.0830  0.6088
45867SOL     OW42730   8.384   5.849  10.015 -0.0198 -0.3759  0.9782
45867SOL    HW142731   8.399   5.788  10.087  0.8898 -0.4267  0.7497
45867SOL    HW242732   8.399   5.798   9.936  1.4092  0.2905  0.7910
45868SOL     OW42733   5.399   8.798  11.275  0.0523 -0.2723  0.2202
45868SOL    HW142734   5.312   8.822  11.308  0.9009  2.7148  0.4624
45868SOL    HW242735   5.392   8.808  11.180  0.4215  1.1941  0.3247
45869SOL     OW42736  10.084   9.565   9.771  0.2654  0.4424 -0.2077
45869SOL    HW142737  10.030   9.583   9.848  1.4903 -0.1922  0.8325
45869SOL    HW242738  10.133   9.646   9.756  0.4119  0.3902 -0.0019
45870SOL     OW42739   7.521   5.197   0.254  0.2986 -0.1187  0.1317
45870SOL    HW142740   7.520   5.289   0.283 -0.0553 -0.0686 -0.0338
45870SOL    HW242741   7.614   5.174   0.250  0.4770  0.8201 -1.6404
45871SOL     OW42742   4.723   5.542   7.987 -0.2341 -0.1796 -0.5131
45871SOL    HW142743   4.768   5.533   7.903  3.2154 -1.4949  1.3774
45871SOL    HW242744   4.673   5.461   7.996 -0.3977 -0.1531 -1.1585
45872SOL     OW42745   6.106   6.079   2.279 -0.0661  0.2105 -0.3605
45872SOL    HW142746   6.053   6.016   2.230  1.4955 -0.8245 -0.7596
45872SOL    HW242747   6.116   6.039   2.365  1.7678 -0.5945 -0.9273
45873SOL     OW42748   8.040  10.789   2.770 -0.4213 -0.5629 -0.4264
45873SOL    HW142749   8.091  10.817   2.695  0.9801 -0.0569  0.6971
45873SOL    HW242750   8.088  10.713   2.804 -0.2112  0.1250  0.8375
45874SOL     OW42751   9.153   0.619   1.451  0.0430  0.2434 -0.6554
45874SOL    HW142752   9.100   0.568   1.390 -1.2930 -0.0929  0.7368
45874SOL    HW242753   9.217   0.557   1.485 -0.7799 -0.2218  0.0935
45875SOL     OW42754   3.272   0.746   5.323  0.6336 -0.3757 -0.0732
45875SOL    HW142755   3.355   0.698   5.331  1.2270  0.4169 -1.3204
45875SOL    HW242756   3.267   0.769   5.230 -0.0216  1.2963  0.3598
45876SOL     OW42757   2.177   7.344   1.149  0.4225 -0.0038 -0.2864
45876SOL    HW142758   2.197   7.361   1.057 -0.0986  0.5427 -0.3038
45876SOL    HW242759   2.177   7.431   1.189  2.8403 -0.3959  0.6807
45877SOL     OW42760   4.709  10.035   8.986  0.2571  0.6027  0.1200
45877SOL    HW142761   4.713   9.964   9.050  0.2520 -0.3013 -0.8542
45877SOL    HW242762   4.751  10.109   9.029  1.3128 -0.3379  0.7370
45878SOL     OW42763   9.603   2.338   4.092 -0.1542  0.3325  0.1055
45878SOL    HW142764   9.578   2.257   4.137 -0.5915  0.6148  0.3732
45878SOL    HW242765   9.657   2.385   4.155 -0.0574  0.3399  0.0180
45879SOL     OW42766   8.405   9.388   4.805 -0.4320  0.4065 -0.1553
45879SOL    HW142767   8.427   9.471   4.848 -0.2787  1.3413 -1.9950
45879SOL    HW242768   8.314   9.399   4.776 -0.1041  0.3196 -1.2499
45880SOL     OW42769   4.652   8.297   4.814 -0.1821  0.0262 -0.0049
45880SOL    HW142770   4.679   8.236   4.746 -1.1563  0.0728 -0.4323
45880SOL    HW242771   4.731   8.348   4.833  1.1066 -2.3665  1.4416
45881SOL     OW42772   7.267  10.637   7.238 -0.3900 -0.0122 -0.3177
45881SOL    HW142773   7.247  10.571   7.305 -0.4622  0.2537 -0.0764
45881SOL    HW242774   7.197  10.702   7.246  0.4723  0.8429  0.4253
45882SOL     OW42775   6.677   8.428   0.064  0.2940 -0.4899 -0.2104
45882SOL    HW142776   6.647   8.388  -0.017  0.1492 -1.6096  0.3904
45882SOL    HW242777   6.639   8.516   0.063  0.4618 -0.4208 -1.4411
45883SOL     OW42778   1.647  10.983   4.478 -0.4405 -0.3996 -0.5802
45883SOL    HW142779   1.558  11.006   4.451 -1.6402 -2.5087  1.3162
45883SOL    HW242780   1.670  11.048   4.544 -0.3163  0.5261 -1.5274
45884SOL     OW42781   8.026   0.946   1.148 -0.4125 -0.1632  0.3630
45884SOL    HW142782   8.121   0.943   1.142 -0.3327  0.9646  0.9457
45884SOL    HW242783   8.008   1.013   1.215 -1.5831 -1.1263  1.0322
45885SOL     OW42784   0.996   7.836  10.548  0.7600  0.0227  0.4444
45885SOL    HW142785   1.068   7.885  10.509  2.2614 -1.8660  0.8127
45885SOL    HW242786   0.949   7.798  10.474  0.6372  0.5404  0.2527
45886SOL     OW42787   4.431   3.358   5.880  0.4818  0.1841 -0.2733
45886SOL    HW142788   4.361   3.413   5.844  0.7842  0.2702 -0.7378
45886SOL    HW242789   4.499   3.420   5.905 -0.5271  0.3144  2.3525
45887SOL     OW42790   7.557  10.879   6.721  0.7986 -0.1811 -0.1712
45887SOL    HW142791   7.486  10.940   6.739  1.8664  1.1394 -0.3488
45887SOL    HW242792   7.636  10.933   6.722  1.8165 -1.6302  0.1002
45888SOL     OW42793   8.835   9.423   7.103  0.0425  0.1550 -0.7310
45888SOL    HW142794   8.918   9.464   7.079  0.8408 -0.9344  0.1026
45888SOL    HW242795   8.825   9.350   7.042  0.3619 -0.5086 -0.0081
45889SOL     OW42796  11.080  10.254   9.537 -0.1099  1.1301  0.1457
45889SOL    HW142797  11.015  10.304   9.586 -1.0816 -1.1179  1.2267
45889SOL    HW242798  11.063  10.278   9.445  0.1579  3.5458  0.6900
45890SOL     OW42799   8.475   1.380   9.488 -0.2176  0.0619  0.5586
45890SOL    HW142800   8.409   1.444   9.515 -0.6364  0.2461 -0.8652
45890SOL    HW242801   8.451   1.356   9.398  0.7574 -1.0273  0.5681
45891SOL     OW42802   9.994   5.655   4.336 -0.6532 -0.5063  0.4494
45891SOL    HW142803   9.916   5.696   4.297  1.1624  1.0316 -1.6464
45891SOL    HW242804  10.024   5.718   4.401  1.3376  0.9523 -1.8111
45892SOL     OW42805   6.966   1.900   8.300  0.4863  0.4386 -0.3693
45892SOL    HW142806   6.995   1.988   8.323  0.6852  0.5254 -0.9593
45892SOL    HW242807   6.889   1.886   8.355  0.7426  0.7861  0.0883
45893SOL     OW42808   6.502   1.692   1.799 -0.0465 -0.9761  0.0538
45893SOL    HW142809   6.435   1.740   1.847  0.4052 -0.5360  0.2447
45893SOL    HW242810   6.477   1.703   1.707  0.4307  0.1970  0.0534
45894SOL     OW42811   1.677   9.622   8.269 -0.2348 -0.1760  1.2960
45894SOL    HW142812   1.715   9.570   8.339 -1.6000 -3.0399  0.0053
45894SOL    HW242813   1.590   9.584   8.255  0.1395  0.0555 -2.2010
45895SOL     OW42814   9.322   2.423   8.355 -0.1914  0.0536  0.5422
45895SOL    HW142815   9.305   2.367   8.431  0.0044 -0.7148  0.0177
45895SOL    HW242816   9.416   2.441   8.358 -0.2080  0.1317  0.5602
45896SOL     OW42817   0.809   8.925   1.692  0.2132 -0.1377 -0.2602
45896SOL    HW142818   0.740   8.926   1.626  0.5655 -0.5742 -0.6300
45896SOL    HW242819   0.774   8.980   1.763  0.0091  0.6641 -0.9773
45897SOL     OW42820   8.151   6.758   7.705 -0.5626 -0.2992  0.2863
45897SOL    HW142821   8.188   6.821   7.767  0.3335 -0.6268  0.0877
45897SOL    HW242822   8.063   6.741   7.738 -1.1086  1.6508 -0.0813
45898SOL     OW42823   2.527   6.706   1.752  0.1720 -0.3761 -0.0648
45898SOL    HW142824   2.580   6.628   1.769  0.4406  0.0013  0.8293
45898SOL    HW242825   2.567   6.774   1.806 -1.5259 -0.2026  0.9920
45899SOL     OW42826  10.124   2.269  10.020  0.0576  0.5777  0.3519
45899SOL    HW142827  10.127   2.220  10.103 -0.2703  0.7799  0.4884
45899SOL    HW242828  10.050   2.329  10.031  1.3860  2.1894  0.7949
45900SOL     OW42829   2.694   2.135   3.424 -0.3344  0.1850  0.4820
45900SOL    HW142830   2.756   2.146   3.351  0.2375  0.9660  1.0842
45900SOL    HW242831   2.748   2.144   3.502 -1.0069 -0.3573  1.0140
45901SOL     OW42832   5.422   2.641   7.369 -0.0132 -0.1559 -0.2768
45901SOL    HW142833   5.459   2.638   7.281 -0.1915  0.7649 -0.3876
45901SOL    HW242834   5.420   2.550   7.397  0.5124 -0.4065 -1.0307
45902SOL     OW42835  10.095   6.401   7.304  0.0822  0.3749 -0.6640
45902SOL    HW142836  10.035   6.339   7.263  1.7692 -0.5366 -1.8176
45902SOL    HW242837  10.087   6.481   7.253 -0.6049  0.4456 -0.4405
45903SOL     OW42838   2.951   8.213   1.657 -0.1650 -0.4268  0.2283
45903SOL    HW142839   3.018   8.181   1.596 -1.0353 -0.5665 -0.6705
45903SOL    HW242840   2.972   8.306   1.669  0.7430 -0.6881  0.6953
45904SOL     OW42841   4.599   3.496   6.830 -0.0200  0.1802 -0.3233
45904SOL    HW142842   4.648   3.548   6.895 -1.6185 -0.0065  1.0639
45904SOL    HW242843   4.536   3.558   6.793  1.6826  0.5980 -2.6078
45905SOL     OW42844   4.496   6.033   1.172  0.0013  0.8058  0.3978
45905SOL    HW142845   4.530   6.120   1.153  3.4958 -0.8636 -1.4115
45905SOL    HW242846   4.477   5.995   1.086  1.9494 -1.5106  0.9523
45906SOL     OW42847   0.023  10.974   5.829 -0.1340 -0.5386 -0.0061
45906SOL    HW142848   0.063  11.017   5.754  1.8038 -3.5002 -0.7594
45906SOL    HW242849  -0.024  10.899   5.791 -0.5913 -1.0673  1.5698
45907SOL     OW42850   9.768   1.467   5.419 -0.3840 -0.1039 -0.2137
45907SOL    HW142851   9.797   1.499   5.504  0.5135 -1.5290  0.0216
45907SOL    HW242852   9.678   1.499   5.411 -0.6630 -0.4417  1.5118
45908SOL     OW42853   0.674   2.292   3.386  0.0611  0.0066 -0.3316
45908SOL    HW142854   0.632   2.374   3.357  0.9378  0.3591 -0.6054
45908SOL    HW242855   0.754   2.321   3.430 -0.0201 -0.6656  0.2601
45909SOL     OW42856   6.432   7.269   8.661  0.2287 -0.5342  0.1892
45909SOL    HW142857   6.499   7.242   8.724  0.6047 -1.6925 -0.7059
45909SOL    HW242858   6.471   7.342   8.614  0.6943 -0.9287 -0.0333
45910SOL     OW42859   8.398   8.808   7.182 -0.6521 -0.5546  0.7471
45910SOL    HW142860   8.470   8.799   7.245 -0.8400 -2.9236  0.6847
45910SOL    HW242861   8.338   8.871   7.222  0.9686  0.6969  1.2498
45911SOL     OW42862   8.336   8.765   9.311  0.4614  0.3185 -0.1391
45911SOL    HW142863   8.342   8.672   9.290  0.3535 -0.0032  1.1916
45911SOL    HW242864   8.416   8.803   9.274  0.1473 -0.1651 -1.3328
45912SOL     OW42865  11.038   9.012   0.637  0.2597  0.2751  0.0515
45912SOL    HW142866  10.949   8.978   0.637 -0.7374  2.8045  0.8350
45912SOL    HW242867  11.074   8.984   0.553 -0.9592 -1.5110  0.0942
45913SOL     OW42868   9.215   4.179   7.411  0.2046 -0.4619 -0.1575
45913SOL    HW142869   9.204   4.255   7.354 -2.7660 -1.2164 -0.6885
45913SOL    HW242870   9.231   4.216   7.498  0.4894  0.7515 -0.7194
45914SOL     OW42871   0.301   1.874   9.700 -0.4351  0.1359  0.3858
45914SOL    HW142872   0.256   1.816   9.638 -1.3861 -0.8291  1.9496
45914SOL    HW242873   0.240   1.945   9.716  0.7346  1.6282 -1.5358
45915SOL     OW42874   0.528   8.785  10.267  0.7416  0.3921  0.1419
45915SOL    HW142875   0.505   8.698  10.232 -0.4957  0.9526 -0.4816
45915SOL    HW242876   0.613   8.772  10.308 -0.5490 -1.7224  2.3058
45916SOL     OW42877   3.630   2.190   3.172  0.5370  0.1875 -0.3041
45916SOL    HW142878   3.596   2.179   3.261 -0.3697  0.5431 -0.6022
45916SOL    HW242879   3.710   2.137   3.170  0.0243 -0.6230  0.4143
45917SOL     OW42880   8.293   5.182   2.056  0.5372  1.0077 -0.4314
45917SOL    HW142881   8.356   5.120   2.019 -1.9373 -2.6411  1.1204
45917SOL    HW242882   8.339   5.222   2.129  1.5901 -0.5187 -0.2318
45918SOL     OW42883  10.493   6.907   5.424  0.3956  0.3860 -0.4949
45918SOL    HW142884  10.417   6.856   5.393  0.8811 -0.7044  0.0672
45918SOL    HW242885  10.466   6.998   5.413 -1.0083  0.0202 -0.3042
45919SOL     OW42886   6.763   7.730   6.128 -0.1641  0.2242  0.3119
45919SOL    HW142887   6.753   7.665   6.059 -1.5320  0.5234  0.2173
45919SOL    HW242888   6.679   7.776   6.130  0.6205  1.6684  0.6904
45920SOL     OW42889   4.935   2.246   8.419 -0.2252  0.0392  0.1605
45920SOL    HW142890   4.975   2.184   8.481  0.3013  0.7500  0.5320
45920SOL    HW242891   4.895   2.313   8.475 -0.7028  0.0958 -0.2485
45921SOL     OW42892   9.411   2.028   2.102 -0.3177 -0.2359 -0.2639
45921SOL    HW142893   9.370   2.077   2.030 -0.7619 -0.5518 -0.2305
45921SOL    HW242894   9.337   1.995   2.153 -0.0116 -0.6102 -0.0608
45922SOL     OW42895   6.817   4.424   4.703 -0.2032 -0.0820  0.2316
45922SOL    HW142896   6.838   4.464   4.619  3.3525  1.2211  1.6765
45922SOL    HW242897   6.819   4.496   4.766 -0.4080 -1.4378  1.8491
45923SOL     OW42898   2.484   0.269   8.958 -0.0678 -0.9237 -0.8153
45923SOL    HW142899   2.422   0.253   9.030  0.4837 -0.3983 -0.2154
45923SOL    HW242900   2.495   0.364   8.958  2.1256 -1.1520  0.2496
45924SOL     OW42901   0.284   4.836  10.905  0.0299 -0.1772  0.1252
45924SOL    HW142902   0.242   4.920  10.925  1.6818  0.5118  0.7677
45924SOL    HW242903   0.212   4.781  10.873 -0.7337  2.1528 -2.4116
45925SOL     OW42904   2.278   6.493  10.008  0.0068 -0.2938  0.0636
45925SOL    HW142905   2.368   6.486  10.039  0.2432  0.7734 -0.3467
45925SOL    HW242906   2.229   6.431  10.061  0.9015 -0.5191  0.6333
45926SOL     OW42907   1.159   3.709   1.780 -0.1632 -0.7709  0.1745
45926SOL    HW142908   1.176   3.675   1.868 -0.0753  1.3515  1.0056
45926SOL    HW242909   1.245   3.721   1.741 -0.2124 -2.0270 -0.3375
45927SOL     OW42910   1.477   6.586   3.970 -0.5000 -0.2991  0.1122
45927SOL    HW142911   1.421   6.658   4.000  1.5322  2.0599 -1.5502
45927SOL    HW242912   1.519   6.553   4.050 -1.3483  0.4424  0.8721
45928SOL     OW42913   2.095   0.548   2.226  0.1990 -0.1678 -0.1532
45928SOL    HW142914   2.045   0.560   2.145  0.6960 -0.7445 -0.5546
45928SOL    HW242915   2.028   0.533   2.293 -0.2280  0.6181 -0.3960
45929SOL     OW42916   0.349  10.790   0.711 -0.1362  0.6656  0.1594
45929SOL    HW142917   0.408  10.722   0.744  0.1566  1.7465  1.8815
45929SOL    HW242918   0.364  10.789   0.616  2.5809  0.8550  0.5471
45930SOL     OW42919   2.946   6.395   6.263 -0.1959 -0.0849 -0.0580
45930SOL    HW142920   2.940   6.345   6.181  0.9960  1.2695 -0.9881
45930SOL    HW242921   2.893   6.473   6.247 -1.7050 -0.8217  1.2465
45931SOL     OW42922   5.066   5.886   3.543  0.3656  0.0748  0.4529
45931SOL    HW142923   5.054   5.918   3.632 -1.4494  0.2081  0.1869
45931SOL    HW242924   5.075   5.791   3.553 -1.9965 -0.1650  0.6369
45932SOL     OW42925   3.336   7.456  10.066  0.8031 -0.1465  0.3409
45932SOL    HW142926   3.320   7.371  10.024 -0.3744  0.4776 -0.5349
45932SOL    HW242927   3.376   7.435  10.150 -1.2516 -1.6743  0.9782
45933SOL     OW42928   3.097   1.870   1.767 -0.1524  0.8711 -0.5330
45933SOL    HW142929   3.064   1.928   1.835  0.6797  0.1090  0.5411
45933SOL    HW242930   3.192   1.876   1.774 -0.0514 -0.8166 -0.2155
45934SOL     OW42931   8.360   5.361   9.722 -0.2537 -0.4561 -0.7601
45934SOL    HW142932   8.329   5.328   9.806 -0.1422 -0.9195 -0.8956
45934SOL    HW242933   8.346   5.288   9.661  0.1822 -0.3230 -1.0241
45935SOL     OW42934   5.082  10.514   5.667 -0.1746 -0.2337  0.0683
45935SOL    HW142935   5.101  10.431   5.624 -0.1316  0.8861 -2.1332
45935SOL    HW242936   5.084  10.579   5.596  2.0004  1.9753  2.0644
45936SOL     OW42937   9.693   4.135   4.594 -0.2919 -0.0577 -0.0299
45936SOL    HW142938   9.741   4.206   4.551 -1.2339 -0.2796 -1.4627
45936SOL    HW242939   9.632   4.180   4.653  0.1324  0.2802  0.1596
45937SOL     OW42940  10.990  10.340   3.597 -0.5946 -0.1711  0.4213
45937SOL    HW142941  11.066  10.337   3.656 -1.1602 -1.6518  1.0935
45937SOL    HW242942  10.993  10.428   3.560  0.5928  0.3080  1.5869
45938SOL     OW42943   7.133   1.023  10.898  0.1221  0.4459  0.1442
45938SOL    HW142944   7.194   0.991  10.964 -0.0578 -1.5536 -0.6163
45938SOL    HW242945   7.048   1.025  10.943  0.0448 -0.6651  0.0513
45939SOL     OW42946   2.536   5.194   7.460  0.6580 -0.1751 -0.4216
45939SOL    HW142947   2.548   5.100   7.474 -0.0787 -0.1766  0.1945
45939SOL    HW242948   2.615   5.221   7.413  1.0372 -1.0338 -0.2866
45940SOL     OW42949  10.272   3.977   2.523  0.3174  0.1205  0.4074
45940SOL    HW142950  10.245   4.049   2.579  1.9709  0.9488  0.1784
45940SOL    HW242951  10.190   3.936   2.494 -0.6641  2.3742 -0.0817
45941SOL     OW42952   3.242   5.570   1.697  0.4298 -0.1652 -0.0495
45941SOL    HW142953   3.219   5.557   1.788  0.1724  3.0250  0.4042
45941SOL    HW242954   3.331   5.534   1.689  0.7557  0.2298  1.6461
45942SOL     OW42955  10.958   4.724  10.033  0.0095  0.1286 -0.3867
45942SOL    HW142956  10.999   4.651  10.079  0.5188  0.8445  0.3100
45942SOL    HW242957  10.968   4.799  10.093 -1.7043  0.4695 -0.4948
45943SOL     OW42958  10.998   7.113   2.037 -0.1775  0.4404  0.2548
45943SOL    HW142959  10.990   7.146   1.947  1.3988  2.3561  0.7947
45943SOL    HW242960  10.960   7.182   2.091 -3.6858 -1.8786  0.9400
45944SOL     OW42961   3.853   3.097   6.600 -1.1945  0.2248 -0.0035
45944SOL    HW142962   3.794   3.139   6.663 -0.6701  0.7654  0.1422
45944SOL    HW242963   3.796   3.062   6.532 -1.7471 -0.0873  0.6137
45945SOL     OW42964   0.204   9.979   0.425 -0.1206 -0.3453  0.6332
45945SOL    HW142965   0.230  10.015   0.340 -0.0725 -2.6850 -0.3938
45945SOL    HW242966   0.126  10.028   0.449 -0.1882  0.2962 -0.8287
45946SOL     OW42967   8.809   6.544  10.992 -0.0913  0.2349  0.4324
45946SOL    HW142968   8.749   6.611  10.961 -0.0815  0.3265  0.6104
45946SOL    HW242969   8.762   6.501  11.064 -0.0656  0.1063  0.3723
45947SOL     OW42970   7.463   0.929   9.663  0.5969 -0.0161 -0.1759
45947SOL    HW142971   7.458   0.893   9.575  0.9021 -0.3540 -0.0566
45947SOL    HW242972   7.555   0.919   9.688  0.7508  1.1235 -0.2562
45948SOL     OW42973   2.824   9.545   2.835 -0.0329  0.2018  0.2511
45948SOL    HW142974   2.825   9.598   2.915 -1.5807  0.4859  0.1038
45948SOL    HW242975   2.870   9.465   2.858  0.1483  0.5842  1.2268
45949SOL     OW42976   2.833   3.088   0.889 -0.1822 -0.0367 -0.1012
45949SOL    HW142977   2.780   3.076   0.968  0.0364 -1.0781 -0.1086
45949SOL    HW242978   2.793   3.163   0.845 -1.1572 -0.3130  0.3011
45950SOL     OW42979   1.000   4.042   2.867 -0.6046  0.0962 -0.1491
45950SOL    HW142980   1.023   4.016   2.777 -2.0522  0.6085 -0.6839
45950SOL    HW242981   0.941   3.973   2.898  0.3907 -0.4027  0.6389
45951SOL     OW42982   4.473   4.040   6.632 -0.7775 -0.1175 -0.1675
45951SOL    HW142983   4.414   4.002   6.568  1.5175 -2.3687 -1.0704
45951SOL    HW242984   4.459   4.134   6.627 -1.2953 -0.3320 -3.3181
45952SOL     OW42985   8.232   7.884   0.822  0.4798 -0.0804 -0.2802
45952SOL    HW142986   8.265   7.796   0.840  0.6255 -0.2469 -1.3314
45952SOL    HW242987   8.191   7.878   0.736  0.2450  0.8114 -0.2435
45953SOL     OW42988   0.889   7.894   5.101  0.1154 -0.1567  0.3371
45953SOL    HW142989   0.854   7.825   5.045  1.2109 -0.5376  0.1061
45953SOL    HW242990   0.854   7.975   5.065 -1.1019 -0.5798  0.5543
45954SOL     OW42991   5.992   4.886   4.939  0.4757 -0.2869  0.3016
45954SOL    HW142992   5.903   4.851   4.945  0.0555  1.2559  4.0043
45954SOL    HW242993   5.982   4.979   4.959  3.0079 -0.2200  1.3676
45955SOL     OW42994   9.141   7.867   7.580 -0.6484 -0.1212  0.2086
45955SOL    HW142995   9.155   7.957   7.609  1.2809 -0.7048  1.1612
45955SOL    HW242996   9.075   7.833   7.640  0.0822  0.0566  1.1313
45956SOL     OW42997   5.993   5.044   7.043  0.0645  0.1231 -0.0758
45956SOL    HW142998   5.953   5.001   7.118  1.9828 -1.6015  0.0040
45956SOL    HW242999   6.054   5.107   7.081  0.6598 -0.3896 -0.1717
45957SOL     OW43000   2.912  11.106   5.078  0.2623  0.6140 -0.2614
45957SOL    HW143001   2.891  11.199   5.069  1.1544  0.7201 -1.4494
45957SOL    HW243002   2.952  11.083   4.995 -1.4050 -1.2517 -0.5773
45958SOL     OW43003  10.127   4.765   6.576 -0.2228 -0.0079 -0.0960
45958SOL    HW143004  10.210   4.719   6.586 -0.5659 -0.4150  0.9901
45958SOL    HW243005  10.111   4.765   6.482  0.4546 -0.9231 -0.2232
45959SOL     OW43006   2.314   5.365   6.993  0.6187  0.0565  0.4898
45959SOL    HW143007   2.283   5.399   7.077  0.7445  1.1740  0.0909
45959SOL    HW243008   2.253   5.400   6.928  0.8026 -0.4035  0.0592
45960SOL     OW43009   4.882  11.275   9.408 -0.5179 -0.3451  0.4195
45960SOL    HW143010   4.977  11.272   9.420 -0.4547  0.6536  0.2714
45960SOL    HW243011   4.846  11.232   9.485  0.0421 -0.1564  0.7842
45961SOL     OW43012   0.230  11.214  10.697 -0.4819 -0.2393  0.2496
45961SOL    HW143013   0.166  11.150  10.729  0.4379 -1.7572 -0.9103
45961SOL    HW243014   0.300  11.212  10.761 -0.3983 -0.4720  0.1493
45962SOL     OW43015   4.631   9.014   0.334 -0.4180  0.2595  0.2199
45962SOL    HW143016   4.654   9.088   0.390 -2.2881 -0.9783  2.7569
45962SOL    HW243017   4.609   9.054   0.250  3.4736  2.0894 -0.0769
45963SOL     OW43018   2.773   0.598   9.155 -0.4748  0.2070  0.3723
45963SOL    HW143019   2.709   0.623   9.089 -0.7826 -0.8499  0.2748
45963SOL    HW243020   2.830   0.675   9.162  0.0211  0.0567 -1.6736
45964SOL     OW43021  11.256   3.157  11.290 -0.6921 -0.2738 -0.0696
45964SOL    HW143022  11.334   3.120  11.249 -0.7945 -1.4235  0.7544
45964SOL    HW243023  11.224   3.222  11.228  1.5323  0.9647  0.0486
45965SOL     OW43024   7.466   3.766   6.462  0.1631 -0.2742  0.3643
45965SOL    HW143025   7.554   3.730   6.476  0.1480 -1.2392 -1.8241
45965SOL    HW243026   7.410   3.689   6.453 -1.2476  0.3150  3.3810
45966SOL     OW43027   9.772   2.731   9.130 -0.0064  0.6376 -0.2132
45966SOL    HW143028   9.729   2.814   9.111 -0.8702  0.4292  0.8090
45966SOL    HW243029   9.865   2.752   9.134  0.2448  0.7620 -4.3812
45967SOL     OW43030   4.485   5.884   7.598 -0.8950  0.2243  0.2680
45967SOL    HW143031   4.485   5.794   7.630  1.5519  0.2116  0.3896
45967SOL    HW243032   4.557   5.926   7.646 -0.6537  1.6453 -1.2950
45968SOL     OW43033   0.418  10.184   3.730  0.1750  0.2348  0.0098
45968SOL    HW143034   0.402  10.090   3.721  2.0922 -0.0672 -0.5345
45968SOL    HW243035   0.466  10.207   3.651  1.4568  1.2680  1.0696
45969SOL     OW43036   4.793   8.893   8.406  0.7651  0.6860  0.4176
45969SOL    HW143037   4.887   8.911   8.396  0.8136  0.3065  0.1853
45969SOL    HW243038   4.789   8.801   8.433  0.3296 -0.2943 -2.7450
45970SOL     OW43039   4.355   9.241   8.630 -0.4199  0.0728  0.6821
45970SOL    HW143040   4.435   9.195   8.604  0.8379  1.3693  2.2071
45970SOL    HW243041   4.286   9.197   8.581  1.3618 -0.3023 -1.5844
45971SOL     OW43042   7.718   8.334   3.393  0.6336 -0.3702 -0.2384
45971SOL    HW143043   7.675   8.280   3.326 -0.2040 -0.4893  0.3924
45971SOL    HW243044   7.657   8.405   3.409  0.8335 -0.3438  0.4122
45972SOL     OW43045   9.292  10.494   6.348  0.1069  0.6712 -0.2129
45972SOL    HW143046   9.276  10.518   6.256  0.3005  0.8864 -0.1925
45972SOL    HW243047   9.299  10.399   6.348 -0.2858  0.6419 -0.3614
45973SOL     OW43048  11.198   5.282   7.502 -0.2050  0.0791 -0.1223
45973SOL    HW143049  11.253   5.216   7.460  1.5044  2.4798 -1.8509
45973SOL    HW243050  11.109   5.262   7.472  0.2626 -1.5766 -0.4187
45974SOL     OW43051   6.190   0.011  11.161  0.0554 -0.2630 -0.4437
45974SOL    HW143052   6.105   0.036  11.196  0.3074  0.4972 -0.3764
45974SOL    HW243053   6.190   0.046  11.071  0.8824  1.0394  0.0547
45975SOL     OW43054   7.284   6.881   3.555 -0.3161  0.4666 -0.2513
45975SOL    HW143055   7.373   6.903   3.527  0.3942  1.9744  2.9294
45975SOL    HW243056   7.275   6.788   3.536  2.2044  0.1296  0.0182
45976SOL     OW43057   4.556   0.000   2.592  0.4901  0.0333  0.2540
45976SOL    HW143058   4.532  -0.020   2.501  0.1295 -0.1119  0.3840
45976SOL    HW243059   4.534  -0.078   2.641 -1.5551  0.9737  0.8722
45977SOL     OW43060   2.371   1.365   1.993  0.7684 -0.7043 -0.3410
45977SOL    HW143061   2.462   1.361   2.021  0.8515 -0.3080 -0.5627
45977SOL    HW243062   2.334   1.439   2.039  1.5820  1.6081 -3.2528
45978SOL     OW43063  10.303   7.050   4.390  0.6256 -0.2392  0.6017
45978SOL    HW143064  10.334   6.977   4.337  2.0494 -0.7993  2.1590
45978SOL    HW243065  10.309   7.018   4.480 -0.2528  1.2512  1.2143
45979SOL     OW43066   3.404   6.017   0.306  0.1591  0.1441 -0.3976
45979SOL    HW143067   3.424   5.947   0.368  0.9857 -0.1551 -0.9841
45979SOL    HW243068   3.441   6.096   0.346  0.1081  0.0641 -0.1965
45980SOL     OW43069   3.016   3.583   9.145 -0.3527  0.1981  0.1917
45980SOL    HW143070   2.935   3.547   9.109 -0.3520 -0.6955  1.0799
45980SOL    HW243071   3.011   3.564   9.238  1.9516 -1.9224 -0.0777
45981SOL     OW43072  10.938   2.441   3.445 -0.0913 -0.2521  0.1778
45981SOL    HW143073  10.893   2.428   3.529  0.2549 -0.7357  0.2877
45981SOL    HW243074  10.922   2.359   3.397  0.2604 -0.2307  0.0259
45982SOL     OW43075   9.153   2.239   6.725 -0.2227  0.2453  0.7170
45982SOL    HW143076   9.238   2.203   6.700  0.4220  2.5857 -0.6728
45982SOL    HW243077   9.116   2.270   6.642 -2.5376 -0.9185  1.2870
45983SOL     OW43078   3.617   6.136   9.089 -0.1224 -0.3839  0.0776
45983SOL    HW143079   3.690   6.172   9.138 -0.7208 -0.3544  0.9627
45983SOL    HW243080   3.543   6.138   9.150 -0.6817 -1.1068 -0.5524
45984SOL     OW43081   9.495   2.256   2.322 -0.0012 -0.4726 -0.4451
45984SOL    HW143082   9.468   2.183   2.378 -0.7295  0.8633  0.9914
45984SOL    HW243083   9.437   2.252   2.246 -1.0726 -0.4809  0.3665
45985SOL     OW43084   3.302   0.384   1.293 -0.0621 -0.2879 -0.4057
45985SOL    HW143085   3.361   0.310   1.303  0.2613 -0.3112 -2.3407
45985SOL    HW243086   3.352   0.459   1.325 -0.6365 -0.9546  2.2163
45986SOL     OW43087  10.930   0.541   7.841 -0.2167  0.3867  0.8906
45986SOL    HW143088  10.842   0.562   7.810 -0.7248 -0.9608  1.3672
45986SOL    HW243089  10.938   0.446   7.827  1.0273  0.4456  1.1700
45987SOL     OW43090   0.399   0.541   7.136  0.3879 -0.1706 -0.4235
45987SOL    HW143091   0.333   0.497   7.083  1.1905 -2.0433  0.1005
45987SOL    HW243092   0.446   0.597   7.075  1.2056 -2.1905 -1.6818
45988SOL     OW43093  10.499   7.313   1.143 -0.0766 -0.7805  0.2861
45988SOL    HW143094  10.480   7.358   1.061  0.4631 -1.6813 -0.3491
45988SOL    HW243095  10.493   7.381   1.211 -3.9877 -0.6673 -0.0264
45989SOL     OW43096   4.126   0.457   6.636 -0.0016  0.5583  0.2179
45989SOL    HW143097   4.194   0.515   6.603  0.1183  1.1055  1.4053
45989SOL    HW243098   4.160   0.425   6.720 -0.6149 -0.2307  0.1739
45990SOL     OW43099   2.857   0.340   4.142  0.0620  0.1284  0.4024
45990SOL    HW143100   2.782   0.281   4.155 -0.8093  1.3341  0.9136
45990SOL    HW243101   2.910   0.328   4.221  0.6615 -1.0645 -0.1613
45991SOL     OW43102   2.228   2.163   9.491 -0.0692  0.7586 -0.1348
45991SOL    HW143103   2.165   2.234   9.490 -0.2823  0.6406  2.1768
45991SOL    HW243104   2.303   2.198   9.539  0.6900  0.1254 -0.8417
45992SOL     OW43105   4.857  11.182   2.337  0.4277  0.1661 -0.5527
45992SOL    HW143106   4.807  11.109   2.373  2.2097 -0.6793  0.2690
45992SOL    HW243107   4.868  11.243   2.409  1.7898 -0.3355 -0.3026
45993SOL     OW43108   7.813   6.029   4.516 -0.4020 -0.0164  0.4132
45993SOL    HW143109   7.871   6.105   4.516 -0.4283  0.0238 -0.6706
45993SOL    HW243110   7.728   6.063   4.542 -0.2653  0.1994  0.5813
45994SOL     OW43111   0.847   3.715  11.239  0.0729  0.2506  0.6698
45994SOL    HW143112   0.879   3.642  11.292  1.7145  0.3522 -0.1588
45994SOL    HW243113   0.819   3.780  11.302  0.7163 -0.1903  1.4175
45995SOL     OW43114   3.449   8.389   0.792 -0.1793  0.0559 -0.1489
45995SOL    HW143115   3.356   8.409   0.801 -0.3544 -1.3982  1.6056
45995SOL    HW243116   3.494   8.472   0.807 -1.1080  0.3358  1.1252
45996SOL     OW43117   4.329   9.655   2.469 -0.1826  0.5452 -0.1597
45996SOL    HW143118   4.244   9.657   2.426 -0.7669 -4.1096  0.5098
45996SOL    HW243119   4.380   9.591   2.419  1.8997  1.0688  1.2061
45997SOL     OW43120   7.787  10.863   3.623 -0.5397  0.0974  0.4067
45997SOL    HW143121   7.719  10.917   3.665 -1.1210  0.9941 -1.6330
45997SOL    HW243122   7.743  10.825   3.547  1.1645  0.4271 -0.7617
45998SOL     OW43123   3.499   0.038   2.958  0.5601  0.1272  0.0658
45998SOL    HW143124   3.436   0.055   2.887  1.6405  1.3796 -0.6025
45998SOL    HW243125   3.500   0.118   3.009 -0.1525 -0.7460  1.4895
45999SOL     OW43126   4.864  10.629   0.303 -0.0020  0.1167 -0.2423
45999SOL    HW143127   4.956  10.621   0.278 -0.2301 -1.1677 -0.7125
45999SOL    HW243128   4.817  10.572   0.242 -1.1728  1.1610 -0.3376
46000SOL     OW43129   9.936   4.578   6.040  0.3775 -0.1788  0.1306
46000SOL    HW143130   9.916   4.502   5.985 -0.1691 -0.6842  1.0279
46000SOL    HW243131  10.014   4.617   5.999 -0.5357 -0.0431 -1.5036
46001SOL     OW43132   2.633   9.580   9.402  0.4132 -0.0524  0.2129
46001SOL    HW143133   2.707   9.630   9.439  0.4866 -0.6931  0.9460
46001SOL    HW243134   2.604   9.525   9.474  0.5440 -1.3103 -0.6912
46002SOL     OW43135  10.686  11.283  10.982 -0.0967 -0.1116 -0.0850
46002SOL    HW143136  10.713  11.353  10.922  0.4933 -0.9556 -0.8212
46002SOL    HW243137  10.679  11.326  11.067 -2.5016  1.4676 -1.0269
46003SOL     OW43138   2.722   3.542   0.468 -0.3026 -0.2931  0.3541
46003SOL    HW143139   2.727   3.457   0.511 -2.3499 -0.7664 -0.2708
46003SOL    HW243140   2.702   3.522   0.376 -0.5392  0.8465  0.1468
46004SOL     OW43141   2.087   6.584  10.450 -0.0240  0.2969 -0.0272
46004SOL    HW143142   2.015   6.631  10.409 -0.7922  0.6990  1.7065
46004SOL    HW243143   2.078   6.604  10.544  2.9398  1.2531  0.1433
46005SOL     OW43144   1.944  10.032   0.519 -0.3282  0.1877  0.0778
46005SOL    HW143145   2.027  10.048   0.564  0.8340 -0.7366 -1.6867
46005SOL    HW243146   1.949  10.084   0.439 -1.9460  1.0334  0.5122
46006SOL     OW43147   5.792   6.920  10.662 -0.2834  0.5922 -0.2574
46006SOL    HW143148   5.756   6.953  10.580  0.8728  1.2021 -0.5246
46006SOL    HW243149   5.781   6.992  10.724 -3.0422 -0.5678  0.7085
46007SOL     OW43150  11.017   7.732  11.261  0.1717  0.3609 -0.5180
46007SOL    HW143151  11.083   7.675  11.222 -0.9578 -1.0169 -0.4851
46007SOL    HW243152  10.992   7.792  11.191  0.8697  0.3624 -0.7688
46008SOL     OW43153   2.542   9.143  10.345 -0.0315 -0.4596 -0.4889
46008SOL    HW143154   2.628   9.157  10.386 -0.0424 -0.4039 -0.4856
46008SOL    HW243155   2.510   9.231  10.325 -0.0859 -0.4803 -0.4950
46009SOL     OW43156   7.565   2.948   7.816 -0.1439 -0.0901 -0.2456
46009SOL    HW143157   7.488   2.902   7.781 -0.6215  1.4264 -1.2237
46009SOL    HW243158   7.613   2.880   7.863 -1.5961 -1.2732 -0.4128
46010SOL     OW43159   0.699   9.230   6.535  0.3532  0.0183  0.1562
46010SOL    HW143160   0.678   9.323   6.524 -1.5668  0.0009  3.1429
46010SOL    HW243161   0.763   9.229   6.606 -0.7368 -1.0272  1.1353
46011SOL     OW43162   0.754   0.748  10.740  0.3357  0.8569  0.1525
46011SOL    HW143163   0.796   0.795  10.668 -0.0762  1.2137  0.1456
46011SOL    HW243164   0.663   0.736  10.712  0.2029  0.9007  0.5689
46012SOL     OW43165   5.274   8.565   3.640 -0.2939 -0.2020 -0.9286
46012SOL    HW143166   5.224   8.589   3.718 -1.1945  0.5551 -1.7071
46012SOL    HW243167   5.228   8.490   3.603  0.8811 -1.3706 -0.0377
46013SOL     OW43168   9.245  10.362   8.750  0.0910  0.2100 -0.2409
46013SOL    HW143169   9.302  10.361   8.827  1.8068  0.9847 -1.4693
46013SOL    HW243170   9.186  10.436   8.765  2.7190  2.5883 -1.2502
46014SOL     OW43171   5.817   3.129  10.151  0.2240  0.3492  0.3069
46014SOL    HW143172   5.795   3.210  10.105 -0.7557 -1.1593 -1.9558
46014SOL    HW243173   5.733   3.094  10.180  0.6208 -0.0118  1.0196
46015SOL     OW43174   6.584   8.682   2.450 -0.0507 -0.0756  0.2009
46015SOL    HW143175   6.659   8.737   2.471  0.2829 -0.0236 -1.0897
46015SOL    HW243176   6.572   8.626   2.527  0.4513  0.8671  0.9626
46016SOL     OW43177   2.191   8.507   3.393 -0.6446  0.4853  0.3691
46016SOL    HW143178   2.200   8.600   3.373 -0.9021  0.4600  0.1373
46016SOL    HW243179   2.204   8.463   3.309 -2.1852  0.4033  0.1584
46017SOL     OW43180   5.292   2.005   2.160 -0.5775  0.0114 -0.0789
46017SOL    HW143181   5.283   1.938   2.093  2.3299 -0.7129  0.1873
46017SOL    HW243182   5.341   2.075   2.117  1.1590 -0.3883  1.2227
46018SOL     OW43183   0.018   0.672  11.051 -0.3138  0.3152 -0.1643
46018SOL    HW143184  -0.007   0.761  11.074  1.6157  0.7710  0.2635
46018SOL    HW243185   0.113   0.671  11.060 -0.1553 -1.3356 -1.7593
46019SOL     OW43186   5.774   3.184   1.428  0.1223 -0.0876  0.0154
46019SOL    HW143187   5.843   3.175   1.494 -0.1102 -0.6800  0.1848
46019SOL    HW243188   5.701   3.132   1.463  0.4588 -1.5180 -1.3262
46020SOL     OW43189   2.698   1.447   4.272  0.4996  0.6382  0.1590
46020SOL    HW143190   2.734   1.479   4.190  1.3276 -0.1646  0.2016
46020SOL    HW243191   2.678   1.526   4.322  0.8054  1.1132 -0.4626
46021SOL     OW43192   0.896   0.667   9.867 -0.1933 -0.3734 -0.2854
46021SOL    HW143193   0.940   0.609   9.930 -0.3122  0.7797  0.8852
46021SOL    HW243194   0.890   0.615   9.787 -1.0572 -2.2848  0.9791
46022SOL     OW43195  10.174   0.593  10.975  0.0047 -0.0084 -0.1110
46022SOL    HW143196  10.197   0.602  10.882  0.3765  0.7988  0.0553
46022SOL    HW243197  10.250   0.627  11.022  0.2399 -1.3623  0.5142
46023SOL     OW43198   2.344   6.350   7.840 -0.0297  0.3746  0.0062
46023SOL    HW143199   2.389   6.314   7.916 -1.0900  0.1566  0.5529
46023SOL    HW243200   2.412   6.393   7.789  0.6039  1.0147  1.3722
46024SOL     OW43201   4.487   4.068   3.811 -0.2756 -0.4119 -0.7242
46024SOL    HW143202   4.500   4.002   3.744 -1.2079 -0.1028 -1.2153
46024SOL    HW243203   4.445   4.022   3.883 -1.1557 -0.3160 -1.1642
46025SOL     OW43204   8.094   0.363   2.724  0.6274 -0.4913  0.0500
46025SOL    HW143205   8.098   0.369   2.820 -1.5691 -0.7752  0.1820
46025SOL    HW243206   8.027   0.297   2.707  1.8548 -1.3028 -1.6884
46026SOL     OW43207   2.871   6.031   7.573 -0.3619 -0.4797 -0.3123
46026SOL    HW143208   2.800   6.051   7.634  0.8077  0.1450  0.8593
46026SOL    HW243209   2.850   5.944   7.539 -2.5613  0.3798 -1.2334
46027SOL     OW43210   7.220   7.766   3.058 -0.4175  0.2156 -0.0554
46027SOL    HW143211   7.295   7.746   3.002 -0.0165  1.5385 -0.0109
46027SOL    HW243212   7.164   7.822   3.004 -0.9443 -0.0602  0.2066
46028SOL     OW43213   7.427   0.996   5.028 -0.3506  0.1440  0.0458
46028SOL    HW143214   7.360   1.053   4.989 -1.5926  1.3460  3.7280
46028SOL    HW243215   7.377   0.922   5.063  0.8930 -1.5973 -1.7245
46029SOL     OW43216   2.856   7.944   0.518  0.1523 -0.1562 -0.1079
46029SOL    HW143217   2.769   7.982   0.510  1.5308  3.8281  2.2011
46029SOL    HW243218   2.845   7.868   0.575 -1.9910 -0.5621 -1.0277
46030SOL     OW43219   4.614   9.097   8.767 -0.2879 -0.0515  0.0815
46030SOL    HW143220   4.649   9.183   8.789 -0.0359 -0.0404 -0.3554
46030SOL    HW243221   4.638   9.041   8.841 -0.0220  0.1386  0.1367
46031SOL     OW43222   4.465   5.861   9.796 -0.2514  0.7815  0.3622
46031SOL    HW143223   4.415   5.942   9.798  0.4669  1.2303  0.4126
46031SOL    HW243224   4.555   5.888   9.815  0.1032  0.0642 -0.2583
46032SOL     OW43225   5.603   2.474   2.668 -0.4898  0.0027 -0.4073
46032SOL    HW143226   5.685   2.502   2.626 -0.7578 -0.1958 -1.0792
46032SOL    HW243227   5.535   2.498   2.605 -1.0021  0.6979  0.4059
46033SOL     OW43228   4.671   0.695   1.152  0.8353 -0.2976  0.3576
46033SOL    HW143229   4.684   0.623   1.214 -2.4341 -0.3599  1.1108
46033SOL    HW243230   4.652   0.652   1.068  0.4127 -0.3075  0.4556
46034SOL     OW43231   7.320   5.840   6.653 -0.2897  0.0136  0.1097
46034SOL    HW143232   7.407   5.875   6.633 -0.7040  0.7018 -0.5017
46034SOL    HW243233   7.306   5.863   6.745  0.3387 -0.4464  0.3213
46035SOL     OW43234   1.804   4.912  10.911 -0.0385  0.6169 -0.0198
46035SOL    HW143235   1.745   4.962  10.854 -0.6264 -0.1370 -0.0873
46035SOL    HW243236   1.891   4.923  10.872  0.1043  2.8619  0.8500
46036SOL     OW43237   2.034   9.080   3.584  0.7832  0.5368 -0.0572
46036SOL    HW143238   1.957   9.115   3.540 -0.3068  0.1931  1.5395
46036SOL    HW243239   2.040   9.129   3.666  0.5116 -1.4909  1.2023
46037SOL     OW43240   6.788   2.210   3.707  0.4548 -0.4005  0.4778
46037SOL    HW143241   6.773   2.126   3.751 -0.1930 -0.1407  0.7482
46037SOL    HW243242   6.815   2.185   3.618  2.8627 -0.9477  1.3167
46038SOL     OW43243   5.722   3.528   9.165 -0.3351  0.5060 -0.0364
46038SOL    HW143244   5.716   3.486   9.251  1.4145 -1.8367 -0.9986
46038SOL    HW243245   5.726   3.455   9.103 -0.5551  2.1494 -2.0386
46039SOL     OW43246   6.992   2.946   8.722 -0.0256 -0.5386 -0.4071
46039SOL    HW143247   6.918   2.888   8.704 -0.5863  0.0305  0.0569
46039SOL    HW243248   7.067   2.901   8.683 -0.4827 -1.4911 -0.2050
46040SOL     OW43249   2.220   2.780  10.319 -0.0214 -0.2123 -0.9597
46040SOL    HW143250   2.235   2.845  10.251  1.1390  0.2388 -0.2793
46040SOL    HW243251   2.305   2.768  10.361 -0.7358 -0.4115  0.4748
46041SOL     OW43252   3.512   7.226  10.552 -0.0153 -0.0925  0.0481
46041SOL    HW143253   3.442   7.219  10.617 -0.8930 -0.1974 -0.8902
46041SOL    HW243254   3.521   7.320  10.536  0.5584 -0.0331  0.6905
46042SOL     OW43255   8.180   3.768  10.051 -0.3728  0.4207 -0.4911
46042SOL    HW143256   8.094   3.801  10.025 -0.4735 -0.7457 -1.6947
46042SOL    HW243257   8.242   3.833  10.017 -0.7403  0.9240 -0.1993
46043SOL     OW43258   3.709   0.500   3.815  0.0275  0.1469  0.1557
46043SOL    HW143259   3.734   0.408   3.821  1.3580  0.4012 -1.4441
46043SOL    HW243260   3.788   0.548   3.840 -0.1350  0.8827 -0.7345
46044SOL     OW43261   8.946   2.205   1.753 -0.7271 -0.5559  0.2929
46044SOL    HW143262   8.973   2.262   1.825  0.7205  0.0801 -0.7217
46044SOL    HW243263   8.909   2.128   1.796 -0.2387 -0.0209  1.7120
46045SOL     OW43264   3.182   2.090   3.658 -0.2653 -0.3636  0.2925
46045SOL    HW143265   3.222   2.077   3.572 -0.0484 -1.3651  0.5336
46045SOL    HW243266   3.093   2.119   3.640  0.4859  1.6716 -0.2577
46046SOL     OW43267   2.368   5.360   6.277 -0.6245 -0.0986  0.8990
46046SOL    HW143268   2.356   5.356   6.183  3.4381 -4.1228  0.3920
46046SOL    HW243269   2.310   5.294   6.313  0.1368 -0.7774  0.8979
46047SOL     OW43270   7.457   2.147   6.879 -0.5780 -0.5704 -0.6813
46047SOL    HW143271   7.506   2.177   6.956  1.4754 -2.2815 -1.2774
46047SOL    HW243272   7.371   2.187   6.889  0.5946  1.6906  0.9413
46048SOL     OW43273  10.230   5.610   1.076 -0.6897  0.5964 -0.2978
46048SOL    HW143274  10.323   5.619   1.058 -0.9285  0.9396 -1.3645
46048SOL    HW243275  10.226   5.544   1.145  0.3119  0.2814 -0.5289
46049SOL     OW43276   4.091   6.825   0.389  0.3017  0.0620  0.2822
46049SOL    HW143277   4.152   6.826   0.316  1.8048  1.1489  1.5407
46049SOL    HW243278   4.051   6.738   0.385  0.9255 -0.1684 -1.3508
46050SOL     OW43279   2.251   0.401   7.241  0.1362 -0.3888 -0.3530
46050SOL    HW143280   2.194   0.469   7.277  0.3758 -0.1937 -0.3422
46050SOL    HW243281   2.228   0.398   7.148 -0.5169 -0.9274 -0.1798
46051SOL     OW43282   8.679   3.266   7.081 -0.4025  0.0675 -0.0430
46051SOL    HW143283   8.587   3.288   7.068 -0.6343 -1.2519 -0.7451
46051SOL    HW243284   8.718   3.270   6.994  0.0803  0.0954  0.1688
46052SOL     OW43285   8.103   9.296   8.892  0.3859  0.5269 -0.0588
46052SOL    HW143286   8.188   9.274   8.929  0.5524  0.8149 -0.2651
46052SOL    HW243287   8.118   9.377   8.844 -0.6648  2.3524  2.5263
46053SOL     OW43288   9.232  11.236   7.476  0.0985  0.5247 -0.1030
46053SOL    HW143289   9.257  11.259   7.386 -0.2006 -0.1634 -0.3639
46053SOL    HW243290   9.199  11.147   7.469 -0.3915  0.6498  0.6120
46054SOL     OW43291   7.138   9.849   0.272 -0.0303  0.4263  0.3986
46054SOL    HW143292   7.160   9.938   0.300 -0.1509  0.5843 -0.0118
46054SOL    HW243293   7.043   9.848   0.266  0.0451  0.7840 -1.2723
46055SOL     OW43294  10.236  10.913   3.281  0.2332  0.8248 -0.0399
46055SOL    HW143295  10.219  10.822   3.256 -0.6718  1.0425 -0.2497
46055SOL    HW243296  10.245  10.910   3.377 -0.6287  0.6373  0.0394
46056SOL     OW43297   6.617   2.436   1.600  0.2042  0.1128 -0.8114
46056SOL    HW143298   6.611   2.464   1.692 -1.8183 -0.7721 -0.6572
46056SOL    HW243299   6.625   2.517   1.551  1.3973  0.5934  0.1535
46057SOL     OW43300   2.657   8.311   6.594 -0.0416  0.2686  0.2431
46057SOL    HW143301   2.699   8.226   6.583 -0.3836  0.4311 -2.7336
46057SOL    HW243302   2.723   8.374   6.564 -0.3222  0.9514  1.0528
46058SOL     OW43303   4.138   1.620   2.678 -0.0775  0.2013 -0.9435
46058SOL    HW143304   4.196   1.549   2.652 -0.0021  0.2799 -0.9902
46058SOL    HW243305   4.053   1.578   2.691 -0.1984  0.2249 -1.6692
46059SOL     OW43306   4.269   2.096   7.504  0.1989  0.1655 -0.2185
46059SOL    HW143307   4.182   2.132   7.484  0.4796  0.8036 -0.3052
46059SOL    HW243308   4.252   2.026   7.567 -0.3938  0.2014 -0.3354
46060SOL     OW43309   1.540   0.149  10.919 -0.1238 -0.5738 -0.0709
46060SOL    HW143310   1.449   0.136  10.890 -0.2516  0.6074 -0.2039
46060SOL    HW243311   1.564   0.235  10.886  0.2138  0.1965  2.0877
46061SOL     OW43312  11.146   2.797   2.567 -0.1616  0.8857 -0.2725
46061SOL    HW143313  11.133   2.745   2.647  0.9407 -0.1655 -0.7476
46061SOL    HW243314  11.093   2.875   2.580  0.5378  1.0585  1.8003
46062SOL     OW43315   5.940   1.788   8.035  0.1710  0.2933 -0.5693
46062SOL    HW143316   6.014   1.791   7.974  0.0554  2.0600 -0.6484
46062SOL    HW243317   5.966   1.724   8.101  1.0367 -0.3603 -1.5138
46063SOL     OW43318   9.143   0.877   1.597 -0.1102 -0.1763  0.0771
46063SOL    HW143319   9.063   0.879   1.649  0.6488  0.8391  1.2330
46063SOL    HW243320   9.176   0.788   1.608 -1.0854 -0.6089 -0.4279
46064SOL     OW43321   2.071   3.056  10.542  0.0404  0.2570 -0.3992
46064SOL    HW143322   2.031   2.999  10.477 -1.5322 -0.1768  0.9107
46064SOL    HW243323   2.019   3.042  10.621  2.3178  0.2516  1.1379
46065SOL     OW43324   3.173   8.389  11.215 -0.1112  0.4437 -0.0736
46065SOL    HW143325   3.133   8.415  11.298  0.3680  2.8954 -0.5781
46065SOL    HW243326   3.264   8.369  11.238  0.8199  3.9734 -0.4313
46066SOL     OW43327   2.610   5.956  11.061 -0.5952  0.1349  0.7505
46066SOL    HW143328   2.696   5.962  11.021 -0.5563 -1.7104  0.5222
46066SOL    HW243329   2.611   6.022  11.130  2.0547 -1.7728  2.6445
46067SOL     OW43330   3.536   1.220   7.845 -0.7124 -0.3158  0.3098
46067SOL    HW143331   3.560   1.297   7.792 -0.1672  0.3150  1.4608
46067SOL    HW243332   3.565   1.242   7.933 -1.6771 -1.3431  0.8853
46068SOL     OW43333  11.138   4.292   0.340  0.0775  0.2167 -0.1089
46068SOL    HW143334  11.221   4.251   0.367  0.3545  0.3649 -0.7287
46068SOL    HW243335  11.078   4.274   0.413  1.2800  2.0659  1.3950
46069SOL     OW43336   9.141   8.280   1.630  0.3679 -0.1778  0.4171
46069SOL    HW143337   9.081   8.321   1.568  1.5788  0.4553 -0.3744
46069SOL    HW243338   9.085   8.241   1.696 -0.9007  0.5333 -0.2163
46070SOL     OW43339   4.670   5.048   5.965 -0.0958  0.6521  0.2045
46070SOL    HW143340   4.715   5.129   5.939 -0.1885  0.3432 -0.9466
46070SOL    HW243341   4.621   5.022   5.887 -0.0774 -0.5071  0.5745
46071SOL     OW43342   6.469   0.172   9.697  0.1837 -0.0206 -0.3362
46071SOL    HW143343   6.416   0.153   9.620  0.3868  0.6153 -0.6391
46071SOL    HW243344   6.461   0.094   9.752 -2.6330  0.7873  0.5235
46072SOL     OW43345   7.065   2.860   3.422  0.1627 -0.0455  0.2807
46072SOL    HW143346   7.128   2.886   3.489 -1.2285 -0.1338  1.6611
46072SOL    HW243347   7.023   2.941   3.395 -3.3282 -0.5700  3.7212
46073SOL     OW43348   5.649   5.241   1.786  0.0735 -0.1698  0.4503
46073SOL    HW143349   5.642   5.265   1.878 -1.3749 -1.5774  0.7442
46073SOL    HW243350   5.616   5.151   1.782 -0.9639  0.2459 -1.6092
46074SOL     OW43351   7.355   8.328   1.006 -0.1195  0.0691 -0.5823
46074SOL    HW143352   7.420   8.336   1.075 -0.1655 -0.7033 -0.4491
46074SOL    HW243353   7.286   8.389   1.031 -0.4411 -0.6878  0.3989
46075SOL     OW43354   1.793   2.791   6.658 -0.2009 -0.4917 -0.4724
46075SOL    HW143355   1.765   2.775   6.568  0.2444  0.1616 -0.7256
46075SOL    HW243356   1.711   2.798   6.707 -0.4807  0.6916 -1.0878
46076SOL     OW43357   9.056   2.389   1.960 -0.3968  0.7128  0.0795
46076SOL    HW143358   9.029   2.480   1.967  1.3766  1.3623 -1.1396
46076SOL    HW243359   9.150   2.390   1.977 -0.2919 -0.8406 -0.2827
46077SOL     OW43360   3.033   5.413  10.355 -0.1697  0.0783 -0.0524
46077SOL    HW143361   3.088   5.397  10.432 -1.0296  0.7524  0.7219
46077SOL    HW243362   3.032   5.329  10.309 -0.1475 -0.5161  1.0057
46078SOL     OW43363   1.093   2.215   6.622  0.2233  0.8044 -0.2545
46078SOL    HW143364   1.080   2.299   6.578 -1.2639  0.8269  0.2009
46078SOL    HW243365   1.178   2.224   6.666  0.8514  1.4494 -1.5840
46079SOL     OW43366  10.989   9.294   8.601  1.0344 -0.3867 -0.2904
46079SOL    HW143367  10.997   9.272   8.693 -1.0216 -0.0138  0.0227
46079SOL    HW243368  10.959   9.213   8.559 -1.6844  0.3668  0.0404
46080SOL     OW43369   2.412   3.575   0.726  0.1437  0.2796  0.7129
46080SOL    HW143370   2.417   3.603   0.634  0.6151 -0.8389  0.3949
46080SOL    HW243371   2.414   3.480   0.722  2.0728  0.2376  1.9962
46081SOL     OW43372   0.952   7.419  11.275  0.1152  0.0822 -0.1612
46081SOL    HW143373   0.987   7.471  11.202  0.6480 -0.6227 -0.4108
46081SOL    HW243374   0.955   7.329  11.244 -0.0711 -0.1801  0.5709
46082SOL     OW43375   1.877   4.676  10.620  0.3511 -0.0143 -0.2925
46082SOL    HW143376   1.797   4.726  10.639 -0.8136 -1.9856  0.2156
46082SOL    HW243377   1.931   4.687  10.698 -0.5783 -0.7810  0.4818
46083SOL     OW43378   2.336   2.841   2.146 -0.7754 -0.2934 -0.5000
46083SOL    HW143379   2.249   2.870   2.171 -0.8470 -1.9899  1.3437
46083SOL    HW243380   2.322   2.759   2.099 -0.2142 -0.2072 -0.8302
46084SOL     OW43381   5.136   5.547   6.627  0.2217  0.2241  0.1563
46084SOL    HW143382   5.128   5.487   6.702  0.9849 -1.0105 -0.7328
46084SOL    HW243383   5.049   5.549   6.589  0.0708  0.0726  0.4846
46085SOL     OW43384   1.358   9.437   0.031 -0.1989  0.0883 -0.7017
46085SOL    HW143385   1.338   9.443  -0.062  0.6506 -2.1995 -1.0539
46085SOL    HW243386   1.408   9.356   0.040  1.1941  1.1370  1.4928
46086SOL     OW43387   3.843  10.539   0.982 -0.0426 -0.1004  0.2135
46086SOL    HW143388   3.885  10.611   1.029 -0.3877  0.1761  0.0972
46086SOL    HW243389   3.848  10.564   0.890 -0.1244 -0.2420  0.1711
46087SOL     OW43390   7.910   3.915   2.720  0.2541 -0.2700 -0.2600
46087SOL    HW143391   7.973   3.881   2.657  0.7866  1.2366 -0.5732
46087SOL    HW243392   7.836   3.855   2.715  0.2980 -0.1757 -2.3017
46088SOL     OW43393  11.050   3.469   1.578  0.6558 -0.7916  0.5626
46088SOL    HW143394  11.043   3.412   1.654  1.7411 -0.8289  0.6491
46088SOL    HW243395  11.050   3.410   1.503 -1.9139 -0.6653  0.4288
46089SOL     OW43396   7.322   6.121   8.718  0.0040 -0.0517  0.2347
46089SOL    HW143397   7.318   6.208   8.678 -0.2457 -0.3935 -0.4846
46089SOL    HW243398   7.338   6.139   8.811  0.0297  0.7595  0.0821
46090SOL     OW43399   3.593   0.025   0.876  0.3077 -0.3419  0.1901
46090SOL    HW143400   3.557   0.012   0.788 -1.2366 -0.4172  0.8174
46090SOL    HW243401   3.521   0.002   0.935  1.4888 -0.7886  1.4856
46091SOL     OW43402  10.800   3.987   0.400  0.4940 -0.5037 -0.1236
46091SOL    HW143403  10.799   3.937   0.482 -0.1792  0.2979  0.3677
46091SOL    HW243404  10.820   4.077   0.427  0.0611 -0.1921 -0.8071
46092SOL     OW43405   8.362   2.573   1.293 -0.2085 -0.2769  0.1542
46092SOL    HW143406   8.376   2.614   1.207 -0.5266  1.1681  0.7826
46092SOL    HW243407   8.425   2.502   1.296  1.0958  0.8399 -0.5189
46093SOL     OW43408   6.938   2.788   5.635  0.0916  0.1852 -0.3138
46093SOL    HW143409   6.889   2.759   5.557 -0.5707  0.0565  0.1475
46093SOL    HW243410   6.872   2.793   5.704  0.9435 -1.0903  0.5969
46094SOL     OW43411  10.188   7.073   5.540  0.8091  0.3328 -0.0107
46094SOL    HW143412  10.272   7.108   5.511  1.3135 -0.9340 -0.1300
46094SOL    HW243413  10.208   6.986   5.575 -0.5314 -0.2724 -0.6678
46095SOL     OW43414  10.100   8.735   3.575 -0.0158  0.2371 -0.0869
46095SOL    HW143415  10.126   8.728   3.483 -1.4293  0.4122 -0.5200
46095SOL    HW243416  10.047   8.658   3.591  3.9182 -2.1908  1.9213
46096SOL     OW43417   8.456   3.296   3.546  0.1773 -0.7886  0.1543
46096SOL    HW143418   8.365   3.290   3.576  1.0430  1.4276  3.5116
46096SOL    HW243419   8.454   3.359   3.474 -0.8490 -0.1028  0.7769
46097SOL     OW43420   0.135   3.795   0.687 -0.2097  0.6291 -0.1808
46097SOL    HW143421   0.135   3.728   0.756 -0.9175 -0.6674 -1.4270
46097SOL    HW243422   0.048   3.834   0.692  0.4676  2.0847  1.0922
46098SOL     OW43423   8.573   1.138   9.518  0.1403 -0.0839  0.2565
46098SOL    HW143424   8.556   1.232   9.506 -0.3435 -0.1283  0.5685
46098SOL    HW243425   8.522   1.115   9.596  0.2898 -0.5967  0.2005
46099SOL     OW43426   4.682   2.238   9.936 -0.0922  0.3820 -0.3109
46099SOL    HW143427   4.773   2.217   9.955 -0.4181  0.2949  1.2120
46099SOL    HW243428   4.640   2.244  10.022 -2.1787 -2.5235 -1.0222
46100SOL     OW43429   5.790   7.056   9.109  0.5172 -0.3239  0.1446
46100SOL    HW143430   5.832   7.127   9.157 -0.6889  0.0800  0.6440
46100SOL    HW243431   5.766   6.992   9.177 -1.7684  0.5409  0.2145
46101SOL     OW43432   9.694  10.796   3.376 -0.2779 -0.0958  0.2670
46101SOL    HW143433   9.726  10.815   3.288 -0.7335 -2.5007 -0.4532
46101SOL    HW243434   9.608  10.839   3.380 -0.2091  0.1105 -0.4061
46102SOL     OW43435   1.718   4.309   3.082  0.0993 -0.3171 -0.3701
46102SOL    HW143436   1.757   4.330   3.167 -0.7533 -2.6680  0.6609
46102SOL    HW243437   1.641   4.365   3.076 -0.6571 -1.1872  1.0858
46103SOL     OW43438   5.522  10.502   2.088  0.0351  0.1589 -0.1768
46103SOL    HW143439   5.465  10.576   2.064 -0.1113 -0.0997 -0.6237
46103SOL    HW243440   5.586  10.498   2.017  0.9902  0.8364  0.6309
46104SOL     OW43441  10.234   3.472   6.184 -0.6740 -0.2115  0.6626
46104SOL    HW143442  10.194   3.525   6.115  0.9184  1.6346  1.1178
46104SOL    HW243443  10.329   3.482   6.170 -0.3430 -2.3534  1.2101
46105SOL     OW43444   2.364   5.480   3.995 -0.2143  0.1357  0.5124
46105SOL    HW143445   2.390   5.555   4.049  3.5823 -1.0169  0.3905
46105SOL    HW243446   2.319   5.421   4.055  0.3377  0.7147  1.5103
46106SOL     OW43447   8.097   6.293   5.918  0.1658  0.4339  0.6180
46106SOL    HW143448   8.176   6.262   5.962  0.1092  1.8081  1.7334
46106SOL    HW243449   8.030   6.290   5.987 -0.5957 -0.0651 -0.1353
46107SOL     OW43450   5.714   0.674   5.165  0.1898 -0.7511  0.0664
46107SOL    HW143451   5.696   0.597   5.219  2.9802 -2.6582 -1.5883
46107SOL    HW243452   5.759   0.734   5.224 -1.9928 -0.3713  1.3716
46108SOL     OW43453  10.523   0.127   1.561 -0.2959 -0.1404 -0.1600
46108SOL    HW143454  10.603   0.130   1.508  0.3546  0.9706  0.8636
46108SOL    HW243455  10.455   0.160   1.503  0.2219  0.0844 -0.6478
46109SOL     OW43456   3.163   6.604   5.491 -0.4242 -0.1852 -0.5544
46109SOL    HW143457   3.182   6.624   5.582 -1.7631 -1.9793  0.1622
46109SOL    HW243458   3.180   6.510   5.483  0.4357  0.0882 -2.3690
46110SOL     OW43459   7.422   3.114   2.046 -0.3938 -0.2598 -0.1748
46110SOL    HW143460   7.331   3.144   2.051 -0.1584  1.3862 -4.2187
46110SOL    HW243461   7.468   3.165   2.113 -1.4472  2.9542 -1.8165
46111SOL     OW43462   6.448   7.655   9.589 -0.1779 -0.2189  0.1796
46111SOL    HW143463   6.480   7.731   9.539 -0.3616  0.4401  1.0516
46111SOL    HW243464   6.357   7.644   9.561 -0.5104  0.6169  0.9250
46112SOL     OW43465   6.451   9.950   4.404 -0.1058  0.3090 -0.6269
46112SOL    HW143466   6.357   9.932   4.405 -0.3636  1.6215 -0.4108
46112SOL    HW243467   6.457  10.045   4.392  1.1694  0.4195  0.7918
46113SOL     OW43468   6.868   7.793  10.258  0.3470 -0.2146  0.3775
46113SOL    HW143469   6.955   7.772  10.291 -0.3841 -1.3861  1.5954
46113SOL    HW243470   6.831   7.708  10.234 -1.0978  0.1051  1.4629
46114SOL     OW43471   5.773  10.077   1.814 -0.1563  0.1175 -0.4658
46114SOL    HW143472   5.860  10.096   1.781 -0.3489  2.2650  0.1920
46114SOL    HW243473   5.745  10.000   1.765  1.6977  0.0180 -1.4083
46115SOL     OW43474   4.510   5.983   8.931 -0.2090 -0.5748  0.1065
46115SOL    HW143475   4.417   5.990   8.954  0.2550  0.5216  1.6999
46115SOL    HW243476   4.528   6.063   8.882 -0.7407 -2.0514 -2.6326
46116SOL     OW43477   8.466   7.316  10.740 -0.3527 -0.3630  0.6236
46116SOL    HW143478   8.457   7.370  10.661  0.9818  1.0050  1.3885
46116SOL    HW243479   8.543   7.350  10.785 -0.0125 -2.3209  1.6117
46117SOL     OW43480   8.120   7.997   1.071  0.1641  0.4074 -0.1346
46117SOL    HW143481   8.062   7.949   1.012  0.0305  1.0941 -0.5710
46117SOL    HW243482   8.153   8.070   1.018  1.4828 -0.0162  0.0759
46118SOL     OW43483   7.112   0.952   0.852  0.2504  0.2455 -0.2588
46118SOL    HW143484   7.107   1.037   0.807  0.0544 -0.9356 -2.5589
46118SOL    HW243485   7.030   0.946   0.901  1.0075  2.1058  1.2593
46119SOL     OW43486   7.045   3.283   2.407 -0.2270  0.2188 -0.2963
46119SOL    HW143487   7.124   3.288   2.353 -1.4372 -2.1350 -2.4064
46119SOL    HW243488   6.993   3.359   2.382  0.6500  0.8902 -0.0825
46120SOL     OW43489   4.491   0.387   7.585  0.3566  0.7309  0.2441
46120SOL    HW143490   4.415   0.425   7.631  0.4306  0.4394  0.6091
46120SOL    HW243491   4.566   0.409   7.640  0.3204 -0.5175  0.7975
46121SOL     OW43492   5.674   3.323   0.962  0.5059 -0.0718  0.5723
46121SOL    HW143493   5.628   3.245   0.929  2.4773 -0.3831 -1.6153
46121SOL    HW243494   5.657   3.390   0.896  1.7879  0.2956  0.6114
46122SOL     OW43495   1.167   5.006   9.876 -0.0857 -0.2141 -0.0539
46122SOL    HW143496   1.096   4.952   9.841 -0.0909 -1.7593  2.2475
46122SOL    HW243497   1.125   5.086   9.906 -0.5423 -0.2611 -0.5649
46123SOL     OW43498   2.751   8.306   7.977 -0.8400  0.3735  0.1562
46123SOL    HW143499   2.720   8.391   7.945 -0.6706  0.8131  1.1556
46123SOL    HW243500   2.708   8.296   8.062  0.4602  0.2289  0.7934
46124SOL     OW43501   2.022   7.117   8.641 -0.0021 -0.3263  0.3167
46124SOL    HW143502   2.077   7.147   8.569 -0.8198  0.0427 -0.1612
46124SOL    HW243503   2.003   7.025   8.620  1.5364 -0.8682  1.1833
46125SOL     OW43504   5.286   7.364   3.656  0.5490 -0.1947  0.5284
46125SOL    HW143505   5.368   7.360   3.706  0.4816 -0.4759  0.6189
46125SOL    HW243506   5.218   7.346   3.720  0.5413 -1.6604  0.1381
46126SOL     OW43507   9.260   2.893   0.685  0.4244 -0.2645 -0.5361
46126SOL    HW143508   9.323   2.852   0.745 -0.3500 -0.4414  0.1734
46126SOL    HW243509   9.272   2.987   0.697 -0.0393 -0.2982  0.2441
46127SOL     OW43510   2.914   3.007   3.252 -0.3402 -0.5456  0.6196
46127SOL    HW143511   2.942   2.929   3.204 -0.4724 -0.2941  0.1220
46127SOL    HW243512   2.896   2.976   3.340 -1.8561 -1.3770  0.0327
46128SOL     OW43513   4.104   9.314   9.442  0.2502  0.0418  0.3282
46128SOL    HW143514   4.196   9.303   9.464  0.3034 -0.8784 -0.3217
46128SOL    HW243515   4.065   9.352   9.521  1.0089 -0.3806  0.9126
46129SOL     OW43516   5.667   4.955   6.090  0.3120 -0.0775  0.4380
46129SOL    HW143517   5.622   5.036   6.114  1.7282  0.7887  0.2274
46129SOL    HW243518   5.597   4.890   6.083 -0.5407  0.4184  3.5681
46130SOL     OW43519   1.539   4.538   1.418  0.1223 -0.0641  0.1846
46130SOL    HW143520   1.468   4.513   1.477 -0.0478  0.4013  0.1723
46130SOL    HW243521   1.527   4.482   1.341  1.0639 -1.5483  1.0870
46131SOL     OW43522   2.238  10.460   0.200  0.0841  0.8711 -0.0381
46131SOL    HW143523   2.202  10.423   0.280 -1.2173  1.3740 -0.3758
46131SOL    HW243524   2.317  10.408   0.183 -1.8124 -1.9498 -0.6467
46132SOL     OW43525   9.984   6.677   8.642 -0.5349 -0.1501  0.3343
46132SOL    HW143526   9.987   6.740   8.570  1.6024 -0.0314  0.4796
46132SOL    HW243527   9.901   6.694   8.686 -0.7031  1.5102 -0.5753
46133SOL     OW43528   2.500   3.274   4.740  0.0028  0.0598  0.3482
46133SOL    HW143529   2.449   3.201   4.704 -1.5499  1.8485 -1.1358
46133SOL    HW243530   2.477   3.274   4.833  0.7080 -1.8872  0.5583
46134SOL     OW43531   7.218   3.248   8.702  0.0842 -0.3340 -0.2623
46134SOL    HW143532   7.312   3.266   8.707  0.0921 -0.4980  0.1723
46134SOL    HW243533   7.212   3.154   8.688 -0.0081 -0.2621 -0.7294
46135SOL     OW43534  10.237   8.162   8.052 -0.1970  0.2594 -0.3023
46135SOL    HW143535  10.237   8.179   8.146  1.5977  0.6203 -0.3388
46135SOL    HW243536  10.327   8.182   8.024 -0.1401 -1.7256 -1.7260
46136SOL     OW43537   0.402  10.630   4.497  0.0487  0.1663  0.0846
46136SOL    HW143538   0.354  10.712   4.489 -0.0549  0.0624 -0.3588
46136SOL    HW243539   0.342  10.564   4.462  0.9738  0.1985 -1.6086
46137SOL     OW43540   8.881   1.414   2.947  0.8399  0.0773 -0.3380
46137SOL    HW143541   8.859   1.447   3.034  3.6019  0.3886  0.2724
46137SOL    HW243542   8.919   1.489   2.901  0.8902 -0.5102 -1.2731
46138SOL     OW43543   7.507  10.679   7.088  0.7817  0.2150  0.7062
46138SOL    HW143544   7.442  10.653   7.153  1.2275  0.2250  1.1636
46138SOL    HW243545   7.497  10.773   7.078  2.2363  0.5824  2.4652
46139SOL     OW43546   8.898   7.137   5.003 -0.0068  0.1229 -0.2265
46139SOL    HW143547   8.806   7.126   5.027  0.4925 -2.2202  0.7649
46139SOL    HW243548   8.934   7.195   5.070 -0.2709 -0.7390  0.6772
46140SOL     OW43549   1.002   5.192   1.974  0.0029  0.1996  0.8259
46140SOL    HW143550   1.025   5.149   1.892 -0.0950 -1.3298  1.5845
46140SOL    HW243551   1.058   5.270   1.977  0.9846 -0.4672 -0.0423
46141SOL     OW43552  10.149   6.041   7.804  0.0485  0.3247 -0.1097
46141SOL    HW143553  10.217   6.084   7.856 -0.0690  0.0381  0.2851
46141SOL    HW243554  10.090   6.003   7.869 -1.6493  2.3626 -0.4176
46142SOL     OW43555   2.401   5.833   3.223 -0.3430  0.5529  0.2913
46142SOL    HW143556   2.450   5.789   3.292  0.3545 -2.3142 -1.9562
46142SOL    HW243557   2.416   5.927   3.239  1.1780 -0.1063  2.9776
46143SOL     OW43558   7.222   5.513   3.265 -0.6241  0.1553  0.2028
46143SOL    HW143559   7.204   5.607   3.265  0.9220  0.4749 -1.0409
46143SOL    HW243560   7.244   5.493   3.356 -0.3298  1.1350  0.3486
46144SOL     OW43561   1.194   1.757   6.455 -0.4365 -0.1700  0.1143
46144SOL    HW143562   1.276   1.800   6.429 -0.6334 -0.3133 -0.7531
46144SOL    HW243563   1.137   1.830   6.480 -0.5240  0.0201 -0.6485
46145SOL     OW43564   7.714   7.926   1.715 -0.3818  0.8648  0.1591
46145SOL    HW143565   7.789   7.897   1.663  0.9098  1.8777  1.4231
46145SOL    HW243566   7.751   7.986   1.780 -2.2589  1.2243  0.9376
46146SOL     OW43567   8.462   6.823  10.596  0.5997  0.3176  0.0176
46146SOL    HW143568   8.405   6.895  10.624 -0.2991 -0.6462  0.7165
46146SOL    HW243569   8.516   6.861  10.526 -1.4764  1.0238 -1.2402
46147SOL     OW43570   9.544   5.711   9.159 -0.1237  0.1862  0.3093
46147SOL    HW143571   9.524   5.759   9.079 -1.0163  0.5924  0.7729
46147SOL    HW243572   9.501   5.626   9.147 -0.9191  0.5285  0.6798
46148SOL     OW43573   0.611   0.561   1.353  0.1527 -0.3331 -0.4198
46148SOL    HW143574   0.591   0.475   1.390 -1.8511  0.3269  0.0866
46148SOL    HW243575   0.553   0.569   1.277 -1.6909  1.6419  1.1016
46149SOL     OW43576   1.072  11.013   8.070 -0.1763  0.0451 -0.2656
46149SOL    HW143577   1.013  11.078   8.031 -0.0091 -0.3237 -1.1433
46149SOL    HW243578   1.043  10.929   8.035  0.8547 -0.1449 -0.6957
46150SOL     OW43579   2.974   5.536   8.412 -0.4555 -0.5150 -0.2460
46150SOL    HW143580   3.032   5.606   8.441  0.0054  0.1972 -2.7698
46150SOL    HW243581   2.896   5.544   8.467  0.8251  0.0392  1.5355
46151SOL     OW43582   3.646   6.176   2.767 -0.7791 -0.5299  0.7034
46151SOL    HW143583   3.611   6.224   2.692 -0.6069 -0.0328  0.9412
46151SOL    HW243584   3.626   6.231   2.843 -1.1699 -1.1503  1.0512
46152SOL     OW43585   0.927   9.456   0.274  0.2933 -0.1322  0.1182
46152SOL    HW143586   0.843   9.502   0.278  0.2215 -0.4218  2.2299
46152SOL    HW243587   0.944   9.447   0.180 -2.4726 -0.8886 -0.3644
46153SOL     OW43588   8.129   3.049   9.649 -0.5266  0.5951  0.0910
46153SOL    HW143589   8.138   3.079   9.739 -0.8525  1.8539 -0.2822
46153SOL    HW243590   8.211   3.076   9.607 -0.5844  0.4588 -0.1080
46154SOL     OW43591  10.497   6.894   1.605 -0.3819  0.3781 -0.1005
46154SOL    HW143592  10.446   6.814   1.594  0.8051 -0.4976  0.5957
46154SOL    HW243593  10.493   6.937   1.520  0.1867 -1.1672 -0.9296
46155SOL     OW43594   6.919   5.969   4.909  0.3533  0.4503  0.1770
46155SOL    HW143595   6.834   5.979   4.865  1.6761  2.0786 -2.1436
46155SOL    HW243596   6.944   6.058   4.932  1.3771 -0.0292  0.9384
46156SOL     OW43597   4.411   8.613   1.976  0.0179  0.0476  0.5372
46156SOL    HW143598   4.320   8.632   1.997  0.1678  0.5989  0.6938
46156SOL    HW243599   4.461   8.665   2.038  0.4675  1.6822 -1.1738
46157SOL     OW43600   2.320  10.343   2.158  0.7457  0.4711  0.1322
46157SOL    HW143601   2.333  10.274   2.224  0.7072  0.8876  0.5767
46157SOL    HW243602   2.265  10.408   2.202  0.7990  0.7952 -0.2818
46158SOL     OW43603   5.416   7.867   3.669 -0.3833 -0.1174 -0.0632
46158SOL    HW143604   5.371   7.928   3.728 -1.4383 -0.0753 -0.8947
46158SOL    HW243605   5.345   7.816   3.630  0.2140  0.5670 -2.0868
46159SOL     OW43606   8.169   1.143   8.374 -0.8590 -0.0215  0.4379
46159SOL    HW143607   8.110   1.092   8.318  0.1925 -0.6672 -0.0981
46159SOL    HW243608   8.175   1.228   8.330 -1.0721 -0.0852  0.2821
46160SOL     OW43609   7.745   2.864   8.941 -0.0322 -0.1357  0.2898
46160SOL    HW143610   7.811   2.907   8.995  0.3406 -0.0446 -0.2284
46160SOL    HW243611   7.667   2.862   8.995  0.1774  0.4638  0.6211
46161SOL     OW43612  10.742   6.905   6.776  0.1668 -0.0122  0.2534
46161SOL    HW143613  10.821   6.959   6.785  1.2868 -1.6828  0.6581
46161SOL    HW243614  10.767   6.836   6.714 -1.7659  0.8379 -1.5696
46162SOL     OW43615  11.332   2.326   6.781 -0.1752 -0.1116  0.3584
46162SOL    HW143616  11.317   2.271   6.704 -0.5907  1.0025 -0.3817
46162SOL    HW243617  11.250   2.374   6.793  0.1745  0.3511  0.9812
46163SOL     OW43618   8.451   3.662   9.734  0.7191  0.6978  0.2092
46163SOL    HW143619   8.388   3.717   9.688 -0.0205  0.3065  0.7518
46163SOL    HW243620   8.529   3.662   9.677  0.8022  2.4571  0.3104
46164SOL     OW43621   3.044   3.147   6.597  0.0616  0.1144 -0.3280
46164SOL    HW143622   3.047   3.228   6.648 -1.9069 -0.7902  1.2957
46164SOL    HW243623   2.960   3.151   6.552  0.0157 -0.9800 -0.3359
46165SOL     OW43624   8.544   0.382   9.418 -0.4239 -0.0648  0.2235
46165SOL    HW143625   8.616   0.445   9.423  0.3342 -0.8963 -0.1394
46165SOL    HW243626   8.466   0.437   9.408  0.3840  0.7919 -1.7831
46166SOL     OW43627   7.160   9.926   1.515 -0.2482  0.2874  0.7454
46166SOL    HW143628   7.213   9.849   1.496 -1.2002  0.3052 -2.0946
46166SOL    HW243629   7.214   9.977   1.576  1.8843 -0.9181 -0.0864
46167SOL     OW43630   6.843   9.276   9.440 -0.0616  0.2294  0.0501
46167SOL    HW143631   6.842   9.183   9.462 -0.4338  0.3316  0.4639
46167SOL    HW243632   6.784   9.283   9.364  0.2184  0.0777 -0.1822
46168SOL     OW43633   5.217   9.740   1.350 -0.0059 -0.3582 -0.4477
46168SOL    HW143634   5.245   9.662   1.302  4.0347  0.5648  0.1967
46168SOL    HW243635   5.198   9.805   1.281  0.9340 -0.5657 -0.9142
46169SOL     OW43636   9.786   5.387   9.917  0.0408  0.3497 -0.4343
46169SOL    HW143637   9.717   5.405   9.981 -0.1366 -0.9680 -0.2297
46169SOL    HW243638   9.806   5.472   9.877 -0.8986  0.9245  0.3120
46170SOL     OW43639   7.059  10.167   0.542  0.2204 -1.0439  0.3175
46170SOL    HW143640   6.995  10.129   0.602 -0.4148 -1.8178 -0.8562
46170SOL    HW243641   7.144  10.136   0.575 -0.0323 -0.5018  1.5108
46171SOL     OW43642   4.823   2.973   9.711 -0.1044 -0.7023  0.0875
46171SOL    HW143643   4.889   3.022   9.662  0.4971 -2.9449 -1.4586
46171SOL    HW243644   4.748   3.032   9.716  0.3256  0.1210 -2.3591
46172SOL     OW43645   6.872   1.053   9.864  0.4801 -0.0710  0.3302
46172SOL    HW143646   6.889   1.146   9.845  0.9911  0.0151  1.2156
46172SOL    HW243647   6.886   1.044   9.958 -0.4829 -0.8553  0.4083
46173SOL     OW43648  10.965   6.817   4.208  0.2299 -1.0235  0.4223
46173SOL    HW143649  10.914   6.748   4.165  1.8823 -2.1326  0.1887
46173SOL    HW243650  10.999   6.870   4.136 -0.8152 -0.1089  0.5906
46174SOL     OW43651   6.296   2.326   7.592 -0.2299  0.0310 -0.1703
46174SOL    HW143652   6.340   2.411   7.587  0.5150 -0.2612  1.2467
46174SOL    HW243653   6.225   2.339   7.655  1.1476 -0.9233  1.6228
46175SOL     OW43654   9.467   7.439   0.146 -0.7163  0.1728 -0.0014
46175SOL    HW143655   9.488   7.479   0.230  1.0602  1.0004 -0.7955
46175SOL    HW243656   9.553   7.415   0.110 -1.4243  0.3374 -1.8208
46176SOL     OW43657   1.600   2.478   4.207  0.2549 -0.0434 -0.0268
46176SOL    HW143658   1.627   2.569   4.192  0.0550  0.2517  1.3172
46176SOL    HW243659   1.634   2.457   4.294 -1.6800 -0.4632  0.6624
46177SOL     OW43660   7.554   3.756   1.030  0.3461  0.4151  0.1686
46177SOL    HW143661   7.623   3.741   1.095  0.6870 -1.8524 -0.6885
46177SOL    HW243662   7.542   3.851   1.030  1.6262  0.6054  2.2188
46178SOL     OW43663   8.746   9.695   4.048 -0.4408 -0.3350  0.0227
46178SOL    HW143664   8.788   9.616   4.082 -1.6757  0.0084  2.4975
46178SOL    HW243665   8.675   9.663   3.993  0.1648 -0.9504 -0.3983
46179SOL     OW43666   7.866   6.365   3.756  0.3530  0.5269  0.3308
46179SOL    HW143667   7.824   6.447   3.781 -0.2939 -0.1378  1.4470
46179SOL    HW243668   7.935   6.352   3.820  0.6352  0.3342 -0.0081
46180SOL     OW43669   3.005   7.330  11.188 -0.6042  0.5589  0.3753
46180SOL    HW143670   2.938   7.301  11.250  1.0433 -2.1051  1.0014
46180SOL    HW243671   3.001   7.265  11.117  1.2930  0.3517  0.4320
46181SOL     OW43672   7.011   3.404  10.097  0.1668  0.6756 -0.4547
46181SOL    HW143673   6.955   3.481  10.104  0.2544  0.7088 -0.1089
46181SOL    HW243674   6.982   3.360  10.017  0.3857  1.2857 -0.8651
46182SOL     OW43675   8.876   3.033   4.521  0.5599  0.2576  0.2479
46182SOL    HW143676   8.837   2.953   4.557  3.1313 -0.9440  0.4089
46182SOL    HW243677   8.903   3.083   4.598  0.0575  0.7315  0.1188
46183SOL     OW43678  11.219   8.616   8.534  0.0164 -0.6575 -0.0421
46183SOL    HW143679  11.215   8.532   8.489  1.0022 -0.1644 -1.0639
46183SOL    HW243680  11.145   8.666   8.499  1.1114 -0.0747 -1.5271
46184SOL     OW43681  10.051   3.980  10.894  0.0205 -0.8527 -0.5298
46184SOL    HW143682  10.139   4.010  10.869 -0.2017  1.4810  1.2404
46184SOL    HW243683   9.993   4.050  10.862 -0.8364 -0.7899  1.1078
46185SOL     OW43684   4.249   3.820   7.879  0.1803  0.1344 -0.5484
46185SOL    HW143685   4.312   3.788   7.814  1.2623  0.2694  0.4241
46185SOL    HW243686   4.296   3.888   7.927 -0.4500 -0.3016  0.7007
46186SOL     OW43687   9.774   0.323   3.795  0.3825  0.1495  0.1959
46186SOL    HW143688   9.846   0.270   3.831 -2.4319 -2.1360  2.7127
46186SOL    HW243689   9.726   0.354   3.871 -1.6073  1.2403 -1.4396
46187SOL     OW43690   2.661   0.771   1.913  0.0211  0.1333  0.0095
46187SOL    HW143691   2.608   0.700   1.877 -1.1392  0.8272  0.3246
46187SOL    HW243692   2.683   0.742   2.002 -2.2346  1.0752  0.9005
46188SOL     OW43693   6.481   5.144   4.179  0.0554  0.2536  0.0828
46188SOL    HW143694   6.495   5.118   4.270  1.7846 -0.9148 -0.5105
46188SOL    HW243695   6.521   5.231   4.172 -0.8106  0.7028  0.6365
46189SOL     OW43696   0.834   1.882   3.134 -0.5984  0.0769 -0.4820
46189SOL    HW143697   0.848   1.936   3.056 -0.0197  1.7783  0.7815
46189SOL    HW243698   0.773   1.932   3.187  1.3633  0.3946  1.5356
46190SOL     OW43699   6.134   7.665   2.872  0.0757 -0.2875 -0.2466
46190SOL    HW143700   6.107   7.638   2.784 -1.9566  0.1437  0.2255
46190SOL    HW243701   6.151   7.583   2.918 -1.3677 -0.6033 -0.2701
46191SOL     OW43702   0.798   0.578   4.266 -0.3454  0.8501 -0.3484
46191SOL    HW143703   0.855   0.655   4.262  1.3766 -0.4365 -0.6817
46191SOL    HW243704   0.814   0.541   4.353 -0.4075  0.2814 -0.5768
46192SOL     OW43705   2.507   1.987   0.017 -0.4590 -0.0511  0.4213
46192SOL    HW143706   2.560   1.965  -0.060  0.2192 -1.8132  1.3703
46192SOL    HW243707   2.541   2.071   0.047 -0.0725  0.1731 -0.6245
46193SOL     OW43708   7.840   9.405   4.405 -0.3213 -1.2401  0.0424
46193SOL    HW143709   7.753   9.392   4.445  0.5050 -1.7800  1.7353
46193SOL    HW243710   7.896   9.340   4.448  1.0854 -0.4159 -0.5065
46194SOL     OW43711   2.474   1.388   3.632  0.5213 -0.3417  0.0471
46194SOL    HW143712   2.421   1.318   3.594 -0.3519  0.5322 -0.3596
46194SOL    HW243713   2.438   1.401   3.720 -0.6567  0.9776 -0.6101
46195SOL     OW43714   4.122   3.879   4.695 -0.1870 -0.0282 -0.6684
46195SOL    HW143715   4.140   3.948   4.758 -0.4741 -1.0308  0.5393
46195SOL    HW243716   4.188   3.891   4.627  1.4210 -0.1472  0.8322
46196SOL     OW43717   7.656   0.654   5.035 -0.4661 -0.5590 -0.2807
46196SOL    HW143718   7.675   0.692   5.121 -0.1705  0.5067 -0.8077
46196SOL    HW243719   7.586   0.591   5.052  0.6603 -1.4954  0.9854
46197SOL     OW43720   3.183   5.094   4.994  0.2353 -0.3034  0.5040
46197SOL    HW143721   3.276   5.111   5.011 -0.4074  1.5659  2.3340
46197SOL    HW243722   3.169   5.122   4.903  1.1044  0.9347  0.7457
46198SOL     OW43723   7.556   0.249  10.017  0.1252  0.3394 -0.1276
46198SOL    HW143724   7.522   0.326  10.062 -3.6911 -1.9058  1.0632
46198SOL    HW243725   7.578   0.188  10.087  0.8959 -0.5615 -1.1352
46199SOL     OW43726   6.916   1.931  10.065  0.2605 -0.0323 -0.3877
46199SOL    HW143727   6.995   1.896  10.108  0.6401  3.1037  1.5546
46199SOL    HW243728   6.941   1.937   9.973  2.1580  0.5106  0.1397
46200SOL     OW43729   8.005  10.751   6.967  0.0198 -0.0911 -0.5558
46200SOL    HW143730   8.050  10.814   7.023 -0.1387 -0.0914 -0.4303
46200SOL    HW243731   7.997  10.672   7.021 -2.3131  0.6811  0.2782
46201SOL     OW43732  10.851   3.503   9.468  0.0098 -1.1411  0.0949
46201SOL    HW143733  10.893   3.590   9.464 -1.2928 -0.5512 -1.1553
46201SOL    HW243734  10.910   3.446   9.419  1.5899 -1.2908  2.1109
46202SOL     OW43735   3.120   6.498   6.738  0.3376  0.0112  0.1444
46202SOL    HW143736   3.140   6.414   6.696 -1.2168 -0.7373  0.8488
46202SOL    HW243737   3.163   6.493   6.824 -1.6513 -1.0515  1.1233
46203SOL     OW43738  10.978   7.228   5.601 -0.2111  0.4986  0.2959
46203SOL    HW143739  10.925   7.273   5.535 -0.0093 -0.0602 -0.2523
46203SOL    HW243740  10.950   7.267   5.684 -0.5348  1.1422 -0.1080
46204SOL     OW43741   8.002   5.237   8.351 -0.4812 -0.2180 -0.4868
46204SOL    HW143742   8.078   5.294   8.362 -1.5560  1.5832 -1.9577
46204SOL    HW243743   7.974   5.216   8.440  0.4917  0.7858  0.0679
46205SOL     OW43744   4.821   6.135   2.506  0.1955  0.3210 -0.1257
46205SOL    HW143745   4.789   6.177   2.586  1.4084  0.6159  0.2090
46205SOL    HW243746   4.773   6.052   2.502  0.7397 -0.0881  1.3675
46206SOL     OW43747   2.146  10.919   3.426 -0.5078 -0.3908 -0.3539
46206SOL    HW143748   2.152  10.845   3.365  1.3926  0.0651 -0.7711
46206SOL    HW243749   2.205  10.896   3.497 -0.8776  0.1645  0.1339
46207SOL     OW43750   7.939  10.693   2.120  0.5176 -0.2782  0.4132
46207SOL    HW143751   7.955  10.743   2.040 -1.6053 -1.0359 -0.5300
46207SOL    HW243752   8.020  10.644   2.134  1.5954  1.2824 -0.2094
46208SOL     OW43753   4.796  10.141  10.849  0.1029  0.7847 -0.4421
46208SOL    HW143754   4.792  10.047  10.864 -1.2840  0.7813 -0.8150
46208SOL    HW243755   4.765  10.179  10.931 -2.3908  0.8470 -1.3776
46209SOL     OW43756   2.390   4.673   4.632 -0.1118 -0.0521 -0.0027
46209SOL    HW143757   2.413   4.760   4.663 -0.5077  0.3095 -0.7000
46209SOL    HW243758   2.315   4.687   4.574 -1.6425 -1.1122  1.6473
46210SOL     OW43759   2.755   5.888  10.696  0.1316 -0.3994  0.2218
46210SOL    HW143760   2.824   5.945  10.730  0.2514 -0.1122 -0.5002
46210SOL    HW243761   2.768   5.888  10.601 -2.0809  1.2887 -0.1458
46211SOL     OW43762   9.261   2.755   3.608 -0.2619  0.0175 -0.3430
46211SOL    HW143763   9.346   2.761   3.565 -0.1086  1.3880  0.1264
46211SOL    HW243764   9.270   2.806   3.688 -0.7055 -2.1051  1.1056
46212SOL     OW43765   7.969  11.213   0.392  0.0794 -0.3218  0.8988
46212SOL    HW143766   8.043  11.222   0.452  0.2089 -0.7798  0.8088
46212SOL    HW243767   7.924  11.133   0.422  1.1217 -1.5342 -0.6725
46213SOL     OW43768   2.224   7.362   5.941  0.1489 -0.4444  0.0583
46213SOL    HW143769   2.318   7.375   5.935 -0.0683  0.3120 -1.9331
46213SOL    HW243770   2.190   7.446   5.972  0.2534 -1.1934  2.3030
46214SOL     OW43771   8.573   7.805   4.620 -0.0305 -0.5397 -0.2036
46214SOL    HW143772   8.588   7.884   4.568  0.7325 -1.3101 -1.1741
46214SOL    HW243773   8.657   7.759   4.618 -0.3270 -1.1307  0.7686
46215SOL     OW43774   5.601   9.013   1.899  0.2153 -0.0030 -0.0597
46215SOL    HW143775   5.544   8.968   1.961  0.4562  1.1886  1.0620
46215SOL    HW243776   5.624   8.947   1.834 -2.5947 -0.4641 -0.6527
46216SOL     OW43777   6.449   6.247   9.754 -0.0894  0.1677 -0.1127
46216SOL    HW143778   6.459   6.338   9.729  0.2436  0.8347  2.3511
46216SOL    HW243779   6.363   6.242   9.796 -0.4884 -0.8553 -0.9939
46217SOL     OW43780   7.652  10.516   8.084 -0.3191  0.5656 -0.0197
46217SOL    HW143781   7.688  10.465   8.156  3.0451  3.2444  0.3423
46217SOL    HW243782   7.710  10.498   8.010 -0.0854  2.4773 -0.3458
46218SOL     OW43783   9.063   1.567   9.071  0.5408 -0.3402  0.2391
46218SOL    HW143784   8.970   1.558   9.048 -0.1018 -0.0054  2.5827
46218SOL    HW243785   9.099   1.479   9.058 -0.3684 -0.7543  0.4423
46219SOL     OW43786   7.670   0.923   0.192 -0.5199 -0.4215  0.8067
46219SOL    HW143787   7.687   1.012   0.223  0.3081 -0.8582  1.6503
46219SOL    HW243788   7.577   0.908   0.210 -0.0707 -0.6570  3.1371
46220SOL     OW43789   9.793   8.294   4.405 -0.0235 -0.1532 -1.2616
46220SOL    HW143790   9.737   8.371   4.401  0.0454 -0.1446 -2.0640
46220SOL    HW243791   9.881   8.328   4.385  0.0738 -0.3708 -1.2051
46221SOL     OW43792   6.923  10.935   0.561 -0.1907 -0.1851 -0.2715
46221SOL    HW143793   6.850  10.878   0.541  0.0057 -1.3800  2.1775
46221SOL    HW243794   6.993  10.907   0.502 -1.2135 -0.0502 -1.5643
46222SOL     OW43795   2.120   0.354   5.962 -0.1400  0.5909  0.5713
46222SOL    HW143796   2.076   0.439   5.973 -0.0623  0.7878 -0.5374
46222SOL    HW243797   2.180   0.368   5.890 -0.7469 -0.6483 -0.1906
46223SOL     OW43798   4.910   8.471   3.162  0.5961 -0.4975  0.0567
46223SOL    HW143799   4.915   8.376   3.169 -0.1570 -0.5184  0.4661
46223SOL    HW243800   4.833   8.488   3.108  1.7250 -0.1420 -1.4748
46224SOL     OW43801   3.567   6.259   2.500 -0.0453  0.3627 -0.2469
46224SOL    HW143802   3.595   6.283   2.411 -2.3618  0.7681 -0.8963
46224SOL    HW243803   3.500   6.324   2.523 -0.3903 -0.5032  1.2922
46225SOL     OW43804   1.261   0.156  10.876  0.2690  0.0147  0.6652
46225SOL    HW143805   1.222   0.078  10.837  1.7228 -0.8514  0.9019
46225SOL    HW243806   1.216   0.229  10.833  1.2690 -0.9026 -2.1019
46226SOL     OW43807   4.788   4.662   3.115 -0.6423 -0.7159  0.3881
46226SOL    HW143808   4.850   4.616   3.173 -0.5712  1.2901  1.9656
46226SOL    HW243809   4.724   4.700   3.175 -1.7946 -0.3938 -1.0469
46227SOL     OW43810   8.317   2.741   2.706  0.1307 -0.7960  0.0363
46227SOL    HW143811   8.404   2.731   2.744  0.2396  1.7986  0.5173
46227SOL    HW243812   8.328   2.806   2.637 -1.4261 -0.3736  0.1696
46228SOL     OW43813   0.545   1.955   0.573 -0.4837 -0.1042  0.0752
46228SOL    HW143814   0.484   1.882   0.574 -0.4220 -0.1514  0.9103
46228SOL    HW243815   0.620   1.925   0.624  0.3646 -0.1488 -1.1876
46229SOL     OW43816   0.699   4.792   2.760 -0.0876 -0.2672 -0.7376
46229SOL    HW143817   0.786   4.832   2.764  0.5029 -1.5328 -0.4739
46229SOL    HW243818   0.682   4.762   2.849 -0.6632 -0.2803 -0.8515
46230SOL     OW43819   0.364   3.466   0.369 -0.0472  0.7834  0.3294
46230SOL    HW143820   0.284   3.515   0.348 -0.6308  0.3515  1.4777
46230SOL    HW243821   0.345   3.425   0.454  0.8234 -0.5691 -0.1178
46231SOL     OW43822   7.140   9.979   1.956  0.6407  0.5082 -0.1713
46231SOL    HW143823   7.055  10.010   1.925  0.3631 -1.5035 -1.4917
46231SOL    HW243824   7.203  10.016   1.894  0.4461 -0.3721 -0.9004
46232SOL     OW43825   1.089   1.825   4.612  0.0592  0.2534 -0.1542
46232SOL    HW143826   1.129   1.757   4.558  1.0790  0.6430  0.1055
46232SOL    HW243827   1.150   1.898   4.608 -0.5333  0.7860  0.3995
46233SOL     OW43828   2.573   4.110  10.372  0.0099  0.0516 -0.1685
46233SOL    HW143829   2.532   4.030  10.340  0.1720 -1.5684  3.4045
46233SOL    HW243830   2.663   4.085  10.392 -0.2516  0.7680  2.0943
46234SOL     OW43831   5.636   7.794   5.728 -0.3173 -0.3172  0.1539
46234SOL    HW143832   5.729   7.777   5.714 -0.4960 -1.9420  0.8579
46234SOL    HW243833   5.610   7.734   5.797 -1.6573  0.8924  0.7310
46235SOL     OW43834   0.780   7.741  10.344  0.0833  0.0960  0.3303
46235SOL    HW143835   0.761   7.651  10.316  0.3878  0.2541 -0.3909
46235SOL    HW243836   0.777   7.793  10.263 -0.8067  0.8545  0.8497
46236SOL     OW43837   3.068   2.104   1.880  0.4355  0.1711 -0.3050
46236SOL    HW143838   3.139   2.113   1.943 -0.3575 -1.5589  0.8759
46236SOL    HW243839   3.015   2.183   1.893  1.2089  0.6505 -0.0104
46237SOL     OW43840   8.312   0.424  10.263 -0.1044 -0.1864  0.7835
46237SOL    HW143841   8.288   0.339  10.300  1.0542 -0.2090  1.4980
46237SOL    HW243842   8.318   0.407  10.169  1.5721 -1.2635  1.0669
46238SOL     OW43843   9.470   1.652   3.912  0.2512  0.0553 -0.0177
46238SOL    HW143844   9.554   1.683   3.948  0.0280 -1.3831  1.7660
46238SOL    HW243845   9.452   1.713   3.840  0.9782  2.6711  1.9283
46239SOL     OW43846  11.063   9.410   5.031 -0.2532  0.2631  0.3763
46239SOL    HW143847  11.157   9.428   5.034 -0.1849 -0.2728  1.5004
46239SOL    HW243848  11.025   9.466   5.098 -0.4024 -1.4633  1.7694
46240SOL     OW43849   9.473   6.517   0.437 -0.4324 -0.0701 -0.5649
46240SOL    HW143850   9.553   6.532   0.387 -0.0480  0.9223  0.3318
46240SOL    HW243851   9.403   6.551   0.381 -0.2172 -0.7567 -1.2631
46241SOL     OW43852   2.900   9.237   0.016  0.0619 -0.3089 -0.1462
46241SOL    HW143853   2.857   9.321   0.001 -0.3338 -0.9828 -2.9940
46241SOL    HW243854   2.851   9.175  -0.037  0.8403 -2.2125  1.3173
46242SOL     OW43855  11.089   8.708  10.009  0.3238 -0.8151 -0.0912
46242SOL    HW143856  11.064   8.618  10.031 -1.1783 -0.9182 -2.0845
46242SOL    HW243857  11.124   8.703   9.920  1.9412  0.3050  0.4547
46243SOL     OW43858   9.473   3.071   6.976 -0.3858  0.0559 -0.0715
46243SOL    HW143859   9.523   3.096   6.898 -1.8084 -3.2101 -2.1258
46243SOL    HW243860   9.537   3.070   7.047  1.2203  1.7000 -1.4515
46244SOL     OW43861  10.486   0.395   9.545  0.2353  0.0406 -0.0821
46244SOL    HW143862  10.561   0.394   9.486  0.7300  1.8732  0.4822
46244SOL    HW243863  10.441   0.477   9.526 -0.8821 -0.4252  0.5050
46245SOL     OW43864   2.474   7.474   3.578  0.0945  0.0851 -0.0799
46245SOL    HW143865   2.412   7.501   3.647 -1.5732  0.1927 -1.5745
46245SOL    HW243866   2.451   7.383   3.559  0.6625 -0.0020 -0.3466
46246SOL     OW43867   3.354   2.383   9.809  0.1229  0.5485 -0.4096
46246SOL    HW143868   3.315   2.465   9.780 -0.5697  0.2190 -0.4468
46246SOL    HW243869   3.283   2.338   9.855  1.0856  0.8670  1.4296
46247SOL     OW43870   2.491   9.805   9.344 -0.5474 -0.3950  0.0700
46247SOL    HW143871   2.487   9.785   9.250 -1.2877 -0.0683  0.0251
46247SOL    HW243872   2.538   9.731   9.382 -0.7116 -0.7961 -0.4904
46248SOL     OW43873   4.061   4.878   1.114  0.0306 -0.6234  0.3872
46248SOL    HW143874   4.079   4.874   1.020  0.1651  0.0917  0.3818
46248SOL    HW243875   4.116   4.949   1.146  1.7551 -2.3939  1.4239
46249SOL     OW43876   9.513   3.843  10.432  0.5079  0.1999 -0.0754
46249SOL    HW143877   9.501   3.834  10.338  3.7733 -1.1101 -0.4114
46249SOL    HW243878   9.514   3.753  10.465  2.1428  0.5404  0.8345
46250SOL     OW43879   1.283   1.174   6.794 -0.7067 -0.0113 -0.6660
46250SOL    HW143880   1.239   1.240   6.741 -0.2013  0.6199 -0.2994
46250SOL    HW243881   1.282   1.095   6.739 -0.6707  0.4886 -1.3932
46251SOL     OW43882   7.979   1.590   6.283  0.1069  0.4250  0.5833
46251SOL    HW143883   8.019   1.515   6.327 -0.4393 -0.3970 -0.2907
46251SOL    HW243884   7.907   1.615   6.341  0.1298  0.1078  0.7536
46252SOL     OW43885   0.702   1.643   4.785 -0.1053 -0.7639 -0.1620
46252SOL    HW143886   0.796   1.643   4.769  0.0334  0.6332  0.5837
46252SOL    HW243887   0.669   1.567   4.736  1.6367 -2.3431  1.0763
46253SOL     OW43888   9.859   9.994  10.134 -0.3416  0.8180  0.2202
46253SOL    HW143889   9.799  10.031  10.199 -1.3592 -1.1421  0.4295
46253SOL    HW243890   9.940   9.977  10.184 -0.6858  0.5120  0.6769
46254SOL     OW43891   3.497   3.156   3.225  0.0680  0.4608 -0.0886
46254SOL    HW143892   3.532   3.150   3.136  0.7274  1.2470  0.1165
46254SOL    HW243893   3.518   3.071   3.264  0.2120  0.2925 -0.5253
46255SOL     OW43894  10.669   4.899   0.883  0.3929  0.0996 -0.2116
46255SOL    HW143895  10.648   4.805   0.883 -0.3311  0.2609  0.0544
46255SOL    HW243896  10.755   4.904   0.925 -0.3698 -0.2706  1.4481
46256SOL     OW43897  10.840   7.443   4.344  0.0388 -0.2398 -0.1786
46256SOL    HW143898  10.821   7.533   4.369 -2.0086  0.0106 -2.4004
46256SOL    HW243899  10.934   7.442   4.327  0.0131  1.5834 -0.5153
46257SOL     OW43900   7.971   8.905   5.377 -0.0885 -0.0947 -0.3365
46257SOL    HW143901   7.915   8.886   5.452  0.0223  1.9803  0.3022
46257SOL    HW243902   8.055   8.929   5.415  0.4515 -0.5576 -1.2029
46258SOL     OW43903  11.273   4.839  10.328 -0.4130 -0.0019  0.1398
46258SOL    HW143904  11.314   4.753  10.336 -0.7360 -0.2312 -0.6078
46258SOL    HW243905  11.218   4.847  10.406 -0.9881 -0.8041 -0.1744
46259SOL     OW43906   3.891   4.648   7.659  0.2009  0.0481 -0.1860
46259SOL    HW143907   3.887   4.727   7.604 -2.0019 -1.2090 -1.9014
46259SOL    HW243908   3.831   4.666   7.731 -0.5711 -0.1920 -0.7651
46260SOL     OW43909   9.813   4.610   9.570  0.1075  0.0107 -0.1252
46260SOL    HW143910   9.813   4.662   9.650 -1.4737  0.6799 -0.5409
46260SOL    HW243911   9.729   4.630   9.528  0.8263 -0.4752 -1.8503
46261SOL     OW43912   1.113   6.954   7.746  0.1988 -0.9195 -0.0591
46261SOL    HW143913   1.125   6.938   7.652  1.2163 -0.4063 -0.0291
46261SOL    HW243914   1.128   6.868   7.786  1.7301 -0.7380 -0.2159
46262SOL     OW43915   6.254   9.298   0.306 -0.3793  0.1162 -1.0086
46262SOL    HW143916   6.202   9.218   0.311  1.2249 -0.9903 -1.5396
46262SOL    HW243917   6.205   9.361   0.358 -1.3786 -1.3812 -0.0677
46263SOL     OW43918   4.258   0.462   3.220 -0.7239 -0.4475 -0.4933
46263SOL    HW143919   4.276   0.409   3.142 -1.2024 -0.2215 -0.7624
46263SOL    HW243920   4.344   0.478   3.258 -0.3700  0.3403 -1.5805
46264SOL     OW43921   8.001   8.392   2.188  0.7223 -0.6378 -0.3247
46264SOL    HW143922   8.033   8.435   2.108 -0.1355  0.9774  0.1794
46264SOL    HW243923   7.988   8.463   2.250 -0.2127 -1.6994  0.7191
46265SOL     OW43924   7.456   1.086   8.671 -0.3711  0.2074  0.1795
46265SOL    HW143925   7.506   1.124   8.598  0.2573 -1.9325 -0.5316
46265SOL    HW243926   7.399   1.022   8.630 -0.6927 -0.3530  1.4845
46266SOL     OW43927   7.975   6.855   8.572  0.2953 -0.6849  0.5202
46266SOL    HW143928   7.936   6.795   8.635  0.0728 -0.7165  0.3515
46266SOL    HW243929   7.909   6.866   8.504  0.3931 -0.3700  0.4704
46267SOL     OW43930   1.001   3.248   5.498  0.3939  0.3229 -0.3354
46267SOL    HW143931   0.930   3.245   5.562  0.3009 -0.4914 -0.4705
46267SOL    HW243932   1.080   3.259   5.550  0.4112 -1.2361  0.0000
46268SOL     OW43933   6.816   3.593   3.247  0.2490 -0.3027  0.0895
46268SOL    HW143934   6.897   3.552   3.277 -2.1095 -3.7818  2.0260
46268SOL    HW243935   6.804   3.668   3.305  1.8071 -0.0470  0.0968
46269SOL     OW43936   6.522   3.794  10.918  0.3144 -0.2700 -0.1785
46269SOL    HW143937   6.544   3.701  10.911  1.3540 -0.0600  0.2432
46269SOL    HW243938   6.554   3.833  10.836  0.9456 -0.0746  0.1608
46270SOL     OW43939   9.511   6.901   1.268  0.0105 -0.5129  0.2355
46270SOL    HW143940   9.566   6.869   1.340  0.4859  0.5196  0.3341
46270SOL    HW243941   9.534   6.993   1.259 -0.1816 -0.5811 -1.1134
46271SOL     OW43942   1.880   0.368  10.658  0.0498  0.6935 -0.1324
46271SOL    HW143943   1.808   0.409  10.706  0.0173  2.9949 -2.0638
46271SOL    HW243944   1.953   0.367  10.720 -1.3750 -0.9370  1.5791
46272SOL     OW43945   1.215   9.144   6.774 -0.0363 -0.7941 -0.4954
46272SOL    HW143946   1.285   9.209   6.775 -1.1953  0.5413 -1.9735
46272SOL    HW243947   1.229   9.095   6.692 -0.0532 -1.3983 -0.1382
46273SOL     OW43948   2.965   0.208   4.350  0.1148 -0.3138  0.3680
46273SOL    HW143949   3.044   0.223   4.403  0.3359 -0.0808 -0.0303
46273SOL    HW243950   2.896   0.193   4.415  0.0617  1.5229  0.7713
46274SOL     OW43951   4.608   3.018  11.103  0.5004  0.1215 -0.3301
46274SOL    HW143952   4.689   3.015  11.155 -0.3583 -0.1190  1.0341
46274SOL    HW243953   4.558   3.090  11.141 -0.6579 -0.8233 -0.0386
46275SOL     OW43954   2.579   3.023   9.095 -0.2845 -0.2830  0.1876
46275SOL    HW143955   2.642   3.026   9.022  0.2168 -0.6295  0.6015
46275SOL    HW243956   2.619   3.077   9.163 -0.5625 -0.2875  0.3519
46276SOL     OW43957   1.310   2.786   8.650  0.5637 -0.4820 -0.0371
46276SOL    HW143958   1.226   2.755   8.685 -0.2134  0.4257 -1.0722
46276SOL    HW243959   1.364   2.707   8.644 -0.5514 -1.2369 -0.2974
46277SOL     OW43960   9.400   5.587   7.541  0.0086 -0.5285  0.0417
46277SOL    HW143961   9.374   5.656   7.601 -0.5145 -1.1004  0.4872
46277SOL    HW243962   9.330   5.522   7.548  0.8112 -1.3991  0.1273
46278SOL     OW43963   9.716   0.684   9.991  0.7067  0.7828 -0.1093
46278SOL    HW143964   9.655   0.756  10.004  1.8869  1.4608  1.8997
46278SOL    HW243965   9.761   0.675  10.075  2.3648 -0.6405 -1.1071
46279SOL     OW43966   0.194   2.837   6.545 -0.2889  0.2522 -0.3824
46279SOL    HW143967   0.099   2.821   6.552 -0.0871 -0.9429 -0.2071
46279SOL    HW243968   0.220   2.867   6.632 -0.5588  0.8793 -0.5167
46280SOL     OW43969   9.253   5.176   7.240 -0.3300 -0.0812  0.6503
46280SOL    HW143970   9.215   5.159   7.326  0.8110 -0.8255  1.0317
46280SOL    HW243971   9.180   5.207   7.186 -1.0705  0.2986  1.8578
46281SOL     OW43972  10.757   8.624   0.925 -0.9975 -0.1496  0.3862
46281SOL    HW143973  10.813   8.701   0.925  1.1280 -1.6401 -0.6180
46281SOL    HW243974  10.720   8.622   0.836 -2.1953  0.4935  0.8595
46282SOL     OW43975   0.734   4.580  10.725 -0.3716 -0.1235  0.5952
46282SOL    HW143976   0.691   4.624  10.798  0.1280  0.6814  0.4133
46282SOL    HW243977   0.742   4.647  10.657  1.9088 -0.0035  0.9467
46283SOL     OW43978   0.345   3.526   8.420 -0.0012  0.1775 -0.0759
46283SOL    HW143979   0.407   3.596   8.399  0.2779 -0.2946 -0.8557
46283SOL    HW243980   0.269   3.543   8.365 -0.8655  1.1537  1.3886
46284SOL     OW43981   9.760   0.002   0.289  0.5672  0.1508  0.2396
46284SOL    HW143982   9.691   0.057   0.254  0.6952 -0.1780 -0.5278
46284SOL    HW243983   9.831   0.063   0.311 -0.0615  0.5238  1.3039
46285SOL     OW43984   2.382  11.103   8.311  0.2944  0.5167  0.0477
46285SOL    HW143985   2.296  11.061   8.323  0.1275  1.4538  2.3771
46285SOL    HW243986   2.362  11.197   8.308  1.1488  0.6824 -0.4578
46286SOL     OW43987   1.023   9.202   9.176  0.0072  0.1096 -0.7336
46286SOL    HW143988   1.074   9.139   9.126  1.8925  0.4709  0.6850
46286SOL    HW243989   0.990   9.152   9.251  1.0391  0.6679  0.0996
46287SOL     OW43990  11.004   6.894   2.791  0.3610  0.5708  0.1260
46287SOL    HW143991  10.929   6.851   2.750  1.0648 -0.1160 -0.4535
46287SOL    HW243992  10.967   6.971   2.835 -0.7805 -0.1654  0.4611
46288SOL     OW43993   7.666   0.428   8.830 -0.4070  0.2026 -0.2747
46288SOL    HW143994   7.602   0.379   8.881 -1.7808  1.5439 -0.6585
46288SOL    HW243995   7.625   0.440   8.744 -0.3579  2.4326 -0.0268
46289SOL     OW43996   8.771   7.528   2.437 -0.5918 -0.1109 -0.1016
46289SOL    HW143997   8.699   7.514   2.499 -0.7285 -1.2528 -0.5015
46289SOL    HW243998   8.850   7.506   2.486 -0.7685 -1.8721 -0.5762
46290SOL     OW43999  11.182   1.080   0.019  0.0964  0.2446 -0.0800
46290SOL    HW144000  11.115   1.113   0.079 -0.2251  1.4624 -1.1002
46290SOL    HW244001  11.265   1.107   0.058 -0.0741  0.2802  0.2633
46291SOL     OW44002   2.551   3.080  10.610 -0.0228  0.1365 -0.2600
46291SOL    HW144003   2.459   3.105  10.601  0.1857  0.5673 -1.3977
46291SOL    HW244004   2.595   3.162  10.634  0.3586  0.4249 -1.8718
46292SOL     OW44005   6.208  10.780  10.389 -0.0027  0.1754  0.2857
46292SOL    HW144006   6.230  10.742  10.303  2.8632 -0.2015  1.1170
46292SOL    HW244007   6.199  10.873  10.371  1.3481  0.2120 -0.3379
46293SOL     OW44008   6.952   0.414  10.599 -0.5140  0.1263 -0.5403
46293SOL    HW144009   6.943   0.508  10.584 -0.1570  0.3260  0.4789
46293SOL    HW244010   6.937   0.375  10.513 -0.2405  1.1397 -1.0573
46294SOL     OW44011   8.594   2.300   1.036 -0.1487  0.0587  0.2676
46294SOL    HW144012   8.642   2.237   0.983 -0.6261 -0.5319  0.5427
46294SOL    HW244013   8.513   2.256   1.060  0.4623 -0.0366  2.2684
46295SOL     OW44014   7.479   1.699   4.258  0.1484  0.3912  0.2132
46295SOL    HW144015   7.448   1.718   4.169  1.4330 -0.0589 -0.3441
46295SOL    HW244016   7.542   1.628   4.246  0.4726  0.4684  1.4687
46296SOL     OW44017   1.091  10.914   4.348  0.1662 -0.3698 -0.0383
46296SOL    HW144018   1.173  10.931   4.393 -0.5091 -1.0650  1.4673
46296SOL    HW244019   1.100  10.826   4.311  0.0471 -0.5062  0.2570
46297SOL     OW44020  10.159   4.543   8.141 -0.1988 -0.4687 -0.4488
46297SOL    HW144021  10.142   4.462   8.093 -0.3842 -0.0304 -1.1286
46297SOL    HW244022  10.148   4.612   8.075 -0.0611  0.1043  0.1327
46298SOL     OW44023   0.517  10.132   7.443 -0.0975 -0.4918  0.0948
46298SOL    HW144024   0.519  10.123   7.348 -1.4216  1.9884 -0.2078
46298SOL    HW244025   0.425  10.122   7.466  0.0450  0.1812  0.9753
46299SOL     OW44026   1.704  10.118   3.430 -0.6477 -0.2912  0.7851
46299SOL    HW144027   1.654  10.040   3.408 -1.0981  0.1539  0.2004
46299SOL    HW244028   1.638  10.187   3.440 -0.3407 -0.1891  2.2552
46300SOL     OW44029   4.547   9.775   8.732  0.1042  0.1057 -0.1706
46300SOL    HW144030   4.511   9.707   8.790  0.0023 -0.4200 -0.8483
46300SOL    HW244031   4.540   9.738   8.644  0.7575  0.6882 -0.4721
46301SOL     OW44032   5.477  11.185   6.902 -0.2927 -0.0513  0.0539
46301SOL    HW144033   5.534  11.132   6.846 -0.6135  0.4378 -0.7360
46301SOL    HW244034   5.390  11.147   6.891 -0.3010 -0.1533  0.4647
46302SOL     OW44035   3.107   3.037   4.483  0.3731 -0.1335 -0.0736
46302SOL    HW144036   3.065   3.070   4.404  0.3870  0.7614  0.2753
46302SOL    HW244037   3.165   2.968   4.453  0.7761  0.5614 -0.9270
46303SOL     OW44038   1.657   5.727   8.291  0.4704 -0.9470 -0.3491
46303SOL    HW144039   1.671   5.666   8.364 -0.2090 -1.4542 -0.6415
46303SOL    HW244040   1.571   5.766   8.308  0.6739 -0.4494 -0.4408
46304SOL     OW44041   7.882   5.427   0.375 -0.2785 -0.2324  0.2994
46304SOL    HW144042   7.851   5.467   0.456  0.5043 -1.2146  1.0927
46304SOL    HW244043   7.865   5.493   0.308  0.1229  1.0497  1.4356
46305SOL     OW44044   9.646   4.579   4.046 -0.2334 -0.7579  0.2011
46305SOL    HW144045   9.732   4.539   4.060  0.8522  1.0765 -1.0944
46305SOL    HW244046   9.630   4.568   3.952 -1.7419 -1.6964  0.5459
46306SOL     OW44047   4.554   0.415  10.369 -0.4870 -0.3638  0.3793
46306SOL    HW144048   4.564   0.380  10.457  0.6675 -1.5884 -0.2202
46306SOL    HW244049   4.470   0.382  10.339 -1.2395  0.6696  1.2687
46307SOL     OW44050   9.086   5.905  11.243 -0.0751  0.3141  0.5096
46307SOL    HW144051   9.085   5.957  11.163 -0.6326  1.3209  1.1582
46307SOL    HW244052   9.014   5.939  11.295 -0.9068 -1.6075  0.6552
46308SOL     OW44053   5.394   6.172   5.015  0.0620 -0.2559  0.3220
46308SOL    HW144054   5.452   6.162   4.939 -1.1283 -0.7539 -0.5329
46308SOL    HW244055   5.391   6.267   5.029  0.8655 -0.2043  0.2083
46309SOL     OW44056   9.737   1.047   5.424 -0.4859 -0.0653 -0.1484
46309SOL    HW144057   9.751   0.975   5.486 -0.8576 -0.4798 -0.5366
46309SOL    HW244058   9.810   1.041   5.363  0.0696  0.5622  0.4548
46310SOL     OW44059   3.740   7.487   0.147 -0.5624  0.4156 -0.5352
46310SOL    HW144060   3.835   7.498   0.154 -0.4661  0.9778 -2.5832
46310SOL    HW244061   3.704   7.566   0.188 -0.1391  0.3657 -0.0625
46311SOL     OW44062   1.315   1.643   9.649 -0.9449 -0.2195  0.2524
46311SOL    HW144063   1.240   1.603   9.604 -1.2159 -0.5886  1.0281
46311SOL    HW244064   1.301   1.737   9.640 -1.8357 -0.2787  0.9413
46312SOL     OW44065   8.959   8.673   9.005 -0.2543 -0.0335  0.2520
46312SOL    HW144066   8.994   8.623   8.932  0.5492  1.4674 -0.4171
46312SOL    HW244067   8.948   8.762   8.970  0.5151  0.7955  2.0624
46313SOL     OW44068   1.362   6.926   2.020 -0.2382  0.5090 -0.4140
46313SOL    HW144069   1.377   6.993   2.087 -1.1376  0.4439 -0.1484
46313SOL    HW244070   1.418   6.853   2.047 -1.5149  0.0188  0.9434
46314SOL     OW44071   5.343   4.672   0.368 -1.0466  0.2970  0.0023
46314SOL    HW144072   5.275   4.626   0.418  0.5644 -1.7001  0.4158
46314SOL    HW244073   5.413   4.687   0.431 -0.3657  0.7499 -0.8568
46315SOL     OW44074   9.691   8.585  10.452 -0.0829 -0.7164 -1.0819
46315SOL    HW144075   9.759   8.640  10.414  1.0195 -0.1988  1.5622
46315SOL    HW244076   9.609   8.630  10.432  0.6230  0.5442 -1.1766
46316SOL     OW44077   9.693   9.717   0.761  0.3075 -0.1501  0.1934
46316SOL    HW144078   9.739   9.797   0.786  0.9683 -0.6174  0.4877
46316SOL    HW244079   9.653   9.686   0.842 -0.3916  0.1692 -0.0302
46317SOL     OW44080   3.229   0.559   2.162 -0.3044 -0.3103  0.2279
46317SOL    HW144081   3.263   0.523   2.244 -0.2318  0.5924  0.5969
46317SOL    HW244082   3.219   0.483   2.105  0.8634 -0.7783  0.6393
46318SOL     OW44083   4.807   0.809   9.537  0.3943  0.3373 -0.2179
46318SOL    HW144084   4.715   0.821   9.515  0.3425 -1.9704 -1.4044
46318SOL    HW244085   4.853   0.877   9.487 -0.2491 -1.3693 -3.2056
46319SOL     OW44086   3.495   3.315   0.249 -0.5434  0.1039  0.8522
46319SOL    HW144087   3.471   3.284   0.336 -1.6309  1.2226  0.9596
46319SOL    HW244088   3.590   3.303   0.245 -0.2472  1.5724  2.8300
46320SOL     OW44089   6.768   0.317   0.668  0.0546 -0.2008 -0.0335
46320SOL    HW144090   6.771   0.222   0.680 -1.2175 -0.1146  1.2031
46320SOL    HW244091   6.769   0.352   0.757  1.8625  1.0082 -0.5090
46321SOL     OW44092   7.595   2.173   6.618  0.3624  0.8957  0.0926
46321SOL    HW144093   7.561   2.097   6.665  1.6575 -0.3090 -0.8687
46321SOL    HW244094   7.546   2.175   6.536  2.0969 -0.4713 -1.0196
46322SOL     OW44095   6.959   3.772   5.107  0.2379 -0.2660  0.0233
46322SOL    HW144096   6.937   3.679   5.119  0.0949 -0.3342 -0.7567
46322SOL    HW244097   6.916   3.816   5.180 -1.7265 -0.5076 -0.9714
46323SOL     OW44098   6.044   5.761   3.685  0.2782  0.5023 -0.2711
46323SOL    HW144099   6.048   5.820   3.760 -1.9550 -1.0661  1.1479
46323SOL    HW244100   5.965   5.787   3.637  0.6513  0.2693 -1.0304
46324SOL     OW44101   1.979  10.276   2.170  0.0348 -0.0193  0.3473
46324SOL    HW144102   1.886  10.255   2.163 -0.0980  0.0375  1.7082
46324SOL    HW244103   1.980  10.355   2.226  0.8891  0.0156  0.2766
46325SOL     OW44104   6.813   3.484   9.826  0.0879 -0.2367 -0.0119
46325SOL    HW144105   6.741   3.479   9.763 -2.1180 -0.0579  2.3971
46325SOL    HW244106   6.877   3.542   9.785 -1.1342 -0.3848 -2.2023
46326SOL     OW44107   1.947   2.686  10.956  0.4676 -0.0166  0.1133
46326SOL    HW144108   1.957   2.747  10.883 -1.8163  0.3336  0.0539
46326SOL    HW244109   1.860   2.648  10.944 -0.3771  0.8118  3.2018
46327SOL     OW44110   0.784   3.892   4.301  0.6485  0.2160 -0.0266
46327SOL    HW144111   0.750   3.860   4.385 -0.3128  0.3705 -0.3513
46327SOL    HW244112   0.711   3.881   4.240  1.4372 -0.1817 -0.9175
46328SOL     OW44113  10.415  10.019   9.674  0.1724 -0.2401  0.1925
46328SOL    HW144114  10.506  10.004   9.699 -0.2233 -2.2505  0.4782
46328SOL    HW244115  10.419  10.093   9.613  2.2997 -1.8949 -1.7782
46329SOL     OW44116   6.824   9.238   3.666  0.2458 -0.1071  0.0910
46329SOL    HW144117   6.837   9.262   3.574  0.8257 -0.2896  0.1226
46329SOL    HW244118   6.792   9.318   3.707  0.6719  0.1818 -0.1286
46330SOL     OW44119   6.565   5.062   9.771  0.2911  0.3814  0.2330
46330SOL    HW144120   6.571   5.040   9.863  0.3733 -1.2120 -0.1517
46330SOL    HW244121   6.473   5.048   9.748 -0.1029  2.3720  0.4493
46331SOL     OW44122   3.479   4.787   1.146 -0.3958  0.1038  0.2994
46331SOL    HW144123   3.535   4.743   1.210  1.8143  2.2548 -0.1074
46331SOL    HW244124   3.471   4.877   1.179  2.6730  1.9215 -3.5162
46332SOL     OW44125   6.136   0.058   2.834  0.0231 -0.1464  0.5846
46332SOL    HW144126   6.136   0.137   2.780  0.6919  0.1205  0.9638
46332SOL    HW244127   6.043   0.037   2.846 -0.2028  1.2181  1.3882
46333SOL     OW44128   6.467   2.912   4.785  0.0559 -0.2223  0.0416
46333SOL    HW144129   6.430   2.845   4.843  0.6676  0.9035  1.7851
46333SOL    HW244130   6.545   2.871   4.748  0.6235 -0.3842  1.3744
46334SOL     OW44131   5.700  10.222   3.079 -0.0337 -0.0018 -0.4042
46334SOL    HW144132   5.741  10.307   3.064 -0.8408  0.3492 -0.6770
46334SOL    HW244133   5.770  10.158   3.068  0.5444  0.6222 -0.3459
46335SOL     OW44134   3.257   8.706   0.450  0.0483  0.0049  0.1455
46335SOL    HW144135   3.294   8.694   0.538  1.4455  1.0269 -0.2960
46335SOL    HW244136   3.181   8.763   0.464 -0.3676 -0.6842  0.8074
46336SOL     OW44137   0.704   1.217   8.536  0.0022 -0.2662 -0.0405
46336SOL    HW144138   0.737   1.249   8.620 -0.5904  2.2105 -0.7115
46336SOL    HW244139   0.646   1.145   8.559 -0.2517  0.4689  1.6946
46337SOL     OW44140   6.430  10.919   3.682  0.0751  0.1406  0.0030
46337SOL    HW144141   6.349  10.871   3.666  0.3553 -0.8805  1.5756
46337SOL    HW244142   6.494  10.878   3.624  0.0168 -0.5647  0.4347
46338SOL     OW44143   7.383   4.575   3.322  0.2150  0.2553 -0.0392
46338SOL    HW144144   7.320   4.504   3.313 -0.5642  1.0680 -1.0711
46338SOL    HW244145   7.442   4.566   3.247  0.6851  0.1452  0.3364
46339SOL     OW44146   0.527   1.409   8.375 -0.1166 -0.2453  0.0256
46339SOL    HW144147   0.572   1.325   8.373  0.9703  0.3435 -0.2351
46339SOL    HW244148   0.501   1.424   8.284  0.7685  0.2769 -0.1467
46340SOL     OW44149   9.328   3.192   4.914 -0.2731 -1.2474  0.7071
46340SOL    HW144150   9.277   3.236   4.982 -1.0018 -0.0017 -0.6231
46340SOL    HW244151   9.262   3.160   4.853  0.5009 -0.0104 -0.8028
46341SOL     OW44152   0.034   4.345  10.530  0.4593  0.3563 -0.1529
46341SOL    HW144153  -0.005   4.272  10.481  1.0850 -0.4651  0.5598
46341SOL    HW244154   0.127   4.338  10.512  0.7098 -0.0204  1.2340
46342SOL     OW44155   2.675  10.047   5.289 -0.1999 -0.1006  0.3108
46342SOL    HW144156   2.663  10.021   5.198 -1.8301 -1.0000  0.7619
46342SOL    HW244157   2.604  10.003   5.336  0.8237  0.0767  2.0690
46343SOL     OW44158   5.779   2.646   7.796  0.3497  0.2680  0.4096
46343SOL    HW144159   5.821   2.609   7.718  0.0315  0.5364  0.1120
46343SOL    HW244160   5.850   2.656   7.859  0.1598 -2.6151  1.1773
46344SOL     OW44161   0.637   0.157   7.662  0.6284  0.2007 -0.0634
46344SOL    HW144162   0.729   0.135   7.678  0.9382  2.4900  1.6472
46344SOL    HW244163   0.639   0.217   7.587  0.6564  1.0889  0.6382
46345SOL     OW44164   7.822  10.213  10.130  0.0407  0.5656  0.5735
46345SOL    HW144165   7.799  10.121  10.140  1.3036  0.3255  1.4071
46345SOL    HW244166   7.892  10.214  10.065  0.0359  0.9362  0.5723
46346SOL     OW44167   5.650   0.641   7.623 -0.0115  0.1145 -0.0642
46346SOL    HW144168   5.707   0.716   7.610 -0.9255  0.6189 -1.3988
46346SOL    HW244169   5.582   0.672   7.683  0.4586 -0.1168  0.5859
46347SOL     OW44170   5.861   1.437   1.620 -0.0986  0.2276  0.0014
46347SOL    HW144171   5.949   1.413   1.651 -0.0396 -0.7940 -0.9155
46347SOL    HW244172   5.866   1.426   1.525 -1.1620  0.3866 -0.0730
46348SOL     OW44173   5.872   3.020  10.815  0.2835 -0.8563 -0.1876
46348SOL    HW144174   5.843   3.099  10.860  0.7338  0.4888 -2.2209
46348SOL    HW244175   5.834   2.948  10.866 -0.4889  0.6619  1.4235
46349SOL     OW44176   7.295  10.612  10.417  0.0436 -0.0863  0.1643
46349SOL    HW144177   7.249  10.531  10.393  1.4183 -0.1288 -2.4909
46349SOL    HW244178   7.260  10.635  10.503 -1.9599 -2.3200 -0.0110
46350SOL     OW44179   5.048   1.426   5.745 -0.5392 -0.2541  0.0746
46350SOL    HW144180   5.143   1.426   5.753 -0.5285 -0.1628 -0.0521
46350SOL    HW244181   5.027   1.341   5.704 -0.4962 -0.1781 -0.1037
46351SOL     OW44182   0.290   8.834   5.432 -0.3934  0.1541 -0.8455
46351SOL    HW144183   0.225   8.904   5.441 -1.0230 -0.6549  1.1683
46351SOL    HW244184   0.359   8.857   5.494  0.2028 -0.1326 -1.4008
46352SOL     OW44185  10.186   0.091   8.685  0.3114  0.4446  1.2835
46352SOL    HW144186  10.176   0.088   8.780  1.1526 -0.4736  1.3425
46352SOL    HW244187  10.280   0.081   8.670 -0.0319 -1.4766  0.2647
46353SOL     OW44188   3.161   6.029   8.322 -0.1883  0.4900  0.4548
46353SOL    HW144189   3.167   6.122   8.344  0.6932  0.0112  2.3853
46353SOL    HW244190   3.251   5.997   8.329 -0.3281 -0.2929 -1.2404
46354SOL     OW44191   9.246   4.751   3.535 -0.2158 -0.4627 -0.1675
46354SOL    HW144192   9.163   4.753   3.487 -0.6908  0.0855  0.6534
46354SOL    HW244193   9.222   4.774   3.625  1.1529  2.2951 -0.4368
46355SOL     OW44194   9.499   8.713   1.789 -0.4842 -0.1108 -0.4631
46355SOL    HW144195   9.524   8.664   1.868 -1.1674 -2.2966 -1.5372
46355SOL    HW244196   9.559   8.787   1.785  0.3887 -0.7017  1.4069
46356SOL     OW44197  10.452   9.806   6.451  0.4855 -0.0883  0.2117
46356SOL    HW144198  10.492   9.875   6.399 -0.6434  1.5181  1.4572
46356SOL    HW244199  10.525   9.765   6.498  1.0140  1.0177  0.3552
46357SOL     OW44200   8.815   0.956   1.888 -0.1500  0.3935  0.2302
46357SOL    HW144201   8.879   0.890   1.863  1.1833  1.1411  1.6092
46357SOL    HW244202   8.809   0.950   1.983 -2.0824  0.3934  0.1390
46358SOL     OW44203   5.967   2.604  10.777 -0.4793  0.3208  0.7140
46358SOL    HW144204   5.904   2.541  10.812  0.1700  0.3864  2.0359
46358SOL    HW244205   5.916   2.659  10.717 -0.9734 -1.6974 -0.7534
46359SOL     OW44206   9.158   3.914   6.662 -0.0691 -0.3743  0.4474
46359SOL    HW144207   9.124   3.844   6.718 -0.0107 -0.3319  0.5359
46359SOL    HW244208   9.114   3.993   6.694  0.7051 -0.1908  1.0856
46360SOL     OW44209   8.954   5.306   5.959 -0.0567 -0.8737  0.1465
46360SOL    HW144210   8.961   5.216   5.927  0.5341 -1.2073  1.1762
46360SOL    HW244211   9.012   5.356   5.901 -0.8246 -1.0607 -0.7775
46361SOL     OW44212   8.260   1.860  11.309 -0.0905 -0.0253  0.3684
46361SOL    HW144213   8.201   1.935  11.318 -0.2091 -0.1573  0.6791
46361SOL    HW244214   8.207   1.784  11.334 -0.2425 -0.3197 -0.8175
46362SOL     OW44215   8.026  10.247   7.296  0.0597  0.1637  0.0284
46362SOL    HW144216   8.069  10.314   7.348 -0.8479 -0.3395  1.4359
46362SOL    HW244217   8.078  10.243   7.215  0.8777  1.6409  0.4632
46363SOL     OW44218   1.943   2.814   0.900  0.5617 -0.0132  0.4719
46363SOL    HW144219   1.874   2.780   0.843  0.8874  1.6756 -0.9612
46363SOL    HW244220   1.898   2.835   0.982  0.0009 -2.0129  0.7137
46364SOL     OW44221   3.311   7.775   0.478  0.5687  0.4781 -0.7742
46364SOL    HW144222   3.254   7.845   0.446 -0.6258  1.1613  2.6804
46364SOL    HW244223   3.392   7.819   0.505 -0.3593  0.6358  1.8387
46365SOL     OW44224   2.478   3.883   1.835  0.5345 -0.6687 -0.0133
46365SOL    HW144225   2.524   3.966   1.819  1.5821 -1.0173  1.1608
46365SOL    HW244226   2.403   3.887   1.776  1.6917  0.2152 -1.4878
46366SOL     OW44227   6.187   0.145   2.230  0.4462  0.1195  0.1985
46366SOL    HW144228   6.259   0.124   2.289  0.7768  0.3332 -0.1239
46366SOL    HW244229   6.121   0.078   2.247  0.3892  0.3984  1.0631
46367SOL     OW44230   5.968   2.676   2.945  0.0478 -0.0821  0.1720
46367SOL    HW144231   5.958   2.582   2.959 -1.6631  0.2315  1.2822
46367SOL    HW244232   5.894   2.715   2.992 -0.2705  1.7131 -1.7512
46368SOL     OW44233   4.861   1.760   7.146 -0.2977 -0.3298 -0.4767
46368SOL    HW144234   4.829   1.762   7.056  2.5391 -0.3506 -1.5348
46368SOL    HW244235   4.854   1.850   7.176  1.2671  0.1856 -1.6470
46369SOL     OW44236   6.050  10.577   3.491 -0.5782  0.0469  0.6625
46369SOL    HW144237   6.062  10.488   3.459  0.6787  1.2565 -2.4073
46369SOL    HW244238   5.960  10.599   3.466  0.0469  0.6023 -1.2136
46370SOL     OW44239   6.171   0.469   5.279 -0.1139  0.1365  0.5073
46370SOL    HW144240   6.152   0.413   5.354 -0.6448 -1.3185 -0.6956
46370SOL    HW244241   6.178   0.409   5.205 -0.0728  1.5983 -0.7034
46371SOL     OW44242   2.206   7.425   5.274  0.4917  0.2202  0.0174
46371SOL    HW144243   2.147   7.481   5.326  0.0877 -0.1726 -0.0117
46371SOL    HW244244   2.157   7.407   5.194  0.1455 -1.1304  0.5275
46372SOL     OW44245   3.743   7.891   3.791 -0.7119  0.1879 -0.1890
46372SOL    HW144246   3.750   7.863   3.700 -0.8205  0.2962 -0.2311
46372SOL    HW244247   3.767   7.814   3.842 -1.9150 -0.2765 -0.2886
46373SOL     OW44248  10.011   1.072   9.171  0.7427  0.4164  0.2464
46373SOL    HW144249  10.066   1.004   9.133 -0.5919 -0.1353 -0.7430
46373SOL    HW244250  10.073   1.138   9.203  1.9693  0.7129 -2.5353
46374SOL     OW44251   9.588   0.584   7.784 -0.0491  0.0384  0.3967
46374SOL    HW144252   9.675   0.601   7.747 -1.1996  0.9066 -2.0295
46374SOL    HW244253   9.571   0.492   7.764 -0.4557  0.3715 -0.8390
46375SOL     OW44254   6.148   5.271  10.454 -0.5244  0.1775 -0.6840
46375SOL    HW144255   6.214   5.293  10.519  0.0964 -1.5437 -0.7201
46375SOL    HW244256   6.193   5.212  10.393 -1.6591  0.2091 -1.5688
46376SOL     OW44257  10.761   9.442   8.515  0.4249  0.1015 -0.3799
46376SOL    HW144258  10.789   9.415   8.602 -0.0980 -4.2308 -1.4118
46376SOL    HW244259  10.669   9.467   8.525  0.0468 -1.4351  0.1995
46377SOL     OW44260   5.682   8.015   7.981 -0.4169  0.2792  0.6369
46377SOL    HW144261   5.652   7.951   8.046 -0.9483  0.8757  0.9817
46377SOL    HW244262   5.760   7.974   7.942 -2.0350 -1.5882 -0.7318
46378SOL     OW44263   5.459   0.548   5.030  0.7482 -1.0733  0.3983
46378SOL    HW144264   5.368   0.533   5.003  1.0079 -0.0267 -1.1376
46378SOL    HW244265   5.486   0.465   5.070 -0.9095 -1.3616  0.9594
46379SOL     OW44266   6.526  11.157   8.918 -0.1206  0.4317 -0.1301
46379SOL    HW144267   6.441  11.199   8.931 -0.6072 -0.6776  0.3160
46379SOL    HW244268   6.577  11.184   8.995 -1.1751 -1.5894  1.3268
46380SOL     OW44269   0.628   8.023   2.237  0.4882  0.2925  0.3693
46380SOL    HW144270   0.606   7.959   2.304 -0.6221 -0.9776 -1.1628
46380SOL    HW244271   0.563   8.092   2.247 -1.1212 -0.9984 -0.8452
46381SOL     OW44272   1.463  10.944   9.548  0.8847 -0.1243  0.1573
46381SOL    HW144273   1.515  11.020   9.522 -0.0773  0.2799 -0.6570
46381SOL    HW244274   1.527  10.875   9.563  1.5154 -0.7678 -4.5638
46382SOL     OW44275   8.396   8.617   4.548 -0.4995  0.2353  0.6525
46382SOL    HW144276   8.441   8.543   4.508  1.1170  1.2415  0.5405
46382SOL    HW244277   8.457   8.650   4.613 -1.7042  0.7328  1.5458
46383SOL     OW44278   1.190  10.106   7.871  0.9770  0.4910 -0.0460
46383SOL    HW144279   1.143  10.181   7.907 -1.5310 -1.3029  0.4926
46383SOL    HW244280   1.169  10.107   7.778 -0.5832 -0.5698  0.2670
46384SOL     OW44281   1.978   9.921   9.300 -0.2377 -0.0150  0.0989
46384SOL    HW144282   1.960   9.838   9.257 -0.0729 -0.5488  1.0488
46384SOL    HW244283   1.894   9.967   9.300 -0.7461 -0.9148  1.1216
46385SOL     OW44284   9.547   3.306  10.007  0.1256  0.4873 -0.7562
46385SOL    HW144285   9.638   3.291   9.983  0.7795  1.8805  0.7289
46385SOL    HW244286   9.502   3.322   9.924  1.0976 -0.8418 -1.5546
46386SOL     OW44287   7.443   0.132   8.039  0.0442  0.0350 -0.1204
46386SOL    HW144288   7.533   0.102   8.049 -0.1731 -0.4056  0.5397
46386SOL    HW244289   7.389   0.059   8.071 -0.5175  0.6463  0.3585
46387SOL     OW44290   5.842   5.025   2.116 -0.1650  0.2232  0.7071
46387SOL    HW144291   5.919   5.036   2.061 -0.6262  0.0078  0.0122
46387SOL    HW244292   5.839   4.932   2.137 -0.6934  0.0883  0.0526
46388SOL     OW44293   8.416  10.934   0.725  0.0541  0.1438 -0.6527
46388SOL    HW144294   8.450  10.911   0.638  0.0932  0.9367 -0.8497
46388SOL    HW244295   8.469  10.882   0.786  2.1894  1.9626 -0.9031
46389SOL     OW44296   6.152   3.819   8.733 -0.1529 -0.5180 -0.5378
46389SOL    HW144297   6.140   3.901   8.780  0.2523 -1.3168  1.0150
46389SOL    HW244298   6.244   3.819   8.708 -0.2796 -0.2547 -0.9893
46390SOL     OW44299   3.296   9.266  10.112 -0.1222 -0.1057 -0.0953
46390SOL    HW144300   3.234   9.203  10.076  0.9528 -1.2429  0.0093
46390SOL    HW244301   3.373   9.259  10.055  0.6544 -0.1333  0.9521
46391SOL     OW44302   1.911   7.443   4.356 -0.7474 -0.4294  0.8674
46391SOL    HW144303   1.947   7.532   4.348 -1.3789 -0.3293 -1.1931
46391SOL    HW244304   1.875   7.440   4.445  0.5621  0.8801  1.4786
46392SOL     OW44305   3.685   0.051   7.844  0.0389 -0.0645  0.5244
46392SOL    HW144306   3.605   0.021   7.800  0.0604 -0.8124  0.9960
46392SOL    HW244307   3.746  -0.022   7.836  0.3322  0.1193  1.0448
46393SOL     OW44308   5.267   7.926   1.720  0.4871 -0.2182 -0.1265
46393SOL    HW144309   5.177   7.896   1.709  0.6592 -0.4911 -0.8034
46393SOL    HW244310   5.259   8.011   1.763 -0.1122 -0.0394 -0.5842
46394SOL     OW44311   6.713   6.508   5.665  0.2148 -0.0970 -0.0432
46394SOL    HW144312   6.672   6.433   5.620  0.3698  0.4560 -1.1371
46394SOL    HW244313   6.641   6.570   5.679  0.2478 -0.0853  0.0752
46395SOL     OW44314   7.190  10.711   5.437 -0.0507  0.5665  0.2055
46395SOL    HW144315   7.232  10.731   5.521 -1.2337  2.9917  0.2636
46395SOL    HW244316   7.202  10.616   5.426  0.4306  0.2668  2.9372
46396SOL     OW44317   1.387  11.336   3.337 -0.1153  0.7897 -0.7436
46396SOL    HW144318   1.450  11.316   3.407  1.3969  2.0635 -1.7115
46396SOL    HW244319   1.302  11.334   3.380  0.5916 -0.6829  0.6597
46397SOL     OW44320   4.565   6.563  11.023 -0.3152  0.1169  0.1511
46397SOL    HW144321   4.528   6.581  10.937  0.6027 -2.2990 -0.8163
46397SOL    HW244322   4.489   6.553  11.080 -1.0278 -0.5866 -0.8948
46398SOL     OW44323   1.800   3.101   5.909  0.0357 -0.3338 -0.3684
46398SOL    HW144324   1.895   3.095   5.914  0.0643 -0.0746 -0.5936
46398SOL    HW244325   1.774   3.022   5.861  0.1968 -0.0544 -0.9273
46399SOL     OW44326   2.880   1.406   0.054 -0.3100 -0.0324 -0.3424
46399SOL    HW144327   2.840   1.327   0.090  0.2117 -0.4691 -0.7110
46399SOL    HW244328   2.828   1.478   0.089 -0.3266 -0.4983  0.5988
46400SOL     OW44329   0.356   5.856   6.514 -0.4607  0.2023  0.7720
46400SOL    HW144330   0.353   5.762   6.495  0.8333 -0.0404  1.7345
46400SOL    HW244331   0.447   5.881   6.494 -1.5888  1.9348 -2.6527
46401SOL     OW44332   2.715   5.142   4.360 -0.2221 -0.1405 -0.8108
46401SOL    HW144333   2.725   5.223   4.411 -0.3290  0.3960 -1.6376
46401SOL    HW244334   2.655   5.165   4.289 -3.6239 -2.0606  1.3075
46402SOL     OW44335   3.974   9.181   4.169  0.3788  0.0746 -0.3185
46402SOL    HW144336   3.931   9.262   4.197  3.0227  1.7380 -0.9056
46402SOL    HW244337   4.006   9.142   4.251 -3.0546 -1.7439  0.2513
46403SOL     OW44338   3.797   7.236   9.130  0.0461 -0.3417 -0.5338
46403SOL    HW144339   3.736   7.163   9.142 -0.0677 -0.1118  0.2626
46403SOL    HW244340   3.861   7.226   9.200 -0.5149  0.8819  0.1566
46404SOL     OW44341  11.180   3.165   6.220  0.4727  0.0884  0.1103
46404SOL    HW144342  11.182   3.150   6.315  1.9981  2.6075  0.5274
46404SOL    HW244343  11.223   3.088   6.183 -1.3936 -1.6048  1.3259
46405SOL     OW44344   5.982  10.843   3.643 -0.2925  0.0773 -0.3754
46405SOL    HW144345   6.077  10.832   3.654 -0.2018 -0.4436 -1.6386
46405SOL    HW244346   5.973  10.915   3.581 -0.7206  0.0869 -0.3036
46406SOL     OW44347   3.468   1.981   6.006  0.2871  0.0840  0.1712
46406SOL    HW144348   3.446   2.069   5.976 -0.9163  0.1385  1.1710
46406SOL    HW244349   3.561   1.971   5.985 -0.3541  0.3124 -3.0167
46407SOL     OW44350   7.903  10.944  10.565 -0.4310 -0.2779 -0.7866
46407SOL    HW144351   7.860  11.020  10.604 -1.1071 -2.0083  1.9240
46407SOL    HW244352   7.834  10.899  10.517 -0.8208 -1.0074  0.4386
46408SOL     OW44353   4.967   0.128   0.144 -0.0710 -0.2019  0.1036
46408SOL    HW144354   4.895   0.103   0.087 -0.9468  0.3476  0.9593
46408SOL    HW244355   4.943   0.096   0.231  0.3605  0.6170  0.5439
46409SOL     OW44356   4.921   1.034   3.843  0.1038 -0.0314 -0.8301
46409SOL    HW144357   4.865   0.959   3.863  0.7429 -0.2759  0.0490
46409SOL    HW244358   4.888   1.067   3.759 -0.3285 -1.1399 -1.0958
46410SOL     OW44359   6.367   1.608   7.709  0.4634 -0.4068  0.1796
46410SOL    HW144360   6.419   1.686   7.688  0.5968 -0.5564 -0.0409
46410SOL    HW244361   6.348   1.567   7.625  2.0473 -1.6724  0.4080
46411SOL     OW44362   7.372   7.423   0.715 -0.3422 -0.2834 -0.2507
46411SOL    HW144363   7.411   7.458   0.635  0.9620 -0.4079  0.3182
46411SOL    HW244364   7.418   7.340   0.730 -0.5701 -0.2579  0.6348
46412SOL     OW44365   6.555   4.851   4.161  0.1985  0.3460  0.4640
46412SOL    HW144366   6.488   4.879   4.099  1.0040  1.6156  0.1542
46412SOL    HW244367   6.510   4.847   4.245 -0.5341  0.0815  0.0661
46413SOL     OW44368   6.895   4.866   3.910 -0.0378  0.1239  0.2665
46413SOL    HW144369   6.965   4.802   3.926  2.0378  2.1674 -0.3085
46413SOL    HW244370   6.870   4.896   3.997  0.9641  0.5628  0.4131
46414SOL     OW44371   2.979   6.079   7.921  0.7904  0.6992 -0.0364
46414SOL    HW144372   2.959   5.986   7.921  0.3549  0.7882  0.5677
46414SOL    HW244373   3.071   6.084   7.893  0.9981  0.0457  0.5177
46415SOL     OW44374   1.076   3.501   5.703 -0.1249 -0.5161  0.6635
46415SOL    HW144375   1.108   3.515   5.614  0.6293 -0.7199  0.8960
46415SOL    HW244376   1.132   3.556   5.758 -0.1628 -0.8892  1.0781
46416SOL     OW44377   2.333   9.187  10.687 -0.2510 -0.0808  0.5145
46416SOL    HW144378   2.407   9.203  10.629  0.5640  0.9329  1.8040
46416SOL    HW244379   2.257   9.223  10.639  0.3566  0.4631 -0.0505
46417SOL     OW44380  10.221   1.826   7.734 -0.3242  0.0768  0.0802
46417SOL    HW144381  10.126   1.825   7.722 -0.2949  0.3557 -0.1818
46417SOL    HW244382  10.256   1.794   7.652 -0.1658  0.7477 -0.1183
46418SOL     OW44383   0.164   2.577   6.785  0.1670  0.2847 -0.4201
46418SOL    HW144384   0.132   2.502   6.837 -0.2622  0.3957 -0.5229
46418SOL    HW244385   0.188   2.539   6.701  0.5390  0.1589 -0.2562
46419SOL     OW44386   6.955  10.449   6.558 -0.2009 -0.7420  0.0288
46419SOL    HW144387   6.970  10.510   6.631  0.8741 -0.0026 -0.7969
46419SOL    HW244388   6.870  10.475   6.522 -0.9094 -1.3472  1.2414
46420SOL     OW44389   2.891   3.333   4.094  0.0033 -0.3641  0.1167
46420SOL    HW144390   2.974   3.295   4.124  0.4417  1.0586  0.7608
46420SOL    HW244391   2.824   3.272   4.124  0.5663  0.1960  2.6155
46421SOL     OW44392   1.950  10.064   4.812 -0.0532 -0.3034  0.1744
46421SOL    HW144393   1.885  10.131   4.833  0.0572 -0.0705 -0.2261
46421SOL    HW244394   1.974  10.081   4.721  0.8601 -0.1372  0.4420
46422SOL     OW44395   1.631   1.479   4.606 -0.5959  0.0883  0.3344
46422SOL    HW144396   1.608   1.462   4.514 -0.3577 -0.1998  0.3289
46422SOL    HW244397   1.679   1.401   4.634  1.2869  1.1271  0.0374
46423SOL     OW44398   7.955   4.111   6.518  0.5599 -0.1964 -0.2797
46423SOL    HW144399   8.001   4.188   6.486  0.7584 -0.6121 -0.9884
46423SOL    HW244400   7.937   4.131   6.610  2.1818 -0.0403  0.0121
46424SOL     OW44401   1.780   7.264   6.251  0.6201 -0.2156 -0.2473
46424SOL    HW144402   1.762   7.355   6.275 -2.2781 -0.7111 -0.4061
46424SOL    HW244403   1.742   7.255   6.164  0.5740 -1.6755 -0.0836
46425SOL     OW44404   8.757   0.260   6.991 -0.5549  0.6214  0.4038
46425SOL    HW144405   8.676   0.246   7.040 -0.4164  0.1710  0.5111
46425SOL    HW244406   8.735   0.327   6.926 -1.6855 -1.2034 -1.1502
46426SOL     OW44407   0.159   1.557   5.668  0.2512 -0.2484  0.0140
46426SOL    HW144408   0.081   1.513   5.635 -0.6008 -0.4856  2.2779
46426SOL    HW244409   0.224   1.545   5.599 -0.7953 -2.6630 -0.6180
46427SOL     OW44410   4.192   8.041   2.757 -0.2566 -0.0601 -0.9073
46427SOL    HW144411   4.227   8.004   2.676 -1.5008 -0.2274 -1.3781
46427SOL    HW244412   4.188   7.967   2.818 -1.6331 -0.4675 -1.4763
46428SOL     OW44413   9.624   6.741   3.601  0.0405  0.3639  0.1190
46428SOL    HW144414   9.699   6.786   3.638 -0.3153  1.4056 -0.3970
46428SOL    HW244415   9.652   6.713   3.514 -0.0439  0.4073  0.0777
46429SOL     OW44416  10.619   3.711   8.901 -0.4750 -0.2579 -0.2454
46429SOL    HW144417  10.657   3.630   8.868 -1.1332 -1.4353  1.7423
46429SOL    HW244418  10.529   3.688   8.924 -1.2780  1.5479 -1.4499
46430SOL     OW44419   5.405   3.535   4.202 -0.4762 -0.3344 -0.0998
46430SOL    HW144420   5.348   3.466   4.168  0.0398 -0.9031  0.1871
46430SOL    HW244421   5.351   3.615   4.197 -1.2677 -0.8497  0.1136
46431SOL     OW44422   8.881   7.433  10.493  1.1797  0.0700  0.1160
46431SOL    HW144423   8.900   7.430  10.400  0.2445  0.0332 -0.0821
46431SOL    HW244424   8.812   7.499  10.501  1.9283  0.7747  0.9029
46432SOL     OW44425   7.667   2.372   2.852 -0.0088  0.2368  1.2613
46432SOL    HW144426   7.718   2.433   2.799  1.7860 -2.7856 -0.6549
46432SOL    HW244427   7.681   2.399   2.942  3.2114  0.8478  0.6256
46433SOL     OW44428   4.646   7.480   0.246 -0.0360  0.0721 -0.5250
46433SOL    HW144429   4.656   7.386   0.233 -0.8696 -0.1395  0.2914
46433SOL    HW244430   4.665   7.493   0.339  1.6851  0.9476 -0.9799
46434SOL     OW44431   9.834   9.860   6.110  0.1679  0.7650  0.3333
46434SOL    HW144432   9.917   9.837   6.069 -0.4748 -0.7355 -0.1974
46434SOL    HW244433   9.818   9.789   6.173 -0.3398  1.4334  0.9689
46435SOL     OW44434   5.921  11.113   5.631  0.1117  0.4199 -0.4240
46435SOL    HW144435   5.850  11.072   5.581  1.4919 -0.6333 -1.5760
46435SOL    HW244436   5.980  11.148   5.564  0.2276  2.0830  0.5355
46436SOL     OW44437  10.590   2.505   5.104  0.5272 -0.4264  0.1951
46436SOL    HW144438  10.522   2.490   5.170  0.6679  1.8817  0.9135
46436SOL    HW244439  10.667   2.459   5.139  0.1361 -0.6241  0.8144
46437SOL     OW44440   8.872   0.464   0.905  0.1552  0.3262  0.1500
46437SOL    HW144441   8.877   0.501   0.816 -1.2788  0.5220  0.1357
46437SOL    HW244442   8.960   0.472   0.939  0.6432  0.5859 -1.1366
46438SOL     OW44443   6.668   7.181   4.231  0.2043  0.0220 -0.1598
46438SOL    HW144444   6.691   7.181   4.138 -0.4993  1.4950 -0.3503
46438SOL    HW244445   6.572   7.171   4.232  0.3317 -1.3176  0.4632
46439SOL     OW44446   9.190   7.596   6.964 -0.5334 -0.0757  0.4120
46439SOL    HW144447   9.234   7.580   7.047 -0.2087  0.5210  0.3603
46439SOL    HW244448   9.196   7.513   6.917  1.9290  0.4148 -0.2290
46440SOL     OW44449   5.685   8.410   5.488 -0.2663 -0.1190  0.1315
46440SOL    HW144450   5.681   8.317   5.468 -1.7698 -0.0624  0.0775
46440SOL    HW244451   5.777   8.433   5.480 -0.1954 -1.0759 -2.2532
46441SOL     OW44452  10.230   8.089   0.245 -0.0252  0.4902  0.4162
46441SOL    HW144453  10.287   8.164   0.227  0.1450  0.2380 -0.1007
46441SOL    HW244454  10.290   8.015   0.257 -0.1982  0.4150  0.8337
46442SOL     OW44455  11.225   7.980   1.764  0.0177  0.8785  0.0034
46442SOL    HW144456  11.180   7.991   1.680 -1.8512 -1.0639  0.6988
46442SOL    HW244457  11.207   8.060   1.813 -1.3126  0.8025 -0.3582
46443SOL     OW44458   6.192  11.147   6.867 -0.0670 -0.2833  0.2839
46443SOL    HW144459   6.123  11.146   6.934 -0.8586 -1.8356 -0.5208
46443SOL    HW244460   6.258  11.085   6.899 -0.7020 -1.4398 -0.6133
46444SOL     OW44461  11.279   9.870   3.985  0.2484  0.1762 -0.3347
46444SOL    HW144462  11.194   9.859   3.942 -0.1529  2.5693 -0.2334
46444SOL    HW244463  11.298   9.963   3.975  3.6869 -0.6118 -1.8891
46445SOL     OW44464   6.606   3.191   1.741 -0.0879  0.2347 -0.6392
46445SOL    HW144465   6.669   3.216   1.809 -1.1552 -0.9096  0.8028
46445SOL    HW244466   6.598   3.269   1.686  1.6490  0.8042 -0.1137
46446SOL     OW44467   9.683  10.407   6.086  0.5026  0.2312  0.3276
46446SOL    HW144468   9.677  10.500   6.063 -1.0335  0.2428  0.6755
46446SOL    HW244469   9.593  10.375   6.076  1.2021 -1.4372 -0.7109
46447SOL     OW44470  11.263   9.817   8.448  0.1896  0.0739  0.1650
46447SOL    HW144471  11.236   9.877   8.518 -2.1300 -1.7953  0.9584
46447SOL    HW244472  11.358   9.814   8.454  0.1566  1.5481  1.9057
46448SOL     OW44473   5.659   2.035   0.975 -0.0703 -0.8905 -0.3505
46448SOL    HW144474   5.724   1.981   0.930 -0.4306 -2.0867  0.5594
46448SOL    HW244475   5.584   1.977   0.989  0.4384 -0.8928  2.7586
46449SOL     OW44476   5.889   8.327   6.857  0.2043 -0.0270 -0.0757
46449SOL    HW144477   5.947   8.392   6.818  0.4596  0.1579  0.6046
46449SOL    HW244478   5.945   8.250   6.870  0.3423  0.2008  0.7156
46450SOL     OW44479   4.175   8.506  10.245 -0.2781 -0.2934 -0.0796
46450SOL    HW144480   4.143   8.460  10.168  0.5410 -0.5858 -0.2428
46450SOL    HW244481   4.130   8.463  10.318 -1.3984  0.2851 -0.4222
46451SOL     OW44482   2.435   5.164   0.807 -0.4019  0.2061  0.2727
46451SOL    HW144483   2.400   5.075   0.807 -0.6530  0.3060  0.5318
46451SOL    HW244484   2.482   5.172   0.889  0.1484  0.1054 -0.0317
46452SOL     OW44485  10.161   0.675   5.537  0.7028 -0.0894  0.8948
46452SOL    HW144486  10.224   0.677   5.609  1.4156 -3.2720  0.4656
46452SOL    HW244487  10.190   0.745   5.478  1.7937  0.6880  2.3149
46453SOL     OW44488   6.833   4.590   7.759 -0.1570  0.1244 -0.0795
46453SOL    HW144489   6.923   4.592   7.793  0.0535 -0.2046 -0.6044
46453SOL    HW244490   6.838   4.636   7.675 -1.0115  2.4212  1.0966
46454SOL     OW44491   6.837   5.214   5.101  0.9215 -0.3892 -0.4571
46454SOL    HW144492   6.772   5.225   5.031  0.0720 -2.3960 -0.0229
46454SOL    HW244493   6.841   5.300   5.143 -0.7212  0.0496 -1.1348
46455SOL     OW44494   6.342   2.671   2.404 -0.1870  0.6914  0.3981
46455SOL    HW144495   6.320   2.586   2.442 -0.2526  0.5172 -0.0204
46455SOL    HW244496   6.429   2.658   2.366  0.4022  1.2187  1.5540
46456SOL     OW44497   4.636   9.109   8.474  0.0849 -0.1051  0.0449
46456SOL    HW144498   4.696   9.135   8.544  1.7559  1.1111 -1.8053
46456SOL    HW244499   4.671   9.025   8.442  0.9086  0.6700 -1.1231
46457SOL     OW44500   3.994   5.376   5.139  0.2733  0.1119  0.3792
46457SOL    HW144501   3.973   5.406   5.050  1.8926 -0.8727 -0.3637
46457SOL    HW244502   3.941   5.431   5.196 -2.8658 -1.0215 -1.2943
46458SOL     OW44503   1.637   8.653   3.333 -0.1010 -0.5979 -0.0760
46458SOL    HW144504   1.620   8.654   3.239  4.1751 -0.5753 -0.9524
46458SOL    HW244505   1.644   8.746   3.357  3.4213 -0.6025 -0.7759
46459SOL     OW44506   4.605   4.637   1.829  0.5180 -0.6275 -0.2570
46459SOL    HW144507   4.631   4.639   1.921  0.0731  1.9478 -0.1469
46459SOL    HW244508   4.687   4.631   1.780  0.8007 -1.1313  0.2795
46460SOL     OW44509   5.204   3.746   5.385  0.1698 -0.1601  0.0921
46460SOL    HW144510   5.243   3.660   5.403  0.6575  0.1862  0.7142
46460SOL    HW244511   5.275   3.797   5.347 -0.1198 -0.0277 -0.2692
46461SOL     OW44512   4.857   1.870   7.744 -0.0541 -0.0843  0.7947
46461SOL    HW144513   4.927   1.813   7.713  0.8549  1.4203 -0.0038
46461SOL    HW244514   4.874   1.881   7.837  0.1018 -0.6728  0.8322
46462SOL     OW44515   5.594   2.679  10.828 -0.0344 -0.4540  0.2568
46462SOL    HW144516   5.575   2.627  10.750 -0.1910 -1.3954  0.9059
46462SOL    HW244517   5.512   2.724  10.848 -0.6950 -2.0498  1.2306
46463SOL     OW44518   4.306   4.731   1.861 -0.1881 -0.2415  0.0242
46463SOL    HW144519   4.355   4.649   1.865  0.8900  0.3809 -0.2346
46463SOL    HW244520   4.344   4.779   1.788 -2.1819 -0.3580 -1.1218
46464SOL     OW44521   3.876   6.360   4.003  0.8161  0.5155  0.0344
46464SOL    HW144522   3.900   6.452   4.003 -0.3996  0.8611 -1.2859
46464SOL    HW244523   3.957   6.314   3.977  0.7132  1.4613 -2.1181
46465SOL     OW44524   2.773   8.538   3.907  0.1860 -0.2920 -0.0954
46465SOL    HW144525   2.701   8.478   3.926  0.6632 -0.8165  0.0639
46465SOL    HW244526   2.842   8.513   3.967 -0.3134  1.7387  1.3660
46466SOL     OW44527   3.733   7.932  10.937  0.2349 -0.0336 -0.6412
46466SOL    HW144528   3.687   8.000  10.887  1.1951  2.0759  1.2186
46466SOL    HW244529   3.719   7.957  11.029  0.7981 -2.2603  0.0809
46467SOL     OW44530   5.211   7.782   1.365  0.2441 -0.3839 -0.3463
46467SOL    HW144531   5.188   7.707   1.419  0.9415 -0.3388  0.0277
46467SOL    HW244532   5.147   7.849   1.388  0.5881 -0.3387  0.4932
46468SOL     OW44533   0.814   1.535  10.206  0.6491 -0.7257  0.2392
46468SOL    HW144534   0.789   1.480  10.281 -0.8852  1.4219  1.3447
46468SOL    HW244535   0.749   1.515  10.139 -0.1341  0.0186  0.7756
46469SOL     OW44536   8.722   1.501   5.305  0.2218  0.1402  0.2384
46469SOL    HW144537   8.628   1.486   5.313  0.2409 -2.3480 -3.3046
46469SOL    HW244538   8.761   1.442   5.369 -0.5376  0.0965  0.6730
46470SOL     OW44539   5.434   3.592   5.854  0.2554 -0.0147  0.3756
46470SOL    HW144540   5.478   3.513   5.886 -0.1286  0.2695  1.6692
46470SOL    HW244541   5.410   3.639   5.934  0.7025  1.5361 -0.3930
46471SOL     OW44542   4.891  10.665   5.070 -0.2991 -0.3431  0.7703
46471SOL    HW144543   4.813  10.699   5.115 -1.0305  0.2898 -0.9333
46471SOL    HW244544   4.858  10.592   5.018 -0.2298  1.3931 -1.7872
46472SOL     OW44545   3.135   0.441   9.834  0.0174  0.2378  0.3280
46472SOL    HW144546   3.188   0.517   9.811 -2.0943  1.9304  0.9028
46472SOL    HW244547   3.160   0.420   9.924 -0.2320  0.9854  0.5744
46473SOL     OW44548   3.447   4.395   4.934 -0.1761 -0.4017 -0.0886
46473SOL    HW144549   3.376   4.342   4.970 -0.2418 -0.3622 -0.1600
46473SOL    HW244550   3.466   4.459   5.002  1.4221 -1.9126  0.9417
46474SOL     OW44551   1.571   7.164   7.044  0.4515  0.0773 -0.1453
46474SOL    HW144552   1.555   7.224   7.117 -0.3797 -0.2203 -0.0763
46474SOL    HW244553   1.634   7.101   7.078  0.1232 -0.0172  0.2933
46475SOL     OW44554   1.888   7.748  11.329 -0.2024  0.1315  0.6093
46475SOL    HW144555   1.967   7.726  11.279  0.9400  0.4124  2.2445
46475SOL    HW244556   1.817   7.708  11.280  1.1034 -1.3173 -0.1467
46476SOL     OW44557   3.917   0.047   4.168  0.2395  0.2191 -0.1458
46476SOL    HW144558   3.890  -0.039   4.135  0.3980  0.0956  0.0497
46476SOL    HW244559   4.012   0.041   4.173  0.6077  1.6198 -3.6213
46477SOL     OW44560   6.566   8.488   4.105  0.0670 -0.0000 -0.0449
46477SOL    HW144561   6.585   8.415   4.045 -1.0961  1.0330 -1.7065
46477SOL    HW244562   6.489   8.531   4.067  0.5983  1.9535  1.0341
46478SOL     OW44563   7.742   4.396   3.755  0.9935  0.5029 -0.0634
46478SOL    HW144564   7.714   4.381   3.665  0.7118 -1.0997  0.2753
46478SOL    HW244565   7.831   4.430   3.747  0.1084  2.6091 -1.0193
46479SOL     OW44566   2.888   2.432   2.686 -0.5167 -0.7427  0.0812
46479SOL    HW144567   2.796   2.449   2.707 -0.3581 -0.4138  0.5372
46479SOL    HW244568   2.918   2.513   2.644  0.0090 -0.2107  1.4596
46480SOL     OW44569  10.810   5.522   0.108 -0.4716 -0.3186 -0.3343
46480SOL    HW144570  10.742   5.531   0.175 -0.7927 -0.5108 -0.6370
46480SOL    HW244571  10.773   5.461   0.044  0.1238 -0.7045 -0.3133
46481SOL     OW44572   6.179   2.772   9.216  0.1649 -0.3991  0.2264
46481SOL    HW144573   6.244   2.703   9.229  0.8630  0.2579  0.2399
46481SOL    HW244574   6.222   2.836   9.159 -0.2579  0.3170  0.6916
46482SOL     OW44575   7.637   1.523   9.769 -0.3013  0.2409  0.0140
46482SOL    HW144576   7.689   1.495   9.694  1.2824  0.3457  1.0375
46482SOL    HW244577   7.598   1.443   9.803  0.2230 -0.0301 -0.0179
46483SOL     OW44578  11.319   8.249   0.781  0.2841 -0.2416  0.0848
46483SOL    HW144579  11.349   8.236   0.691 -0.0772  0.4958 -0.1445
46483SOL    HW244580  11.238   8.198   0.787 -1.6355  2.5215 -1.0920
46484SOL     OW44581   8.579   5.958   9.507  0.2456  0.4873  0.7167
46484SOL    HW144582   8.604   5.903   9.432  1.2360  1.4885  0.3059
46484SOL    HW244583   8.610   6.045   9.484 -1.8359  1.3662  1.0986
46485SOL     OW44584   4.925   7.634   2.658  0.1058  0.0607  0.7144
46485SOL    HW144585   4.840   7.591   2.666 -0.0012  0.1181 -0.0349
46485SOL    HW244586   4.974   7.604   2.734 -0.2914 -0.6535  0.6988
46486SOL     OW44587   8.503   8.407   5.588 -0.2950  0.5658 -0.6048
46486SOL    HW144588   8.579   8.405   5.646 -2.7983  0.3517  2.7805
46486SOL    HW244589   8.478   8.316   5.576 -1.0773  0.7286 -0.2509
46487SOL     OW44590   4.179   6.059   4.314 -0.0390 -0.0052 -0.2297
46487SOL    HW144591   4.167   6.015   4.398  2.4310 -1.2457 -0.4907
46487SOL    HW244592   4.162   6.151   4.333 -1.4370 -0.5239  1.1704
46488SOL     OW44593   8.774   3.090  10.059  0.3421 -0.1664  0.2519
46488SOL    HW144594   8.693   3.138  10.045  0.5250 -0.1910 -0.9786
46488SOL    HW244595   8.820   3.140  10.126 -0.9699 -0.5271  1.4488
46489SOL     OW44596   1.921   4.698   6.585  0.4794  0.4895 -0.3909
46489SOL    HW144597   1.899   4.719   6.676 -0.8048  0.8790 -0.7765
46489SOL    HW244598   1.950   4.607   6.588 -0.2221  0.2828  0.3012
46490SOL     OW44599   2.351   9.320   1.030  0.1182  0.1402 -0.0637
46490SOL    HW144600   2.266   9.295   0.992 -0.0825  1.4647 -0.5356
46490SOL    HW244601   2.340   9.307   1.124 -1.2309  1.9574  0.0674
46491SOL     OW44602   6.819   2.778   2.644  0.0500  0.0718  0.6025
46491SOL    HW144603   6.851   2.689   2.659 -0.3816 -0.4591 -1.5307
46491SOL    HW244604   6.725   2.774   2.665 -0.4716 -0.5755 -1.7748
46492SOL     OW44605  11.250   7.377   0.875  0.1023  0.5937  0.5256
46492SOL    HW144606  11.158   7.377   0.900  0.2556  0.1520  1.0965
46492SOL    HW244607  11.251   7.340   0.787 -0.4137  1.9412 -0.0765
46493SOL     OW44608   6.553   6.212   6.614 -0.6212  0.4574 -0.5130
46493SOL    HW144609   6.593   6.249   6.692 -0.8600 -0.8631  0.2424
46493SOL    HW244610   6.621   6.157   6.575 -0.2830  1.6121 -1.6098
46494SOL     OW44611   7.770   3.705   8.378  0.9161 -0.3156 -0.3436
46494SOL    HW144612   7.846   3.747   8.417  0.5539  0.3549 -0.3591
46494SOL    HW244613   7.805   3.654   8.305  1.2680  0.5072 -0.7533
46495SOL     OW44614   3.036   0.973   3.263 -0.2644 -0.0358  0.5745
46495SOL    HW144615   3.014   0.891   3.219 -0.5159  0.2169  0.2313
46495SOL    HW244616   3.008   0.959   3.354  0.7572 -0.7584  0.7893
46496SOL     OW44617  10.296   1.234   4.307 -0.4152 -0.6015 -0.5105
46496SOL    HW144618  10.326   1.324   4.299 -0.7425 -0.5161 -0.8250
46496SOL    HW244619  10.271   1.225   4.399 -1.2390 -0.0937 -0.6775
46497SOL     OW44620   2.853   8.987  10.776  0.1344 -0.5619  0.3530
46497SOL    HW144621   2.920   8.971  10.843  0.6918 -2.4109 -0.5932
46497SOL    HW244622   2.779   8.933  10.805 -0.4636  0.4168  0.6718
46498SOL     OW44623   4.199   1.500   4.715 -0.7932  0.5232  0.4876
46498SOL    HW144624   4.122   1.557   4.707 -0.7711  0.3754 -0.8446
46498SOL    HW244625   4.249   1.516   4.635 -0.1927 -0.4957  0.6564
46499SOL     OW44626   1.662   9.656   4.422 -0.1792  0.1614 -0.7734
46499SOL    HW144627   1.588   9.687   4.474 -0.3799 -0.6069 -0.5966
46499SOL    HW244628   1.637   9.675   4.331 -0.2182  0.6717 -0.6593
46500SOL     OW44629   8.880   8.226   9.377  0.4145  0.0575 -0.1050
46500SOL    HW144630   8.972   8.227   9.405  0.5680 -1.6043 -0.4818
46500SOL    HW244631   8.859   8.318   9.360  1.2319  0.7549  2.4397
46501SOL     OW44632   5.544   5.146   2.381 -0.6844 -0.5594  0.7902
46501SOL    HW144633   5.593   5.183   2.308 -1.4361  0.6803  0.9105
46501SOL    HW244634   5.569   5.053   2.382 -0.5173 -0.5371 -0.9003
46502SOL     OW44635   1.917   7.461  10.051  0.1141 -0.1718  0.2051
46502SOL    HW144636   1.886   7.552  10.049 -0.3757 -0.3428 -2.0903
46502SOL    HW244637   2.006   7.466  10.086 -0.9476  0.8166  2.9127
46503SOL     OW44638   0.439   1.549  10.177  0.1547 -0.0853 -0.1133
46503SOL    HW144639   0.480   1.529  10.261 -0.4958 -1.9779 -0.2052
46503SOL    HW244640   0.509   1.540  10.113  0.7585  1.8193  0.2599
46504SOL     OW44641  10.606  10.905  10.878  0.5862  0.0247  0.0153
46504SOL    HW144642  10.604  10.899  10.973 -1.0036 -0.1421 -0.0228
46504SOL    HW244643  10.583  10.997  10.860  0.7066  0.0078 -0.2214
46505SOL     OW44644   8.276  11.225   2.017 -0.2121 -0.1697  0.2532
46505SOL    HW144645   8.249  11.230   1.926  1.7690 -1.9339 -0.4461
46505SOL    HW244646   8.265  11.133   2.041  2.3727 -0.3840  0.7819
46506SOL     OW44647   6.656   8.861   5.762 -0.0877 -0.6470 -0.2581
46506SOL    HW144648   6.651   8.766   5.760 -0.3151 -0.6213 -1.9097
46506SOL    HW244649   6.729   8.880   5.821 -0.9225 -1.7929  1.1683
46507SOL     OW44650  11.077   1.903   3.658 -0.6782 -0.7380  0.2772
46507SOL    HW144651  11.077   1.813   3.693 -0.3766  0.2177  2.8271
46507SOL    HW244652  11.156   1.942   3.695 -0.1376  0.2291 -1.8404
46508SOL     OW44653   2.099   0.471   8.958  0.1818 -0.1189  0.2707
46508SOL    HW144654   2.151   0.405   8.913 -0.0351  1.3916 -2.3018
46508SOL    HW244655   2.153   0.550   8.956 -1.0857  0.7606 -0.0702
46509SOL     OW44656   8.602   3.239   5.231 -0.2857 -0.3740 -0.2725
46509SOL    HW144657   8.512   3.237   5.263 -0.4962 -1.0925 -0.8923
46509SOL    HW244658   8.655   3.251   5.310 -0.9857  1.3617 -0.0400
46510SOL     OW44659   7.832  10.602   5.486  0.0404  1.0977 -0.4320
46510SOL    HW144660   7.870  10.606   5.399  1.2776  1.3896  0.1141
46510SOL    HW244661   7.860  10.683   5.528  1.8191 -0.3212  1.1935
46511SOL     OW44662   3.584   2.513   6.866  0.2984 -0.6987  0.1037
46511SOL    HW144663   3.554   2.601   6.891  0.5459 -0.6079  0.0783
46511SOL    HW244664   3.510   2.476   6.816 -0.1303 -0.8164  0.8190
46512SOL     OW44665   0.325   1.884   0.870  0.2460  0.3256 -0.3896
46512SOL    HW144666   0.282   1.926   0.945 -0.1351 -2.3281  0.9571
46512SOL    HW244667   0.255   1.869   0.807  0.0197 -0.0015 -0.0631
46513SOL     OW44668   4.207   4.019  10.681  0.1779 -0.1315  0.2097
46513SOL    HW144669   4.209   4.019  10.777 -0.9407 -1.0197  0.2348
46513SOL    HW244670   4.300   4.018  10.656  0.4770 -0.2219  1.2790
46514SOL     OW44671  11.052   8.804   9.129 -0.2713  0.5893  0.4796
46514SOL    HW144672  11.083   8.732   9.075 -0.4087  0.9162 -0.0379
46514SOL    HW244673  11.053   8.769   9.218  1.3140  0.4918  0.4461
46515SOL     OW44674   1.740   8.418   9.867  0.0405  0.0955 -0.5234
46515SOL    HW144675   1.683   8.341   9.867 -1.4986  1.1047  3.1794
46515SOL    HW244676   1.691   8.484   9.817  0.3947 -0.6198 -1.8498
46516SOL     OW44677  10.018   5.079   4.794  0.1811  0.6217  0.1222
46516SOL    HW144678  10.095   5.050   4.843  1.3603  1.0387 -1.4478
46516SOL    HW244679   9.971   4.999   4.774  1.2663  0.1528 -0.6307
46517SOL     OW44680   9.283   3.904   8.600  0.2526  0.1501 -0.1404
46517SOL    HW144681   9.359   3.961   8.616 -0.7997  2.2625 -2.3881
46517SOL    HW244682   9.285   3.886   8.506 -0.2067 -2.5113  0.3081
46518SOL     OW44683   5.396   3.920   8.116  0.1161 -0.1350 -0.0752
46518SOL    HW144684   5.398   4.005   8.073 -0.0824  0.9828  2.0424
46518SOL    HW244685   5.488   3.895   8.124  0.2291  0.3631  0.2045
46519SOL     OW44686   9.323  10.087   8.727  0.2682 -0.7039 -0.4247
46519SOL    HW144687   9.293  10.178   8.727 -0.8420 -1.0728 -0.4941
46519SOL    HW244688   9.396  10.086   8.789 -0.1734  0.0838  0.1090
46520SOL     OW44689   9.962   2.798   5.233 -0.4407  0.1931  0.2138
46520SOL    HW144690   9.882   2.843   5.207  0.1380  1.4199  0.4895
46520SOL    HW244691   9.997   2.851   5.305  1.9699  1.1794 -1.5928
46521SOL     OW44692   2.714   5.293   9.790 -0.5403  0.1662  0.4985
46521SOL    HW144693   2.801   5.269   9.823 -0.4727 -1.4967 -0.8192
46521SOL    HW244694   2.655   5.274   9.863 -0.0901 -0.9559  0.5703
46522SOL     OW44695   7.743   4.224   6.378 -0.2986 -0.9098  0.6089
46522SOL    HW144696   7.777   4.227   6.289 -1.3722 -3.0299  0.1028
46522SOL    HW244697   7.816   4.193   6.431 -0.3214 -1.8009  0.1167
46523SOL     OW44698   3.982   8.962   4.885  0.6070 -0.3400  0.6898
46523SOL    HW144699   3.961   8.879   4.843  1.8109  0.1674 -0.9821
46523SOL    HW244700   4.072   8.951   4.915  0.2331 -0.1921  1.8573
46524SOL     OW44701   8.406   1.048   1.305  0.1551 -0.0790 -0.4422
46524SOL    HW144702   8.402   1.106   1.380 -1.6875 -1.1888  0.3654
46524SOL    HW244703   8.340   1.082   1.244  0.5396 -0.1020 -0.8791
46525SOL     OW44704   0.396   2.847   9.349  0.4450  0.3778 -0.4732
46525SOL    HW144705   0.444   2.843   9.267  1.5085 -0.3484  0.1782
46525SOL    HW244706   0.434   2.778   9.403 -1.4212 -0.2950  0.0069
46526SOL     OW44707   0.387   3.863   9.776 -0.1500 -0.7319 -0.0230
46526SOL    HW144708   0.395   3.935   9.838 -1.2367 -0.0531 -0.6702
46526SOL    HW244709   0.416   3.786   9.826 -1.8970 -0.3537  1.6327
46527SOL     OW44710   3.723   4.981   9.430  0.2494  0.5244  0.1143
46527SOL    HW144711   3.717   4.887   9.413  0.4090  0.7100 -1.0485
46527SOL    HW244712   3.797   5.010   9.377 -0.7262  1.5616 -0.7230
46528SOL     OW44713  10.807   9.764   9.193  0.1015 -0.4838 -0.2091
46528SOL    HW144714  10.817   9.698   9.261  2.2056  0.0240  0.0106
46528SOL    HW244715  10.892   9.768   9.149 -0.7227  0.3471 -1.8161
46529SOL     OW44716   2.919   9.274   2.173  0.2471 -0.5758  0.0255
46529SOL    HW144717   2.915   9.199   2.231  1.4058 -0.5187  0.1844
46529SOL    HW244718   3.004   9.314   2.191 -0.7109  1.2619  0.5470
46530SOL     OW44719   1.793   0.819   2.394 -0.3100  0.3707 -0.1223
46530SOL    HW144720   1.825   0.877   2.324  0.9708  1.4201  1.2906
46530SOL    HW244721   1.870   0.802   2.448 -0.5373 -3.1791 -0.8333
46531SOL     OW44722   7.332   4.728   9.236  0.2423 -0.0381  0.4173
46531SOL    HW144723   7.259   4.681   9.277  1.2790  0.7005  3.2039
46531SOL    HW244724   7.409   4.676   9.259  0.7442 -0.2499 -1.6444
46532SOL     OW44725   7.578   8.351   7.343  0.2106 -0.3714  0.5737
46532SOL    HW144726   7.527   8.272   7.323  0.0773 -0.4316  1.1304
46532SOL    HW244727   7.604   8.340   7.435  1.6748 -0.5885  0.1483
46533SOL     OW44728   2.213  10.606   4.742 -0.2286  0.6833  0.2924
46533SOL    HW144729   2.267  10.626   4.818 -1.1243  1.3879  0.7404
46533SOL    HW244730   2.269  10.627   4.667  1.0537 -1.0737  0.7339
46534SOL     OW44731   0.746   8.442   3.722 -0.0739 -0.2542  0.0863
46534SOL    HW144732   0.690   8.397   3.658 -2.0702  1.5047  0.5115
46534SOL    HW244733   0.687   8.505   3.764  1.6639 -0.1049  2.3591
46535SOL     OW44734   4.812   1.825   0.768  0.5672  0.3313 -0.2997
46535SOL    HW144735   4.852   1.900   0.724  1.8859 -0.1640  0.0372
46535SOL    HW244736   4.870   1.752   0.749 -0.4900 -0.5269 -0.2704
46536SOL     OW44737   6.816   3.710   6.425 -0.0420  0.2223  0.1311
46536SOL    HW144738   6.731   3.671   6.403  0.1389 -1.0751  1.6230
46536SOL    HW244739   6.848   3.656   6.498  1.2104  1.8615  0.8082
46537SOL     OW44740   1.432   1.611   5.049 -0.3265  0.0360  0.6665
46537SOL    HW144741   1.437   1.577   4.960 -0.1468  2.2111 -0.1715
46537SOL    HW244742   1.520   1.643   5.068 -0.2560 -0.7770  1.7923
46538SOL     OW44743   5.974   2.332   8.782  0.1269 -0.1864  0.2845
46538SOL    HW144744   5.907   2.400   8.779  1.1189  0.7457 -1.2250
46538SOL    HW244745   6.038   2.365   8.845  0.4896  0.1795 -0.2701
46539SOL     OW44746   0.004   2.705   9.666 -0.1612 -0.2836  0.5379
46539SOL    HW144747   0.067   2.777   9.662 -0.2125 -0.2648 -0.0396
46539SOL    HW244748  -0.080   2.747   9.684 -0.1136 -0.2411  0.6589
46540SOL     OW44749   5.820   1.707   4.912 -0.5248 -0.2722  0.4349
46540SOL    HW144750   5.839   1.613   4.917  3.2906  0.4368  1.2621
46540SOL    HW244751   5.799   1.722   4.820 -1.4970 -1.9732  0.3498
46541SOL     OW44752   2.085   5.705   9.620  0.3150  0.6064  0.8287
46541SOL    HW144753   2.114   5.796   9.614  2.6369 -0.0503  1.5823
46541SOL    HW244754   2.063   5.681   9.530  1.2964  1.4204  0.3513
46542SOL     OW44755   5.918   2.060   9.755  0.6297  0.2645  0.3624
46542SOL    HW144756   5.841   2.114   9.770  0.0267  0.4652 -2.9710
46542SOL    HW244757   5.992   2.120   9.767  0.0547  1.2365 -0.8123
46543SOL     OW44758   7.345  10.038   4.833 -0.4001 -0.1279  0.5495
46543SOL    HW144759   7.292  10.075   4.903 -4.0204 -1.7153 -1.2249
46543SOL    HW244760   7.365   9.949   4.862 -1.2978 -0.5436 -0.0747
46544SOL     OW44761   7.859   3.208   9.513  0.1018  0.9382  0.1760
46544SOL    HW144762   7.944   3.234   9.476 -0.2106  0.2972 -1.0407
46544SOL    HW244763   7.881   3.158   9.591  0.9025 -0.1296 -0.7141
46545SOL     OW44764   8.132   6.694  10.375  0.0045  0.1385  0.4352
46545SOL    HW144765   8.073   6.685  10.300 -0.1496  0.0644  0.5676
46545SOL    HW244766   8.112   6.780  10.412 -2.0482 -1.0671  2.2395
46546SOL     OW44767   2.629   2.756   9.454 -0.0383 -0.0904 -0.5836
46546SOL    HW144768   2.719   2.783   9.473 -0.0558 -1.2950  1.3583
46546SOL    HW244769   2.576   2.834   9.473  0.7295  1.3036 -3.7532
46547SOL     OW44770  10.153   4.052   5.266  0.4417 -0.7127 -0.3747
46547SOL    HW144771  10.088   4.036   5.334  0.7377 -0.3464 -0.0070
46547SOL    HW244772  10.164   3.967   5.223 -0.4499 -0.7238 -0.5902
46548SOL     OW44773   7.897   4.568   4.918  0.0848  1.0613 -0.5838
46548SOL    HW144774   7.870   4.645   4.968 -2.4234  0.1257 -0.4127
46548SOL    HW244775   7.878   4.494   4.976  0.6525  0.1986 -1.4862
46549SOL     OW44776   8.064   9.662   8.337 -0.7650  0.3609  0.0464
46549SOL    HW144777   8.145   9.683   8.382 -0.4909 -1.7728  0.6187
46549SOL    HW244778   8.092   9.624   8.253 -1.2264  1.8176 -0.7809
46550SOL     OW44779   0.318   2.802   5.926 -0.1602 -0.0353  0.1125
46550SOL    HW144780   0.225   2.801   5.903 -0.7083 -0.9542  2.1922
46550SOL    HW244781   0.326   2.873   5.990  0.3081 -0.7868  0.8981
46551SOL     OW44782   1.149   1.862  10.960  0.5460 -0.4871  0.2734
46551SOL    HW144783   1.191   1.948  10.958 -0.0192 -0.1907  1.0183
46551SOL    HW244784   1.056   1.881  10.965  0.4753 -1.1340  1.6119
46552SOL     OW44785   0.587   7.407   4.243  0.0982 -0.0471 -0.9684
46552SOL    HW144786   0.681   7.401   4.225  0.4561  1.5071  0.2102
46552SOL    HW244787   0.565   7.323   4.284  1.4850  0.4368  0.8368
46553SOL     OW44788   4.745   8.254   0.691 -0.2771  0.2617 -0.3178
46553SOL    HW144789   4.737   8.166   0.728 -0.3841  0.7905  0.9576
46553SOL    HW244790   4.831   8.284   0.721 -0.4549  0.7778 -0.3257
46554SOL     OW44791  10.009   9.027   5.394 -0.0553  0.3683 -0.0503
46554SOL    HW144792   9.976   9.102   5.344  1.4449  1.0514 -0.0316
46554SOL    HW244793  10.091   9.058   5.432  0.2655 -1.0908  0.4626
46555SOL     OW44794   2.848   4.538   0.497  0.4523  0.5205 -0.5408
46555SOL    HW144795   2.851   4.444   0.513 -0.6911  0.8663  1.9247
46555SOL    HW244796   2.937   4.561   0.469  1.6114 -0.7912  1.9312
46556SOL     OW44797   9.498   5.117   7.182 -0.0049 -0.2863  0.0103
46556SOL    HW144798   9.535   5.186   7.238  0.8500  0.9799 -2.0393
46556SOL    HW244799   9.408   5.106   7.213 -0.9783  3.5383 -1.1634
46557SOL     OW44800   5.389   4.824   8.468  0.3841  0.2877 -0.3395
46557SOL    HW144801   5.448   4.876   8.522 -0.9387  1.2785  0.1585
46557SOL    HW244802   5.400   4.859   8.379 -0.5484  1.4789  0.0040
46558NA      NA44803   2.968   7.864  10.716  0.1462 -0.0056  0.0318
46559NA      NA44804   8.731  10.070   1.649  0.0039 -0.0492  0.0987
46560NA      NA44805   3.716   2.057   9.287 -0.4351 -0.1259 -0.1492
46561NA      NA44806   0.612   7.627   1.869 -0.4188  0.1996  0.1023
46562NA      NA44807   7.237   2.417   5.236  0.5525  0.2358  0.3374
46563NA      NA44808   0.069   5.713   9.978 -0.0630  0.2229 -0.6251
46564NA      NA44809   1.263   1.135   0.067  0.3039  0.6022 -0.1539
46565NA      NA44810   0.525   1.647   7.043  0.0877  0.1225 -0.0361
46566NA      NA44811   7.252  10.916   8.856  0.0360 -0.1746  0.1812
46567NA      NA44812  10.078   1.814   4.393 -0.0562  0.5318  0.2977
46568NA      NA44813   2.837   5.538  10.350  0.1070 -0.4882 -0.5003
46569NA      NA44814   4.379   3.299   8.660  0.3452  0.2265  0.5422
46570NA      NA44815   7.407   0.087   0.614 -0.6655 -0.1083  0.4374
46571NA      NA44816   5.174   3.994   1.705 -0.2977  0.2653 -0.2528
46572NA      NA44817   8.619   1.863   3.721 -0.2251 -0.0424  0.3107
46573NA      NA44818   1.061   6.651   0.641  0.3148 -0.0337  0.2852
46574NA      NA44819  10.099   6.169   7.624  0.5558 -0.4210 -0.4059
46575NA      NA44820   4.525   5.857   5.936  0.6342  0.2872  0.0902
46576NA      NA44821  10.457   1.084   8.121  0.1710 -0.1962 -0.5608
46577NA      NA44822   8.911   2.952   9.958  0.3918 -0.4172 -0.0623
46578NA      NA44823   0.101   6.306  11.006 -0.4508 -0.9351  0.0062
46579NA      NA44824   6.997   1.193   5.950  0.4424  0.3422 -0.2099
46580NA      NA44825   3.360   2.873   2.031  0.0433  0.5148  0.0674
46581NA      NA44826   3.574   0.075   4.981  0.4888 -0.0189  0.1477
46582NA      NA44827   2.747  10.867   4.734 -0.5089 -0.2015 -0.0560
46583NA      NA44828   0.014   3.500   6.124 -0.2037 -0.1328  0.2153
46584NA      NA44829   7.217   6.912   6.513 -0.1961 -0.0964  0.7019
46585NA      NA44830   7.827  10.638  10.912  0.4706 -0.1350  0.1462
46586NA      NA44831  10.314   5.266   9.404 -0.4615 -0.3421 -0.1013
46587NA      NA44832   9.953  10.426   9.986 -0.3402  0.0934  0.0930
46588NA      NA44833   5.800   3.451   1.076  0.1415 -0.1109  0.0798
46589NA      NA44834   4.837   7.936  10.868  0.1983 -0.1407 -0.2122
46590NA      NA44835   4.954   2.458   3.321  0.7296 -0.4141  0.3102
46591NA      NA44836   4.516   3.245   5.716 -0.0923 -0.5425 -0.0683
46592NA      NA44837   2.016   7.447   3.024  0.2145 -0.1430  0.3302
46593NA      NA44838  11.152   1.314   6.263 -0.7224 -0.5310 -0.3126
46594NA      NA44839   8.556   6.204  10.292 -0.2182  0.1658  0.3398
46595NA      NA44840   2.716   5.901   8.813 -0.0818 -0.1218 -0.0309
46596NA      NA44841   5.298   7.031   0.492 -0.7635  0.1511 -0.2701
46597NA      NA44842   9.469  10.735   0.689  0.0783 -0.5020 -0.0001
46598NA      NA44843   7.327   8.734   7.386 -0.0782  0.3113 -0.2214
46599NA      NA44844   4.235   1.739   5.089  0.0384  0.1242 -0.0801
46600NA      NA44845   0.851   0.763   5.085  0.4921  0.1219 -0.2642
46601NA      NA44846  10.457  10.471   8.294  0.0469 -0.0650  0.3608
46602NA      NA44847   1.932   2.908   6.753 -0.2000 -0.4432 -0.3989
46603NA      NA44848  11.212   6.048   1.686 -0.0599  0.0728 -0.0778
46604NA      NA44849   9.757   2.150  10.225  0.1038 -0.4408 -0.1948
46605NA      NA44850   7.843   8.126  10.478  0.2384 -0.3848  0.4008
46606NA      NA44851  10.010   8.026   2.884 -0.0524  0.3562  0.1998
46607NA      NA44852   1.121   4.205   4.307  0.2932  0.6038 -0.8240
46608NA      NA44853   7.632   1.849   5.610  0.0075  0.0995  0.3079
46609NA      NA44854   2.477   5.233   6.929 -0.1833  1.1612 -0.2623
46610NA      NA44855   5.986   7.570   4.135 -0.1328 -0.5496 -0.0510
46611NA      NA44856  10.844   2.289   0.117  0.0982 -0.2155  0.1066
46612NA      NA44857   6.211   0.966   1.593  0.5451 -0.1448 -0.2489
46613NA      NA44858   1.315   8.042   1.617  0.2742  0.4384  0.0802
46614NA      NA44859   3.529   7.548   1.993  0.4156 -0.1774 -0.0848
46615NA      NA44860   5.394   0.561   6.923 -0.4032 -0.1758  0.0928
46616NA      NA44861   5.382   1.478  10.676  0.0312  0.3062 -0.2841
46617NA      NA44862   4.762   5.247   5.346 -0.3081  0.1019 -0.0757
46618NA      NA44863   9.209   6.450  11.336 -0.3590 -0.2178  0.3288
46619NA      NA44864   8.905   8.397   5.589  0.0078 -0.4225 -0.0028
46620NA      NA44865   7.305   0.278   0.158  0.0329  0.3060  0.5402
46621NA      NA44866   8.345   7.162   5.517 -0.4293 -0.0405  0.0318
46622NA      NA44867   9.410   1.712  10.142  0.3356  0.0941  0.2861
46623NA      NA44868   9.794   8.076   8.015 -0.0114 -0.2040  0.1564
46624NA      NA44869   7.629   3.904   5.771 -0.1459  0.0019 -0.3409
46625NA      NA44870   8.932   9.073   0.544 -0.3386 -0.0438 -0.3107
46626NA      NA44871  11.327   0.515  10.889  0.6161  0.0806 -0.0214
46627NA      NA44872   4.251   5.042  10.231  0.0359 -0.1266 -0.0306
46628NA      NA44873   6.670   4.508   8.820  0.4958 -0.0955  0.0064
46629NA      NA44874   5.614   2.357   5.020  0.0639  0.8901 -0.1603
46630NA      NA44875   4.271   4.501   6.316 -0.4347  0.0332  0.3537
46631NA      NA44876   1.369   5.493   7.272  0.4744  0.0860 -0.0021
46632NA      NA44877   5.330   3.678   7.760 -0.4390 -0.6015 -0.2073
46633NA      NA44878   3.480   0.705  10.183 -0.0515  0.5468 -0.4373
46634NA      NA44879   7.504   0.108   2.657 -0.2939  0.1533  0.4446
46635NA      NA44880   0.623  10.633   4.146 -0.1188 -0.5003  0.4316
46636NA      NA44881   6.477   6.629   4.249 -0.0043  0.2537  0.2773
46637NA      NA44882   9.388   0.957   9.911 -0.1944 -0.3625  0.4293
46638NA      NA44883   5.995   4.311  10.741  0.4332 -0.5660  0.6007
46639NA      NA44884   3.838   9.196  10.558 -0.1667  0.1638 -0.4062
46640NA      NA44885   9.152  11.272  10.945  0.1862  0.0390  0.1895
46641NA      NA44886  11.009   8.893   6.824  0.1486  0.2163  0.3867
46642NA      NA44887   5.228  10.204   9.518 -0.3729  0.3553 -0.0525
46643NA      NA44888   4.230   2.580   7.731  0.2128  0.3403 -0.3202
46644NA      NA44889   9.729   7.082   4.696 -0.6856 -0.4458  0.2276
46645NA      NA44890   3.006   0.859   7.774 -0.2534 -0.1667 -0.1967
46646NA      NA44891   9.579  11.132   6.588  0.1353 -0.4402 -0.0999
46647NA      NA44892   1.113   4.599   8.687  0.1906 -0.2479  0.2404
46648NA      NA44893   6.782   0.871   9.323 -0.2249 -0.0338 -0.5643
46649NA      NA44894   2.800  10.318   3.021  0.0833  0.3228  0.0179
46650NA      NA44895  11.005   5.926   7.007  0.4041  0.2978 -0.5127
46651NA      NA44896   4.611   0.843   3.000 -0.2503 -0.4609 -0.1469
46652NA      NA44897   8.447   8.603   5.505 -0.1467 -0.0115 -0.3793
46653NA      NA44898   4.002   6.845   3.098  0.3528  0.3332  0.6318
46654NA      NA44899   6.464   4.292   1.874  0.1567  0.1150 -0.3021
46655NA      NA44900   2.039   1.364   9.150 -0.0340 -0.2811 -0.0531
46656NA      NA44901   9.278  10.764   4.008 -0.0659 -0.5578 -0.2533
46657NA      NA44902   4.379   5.785   2.183  0.3409 -0.3154  0.5546
46658NA      NA44903   4.028   0.203   5.968  0.2724  0.2051  0.4860
46659NA      NA44904   0.554   3.672   9.079  0.3028 -0.0246  0.3394
46660NA      NA44905   0.637   9.429   2.138  0.0636  0.5106 -0.0319
46661NA      NA44906   6.006  11.316   9.359  0.1156  0.3887  0.2787
46662NA      NA44907   0.084   9.073   5.270  0.3324 -0.1838 -0.2375
46663NA      NA44908  10.064   5.603   5.424  0.4527  0.1992 -0.2733
46664NA      NA44909   8.380   4.029  10.774 -0.1469 -0.6571 -0.4054
46665NA      NA44910   0.626   9.591  11.280  0.1712  0.1803  0.0933
46666NA      NA44911   6.058   2.533   5.606 -0.1606  0.2447  0.3903
46667NA      NA44912   3.818   1.850   2.375  0.2924 -0.1172 -0.1565
46668NA      NA44913   6.810   6.230   2.335  0.6435  0.0516  0.0342
46669NA      NA44914   8.476  11.299   9.346 -0.3877 -0.3754  0.5622
46670NA      NA44915   9.862   4.175   7.184  0.0121 -0.0775  0.1317
46671NA      NA44916   8.153   0.381   0.725 -0.3979  0.2153 -0.8325
46672NA      NA44917   7.230   4.687   0.476  0.4709 -0.5169 -0.2616
46673NA      NA44918   6.775   5.309   9.572  0.0410 -0.2966 -0.2649
46674NA      NA44919   0.463   1.275   1.912 -0.2635  0.4194  0.1608
46675NA      NA44920   7.074   5.431   3.134 -0.0982  0.6377 -0.1208
46676NA      NA44921   0.632  10.951   2.357 -0.0853  0.2136 -0.2481
46677NA      NA44922   4.311   0.704   1.327 -0.0242 -0.0491 -0.8579
46678NA      NA44923   0.829  11.230   9.816  0.3322  0.3834  0.4086
46679NA      NA44924   4.834   0.204   8.053 -0.1966 -0.5628 -0.0107
46680NA      NA44925   4.619   8.438   0.657 -0.3914  0.1483 -0.6324
46681NA      NA44926   5.757   1.353   7.901  0.2589 -0.6318 -0.5317
46682NA      NA44927   9.733   9.497   9.601 -0.9752 -0.0011  0.0851
46683NA      NA44928   9.571   2.059   7.081  0.4134 -0.1627  0.1257
46684NA      NA44929   2.457  10.451   2.049  0.2717 -0.2125 -0.2911
46685NA      NA44930  10.976  10.660   7.241 -0.2280 -0.3236 -0.0952
46686NA      NA44931   0.557   5.095   4.726  0.1416 -0.1049  0.3668
46687NA      NA44932   0.918   5.003   4.320  0.3048  0.6409 -0.4925
46688NA      NA44933   2.267   6.337   2.436  0.2490  0.2987  0.2380
46689NA      NA44934   8.673   6.688   3.489 -0.1662 -0.0950  0.0416
46690NA      NA44935   9.793   1.385   2.609  0.0447  0.1243 -0.0588
46691NA      NA44936   1.961   4.132   2.181 -0.7051  0.0059  0.4694
46692CL      CL44937   2.212  11.243   7.378  0.3889 -0.3135  0.0574
46693CL      CL44938   1.322  11.004   4.522  0.4335 -0.1436 -0.1934
46694CL      CL44939   9.809   7.545   4.662  0.2018  0.3659 -0.1960
46695CL      CL44940  10.229   6.187   4.718  0.0711  0.2519 -0.3595
46696CL      CL44941   6.464   3.491   8.521  0.0429 -0.0651 -0.0408
46697CL      CL44942   8.470   0.380   6.558  0.0005  0.1509  0.1989
46698CL      CL44943   8.636   3.952  10.082  0.1607  0.2453 -0.1227
46699CL      CL44944   6.723   7.052   4.804  0.2308 -0.3543  0.2908
46700CL      CL44945   0.880   5.382   2.445  0.0901  0.1636  0.1499
46701CL      CL44946   8.527  10.714   0.930 -0.0625 -0.3423 -0.1125
46702CL      CL44947   3.552   0.344  10.479 -0.0333  0.1067  0.0688
46703CL      CL44948   4.053   9.127  10.456 -0.1025 -0.5113 -0.4269
46704CL      CL44949   7.780  11.103  10.997  0.4664 -0.1523 -0.0988
46705CL      CL44950   1.423   9.180   2.603  0.3171 -0.3268  0.0828
46706CL      CL44951  10.385   0.674   7.844  0.0572 -0.5200 -0.1159
46707CL      CL44952   2.165  11.264   2.844  0.5443  0.3655  0.0956
46708CL      CL44953   0.766  10.915   0.862  0.2576 -0.1479 -0.4524
46709CL      CL44954  10.159   8.279   3.268  0.1088 -0.1684  0.3662
46710CL      CL44955  10.531   8.727   5.131  0.2424  0.0305  0.0689
46711CL      CL44956   1.701   9.335  10.946  0.0269  0.1861  0.2779
46712CL      CL44957   2.903   2.880   9.524 -0.0716 -0.1094 -0.1541
46713CL      CL44958   2.739   4.114   6.844  0.3944  0.0498 -0.1375
46714CL      CL44959   1.392   3.722   1.189  0.3520  0.0916  0.1931
46715CL      CL44960   2.849   5.270   1.645 -0.1851 -0.4066  0.3397
46716CL      CL44961   5.562   5.017   9.370  0.2650  0.1325 -0.0280
46717CL      CL44962   0.591   9.417   5.938 -0.1767  0.2249 -0.0303
46718CL      CL44963   8.118   7.869   2.508  0.0419 -0.0242  0.1610
46719CL      CL44964   2.162   1.890   7.424 -0.0388 -0.0019  0.1312
46720CL      CL44965   3.968   6.615   3.179  0.2832  0.4523  0.1345
46721CL      CL44966   3.456   0.717   4.581 -0.3351 -0.2112  0.4867
46722CL      CL44967   5.785   3.278   2.619  0.0480 -0.0822 -0.0828
46723CL      CL44968   9.842   1.572   2.456  0.0732  0.3728 -0.4662
46724CL      CL44969   3.208   6.887  11.109 -0.0402  0.3172 -0.3704
46725CL      CL44970   7.503  10.792   3.023 -0.1210 -0.3753 -0.3431
46726CL      CL44971   9.257  10.332   5.093 -0.1145  0.3146 -0.0697
46727CL      CL44972  11.138   2.669   5.529 -0.0526  0.2074 -0.0483
46728CL      CL44973   4.035   2.535   7.859  0.0893  0.3649  0.0438
46729CL      CL44974   4.630   2.011   1.478 -0.6359 -0.1584 -0.3315
46730CL      CL44975   1.582   3.169   7.365  0.0403  0.0706  0.1290
46731CL      CL44976   7.811   6.244   2.644  0.1974 -0.1541 -0.4105
46732CL      CL44977   1.700   8.303   9.083 -0.1078 -0.0130 -0.1385
46733CL      CL44978   8.410  10.463   7.290 -0.0867 -0.1577  0.1643
46734CL      CL44979   3.408   4.139   3.477 -0.2973  0.3160 -0.2061
46735CL      CL44980   6.934   1.809   6.103 -0.2570  0.6640 -0.2855
46736CL      CL44981   6.824   1.029   1.491 -0.2230  0.0778  0.1508
46737CL      CL44982   9.579   0.245   0.188 -0.3875 -0.0611  0.0351
46738CL      CL44983   4.786  10.431   3.251  0.4495  0.5570  0.3415
46739CL      CL44984   7.502   9.879   2.221 -0.1764  0.5898  0.1103
46740CL      CL44985   4.568   6.951   4.265 -0.3844  0.1150  0.3815
46741CL      CL44986  10.445   0.489   6.596 -0.5960 -0.1268 -0.0078
46742CL      CL44987   1.493  10.599   3.925  0.3715  0.3753 -0.1506
46743CL      CL44988   9.808   0.070   2.426 -0.1513  0.1519 -0.4946
46744CL      CL44989   8.621   2.321  10.652 -0.0868 -0.0524 -0.0266
46745CL      CL44990   8.784   1.981   1.113  0.4924  0.0639 -0.1557
46746CL      CL44991   0.098   1.812   0.656  0.1072  0.2446  0.3854
46747CL      CL44992   7.139   5.626   2.694 -0.2101 -0.0658 -0.4344
46748CL      CL44993   8.685   7.663  10.540  0.0381  0.2179  0.5571
46749CL      CL44994  10.378   2.012   0.616  0.0768  0.3679 -0.2795
46750CL      CL44995   0.497   1.408   1.702  0.5974 -0.3359  0.1691
46751CL      CL44996   6.560   6.598   4.474  0.0057  0.6333  0.0315
46752CL      CL44997   0.882   6.391   9.051  0.4476  0.0911  0.4219
46753CL      CL44998  11.143   7.392   1.267  0.2261  0.0976  0.1467
46754CL      CL44999   5.389   4.701   0.962 -0.1946 -0.0462  0.4185
46755CL      CL45000   3.141  10.446   1.104  0.1502  0.0065  0.2447
46756CL      CL45001   6.458   5.195  10.314 -0.1470  0.1715  0.6209
46757CL      CL45002   6.269   5.338   9.378 -0.0382  0.1330 -0.0805
46758CL      CL45003   5.079   0.506   7.811  0.4688 -0.0531 -0.0670
46759CL      CL45004   4.220   6.894   2.201 -0.4526  0.3270  0.1285
46760CL      CL45005   5.121   6.575   0.028 -0.0330  0.1729  0.2061
46761CL      CL45006   6.339  10.600   9.813  0.1368 -0.2040 -0.0603
46762CL      CL45007  11.031   2.422   6.867 -0.1541 -0.1571 -0.5455
46763CL      CL45008   6.033   3.807   6.934 -0.0367 -0.2617 -0.0234
46764CL      CL45009   5.696   4.145   0.551 -0.1892  0.1462  0.1711
46765CL      CL45010   5.685   2.509   5.212  0.0323 -0.1595  0.0688
46766CL      CL45011   0.294   5.356   6.754  0.0848  0.2691 -0.4262
46767CL      CL45012   4.186   4.814   7.924  0.3945  0.2695 -0.2110
46768CL      CL45013   1.540  10.544   7.879  0.2168 -0.2849 -0.0258
46769CL      CL45014  10.469   3.999   3.523  0.1232 -0.0083 -0.0628
46770CL      CL45015   2.230   2.932   2.537 -0.2846 -0.5147  0.3617
46771CL      CL45016   0.518   2.982   5.532 -0.2719 -0.2043 -0.0236
46772CL      CL45017   1.700   4.116   6.891 -0.0601 -0.0884  0.2653
46773CL      CL45018   7.157  10.178   8.007  0.1348  0.0467 -0.3885
46774CL      CL45019   0.728   8.676   0.687 -0.1296  0.2029 -0.3738
46775CL      CL45020   8.797  10.286   9.919  0.0846 -0.0990  0.0797
46776CL      CL45021   7.845   1.703   2.116  0.5722 -0.0173  0.1108
46777CL      CL45022  10.213   4.596   9.809 -0.0726 -0.1107  0.4719
46778CL      CL45023   8.841   8.684   6.955 -0.0597 -0.3631  0.0802
46779CL      CL45024   9.952   3.403   8.094 -0.1797 -0.2096  0.3367
46780CL      CL45025   3.971   1.088   4.705  0.0781 -0.2063 -0.0517
46781CL      CL45026   9.873   0.698   8.338 -0.0689 -0.0748  0.0924
46782CL      CL45027   1.220   6.521   4.343 -0.0361  0.0990  0.5690
46783CL      CL45028   8.360   5.094   6.723 -0.4533 -0.0961  0.0344
46784CL      CL45029   8.962   9.333   9.700 -0.1391  0.0437 -0.0047
46785CL      CL45030   4.527   2.519   3.156  0.2298  0.2888 -0.1234
46786CL      CL45031   3.019   9.357   8.146  0.2563 -0.1221  0.1432
46787CL      CL45032   5.739   5.511   5.441 -0.0117  0.1316  0.2251
46788CL      CL45033   4.728   1.228   6.624  0.1911 -0.0475  0.1069
46789CL      CL45034   9.871   7.862   7.933  0.2005 -0.0799 -0.1282
46790CL      CL45035  11.040   8.823   7.952 -0.1381  0.0057 -0.3475
46791CL      CL45036   6.374   9.772   1.499 -0.3544  0.1476  0.4197
46792CL      CL45037  10.190   2.371   7.334 -0.0674 -0.0447 -0.4710
46793CL      CL45038   2.035   6.337   8.254  0.1266 -0.2766  0.2259
46794CL      CL45039   7.502   2.239   9.072 -0.1637 -0.1688 -0.2279
46795CL      CL45040   8.541   5.336   3.076 -0.0020 -0.4854 -0.0338
46796CL      CL45041   6.363   5.408   6.421  0.3470  0.1919  0.1771
46797CL      CL45042   0.708   4.874   4.676  0.4047  0.0574  0.0258
46798CL      CL45043   5.747   1.704   3.731 -0.2306 -0.0623  0.1052
46799CL      CL45044   4.014   6.484  10.138  0.2008  0.3360  0.0075
46800CL      CL45045   5.242   4.311   3.956  0.3642 -0.0210 -0.3462
46801CL      CL45046   7.137  10.805   0.365  0.1258  0.0256  0.0636
46802CL      CL45047   3.070   1.525   9.687  0.6772 -0.0290 -0.3306
46803CL      CL45048   0.834   0.265  10.484 -0.5706  0.3137  0.5260
46804CL      CL45049   9.550   4.696   9.463 -0.1556 -0.2404 -0.6148
46805CL      CL45050   5.608   2.132   5.114 -0.4178 -0.3827 -0.5036
46806CL      CL45051   0.233   0.423   6.905 -0.2706  0.3470  0.0631
46807CL      CL45052   2.961   4.381   1.905  0.4050 -0.3599 -0.1949
46808CL      CL45053  11.335   7.835   5.373 -0.2028 -0.0535 -0.0919
46809CL      CL45054  11.116   0.277   7.513  0.0097 -0.2916  0.0623
46810CL      CL45055   9.008   5.689   4.634 -0.2118  0.2508 -0.2444
46811CL      CL45056   1.357   8.679   1.664 -0.1026 -0.4824 -0.2013
46812CL      CL45057  11.230   5.249  10.878  0.0735  0.2629  0.4240
46813CL      CL45058   2.405   1.420   8.322  0.3328  0.0043 -0.5005
46814CL      CL45059   0.079  10.862   3.775 -0.4248 -0.3777 -0.0686
46815CL      CL45060   8.072  10.083  10.566 -0.6175  0.0819  0.2701
46816CL      CL45061   1.669   1.583   6.142  0.3025  0.3260 -0.0317
46817CL      CL45062   8.845   8.876   0.632 -0.3103  0.0311  0.0542
46818CL      CL45063   7.472   0.545  10.143  0.3753  0.2448 -0.0056
46819CL      CL45064  10.876   3.071   7.894 -0.0867  0.1466 -0.2210
46820CL      CL45065  10.348   1.958  10.420 -0.0172 -0.2866 -0.1534
46821CL      CL45066   1.349   3.995   6.514 -0.2909  0.4488 -0.2821
46822CL      CL45067   3.870   0.282   2.266 -0.3374 -0.4869 -0.1743
46823CL      CL45068   7.225   0.266   6.405  0.3435 -0.0358  0.2016
46824CL      CL45069   9.274   0.075   7.203 -0.1904 -0.3388 -0.1620
46825CL      CL45070   7.581   6.810  10.000  0.3042 -0.3798 -0.0124
  11.33655  11.33655  11.33655
